FOO
141312
    1MOL0     O    1   4.014   4.133  11.304 -0.1686 -0.6599 -0.9613
    1MOL0     C    2   4.056   4.198  11.399 -0.1549 -0.1471  0.1463
    1MOL0     O    3   4.035   4.169  11.527 -0.2333 -0.5135  1.1953
    1MOL0     C    4   3.985   4.040  11.567 -0.9172  0.2370  0.0445
    1MOL0     C    5   4.031   3.922  11.514 -0.3318  0.2862  0.8101
    1MOL0     C    6   4.013   3.803  11.583  0.6791 -0.6160  0.0070
    1MOL0     C    7   3.921   3.798  11.686  0.1533 -0.4473 -0.0682
    1MOL0     O    8   3.881   3.676  11.724 -0.2307  0.4695  0.5059
    1MOL0     C    9   3.846   3.647  11.855 -0.1399  0.3532 -0.1873
    1MOL0     C   10   3.911   3.515  11.906 -0.0127 -0.8956 -0.5424
    1MOL0     C   11   3.901   3.390  11.810 -0.5810 -0.8509 -0.6381
    1MOL0     C   12   3.893   3.257  11.878  0.1404 -0.3843  0.3621
    1MOL0     C   13   3.893   3.157  11.762 -0.3843  0.2732  0.0088
    1MOL0     C   14   3.847   3.023  11.821  0.1606 -0.2530 -0.5834
    1MOL0     C   15   3.863   2.915  11.724  0.3620 -0.8242  0.0323
    1MOL0     C   16   4.012   2.882  11.695  0.2817 -0.4879 -0.1151
    1MOL0     N   17   4.023   2.766  11.604 -0.3241 -0.0016  0.3712
    1MOL0     C   18   4.016   2.633  11.640 -0.1011 -0.9968 -0.1976
    1MOL0     C   19   4.033   2.569  11.525  0.1815  0.4222 -0.7171
    1MOL0     C   20   4.043   2.421  11.506  0.2176 -0.4545 -0.8748
    1MOL0     C   21   3.912   2.372  11.554  0.8948 -0.3349 -0.2441
    1MOL0     C   22   3.902   2.218  11.538  0.7934  0.2491  0.7558
    1MOL0     C   23   3.780   2.154  11.606 -0.0650 -0.2921  0.0189
    1MOL0     O   24   3.804   2.012  11.591 -0.5089 -0.8374  0.4845
    1MOL0     C   25   3.825   1.939  11.701 -1.5038  0.3587 -0.1901
    1MOL0     C   26   3.949   1.881  11.718  0.1148  0.2548  0.1594
    1MOL0     C   27   3.971   1.780  11.811  0.4210 -0.1971 -0.2951
    1MOL0     C   28   4.103   1.708  11.826 -0.0930  0.4305 -0.2820
    1MOL0     C   29   3.869   1.745  11.898  0.5428 -0.5327 -0.0212
    1MOL0     C   30   3.880   1.647  12.008 -0.0425 -0.6277  0.1242
    1MOL0     O   31   3.958   1.538  11.982 -0.0207  0.0089 -0.1650
    1MOL0     C   32   3.951   1.435  12.076 -0.3099 -0.0963  0.1319
    1MOL0     C   33   4.060   1.414  12.156  0.8909 -0.3961  0.2799
    1MOL0     C   34   4.047   1.323  12.252  0.2501  0.4161  0.9790
    1MOL0     C   35   3.933   1.246  12.287 -0.8823 -0.4291  0.9984
    1MOL0     O   36   3.949   1.163  12.396  0.9984  0.4597 -1.0336
    1MOL0     C   37   3.847   1.061  12.416  0.0234  0.9805 -0.0951
    1MOL0     C   38   3.718   1.112  12.483  0.6909 -0.2938  0.4472
    1MOL0     C   39   3.656   1.043  12.603 -1.1876  0.0066 -0.3629
    1MOL0     C   40   3.520   1.116  12.640  0.1003 -0.0058  0.1512
    1MOL0     C   41   3.454   1.037  12.748 -0.0264  0.7629 -0.3111
    1MOL0     C   42   3.303   1.048  12.743  0.3391  1.4066  0.5706
    1MOL0     C   43   3.242   0.948  12.631 -0.2725 -0.9797 -0.4374
    1MOL0     C   44   3.090   0.961  12.647  0.3371  0.4148 -0.9879
    1MOL0    Cl   45   3.010   0.858  12.538 -0.0549  0.0915  0.4164
    1MOL0     C   46   3.832   1.264  12.199 -0.0099  0.1159  1.8690
    1MOL0     C   47   3.843   1.348  12.077  0.7933  0.5805 -0.8190
    1MOL0     O   48   3.832   1.668  12.125  1.2613  0.5068  0.4783
    1MOL0     C   49   3.748   1.819  11.888  0.2908  0.1726 -0.1163
    1MOL0     C   50   3.720   1.903  11.782  0.2985 -0.3018  0.4108
    1MOL0     N   51   4.049   2.656  11.421  0.2934 -0.5171  0.2065
    1MOL0     N   52   4.030   2.776  11.469 -0.7725  0.1293 -0.1743
    1MOL0     C   53   3.879   3.923  11.742 -0.7083  0.5035 -1.1272
    1MOL0     C   54   3.915   4.036  11.683  0.4310  0.8962 -0.4174
    1MOL0     C   55   4.069   4.339  11.379 -0.1190  0.0312  0.1062
    1MOL0     C   56   3.974   4.421  11.441  0.3020  0.0770 -0.0434
    1MOL0     C   57   3.982   4.566  11.422 -0.1086  0.4141  0.4651
    1MOL0     C   58   4.083   4.618  11.335 -0.8609  0.1083  0.7880
    1MOL0     O   59   4.095   4.750  11.322  0.5338  0.2783  0.3407
    1MOL0     C   60   4.130   4.807  11.190  0.5777  0.3127  0.2805
    1MOL0     C   61   4.019   4.891  11.138  1.2012  0.1648  0.4842
    1MOL0     C   62   4.044   4.949  10.996  0.0119  0.4502 -0.8301
    1MOL0     C   63   3.974   5.079  10.954 -0.5983  0.3515 -0.5933
    1MOL0     C   64   3.830   5.045  10.917  0.0037  0.5379  0.6745
    1MOL0     C   65   3.708   5.023  10.896 -0.3306 -0.1113  0.0165
    1MOL0     C   66   4.168   4.532  11.278  0.3388  0.0628 -0.4876
    1MOL0     C   67   4.164   4.395  11.294  0.5693  0.2308 -0.0424
    1MOL0     C   68   4.253   4.302  11.207  0.4077 -0.4092  0.5739
    1MOL0     H   69   4.093   3.913  11.425 -1.2557  0.6024  0.1189
    1MOL0     H   70   4.045   3.709  11.539 -2.3426 -1.7604 -0.0092
    1MOL0     H   71   3.739   3.629  11.860  0.1754 -1.9309  4.9041
    1MOL0     H   72   3.868   3.725  11.928  2.4483 -2.6997  2.6300
    1MOL0     H   73   4.014   3.541  11.930 -0.8324  0.6154  1.7222
    1MOL0     H   74   3.866   3.492  12.003  1.6629  1.8713  1.0117
    1MOL0     H   75   3.821   3.397  11.735 -1.4130 -2.5723  0.0290
    1MOL0     H   76   3.998   3.384  11.760  1.7673  2.6666  2.8968
    1MOL0     H   77   3.977   3.237  11.946 -1.1150 -0.0204  2.0981
    1MOL0     H   78   3.804   3.249  11.941  0.1047 -0.1708  0.3385
    1MOL0     H   79   3.995   3.148  11.723 -1.3718 -1.2312 -2.4375
    1MOL0     H   80   3.822   3.182  11.684 -1.3823  2.1075  1.4158
    1MOL0     H   81   3.909   3.004  11.909 -0.5404  0.1074 -0.0033
    1MOL0     H   82   3.739   3.029  11.841 -0.2813 -1.8211 -2.1692
    1MOL0     H   83   3.809   2.938  11.631  0.0062  0.7950  0.6044
    1MOL0     H   84   3.804   2.837  11.772 -0.9804  1.2873  2.0401
    1MOL0     H   85   4.052   2.967  11.638 -0.0698  0.9180  1.6461
    1MOL0     H   86   4.083   2.868  11.777  4.1993  0.4295 -3.0222
    1MOL0     H   87   4.016   2.602  11.744 -0.3608  0.6646  0.3314
    1MOL0     H   88   4.125   2.386  11.570 -0.7637 -0.6163  0.3399
    1MOL0     H   89   4.062   2.386  11.404  1.5873 -1.1781 -0.4082
    1MOL0     H   90   3.894   2.389  11.661 -6.0610 -1.4250 -0.7991
    1MOL0     H   91   3.818   2.402  11.507  0.2497 -0.0972  1.1266
    1MOL0     H   92   3.921   2.192  11.434 -2.2838  3.6991 -0.8934
    1MOL0     H   93   3.993   2.174  11.581 -0.7863 -1.8718  2.1309
    1MOL0     H   94   3.761   2.188  11.708 -0.8077  2.2117 -0.8829
    1MOL0     H   95   3.687   2.190  11.561 -1.3163 -0.8304  2.0236
    1MOL0     H   96   4.025   1.896  11.643  0.5003 -4.6104 -0.7414
    1MOL0     H   97   4.183   1.779  11.799 -1.0581  2.0619  0.9036
    1MOL0     H   98   4.097   1.610  11.780  0.9516 -0.1167  0.7075
    1MOL0     H   99   4.123   1.690  11.932  0.9582 -0.7865 -0.6598
    1MOL0     H  100   4.152   1.472  12.158 -0.2906  1.7044 -1.8384
    1MOL0     H  101   4.133   1.308  12.317  1.4551  0.7716 -0.4676
    1MOL0     H  102   3.819   1.014  12.321 -1.3465  0.3126  0.6014
    1MOL0     H  103   3.902   0.984  12.471  0.3947  0.7450 -0.7793
    1MOL0     H  104   3.731   1.218  12.507 -0.8247  0.0879 -0.3106
    1MOL0     H  105   3.634   1.100  12.414 -0.0574 -3.2291  1.7342
    1MOL0     H  106   3.722   1.026  12.688  0.6728  0.8123 -1.5955
    1MOL0     H  107   3.623   0.945  12.569 -1.0025  0.4128 -1.7737
    1MOL0     H  108   3.459   1.138  12.551  1.5755  1.6132 -0.5247
    1MOL0     H  109   3.542   1.213  12.686  0.6828  0.9590 -1.9892
    1MOL0     H  110   3.489   0.934  12.757  1.9228  1.3903 -0.1713
    1MOL0     H  111   3.481   1.076  12.847 -1.7549 -1.3843  1.1126
    1MOL0     H  112   3.276   1.152  12.724 -2.3203  1.0304  1.8392
    1MOL0     H  113   3.274   1.022  12.845  1.6144  1.0669  0.8705
    1MOL0     H  114   3.285   0.849  12.648  0.8888 -0.7429 -1.7875
    1MOL0     H  115   3.264   0.981  12.529  0.7072  0.7336  0.2688
    1MOL0     H  116   3.064   1.060  12.609 -0.5696 -0.0698 -1.6518
    1MOL0     H  117   3.048   0.940  12.745  0.8091  0.5376 -0.7582
    1MOL0     H  118   3.741   1.208  12.213 -0.6891  1.0604  1.3109
    1MOL0     H  119   3.765   1.350  12.002  1.2175 -0.3490 -1.2989
    1MOL0     H  120   3.667   1.789  11.953 -0.3654  0.6596 -0.7000
    1MOL0     H  121   3.618   1.940  11.784  1.0891  1.9704  1.5879
    1MOL0     H  122   3.823   3.931  11.834  0.5259 -1.0483 -0.1758
    1MOL0     H  123   3.919   4.133  11.732  1.7773 -0.7966  3.1928
    1MOL0     H  124   3.902   4.375  11.508  2.5892 -3.3491  0.3326
    1MOL0     H  125   3.921   4.643  11.469 -4.2928 -0.3584 -3.0254
    1MOL0     H  126   4.227   4.857  11.186  0.3709  1.1422  3.0376
    1MOL0     H  127   4.136   4.728  11.115  0.1050  0.8414 -0.3243
    1MOL0     H  128   4.014   4.976  11.206  1.1557  1.6701 -1.3151
    1MOL0     H  129   3.920   4.846  11.145 -1.5055  5.0051 -1.9851
    1MOL0     H  130   4.153   4.957  10.988  0.4773  0.3077  3.3797
    1MOL0     H  131   4.002   4.876  10.926 -2.6543  0.6510  0.4564
    1MOL0     H  132   4.026   5.136  10.876  2.9793  2.3357  2.8905
    1MOL0     H  133   3.990   5.151  11.035 -1.2805 -0.8978  0.6977
    1MOL0     H  134   3.607   4.999  10.867  0.1126  1.4770 -3.3866
    1MOL0     H  135   4.249   4.572  11.217  1.5327  0.6752  1.4297
    1MOL0     H  136   4.217   4.307  11.104  0.1586 -1.9632  0.5691
    1MOL0     H  137   4.357   4.327  11.187  0.4743 -0.8848  0.3343
    1MOL0     H  138   4.258   4.196  11.233 -0.6352 -0.6175 -0.0021
    2MOL0     O  139   8.721   3.565   2.399 -0.0910 -0.1566  0.3127
    2MOL0     C  140   8.743   3.440   2.397  0.7287 -0.5573  0.4968
    2MOL0     O  141   8.642   3.345   2.396 -0.9647 -0.4776  0.1925
    2MOL0     C  142   8.511   3.385   2.409  0.0584 -0.0583  0.2696
    2MOL0     C  143   8.475   3.481   2.514  1.3250  0.0638 -0.1303
    2MOL0     C  144   8.336   3.506   2.536  0.7091  0.1132 -0.8579
    2MOL0     C  145   8.238   3.448   2.456  0.4553  0.1828  0.2773
    2MOL0     O  146   8.100   3.484   2.481 -0.1885 -0.3094 -0.5593
    2MOL0     C  147   7.997   3.461   2.380  0.1160  0.5008 -0.2181
    2MOL0     C  148   7.893   3.571   2.408 -0.1047  0.3476  0.0134
    2MOL0     C  149   7.773   3.544   2.317 -0.0267  0.2415 -0.2964
    2MOL0     C  150   7.669   3.664   2.337 -1.4347  1.0658  0.4970
    2MOL0     C  151   7.533   3.611   2.286 -0.1947 -0.1236 -0.0656
    2MOL0     C  152   7.420   3.711   2.312 -0.6462  0.3616 -0.4856
    2MOL0     C  153   7.293   3.656   2.247  0.8871  0.0668 -0.5693
    2MOL0     C  154   7.226   3.546   2.334 -1.1847 -0.6519  0.4139
    2MOL0     N  155   7.092   3.508   2.291  0.1838  1.0749 -0.1832
    2MOL0     C  156   7.046   3.496   2.161 -0.0003  0.4510  0.7305
    2MOL0     C  157   6.922   3.456   2.173  0.7346  1.0854 -0.0987
    2MOL0     C  158   6.827   3.409   2.057 -0.8195  0.1076 -0.2654
    2MOL0     C  159   6.708   3.503   2.031 -0.6551 -0.3230  0.2490
    2MOL0     C  160   6.751   3.634   1.949 -0.8087 -0.4664  0.4003
    2MOL0     C  161   6.637   3.729   1.945  0.0668 -0.5906 -0.7506
    2MOL0     O  162   6.600   3.766   2.086 -0.0220  0.1357  0.9297
    2MOL0     C  163   6.492   3.849   2.098 -0.2294  0.1741  0.4284
    2MOL0     C  164   6.481   3.922   2.215  0.0830  0.8436  1.0742
    2MOL0     C  165   6.367   4.000   2.249 -0.7471 -0.4362  0.6495
    2MOL0     C  166   6.376   4.073   2.380  0.3360  0.3511 -0.0585
    2MOL0     C  167   6.252   3.987   2.177 -0.0608  0.0661  1.1986
    2MOL0     C  168   6.112   4.035   2.207 -0.5517  0.2781 -0.5303
    2MOL0     O  169   6.093   4.170   2.249 -0.1326  0.4030  0.1322
    2MOL0     C  170   5.954   4.190   2.278 -0.6057 -1.3137  0.7719
    2MOL0     C  171   5.877   4.104   2.356  0.7301 -0.2757  0.0880
    2MOL0     C  172   5.742   4.126   2.375  0.0372  0.5156  0.9893
    2MOL0     C  173   5.683   4.251   2.341 -0.0557 -0.4330 -0.0570
    2MOL0     O  174   5.564   4.295   2.374 -1.0786  0.2291 -0.3881
    2MOL0     C  175   5.460   4.242   2.293 -1.2420  0.2876 -0.2387
    2MOL0     C  176   5.316   4.283   2.339 -0.2556 -0.4983  0.2237
    2MOL0     C  177   5.277   4.206   2.469  0.1984  0.6464 -1.0348
    2MOL0     C  178   5.124   4.224   2.480  0.0167  0.0997 -0.9791
    2MOL0     C  179   5.086   4.152   2.621 -1.0527 -0.3067 -0.0187
    2MOL0     C  180   4.945   4.141   2.655 -0.8290  0.9359  0.3284
    2MOL0     C  181   4.924   4.059   2.788 -0.3827 -0.8039  0.1549
    2MOL0     C  182   4.788   3.985   2.787  0.2823  0.2547 -1.1388
    2MOL0    Cl  183   4.657   4.122   2.820  0.4040 -0.0450 -0.2557
    2MOL0     C  184   5.759   4.342   2.265 -1.2465 -0.0408  0.5628
    2MOL0     C  185   5.895   4.311   2.228 -0.7167 -0.4859 -0.2708
    2MOL0     O  186   6.030   3.951   2.179  0.3052  0.8010  0.1414
    2MOL0     C  187   6.266   3.906   2.063  0.5684 -1.2305  0.4905
    2MOL0     C  188   6.383   3.841   2.018  0.3375 -0.3043 -0.3679
    2MOL0     N  189   6.883   3.449   2.309 -0.2634  0.4911 -0.3598
    2MOL0     N  190   6.988   3.480   2.385  0.6357  0.1856  1.0790
    2MOL0     C  191   8.277   3.366   2.346 -0.0115  0.8358 -0.1424
    2MOL0     C  192   8.412   3.330   2.323  0.9622 -0.1774 -0.1356
    2MOL0     C  193   8.886   3.398   2.375 -0.1312 -0.3765  0.2301
    2MOL0     C  194   8.918   3.264   2.411  0.9599  0.5500  0.2264
    2MOL0     C  195   9.051   3.225   2.407  0.2500  0.5891 -0.3169
    2MOL0     C  196   9.154   3.315   2.368  0.1036  0.5453  0.1525
    2MOL0     O  197   9.285   3.275   2.391  0.1275  0.7297 -0.5170
    2MOL0     C  198   9.359   3.359   2.483 -0.2639  0.1276  0.6344
    2MOL0     C  199   9.374   3.308   2.617 -0.0906 -0.4389 -0.0424
    2MOL0     C  200   9.398   3.158   2.619 -0.2744  0.5581 -0.8007
    2MOL0     C  201   9.396   3.117   2.761  0.1123  0.9256 -0.5496
    2MOL0     C  202   9.408   2.968   2.770 -0.3269  0.0884  0.2249
    2MOL0     C  203   9.411   2.849   2.764 -0.1434  0.0633 -1.2281
    2MOL0     C  204   9.117   3.444   2.313 -0.7272  0.3678  0.1494
    2MOL0     C  205   8.979   3.484   2.298 -0.5203  1.1595  0.2155
    2MOL0     C  206   8.952   3.608   2.221 -0.8418 -0.1486 -0.2661
    2MOL0     H  207   8.552   3.533   2.570  0.6280  0.4461  0.4970
    2MOL0     H  208   8.305   3.555   2.628  2.4644 -1.1698  0.4963
    2MOL0     H  209   7.958   3.359   2.373  2.4283 -0.3011 -3.3420
    2MOL0     H  210   8.035   3.491   2.282 -3.8827  2.6702 -1.3699
    2MOL0     H  211   7.862   3.567   2.513 -0.8185 -0.6324 -0.2233
    2MOL0     H  212   7.943   3.668   2.400  1.4604 -0.4337 -0.0201
    2MOL0     H  213   7.795   3.535   2.210 -0.2912 -1.2796 -0.2588
    2MOL0     H  214   7.722   3.451   2.344  0.9295  0.0203  0.8532
    2MOL0     H  215   7.665   3.706   2.437  0.8115 -0.5328  1.3390
    2MOL0     H  216   7.697   3.752   2.278 -2.4247  1.5297  0.6924
    2MOL0     H  217   7.507   3.509   2.318  0.0461 -0.8223 -1.9742
    2MOL0     H  218   7.540   3.603   2.177  0.2275 -1.3467  0.0351
    2MOL0     H  219   7.401   3.735   2.417 -2.9679 -0.1321 -0.7249
    2MOL0     H  220   7.464   3.795   2.258  0.0008  2.0362  2.4355
    2MOL0     H  221   7.297   3.618   2.145  1.3348  0.0087 -0.5312
    2MOL0     H  222   7.225   3.742   2.245  2.8876  1.7362 -3.6650
    2MOL0     H  223   7.290   3.460   2.311 -0.4180 -0.1279  0.5711
    2MOL0     H  224   7.226   3.564   2.441  0.3504  0.3453  0.2727
    2MOL0     H  225   7.108   3.513   2.073 -2.8918  0.5450 -1.4236
    2MOL0     H  226   6.783   3.313   2.087 -2.7204  1.7520  2.5848
    2MOL0     H  227   6.882   3.407   1.962  0.9400  2.5330  0.5971
    2MOL0     H  228   6.654   3.445   1.956  1.7935  1.8133 -3.4940
    2MOL0     H  229   6.647   3.517   2.120  2.0747 -2.1637  2.6241
    2MOL0     H  230   6.840   3.686   1.986 -1.0172  0.1934 -0.0098
    2MOL0     H  231   6.774   3.608   1.845 -0.1947 -1.3346  0.7402
    2MOL0     H  232   6.645   3.821   1.886 -2.6271 -0.2227 -0.6977
    2MOL0     H  233   6.553   3.681   1.892 -2.5509  2.7673 -0.0247
    2MOL0     H  234   6.570   3.917   2.276  1.3386 -1.7834 -0.7902
    2MOL0     H  235   6.273   4.104   2.403  0.4021 -0.2837  1.1543
    2MOL0     H  236   6.430   4.165   2.355 -1.7616  0.8784 -3.2339
    2MOL0     H  237   6.422   4.009   2.455  2.5793 -2.9767 -3.8439
    2MOL0     H  238   5.932   4.016   2.388  4.0047  0.5697 -2.5748
    2MOL0     H  239   5.681   4.049   2.421 -0.6881 -0.2079 -1.0652
    2MOL0     H  240   5.484   4.286   2.196 -1.4379 -1.0968 -0.9345
    2MOL0     H  241   5.476   4.134   2.293 -0.9404  0.3012 -2.5431
    2MOL0     H  242   5.319   4.387   2.372  0.8112 -0.2538 -0.5777
    2MOL0     H  243   5.238   4.270   2.264 -0.5600  0.8823  0.2862
    2MOL0     H  244   5.333   4.244   2.555 -1.5519  0.7244  0.1285
    2MOL0     H  245   5.289   4.098   2.462 -0.9103  0.4511 -0.2227
    2MOL0     H  246   5.073   4.177   2.396  0.1378  3.6569 -3.2662
    2MOL0     H  247   5.088   4.328   2.480 -4.3875 -1.1381  1.9308
    2MOL0     H  248   5.125   4.050   2.617  0.6041  0.1710  2.2079
    2MOL0     H  249   5.131   4.205   2.705  0.8843 -0.6633 -0.7655
    2MOL0     H  250   4.889   4.091   2.576 -1.5380  1.0287  0.7652
    2MOL0     H  251   4.907   4.243   2.659  1.9328  2.1434 -1.2154
    2MOL0     H  252   4.926   4.131   2.870  0.5794 -1.9374  1.1811
    2MOL0     H  253   5.001   3.983   2.807  0.9574  0.6268  0.5911
    2MOL0     H  254   4.789   3.914   2.871  0.4164  1.2711 -0.2616
    2MOL0     H  255   4.773   3.930   2.693  2.9637  0.7967 -1.9759
    2MOL0     H  256   5.714   4.431   2.224 -0.5973 -0.7784 -1.9017
    2MOL0     H  257   5.966   4.363   2.165  0.8996 -0.9649  1.0742
    2MOL0     H  258   6.181   3.910   1.995  1.0743 -4.5780 -0.5615
    2MOL0     H  259   6.366   3.762   1.946  2.9996 -0.0763 -1.3613
    2MOL0     H  260   8.202   3.307   2.294 -0.3086 -0.1745  1.3832
    2MOL0     H  261   8.450   3.257   2.252 -0.9568 -0.4503 -0.9527
    2MOL0     H  262   8.839   3.215   2.467  0.4911  1.9235  0.8182
    2MOL0     H  263   9.074   3.126   2.445 -1.9245 -0.2124 -0.9322
    2MOL0     H  264   9.461   3.377   2.448  0.2478 -2.7541  0.3302
    2MOL0     H  265   9.310   3.456   2.494 -0.0539  0.6968 -2.3996
    2MOL0     H  266   9.281   3.334   2.669 -1.1845 -0.8773 -1.7281
    2MOL0     H  267   9.451   3.362   2.673  0.1390 -3.3710  2.8050
    2MOL0     H  268   9.312   3.112   2.570 -1.4799  0.9528  0.8608
    2MOL0     H  269   9.493   3.136   2.570 -1.4354  0.3006 -3.0125
    2MOL0     H  270   9.299   3.133   2.810 -0.8686 -0.7819 -1.8550
    2MOL0     H  271   9.474   3.163   2.823  0.7167 -4.2197  3.1886
    2MOL0     H  272   9.429   2.744   2.757  1.0173  0.1915 -0.4510
    2MOL0     H  273   9.188   3.520   2.284 -1.5765  0.5909 -1.4248
    2MOL0     H  274   9.014   3.614   2.131  0.3286  3.4970  0.5879
    2MOL0     H  275   8.848   3.620   2.190 -0.3310  0.5933 -1.8443
    2MOL0     H  276   8.986   3.685   2.291  0.6293 -3.2355  2.6465
    3MOL0     O  277   8.794   7.465   0.368 -0.1001 -0.5100 -0.1287
    3MOL0     C  278   8.715   7.542   0.424 -0.3028 -0.5321  0.1814
    3MOL0     O  279   8.661   7.651   0.365 -0.2722  0.2082 -0.3660
    3MOL0     C  280   8.645   7.644   0.233  0.4886 -0.4049  0.1572
    3MOL0     C  281   8.667   7.760   0.157 -0.1140 -0.0171 -0.3582
    3MOL0     C  282   8.638   7.755   0.015  0.0407 -0.0773 -0.9300
    3MOL0     C  283   8.587   7.635  -0.044  0.2490 -0.2824  0.5430
    3MOL0     O  284   8.573   7.613  -0.182  0.2577  0.6280 -1.0048
    3MOL0     C  285   8.588   7.721  -0.276 -1.0837 -0.6298 -0.6394
    3MOL0     C  286   8.585   7.669  -0.426  0.3061  1.1133 -1.9786
    3MOL0     C  287   8.609   7.775  -0.535 -0.3898 -0.3765  0.7049
    3MOL0     C  288   8.489   7.879  -0.544  0.1327 -0.3388  1.2302
    3MOL0     C  289   8.531   7.984  -0.647  0.1549  0.4648 -0.4650
    3MOL0     C  290   8.410   8.053  -0.681  0.0471 -0.7993 -0.2031
    3MOL0     C  291   8.450   8.182  -0.759 -0.4024 -0.3357 -0.2633
    3MOL0     C  292   8.325   8.263  -0.810 -0.4100 -0.5081  0.1790
    3MOL0     N  293   8.278   8.192  -0.923  0.0693 -0.3471 -0.1886
    3MOL0     C  294   8.157   8.115  -0.948 -0.5303 -0.2817 -0.1261
    3MOL0     C  295   8.154   8.112  -1.083 -0.4012 -0.4359  0.4037
    3MOL0     C  296   8.060   8.027  -1.171  0.8338  0.1287 -0.8954
    3MOL0     C  297   7.977   7.914  -1.098  0.0005  0.0357 -0.0191
    3MOL0     C  298   8.066   7.793  -1.057  0.1232  0.3331 -0.4900
    3MOL0     C  299   8.082   7.692  -1.176  0.4997  0.6584 -0.3959
    3MOL0     O  300   7.954   7.647  -1.224 -0.0272 -1.0075 -0.8137
    3MOL0     C  301   7.864   7.593  -1.144 -0.0383  0.5091  0.4065
    3MOL0     C  302   7.899   7.508  -1.037 -0.0865 -0.2068 -0.1110
    3MOL0     C  303   7.797   7.454  -0.960  0.3712  0.0040  0.5040
    3MOL0     C  304   7.842   7.345  -0.867 -0.7801 -0.1829  0.2582
    3MOL0     C  305   7.659   7.480  -0.988  0.1946 -0.3455 -0.2621
    3MOL0     C  306   7.544   7.414  -0.923 -0.0149 -0.0140  0.0260
    3MOL0     O  307   7.558   7.281  -0.901  0.7633 -1.0785  0.2050
    3MOL0     C  308   7.446   7.204  -0.896 -0.4057  0.5409 -0.4634
    3MOL0     C  309   7.389   7.156  -0.778 -0.6403 -0.1255  0.0770
    3MOL0     C  310   7.274   7.076  -0.785 -0.0565 -0.0015  0.3189
    3MOL0     C  311   7.210   7.051  -0.909 -0.0646 -0.6224  0.5054
    3MOL0     O  312   7.107   6.969  -0.893  0.4739  0.1283 -0.6276
    3MOL0     C  313   7.074   6.891  -1.004  0.1973 -1.0144 -0.1887
    3MOL0     C  314   6.966   6.978  -1.075 -0.1470  0.0302 -0.6067
    3MOL0     C  315   6.853   6.888  -1.139 -0.4700  0.0678 -0.0383
    3MOL0     C  316   6.884   6.820  -1.268  0.6359  0.4616 -0.0727
    3MOL0     C  317   6.763   6.735  -1.323 -0.5354 -0.2356 -0.3563
    3MOL0     C  318   6.786   6.648  -1.443 -0.4312  0.2516 -0.2849
    3MOL0     C  319   6.677   6.542  -1.463  1.6600  0.7278 -0.4824
    3MOL0     C  320   6.652   6.505  -1.612 -0.3328  0.6276  0.8471
    3MOL0    Cl  321   6.503   6.405  -1.614  0.2001 -0.1796  0.0300
    3MOL0     C  322   7.276   7.094  -1.027 -0.3873  0.8807  0.3698
    3MOL0     C  323   7.386   7.173  -1.021 -0.9674 -0.5221 -0.0441
    3MOL0     O  324   7.445   7.483  -0.895  0.1355 -0.3007 -0.1082
    3MOL0     C  325   7.640   7.578  -1.085  0.5868 -0.2803  0.2242
    3MOL0     C  326   7.741   7.634  -1.159  0.8277  0.1380 -0.3960
    3MOL0     N  327   8.266   8.163  -1.132 -0.2155 -0.8853  0.1533
    3MOL0     N  328   8.345   8.208  -1.042 -0.1359  0.3569  0.2824
    3MOL0     C  329   8.533   7.541   0.044  0.8638 -0.8098  0.7526
    3MOL0     C  330   8.546   7.552   0.179  0.5065 -0.0917  0.1948
    3MOL0     C  331   8.699   7.514   0.563 -0.0460 -0.4878 -0.4317
    3MOL0     C  332   8.771   7.413   0.631 -0.0621  0.4013 -0.3174
    3MOL0     C  333   8.759   7.398   0.771 -0.0964 -0.1100 -0.4532
    3MOL0     C  334   8.663   7.468   0.839  0.4859  0.8090  0.2021
    3MOL0     O  335   8.637   7.433   0.973 -0.3098  0.2040 -0.9671
    3MOL0     C  336   8.509   7.460   1.021  0.3823 -0.5691 -0.1596
    3MOL0     C  337   8.400   7.386   0.939 -1.2319 -0.3399 -0.7784
    3MOL0     C  338   8.407   7.241   0.998 -0.8089  0.3921  0.9995
    3MOL0     C  339   8.498   7.144   0.908  0.1848 -0.3688 -0.6410
    3MOL0     C  340   8.432   7.080   0.795 -0.5998  0.6000  0.5228
    3MOL0     C  341   8.375   7.018   0.709 -0.4009  0.8007 -0.0717
    3MOL0     C  342   8.584   7.553   0.766  0.3181 -0.1609 -0.9907
    3MOL0     C  343   8.609   7.590   0.637 -0.1303 -0.4311 -0.1222
    3MOL0     C  344   8.511   7.713   0.596 -0.3231  0.7594  0.2132
    3MOL0     H  345   8.703   7.846   0.213 -1.0897 -1.7011  3.1440
    3MOL0     H  346   8.654   7.844  -0.045 -3.2799  0.8506 -0.6390
    3MOL0     H  347   8.685   7.770  -0.266 -0.6152 -1.3304 -1.6437
    3MOL0     H  348   8.516   7.799  -0.248  1.7158  1.7788  0.4323
    3MOL0     H  349   8.660   7.592  -0.444 -0.6073  0.6417 -3.9900
    3MOL0     H  350   8.487   7.623  -0.432 -1.1054  3.2013  1.5299
    3MOL0     H  351   8.701   7.825  -0.502 -1.3604  2.0433 -0.0435
    3MOL0     H  352   8.626   7.725  -0.631  1.5740 -0.1049  0.8621
    3MOL0     H  353   8.400   7.831  -0.588 -1.3559  1.7952  1.7764
    3MOL0     H  354   8.459   7.927  -0.451  0.3325  4.8731 -1.0743
    3MOL0     H  355   8.565   7.935  -0.738 -2.4899  3.0200 -3.0506
    3MOL0     H  356   8.607   8.044  -0.597  0.7457 -0.1470 -0.6300
    3MOL0     H  357   8.337   7.989  -0.732  1.5642 -3.7673  1.1487
    3MOL0     H  358   8.354   8.076  -0.591 -0.5096 -3.1268  0.1084
    3MOL0     H  359   8.508   8.156  -0.848  0.3895  2.2079 -0.5383
    3MOL0     H  360   8.513   8.237  -0.689 -0.1277  3.1306 -2.9683
    3MOL0     H  361   8.244   8.265  -0.737 -0.3645 -0.2395  0.2242
    3MOL0     H  362   8.367   8.359  -0.840 -0.3142 -1.4479 -3.0807
    3MOL0     H  363   8.078   8.069  -0.889 -3.0930 -0.9455 -3.7778
    3MOL0     H  364   8.114   7.971  -1.249 -0.7822  0.1202 -2.0593
    3MOL0     H  365   7.993   8.100  -1.218 -1.2136 -1.7096 -0.9988
    3MOL0     H  366   7.939   7.955  -1.004 -0.5307  1.7359 -0.9290
    3MOL0     H  367   7.896   7.891  -1.167  1.4434 -1.1930 -1.3448
    3MOL0     H  368   8.168   7.823  -1.029  1.3636 -2.6838 -1.3766
    3MOL0     H  369   8.018   7.753  -0.967  2.6570 -0.4239  0.6398
    3MOL0     H  370   8.140   7.725  -1.262 -0.9568 -0.9705 -2.0723
    3MOL0     H  371   8.146   7.612  -1.137 -2.4785 -2.2670 -1.0465
    3MOL0     H  372   8.003   7.478  -1.023 -0.6476 -1.2917  2.4892
    3MOL0     H  373   7.791   7.367  -0.772 -1.3022  1.0114 -0.2776
    3MOL0     H  374   7.950   7.355  -0.855 -0.5506 -1.6583 -0.4456
    3MOL0     H  375   7.822   7.247  -0.911 -0.0954  0.5299 -1.7220
    3MOL0     H  376   7.438   7.182  -0.684 -0.5538 -1.7419  0.5179
    3MOL0     H  377   7.227   7.035  -0.696 -1.4306 -1.7411 -1.1153
    3MOL0     H  378   7.162   6.865  -1.063 -0.4607 -3.5069 -0.2289
    3MOL0     H  379   7.024   6.799  -0.970 -1.2199 -1.0985 -2.3045
    3MOL0     H  380   6.923   7.059  -1.015 -1.1807 -0.4297 -0.6967
    3MOL0     H  381   7.015   7.032  -1.156 -3.0816  1.0210 -1.8604
    3MOL0     H  382   6.761   6.946  -1.156  0.5395  1.3017 -1.4382
    3MOL0     H  383   6.828   6.819  -1.057  1.0505  2.1054  2.3074
    3MOL0     H  384   6.971   6.753  -1.267 -0.0571 -0.5909 -2.4373
    3MOL0     H  385   6.901   6.901  -1.340  0.3471  1.2349  0.7121
    3MOL0     H  386   6.726   6.662  -1.250  1.1384  0.0335  0.8217
    3MOL0     H  387   6.682   6.804  -1.350  0.3949  0.6677 -0.9347
    3MOL0     H  388   6.883   6.598  -1.452 -1.3345 -1.1726 -3.2460
    3MOL0     H  389   6.791   6.719  -1.527  0.1587  1.0952  0.4453
    3MOL0     H  390   6.583   6.574  -1.416  0.6794 -2.5717  0.0497
    3MOL0     H  391   6.703   6.450  -1.410 -2.4101 -2.2902 -3.0489
    3MOL0     H  392   6.728   6.443  -1.661 -2.3305 -3.6736  2.6597
    3MOL0     H  393   6.646   6.597  -1.672 -1.3594 -0.5183 -0.9060
    3MOL0     H  394   7.234   7.078  -1.126 -2.0787 -0.0870  1.1975
    3MOL0     H  395   7.444   7.197  -1.109  1.4846 -0.9589  1.3351
    3MOL0     H  396   7.541   7.614  -1.109 -0.5192 -0.4216  3.9545
    3MOL0     H  397   7.732   7.717  -1.229  0.1902  0.9943  0.6587
    3MOL0     H  398   8.465   7.471  -0.003 -1.1020  1.0230  0.7025
    3MOL0     H  399   8.487   7.490   0.246 -0.5909  0.5196 -0.1743
    3MOL0     H  400   8.854   7.365   0.579 -0.9063  1.3920 -2.7265
    3MOL0     H  401   8.823   7.334   0.831 -1.6698  0.7966  2.3420
    3MOL0     H  402   8.510   7.426   1.125  0.1782  1.4522  0.5635
    3MOL0     H  403   8.497   7.569   1.022 -0.4107 -0.6538 -0.0580
    3MOL0     H  404   8.419   7.372   0.833 -1.6179  2.4179 -1.3001
    3MOL0     H  405   8.303   7.431   0.962  0.0317  1.1459  2.2680
    3MOL0     H  406   8.449   7.242   1.099 -2.0455 -0.3201  1.5478
    3MOL0     H  407   8.305   7.200   0.997 -0.3140 -0.9219 -0.7005
    3MOL0     H  408   8.530   7.070   0.982  2.3650  3.1263  2.2384
    3MOL0     H  409   8.588   7.189   0.867  0.8266 -0.0518  1.0169
    3MOL0     H  410   8.329   6.975   0.622  1.2560  1.7008 -1.4313
    3MOL0     H  411   8.489   7.586   0.808 -0.2269 -1.3419 -1.2705
    3MOL0     H  412   8.432   7.678   0.528 -0.1050  2.3477 -0.9128
    3MOL0     H  413   8.473   7.752   0.690  0.6828  1.4196  0.3604
    3MOL0     H  414   8.569   7.791   0.546  1.6189  0.0035  1.1809
    4MOL0     O  415   1.881   3.087   0.521 -0.7880 -0.9939 -0.3623
    4MOL0     C  416   1.806   3.062   0.615 -0.9072 -0.8862  0.1049
    4MOL0     O  417   1.847   3.057   0.734  0.3933 -0.4350 -0.7663
    4MOL0     C  418   1.982   3.042   0.760  1.6135  0.4184  0.3271
    4MOL0     C  419   2.019   2.905   0.765 -1.4151 -0.1942 -0.0799
    4MOL0     C  420   2.149   2.876   0.803  0.2407  0.0579 -0.3316
    4MOL0     C  421   2.239   2.977   0.843 -0.2743  1.0330  0.4071
    4MOL0     O  422   2.364   2.932   0.877 -0.8177 -0.4545 -0.6511
    4MOL0     C  423   2.458   3.024   0.914 -0.1690  0.2011  0.0769
    4MOL0     C  424   2.596   2.958   0.949 -0.0187 -0.3411 -0.9195
    4MOL0     C  425   2.690   3.044   1.032 -0.6148  0.7217 -0.4120
    4MOL0     C  426   2.786   2.951   1.114  0.0049  0.4232 -0.0251
    4MOL0     C  427   2.923   3.009   1.134 -0.2950 -0.5616  0.2496
    4MOL0     C  428   3.007   3.028   1.000  0.7754 -0.5239  0.3498
    4MOL0     C  429   2.999   2.900   0.916 -0.6210  0.0091 -0.0651
    4MOL0     C  430   3.110   2.895   0.812  0.7369 -0.5931  0.1467
    4MOL0     N  431   3.132   2.770   0.740 -0.2718 -0.1777 -0.8946
    4MOL0     C  432   3.064   2.652   0.775  0.3426 -0.0550 -0.9261
    4MOL0     C  433   3.125   2.556   0.704 -0.5649  0.5146  0.4016
    4MOL0     C  434   3.082   2.417   0.704 -0.0018  0.4610 -0.5528
    4MOL0     C  435   3.154   2.314   0.794  0.1879  0.1615 -1.1124
    4MOL0     C  436   3.312   2.333   0.803 -1.3564 -0.1308 -0.2239
    4MOL0     C  437   3.392   2.229   0.887 -0.5193 -0.9461  0.4289
    4MOL0     O  438   3.520   2.298   0.919  0.3711 -1.5351  0.2904
    4MOL0     C  439   3.619   2.225   0.984  0.0700  0.1467  1.0078
    4MOL0     C  440   3.613   2.103   1.042 -0.3803  1.2524  1.3057
    4MOL0     C  441   3.726   2.043   1.107 -1.2761 -0.8266 -0.2610
    4MOL0     C  442   3.708   1.895   1.142 -0.5333 -0.5309  0.3417
    4MOL0     C  443   3.849   2.112   1.119 -0.4482 -0.2325  0.8701
    4MOL0     C  444   3.976   2.061   1.190  0.2598 -0.4676  0.3335
    4MOL0     O  445   4.083   2.146   1.203  0.1262 -0.6387  0.5953
    4MOL0     C  446   4.197   2.112   1.263  0.0629 -0.0886 -0.9178
    4MOL0     C  447   4.281   2.014   1.210 -0.3393 -0.5988  0.2764
    4MOL0     C  448   4.400   1.979   1.277  0.5893  0.5243 -1.0193
    4MOL0     C  449   4.441   2.045   1.391  0.6780 -0.4978  0.0378
    4MOL0     O  450   4.555   2.037   1.464  0.4688 -0.1978 -0.5084
    4MOL0     C  451   4.675   2.006   1.400  0.6326 -0.0287  0.1081
    4MOL0     C  452   4.799   1.992   1.480  0.1239  0.5706  0.0726
    4MOL0     C  453   4.862   2.125   1.512 -0.5563  0.2545 -0.1781
    4MOL0     C  454   5.000   2.108   1.572 -0.2374 -0.7622  0.1139
    4MOL0     C  455   5.052   2.242   1.633  0.0803  0.8728 -0.6671
    4MOL0     C  456   5.174   2.229   1.722 -0.0778  0.3888  0.4938
    4MOL0     C  457   5.311   2.243   1.644  0.9918 -0.0998  0.3888
    4MOL0     C  458   5.375   2.113   1.613 -0.6304 -0.4920 -0.7938
    4MOL0    Cl  459   5.519   2.127   1.496  0.4723  0.2149  0.0373
    4MOL0     C  460   4.346   2.141   1.443  0.2069 -1.1507 -0.4774
    4MOL0     C  461   4.222   2.175   1.379 -0.4105  0.0476 -0.9387
    4MOL0     O  462   3.981   1.945   1.228 -0.4214  0.6284 -0.7864
    4MOL0     C  463   3.847   2.242   1.073  0.5578  0.7910 -0.0445
    4MOL0     C  464   3.740   2.295   0.995  0.2717  0.8753 -0.4210
    4MOL0     N  465   3.242   2.614   0.655 -0.2434 -0.3268 -0.3637
    4MOL0     N  466   3.250   2.736   0.680  0.0139 -0.7760  0.1067
    4MOL0     C  467   2.191   3.113   0.841  0.5477  0.2265  0.7030
    4MOL0     C  468   2.057   3.145   0.806  0.5425 -0.1099  0.0952
    4MOL0     C  469   1.655   3.044   0.581 -0.2157 -0.6081 -0.1121
    4MOL0     C  470   1.562   3.048   0.694  0.0356  0.1540  0.0637
    4MOL0     C  471   1.422   3.043   0.670  0.0633 -0.1657  0.6773
    4MOL0     C  472   1.380   3.027   0.535 -0.1953  0.1395 -0.3416
    4MOL0     O  473   1.246   3.018   0.492  0.0169  0.6479 -0.1578
    4MOL0     C  474   1.151   2.989   0.594 -1.0986 -0.5226  0.9597
    4MOL0     C  475   1.110   3.125   0.653  0.1863 -0.6370  0.2156
    4MOL0     C  476   1.015   3.192   0.550 -0.4723  0.7239 -0.3726
    4MOL0     C  477   0.977   3.336   0.581 -0.5688  0.0886  0.3647
    4MOL0     C  478   0.890   3.395   0.475 -0.2303 -0.7458  0.5237
    4MOL0     C  479   0.826   3.453   0.393 -0.4395 -0.3135 -0.3739
    4MOL0     C  480   1.469   3.024   0.433 -0.3682 -0.2597  0.5381
    4MOL0     C  481   1.605   3.034   0.451  0.7503  0.0931  0.4271
    4MOL0     C  482   1.692   3.027   0.321  0.1662 -0.4471  0.0002
    4MOL0     H  483   1.941   2.836   0.736 -0.0863 -1.7967 -0.0281
    4MOL0     H  484   2.176   2.773   0.783 -4.6649 -1.5572  0.1072
    4MOL0     H  485   2.413   3.087   0.991  0.3586 -0.9704  1.3620
    4MOL0     H  486   2.470   3.096   0.832 -0.7314  1.2575  0.8943
    4MOL0     H  487   2.578   2.867   1.008 -1.3882  0.3346 -0.2670
    4MOL0     H  488   2.626   2.918   0.851 -2.5764 -1.8471 -1.1683
    4MOL0     H  489   2.750   3.109   0.967 -2.4953  1.8520 -1.1303
    4MOL0     H  490   2.622   3.106   1.091 -2.4526  2.5927 -4.0744
    4MOL0     H  491   2.738   2.939   1.211  0.6666 -0.5005  0.1980
    4MOL0     H  492   2.797   2.853   1.067 -1.6384  0.8351 -1.3838
    4MOL0     H  493   2.982   2.934   1.186 -1.7677 -1.1318  1.1631
    4MOL0     H  494   2.916   3.108   1.179  1.0999  0.0260 -0.7673
    4MOL0     H  495   2.974   3.109   0.934  0.7314 -1.7890 -1.2591
    4MOL0     H  496   3.111   3.044   1.028  1.1241 -1.4996 -0.3395
    4MOL0     H  497   2.905   2.898   0.859 -2.1330  1.3666  2.1878
    4MOL0     H  498   3.001   2.820   0.990  1.3075  4.4808  5.3950
    4MOL0     H  499   3.074   2.959   0.731  1.0990 -1.8590 -1.0605
    4MOL0     H  500   3.210   2.929   0.841 -0.7462  2.9134  1.6327
    4MOL0     H  501   2.981   2.631   0.840  1.8938 -2.1579  0.4918
    4MOL0     H  502   3.078   2.384   0.600  2.0187  0.2720 -0.6062
    4MOL0     H  503   2.980   2.408   0.742  0.7208 -1.0263  1.1899
    4MOL0     H  504   3.102   2.324   0.890  1.3444 -3.3819  0.0609
    4MOL0     H  505   3.127   2.215   0.756 -0.0902  0.2443 -1.1299
    4MOL0     H  506   3.359   2.345   0.705  0.9077 -3.2094  0.3473
    4MOL0     H  507   3.336   2.425   0.856 -0.1718 -0.7051  0.2678
    4MOL0     H  508   3.330   2.199   0.972  0.4045 -0.4742  1.3018
    4MOL0     H  509   3.403   2.144   0.819 -2.2143  0.4245 -1.6774
    4MOL0     H  510   3.519   2.049   1.032  0.2214  0.6620 -2.2456
    4MOL0     H  511   3.604   1.869   1.124 -1.4853  1.8612  1.8763
    4MOL0     H  512   3.731   1.892   1.249  0.6501  1.9501  0.2530
    4MOL0     H  513   3.768   1.831   1.076  2.0604  3.6384 -1.8168
    4MOL0     H  514   4.247   1.975   1.115 -2.8261  0.3565  0.7065
    4MOL0     H  515   4.460   1.906   1.225 -2.2182 -2.6914 -0.1086
    4MOL0     H  516   4.660   1.911   1.349 -2.2759 -0.4287  1.5215
    4MOL0     H  517   4.679   2.089   1.329 -1.5322  0.0097 -0.0178
    4MOL0     H  518   4.775   1.951   1.578 -1.4878 -1.5378 -1.1161
    4MOL0     H  519   4.863   1.922   1.424 -0.3247  1.8194 -2.1022
    4MOL0     H  520   4.802   2.173   1.589 -0.4115 -0.8116  0.6279
    4MOL0     H  521   4.868   2.197   1.430 -2.7128  1.1284  0.3551
    4MOL0     H  522   5.082   2.069   1.511  0.1729 -1.2680  0.9699
    4MOL0     H  523   4.982   2.030   1.647 -0.7585  0.3034  1.1251
    4MOL0     H  524   5.071   2.307   1.547  2.2196 -1.0671 -1.7878
    4MOL0     H  525   4.971   2.281   1.695  0.7567  1.1573  0.0573
    4MOL0     H  526   5.188   2.137   1.778  2.0221  0.9556  0.9838
    4MOL0     H  527   5.180   2.308   1.799  2.0697 -1.0289  1.8868
    4MOL0     H  528   5.387   2.306   1.692  2.2562  0.7830 -2.5325
    4MOL0     H  529   5.280   2.301   1.556 -2.6509 -0.0208  1.5630
    4MOL0     H  530   5.309   2.033   1.579 -1.9438  1.1540 -2.3290
    4MOL0     H  531   5.420   2.084   1.708 -1.6629  2.4418  0.7265
    4MOL0     H  532   4.380   2.185   1.536  0.5753 -3.5174  0.5557
    4MOL0     H  533   4.161   2.259   1.409 -3.0037 -1.8506 -0.5900
    4MOL0     H  534   3.939   2.298   1.083  0.8943  0.7493 -2.3104
    4MOL0     H  535   3.732   2.388   0.940 -0.7554  0.1160 -1.6260
    4MOL0     H  536   2.251   3.202   0.856  1.9200 -0.6823  0.7612
    4MOL0     H  537   2.015   3.244   0.819  0.7482  0.2116 -1.4923
    4MOL0     H  538   1.584   3.062   0.799  1.9528 -3.1255  0.2083
    4MOL0     H  539   1.350   3.072   0.746 -3.2711  1.0168 -2.6629
    4MOL0     H  540   1.058   2.942   0.560 -1.0182  0.5850 -0.8711
    4MOL0     H  541   1.187   2.924   0.675 -1.8086 -1.2617  0.6947
    4MOL0     H  542   1.202   3.183   0.662  1.3914 -1.8014 -2.9955
    4MOL0     H  543   1.059   3.120   0.750 -0.0363 -0.4233  0.1101
    4MOL0     H  544   1.070   3.192   0.456 -0.2955  3.3216 -0.3618
    4MOL0     H  545   0.930   3.124   0.554  0.0647  0.0408  3.0136
    4MOL0     H  546   1.061   3.402   0.604 -0.3303 -0.6450  1.7885
    4MOL0     H  547   0.903   3.343   0.662 -2.7856  1.8957 -1.6648
    4MOL0     H  548   0.774   3.509   0.318  1.0041  2.6447  0.7133
    4MOL0     H  549   1.426   2.999   0.336 -2.6253 -2.1911  1.9511
    4MOL0     H  550   1.756   2.938   0.323  2.8280  1.3444  0.3150
    4MOL0     H  551   1.632   3.030   0.229 -1.3459  0.5013  0.9909
    4MOL0     H  552   1.761   3.111   0.306  0.9889 -1.2011 -0.6336
    5MOL0     O  553  11.332   3.938   2.218 -0.3618 -0.0423 -0.0911
    5MOL0     C  554  11.453   3.960   2.243  0.7686 -0.2785  0.6459
    5MOL0     O  555  11.553   3.866   2.216  0.0714  0.7574  0.3725
    5MOL0     C  556  11.524   3.736   2.186  0.7240 -0.1779 -0.2058
    5MOL0     C  557  11.411   3.659   2.215  0.2357  0.1524 -0.0031
    5MOL0     C  558  11.403   3.523   2.173  0.9970 -0.2124 -1.4598
    5MOL0     C  559  11.523   3.457   2.128  0.2290 -0.3012 -0.3926
    5MOL0     O  560  11.535   3.325   2.086  0.0855  0.1482  0.1107
    5MOL0     C  561  11.426   3.229   2.118 -0.2039  0.2584 -0.1368
    5MOL0     C  562  11.452   3.097   2.041  0.3735  1.1124  0.4724
    5MOL0     C  563  11.492   3.113   1.891  0.1217 -0.7352 -0.2265
    5MOL0     C  564  11.476   2.982   1.802  0.4648  0.2087 -0.2682
    5MOL0     C  565  11.560   2.982   1.672  0.0251  0.2673 -0.2275
    5MOL0     C  566  11.513   2.871   1.587  0.1627 -0.0046 -0.5178
    5MOL0     C  567  11.568   2.876   1.444  0.4253 -0.3104  0.3059
    5MOL0     C  568  11.515   2.988   1.358  0.0366  0.6359 -0.5378
    5MOL0     N  569  11.365   2.998   1.354 -0.1041  0.1564 -0.0542
    5MOL0     C  570  11.291   3.086   1.425  0.1109 -0.3432 -0.2465
    5MOL0     C  571  11.161   3.057   1.406  0.8117  0.5106  0.3031
    5MOL0     C  572  11.035   3.115   1.466  0.4668  0.9370 -0.2415
    5MOL0     C  573  11.039   3.127   1.618  0.1758  0.2184 -0.8957
    5MOL0     C  574  11.130   3.245   1.665  0.1853 -0.0419 -0.0661
    5MOL0     C  575  11.102   3.317   1.806 -0.8208  0.1960  1.0953
    5MOL0     O  576  11.234   3.363   1.848 -0.9713  0.5695 -0.6998
    5MOL0     C  577  11.269   3.496   1.845  0.1715  0.6541 -0.6253
    5MOL0     C  578  11.400   3.528   1.791  1.3316  0.0489 -0.3042
    5MOL0     C  579  11.446   3.666   1.798 -0.3841 -0.0523  0.6953
    5MOL0     C  580  11.587   3.689   1.740  2.1764  0.2751 -0.0398
    5MOL0     C  581  11.358   3.770   1.850  0.0081 -0.5064 -0.0177
    5MOL0     C  582  11.390   3.916   1.846 -1.5888 -0.6403 -0.1655
    5MOL0     O  583  11.289   4.000   1.849  0.0959 -0.0802  0.0687
    5MOL0     C  584  11.283   4.138   1.840 -0.1824 -0.2299  0.3466
    5MOL0     C  585  11.150   4.195   1.861 -0.0843  0.3068  0.9166
    5MOL0     C  586  11.121   4.326   1.821 -0.4215  0.2792 -0.2339
    5MOL0     C  587  11.234   4.407   1.767  0.7413  0.1293 -0.6977
    5MOL0     O  588  11.232   4.546   1.760  0.2131  0.3642 -0.4238
    5MOL0     C  589  11.249   4.609   1.884  0.3016 -0.2598 -0.4544
    5MOL0     C  590  11.113   4.674   1.920 -0.5159 -0.6250 -0.0633
    5MOL0     C  591  11.051   4.751   1.804  0.5233  0.7942  0.1245
    5MOL0     C  592  10.949   4.858   1.841 -0.2438 -0.0192  0.0548
    5MOL0     C  593  10.864   4.929   1.741 -0.1235  0.3000  0.3127
    5MOL0     C  594  10.800   5.064   1.790 -0.0971 -0.1540 -0.3378
    5MOL0     C  595  10.674   5.044   1.873 -0.2616  0.3107  0.0967
    5MOL0     C  596  10.658   5.160   1.969  0.3759 -0.7333 -0.7036
    5MOL0    Cl  597  10.589   5.302   1.890 -0.0437 -0.0656 -0.0508
    5MOL0     C  598  11.365   4.350   1.755  1.3697 -0.1483  0.2533
    5MOL0     C  599  11.384   4.215   1.783 -0.8454 -0.1215 -0.0317
    5MOL0     O  600  11.511   3.947   1.855 -0.0612 -0.4632  0.2548
    5MOL0     C  601  11.240   3.728   1.911  0.8962  0.7328 -0.6200
    5MOL0     C  602  11.187   3.595   1.904  0.3255  0.0153 -1.0208
    5MOL0     N  603  11.155   2.957   1.313  0.2629 -0.4910 -0.3732
    5MOL0     N  604  11.276   2.919   1.283  0.3354  0.6588  0.3535
    5MOL0     C  605  11.634   3.536   2.102  0.2673 -0.1354  0.1924
    5MOL0     C  606  11.634   3.672   2.141 -0.2733 -0.1458  0.2684
    5MOL0     C  607  11.499   4.089   2.307  0.5528  0.2737  1.2873
    5MOL0     C  608  11.627   4.085   2.352 -0.7398  0.0093 -0.1457
    5MOL0     C  609  11.676   4.205   2.388 -0.1092  0.7848 -0.3733
    5MOL0     C  610  11.605   4.318   2.393 -0.8589 -0.3431 -0.3064
    5MOL0     O  611  11.646   4.440   2.436 -0.0548  0.8673  0.6351
    5MOL0     C  612  11.716   4.453   2.565 -0.0134 -0.5416  0.0765
    5MOL0     C  613  11.823   4.560   2.544 -0.5710  0.2412  0.3925
    5MOL0     C  614  11.931   4.508   2.439 -0.2535 -0.1059  0.4984
    5MOL0     C  615  12.045   4.606   2.412  0.8233  0.7147 -0.7643
    5MOL0     C  616  11.994   4.716   2.325  0.3481 -0.2739 -0.2291
    5MOL0     C  617  11.964   4.816   2.260  0.4278 -0.1173  0.2943
    5MOL0     C  618  11.478   4.320   2.355  0.0511 -0.9449  0.9582
    5MOL0     C  619  11.419   4.203   2.304  0.3827 -0.3640  0.0425
    5MOL0     C  620  11.266   4.207   2.271  0.1026  1.2147 -0.6481
    5MOL0     H  621  11.331   3.712   2.266 -1.0210  0.2297 -1.9578
    5MOL0     H  622  11.315   3.463   2.195  0.9114  0.0708 -1.0000
    5MOL0     H  623  11.328   3.270   2.093 -0.8644 -0.6578  0.8325
    5MOL0     H  624  11.432   3.216   2.227  3.9164  0.3111 -0.2135
    5MOL0     H  625  11.526   3.022   2.070 -0.8391 -1.0981 -1.7721
    5MOL0     H  626  11.359   3.041   2.050  0.5151  1.2269  3.9343
    5MOL0     H  627  11.433   3.195   1.849 -0.0658 -1.1887 -0.8710
    5MOL0     H  628  11.595   3.149   1.885  0.3779 -1.6491 -4.5889
    5MOL0     H  629  11.519   2.898   1.856 -1.6865 -0.1619  0.9714
    5MOL0     H  630  11.370   2.967   1.782 -1.0273  4.8900  2.5008
    5MOL0     H  631  11.667   2.978   1.695 -0.0141  0.9949  0.1124
    5MOL0     H  632  11.539   3.073   1.615 -0.5418 -0.1400 -0.6903
    5MOL0     H  633  11.537   2.776   1.635  2.8133  0.5877 -0.5362
    5MOL0     H  634  11.404   2.871   1.576  0.2318 -0.5852 -1.3122
    5MOL0     H  635  11.536   2.783   1.394 -0.9309 -1.3342  2.8878
    5MOL0     H  636  11.677   2.881   1.440  0.4195  0.7941 -3.9460
    5MOL0     H  637  11.551   3.087   1.389  0.3018 -0.0885  1.6466
    5MOL0     H  638  11.560   2.970   1.260  0.7645  0.2940 -0.1384
    5MOL0     H  639  11.321   3.169   1.489 -0.7400  1.8121 -2.4710
    5MOL0     H  640  10.960   3.042   1.436  2.7554 -1.5314 -0.2659
    5MOL0     H  641  11.012   3.215   1.425  2.5674  2.4650  2.0473
    5MOL0     H  642  10.936   3.127   1.657 -0.2532  1.7122 -1.9681
    5MOL0     H  643  11.076   3.037   1.669  0.5386  0.4456 -0.7594
    5MOL0     H  644  11.234   3.211   1.661 -0.0024 -0.7014  0.4336
    5MOL0     H  645  11.114   3.328   1.595 -1.1451  0.3889  0.7050
    5MOL0     H  646  11.030   3.397   1.789 -0.5488  0.6771  2.1568
    5MOL0     H  647  11.053   3.246   1.873  1.3942  1.1577  3.9287
    5MOL0     H  648  11.469   3.450   1.759  0.5261 -0.7765 -0.0677
    5MOL0     H  649  11.616   3.600   1.684  0.6525 -0.4084  0.2059
    5MOL0     H  650  11.659   3.721   1.816  1.7997 -0.1551  0.5110
    5MOL0     H  651  11.580   3.769   1.666 -1.9722  2.2690  2.1401
    5MOL0     H  652  11.070   4.134   1.901  0.1241  1.6189  3.6131
    5MOL0     H  653  11.027   4.375   1.844 -0.3017 -0.5486  2.3356
    5MOL0     H  654  11.281   4.542   1.964 -0.5019  0.8104  0.8174
    5MOL0     H  655  11.324   4.687   1.869 -2.6833  2.8328 -0.5685
    5MOL0     H  656  11.052   4.589   1.950  2.0557 -2.3150  0.7361
    5MOL0     H  657  11.128   4.734   2.010 -0.7439  0.2742 -0.6163
    5MOL0     H  658  11.006   4.669   1.748 -1.1071  0.1478  2.2605
    5MOL0     H  659  11.127   4.800   1.742  1.7908 -0.8643  0.3109
    5MOL0     H  660  11.007   4.936   1.892  0.5315 -2.7541  3.8682
    5MOL0     H  661  10.881   4.817   1.917 -0.1244  0.0880  0.2226
    5MOL0     H  662  10.921   4.942   1.648 -1.1912 -3.5169 -1.0778
    5MOL0     H  663  10.780   4.861   1.719 -1.9147  2.3412  0.5343
    5MOL0     H  664  10.773   5.122   1.701 -0.0444  2.7769  1.4069
    5MOL0     H  665  10.869   5.125   1.850 -1.6598 -0.6974  2.1567
    5MOL0     H  666  10.692   4.949   1.924 -1.4795 -0.9515 -1.7088
    5MOL0     H  667  10.590   5.030   1.805 -0.8435 -1.9407  1.1775
    5MOL0     H  668  10.751   5.187   2.019 -1.9326 -0.7212  4.1422
    5MOL0     H  669  10.592   5.134   2.053  1.0921 -1.3313 -0.3091
    5MOL0     H  670  11.452   4.405   1.719 -0.1054  3.0300  1.1889
    5MOL0     H  671  11.471   4.152   1.767  0.3150  1.6916 -1.2392
    5MOL0     H  672  11.177   3.799   1.964  0.8321 -0.9864  1.7946
    5MOL0     H  673  11.089   3.569   1.944  0.0655  2.8483  0.4363
    5MOL0     H  674  11.722   3.495   2.054 -1.3913 -0.0916 -3.1223
    5MOL0     H  675  11.728   3.727   2.134  1.9972 -3.7794 -0.4884
    5MOL0     H  676  11.679   3.991   2.366  0.2511 -0.3552 -4.6734
    5MOL0     H  677  11.779   4.218   2.420 -0.3259  6.3366 -0.9222
    5MOL0     H  678  11.650   4.487   2.645  1.3683 -0.3791  1.1802
    5MOL0     H  679  11.762   4.361   2.604  3.7608  0.7643 -0.8397
    5MOL0     H  680  11.871   4.592   2.637  0.4903 -3.0318  1.1083
    5MOL0     H  681  11.776   4.653   2.510 -1.9162 -0.1681  1.0690
    5MOL0     H  682  11.973   4.415   2.477  1.2401  1.0572  1.8204
    5MOL0     H  683  11.878   4.485   2.346  1.7916  1.1803 -1.0716
    5MOL0     H  684  12.134   4.563   2.366 -0.0347 -1.3521 -0.5754
    5MOL0     H  685  12.066   4.655   2.508  0.2467 -0.4630 -0.0186
    5MOL0     H  686  11.922   4.895   2.202  2.5789  2.3277  1.8491
    5MOL0     H  687  11.420   4.412   2.363  1.4792  0.1069 -0.1871
    5MOL0     H  688  11.216   4.282   2.334 -0.4551 -1.8207  2.8649
    5MOL0     H  689  11.236   4.220   2.167 -3.5513  0.6609  0.1830
    5MOL0     H  690  11.222   4.118   2.316 -0.8381  2.9104  1.9968
    6MOL0     O  691   5.273   3.017   3.440 -0.4018 -0.0700 -0.2686
    6MOL0     C  692   5.274   3.129   3.398  0.3019 -0.5829 -0.0300
    6MOL0     O  693   5.385   3.206   3.402 -0.1451  0.1885  0.4873
    6MOL0     C  694   5.513   3.149   3.409  0.6997 -1.0315  0.9535
    6MOL0     C  695   5.555   3.015   3.409  0.6953  0.6622  0.7928
    6MOL0     C  696   5.693   2.971   3.420  1.2939 -1.5798  0.2559
    6MOL0     C  697   5.796   3.064   3.429 -0.4886 -0.6905 -0.0134
    6MOL0     O  698   5.915   3.010   3.450  0.6019 -0.0798 -0.3976
    6MOL0     C  699   6.034   3.081   3.465  0.0248  0.3940  0.4398
    6MOL0     C  700   6.142   3.002   3.544 -0.1725 -0.3967  0.0170
    6MOL0     C  701   6.099   3.002   3.691 -0.5482 -0.1688 -0.2153
    6MOL0     C  702   6.195   2.925   3.776 -0.2150  0.2782  0.2244
    6MOL0     C  703   6.173   2.948   3.933  0.3414 -0.4189 -0.1114
    6MOL0     C  704   6.086   2.833   3.994 -0.5583 -0.8316  0.6535
    6MOL0     C  705   6.063   2.839   4.146 -1.3842 -0.2386  0.5534
    6MOL0     C  706   6.045   2.704   4.211  0.0130 -1.2714 -0.9178
    6MOL0     N  707   5.918   2.638   4.180 -0.5054 -0.0194 -1.3432
    6MOL0     C  708   5.803   2.705   4.136  0.3019 -0.1493  0.2207
    6MOL0     C  709   5.708   2.606   4.152 -0.7578  0.0706  0.2914
    6MOL0     C  710   5.567   2.642   4.112  0.4333  0.1924 -0.1245
    6MOL0     C  711   5.475   2.675   4.228 -0.6883 -0.0839 -0.6048
    6MOL0     C  712   5.435   2.542   4.311 -0.4972 -0.0204  0.2817
    6MOL0     C  713   5.399   2.574   4.443 -0.7866  0.0487  0.6342
    6MOL0     O  714   5.320   2.693   4.467  1.3561 -0.2573 -0.5323
    6MOL0     C  715   5.296   2.743   4.590 -1.2777  0.0724 -0.9442
    6MOL0     C  716   5.214   2.866   4.597 -1.0036 -0.4618  0.4971
    6MOL0     C  717   5.165   2.910   4.719 -0.0149 -0.1822 -0.7348
    6MOL0     C  718   5.076   3.039   4.714 -1.0137 -0.1813  0.0923
    6MOL0     C  719   5.183   2.836   4.839 -0.7105 -1.1591  0.4949
    6MOL0     C  720   5.134   2.865   4.976  0.2686  0.0142 -0.9000
    6MOL0     O  721   5.129   2.748   5.052 -0.3429  0.1801 -0.4238
    6MOL0     C  722   5.088   2.763   5.186 -1.2285  0.5321 -0.4042
    6MOL0     C  723   4.980   2.690   5.234  1.1104  0.5038 -0.7085
    6MOL0     C  724   4.946   2.699   5.367  0.6311  0.0667 -0.1935
    6MOL0     C  725   5.016   2.780   5.462 -0.9060  0.1626  1.0817
    6MOL0     O  726   4.965   2.809   5.582 -0.7020  0.3330  0.4981
    6MOL0     C  727   5.025   2.909   5.668 -0.0372 -1.2163 -0.4265
    6MOL0     C  728   4.931   2.930   5.791  0.2099 -0.6094 -0.2989
    6MOL0     C  729   4.902   2.791   5.863 -0.2414  0.0667  0.7914
    6MOL0     C  730   5.027   2.725   5.927 -0.0693 -0.6067 -0.2607
    6MOL0     C  731   4.973   2.602   5.994  1.0113  0.0340  0.0854
    6MOL0     C  732   5.068   2.556   6.107  0.1471 -0.1345 -0.4738
    6MOL0     C  733   5.019   2.421   6.173  0.8391  0.6228  0.0878
    6MOL0     C  734   5.020   2.299   6.072 -1.0651 -0.4881  0.3953
    6MOL0    Cl  735   5.182   2.235   6.035 -0.0574  0.4586 -0.1046
    6MOL0     C  736   5.133   2.845   5.408 -1.1218  0.5651  0.2924
    6MOL0     C  737   5.169   2.836   5.279  0.1443 -0.1406 -0.1729
    6MOL0     O  738   5.125   2.979   5.012  0.4194  0.0098 -0.6845
    6MOL0     C  739   5.269   2.720   4.831  0.4178 -0.7079  0.3921
    6MOL0     C  740   5.328   2.674   4.709  0.5046 -0.4575  0.2067
    6MOL0     N  741   5.771   2.493   4.181  0.4105  0.3492 -0.2828
    6MOL0     N  742   5.894   2.514   4.217  0.2887  1.0071 -0.0625
    6MOL0     C  743   5.757   3.204   3.426  0.8234 -0.2417 -0.3545
    6MOL0     C  744   5.617   3.244   3.421 -0.4767  0.7310 -0.1087
    6MOL0     C  745   5.147   3.190   3.349  0.9628 -0.0189 -0.1403
    6MOL0     C  746   5.165   3.331   3.322 -0.7185  0.1820  0.3309
    6MOL0     C  747   5.064   3.407   3.285 -0.0232 -0.4656 -0.5478
    6MOL0     C  748   4.942   3.346   3.246 -0.4150 -0.6789  0.0257
    6MOL0     O  749   4.843   3.443   3.202  0.2626 -0.3538  1.3785
    6MOL0     C  750   4.705   3.398   3.223  0.2888  1.0754  0.1771
    6MOL0     C  751   4.678   3.376   3.376 -0.3981  0.6013  0.6641
    6MOL0     C  752   4.699   3.499   3.450 -0.5610 -0.3707 -0.1850
    6MOL0     C  753   4.683   3.495   3.601 -0.0019  0.1853 -0.6947
    6MOL0     C  754   4.558   3.430   3.647 -0.1472  0.3654 -0.4296
    6MOL0     C  755   4.447   3.382   3.676 -0.1421  1.2247 -0.2384
    6MOL0     C  756   4.926   3.209   3.256  0.6872  0.0209 -0.0724
    6MOL0     C  757   5.022   3.127   3.314 -0.9205  0.6628 -0.7065
    6MOL0     C  758   4.976   2.984   3.321  0.3141 -0.0437 -0.3306
    6MOL0     H  759   5.486   2.931   3.406  0.3237  0.9816 -0.2218
    6MOL0     H  760   5.715   2.868   3.444 -0.8861 -2.1582  0.0142
    6MOL0     H  761   6.013   3.180   3.507 -4.8437  0.1362 -0.7585
    6MOL0     H  762   6.083   3.081   3.367  0.5006 -0.8672  0.6630
    6MOL0     H  763   6.145   2.902   3.499 -0.1343 -0.5433  0.3381
    6MOL0     H  764   6.233   3.063   3.537 -1.1983  1.5906  2.4342
    6MOL0     H  765   6.106   3.105   3.728 -1.1027 -0.5330  0.9494
    6MOL0     H  766   5.999   2.960   3.706 -0.7645 -0.4255 -2.1560
    6MOL0     H  767   6.186   2.820   3.748 -2.0524  1.1073 -2.6635
    6MOL0     H  768   6.294   2.969   3.759 -0.3508  0.5479  0.1267
    6MOL0     H  769   6.127   3.043   3.959 -2.7258 -1.5153 -1.1586
    6MOL0     H  770   6.266   2.928   3.987 -0.4343 -0.5471  1.2073
    6MOL0     H  771   5.990   2.821   3.943 -0.8898  0.4095  0.9422
    6MOL0     H  772   6.143   2.740   3.985 -0.9534 -0.9229 -1.5350
    6MOL0     H  773   5.971   2.897   4.150 -0.8589  0.9849 -2.3254
    6MOL0     H  774   6.145   2.888   4.199  1.6119 -0.5616 -3.2704
    6MOL0     H  775   6.131   2.642   4.185  2.0427 -0.8114  3.7733
    6MOL0     H  776   6.049   2.720   4.319 -0.4854  2.8158 -1.3468
    6MOL0     H  777   5.781   2.806   4.104  1.6372 -0.1926 -0.9256
    6MOL0     H  778   5.519   2.569   4.046  0.5116  2.0547 -2.4047
    6MOL0     H  779   5.572   2.737   4.057 -2.7287  0.8554  0.5744
    6MOL0     H  780   5.530   2.744   4.292  0.1316 -0.2268 -1.1424
    6MOL0     H  781   5.386   2.727   4.191 -1.2049  0.1170  0.8741
    6MOL0     H  782   5.340   2.501   4.276 -1.2198  0.5402  1.5418
    6MOL0     H  783   5.518   2.471   4.315 -0.8214 -0.4397 -0.2681
    6MOL0     H  784   5.329   2.503   4.487 -0.2531 -1.8076 -1.3313
    6MOL0     H  785   5.492   2.581   4.499 -0.9116  5.1237  0.6621
    6MOL0     H  786   5.185   2.921   4.508  0.1596  3.0451  2.1123
    6MOL0     H  787   5.130   3.126   4.750 -0.8510  0.1464 -0.9235
    6MOL0     H  788   4.987   3.024   4.778 -0.5750 -1.5068  0.4402
    6MOL0     H  789   5.031   3.057   4.616  1.5186 -3.8215 -1.9876
    6MOL0     H  790   4.912   2.646   5.162  0.5885 -0.0255  0.0896
    6MOL0     H  791   4.853   2.645   5.383  1.4346 -1.1674  0.4486
    6MOL0     H  792   5.126   2.879   5.697  0.3400  2.6963  3.3314
    6MOL0     H  793   5.024   3.004   5.613 -3.2926 -0.4357  0.7242
    6MOL0     H  794   4.988   2.994   5.858  1.1761 -0.8714 -0.8497
    6MOL0     H  795   4.838   2.983   5.767 -0.0965 -1.2389 -0.5273
    6MOL0     H  796   4.869   2.713   5.794  1.6328 -2.3271  2.4024
    6MOL0     H  797   4.827   2.810   5.941  0.7305  1.3837  1.4592
    6MOL0     H  798   5.067   2.794   6.002  1.5666 -2.6303  0.8370
    6MOL0     H  799   5.093   2.703   5.842 -0.3352 -2.3216 -0.0557
    6MOL0     H  800   4.878   2.631   6.040  0.8905 -0.8449  0.4090
    6MOL0     H  801   4.963   2.522   5.921  0.0587  0.7115 -0.5507
    6MOL0     H  802   5.064   2.623   6.193  0.0448 -0.7578  0.0134
    6MOL0     H  803   5.171   2.534   6.079  0.4924  1.4995 -0.5727
    6MOL0     H  804   4.919   2.422   6.216  0.3705 -2.3576 -0.6899
    6MOL0     H  805   5.086   2.390   6.254 -1.2510  0.6432  1.9317
    6MOL0     H  806   4.962   2.319   5.981 -1.9523  0.1179  1.0852
    6MOL0     H  807   4.966   2.215   6.118 -1.8708 -0.4417 -0.4236
    6MOL0     H  808   5.196   2.899   5.478 -1.0901  1.6278 -0.5232
    6MOL0     H  809   5.266   2.859   5.235 -0.3647 -0.3875 -1.4463
    6MOL0     H  810   5.298   2.680   4.928 -1.6529  1.9142  2.2617
    6MOL0     H  811   5.362   2.570   4.711  0.4941 -0.4465  1.4927
    6MOL0     H  812   5.829   3.285   3.431 -0.4228  0.8333  1.8961
    6MOL0     H  813   5.586   3.348   3.419 -0.2704  0.7831 -0.7805
    6MOL0     H  814   5.254   3.393   3.320  0.6179 -1.6649 -0.4681
    6MOL0     H  815   5.082   3.514   3.291  0.5641 -0.5199 -1.2153
    6MOL0     H  816   4.641   3.474   3.177  1.7466  1.4168 -1.3972
    6MOL0     H  817   4.678   3.315   3.157 -0.0162  1.9128 -0.7803
    6MOL0     H  818   4.723   3.285   3.417 -2.4799 -1.1273 -0.6570
    6MOL0     H  819   4.572   3.351   3.383  0.3527 -3.0105  1.0164
    6MOL0     H  820   4.793   3.551   3.429  2.3881 -4.2000  2.1112
    6MOL0     H  821   4.618   3.564   3.415  0.0749  0.6331  0.1753
    6MOL0     H  822   4.691   3.599   3.635  2.4135 -0.7124  1.8788
    6MOL0     H  823   4.766   3.446   3.653  1.4678  2.5241 -0.7067
    6MOL0     H  824   4.355   3.328   3.680 -0.5700  1.9888  0.9941
    6MOL0     H  825   4.827   3.174   3.229  0.9717 -1.1086  0.3107
    6MOL0     H  826   4.907   2.974   3.405  0.8207  2.5809  0.4790
    6MOL0     H  827   4.925   2.960   3.227  1.1472  2.0881 -1.3900
    6MOL0     H  828   5.058   2.914   3.337  0.6697  0.5678  0.5535
    7MOL0     O  829   4.048  10.312   2.420 -0.1143  0.0533 -0.1279
    7MOL0     C  830   3.994  10.214   2.466 -0.4015  0.7574 -0.4465
    7MOL0     O  831   3.866  10.191   2.465 -0.2277  0.9485 -0.1481
    7MOL0     C  832   3.809  10.214   2.348  0.6380  0.6540  1.2390
    7MOL0     C  833   3.880  10.191   2.228  0.3748  0.2703 -0.5142
    7MOL0     C  834   3.802  10.205   2.113  0.4769  0.6314  0.2922
    7MOL0     C  835   3.660  10.233   2.116 -0.5639  0.0279  0.9854
    7MOL0     O  836   3.573  10.239   2.006  0.2860  0.1006 -0.7437
    7MOL0     C  837   3.603  10.168   1.895 -0.3298  0.3823  1.1782
    7MOL0     C  838   3.465  10.129   1.835  0.8256 -0.2461  0.6567
    7MOL0     C  839   3.472  10.065   1.696 -0.5417  0.9104 -0.1819
    7MOL0     C  840   3.338  10.074   1.617 -0.6675 -0.4254 -0.9674
    7MOL0     C  841   3.349  10.015   1.472  0.2320 -0.0200 -1.1993
    7MOL0     C  842   3.436  10.088   1.372 -0.3508 -1.0897 -0.6906
    7MOL0     C  843   3.420  10.027   1.222 -1.1798  0.0110 -1.1486
    7MOL0     C  844   3.504  10.110   1.128  0.0884 -1.1419 -0.0870
    7MOL0     N  845   3.427  10.229   1.076  0.2637  0.3619 -0.9264
    7MOL0     C  846   3.356  10.234   0.957 -0.0798 -0.3646  0.1959
    7MOL0     C  847   3.325  10.367   0.961  0.3243  0.0429  0.5906
    7MOL0     C  848   3.223  10.428   0.867  0.4420  0.4400  0.4032
    7MOL0     C  849   3.248  10.580   0.837 -0.3711 -0.1972  1.1629
    7MOL0     C  850   3.361  10.584   0.747  0.0230  0.0396  1.1413
    7MOL0     C  851   3.391  10.722   0.691  0.1244 -0.0920 -0.0861
    7MOL0     O  852   3.363  10.823   0.782  0.5654 -0.5400 -0.3821
    7MOL0     C  853   3.384  10.954   0.740  0.4483 -0.2789  0.8045
    7MOL0     C  854   3.434  10.985   0.616 -0.1591 -0.3198  0.5665
    7MOL0     C  855   3.427  11.124   0.578  0.2471  0.0610 -0.3615
    7MOL0     C  856   3.477  11.155   0.437 -0.1306  0.0953  0.3479
    7MOL0     C  857   3.378  11.228   0.668  0.0472  0.0336 -0.0717
    7MOL0     C  858   3.386  11.368   0.637 -1.1149 -0.0960 -0.6217
    7MOL0     O  859   3.476  11.420   0.545 -0.3567 -0.0419  0.1224
    7MOL0     C  860   3.482  11.553   0.520  1.0094 -0.2836 -0.5388
    7MOL0     C  861   3.587  11.613   0.589 -0.2665  1.6856  0.6645
    7MOL0     C  862   3.609  11.750   0.568  0.5603  0.0782  1.0655
    7MOL0     C  863   3.533  11.824   0.479 -0.0802 -0.1931 -1.0460
    7MOL0     O  864   3.561  11.954   0.457  0.3524 -0.2515  0.1138
    7MOL0     C  865   3.554  12.007   0.322 -0.2493 -0.4634 -0.1010
    7MOL0     C  866   3.444  12.119   0.321  0.2717  0.2411 -0.0935
    7MOL0     C  867   3.481  12.236   0.415 -0.6328  0.7691 -0.2813
    7MOL0     C  868   3.375  12.335   0.422  0.5787  0.2749 -0.1263
    7MOL0     C  869   3.397  12.421   0.547 -0.3403  0.4499 -0.1339
    7MOL0     C  870   3.323  12.550   0.551 -0.4240 -0.4726  0.0189
    7MOL0     C  871   3.392  12.648   0.646 -0.7494  0.4887 -0.0355
    7MOL0     C  872   3.333  12.790   0.633  0.3720  0.3558 -0.8081
    7MOL0    Cl  873   3.405  12.871   0.493 -0.3887 -0.4014 -0.4210
    7MOL0     C  874   3.430  11.763   0.419  0.2428  0.3736  0.7869
    7MOL0     C  875   3.404  11.626   0.427  1.1227  0.0884  0.5447
    7MOL0     O  876   3.310  11.434   0.709  0.5278 -0.3543  0.8177
    7MOL0     C  877   3.320  11.181   0.790 -0.9191  1.1159  0.2828
    7MOL0     C  878   3.335  11.048   0.825  0.1200 -0.4154  0.4318
    7MOL0     N  879   3.368  10.429   1.072 -0.4827  0.3224  0.1351
    7MOL0     N  880   3.429  10.340   1.151  0.2516 -0.5249  0.3432
    7MOL0     C  881   3.598  10.257   2.228 -0.2143  0.2274 -0.3469
    7MOL0     C  882   3.672  10.247   2.348  0.5535  0.4579 -0.1022
    7MOL0     C  883   4.087  10.120   2.535 -0.1005  1.1102 -0.0402
    7MOL0     C  884   4.211  10.077   2.474  0.5383  0.1710 -0.3530
    7MOL0     C  885   4.297   9.985   2.534  0.2093  0.7224 -0.8868
    7MOL0     C  886   4.270   9.933   2.659 -0.0343  0.6249 -0.9777
    7MOL0     O  887   4.349   9.826   2.701 -0.0627  0.0033  0.0164
    7MOL0     C  888   4.295   9.728   2.794 -0.2749  0.0714 -0.0037
    7MOL0     C  889   4.322   9.771   2.938 -0.0693 -0.2793 -0.1865
    7MOL0     C  890   4.468   9.749   2.994  0.4423  0.6177  1.4966
    7MOL0     C  891   4.556   9.863   2.950  0.7012  0.2357  0.2769
    7MOL0     C  892   4.683   9.850   3.022  0.5616  0.8603 -0.2693
    7MOL0     C  893   4.794   9.858   3.048  1.0225 -1.1167 -0.1067
    7MOL0     C  894   4.158   9.976   2.727  0.4357  0.5032 -0.3693
    7MOL0     C  895   4.062  10.060   2.662  0.0163 -0.3735 -0.6375
    7MOL0     C  896   3.934  10.103   2.738 -0.8023 -0.4498  1.0618
    7MOL0     H  897   3.981  10.152   2.228  0.1337 -0.3561 -1.2134
    7MOL0     H  898   3.848  10.192   2.015 -2.9867 -0.6830 -1.3429
    7MOL0     H  899   3.663  10.079   1.914  3.4428  1.3442 -3.9920
    7MOL0     H  900   3.659  10.225   1.820  0.9604  0.1044  1.8933
    7MOL0     H  901   3.408  10.059   1.897 -3.1996  0.4478 -1.8691
    7MOL0     H  902   3.401  10.217   1.833 -2.1371 -2.2661 -0.2311
    7MOL0     H  903   3.547  10.121   1.638 -0.9951  0.6145 -1.0744
    7MOL0     H  904   3.495   9.959   1.708 -1.3271  0.3131 -3.0883
    7MOL0     H  905   3.256  10.027   1.672 -0.9030  0.7488 -0.2934
    7MOL0     H  906   3.320  10.182   1.616  2.1997  0.3151  2.7884
    7MOL0     H  907   3.248  10.021   1.431  0.4753  2.0250 -1.5764
    7MOL0     H  908   3.370   9.908   1.487 -0.0469  0.1553  0.8114
    7MOL0     H  909   3.411  10.194   1.383  1.9124 -0.7330  2.4220
    7MOL0     H  910   3.541  10.076   1.403  0.0938  1.0833 -1.1566
    7MOL0     H  911   3.316  10.033   1.190 -1.3142 -1.0987 -0.9276
    7MOL0     H  912   3.446   9.921   1.215  1.4865  0.7080 -3.8900
    7MOL0     H  913   3.596  10.151   1.170 -0.8081 -0.8823  1.6960
    7MOL0     H  914   3.531  10.044   1.044 -0.6102  0.7776 -1.9180
    7MOL0     H  915   3.338  10.174   0.869 -2.2659 -0.1189  0.4277
    7MOL0     H  916   3.123  10.418   0.911 -0.4380 -0.6286 -1.6689
    7MOL0     H  917   3.223  10.375   0.771 -2.8718  0.5039  0.2631
    7MOL0     H  918   3.156  10.613   0.787  0.6441  1.4065  0.2521
    7MOL0     H  919   3.272  10.636   0.928  1.2033 -0.8507  1.1859
    7MOL0     H  920   3.450  10.541   0.793 -0.1366 -0.7780  0.7090
    7MOL0     H  921   3.345  10.521   0.659 -3.3721  1.7330  0.3865
    7MOL0     H  922   3.498  10.722   0.669 -0.2262 -1.3250 -1.9796
    7MOL0     H  923   3.339  10.733   0.596 -1.0350  0.0325  0.5457
    7MOL0     H  924   3.487  10.912   0.556  0.5724  0.7822 -0.1645
    7MOL0     H  925   3.496  11.082   0.358  3.6461  0.8495  0.4031
    7MOL0     H  926   3.568  11.215   0.443  0.1029 -0.2858  0.6165
    7MOL0     H  927   3.399  11.218   0.394 -0.0280 -0.2245 -0.3168
    7MOL0     H  928   3.637  11.551   0.663  0.8154  1.7342 -0.0076
    7MOL0     H  929   3.691  11.788   0.628  1.2497 -1.6302  1.2615
    7MOL0     H  930   3.655  12.042   0.299 -0.1992 -1.2131 -1.0917
    7MOL0     H  931   3.520  11.927   0.256 -1.1683 -1.3845  1.4090
    7MOL0     H  932   3.430  12.158   0.220 -0.5544  2.9227  0.9591
    7MOL0     H  933   3.346  12.081   0.349 -0.4335  0.2492 -2.3570
    7MOL0     H  934   3.577  12.277   0.383 -0.1047  0.3471  0.7165
    7MOL0     H  935   3.500  12.193   0.514 -0.1260  2.5071  0.4045
    7MOL0     H  936   3.274  12.293   0.415 -0.8040  3.3186  0.0030
    7MOL0     H  937   3.369  12.401   0.335  0.1499  4.1685  2.5754
    7MOL0     H  938   3.368  12.361   0.633 -3.1313  1.3928 -0.3272
    7MOL0     H  939   3.502  12.452   0.537  0.1306 -1.4817 -1.9087
    7MOL0     H  940   3.228  12.506   0.585 -2.1326 -0.4498 -4.1176
    7MOL0     H  941   3.303  12.590   0.451 -1.2799  1.9536  1.0756
    7MOL0     H  942   3.499  12.664   0.628 -0.8502 -1.1608 -2.4605
    7MOL0     H  943   3.387  12.598   0.744  0.0846  0.5452  0.0410
    7MOL0     H  944   3.345  12.843   0.728 -1.7334  0.0485 -0.3198
    7MOL0     H  945   3.225  12.781   0.627  0.4654 -0.9439 -0.7348
    7MOL0     H  946   3.377  11.819   0.343  0.0111  0.1516  0.7829
    7MOL0     H  947   3.332  11.565   0.373  2.5575 -0.8223 -0.4295
    7MOL0     H  948   3.291  11.253   0.866 -1.7505  0.0108  1.0443
    7MOL0     H  949   3.304  11.013   0.923  2.7484  1.2280  1.9676
    7MOL0     H  950   3.491  10.276   2.228 -0.9708 -3.2026 -1.5531
    7MOL0     H  951   3.626  10.249   2.446 -1.6076  4.3086 -1.0239
    7MOL0     H  952   4.248  10.122   2.382  0.4234  2.5434  0.6795
    7MOL0     H  953   4.393   9.960   2.488 -0.0723 -2.1790 -0.1401
    7MOL0     H  954   4.187   9.727   2.782 -0.4068  0.2046  1.0668
    7MOL0     H  955   4.334   9.628   2.773 -1.7474 -1.0428  2.1586
    7MOL0     H  956   4.265   9.695   2.993  0.5289  0.4997  1.5822
    7MOL0     H  957   4.286   9.870   2.967 -2.6530 -0.8698 -1.0992
    7MOL0     H  958   4.463   9.747   3.103 -2.6623  1.0736  1.4569
    7MOL0     H  959   4.524   9.663   2.955  0.8814  0.6180  2.1134
    7MOL0     H  960   4.500   9.955   2.972  2.9177  1.6903  0.2496
    7MOL0     H  961   4.566   9.882   2.843 -2.0648  1.1891  0.0988
    7MOL0     H  962   4.885   9.881   3.099  0.9105  1.7070 -1.0358
    7MOL0     H  963   4.143   9.947   2.830  0.8473 -1.6655 -0.8689
    7MOL0     H  964   3.940  10.212   2.743 -1.0440 -0.4843  2.5926
    7MOL0     H  965   3.839  10.077   2.691 -0.8553  2.1952 -0.4856
    7MOL0     H  966   3.938  10.066   2.841  2.2224  2.0353  2.0082
    8MOL0     O  967   5.839  11.618   2.305  0.9767 -0.0837 -1.1812
    8MOL0     C  968   5.768  11.653   2.213  0.0434  0.5322  0.4180
    8MOL0     O  969   5.809  11.694   2.087  0.2223  0.3806  0.2105
    8MOL0     C  970   5.939  11.678   2.077  0.2061 -0.0960  0.0331
    8MOL0     C  971   6.029  11.788   2.079  0.1929 -0.2006  0.7945
    8MOL0     C  972   6.160  11.777   2.053 -0.0357  0.2999  0.2157
    8MOL0     C  973   6.212  11.656   2.018  0.6194 -0.4734  0.1133
    8MOL0     O  974   6.345  11.666   1.993 -0.3777  0.3223 -0.0424
    8MOL0     C  975   6.389  11.578   1.891 -0.2586 -0.9628  0.4874
    8MOL0     C  976   6.313  11.586   1.758 -0.4097  0.0029  0.1798
    8MOL0     C  977   6.299  11.725   1.701 -0.5509  0.4614  0.0700
    8MOL0     C  978   6.147  11.750   1.678 -0.8861 -0.1026 -0.3825
    8MOL0     C  979   6.118  11.872   1.583 -0.2298 -0.6264 -0.2060
    8MOL0     C  980   6.158  12.005   1.651  0.7594  1.5329 -0.5880
    8MOL0     C  981   6.141  12.015   1.806 -0.0372  0.3273 -0.5112
    8MOL0     C  982   6.228  12.135   1.850 -0.4781 -0.3047 -1.0633
    8MOL0     N  983   6.246  12.145   1.992 -0.0532 -1.3149 -0.4517
    8MOL0     C  984   6.144  12.179   2.076 -0.2984  0.0347  0.3954
    8MOL0     C  985   6.197  12.147   2.192  0.7499  0.5361 -0.5382
    8MOL0     C  986   6.109  12.142   2.314  0.3628 -0.9164 -0.2114
    8MOL0     C  987   6.057  12.291   2.365  0.0499  0.3073  0.3591
    8MOL0     C  988   6.172  12.363   2.443  0.0826  0.4187  0.0621
    8MOL0     C  989   6.269  12.422   2.344 -0.0595 -0.1529 -0.0859
    8MOL0     O  990   6.208  12.488   2.234  0.0043  0.3216 -0.5639
    8MOL0     C  991   6.269  12.478   2.111 -0.1426  0.6325 -0.4389
    8MOL0     C  992   6.194  12.512   2.000 -0.2085 -0.3353 -0.9440
    8MOL0     C  993   6.245  12.506   1.870  0.2491 -0.2294  0.1552
    8MOL0     C  994   6.145  12.553   1.766 -0.6922  0.3981 -0.5549
    8MOL0     C  995   6.377  12.466   1.844  0.1307  0.8830 -0.6112
    8MOL0     C  996   6.446  12.452   1.715  0.1186  0.8749 -0.5330
    8MOL0     O  997   6.354  12.437   1.613 -0.1501  0.0590  0.1896
    8MOL0     C  998   6.401  12.438   1.485  0.0423  0.1241 -0.0157
    8MOL0     C  999   6.449  12.543   1.429  0.1946 -0.3492  0.1578
    8MOL0     C 1000   6.480  12.548   1.295 -0.3899  1.0378  0.3917
    8MOL0     C 1001   6.468  12.442   1.206  0.3421 -0.6224 -0.7441
    8MOL0     O 1002   6.503  12.453   1.074  0.0377 -0.4734  0.3899
    8MOL0     C 1003   6.458  12.343   0.996  0.3895  0.4764 -0.6715
    8MOL0     C 1004   6.516  12.350   0.860 -0.1588  0.0323 -0.2539
    8MOL0     C 1005   6.422  12.380   0.750  0.7275 -0.3384  0.6933
    8MOL0     C 1006   6.441  12.318   0.612 -0.7864  0.2040  0.0936
    8MOL0     C 1007   6.319  12.343   0.516 -0.5640 -0.1246  0.6352
    8MOL0     C 1008   6.330  12.243   0.394  0.6878  0.6216  0.9803
    8MOL0     C 1009   6.419  12.303   0.291 -0.3217 -0.4618 -0.1367
    8MOL0     C 1010   6.402  12.210   0.174  0.4054  0.3624  0.0194
    8MOL0    Cl 1011   6.503  12.253   0.034  0.5275  0.1651  0.0326
    8MOL0     C 1012   6.419  12.326   1.274 -0.4688  0.8426 -0.0279
    8MOL0     C 1013   6.395  12.318   1.413  0.3433  1.3126 -1.2072
    8MOL0     O 1014   6.568  12.436   1.709  0.2918  0.0535 -0.4334
    8MOL0     C 1015   6.458  12.428   1.958  0.3238 -0.2830  0.8274
    8MOL0     C 1016   6.406  12.445   2.086 -0.9886  0.7146 -0.3540
    8MOL0     N 1017   6.321  12.097   2.193  0.0380 -0.3057  1.0109
    8MOL0     N 1018   6.347  12.097   2.071 -1.0377  0.0959 -0.1189
    8MOL0     C 1019   6.123  11.537   2.027  0.1638 -0.2610 -0.7250
    8MOL0     C 1020   5.993  11.554   2.054  0.1656  0.1636 -0.6031
    8MOL0     C 1021   5.626  11.661   2.249  0.2701 -0.0444 -0.3994
    8MOL0     C 1022   5.560  11.787   2.233  0.0813  0.4241  0.3258
    8MOL0     C 1023   5.424  11.800   2.281  0.3798  0.7511  0.0265
    8MOL0     C 1024   5.349  11.687   2.325  0.3719  0.2217 -0.1064
    8MOL0     O 1025   5.211  11.711   2.346 -0.9090  0.3956 -0.2294
    8MOL0     C 1026   5.129  11.594   2.326  0.1930 -0.7129  0.3330
    8MOL0     C 1027   4.985  11.651   2.327  0.4434 -0.5310  0.2095
    8MOL0     C 1028   4.916  11.640   2.192 -0.0089 -0.4514 -0.3739
    8MOL0     C 1029   4.965  11.736   2.085 -0.0892 -0.2552  0.7269
    8MOL0     C 1030   4.899  11.697   1.960 -0.1065 -0.5032  0.1307
    8MOL0     C 1031   4.841  11.640   1.867  0.3306 -0.1813  1.4576
    8MOL0     C 1032   5.408  11.565   2.332  0.2560  0.3280 -0.2743
    8MOL0     C 1033   5.547  11.556   2.301  0.5422  0.1090  0.0976
    8MOL0     C 1034   5.620  11.417   2.320 -0.0365  0.0258  0.6443
    8MOL0     H 1035   5.977  11.883   2.091 -1.8441 -0.5346 -3.4723
    8MOL0     H 1036   6.231  11.858   2.066  0.1417  0.1955 -0.0871
    8MOL0     H 1037   6.388  11.477   1.934  0.8023 -1.3748 -0.4071
    8MOL0     H 1038   6.491  11.608   1.865 -1.3330  1.6362 -1.1119
    8MOL0     H 1039   6.377  11.523   1.696 -0.1796 -0.0665  0.4865
    8MOL0     H 1040   6.216  11.537   1.767 -0.3917  0.0992  1.0226
    8MOL0     H 1041   6.338  11.802   1.768  0.6078  0.8351 -0.9992
    8MOL0     H 1042   6.346  11.739   1.603  1.5141  2.0402  1.1843
    8MOL0     H 1043   6.105  11.659   1.634  0.0597 -0.2979 -0.8996
    8MOL0     H 1044   6.091  11.759   1.772 -1.7543  1.5182 -1.0136
    8MOL0     H 1045   6.011  11.882   1.561 -0.1864 -0.5254 -0.3682
    8MOL0     H 1046   6.177  11.851   1.494  1.5899 -1.2568  1.0897
    8MOL0     H 1047   6.264  12.016   1.626  0.9596  0.5323 -0.2373
    8MOL0     H 1048   6.094  12.076   1.599  1.0405  3.1502  1.1440
    8MOL0     H 1049   6.171  11.923   1.857  1.0610 -0.6621 -2.7967
    8MOL0     H 1050   6.033  12.030   1.820 -0.5771 -1.5827 -2.2096
    8MOL0     H 1051   6.327  12.129   1.804  0.0747  2.8677 -0.5036
    8MOL0     H 1052   6.192  12.226   1.802  0.0854  0.1501 -0.6287
    8MOL0     H 1053   6.042  12.206   2.050  0.1900  0.9908 -0.6118
    8MOL0     H 1054   6.166  12.107   2.401  0.9232  0.8773  0.1969
    8MOL0     H 1055   6.025  12.080   2.282 -1.2460  1.2882 -0.4805
    8MOL0     H 1056   6.003  12.354   2.293  0.6209 -0.1967 -0.5280
    8MOL0     H 1057   5.982  12.273   2.442  0.7921  1.8194  1.4666
    8MOL0     H 1058   6.137  12.453   2.494  0.5048  1.1714 -0.9295
    8MOL0     H 1059   6.218  12.294   2.514  4.0990  2.5175 -0.1984
    8MOL0     H 1060   6.330  12.499   2.393  0.7422  0.0379 -1.3229
    8MOL0     H 1061   6.342  12.345   2.315  0.5797  0.6900 -0.8051
    8MOL0     H 1062   6.087  12.527   2.016 -0.1245 -1.2909  0.6919
    8MOL0     H 1063   6.198  12.592   1.679  2.7947 -0.9352  0.8147
    8MOL0     H 1064   6.092  12.640   1.807  0.5725  1.0152 -0.2002
    8MOL0     H 1065   6.073  12.475   1.739 -1.2304  0.9241 -0.6749
    8MOL0     H 1066   6.450  12.640   1.476  0.9379  0.2428 -1.0289
    8MOL0     H 1067   6.513  12.644   1.257  0.0326  0.1819 -1.4950
    8MOL0     H 1068   6.492  12.247   1.036 -1.1552 -0.1400 -0.7543
    8MOL0     H 1069   6.350  12.344   0.976  0.0296  0.9777  1.1392
    8MOL0     H 1070   6.586  12.434   0.873 -1.4727  0.8995  1.9073
    8MOL0     H 1071   6.576  12.264   0.831 -0.1476 -0.7151  1.7668
    8MOL0     H 1072   6.407  12.486   0.729 -2.9656 -1.0897 -1.2423
    8MOL0     H 1073   6.321  12.348   0.779  0.9231 -0.4146  1.3092
    8MOL0     H 1074   6.455  12.212   0.631 -0.6386  0.3810  0.9896
    8MOL0     H 1075   6.531  12.350   0.559  0.0965 -0.8804  0.8980
    8MOL0     H 1076   6.226  12.330   0.572 -1.0119 -1.5678 -0.3856
    8MOL0     H 1077   6.329  12.446   0.480  2.9604  0.1653  2.0509
    8MOL0     H 1078   6.228  12.234   0.356  1.5093  1.2233 -1.5330
    8MOL0     H 1079   6.369  12.145   0.421 -1.3252 -0.7816 -0.8024
    8MOL0     H 1080   6.525  12.309   0.320 -0.3768  1.0779 -0.1301
    8MOL0     H 1081   6.383  12.404   0.267 -1.5525 -0.1319  2.6964
    8MOL0     H 1082   6.300  12.217   0.136 -0.7494  0.4421  2.8623
    8MOL0     H 1083   6.408  12.106   0.208  2.1833 -0.1297 -1.6547
    8MOL0     H 1084   6.405  12.237   1.214 -2.3587  0.7782  0.4593
    8MOL0     H 1085   6.361  12.227   1.463  1.3590  1.5794  0.0295
    8MOL0     H 1086   6.556  12.386   1.940 -0.5207 -1.8272 -0.4496
    8MOL0     H 1087   6.473  12.426   2.169 -2.7354  1.7542  1.3961
    8MOL0     H 1088   6.152  11.434   2.012  0.1783  0.0474 -3.3122
    8MOL0     H 1089   5.932  11.467   2.075 -1.9003  1.8448  0.7363
    8MOL0     H 1090   5.614  11.868   2.186  3.6829 -1.2965  1.1474
    8MOL0     H 1091   5.360  11.887   2.272 -0.9409 -0.2601 -0.7581
    8MOL0     H 1092   5.143  11.535   2.235 -0.9186  2.4657 -2.0745
    8MOL0     H 1093   5.139  11.527   2.412  3.1179 -1.5855 -0.5635
    8MOL0     H 1094   4.994  11.757   2.351  1.2379 -0.7640  1.0018
    8MOL0     H 1095   4.915  11.608   2.399 -2.3754  2.1074 -0.7212
    8MOL0     H 1096   4.937  11.538   2.159 -0.2795 -0.4142 -0.6644
    8MOL0     H 1097   4.807  11.641   2.197  0.0147 -1.1009  0.4659
    8MOL0     H 1098   5.074  11.734   2.070 -0.1706  0.1639  0.0466
    8MOL0     H 1099   4.961  11.843   2.108  0.0574 -0.3226  1.0760
    8MOL0     H 1100   4.809  11.597   1.774  4.5779  2.3607 -1.5146
    8MOL0     H 1101   5.354  11.473   2.354 -0.4489  0.2828 -2.0061
    8MOL0     H 1102   5.670  11.390   2.226  2.6977  1.6186  1.5081
    8MOL0     H 1103   5.683  11.412   2.409  0.7788 -0.3170  0.0601
    8MOL0     H 1104   5.543  11.344   2.346 -0.8216  0.5154 -0.2576
    9MOL0     O 1105   9.607   2.233  11.524  0.0345  0.0015 -0.2955
    9MOL0     C 1106   9.505   2.166  11.510 -0.2790  1.6534  0.3918
    9MOL0     O 1107   9.431   2.092  11.608 -0.0315 -0.1591 -0.4699
    9MOL0     C 1108   9.477   2.108  11.745  0.3079  0.7660  0.1335
    9MOL0     C 1109   9.452   2.207  11.836  0.2301 -0.8580 -0.2473
    9MOL0     C 1110   9.498   2.196  11.971 -0.0306 -0.3063  0.5389
    9MOL0     C 1111   9.567   2.078  12.015  0.1319 -0.2641  0.5382
    9MOL0     O 1112   9.625   2.067  12.140  0.1950 -0.4386 -0.4448
    9MOL0     C 1113   9.588   2.161  12.243 -0.5918  0.0228  0.3812
    9MOL0     C 1114   9.669   2.293  12.222 -0.6657  0.5600  0.6957
    9MOL0     C 1115   9.651   2.381  12.339  0.6173 -0.3621  0.7882
    9MOL0     C 1116   9.714   2.525  12.301 -0.5814 -0.8543  1.1173
    9MOL0     C 1117   9.664   2.622  12.406  0.8193 -0.3085  0.0717
    9MOL0     C 1118   9.653   2.573  12.549 -0.6588  0.6362 -0.4720
    9MOL0     C 1119   9.598   2.675  12.653 -1.0224  0.1735  0.0245
    9MOL0     C 1120   9.600   2.606  12.796  0.4952  0.3723 -0.4943
    9MOL0     N 1121   9.605   2.715  12.902  0.3602  0.6094  0.6190
    9MOL0     C 1122   9.707   2.796  12.938 -0.2157  0.8352  0.1060
    9MOL0     C 1123   9.666   2.872  13.035 -0.6914  0.0256  0.4406
    9MOL0     C 1124   9.720   3.002  13.095 -0.0361 -0.1365  0.0529
    9MOL0     C 1125   9.735   3.005  13.243 -0.1062  0.6111 -0.4546
    9MOL0     C 1126   9.797   3.132  13.301  0.4473  0.0748  0.2984
    9MOL0     C 1127   9.809   3.132  13.447  0.2017  0.2830 -0.6553
    9MOL0     O 1128   9.873   3.252  13.498 -0.3263  0.4645  0.4702
    9MOL0     C 1129   9.850   3.292  13.625 -0.3309 -0.4708 -0.0655
    9MOL0     C 1130   9.788   3.214  13.727 -0.0640 -0.0343  0.4012
    9MOL0     C 1131   9.780   3.263  13.854 -0.7958  0.4749 -0.2805
    9MOL0     C 1132   9.709   3.182  13.957 -0.4137  0.6211 -0.3754
    9MOL0     C 1133   9.841   3.392  13.884 -0.5609 -0.2818 -0.0869
    9MOL0     C 1134   9.834   3.450  14.019 -0.4745 -0.9334 -0.6908
    9MOL0     O 1135   9.940   3.535  14.050 -0.3183  0.7296 -0.1688
    9MOL0     C 1136   9.920   3.634  14.141 -0.1638 -0.7514  0.2939
    9MOL0     C 1137   9.820   3.731  14.116  0.5790 -0.7530  0.3449
    9MOL0     C 1138   9.786   3.839  14.203 -0.3264 -0.4214 -0.6246
    9MOL0     C 1139   9.862   3.856  14.316  0.4991  0.2950  0.5567
    9MOL0     O 1140   9.834   3.957  14.411 -0.2896 -0.2584  0.9982
    9MOL0     C 1141   9.917   3.966  14.534 -0.1114  0.0535  0.2350
    9MOL0     C 1142   9.849   4.059  14.635 -0.5121  0.2439 -0.2434
    9MOL0     C 1143   9.890   4.204  14.625 -0.7499  0.1124  0.3382
    9MOL0     C 1144   9.820   4.304  14.731  0.0069  0.0261 -0.4141
    9MOL0     C 1145   9.874   4.438  14.716 -0.3347  0.2705 -0.2431
    9MOL0     C 1146   9.805   4.531  14.812  0.0318  0.1890  0.4406
    9MOL0     C 1147   9.817   4.681  14.784  0.2968  1.2072 -0.7555
    9MOL0     C 1148   9.955   4.737  14.812 -0.2371 -1.0227 -0.3616
    9MOL0    Cl 1149  10.090   4.689  14.704 -0.0347 -0.6042  0.1837
    9MOL0     C 1150   9.976   3.763  14.328 -0.8785  0.0297  0.4731
    9MOL0     C 1151  10.014   3.654  14.242  0.9764 -0.1647 -1.0358
    9MOL0     O 1152   9.731   3.437  14.086 -0.0865 -0.2015 -0.5423
    9MOL0     C 1153   9.898   3.456  13.786  0.3689  0.2581 -0.0014
    9MOL0     C 1154   9.906   3.411  13.658  0.4481 -0.9830  0.9547
    9MOL0     N 1155   9.538   2.827  13.075  0.8722 -0.3266 -0.7183
    9MOL0     N 1156   9.504   2.730  12.994 -0.4339 -0.2399  0.3779
    9MOL0     C 1157   9.569   1.973  11.933 -0.5227  0.6677  0.4177
    9MOL0     C 1158   9.532   1.990  11.796 -0.2216 -1.0884 -0.1211
    9MOL0     C 1159   9.460   2.164  11.370 -0.6490  0.8052  0.3273
    9MOL0     C 1160   9.351   2.234  11.329  0.4039  0.8230  0.4483
    9MOL0     C 1161   9.312   2.231  11.190  1.0055  0.1233 -0.5550
    9MOL0     C 1162   9.363   2.141  11.103 -0.5118 -0.5460  0.3627
    9MOL0     O 1163   9.315   2.124  10.973  0.0503  0.3618  0.3451
    9MOL0     C 1164   9.184   2.166  10.951  0.4095 -0.2898 -0.7435
    9MOL0     C 1165   9.117   2.087  10.834  0.8359  1.0610 -0.4356
    9MOL0     C 1166   9.098   1.941  10.879  0.1654  0.5485 -0.8897
    9MOL0     C 1167   9.041   1.839  10.770 -0.1837 -0.8777 -0.5900
    9MOL0     C 1168   9.133   1.831  10.658 -0.0754  0.3998 -0.4363
    9MOL0     C 1169   9.214   1.834  10.566  0.6532 -0.7590 -0.0343
    9MOL0     C 1170   9.465   2.060  11.151  0.3700 -1.0460 -0.0950
    9MOL0     C 1171   9.513   2.068  11.283 -0.0508 -0.5893  0.2593
    9MOL0     C 1172   9.631   1.983  11.316 -0.1258  0.1154 -0.8524
    9MOL0     H 1173   9.406   2.296  11.794 -2.0871 -2.0817 -0.4813
    9MOL0     H 1174   9.465   2.278  12.034  0.3989  1.1495 -1.0785
    9MOL0     H 1175   9.615   2.122  12.341  2.6886  2.4677  0.5980
    9MOL0     H 1176   9.481   2.187  12.246 -0.6398 -0.0192 -0.6020
    9MOL0     H 1177   9.774   2.275  12.199 -0.7418  0.6689  0.2492
    9MOL0     H 1178   9.638   2.347  12.132  4.7065  1.9394 -0.7050
    9MOL0     H 1179   9.544   2.392  12.358  1.0083  0.1357  2.9766
    9MOL0     H 1180   9.700   2.326  12.419 -1.4153  1.1124  3.1865
    9MOL0     H 1181   9.821   2.520  12.320 -0.3866 -0.7482  0.0940
    9MOL0     H 1182   9.689   2.562  12.201  1.3475  2.6536  1.7607
    9MOL0     H 1183   9.563   2.653  12.379  1.3223  2.7091  1.2654
    9MOL0     H 1184   9.726   2.712  12.402 -0.2291  0.6470  2.8223
    9MOL0     H 1185   9.582   2.491  12.568 -0.3756  0.6096  0.5519
    9MOL0     H 1186   9.750   2.535  12.582 -1.0389  0.4578  0.5008
    9MOL0     H 1187   9.495   2.706  12.630 -0.3633  3.0893  0.6576
    9MOL0     H 1188   9.672   2.755  12.660  0.4315 -1.0609 -0.7087
    9MOL0     H 1189   9.522   2.530  12.810  0.4760  0.4201 -0.3442
    9MOL0     H 1190   9.697   2.557  12.803  0.8817  1.2254  0.3435
    9MOL0     H 1191   9.803   2.794  12.888 -1.7819  2.0471 -3.2883
    9MOL0     H 1192   9.642   3.076  13.073 -0.1230  0.0644  0.9737
    9MOL0     H 1193   9.816   3.024  13.048  0.2979 -0.4704  0.5625
    9MOL0     H 1194   9.634   3.002  13.284 -0.5736 -0.8294 -1.6225
    9MOL0     H 1195   9.800   2.920  13.269 -3.2779 -1.7294  0.5747
    9MOL0     H 1196   9.899   3.150  13.264  1.2426  0.8342  2.6676
    9MOL0     H 1197   9.726   3.209  13.272  1.3315  0.4809 -0.8612
    9MOL0     H 1198   9.709   3.136  13.491 -0.1046 -0.6541 -1.2303
    9MOL0     H 1199   9.865   3.045  13.483  2.0142  0.0524 -3.7054
    9MOL0     H 1200   9.761   3.111  13.705  0.7339  0.2870 -2.5262
    9MOL0     H 1201   9.703   3.080  13.917  0.0304  0.7412 -0.7556
    9MOL0     H 1202   9.608   3.217  13.982  1.3646  4.3990  2.3585
    9MOL0     H 1203   9.774   3.178  14.045 -0.2695  4.3708 -0.1810
    9MOL0     H 1204   9.765   3.721  14.023  3.2136  1.0148 -1.5631
    9MOL0     H 1205   9.703   3.906  14.184  0.7277 -0.0311 -4.7898
    9MOL0     H 1206   9.948   3.874  14.585  0.4025  0.0674 -0.0465
    9MOL0     H 1207  10.020   3.998  14.517 -0.2514  1.0515  1.1170
    9MOL0     H 1208   9.740   4.061  14.630 -0.5798 -1.1151  0.1167
    9MOL0     H 1209   9.874   4.029  14.737  1.8652  2.6143 -0.0238
    9MOL0     H 1210   9.872   4.244  14.524 -1.8978 -0.3950  0.3264
    9MOL0     H 1211   9.998   4.202  14.643 -0.4165 -2.4110 -1.3844
    9MOL0     H 1212   9.834   4.273  14.836 -1.5663  1.0271  0.1203
    9MOL0     H 1213   9.715   4.319  14.709  0.3375  1.6403 -0.9500
    9MOL0     H 1214   9.980   4.422  14.739 -0.0795  0.0836 -1.4730
    9MOL0     H 1215   9.869   4.475  14.613 -2.8007  0.2889 -0.1881
    9MOL0     H 1216   9.820   4.502  14.916 -0.7234 -2.3534 -0.1012
    9MOL0     H 1217   9.701   4.497  14.811 -0.1718  0.6345 -2.6356
    9MOL0     H 1218   9.756   4.731  14.860  1.0168 -1.4734  1.7794
    9MOL0     H 1219   9.774   4.709  14.687 -1.2988  1.1285 -0.0996
    9MOL0     H 1220   9.986   4.717  14.915 -0.8195  0.8863  0.2309
    9MOL0     H 1221   9.946   4.846  14.800 -0.3624 -0.8561  1.0859
    9MOL0     H 1222  10.053   3.776  14.403 -1.7870 -0.9614  1.6124
    9MOL0     H 1223  10.112   3.609  14.247  0.5776 -1.1815 -1.9697
    9MOL0     H 1224   9.929   3.556  13.814  1.0463  0.6541 -2.0352
    9MOL0     H 1225   9.941   3.483  13.585 -2.9471  0.3787  0.4713
    9MOL0     H 1226   9.620   1.889  11.980  3.6051  1.8915 -1.4180
    9MOL0     H 1227   9.550   1.903  11.732  1.0424 -0.6315 -0.4130
    9MOL0     H 1228   9.302   2.304  11.396  0.0217  0.1677  0.8607
    9MOL0     H 1229   9.236   2.303  11.161  0.1280 -1.8218 -3.3881
    9MOL0     H 1230   9.127   2.153  11.043 -1.4454 -2.4238 -2.0612
    9MOL0     H 1231   9.175   2.272  10.928  0.2205  0.0563  0.8328
    9MOL0     H 1232   9.186   2.102  10.750 -1.2755  1.4893 -2.1985
    9MOL0     H 1233   9.026   2.143  10.813 -0.7335 -1.2772 -0.1496
    9MOL0     H 1234   9.194   1.895  10.903 -0.1845  0.4625  0.4311
    9MOL0     H 1235   9.037   1.936  10.970  3.2367  0.0776  1.3183
    9MOL0     H 1236   8.945   1.885  10.741 -0.5121 -1.4377 -0.4059
    9MOL0     H 1237   9.025   1.747  10.826  1.3800 -1.1535 -0.5657
    9MOL0     H 1238   9.286   1.838  10.487  0.3639  4.3702 -0.3972
    9MOL0     H 1239   9.498   1.983  11.082  3.0216 -2.5936  2.6590
    9MOL0     H 1240   9.624   1.915  11.402 -1.2615  1.7209  0.3906
    9MOL0     H 1241   9.650   1.912  11.235  0.5626 -0.3900 -0.2645
    9MOL0     H 1242   9.716   2.048  11.337  0.2661 -0.7657  0.4071
   10MOL0     O 1243   6.769   3.776  11.348  0.5370  0.5643  0.3258
   10MOL0     C 1244   6.653   3.762  11.382 -0.3118 -0.0499 -0.1023
   10MOL0     O 1245   6.579   3.850  11.458  0.2095 -0.1911  0.5121
   10MOL0     C 1246   6.627   3.975  11.434 -1.3056  0.7940 -0.0426
   10MOL0     C 1247   6.589   4.067  11.326 -0.0684  0.3376  0.1018
   10MOL0     C 1248   6.621   4.205  11.324 -1.1804  0.1277 -0.9006
   10MOL0     C 1249   6.707   4.254  11.430 -0.0633  0.5651  0.3453
   10MOL0     O 1250   6.750   4.389  11.419  0.0587  0.3965  0.5152
   10MOL0     C 1251   6.726   4.471  11.299  0.1026  0.1809 -0.2200
   10MOL0     C 1252   6.812   4.594  11.317  0.1991 -0.1924  0.2293
   10MOL0     C 1253   6.788   4.675  11.443 -0.7680  0.7453  0.0968
   10MOL0     C 1254   6.815   4.816  11.411 -0.0418 -0.3139  0.4976
   10MOL0     C 1255   6.752   4.915  11.515  0.3619  0.1179  0.2275
   10MOL0     C 1256   6.829   4.906  11.643  0.9707 -0.2117  0.0138
   10MOL0     C 1257   6.811   5.033  11.730  0.0127  0.5562  0.3696
   10MOL0     C 1258   6.696   5.016  11.838 -0.3558  0.4831  0.5840
   10MOL0     N 1259   6.714   5.111  11.953  0.3316  0.5406  0.6772
   10MOL0     C 1260   6.707   5.246  11.930 -1.4152 -0.9793 -0.6672
   10MOL0     C 1261   6.753   5.301  12.045 -0.6107 -0.4465 -0.8128
   10MOL0     C 1262   6.741   5.452  12.064  0.2631  0.8348  0.0989
   10MOL0     C 1263   6.835   5.505  12.178  0.5928  0.4121 -0.3556
   10MOL0     C 1264   6.985   5.461  12.169 -0.6455  0.0752  0.7108
   10MOL0     C 1265   7.057   5.509  12.044  2.0284  0.2998  0.0936
   10MOL0     O 1266   7.051   5.650  12.048 -0.1407 -0.4535  0.5554
   10MOL0     C 1267   7.060   5.714  11.922 -0.5827 -0.2274 -0.4088
   10MOL0     C 1268   7.011   5.841  11.924  0.1267 -1.1158 -0.0639
   10MOL0     C 1269   7.024   5.922  11.817 -0.2950 -0.1679 -0.9231
   10MOL0     C 1270   6.945   6.053  11.836  0.2063 -0.3220  0.8842
   10MOL0     C 1271   7.074   5.872  11.699  0.0945 -0.3342  1.0576
   10MOL0     C 1272   7.093   5.960  11.587  0.5850 -0.0578  0.5877
   10MOL0     O 1273   7.167   6.069  11.610 -0.1576 -0.0619  0.1516
   10MOL0     C 1274   7.201   6.137  11.491 -0.5373  0.0041 -0.0321
   10MOL0     C 1275   7.144   6.264  11.470 -0.4793  0.5908 -0.1556
   10MOL0     C 1276   7.190   6.336  11.351 -1.1487 -0.1176  0.0327
   10MOL0     C 1277   7.280   6.278  11.254 -0.1900 -0.7849 -0.2033
   10MOL0     O 1278   7.315   6.344  11.137  0.3802  0.5940 -1.2334
   10MOL0     C 1279   7.275   6.483  11.115 -0.7008  0.9552  0.0092
   10MOL0     C 1280   7.166   6.483  11.007  0.7971 -0.5551  0.3281
   10MOL0     C 1281   7.030   6.407  11.057 -0.5221 -0.1450 -0.1286
   10MOL0     C 1282   6.918   6.394  10.951 -0.0838  0.2811  0.4429
   10MOL0     C 1283   6.766   6.369  10.988 -0.3692  0.3569 -1.3062
   10MOL0     C 1284   6.750   6.251  11.090  0.1102  0.1348 -0.7843
   10MOL0     C 1285   6.678   6.294  11.224  0.1434 -0.3054 -0.5280
   10MOL0     C 1286   6.623   6.169  11.293  0.4468 -0.8973  0.9693
   10MOL0    Cl 1287   6.740   6.035  11.299  0.0748  0.3487 -0.2058
   10MOL0     C 1288   7.323   6.148  11.282 -0.1461  0.4460 -0.2448
   10MOL0     C 1289   7.292   6.080  11.400 -0.3165 -0.0992 -0.5227
   10MOL0     O 1290   7.052   5.927  11.476  0.5314  0.2568  0.5733
   10MOL0     C 1291   7.116   5.740  11.694  0.4914  0.1037  0.1115
   10MOL0     C 1292   7.111   5.664  11.805 -0.0480 -0.9655 -0.1991
   10MOL0     N 1293   6.790   5.205  12.135  0.4876  0.1815 -0.2250
   10MOL0     N 1294   6.749   5.094  12.086 -0.2282 -0.3716  0.2846
   10MOL0     C 1295   6.747   4.169  11.530 -0.1672 -0.3061  0.0796
   10MOL0     C 1296   6.710   4.035  11.539 -0.5560  0.6099 -0.0548
   10MOL0     C 1297   6.579   3.643  11.336  0.4663  0.4754  0.9225
   10MOL0     C 1298   6.457   3.608  11.392  0.3742  0.2670 -0.4766
   10MOL0     C 1299   6.394   3.488  11.349  0.5617 -0.3739 -0.6791
   10MOL0     C 1300   6.440   3.413  11.247  0.3715  0.8742  0.4158
   10MOL0     O 1301   6.371   3.305  11.200 -0.0281  0.0375  0.2244
   10MOL0     C 1302   6.228   3.304  11.194 -0.6431 -0.3881  0.7527
   10MOL0     C 1303   6.171   3.206  11.091 -0.7478 -0.2282  0.2139
   10MOL0     C 1304   6.280   3.096  11.065 -0.4863 -0.2726 -0.1271
   10MOL0     C 1305   6.318   2.999  11.183  0.1985  0.3224 -0.3437
   10MOL0     C 1306   6.253   2.867  11.179  0.2060 -0.6774  0.9254
   10MOL0     C 1307   6.198   2.761  11.170 -0.4322  1.0159  1.8328
   10MOL0     C 1308   6.560   3.449  11.181  0.9222 -0.4377 -0.4952
   10MOL0     C 1309   6.627   3.568  11.217  0.0013  0.0393  0.0213
   10MOL0     C 1310   6.740   3.608  11.125 -0.1613 -0.0657  0.2326
   10MOL0     H 1311   6.515   4.034  11.255 -1.3894  0.4859  1.3728
   10MOL0     H 1312   6.594   4.271  11.242  1.2552  0.2103 -1.7252
   10MOL0     H 1313   6.624   4.505  11.280  0.0155 -0.1452 -0.3506
   10MOL0     H 1314   6.763   4.415  11.212  0.5160 -2.4018  1.5032
   10MOL0     H 1315   6.919   4.572  11.314  0.4718  1.1467 -1.0027
   10MOL0     H 1316   6.793   4.659  11.231  0.5290  2.3996  1.9975
   10MOL0     H 1317   6.682   4.648  11.447 -1.0055  0.5609 -3.4971
   10MOL0     H 1318   6.853   4.630  11.518  3.8418 -0.8691 -4.3301
   10MOL0     H 1319   6.920   4.842  11.393 -0.4018 -0.1178 -1.5135
   10MOL0     H 1320   6.775   4.836  11.311  4.0125 -5.7755 -2.7946
   10MOL0     H 1321   6.647   4.903  11.544  0.8685  2.7225  3.8197
   10MOL0     H 1322   6.745   5.013  11.468 -1.7818 -0.3180 -0.4731
   10MOL0     H 1323   6.805   4.812  11.695  3.5822 -1.2500 -0.5363
   10MOL0     H 1324   6.935   4.905  11.618  0.3143 -1.3026 -3.1814
   10MOL0     H 1325   6.789   5.113  11.659 -0.9519  0.5446  0.6388
   10MOL0     H 1326   6.902   5.066  11.780 -0.7240  1.8405  0.9019
   10MOL0     H 1327   6.607   5.040  11.779 -0.4948 -1.2091  0.0589
   10MOL0     H 1328   6.688   4.918  11.887 -1.2008  0.9305  1.3743
   10MOL0     H 1329   6.691   5.294  11.834  1.8393  0.2259 -0.7422
   10MOL0     H 1330   6.639   5.484  12.085  0.6748  2.5771 -0.3992
   10MOL0     H 1331   6.778   5.504  11.975  0.3094  1.3708  0.4285
   10MOL0     H 1332   6.834   5.614  12.164 -0.5683  0.1853 -2.3650
   10MOL0     H 1333   6.790   5.480  12.275  1.9516  1.1026  0.4846
   10MOL0     H 1334   7.030   5.499  12.261  1.8051 -2.0246  0.5069
   10MOL0     H 1335   6.997   5.352  12.170 -0.8202 -0.0913 -2.6340
   10MOL0     H 1336   7.156   5.465  12.032  2.8769  2.2531 -0.4445
   10MOL0     H 1337   6.993   5.464  11.967 -0.3328  0.0792  2.0345
   10MOL0     H 1338   6.960   5.866  12.017  0.8782  0.5744 -0.0650
   10MOL0     H 1339   6.992   6.141  11.792 -2.6245  2.3560  2.8110
   10MOL0     H 1340   6.909   6.067  11.938 -1.5244 -4.5507  1.0886
   10MOL0     H 1341   6.864   6.052  11.762  0.0445  2.3812  0.9357
   10MOL0     H 1342   7.075   6.315  11.536 -1.2683 -0.7582  0.1045
   10MOL0     H 1343   7.169   6.442  11.345  0.3856  0.3093  1.6228
   10MOL0     H 1344   7.249   6.537  11.206  0.1824 -3.3026  3.0981
   10MOL0     H 1345   7.359   6.541  11.077  1.1010 -2.1671 -1.1402
   10MOL0     H 1346   7.131   6.583  10.979 -3.5628 -2.1353 -0.6733
   10MOL0     H 1347   7.204   6.437  10.915  1.2334 -1.8267  1.1205
   10MOL0     H 1348   6.997   6.457  11.149  4.1138  1.6613  0.8634
   10MOL0     H 1349   7.062   6.307  11.088  0.4011  0.8834  2.5338
   10MOL0     H 1350   6.939   6.303  10.894 -1.4136  0.1735  0.1070
   10MOL0     H 1351   6.926   6.480  10.884  0.0070  2.0586  2.6252
   10MOL0     H 1352   6.718   6.460  11.024 -0.8794 -0.5654  0.4431
   10MOL0     H 1353   6.717   6.334  10.896 -0.7275 -2.2485 -0.1826
   10MOL0     H 1354   6.843   6.199  11.114 -1.5587 -1.4178  3.0070
   10MOL0     H 1355   6.677   6.180  11.051 -0.7707  1.7922 -2.3215
   10MOL0     H 1356   6.601   6.371  11.215 -1.7660 -2.2127 -1.2241
   10MOL0     H 1357   6.751   6.333  11.297 -1.7115 -1.6154  2.2198
   10MOL0     H 1358   6.528   6.139  11.247 -2.4333  1.4611  4.7924
   10MOL0     H 1359   6.601   6.198  11.396 -1.5991  1.7866 -0.0896
   10MOL0     H 1360   7.394   6.117  11.207  0.3440  0.2895  0.2813
   10MOL0     H 1361   7.336   5.980  11.398 -0.1362 -0.0168 -2.2188
   10MOL0     H 1362   7.154   5.691  11.605 -1.7971 -1.9671  0.1859
   10MOL0     H 1363   7.141   5.560  11.806  1.2129 -0.6270  0.7738
   10MOL0     H 1364   6.800   4.220  11.610 -1.9931 -0.4277  1.4101
   10MOL0     H 1365   6.761   3.987  11.622 -2.1513 -2.2098 -0.5717
   10MOL0     H 1366   6.425   3.673  11.473  2.6539  0.7280  0.1342
   10MOL0     H 1367   6.295   3.468  11.387  0.1522 -1.3768 -2.1438
   10MOL0     H 1368   6.202   3.279  11.298  2.4396  0.1578  1.7522
   10MOL0     H 1369   6.179   3.400  11.175 -2.4025 -1.6755 -1.7432
   10MOL0     H 1370   6.139   3.250  10.997 -2.2518 -1.3436  0.1744
   10MOL0     H 1371   6.080   3.164  11.135 -2.2334  3.0457  0.5118
   10MOL0     H 1372   6.230   3.034  10.990 -3.2182 -0.2869  1.5597
   10MOL0     H 1373   6.371   3.136  11.019  0.5754 -3.4316 -1.0638
   10MOL0     H 1374   6.294   3.047  11.278 -2.3832 -1.2372 -0.1199
   10MOL0     H 1375   6.427   2.991  11.185  0.6742  2.1184 -5.2503
   10MOL0     H 1376   6.145   2.668  11.159 -1.1439  1.4702  1.3325
   10MOL0     H 1377   6.601   3.386  11.103  2.5129  0.6099 -0.5510
   10MOL0     H 1378   6.737   3.548  11.033  1.5923  1.2263 -0.7268
   10MOL0     H 1379   6.742   3.711  11.088  1.6264 -0.6265 -1.4530
   10MOL0     H 1380   6.838   3.580  11.165 -0.2939  0.4680  0.9505
   11MOL0     O 1381  11.491   1.181   1.844 -0.1756  0.0591 -0.3366
   11MOL0     C 1382  11.471   1.085   1.923 -0.5465  0.6448 -0.2918
   11MOL0     O 1383  11.389   0.983   1.897  0.8479 -1.0121 -0.1332
   11MOL0     C 1384  11.326   0.983   1.776 -0.2778  0.6753  0.2029
   11MOL0     C 1385  11.345   0.864   1.706  0.3795  0.7803 -0.5922
   11MOL0     C 1386  11.272   0.838   1.589 -0.2476 -0.4208  0.2121
   11MOL0     C 1387  11.178   0.936   1.534  0.6301  0.6762  0.2540
   11MOL0     O 1388  11.107   0.906   1.418 -0.6603  0.2635  0.3326
   11MOL0     C 1389  10.973   0.949   1.397 -0.2852 -1.0446 -0.4737
   11MOL0     C 1390  10.936   0.883   1.275  0.3571 -1.2503 -0.0515
   11MOL0     C 1391  10.789   0.871   1.239 -0.0575 -0.2417 -0.4533
   11MOL0     C 1392  10.779   0.791   1.111  0.0084 -0.4528 -0.7719
   11MOL0     C 1393  10.638   0.789   1.050 -0.3600  1.0731 -0.0941
   11MOL0     C 1394  10.616   0.901   0.940  0.0531 -0.4365 -0.0493
   11MOL0     C 1395  10.465   0.938   0.928  0.2861 -0.3975 -0.0808
   11MOL0     C 1396  10.453   1.048   0.821  0.3418  0.8961  0.2415
   11MOL0     N 1397  10.484   1.005   0.692 -0.1278 -0.4968  1.2542
   11MOL0     C 1398  10.409   0.942   0.603  0.6708 -0.0500  0.5785
   11MOL0     C 1399  10.489   0.940   0.484 -0.0961 -0.3822 -0.3423
   11MOL0     C 1400  10.438   0.878   0.360  0.5390 -1.0837  0.9989
   11MOL0     C 1401  10.289   0.900   0.341 -0.8208  0.2465 -0.3228
   11MOL0     C 1402  10.244   0.809   0.223  0.6297  0.0993  0.2046
   11MOL0     C 1403  10.098   0.830   0.187 -0.3747 -0.4461 -0.3697
   11MOL0     O 1404  10.066   0.762   0.068  0.0685  0.0552  0.1334
   11MOL0     C 1405  10.041   0.631   0.079  0.3960 -0.4727 -0.2597
   11MOL0     C 1406  10.125   0.536   0.026  0.7740  0.0003  0.0526
   11MOL0     C 1407  10.095   0.395   0.032  1.1012  0.3884 -0.1564
   11MOL0     C 1408  10.186   0.291  -0.029  0.6247 -0.2029  0.2648
   11MOL0     C 1409   9.975   0.360   0.108 -0.2885 -0.3714 -0.1947
   11MOL0     C 1410   9.929   0.218   0.142 -0.0959 -0.4062  0.9591
   11MOL0     O 1411   9.796   0.200   0.142 -0.1148  0.2086  0.2453
   11MOL0     C 1412   9.755   0.072   0.162  0.1935 -0.7086 -0.1187
   11MOL0     C 1413   9.769  -0.027   0.063  0.3100 -0.3122  0.4493
   11MOL0     C 1414   9.725  -0.167   0.092 -0.2010 -0.4810  1.2992
   11MOL0     C 1415   9.684  -0.193   0.224 -0.0765  0.3179  0.4217
   11MOL0     O 1416   9.627  -0.315   0.265 -1.1057 -0.0948  0.5613
   11MOL0     C 1417   9.518  -0.349   0.177  0.6339  0.6102 -0.0130
   11MOL0     C 1418   9.444  -0.471   0.226 -0.0839  0.1591  0.2447
   11MOL0     C 1419   9.306  -0.481   0.169  0.0999  0.1415 -0.2949
   11MOL0     C 1420   9.203  -0.371   0.207 -0.5916  0.6797 -0.3291
   11MOL0     C 1421   9.079  -0.396   0.132 -0.3389  0.1311 -0.2765
   11MOL0     C 1422   9.060  -0.319  -0.006 -0.4653  0.2116  0.8690
   11MOL0     C 1423   8.909  -0.304  -0.034 -0.9105  0.3486 -1.1310
   11MOL0     C 1424   8.880  -0.246  -0.171 -1.7362 -0.4137  0.4572
   11MOL0    Cl 1425   8.947  -0.345  -0.304 -0.1755 -0.0284 -0.0364
   11MOL0     C 1426   9.689  -0.084   0.319 -1.5729  0.1601 -0.6874
   11MOL0     C 1427   9.718   0.044   0.293  0.4719  0.6724  0.7029
   11MOL0     O 1428  10.010   0.129   0.172  0.4016 -0.2562 -0.2026
   11MOL0     C 1429   9.892   0.460   0.164 -0.5935  0.9051 -0.3053
   11MOL0     C 1430   9.918   0.592   0.148 -0.1393  0.5758 -0.1373
   11MOL0     N 1431  10.600   1.014   0.509  0.1078  0.4690  0.8140
   11MOL0     N 1432  10.604   1.053   0.638 -0.0666 -0.9781  0.8801
   11MOL0     C 1433  11.154   1.046   1.612 -0.2029  0.2815 -0.7744
   11MOL0     C 1434  11.228   1.068   1.728 -0.6166  0.4574  0.3418
   11MOL0     C 1435  11.525   1.084   2.059 -0.3167  0.0564 -0.2103
   11MOL0     C 1436  11.487   0.982   2.151 -0.6890 -0.1520  0.0034
   11MOL0     C 1437  11.521   0.985   2.294  0.2497  0.1061 -0.5844
   11MOL0     C 1438  11.581   1.094   2.348  0.1989 -0.3119  1.0661
   11MOL0     O 1439  11.611   1.078   2.483  0.6748  0.5099  0.6681
   11MOL0     C 1440  11.684   1.188   2.551  0.8320  0.1909 -0.0079
   11MOL0     C 1441  11.736   1.146   2.686 -1.2866 -0.3569  0.0857
   11MOL0     C 1442  11.640   1.079   2.783 -0.3629 -0.7858 -0.4498
   11MOL0     C 1443  11.534   1.174   2.843 -0.4600  0.3774  0.1233
   11MOL0     C 1444  11.434   1.080   2.893  0.1738 -0.9009 -0.0107
   11MOL0     C 1445  11.349   1.010   2.949 -1.2870 -0.1766  0.1418
   11MOL0     C 1446  11.628   1.192   2.258  0.0967 -0.1682  0.8121
   11MOL0     C 1447  11.610   1.185   2.120 -0.2063  0.7391  1.2737
   11MOL0     C 1448  11.685   1.294   2.035  0.2337  0.7996  0.0098
   11MOL0     H 1449  11.407   0.790   1.755 -1.6767  1.7343  3.9266
   11MOL0     H 1450  11.282   0.743   1.537  1.6692  0.6887 -1.5856
   11MOL0     H 1451  10.972   1.056   1.375 -1.3959 -1.2383 -1.4582
   11MOL0     H 1452  10.909   0.915   1.478 -1.1398  1.6452  0.0710
   11MOL0     H 1453  10.981   0.945   1.196  1.5105 -1.8045  0.1668
   11MOL0     H 1454  10.990   0.788   1.272 -0.2575 -1.6339  0.7740
   11MOL0     H 1455  10.746   0.811   1.320 -2.2577 -0.5250 -1.7535
   11MOL0     H 1456  10.737   0.967   1.239 -0.3062 -0.3766 -0.6184
   11MOL0     H 1457  10.848   0.837   1.039  1.6410 -0.4794  0.7039
   11MOL0     H 1458  10.812   0.689   1.133 -0.2416 -0.1472  1.1962
   11MOL0     H 1459  10.572   0.823   1.131 -1.4668  0.8215 -0.8612
   11MOL0     H 1460  10.607   0.696   1.002  0.8773  0.4677  0.2314
   11MOL0     H 1461  10.662   0.995   0.973 -1.6531  0.7985 -1.0299
   11MOL0     H 1462  10.665   0.874   0.845  0.7620  2.9314 -0.7812
   11MOL0     H 1463  10.427   0.980   1.022  1.7533 -1.4653  1.0317
   11MOL0     H 1464  10.409   0.845   0.912  1.9048 -1.6778  1.3163
   11MOL0     H 1465  10.355   1.095   0.819 -1.0075 -1.7416  0.0396
   11MOL0     H 1466  10.513   1.133   0.854  2.9695  0.2157 -2.3486
   11MOL0     H 1467  10.309   0.905   0.625  1.2801 -0.1497  3.6333
   11MOL0     H 1468  10.457   0.771   0.373 -2.5056 -2.0519 -1.3631
   11MOL0     H 1469  10.491   0.922   0.275  2.1911 -0.7343  2.1575
   11MOL0     H 1470  10.237   0.870   0.433 -1.8735  0.6270 -0.7782
   11MOL0     H 1471  10.261   1.001   0.311  0.1469  0.7106  0.2819
   11MOL0     H 1472  10.309   0.831   0.138 -0.5977 -1.2892 -1.1668
   11MOL0     H 1473  10.252   0.707   0.261 -0.1184  0.2733  0.8650
   11MOL0     H 1474  10.046   0.795   0.277  4.6400 -1.8315  2.3545
   11MOL0     H 1475  10.076   0.937   0.172 -0.7010 -0.4602  0.0025
   11MOL0     H 1476  10.217   0.575  -0.016 -1.1042  1.6785 -2.7962
   11MOL0     H 1477  10.226   0.332  -0.122  1.1922  2.5950  1.6496
   11MOL0     H 1478  10.117   0.210  -0.054 -1.2937  1.7216 -1.0631
   11MOL0     H 1479  10.261   0.253   0.041 -1.3726  0.7761  3.1207
   11MOL0     H 1480   9.800   0.004  -0.036 -3.3580  0.0655 -0.7313
   11MOL0     H 1481   9.744  -0.246   0.021  2.7930 -0.7575  2.2613
   11MOL0     H 1482   9.463  -0.255   0.167 -0.5086 -0.0976 -0.6020
   11MOL0     H 1483   9.552  -0.380   0.078 -2.1034 -0.4538 -0.7131
   11MOL0     H 1484   9.489  -0.570   0.215 -0.8546 -0.6441  3.2806
   11MOL0     H 1485   9.425  -0.471   0.334 -3.0543 -0.2673 -0.1990
   11MOL0     H 1486   9.267  -0.577   0.203 -3.1310  1.2316 -0.4904
   11MOL0     H 1487   9.311  -0.478   0.060  1.3628  0.6504 -0.2334
   11MOL0     H 1488   9.230  -0.268   0.181 -2.7522  1.6389  0.8907
   11MOL0     H 1489   9.188  -0.391   0.314 -2.0481 -0.3442 -0.6946
   11MOL0     H 1490   9.048  -0.500   0.119  1.3356 -0.6042  1.2622
   11MOL0     H 1491   9.005  -0.361   0.204  0.4599 -0.3646  0.8104
   11MOL0     H 1492   9.107  -0.379  -0.085  1.5330  0.2286  1.9903
   11MOL0     H 1493   9.112  -0.223  -0.006  1.9005 -0.9264 -1.4871
   11MOL0     H 1494   8.869  -0.233   0.039 -1.2574  2.3234 -3.1381
   11MOL0     H 1495   8.857  -0.400  -0.023  0.2283 -0.3116 -1.3687
   11MOL0     H 1496   8.937  -0.153  -0.177  0.0180 -1.5228 -1.4966
   11MOL0     H 1497   8.773  -0.229  -0.185 -1.2638  1.6303 -1.1639
   11MOL0     H 1498   9.662  -0.109   0.421 -1.8952  0.2720 -0.7428
   11MOL0     H 1499   9.706   0.110   0.378  2.5550  1.8448  0.1614
   11MOL0     H 1500   9.793   0.433   0.198  0.2365 -1.4330  0.4405
   11MOL0     H 1501   9.862   0.676   0.189 -0.4895  1.2513 -1.9248
   11MOL0     H 1502  11.085   1.122   1.576  0.0994 -0.2550 -2.5866
   11MOL0     H 1503  11.199   1.149   1.793 -1.2043 -0.1866  0.8972
   11MOL0     H 1504  11.432   0.895   2.118 -1.1213  0.2865 -0.4485
   11MOL0     H 1505  11.498   0.914   2.372  0.5948  1.0574  0.4190
   11MOL0     H 1506  11.766   1.229   2.491  1.5972 -2.3850 -0.8779
   11MOL0     H 1507  11.602   1.256   2.575 -0.0181  0.1384 -2.4927
   11MOL0     H 1508  11.790   1.228   2.735 -2.8758  0.6366  0.2487
   11MOL0     H 1509  11.809   1.067   2.668  1.1314  1.2846  1.9783
   11MOL0     H 1510  11.595   1.000   2.722 -2.7910  0.6009 -0.5777
   11MOL0     H 1511  11.699   1.033   2.863 -0.3692 -2.7921 -1.5347
   11MOL0     H 1512  11.481   1.236   2.771  0.9758  0.9386 -0.4863
   11MOL0     H 1513  11.587   1.230   2.921  0.4409  1.9346 -1.5247
   11MOL0     H 1514  11.283   0.940   2.997 -2.4666 -1.1598 -2.6759
   11MOL0     H 1515  11.669   1.286   2.290 -1.2312  0.4203  0.8703
   11MOL0     H 1516  11.791   1.275   2.017 -0.1796 -0.7343 -1.0314
   11MOL0     H 1517  11.654   1.327   1.935 -0.7054  0.8736  0.3068
   11MOL0     H 1518  11.669   1.389   2.087 -3.1757  0.6024 -0.3995
   12MOL0     O 1519   0.513   1.149   2.996 -0.2142  0.1262 -0.3115
   12MOL0     C 1520   0.635   1.126   2.974  0.9339 -1.0203  1.0609
   12MOL0     O 1521   0.704   1.172   2.863 -0.3041 -0.4301  0.6706
   12MOL0     C 1522   0.619   1.240   2.769  0.9420 -0.9462  1.1461
   12MOL0     C 1523   0.524   1.171   2.691  0.7930 -0.0630  1.1446
   12MOL0     C 1524   0.440   1.237   2.601  0.0572  0.9127  0.4384
   12MOL0     C 1525   0.437   1.373   2.610  0.0070  1.1009 -0.1657
   12MOL0     O 1526   0.335   1.438   2.539  0.7084  0.1299  0.2058
   12MOL0     C 1527   0.349   1.439   2.399 -0.4922  0.2836  0.6304
   12MOL0     C 1528   0.447   1.541   2.339  1.0996  0.3362  0.2716
   12MOL0     C 1529   0.456   1.522   2.188 -0.1579  0.3116  0.4181
   12MOL0     C 1530   0.466   1.646   2.101 -0.1087  0.0511 -0.2599
   12MOL0     C 1531   0.480   1.607   1.957  0.5414  0.4879 -0.3471
   12MOL0     C 1532   0.546   1.720   1.883 -0.7003 -0.2370 -0.6724
   12MOL0     C 1533   0.455   1.843   1.871 -0.1132 -0.4871 -0.0539
   12MOL0     C 1534   0.489   1.943   1.759  0.4756  0.4953 -0.1432
   12MOL0     N 1535   0.592   2.032   1.808 -0.1767 -0.0407  0.6496
   12MOL0     C 1536   0.568   2.137   1.891 -0.4999 -0.6682 -0.0045
   12MOL0     C 1537   0.692   2.192   1.910  0.2158 -0.7053  1.0053
   12MOL0     C 1538   0.712   2.314   1.991  0.3868  0.1196 -0.7920
   12MOL0     C 1539   0.629   2.428   1.944 -0.2358  0.5328  0.4221
   12MOL0     C 1540   0.658   2.477   1.798 -0.3227 -0.2171  0.1992
   12MOL0     C 1541   0.543   2.559   1.731  0.2732 -0.1574 -0.4569
   12MOL0     O 1542   0.456   2.463   1.670 -0.4026 -0.5178  0.2400
   12MOL0     C 1543   0.382   2.484   1.550 -0.0509  0.0934 -0.1360
   12MOL0     C 1544   0.335   2.368   1.487  0.2833 -0.1895 -0.6795
   12MOL0     C 1545   0.257   2.375   1.377 -0.1373  0.6257 -0.4831
   12MOL0     C 1546   0.208   2.239   1.312  0.5315  0.6894 -0.2981
   12MOL0     C 1547   0.223   2.511   1.321  0.2113 -0.1882 -0.0393
   12MOL0     C 1548   0.139   2.527   1.194  0.1428  0.3084  0.2148
   12MOL0     O 1549   0.071   2.640   1.179  0.1405 -0.2708  0.3939
   12MOL0     C 1550   0.002   2.661   1.061  0.4660 -0.8637 -0.6697
   12MOL0     C 1551  -0.128   2.709   1.073 -0.1976  0.4749 -0.5126
   12MOL0     C 1552  -0.194   2.744   0.957  0.0564 -0.1753 -0.6421
   12MOL0     C 1553  -0.136   2.725   0.828  0.3254  0.0624 -0.1302
   12MOL0     O 1554  -0.190   2.765   0.709  0.6374  0.6914 -0.0702
   12MOL0     C 1555  -0.315   2.860   0.700 -0.5906 -0.3705 -0.0929
   12MOL0     C 1556  -0.376   2.866   0.562  0.0271 -0.3074 -0.4117
   12MOL0     C 1557  -0.451   3.001   0.535  0.2481  1.1325  0.3687
   12MOL0     C 1558  -0.449   3.009   0.384  0.4501 -0.1119  0.0175
   12MOL0     C 1559  -0.539   3.116   0.317 -0.5246  0.6730  0.0617
   12MOL0     C 1560  -0.682   3.085   0.341  0.9485 -0.4144  0.1970
   12MOL0     C 1561  -0.792   3.170   0.272 -1.4181  1.3039 -0.8312
   12MOL0     C 1562  -0.755   3.318   0.266 -0.3845  0.0262  0.7380
   12MOL0    Cl 1563  -0.770   3.391   0.431  0.3027  0.7485 -0.2973
   12MOL0     C 1564  -0.016   2.663   0.812 -0.3986  0.0351 -0.5979
   12MOL0     C 1565   0.052   2.644   0.932 -0.1651  0.3553 -0.6212
   12MOL0     O 1566   0.130   2.433   1.122 -0.1110 -0.5450  0.1170
   12MOL0     C 1567   0.269   2.624   1.389  0.7207  0.8634  0.7869
   12MOL0     C 1568   0.350   2.609   1.499 -0.5950  0.3137 -0.2829
   12MOL0     N 1569   0.781   2.125   1.826 -0.5432  0.4135  0.0058
   12MOL0     N 1570   0.727   2.022   1.781  0.4277 -0.1029  0.2377
   12MOL0     C 1571   0.519   1.446   2.692 -0.5013  0.3807 -0.2476
   12MOL0     C 1572   0.616   1.380   2.768  0.3350  0.4633 -0.0193
   12MOL0     C 1573   0.714   1.087   3.095  0.0607  0.2473  0.9782
   12MOL0     C 1574   0.707   1.152   3.217 -0.2520 -0.1655 -0.7538
   12MOL0     C 1575   0.806   1.130   3.316  1.3304  0.1498  0.1080
   12MOL0     C 1576   0.901   1.030   3.302 -0.0093 -0.9051  0.5260
   12MOL0     O 1577   0.994   0.999   3.403  0.1206 -0.0235 -0.0795
   12MOL0     C 1578   1.036   1.107   3.502 -0.7679  0.4676  0.2106
   12MOL0     C 1579   1.150   1.054   3.588 -0.0073 -0.2870  0.3585
   12MOL0     C 1580   1.251   1.167   3.626 -0.5194  0.9793  0.3019
   12MOL0     C 1581   1.383   1.146   3.547 -0.2455  0.1917 -0.5011
   12MOL0     C 1582   1.371   1.163   3.401  0.2751 -0.3525 -0.4617
   12MOL0     C 1583   1.358   1.158   3.279 -0.0863  0.2690  0.9496
   12MOL0     C 1584   0.903   0.967   3.179  0.3953  0.3064  1.1364
   12MOL0     C 1585   0.816   0.986   3.078 -0.1364 -0.6283  0.5933
   12MOL0     C 1586   0.841   0.928   2.945  0.7639 -0.0477  0.5017
   12MOL0     H 1587   0.522   1.062   2.691 -2.0066 -0.1517 -2.1960
   12MOL0     H 1588   0.355   1.196   2.546 -0.9567  1.8765  1.2308
   12MOL0     H 1589   0.264   1.452   2.333  0.1782  1.6066 -0.0054
   12MOL0     H 1590   0.395   1.343   2.374 -0.1009  0.8300 -0.8311
   12MOL0     H 1591   0.402   1.640   2.355 -2.9494 -1.2965  0.0766
   12MOL0     H 1592   0.547   1.539   2.383 -0.3693  1.0626  4.0118
   12MOL0     H 1593   0.553   1.478   2.165 -0.7348  0.8176 -3.9562
   12MOL0     H 1594   0.381   1.459   2.139 -1.9006  1.9055  0.9177
   12MOL0     H 1595   0.373   1.703   2.109  1.4748  2.6929  0.5659
   12MOL0     H 1596   0.555   1.698   2.137 -1.1537  0.7910  1.3726
   12MOL0     H 1597   0.389   1.573   1.905  1.3734  2.0291 -3.0092
   12MOL0     H 1598   0.545   1.520   1.963 -0.9115 -0.5580  3.0587
   12MOL0     H 1599   0.639   1.738   1.937 -1.2313 -3.9303  1.8199
   12MOL0     H 1600   0.562   1.683   1.781  0.3515 -0.4184 -0.4473
   12MOL0     H 1601   0.450   1.907   1.960  0.7908  2.7415 -2.1495
   12MOL0     H 1602   0.356   1.802   1.850  0.0602 -0.0490 -1.9018
   12MOL0     H 1603   0.531   1.904   1.667  2.2808  0.3722  0.6955
   12MOL0     H 1604   0.404   2.010   1.738 -0.1404 -0.4812 -0.8320
   12MOL0     H 1605   0.473   2.161   1.937  0.0498  2.1663 -0.2030
   12MOL0     H 1606   0.820   2.331   1.984  0.4906 -0.0136  0.3795
   12MOL0     H 1607   0.697   2.292   2.097 -0.5165 -1.3902 -1.1840
   12MOL0     H 1608   0.523   2.402   1.940  0.2078 -1.3091 -0.8187
   12MOL0     H 1609   0.639   2.505   2.021 -1.1038 -2.1503  3.4001
   12MOL0     H 1610   0.747   2.540   1.793 -2.6170  3.2302 -1.2183
   12MOL0     H 1611   0.680   2.391   1.733  0.2450  1.2663 -1.6680
   12MOL0     H 1612   0.487   2.626   1.796  0.1382  1.3982 -2.0872
   12MOL0     H 1613   0.582   2.617   1.647  1.3289 -2.2807 -1.5023
   12MOL0     H 1614   0.366   2.272   1.528  0.8414 -0.5511 -1.8990
   12MOL0     H 1615   0.102   2.236   1.339  0.6206  0.2420  0.0074
   12MOL0     H 1616   0.258   2.152   1.354  1.0016  0.5359 -1.1526
   12MOL0     H 1617   0.225   2.238   1.204  0.3660  1.3406 -0.3391
   12MOL0     H 1618  -0.160   2.718   1.177  1.5821  0.1361  0.1087
   12MOL0     H 1619  -0.276   2.816   0.961  1.8149  2.0444 -1.8375
   12MOL0     H 1620  -0.391   2.840   0.776 -1.5354 -0.8092 -1.1124
   12MOL0     H 1621  -0.281   2.962   0.719 -1.1275 -0.0316 -0.8739
   12MOL0     H 1622  -0.287   2.841   0.503 -0.5685 -3.2202 -0.2144
   12MOL0     H 1623  -0.448   2.785   0.548 -0.5870  0.5560 -2.6559
   12MOL0     H 1624  -0.399   3.088   0.575 -0.4780  0.8148  2.0971
   12MOL0     H 1625  -0.551   3.000   0.580 -0.8545 -0.1900 -1.9079
   12MOL0     H 1626  -0.488   2.914   0.345 -1.3410  0.0284  1.3256
   12MOL0     H 1627  -0.346   3.012   0.348  2.0444 -4.0020  3.4672
   12MOL0     H 1628  -0.501   3.208   0.363  2.4614  1.0690 -2.7763
   12MOL0     H 1629  -0.528   3.120   0.208 -2.7875  0.2742 -0.2215
   12MOL0     H 1630  -0.692   3.090   0.450  0.1697 -1.4482  0.1876
   12MOL0     H 1631  -0.704   2.982   0.310 -0.3959  0.4705 -1.9857
   12MOL0     H 1632  -0.885   3.167   0.329 -0.1019  0.8851  1.4051
   12MOL0     H 1633  -0.808   3.134   0.170  1.8373  0.6593 -1.2250
   12MOL0     H 1634  -0.823   3.361   0.192  2.2244  1.2794 -1.0897
   12MOL0     H 1635  -0.658   3.336   0.218 -1.1266  0.7562 -0.5865
   12MOL0     H 1636   0.023   2.643   0.713 -2.4073  0.6233 -1.5651
   12MOL0     H 1637   0.154   2.610   0.925  0.3860  1.6261  0.6139
   12MOL0     H 1638   0.244   2.721   1.347 -1.8186 -0.2891 -0.5842
   12MOL0     H 1639   0.399   2.693   1.546  0.3041 -0.5674  0.3812
   12MOL0     H 1640   0.503   1.553   2.697  2.0075  0.8633 -1.3228
   12MOL0     H 1641   0.687   1.437   2.827 -0.7680 -0.4459  2.3243
   12MOL0     H 1642   0.630   1.222   3.246  0.9350  0.4137  1.2311
   12MOL0     H 1643   0.797   1.182   3.410 -2.4761 -1.1745  0.6293
   12MOL0     H 1644   1.066   1.192   3.441  1.0782 -0.2676  0.0313
   12MOL0     H 1645   0.969   1.141   3.582  1.6361  2.8647  1.3564
   12MOL0     H 1646   1.198   0.979   3.523 -2.6391 -1.3110 -0.5301
   12MOL0     H 1647   1.114   1.009   3.680  3.9586 -3.4704  0.6209
   12MOL0     H 1648   1.217   1.270   3.609  2.3732  2.2091  1.3220
   12MOL0     H 1649   1.277   1.156   3.732 -1.5732 -0.5450  0.4270
   12MOL0     H 1650   1.420   1.046   3.569 -0.4806 -0.5500 -3.2145
   12MOL0     H 1651   1.457   1.222   3.573 -0.8964  0.1739  1.6326
   12MOL0     H 1652   1.330   1.154   3.176  2.3732 -1.9397  0.2386
   12MOL0     H 1653   0.981   0.892   3.170  1.5842  1.2980  2.6228
   12MOL0     H 1654   0.882   0.827   2.953 -0.9231 -1.0117 -1.8142
   12MOL0     H 1655   0.753   0.923   2.879  0.3323  1.3659  0.9505
   12MOL0     H 1656   0.913   0.996   2.899 -0.0207  0.9726  0.7535
   13MOL0     O 1657   8.698   8.100   1.346 -0.1083 -0.3198  0.3222
   13MOL0     C 1658   8.711   8.117   1.465 -0.0935 -0.1559 -1.2697
   13MOL0     O 1659   8.785   8.036   1.546 -0.1507  0.5423 -0.1801
   13MOL0     C 1660   8.879   7.959   1.479 -0.8842  0.7575 -1.0894
   13MOL0     C 1661   8.896   7.823   1.495  1.0011  0.0229 -0.2703
   13MOL0     C 1662   9.012   7.760   1.441  0.3985  0.4531 -0.2506
   13MOL0     C 1663   9.107   7.829   1.362 -0.9055 -0.4503 -0.3621
   13MOL0     O 1664   9.227   7.760   1.326 -0.3329 -0.4147 -0.7476
   13MOL0     C 1665   9.294   7.784   1.205  0.8241  0.3186  0.3378
   13MOL0     C 1666   9.424   7.712   1.160  0.4724  0.0329 -0.8449
   13MOL0     C 1667   9.494   7.755   1.030  1.7477  0.4144  0.5072
   13MOL0     C 1668   9.409   7.724   0.904  0.6039 -0.3950 -0.4032
   13MOL0     C 1669   9.484   7.783   0.786  0.1663 -0.2564 -1.0372
   13MOL0     C 1670   9.385   7.789   0.663  0.6759 -0.2320  0.2976
   13MOL0     C 1671   9.446   7.874   0.552  0.5293  0.3960  0.3998
   13MOL0     C 1672   9.335   7.941   0.468 -0.2128  0.2615  0.3314
   13MOL0     N 1673   9.389   8.014   0.348  0.4730  0.3406 -0.5635
   13MOL0     C 1674   9.378   8.153   0.336  0.3128 -0.1200 -0.2919
   13MOL0     C 1675   9.427   8.182   0.210 -0.2355  0.1913 -0.7782
   13MOL0     C 1676   9.424   8.310   0.135  0.2672  0.2710 -1.5228
   13MOL0     C 1677   9.512   8.321   0.018  0.4673 -0.0531 -0.7652
   13MOL0     C 1678   9.498   8.446  -0.073  0.2024  0.5566  0.3292
   13MOL0     C 1679   9.509   8.584  -0.007 -0.6611  0.8479  0.3070
   13MOL0     O 1680   9.600   8.670  -0.073 -0.2114 -0.2890  0.3457
   13MOL0     C 1681   9.737   8.655  -0.048 -0.3382 -0.1138  0.1386
   13MOL0     C 1682   9.813   8.547   0.006 -0.3195 -0.4597 -0.6144
   13MOL0     C 1683   9.950   8.558   0.029 -0.0608  0.0341  0.1201
   13MOL0     C 1684  10.003   8.434   0.091  0.0071  1.3727 -0.1788
   13MOL0     C 1685  10.022   8.668  -0.021  0.4220 -1.1738  0.1076
   13MOL0     C 1686  10.174   8.686  -0.009  1.1426  0.1375  0.2768
   13MOL0     O 1687  10.249   8.583   0.011  0.0461  0.1808  0.0801
   13MOL0     C 1688  10.384   8.591   0.043  0.1008 -0.1666 -0.3975
   13MOL0     C 1689  10.476   8.555  -0.062 -0.1171 -0.1877  0.2348
   13MOL0     C 1690  10.619   8.540  -0.032  0.3551  0.4162  1.1899
   13MOL0     C 1691  10.662   8.565   0.099  0.0210 -1.1586  0.0988
   13MOL0     O 1692  10.796   8.573   0.133  0.3219 -0.4881  0.2275
   13MOL0     C 1693  10.889   8.466   0.100  0.5319  0.1440 -0.0783
   13MOL0     C 1694  10.852   8.337   0.175 -1.1597  0.0038  0.9639
   13MOL0     C 1695  10.868   8.349   0.341 -0.2027 -0.4438  0.4557
   13MOL0     C 1696  10.906   8.209   0.405  0.8285  0.0940  0.0630
   13MOL0     C 1697  11.059   8.201   0.447  0.2207 -1.5964  0.1741
   13MOL0     C 1698  11.160   8.208   0.327  0.3838  0.4147 -0.8673
   13MOL0     C 1699  11.293   8.281   0.356 -0.0770 -0.5935 -0.0968
   13MOL0     C 1700  11.366   8.314   0.227 -0.6221 -0.1272 -0.0633
   13MOL0    Cl 1701  11.380   8.182   0.111  0.0159 -0.4814 -0.1329
   13MOL0     C 1702  10.572   8.617   0.200  0.2748  0.9718  0.2904
   13MOL0     C 1703  10.435   8.632   0.168 -1.0213 -0.8918 -0.0647
   13MOL0     O 1704  10.217   8.800  -0.003  0.2156 -0.1241 -0.2158
   13MOL0     C 1705   9.951   8.781  -0.077 -0.8240 -0.0499  0.9106
   13MOL0     C 1706   9.814   8.760  -0.104  0.6273 -0.5235  0.2542
   13MOL0     N 1707   9.473   8.061   0.162  0.1518  0.3613 -0.0260
   13MOL0     N 1708   9.445   7.959   0.241 -0.2547 -0.3436 -1.0029
   13MOL0     C 1709   9.089   7.968   1.343 -0.3903  0.1631 -0.5529
   13MOL0     C 1710   8.976   8.034   1.396  0.1786  0.2155 -0.2951
   13MOL0     C 1711   8.629   8.225   1.521  0.0428 -0.0501  0.3788
   13MOL0     C 1712   8.626   8.345   1.457  0.7667 -0.5329 -0.2593
   13MOL0     C 1713   8.559   8.457   1.513  0.6053 -0.8912 -1.0500
   13MOL0     C 1714   8.483   8.447   1.628  0.3639  0.8348  0.2589
   13MOL0     O 1715   8.399   8.543   1.686 -0.6103  0.4001 -0.2220
   13MOL0     C 1716   8.381   8.669   1.631 -0.1684  0.1956  0.1588
   13MOL0     C 1717   8.253   8.715   1.710 -0.4000 -0.8548  0.3923
   13MOL0     C 1718   8.224   8.865   1.676  0.0554 -0.6109  0.1478
   13MOL0     C 1719   8.092   8.883   1.746  0.7632 -0.4948 -0.5875
   13MOL0     C 1720   8.050   9.016   1.751  0.7938  0.4053 -0.4770
   13MOL0     C 1721   8.001   9.127   1.747 -0.2477 -0.1309  0.4737
   13MOL0     C 1722   8.499   8.328   1.698  0.4674 -0.3507 -0.1757
   13MOL0     C 1723   8.563   8.216   1.650 -1.3754  0.4032  0.3248
   13MOL0     C 1724   8.553   8.097   1.749 -0.3596 -0.6289 -0.5267
   13MOL0     H 1725   8.839   7.769   1.570  0.5457  1.5104  0.5082
   13MOL0     H 1726   9.035   7.656   1.459  4.1475  1.3302  0.9353
   13MOL0     H 1727   9.324   7.889   1.217  1.0421 -0.0700  4.1424
   13MOL0     H 1728   9.215   7.775   1.130 -0.6544 -4.2827  2.0907
   13MOL0     H 1729   9.497   7.708   1.241 -0.5191  0.3385  0.0888
   13MOL0     H 1730   9.407   7.604   1.150 -0.6542  0.3836 -5.5448
   13MOL0     H 1731   9.524   7.860   1.024  0.0046  0.8717 -2.8153
   13MOL0     H 1732   9.583   7.692   1.027  1.7815  0.4280  1.1392
   13MOL0     H 1733   9.386   7.618   0.891  0.6077 -0.5572  0.7670
   13MOL0     H 1734   9.314   7.776   0.916  1.7309  1.3709  1.6883
   13MOL0     H 1735   9.556   7.714   0.740 -0.1946 -0.8380 -0.7476
   13MOL0     H 1736   9.526   7.882   0.802  0.7382 -0.6402 -0.1026
   13MOL0     H 1737   9.361   7.692   0.618  2.7314 -0.7574  0.2065
   13MOL0     H 1738   9.293   7.845   0.683  2.3955  2.1311  2.1427
   13MOL0     H 1739   9.503   7.802   0.492 -1.7327 -2.4287  1.3962
   13MOL0     H 1740   9.512   7.953   0.589  3.3617 -0.1109 -3.0239
   13MOL0     H 1741   9.269   7.864   0.429  0.5542 -0.3106  0.1529
   13MOL0     H 1742   9.275   8.021   0.512  1.0745  2.5422 -1.8019
   13MOL0     H 1743   9.331   8.231   0.396 -0.7668  0.8585 -2.2913
   13MOL0     H 1744   9.451   8.386   0.209  1.2046 -2.0935  0.7047
   13MOL0     H 1745   9.320   8.321   0.102  0.1362  1.7812 -0.6783
   13MOL0     H 1746   9.613   8.294   0.052 -0.2576 -2.0237 -0.0441
   13MOL0     H 1747   9.490   8.235  -0.046  3.0064 -1.9918  0.7714
   13MOL0     H 1748   9.571   8.441  -0.155 -0.3773 -2.4400 -0.1044
   13MOL0     H 1749   9.401   8.439  -0.122  1.2591  0.9863 -1.9900
   13MOL0     H 1750   9.409   8.626  -0.017 -0.8888  0.5138  1.0692
   13MOL0     H 1751   9.539   8.576   0.098  0.3323 -3.2792 -0.1306
   13MOL0     H 1752   9.760   8.463   0.048  0.9904 -2.1543 -2.1786
   13MOL0     H 1753  10.079   8.441   0.169  2.0794 -1.1620 -1.7913
   13MOL0     H 1754  10.033   8.367   0.010 -2.9911 -1.3077  0.7498
   13MOL0     H 1755   9.925   8.393   0.155  0.7594  1.8174  1.0744
   13MOL0     H 1756  10.436   8.525  -0.158  3.0136  0.3001 -1.3218
   13MOL0     H 1757  10.669   8.516  -0.126  1.2601  0.0751  1.7506
   13MOL0     H 1758  10.904   8.458  -0.008  3.4245  2.4617  0.0346
   13MOL0     H 1759  10.988   8.498   0.133  0.7304 -1.1323  0.6407
   13MOL0     H 1760  10.747   8.313   0.154 -2.1286  4.6352 -0.9047
   13MOL0     H 1761  10.917   8.259   0.134 -2.0558 -1.0838  1.5648
   13MOL0     H 1762  10.780   8.387   0.394  2.2046  2.1400  2.9661
   13MOL0     H 1763  10.949   8.414   0.375  1.1958 -1.9712  0.1781
   13MOL0     H 1764  10.876   8.125   0.342  1.1935 -0.2712  0.3720
   13MOL0     H 1765  10.858   8.187   0.501 -2.2157  1.3542 -1.0354
   13MOL0     H 1766  11.079   8.286   0.513  0.4511 -1.0793 -0.5420
   13MOL0     H 1767  11.073   8.106   0.499  0.8348 -0.2001  2.7300
   13MOL0     H 1768  11.099   8.262   0.254 -0.1607  2.5088  1.0441
   13MOL0     H 1769  11.191   8.112   0.284  3.6989  0.9199  0.0953
   13MOL0     H 1770  11.358   8.218   0.418  1.5405  2.4586  1.5345
   13MOL0     H 1771  11.263   8.373   0.406 -1.1740  0.5475 -2.7020
   13MOL0     H 1772  11.470   8.336   0.253 -0.7092 -0.4762  0.6025
   13MOL0     H 1773  11.324   8.403   0.178  1.2503  0.2407 -1.0780
   13MOL0     H 1774  10.608   8.657   0.294  1.3364  1.1365 -0.1599
   13MOL0     H 1775  10.381   8.662   0.258 -0.2781 -0.8723  0.3838
   13MOL0     H 1776  10.000   8.872  -0.111 -1.4956 -0.7195 -2.1361
   13MOL0     H 1777   9.758   8.848  -0.135  0.4699 -1.0034 -0.8698
   13MOL0     H 1778   9.165   8.029   1.296 -3.9667  4.2253 -1.7594
   13MOL0     H 1779   8.980   8.142   1.397 -4.0696  0.5395  0.0344
   13MOL0     H 1780   8.681   8.353   1.364  0.8233  1.6891 -0.0936
   13MOL0     H 1781   8.544   8.550   1.459 -1.6445  0.7002  2.0327
   13MOL0     H 1782   8.469   8.733   1.647 -2.4356  3.4378  0.6971
   13MOL0     H 1783   8.370   8.669   1.522  0.8416  3.2101 -0.0341
   13MOL0     H 1784   8.278   8.717   1.816 -1.3100  1.8675  0.6243
   13MOL0     H 1785   8.158   8.667   1.685 -1.4183  2.5679 -3.4425
   13MOL0     H 1786   8.303   8.929   1.715 -0.6920  0.7792 -0.5278
   13MOL0     H 1787   8.210   8.884   1.570  1.6445 -1.8806 -0.3250
   13MOL0     H 1788   8.094   8.847   1.849 -3.5954 -1.8952 -0.8153
   13MOL0     H 1789   8.015   8.821   1.700 -3.6991  2.8822  1.6641
   13MOL0     H 1790   7.950   9.220   1.731  1.7363  0.9853  0.3485
   13MOL0     H 1791   8.440   8.334   1.789 -1.2604 -1.0485 -1.2178
   13MOL0     H 1792   8.462   8.097   1.809 -0.6381  0.4998 -0.9313
   13MOL0     H 1793   8.569   7.995   1.714 -3.5715 -2.1556  1.9369
   13MOL0     H 1794   8.633   8.092   1.823 -0.2611 -3.6839 -0.7188
   14MOL0     O 1795   4.406   5.718   7.696  0.4718 -0.1831  0.4271
   14MOL0     C 1796   4.497   5.755   7.765 -0.6546  0.5547  0.5629
   14MOL0     O 1797   4.592   5.844   7.731  1.1445 -0.5601  0.0090
   14MOL0     C 1798   4.553   5.961   7.655 -0.2983  1.0104  0.3468
   14MOL0     C 1799   4.656   6.041   7.605 -0.0443  0.1775 -0.0420
   14MOL0     C 1800   4.629   6.164   7.533  0.0813  0.3624 -0.3486
   14MOL0     C 1801   4.499   6.194   7.497  0.0948 -0.4759 -0.5705
   14MOL0     O 1802   4.499   6.295   7.404 -0.0833  0.4279  0.3042
   14MOL0     C 1803   4.384   6.291   7.320  0.4063 -0.7722  0.1546
   14MOL0     C 1804   4.412   6.381   7.201  0.2443  0.0404 -0.3431
   14MOL0     C 1805   4.440   6.538   7.210 -0.2041  0.6286 -0.9405
   14MOL0     C 1806   4.335   6.625   7.137  0.2979 -0.9934  0.5960
   14MOL0     C 1807   4.370   6.771   7.141  0.0610 -0.1348  0.4280
   14MOL0     C 1808   4.450   6.813   7.012  0.0850 -0.5042  0.0291
   14MOL0     C 1809   4.485   6.957   7.011 -0.3782 -0.2573  0.1124
   14MOL0     C 1810   4.570   6.971   6.883  0.1394 -1.0742 -0.1689
   14MOL0     N 1811   4.707   7.007   6.927 -0.2099  0.0430  0.3472
   14MOL0     C 1812   4.727   7.122   6.994 -0.6284 -0.3294  0.4376
   14MOL0     C 1813   4.860   7.121   7.020 -0.4892 -0.6970 -0.0025
   14MOL0     C 1814   4.917   7.251   7.068  0.8770  0.4162  0.2114
   14MOL0     C 1815   5.053   7.223   7.124  0.4116 -0.0595  0.4268
   14MOL0     C 1816   5.116   7.330   7.208 -0.6535  0.3846 -0.1025
   14MOL0     C 1817   5.250   7.288   7.265  0.3132 -0.8108 -0.6594
   14MOL0     O 1818   5.295   7.421   7.310 -0.4680 -0.0817 -0.0685
   14MOL0     C 1819   5.302   7.459   7.445  0.8042  0.6975  0.1742
   14MOL0     C 1820   5.299   7.377   7.569 -0.1073 -0.6946  1.1412
   14MOL0     C 1821   5.322   7.434   7.691  0.7591  0.9545  0.2289
   14MOL0     C 1822   5.350   7.336   7.807  0.4641 -0.1119 -0.8609
   14MOL0     C 1823   5.342   7.574   7.696 -0.9468  0.7134  0.1269
   14MOL0     C 1824   5.375   7.640   7.823  0.6432 -0.1562 -0.1963
   14MOL0     O 1825   5.343   7.776   7.823 -0.0352  0.2246  0.8660
   14MOL0     C 1826   5.350   7.858   7.933  0.0215  0.5887 -0.1092
   14MOL0     C 1827   5.409   7.987   7.927 -0.0129  1.2141 -0.6184
   14MOL0     C 1828   5.428   8.064   8.052 -0.8464 -0.5853 -0.7292
   14MOL0     C 1829   5.387   8.019   8.178  0.8424  0.2840  0.7213
   14MOL0     O 1830   5.402   8.102   8.280  0.3085  0.9534 -0.0023
   14MOL0     C 1831   5.378   8.049   8.411 -0.1053  0.5968 -0.2859
   14MOL0     C 1832   5.393   8.144   8.523 -0.1041  0.5760  0.5275
   14MOL0     C 1833   5.526   8.219   8.516  0.2699  1.2987  0.1392
   14MOL0     C 1834   5.662   8.129   8.530  0.3801  0.1280  0.1033
   14MOL0     C 1835   5.762   8.159   8.421  0.1318 -0.8435  0.5676
   14MOL0     C 1836   5.817   8.306   8.420  0.8268  0.7162  0.2267
   14MOL0     C 1837   5.904   8.331   8.300 -0.1618 -0.2115  1.2906
   14MOL0     C 1838   5.960   8.478   8.300 -1.3333 -0.0217 -0.4498
   14MOL0    Cl 1839   6.093   8.496   8.431  0.0710 -0.2434 -0.1000
   14MOL0     C 1840   5.331   7.883   8.178  0.8611 -0.4931  0.0591
   14MOL0     C 1841   5.312   7.807   8.059  0.3450  0.1756 -0.4487
   14MOL0     O 1842   5.438   7.577   7.909 -0.2917 -0.3139  0.4776
   14MOL0     C 1843   5.343   7.658   7.584 -0.0729 -0.0634  0.1492
   14MOL0     C 1844   5.319   7.595   7.463  0.0482  0.3648 -0.4669
   14MOL0     N 1845   4.923   7.013   6.953  0.5093 -0.0357 -0.0207
   14MOL0     N 1846   4.826   6.942   6.901 -0.3739  0.5356  0.3213
   14MOL0     C 1847   4.397   6.115   7.560  0.6369  0.0152 -0.3253
   14MOL0     C 1848   4.421   6.010   7.636 -0.9377  0.1430 -0.6072
   14MOL0     C 1849   4.525   5.662   7.875  0.6423 -0.6122 -0.0386
   14MOL0     C 1850   4.660   5.646   7.898 -0.3019 -0.0779  0.1435
   14MOL0     C 1851   4.700   5.570   8.005 -0.1817  0.7375  0.7151
   14MOL0     C 1852   4.606   5.507   8.090 -0.5508  0.1043  0.0746
   14MOL0     O 1853   4.636   5.438   8.206 -0.4486 -0.2988 -0.4899
   14MOL0     C 1854   4.761   5.480   8.266 -1.9644  0.1513  0.1505
   14MOL0     C 1855   4.780   5.466   8.417 -0.9352 -0.0040  0.1730
   14MOL0     C 1856   4.711   5.573   8.493 -0.8046 -0.9619 -0.2818
   14MOL0     C 1857   4.798   5.617   8.617  0.4986  0.6568 -0.2630
   14MOL0     C 1858   4.886   5.741   8.583 -0.2006 -0.0700  0.1324
   14MOL0     C 1859   5.007   5.894   8.559 -1.2394 -0.3846  0.1516
   14MOL0     C 1860   4.470   5.524   8.069 -0.3067  0.9589  0.1228
   14MOL0     C 1861   4.432   5.604   7.960  1.0396 -0.5553  0.0828
   14MOL0     C 1862   4.281   5.633   7.958  0.1140 -1.0322 -0.3945
   14MOL0     H 1863   4.759   6.016   7.627 -0.7990 -1.9694  1.4334
   14MOL0     H 1864   4.710   6.225   7.495 -0.0513 -0.1817 -1.5320
   14MOL0     H 1865   4.292   6.330   7.363  1.0766 -1.4044  2.2819
   14MOL0     H 1866   4.372   6.187   7.287 -0.4838 -0.2030 -1.4363
   14MOL0     H 1867   4.483   6.327   7.137  0.6988 -1.1184  1.0935
   14MOL0     H 1868   4.318   6.376   7.145 -1.6940  3.5118  2.2474
   14MOL0     H 1869   4.442   6.557   7.317  1.5057  0.9085 -0.9987
   14MOL0     H 1870   4.542   6.563   7.180 -0.4093  1.4676 -0.9635
   14MOL0     H 1871   4.309   6.598   7.034 -1.0017  1.2692  0.2765
   14MOL0     H 1872   4.239   6.616   7.189 -1.0466  0.0406 -1.5662
   14MOL0     H 1873   4.417   6.795   7.237 -0.4977 -1.5170  1.0746
   14MOL0     H 1874   4.274   6.823   7.130 -0.6689 -1.1590  1.7197
   14MOL0     H 1875   4.541   6.753   7.019  0.4648  0.0220 -0.2867
   14MOL0     H 1876   4.393   6.779   6.926 -3.5563  1.5890  1.3969
   14MOL0     H 1877   4.528   6.979   7.109  0.1728 -1.1883  0.0903
   14MOL0     H 1878   4.398   7.021   6.995  2.0819  2.7592 -2.5633
   14MOL0     H 1879   4.565   6.889   6.810 -0.8594 -1.9040  0.7824
   14MOL0     H 1880   4.552   7.069   6.838  0.1588  0.3819  2.7675
   14MOL0     H 1881   4.666   7.212   7.004  1.3602  1.1333  0.0843
   14MOL0     H 1882   4.847   7.274   7.150  1.1625 -0.5819  0.7501
   14MOL0     H 1883   4.917   7.323   6.986  0.8447 -3.7149 -3.8008
   14MOL0     H 1884   5.051   7.134   7.188  0.7503  0.2277  0.8382
   14MOL0     H 1885   5.123   7.209   7.041  1.2727  0.1439  1.0973
   14MOL0     H 1886   5.139   7.410   7.136  2.8808  1.2789  1.7687
   14MOL0     H 1887   5.055   7.373   7.287 -0.5889 -1.7079  1.1505
   14MOL0     H 1888   5.248   7.213   7.345  1.0547 -1.4704 -1.2429
   14MOL0     H 1889   5.312   7.252   7.182  2.9456 -0.2521  0.9414
   14MOL0     H 1890   5.296   7.270   7.549 -3.2262 -0.1394 -2.4907
   14MOL0     H 1891   5.295   7.367   7.896 -0.0641 -1.0387 -0.8571
   14MOL0     H 1892   5.457   7.338   7.831  0.6481 -1.5574 -1.4298
   14MOL0     H 1893   5.321   7.237   7.772 -1.9600 -0.6035  2.0981
   14MOL0     H 1894   5.443   8.038   7.838  1.1380  3.2719  0.9027
   14MOL0     H 1895   5.503   8.143   8.052  1.3627 -2.5518  0.6640
   14MOL0     H 1896   5.277   8.008   8.424  0.1907  0.3352  1.4448
   14MOL0     H 1897   5.453   7.973   8.436  1.4072  1.8440 -0.8472
   14MOL0     H 1898   5.310   8.215   8.525  0.7519  1.7510 -1.8649
   14MOL0     H 1899   5.391   8.093   8.620 -1.7436  0.9892  0.7476
   14MOL0     H 1900   5.529   8.293   8.596  0.1120  2.2838 -0.7575
   14MOL0     H 1901   5.524   8.288   8.432  2.8372  1.5447  0.1945
   14MOL0     H 1902   5.634   8.024   8.522  1.7952 -0.2640  0.1721
   14MOL0     H 1903   5.689   8.142   8.635 -2.0523 -2.9839  1.2569
   14MOL0     H 1904   5.845   8.089   8.434 -0.0883 -1.2721 -0.2763
   14MOL0     H 1905   5.725   8.132   8.322 -0.4115  0.9549  0.2352
   14MOL0     H 1906   5.871   8.324   8.514  0.6827  3.9332 -0.2124
   14MOL0     H 1907   5.732   8.374   8.421 -1.2916 -1.6878  3.0653
   14MOL0     H 1908   5.850   8.307   8.208 -0.9655 -1.3242  2.0358
   14MOL0     H 1909   5.994   8.269   8.302  3.2347  4.1470  0.3694
   14MOL0     H 1910   5.878   8.545   8.328 -0.9387 -0.2712  1.4862
   14MOL0     H 1911   5.998   8.500   8.200 -3.0993  5.0573 -0.2958
   14MOL0     H 1912   5.299   7.836   8.270 -0.0162 -1.6057 -0.7798
   14MOL0     H 1913   5.254   7.716   8.070  3.1367 -1.4483  3.4108
   14MOL0     H 1914   5.371   7.762   7.572  5.4405 -1.4133 -1.7698
   14MOL0     H 1915   5.334   7.666   7.383  0.7716  1.3788  0.5367
   14MOL0     H 1916   4.293   6.136   7.538  0.3893 -0.3741  0.4566
   14MOL0     H 1917   4.337   5.970   7.692  0.0927  0.7786  1.4853
   14MOL0     H 1918   4.737   5.683   7.832  1.6854 -3.5511  0.2437
   14MOL0     H 1919   4.805   5.542   8.009 -0.3397 -0.2194 -0.9125
   14MOL0     H 1920   4.843   5.419   8.228 -2.5294 -1.3738  1.2621
   14MOL0     H 1921   4.785   5.580   8.230  2.6847 -0.1677  1.7073
   14MOL0     H 1922   4.888   5.463   8.435 -1.2812 -1.9565  2.2659
   14MOL0     H 1923   4.747   5.369   8.454  1.5174 -0.8259  0.4105
   14MOL0     H 1924   4.702   5.663   8.431 -0.0919 -1.4802 -1.1617
   14MOL0     H 1925   4.607   5.548   8.516 -1.6136 -2.4820 -4.7369
   14MOL0     H 1926   4.855   5.531   8.652 -4.2143 -2.4601  0.8093
   14MOL0     H 1927   4.723   5.643   8.692  0.7051 -1.8810  0.9330
   14MOL0     H 1928   5.073   5.976   8.542 -2.2450  1.4289  4.0473
   14MOL0     H 1929   4.398   5.483   8.138 -0.2108  0.0575 -0.2997
   14MOL0     H 1930   4.227   5.591   8.044 -1.9087  0.5643 -0.8001
   14MOL0     H 1931   4.264   5.741   7.955 -1.2028 -1.2273 -0.2579
   14MOL0     H 1932   4.233   5.592   7.869  2.3945 -2.4994 -1.0546
   15MOL0     O 1933  10.115   1.749   6.070  0.6642 -0.8924 -0.6104
   15MOL0     C 1934  10.037   1.812   6.004  0.3906 -0.5234  0.8808
   15MOL0     O 1935  10.062   1.902   5.903  0.2016  0.1176 -0.1537
   15MOL0     C 1936  10.188   1.952   5.896  0.5266 -0.4211 -0.6652
   15MOL0     C 1937  10.224   2.061   5.979 -1.1440 -0.2981  0.9317
   15MOL0     C 1938  10.355   2.118   5.959  0.9398  0.3314  0.1549
   15MOL0     C 1939  10.441   2.075   5.862  0.0533  0.0208  0.4149
   15MOL0     O 1940  10.567   2.130   5.839  0.5335  0.1517  0.4131
   15MOL0     C 1941  10.679   2.043   5.809  0.0314  0.1400 -0.0932
   15MOL0     C 1942  10.798   2.140   5.820 -0.7256  0.6659  0.1291
   15MOL0     C 1943  10.937   2.070   5.793  0.3701 -0.2823 -0.2401
   15MOL0     C 1944  10.956   2.043   5.646  0.0807  0.7119  0.9988
   15MOL0     C 1945  11.078   1.959   5.614  0.2506  0.3570  0.5051
   15MOL0     C 1946  11.105   1.928   5.464 -0.0658  1.9501  0.3337
   15MOL0     C 1947  11.168   2.052   5.385  1.1982  1.0299  0.0013
   15MOL0     C 1948  11.204   2.031   5.240 -0.1579  0.5671 -0.0727
   15MOL0     N 1949  11.098   1.957   5.157 -0.4715 -0.6148  0.2920
   15MOL0     C 1950  10.982   2.001   5.095 -0.0289 -0.3940  0.3627
   15MOL0     C 1951  10.962   1.906   5.001  0.9098  0.2843 -0.3954
   15MOL0     C 1952  10.854   1.893   4.903  0.2057 -0.3189  0.2923
   15MOL0     C 1953  10.757   1.788   4.950  0.0962  0.4353  1.3934
   15MOL0     C 1954  10.631   1.801   4.870 -0.4940 -0.2909  0.2626
   15MOL0     C 1955  10.645   1.736   4.733  0.4548  0.1461  0.4503
   15MOL0     O 1956  10.715   1.824   4.643 -0.1805  0.1656 -0.5741
   15MOL0     C 1957  10.638   1.935   4.602  0.7494  1.5176 -0.7656
   15MOL0     C 1958  10.710   2.032   4.547 -0.4385  0.1067 -0.6690
   15MOL0     C 1959  10.647   2.143   4.487 -0.4682  0.4220  0.8077
   15MOL0     C 1960  10.727   2.268   4.444  0.3748  0.8546  0.4805
   15MOL0     C 1961  10.505   2.150   4.484 -0.8119 -0.6924 -1.1254
   15MOL0     C 1962  10.442   2.252   4.401 -0.3786  0.4085  0.0200
   15MOL0     O 1963  10.380   2.355   4.465  0.8328  0.2100  0.9292
   15MOL0     C 1964  10.264   2.400   4.398  0.4048 -0.2931  0.1005
   15MOL0     C 1965  10.264   2.452   4.269  0.4653 -0.3486  0.2742
   15MOL0     C 1966  10.146   2.474   4.202  0.0079 -0.5641  0.8358
   15MOL0     C 1967  10.024   2.462   4.266 -0.1391  0.2664 -0.6022
   15MOL0     O 1968   9.908   2.492   4.204  0.0916  0.3011 -0.2315
   15MOL0     C 1969   9.816   2.581   4.279  0.2884 -0.2497 -0.6092
   15MOL0     C 1970   9.870   2.718   4.266 -0.2716  0.1625  0.7328
   15MOL0     C 1971   9.915   2.762   4.124 -1.2311 -1.1990 -0.9958
   15MOL0     C 1972   9.907   2.914   4.102  0.1844  0.8345  1.1174
   15MOL0     C 1973   9.773   2.969   4.122 -0.4851 -0.8285  0.0783
   15MOL0     C 1974   9.743   3.091   4.030 -0.1610 -0.3472 -0.8448
   15MOL0     C 1975   9.593   3.093   3.975  0.5784  0.1622  0.6409
   15MOL0     C 1976   9.485   3.122   4.076  0.0315 -1.0438  0.4573
   15MOL0    Cl 1977   9.361   3.216   3.987 -0.4565 -0.6462 -0.0022
   15MOL0     C 1978  10.015   2.412   4.398  0.1060  0.0659  1.0428
   15MOL0     C 1979  10.134   2.383   4.458 -0.6250  0.7168  0.1051
   15MOL0     O 1980  10.442   2.226   4.280  0.1561 -0.4083  0.4774
   15MOL0     C 1981  10.427   2.054   4.551 -0.1787 -0.0718 -0.1721
   15MOL0     C 1982  10.504   1.954   4.619 -0.2666 -0.2731  1.6263
   15MOL0     N 1983  11.050   1.804   5.015 -0.9137  0.8700  0.2983
   15MOL0     N 1984  11.133   1.836   5.110 -0.5409  0.0507  0.0185
   15MOL0     C 1985  10.407   1.960   5.791 -0.4946  0.3193 -0.3539
   15MOL0     C 1986  10.284   1.897   5.817  0.1391  0.7920 -0.0844
   15MOL0     C 1987   9.901   1.775   6.028 -0.1611  0.4166 -0.1727
   15MOL0     C 1988   9.857   1.638   6.011  0.6050 -1.1337  0.6022
   15MOL0     C 1989   9.719   1.598   6.039 -0.2682  0.2896 -0.5609
   15MOL0     C 1990   9.625   1.700   6.078  0.7815  0.1631  1.3163
   15MOL0     O 1991   9.495   1.674   6.112  0.4020  0.5162 -0.8642
   15MOL0     C 1992   9.452   1.538   6.154  0.5495  0.9149 -0.1304
   15MOL0     C 1993   9.334   1.547   6.245 -0.1474 -0.5164  0.2483
   15MOL0     C 1994   9.210   1.623   6.193 -0.4578  0.1843  0.7135
   15MOL0     C 1995   9.134   1.555   6.083  0.5014 -0.5628 -0.3543
   15MOL0     C 1996   9.026   1.635   6.016  0.2824 -0.4194  1.1256
   15MOL0     C 1997   8.932   1.692   5.959  0.8838 -0.0173 -0.0281
   15MOL0     C 1998   9.676   1.837   6.083 -0.1233 -0.3529  0.6720
   15MOL0     C 1999   9.807   1.875   6.050  0.0574  1.0706 -0.0692
   15MOL0     C 2000   9.848   2.018   6.069  1.1077  0.4416  0.7714
   15MOL0     H 2001  10.154   2.107   6.048 -1.9731  1.9688 -1.2645
   15MOL0     H 2002  10.379   2.211   6.010  1.7899  0.0243  0.3326
   15MOL0     H 2003  10.672   2.000   5.709  0.8178 -0.9231  0.2833
   15MOL0     H 2004  10.678   1.957   5.878  2.2861  1.6503  2.0244
   15MOL0     H 2005  10.785   2.226   5.753  1.7172  2.7242  2.0199
   15MOL0     H 2006  10.800   2.188   5.919  0.8402  2.5738 -0.7464
   15MOL0     H 2007  11.013   2.140   5.830  1.2877 -0.9359 -0.8406
   15MOL0     H 2008  10.951   1.982   5.856 -1.1290  1.6000  2.9640
   15MOL0     H 2009  10.877   1.981   5.601 -0.8276  3.3602 -1.3455
   15MOL0     H 2010  10.962   2.137   5.590  1.4354 -0.2164 -0.4980
   15MOL0     H 2011  11.065   1.856   5.650 -2.2525  1.0684  1.9121
   15MOL0     H 2012  11.161   2.021   5.648 -0.9744  1.0836  2.3331
   15MOL0     H 2013  11.174   1.843   5.461  1.3195  3.0751 -1.7005
   15MOL0     H 2014  11.006   1.907   5.421 -0.7819  2.3753  1.6912
   15MOL0     H 2015  11.258   2.086   5.438  1.0158 -2.2246  2.7262
   15MOL0     H 2016  11.096   2.134   5.393  0.7273  0.7175 -0.9694
   15MOL0     H 2017  11.211   2.128   5.192 -3.9237  1.2474  0.4508
   15MOL0     H 2018  11.290   1.963   5.241 -1.8881 -1.8973  3.3133
   15MOL0     H 2019  10.921   2.090   5.110  0.0374 -0.2838 -0.0052
   15MOL0     H 2020  10.890   1.855   4.807  0.2517  0.5737 -0.0549
   15MOL0     H 2021  10.811   1.991   4.882 -1.6527 -1.2668 -0.5282
   15MOL0     H 2022  10.798   1.687   4.941  0.2684  0.6563 -1.0652
   15MOL0     H 2023  10.735   1.802   5.056  0.7371 -0.5254  1.6665
   15MOL0     H 2024  10.550   1.757   4.929  1.1321 -1.1541  1.9346
   15MOL0     H 2025  10.605   1.906   4.850 -1.4544 -0.6898 -0.7250
   15MOL0     H 2026  10.696   1.641   4.750 -0.4155 -0.5190 -0.5226
   15MOL0     H 2027  10.552   1.719   4.678  0.8503  3.7411 -1.6743
   15MOL0     H 2028  10.818   2.038   4.553 -0.4068 -1.1300  0.2788
   15MOL0     H 2029  10.835   2.252   4.454  0.0871 -1.2017  0.7142
   15MOL0     H 2030  10.706   2.352   4.511  1.7082  4.1817 -2.9192
   15MOL0     H 2031  10.709   2.291   4.338  1.0466 -1.6713 -0.2561
   15MOL0     H 2032  10.364   2.463   4.229  0.9601 -3.1104  0.5675
   15MOL0     H 2033  10.149   2.506   4.098  2.6448 -0.4761  0.8602
   15MOL0     H 2034   9.713   2.581   4.243 -0.7042 -1.1987  2.0113
   15MOL0     H 2035   9.821   2.561   4.386  2.3913  1.5872 -0.2740
   15MOL0     H 2036   9.794   2.789   4.302 -1.6727 -0.8426 -0.1481
   15MOL0     H 2037   9.955   2.720   4.335  0.5096  0.0926 -0.2096
   15MOL0     H 2038   9.847   2.711   4.055 -3.0704 -1.3844  0.8522
   15MOL0     H 2039  10.016   2.722   4.107 -0.6036  0.0864 -0.4877
   15MOL0     H 2040   9.934   2.935   3.998 -1.4478  0.3381  0.5634
   15MOL0     H 2041   9.977   2.963   4.171 -0.3379  0.0022  2.2748
   15MOL0     H 2042   9.694   2.895   4.107 -0.4501 -0.3537 -3.1500
   15MOL0     H 2043   9.768   2.999   4.227 -2.0734 -0.0707 -0.1883
   15MOL0     H 2044   9.811   3.087   3.944 -1.0259 -0.2882 -1.5423
   15MOL0     H 2045   9.760   3.193   4.064  0.3349 -0.9164  0.6902
   15MOL0     H 2046   9.556   3.000   3.930  0.7633 -0.2757  1.3843
   15MOL0     H 2047   9.590   3.173   3.900  0.2032  0.4210  0.9272
   15MOL0     H 2048   9.527   3.184   4.156 -2.1657  1.1906 -0.0104
   15MOL0     H 2049   9.440   3.035   4.125 -1.2187  0.2037  1.6092
   15MOL0     H 2050   9.921   2.393   4.450  0.9328 -0.3052  2.4549
   15MOL0     H 2051  10.141   2.345   4.559 -0.8324  3.1159  1.0829
   15MOL0     H 2052  10.320   2.057   4.565 -0.4454 -1.0884 -1.7581
   15MOL0     H 2053  10.456   1.879   4.681 -2.0027 -0.7762 -0.2074
   15MOL0     H 2054  10.472   1.912   5.717 -2.4789  0.2593 -2.1504
   15MOL0     H 2055  10.267   1.800   5.770  0.7998  1.4973 -1.8562
   15MOL0     H 2056   9.914   1.560   5.961 -1.5097 -1.9241 -0.7155
   15MOL0     H 2057   9.703   1.491   6.024  0.7073  0.3726 -2.3887
   15MOL0     H 2058   9.428   1.503   6.053  2.7322  3.2529 -1.5837
   15MOL0     H 2059   9.523   1.468   6.201 -2.0873 -1.5820  0.4326
   15MOL0     H 2060   9.380   1.596   6.331  0.6338  0.4866 -0.7163
   15MOL0     H 2061   9.301   1.452   6.287 -0.4019 -0.5617 -0.0565
   15MOL0     H 2062   9.149   1.651   6.279  2.6019  1.6719  2.5623
   15MOL0     H 2063   9.248   1.710   6.140 -1.2274 -0.2170 -0.5518
   15MOL0     H 2064   9.088   1.466   6.126  2.2030  0.4839  4.2961
   15MOL0     H 2065   9.204   1.538   6.001  1.9781  2.2945  0.1600
   15MOL0     H 2066   8.841   1.732   5.919  0.6665  0.4859  0.9342
   15MOL0     H 2067   9.604   1.910   6.119 -0.9744 -0.7491 -0.1468
   15MOL0     H 2068   9.941   2.048   6.020  0.3388 -1.9862 -2.5018
   15MOL0     H 2069   9.773   2.081   6.019  0.8228 -1.3549 -1.2462
   15MOL0     H 2070   9.847   2.045   6.175 -0.2068  2.6258  0.2833
   16MOL0     O 2071   2.828   6.189  10.006  0.5043 -0.2555 -0.7148
   16MOL0     C 2072   2.717   6.143   9.997  0.5790 -0.2975  0.1549
   16MOL0     O 2073   2.602   6.194  10.066  0.4539 -0.5901  0.1720
   16MOL0     C 2074   2.622   6.295  10.154 -0.4350 -0.3430 -0.0254
   16MOL0     C 2075   2.515   6.385  10.172  0.5209 -0.2026 -0.4944
   16MOL0     C 2076   2.520   6.483  10.273 -0.1845 -0.3019  0.0452
   16MOL0     C 2077   2.632   6.495  10.354 -0.7396 -0.4186  0.0018
   16MOL0     O 2078   2.633   6.599  10.441  0.0463 -0.1325  0.0357
   16MOL0     C 2079   2.719   6.712  10.428  0.4078  0.3627 -0.2200
   16MOL0     C 2080   2.676   6.837  10.500 -0.9067  0.3616  0.0092
   16MOL0     C 2081   2.715   6.820  10.654  1.0548  0.3512  0.0754
   16MOL0     C 2082   2.706   6.972  10.718 -0.2625  0.6458  0.3232
   16MOL0     C 2083   2.681   6.982  10.872  0.3477  0.0954  0.5253
   16MOL0     C 2084   2.788   6.940  10.967  0.3005  0.2463 -0.7933
   16MOL0     C 2085   2.726   6.904  11.108 -0.0795  0.1827  0.2762
   16MOL0     C 2086   2.838   6.852  11.193 -0.3823  0.1931  0.0556
   16MOL0     N 2087   2.884   6.720  11.145  0.4072  0.9665 -0.9673
   16MOL0     C 2088   2.805   6.604  11.136  0.0704  0.8165 -0.0305
   16MOL0     C 2089   2.880   6.515  11.063  0.3186  0.1438  0.3429
   16MOL0     C 2090   2.849   6.375  11.013  0.3265  0.3822 -0.3966
   16MOL0     C 2091   2.790   6.284  11.121 -1.3316 -0.6827 -0.2680
   16MOL0     C 2092   2.788   6.145  11.051 -0.2042  0.5228  0.4676
   16MOL0     C 2093   2.821   6.022  11.152 -0.0881 -0.3838  1.1627
   16MOL0     O 2094   2.740   6.023  11.273  0.6562  0.8010  0.2891
   16MOL0     C 2095   2.733   5.923  11.366 -0.5252 -0.6201  0.3543
   16MOL0     C 2096   2.815   5.814  11.361  0.1253 -0.1835 -0.9046
   16MOL0     C 2097   2.793   5.708  11.448 -0.9984  0.4737  1.1447
   16MOL0     C 2098   2.875   5.579  11.436  0.4843 -0.3313  0.0365
   16MOL0     C 2099   2.689   5.710  11.546  0.3264  0.7632 -0.6638
   16MOL0     C 2100   2.635   5.590  11.624 -0.3835 -0.6957  0.0158
   16MOL0     O 2101   2.520   5.615  11.698  0.1794 -1.0486  0.5640
   16MOL0     C 2102   2.493   5.533  11.799 -0.0196 -0.1285 -0.8516
   16MOL0     C 2103   2.587   5.516  11.907 -0.3629 -0.7864  1.3433
   16MOL0     C 2104   2.563   5.438  12.024 -0.1077  0.2364  1.8952
   16MOL0     C 2105   2.440   5.388  12.037 -0.5351  0.3894  0.9151
   16MOL0     O 2106   2.425   5.295  12.135  0.5099  0.6419  0.0508
   16MOL0     C 2107   2.321   5.194  12.129 -0.1411 -0.9523  0.3092
   16MOL0     C 2108   2.317   5.113  12.250  0.2589 -0.0332 -0.7339
   16MOL0     C 2109   2.305   5.183  12.394  0.0171  0.5661 -0.2268
   16MOL0     C 2110   2.289   5.093  12.518 -0.8022  0.5765 -0.6142
   16MOL0     C 2111   2.421   5.118  12.607  0.1864  0.0053  0.4467
   16MOL0     C 2112   2.548   5.051  12.550 -0.2596  0.0938 -0.4958
   16MOL0     C 2113   2.667   5.074  12.652 -0.7218  0.1533 -0.3131
   16MOL0     C 2114   2.806   5.030  12.598  0.3508  0.8899  0.5575
   16MOL0    Cl 2115   2.924   5.037  12.722 -0.0589  0.4280  0.0373
   16MOL0     C 2116   2.340   5.405  11.935  0.2785  0.1424 -0.3073
   16MOL0     C 2117   2.367   5.478  11.819 -0.2237 -0.2217  0.1932
   16MOL0     O 2118   2.690   5.482  11.616  0.0171  0.1107  0.7408
   16MOL0     C 2119   2.615   5.836  11.564  0.9673 -0.5695 -0.3770
   16MOL0     C 2120   2.633   5.938  11.471  0.2814 -0.1686 -0.2502
   16MOL0     N 2121   2.988   6.579  11.014 -0.3555  0.6129 -0.6392
   16MOL0     N 2122   3.001   6.691  11.074  0.0764 -0.4794 -0.2646
   16MOL0     C 2123   2.727   6.399  10.344 -0.1062 -0.5140  0.6302
   16MOL0     C 2124   2.725   6.296  10.247 -0.3609 -0.0792 -0.8549
   16MOL0     C 2125   2.709   6.018   9.905  0.3215  0.3312  0.1730
   16MOL0     C 2126   2.798   6.006   9.793  0.7909  0.0040 -0.2617
   16MOL0     C 2127   2.793   5.889   9.730 -1.4929  0.5660 -0.0061
   16MOL0     C 2128   2.712   5.774   9.755  0.6195 -0.6805  0.1976
   16MOL0     O 2129   2.726   5.655   9.682 -0.5269 -0.3258  0.0445
   16MOL0     C 2130   2.656   5.540   9.727  0.6214  0.9545  0.3115
   16MOL0     C 2131   2.691   5.419   9.641 -0.5865 -0.8755  0.4146
   16MOL0     C 2132   2.846   5.410   9.620  0.0767  0.4070 -0.7201
   16MOL0     C 2133   2.887   5.271   9.568  0.3494 -0.5047 -0.3962
   16MOL0     C 2134   2.869   5.251   9.427 -0.9252 -0.6883 -0.6309
   16MOL0     C 2135   2.871   5.223   9.311 -0.1852 -0.6675  0.2604
   16MOL0     C 2136   2.622   5.786   9.862  0.1049  0.5625  0.7079
   16MOL0     C 2137   2.617   5.905   9.941 -1.3116  0.0999  0.0326
   16MOL0     C 2138   2.526   5.913  10.055 -0.4309 -0.8282 -0.3975
   16MOL0     H 2139   2.438   6.379  10.096  1.6119 -3.4698 -1.5031
   16MOL0     H 2140   2.449   6.564  10.273 -0.1680 -0.2862  0.3413
   16MOL0     H 2141   2.717   6.739  10.322  2.4734  1.6393  0.0095
   16MOL0     H 2142   2.820   6.678  10.451 -0.1887 -2.3406 -1.2563
   16MOL0     H 2143   2.737   6.918  10.459 -0.3116 -0.3989 -0.6674
   16MOL0     H 2144   2.571   6.852  10.473 -0.9110 -2.1814 -1.7718
   16MOL0     H 2145   2.649   6.752  10.708  2.2885 -0.2939  0.8185
   16MOL0     H 2146   2.821   6.795  10.660  1.7872  3.2388  1.3469
   16MOL0     H 2147   2.804   7.016  10.698 -0.5687 -0.4768 -5.1993
   16MOL0     H 2148   2.632   7.032  10.665  2.1746  1.9652 -1.8212
   16MOL0     H 2149   2.595   6.918  10.895  0.3041 -0.3369 -0.7709
   16MOL0     H 2150   2.660   7.088  10.887  0.7861  0.2836 -0.1577
   16MOL0     H 2151   2.843   6.854  10.926  0.7207 -0.8465  1.8328
   16MOL0     H 2152   2.858   7.021  10.988 -1.3371  1.3294  0.7070
   16MOL0     H 2153   2.635   6.842  11.113 -1.3790  1.7681 -1.9421
   16MOL0     H 2154   2.695   6.989  11.169 -3.2010 -2.3993  2.6837
   16MOL0     H 2155   2.917   6.928  11.189 -0.8645  0.7075  0.2338
   16MOL0     H 2156   2.805   6.843  11.297  0.4677  1.9602  0.5285
   16MOL0     H 2157   2.714   6.575  11.187  1.2964  2.6877  3.5541
   16MOL0     H 2158   2.943   6.330  10.981  0.4655 -1.4544  2.3238
   16MOL0     H 2159   2.787   6.372  10.922  0.5331 -1.2359 -0.5234
   16MOL0     H 2160   2.857   6.291  11.207 -0.5658 -1.5452 -0.7820
   16MOL0     H 2161   2.693   6.324  11.152 -1.1738 -0.2422 -0.3336
   16MOL0     H 2162   2.691   6.117  11.009 -0.5165 -0.6499  1.8709
   16MOL0     H 2163   2.862   6.136  10.972  1.1306  3.0506  1.3101
   16MOL0     H 2164   2.796   5.931  11.097  0.4598 -0.5574  1.1924
   16MOL0     H 2165   2.926   6.020  11.184  0.6515 -0.0200 -1.0179
   16MOL0     H 2166   2.897   5.812  11.290 -0.4902  3.2096 -1.8970
   16MOL0     H 2167   2.911   5.566  11.538 -1.1442 -0.2625  0.6504
   16MOL0     H 2168   2.966   5.589  11.376  0.3796  1.0790  0.0725
   16MOL0     H 2169   2.812   5.502  11.391  1.3587 -0.1758 -1.5215
   16MOL0     H 2170   2.692   5.540  11.893 -0.7944  0.9002  0.8026
   16MOL0     H 2171   2.641   5.432  12.099  2.1474  0.1378 -0.3351
   16MOL0     H 2172   2.217   5.222  12.109 -0.2262 -1.1764  0.4303
   16MOL0     H 2173   2.341   5.127  12.046 -2.8071 -1.5307  0.0217
   16MOL0     H 2174   2.234   5.043  12.231  0.7392 -0.6369 -0.6312
   16MOL0     H 2175   2.413   5.061  12.246  0.0434 -0.4002 -1.6035
   16MOL0     H 2176   2.224   5.257  12.395  0.7376  1.3760  1.2245
   16MOL0     H 2177   2.399   5.238  12.399 -1.3211  2.8338  1.7640
   16MOL0     H 2178   2.298   4.986  12.495  2.0186  0.0680  2.1561
   16MOL0     H 2179   2.196   5.111  12.572 -0.5928  0.3889 -0.1886
   16MOL0     H 2180   2.437   5.225  12.617  2.7559 -0.4051  1.5757
   16MOL0     H 2181   2.410   5.069  12.704  1.0445  1.3853  1.2595
   16MOL0     H 2182   2.574   5.088  12.450  4.6873 -1.3977 -0.0387
   16MOL0     H 2183   2.543   4.942  12.547  0.0399  0.0384  0.4746
   16MOL0     H 2184   2.637   5.019  12.742  0.7800  1.0339  0.7633
   16MOL0     H 2185   2.666   5.180  12.681 -1.1820  0.1997 -0.4851
   16MOL0     H 2186   2.840   5.094  12.516  0.8586  0.0370  0.0863
   16MOL0     H 2187   2.807   4.925  12.567  0.4741 -0.3482  4.2345
   16MOL0     H 2188   2.246   5.352  11.945 -0.3478  0.8860 -1.9238
   16MOL0     H 2189   2.283   5.501  11.753  0.2530 -0.6023 -0.5564
   16MOL0     H 2190   2.529   5.835  11.630 -0.7838  1.8617 -2.4027
   16MOL0     H 2191   2.566   6.023  11.467  1.0586  0.4639 -0.1120
   16MOL0     H 2192   2.808   6.396  10.417  1.5450 -0.6807 -1.1209
   16MOL0     H 2193   2.808   6.233  10.280  2.7930  4.5913  1.4034
   16MOL0     H 2194   2.856   6.094   9.766 -0.4604  0.5404 -1.3374
   16MOL0     H 2195   2.851   5.902   9.640 -1.2197  0.8426  0.2063
   16MOL0     H 2196   2.680   5.527   9.833 -1.2475  1.7613  0.8581
   16MOL0     H 2197   2.549   5.553   9.715  0.0594 -1.9611  1.4206
   16MOL0     H 2198   2.632   5.413   9.549 -0.8120 -1.3521  0.5853
   16MOL0     H 2199   2.674   5.337   9.712  4.4698 -0.3293  2.7265
   16MOL0     H 2200   2.895   5.487   9.561 -1.0346 -1.1332 -3.8987
   16MOL0     H 2201   2.886   5.425   9.721  3.3031 -1.4016 -1.6009
   16MOL0     H 2202   2.848   5.191   9.631  1.6132  1.3257  2.9602
   16MOL0     H 2203   2.994   5.264   9.589 -0.1535  0.6886  3.3606
   16MOL0     H 2204   2.886   5.183   9.212  3.4544  0.6920  0.0999
   16MOL0     H 2205   2.552   5.709   9.889  0.1071  0.1092 -0.5028
   16MOL0     H 2206   2.486   5.812  10.070 -0.6804 -0.8563 -1.1710
   16MOL0     H 2207   2.582   5.947  10.142 -1.1551 -1.2752  0.2475
   16MOL0     H 2208   2.445   5.982  10.035 -0.3673  0.1992  2.5032
   17MOL0     O 2209   8.046   1.422   0.318 -0.3436  0.1953 -0.3751
   17MOL0     C 2210   8.081   1.487   0.422  0.5904 -0.0632  0.7632
   17MOL0     O 2211   8.130   1.615   0.426  1.1664  0.3039 -0.1227
   17MOL0     C 2212   8.130   1.697   0.318 -0.7760  0.3913  0.7347
   17MOL0     C 2213   8.014   1.746   0.261 -1.0407  0.1163  0.9353
   17MOL0     C 2214   8.022   1.833   0.149 -0.1482  0.1893  0.4052
   17MOL0     C 2215   8.148   1.870   0.103  0.7063 -0.1859 -0.5359
   17MOL0     O 2216   8.151   1.964  -0.002  0.2017  0.6220 -0.9908
   17MOL0     C 2217   8.047   2.071  -0.001 -0.0333 -0.4704 -0.0974
   17MOL0     C 2218   8.075   2.172  -0.121 -0.2159  0.2870 -1.0574
   17MOL0     C 2219   8.216   2.232  -0.147 -0.3353  0.2736 -0.1631
   17MOL0     C 2220   8.228   2.332  -0.258  0.2721 -0.2885  0.3455
   17MOL0     C 2221   8.377   2.378  -0.267  0.3796 -0.0744 -0.8124
   17MOL0     C 2222   8.367   2.486  -0.379 -1.2484  0.1271 -0.0683
   17MOL0     C 2223   8.501   2.551  -0.414 -1.5383 -1.1151  0.0288
   17MOL0     C 2224   8.486   2.680  -0.484  0.0832 -0.1793 -0.2489
   17MOL0     N 2225   8.610   2.725  -0.526  0.8943  0.8126 -0.7691
   17MOL0     C 2226   8.699   2.787  -0.450 -0.7106 -0.0417 -0.1242
   17MOL0     C 2227   8.803   2.807  -0.534  0.0090 -0.2035  0.4028
   17MOL0     C 2228   8.934   2.866  -0.493  0.4023 -0.4863 -0.1183
   17MOL0     C 2229   9.022   2.802  -0.375 -1.2381  0.1235  0.2928
   17MOL0     C 2230   9.076   2.668  -0.418  0.3890  0.2878  0.2236
   17MOL0     C 2231   9.193   2.608  -0.338 -0.2968 -0.4714  0.3086
   17MOL0     O 2232   9.172   2.650  -0.200 -0.5711  0.0190 -0.2793
   17MOL0     C 2233   9.267   2.618  -0.103  0.4148 -0.8119  1.8111
   17MOL0     C 2234   9.219   2.582   0.027 -0.0121  0.1371  0.6346
   17MOL0     C 2235   9.314   2.564   0.133  0.0167  0.6056  0.3885
   17MOL0     C 2236   9.268   2.532   0.275  0.0921 -0.1866 -0.3473
   17MOL0     C 2237   9.454   2.580   0.106 -0.0537  0.2200 -0.2025
   17MOL0     C 2238   9.560   2.552   0.203  0.1139 -0.2985 -0.6635
   17MOL0     O 2239   9.693   2.579   0.168 -0.4744 -0.2838 -0.2490
   17MOL0     C 2240   9.788   2.525   0.246 -0.0599 -0.5593 -0.6910
   17MOL0     C 2241   9.810   2.387   0.272 -0.8341  0.8695 -0.2758
   17MOL0     C 2242   9.913   2.339   0.355  0.4114  0.3717  0.5851
   17MOL0     C 2243  10.003   2.430   0.406  1.0470 -0.7926 -0.5108
   17MOL0     O 2244  10.101   2.372   0.482 -0.1279  0.2191 -0.3351
   17MOL0     C 2245  10.175   2.438   0.585 -0.5426  0.6762 -0.6258
   17MOL0     C 2246  10.231   2.343   0.688 -0.5558 -0.5153  0.2508
   17MOL0     C 2247  10.334   2.401   0.784 -0.5248 -0.6469  0.6763
   17MOL0     C 2248  10.259   2.467   0.899  0.7177 -0.4711 -0.5172
   17MOL0     C 2249  10.357   2.532   0.995 -0.3735  1.0916  0.5052
   17MOL0     C 2250  10.288   2.572   1.124  0.3919  0.1205 -0.9418
   17MOL0     C 2251  10.381   2.621   1.232  0.1488 -0.1320  0.0462
   17MOL0     C 2252  10.412   2.762   1.191  0.8472  0.7944 -0.2557
   17MOL0    Cl 2253  10.525   2.809   1.316 -0.0323  0.0700  0.2724
   17MOL0     C 2254   9.976   2.569   0.391  0.0398  0.0723  0.5405
   17MOL0     C 2255   9.870   2.615   0.306 -0.0095 -0.0195 -1.1495
   17MOL0     O 2256   9.526   2.506   0.312  0.5178  0.8243 -1.0383
   17MOL0     C 2257   9.497   2.611  -0.028 -0.5533 -1.1961 -0.2902
   17MOL0     C 2258   9.408   2.621  -0.128 -0.4467  0.2817 -0.5487
   17MOL0     N 2259   8.786   2.750  -0.650 -0.0531  0.6963  0.1199
   17MOL0     N 2260   8.664   2.688  -0.646  0.1938  0.3738 -0.4069
   17MOL0     C 2261   8.262   1.814   0.147 -0.6026  1.0459 -0.3948
   17MOL0     C 2262   8.253   1.730   0.255  0.6326  0.2109  0.8014
   17MOL0     C 2263   8.048   1.429   0.563  1.2476 -0.0670  0.6488
   17MOL0     C 2264   8.085   1.489   0.687 -0.1712 -0.4281  0.0872
   17MOL0     C 2265   8.049   1.449   0.813  0.2302 -0.2760 -1.0177
   17MOL0     C 2266   7.974   1.334   0.830  0.2480 -0.5010 -0.4141
   17MOL0     O 2267   7.930   1.293   0.954  0.4152 -0.6088 -0.4786
   17MOL0     C 2268   7.986   1.344   1.074 -0.0311  0.0697 -0.7533
   17MOL0     C 2269   7.889   1.317   1.183 -0.5847 -0.4841  0.2914
   17MOL0     C 2270   7.931   1.192   1.263  0.5001  0.6523  0.2911
   17MOL0     C 2271   7.810   1.156   1.339  0.0389 -0.4123 -0.0561
   17MOL0     C 2272   7.776   1.240   1.447 -0.8791 -0.2283 -0.8240
   17MOL0     C 2273   7.749   1.301   1.552 -0.9368 -0.0974  0.2581
   17MOL0     C 2274   7.936   1.271   0.719  0.0163  0.2003 -0.2414
   17MOL0     C 2275   7.978   1.304   0.584  1.1566 -0.4603 -0.2497
   17MOL0     C 2276   7.909   1.218   0.477 -0.0881 -0.3449  0.1487
   17MOL0     H 2277   7.927   1.705   0.311  0.5883 -1.1550  2.8620
   17MOL0     H 2278   7.930   1.871   0.106  0.6367  1.1230 -0.4957
   17MOL0     H 2279   8.051   2.129   0.092 -2.5223 -0.4645  0.0604
   17MOL0     H 2280   7.945   2.038  -0.022 -0.2981 -1.0451  1.9493
   17MOL0     H 2281   8.054   2.122  -0.216 -1.2146  1.2710 -1.3785
   17MOL0     H 2282   8.008   2.258  -0.108  0.2757  0.3678  1.3748
   17MOL0     H 2283   8.233   2.290  -0.056  2.3688 -1.7833  0.7846
   17MOL0     H 2284   8.296   2.158  -0.158  1.1740  1.8781 -0.5050
   17MOL0     H 2285   8.202   2.283  -0.353 -0.4039  0.8069 -0.0564
   17MOL0     H 2286   8.156   2.414  -0.247  0.9139  0.4437 -0.7718
   17MOL0     H 2287   8.443   2.295  -0.291  0.7863  0.1628 -0.5206
   17MOL0     H 2288   8.426   2.429  -0.183 -0.0149 -0.9844 -0.0128
   17MOL0     H 2289   8.324   2.435  -0.466  3.5370  0.4055 -2.9646
   17MOL0     H 2290   8.289   2.558  -0.354 -2.3980 -0.3729 -2.0027
   17MOL0     H 2291   8.556   2.481  -0.478 -0.3284 -0.4304  0.2988
   17MOL0     H 2292   8.553   2.573  -0.320  1.0916  0.8544 -1.7296
   17MOL0     H 2293   8.429   2.661  -0.576  1.2087 -1.5086 -0.7189
   17MOL0     H 2294   8.453   2.750  -0.407 -0.0454 -1.1422  0.5933
   17MOL0     H 2295   8.685   2.811  -0.345 -2.7333 -0.6327 -0.2136
   17MOL0     H 2296   8.902   2.964  -0.455 -0.8561 -1.4292  1.3696
   17MOL0     H 2297   9.003   2.897  -0.572 -0.7079 -0.1591 -0.9876
   17MOL0     H 2298   9.105   2.872  -0.365 -1.7149  1.3662 -2.9787
   17MOL0     H 2299   8.960   2.789  -0.286  0.3548 -2.1570  1.1528
   17MOL0     H 2300   8.999   2.590  -0.416  2.4337 -1.8582 -0.3586
   17MOL0     H 2301   9.117   2.666  -0.520 -0.0292  0.0515  0.0565
   17MOL0     H 2302   9.199   2.498  -0.343 -1.9745 -0.6717  1.7579
   17MOL0     H 2303   9.280   2.652  -0.386 -0.9060 -0.6569 -1.0328
   17MOL0     H 2304   9.112   2.566   0.039 -0.2617  0.4934 -0.8603
   17MOL0     H 2305   9.159   2.524   0.270  0.2020 -2.3202 -0.4410
   17MOL0     H 2306   9.310   2.614   0.334  0.2945 -0.1817 -0.4952
   17MOL0     H 2307   9.312   2.440   0.315  3.1555  1.3380  0.0946
   17MOL0     H 2308   9.730   2.328   0.229 -0.0019 -1.2029  0.8501
   17MOL0     H 2309   9.940   2.235   0.372  1.4436  0.4911 -0.2011
   17MOL0     H 2310  10.261   2.491   0.545  0.0360 -1.9653 -3.1951
   17MOL0     H 2311  10.104   2.506   0.635 -1.3959 -1.1505  0.7628
   17MOL0     H 2312  10.146   2.301   0.743 -0.1864  1.8447  2.8650
   17MOL0     H 2313  10.278   2.258   0.638  0.6666 -1.8618  3.4114
   17MOL0     H 2314  10.399   2.475   0.735  0.9684 -0.7345  2.4299
   17MOL0     H 2315  10.401   2.322   0.819 -0.3985 -0.5039  0.7594
   17MOL0     H 2316  10.198   2.393   0.951  1.4231 -2.5570 -2.4649
   17MOL0     H 2317  10.192   2.547   0.866  1.2125 -1.0166 -3.0496
   17MOL0     H 2318  10.433   2.465   1.036  2.1091  3.4274  0.0233
   17MOL0     H 2319  10.406   2.615   0.942  0.3938  1.8851  2.3670
   17MOL0     H 2320  10.235   2.485   1.164  2.3707 -1.1730 -0.9520
   17MOL0     H 2321  10.214   2.645   1.091  1.0524  1.5062  0.5188
   17MOL0     H 2322  10.478   2.571   1.244  1.1649  1.5450 -0.9239
   17MOL0     H 2323  10.341   2.616   1.334  0.8431 -2.8369  0.2732
   17MOL0     H 2324  10.324   2.826   1.203 -0.0898 -0.1595 -1.6497
   17MOL0     H 2325  10.461   2.765   1.093 -0.4664 -0.8827 -1.0108
   17MOL0     H 2326  10.040   2.646   0.434  0.4166  1.2350 -1.8936
   17MOL0     H 2327   9.837   2.718   0.299 -3.2884 -0.9353 -0.7034
   17MOL0     H 2328   9.599   2.635  -0.052 -1.4872  0.2345 -3.2700
   17MOL0     H 2329   9.454   2.640  -0.225  1.4554 -0.4896  0.1400
   17MOL0     H 2330   8.358   1.847   0.107 -1.2410 -1.0335 -4.1712
   17MOL0     H 2331   8.342   1.692   0.305 -0.4186 -4.8121 -0.5771
   17MOL0     H 2332   8.152   1.575   0.695  1.5950 -1.5703 -1.4997
   17MOL0     H 2333   8.091   1.500   0.900 -1.4233 -1.2530  0.4236
   17MOL0     H 2334   8.081   1.294   1.096 -0.0152  0.1728 -0.5806
   17MOL0     H 2335   8.007   1.451   1.072 -4.3741  1.2122  1.8266
   17MOL0     H 2336   7.786   1.330   1.149 -0.5893  0.8845  0.7587
   17MOL0     H 2337   7.900   1.402   1.251 -0.1146 -0.3682  0.0685
   17MOL0     H 2338   7.950   1.101   1.205 -1.1068  1.1569 -1.1140
   17MOL0     H 2339   8.012   1.219   1.331  0.8811  1.7896 -0.5729
   17MOL0     H 2340   7.828   1.053   1.373 -1.9421 -0.4586  1.0236
   17MOL0     H 2341   7.717   1.161   1.281 -0.0105 -1.6401 -0.1107
   17MOL0     H 2342   7.732   1.360   1.640  0.4458 -0.7639  1.0031
   17MOL0     H 2343   7.879   1.178   0.722  0.8311 -0.2763  1.6752
   17MOL0     H 2344   7.889   1.115   0.510  0.6945 -0.7862 -0.7078
   17MOL0     H 2345   7.813   1.266   0.457 -0.6506  0.2358  3.6418
   17MOL0     H 2346   7.975   1.201   0.391 -1.7257  1.0929 -1.4588
   18MOL0     O 2347   9.464   3.686   2.782  0.0817 -0.3591  0.2858
   18MOL0     C 2348   9.513   3.723   2.890 -0.1673  0.0543  0.3891
   18MOL0     O 2349   9.601   3.657   2.957  0.7631  0.3273  0.6167
   18MOL0     C 2350   9.633   3.526   2.918  0.8936 -0.3814  0.4325
   18MOL0     C 2351   9.741   3.513   2.833 -0.5148 -0.3706 -0.1519
   18MOL0     C 2352   9.804   3.387   2.814  0.4831 -0.3811  0.2949
   18MOL0     C 2353   9.762   3.270   2.879  0.6707  0.2818  0.4152
   18MOL0     O 2354   9.823   3.154   2.858 -0.3365  0.3640 -0.1112
   18MOL0     C 2355   9.850   3.099   2.727  1.1846  0.0629  0.2282
   18MOL0     C 2356   9.914   2.962   2.741  0.0812  0.9400 -0.1815
   18MOL0     C 2357  10.056   2.959   2.796  0.8020  0.1722  0.6614
   18MOL0     C 2358  10.113   2.821   2.806  0.2416  0.2444  0.1676
   18MOL0     C 2359  10.255   2.819   2.848  0.8196  0.4802 -0.1689
   18MOL0     C 2360  10.358   2.791   2.733  0.1953 -0.5442  0.0768
   18MOL0     C 2361  10.502   2.791   2.792  0.0454 -0.0605 -0.1557
   18MOL0     C 2362  10.620   2.766   2.695 -0.5595  0.1808 -0.2471
   18MOL0     N 2363  10.578   2.652   2.613  1.3117 -0.2267 -0.1791
   18MOL0     C 2364  10.531   2.521   2.654  0.0133 -0.1160  0.6942
   18MOL0     C 2365  10.499   2.454   2.545 -0.5365 -0.8815  1.1230
   18MOL0     C 2366  10.441   2.313   2.550  0.0113 -0.4632  0.5716
   18MOL0     C 2367  10.298   2.304   2.489 -0.4028 -0.0906  0.0487
   18MOL0     C 2368  10.213   2.168   2.515 -0.2052 -0.4718 -0.4583
   18MOL0     C 2369  10.082   2.173   2.439  0.8293 -0.5528  0.2839
   18MOL0     O 2370  10.009   2.055   2.479  0.9722 -0.3687  0.2928
   18MOL0     C 2371  10.015   1.945   2.405 -0.6647 -0.3457  0.4090
   18MOL0     C 2372   9.969   1.940   2.275  0.1121  0.3462 -0.2137
   18MOL0     C 2373   9.976   1.822   2.201  0.6730  1.0898  0.8748
   18MOL0     C 2374   9.899   1.826   2.077  0.7971  0.5231  0.7744
   18MOL0     C 2375  10.024   1.702   2.262 -0.5438  0.0148 -0.2209
   18MOL0     C 2376  10.017   1.563   2.205 -0.4325  0.4151 -0.1320
   18MOL0     O 2377  10.014   1.534   2.068 -0.1514 -0.1090 -1.0717
   18MOL0     C 2378  10.052   1.404   2.022 -0.3533  0.1328  0.6535
   18MOL0     C 2379  10.125   1.307   2.097  0.2480  0.2198 -0.1379
   18MOL0     C 2380  10.146   1.178   2.043 -0.7670  0.5021 -0.0016
   18MOL0     C 2381  10.107   1.147   1.912  0.2125 -0.6267 -0.4485
   18MOL0     O 2382  10.153   1.031   1.860 -0.4223 -0.3670  0.5463
   18MOL0     C 2383  10.294   1.023   1.829  0.1274  0.8425 -0.4105
   18MOL0     C 2384  10.364   0.927   1.928  1.1468  0.0550 -0.2635
   18MOL0     C 2385  10.372   0.780   1.883  0.5159  0.0224  0.2039
   18MOL0     C 2386  10.446   0.682   1.977 -0.0220 -1.1471 -0.0445
   18MOL0     C 2387  10.490   0.546   1.925  0.2106  0.3042  0.3638
   18MOL0     C 2388  10.372   0.439   1.919 -0.0455 -0.0945 -1.2896
   18MOL0     C 2389  10.417   0.299   1.908  0.6397 -0.4814  0.2066
   18MOL0     C 2390  10.426   0.261   1.761  0.7587  0.8431  0.5575
   18MOL0    Cl 2391  10.247   0.248   1.711 -0.2027  0.4097  0.1511
   18MOL0     C 2392  10.042   1.239   1.834  0.5986  0.2503 -0.1564
   18MOL0     C 2393  10.017   1.369   1.891  0.9702 -0.1927  1.0876
   18MOL0     O 2394  10.023   1.481   2.296  0.0092 -0.8481  0.4499
   18MOL0     C 2395  10.079   1.722   2.389 -0.9598  1.4411 -0.1169
   18MOL0     C 2396  10.070   1.835   2.456 -1.1273 -0.1395 -0.0075
   18MOL0     N 2397  10.497   2.549   2.435 -0.4446  0.0796 -0.3175
   18MOL0     N 2398  10.553   2.660   2.477  0.0655 -0.5254 -0.4129
   18MOL0     C 2399   9.646   3.288   2.955 -0.1080  0.3499  0.2329
   18MOL0     C 2400   9.578   3.412   2.974 -0.1328 -0.2853  0.1747
   18MOL0     C 2401   9.461   3.849   2.942 -0.2999 -0.6957 -0.0020
   18MOL0     C 2402   9.500   3.967   2.880  0.1328  0.2232  0.2708
   18MOL0     C 2403   9.448   4.079   2.941 -1.0108 -0.1996  0.5706
   18MOL0     C 2404   9.372   4.081   3.059 -0.5800  0.0673  0.8870
   18MOL0     O 2405   9.341   4.207   3.085  0.0019  0.4741 -0.3583
   18MOL0     C 2406   9.327   4.243   3.227 -0.0166  1.8698 -0.0774
   18MOL0     C 2407   9.465   4.251   3.294 -0.5181  0.6277 -0.3005
   18MOL0     C 2408   9.463   4.325   3.425  0.5041  0.0263 -0.2880
   18MOL0     C 2409   9.590   4.295   3.503  1.0838  1.0471 -0.4719
   18MOL0     C 2410   9.615   4.389   3.605  0.0149 -0.4876  0.1896
   18MOL0     C 2411   9.629   4.485   3.681 -0.5710 -0.0720  0.4859
   18MOL0     C 2412   9.333   3.962   3.116  0.0934 -0.6689 -1.0685
   18MOL0     C 2413   9.382   3.846   3.058 -0.3729 -0.1872 -0.4611
   18MOL0     C 2414   9.327   3.723   3.116 -0.5095  0.8849  0.1431
   18MOL0     H 2415   9.764   3.593   2.763 -1.8822 -0.2905 -0.5526
   18MOL0     H 2416   9.889   3.392   2.747  0.6824 -2.1561  0.3764
   18MOL0     H 2417   9.915   3.168   2.672 -1.1579  3.9021  1.9002
   18MOL0     H 2418   9.756   3.078   2.675  0.5388 -3.3824  2.4461
   18MOL0     H 2419   9.849   2.897   2.802  0.8348 -2.5949 -2.8003
   18MOL0     H 2420   9.914   2.917   2.641  1.3124  0.1350  0.1498
   18MOL0     H 2421  10.129   3.002   2.728 -0.7614 -0.5784 -1.6178
   18MOL0     H 2422  10.070   3.026   2.881  1.4643 -0.7574  1.3004
   18MOL0     H 2423  10.041   2.762   2.864 -0.5894 -1.2178 -2.1652
   18MOL0     H 2424  10.116   2.794   2.700  0.6123  1.2062 -0.0735
   18MOL0     H 2425  10.265   2.737   2.920  1.9082  0.9734  0.2655
   18MOL0     H 2426  10.279   2.914   2.897  1.2083  0.0192  0.5594
   18MOL0     H 2427  10.337   2.707   2.667  1.4483 -0.8088 -0.0086
   18MOL0     H 2428  10.363   2.882   2.671  1.5929 -1.8574 -1.8568
   18MOL0     H 2429  10.496   2.709   2.863  1.0298 -0.3060 -0.3322
   18MOL0     H 2430  10.530   2.882   2.847 -0.1725 -0.7754  1.1647
   18MOL0     H 2431  10.630   2.854   2.631  1.0212  0.6575  0.5946
   18MOL0     H 2432  10.715   2.741   2.742 -0.7420  0.1289  0.0968
   18MOL0     H 2433  10.529   2.494   2.759  4.2152 -0.1654  0.9273
   18MOL0     H 2434  10.436   2.291   2.657 -3.1860  1.2697  0.8884
   18MOL0     H 2435  10.511   2.244   2.502 -0.0234 -0.8833  1.1236
   18MOL0     H 2436  10.229   2.382   2.522 -1.6065 -1.5153  0.9877
   18MOL0     H 2437  10.312   2.311   2.381 -2.6721  1.3336 -0.2148
   18MOL0     H 2438  10.277   2.090   2.473  2.7534  3.1355 -3.3105
   18MOL0     H 2439  10.194   2.154   2.622 -0.9401 -0.2827 -0.5640
   18MOL0     H 2440  10.032   2.265   2.471 -2.2493 -1.8565 -0.3924
   18MOL0     H 2441  10.091   2.178   2.330  1.3109 -0.7432  0.3171
   18MOL0     H 2442   9.929   2.031   2.230  1.5534  1.5356  0.8061
   18MOL0     H 2443   9.827   1.743   2.085  0.4535  0.4752 -1.8918
   18MOL0     H 2444   9.959   1.797   1.990  0.1345 -1.4473  0.9033
   18MOL0     H 2445   9.852   1.919   2.046  2.3035  0.0359 -3.7633
   18MOL0     H 2446  10.154   1.331   2.199 -2.1399  0.9147  0.4253
   18MOL0     H 2447  10.186   1.099   2.105  1.3410  1.3509 -0.2225
   18MOL0     H 2448  10.318   0.990   1.727  0.2147 -0.0984 -0.0977
   18MOL0     H 2449  10.337   1.123   1.841 -1.7086  1.7010 -0.7171
   18MOL0     H 2450  10.468   0.962   1.930  0.8678  0.8973  0.0868
   18MOL0     H 2451  10.330   0.932   2.032  0.2474  2.5176 -0.6144
   18MOL0     H 2452  10.406   0.766   1.780 -0.4239 -1.3046  0.0559
   18MOL0     H 2453  10.267   0.750   1.884 -0.6671  3.5294 -1.5241
   18MOL0     H 2454  10.386   0.678   2.068 -2.0945  0.2646 -1.2863
   18MOL0     H 2455  10.538   0.735   2.006 -0.1285 -0.9140 -0.1299
   18MOL0     H 2456  10.528   0.555   1.823  0.3831  2.5003  0.5899
   18MOL0     H 2457  10.565   0.497   1.988 -1.3184 -3.7775 -0.6584
   18MOL0     H 2458  10.303   0.459   1.836 -0.7120  0.2791 -0.6574
   18MOL0     H 2459  10.309   0.455   2.007 -0.0997  3.0437 -1.7945
   18MOL0     H 2460  10.348   0.229   1.956 -0.8386 -2.0124 -3.7351
   18MOL0     H 2461  10.517   0.288   1.952  0.7421  1.5183  0.5570
   18MOL0     H 2462  10.474   0.163   1.761 -0.3674  0.1849 -2.1299
   18MOL0     H 2463  10.496   0.326   1.706  1.9299 -1.8152 -1.2803
   18MOL0     H 2464  10.018   1.219   1.731 -1.0723 -5.3068  0.9969
   18MOL0     H 2465   9.977   1.442   1.822  1.5184 -0.5400  0.3836
   18MOL0     H 2466  10.127   1.641   2.443  2.6641  2.0189 -2.1157
   18MOL0     H 2467  10.100   1.827   2.560 -0.9636 -0.3889 -0.0730
   18MOL0     H 2468   9.600   3.201   3.000  0.4693 -0.2491 -0.3158
   18MOL0     H 2469   9.493   3.403   3.040 -1.2183  2.6963 -0.6570
   18MOL0     H 2470   9.574   3.972   2.802 -1.6138 -0.6463 -1.5282
   18MOL0     H 2471   9.475   4.178   2.906  0.6237 -0.7075  0.2911
   18MOL0     H 2472   9.281   4.342   3.221 -0.6871  1.7333  1.9390
   18MOL0     H 2473   9.264   4.163   3.267  0.8619  1.1991  0.0194
   18MOL0     H 2474   9.539   4.302   3.232  0.8102 -1.6107 -0.6670
   18MOL0     H 2475   9.509   4.153   3.317  1.4204  2.1771  3.7150
   18MOL0     H 2476   9.457   4.429   3.393 -1.3969  0.5054  1.4109
   18MOL0     H 2477   9.371   4.301   3.481 -1.5622  0.5863 -3.2033
   18MOL0     H 2478   9.677   4.285   3.437  1.9795  1.1294  0.6653
   18MOL0     H 2479   9.561   4.195   3.537  0.6112  0.2932 -2.8851
   18MOL0     H 2480   9.641   4.578   3.733  0.9466  0.9383 -1.5090
   18MOL0     H 2481   9.254   3.956   3.191  0.3614 -0.8673 -0.8020
   18MOL0     H 2482   9.370   3.716   3.217  0.7690 -2.3817 -0.5063
   18MOL0     H 2483   9.218   3.728   3.124 -0.8164 -0.5181 -2.2518
   18MOL0     H 2484   9.346   3.637   3.052 -4.2644  1.2372 -1.7147
   19MOL0     O 2485   8.900   4.346   6.900 -0.8304  0.3309  0.1421
   19MOL0     C 2486   8.903   4.250   6.822 -0.5601  0.4109  0.5557
   19MOL0     O 2487   8.847   4.127   6.850  0.2872 -0.1317 -0.2468
   19MOL0     C 2488   8.792   4.101   6.970 -0.4345 -1.0004 -0.7561
   19MOL0     C 2489   8.666   4.149   7.009  0.5304  0.0445 -0.0246
   19MOL0     C 2490   8.623   4.126   7.143 -0.0231 -0.4106  0.7317
   19MOL0     C 2491   8.700   4.050   7.237  0.4735 -1.0255 -0.4713
   19MOL0     O 2492   8.639   4.037   7.363 -0.5586 -0.4013 -0.3349
   19MOL0     C 2493   8.727   4.030   7.485  0.1789  0.5798  1.5199
   19MOL0     C 2494   8.649   4.084   7.607  1.1996  0.9008 -0.7103
   19MOL0     C 2495   8.554   3.973   7.650  0.1552  0.7441  0.2436
   19MOL0     C 2496   8.487   4.008   7.783 -0.9625  0.5328 -0.4346
   19MOL0     C 2497   8.397   3.896   7.827 -0.4752 -0.0860  0.2619
   19MOL0     C 2498   8.368   3.885   7.985 -0.0798 -0.6196  0.6695
   19MOL0     C 2499   8.288   4.004   8.046  0.0459 -0.8081  0.2752
   19MOL0     C 2500   8.160   4.043   7.978  1.0670  0.3728 -1.0140
   19MOL0     N 2501   8.105   4.178   8.030 -0.3228  0.5515  0.8292
   19MOL0     C 2502   8.153   4.301   7.993  0.1751  0.5324  0.5282
   19MOL0     C 2503   8.098   4.395   8.075 -0.3466  0.8610 -0.5596
   19MOL0     C 2504   8.128   4.540   8.060  0.5293 -0.6152  1.0640
   19MOL0     C 2505   8.166   4.590   7.922 -0.8272 -0.3866  0.0393
   19MOL0     C 2506   8.197   4.742   7.908 -0.0586  0.5297 -0.3649
   19MOL0     C 2507   8.228   4.799   7.772  0.1596  0.2173 -0.1170
   19MOL0     O 2508   8.352   4.748   7.723 -0.2716 -0.7349  0.3622
   19MOL0     C 2509   8.468   4.819   7.750  0.2709 -0.5165  0.2760
   19MOL0     C 2510   8.483   4.894   7.862 -1.3360 -1.5186 -0.2164
   19MOL0     C 2511   8.605   4.963   7.894 -0.3619 -0.3459 -0.0060
   19MOL0     C 2512   8.621   5.024   8.028 -0.3200 -0.3220  0.0246
   19MOL0     C 2513   8.711   4.961   7.805 -0.2735  0.0628  0.1537
   19MOL0     C 2514   8.850   5.033   7.821  0.3561  0.2862 -0.3771
   19MOL0     O 2515   8.931   5.029   7.717  0.6387  0.5839 -0.0394
   19MOL0     C 2516   9.012   5.140   7.692 -0.8199  0.0532  0.2034
   19MOL0     C 2517   9.099   5.123   7.584  0.1152 -0.1529 -0.0269
   19MOL0     C 2518   9.149   5.246   7.524  0.9378 -0.6537 -0.6086
   19MOL0     C 2519   9.119   5.373   7.585 -0.8239 -0.2420  0.5631
   19MOL0     O 2520   9.150   5.496   7.514 -0.5416  0.3764 -0.0443
   19MOL0     C 2521   9.094   5.616   7.551  0.1599 -0.1565  0.1123
   19MOL0     C 2522   9.142   5.721   7.441 -0.7805 -0.3836 -0.0906
   19MOL0     C 2523   9.291   5.750   7.435  0.1282  0.4159  0.5531
   19MOL0     C 2524   9.359   5.687   7.316  0.1227 -0.2639  0.0020
   19MOL0     C 2525   9.505   5.733   7.305  0.5898  0.5536 -0.3394
   19MOL0     C 2526   9.607   5.716   7.423  0.3571  0.0211 -0.4028
   19MOL0     C 2527   9.607   5.812   7.534  0.1439 -0.7552  0.1008
   19MOL0     C 2528   9.609   5.750   7.677 -0.0513  0.6825 -0.2172
   19MOL0    Cl 2529   9.573   5.882   7.803  0.0743 -0.0982 -0.3375
   19MOL0     C 2530   9.049   5.376   7.700 -0.4266 -0.1802  0.5844
   19MOL0     C 2531   8.996   5.260   7.754  0.0372 -0.7799  0.2249
   19MOL0     O 2532   8.880   5.069   7.936 -0.4674  0.1104 -0.3875
   19MOL0     C 2533   8.689   4.892   7.680  0.1446  0.5105  0.5979
   19MOL0     C 2534   8.567   4.825   7.653  0.4774  0.1628  0.1756
   19MOL0     N 2535   8.026   4.328   8.169  1.4279 -0.5180 -0.0834
   19MOL0     N 2536   8.025   4.200   8.141 -0.1883 -0.3190 -0.1201
   19MOL0     C 2537   8.825   3.994   7.192  0.9986 -0.7577 -0.4969
   19MOL0     C 2538   8.868   4.022   7.055 -0.1328  1.3968 -0.6840
   19MOL0     C 2539   8.975   4.264   6.690 -0.1857 -0.0649 -0.1471
   19MOL0     C 2540   9.013   4.390   6.640 -0.0831 -0.1182  0.2807
   19MOL0     C 2541   9.068   4.402   6.509 -0.5724 -0.4909 -0.8240
   19MOL0     C 2542   9.103   4.299   6.434  0.2569  0.8758  0.2898
   19MOL0     O 2543   9.163   4.332   6.316  0.2806 -0.1720  0.2700
   19MOL0     C 2544   9.204   4.219   6.236 -0.2088 -1.1646  0.4035
   19MOL0     C 2545   9.086   4.166   6.164 -0.4613 -0.5020 -0.0114
   19MOL0     C 2546   9.042   4.271   6.062 -0.4452  1.0513  1.1602
   19MOL0     C 2547   9.124   4.264   5.923  0.3764  0.5489 -0.2517
   19MOL0     C 2548   9.032   4.320   5.817 -0.3203 -0.1047 -0.0736
   19MOL0     C 2549   8.937   4.352   5.748 -1.6535 -0.4269 -0.8249
   19MOL0     C 2550   9.074   4.167   6.485  0.8051 -0.0738 -0.4706
   19MOL0     C 2551   8.994   4.157   6.598  0.4658  1.1906  0.0086
   19MOL0     C 2552   8.938   4.017   6.618  0.2909  0.4870 -0.6937
   19MOL0     H 2553   8.610   4.207   6.935  0.3183 -2.2733 -1.7947
   19MOL0     H 2554   8.526   4.164   7.171 -0.2832  0.0937 -0.7512
   19MOL0     H 2555   8.803   4.104   7.460  0.8633 -0.3871  0.6797
   19MOL0     H 2556   8.767   3.930   7.501 -1.0858 -0.3853 -0.8426
   19MOL0     H 2557   8.711   4.102   7.694  2.4574 -3.9214 -0.3260
   19MOL0     H 2558   8.581   4.166   7.581  0.9573  2.3012  3.5721
   19MOL0     H 2559   8.471   3.971   7.580  1.7652  4.8980 -2.1436
   19MOL0     H 2560   8.611   3.879   7.658  3.9266  2.8931  0.9097
   19MOL0     H 2561   8.571   4.019   7.853 -0.8259 -0.8193 -0.3686
   19MOL0     H 2562   8.439   4.106   7.781  0.8897  1.6319  2.3817
   19MOL0     H 2563   8.430   3.800   7.786 -1.8713  0.2056 -1.7286
   19MOL0     H 2564   8.301   3.908   7.775  0.8683 -1.4563 -2.8149
   19MOL0     H 2565   8.316   3.791   8.004  0.4984 -0.8219  1.3315
   19MOL0     H 2566   8.464   3.884   8.038 -0.8556 -1.7945  2.1364
   19MOL0     H 2567   8.355   4.089   8.028 -1.1483  0.3888  1.2663
   19MOL0     H 2568   8.270   3.991   8.153  1.6816 -3.8179  0.2938
   19MOL0     H 2569   8.151   4.041   7.869 -2.3807  0.8618 -0.8684
   19MOL0     H 2570   8.091   3.966   8.013  2.1002 -0.9494 -1.8055
   19MOL0     H 2571   8.211   4.327   7.905  0.6778  1.0087  0.9928
   19MOL0     H 2572   8.201   4.567   8.137  2.8552 -3.8990  0.2325
   19MOL0     H 2573   8.033   4.586   8.087  0.2735 -0.8642  0.6028
   19MOL0     H 2574   8.241   4.532   7.867 -3.0009 -0.4520 -3.1736
   19MOL0     H 2575   8.077   4.574   7.860 -0.6882  2.9577 -1.1947
   19MOL0     H 2576   8.102   4.795   7.927  0.5128  1.0080  1.3497
   19MOL0     H 2577   8.273   4.765   7.984 -0.7859  0.7438  0.3210
   19MOL0     H 2578   8.141   4.774   7.711  0.9507 -1.4457 -0.6403
   19MOL0     H 2579   8.235   4.908   7.781 -1.6526  0.2864  0.8494
   19MOL0     H 2580   8.413   4.900   7.945 -0.3827  1.9873  0.5160
   19MOL0     H 2581   8.697   4.961   8.075 -2.4860 -2.6210  0.6400
   19MOL0     H 2582   8.523   5.009   8.073 -1.1603 -1.2514 -1.9909
   19MOL0     H 2583   8.640   5.132   8.025 -3.0373  0.2380  0.7756
   19MOL0     H 2584   9.114   5.030   7.530  0.8104 -1.3834  2.1661
   19MOL0     H 2585   9.207   5.255   7.433  0.1295 -3.4170 -1.4869
   19MOL0     H 2586   8.987   5.615   7.575  0.4350  1.0790  1.5216
   19MOL0     H 2587   9.147   5.655   7.639  0.9028 -0.4071 -0.2195
   19MOL0     H 2588   9.095   5.708   7.343  1.0628  2.1196 -1.4220
   19MOL0     H 2589   9.096   5.808   7.488 -1.4340 -1.1401  0.7133
   19MOL0     H 2590   9.342   5.723   7.528  0.6526  1.2308  0.5144
   19MOL0     H 2591   9.297   5.859   7.426  0.2004  0.3182 -0.8865
   19MOL0     H 2592   9.305   5.721   7.227  0.0014 -0.7617 -0.1140
   19MOL0     H 2593   9.340   5.580   7.322  0.4674 -0.2822  0.9982
   19MOL0     H 2594   9.547   5.689   7.214  1.2495 -1.5822  0.9183
   19MOL0     H 2595   9.498   5.842   7.293 -0.6686  0.5574  0.3047
   19MOL0     H 2596   9.704   5.721   7.372 -0.0718  0.4251 -1.1837
   19MOL0     H 2597   9.586   5.619   7.468 -1.6365  2.0202  3.5808
   19MOL0     H 2598   9.515   5.871   7.545  0.5739 -0.5832  4.3202
   19MOL0     H 2599   9.695   5.875   7.528  1.1835 -2.2452 -1.1845
   19MOL0     H 2600   9.711   5.712   7.691 -1.3540 -1.9597  4.1997
   19MOL0     H 2601   9.531   5.674   7.683 -0.3630  0.8714 -1.4716
   19MOL0     H 2602   9.036   5.475   7.743  1.6073  0.1935  0.4709
   19MOL0     H 2603   8.942   5.285   7.846  0.3641  4.2900 -0.6577
   19MOL0     H 2604   8.766   4.871   7.606  1.1204 -0.2292  1.7724
   19MOL0     H 2605   8.552   4.766   7.563 -0.2704 -0.6660  0.8215
   19MOL0     H 2606   8.881   3.921   7.249  0.4809  0.6160  1.8685
   19MOL0     H 2607   8.963   3.986   7.018  0.6496  1.5645  1.0873
   19MOL0     H 2608   9.007   4.489   6.684  2.8253  0.7444 -0.9992
   19MOL0     H 2609   9.090   4.498   6.464  2.9525 -2.0052 -2.7545
   19MOL0     H 2610   9.289   4.248   6.173  0.9733 -2.1579  1.4844
   19MOL0     H 2611   9.248   4.135   6.291  2.5181 -0.3714 -0.3875
   19MOL0     H 2612   8.994   4.153   6.220 -0.8192  1.0972 -0.1780
   19MOL0     H 2613   9.121   4.075   6.115  1.1226  0.1546 -0.1605
   19MOL0     H 2614   8.935   4.252   6.048 -0.5937  0.0620  3.2208
   19MOL0     H 2615   9.053   4.372   6.103  1.4069  2.0327 -1.4786
   19MOL0     H 2616   9.139   4.160   5.895 -0.3695  0.2379  0.4646
   19MOL0     H 2617   9.214   4.325   5.923  0.3935  0.5305  0.1000
   19MOL0     H 2618   8.861   4.380   5.679 -2.3509 -1.4284 -0.4816
   19MOL0     H 2619   9.084   4.075   6.427 -2.5237  0.6886 -2.5631
   19MOL0     H 2620   8.971   3.963   6.708 -2.1151  1.6471  0.9925
   19MOL0     H 2621   8.831   4.033   6.630  0.3927  0.3015  0.5825
   19MOL0     H 2622   8.962   3.945   6.540  1.3210 -0.5851  0.5574
   20MOL0     O 2623   2.555   4.265   0.838  0.2040  0.0746 -0.5838
   20MOL0     C 2624   2.648   4.199   0.786  0.4542  0.5095  0.2459
   20MOL0     O 2625   2.696   4.085   0.843 -0.6119  0.2486 -0.2204
   20MOL0     C 2626   2.701   4.055   0.981 -0.1459  1.0430 -0.6311
   20MOL0     C 2627   2.741   3.924   1.016 -0.7766  0.0504  0.6009
   20MOL0     C 2628   2.763   3.888   1.148  0.1392  0.0928  0.6235
   20MOL0     C 2629   2.731   3.974   1.255  0.3918  0.1959  1.0123
   20MOL0     O 2630   2.731   3.921   1.383 -0.6158  0.3796  0.2025
   20MOL0     C 2631   2.635   3.974   1.482 -0.1407 -0.1855 -0.1144
   20MOL0     C 2632   2.656   3.922   1.620  0.1884  0.2700 -0.2962
   20MOL0     C 2633   2.558   3.991   1.712  0.1243  1.0360  0.1910
   20MOL0     C 2634   2.412   3.979   1.678 -0.7341 -0.1201 -0.1444
   20MOL0     C 2635   2.323   4.065   1.769 -0.3974 -0.0137 -0.1289
   20MOL0     C 2636   2.286   4.010   1.912 -0.3118 -1.0221  0.3117
   20MOL0     C 2637   2.166   4.079   1.985 -0.3890 -0.0362 -0.2333
   20MOL0     C 2638   2.031   4.073   1.912  0.3868 -0.3380  0.0483
   20MOL0     N 2639   2.004   4.171   1.799  0.2489  0.1430 -0.4058
   20MOL0     C 2640   2.059   4.297   1.798 -0.2589  0.7855  0.0588
   20MOL0     C 2641   2.002   4.346   1.686 -0.4811 -0.5238 -0.2802
   20MOL0     C 2642   2.053   4.470   1.623 -0.1049  0.4994 -1.7898
   20MOL0     C 2643   2.087   4.450   1.474 -0.0664 -0.0625 -0.6263
   20MOL0     C 2644   2.203   4.343   1.452  0.2392 -0.0087  0.5733
   20MOL0     C 2645   2.208   4.302   1.301  0.3965 -0.7836  0.2825
   20MOL0     O 2646   2.111   4.208   1.274  0.8301 -0.1160  0.1820
   20MOL0     C 2647   2.145   4.074   1.306  0.6123 -0.0898 -0.0404
   20MOL0     C 2648   2.069   4.018   1.408  0.2550  0.3306  0.5965
   20MOL0     C 2649   2.086   3.889   1.462 -0.5985 -1.1287  0.4888
   20MOL0     C 2650   1.988   3.830   1.563 -0.5380  0.0957 -0.9273
   20MOL0     C 2651   2.201   3.824   1.415 -0.5343 -0.4575  1.1890
   20MOL0     C 2652   2.264   3.696   1.470 -1.0199  0.5151 -0.3179
   20MOL0     O 2653   2.393   3.671   1.455 -0.3194  0.8906  0.8452
   20MOL0     C 2654   2.466   3.580   1.538 -0.2604 -0.7092 -1.1041
   20MOL0     C 2655   2.411   3.505   1.644 -0.9612  0.9689 -0.1521
   20MOL0     C 2656   2.483   3.404   1.707  0.1280  0.0722 -0.0490
   20MOL0     C 2657   2.617   3.398   1.690  0.0010 -0.0759  0.2082
   20MOL0     O 2658   2.689   3.305   1.763  0.2794  0.4550 -0.4536
   20MOL0     C 2659   2.677   3.173   1.700  0.4026  0.1380 -0.9084
   20MOL0     C 2660   2.794   3.086   1.717 -0.0816  0.3699 -0.0258
   20MOL0     C 2661   2.834   3.039   1.861 -0.0317 -0.5827  0.0032
   20MOL0     C 2662   2.947   2.936   1.865 -0.0357  0.0252  0.2864
   20MOL0     C 2663   2.895   2.788   1.867  0.2082  0.3780  0.3568
   20MOL0     C 2664   3.011   2.690   1.862  1.1824 -0.6854  0.0397
   20MOL0     C 2665   3.083   2.696   1.727  0.6653  0.3882  0.0197
   20MOL0     C 2666   3.237   2.732   1.740 -0.0005  0.2825  0.4082
   20MOL0    Cl 2667   3.341   2.651   1.620 -0.1132 -0.5580 -0.6313
   20MOL0     C 2668   2.680   3.485   1.605  0.7328 -0.7692  0.3554
   20MOL0     C 2669   2.609   3.568   1.519  0.3392  0.2734  0.3851
   20MOL0     O 2670   2.187   3.623   1.533  0.5264  0.5993  0.8439
   20MOL0     C 2671   2.275   3.877   1.305 -0.5461  0.8424  1.5008
   20MOL0     C 2672   2.256   4.006   1.255  0.6445  0.2961  0.8226
   20MOL0     N 2673   1.927   4.244   1.628  0.6110 -0.0145  0.7204
   20MOL0     N 2674   1.920   4.139   1.700 -0.0324  0.1737  0.1705
   20MOL0     C 2675   2.682   4.103   1.230 -0.2937  0.4104 -0.2942
   20MOL0     C 2676   2.684   4.141   1.089 -0.1705 -0.3545  0.9072
   20MOL0     C 2677   2.693   4.223   0.644  0.6307 -0.1150  0.4144
   20MOL0     C 2678   2.591   4.259   0.548  0.1893  0.0127 -0.1569
   20MOL0     C 2679   2.627   4.289   0.418  0.5541  0.5325  0.5832
   20MOL0     C 2680   2.757   4.286   0.373  0.8963  0.0114 -0.0629
   20MOL0     O 2681   2.785   4.293   0.242 -0.2023  0.5482 -0.2254
   20MOL0     C 2682   2.679   4.253   0.150 -0.9466  0.4691  0.0557
   20MOL0     C 2683   2.742   4.223   0.009 -0.4489 -0.8233  0.3625
   20MOL0     C 2684   2.637   4.190  -0.101  0.1132  0.2738 -0.3540
   20MOL0     C 2685   2.707   4.211  -0.237  0.1557 -0.1529 -0.3056
   20MOL0     C 2686   2.821   4.124  -0.253 -0.2385  0.7136 -0.1722
   20MOL0     C 2687   2.927   4.059  -0.260  0.7282  1.2289  0.2730
   20MOL0     C 2688   2.858   4.264   0.467 -0.1785  0.8810 -0.8644
   20MOL0     C 2689   2.823   4.223   0.596  0.2642 -0.4475  0.2724
   20MOL0     C 2690   2.947   4.182   0.683  0.3431  0.3170 -0.0586
   20MOL0     H 2691   2.755   3.846   0.941 -1.6224 -0.6914  1.1938
   20MOL0     H 2692   2.776   3.782   1.165 -0.4397 -0.4815 -2.0731
   20MOL0     H 2693   2.534   3.964   1.443  0.1712 -2.8586 -0.4291
   20MOL0     H 2694   2.665   4.077   1.507 -1.3562 -0.3996  2.5556
   20MOL0     H 2695   2.639   3.814   1.626  1.2098  0.1378  0.3749
   20MOL0     H 2696   2.757   3.950   1.652 -0.2387  2.3455 -0.5632
   20MOL0     H 2697   2.571   3.949   1.811  0.2479 -1.0914 -0.6870
   20MOL0     H 2698   2.590   4.096   1.723  0.4838  1.0579 -0.8838
   20MOL0     H 2699   2.399   4.027   1.581 -0.3880  1.0743  0.3823
   20MOL0     H 2700   2.379   3.875   1.668  3.5779 -1.5803 -1.5569
   20MOL0     H 2701   2.227   4.066   1.716 -1.1524 -2.9748  0.9502
   20MOL0     H 2702   2.363   4.166   1.774  0.7935 -0.5153  2.1309
   20MOL0     H 2703   2.279   3.901   1.909 -1.4515 -0.9566  0.3101
   20MOL0     H 2704   2.371   4.047   1.969  0.5519  1.2621 -2.2678
   20MOL0     H 2705   2.195   4.184   1.980  0.6265 -0.2971 -0.0519
   20MOL0     H 2706   2.157   4.042   2.088 -0.6235 -2.6392 -1.1103
   20MOL0     H 2707   2.005   3.971   1.880 -1.2981  0.3235 -0.8438
   20MOL0     H 2708   1.961   4.101   1.991  3.0871  2.8396  1.5445
   20MOL0     H 2709   2.140   4.337   1.858 -1.1239  1.4329  0.8277
   20MOL0     H 2710   2.129   4.522   1.682  0.1344 -0.6167 -1.0979
   20MOL0     H 2711   1.962   4.531   1.623  0.6425  1.6480 -0.9207
   20MOL0     H 2712   2.006   4.415   1.409 -0.5179 -4.0900  1.7516
   20MOL0     H 2713   2.119   4.546   1.434  4.4566 -1.1560 -0.2070
   20MOL0     H 2714   2.291   4.402   1.481  2.2964 -2.7899  0.3367
   20MOL0     H 2715   2.188   4.254   1.513 -1.3485  0.6380  1.1873
   20MOL0     H 2716   2.182   4.388   1.239  0.9601  0.8138  2.1380
   20MOL0     H 2717   2.307   4.267   1.270  1.2771  2.7125 -1.4475
   20MOL0     H 2718   1.982   4.074   1.440 -0.2528  1.5279 -2.4699
   20MOL0     H 2719   1.899   3.891   1.579  0.5372  0.9832  2.5350
   20MOL0     H 2720   2.034   3.830   1.662 -2.9655  1.2144  0.2936
   20MOL0     H 2721   1.947   3.732   1.535 -1.3863  0.8889 -2.5838
   20MOL0     H 2722   2.309   3.501   1.681 -1.7409  0.1355 -2.2265
   20MOL0     H 2723   2.422   3.344   1.774 -1.2706 -0.9605 -2.1310
   20MOL0     H 2724   2.587   3.134   1.748 -0.9279  4.0183  0.0963
   20MOL0     H 2725   2.655   3.170   1.593 -0.0725 -0.3030 -0.8029
   20MOL0     H 2726   2.782   2.991   1.664 -0.4682  0.6369 -0.4163
   20MOL0     H 2727   2.867   3.151   1.668 -3.4443  5.8989  1.4817
   20MOL0     H 2728   2.744   2.999   1.909 -0.4606 -0.8279 -0.9828
   20MOL0     H 2729   2.858   3.133   1.911 -1.8623  1.1900 -2.2097
   20MOL0     H 2730   3.006   2.946   1.957  0.1770 -1.1041  0.2831
   20MOL0     H 2731   3.024   2.960   1.791 -0.2666  0.6864  0.2556
   20MOL0     H 2732   2.840   2.766   1.959 -1.6250  0.6334 -0.6289
   20MOL0     H 2733   2.826   2.764   1.786  1.7594  1.9777 -1.5319
   20MOL0     H 2734   2.960   2.594   1.866 -2.1865  0.9282 -0.4788
   20MOL0     H 2735   3.076   2.705   1.948  0.3008 -1.3810  0.8377
   20MOL0     H 2736   3.032   2.771   1.666 -0.7571  1.4219  2.3236
   20MOL0     H 2737   3.061   2.596   1.688 -0.5934 -0.0464  1.7314
   20MOL0     H 2738   3.271   2.711   1.842 -1.2558 -0.9238  0.6000
   20MOL0     H 2739   3.255   2.839   1.728 -1.0161  0.1566 -3.8145
   20MOL0     H 2740   2.788   3.477   1.603  0.8946 -1.4947 -5.5095
   20MOL0     H 2741   2.653   3.630   1.442  0.5632  2.1008  1.8938
   20MOL0     H 2742   2.363   3.840   1.252  0.2942  2.1353  1.9412
   20MOL0     H 2743   2.322   4.043   1.178  0.2099  1.1646  0.8587
   20MOL0     H 2744   2.669   4.180   1.306  1.8991  0.7734 -0.2171
   20MOL0     H 2745   2.659   4.245   1.075  1.2567 -0.2100 -0.8311
   20MOL0     H 2746   2.489   4.280   0.577 -0.4041  0.9165 -2.6924
   20MOL0     H 2747   2.535   4.306   0.362 -1.1674 -0.1616  3.0326
   20MOL0     H 2748   2.635   4.157   0.177  2.6780 -1.3616  0.0722
   20MOL0     H 2749   2.603   4.332   0.155 -2.0546 -0.5351 -0.4035
   20MOL0     H 2750   2.806   4.137   0.030 -2.2826 -1.8717  2.0498
   20MOL0     H 2751   2.802   4.308  -0.026  0.0473 -2.1796 -2.3019
   20MOL0     H 2752   2.614   4.084  -0.094  1.8093 -0.0824  0.2390
   20MOL0     H 2753   2.542   4.243  -0.099 -1.7246 -2.5409 -3.5063
   20MOL0     H 2754   2.737   4.316  -0.245 -0.7593  0.1097 -0.5201
   20MOL0     H 2755   2.639   4.194  -0.322 -0.4268  0.4802  0.0242
   20MOL0     H 2756   3.025   4.017  -0.267  0.5007  0.6862  0.3297
   20MOL0     H 2757   2.962   4.272   0.438  1.2376  4.1906  3.9148
   20MOL0     H 2758   3.034   4.248   0.685  2.0024 -1.7894  1.3293
   20MOL0     H 2759   2.919   4.167   0.788  3.7496 -1.9592  0.6716
   20MOL0     H 2760   2.996   4.089   0.653  1.2995  1.1942 -1.2719
   21MOL0     O 2761  10.529  10.048  10.071  0.2444 -0.1842 -0.4338
   21MOL0     C 2762  10.558  10.158  10.021 -0.7979  0.5309 -0.4825
   21MOL0     O 2763  10.662  10.234  10.072 -0.1920 -0.2674  0.8732
   21MOL0     C 2764  10.753  10.182  10.159 -1.0353  0.3973  0.1851
   21MOL0     C 2765  10.698  10.126  10.272 -0.2049 -0.3608 -0.6577
   21MOL0     C 2766  10.780  10.073  10.368 -0.0514  0.5722  0.3023
   21MOL0     C 2767  10.921  10.070  10.358 -0.6159 -0.3035 -0.2304
   21MOL0     O 2768  11.014  10.011  10.442 -0.1212  0.0098 -0.3502
   21MOL0     C 2769  10.979   9.968  10.572  0.5382 -0.1445 -0.4582
   21MOL0     C 2770  11.091   9.883  10.638 -0.1744  0.7870  0.9417
   21MOL0     C 2771  11.218   9.963  10.679 -0.7004  0.2328  0.2474
   21MOL0     C 2772  11.199  10.053  10.807  0.3675 -0.2173  0.1717
   21MOL0     C 2773  11.340  10.110  10.857  0.7836  0.5430  0.3880
   21MOL0     C 2774  11.323  10.216  10.965  0.2074  0.6178 -0.7953
   21MOL0     C 2775  11.451  10.252  11.033  0.2225 -0.5343 -0.5808
   21MOL0     C 2776  11.577  10.271  10.949 -0.2560  0.3894  0.4166
   21MOL0     N 2777  11.688  10.302  11.037  0.7497 -0.7409  0.2394
   21MOL0     C 2778  11.742  10.426  11.051  0.3652  0.2567 -0.2994
   21MOL0     C 2779  11.815  10.420  11.171  1.4183 -0.5243  0.3828
   21MOL0     C 2780  11.887  10.536  11.241  0.3011 -0.5748 -0.3331
   21MOL0     C 2781  11.986  10.474  11.350 -0.0703  0.6542 -0.5098
   21MOL0     C 2782  12.083  10.579  11.382 -0.4763  0.0902 -0.2986
   21MOL0     C 2783  12.027  10.699  11.460 -0.3106 -0.1781 -0.1026
   21MOL0     O 2784  11.963  10.666  11.583 -0.0706 -0.1888 -0.0179
   21MOL0     C 2785  12.020  10.690  11.705 -0.0120 -0.7068 -0.1020
   21MOL0     C 2786  12.094  10.798  11.740 -1.0175 -0.2611 -1.0688
   21MOL0     C 2787  12.147  10.818  11.878  0.2717 -0.1129 -0.3894
   21MOL0     C 2788  12.255  10.923  11.893  0.3850 -1.1576 -0.4589
   21MOL0     C 2789  12.125  10.715  11.969 -0.4955 -0.3545 -0.3641
   21MOL0     C 2790  12.166  10.724  12.112 -0.1664  0.2136 -0.3756
   21MOL0     O 2791  12.183  10.606  12.174 -0.5732 -0.2804 -0.4560
   21MOL0     C 2792  12.169  10.593  12.309 -0.5211  0.1954  0.1577
   21MOL0     C 2793  12.235  10.673  12.398  0.2277  0.3482  0.1058
   21MOL0     C 2794  12.209  10.658  12.533  0.1195  0.0904 -0.5997
   21MOL0     C 2795  12.125  10.561  12.585 -0.9549 -0.7696  0.3813
   21MOL0     O 2796  12.087  10.550  12.713  0.3938  0.8029 -0.5874
   21MOL0     C 2797  12.025  10.672  12.758 -1.1374 -0.4300 -0.0888
   21MOL0     C 2798  12.096  10.780  12.840 -0.5557 -0.0977  0.2433
   21MOL0     C 2799  12.175  10.715  12.964 -0.3069 -0.5868  0.1758
   21MOL0     C 2800  12.151  10.779  13.103  0.0317  0.0451 -0.3831
   21MOL0     C 2801  12.237  10.899  13.135  0.4151 -0.3541 -0.2204
   21MOL0     C 2802  12.203  11.014  13.042  0.1389 -0.6465  0.5565
   21MOL0     C 2803  12.291  11.137  13.096  0.2618  0.2994 -0.4634
   21MOL0     C 2804  12.244  11.270  13.053 -0.3443 -0.4154 -0.1513
   21MOL0    Cl 2805  12.231  11.269  12.874 -0.1743 -0.0369 -0.1442
   21MOL0     C 2806  12.071  10.466  12.495 -0.0994  0.1261  0.3583
   21MOL0     C 2807  12.097  10.481  12.358  0.2119  0.1100  0.3163
   21MOL0     O 2808  12.145  10.830  12.178 -0.1285  0.3243 -0.4322
   21MOL0     C 2809  12.047  10.606  11.923 -0.2046 -0.6146 -0.2879
   21MOL0     C 2810  11.997  10.590  11.794  0.0923 -1.2962  0.0959
   21MOL0     N 2811  11.794  10.293  11.224 -0.2659 -0.4326 -0.8332
   21MOL0     N 2812  11.732  10.223  11.137  0.2865  2.0726  0.8105
   21MOL0     C 2813  10.976  10.146  10.245  0.2211  0.1600 -0.5546
   21MOL0     C 2814  10.888  10.196  10.145 -0.4680  0.0968 -0.0691
   21MOL0     C 2815  10.460  10.210   9.911  1.0338 -0.2672 -0.2131
   21MOL0     C 2816  10.468  10.359   9.894 -0.1510 -0.3494  0.3159
   21MOL0     C 2817  10.391  10.423   9.794  0.8142 -0.2636  0.0507
   21MOL0     C 2818  10.300  10.347   9.720  0.2650 -0.3044  0.0403
   21MOL0     O 2819  10.201  10.399   9.640 -0.2186 -0.4514 -0.3729
   21MOL0     C 2820  10.160  10.534   9.678  0.1322  0.3475 -0.3171
   21MOL0     C 2821  10.010  10.537   9.643 -0.0233  0.7428  0.2667
   21MOL0     C 2822   9.924  10.638   9.718 -0.3141 -0.3568  0.2949
   21MOL0     C 2823   9.805  10.698   9.644  0.3671  0.7853 -0.0166
   21MOL0     C 2824   9.724  10.581   9.604 -0.2420  0.2609  0.0037
   21MOL0     C 2825   9.659  10.486   9.575 -0.0035  0.1252 -0.7948
   21MOL0     C 2826  10.292  10.208   9.739  1.2606 -1.2310  0.3278
   21MOL0     C 2827  10.378  10.137   9.823 -0.3008  0.3778  0.9993
   21MOL0     C 2828  10.358   9.987   9.821 -1.0191  0.3692 -0.9649
   21MOL0     H 2829  10.591  10.131  10.289  0.2735  0.2545  2.8667
   21MOL0     H 2830  10.736  10.046  10.464  2.4401 -1.1216  1.0490
   21MOL0     H 2831  10.884   9.916  10.584  1.1392 -0.6408  4.0011
   21MOL0     H 2832  10.969  10.056  10.637  1.1654 -1.4166  1.4609
   21MOL0     H 2833  11.055   9.834  10.729 -1.3361 -0.3468 -0.0906
   21MOL0     H 2834  11.108   9.803  10.565  1.3568  0.4042  1.6627
   21MOL0     H 2835  11.288   9.881  10.699 -0.3246  0.4870 -0.0341
   21MOL0     H 2836  11.260  10.023  10.598  3.2475 -2.5140  0.0019
   21MOL0     H 2837  11.126  10.131  10.783 -1.8835 -2.1642  0.2653
   21MOL0     H 2838  11.163   9.986  10.886  0.5328 -1.4957 -0.8044
   21MOL0     H 2839  11.393  10.151  10.771  0.1528 -0.9442 -0.7564
   21MOL0     H 2840  11.399  10.028  10.900 -2.8974 -2.2058  0.7452
   21MOL0     H 2841  11.271  10.303  10.924 -0.2899  0.3046 -0.8368
   21MOL0     H 2842  11.260  10.182  11.048  2.6467 -0.1129  0.8538
   21MOL0     H 2843  11.477  10.178  11.109  0.3776 -0.9655 -1.0433
   21MOL0     H 2844  11.422  10.351  11.068 -2.8564 -1.7186  0.6185
   21MOL0     H 2845  11.608  10.191  10.882  0.8488  0.2003  1.1182
   21MOL0     H 2846  11.556  10.352  10.879  0.8764 -0.5729 -1.1006
   21MOL0     H 2847  11.716  10.515  10.993  0.3285  0.0317 -0.6302
   21MOL0     H 2848  11.817  10.603  11.291 -2.1009 -1.6484 -2.0740
   21MOL0     H 2849  11.941  10.589  11.161  0.0237  1.6297  0.8728
   21MOL0     H 2850  11.935  10.446  11.443 -0.1701 -1.5870 -1.1814
   21MOL0     H 2851  12.031  10.385  11.305 -3.6304 -0.0357 -3.0648
   21MOL0     H 2852  12.165  10.547  11.447  0.8103  1.8722 -0.9742
   21MOL0     H 2853  12.140  10.607  11.293  0.5999  0.5388  0.5182
   21MOL0     H 2854  12.088  10.789  11.472 -0.1423 -0.3604  0.4666
   21MOL0     H 2855  11.951  10.739  11.393 -1.1184 -0.5693  0.5716
   21MOL0     H 2856  12.129  10.880  11.679  0.6756 -0.2947 -0.1962
   21MOL0     H 2857  12.207  11.020  11.909 -0.6938 -1.7041 -0.3029
   21MOL0     H 2858  12.314  10.943  11.803  1.2373  4.5123  0.9985
   21MOL0     H 2859  12.317  10.919  11.983 -0.2252  3.0063  0.3552
   21MOL0     H 2860  12.301  10.751  12.363  1.9483 -0.7856  0.7100
   21MOL0     H 2861  12.253  10.721  12.609  0.6373 -0.3996 -0.4805
   21MOL0     H 2862  11.967  10.714  12.675 -0.1770  0.0053 -0.5544
   21MOL0     H 2863  11.963  10.628  12.837  1.7977  1.3735  3.5210
   21MOL0     H 2864  12.177  10.818  12.776 -0.0148 -1.1489  0.2841
   21MOL0     H 2865  12.028  10.862  12.862 -0.4528  0.7658 -2.3241
   21MOL0     H 2866  12.280  10.735  12.943 -0.8871  1.1662 -1.2748
   21MOL0     H 2867  12.156  10.608  12.954 -0.6358 -0.3443 -2.6668
   21MOL0     H 2868  12.169  10.711  13.187 -3.7443  0.4028  0.9018
   21MOL0     H 2869  12.049  10.817  13.118  1.7015  4.4258  1.6912
   21MOL0     H 2870  12.215  10.940  13.233 -1.8638 -3.6063  0.7981
   21MOL0     H 2871  12.345  10.885  13.123  0.6329  0.4872  0.6268
   21MOL0     H 2872  12.096  11.035  13.045  0.4258  1.4170 -1.2361
   21MOL0     H 2873  12.241  10.988  12.943  1.9752  2.3273  0.3537
   21MOL0     H 2874  12.390  11.127  13.051  0.7336 -0.9644  0.8135
   21MOL0     H 2875  12.299  11.129  13.204 -0.2886  2.3895 -0.2236
   21MOL0     H 2876  12.324  11.337  13.083  0.1695  1.2206 -4.4596
   21MOL0     H 2877  12.152  11.292  13.109  0.6743  2.1724  0.6729
   21MOL0     H 2878  12.016  10.385  12.540  1.9388 -1.6310 -0.1689
   21MOL0     H 2879  12.065  10.411  12.282 -1.6367  1.8563 -0.5988
   21MOL0     H 2880  12.032  10.528  11.996 -0.5675 -1.5231 -1.3133
   21MOL0     H 2881  11.960  10.491  11.770  0.1555 -1.9812  2.4702
   21MOL0     H 2882  11.083  10.158  10.230 -0.2124  0.6541 -4.0729
   21MOL0     H 2883  10.938  10.240  10.059  2.1423 -1.4181  0.5559
   21MOL0     H 2884  10.538  10.410   9.959  0.7594 -0.7001 -0.3663
   21MOL0     H 2885  10.389  10.531   9.782 -1.7032 -0.1075  1.3118
   21MOL0     H 2886  10.162  10.553   9.786  1.7728 -0.3705 -0.1910
   21MOL0     H 2887  10.211  10.613   9.622 -2.5690  2.4381 -0.0051
   21MOL0     H 2888   9.975  10.434   9.658  0.3583  0.4355 -0.8736
   21MOL0     H 2889  10.000  10.556   9.536  0.5770 -0.4510 -0.0243
   21MOL0     H 2890   9.889  10.583   9.805  0.4630  0.6920  1.3020
   21MOL0     H 2891   9.987  10.716   9.763 -0.9408  0.7726 -0.7085
   21MOL0     H 2892   9.839  10.755   9.557 -1.3392 -0.4084 -1.5426
   21MOL0     H 2893   9.746  10.764   9.708  0.7278  1.0947 -0.0032
   21MOL0     H 2894   9.616  10.392   9.549  0.5757 -0.3182 -0.2090
   21MOL0     H 2895  10.206  10.183   9.677 -1.4779  2.6361  2.1846
   21MOL0     H 2896  10.338   9.947   9.921  1.8679  1.6712  0.2498
   21MOL0     H 2897  10.279   9.953   9.754 -2.0635  2.4872 -0.8686
   21MOL0     H 2898  10.457   9.942   9.804 -0.0293  0.2273  3.6630
   22MOL0     O 2899   4.502   5.626   3.428  0.0568 -0.9442 -0.6993
   22MOL0     C 2900   4.379   5.629   3.419 -0.3826  0.1751  0.0464
   22MOL0     O 2901   4.305   5.557   3.331 -0.0028 -0.2080 -0.7362
   22MOL0     C 2902   4.353   5.484   3.224 -0.1075 -0.2881 -0.0309
   22MOL0     C 2903   4.404   5.557   3.109  0.5072  0.0151 -1.3046
   22MOL0     C 2904   4.458   5.483   3.004 -0.3773 -0.7768 -0.2808
   22MOL0     C 2905   4.450   5.349   3.007 -1.0759 -0.1006 -0.2548
   22MOL0     O 2906   4.513   5.282   2.897 -0.1704 -0.3180  1.0290
   22MOL0     C 2907   4.459   5.146   2.870  0.2785  0.9768  0.0811
   22MOL0     C 2908   4.516   5.115   2.731 -0.4068  0.3100 -0.6378
   22MOL0     C 2909   4.466   4.992   2.654 -0.3079 -1.3619  0.2988
   22MOL0     C 2910   4.499   4.871   2.730  0.2992  1.1395  0.8708
   22MOL0     C 2911   4.521   4.760   2.633 -0.2989  1.2880 -0.0259
   22MOL0     C 2912   4.559   4.633   2.710  0.5649 -0.0014  0.0829
   22MOL0     C 2913   4.712   4.639   2.775  0.5240  0.5020  0.4913
   22MOL0     C 2914   4.772   4.503   2.773 -0.4494 -0.1889  0.0464
   22MOL0     N 2915   4.887   4.495   2.846  0.8195  0.1051  0.5238
   22MOL0     C 2916   5.008   4.543   2.805  1.4017 -0.6700  0.1210
   22MOL0     C 2917   5.091   4.501   2.906 -0.9741 -0.4018  0.5969
   22MOL0     C 2918   5.243   4.538   2.911 -0.1456  0.7999 -0.1680
   22MOL0     C 2919   5.332   4.435   2.829  0.0807  0.4758 -0.4440
   22MOL0     C 2920   5.458   4.487   2.750  0.0533  0.6729  0.4201
   22MOL0     C 2921   5.575   4.392   2.733  0.4857  0.5105  0.4936
   22MOL0     O 2922   5.688   4.469   2.698  0.4492 -0.2016  0.1982
   22MOL0     C 2923   5.797   4.413   2.760  0.5776  0.5323  0.8856
   22MOL0     C 2924   5.874   4.319   2.682 -0.8853 -1.1067  0.3209
   22MOL0     C 2925   6.002   4.273   2.739  0.1860 -0.2139  0.6696
   22MOL0     C 2926   6.071   4.167   2.656 -0.4879 -0.5074 -0.0096
   22MOL0     C 2927   6.029   4.298   2.876 -0.0660  0.3168 -0.6413
   22MOL0     C 2928   6.147   4.245   2.951 -1.4922 -0.9838 -0.5522
   22MOL0     O 2929   6.120   4.202   3.079  0.3804 -0.2929  0.5706
   22MOL0     C 2930   6.231   4.155   3.141  0.0424 -0.3803 -0.8509
   22MOL0     C 2931   6.282   4.025   3.138  0.1648 -0.3933 -0.0711
   22MOL0     C 2932   6.400   3.998   3.203  0.4721  0.0380  0.5810
   22MOL0     C 2933   6.465   4.089   3.279 -0.0863 -0.4816 -1.0187
   22MOL0     O 2934   6.559   4.050   3.367 -0.4100  0.6928  1.2924
   22MOL0     C 2935   6.661   3.956   3.312 -0.3529 -0.0237 -0.4056
   22MOL0     C 2936   6.789   3.953   3.410  1.3530  0.3338  0.1742
   22MOL0     C 2937   6.761   3.929   3.555 -0.0477 -0.4177  0.3502
   22MOL0     C 2938   6.884   3.957   3.641 -0.2568 -0.4555  0.5700
   22MOL0     C 2939   6.874   3.900   3.784  0.6767  0.6435  1.0766
   22MOL0     C 2940   6.988   3.948   3.866 -0.0322 -0.7823  0.0829
   22MOL0     C 2941   6.983   3.863   4.001 -0.3458 -0.4615  1.2537
   22MOL0     C 2942   7.071   3.918   4.116  0.7263 -0.3436 -0.2116
   22MOL0    Cl 2943   7.243   3.879   4.068 -0.4092 -0.1686 -0.0061
   22MOL0     C 2944   6.418   4.222   3.286 -0.3880 -0.9780  1.1392
   22MOL0     C 2945   6.302   4.252   3.216 -0.3471 -0.6958  0.2010
   22MOL0     O 2946   6.262   4.252   2.893  0.4528  0.3993 -0.0663
   22MOL0     C 2947   5.927   4.373   2.951 -0.4423  0.2432 -0.0955
   22MOL0     C 2948   5.820   4.430   2.896  0.6540  0.1058 -0.0629
   22MOL0     N 2949   5.024   4.424   2.997  0.7412  0.3849  0.0791
   22MOL0     N 2950   4.904   4.416   2.958  0.1025 -0.5544  0.4864
   22MOL0     C 2951   4.406   5.275   3.118  0.1193 -0.6400 -0.8708
   22MOL0     C 2952   4.366   5.344   3.229 -0.1014 -1.0104 -1.0290
   22MOL0     C 2953   4.301   5.720   3.514  0.7511 -0.5999  0.0742
   22MOL0     C 2954   4.368   5.754   3.632 -0.4753 -0.4655 -0.3512
   22MOL0     C 2955   4.300   5.839   3.724  0.4979 -0.5167 -0.1133
   22MOL0     C 2956   4.174   5.896   3.702  0.1424 -0.0308  0.2131
   22MOL0     O 2957   4.120   5.986   3.791 -0.8950  0.3285  0.4093
   22MOL0     C 2958   4.074   6.108   3.732 -0.7485 -0.8075 -0.6722
   22MOL0     C 2959   4.091   6.228   3.842 -0.1477  1.3244  1.1174
   22MOL0     C 2960   4.227   6.217   3.909  0.2720 -0.7072 -0.3106
   22MOL0     C 2961   4.270   6.340   3.991 -0.1783 -1.1646  0.9440
   22MOL0     C 2962   4.419   6.326   4.002  0.1138 -0.4918 -0.5284
   22MOL0     C 2963   4.532   6.362   4.029 -0.3849  0.1237 -0.4154
   22MOL0     C 2964   4.100   5.848   3.591  0.6381 -0.2974 -0.3977
   22MOL0     C 2965   4.162   5.767   3.492 -0.4340  0.4891  0.1631
   22MOL0     C 2966   4.086   5.750   3.356  1.0074  0.4885 -0.0415
   22MOL0     H 2967   4.390   5.664   3.113 -0.3760 -0.1077 -0.8974
   22MOL0     H 2968   4.502   5.544   2.926 -2.3031  0.1944 -0.6892
   22MOL0     H 2969   4.350   5.139   2.874  0.3377 -0.7222 -0.5471
   22MOL0     H 2970   4.510   5.076   2.937  1.4993 -0.1465 -1.9235
   22MOL0     H 2971   4.512   5.203   2.666  0.9236  1.8529  1.2793
   22MOL0     H 2972   4.622   5.099   2.752 -0.3757 -0.2503 -1.1950
   22MOL0     H 2973   4.358   5.008   2.643 -0.0530  0.4417  0.1365
   22MOL0     H 2974   4.512   4.991   2.555 -0.6189 -1.4569  0.1542
   22MOL0     H 2975   4.582   4.887   2.799  0.7388 -0.5607  0.7577
   22MOL0     H 2976   4.407   4.840   2.781  1.7537 -1.4842  2.1026
   22MOL0     H 2977   4.594   4.780   2.554  0.8358  0.9610  0.9066
   22MOL0     H 2978   4.422   4.740   2.590 -0.2800 -0.6597  0.7253
   22MOL0     H 2979   4.490   4.595   2.787  1.3672  1.4701  1.5944
   22MOL0     H 2980   4.560   4.554   2.634  0.0665 -0.6748  0.7551
   22MOL0     H 2981   4.723   4.671   2.878 -0.5796  0.9938  0.4660
   22MOL0     H 2982   4.776   4.697   2.708  2.3480  1.4613  2.9023
   22MOL0     H 2983   4.713   4.421   2.817 -0.4536  0.4860  1.3562
   22MOL0     H 2984   4.794   4.471   2.671  2.7798 -1.9877  1.1795
   22MOL0     H 2985   5.039   4.604   2.721  2.4591 -0.8529  0.3740
   22MOL0     H 2986   5.275   4.541   3.016  0.5027 -0.1410 -0.3245
   22MOL0     H 2987   5.262   4.637   2.867 -0.0376  0.5659 -0.6525
   22MOL0     H 2988   5.363   4.353   2.894 -0.2128 -0.5962 -1.5985
   22MOL0     H 2989   5.271   4.380   2.756  1.8218 -4.3267  1.2649
   22MOL0     H 2990   5.422   4.522   2.652 -0.4272  1.9893  1.0434
   22MOL0     H 2991   5.506   4.572   2.799  2.3391  0.8355 -1.8383
   22MOL0     H 2992   5.590   4.329   2.821 -1.2613  1.3593  1.4484
   22MOL0     H 2993   5.559   4.329   2.645 -0.0585 -2.3296  2.4669
   22MOL0     H 2994   5.856   4.312   2.575 -0.7309  2.3160 -0.0529
   22MOL0     H 2995   6.003   4.083   2.647  0.9905 -1.9383  1.4707
   22MOL0     H 2996   6.163   4.137   2.706  0.4267  0.1382 -1.2586
   22MOL0     H 2997   6.097   4.214   2.561  3.5065  1.4635  1.7963
   22MOL0     H 2998   6.222   3.947   3.091 -0.6534  0.1182  0.1034
   22MOL0     H 2999   6.426   3.894   3.188  1.9557  0.1792  1.9409
   22MOL0     H 3000   6.622   3.854   3.322  2.7218 -1.2094  0.4806
   22MOL0     H 3001   6.683   3.972   3.206  0.5687 -0.5648 -0.3113
   22MOL0     H 3002   6.863   3.878   3.380  1.3434  0.9466 -1.4901
   22MOL0     H 3003   6.837   4.051   3.408 -1.4081  1.7711  0.1020
   22MOL0     H 3004   6.726   3.827   3.577 -3.2312  0.9151  2.1616
   22MOL0     H 3005   6.686   4.004   3.581 -1.6879 -2.0634  0.5590
   22MOL0     H 3006   6.879   4.065   3.657  2.1029 -0.1978 -0.0223
   22MOL0     H 3007   6.976   3.921   3.593 -1.9692 -3.7687 -0.5655
   22MOL0     H 3008   6.778   3.927   3.829  0.4218 -0.1262  1.0073
   22MOL0     H 3009   6.874   3.791   3.775  1.4160  0.4521  2.9742
   22MOL0     H 3010   6.969   4.055   3.879  5.2742  0.4855 -0.2841
   22MOL0     H 3011   7.088   3.934   3.824 -0.4051 -0.9514 -0.7599
   22MOL0     H 3012   7.015   3.760   3.981  0.1608 -0.6896  3.1021
   22MOL0     H 3013   6.877   3.859   4.029 -1.2906  1.8266 -1.4935
   22MOL0     H 3014   7.044   3.888   4.218  2.6770  3.2575  1.5907
   22MOL0     H 3015   7.051   4.026   4.116  1.6896 -0.1567 -0.0215
   22MOL0     H 3016   6.480   4.291   3.343  0.3841  0.4978 -1.3372
   22MOL0     H 3017   6.259   4.351   3.204 -3.1702 -1.9467 -1.1242
   22MOL0     H 3018   5.948   4.393   3.055 -0.6940 -1.1907  0.2538
   22MOL0     H 3019   5.763   4.504   2.951 -0.9865 -1.4597  0.4550
   22MOL0     H 3020   4.419   5.167   3.122  4.5149 -0.2439  1.3210
   22MOL0     H 3021   4.331   5.295   3.320 -1.9808 -0.3989 -1.3673
   22MOL0     H 3022   4.455   5.698   3.664 -0.8472 -1.9251 -1.7501
   22MOL0     H 3023   4.342   5.851   3.824  0.3172  2.3339 -0.3068
   22MOL0     H 3024   4.122   6.122   3.635 -0.2823 -1.0345 -0.4742
   22MOL0     H 3025   3.968   6.115   3.703 -0.7454  3.1164 -0.1848
   22MOL0     H 3026   4.010   6.218   3.915  1.8180  0.6874  3.3172
   22MOL0     H 3027   4.077   6.322   3.788 -3.3333  0.2642 -0.1509
   22MOL0     H 3028   4.233   6.130   3.975 -1.0387 -0.3389  0.3242
   22MOL0     H 3029   4.300   6.214   3.828  1.5894  3.1817  0.5173
   22MOL0     H 3030   4.228   6.322   4.091  1.3181 -0.2713  1.7557
   22MOL0     H 3031   4.236   6.436   3.952  1.4422 -0.3861  1.3933
   22MOL0     H 3032   4.634   6.391   4.046 -0.8004  1.3685  0.0740
   22MOL0     H 3033   3.994   5.872   3.587  0.5024 -1.0027 -1.3122
   22MOL0     H 3034   4.158   5.738   3.275  0.1613 -0.0870 -0.7333
   22MOL0     H 3035   4.020   5.662   3.354  0.9526  0.4869 -2.9634
   22MOL0     H 3036   4.017   5.833   3.341 -1.1759 -1.1999  0.0855
   23MOL0     O 3037   7.090   3.533   4.407 -0.8726 -1.0168 -0.1922
   23MOL0     C 3038   6.980   3.480   4.387 -0.8758 -0.8073 -0.4589
   23MOL0     O 3039   6.894   3.434   4.483  1.0324  0.4743  0.2089
   23MOL0     C 3040   6.899   3.487   4.609 -0.5323 -0.2350 -0.3698
   23MOL0     C 3041   7.020   3.478   4.692 -0.1620 -0.9919 -0.2545
   23MOL0     C 3042   7.009   3.537   4.820  0.0742 -0.1135  0.1479
   23MOL0     C 3043   6.887   3.591   4.863  0.1493  0.4259  0.6959
   23MOL0     O 3044   6.880   3.628   5.000  0.1683 -0.1257  0.8248
   23MOL0     C 3045   6.805   3.538   5.073  0.6028 -0.5936 -0.9426
   23MOL0     C 3046   6.827   3.579   5.218 -0.0973 -0.1439 -0.3335
   23MOL0     C 3047   6.797   3.728   5.249 -0.8137  0.5497  1.0453
   23MOL0     C 3048   6.666   3.774   5.201 -0.5149  0.4961 -0.7691
   23MOL0     C 3049   6.649   3.916   5.245  0.1484 -0.4872 -0.2236
   23MOL0     C 3050   6.497   3.949   5.259 -0.4817  0.3965  0.8954
   23MOL0     C 3051   6.448   3.957   5.114 -0.2358 -0.2474 -0.9652
   23MOL0     C 3052   6.307   4.014   5.116  0.5746  0.0184  0.9416
   23MOL0     N 3053   6.251   3.988   4.977 -0.1243 -0.0792  0.3177
   23MOL0     C 3054   6.137   3.936   4.949  1.3056 -0.7874  0.6345
   23MOL0     C 3055   6.127   3.933   4.814 -0.4337  0.8709  0.6039
   23MOL0     C 3056   6.006   3.868   4.735 -0.7663 -0.3923 -0.3527
   23MOL0     C 3057   6.003   3.714   4.745  0.2799 -0.1210 -0.4044
   23MOL0     C 3058   6.124   3.645   4.675 -0.4957 -0.4869  0.6451
   23MOL0     C 3059   6.113   3.497   4.672 -1.5117  0.6481  0.8868
   23MOL0     O 3060   6.241   3.454   4.608  0.2401  0.6374 -0.4462
   23MOL0     C 3061   6.342   3.416   4.689 -0.5100 -0.4042  0.0523
   23MOL0     C 3062   6.462   3.370   4.632 -0.1113  0.6684 -0.0819
   23MOL0     C 3063   6.562   3.311   4.713 -0.2703 -0.0169  0.5894
   23MOL0     C 3064   6.672   3.236   4.636  0.1407  0.5604  0.1519
   23MOL0     C 3065   6.561   3.324   4.853 -0.0273  0.3830 -0.9556
   23MOL0     C 3066   6.666   3.267   4.953 -0.2439 -0.2856  0.1508
   23MOL0     O 3067   6.760   3.178   4.913 -0.3265 -0.1026  0.1398
   23MOL0     C 3068   6.852   3.136   5.009 -0.3970 -0.5989  0.3431
   23MOL0     C 3069   6.813   3.071   5.128 -0.1595 -0.3814  0.1571
   23MOL0     C 3070   6.905   3.059   5.230  0.4467 -0.9712  0.2898
   23MOL0     C 3071   7.039   3.096   5.217  0.0775  0.2380 -0.6154
   23MOL0     O 3072   7.121   3.069   5.323 -0.5354  0.7075  0.3563
   23MOL0     C 3073   7.254   3.018   5.303  0.2192  0.2590 -0.4822
   23MOL0     C 3074   7.311   2.985   5.457  0.4024  0.7014  0.2630
   23MOL0     C 3075   7.213   2.878   5.515 -0.5756 -1.3404  0.5901
   23MOL0     C 3076   7.226   2.885   5.668 -0.2042 -0.2957 -0.1779
   23MOL0     C 3077   7.120   2.811   5.744  0.2326  0.7675  0.1442
   23MOL0     C 3078   7.098   2.880   5.891 -1.1042  0.0374  0.2475
   23MOL0     C 3079   7.021   2.805   6.003 -0.1316  0.3549  0.0591
   23MOL0     C 3080   6.874   2.800   5.969 -0.0229  0.1884  0.4475
   23MOL0    Cl 3081   6.803   2.790   6.127 -0.5636  0.8047  0.3395
   23MOL0     C 3082   7.073   3.149   5.097  0.7991 -0.1985 -0.8598
   23MOL0     C 3083   6.986   3.182   5.000  0.1112  0.4680  0.6434
   23MOL0     O 3084   6.635   3.288   5.072 -0.7581  0.3716  0.2294
   23MOL0     C 3085   6.446   3.385   4.902  1.0163 -0.5507  0.2574
   23MOL0     C 3086   6.342   3.440   4.830 -0.9201 -0.0169  0.3917
   23MOL0     N 3087   6.248   3.988   4.765  0.2492  0.0472 -0.1570
   23MOL0     N 3088   6.325   4.023   4.865 -0.5828 -0.3027 -0.0303
   23MOL0     C 3089   6.772   3.589   4.784  1.0567 -0.2137  0.0825
   23MOL0     C 3090   6.784   3.543   4.654 -0.4860 -0.4860  0.6984
   23MOL0     C 3091   6.927   3.460   4.248 -0.4412  0.4524  0.3753
   23MOL0     C 3092   6.795   3.421   4.221  0.4994 -0.4462 -0.2775
   23MOL0     C 3093   6.745   3.432   4.087  0.6495  0.6013  0.5706
   23MOL0     C 3094   6.831   3.463   3.976 -0.0270 -0.0688 -0.4008
   23MOL0     O 3095   6.769   3.479   3.852  0.7636 -0.8609 -0.2297
   23MOL0     C 3096   6.816   3.413   3.745  1.1924  0.3361 -0.3814
   23MOL0     C 3097   6.787   3.270   3.742  0.9526  0.8236 -0.5038
   23MOL0     C 3098   6.796   3.226   3.596 -0.4137  0.8545 -0.3750
   23MOL0     C 3099   6.744   3.078   3.594 -0.1429 -0.5427  0.9301
   23MOL0     C 3100   6.807   3.015   3.478  0.0576  0.4660  0.7653
   23MOL0     C 3101   6.857   2.963   3.380  0.2829 -1.4073 -0.0032
   23MOL0     C 3102   6.968   3.480   3.994 -0.4875 -0.9045 -0.1031
   23MOL0     C 3103   7.018   3.487   4.130 -0.3060  0.0008  0.5449
   23MOL0     C 3104   7.169   3.514   4.141 -0.1204 -1.0409  0.2196
   23MOL0     H 3105   7.114   3.432   4.663  0.1048 -0.4835 -0.2114
   23MOL0     H 3106   7.096   3.528   4.884  0.4151 -0.8656 -0.4066
   23MOL0     H 3107   6.857   3.443   5.056  4.2668  1.2942 -1.3587
   23MOL0     H 3108   6.698   3.531   5.050  0.3801  3.0801 -1.6852
   23MOL0     H 3109   6.762   3.513   5.275 -2.9520  1.1586 -1.8848
   23MOL0     H 3110   6.932   3.559   5.243  0.3829  3.5478  1.2347
   23MOL0     H 3111   6.801   3.742   5.357 -0.1762 -3.3478  1.6783
   23MOL0     H 3112   6.877   3.786   5.204 -0.0199 -0.0839  1.6042
   23MOL0     H 3113   6.674   3.772   5.092 -2.3907 -1.1762 -0.9414
   23MOL0     H 3114   6.590   3.700   5.229 -0.5603  0.2903 -1.4246
   23MOL0     H 3115   6.697   3.986   5.175 -0.2378  0.5354  0.5126
   23MOL0     H 3116   6.694   3.943   5.341 -1.5581 -0.6064  0.6291
   23MOL0     H 3117   6.444   3.871   5.314 -1.2839  0.6032  0.4353
   23MOL0     H 3118   6.478   4.038   5.319 -2.2238  0.6019  0.1119
   23MOL0     H 3119   6.445   3.858   5.067 -2.4143 -0.7961  0.1823
   23MOL0     H 3120   6.509   4.020   5.049  2.3408 -0.5167  1.0350
   23MOL0     H 3121   6.235   3.986   5.194 -0.6249  0.8786  0.1651
   23MOL0     H 3122   6.310   4.123   5.126  2.1193  0.1845 -0.9440
   23MOL0     H 3123   6.070   3.899   5.025 -1.9063 -0.3806 -1.7539
   23MOL0     H 3124   5.997   3.901   4.631 -1.8045 -1.1555 -0.5234
   23MOL0     H 3125   5.921   3.914   4.787 -0.2379 -0.2586  0.4184
   23MOL0     H 3126   6.004   3.684   4.850  2.5379 -0.6735 -0.5403
   23MOL0     H 3127   5.909   3.688   4.696 -0.8390  3.8229 -0.6968
   23MOL0     H 3128   6.138   3.684   4.574  0.3389 -1.8617  0.1898
   23MOL0     H 3129   6.216   3.672   4.727  0.6490 -1.0203 -0.9890
   23MOL0     H 3130   6.090   3.457   4.771 -2.5785  0.6441  0.6489
   23MOL0     H 3131   6.024   3.461   4.620 -0.6363 -0.6874  0.2709
   23MOL0     H 3132   6.467   3.364   4.523  1.0003  1.0145 -0.0614
   23MOL0     H 3133   6.672   3.262   4.530 -1.2814  1.1297  0.2739
   23MOL0     H 3134   6.655   3.128   4.645  2.7591 -0.1412 -1.8736
   23MOL0     H 3135   6.770   3.255   4.680 -0.5640 -1.0082  2.5932
   23MOL0     H 3136   6.711   3.036   5.139 -0.6703  1.8412  5.7098
   23MOL0     H 3137   6.869   3.026   5.327 -0.0513 -2.5271 -0.3905
   23MOL0     H 3138   7.255   2.932   5.237  1.8869  1.5098 -2.1935
   23MOL0     H 3139   7.323   3.085   5.250  1.9013 -0.6942  0.4276
   23MOL0     H 3140   7.414   2.950   5.459  0.4147  0.6922 -0.2567
   23MOL0     H 3141   7.313   3.082   5.506 -0.4446  1.9305 -1.9984
   23MOL0     H 3142   7.246   2.782   5.474 -0.5609 -1.0661 -0.0465
   23MOL0     H 3143   7.111   2.895   5.481 -0.6120  1.7130  1.8728
   23MOL0     H 3144   7.222   2.989   5.702 -2.4497 -0.2481 -0.4907
   23MOL0     H 3145   7.317   2.829   5.691 -0.9508 -1.8512 -0.8743
   23MOL0     H 3146   7.024   2.823   5.693 -0.6640  4.4140  2.2794
   23MOL0     H 3147   7.147   2.705   5.748  1.5868  1.0945  0.0572
   23MOL0     H 3148   7.064   2.984   5.903  0.8293  0.4773  2.7706
   23MOL0     H 3149   7.201   2.892   5.925  0.2589 -1.9032 -2.8205
   23MOL0     H 3150   7.055   2.863   6.090  0.9930  1.0657 -0.8172
   23MOL0     H 3151   7.063   2.709   6.034 -2.7010  0.0345  3.0854
   23MOL0     H 3152   6.844   2.728   5.892 -0.0788 -0.2993  0.9209
   23MOL0     H 3153   6.849   2.897   5.923 -0.4985  0.8662  2.0891
   23MOL0     H 3154   7.174   3.182   5.075  1.3571  0.6137  2.3661
   23MOL0     H 3155   7.023   3.244   4.919 -0.4824 -0.8864 -0.7239
   23MOL0     H 3156   6.431   3.388   5.010  0.4221 -2.5899  0.2707
   23MOL0     H 3157   6.265   3.500   4.878 -0.3946  1.8219 -0.9829
   23MOL0     H 3158   6.677   3.630   4.815  1.3946  0.9038 -0.3255
   23MOL0     H 3159   6.696   3.560   4.592  2.4107  0.9031 -3.5184
   23MOL0     H 3160   6.730   3.393   4.303  1.1415 -4.6546 -0.9655
   23MOL0     H 3161   6.637   3.435   4.078  0.7118  1.2448 -0.0950
   23MOL0     H 3162   6.772   3.457   3.655 -0.3560  0.1888  0.2819
   23MOL0     H 3163   6.923   3.431   3.733  1.7921 -1.4040  1.7534
   23MOL0     H 3164   6.689   3.252   3.786  1.4878  2.5829  1.6315
   23MOL0     H 3165   6.841   3.221   3.824 -3.0605  0.0257  1.9177
   23MOL0     H 3166   6.721   3.283   3.540 -3.1658  2.6053  4.4963
   23MOL0     H 3167   6.901   3.227   3.564  0.6815 -1.9065  2.5736
   23MOL0     H 3168   6.635   3.070   3.599 -0.4627  0.8681 -1.8698
   23MOL0     H 3169   6.776   3.031   3.687  0.0534 -0.6223  0.8221
   23MOL0     H 3170   6.897   2.913   3.295  0.0549 -0.0013 -0.9672
   23MOL0     H 3171   7.035   3.495   3.909 -2.7225  3.3080 -1.4416
   23MOL0     H 3172   7.212   3.431   4.198 -2.6337 -1.7733  1.2265
   23MOL0     H 3173   7.214   3.518   4.042  1.1555 -3.0850  0.6689
   23MOL0     H 3174   7.189   3.613   4.182 -0.6262 -0.2823 -1.2816
   24MOL0     O 3175   5.507   4.777   9.826 -0.3498  0.5143  0.8450
   24MOL0     C 3176   5.430   4.720   9.908  0.6080 -0.1906 -0.0612
   24MOL0     O 3177   5.296   4.741   9.906  0.3732  0.1227 -0.6771
   24MOL0     C 3178   5.255   4.821   9.810  0.1309 -0.4246 -0.2429
   24MOL0     C 3179   5.193   4.944   9.853  0.0517 -0.2688 -0.1456
   24MOL0     C 3180   5.152   5.033   9.760 -0.4104  0.1981 -0.1239
   24MOL0     C 3181   5.183   5.005   9.625  0.0147  0.1263 -0.7534
   24MOL0     O 3182   5.174   5.100   9.529  0.4245  0.2691  0.1307
   24MOL0     C 3183   5.126   5.226   9.563 -0.0359  0.6148 -0.4946
   24MOL0     C 3184   5.146   5.332   9.461  1.0487  0.2020 -0.3700
   24MOL0     C 3185   5.050   5.301   9.342 -0.8527  0.2253 -0.3321
   24MOL0     C 3186   5.093   5.385   9.220  0.5336  0.8340 -0.2108
   24MOL0     C 3187   5.043   5.312   9.092 -0.2361 -0.3768  0.3854
   24MOL0     C 3188   5.052   5.403   8.971 -0.2668 -0.8287 -0.4242
   24MOL0     C 3189   4.990   5.332   8.851  0.5550 -0.7782  0.1793
   24MOL0     C 3190   5.072   5.228   8.782  0.4961 -0.1674  0.3140
   24MOL0     N 3191   5.023   5.204   8.650 -0.4620  0.1592 -0.3287
   24MOL0     C 3192   4.902   5.157   8.618  0.8350 -0.9587  0.0803
   24MOL0     C 3193   4.904   5.158   8.490 -0.0069  0.4209  0.6804
   24MOL0     C 3194   4.808   5.082   8.402 -0.0077 -0.4784  0.5615
   24MOL0     C 3195   4.832   4.929   8.414 -0.0949 -0.3207 -0.6777
   24MOL0     C 3196   4.930   4.868   8.312  1.3776 -0.0882 -0.3393
   24MOL0     C 3197   4.934   4.719   8.313 -0.2806 -0.4582 -0.4238
   24MOL0     O 3198   4.816   4.660   8.273  0.6216 -0.2766 -0.1071
   24MOL0     C 3199   4.802   4.524   8.294  0.2561  0.1742 -0.1538
   24MOL0     C 3200   4.906   4.437   8.316  0.5756 -0.0186 -1.1584
   24MOL0     C 3201   4.882   4.298   8.348  0.6529  0.3404  1.1199
   24MOL0     C 3202   4.999   4.207   8.350  0.6907 -1.1020 -0.0916
   24MOL0     C 3203   4.748   4.259   8.372  0.7458 -0.3479  0.0419
   24MOL0     C 3204   4.712   4.125   8.420 -0.8014 -0.4768  0.6432
   24MOL0     O 3205   4.575   4.097   8.419  0.3077 -0.4088  0.6540
   24MOL0     C 3206   4.540   3.969   8.449  0.1061  0.0462  0.8796
   24MOL0     C 3207   4.406   3.958   8.484 -0.9730  0.1197 -0.3229
   24MOL0     C 3208   4.342   3.831   8.500 -0.0087 -0.8455  0.3176
   24MOL0     C 3209   4.417   3.712   8.474 -0.4734 -0.8882 -0.6596
   24MOL0     O 3210   4.356   3.592   8.460  0.9662 -0.7381  0.0176
   24MOL0     C 3211   4.342   3.513   8.570 -0.5536 -0.2638 -0.3125
   24MOL0     C 3212   4.303   3.370   8.537 -1.1646 -0.5329 -1.1470
   24MOL0     C 3213   4.400   3.305   8.433  0.1362 -0.2888  0.0076
   24MOL0     C 3214   4.539   3.266   8.492  0.0046  0.2521  0.3824
   24MOL0     C 3215   4.630   3.202   8.379 -0.3123  0.2684  0.2549
   24MOL0     C 3216   4.767   3.167   8.429  0.6138 -0.3695 -0.4653
   24MOL0     C 3217   4.847   3.091   8.328  0.4535  0.1050  0.5840
   24MOL0     C 3218   4.973   3.043   8.406 -1.0871 -0.0219  0.3790
   24MOL0    Cl 3219   5.095   2.967   8.287 -0.2446 -0.0712  0.4138
   24MOL0     C 3220   4.551   3.721   8.453  0.6012  0.1242 -0.7250
   24MOL0     C 3221   4.611   3.846   8.443  0.6482  0.3320 -0.9236
   24MOL0     O 3222   4.795   4.067   8.490  0.0854  0.7436 -1.0945
   24MOL0     C 3223   4.645   4.356   8.345 -0.0190  0.4021 -0.4233
   24MOL0     C 3224   4.674   4.477   8.296 -0.7491  0.1122  0.7807
   24MOL0     N 3225   5.022   5.215   8.451  0.9267  0.0153 -0.7376
   24MOL0     N 3226   5.094   5.239   8.541 -0.1477  0.3782  0.0613
   24MOL0     C 3227   5.241   4.887   9.582  0.3644 -0.1140  0.2106
   24MOL0     C 3228   5.266   4.787   9.673 -0.1155 -1.1292 -0.2608
   24MOL0     C 3229   5.491   4.645  10.018 -0.0340  0.2249  0.6900
   24MOL0     C 3230   5.410   4.534  10.065 -0.5096 -0.6059 -1.5855
   24MOL0     C 3231   5.451   4.450  10.168 -0.0488  0.7358 -0.3218
   24MOL0     C 3232   5.573   4.464  10.229  0.4094  0.2120  0.5926
   24MOL0     O 3233   5.590   4.379  10.337 -0.2016  0.6235  0.2866
   24MOL0     C 3234   5.683   4.425  10.435 -0.6923  0.9263  0.0026
   24MOL0     C 3235   5.664   4.350  10.565  0.4492  0.1442 -0.4565
   24MOL0     C 3236   5.719   4.205  10.572 -0.4348 -0.1813  0.3615
   24MOL0     C 3237   5.715   4.152  10.715  0.2233  0.7018  0.3100
   24MOL0     C 3238   5.584   4.148  10.784 -0.5248 -0.7455  0.8651
   24MOL0     C 3239   5.469   4.149  10.822 -0.5261 -0.1965  0.5816
   24MOL0     C 3240   5.656   4.571  10.179 -0.2064  0.7319  0.0587
   24MOL0     C 3241   5.619   4.662  10.070 -0.5426 -0.0195  0.1055
   24MOL0     C 3242   5.717   4.776  10.040 -0.3683 -0.3590 -1.2148
   24MOL0     H 3243   5.192   4.957   9.961  1.7443 -2.0668  0.1472
   24MOL0     H 3244   5.102   5.122   9.798  0.1136 -0.7615  3.1286
   24MOL0     H 3245   5.179   5.260   9.653 -1.6535 -3.3213  2.2272
   24MOL0     H 3246   5.017   5.225   9.573 -0.1958  2.5695 -1.4782
   24MOL0     H 3247   5.117   5.426   9.509  0.3181 -2.2089  4.5349
   24MOL0     H 3248   5.249   5.337   9.426  2.4588 -4.0019  2.3630
   24MOL0     H 3249   5.075   5.195   9.329 -0.1284  0.6356 -2.8695
   24MOL0     H 3250   4.946   5.325   9.363 -0.5156 -0.3094  2.3738
   24MOL0     H 3251   5.029   5.474   9.229  0.9778  1.5883 -3.3957
   24MOL0     H 3252   5.202   5.393   9.219  0.6682 -0.2584  1.5989
   24MOL0     H 3253   4.945   5.271   9.116  0.1681 -3.3703 -2.4000
   24MOL0     H 3254   5.102   5.221   9.079  2.3816  1.1047  1.0960
   24MOL0     H 3255   5.000   5.497   8.992  0.1453 -0.3762 -1.4008
   24MOL0     H 3256   5.152   5.435   8.941  0.4570  0.4837  2.9085
   24MOL0     H 3257   4.962   5.406   8.776 -0.7614 -1.6576 -0.2266
   24MOL0     H 3258   4.896   5.282   8.876 -0.0846 -0.1474 -0.8662
   24MOL0     H 3259   5.177   5.256   8.792  0.5461 -0.3018  0.1699
   24MOL0     H 3260   5.060   5.136   8.840 -1.5073 -1.7266 -2.3767
   24MOL0     H 3261   4.818   5.133   8.682 -0.8544  1.3687 -1.0887
   24MOL0     H 3262   4.820   5.122   8.301  2.8928  3.8975  2.3479
   24MOL0     H 3263   4.708   5.105   8.441 -0.6232  0.1900 -1.3116
   24MOL0     H 3264   4.859   4.909   8.518  1.1556  2.6328 -0.3172
   24MOL0     H 3265   4.734   4.883   8.401  0.0509 -0.4703 -1.2394
   24MOL0     H 3266   4.899   4.901   8.212  3.5620  1.1245 -0.6648
   24MOL0     H 3267   5.027   4.914   8.330  0.6419  0.5768  2.2683
   24MOL0     H 3268   5.019   4.694   8.248 -0.2455 -2.6679  0.3658
   24MOL0     H 3269   4.967   4.701   8.416  0.7493  1.2512 -0.4147
   24MOL0     H 3270   5.007   4.475   8.310 -0.3506  3.0387  0.5900
   24MOL0     H 3271   4.985   4.120   8.285  1.4537 -1.2410 -0.0730
   24MOL0     H 3272   5.013   4.154   8.445  1.3795 -1.0767 -0.1775
   24MOL0     H 3273   5.088   4.259   8.314 -0.2430  2.5354  2.3319
   24MOL0     H 3274   4.344   4.047   8.486 -2.0013 -0.5704  2.2681
   24MOL0     H 3275   4.237   3.831   8.525  0.6042 -0.1013  3.2239
   24MOL0     H 3276   4.429   3.526   8.634  0.6287 -2.3339 -1.4062
   24MOL0     H 3277   4.254   3.546   8.626 -1.8287 -3.2418 -0.3384
   24MOL0     H 3278   4.307   3.316   8.632  2.6922 -1.4539 -1.6774
   24MOL0     H 3279   4.199   3.357   8.503 -0.7542  0.7826 -3.0654
   24MOL0     H 3280   4.422   3.373   8.350  1.8099 -2.3269 -1.3331
   24MOL0     H 3281   4.353   3.216   8.389 -0.3451 -0.7483  1.3826
   24MOL0     H 3282   4.522   3.204   8.581 -1.9118  1.8212  1.1770
   24MOL0     H 3283   4.588   3.359   8.522 -2.0034  1.9296 -1.2652
   24MOL0     H 3284   4.585   3.108   8.345 -1.8548  0.7259  0.9068
   24MOL0     H 3285   4.638   3.269   8.293  2.2749 -1.5485 -1.0248
   24MOL0     H 3286   4.752   3.110   8.521 -0.2647  2.3349  1.1609
   24MOL0     H 3287   4.807   3.267   8.447  0.0121  0.2151 -2.1299
   24MOL0     H 3288   4.867   3.148   8.237  0.0821  0.5104  0.7482
   24MOL0     H 3289   4.796   2.998   8.304  2.9299 -1.1590 -0.1262
   24MOL0     H 3290   4.935   2.979   8.486 -2.3593 -1.2273 -1.1291
   24MOL0     H 3291   5.027   3.127   8.452  3.3525 -1.5209 -1.4943
   24MOL0     H 3292   4.614   3.633   8.445 -0.4937 -1.2049  3.2038
   24MOL0     H 3293   4.717   3.855   8.427  0.5609  2.0526 -0.6989
   24MOL0     H 3294   4.543   4.323   8.358  0.2996  0.4320  3.1417
   24MOL0     H 3295   4.588   4.540   8.277 -0.8369  0.0816  1.0728
   24MOL0     H 3296   5.265   4.876   9.477 -0.4934  3.7843 -0.5689
   24MOL0     H 3297   5.317   4.700   9.632  3.1492  0.8941 -0.8338
   24MOL0     H 3298   5.317   4.508  10.014 -1.7375 -0.2097  0.3407
   24MOL0     H 3299   5.380   4.379  10.209  1.8748  0.3902  2.7753
   24MOL0     H 3300   5.791   4.419  10.417 -0.7855 -0.0848 -0.2704
   24MOL0     H 3301   5.683   4.534  10.440 -0.5295  1.1214 -2.6888
   24MOL0     H 3302   5.556   4.352  10.586  0.6590 -0.4360  0.8076
   24MOL0     H 3303   5.701   4.405  10.653 -1.2305  1.7787 -0.7013
   24MOL0     H 3304   5.665   4.130  10.513 -0.5428 -1.0404  1.5041
   24MOL0     H 3305   5.825   4.200  10.545 -1.1444 -3.8886 -2.7776
   24MOL0     H 3306   5.768   4.225  10.777 -0.9250  1.4336  0.4714
   24MOL0     H 3307   5.768   4.056  10.714  2.2177  1.7500  0.2994
   24MOL0     H 3308   5.364   4.131  10.831 -0.5373 -0.6612 -0.3080
   24MOL0     H 3309   5.742   4.599  10.239 -1.2369  4.8991 -0.1376
   24MOL0     H 3310   5.752   4.773   9.937  1.4495 -0.2627 -0.6312
   24MOL0     H 3311   5.661   4.869  10.057 -0.2146 -0.4370 -0.1615
   24MOL0     H 3312   5.812   4.768  10.094 -1.3647  1.4855  1.0031
   25MOL0     O 3313  10.064   3.483   5.833 -0.1399  0.2532 -0.4600
   25MOL0     C 3314  10.028   3.603   5.823  0.1323 -0.0392 -0.0707
   25MOL0     O 3315   9.900   3.648   5.807 -0.0012  0.0436  0.7146
   25MOL0     C 3316   9.795   3.565   5.806 -0.7642  0.0685 -0.6810
   25MOL0     C 3317   9.683   3.618   5.863  0.7789 -0.6886  0.5926
   25MOL0     C 3318   9.553   3.571   5.831  0.6030 -0.3826 -0.0212
   25MOL0     C 3319   9.533   3.457   5.748  0.1243  0.1058 -0.0599
   25MOL0     O 3320   9.409   3.425   5.690  0.2376  0.0285  0.5766
   25MOL0     C 3321   9.351   3.319   5.770 -0.8579  0.3034 -0.5009
   25MOL0     C 3322   9.261   3.230   5.694 -0.0653  0.4002  0.2496
   25MOL0     C 3323   9.174   3.140   5.790 -0.6562  0.1993  0.9855
   25MOL0     C 3324   9.215   2.988   5.795  0.2591 -0.7096 -0.6918
   25MOL0     C 3325   9.131   2.916   5.904  0.5647 -0.4426  0.6854
   25MOL0     C 3326   9.161   2.771   5.924 -0.4323 -0.8707 -0.4592
   25MOL0     C 3327   9.140   2.687   5.801  0.0970 -0.5199 -0.6405
   25MOL0     C 3328   9.002   2.678   5.768  1.4219  0.0640  0.2106
   25MOL0     N 3329   8.907   2.614   5.861  0.0570  0.3392  0.0877
   25MOL0     C 3330   8.934   2.503   5.933 -0.3791  0.0148  0.6006
   25MOL0     C 3331   8.826   2.494   6.013  1.2360 -0.7615 -1.0477
   25MOL0     C 3332   8.812   2.376   6.105 -0.0713  0.5798 -0.0398
   25MOL0     C 3333   8.920   2.370   6.213 -0.1535  0.9082  0.6867
   25MOL0     C 3334   8.975   2.502   6.269 -0.4172  0.1109  0.6316
   25MOL0     C 3335   9.096   2.479   6.359  0.5060  1.0189  0.2874
   25MOL0     O 3336   9.049   2.429   6.488  0.0913 -0.2432 -0.4553
   25MOL0     C 3337   9.148   2.404   6.583  0.8297  0.5044  0.5853
   25MOL0     C 3338   9.281   2.398   6.547  0.0589 -0.5108  0.5635
   25MOL0     C 3339   9.390   2.375   6.636  0.4627  0.8775  0.2315
   25MOL0     C 3340   9.528   2.348   6.591  0.4804  0.5617 -0.3813
   25MOL0     C 3341   9.352   2.347   6.771 -0.1752  1.2304 -1.1763
   25MOL0     C 3342   9.443   2.325   6.890 -0.0844  1.3489 -0.4786
   25MOL0     O 3343   9.409   2.365   7.008  0.2665 -0.4956 -0.5105
   25MOL0     C 3344   9.437   2.278   7.113  1.3122 -1.2778  0.1568
   25MOL0     C 3345   9.548   2.271   7.200  0.0096 -0.2566  0.2273
   25MOL0     C 3346   9.556   2.179   7.310 -0.0514  0.0143  1.2155
   25MOL0     C 3347   9.454   2.094   7.341  0.3206 -0.1015 -0.3494
   25MOL0     O 3348   9.490   1.993   7.429 -0.3104  0.4698  0.6342
   25MOL0     C 3349   9.422   1.983   7.555  0.0506 -0.7171  0.2460
   25MOL0     C 3350   9.526   1.954   7.660 -0.1428  0.5038  0.8533
   25MOL0     C 3351   9.485   1.945   7.800 -0.0405  0.3175 -0.6104
   25MOL0     C 3352   9.495   2.081   7.872 -0.1191  0.2002 -0.5045
   25MOL0     C 3353   9.457   2.081   8.026 -0.5822 -0.2209 -0.8961
   25MOL0     C 3354   9.521   1.971   8.115  0.5659  0.2012 -0.1603
   25MOL0     C 3355   9.660   1.967   8.115 -0.7163 -0.4313 -0.4429
   25MOL0     C 3356   9.720   1.832   8.168  0.0985 -0.8326 -0.3433
   25MOL0    Cl 3357   9.897   1.825   8.110 -0.0265 -0.5389 -0.0176
   25MOL0     C 3358   9.337   2.097   7.270  0.0168 -0.4604 -0.4613
   25MOL0     C 3359   9.333   2.184   7.160  0.1689 -0.0550 -0.1255
   25MOL0     O 3360   9.558   2.274   6.872  0.3445 -0.4792  0.6461
   25MOL0     C 3361   9.212   2.338   6.797  0.0261 -0.3752  0.0459
   25MOL0     C 3362   9.110   2.371   6.709 -0.1352  0.6836  0.6592
   25MOL0     N 3363   8.739   2.598   5.997 -0.4154  0.3748 -0.4937
   25MOL0     N 3364   8.796   2.672   5.903  0.2240 -0.9582 -0.0822
   25MOL0     C 3365   9.648   3.402   5.693 -0.2258  0.1153 -0.0916
   25MOL0     C 3366   9.775   3.450   5.726 -1.0466  0.8963  0.0525
   25MOL0     C 3367  10.122   3.709   5.849 -0.5485 -0.0130 -0.8712
   25MOL0     C 3368  10.067   3.842   5.873 -0.2747 -0.7124  1.8165
   25MOL0     C 3369  10.152   3.950   5.900 -0.5968 -0.6864 -0.6051
   25MOL0     C 3370  10.290   3.938   5.909  1.0565  0.1727  0.2753
   25MOL0     O 3371  10.361   4.048   5.935  0.7361 -0.4649  0.1871
   25MOL0     C 3372  10.487   4.026   5.980 -0.7402  0.4187 -0.1741
   25MOL0     C 3373  10.564   4.151   6.009 -0.2257  0.3026 -0.8037
   25MOL0     C 3374  10.512   4.232   6.129 -0.9312 -0.5652  0.7958
   25MOL0     C 3375  10.394   4.328   6.102  0.7973 -0.2373 -0.2892
   25MOL0     C 3376  10.393   4.444   6.198 -0.3386 -0.5810  1.2699
   25MOL0     C 3377  10.400   4.527   6.286  0.6006  0.1902 -1.0087
   25MOL0     C 3378  10.343   3.802   5.883 -0.1567 -0.1738 -0.3287
   25MOL0     C 3379  10.262   3.693   5.852 -0.6110  0.0796 -0.3777
   25MOL0     C 3380  10.338   3.558   5.830 -0.3540  0.1481  0.5470
   25MOL0     H 3381   9.696   3.703   5.929  5.0999  3.1302 -4.3155
   25MOL0     H 3382   9.465   3.613   5.879  0.1502 -2.6664  1.2787
   25MOL0     H 3383   9.297   3.368   5.852  3.1039  4.5103 -0.0197
   25MOL0     H 3384   9.434   3.267   5.818  1.3379  2.3430 -1.8953
   25MOL0     H 3385   9.207   3.301   5.631  1.0926  0.7001 -0.4295
   25MOL0     H 3386   9.331   3.165   5.641  3.4764  1.9165  2.6679
   25MOL0     H 3387   9.167   3.172   5.894  0.6399  0.2906  1.0572
   25MOL0     H 3388   9.078   3.149   5.737 -0.9030  1.3183  1.5942
   25MOL0     H 3389   9.224   2.937   5.699  4.0336 -3.0461  0.6761
   25MOL0     H 3390   9.318   2.991   5.834 -0.3321 -1.5863  1.0389
   25MOL0     H 3391   9.027   2.932   5.872 -0.1755 -3.7339  1.1531
   25MOL0     H 3392   9.146   2.973   5.996  1.3776  1.9154 -0.7845
   25MOL0     H 3393   9.265   2.758   5.957 -0.1639  2.4920  0.4134
   25MOL0     H 3394   9.111   2.727   6.011  1.6558  2.4703  2.7229
   25MOL0     H 3395   9.179   2.586   5.817  0.0056 -0.5743 -0.7679
   25MOL0     H 3396   9.184   2.733   5.713  1.7478 -0.1628  0.3187
   25MOL0     H 3397   8.964   2.779   5.752 -2.3731 -0.6364  3.0872
   25MOL0     H 3398   8.994   2.620   5.676  0.7258 -0.9498  0.8809
   25MOL0     H 3399   9.020   2.441   5.912 -0.6559 -0.0121 -0.5264
   25MOL0     H 3400   8.807   2.284   6.046 -0.1573 -0.5501  1.6484
   25MOL0     H 3401   8.712   2.380   6.149 -0.1803  1.4078 -0.3376
   25MOL0     H 3402   8.881   2.308   6.294 -0.1050 -0.9847 -0.6461
   25MOL0     H 3403   9.003   2.308   6.178 -2.0087 -1.3403 -0.0046
   25MOL0     H 3404   9.008   2.577   6.196  1.1582 -0.0225  1.1743
   25MOL0     H 3405   8.891   2.541   6.327  1.6187  1.2326  3.0398
   25MOL0     H 3406   9.157   2.403   6.310  2.7942  2.8648  0.0745
   25MOL0     H 3407   9.171   2.558   6.362  0.0774  1.5181 -1.3819
   25MOL0     H 3408   9.313   2.431   6.449 -2.3744 -2.5001 -1.0503
   25MOL0     H 3409   9.597   2.396   6.662 -0.3096  1.2343 -0.0438
   25MOL0     H 3410   9.535   2.376   6.486 -0.9486  1.2626 -0.3152
   25MOL0     H 3411   9.547   2.241   6.598  3.0866  1.0237  0.8035
   25MOL0     H 3412   9.635   2.330   7.174  1.5606 -2.5515 -0.0775
   25MOL0     H 3413   9.640   2.187   7.378  0.3770  1.6820  0.5574
   25MOL0     H 3414   9.372   2.077   7.580 -0.3591 -0.8371 -0.0953
   25MOL0     H 3415   9.346   1.904   7.553 -0.2161 -0.4865 -1.9669
   25MOL0     H 3416   9.560   1.854   7.630 -0.6848  1.1909 -2.3796
   25MOL0     H 3417   9.611   2.023   7.649 -0.6478  0.7896 -1.9268
   25MOL0     H 3418   9.553   1.873   7.846 -0.1864  0.6845  0.1990
   25MOL0     H 3419   9.381   1.911   7.798  0.3622 -0.9421 -1.1501
   25MOL0     H 3420   9.444   2.155   7.810  2.4905  0.4567 -2.5430
   25MOL0     H 3421   9.595   2.127   7.869 -0.6312  1.4223  0.4113
   25MOL0     H 3422   9.479   2.171   8.084  2.4196 -2.0311  1.0536
   25MOL0     H 3423   9.349   2.060   8.030 -0.8658  1.0288 -1.6577
   25MOL0     H 3424   9.476   1.878   8.080 -1.0344  2.1170 -3.6696
   25MOL0     H 3425   9.494   1.974   8.221  0.9171 -0.4044 -0.0529
   25MOL0     H 3426   9.703   2.047   8.175 -2.5557 -1.5008  2.4797
   25MOL0     H 3427   9.690   1.979   8.010 -0.4448 -3.6526 -0.8212
   25MOL0     H 3428   9.664   1.747   8.128 -2.6174 -0.1839  1.7372
   25MOL0     H 3429   9.711   1.830   8.277 -1.5418 -0.1337 -0.4448
   25MOL0     H 3430   9.247   2.040   7.291  0.0290 -0.3840 -0.2073
   25MOL0     H 3431   9.244   2.169   7.100  0.7425 -3.2833 -0.3704
   25MOL0     H 3432   9.179   2.326   6.900  0.5332  2.1904  0.5886
   25MOL0     H 3433   9.004   2.358   6.726 -0.8881  0.8930 -3.0301
   25MOL0     H 3434   9.631   3.316   5.628 -0.6102  1.3941 -1.7701
   25MOL0     H 3435   9.859   3.415   5.667 -1.5350 -0.1153 -0.0689
   25MOL0     H 3436   9.959   3.854   5.877 -0.1072  2.1837  0.3549
   25MOL0     H 3437  10.120   4.052   5.917  0.7656 -0.1774 -0.9664
   25MOL0     H 3438  10.480   3.985   6.081  2.0080  1.3930  0.5002
   25MOL0     H 3439  10.548   3.958   5.919  0.1941  0.5649  0.5755
   25MOL0     H 3440  10.578   4.211   5.919  1.1486  2.6366  0.8529
   25MOL0     H 3441  10.667   4.122   6.033  0.7362  3.8645  0.0378
   25MOL0     H 3442  10.480   4.169   6.212 -0.8491 -0.2039  1.1062
   25MOL0     H 3443  10.590   4.299   6.166  1.2818 -0.4677 -3.3442
   25MOL0     H 3444  10.304   4.273   6.128  0.3867  0.3833 -0.3769
   25MOL0     H 3445  10.379   4.360   5.999  0.5249  0.3604 -0.0680
   25MOL0     H 3446  10.409   4.594   6.369 -2.8781 -0.2860 -0.0860
   25MOL0     H 3447  10.448   3.780   5.900 -0.1047  0.8402  0.7892
   25MOL0     H 3448  10.444   3.573   5.808  0.2230 -0.6041  2.6006
   25MOL0     H 3449  10.342   3.495   5.919  1.8449  1.3232  1.3500
   25MOL0     H 3450  10.286   3.508   5.748 -1.0623 -0.1680  1.1756
   26MOL0     O 3451   3.672   7.660   1.019 -0.8161 -0.1878  1.5115
   26MOL0     C 3452   3.737   7.761   1.008 -0.0062  0.7875 -0.6642
   26MOL0     O 3453   3.687   7.881   0.963 -0.0216  0.3588  0.7802
   26MOL0     C 3454   3.561   7.877   0.908 -0.9584  0.7979 -0.6846
   26MOL0     C 3455   3.548   7.869   0.768 -0.0567 -0.1319  0.3307
   26MOL0     C 3456   3.418   7.867   0.711 -0.4018  0.2704  0.1148
   26MOL0     C 3457   3.306   7.890   0.786  0.5692 -0.5648  0.7212
   26MOL0     O 3458   3.188   7.896   0.716  0.3840 -1.3816  0.1828
   26MOL0     C 3459   3.074   7.834   0.777 -0.4958  0.8130 -0.2435
   26MOL0     C 3460   2.965   7.805   0.671  0.0915  0.7352 -0.4374
   26MOL0     C 3461   3.011   7.741   0.541  0.3898  0.1657 -0.0858
   26MOL0     C 3462   3.028   7.583   0.570 -0.7409 -0.9584 -0.4568
   26MOL0     C 3463   3.114   7.518   0.466  0.4358  0.5389  0.6543
   26MOL0     C 3464   3.030   7.483   0.339 -1.9182 -0.0218 -1.1964
   26MOL0     C 3465   3.115   7.396   0.234  0.4000 -0.0560 -0.8146
   26MOL0     C 3466   3.029   7.398   0.113  0.8383 -1.1973 -0.0406
   26MOL0     N 3467   3.056   7.271   0.037 -1.0566 -0.9981 -1.0061
   26MOL0     C 3468   3.130   7.262  -0.068  0.1640 -1.4530 -0.1914
   26MOL0     C 3469   3.125   7.138  -0.109  0.4368  0.4487  0.6841
   26MOL0     C 3470   3.206   7.096  -0.229  0.5469  0.1454 -0.8240
   26MOL0     C 3471   3.316   7.001  -0.194  0.3760 -0.2853  0.6171
   26MOL0     C 3472   3.387   6.952  -0.317  0.6952 -0.9013 -1.2085
   26MOL0     C 3473   3.488   7.047  -0.388  1.0974 -0.2309 -0.8226
   26MOL0     O 3474   3.631   7.025  -0.358 -0.3052  0.8298  0.0315
   26MOL0     C 3475   3.721   7.124  -0.356 -0.1423  0.1167  1.3093
   26MOL0     C 3476   3.703   7.264  -0.352  0.6021  0.0494  0.7311
   26MOL0     C 3477   3.815   7.354  -0.349 -0.2452 -0.1372 -0.2288
   26MOL0     C 3478   3.792   7.510  -0.352  0.2788 -0.4276  0.1742
   26MOL0     C 3479   3.947   7.298  -0.345  0.7754 -0.5413 -0.7916
   26MOL0     C 3480   4.072   7.382  -0.339  0.6327  0.2505  0.1784
   26MOL0     O 3481   4.088   7.476  -0.229 -0.2655 -0.2743  0.2498
   26MOL0     C 3482   4.147   7.595  -0.268  0.0620  0.3271 -0.2818
   26MOL0     C 3483   4.145   7.661  -0.390 -0.6894  0.4342 -0.2068
   26MOL0     C 3484   4.207   7.782  -0.410 -0.5108  0.0541 -0.6189
   26MOL0     C 3485   4.277   7.847  -0.315 -0.5782  0.4508  0.0633
   26MOL0     O 3486   4.354   7.965  -0.334  0.4203  0.9584 -0.1159
   26MOL0     C 3487   4.343   8.028  -0.461 -0.0660  0.2062 -0.3989
   26MOL0     C 3488   4.386   8.175  -0.446  0.6783  0.0516  0.0220
   26MOL0     C 3489   4.453   8.222  -0.578  0.0720  1.0073  0.1877
   26MOL0     C 3490   4.497   8.371  -0.546  0.9453 -0.0804 -0.1544
   26MOL0     C 3491   4.578   8.430  -0.662 -0.5040  1.1712 -0.0834
   26MOL0     C 3492   4.719   8.376  -0.679  0.2658 -0.3112  0.2220
   26MOL0     C 3493   4.779   8.425  -0.802  0.1342 -0.6012 -1.0819
   26MOL0     C 3494   4.900   8.340  -0.833 -0.6965  0.6881 -0.8072
   26MOL0    Cl 3495   4.863   8.160  -0.829 -0.3197  0.0866 -0.0042
   26MOL0     C 3496   4.265   7.790  -0.185  0.4481 -0.0876 -0.0146
   26MOL0     C 3497   4.199   7.667  -0.165 -0.0894 -0.2320  0.0662
   26MOL0     O 3498   4.155   7.357  -0.423  0.4432  1.4977 -0.0182
   26MOL0     C 3499   3.961   7.159  -0.337 -0.3363  0.9916 -0.0463
   26MOL0     C 3500   3.848   7.078  -0.345 -0.7178  0.6514  0.1241
   26MOL0     N 3501   3.052   7.057  -0.022  0.1290  0.4727 -0.3137
   26MOL0     N 3502   3.015   7.145   0.070  0.4232 -0.4751 -0.2834
   26MOL0     C 3503   3.323   7.880   0.924 -0.3176 -0.0744 -0.4631
   26MOL0     C 3504   3.449   7.875   0.990  1.4269 -0.5527  0.1176
   26MOL0     C 3505   3.881   7.764   1.024 -0.3735  0.4954  0.3879
   26MOL0     C 3506   3.957   7.887   1.009  0.7012  0.0033  0.2116
   26MOL0     C 3507   4.102   7.891   1.024 -0.0936 -0.3551 -0.3825
   26MOL0     C 3508   4.163   7.780   1.075  1.2820  1.2260  1.3940
   26MOL0     O 3509   4.295   7.791   1.087 -0.2027 -0.3744  0.5360
   26MOL0     C 3510   4.373   7.682   1.147 -0.8230 -0.4607  0.0028
   26MOL0     C 3511   4.523   7.700   1.118 -0.0940  0.7565 -0.1454
   26MOL0     C 3512   4.613   7.592   1.172 -0.2423 -0.1007  0.6271
   26MOL0     C 3513   4.757   7.581   1.127 -0.0198  0.2640  0.4097
   26MOL0     C 3514   4.840   7.691   1.169 -0.9733 -0.4431 -0.6382
   26MOL0     C 3515   4.933   7.770   1.201  0.8641 -0.0545 -0.3024
   26MOL0     C 3516   4.086   7.655   1.081  0.2071 -0.1179 -0.2954
   26MOL0     C 3517   3.951   7.645   1.062  0.2895 -0.2996 -0.2479
   26MOL0     C 3518   3.888   7.512   1.097  0.1025 -0.4859  0.5017
   26MOL0     H 3519   3.638   7.862   0.708  0.1181 -0.2438  0.6067
   26MOL0     H 3520   3.404   7.857   0.604  0.1934 -3.6080  0.2533
   26MOL0     H 3521   3.030   7.908   0.844 -0.2702  0.8901 -0.1799
   26MOL0     H 3522   3.096   7.737   0.823  0.8126 -0.0447 -2.5180
   26MOL0     H 3523   2.878   7.753   0.713 -0.2185 -0.0891 -2.0398
   26MOL0     H 3524   2.928   7.905   0.649 -1.5139  0.4413  0.7757
   26MOL0     H 3525   2.939   7.741   0.459  0.9131  2.9643 -0.6527
   26MOL0     H 3526   3.100   7.789   0.501  0.7432 -1.5045 -1.4208
   26MOL0     H 3527   3.073   7.580   0.670 -1.9830 -1.4509  0.1003
   26MOL0     H 3528   2.939   7.521   0.575 -0.0042 -2.0575 -0.7220
   26MOL0     H 3529   3.137   7.420   0.508  2.2525  0.4664 -0.3892
   26MOL0     H 3530   3.206   7.576   0.451  0.3971  0.8973  1.7435
   26MOL0     H 3531   2.948   7.417   0.370  1.2512 -2.5627  2.8195
   26MOL0     H 3532   2.997   7.573   0.286  0.8005  1.5108 -0.4833
   26MOL0     H 3533   3.131   7.294   0.271 -1.0219  0.1109  0.3647
   26MOL0     H 3534   3.211   7.441   0.205  1.6950 -1.9350  0.2950
   26MOL0     H 3535   2.924   7.395   0.141  1.1604 -2.3919  1.2125
   26MOL0     H 3536   3.021   7.483   0.045  0.2984 -3.1435 -2.5676
   26MOL0     H 3537   3.162   7.350  -0.123 -3.7346  0.4107  0.2000
   26MOL0     H 3538   3.259   7.183  -0.269  1.1899 -0.6242 -1.6752
   26MOL0     H 3539   3.138   7.051  -0.302 -1.0657 -1.7100  1.6420
   26MOL0     H 3540   3.389   7.061  -0.138 -0.9910  1.9850  0.1024
   26MOL0     H 3541   3.280   6.914  -0.138 -3.4662  0.1283 -0.8906
   26MOL0     H 3542   3.437   6.857  -0.298  0.2191 -0.8768  0.2643
   26MOL0     H 3543   3.301   6.928  -0.380 -0.5887 -1.5018  0.6890
   26MOL0     H 3544   3.481   7.028  -0.495  0.0751 -2.6098 -0.4004
   26MOL0     H 3545   3.467   7.152  -0.365  3.8294 -0.2432  2.5549
   26MOL0     H 3546   3.612   7.322  -0.368  0.9943  0.9234  1.5627
   26MOL0     H 3547   3.708   7.542  -0.415 -0.0541  2.0262  1.7180
   26MOL0     H 3548   3.883   7.553  -0.395 -0.6271  2.1049  0.5783
   26MOL0     H 3549   3.778   7.558  -0.255 -2.3488 -0.3114 -0.1642
   26MOL0     H 3550   4.093   7.614  -0.472  1.6102 -2.7268 -0.0323
   26MOL0     H 3551   4.196   7.819  -0.511 -0.7384  1.1298 -0.2204
   26MOL0     H 3552   4.415   7.988  -0.533  0.2859 -1.6582  0.9000
   26MOL0     H 3553   4.239   8.023  -0.497  0.0298 -1.0909 -0.5577
   26MOL0     H 3554   4.311   8.245  -0.408  0.1612 -1.1978  1.3884
   26MOL0     H 3555   4.459   8.178  -0.364 -2.3090  1.0649  2.8461
   26MOL0     H 3556   4.382   8.224  -0.662  1.6550  0.9934 -1.1961
   26MOL0     H 3557   4.534   8.151  -0.595  1.4293  1.9442  2.3642
   26MOL0     H 3558   4.552   8.383  -0.452  2.0159 -3.5183 -0.2178
   26MOL0     H 3559   4.407   8.434  -0.549  2.5209  2.6657  2.9845
   26MOL0     H 3560   4.520   8.421  -0.755 -1.9451  2.0801  0.6803
   26MOL0     H 3561   4.588   8.538  -0.650 -0.9698  1.3233 -0.9619
   26MOL0     H 3562   4.712   8.267  -0.674 -1.2342 -0.4036 -2.1694
   26MOL0     H 3563   4.781   8.429  -0.606  2.7257  1.3346 -2.8270
   26MOL0     H 3564   4.812   8.529  -0.799 -3.4756  0.6368  0.8966
   26MOL0     H 3565   4.708   8.421  -0.886 -1.4273  3.4070 -0.1797
   26MOL0     H 3566   4.971   8.366  -0.754 -1.9399  1.3401  0.1508
   26MOL0     H 3567   4.941   8.374  -0.928  2.7173 -2.6735 -0.7627
   26MOL0     H 3568   4.312   7.843  -0.103 -0.7197  4.7654 -2.1242
   26MOL0     H 3569   4.196   7.622  -0.066 -0.7859  0.8729  0.5705
   26MOL0     H 3570   4.060   7.115  -0.342 -1.9741 -3.3389  1.2568
   26MOL0     H 3571   3.857   6.970  -0.337 -1.5306  0.5955  0.3998
   26MOL0     H 3572   3.228   7.874   0.977 -1.4625 -0.5710 -2.4828
   26MOL0     H 3573   3.472   7.864   1.095 -3.3538 -2.0055  1.2288
   26MOL0     H 3574   3.895   7.969   0.975 -1.4437 -2.0712 -1.0922
   26MOL0     H 3575   4.155   7.985   1.015  1.2664 -0.5322  3.6301
   26MOL0     H 3576   4.346   7.686   1.253 -0.5848  2.2671  0.0390
   26MOL0     H 3577   4.356   7.581   1.107  0.6380 -1.5845  2.0441
   26MOL0     H 3578   4.553   7.791   1.171  0.3888  2.2853 -2.8830
   26MOL0     H 3579   4.538   7.707   1.010 -2.0309  2.6470 -0.3766
   26MOL0     H 3580   4.616   7.603   1.281 -1.2029 -0.6153  0.7218
   26MOL0     H 3581   4.557   7.499   1.156 -1.2018 -0.0766  3.3699
   26MOL0     H 3582   4.762   7.584   1.018 -0.9994  0.3704  0.3597
   26MOL0     H 3583   4.794   7.480   1.151 -2.1108 -1.0976 -1.6689
   26MOL0     H 3584   5.008   7.844   1.223  1.9335 -1.1945  0.0029
   26MOL0     H 3585   4.140   7.564   1.107 -0.1048 -0.2435 -0.0841
   26MOL0     H 3586   3.968   7.438   1.104  0.5767  0.0458  0.8294
   26MOL0     H 3587   3.831   7.515   1.191  0.0167 -1.1521  0.4728
   26MOL0     H 3588   3.828   7.478   1.012  0.3942 -2.0212  0.8828
   27MOL0     O 3589   9.272   3.503   4.639  0.2260 -0.8983 -0.1714
   27MOL0     C 3590   9.196   3.488   4.538 -0.2556  0.0872 -0.3286
   27MOL0     O 3591   9.180   3.578   4.431  0.9368 -0.0667  0.4629
   27MOL0     C 3592   9.193   3.719   4.442 -0.3222  0.3968  0.1084
   27MOL0     C 3593   9.200   3.799   4.324 -0.5787 -0.6514  0.2620
   27MOL0     C 3594   9.235   3.933   4.326 -0.4941 -0.3054 -0.7309
   27MOL0     C 3595   9.262   3.992   4.449 -0.8826  0.0628  0.7427
   27MOL0     O 3596   9.330   4.107   4.459 -0.4307 -0.5699  0.1717
   27MOL0     C 3597   9.476   4.092   4.494 -0.0792  0.9094  0.0994
   27MOL0     C 3598   9.544   4.230   4.490 -1.0899 -0.3404 -0.1390
   27MOL0     C 3599   9.497   4.333   4.608  0.5984  1.5790  0.3824
   27MOL0     C 3600   9.552   4.298   4.744 -0.2564  0.6113  0.2309
   27MOL0     C 3601   9.534   4.418   4.831 -0.1720 -0.4587  0.5018
   27MOL0     C 3602   9.641   4.435   4.938 -0.1841  0.6889 -0.3590
   27MOL0     C 3603   9.639   4.552   5.044 -0.4461  0.2388  0.4317
   27MOL0     C 3604   9.677   4.682   4.983 -0.1918 -0.2206  0.5455
   27MOL0     N 3605   9.743   4.791   5.072  0.8124 -0.4070 -0.4602
   27MOL0     C 3606   9.854   4.866   5.045  1.1994  0.0965  0.0043
   27MOL0     C 3607   9.855   4.959   5.134  0.6959 -0.8924 -0.3741
   27MOL0     C 3608   9.952   5.072   5.114  0.4018 -0.3257 -0.8896
   27MOL0     C 3609  10.062   5.050   5.218 -0.8306  0.4564 -0.2278
   27MOL0     C 3610  10.154   5.171   5.230 -0.1187  0.6277 -0.2316
   27MOL0     C 3611  10.076   5.298   5.283 -0.7189  0.1798  0.1731
   27MOL0     O 3612  10.039   5.391   5.181 -0.3076 -1.3699 -0.0663
   27MOL0     C 3613  10.134   5.487   5.134  1.2174  0.7158  0.1329
   27MOL0     C 3614  10.269   5.501   5.169 -0.3081  0.5291 -0.3159
   27MOL0     C 3615  10.333   5.622   5.137 -0.6530  0.0096  0.4404
   27MOL0     C 3616  10.481   5.640   5.177  0.0206 -0.1307 -0.9533
   27MOL0     C 3617  10.259   5.721   5.072  0.4737 -1.1670 -0.4505
   27MOL0     C 3618  10.316   5.858   5.060 -0.2139 -0.2586  1.3046
   27MOL0     O 3619  10.251   5.933   4.964  0.8213  0.1331  0.4440
   27MOL0     C 3620  10.253   6.069   4.974  0.1565 -0.1897 -1.2213
   27MOL0     C 3621  10.290   6.147   4.858 -0.3646 -1.7221  0.2353
   27MOL0     C 3622  10.271   6.279   4.860  0.0351 -0.3066  0.1132
   27MOL0     C 3623  10.228   6.350   4.970 -0.6019 -0.4853 -0.2066
   27MOL0     O 3624  10.218   6.487   4.940  1.5305 -0.7213  0.3410
   27MOL0     C 3625  10.188   6.583   5.049 -0.9622  0.5568 -0.4789
   27MOL0     C 3626  10.207   6.734   5.003  0.1683 -0.0283  0.1110
   27MOL0     C 3627  10.248   6.819   5.122 -0.1411  0.5662 -0.0980
   27MOL0     C 3628  10.349   6.926   5.091  0.0514 -0.3848  0.1965
   27MOL0     C 3629  10.289   7.055   5.031 -0.6821  0.8388 -0.5602
   27MOL0     C 3630  10.242   7.033   4.882  1.2371  0.4112 -0.2174
   27MOL0     C 3631  10.153   7.152   4.828  0.5663  0.0396 -0.6436
   27MOL0     C 3632  10.245   7.262   4.784  0.0199  0.4863 -0.6873
   27MOL0    Cl 3633  10.358   7.216   4.655  0.1793 -0.3982  0.2393
   27MOL0     C 3634  10.195   6.276   5.089  0.2814 -0.1114  0.7870
   27MOL0     C 3635  10.199   6.132   5.096 -0.0780 -0.3542 -0.2017
   27MOL0     O 3636  10.405   5.903   5.138  0.3518  0.1012 -0.4105
   27MOL0     C 3637  10.129   5.693   5.014 -1.0183  0.5677 -0.0715
   27MOL0     C 3638  10.064   5.587   5.058 -0.3934 -0.4755  0.1838
   27MOL0     N 3639   9.768   4.927   5.238 -0.4353 -0.5337  0.0149
   27MOL0     N 3640   9.705   4.815   5.202 -0.8527  0.4905  0.2712
   27MOL0     C 3641   9.235   3.917   4.559  1.3374  0.0937 -0.6567
   27MOL0     C 3642   9.203   3.782   4.562  0.5255 -0.7475  0.1484
   27MOL0     C 3643   9.130   3.362   4.525  0.5386 -0.6324  0.3417
   27MOL0     C 3644   9.012   3.333   4.592 -0.5751 -0.3253 -0.0220
   27MOL0     C 3645   8.934   3.216   4.555 -0.3525 -0.6506  0.1275
   27MOL0     C 3646   8.974   3.123   4.475 -0.7881  1.0112  0.7274
   27MOL0     O 3647   8.916   3.002   4.465 -0.0030 -0.1695  0.1162
   27MOL0     C 3648   8.847   2.943   4.582 -0.5429 -0.0743 -0.2138
   27MOL0     C 3649   8.788   2.798   4.585  0.0601 -0.1415  0.2373
   27MOL0     C 3650   8.672   2.789   4.491  0.1866  0.2350  0.0936
   27MOL0     C 3651   8.595   2.656   4.485 -0.0232 -0.1934  0.6335
   27MOL0     C 3652   8.511   2.654   4.606  0.6308  0.4587 -0.2081
   27MOL0     C 3653   8.440   2.673   4.702 -0.0793 -0.1809 -0.2474
   27MOL0     C 3654   9.093   3.147   4.407  0.1667  0.6389 -0.5469
   27MOL0     C 3655   9.167   3.261   4.431  0.0103 -0.2695  0.0635
   27MOL0     C 3656   9.314   3.268   4.383  0.2676  0.6861 -0.2376
   27MOL0     H 3657   9.176   3.768   4.223 -2.8835 -0.3857  0.6679
   27MOL0     H 3658   9.243   3.984   4.230  2.5436 -2.3583 -1.7196
   27MOL0     H 3659   9.535   4.029   4.427 -2.1287 -1.6199  0.5265
   27MOL0     H 3660   9.483   4.050   4.595 -3.4077  0.5115  0.2766
   27MOL0     H 3661   9.649   4.209   4.512 -1.6362 -1.5666  1.5401
   27MOL0     H 3662   9.523   4.280   4.395 -0.8268 -1.4957 -0.8090
   27MOL0     H 3663   9.544   4.426   4.573  5.0958 -1.3427 -2.4723
   27MOL0     H 3664   9.389   4.339   4.624  0.7824  3.6904  1.1536
   27MOL0     H 3665   9.509   4.204   4.780  1.4363 -1.7005 -3.2713
   27MOL0     H 3666   9.661   4.290   4.741 -0.1135  1.0458  2.4366
   27MOL0     H 3667   9.439   4.411   4.884 -0.2429  1.4224  0.7062
   27MOL0     H 3668   9.533   4.513   4.776 -0.3147  0.9564  2.8121
   27MOL0     H 3669   9.629   4.346   5.000  0.0425  0.9755  0.1095
   27MOL0     H 3670   9.744   4.429   4.900 -0.6449 -2.5925 -1.4035
   27MOL0     H 3671   9.700   4.531   5.132  1.3360  1.3191 -0.4719
   27MOL0     H 3672   9.538   4.560   5.084 -0.0064 -0.4714  1.7593
   27MOL0     H 3673   9.745   4.642   4.907 -0.9346 -1.1957  0.3688
   27MOL0     H 3674   9.599   4.729   4.924 -0.7230  1.3633  2.4085
   27MOL0     H 3675   9.919   4.861   4.959  1.5770  1.6915  0.1740
   27MOL0     H 3676   9.891   5.161   5.132 -1.4676 -2.2260  3.7190
   27MOL0     H 3677   9.984   5.086   5.010 -0.5731 -0.4942 -1.2209
   27MOL0     H 3678  10.014   5.052   5.316  0.8063  0.6369  0.5951
   27MOL0     H 3679  10.111   4.953   5.206 -2.1033 -0.1724 -0.5225
   27MOL0     H 3680  10.227   5.143   5.308  0.7672 -0.3292 -1.3592
   27MOL0     H 3681  10.202   5.188   5.133  0.7282 -0.9440 -0.1209
   27MOL0     H 3682   9.988   5.267   5.341  0.4336 -1.0996  1.3079
   27MOL0     H 3683  10.140   5.348   5.357 -2.4919  1.6592  0.7876
   27MOL0     H 3684  10.325   5.429   5.227  0.8327  0.7796 -1.0660
   27MOL0     H 3685  10.543   5.713   5.124 -1.2208  1.6864 -0.0084
   27MOL0     H 3686  10.533   5.544   5.184  1.3468  0.6616  1.7089
   27MOL0     H 3687  10.483   5.681   5.279 -1.0913  1.7427 -1.6472
   27MOL0     H 3688  10.322   6.113   4.760 -1.1794 -1.9958  0.0573
   27MOL0     H 3689  10.290   6.340   4.773 -0.7538 -0.5916 -0.2632
   27MOL0     H 3690  10.094   6.579   5.103  0.5106  3.0547  2.5375
   27MOL0     H 3691  10.269   6.559   5.118 -0.8800 -1.5528 -1.2243
   27MOL0     H 3692  10.291   6.724   4.933  0.1221 -2.7993  0.3407
   27MOL0     H 3693  10.117   6.771   4.955  3.4053  2.1939 -5.2033
   27MOL0     H 3694  10.293   6.746   5.191  0.0299 -0.3098 -1.1076
   27MOL0     H 3695  10.159   6.855   5.174 -0.0809  0.2882  0.1999
   27MOL0     H 3696  10.429   6.889   5.026 -0.2463 -0.6903  0.0047
   27MOL0     H 3697  10.389   6.963   5.186 -1.7206  0.3210  0.7154
   27MOL0     H 3698  10.209   7.067   5.104  0.2118 -2.4952  1.2073
   27MOL0     H 3699  10.360   7.138   5.036 -2.8981  2.7596  1.3912
   27MOL0     H 3700  10.171   6.951   4.876 -1.7202  2.8111 -0.2149
   27MOL0     H 3701  10.326   7.022   4.812 -0.1061  0.7882 -1.9548
   27MOL0     H 3702  10.087   7.191   4.907 -0.0362  0.1330 -1.1823
   27MOL0     H 3703  10.097   7.120   4.740  1.3075 -0.1890 -1.0385
   27MOL0     H 3704  10.309   7.282   4.870 -1.2858 -3.5289  1.4716
   27MOL0     H 3705  10.190   7.350   4.750  0.7828  0.1348 -3.0065
   27MOL0     H 3706  10.178   6.339   5.175 -3.0468  1.0717 -0.5560
   27MOL0     H 3707  10.168   6.086   5.189  1.3785 -1.4012 -0.1931
   27MOL0     H 3708  10.081   5.761   4.945 -3.2170 -2.0317 -1.3198
   27MOL0     H 3709   9.955   5.583   5.050 -0.6433  1.3026  1.8525
   27MOL0     H 3710   9.242   3.970   4.654 -1.7731 -1.1747  0.4118
   27MOL0     H 3711   9.172   3.727   4.650 -1.6885 -0.7631 -0.5678
   27MOL0     H 3712   8.979   3.399   4.671 -0.7962 -0.7020  0.1969
   27MOL0     H 3713   8.848   3.200   4.620  0.4136 -3.8276  0.5425
   27MOL0     H 3714   8.920   2.940   4.663  0.1593 -2.9663 -0.8520
   27MOL0     H 3715   8.774   3.016   4.619 -0.0814 -0.2252  1.0499
   27MOL0     H 3716   8.760   2.771   4.687  0.7151 -3.3109 -0.3099
   27MOL0     H 3717   8.861   2.719   4.566 -2.0413 -1.8809 -0.9788
   27MOL0     H 3718   8.608   2.873   4.519  2.6976  2.2654  0.1894
   27MOL0     H 3719   8.711   2.806   4.390 -1.0777 -0.7974 -0.5835
   27MOL0     H 3720   8.656   2.566   4.477 -2.3463 -1.9312  1.1037
   27MOL0     H 3721   8.531   2.654   4.396 -2.6745 -0.0666  2.3889
   27MOL0     H 3722   8.382   2.696   4.789 -1.9269  0.7886 -1.6586
   27MOL0     H 3723   9.133   3.064   4.349  1.6057  0.5244  0.5338
   27MOL0     H 3724   9.376   3.273   4.472 -1.5409 -2.0982  1.3554
   27MOL0     H 3725   9.349   3.182   4.326  2.4103 -0.0582  2.0407
   27MOL0     H 3726   9.330   3.364   4.333 -0.4191  1.4483  0.9515
   28MOL0     O 3727   4.592   7.464   7.261 -0.5572 -0.5365  0.3664
   28MOL0     C 3728   4.550   7.535   7.353 -0.1366  0.1973 -0.9104
   28MOL0     O 3729   4.476   7.490   7.457 -0.5194 -0.5990 -0.0916
   28MOL0     C 3730   4.416   7.363   7.464 -0.9531  0.2495 -0.0012
   28MOL0     C 3731   4.298   7.351   7.530  1.1209  0.2175  0.2054
   28MOL0     C 3732   4.229   7.225   7.550  0.4375  0.6471 -0.5234
   28MOL0     C 3733   4.281   7.110   7.498  0.8094  0.7720  0.1381
   28MOL0     O 3734   4.235   6.983   7.503 -0.2012 -0.0265 -0.3616
   28MOL0     C 3735   4.130   6.972   7.594  0.0878  0.0622 -0.4081
   28MOL0     C 3736   4.092   6.815   7.621  0.2768 -0.5979 -0.5057
   28MOL0     C 3737   4.204   6.718   7.658  0.8750 -0.0136  0.0344
   28MOL0     C 3738   4.270   6.754   7.791  0.6304 -0.6535  0.8757
   28MOL0     C 3739   4.365   6.647   7.833 -0.7289 -1.1313 -0.1151
   28MOL0     C 3740   4.502   6.663   7.761  0.4549  0.5415 -0.9237
   28MOL0     C 3741   4.568   6.536   7.692 -0.2579 -0.0527 -0.1811
   28MOL0     C 3742   4.657   6.465   7.790 -0.1825  0.1507 -0.2104
   28MOL0     N 3743   4.587   6.403   7.909 -0.2720  1.1003 -0.0375
   28MOL0     C 3744   4.521   6.287   7.901  0.3640  0.3549  0.3467
   28MOL0     C 3745   4.470   6.260   8.022 -0.1559  0.9549 -0.6682
   28MOL0     C 3746   4.408   6.127   8.073  1.1008 -0.1960 -0.1162
   28MOL0     C 3747   4.516   6.041   8.125  0.0581 -0.5587  0.0215
   28MOL0     C 3748   4.465   5.923   8.201 -0.1725  1.1878 -0.4553
   28MOL0     C 3749   4.397   5.963   8.340 -0.4957 -0.0687 -0.0935
   28MOL0     O 3750   4.300   5.861   8.374  0.3003  0.0407  0.7868
   28MOL0     C 3751   4.315   5.804   8.496 -0.4463  0.1948  0.8073
   28MOL0     C 3752   4.294   5.663   8.529  0.3661 -0.2024 -0.1159
   28MOL0     C 3753   4.287   5.622   8.658  0.1553  0.0420  0.9240
   28MOL0     C 3754   4.236   5.483   8.690  0.8942  0.9366 -0.6155
   28MOL0     C 3755   4.318   5.716   8.764 -0.7469 -0.3590  0.2491
   28MOL0     C 3756   4.316   5.685   8.916 -0.0816  0.3839  0.3376
   28MOL0     O 3757   4.239   5.583   8.968 -0.5526  0.0750  0.3697
   28MOL0     C 3758   4.209   5.596   9.099  0.1158 -0.0642  0.2051
   28MOL0     C 3759   4.277   5.523   9.199 -1.0533 -0.7233  1.8248
   28MOL0     C 3760   4.275   5.551   9.331 -1.0719 -0.2733 -0.4259
   28MOL0     C 3761   4.194   5.657   9.378  0.4319 -0.0990 -0.7040
   28MOL0     O 3762   4.182   5.709   9.514  0.9659  1.0987  0.3562
   28MOL0     C 3763   4.279   5.676   9.615  0.4916 -0.3697 -0.6733
   28MOL0     C 3764   4.249   5.541   9.672 -0.4583 -0.6307 -1.0148
   28MOL0     C 3765   4.340   5.516   9.790  0.8849  0.8862  0.4493
   28MOL0     C 3766   4.484   5.524   9.742  0.0343 -0.0462 -0.4788
   28MOL0     C 3767   4.586   5.475   9.848 -0.3155  0.3289 -0.6653
   28MOL0     C 3768   4.726   5.519   9.812 -0.6882 -1.5079 -0.9177
   28MOL0     C 3769   4.816   5.500   9.934 -1.2233 -0.3311  1.1917
   28MOL0     C 3770   4.945   5.563   9.925  0.5425 -0.6134 -0.5495
   28MOL0    Cl 3771   5.049   5.513   9.785 -0.4646 -0.0447 -0.1042
   28MOL0     C 3772   4.112   5.722   9.287  0.0559 -0.1296  0.9989
   28MOL0     C 3773   4.111   5.689   9.151 -0.1868 -0.0958 -0.7359
   28MOL0     O 3774   4.382   5.765   8.988  0.9234 -0.1643 -0.3889
   28MOL0     C 3775   4.355   5.851   8.729  0.1921  0.8544 -0.2048
   28MOL0     C 3776   4.342   5.890   8.600 -0.0762 -1.0252 -0.2485
   28MOL0     N 3777   4.500   6.364   8.104  0.2712  0.5276  0.2528
   28MOL0     N 3778   4.568   6.448   8.033 -0.2021 -0.1165  0.6139
   28MOL0     C 3779   4.399   7.122   7.426 -0.3162 -0.2565  0.2181
   28MOL0     C 3780   4.466   7.243   7.414 -0.3507  0.3876  0.2246
   28MOL0     C 3781   4.576   7.686   7.359  0.4295  0.3517 -0.8120
   28MOL0     C 3782   4.612   7.732   7.489 -0.2343  1.4467  0.8715
   28MOL0     C 3783   4.644   7.866   7.513  1.4088  0.0057  0.1539
   28MOL0     C 3784   4.616   7.962   7.410  0.1413 -0.1498 -0.3887
   28MOL0     O 3785   4.610   8.098   7.438 -0.1778 -0.5987 -0.0378
   28MOL0     C 3786   4.619   8.139   7.576 -0.5289  0.3443  0.5751
   28MOL0     C 3787   4.572   8.279   7.594  0.1048  0.6511  0.4147
   28MOL0     C 3788   4.655   8.381   7.526  0.0216  0.2972  0.8139
   28MOL0     C 3789   4.630   8.521   7.565 -0.9469 -1.3597  0.6324
   28MOL0     C 3790   4.494   8.575   7.530 -0.8974  0.2810  0.1216
   28MOL0     C 3791   4.381   8.614   7.518 -0.7287 -0.4573 -0.0620
   28MOL0     C 3792   4.593   7.907   7.284  0.3966  1.1208 -0.5158
   28MOL0     C 3793   4.562   7.776   7.255 -1.0040  0.4312  0.7417
   28MOL0     C 3794   4.529   7.741   7.112  0.6010  0.7540  0.4645
   28MOL0     H 3795   4.253   7.439   7.575 -1.7041 -1.4145  0.8158
   28MOL0     H 3796   4.145   7.233   7.618  1.0427 -2.9717  0.8626
   28MOL0     H 3797   4.044   7.030   7.560 -0.4778  0.0823  0.9755
   28MOL0     H 3798   4.153   7.002   7.697  2.2283  1.8526 -1.3245
   28MOL0     H 3799   4.012   6.806   7.694  1.7650 -1.4694  1.1063
   28MOL0     H 3800   4.045   6.768   7.534 -2.4324  0.1270  0.4804
   28MOL0     H 3801   4.166   6.617   7.672 -0.7424  0.5152 -0.2808
   28MOL0     H 3802   4.278   6.717   7.578  0.4580 -1.5585 -0.3534
   28MOL0     H 3803   4.333   6.842   7.773  0.3937 -0.7489 -0.4772
   28MOL0     H 3804   4.195   6.764   7.870 -1.8566 -0.1212 -1.4499
   28MOL0     H 3805   4.323   6.552   7.800 -2.5046  0.3717 -2.4764
   28MOL0     H 3806   4.371   6.667   7.941 -0.9064  1.5345 -0.5246
   28MOL0     H 3807   4.478   6.734   7.681  1.6075 -0.8054 -2.5406
   28MOL0     H 3808   4.582   6.704   7.823 -0.1535 -0.6395  0.7196
   28MOL0     H 3809   4.625   6.569   7.605  1.2907 -1.7570  0.1170
   28MOL0     H 3810   4.491   6.465   7.659  0.8409 -0.8959 -1.0067
   28MOL0     H 3811   4.710   6.391   7.729 -2.6644 -0.5479 -1.6672
   28MOL0     H 3812   4.727   6.533   7.839  0.5684 -3.0893  3.8094
   28MOL0     H 3813   4.534   6.218   7.818  1.2634  0.2856  0.5396
   28MOL0     H 3814   4.339   6.082   8.001 -0.4621  0.1482  1.1170
   28MOL0     H 3815   4.339   6.162   8.150 -0.4263  0.7077 -1.8072
   28MOL0     H 3816   4.573   6.008   8.037 -3.8829 -0.4397 -2.9013
   28MOL0     H 3817   4.572   6.105   8.192 -3.0517  3.1110 -0.5477
   28MOL0     H 3818   4.409   5.858   8.133 -0.4644  0.8317  0.1155
   28MOL0     H 3819   4.552   5.867   8.237 -1.8365 -0.3367  1.4622
   28MOL0     H 3820   4.484   5.969   8.406  1.7572 -0.8304 -2.8165
   28MOL0     H 3821   4.342   6.058   8.345 -1.9413 -0.7909 -1.4181
   28MOL0     H 3822   4.283   5.592   8.448  4.1629  0.2914 -1.2959
   28MOL0     H 3823   4.181   5.437   8.608  3.6756 -1.7912 -1.1357
   28MOL0     H 3824   4.163   5.478   8.771  2.9783 -1.2893  1.2673
   28MOL0     H 3825   4.307   5.408   8.726 -0.0208  0.2907 -0.1435
   28MOL0     H 3826   4.350   5.451   9.162 -0.0717  0.2892  1.7502
   28MOL0     H 3827   4.348   5.498   9.390 -1.3436  1.5389  1.6641
   28MOL0     H 3828   4.384   5.681   9.584  1.4984 -0.8201  2.2911
   28MOL0     H 3829   4.267   5.752   9.693  4.1336  0.8815 -1.1300
   28MOL0     H 3830   4.142   5.533   9.693 -0.7321 -1.3790 -2.5039
   28MOL0     H 3831   4.258   5.468   9.591  1.4683  0.9384 -2.3365
   28MOL0     H 3832   4.311   5.413   9.816 -0.6002  0.9839 -0.6452
   28MOL0     H 3833   4.322   5.582   9.875 -2.2340 -1.1350  1.5381
   28MOL0     H 3834   4.512   5.628   9.724 -1.1134 -0.0690 -2.6878
   28MOL0     H 3835   4.501   5.467   9.650  2.8769  1.4162 -0.9861
   28MOL0     H 3836   4.559   5.515   9.947 -1.9120 -1.4487 -0.3292
   28MOL0     H 3837   4.573   5.366   9.848 -1.4980  0.4524 -1.7446
   28MOL0     H 3838   4.725   5.628   9.804  0.2775 -1.2022  1.8246
   28MOL0     H 3839   4.773   5.476   9.724 -1.6568 -3.8628 -0.3595
   28MOL0     H 3840   4.821   5.392   9.948  0.5929 -0.2225  1.5784
   28MOL0     H 3841   4.771   5.554  10.018 -0.6994  0.2354  1.1106
   28MOL0     H 3842   5.004   5.543  10.016  1.4176 -0.4501 -1.0643
   28MOL0     H 3843   4.926   5.669   9.942 -1.3444 -1.2518  2.0469
   28MOL0     H 3844   4.043   5.801   9.315 -0.3215  0.0028 -0.2286
   28MOL0     H 3845   4.054   5.752   9.084  3.4883  2.3347 -1.9314
   28MOL0     H 3846   4.383   5.915   8.812  0.8024  1.7265 -1.0776
   28MOL0     H 3847   4.367   5.992   8.573 -0.1772 -0.6711  0.9571
   28MOL0     H 3848   4.450   7.034   7.387  0.6651  0.4591 -0.1565
   28MOL0     H 3849   4.563   7.253   7.366 -0.2373  1.0069  0.5679
   28MOL0     H 3850   4.628   7.664   7.572  0.0847 -2.2051 -1.9103
   28MOL0     H 3851   4.685   7.893   7.610 -0.0499 -1.3478  1.1874
   28MOL0     H 3852   4.549   8.079   7.635  0.0687 -1.9000 -0.8935
   28MOL0     H 3853   4.723   8.126   7.604 -0.1348  2.1074  0.0629
   28MOL0     H 3854   4.573   8.310   7.698 -2.0223  1.1356  0.3375
   28MOL0     H 3855   4.467   8.283   7.562 -0.0774 -0.6851  0.7733
   28MOL0     H 3856   4.759   8.358   7.549  0.3744  2.7473  1.9837
   28MOL0     H 3857   4.635   8.366   7.420 -1.8882  1.2958  0.9767
   28MOL0     H 3858   4.693   8.597   7.518 -3.4114  0.0313 -0.6254
   28MOL0     H 3859   4.648   8.523   7.673  0.9604 -1.2599  0.3582
   28MOL0     H 3860   4.281   8.649   7.507 -1.9901 -3.6514  0.4508
   28MOL0     H 3861   4.575   7.983   7.208  1.9572 -1.4008 -3.6545
   28MOL0     H 3862   4.593   7.667   7.065 -0.5504 -0.6487  1.0413
   28MOL0     H 3863   4.436   7.688   7.131  1.8964 -2.4848 -1.4785
   28MOL0     H 3864   4.516   7.835   7.058 -1.3678  1.4061  1.9431
   29MOL0     O 3865   9.092   8.906   7.657 -0.6105 -0.0459  0.1159
   29MOL0     C 3866   9.119   9.017   7.607 -0.2540  0.2655  0.5403
   29MOL0     O 3867   9.071   9.061   7.492 -1.2478  0.2777 -0.3571
   29MOL0     C 3868   9.034   8.966   7.402  0.3160  0.3242  0.1243
   29MOL0     C 3869   9.114   8.925   7.300 -0.5929  0.3728  0.2792
   29MOL0     C 3870   9.062   8.827   7.206  0.1095 -0.4977 -0.3804
   29MOL0     C 3871   8.926   8.800   7.204  0.6177  0.0503 -0.3292
   29MOL0     O 3872   8.873   8.725   7.110  0.1341 -0.4143 -0.2811
   29MOL0     C 3873   8.940   8.713   6.989  0.0998  0.4370  0.1135
   29MOL0     C 3874   8.871   8.625   6.880 -0.2492  0.1454 -0.5621
   29MOL0     C 3875   8.852   8.479   6.930 -0.4705 -0.4521 -0.3904
   29MOL0     C 3876   8.772   8.387   6.846 -0.8099 -0.2741 -0.7912
   29MOL0     C 3877   8.761   8.251   6.919 -0.6395 -0.6085 -0.1749
   29MOL0     C 3878   8.711   8.133   6.824 -0.1134 -0.1845 -0.6216
   29MOL0     C 3879   8.811   8.113   6.704  0.8807 -0.4148 -0.0089
   29MOL0     C 3880   8.780   7.979   6.643  0.2672  0.2611  0.0041
   29MOL0     N 3881   8.658   7.966   6.556  0.7924 -0.3311  0.4969
   29MOL0     C 3882   8.540   7.918   6.611 -0.8900  0.5401  0.0215
   29MOL0     C 3883   8.463   7.913   6.499  0.1431 -0.6215 -0.4805
   29MOL0     C 3884   8.323   7.858   6.503 -0.4804  0.7590  1.1516
   29MOL0     C 3885   8.206   7.947   6.455  0.2491 -0.6582  0.4363
   29MOL0     C 3886   8.098   7.878   6.360  0.2069  0.0641  1.8858
   29MOL0     C 3887   8.164   7.812   6.236  0.4542  0.0689  0.6214
   29MOL0     O 3888   8.207   7.916   6.147  0.5829  0.0566 -0.1072
   29MOL0     C 3889   8.304   7.893   6.065 -1.3491  0.3571 -0.4178
   29MOL0     C 3890   8.304   7.791   5.976 -0.4259 -1.1622 -0.3327
   29MOL0     C 3891   8.419   7.762   5.899  0.5779 -0.7842  1.0469
   29MOL0     C 3892   8.410   7.649   5.806 -0.1733  0.4736 -0.1630
   29MOL0     C 3893   8.530   7.843   5.903 -1.1771  0.3561  0.2157
   29MOL0     C 3894   8.658   7.806   5.833  0.6206 -0.4259 -0.1210
   29MOL0     O 3895   8.735   7.913   5.784 -0.0436 -0.2639 -0.3471
   29MOL0     C 3896   8.838   7.874   5.704 -0.0167 -0.5586  0.3498
   29MOL0     C 3897   8.953   7.820   5.753  0.9203  0.8622  0.2865
   29MOL0     C 3898   9.057   7.781   5.668 -0.2542  0.2133  0.7502
   29MOL0     C 3899   9.043   7.806   5.531 -1.0893  0.1625 -1.0066
   29MOL0     O 3900   9.141   7.788   5.435  0.3103  0.4191  0.9271
   29MOL0     C 3901   9.269   7.746   5.474  0.5166  0.5281 -0.4210
   29MOL0     C 3902   9.346   7.726   5.345  0.7033 -0.6185 -0.0910
   29MOL0     C 3903   9.364   7.869   5.286  0.6786  0.4832 -0.6500
   29MOL0     C 3904   9.505   7.880   5.219  0.4737 -0.1775 -0.4119
   29MOL0     C 3905   9.545   7.757   5.131 -0.2128 -0.4046  0.5065
   29MOL0     C 3906   9.456   7.724   5.018  0.3556 -0.3903 -0.1956
   29MOL0     C 3907   9.486   7.591   4.943 -0.0448 -0.0250 -0.4131
   29MOL0     C 3908   9.409   7.574   4.817  0.0515  0.3630  0.1126
   29MOL0    Cl 3909   9.462   7.673   4.671  1.0702  0.1436  0.1425
   29MOL0     C 3910   8.924   7.860   5.483 -0.2941  0.5918  1.0847
   29MOL0     C 3911   8.825   7.903   5.562 -0.3208  0.1192 -0.6262
   29MOL0     O 3912   8.681   7.684   5.817  0.6085  0.4689  0.2124
   29MOL0     C 3913   8.534   7.954   5.993  0.0960  0.5187 -0.1955
   29MOL0     C 3914   8.417   7.971   6.076 -0.4119  0.1566 -0.7898
   29MOL0     N 3915   8.539   7.955   6.392  0.1414 -1.2858  0.1633
   29MOL0     N 3916   8.662   7.983   6.425  1.0108 -0.8089  0.0759
   29MOL0     C 3917   8.845   8.842   7.308 -0.3092 -0.0334 -0.6416
   29MOL0     C 3918   8.902   8.923   7.412  1.6480 -0.4425 -0.1016
   29MOL0     C 3919   9.154   9.122   7.703 -0.0969  1.2783 -1.2333
   29MOL0     C 3920   9.059   9.227   7.737 -1.0187  0.9108 -0.7332
   29MOL0     C 3921   9.091   9.324   7.831 -0.6601  0.3203 -0.3373
   29MOL0     C 3922   9.224   9.321   7.888 -0.1921  1.1532 -0.2081
   29MOL0     O 3923   9.272   9.410   7.978 -0.3924 -0.6793  0.1129
   29MOL0     C 3924   9.190   9.474   8.075 -1.0170 -0.1986  0.1498
   29MOL0     C 3925   9.169   9.386   8.201 -0.0456 -0.4212 -0.0940
   29MOL0     C 3926   9.070   9.463   8.298  0.0937 -0.4821  0.2940
   29MOL0     C 3927   9.151   9.534   8.410 -0.2522 -0.3992 -0.1141
   29MOL0     C 3928   9.247   9.637   8.367 -0.2752  0.0839  0.4891
   29MOL0     C 3929   9.324   9.728   8.331  0.1181 -0.4377  1.0524
   29MOL0     C 3930   9.311   9.221   7.851 -1.2150  0.3446 -0.8370
   29MOL0     C 3931   9.280   9.129   7.755  0.1607 -0.0353 -0.4621
   29MOL0     C 3932   9.387   9.029   7.731  0.9185  0.6639  0.1378
   29MOL0     H 3933   9.220   8.950   7.294  0.7480 -3.1491  4.1810
   29MOL0     H 3934   9.133   8.789   7.134 -1.9087  1.1190 -3.4303
   29MOL0     H 3935   9.043   8.679   6.998  0.2571  0.4791 -1.3158
   29MOL0     H 3936   8.950   8.817   6.957  0.1953  0.8851  1.5063
   29MOL0     H 3937   8.780   8.665   6.834  0.1319 -1.0918 -2.5423
   29MOL0     H 3938   8.939   8.622   6.794 -1.5344  2.2694 -1.7224
   29MOL0     H 3939   8.950   8.432   6.938 -1.0677 -1.3824  3.1806
   29MOL0     H 3940   8.803   8.482   7.028  0.1886 -0.8859 -0.0380
   29MOL0     H 3941   8.673   8.415   6.810 -0.6079 -0.6501 -1.6518
   29MOL0     H 3942   8.845   8.381   6.765  1.8139  0.6720  1.3052
   29MOL0     H 3943   8.699   8.249   7.009  1.0704  0.9728  1.1188
   29MOL0     H 3944   8.865   8.235   6.949 -0.0356  3.7577  0.7064
   29MOL0     H 3945   8.719   8.048   6.893 -0.3241  1.1697  1.1193
   29MOL0     H 3946   8.608   8.142   6.790 -0.5232  1.8462  0.9460
   29MOL0     H 3947   8.913   8.102   6.743  0.4149 -2.5008  0.7443
   29MOL0     H 3948   8.810   8.189   6.626  1.3006 -1.1757 -0.7718
   29MOL0     H 3949   8.854   7.948   6.568 -1.0199 -1.9970 -0.4295
   29MOL0     H 3950   8.771   7.898   6.716 -1.7000 -1.2406 -1.7753
   29MOL0     H 3951   8.514   7.890   6.712  1.9845  1.9823  1.2638
   29MOL0     H 3952   8.310   7.818   6.604  3.3617 -2.1424  0.7111
   29MOL0     H 3953   8.315   7.769   6.441  1.5811  1.2974  0.0397
   29MOL0     H 3954   8.154   7.994   6.540  0.2950 -0.7008  0.4888
   29MOL0     H 3955   8.254   8.034   6.409  0.2248 -2.9988 -4.6320
   29MOL0     H 3956   8.052   7.795   6.414  2.0232 -1.1772  1.6148
   29MOL0     H 3957   8.026   7.951   6.322  2.0496  0.3208 -1.5137
   29MOL0     H 3958   8.248   7.744   6.253 -1.8856 -3.1146  0.2993
   29MOL0     H 3959   8.088   7.745   6.194  0.7095  1.2887 -1.9385
   29MOL0     H 3960   8.212   7.735   5.963 -0.9323  0.1384 -3.0106
   29MOL0     H 3961   8.465   7.566   5.851 -1.4382  0.5446  1.6364
   29MOL0     H 3962   8.446   7.674   5.706  0.0722 -0.0031 -0.1967
   29MOL0     H 3963   8.307   7.614   5.788 -0.2570 -1.5831  3.3226
   29MOL0     H 3964   8.951   7.793   5.858 -4.2809 -0.8095  0.0503
   29MOL0     H 3965   9.134   7.713   5.701 -2.5356 -3.2646 -0.6067
   29MOL0     H 3966   9.317   7.829   5.526  0.1187  3.0098 -3.6811
   29MOL0     H 3967   9.268   7.651   5.528  0.8490  0.0848 -1.1764
   29MOL0     H 3968   9.436   7.672   5.376 -0.1886 -1.1779  1.6740
   29MOL0     H 3969   9.280   7.669   5.279 -1.4489  1.7101 -0.1016
   29MOL0     H 3970   9.356   7.950   5.359 -4.5119 -1.1586  1.0561
   29MOL0     H 3971   9.288   7.893   5.212  1.9443  2.3462 -1.4124
   29MOL0     H 3972   9.586   7.890   5.293  0.6627 -0.6991 -0.5453
   29MOL0     H 3973   9.520   7.970   5.159 -2.4834  0.9529  0.3913
   29MOL0     H 3974   9.647   7.780   5.100  0.4930  3.6545  4.7196
   29MOL0     H 3975   9.556   7.663   5.185  4.1254 -0.6626 -0.4599
   29MOL0     H 3976   9.459   7.806   4.946 -0.7595 -0.9800 -0.9554
   29MOL0     H 3977   9.355   7.707   5.057  0.1037 -0.3142 -0.8017
   29MOL0     H 3978   9.475   7.508   5.013  3.3829 -0.1471  0.1720
   29MOL0     H 3979   9.587   7.573   4.903 -0.2932 -2.6037 -0.0092
   29MOL0     H 3980   9.300   7.581   4.819 -0.2779 -2.9567  1.8887
   29MOL0     H 3981   9.421   7.469   4.789  1.2013  0.8696 -1.4278
   29MOL0     H 3982   8.907   7.880   5.378  1.4422 -1.1328  0.4086
   29MOL0     H 3983   8.734   7.950   5.525  0.5312  2.1116 -0.3530
   29MOL0     H 3984   8.625   8.014   5.996  1.0925 -0.9057 -0.7812
   29MOL0     H 3985   8.404   8.039   6.159 -1.8393 -3.8486  2.5858
   29MOL0     H 3986   8.739   8.818   7.305 -1.0590  2.9041 -1.0485
   29MOL0     H 3987   8.838   8.951   7.496  0.0791 -4.3174  0.2262
   29MOL0     H 3988   8.960   9.228   7.693 -2.1870  0.0812  1.7012
   29MOL0     H 3989   9.024   9.406   7.857  2.1122  3.3960 -2.0622
   29MOL0     H 3990   9.245   9.563   8.106  0.6101 -0.0688 -2.7944
   29MOL0     H 3991   9.090   9.496   8.036 -0.5922  3.1593  0.6387
   29MOL0     H 3992   9.262   9.361   8.253  0.3120 -0.1662 -0.6158
   29MOL0     H 3993   9.129   9.288   8.172  2.1363 -1.1123 -0.9463
   29MOL0     H 3994   8.997   9.524   8.244  2.1669  1.3820 -0.5885
   29MOL0     H 3995   9.017   9.378   8.343  0.6276 -0.5623  0.7801
   29MOL0     H 3996   9.184   9.453   8.476  1.6213 -1.3440 -2.0982
   29MOL0     H 3997   9.080   9.583   8.477 -0.0165  1.2213 -0.9897
   29MOL0     H 3998   9.370   9.815   8.289 -1.2582 -1.0223 -1.9413
   29MOL0     H 3999   9.414   9.220   7.887 -0.4718  0.6511 -2.8631
   29MOL0     H 4000   9.360   8.971   7.642  2.9610  2.0610 -1.5159
   29MOL0     H 4001   9.481   9.082   7.709  1.2499  0.3672  0.8026
   29MOL0     H 4002   9.407   8.956   7.809 -0.9228 -2.5814 -2.1937
   30MOL0     O 4003   0.488   0.225   5.362 -0.0216  0.2094  0.1498
   30MOL0     C 4004   0.481   0.124   5.431 -0.6878  1.2163 -0.9518
   30MOL0     O 4005   0.530  -0.003   5.395  0.2776  0.7965 -0.6564
   30MOL0     C 4006   0.546  -0.029   5.258  0.3351 -1.2062 -0.2671
   30MOL0     C 4007   0.432  -0.039   5.173  0.7969  0.8029  0.0040
   30MOL0     C 4008   0.441  -0.103   5.050  0.7478 -0.0933 -1.0121
   30MOL0     C 4009   0.572  -0.117   5.007 -0.2293 -0.9927 -0.0689
   30MOL0     O 4010   0.599  -0.163   4.880 -0.9274 -1.0139 -0.2950
   30MOL0     C 4011   0.592  -0.053   4.789  0.3772  0.2481 -1.0356
   30MOL0     C 4012   0.633  -0.092   4.650 -0.6567  0.7317 -0.6958
   30MOL0     C 4013   0.534  -0.181   4.576 -0.2135 -0.2099 -0.8388
   30MOL0     C 4014   0.549  -0.186   4.416 -0.1565  0.7883 -0.1041
   30MOL0     C 4015   0.692  -0.236   4.384  1.5209 -0.2033  1.0262
   30MOL0     C 4016   0.704  -0.394   4.424  0.2918 -0.1227 -0.8578
   30MOL0     C 4017   0.839  -0.446   4.381 -0.6819 -0.4765 -0.1456
   30MOL0     C 4018   0.950  -0.422   4.480  0.6402  0.0704  0.3179
   30MOL0     N 4019   1.067  -0.492   4.439 -0.3577 -1.1901  0.3589
   30MOL0     C 4020   1.156  -0.435   4.343  0.6895  0.4100  0.0355
   30MOL0     C 4021   1.268  -0.508   4.342 -0.3643 -1.0592  1.7849
   30MOL0     C 4022   1.365  -0.494   4.225  0.2614  0.1683  0.0594
   30MOL0     C 4023   1.480  -0.403   4.256  0.2807 -0.5915 -1.3443
   30MOL0     C 4024   1.463  -0.272   4.198 -0.2369  0.9216  0.0666
   30MOL0     C 4025   1.517  -0.264   4.055 -0.4651  0.0578  0.2250
   30MOL0     O 4026   1.465  -0.359   3.957 -0.0710 -0.4008 -0.3574
   30MOL0     C 4027   1.562  -0.434   3.905 -1.3207 -0.5407 -0.9920
   30MOL0     C 4028   1.606  -0.544   3.965 -1.0838  1.2886  0.7765
   30MOL0     C 4029   1.708  -0.624   3.898 -0.9178  0.5188 -1.4434
   30MOL0     C 4030   1.758  -0.742   3.974  0.8511  0.8425 -0.0509
   30MOL0     C 4031   1.758  -0.579   3.773  0.2445  0.5738  0.0074
   30MOL0     C 4032   1.862  -0.654   3.697 -0.1251  0.1496 -0.2517
   30MOL0     O 4033   1.890  -0.608   3.574 -0.5438 -0.0799  0.0304
   30MOL0     C 4034   1.970  -0.677   3.484 -0.4404  1.0622 -0.6078
   30MOL0     C 4035   2.040  -0.606   3.393 -0.0283 -0.6603 -0.2027
   30MOL0     C 4036   2.113  -0.669   3.290 -0.8980  0.2054 -0.0814
   30MOL0     C 4037   2.112  -0.810   3.270  0.1259 -0.1188 -0.6265
   30MOL0     O 4038   2.166  -0.863   3.167 -0.4073 -0.9051  0.7622
   30MOL0     C 4039   2.076  -0.908   3.059  1.1106 -1.6297  0.3497
   30MOL0     C 4040   2.017  -0.794   2.981 -0.2592 -0.2687  0.3027
   30MOL0     C 4041   1.869  -0.798   2.957  0.2257 -0.8389  0.0065
   30MOL0     C 4042   1.843  -0.662   2.881  0.2449  0.6613  0.3670
   30MOL0     C 4043   1.708  -0.606   2.934  0.1608 -1.1477 -0.3982
   30MOL0     C 4044   1.648  -0.500   2.842 -0.1489  0.6784 -0.2723
   30MOL0     C 4045   1.706  -0.362   2.815  0.1124 -0.8910 -0.4887
   30MOL0     C 4046   1.763  -0.347   2.674  0.0814 -0.1048  0.5936
   30MOL0    Cl 4047   1.862  -0.195   2.675  0.1727  0.1040 -0.0249
   30MOL0     C 4048   2.037  -0.878   3.358  0.2989 -0.0253  0.0429
   30MOL0     C 4049   1.963  -0.814   3.459 -0.6591  0.7597 -0.3174
   30MOL0     O 4050   1.917  -0.751   3.750 -0.2303  0.6590  0.4887
   30MOL0     C 4051   1.709  -0.459   3.714  0.7733  0.2603  0.6888
   30MOL0     C 4052   1.610  -0.394   3.785 -0.6964 -0.8408  0.9213
   30MOL0     N 4053   1.250  -0.610   4.432  0.5914  0.2169  0.1403
   30MOL0     N 4054   1.130  -0.598   4.486 -0.5161  0.3816 -0.3513
   30MOL0     C 4055   0.689  -0.087   5.077  0.5569  0.8001  0.3619
   30MOL0     C 4056   0.669  -0.052   5.211  0.0321  0.4375 -0.0305
   30MOL0     C 4057   0.434   0.140   5.573 -0.2277 -0.4760  0.4305
   30MOL0     C 4058   0.330   0.058   5.613 -0.3433 -0.4135  0.0825
   30MOL0     C 4059   0.270   0.066   5.741 -0.6289  0.0180  0.9314
   30MOL0     C 4060   0.298   0.176   5.823 -0.8665 -0.5526 -0.2117
   30MOL0     O 4061   0.228   0.176   5.943  0.0116  0.2257  0.8435
   30MOL0     C 4062   0.271   0.262   6.055 -0.5399 -0.0226  0.5898
   30MOL0     C 4063   0.205   0.216   6.186 -0.8366  0.8918 -0.4937
   30MOL0     C 4064   0.265   0.080   6.229  0.0419  0.0106 -0.1941
   30MOL0     C 4065   0.222   0.036   6.359 -0.4837  0.6700 -0.5689
   30MOL0     C 4066   0.279  -0.093   6.390  0.1890  0.2984 -0.4889
   30MOL0     C 4067   0.342  -0.195   6.412  0.4604  0.2163  0.4337
   30MOL0     C 4068   0.400   0.260   5.781 -0.2308 -0.2561  0.4193
   30MOL0     C 4069   0.478   0.235   5.666 -1.3335  0.2273  1.1150
   30MOL0     C 4070   0.593   0.327   5.639 -0.8292  0.6492  0.5710
   30MOL0     H 4071   0.332  -0.016   5.210 -0.3924 -0.7769 -1.9891
   30MOL0     H 4072   0.351  -0.111   4.991  1.8235  0.0290 -2.7481
   30MOL0     H 4073   0.654   0.028   4.827  1.8050  0.0011 -2.7218
   30MOL0     H 4074   0.487  -0.021   4.787  0.3213  0.0523 -1.3410
   30MOL0     H 4075   0.635   0.000   4.592  3.1077  1.3269  0.0646
   30MOL0     H 4076   0.734  -0.136   4.656 -1.6877 -2.8909 -4.9114
   30MOL0     H 4077   0.542  -0.285   4.610 -1.5089 -1.6038 -4.3264
   30MOL0     H 4078   0.434  -0.147   4.604  1.1707  2.0455  1.7979
   30MOL0     H 4079   0.481  -0.257   4.367 -0.1434 -0.6684  1.8320
   30MOL0     H 4080   0.518  -0.084   4.394 -1.9943  1.5050  4.5036
   30MOL0     H 4081   0.781  -0.185   4.421  3.5351 -2.2279 -0.7411
   30MOL0     H 4082   0.698  -0.232   4.275 -0.1539  1.1544  0.9364
   30MOL0     H 4083   0.690  -0.414   4.531 -2.6284 -0.4350 -1.2111
   30MOL0     H 4084   0.638  -0.462   4.370  2.1216 -2.0784 -0.7688
   30MOL0     H 4085   0.878  -0.398   4.291 -0.2646 -1.0264 -0.2593
   30MOL0     H 4086   0.824  -0.552   4.360 -0.7736  0.2950 -5.0006
   30MOL0     H 4087   0.948  -0.312   4.487 -2.4849  0.2493 -1.6946
   30MOL0     H 4088   0.942  -0.460   4.583 -0.7794 -1.3377 -0.2791
   30MOL0     H 4089   1.133  -0.358   4.269  1.3651 -0.8625 -1.5626
   30MOL0     H 4090   1.317  -0.475   4.128 -0.4666  2.3738  0.8011
   30MOL0     H 4091   1.419  -0.589   4.212  1.9302  1.2125 -1.0036
   30MOL0     H 4092   1.498  -0.387   4.363  0.0918  5.4644 -1.8661
   30MOL0     H 4093   1.577  -0.438   4.218  1.5196  0.3366  0.7657
   30MOL0     H 4094   1.358  -0.242   4.195 -0.3931  0.3584 -0.2957
   30MOL0     H 4095   1.518  -0.197   4.256  0.3623  1.1286 -0.7473
   30MOL0     H 4096   1.494  -0.167   4.011 -2.6232 -1.1840 -1.5814
   30MOL0     H 4097   1.626  -0.279   4.055 -0.3373  0.8569 -0.4082
   30MOL0     H 4098   1.552  -0.569   4.056 -0.4441  4.4003  2.1432
   30MOL0     H 4099   1.726  -0.834   3.923 -1.9873  0.6305  1.8691
   30MOL0     H 4100   1.707  -0.747   4.071 -2.0984 -0.8429 -1.5271
   30MOL0     H 4101   1.866  -0.752   3.984  0.9018 -0.5448 -1.4508
   30MOL0     H 4102   2.046  -0.500   3.414 -0.8051 -0.7418  0.5378
   30MOL0     H 4103   2.166  -0.618   3.210  2.6453  1.5744  2.8417
   30MOL0     H 4104   2.139  -0.958   2.984  4.5093  2.0707  0.3420
   30MOL0     H 4105   1.994  -0.967   3.100 -2.2302  1.1976 -1.7116
   30MOL0     H 4106   2.049  -0.702   3.031  1.7116 -0.7562  0.0288
   30MOL0     H 4107   2.072  -0.786   2.887  0.7725 -2.9411  0.5849
   30MOL0     H 4108   1.814  -0.778   3.050  0.0989  0.8258 -0.3785
   30MOL0     H 4109   1.826  -0.885   2.907  1.8538 -1.3689 -0.5266
   30MOL0     H 4110   1.829  -0.692   2.777 -4.5924 -0.1228  1.0014
   30MOL0     H 4111   1.925  -0.591   2.896  2.9173 -1.9157 -0.9870
   30MOL0     H 4112   1.641  -0.690   2.954  2.2155 -3.5705 -2.8488
   30MOL0     H 4113   1.711  -0.555   3.031 -1.5373 -1.8448  0.0515
   30MOL0     H 4114   1.547  -0.489   2.883 -0.7926 -0.0293 -1.6040
   30MOL0     H 4115   1.624  -0.544   2.745 -1.4988  2.1099 -0.6301
   30MOL0     H 4116   1.788  -0.364   2.888 -3.8662  0.5774  4.6071
   30MOL0     H 4117   1.642  -0.284   2.857  1.4439 -0.3449  0.6199
   30MOL0     H 4118   1.691  -0.334   2.592  0.5163  1.1351  0.3803
   30MOL0     H 4119   1.826  -0.435   2.660 -0.8481 -0.6762 -0.0761
   30MOL0     H 4120   2.022  -0.985   3.356 -0.4572  0.0776 -0.0488
   30MOL0     H 4121   1.893  -0.872   3.517 -0.7520 -0.2653 -1.4272
   30MOL0     H 4122   1.735  -0.400   3.627 -2.1238  1.8150  0.7452
   30MOL0     H 4123   1.566  -0.302   3.748 -0.8640 -0.5754  1.7481
   30MOL0     H 4124   0.791  -0.097   5.040  0.5278  1.9730 -0.1008
   30MOL0     H 4125   0.756  -0.024   5.270 -0.2806  2.1351 -0.3152
   30MOL0     H 4126   0.289  -0.019   5.548  1.1055  0.0520 -1.4367
   30MOL0     H 4127   0.196  -0.001   5.783 -1.4143 -1.1324 -2.0054
   30MOL0     H 4128   0.373   0.226   6.070 -1.6051 -2.7030  1.9992
   30MOL0     H 4129   0.264   0.369   6.034 -0.5019 -0.4512 -1.8981
   30MOL0     H 4130   0.097   0.211   6.167 -0.8897  3.7173 -1.2797
   30MOL0     H 4131   0.220   0.290   6.265 -2.5539 -0.8721  1.6377
   30MOL0     H 4132   0.229   0.006   6.158 -3.0928  2.6710 -1.6378
   30MOL0     H 4133   0.374   0.090   6.222 -0.1781  2.7779 -0.7796
   30MOL0     H 4134   0.114   0.017   6.357 -0.6596  1.6433 -0.7256
   30MOL0     H 4135   0.256   0.095   6.445 -0.0862  1.0943 -1.0114
   30MOL0     H 4136   0.388  -0.286   6.445  0.5423 -0.2911 -1.0312
   30MOL0     H 4137   0.430   0.349   5.836 -0.2084 -0.2570  0.4085
   30MOL0     H 4138   0.683   0.280   5.597 -0.3353  0.7504  1.4898
   30MOL0     H 4139   0.563   0.403   5.566 -0.2533 -0.6345 -1.0711
   30MOL0     H 4140   0.615   0.382   5.731  0.5353  2.3518 -0.6908
   31MOL0     O 4141   9.286   4.559   4.405 -0.0531 -0.1881  0.0795
   31MOL0     C 4142   9.358   4.637   4.343  1.2628  0.1831  0.5374
   31MOL0     O 4143   9.398   4.621   4.212  0.2171  0.4031 -0.0788
   31MOL0     C 4144   9.351   4.526   4.122 -0.2870 -0.3720 -0.5988
   31MOL0     C 4145   9.246   4.441   4.149 -0.0601 -0.5305  0.2334
   31MOL0     C 4146   9.199   4.361   4.047 -0.1746  0.2578 -0.4739
   31MOL0     C 4147   9.238   4.372   3.914 -1.0578  0.4291 -0.7102
   31MOL0     O 4148   9.163   4.318   3.821  0.0593 -0.6946  0.4575
   31MOL0     C 4149   9.213   4.207   3.742  0.0775  0.2511  0.8904
   31MOL0     C 4150   9.211   4.069   3.800  1.0636  0.3553 -0.4255
   31MOL0     C 4151   9.248   3.968   3.695  0.3413  0.1173  0.7317
   31MOL0     C 4152   9.347   3.867   3.756  0.9172 -0.1733 -0.4968
   31MOL0     C 4153   9.374   3.753   3.661  0.4519  0.3643  0.2480
   31MOL0     C 4154   9.451   3.646   3.738 -0.2590  1.1561 -0.0948
   31MOL0     C 4155   9.490   3.553   3.624  0.4318 -0.9901 -1.0188
   31MOL0     C 4156   9.604   3.600   3.535 -0.5956 -0.3565  1.2104
   31MOL0     N 4157   9.737   3.601   3.592 -0.7317 -0.0952  0.5873
   31MOL0     C 4158   9.823   3.497   3.609 -0.7547  1.1610  0.2617
   31MOL0     C 4159   9.931   3.541   3.672 -0.6928  0.1368  0.6683
   31MOL0     C 4160  10.061   3.471   3.712 -0.0378 -0.0001 -0.1406
   31MOL0     C 4161  10.122   3.394   3.596 -1.4859  0.1246 -0.0739
   31MOL0     C 4162  10.237   3.470   3.521  0.2252 -0.5547  0.0076
   31MOL0     C 4163  10.274   3.402   3.385 -0.1403 -0.4243 -0.3620
   31MOL0     O 4164  10.339   3.272   3.404 -0.2011  0.2362 -0.2601
   31MOL0     C 4165  10.460   3.276   3.474 -1.0075  0.2369  0.1354
   31MOL0     C 4166  10.569   3.349   3.414  0.7041 -0.0553  0.5102
   31MOL0     C 4167  10.699   3.358   3.471 -0.2086  0.1696  0.0780
   31MOL0     C 4168  10.807   3.430   3.395 -0.2769  1.2537  1.5434
   31MOL0     C 4169  10.716   3.315   3.606  0.0446  0.6170 -0.1693
   31MOL0     C 4170  10.849   3.327   3.689  0.8126  0.1037 -0.1066
   31MOL0     O 4171  10.848   3.247   3.803  0.3480 -0.6180 -0.1958
   31MOL0     C 4172  10.948   3.260   3.886 -0.4955 -0.5782  1.4085
   31MOL0     C 4173  10.912   3.289   4.015  0.3175  0.0969  0.3746
   31MOL0     C 4174  11.014   3.301   4.113  0.3301  0.1363  0.2322
   31MOL0     C 4175  11.144   3.306   4.074  0.5967 -0.6009 -0.5096
   31MOL0     O 4176  11.246   3.325   4.167  0.4131  0.4116  0.6422
   31MOL0     C 4177  11.308   3.202   4.198  0.4066 -0.2452  0.6960
   31MOL0     C 4178  11.406   3.231   4.308 -0.5153  0.2214 -1.0606
   31MOL0     C 4179  11.357   3.266   4.446  0.2618  0.6671 -0.0198
   31MOL0     C 4180  11.436   3.213   4.566  0.4988 -1.4339  0.8187
   31MOL0     C 4181  11.414   3.070   4.600 -0.1398  0.0045 -0.6673
   31MOL0     C 4182  11.430   3.034   4.752 -1.1099 -0.1448  0.0994
   31MOL0     C 4183  11.582   2.993   4.774  0.2204 -0.2077  0.3164
   31MOL0     C 4184  11.626   3.002   4.910  0.0841  0.4094  0.3621
   31MOL0    Cl 4185  11.807   2.960   4.908 -0.5726  0.4269  0.1679
   31MOL0     C 4186  11.179   3.293   3.938 -1.1982 -0.4309  0.0077
   31MOL0     C 4187  11.084   3.272   3.848 -0.0909  1.2251  0.0405
   31MOL0     O 4188  10.919   3.424   3.676  0.1705 -0.5030  0.2191
   31MOL0     C 4189  10.602   3.254   3.670 -0.7156 -0.2908  0.2761
   31MOL0     C 4190  10.474   3.246   3.607  0.0892 -0.0201  0.2028
   31MOL0     N 4191   9.919   3.679   3.676 -1.2715 -0.9694  0.0353
   31MOL0     N 4192   9.803   3.709   3.644  0.3138 -0.0751  0.3521
   31MOL0     C 4193   9.346   4.456   3.882  0.4173  0.3720 -0.0111
   31MOL0     C 4194   9.404   4.528   3.988  0.3131  0.2211  0.5656
   31MOL0     C 4195   9.436   4.742   4.426 -0.6623  0.0629 -0.3239
   31MOL0     C 4196   9.536   4.811   4.361 -0.0182 -0.1970 -0.4271
   31MOL0     C 4197   9.607   4.903   4.434  0.4117  0.6204 -0.3541
   31MOL0     C 4198   9.591   4.944   4.568  0.7285  0.8014 -0.2529
   31MOL0     O 4199   9.662   5.045   4.630  0.4456  0.1983 -0.2095
   31MOL0     C 4200   9.597   5.126   4.726  1.1180  0.7594  0.3697
   31MOL0     C 4201   9.672   5.257   4.747  0.0771 -1.4533 -0.0673
   31MOL0     C 4202   9.805   5.231   4.833  0.1720 -0.3422  0.3744
   31MOL0     C 4203   9.883   5.354   4.878 -0.5086  0.3337 -0.5988
   31MOL0     C 4204   9.881   5.464   4.774  0.7724 -0.2046  0.0726
   31MOL0     C 4205   9.864   5.560   4.706 -0.7685 -0.7325  0.0758
   31MOL0     C 4206   9.491   4.871   4.632 -0.3200 -0.8566 -0.1224
   31MOL0     C 4207   9.415   4.771   4.568  0.3802 -0.4814 -0.2157
   31MOL0     C 4208   9.299   4.710   4.652  0.4092 -0.2634 -0.1145
   31MOL0     H 4209   9.210   4.430   4.250  3.3543 -4.3403  1.3116
   31MOL0     H 4210   9.123   4.286   4.064  0.8801 -0.2590  2.6790
   31MOL0     H 4211   9.316   4.232   3.717 -0.0463  2.0304  1.9730
   31MOL0     H 4212   9.159   4.211   3.647 -0.3460  1.4119  1.1594
   31MOL0     H 4213   9.284   4.056   3.880 -0.8565 -2.9738  0.9745
   31MOL0     H 4214   9.111   4.046   3.837  2.1443 -1.1790  1.7615
   31MOL0     H 4215   9.159   3.917   3.659 -1.8248  2.9455  1.7410
   31MOL0     H 4216   9.290   4.023   3.611 -0.8614  4.5998  2.7984
   31MOL0     H 4217   9.447   3.909   3.770  0.7713 -0.1146  0.4863
   31MOL0     H 4218   9.308   3.848   3.857  2.0578  3.5635  0.8277
   31MOL0     H 4219   9.432   3.806   3.585 -1.1684  2.1824  0.2067
   31MOL0     H 4220   9.276   3.713   3.632  1.4354 -3.8593  1.9402
   31MOL0     H 4221   9.540   3.683   3.789 -0.1776 -1.7599  2.1659
   31MOL0     H 4222   9.383   3.592   3.805 -0.2663  1.5847  0.2397
   31MOL0     H 4223   9.399   3.532   3.566 -1.0795  2.0718  0.0508
   31MOL0     H 4224   9.536   3.460   3.658  0.4878 -0.5403  0.1883
   31MOL0     H 4225   9.616   3.539   3.445  3.8144  1.1733  0.5312
   31MOL0     H 4226   9.583   3.697   3.492 -0.6027 -0.7455  0.3221
   31MOL0     H 4227   9.797   3.393   3.589  1.4842  0.7221 -0.6027
   31MOL0     H 4228  10.032   3.389   3.779 -1.1039 -1.5223 -2.3393
   31MOL0     H 4229  10.136   3.529   3.766  0.2977 -1.4032  0.9748
   31MOL0     H 4230  10.166   3.302   3.635 -1.2708  0.5060  0.5936
   31MOL0     H 4231  10.045   3.360   3.526  0.2354 -6.1112  0.5169
   31MOL0     H 4232  10.206   3.572   3.496  0.1484 -0.0963  1.8123
   31MOL0     H 4233  10.314   3.478   3.599  0.1470 -1.3672  0.1827
   31MOL0     H 4234  10.181   3.386   3.329 -1.4967 -0.8244  1.8866
   31MOL0     H 4235  10.344   3.470   3.335  0.3277 -0.3150  0.4348
   31MOL0     H 4236  10.559   3.384   3.312  0.2882 -0.4272  0.4198
   31MOL0     H 4237  10.907   3.388   3.410  0.5063  3.1356  1.9522
   31MOL0     H 4238  10.813   3.536   3.423  1.9215  2.5686 -2.9932
   31MOL0     H 4239  10.790   3.438   3.288  2.9067  2.0843  0.9952
   31MOL0     H 4240  10.809   3.303   4.045  0.0002  2.0192 -1.3699
   31MOL0     H 4241  10.993   3.309   4.219  1.1902 -1.1935  0.5295
   31MOL0     H 4242  11.234   3.127   4.229  1.1576 -1.6702 -0.8444
   31MOL0     H 4243  11.365   3.168   4.112  0.1536 -4.2544  1.9071
   31MOL0     H 4244  11.479   3.150   4.298 -1.9442 -0.9352 -2.5553
   31MOL0     H 4245  11.471   3.315   4.280  0.9931 -0.1832  0.9946
   31MOL0     H 4246  11.256   3.223   4.445  0.2264  0.7065  0.8515
   31MOL0     H 4247  11.334   3.373   4.448 -1.5437  0.3933 -2.0536
   31MOL0     H 4248  11.400   3.278   4.646 -1.1012 -0.3174 -0.7429
   31MOL0     H 4249  11.544   3.224   4.553  0.1909 -0.4495 -1.2511
   31MOL0     H 4250  11.306   3.058   4.594 -0.1231 -0.1516 -0.6651
   31MOL0     H 4251  11.463   2.993   4.539  0.1120 -2.5986  2.5263
   31MOL0     H 4252  11.377   2.944   4.783 -0.0258 -1.3888 -1.4508
   31MOL0     H 4253  11.398   3.122   4.809 -1.4963  2.4528 -3.7139
   31MOL0     H 4254  11.643   3.061   4.714  1.3901 -0.5580  1.0891
   31MOL0     H 4255  11.607   2.893   4.739  0.0042  1.0042 -3.8217
   31MOL0     H 4256  11.587   2.921   4.973  2.6250 -1.6528 -0.5204
   31MOL0     H 4257  11.620   3.104   4.948 -3.5908 -0.2225  1.9561
   31MOL0     H 4258  11.283   3.303   3.906 -1.8031 -2.8952 -3.2397
   31MOL0     H 4259  11.117   3.262   3.745 -0.3395  1.0224 -0.0198
   31MOL0     H 4260  10.611   3.246   3.778  2.2817  0.0243  0.1356
   31MOL0     H 4261  10.386   3.206   3.657  1.3605  1.2455  3.7629
   31MOL0     H 4262   9.375   4.456   3.777 -3.4600 -4.2565 -1.4525
   31MOL0     H 4263   9.496   4.581   3.968  0.3170  0.4572  1.1747
   31MOL0     H 4264   9.553   4.805   4.254  0.3978  0.0514 -0.3797
   31MOL0     H 4265   9.679   4.964   4.381  0.3691  0.6014 -0.4367
   31MOL0     H 4266   9.492   5.137   4.698  1.6319 -0.7374 -2.4981
   31MOL0     H 4267   9.612   5.081   4.825  0.5333 -1.4429 -0.4795
   31MOL0     H 4268   9.601   5.315   4.807 -0.2252  0.0116 -1.7539
   31MOL0     H 4269   9.693   5.307   4.652  1.3025  0.7600  1.2791
   31MOL0     H 4270   9.784   5.177   4.926 -0.0191  1.2493  1.2926
   31MOL0     H 4271   9.872   5.178   4.765 -0.8220 -1.8507  0.5369
   31MOL0     H 4272   9.983   5.321   4.905 -0.0286 -2.3312 -4.6748
   31MOL0     H 4273   9.835   5.377   4.973  0.3504 -0.9650  0.1818
   31MOL0     H 4274   9.859   5.644   4.640 -5.8362  0.3000  1.3251
   31MOL0     H 4275   9.450   4.900   4.728  0.6033 -0.9748  0.3166
   31MOL0     H 4276   9.205   4.722   4.598  1.8086  1.9733 -2.2838
   31MOL0     H 4277   9.312   4.602   4.662  1.8892 -0.4497 -2.8146
   31MOL0     H 4278   9.292   4.763   4.747 -0.5901  2.8891 -1.7847
   32MOL0     O 4279   1.388  11.339   8.525  0.0365  0.2168  0.7314
   32MOL0     C 4280   1.324  11.281   8.439  1.0305  0.1699  0.3281
   32MOL0     O 4281   1.213  11.332   8.387 -0.1244  0.7572  0.5561
   32MOL0     C 4282   1.155  11.443   8.440 -0.5649  0.9745  0.4382
   32MOL0     C 4283   1.156  11.569   8.373 -0.2311  1.0459 -0.1744
   32MOL0     C 4284   1.111  11.679   8.444  0.1889  0.1966  0.2595
   32MOL0     C 4285   1.058  11.674   8.570 -0.2210  0.2591  0.5093
   32MOL0     O 4286   1.018  11.780   8.642  0.2291  0.2962 -0.4514
   32MOL0     C 4287   0.961  11.898   8.575  0.2120 -0.0864 -0.1663
   32MOL0     C 4288   0.963  12.029   8.655  0.7522  0.0158 -0.4173
   32MOL0     C 4289   0.897  11.992   8.798  0.7984  1.2129 -0.3875
   32MOL0     C 4290   0.907  12.120   8.878  0.1144 -0.3066  0.0588
   32MOL0     C 4291   0.791  12.107   8.992  0.5026 -0.1720  0.1231
   32MOL0     C 4292   0.824  12.018   9.113  0.1777  0.3439  0.2010
   32MOL0     C 4293   0.722  12.043   9.234  0.9241  0.2501  0.2684
   32MOL0     C 4294   0.790  11.985   9.362 -0.4334  0.1067 -0.6750
   32MOL0     N 4295   0.907  12.065   9.411  0.6084  0.2089 -0.3564
   32MOL0     C 4296   0.891  12.176   9.484  0.0511  0.3117  0.4772
   32MOL0     C 4297   1.016  12.230   9.494 -0.0140 -0.1055  0.3394
   32MOL0     C 4298   1.058  12.354   9.561  0.0267 -1.4264  0.1800
   32MOL0     C 4299   1.109  12.337   9.706  0.1492  0.4675 -0.2173
   32MOL0     C 4300   1.079  12.479   9.773  0.4365 -0.2988  0.0133
   32MOL0     C 4301   1.166  12.511   9.888  0.0913  0.1754 -0.3988
   32MOL0     O 4302   1.154  12.649   9.927 -0.0708 -0.0192  0.8325
   32MOL0     C 4303   1.212  12.685  10.044 -0.4098 -0.1207  0.2293
   32MOL0     C 4304   1.155  12.810  10.098 -0.2730 -0.1648  0.3944
   32MOL0     C 4305   1.171  12.860  10.229  0.5260  0.1724  0.0277
   32MOL0     C 4306   1.109  12.989  10.256  0.1013 -0.0462  0.4714
   32MOL0     C 4307   1.265  12.785  10.304  0.6472 -0.7123 -0.3685
   32MOL0     C 4308   1.313  12.828  10.438 -0.4693 -0.4476  0.2419
   32MOL0     O 4309   1.354  12.728  10.520 -0.6173  0.8098 -1.1013
   32MOL0     C 4310   1.375  12.730  10.653  0.4873 -0.5499 -0.1148
   32MOL0     C 4311   1.404  12.617  10.723 -0.2456  0.4146 -0.3933
   32MOL0     C 4312   1.400  12.615  10.863  0.7175 -0.2997 -0.0700
   32MOL0     C 4313   1.358  12.730  10.934  0.4004 -0.2844 -0.3258
   32MOL0     O 4314   1.364  12.741  11.071 -0.0076 -0.0344 -0.3871
   32MOL0     C 4315   1.326  12.633  11.160 -0.2833 -0.0419  0.9624
   32MOL0     C 4316   1.228  12.693  11.259  0.8958 -0.1367  0.3813
   32MOL0     C 4317   1.168  12.588  11.344  0.7394  0.7009  0.0855
   32MOL0     C 4318   1.084  12.654  11.457  0.0883  0.0818  0.2060
   32MOL0     C 4319   1.165  12.675  11.589 -0.1108 -1.3377  0.0390
   32MOL0     C 4320   1.127  12.810  11.651 -0.6566  0.4219  0.8715
   32MOL0     C 4321   1.199  12.841  11.782  0.8772 -0.1856 -0.2164
   32MOL0     C 4322   1.160  12.978  11.831  0.1514  0.6320 -0.5547
   32MOL0    Cl 4323   1.213  13.092  11.708  0.2086  0.3869  0.1982
   32MOL0     C 4324   1.334  12.849  10.864 -1.2211  0.7720 -1.2236
   32MOL0     C 4325   1.353  12.853  10.727 -0.0461  0.3542  0.5827
   32MOL0     O 4326   1.341  12.945  10.455  0.4756 -0.2064 -0.3788
   32MOL0     C 4327   1.318  12.657  10.257 -0.5054 -0.4068  0.5037
   32MOL0     C 4328   1.291  12.603  10.128 -0.3561 -0.9019  0.3558
   32MOL0     N 4329   1.104  12.135   9.435 -0.4218 -0.0878 -0.3504
   32MOL0     N 4330   1.038  12.037   9.401  0.3406 -0.9796  0.6030
   32MOL0     C 4331   1.052  11.542   8.626 -0.1686  0.0865  0.1999
   32MOL0     C 4332   1.099  11.430   8.567 -0.0766 -0.3673  0.7733
   32MOL0     C 4333   1.374  11.161   8.383  0.7223  0.6186 -1.2946
   32MOL0     C 4334   1.490  11.105   8.441  0.2774 -0.7362  0.7929
   32MOL0     C 4335   1.544  10.985   8.409  0.5875  0.2758  0.0674
   32MOL0     C 4336   1.484  10.907   8.304  0.0885 -1.1663  1.2486
   32MOL0     O 4337   1.544  10.795   8.257 -0.3301  0.8418 -0.3325
   32MOL0     C 4338   1.681  10.779   8.257  0.2111  0.3334 -0.9322
   32MOL0     C 4339   1.727  10.685   8.364 -0.2359 -0.6868  0.1105
   32MOL0     C 4340   1.877  10.647   8.329  0.0086 -0.4856  0.4060
   32MOL0     C 4341   1.926  10.539   8.424 -0.8828  0.4727 -0.1233
   32MOL0     C 4342   2.068  10.543   8.393  0.5727 -0.2204  0.1246
   32MOL0     C 4343   2.186  10.536   8.375 -0.6460 -0.4188  0.4048
   32MOL0     C 4344   1.373  10.962   8.236 -0.8213  0.2640 -0.6283
   32MOL0     C 4345   1.326  11.095   8.268 -0.3212 -0.2362  0.4210
   32MOL0     C 4346   1.227  11.161   8.167 -0.1721  0.1038 -0.0501
   32MOL0     H 4347   1.184  11.569   8.268  1.5438 -1.0405  0.2263
   32MOL0     H 4348   1.112  11.768   8.381  0.7464  0.7375  1.0130
   32MOL0     H 4349   0.861  11.860   8.554  1.0621 -1.6597 -1.7574
   32MOL0     H 4350   1.008  11.923   8.479  2.5195 -1.2265  0.5859
   32MOL0     H 4351   1.070  12.045   8.674  0.4511 -2.2849  4.6516
   32MOL0     H 4352   0.908  12.105   8.599 -2.2265  0.3927  2.6818
   32MOL0     H 4353   0.795  11.965   8.769  1.9289 -0.8606 -2.8824
   32MOL0     H 4354   0.946  11.908   8.848 -3.4052 -0.1559  1.8940
   32MOL0     H 4355   1.008  12.136   8.917 -0.3317 -0.0470  1.1491
   32MOL0     H 4356   0.885  12.206   8.815  0.7428 -0.7031 -0.7215
   32MOL0     H 4357   0.696  12.072   8.951  0.3886  0.4501 -0.1504
   32MOL0     H 4358   0.785  12.213   9.019  1.8036  0.0697 -0.4422
   32MOL0     H 4359   0.836  11.911   9.092 -0.0158  0.2101  0.7626
   32MOL0     H 4360   0.922  12.056   9.144 -0.6046  0.0733  3.2821
   32MOL0     H 4361   0.632  11.985   9.213  2.3577 -1.0490 -3.0161
   32MOL0     H 4362   0.697  12.148   9.246 -1.6022 -0.5497  3.2941
   32MOL0     H 4363   0.723  11.985   9.448 -1.6303  3.1905 -1.4515
   32MOL0     H 4364   0.821  11.882   9.345  0.6181  0.3291 -0.2081
   32MOL0     H 4365   0.798  12.226   9.509  2.5291  5.8987  0.1587
   32MOL0     H 4366   0.960  12.403   9.571  0.1979 -1.3763  1.9903
   32MOL0     H 4367   1.120  12.408   9.490  1.0051 -1.0553  1.2715
   32MOL0     H 4368   1.050  12.259   9.755 -1.6252  1.4521 -0.7016
   32MOL0     H 4369   1.217  12.319   9.709 -0.0341 -0.4849  1.3635
   32MOL0     H 4370   1.099  12.557   9.699  0.1599 -0.9098 -0.7197
   32MOL0     H 4371   0.979  12.480   9.818 -0.8002 -0.0666 -2.5773
   32MOL0     H 4372   1.121  12.453   9.970  1.6624 -1.2405 -0.4865
   32MOL0     H 4373   1.269  12.490   9.859 -0.0633  1.5234 -2.0529
   32MOL0     H 4374   1.103  12.859  10.017  3.0810  1.3242 -1.0474
   32MOL0     H 4375   1.190  13.056  10.286 -0.1311  1.3623 -1.7567
   32MOL0     H 4376   1.032  12.982  10.333 -0.8719  5.5748  0.4099
   32MOL0     H 4377   1.064  13.030  10.165  0.4506 -0.0770  0.2847
   32MOL0     H 4378   1.441  12.536  10.660  1.2225 -0.3640  1.3689
   32MOL0     H 4379   1.426  12.522  10.913  2.3464 -0.1244 -0.5406
   32MOL0     H 4380   1.272  12.550  11.114 -0.1878 -1.6732  3.5514
   32MOL0     H 4381   1.414  12.595  11.213  0.3846  1.0811  0.6887
   32MOL0     H 4382   1.278  12.765  11.325 -1.5539  0.1856  2.0116
   32MOL0     H 4383   1.140  12.732  11.208 -0.5965 -4.1452 -0.4255
   32MOL0     H 4384   1.236  12.507  11.370  1.3817  0.9503 -0.7755
   32MOL0     H 4385   1.087  12.537  11.290  0.3370  3.8524 -2.6092
   32MOL0     H 4386   0.990  12.602  11.482 -1.6167  2.6235 -0.5589
   32MOL0     H 4387   1.053  12.747  11.410 -0.7018  0.6837  1.8281
   32MOL0     H 4388   1.138  12.596  11.660 -3.6696  0.8672  1.4413
   32MOL0     H 4389   1.271  12.683  11.566  0.5229 -6.7002 -0.3381
   32MOL0     H 4390   1.019  12.817  11.672 -1.2197  1.4531 -1.9580
   32MOL0     H 4391   1.155  12.893  11.586  0.6079  1.8220  3.0563
   32MOL0     H 4392   1.307  12.829  11.782  0.8432 -0.6456 -1.4639
   32MOL0     H 4393   1.137  12.775  11.842 -2.4494  3.7531  1.1373
   32MOL0     H 4394   1.217  13.003  11.921  1.6234  0.1784 -1.3378
   32MOL0     H 4395   1.055  12.994  11.861  0.2311  1.0015 -0.4675
   32MOL0     H 4396   1.300  12.940  10.912 -0.8063 -0.3816  1.4504
   32MOL0     H 4397   1.352  12.947  10.672  1.0364 -0.1757 -0.3801
   32MOL0     H 4398   1.390  12.609  10.323 -0.6162  2.4378  2.9379
   32MOL0     H 4399   1.327  12.504  10.102  0.0978 -0.6870  0.1601
   32MOL0     H 4400   1.024  11.532   8.730  2.0158 -0.5056  0.7837
   32MOL0     H 4401   1.082  11.332   8.612  0.0637  0.1932  2.1106
   32MOL0     H 4402   1.538  11.148   8.528  0.8079  0.3739 -0.0198
   32MOL0     H 4403   1.639  10.958   8.453  0.4253 -0.5437 -0.0744
   32MOL0     H 4404   1.705  10.742   8.158 -2.1353  2.2573 -2.3387
   32MOL0     H 4405   1.742  10.867   8.280  1.5615 -0.7852 -0.0399
   32MOL0     H 4406   1.658  10.600   8.369 -0.5638 -0.5491 -1.5792
   32MOL0     H 4407   1.730  10.738   8.459  0.2973  2.5435 -1.5782
   32MOL0     H 4408   1.864  10.602   8.230 -1.3897 -2.7255  1.5272
   32MOL0     H 4409   1.936  10.739   8.320 -0.2603  0.0723  3.2922
   32MOL0     H 4410   1.885  10.440   8.401 -3.2478  1.0968  1.1313
   32MOL0     H 4411   1.929  10.573   8.528  2.6973  0.0787  0.0376
   32MOL0     H 4412   2.290  10.555   8.356 -0.2261 -3.2602 -0.6429
   32MOL0     H 4413   1.328  10.912   8.151 -0.6057 -0.3270 -0.4035
   32MOL0     H 4414   1.128  11.163   8.212 -0.0733 -1.4191  0.3063
   32MOL0     H 4415   1.262  11.258   8.132  0.8691 -1.6357 -4.6135
   32MOL0     H 4416   1.218  11.096   8.079 -0.7121  1.1256 -0.7686
   33MOL0     O 4417   9.077   7.832   2.599 -0.0943  0.5499 -0.3150
   33MOL0     C 4418   8.999   7.751   2.665 -0.1819 -0.4360  0.5262
   33MOL0     O 4419   8.899   7.788   2.749 -0.0345 -0.0331  0.3135
   33MOL0     C 4420   8.894   7.923   2.759  0.2271  0.0606 -0.2576
   33MOL0     C 4421   8.939   7.969   2.886 -0.6175  0.0597 -0.2890
   33MOL0     C 4422   8.942   8.097   2.935  0.1220  0.4287 -0.3971
   33MOL0     C 4423   8.885   8.192   2.845  0.4620 -0.5531 -0.5529
   33MOL0     O 4424   8.858   8.319   2.888 -0.5004  0.1793 -0.2206
   33MOL0     C 4425   8.970   8.380   2.959  0.2423 -0.5579  0.4151
   33MOL0     C 4426   9.045   8.495   2.880 -0.4697 -0.9954 -0.4896
   33MOL0     C 4427   8.959   8.623   2.876 -0.2547  0.1081  0.9649
   33MOL0     C 4428   8.954   8.707   3.004 -0.4897  0.3413  0.1361
   33MOL0     C 4429   8.855   8.821   2.990  0.1773 -0.2860  0.9734
   33MOL0     C 4430   8.903   8.954   2.918 -1.0494  0.6686  0.3482
   33MOL0     C 4431   8.833   9.087   2.957  0.1799  0.1410  1.2493
   33MOL0     C 4432   8.842   9.129   3.093 -0.0797 -0.0292 -0.1842
   33MOL0     N 4433   8.976   9.183   3.129  0.6457 -0.1862 -0.7474
   33MOL0     C 4434   9.089   9.109   3.172 -1.4323  0.0616 -1.2191
   33MOL0     C 4435   9.183   9.204   3.190 -0.7272 -1.0006 -0.2212
   33MOL0     C 4436   9.324   9.191   3.230 -0.1395  0.3684  0.5488
   33MOL0     C 4437   9.417   9.232   3.123  0.2973 -1.0427  0.2824
   33MOL0     C 4438   9.436   9.138   3.007 -0.7642 -0.3919 -0.2311
   33MOL0     C 4439   9.443   9.219   2.869  0.3269  0.5213  0.3554
   33MOL0     O 4440   9.445   9.121   2.759 -0.2495  0.0817 -0.1174
   33MOL0     C 4441   9.459   9.171   2.628 -0.2622  0.7565 -0.1062
   33MOL0     C 4442   9.497   9.298   2.591 -0.6921 -0.1254 -0.9330
   33MOL0     C 4443   9.505   9.333   2.463 -1.0643 -0.1611  0.0159
   33MOL0     C 4444   9.554   9.478   2.436  0.7695  0.0161 -0.0649
   33MOL0     C 4445   9.488   9.241   2.358 -0.2952 -0.6255 -0.2192
   33MOL0     C 4446   9.491   9.280   2.223  0.2892 -0.7549 -0.0500
   33MOL0     O 4447   9.608   9.325   2.174  0.2413 -0.2565 -0.9495
   33MOL0     C 4448   9.596   9.383   2.047 -0.5742 -0.2919 -0.5265
   33MOL0     C 4449   9.690   9.348   1.955 -0.8881 -0.0873  0.8406
   33MOL0     C 4450   9.693   9.406   1.826  0.1147  0.1208 -0.1189
   33MOL0     C 4451   9.600   9.512   1.801  1.3504  0.2176  0.7377
   33MOL0     O 4452   9.584   9.585   1.682 -0.1759  1.0478 -0.9534
   33MOL0     C 4453   9.634   9.517   1.565 -0.0100 -1.0620 -0.3250
   33MOL0     C 4454   9.537   9.399   1.519  0.0483  1.1066  0.5261
   33MOL0     C 4455   9.571   9.342   1.376 -0.1329 -0.0542  0.0797
   33MOL0     C 4456   9.446   9.263   1.327 -0.1833 -0.9034  0.2592
   33MOL0     C 4457   9.494   9.160   1.220 -0.2614  0.4602 -0.4905
   33MOL0     C 4458   9.592   9.040   1.261  0.4658  0.3452 -0.4783
   33MOL0     C 4459   9.535   8.960   1.375  0.2994  0.3788  0.4276
   33MOL0     C 4460   9.559   8.807   1.377 -0.4096 -0.9532 -0.4107
   33MOL0    Cl 4461   9.462   8.727   1.240  0.3162  0.1475  0.1565
   33MOL0     C 4462   9.506   9.536   1.895 -0.2261  0.0275  0.2457
   33MOL0     C 4463   9.499   9.474   2.017 -0.2722  0.0676 -0.9331
   33MOL0     O 4464   9.389   9.256   2.155 -0.4696 -0.8207 -0.9874
   33MOL0     C 4465   9.461   9.111   2.392  0.0986 -0.1386  1.1716
   33MOL0     C 4466   9.450   9.080   2.530  0.6744  0.8324  0.0731
   33MOL0     N 4467   9.124   9.327   3.162 -0.0045 -0.4807  1.6018
   33MOL0     N 4468   8.995   9.318   3.121 -0.1128  0.5658 -0.2568
   33MOL0     C 4469   8.827   8.151   2.726 -0.5070 -0.3557 -0.1018
   33MOL0     C 4470   8.845   8.017   2.674  0.3547  0.1445 -0.4897
   33MOL0     C 4471   9.018   7.607   2.626  0.7925  0.2895 -0.0965
   33MOL0     C 4472   9.099   7.582   2.517  0.8311 -1.3335  0.6932
   33MOL0     C 4473   9.121   7.460   2.458  0.3537 -0.5586 -1.0575
   33MOL0     C 4474   9.062   7.347   2.521  0.3985  0.5236 -0.5067
   33MOL0     O 4475   9.091   7.217   2.473  0.5025 -0.1666  0.1573
   33MOL0     C 4476   9.075   7.195   2.332  0.1323  0.5289 -0.4330
   33MOL0     C 4477   8.924   7.195   2.296  0.4046 -0.7248  0.0055
   33MOL0     C 4478   8.831   7.100   2.363 -0.1115  0.5355  0.2148
   33MOL0     C 4479   8.868   6.953   2.335 -0.2449 -0.0055 -1.0082
   33MOL0     C 4480   8.772   6.855   2.399 -0.2727 -0.0119 -0.4537
   33MOL0     C 4481   8.710   6.767   2.446  0.9086  1.2501 -0.1636
   33MOL0     C 4482   8.980   7.367   2.635 -0.8318  0.0430  0.1232
   33MOL0     C 4483   8.956   7.492   2.690 -0.0846 -0.7735  0.3846
   33MOL0     C 4484   8.849   7.503   2.805  0.0462 -0.3677  1.1113
   33MOL0     H 4485   8.985   7.899   2.955  4.1925  1.8091 -1.3264
   33MOL0     H 4486   8.962   8.120   3.039  2.8412 -1.7932 -0.3289
   33MOL0     H 4487   9.041   8.304   2.993 -1.2334 -3.5524 -2.5802
   33MOL0     H 4488   8.937   8.422   3.055 -1.1413 -0.0677 -0.2467
   33MOL0     H 4489   9.128   8.517   2.947 -0.9931  0.7433 -0.3589
   33MOL0     H 4490   9.082   8.453   2.786 -0.9686 -0.5427 -0.9006
   33MOL0     H 4491   8.993   8.685   2.793 -0.8408 -2.4005 -1.2854
   33MOL0     H 4492   8.856   8.595   2.852 -0.6510  1.1260  1.3994
   33MOL0     H 4493   8.927   8.647   3.092 -1.8077  2.3029  1.1429
   33MOL0     H 4494   9.055   8.749   3.012 -0.8338  1.7193 -1.9246
   33MOL0     H 4495   8.833   8.848   3.094  0.7314  1.3509  0.7037
   33MOL0     H 4496   8.759   8.791   2.948 -1.0460  3.2325  0.8652
   33MOL0     H 4497   9.009   8.973   2.932 -1.1617  1.7729 -0.1572
   33MOL0     H 4498   8.908   8.932   2.811 -2.8892 -1.2498  0.5725
   33MOL0     H 4499   8.727   9.084   2.930  0.6681  0.9311 -1.0245
   33MOL0     H 4500   8.861   9.164   2.884  0.5896 -2.4101 -1.4877
   33MOL0     H 4501   8.762   9.203   3.101 -0.7188 -0.8055  0.8861
   33MOL0     H 4502   8.808   9.057   3.167 -3.4366  1.6780  0.1316
   33MOL0     H 4503   9.091   9.003   3.192 -0.7908  0.5178  1.4701
   33MOL0     H 4504   9.348   9.090   3.265 -0.6619 -0.8121 -2.2136
   33MOL0     H 4505   9.341   9.261   3.312 -0.0662  0.5924  0.3409
   33MOL0     H 4506   9.383   9.331   3.091 -0.9111 -0.9456  1.7459
   33MOL0     H 4507   9.517   9.246   3.165 -0.2982 -0.0707  1.4390
   33MOL0     H 4508   9.528   9.080   3.019 -0.8104 -0.9979 -2.5063
   33MOL0     H 4509   9.352   9.069   3.005 -0.9654 -0.1537 -0.1601
   33MOL0     H 4510   9.368   9.298   2.869 -0.0064  0.7099  6.9184
   33MOL0     H 4511   9.537   9.274   2.871  1.9901 -2.1005  2.4286
   33MOL0     H 4512   9.491   9.383   2.659  1.1678 -0.1141 -0.7507
   33MOL0     H 4513   9.659   9.465   2.464  0.4312 -1.2894  0.7178
   33MOL0     H 4514   9.516   9.558   2.499  3.6036  0.7404  0.8958
   33MOL0     H 4515   9.552   9.507   2.331  1.6299  0.8023  0.1248
   33MOL0     H 4516   9.758   9.266   1.972  1.2084  0.9460 -1.8866
   33MOL0     H 4517   9.769   9.369   1.759  1.6507  0.3800  1.4178
   33MOL0     H 4518   9.641   9.588   1.483  1.3890 -0.5418  0.2145
   33MOL0     H 4519   9.738   9.487   1.578  0.7284  1.2664 -0.4898
   33MOL0     H 4520   9.554   9.319   1.591  1.4988 -0.9195 -1.8747
   33MOL0     H 4521   9.430   9.420   1.526 -0.5361 -1.7523  1.8546
   33MOL0     H 4522   9.652   9.270   1.388  0.2018  0.6643  3.0535
   33MOL0     H 4523   9.610   9.423   1.314 -1.9331  0.1903 -0.8093
   33MOL0     H 4524   9.365   9.330   1.296  1.6926  0.2912 -2.3425
   33MOL0     H 4525   9.419   9.203   1.414 -0.2102  0.0261  0.9113
   33MOL0     H 4526   9.411   9.129   1.156  1.7758 -0.2385 -3.0001
   33MOL0     H 4527   9.558   9.209   1.146  2.0187 -1.3253  0.1564
   33MOL0     H 4528   9.691   9.080   1.287  2.0572 -2.4727 -1.8327
   33MOL0     H 4529   9.615   8.982   1.172  3.5657  1.1841 -0.3428
   33MOL0     H 4530   9.428   8.982   1.362  0.3678  0.4755  0.0185
   33MOL0     H 4531   9.573   9.004   1.468  1.2677  0.1644  0.1390
   33MOL0     H 4532   9.528   8.770   1.475  0.0915  1.3146  0.6750
   33MOL0     H 4533   9.668   8.796   1.368 -0.0982  1.4177 -0.2992
   33MOL0     H 4534   9.429   9.602   1.856  1.2380  0.1316 -2.7800
   33MOL0     H 4535   9.441   9.509   2.103 -0.4042 -0.8211 -0.6563
   33MOL0     H 4536   9.459   9.033   2.316  2.6328  0.6521  0.1894
   33MOL0     H 4537   9.414   8.980   2.554  2.0096  0.3056 -0.0383
   33MOL0     H 4538   8.775   8.226   2.667 -2.1770 -1.7295 -0.4669
   33MOL0     H 4539   8.811   7.988   2.575 -0.9364  2.4546 -0.7945
   33MOL0     H 4540   9.141   7.670   2.469  0.9006 -1.5084  0.4330
   33MOL0     H 4541   9.189   7.446   2.374  1.3964  2.3229 -0.7980
   33MOL0     H 4542   9.118   7.272   2.268  1.1193 -0.5385 -1.0931
   33MOL0     H 4543   9.122   7.098   2.311 -2.8088 -0.7074 -1.9435
   33MOL0     H 4544   8.909   7.183   2.189  5.7574 -2.6648 -0.8345
   33MOL0     H 4545   8.891   7.298   2.316  1.1604 -0.9775  3.0325
   33MOL0     H 4546   8.824   7.123   2.470  1.2529 -2.7470  1.1486
   33MOL0     H 4547   8.733   7.104   2.315  0.2224  0.4459 -0.4836
   33MOL0     H 4548   8.972   6.933   2.363 -1.0278  1.2836  3.6287
   33MOL0     H 4549   8.859   6.940   2.227  0.1561 -1.8437 -0.8488
   33MOL0     H 4550   8.660   6.686   2.496 -2.8270  1.8574 -2.4839
   33MOL0     H 4551   8.936   7.273   2.669  1.9446 -0.5125  2.5239
   33MOL0     H 4552   8.903   7.562   2.879 -0.0365  1.5906 -0.3154
   33MOL0     H 4553   8.756   7.551   2.774  0.9802  1.1564  0.5552
   33MOL0     H 4554   8.811   7.408   2.845 -3.4199 -0.5529 -1.9850
   34MOL0     O 4555   8.571   4.549   3.424  1.0701  0.6664  0.0041
   34MOL0     C 4556   8.611   4.495   3.323  0.2273 -0.4046  0.4146
   34MOL0     O 4557   8.697   4.383   3.319 -1.1687  0.3025 -0.2399
   34MOL0     C 4558   8.695   4.301   3.429  0.5283 -0.2292 -0.3980
   34MOL0     C 4559   8.811   4.296   3.514  1.0351  0.3419  0.2972
   34MOL0     C 4560   8.809   4.218   3.621  0.5874  1.5088 -0.9328
   34MOL0     C 4561   8.693   4.135   3.662 -0.6282 -0.3586 -0.4035
   34MOL0     O 4562   8.704   4.053   3.771  0.0852 -0.7385  0.9343
   34MOL0     C 4563   8.635   3.931   3.763  0.2676 -0.2949  0.3856
   34MOL0     C 4564   8.685   3.839   3.877  0.1527  0.2904 -0.6123
   34MOL0     C 4565   8.838   3.816   3.858 -0.4666 -0.4095 -0.6287
   34MOL0     C 4566   8.867   3.689   3.931 -0.9041  0.5876 -0.6395
   34MOL0     C 4567   9.016   3.667   3.934 -0.6254 -0.0355 -1.0691
   34MOL0     C 4568   9.059   3.548   4.034 -0.6104 -0.7509 -0.0465
   34MOL0     C 4569   8.991   3.418   4.000  0.0580 -0.1895  0.6855
   34MOL0     C 4570   9.014   3.307   4.103 -0.8020  1.0860  0.0084
   34MOL0     N 4571   8.993   3.163   4.056 -0.3079  0.1029 -0.4486
   34MOL0     C 4572   8.905   3.082   4.111 -0.2830  0.4535 -0.4870
   34MOL0     C 4573   8.872   2.995   4.016 -0.2483  0.6717 -0.1989
   34MOL0     C 4574   8.754   2.902   4.043  0.8296 -0.7442  0.3571
   34MOL0     C 4575   8.789   2.787   4.140  0.0932 -0.0142 -0.7428
   34MOL0     C 4576   8.891   2.686   4.087  0.2594  0.3907  0.7013
   34MOL0     C 4577   8.846   2.604   3.962  0.2985 -0.0541  1.5014
   34MOL0     O 4578   8.929   2.490   3.929 -0.8838  0.3304 -0.8398
   34MOL0     C 4579   8.970   2.399   4.028 -0.4431  0.3948  0.4474
   34MOL0     C 4580   8.880   2.357   4.131 -0.5591 -0.4900 -0.2715
   34MOL0     C 4581   8.923   2.261   4.221  0.8994 -0.2251 -0.4144
   34MOL0     C 4582   8.824   2.238   4.334  0.3500 -0.0549  0.8244
   34MOL0     C 4583   9.044   2.189   4.203 -0.8181  0.8821  0.1505
   34MOL0     C 4584   9.089   2.074   4.292 -0.2926  1.6565  0.1812
   34MOL0     O 4585   9.222   2.045   4.283  0.1272  0.5357  0.4523
   34MOL0     C 4586   9.265   1.915   4.315 -0.9147 -0.6957 -0.4891
   34MOL0     C 4587   9.276   1.877   4.451  0.6717  0.2965 -0.5393
   34MOL0     C 4588   9.337   1.751   4.485  0.1599 -1.2573  0.6096
   34MOL0     C 4589   9.385   1.674   4.379  0.3272  0.2812 -0.4292
   34MOL0     O 4590   9.438   1.553   4.418  0.2938 -0.0189  1.0675
   34MOL0     C 4591   9.449   1.441   4.324 -0.4549  0.6610  0.1018
   34MOL0     C 4592   9.327   1.365   4.313  0.2315 -0.0576 -0.0890
   34MOL0     C 4593   9.327   1.267   4.214 -0.6043  0.0032 -0.9308
   34MOL0     C 4594   9.404   1.135   4.250  0.2249 -0.1903  0.0321
   34MOL0     C 4595   9.380   1.017   4.157  0.1899 -0.2350 -0.1662
   34MOL0     C 4596   9.455   0.892   4.207  0.1679  0.4964 -0.2150
   34MOL0     C 4597   9.465   0.786   4.098 -0.0058  0.5699  0.3010
   34MOL0     C 4598   9.547   0.666   4.136 -0.0656 -1.1912 -0.3779
   34MOL0    Cl 4599   9.522   0.538   4.018  0.1986  0.2297 -0.6667
   34MOL0     C 4600   9.355   1.712   4.241  0.1866 -0.4010  0.1885
   34MOL0     C 4601   9.291   1.828   4.214  0.1538 -0.1992  0.3028
   34MOL0     O 4602   9.001   1.993   4.331  0.4750  0.4517 -0.6202
   34MOL0     C 4603   9.121   2.222   4.099 -1.1041 -0.8647 -0.9574
   34MOL0     C 4604   9.092   2.330   4.019  0.4717 -0.5530  0.7863
   34MOL0     N 4605   8.936   3.027   3.902 -0.8483  0.4850 -0.6194
   34MOL0     N 4606   9.018   3.128   3.929 -0.5697  0.3857  0.1886
   34MOL0     C 4607   8.579   4.142   3.581 -1.0318  0.1857 -0.1098
   34MOL0     C 4608   8.579   4.219   3.469 -0.1569 -0.8520 -0.5772
   34MOL0     C 4609   8.554   4.545   3.191 -0.2153  0.2393  0.3914
   34MOL0     C 4610   8.586   4.467   3.085 -0.2200 -0.1163  0.4186
   34MOL0     C 4611   8.534   4.490   2.959 -0.3227 -0.4432 -1.0908
   34MOL0     C 4612   8.449   4.599   2.939 -0.2912 -0.1023  0.3488
   34MOL0     O 4613   8.371   4.617   2.824 -0.0379  0.9871  0.0462
   34MOL0     C 4614   8.241   4.546   2.831  0.2231 -0.1286  0.1363
   34MOL0     C 4615   8.190   4.513   2.688  0.2910  0.0750 -0.3491
   34MOL0     C 4616   8.271   4.414   2.611 -0.3070  0.7572  0.5302
   34MOL0     C 4617   8.415   4.470   2.567  1.0612 -0.5339  0.1661
   34MOL0     C 4618   8.457   4.390   2.459  0.4460  0.4226 -0.1322
   34MOL0     C 4619   8.518   4.332   2.373  0.7946  0.1269 -0.1854
   34MOL0     C 4620   8.432   4.693   3.041  0.0301 -0.5693 -0.3337
   34MOL0     C 4621   8.481   4.667   3.173  0.8566  0.3149  0.1104
   34MOL0     C 4622   8.465   4.770   3.286  0.0155 -0.5285  0.8190
   34MOL0     H 4623   8.902   4.348   3.486  1.2563 -0.3785 -0.3799
   34MOL0     H 4624   8.902   4.219   3.677 -0.2245  0.5135  0.4509
   34MOL0     H 4625   8.634   3.889   3.663 -0.1720  0.7408 -0.0617
   34MOL0     H 4626   8.526   3.937   3.768  0.3567  0.6605  1.8512
   34MOL0     H 4627   8.657   3.895   3.967  3.7792 -0.5413  1.2298
   34MOL0     H 4628   8.623   3.749   3.873  0.5507  0.0309 -1.0208
   34MOL0     H 4629   8.869   3.809   3.754  1.2680  0.8895 -0.2507
   34MOL0     H 4630   8.905   3.890   3.904  2.2837 -2.9769 -0.1699
   34MOL0     H 4631   8.828   3.696   4.033  0.1640 -1.3892 -0.0339
   34MOL0     H 4632   8.815   3.604   3.886 -2.5696  1.0431  0.3519
   34MOL0     H 4633   9.050   3.765   3.968 -0.5564 -0.4307  0.0239
   34MOL0     H 4634   9.046   3.650   3.830  1.4038 -1.9324 -0.2813
   34MOL0     H 4635   9.168   3.549   4.021 -0.2807  0.5463  2.2625
   34MOL0     H 4636   9.025   3.586   4.131 -0.8730 -0.2894 -0.3130
   34MOL0     H 4637   9.023   3.388   3.900 -1.2834 -1.3305  0.5608
   34MOL0     H 4638   8.882   3.426   4.007  0.0123 -1.8021  5.1389
   34MOL0     H 4639   9.119   3.318   4.132 -0.0532  4.8115 -3.3336
   34MOL0     H 4640   8.957   3.320   4.196  2.2888 -0.7324  2.3803
   34MOL0     H 4641   8.857   3.092   4.208 -0.0533 -0.0778 -0.3140
   34MOL0     H 4642   8.706   2.867   3.951 -3.5560  3.4028  0.6805
   34MOL0     H 4643   8.674   2.964   4.084  2.2513  0.3743  1.5610
   34MOL0     H 4644   8.833   2.823   4.234 -1.8529 -2.7069  1.3791
   34MOL0     H 4645   8.696   2.738   4.170  1.0250 -1.1114  0.4652
   34MOL0     H 4646   8.981   2.746   4.069  0.3574 -0.1088 -0.5734
   34MOL0     H 4647   8.914   2.614   4.165  1.7582  0.0853  0.0253
   34MOL0     H 4648   8.741   2.577   3.971  0.3829 -1.0918 -0.2630
   34MOL0     H 4649   8.844   2.672   3.876 -1.0233  0.4064  1.8724
   34MOL0     H 4650   8.783   2.406   4.136 -1.4402 -2.1200 -0.6265
   34MOL0     H 4651   8.863   2.182   4.419 -1.3060 -0.8201  1.1228
   34MOL0     H 4652   8.734   2.183   4.305  0.6102 -0.5356  0.9286
   34MOL0     H 4653   8.803   2.338   4.374 -1.1711  1.1828 -2.6520
   34MOL0     H 4654   9.244   1.944   4.530  0.5353  0.7297 -0.9596
   34MOL0     H 4655   9.349   1.710   4.585 -2.4922 -2.7998  0.3883
   34MOL0     H 4656   9.497   1.468   4.229  0.3625 -3.3699 -0.8232
   34MOL0     H 4657   9.517   1.363   4.360 -0.8135 -0.4826 -1.5778
   34MOL0     H 4658   9.298   1.323   4.410 -1.8757 -0.2903 -0.7672
   34MOL0     H 4659   9.244   1.433   4.292  1.3239  0.8827 -1.6052
   34MOL0     H 4660   9.373   1.306   4.122  1.8865  2.7810  1.2734
   34MOL0     H 4661   9.227   1.229   4.193  0.1170 -2.6214 -0.0107
   34MOL0     H 4662   9.376   1.109   4.353  0.5645 -2.6833 -0.4645
   34MOL0     H 4663   9.511   1.155   4.251  0.9427 -3.5806  1.2428
   34MOL0     H 4664   9.272   1.004   4.147 -0.0623  2.1864 -1.3972
   34MOL0     H 4665   9.420   1.042   4.058  1.3011  2.9487  0.9642
   34MOL0     H 4666   9.390   0.861   4.289  0.3092 -0.4943 -0.4612
   34MOL0     H 4667   9.556   0.910   4.246  1.0113 -0.5204 -1.8046
   34MOL0     H 4668   9.506   0.826   4.005 -1.9434 -3.8977 -2.8034
   34MOL0     H 4669   9.363   0.752   4.081 -0.1172  0.9247  0.2413
   34MOL0     H 4670   9.521   0.627   4.235  2.8730  0.3892  1.1743
   34MOL0     H 4671   9.655   0.684   4.144 -0.5095  1.4293  1.0329
   34MOL0     H 4672   9.394   1.646   4.163 -0.0431  1.7141 -1.8235
   34MOL0     H 4673   9.265   1.856   4.113  0.6600 -0.3041  0.1421
   34MOL0     H 4674   9.216   2.173   4.077 -0.5851  0.1028 -0.9183
   34MOL0     H 4675   9.154   2.357   3.934 -1.5156  0.9278 -0.2827
   34MOL0     H 4676   8.494   4.085   3.616 -0.1048 -2.4522 -1.8406
   34MOL0     H 4677   8.492   4.228   3.406 -0.8393  1.0093  0.5519
   34MOL0     H 4678   8.658   4.389   3.104 -0.7707 -0.5185  0.8825
   34MOL0     H 4679   8.558   4.422   2.878 -2.1447 -1.1689 -1.0583
   34MOL0     H 4680   8.263   4.453   2.885  1.9678  0.9572  1.3825
   34MOL0     H 4681   8.167   4.609   2.882  1.0044  3.2867 -2.5807
   34MOL0     H 4682   8.185   4.604   2.627  2.1582 -2.0720 -4.0870
   34MOL0     H 4683   8.093   4.462   2.687  0.7829 -0.9398 -2.2797
   34MOL0     H 4684   8.271   4.316   2.659 -1.8490  0.8222  0.7199
   34MOL0     H 4685   8.207   4.393   2.525 -0.4533  0.1283  0.7902
   34MOL0     H 4686   8.486   4.456   2.649  0.7325  0.6331  0.6665
   34MOL0     H 4687   8.407   4.573   2.533  0.1124 -1.9034 -4.5397
   34MOL0     H 4688   8.554   4.278   2.287  0.7589 -2.7860  1.4888
   34MOL0     H 4689   8.377   4.786   3.025  1.2187  0.2550  0.2198
   34MOL0     H 4690   8.566   4.801   3.314 -0.4958  0.5667  1.5558
   34MOL0     H 4691   8.404   4.855   3.254 -0.3133 -0.8622  0.5559
   34MOL0     H 4692   8.425   4.723   3.376 -3.2763 -1.3755 -0.9068
   35MOL0     O 4693   1.343   6.889  11.606 -0.1061  0.4447 -0.1256
   35MOL0     C 4694   1.428   6.805  11.590 -1.0724 -0.0210 -0.0679
   35MOL0     O 4695   1.458   6.717  11.690 -0.4436  0.2223  0.3891
   35MOL0     C 4696   1.386   6.700  11.803 -0.1588 -0.1133 -0.2912
   35MOL0     C 4697   1.403   6.800  11.899 -0.2824  1.2869  0.0411
   35MOL0     C 4698   1.325   6.802  12.013 -0.4857 -0.0862 -0.6661
   35MOL0     C 4699   1.224   6.707  12.045  1.2320  0.0138  0.0213
   35MOL0     O 4700   1.146   6.719  12.162  0.2692 -0.7744  0.1751
   35MOL0     C 4701   1.041   6.620  12.190 -0.6216 -0.2291  0.1630
   35MOL0     C 4702   1.106   6.491  12.249  0.1159  0.1587 -1.5546
   35MOL0     C 4703   1.119   6.467  12.403 -0.9112 -0.1071 -0.0336
   35MOL0     C 4704   1.225   6.560  12.464 -0.2369 -0.3284  0.2471
   35MOL0     C 4705   1.195   6.594  12.605 -0.4977  0.2169 -0.3611
   35MOL0     C 4706   1.065   6.694  12.614  0.1252  1.2035  0.4411
   35MOL0     C 4707   1.099   6.805  12.714  0.0495 -0.2195  0.5194
   35MOL0     C 4708   0.992   6.915  12.712  0.6870 -0.6660 -0.6381
   35MOL0     N 4709   1.001   6.996  12.834 -0.1028 -0.5067  0.1120
   35MOL0     C 4710   0.906   7.027  12.930 -0.1339  0.4057  0.0153
   35MOL0     C 4711   0.963   7.126  13.003  0.3294  0.3094 -0.4627
   35MOL0     C 4712   0.886   7.206  13.116 -0.5458  0.6815 -0.5343
   35MOL0     C 4713   0.909   7.347  13.076  0.2653  0.4474 -0.7651
   35MOL0     C 4714   0.875   7.385  12.934  0.5286  0.4494 -0.2323
   35MOL0     C 4715   0.853   7.532  12.923  1.3000 -0.0020 -1.1257
   35MOL0     O 4716   0.853   7.561  12.782  0.0358  0.2063 -0.1344
   35MOL0     C 4717   0.744   7.539  12.702  1.3231  0.3282 -0.6190
   35MOL0     C 4718   0.630   7.459  12.728  0.0272 -0.2834 -0.3300
   35MOL0     C 4719   0.522   7.461  12.641 -0.2971  0.7682  0.2346
   35MOL0     C 4720   0.411   7.365  12.678  1.0713 -0.1463 -0.1761
   35MOL0     C 4721   0.529   7.531  12.518  0.1848  0.8090 -0.4495
   35MOL0     C 4722   0.406   7.539  12.440 -0.5849 -0.1224 -0.2456
   35MOL0     O 4723   0.406   7.448  12.337  0.2735  0.7190 -0.7981
   35MOL0     C 4724   0.286   7.419  12.274 -0.8519 -0.0346 -1.0716
   35MOL0     C 4725   0.159   7.429  12.329  0.3425 -1.4342  0.8366
   35MOL0     C 4726   0.040   7.383  12.263  0.3798 -0.2315  0.1698
   35MOL0     C 4727   0.050   7.326  12.132  0.5871 -0.6425  0.0319
   35MOL0     O 4728  -0.063   7.302  12.071 -0.1062 -0.4680  0.1775
   35MOL0     C 4729  -0.066   7.291  11.938 -0.1777 -0.3722 -0.0903
   35MOL0     C 4730  -0.208   7.217  11.911  0.9023  0.1526 -0.2823
   35MOL0     C 4731  -0.231   7.218  11.758 -1.5615  0.2710 -0.5668
   35MOL0     C 4732  -0.332   7.123  11.692  0.9827  0.1952 -0.4085
   35MOL0     C 4733  -0.469   7.193  11.692 -1.3288  0.7828 -1.2216
   35MOL0     C 4734  -0.476   7.326  11.611 -0.4638  0.3139  0.5385
   35MOL0     C 4735  -0.626   7.355  11.576 -0.2370 -0.6536  0.3155
   35MOL0     C 4736  -0.632   7.433  11.450  0.7353  0.6717 -0.1153
   35MOL0    Cl 4737  -0.804   7.482  11.413  0.1883  0.1320 -0.1229
   35MOL0     C 4738   0.179   7.301  12.086  0.2015 -0.2492 -0.2706
   35MOL0     C 4739   0.295   7.343  12.155  0.1318  0.8430 -0.0177
   35MOL0     O 4740   0.316   7.621  12.470  0.0023 -0.2348  0.0587
   35MOL0     C 4741   0.642   7.608  12.501 -0.5430  0.4380  0.3888
   35MOL0     C 4742   0.747   7.612  12.587  0.0725  0.0172 -0.9670
   35MOL0     N 4743   1.097   7.126  12.975 -0.1132 -0.2998 -0.5553
   35MOL0     N 4744   1.119   7.050  12.873  0.0575  0.6217 -0.2692
   35MOL0     C 4745   1.204   6.610  11.946 -0.1971  0.0167 -0.0736
   35MOL0     C 4746   1.283   6.602  11.834 -1.0077  0.0567  0.9605
   35MOL0     C 4747   1.527   6.819  11.473 -0.0122  0.2844  0.1168
   35MOL0     C 4748   1.632   6.725  11.457  0.3201 -0.4733 -0.0604
   35MOL0     C 4749   1.701   6.714  11.337 -0.1708  0.2001 -0.1965
   35MOL0     C 4750   1.690   6.796  11.232  0.7097 -0.6445 -0.4976
   35MOL0     O 4751   1.773   6.770  11.123 -0.4957 -0.3721 -0.3365
   35MOL0     C 4752   1.773   6.867  11.022  0.1523 -0.4830 -1.0443
   35MOL0     C 4753   1.866   6.834  10.906 -1.0008 -0.1087  0.3499
   35MOL0     C 4754   1.862   6.699  10.842 -0.7189 -0.1459 -0.4762
   35MOL0     C 4755   1.993   6.647  10.783 -0.2171 -0.1854  0.1916
   35MOL0     C 4756   2.013   6.715  10.656  0.1327  0.2597 -0.0141
   35MOL0     C 4757   2.055   6.789  10.568  0.3679 -0.4599 -0.5430
   35MOL0     C 4758   1.591   6.898  11.244  0.0517  0.1584 -0.1520
   35MOL0     C 4759   1.512   6.914  11.362  0.3201  0.7760  0.0188
   35MOL0     C 4760   1.415   7.041  11.355 -0.2535 -0.2488 -0.7489
   35MOL0     H 4761   1.470   6.883  11.880 -2.9128  3.5012 -0.1825
   35MOL0     H 4762   1.332   6.880  12.088  1.4240  0.3720 -1.2578
   35MOL0     H 4763   0.987   6.596  12.098 -5.1025  0.0743  2.4238
   35MOL0     H 4764   0.972   6.665  12.262 -1.0126  1.6857 -1.2905
   35MOL0     H 4765   1.038   6.421  12.201  0.2582 -0.3929 -0.9681
   35MOL0     H 4766   1.206   6.476  12.206 -0.0158  0.1290 -1.8525
   35MOL0     H 4767   1.019   6.478  12.445 -0.4461  0.3478  0.9737
   35MOL0     H 4768   1.147   6.363  12.421 -1.8339  0.0936  3.2099
   35MOL0     H 4769   1.325   6.515  12.465  1.0563  2.2882  2.2802
   35MOL0     H 4770   1.234   6.651  12.404 -1.5110  0.8958  1.8140
   35MOL0     H 4771   1.289   6.641  12.635 -0.5633 -0.7911  1.6053
   35MOL0     H 4772   1.172   6.513  12.675 -0.8180  1.9571  1.6521
   35MOL0     H 4773   1.062   6.733  12.512  0.5131  0.5866  0.1808
   35MOL0     H 4774   0.973   6.643  12.643 -0.0018  0.9416 -0.3871
   35MOL0     H 4775   1.191   6.850  12.676  0.5258 -1.9252 -0.4692
   35MOL0     H 4776   1.113   6.770  12.817  0.3222 -0.7503  0.3043
   35MOL0     H 4777   1.013   6.979  12.625  2.6061 -0.2200  0.0839
   35MOL0     H 4778   0.890   6.878  12.704  0.1593  0.9861 -2.6113
   35MOL0     H 4779   0.800   7.003  12.924  0.2936 -1.2511 -1.9547
   35MOL0     H 4780   0.924   7.185  13.217 -0.7090  0.3355 -0.5447
   35MOL0     H 4781   0.780   7.180  13.114 -0.2968 -0.6998  1.2710
   35MOL0     H 4782   0.866   7.420  13.145  1.9511  2.4273 -1.7158
   35MOL0     H 4783   1.009   7.386  13.094  0.4227 -1.0691  2.3559
   35MOL0     H 4784   0.953   7.361  12.861  0.9937 -2.0477  0.9823
   35MOL0     H 4785   0.784   7.329  12.909  0.5211 -0.3692  1.4924
   35MOL0     H 4786   0.755   7.550  12.969  1.4377  0.8681 -1.1496
   35MOL0     H 4787   0.919   7.598  12.979 -0.4163 -2.2207  4.1804
   35MOL0     H 4788   0.622   7.414  12.826  1.1370  1.0659  0.4147
   35MOL0     H 4789   0.438   7.310  12.768  2.9945  0.3908 -0.3810
   35MOL0     H 4790   0.390   7.299  12.593  0.4410  1.6965 -1.5198
   35MOL0     H 4791   0.319   7.421  12.695  1.8753  2.1889 -2.7322
   35MOL0     H 4792   0.142   7.468  12.429 -2.7179 -0.5867  0.0838
   35MOL0     H 4793  -0.054   7.388  12.317  0.6684 -1.5423  0.8240
   35MOL0     H 4794  -0.069   7.394  11.902  2.3757  1.7384  4.7364
   35MOL0     H 4795   0.008   7.224  11.893  1.0894  0.9132  0.0230
   35MOL0     H 4796  -0.198   7.114  11.948 -0.2652 -0.3572 -1.2934
   35MOL0     H 4797  -0.287   7.268  11.968  1.7642  2.8047 -1.3234
   35MOL0     H 4798  -0.134   7.196  11.714 -0.8227  0.7228  0.7827
   35MOL0     H 4799  -0.256   7.321  11.730  0.1171  1.2333  1.2668
   35MOL0     H 4800  -0.339   7.027  11.743 -0.3046  0.8532  0.7200
   35MOL0     H 4801  -0.298   7.088  11.595  0.9515  0.1106 -0.3887
   35MOL0     H 4802  -0.537   7.114  11.656 -0.8509  0.6550 -1.8571
   35MOL0     H 4803  -0.497   7.208  11.797 -0.4857  0.5956 -0.9632
   35MOL0     H 4804  -0.425   7.324  11.514  1.0892  0.0974  1.3426
   35MOL0     H 4805  -0.432   7.410  11.666 -0.1515 -0.8778  2.1920
   35MOL0     H 4806  -0.673   7.418  11.652 -0.7559  0.8212 -1.1751
   35MOL0     H 4807  -0.693   7.268  11.573 -1.1609  0.0594 -0.1011
   35MOL0     H 4808  -0.598   7.362  11.373  1.9587  1.6187 -0.4774
   35MOL0     H 4809  -0.568   7.522  11.443 -0.0890  1.2894  0.1547
   35MOL0     H 4810   0.206   7.243  11.998  4.9638 -0.7477  1.2423
   35MOL0     H 4811   0.397   7.322  12.125 -0.5442  1.9034 -3.4421
   35MOL0     H 4812   0.624   7.679  12.421 -2.7471  0.3957  0.7931
   35MOL0     H 4813   0.825   7.682  12.559 -1.1554  3.4058  3.0000
   35MOL0     H 4814   1.128   6.532  11.946 -0.6243  0.4114 -1.1464
   35MOL0     H 4815   1.255   6.528  11.760 -1.3559  0.8290  0.3034
   35MOL0     H 4816   1.662   6.654  11.533  3.0573  2.8936  2.3330
   35MOL0     H 4817   1.758   6.626  11.310 -3.4989 -1.9460 -0.8050
   35MOL0     H 4818   1.668   6.872  10.992 -1.1134 -2.7273  2.3593
   35MOL0     H 4819   1.811   6.958  11.069  0.0590 -0.7698 -0.4014
   35MOL0     H 4820   1.966   6.862  10.939 -1.7432  1.4072  1.4371
   35MOL0     H 4821   1.834   6.898  10.823 -0.6341 -0.8708 -0.3922
   35MOL0     H 4822   1.851   6.629  10.925 -2.2309  0.8626  0.2043
   35MOL0     H 4823   1.780   6.684  10.771 -1.7895  0.3163  0.6325
   35MOL0     H 4824   1.991   6.538  10.773  0.1751 -0.2753  0.9751
   35MOL0     H 4825   2.077   6.669  10.849  1.5649  1.8348 -2.5304
   35MOL0     H 4826   2.085   6.869  10.505  0.0651  0.0677 -0.0351
   35MOL0     H 4827   1.581   6.972  11.165  0.2385  1.1691  0.7486
   35MOL0     H 4828   1.326   6.993  11.312 -0.6066 -2.5727  2.2004
   35MOL0     H 4829   1.396   7.077  11.456  1.7380  2.0963 -1.1078
   35MOL0     H 4830   1.436   7.127  11.291 -0.8636  1.2112  0.9354
   36MOL0     O 4831  10.740   4.319   3.249  0.2230 -0.4893 -0.3908
   36MOL0     C 4832  10.632   4.273   3.217  0.8253  0.7884 -0.2000
   36MOL0     O 4833  10.509   4.328   3.241 -0.2502  0.8610 -0.5812
   36MOL0     C 4834  10.506   4.451   3.297  1.0640  0.0070 -0.1305
   36MOL0     C 4835  10.591   4.517   3.387  0.2340  0.3909  0.3904
   36MOL0     C 4836  10.572   4.644   3.435 -0.0342 -0.0429 -0.4383
   36MOL0     C 4837  10.441   4.704   3.410 -0.1907 -0.6772 -0.0124
   36MOL0     O 4838  10.421   4.828   3.463 -0.2455 -0.2807  0.4697
   36MOL0     C 4839  10.282   4.862   3.500 -1.0614  0.1324 -0.2529
   36MOL0     C 4840  10.281   4.988   3.592 -0.1510  0.7828  0.3307
   36MOL0     C 4841  10.395   4.987   3.690 -0.3137 -0.0322  0.8212
   36MOL0     C 4842  10.390   4.900   3.819  0.8334 -0.2559  0.6168
   36MOL0     C 4843  10.507   4.944   3.914 -0.7180 -0.4037  0.3565
   36MOL0     C 4844  10.484   4.858   4.042  0.4991  0.1914  0.4479
   36MOL0     C 4845  10.602   4.860   4.138  0.5476 -0.0174  0.6459
   36MOL0     C 4846  10.745   4.837   4.080  0.5981  0.8438  0.8414
   36MOL0     N 4847  10.843   4.845   4.181 -0.0257 -0.2392 -0.1726
   36MOL0     C 4848  10.956   4.761   4.170  0.3822  0.8020  0.0392
   36MOL0     C 4849  11.044   4.812   4.253 -0.9555  0.1334 -0.4067
   36MOL0     C 4850  11.178   4.744   4.282  1.0870 -0.4534  0.2029
   36MOL0     C 4851  11.292   4.846   4.254  0.3063  0.4292  0.1331
   36MOL0     C 4852  11.310   4.876   4.111 -0.3225 -0.0878  0.3503
   36MOL0     C 4853  11.200   4.963   4.045  0.0132 -0.2687 -1.0878
   36MOL0     O 4854  11.244   5.037   3.929 -0.3022 -0.1659  0.6198
   36MOL0     C 4855  11.291   5.166   3.931  0.5317  0.6340  0.4044
   36MOL0     C 4856  11.333   5.217   3.812 -0.2277 -0.2079 -0.7554
   36MOL0     C 4857  11.391   5.341   3.794  0.0924  0.5424  0.3088
   36MOL0     C 4858  11.414   5.367   3.651 -0.8855 -0.3176 -0.5870
   36MOL0     C 4859  11.388   5.433   3.900  1.3312 -0.1437  0.8109
   36MOL0     C 4860  11.431   5.577   3.892 -0.4376 -0.3796 -0.3650
   36MOL0     O 4861  11.466   5.627   4.017 -0.9990 -0.7164  0.2047
   36MOL0     C 4862  11.508   5.765   4.032  0.7821  0.4953  0.3843
   36MOL0     C 4863  11.584   5.802   4.151 -0.5501 -0.1853  1.0483
   36MOL0     C 4864  11.626   5.929   4.170  0.0356  0.5676 -0.1456
   36MOL0     C 4865  11.602   6.028   4.079 -0.0172 -0.0721  0.0312
   36MOL0     O 4866  11.669   6.146   4.104 -0.2471  0.2511  0.5166
   36MOL0     C 4867  11.660   6.247   4.007 -0.5049 -0.4689 -0.1390
   36MOL0     C 4868  11.733   6.379   4.032 -0.0518  0.7197 -0.6212
   36MOL0     C 4869  11.706   6.443   4.164 -0.8895  0.2754 -0.0675
   36MOL0     C 4870  11.768   6.582   4.174  0.4468  0.0500 -0.2116
   36MOL0     C 4871  11.729   6.669   4.299 -0.9936  0.9280  0.4847
   36MOL0     C 4872  11.823   6.793   4.318  0.3836  0.8550  0.9799
   36MOL0     C 4873  11.824   6.863   4.452 -0.5863  0.8412 -1.0500
   36MOL0     C 4874  11.866   7.014   4.441  0.4624 -0.5573  0.7743
   36MOL0    Cl 4875  12.044   7.018   4.385  0.6338 -0.0070 -0.1798
   36MOL0     C 4876  11.537   5.999   3.966  0.4890  0.3533 -0.2150
   36MOL0     C 4877  11.486   5.867   3.935 -0.1746  0.8818  0.3552
   36MOL0     O 4878  11.439   5.635   3.785 -0.0642 -0.3882  0.0175
   36MOL0     C 4879  11.358   5.373   4.033 -0.3929  0.6137 -0.0428
   36MOL0     C 4880  11.314   5.242   4.044 -0.2683  0.3325 -0.5604
   36MOL0     N 4881  10.990   4.924   4.310  0.1848  0.0114 -0.4215
   36MOL0     N 4882  10.872   4.950   4.259 -0.0721  0.9033  0.0351
   36MOL0     C 4883  10.344   4.632   3.330 -0.3471 -0.8876 -0.1891
   36MOL0     C 4884  10.380   4.507   3.272  0.2779 -0.9299  0.5836
   36MOL0     C 4885  10.616   4.139   3.152  0.1823 -0.4324 -0.2854
   36MOL0     C 4886  10.554   4.027   3.210 -0.4083  0.4841  0.4387
   36MOL0     C 4887  10.578   3.891   3.159  0.6360  0.2175 -0.0805
   36MOL0     C 4888  10.660   3.872   3.044  0.0838 -0.6675 -0.1952
   36MOL0     O 4889  10.687   3.745   2.994  0.6474  0.1283 -0.3499
   36MOL0     C 4890  10.731   3.652   3.091  0.1777 -0.1106  0.5051
   36MOL0     C 4891  10.817   3.550   3.020 -0.6348  0.8883 -0.1292
   36MOL0     C 4892  10.762   3.485   2.898 -0.2559 -0.5377  0.0680
   36MOL0     C 4893  10.796   3.341   2.872 -0.8325  0.1303 -0.5919
   36MOL0     C 4894  10.704   3.247   2.948 -0.3886 -0.6051 -0.0080
   36MOL0     C 4895  10.627   3.177   2.996 -0.6656 -0.7415 -0.1187
   36MOL0     C 4896  10.717   3.978   2.981  0.8823  0.2246  0.8929
   36MOL0     C 4897  10.685   4.107   3.031 -0.0359 -1.0758 -0.5839
   36MOL0     C 4898  10.749   4.222   2.966 -0.5417 -0.0970 -0.0116
   36MOL0     H 4899  10.676   4.463   3.426  0.3459 -0.9553 -1.5916
   36MOL0     H 4900  10.645   4.696   3.495  1.7167 -1.4394 -1.2659
   36MOL0     H 4901  10.253   4.775   3.558  1.3466 -1.6125 -1.5077
   36MOL0     H 4902  10.225   4.870   3.407 -2.7031 -2.8500  0.3846
   36MOL0     H 4903  10.286   5.070   3.519 -1.0878  0.6776  0.1363
   36MOL0     H 4904  10.187   4.981   3.649 -0.2511  0.1956  0.0933
   36MOL0     H 4905  10.485   4.968   3.631 -1.7783 -1.3197 -1.1041
   36MOL0     H 4906  10.403   5.094   3.712 -1.6591  1.3704 -4.2655
   36MOL0     H 4907  10.295   4.926   3.867 -0.4536  0.7175 -2.2057
   36MOL0     H 4908  10.379   4.796   3.787  0.5694  0.1241 -0.6068
   36MOL0     H 4909  10.492   5.048   3.944  2.0604  1.0635 -2.6767
   36MOL0     H 4910  10.601   4.925   3.861  0.6062  1.2576  1.9497
   36MOL0     H 4911  10.394   4.898   4.089 -0.1487  0.6467 -1.0923
   36MOL0     H 4912  10.473   4.754   4.010  3.6894 -0.6917  1.8606
   36MOL0     H 4913  10.592   4.777   4.209  0.1598  0.1582  0.7990
   36MOL0     H 4914  10.593   4.951   4.199 -0.8350 -1.1450  2.2275
   36MOL0     H 4915  10.754   4.745   4.021 -0.6007 -0.1221  2.0728
   36MOL0     H 4916  10.761   4.925   4.017 -0.8457 -0.3546 -1.3230
   36MOL0     H 4917  10.972   4.669   4.115 -1.7495  0.8443 -0.7584
   36MOL0     H 4918  11.203   4.656   4.221  1.4327 -0.5964  0.5394
   36MOL0     H 4919  11.198   4.701   4.381  1.5615  1.2210  0.8699
   36MOL0     H 4920  11.260   4.940   4.299  0.3590 -0.2405  1.6119
   36MOL0     H 4921  11.391   4.818   4.291  2.5613  0.6210 -4.8598
   36MOL0     H 4922  11.405   4.927   4.094 -1.2224  1.2999 -0.7538
   36MOL0     H 4923  11.309   4.781   4.057 -0.5782  0.2950 -0.3410
   36MOL0     H 4924  11.119   4.902   4.005 -0.2060 -0.8513  0.1914
   36MOL0     H 4925  11.169   5.030   4.126  1.7638  0.5106 -1.0190
   36MOL0     H 4926  11.329   5.146   3.729  0.8082 -2.3365  0.9144
   36MOL0     H 4927  11.390   5.470   3.622 -0.9046  0.5843  2.2902
   36MOL0     H 4928  11.352   5.301   3.589 -2.9813  0.5217  0.4936
   36MOL0     H 4929  11.520   5.357   3.628 -0.4214 -2.1830  1.9070
   36MOL0     H 4930  11.615   5.724   4.221 -1.0467  0.4775  2.0257
   36MOL0     H 4931  11.705   5.951   4.241  1.1613  1.9530 -1.7498
   36MOL0     H 4932  11.697   6.215   3.909 -0.0920  0.1971 -0.2063
   36MOL0     H 4933  11.553   6.261   3.988 -0.9534  1.4793  3.0984
   36MOL0     H 4934  11.836   6.349   4.011 -0.4589 -0.4377 -1.0181
   36MOL0     H 4935  11.699   6.444   3.951  1.4103  1.9605 -0.2714
   36MOL0     H 4936  11.753   6.382   4.241 -1.4989 -0.5962 -0.3582
   36MOL0     H 4937  11.599   6.462   4.176 -0.7242 -0.0889  2.4353
   36MOL0     H 4938  11.729   6.639   4.089  0.1393 -2.1202 -1.6017
   36MOL0     H 4939  11.875   6.569   4.162  0.5892 -0.2557  1.2314
   36MOL0     H 4940  11.625   6.701   4.283 -1.3600  1.6029  3.6921
   36MOL0     H 4941  11.725   6.609   4.390 -3.2363  0.1406 -0.0702
   36MOL0     H 4942  11.775   6.869   4.255 -1.8790  0.9370  2.6920
   36MOL0     H 4943  11.924   6.776   4.280  0.5697  0.6878  1.5447
   36MOL0     H 4944  11.897   6.811   4.515 -2.7842  1.3493  2.1745
   36MOL0     H 4945  11.725   6.859   4.498  0.2287 -0.8800  0.6888
   36MOL0     H 4946  11.856   7.067   4.536 -1.9717 -1.2394  0.9467
   36MOL0     H 4947  11.807   7.076   4.373  2.0079  3.1219  2.5101
   36MOL0     H 4948  11.513   6.069   3.886  3.4210 -2.9327 -4.4162
   36MOL0     H 4949  11.433   5.854   3.842  0.5608  0.1932  0.0164
   36MOL0     H 4950  11.363   5.435   4.123 -0.7736 -2.1106  1.9692
   36MOL0     H 4951  11.296   5.202   4.143 -0.7183  0.5918 -0.5353
   36MOL0     H 4952  10.245   4.674   3.318  0.0999  0.5810  0.9977
   36MOL0     H 4953  10.298   4.459   3.220  1.0241 -3.5028  1.6378
   36MOL0     H 4954  10.491   4.037   3.298  2.5984  1.9330  2.5959
   36MOL0     H 4955  10.531   3.800   3.195 -1.0985 -0.4940 -3.6345
   36MOL0     H 4956  10.787   3.695   3.174  1.5201 -1.8156  0.5509
   36MOL0     H 4957  10.641   3.610   3.137 -0.4821 -0.4738 -1.0438
   36MOL0     H 4958  10.831   3.468   3.091 -0.3365 -1.7801 -3.0232
   36MOL0     H 4959  10.912   3.601   3.000 -0.2866  1.5095  2.6761
   36MOL0     H 4960  10.655   3.497   2.883  0.1895  1.5788 -1.9947
   36MOL0     H 4961  10.802   3.546   2.816  1.6824 -2.4693 -0.5350
   36MOL0     H 4962  10.897   3.317   2.906 -0.5931 -0.3460 -1.5963
   36MOL0     H 4963  10.796   3.323   2.764 -1.2787 -1.0428 -0.4072
   36MOL0     H 4964  10.556   3.099   3.017 -0.9646 -1.5161 -3.5057
   36MOL0     H 4965  10.780   3.980   2.892  1.3205 -0.1623  1.1918
   36MOL0     H 4966  10.849   4.241   3.006  0.6777 -3.5676 -1.1327
   36MOL0     H 4967  10.771   4.211   2.860 -0.7608  3.6363 -0.5786
   36MOL0     H 4968  10.690   4.315   2.974 -1.0086 -0.4883  1.6442
   37MOL0     O 4969   4.559   9.128   2.099 -0.0403  0.5697 -0.0056
   37MOL0     C 4970   4.442   9.104   2.121  0.5978  1.1755 -0.1676
   37MOL0     O 4971   4.337   9.132   2.036  0.2963  0.1043 -0.0112
   37MOL0     C 4972   4.351   9.186   1.910  0.3323  0.7023 -0.2916
   37MOL0     C 4973   4.460   9.180   1.821  1.0804 -0.2474 -0.3387
   37MOL0     C 4974   4.439   9.214   1.689 -0.8659  0.3140 -0.6654
   37MOL0     C 4975   4.309   9.255   1.642 -0.3859  0.8947  0.5199
   37MOL0     O 4976   4.266   9.257   1.507 -0.2926 -0.0289 -0.4340
   37MOL0     C 4977   4.350   9.339   1.424  0.1388  0.5238 -0.9589
   37MOL0     C 4978   4.270   9.361   1.295 -0.8695  0.2656  0.8434
   37MOL0     C 4979   4.114   9.396   1.325 -0.5552  0.7810  0.4576
   37MOL0     C 4980   4.039   9.451   1.196 -0.4539  0.2048  0.0156
   37MOL0     C 4981   3.886   9.476   1.219 -0.1636  0.4615 -0.2612
   37MOL0     C 4982   3.845   9.553   1.085 -0.2114  0.5689 -0.9274
   37MOL0     C 4983   3.708   9.616   1.088  0.9541  0.1788 -0.4924
   37MOL0     C 4984   3.674   9.697   0.970  0.3271 -1.0048  0.2507
   37MOL0     N 4985   3.738   9.834   0.966  0.7224  0.6381 -0.0971
   37MOL0     C 4986   3.815   9.896   1.056  0.3933  1.1944 -0.1319
   37MOL0     C 4987   3.825  10.026   1.010 -0.8891  0.4743 -0.9159
   37MOL0     C 4988   3.895  10.137   1.081  0.4676  0.4774  0.7598
   37MOL0     C 4989   3.843  10.269   1.032 -0.8977  0.4827  0.5462
   37MOL0     C 4990   3.935  10.388   1.084  0.1564 -0.5187 -0.8330
   37MOL0     C 4991   3.898  10.432   1.228 -0.5550 -0.3008 -0.6740
   37MOL0     O 4992   3.963  10.342   1.328  0.2096 -0.7223 -0.2236
   37MOL0     C 4993   3.956  10.379   1.464 -0.0873 -0.8245 -0.6310
   37MOL0     C 4994   3.906  10.497   1.518 -0.1708  0.1367 -0.0329
   37MOL0     C 4995   3.919  10.531   1.655  0.5739  0.3620  0.2206
   37MOL0     C 4996   3.845  10.659   1.716 -0.8621 -0.0589  0.2484
   37MOL0     C 4997   3.991  10.443   1.746  0.2329  0.0349  0.0890
   37MOL0     C 4998   4.016  10.462   1.893  1.3719 -0.1563 -0.4000
   37MOL0     O 4999   3.982  10.582   1.950 -0.1387  0.1791  0.5121
   37MOL0     C 5000   4.047  10.628   2.066  0.1188  1.3119  0.5372
   37MOL0     C 5001   4.070  10.554   2.179  0.0464 -0.2728 -0.5131
   37MOL0     C 5002   4.150  10.617   2.279  0.1184 -0.0942 -0.5998
   37MOL0     C 5003   4.202  10.747   2.266 -0.5615  0.6313 -0.1263
   37MOL0     O 5004   4.282  10.813   2.355 -0.2001  0.5516 -0.6030
   37MOL0     C 5005   4.404  10.749   2.380  0.8456  0.5243 -0.3312
   37MOL0     C 5006   4.498  10.841   2.449  0.6169 -0.7699  0.5130
   37MOL0     C 5007   4.607  10.897   2.348 -0.4702  0.1045 -0.4047
   37MOL0     C 5008   4.589  11.049   2.336  0.8999 -0.1095 -0.7461
   37MOL0     C 5009   4.673  11.120   2.444  0.5422 -0.3903 -0.9194
   37MOL0     C 5010   4.819  11.146   2.408 -0.3848 -0.9415 -0.6584
   37MOL0     C 5011   4.888  11.272   2.468  0.3887 -0.0041  0.1416
   37MOL0     C 5012   4.898  11.262   2.612 -0.8784  0.1002 -0.1584
   37MOL0    Cl 5013   4.984  11.419   2.668 -0.0364  0.2351 -0.3791
   37MOL0     C 5014   4.182  10.812   2.146 -0.4693  0.4541 -0.2958
   37MOL0     C 5015   4.098  10.756   2.056  0.1995  0.1181  0.2476
   37MOL0     O 5016   4.056  10.369   1.959 -0.3138  0.5978 -0.4839
   37MOL0     C 5017   4.041  10.330   1.686 -0.0699  0.6517  1.3314
   37MOL0     C 5018   4.021  10.295   1.546 -0.2395  0.4666 -0.3479
   37MOL0     N 5019   3.758  10.035   0.897 -0.2885  0.5527  0.3483
   37MOL0     N 5020   3.699   9.920   0.871  0.1774 -0.4366 -0.8663
   37MOL0     C 5021   4.206   9.279   1.731  0.3217 -0.1530 -1.4323
   37MOL0     C 5022   4.233   9.244   1.867 -0.3100 -1.0166  0.5923
   37MOL0     C 5023   4.405   9.068   2.261 -0.1924  0.5941  0.4293
   37MOL0     C 5024   4.289   8.990   2.290  0.2924 -0.3967  0.6506
   37MOL0     C 5025   4.244   8.953   2.421  0.5830 -1.0693  1.5394
   37MOL0     C 5026   4.322   8.998   2.536  0.5239 -0.0912  0.2911
   37MOL0     O 5027   4.300   8.978   2.671 -0.6793  0.2259 -0.5364
   37MOL0     C 5028   4.211   8.867   2.712  0.3542 -0.6493  0.7241
   37MOL0     C 5029   4.165   8.884   2.859  0.3671 -0.4251  0.5378
   37MOL0     C 5030   4.098   9.023   2.888 -0.8590 -0.0902 -0.3710
   37MOL0     C 5031   3.939   9.032   2.850  0.0718  0.1391 -0.4058
   37MOL0     C 5032   3.867   8.945   2.941 -0.0573  0.3934  0.1564
   37MOL0     C 5033   3.813   8.908   3.038  0.0994 -0.1886  0.2291
   37MOL0     C 5034   4.431   9.077   2.513  0.0329 -0.0022  0.8860
   37MOL0     C 5035   4.475   9.113   2.376  0.0678  1.3392  0.8180
   37MOL0     C 5036   4.600   9.194   2.360  0.1167 -0.0546  0.3864
   37MOL0     H 5037   4.548   9.128   1.858 -0.4429 -1.5747  1.6664
   37MOL0     H 5038   4.523   9.209   1.620 -0.8242  1.4180 -0.7154
   37MOL0     H 5039   4.447   9.293   1.404 -0.5312 -0.0432 -3.1856
   37MOL0     H 5040   4.364   9.433   1.478  1.9644  0.8335 -1.8740
   37MOL0     H 5041   4.310   9.448   1.242 -0.2480 -0.2368  0.4633
   37MOL0     H 5042   4.274   9.265   1.242  4.0814  0.1761  0.9147
   37MOL0     H 5043   4.057   9.310   1.360 -0.9828  0.8956  0.0569
   37MOL0     H 5044   4.115   9.465   1.410  2.3131 -2.0312  2.9644
   37MOL0     H 5045   4.079   9.546   1.161  0.5830 -0.3482 -0.3572
   37MOL0     H 5046   4.070   9.378   1.120  2.0378 -0.4656  1.5597
   37MOL0     H 5047   3.862   9.555   1.291  1.9531 -0.9541  2.1797
   37MOL0     H 5048   3.821   9.389   1.232  2.3242 -1.3049  1.2591
   37MOL0     H 5049   3.911   9.638   1.068  0.6438  0.0492 -0.2882
   37MOL0     H 5050   3.860   9.488   0.998  1.0703  2.6996 -2.3697
   37MOL0     H 5051   3.699   9.676   1.179  1.7358 -1.1746  0.5129
   37MOL0     H 5052   3.639   9.532   1.098  2.4692 -1.0442  0.1054
   37MOL0     H 5053   3.695   9.642   0.878  1.1271  1.6808 -1.2769
   37MOL0     H 5054   3.568   9.723   0.979  0.2439 -0.6911 -1.4245
   37MOL0     H 5055   3.852   9.857   1.150  2.0070  0.3332 -1.0648
   37MOL0     H 5056   4.002  10.130   1.062  0.2181 -1.7270 -0.2246
   37MOL0     H 5057   3.870  10.131   1.188  0.4167  0.5289  0.7510
   37MOL0     H 5058   3.853  10.264   0.924 -1.7582  0.0650  0.4789
   37MOL0     H 5059   3.740  10.272   1.067 -1.7814 -0.4168 -1.7946
   37MOL0     H 5060   4.042  10.370   1.086  0.1163 -0.6961  0.4175
   37MOL0     H 5061   3.918  10.482   1.031 -2.4158 -1.9153 -2.7213
   37MOL0     H 5062   3.940  10.533   1.241  2.1206 -1.4947  0.7137
   37MOL0     H 5063   3.789  10.433   1.226 -0.5969  2.1133 -0.0523
   37MOL0     H 5064   3.857  10.574   1.460 -4.2754 -0.1967  2.5270
   37MOL0     H 5065   3.784  10.707   1.639  1.3268 -0.1492 -1.6647
   37MOL0     H 5066   3.921  10.735   1.739 -3.8566  3.3935 -0.2669
   37MOL0     H 5067   3.795  10.634   1.810  0.2408 -0.1738  0.8184
   37MOL0     H 5068   4.034  10.454   2.201  3.1549 -1.0869  1.5008
   37MOL0     H 5069   4.151  10.568   2.376  0.7538 -2.0361 -1.5354
   37MOL0     H 5070   4.381  10.668   2.449  2.1981 -1.1623 -1.7582
   37MOL0     H 5071   4.443  10.715   2.284 -0.2457 -2.4029  0.1749
   37MOL0     H 5072   4.439  10.919   2.496 -2.0088 -2.1342 -0.3191
   37MOL0     H 5073   4.547  10.791   2.533 -1.0599 -0.3705  1.7737
   37MOL0     H 5074   4.616  10.848   2.251  1.7571 -2.0456  0.7849
   37MOL0     H 5075   4.708  10.874   2.384 -0.6905 -0.9167 -0.3954
   37MOL0     H 5076   4.484  11.071   2.354  0.5664 -0.3224 -2.2916
   37MOL0     H 5077   4.611  11.086   2.235  4.1738  0.2223 -0.0369
   37MOL0     H 5078   4.626  11.215   2.470 -1.5999 -1.6533  0.1433
   37MOL0     H 5079   4.667  11.070   2.541 -0.0784 -1.5832 -1.5531
   37MOL0     H 5080   4.818  11.147   2.299 -1.4195 -2.0401 -0.6751
   37MOL0     H 5081   4.872  11.056   2.442 -0.8551  0.1324  3.4671
   37MOL0     H 5082   4.817  11.350   2.438 -0.8860 -1.5192 -0.9999
   37MOL0     H 5083   4.980  11.303   2.419 -1.3199  2.7867 -1.6218
   37MOL0     H 5084   4.959  11.176   2.643  1.8028  0.5779 -3.4852
   37MOL0     H 5085   4.800  11.256   2.659 -0.7000 -2.1825  0.0290
   37MOL0     H 5086   4.222  10.911   2.127 -1.8783  0.9469 -0.8184
   37MOL0     H 5087   4.075  10.814   1.967 -0.8308 -1.7138 -0.7536
   37MOL0     H 5088   4.109  10.268   1.745  0.7836  2.4380  2.2915
   37MOL0     H 5089   4.068  10.198   1.535 -0.7748  0.0657  0.7789
   37MOL0     H 5090   4.111   9.319   1.699 -0.5057 -0.5684  0.4077
   37MOL0     H 5091   4.157   9.253   1.945 -0.9465 -0.2172 -0.0999
   37MOL0     H 5092   4.243   8.939   2.205 -2.8324  0.0504  1.9549
   37MOL0     H 5093   4.153   8.894   2.429 -0.5844 -0.4701 -3.7388
   37MOL0     H 5094   4.121   8.871   2.651 -0.4457 -4.9055  1.3326
   37MOL0     H 5095   4.255   8.768   2.697  2.2529  0.3306 -0.7577
   37MOL0     H 5096   4.253   8.885   2.924  0.2411  3.4785  0.9379
   37MOL0     H 5097   4.104   8.803   2.899 -1.3216 -0.3497 -1.7090
   37MOL0     H 5098   4.105   9.041   2.996 -2.7751 -4.5988  0.7347
   37MOL0     H 5099   4.159   9.096   2.834 -1.0946  0.0625 -0.4324
   37MOL0     H 5100   3.913   9.019   2.744  2.9703 -1.4662 -1.0395
   37MOL0     H 5101   3.920   9.136   2.881  0.1044  0.1640 -0.4687
   37MOL0     H 5102   3.771   8.865   3.126  0.9543 -1.7241 -0.0950
   37MOL0     H 5103   4.497   9.110   2.593  0.8381 -0.8411  0.5902
   37MOL0     H 5104   4.638   9.242   2.450 -0.9812 -0.9193  1.3439
   37MOL0     H 5105   4.680   9.126   2.330 -0.8759 -0.6759 -0.9414
   37MOL0     H 5106   4.588   9.278   2.291 -1.0010 -0.0361  0.5715
   38MOL0     O 5107   0.304   8.766   8.430  0.2806  0.0565  0.0414
   38MOL0     C 5108   0.301   8.885   8.464 -0.0172  0.1853 -0.0606
   38MOL0     O 5109   0.281   8.932   8.593 -0.5578 -0.3115  0.7014
   38MOL0     C 5110   0.226   8.847   8.684 -1.0753 -0.5497  0.3271
   38MOL0     C 5111   0.290   8.829   8.810  0.2246 -0.9229 -0.4022
   38MOL0     C 5112   0.230   8.741   8.895 -0.0500 -0.9614  0.5159
   38MOL0     C 5113   0.113   8.678   8.870  0.2769  0.0695 -0.7543
   38MOL0     O 5114   0.084   8.575   8.951 -0.1514  0.2015 -0.0399
   38MOL0     C 5115   0.160   8.450   8.924 -0.0829  0.4648  0.4101
   38MOL0     C 5116   0.137   8.346   9.033 -0.2973  0.0142 -0.3597
   38MOL0     C 5117   0.281   8.302   9.080 -0.6819 -0.2622 -0.3529
   38MOL0     C 5118   0.288   8.224   9.211 -1.1300 -1.0000 -1.7454
   38MOL0     C 5119   0.427   8.220   9.277 -0.2651  0.0699  1.0247
   38MOL0     C 5120   0.540   8.151   9.186  0.0043  0.3339  0.1726
   38MOL0     C 5121   0.518   8.006   9.169 -0.8701  0.6987  0.3300
   38MOL0     C 5122   0.631   7.955   9.064  0.6976  0.1509 -0.4562
   38MOL0     N 5123   0.600   7.811   9.025  0.7245 -0.5440 -0.9156
   38MOL0     C 5124   0.491   7.767   8.956  0.6361 -0.0182  0.6507
   38MOL0     C 5125   0.498   7.635   8.939 -0.4682  0.5288 -0.4307
   38MOL0     C 5126   0.385   7.551   8.879 -0.4860  1.1749 -0.1022
   38MOL0     C 5127   0.442   7.445   8.782  0.0082 -0.3899  0.5673
   38MOL0     C 5128   0.332   7.350   8.737 -0.2703  0.0333  0.1077
   38MOL0     C 5129   0.408   7.241   8.669  0.2125 -0.0095  0.9324
   38MOL0     O 5130   0.315   7.134   8.645 -0.8679 -1.1018  0.2393
   38MOL0     C 5131   0.360   7.008   8.629  0.4077  0.0244 -0.0760
   38MOL0     C 5132   0.496   6.971   8.600  0.3366 -0.1808 -0.1241
   38MOL0     C 5133   0.526   6.837   8.576  0.3352  0.4625  0.1598
   38MOL0     C 5134   0.677   6.812   8.556  0.9751  0.0455  0.2473
   38MOL0     C 5135   0.424   6.738   8.580 -0.3232 -0.0825  0.5453
   38MOL0     C 5136   0.454   6.595   8.558  1.0453 -0.4230  0.0576
   38MOL0     O 5137   0.351   6.511   8.599  0.1070 -0.1860  0.4653
   38MOL0     C 5138   0.382   6.375   8.607  0.0791 -0.4446 -0.5077
   38MOL0     C 5139   0.431   6.302   8.495 -0.2407  0.6299 -1.0063
   38MOL0     C 5140   0.454   6.160   8.522  0.8904  0.6823 -0.8100
   38MOL0     C 5141   0.415   6.094   8.634  0.8907  0.3645 -0.0920
   38MOL0     O 5142   0.425   5.959   8.640 -0.6739  0.1370  0.0524
   38MOL0     C 5143   0.396   5.878   8.749  0.2826 -0.7647 -0.6915
   38MOL0     C 5144   0.403   5.738   8.705  0.6730  0.5571  0.2440
   38MOL0     C 5145   0.303   5.717   8.590 -0.4285 -0.1658 -0.1948
   38MOL0     C 5146   0.311   5.571   8.530 -0.1803  0.3311  0.3664
   38MOL0     C 5147   0.233   5.555   8.403 -0.3526 -0.5207  0.0981
   38MOL0     C 5148   0.195   5.412   8.371  0.1462  0.6664 -0.1508
   38MOL0     C 5149   0.150   5.324   8.478  0.0581  0.6843  0.6782
   38MOL0     C 5150   0.090   5.192   8.423 -0.0821 -0.8966  0.4217
   38MOL0    Cl 5151   0.013   5.092   8.553  0.3799  0.0962 -0.1873
   38MOL0     C 5152   0.358   6.166   8.736  0.0220 -0.7556 -0.2836
   38MOL0     C 5153   0.352   6.307   8.726 -0.0209  0.2179 -0.3992
   38MOL0     O 5154   0.566   6.555   8.522 -0.3082 -0.8937 -0.0139
   38MOL0     C 5155   0.289   6.776   8.613 -0.4939  0.6740 -0.1527
   38MOL0     C 5156   0.260   6.907   8.638 -0.6516 -0.4011  0.9148
   38MOL0     N 5157   0.618   7.598   8.999  1.1379 -0.1262 -0.1285
   38MOL0     N 5158   0.683   7.702   9.043  0.5292  0.0142  0.1041
   38MOL0     C 5159   0.037   8.700   8.756 -0.3974 -0.3818  0.0377
   38MOL0     C 5160   0.103   8.790   8.665 -0.6272  0.2741  0.0453
   38MOL0     C 5161   0.354   8.985   8.367 -0.5033  1.5348  0.0316
   38MOL0     C 5162   0.437   9.083   8.417  0.2854 -0.0566  0.8549
   38MOL0     C 5163   0.479   9.184   8.343 -0.1454  0.4682  0.4375
   38MOL0     C 5164   0.444   9.192   8.204 -0.1232 -0.7470 -1.3514
   38MOL0     O 5165   0.495   9.300   8.131 -0.1772  0.0277  0.2909
   38MOL0     C 5166   0.598   9.390   8.174  0.0209  0.6428  0.1345
   38MOL0     C 5167   0.738   9.317   8.167 -0.0055  0.5550 -0.5764
   38MOL0     C 5168   0.757   9.250   8.035  0.7196  0.3625 -1.4045
   38MOL0     C 5169   0.896   9.264   7.963  0.1726 -0.1908 -0.3933
   38MOL0     C 5170   0.999   9.223   8.066  0.5576 -0.3946  0.6938
   38MOL0     C 5171   1.079   9.197   8.154 -0.2138 -0.6801  0.7572
   38MOL0     C 5172   0.375   9.092   8.156  0.3298 -0.0330 -0.5426
   38MOL0     C 5173   0.313   8.993   8.232  0.0787  0.4243  0.6153
   38MOL0     C 5174   0.220   8.893   8.165 -0.1626 -0.3149  0.3386
   38MOL0     H 5175   0.377   8.888   8.840  0.0102  0.0685 -1.6649
   38MOL0     H 5176   0.294   8.729   8.982  0.8789 -0.1643 -0.0302
   38MOL0     H 5177   0.267   8.473   8.919 -0.3769  2.4736  2.0775
   38MOL0     H 5178   0.140   8.406   8.825  2.8631 -1.5678  0.5960
   38MOL0     H 5179   0.076   8.389   9.113 -0.7921 -0.3871 -0.5179
   38MOL0     H 5180   0.087   8.257   8.995  1.6580 -0.4886 -1.9011
   38MOL0     H 5181   0.316   8.236   9.001  0.9067 -2.1841  1.8134
   38MOL0     H 5182   0.354   8.383   9.082 -1.7234  0.7539 -1.4754
   38MOL0     H 5183   0.215   8.260   9.284 -0.3602  0.6096 -1.7362
   38MOL0     H 5184   0.250   8.123   9.194 -3.7575 -0.9224  2.2856
   38MOL0     H 5185   0.428   8.166   9.372 -1.4012  0.8728  1.5052
   38MOL0     H 5186   0.452   8.326   9.289  1.6458 -0.4685  2.3835
   38MOL0     H 5187   0.551   8.205   9.091  1.2538 -1.9018 -1.0484
   38MOL0     H 5188   0.631   8.156   9.246  0.3274 -1.4963 -0.0883
   38MOL0     H 5189   0.418   7.995   9.124 -1.7093  0.5800  2.1333
   38MOL0     H 5190   0.523   7.951   9.263 -2.0145  1.9609  1.1583
   38MOL0     H 5191   0.625   8.021   8.977 -2.2366  1.0062  0.2467
   38MOL0     H 5192   0.724   7.980   9.115  0.0003  2.7304 -0.3042
   38MOL0     H 5193   0.422   7.841   8.915  2.0038  0.6045 -0.6117
   38MOL0     H 5194   0.311   7.614   8.830  0.5609 -0.2730 -3.8509
   38MOL0     H 5195   0.332   7.505   8.963 -4.7144 -0.9562 -3.5313
   38MOL0     H 5196   0.490   7.504   8.704  0.7334 -0.1319  1.1958
   38MOL0     H 5197   0.523   7.392   8.834 -0.5194 -1.9113 -0.1231
   38MOL0     H 5198   0.266   7.312   8.815 -0.7324  1.7098  0.5700
   38MOL0     H 5199   0.266   7.394   8.663 -2.4923  0.3265  2.1548
   38MOL0     H 5200   0.450   7.268   8.571  2.4559 -1.5942  1.3780
   38MOL0     H 5201   0.498   7.205   8.720  2.5443  1.4638 -1.8261
   38MOL0     H 5202   0.577   7.040   8.625 -0.2078  0.5600 -0.3994
   38MOL0     H 5203   0.700   6.754   8.467 -1.3117 -0.7388  0.1162
   38MOL0     H 5204   0.709   6.747   8.638  1.9120 -3.3299 -2.5879
   38MOL0     H 5205   0.746   6.898   8.554  5.2023 -3.0013  0.4816
   38MOL0     H 5206   0.469   6.330   8.398 -1.9646 -2.4351 -2.7046
   38MOL0     H 5207   0.497   6.102   8.442  0.4076 -1.4311  0.3913
   38MOL0     H 5208   0.469   5.886   8.831 -1.4188 -2.6386  1.1342
   38MOL0     H 5209   0.298   5.911   8.783  0.9347  0.4776  0.1017
   38MOL0     H 5210   0.502   5.711   8.668  0.4208  1.3804 -1.0739
   38MOL0     H 5211   0.385   5.668   8.788 -0.6887  0.6360  0.0490
   38MOL0     H 5212   0.306   5.785   8.504  1.1402 -3.2548 -2.8366
   38MOL0     H 5213   0.207   5.740   8.637  0.6887 -1.9289  3.3267
   38MOL0     H 5214   0.264   5.509   8.607  1.2185 -0.6101  0.4983
   38MOL0     H 5215   0.411   5.531   8.512 -1.2054 -1.7557 -1.0419
   38MOL0     H 5216   0.140   5.611   8.413  0.3615  0.8601 -0.6592
   38MOL0     H 5217   0.291   5.599   8.322 -1.9736  1.5866  0.0121
   38MOL0     H 5218   0.277   5.365   8.316  0.5657 -1.1058  1.8995
   38MOL0     H 5219   0.111   5.419   8.301  0.1006 -2.7043 -0.5651
   38MOL0     H 5220   0.069   5.365   8.540 -1.9089 -3.6462  1.3485
   38MOL0     H 5221   0.239   5.289   8.532 -0.4444 -2.3742 -0.3047
   38MOL0     H 5222   0.165   5.133   8.370 -1.4842 -0.4162 -2.3098
   38MOL0     H 5223   0.014   5.226   8.352 -0.7120 -0.3777  1.3268
   38MOL0     H 5224   0.342   6.123   8.835 -0.7775  0.4871  0.1449
   38MOL0     H 5225   0.313   6.350   8.817 -2.5900 -2.4459 -0.0969
   38MOL0     H 5226   0.206   6.706   8.608 -1.0244  1.3248 -0.6761
   38MOL0     H 5227   0.156   6.932   8.655  0.0717  2.8760  1.2698
   38MOL0     H 5228  -0.058   8.651   8.738 -1.6889  1.4597  1.4252
   38MOL0     H 5229   0.049   8.814   8.574 -2.8484 -0.9821  0.9363
   38MOL0     H 5230   0.483   9.084   8.515  1.2395 -3.4039  0.5562
   38MOL0     H 5231   0.547   9.258   8.384 -0.0732  0.4532  0.3475
   38MOL0     H 5232   0.602   9.474   8.105 -0.3862  1.6713  1.3273
   38MOL0     H 5233   0.593   9.443   8.270 -0.8391 -0.6694  0.8472
   38MOL0     H 5234   0.735   9.239   8.243  3.8653  1.6197  0.8864
   38MOL0     H 5235   0.819   9.385   8.195 -0.2821  1.0446 -0.9285
   38MOL0     H 5236   0.741   9.144   8.053  1.5647  0.1745 -1.7200
   38MOL0     H 5237   0.691   9.294   7.959  2.4064 -0.4059 -3.4129
   38MOL0     H 5238   0.910   9.370   7.942  0.5407  0.3776  2.3526
   38MOL0     H 5239   0.908   9.197   7.877  3.6093 -1.5676  0.9642
   38MOL0     H 5240   1.147   9.178   8.234  0.2185 -0.6195  0.4123
   38MOL0     H 5241   0.354   9.092   8.049  0.1757 -0.6645 -0.5125
   38MOL0     H 5242   0.131   8.876   8.225 -2.0739 -0.3631 -2.3400
   38MOL0     H 5243   0.177   8.933   8.073  0.8408 -0.1112 -0.0540
   38MOL0     H 5244   0.268   8.800   8.133 -0.0474  0.5041 -2.0473
   39MOL0     O 5245   6.608   8.555  11.203 -0.3293  0.7629 -0.2312
   39MOL0     C 5246   6.669   8.586  11.298 -0.0952 -0.1823  0.4747
   39MOL0     O 5247   6.745   8.700  11.310 -0.1164  0.1181  1.2382
   39MOL0     C 5248   6.753   8.792  11.211  0.4704  0.6642 -0.3551
   39MOL0     C 5249   6.883   8.825  11.175  0.6727  0.0516  0.1193
   39MOL0     C 5250   6.897   8.913  11.072  0.4668 -0.2515  0.2215
   39MOL0     C 5251   6.786   8.958  11.011 -0.4723 -0.2549 -0.7578
   39MOL0     O 5252   6.822   9.053  10.921 -0.2694  0.1571  0.1221
   39MOL0     C 5253   6.733   9.153  10.884  0.0657 -2.0104  0.1765
   39MOL0     C 5254   6.812   9.266  10.805  0.6368 -0.5883 -1.0382
   39MOL0     C 5255   6.926   9.232  10.714  0.4954 -1.3606  0.4008
   39MOL0     C 5256   6.976   9.351  10.630 -0.2690 -0.5335 -0.7941
   39MOL0     C 5257   7.101   9.340  10.559  0.3054 -0.1810 -0.3460
   39MOL0     C 5258   7.132   9.429  10.437 -0.5536  0.2725 -0.2935
   39MOL0     C 5259   7.125   9.568  10.501  0.4863  0.1577 -0.4817
   39MOL0     C 5260   7.150   9.671  10.384 -0.0740  0.2726  0.5575
   39MOL0     N 5261   7.063   9.641  10.263 -0.5764 -0.1392 -0.4745
   39MOL0     C 5262   7.112   9.646  10.139 -0.8080  0.4202  1.0408
   39MOL0     C 5263   7.005   9.653  10.057  0.0044 -0.4138  0.1611
   39MOL0     C 5264   7.005   9.673   9.909 -0.1907  0.3429  0.0817
   39MOL0     C 5265   6.942   9.813   9.877 -0.1552  0.2396  0.6819
   39MOL0     C 5266   6.790   9.838   9.915 -0.2304  0.3339 -0.0205
   39MOL0     C 5267   6.691   9.740   9.841 -0.2566  0.4745  0.0892
   39MOL0     O 5268   6.557   9.736   9.893 -0.3100  0.1242  0.4464
   39MOL0     C 5269   6.469   9.654   9.827 -0.1286  0.3213  0.1087
   39MOL0     C 5270   6.460   9.526   9.887  1.1608 -0.0081  0.6599
   39MOL0     C 5271   6.384   9.421   9.828 -0.1211 -0.2095  0.2364
   39MOL0     C 5272   6.381   9.288   9.907 -0.2754  0.6870 -0.4799
   39MOL0     C 5273   6.301   9.445   9.706 -0.0711 -1.0169  0.3298
   39MOL0     C 5274   6.220   9.341   9.632 -0.2646  0.0744  0.2814
   39MOL0     O 5275   6.227   9.208   9.670 -0.2348  0.4449  0.4233
   39MOL0     C 5276   6.142   9.113   9.623 -0.1933  0.0727  0.6964
   39MOL0     C 5277   6.101   9.017   9.719 -0.6078 -0.6762 -0.3705
   39MOL0     C 5278   5.995   8.928   9.683 -0.1494  0.1055 -0.0463
   39MOL0     C 5279   5.951   8.917   9.546  0.0404  0.8783  0.9469
   39MOL0     O 5280   5.853   8.818   9.520 -0.7847  0.3824  0.2255
   39MOL0     C 5281   5.844   8.757   9.387  0.0038 -0.7380 -0.3604
   39MOL0     C 5282   5.716   8.812   9.317 -0.0370 -0.5111 -0.4128
   39MOL0     C 5283   5.694   8.740   9.182 -0.2880  1.4994  0.1908
   39MOL0     C 5284   5.639   8.833   9.066  0.6887 -0.1450 -0.7343
   39MOL0     C 5285   5.641   8.767   8.932 -0.0697  0.7081  0.1887
   39MOL0     C 5286   5.596   8.860   8.813  0.4423  0.6915 -0.3630
   39MOL0     C 5287   5.592   8.784   8.676  0.2397  0.2280 -0.4506
   39MOL0     C 5288   5.467   8.822   8.594 -0.5314  0.1450  0.9054
   39MOL0    Cl 5289   5.465   8.712   8.458 -0.1496  0.2618  0.1042
   39MOL0     C 5290   5.995   9.013   9.458  0.1124  0.2536  0.9807
   39MOL0     C 5291   6.087   9.109   9.492 -0.7940 -0.1572  0.8985
   39MOL0     O 5292   6.140   9.393   9.549 -0.1103 -0.3364  0.0706
   39MOL0     C 5293   6.309   9.584   9.654  0.0578  0.0861  0.1337
   39MOL0     C 5294   6.388   9.678   9.714  0.3158 -0.1303  0.1376
   39MOL0     N 5295   6.892   9.631  10.135 -0.5161 -0.7757 -0.2288
   39MOL0     N 5296   6.929   9.632  10.262 -0.0311 -0.6934 -0.7607
   39MOL0     C 5297   6.658   8.937  11.046  0.8290 -0.0584  0.2203
   39MOL0     C 5298   6.640   8.862  11.167  0.1568 -0.1926 -0.9186
   39MOL0     C 5299   6.647   8.504  11.424 -0.0663 -0.4386 -0.2883
   39MOL0     C 5300   6.647   8.564  11.553 -1.1247 -0.8128  0.1060
   39MOL0     C 5301   6.642   8.497  11.673  0.1537 -0.1284 -0.6854
   39MOL0     C 5302   6.637   8.357  11.672  1.2266 -0.2530 -0.0585
   39MOL0     O 5303   6.612   8.298  11.791  0.4372  0.1524 -0.0788
   39MOL0     C 5304   6.573   8.164  11.788  0.3213  0.4603  0.1623
   39MOL0     C 5305   6.510   8.120  11.916 -0.0961 -0.1665  0.1331
   39MOL0     C 5306   6.590   8.158  12.035 -0.3589 -0.0510 -0.3788
   39MOL0     C 5307   6.652   8.043  12.104 -0.5210 -0.2251  0.2929
   39MOL0     C 5308   6.661   8.071  12.239 -0.4138 -1.0237 -0.4314
   39MOL0     C 5309   6.676   8.077  12.360 -0.1695  0.2367 -0.9488
   39MOL0     C 5310   6.639   8.295  11.553  0.7507  0.0177  0.7409
   39MOL0     C 5311   6.651   8.364  11.429 -0.0066 -0.5403  0.2166
   39MOL0     C 5312   6.636   8.283  11.309 -0.2788  0.4146  0.0430
   39MOL0     H 5313   6.965   8.770  11.220 -1.6161 -1.9509  2.1141
   39MOL0     H 5314   6.992   8.954  11.038  0.7013 -0.5916  0.4705
   39MOL0     H 5315   6.690   9.197  10.975 -2.7955 -0.7810 -1.6324
   39MOL0     H 5316   6.656   9.126  10.812  0.1604 -0.2470 -0.6315
   39MOL0     H 5317   6.732   9.321  10.754 -2.0424 -3.0989  0.1618
   39MOL0     H 5318   6.852   9.322  10.890  0.4785 -1.4384 -0.3941
   39MOL0     H 5319   7.008   9.199  10.778  2.8606 -0.2953 -1.8870
   39MOL0     H 5320   6.897   9.150  10.647 -0.5601  1.1902 -2.5067
   39MOL0     H 5321   6.894   9.369  10.560 -1.7050  1.5056  1.2324
   39MOL0     H 5322   6.978   9.438  10.698  1.4131  0.0957 -1.5914
   39MOL0     H 5323   7.099   9.239  10.517  1.5570 -1.2325  1.9609
   39MOL0     H 5324   7.185   9.335  10.628  0.1030 -3.4298 -0.1718
   39MOL0     H 5325   7.227   9.403  10.389 -0.0979 -0.4963  0.9761
   39MOL0     H 5326   7.042   9.411  10.378 -0.7765 -0.0875  0.1516
   39MOL0     H 5327   7.186   9.586  10.590 -1.0307 -0.8507  0.8246
   39MOL0     H 5328   7.021   9.578  10.533  1.4324 -1.5463  3.8443
   39MOL0     H 5329   7.123   9.770  10.424  0.5375 -0.3948  2.7504
   39MOL0     H 5330   7.256   9.674  10.360 -0.1867 -2.4473 -0.5394
   39MOL0     H 5331   7.215   9.663  10.110 -1.5722 -0.6028 -2.8763
   39MOL0     H 5332   6.948   9.600   9.851 -1.7941  1.4381  0.1940
   39MOL0     H 5333   7.108   9.649   9.883 -0.1771  2.1424 -1.7421
   39MOL0     H 5334   7.000   9.887   9.932 -1.3545  1.5090  0.3173
   39MOL0     H 5335   6.953   9.832   9.769  1.4433  2.3140  1.1551
   39MOL0     H 5336   6.779   9.825  10.023 -2.7663 -1.9383 -0.4476
   39MOL0     H 5337   6.760   9.939   9.886 -1.7759 -0.0297  0.2249
   39MOL0     H 5338   6.701   9.766   9.736 -0.9037  0.6229  0.0592
   39MOL0     H 5339   6.737   9.641   9.849 -0.8480  0.1262 -0.7325
   39MOL0     H 5340   6.535   9.501   9.962  2.0914 -2.3844 -0.9524
   39MOL0     H 5341   6.415   9.193   9.864  1.0512  0.4843  0.9282
   39MOL0     H 5342   6.278   9.292   9.945  0.7745  2.2763  2.5393
   39MOL0     H 5343   6.435   9.297  10.001 -0.8547 -0.9780  0.0564
   39MOL0     H 5344   6.157   9.017   9.812 -0.6712  1.8206 -0.2690
   39MOL0     H 5345   5.961   8.849   9.749  0.6499  1.3197  1.9047
   39MOL0     H 5346   5.935   8.787   9.334 -2.6585  2.4583 -3.6524
   39MOL0     H 5347   5.842   8.650   9.408  0.0977 -0.6597  0.0469
   39MOL0     H 5348   5.632   8.779   9.379  0.6285 -1.7408 -0.1366
   39MOL0     H 5349   5.710   8.921   9.305  0.2435 -0.1415  2.1388
   39MOL0     H 5350   5.631   8.651   9.192  1.7391  0.1223  1.8089
   39MOL0     H 5351   5.791   8.705   9.146 -1.3532 -2.1703  0.4424
   39MOL0     H 5352   5.689   8.930   9.069 -1.4114  1.0271  2.2344
   39MOL0     H 5353   5.537   8.858   9.098  0.7133 -0.7413 -0.1731
   39MOL0     H 5354   5.742   8.731   8.912  0.3793  0.7872  2.1354
   39MOL0     H 5355   5.574   8.683   8.956  2.3334 -0.6855  2.4442
   39MOL0     H 5356   5.669   8.941   8.804 -0.3769  1.3010 -1.8813
   39MOL0     H 5357   5.496   8.888   8.847  0.3655  0.3521 -0.3044
   39MOL0     H 5358   5.616   8.679   8.693  0.1130  0.1466 -0.7603
   39MOL0     H 5359   5.684   8.817   8.625  1.9179 -1.7703  1.0829
   39MOL0     H 5360   5.472   8.929   8.572 -0.2818 -0.2185 -1.0232
   39MOL0     H 5361   5.373   8.809   8.649 -1.0905  1.9767  0.4450
   39MOL0     H 5362   5.955   9.003   9.357  0.3474 -1.5553  1.0254
   39MOL0     H 5363   6.111   9.186   9.419 -1.1629 -0.9532 -0.0872
   39MOL0     H 5364   6.250   9.610   9.567 -5.5689  2.0535  3.9655
   39MOL0     H 5365   6.391   9.785   9.693  2.7949  0.8001  4.1425
   39MOL0     H 5366   6.570   8.982  11.001  1.6744  0.3501 -1.0641
   39MOL0     H 5367   6.546   8.859  11.221  0.3077  3.0217 -0.2941
   39MOL0     H 5368   6.680   8.667  11.560  3.0561 -1.5687 -3.7965
   39MOL0     H 5369   6.652   8.562  11.760  2.7448  0.9266 -1.6602
   39MOL0     H 5370   6.494   8.151  11.713 -0.8748 -1.7428  1.6831
   39MOL0     H 5371   6.659   8.104  11.754  1.8718  1.6585  1.7548
   39MOL0     H 5372   6.496   8.012  11.903  0.5806 -0.2444  0.0375
   39MOL0     H 5373   6.418   8.178  11.913  1.4794  2.5570  1.0805
   39MOL0     H 5374   6.669   8.229  12.008 -0.7249 -1.1075 -5.0035
   39MOL0     H 5375   6.513   8.213  12.089 -0.8776 -1.8734  0.8336
   39MOL0     H 5376   6.748   8.035  12.052 -1.8720 -2.1418 -2.1244
   39MOL0     H 5377   6.584   7.959  12.086 -0.7754  0.1445 -0.5213
   39MOL0     H 5378   6.699   8.088  12.464  0.4025 -0.8337 -0.9541
   39MOL0     H 5379   6.629   8.187  11.548  0.5022  0.0001  1.4138
   39MOL0     H 5380   6.707   8.320  11.233 -0.9175 -0.5027 -1.0358
   39MOL0     H 5381   6.667   8.180  11.328  1.5699  0.8692 -0.2343
   39MOL0     H 5382   6.537   8.298  11.267  0.5705  0.6139 -2.0237
   40MOL0     O 5383   9.457   7.216   5.553  0.0948 -0.1062 -0.3803
   40MOL0     C 5384   9.465   7.219   5.677  0.0161 -0.1263 -0.0127
   40MOL0     O 5385   9.488   7.110   5.758  0.6825 -0.1353 -0.4462
   40MOL0     C 5386   9.505   6.978   5.721  0.2975 -0.0079  0.5640
   40MOL0     C 5387   9.499   6.891   5.824 -0.2056  0.6511  0.0918
   40MOL0     C 5388   9.514   6.753   5.809 -0.3885  0.9178  0.4529
   40MOL0     C 5389   9.544   6.698   5.685  0.4061  0.2294  0.0561
   40MOL0     O 5390   9.550   6.561   5.656 -0.9782  1.0164  0.1883
   40MOL0     C 5391   9.602   6.472   5.760  0.0309  0.0922 -0.1239
   40MOL0     C 5392   9.752   6.505   5.785  0.5126 -0.7397 -0.8807
   40MOL0     C 5393   9.850   6.551   5.678  1.0529  1.0852 -0.1828
   40MOL0     C 5394   9.990   6.562   5.734 -0.4499 -0.0307 -0.4170
   40MOL0     C 5395  10.097   6.622   5.639 -0.1404 -0.1809  0.0354
   40MOL0     C 5396  10.071   6.771   5.606  0.2090  0.1028  0.3070
   40MOL0     C 5397  10.186   6.836   5.525  0.1559  0.3272 -0.5150
   40MOL0     C 5398  10.170   6.987   5.512 -0.3524  0.0145  0.2512
   40MOL0     N 5399  10.232   7.066   5.622  0.1773  0.9516  0.8289
   40MOL0     C 5400  10.188   7.105   5.745 -0.5910 -0.5029  0.0236
   40MOL0     C 5401  10.295   7.161   5.802 -0.2596  0.0030 -0.0927
   40MOL0     C 5402  10.281   7.214   5.945 -0.2820 -0.8558 -1.2735
   40MOL0     C 5403  10.263   7.112   6.061  0.1116  0.6266  0.1819
   40MOL0     C 5404  10.400   7.045   6.081 -0.3290 -0.7413 -0.0895
   40MOL0     C 5405  10.385   6.922   6.160 -0.2353  0.6365 -0.1610
   40MOL0     O 5406  10.371   6.953   6.301 -1.2242  0.4332  0.1092
   40MOL0     C 5407  10.377   6.852   6.396  0.4329  1.1112 -0.1973
   40MOL0     C 5408  10.382   6.715   6.371  0.6575  0.3234  0.3400
   40MOL0     C 5409  10.396   6.608   6.465 -0.1430 -0.5767 -1.2680
   40MOL0     C 5410  10.393   6.474   6.399  0.2186 -0.5920 -0.9220
   40MOL0     C 5411  10.384   6.648   6.601 -0.2330  0.1414  0.3144
   40MOL0     C 5412  10.373   6.544   6.710 -0.4951  0.5633  0.2562
   40MOL0     O 5413  10.357   6.587   6.837 -0.4880 -0.5812 -0.3630
   40MOL0     C 5414  10.451   6.526   6.915 -0.6068 -0.2402  0.0421
   40MOL0     C 5415  10.436   6.408   6.978  0.0140  0.1174 -0.1921
   40MOL0     C 5416  10.536   6.349   7.049  0.0746 -0.0594 -0.1606
   40MOL0     C 5417  10.667   6.404   7.059  0.3679 -0.4791  0.0929
   40MOL0     O 5418  10.769   6.343   7.125 -0.8066 -0.0128 -0.5231
   40MOL0     C 5419  10.758   6.275   7.252  0.4407  0.0820 -0.0492
   40MOL0     C 5420  10.897   6.238   7.283  0.4555 -0.0046 -0.1302
   40MOL0     C 5421  10.896   6.166   7.417  0.2133 -0.1046 -1.0259
   40MOL0     C 5422  11.041   6.130   7.439 -0.5070  1.1112 -0.7322
   40MOL0     C 5423  11.077   6.044   7.560 -0.2101  0.3273 -0.2145
   40MOL0     C 5424  11.156   5.915   7.531  0.2741  0.1735 -0.6933
   40MOL0     C 5425  11.172   5.831   7.657 -0.0815  1.0722 -0.3641
   40MOL0     C 5426  11.316   5.789   7.685 -1.1311  0.9193  1.4548
   40MOL0    Cl 5427  11.365   5.656   7.566  0.3041 -0.2109  0.2463
   40MOL0     C 5428  10.694   6.508   6.975 -0.1962 -0.8435 -0.2768
   40MOL0     C 5429  10.589   6.569   6.909  0.7533  0.2653 -0.0577
   40MOL0     O 5430  10.355   6.428   6.682 -0.1162 -0.7040  0.6989
   40MOL0     C 5431  10.383   6.786   6.630 -0.9824 -0.5363  0.5608
   40MOL0     C 5432  10.384   6.883   6.529  0.9922 -0.0702 -0.1678
   40MOL0     N 5433  10.406   7.152   5.718 -0.7454 -0.0429  0.2439
   40MOL0     N 5434  10.362   7.104   5.614  0.4921 -0.3097 -0.6201
   40MOL0     C 5435   9.544   6.782   5.571 -0.5797 -0.4245 -0.4737
   40MOL0     C 5436   9.523   6.920   5.588 -0.6126 -0.0550  0.1054
   40MOL0     C 5437   9.468   7.347   5.753  0.2513  0.0524 -0.0290
   40MOL0     C 5438   9.418   7.344   5.884  0.4608  0.0875  0.9148
   40MOL0     C 5439   9.403   7.463   5.962 -0.4511  0.3517 -0.1028
   40MOL0     C 5440   9.459   7.582   5.909  0.1638 -0.1848 -0.8544
   40MOL0     O 5441   9.462   7.676   6.004  1.0656 -0.5793  0.2276
   40MOL0     C 5442   9.512   7.807   5.987  0.1971  0.1641 -0.4135
   40MOL0     C 5443   9.407   7.886   5.904  0.3180 -0.1468 -0.6226
   40MOL0     C 5444   9.463   8.014   5.843  1.0173 -0.0405 -0.2326
   40MOL0     C 5445   9.515   7.995   5.699 -0.6805  0.2056  0.5432
   40MOL0     C 5446   9.583   8.115   5.661 -0.1088  0.0653  0.0056
   40MOL0     C 5447   9.644   8.210   5.622  0.2463 -0.0340 -0.1403
   40MOL0     C 5448   9.520   7.585   5.789  0.2245  0.5538 -0.4715
   40MOL0     C 5449   9.521   7.472   5.699  0.5026  0.2723  0.3377
   40MOL0     C 5450   9.567   7.486   5.562 -0.6881  0.8294 -0.2579
   40MOL0     H 5451   9.481   6.934   5.923 -2.7916 -1.3010  0.5943
   40MOL0     H 5452   9.511   6.681   5.890  1.0113 -0.6762 -0.8442
   40MOL0     H 5453   9.597   6.369   5.724 -1.6845  0.6295 -1.5402
   40MOL0     H 5454   9.552   6.477   5.857 -1.3961  0.8711 -0.8737
   40MOL0     H 5455   9.755   6.585   5.860  2.2290 -1.8983  0.3680
   40MOL0     H 5456   9.796   6.421   5.839  0.0091 -1.5832 -1.7561
   40MOL0     H 5457   9.838   6.474   5.601 -0.9987  1.4218 -0.2608
   40MOL0     H 5458   9.820   6.650   5.641 -1.6461  3.1012  5.9307
   40MOL0     H 5459   9.976   6.621   5.826 -1.4213 -0.9534  0.0579
   40MOL0     H 5460  10.029   6.467   5.774  2.6389  1.5849  0.7438
   40MOL0     H 5461  10.091   6.564   5.547  2.0029 -1.0475  0.3633
   40MOL0     H 5462  10.199   6.604   5.676  0.7167  1.1887 -1.5251
   40MOL0     H 5463   9.977   6.783   5.553  1.2547 -2.0402 -2.2809
   40MOL0     H 5464  10.062   6.832   5.697  0.0887 -2.0308  1.8024
   40MOL0     H 5465  10.185   6.790   5.426 -0.8678 -0.7988 -0.0053
   40MOL0     H 5466  10.282   6.807   5.567 -0.9153  0.1185  1.9407
   40MOL0     H 5467  10.222   7.001   5.417 -2.0252 -0.5807 -0.8095
   40MOL0     H 5468  10.061   6.996   5.501 -0.1096  0.2420 -2.9786
   40MOL0     H 5469  10.088   7.101   5.787 -0.1527 -0.2876  1.1267
   40MOL0     H 5470  10.192   7.278   5.955 -0.2595 -1.0598  0.5747
   40MOL0     H 5471  10.365   7.279   5.973 -0.9655  0.1861 -1.5798
   40MOL0     H 5472  10.244   7.169   6.153 -0.1809  0.0064  0.5079
   40MOL0     H 5473  10.182   7.043   6.037  1.4393 -0.9125  0.0033
   40MOL0     H 5474  10.437   7.013   5.984 -1.6062 -3.0634  0.1242
   40MOL0     H 5475  10.465   7.116   6.133 -4.2055  0.9635  2.9672
   40MOL0     H 5476  10.297   6.867   6.124 -0.3586  0.9082 -0.2820
   40MOL0     H 5477  10.471   6.856   6.144 -0.2623  0.3812  0.7166
   40MOL0     H 5478  10.377   6.679   6.268  0.3358 -1.4593  0.9451
   40MOL0     H 5479  10.461   6.483   6.314  2.0080  0.7286  0.5638
   40MOL0     H 5480  10.291   6.444   6.375  0.7421 -1.0901 -2.6100
   40MOL0     H 5481  10.442   6.402   6.465 -1.1207  0.5049  1.4082
   40MOL0     H 5482  10.343   6.355   6.963  0.7090 -1.0859 -0.3592
   40MOL0     H 5483  10.512   6.260   7.106 -2.6897  1.3574  1.0625
   40MOL0     H 5484  10.727   6.340   7.335  1.3949  0.2589  0.1739
   40MOL0     H 5485  10.697   6.184   7.252  0.6902 -0.1080 -1.3817
   40MOL0     H 5486  10.928   6.180   7.195 -1.8259 -0.6644 -0.5610
   40MOL0     H 5487  10.957   6.330   7.286  0.3087  0.3698 -3.7490
   40MOL0     H 5488  10.842   6.073   7.399  1.8964 -1.3605  0.0373
   40MOL0     H 5489  10.854   6.236   7.490  2.8759  3.0784 -2.2798
   40MOL0     H 5490  11.101   6.221   7.429  1.3587  0.4874  2.9520
   40MOL0     H 5491  11.072   6.067   7.356 -1.7118 -2.0649  1.0373
   40MOL0     H 5492  11.135   6.106   7.628  0.6418 -1.8070  1.1148
   40MOL0     H 5493  10.985   6.018   7.614 -0.4601  0.3381 -0.6352
   40MOL0     H 5494  11.257   5.937   7.496 -0.6450  4.0229 -1.2863
   40MOL0     H 5495  11.100   5.869   7.449  0.1259  0.1944 -0.6041
   40MOL0     H 5496  11.106   5.744   7.659 -0.9861  1.7207 -1.1451
   40MOL0     H 5497  11.160   5.897   7.743 -1.0718 -1.2996  1.4202
   40MOL0     H 5498  11.327   5.747   7.785  1.2188 -1.0485  0.4642
   40MOL0     H 5499  11.387   5.870   7.666  0.1734  0.1389  2.8120
   40MOL0     H 5500  10.793   6.545   6.947 -0.7535 -0.2265 -1.5282
   40MOL0     H 5501  10.597   6.673   6.879  1.2641  0.1282 -0.4140
   40MOL0     H 5502  10.373   6.822   6.732 -0.7924  0.3071  0.2915
   40MOL0     H 5503  10.399   6.990   6.545  1.1945 -0.3808  2.1900
   40MOL0     H 5504   9.560   6.728   5.478 -1.5870 -2.1394  0.3148
   40MOL0     H 5505   9.514   6.973   5.494 -0.4036 -3.8889 -2.2931
   40MOL0     H 5506   9.387   7.247   5.921  2.3884 -0.1976  1.9568
   40MOL0     H 5507   9.361   7.467   6.062  0.7329  0.9608  0.3998
   40MOL0     H 5508   9.531   7.843   6.089  0.3198 -0.2199 -0.3009
   40MOL0     H 5509   9.606   7.811   5.931  1.7480 -0.7290  1.9599
   40MOL0     H 5510   9.334   7.916   5.980  0.7221 -1.9531  0.5315
   40MOL0     H 5511   9.359   7.816   5.834  2.4652 -1.7136 -0.6213
   40MOL0     H 5512   9.375   8.076   5.827 -0.0635 -1.4996 -0.2037
   40MOL0     H 5513   9.543   8.064   5.898  0.6564  2.4148 -1.7641
   40MOL0     H 5514   9.430   7.985   5.630  1.1345  0.8329 -1.9344
   40MOL0     H 5515   9.576   7.905   5.684 -0.3971  0.7173 -1.6998
   40MOL0     H 5516   9.670   8.300   5.569  0.1354 -0.5816 -1.1449
   40MOL0     H 5517   9.574   7.676   5.764  0.3429  1.3341  2.2378
   40MOL0     H 5518   9.631   7.407   5.522  0.1646  1.5069 -0.2653
   40MOL0     H 5519   9.478   7.500   5.499  1.1834  2.7331 -2.6715
   40MOL0     H 5520   9.624   7.575   5.535 -0.3175  0.1141 -1.9450
   41MOL0     O 5521   8.662   4.436   0.373  0.1978 -0.1802  0.8875
   41MOL0     C 5522   8.693   4.381   0.267  0.9309 -1.4610 -0.6199
   41MOL0     O 5523   8.721   4.246   0.252  0.8003 -0.5220  0.3753
   41MOL0     C 5524   8.734   4.160   0.361  0.5274 -0.4072  0.0938
   41MOL0     C 5525   8.794   4.195   0.487  0.6464 -0.9993 -0.1882
   41MOL0     C 5526   8.808   4.093   0.590  0.1658 -0.2092  0.0679
   41MOL0     C 5527   8.782   3.961   0.551  0.5110 -0.8292  0.3395
   41MOL0     O 5528   8.828   3.862   0.634  0.8289 -0.5505 -0.8956
   41MOL0     C 5529   8.731   3.826   0.734 -0.5384 -0.5345 -0.5226
   41MOL0     C 5530   8.817   3.791   0.851 -0.0564 -0.0332 -0.4900
   41MOL0     C 5531   8.743   3.810   0.985 -0.6434  0.2308 -0.0312
   41MOL0     C 5532   8.828   3.766   1.099 -0.0494  0.4323  0.6407
   41MOL0     C 5533   8.751   3.795   1.231  0.1352 -0.2956  0.4962
   41MOL0     C 5534   8.819   3.749   1.366 -1.0237 -0.5068 -0.4694
   41MOL0     C 5535   8.725   3.751   1.490 -0.6617  0.8477 -0.6695
   41MOL0     C 5536   8.795   3.741   1.631  0.9189 -1.0943  0.8741
   41MOL0     N 5537   8.851   3.870   1.667  0.7804 -0.4565 -0.4857
   41MOL0     C 5538   8.981   3.921   1.637  0.8834  0.3428  2.0595
   41MOL0     C 5539   9.008   4.029   1.724 -0.3673  1.2581  0.1506
   41MOL0     C 5540   9.124   4.125   1.705  0.5472  0.2862 -0.8147
   41MOL0     C 5541   9.187   4.162   1.840 -0.1886  0.0585  0.4034
   41MOL0     C 5542   9.184   4.043   1.940  0.9876  0.5282 -0.0948
   41MOL0     C 5543   9.225   4.084   2.070 -0.0503 -0.6248  0.5959
   41MOL0     O 5544   9.348   4.153   2.054  0.0252  0.0717  0.0961
   41MOL0     C 5545   9.380   4.210   2.175  0.0923 -1.0072 -1.5090
   41MOL0     C 5546   9.401   4.134   2.295  0.6027  0.0653  0.3037
   41MOL0     C 5547   9.427   4.190   2.418  0.3116  0.2897 -0.3722
   41MOL0     C 5548   9.456   4.093   2.532  0.1692  0.4909  0.2259
   41MOL0     C 5549   9.431   4.335   2.421 -0.0625  1.1813 -0.2435
   41MOL0     C 5550   9.453   4.404   2.551 -0.1388 -0.1954  0.5016
   41MOL0     O 5551   9.418   4.341   2.667 -0.4156  0.1820  0.9837
   41MOL0     C 5552   9.415   4.422   2.774  0.4772  0.8879  0.1770
   41MOL0     C 5553   9.297   4.459   2.840 -0.1977 -0.6862  0.0622
   41MOL0     C 5554   9.294   4.537   2.950 -0.3918  0.4159  0.8395
   41MOL0     C 5555   9.409   4.592   3.006  0.3882 -0.9935 -0.0119
   41MOL0     O 5556   9.410   4.670   3.116  0.0594  1.1178 -0.5139
   41MOL0     C 5557   9.298   4.687   3.198 -0.5851  0.0278 -0.4229
   41MOL0     C 5558   9.327   4.785   3.310  0.3811 -0.1297 -0.1592
   41MOL0     C 5559   9.402   4.723   3.437  0.7738 -0.3739  0.1917
   41MOL0     C 5560   9.344   4.803   3.557 -0.4467  0.9993  0.6822
   41MOL0     C 5561   9.400   4.747   3.687  0.6139 -0.3170  0.3344
   41MOL0     C 5562   9.379   4.844   3.809 -0.1837  0.6479 -0.0978
   41MOL0     C 5563   9.238   4.894   3.832 -0.1018 -0.1520 -0.5916
   41MOL0     C 5564   9.222   4.973   3.963 -0.8961 -0.5131  0.2597
   41MOL0    Cl 5565   9.281   4.895   4.116 -0.2603 -0.1813 -0.0840
   41MOL0     C 5566   9.533   4.559   2.936 -0.3711  0.5781 -0.0281
   41MOL0     C 5567   9.527   4.470   2.833 -0.9553 -0.0009  0.9838
   41MOL0     O 5568   9.483   4.523   2.537 -0.1641 -0.4015 -0.2845
   41MOL0     C 5569   9.420   4.406   2.301  0.1027  0.2414  0.0942
   41MOL0     C 5570   9.385   4.346   2.182 -0.5894 -0.5616  0.2636
   41MOL0     N 5571   8.894   4.047   1.791 -0.8201 -0.0975 -0.1426
   41MOL0     N 5572   8.805   3.960   1.767  0.5625 -0.1259 -0.5114
   41MOL0     C 5573   8.734   3.929   0.426 -0.2148 -0.0393 -0.6967
   41MOL0     C 5574   8.707   4.032   0.334  0.1926  1.0908 -0.9633
   41MOL0     C 5575   8.690   4.467   0.149 -0.8428 -1.0398  0.6865
   41MOL0     C 5576   8.720   4.398   0.036 -0.7172  0.3194  1.5515
   41MOL0     C 5577   8.728   4.464  -0.089  0.8559 -0.3531  0.6428
   41MOL0     C 5578   8.711   4.608  -0.102 -0.8910 -0.3203  0.8048
   41MOL0     O 5579   8.705   4.656  -0.227 -0.8609  0.3019 -0.1000
   41MOL0     C 5580   8.690   4.795  -0.235 -0.1245 -0.2463  0.0750
   41MOL0     C 5581   8.726   4.847  -0.375  0.0238  0.2039  1.1769
   41MOL0     C 5582   8.723   5.004  -0.382 -0.2889  0.1142 -0.3301
   41MOL0     C 5583   8.713   5.055  -0.526 -0.0755  0.1391  0.0340
   41MOL0     C 5584   8.728   5.202  -0.535  0.4656 -0.5846  0.8163
   41MOL0     C 5585   8.741   5.318  -0.562  0.3231  0.6048 -1.1755
   41MOL0     C 5586   8.681   4.677   0.016  0.0452 -0.2831  1.1290
   41MOL0     C 5587   8.666   4.615   0.137  0.3097 -0.5494 -0.0683
   41MOL0     C 5588   8.644   4.703   0.254 -0.0868  1.0353  0.3178
   41MOL0     H 5589   8.829   4.290   0.526 -1.9349 -0.0664  0.0378
   41MOL0     H 5590   8.849   4.115   0.688 -1.1135  1.0389  0.3566
   41MOL0     H 5591   8.667   3.745   0.699 -1.8899  1.5284 -3.2475
   41MOL0     H 5592   8.669   3.905   0.778 -0.6776 -0.5393 -0.7094
   41MOL0     H 5593   8.845   3.685   0.842  2.2007  0.2527  2.0591
   41MOL0     H 5594   8.911   3.844   0.839  2.7251 -4.6168 -1.3110
   41MOL0     H 5595   8.721   3.915   1.005 -0.2584  0.2428  0.3320
   41MOL0     H 5596   8.646   3.761   0.995 -0.3832 -0.5503 -1.1602
   41MOL0     H 5597   8.844   3.657   1.098 -1.1344  0.2411 -1.7553
   41MOL0     H 5598   8.932   3.800   1.090  0.2802 -0.7060 -0.1523
   41MOL0     H 5599   8.657   3.741   1.241 -1.4836  1.9121 -1.5512
   41MOL0     H 5600   8.739   3.904   1.237  3.7204  0.1618  2.7102
   41MOL0     H 5601   8.847   3.645   1.345 -0.3132 -0.1533 -1.3018
   41MOL0     H 5602   8.911   3.805   1.385 -1.4563 -0.5103  2.1264
   41MOL0     H 5603   8.664   3.661   1.485 -0.2809  0.2828  2.7404
   41MOL0     H 5604   8.657   3.836   1.492 -0.6828  0.8330  1.9728
   41MOL0     H 5605   8.716   3.707   1.699 -0.1630  0.2812  0.3719
   41MOL0     H 5606   8.874   3.666   1.634  1.8876 -0.3120 -2.0572
   41MOL0     H 5607   9.060   3.880   1.573 -0.0885  0.8785  0.4613
   41MOL0     H 5608   9.085   4.212   1.651  2.2507  2.6904  1.5302
   41MOL0     H 5609   9.202   4.069   1.652  0.1465 -2.5455  1.3574
   41MOL0     H 5610   9.292   4.179   1.814 -0.8487  1.6326 -1.5547
   41MOL0     H 5611   9.145   4.253   1.883  1.2409  1.0076 -0.1131
   41MOL0     H 5612   9.083   4.003   1.952  0.7014  0.2385 -2.7252
   41MOL0     H 5613   9.248   3.963   1.902  1.2726  1.0133 -0.6584
   41MOL0     H 5614   9.141   4.141   2.110 -0.0705  0.8095 -1.3697
   41MOL0     H 5615   9.240   3.988   2.121  0.6666 -1.4071 -1.0352
   41MOL0     H 5616   9.394   4.026   2.296  1.7383 -0.0359 -0.3540
   41MOL0     H 5617   9.444   3.989   2.500  0.5039 -0.1571  2.0528
   41MOL0     H 5618   9.383   4.110   2.611  0.2242  1.0878  0.1533
   41MOL0     H 5619   9.553   4.109   2.581  1.4613 -2.9094 -0.9152
   41MOL0     H 5620   9.206   4.428   2.791 -0.9414  3.0925 -1.2607
   41MOL0     H 5621   9.194   4.555   2.988 -1.8847 -0.4924 -2.2860
   41MOL0     H 5622   9.213   4.729   3.143  1.6874  3.4942 -1.6281
   41MOL0     H 5623   9.259   4.594   3.240  0.6062  0.1564  1.0220
   41MOL0     H 5624   9.390   4.862   3.263  1.0483 -1.0815 -0.8687
   41MOL0     H 5625   9.234   4.820   3.354  2.1306  2.5792  1.7412
   41MOL0     H 5626   9.512   4.727   3.435  0.8370  0.1989  2.5283
   41MOL0     H 5627   9.371   4.619   3.450 -2.1839  0.0814 -2.1304
   41MOL0     H 5628   9.237   4.797   3.575 -0.3723 -0.6898  0.6496
   41MOL0     H 5629   9.367   4.908   3.534  1.2909  0.0541 -2.6960
   41MOL0     H 5630   9.349   4.650   3.692 -2.9529  0.7242 -5.7705
   41MOL0     H 5631   9.507   4.736   3.665  0.6869  1.0161 -0.0262
   41MOL0     H 5632   9.446   4.928   3.788  3.7236 -1.2336  3.3565
   41MOL0     H 5633   9.429   4.822   3.904  4.8256  5.7268 -0.9961
   41MOL0     H 5634   9.170   4.809   3.826 -0.0614 -0.2791  0.5103
   41MOL0     H 5635   9.203   4.955   3.749 -0.0706 -1.1864 -1.3832
   41MOL0     H 5636   9.114   4.992   3.962 -0.9102 -0.6266 -0.6810
   41MOL0     H 5637   9.275   5.066   3.944 -3.8363  1.7355  2.1559
   41MOL0     H 5638   9.629   4.598   2.969 -0.5762 -0.5683  2.1456
   41MOL0     H 5639   9.616   4.448   2.775 -2.2319  0.1678 -1.1234
   41MOL0     H 5640   9.433   4.513   2.289  3.7758 -0.0657  0.3440
   41MOL0     H 5641   9.363   4.416   2.102 -0.0288 -1.7874 -1.0074
   41MOL0     H 5642   8.716   3.825   0.400 -1.1169 -0.8653  2.6950
   41MOL0     H 5643   8.660   4.000   0.241 -2.6312 -1.9823  1.2539
   41MOL0     H 5644   8.728   4.291   0.027 -2.1289  0.2187  1.3236
   41MOL0     H 5645   8.743   4.413  -0.184 -2.2988  0.2898 -0.3172
   41MOL0     H 5646   8.586   4.817  -0.211 -0.3083 -1.7016  0.7454
   41MOL0     H 5647   8.754   4.843  -0.160  0.5861 -0.9788 -0.0338
   41MOL0     H 5648   8.636   4.824  -0.434 -2.4031 -0.9976  5.0014
   41MOL0     H 5649   8.820   4.806  -0.413  0.2739 -1.2457  3.1839
   41MOL0     H 5650   8.625   5.022  -0.335  1.6645  1.6299  3.6624
   41MOL0     H 5651   8.796   5.053  -0.316 -2.4838 -0.4696  2.7717
   41MOL0     H 5652   8.613   5.032  -0.564  0.1388  0.2745 -0.6149
   41MOL0     H 5653   8.771   4.997  -0.597  1.1926  0.2227  0.9630
   41MOL0     H 5654   8.744   5.421  -0.593 -1.4848  0.5011 -1.8286
   41MOL0     H 5655   8.651   4.781   0.011  0.9613  0.0817  2.5499
   41MOL0     H 5656   8.744   4.726   0.290  2.0429 -1.6677 -3.2003
   41MOL0     H 5657   8.607   4.799   0.217 -1.3804  0.6019  0.4101
   41MOL0     H 5658   8.565   4.669   0.322 -0.2720 -0.4684 -0.5782
   42MOL0     O 5659   0.605   7.808   7.153  0.0259 -0.5276 -0.0528
   42MOL0     C 5660   0.484   7.781   7.183 -0.1498  0.8166 -0.0042
   42MOL0     O 5661   0.414   7.842   7.281  0.3463 -0.2320  0.1687
   42MOL0     C 5662   0.451   7.969   7.307 -0.8138 -0.4833 -1.3312
   42MOL0     C 5663   0.521   8.069   7.232  0.2008  0.9036 -0.1331
   42MOL0     C 5664   0.526   8.205   7.259  0.1456  1.1422 -1.1103
   42MOL0     C 5665   0.467   8.253   7.377 -0.8650 -0.5085  0.6869
   42MOL0     O 5666   0.449   8.384   7.410 -0.1056  0.3878 -0.0130
   42MOL0     C 5667   0.457   8.473   7.295 -0.1834  0.5864  0.0003
   42MOL0     C 5668   0.397   8.598   7.344  0.2776  0.4801  0.2739
   42MOL0     C 5669   0.458   8.724   7.283  0.6687  0.5095 -0.1678
   42MOL0     C 5670   0.444   8.741   7.129  0.1448  0.2864  0.5744
   42MOL0     C 5671   0.506   8.875   7.073 -0.5405 -0.5695  0.1722
   42MOL0     C 5672   0.497   8.909   6.925  0.6390 -0.0645 -0.2521
   42MOL0     C 5673   0.566   8.805   6.835  0.4983 -1.1716  0.4690
   42MOL0     C 5674   0.655   8.876   6.731  0.1544 -0.4256 -0.5047
   42MOL0     N 5675   0.579   8.913   6.614  0.1922 -1.0163  0.3773
   42MOL0     C 5676   0.548   8.822   6.513  0.4694 -0.7406 -0.7881
   42MOL0     C 5677   0.448   8.880   6.438 -0.1592 -0.0719 -0.5483
   42MOL0     C 5678   0.379   8.826   6.314  0.7333  0.8424 -1.1803
   42MOL0     C 5679   0.262   8.750   6.367  0.1471  0.4172  0.6888
   42MOL0     C 5680   0.177   8.736   6.229  0.9728 -0.3106  0.2084
   42MOL0     C 5681   0.058   8.631   6.238  0.1505 -0.8819 -0.0838
   42MOL0     O 5682  -0.048   8.643   6.146 -0.1506 -0.0972  0.1834
   42MOL0     C 5683  -0.159   8.559   6.153  0.9262 -0.5493  0.4357
   42MOL0     C 5684  -0.166   8.447   6.228 -0.2143 -0.2697 -0.6408
   42MOL0     C 5685  -0.294   8.391   6.255  0.4962  0.2263 -0.6241
   42MOL0     C 5686  -0.288   8.288   6.367  0.4898 -0.5004 -0.7637
   42MOL0     C 5687  -0.414   8.438   6.193 -0.2487 -0.2922  0.0876
   42MOL0     C 5688  -0.549   8.381   6.197  0.1631  0.3288 -0.3698
   42MOL0     O 5689  -0.645   8.417   6.109 -0.3677 -0.5834 -0.1233
   42MOL0     C 5690  -0.782   8.408   6.127 -0.3887 -0.1041 -0.6037
   42MOL0     C 5691  -0.860   8.391   6.010 -0.1177  0.2005 -0.5037
   42MOL0     C 5692  -1.003   8.389   6.017  0.1455  0.1305 -0.2881
   42MOL0     C 5693  -1.072   8.398   6.139  1.0121 -0.2206  0.3752
   42MOL0     O 5694  -1.211   8.388   6.149  0.1476 -0.5807  0.7257
   42MOL0     C 5695  -1.277   8.521   6.147  0.5526 -0.0146  0.8808
   42MOL0     C 5696  -1.424   8.497   6.180 -0.1608 -0.2698  1.5619
   42MOL0     C 5697  -1.436   8.496   6.328  0.0519 -1.0255 -0.4980
   42MOL0     C 5698  -1.580   8.500   6.365  0.6443  0.0034  0.2426
   42MOL0     C 5699  -1.645   8.638   6.366  0.1503  1.8045  0.5678
   42MOL0     C 5700  -1.597   8.725   6.487  0.1965  0.0446  0.4897
   42MOL0     C 5701  -1.658   8.862   6.483 -0.5914  0.5753  0.5904
   42MOL0     C 5702  -1.573   8.962   6.556 -0.8201 -0.0081 -0.5200
   42MOL0    Cl 5703  -1.668   9.114   6.582  0.2749 -0.4157 -0.6734
   42MOL0     C 5704  -0.993   8.406   6.254  0.8295 -0.2899 -0.1313
   42MOL0     C 5705  -0.855   8.413   6.250  0.2215  0.6695 -0.0059
   42MOL0     O 5706  -0.567   8.298   6.284 -0.4599 -0.4898  0.4714
   42MOL0     C 5707  -0.396   8.546   6.107 -0.5881 -0.4539  0.2130
   42MOL0     C 5708  -0.278   8.615   6.102 -0.1381  0.3889 -0.4509
   42MOL0     N 5709   0.437   9.011   6.487 -0.7555 -0.1244  0.2383
   42MOL0     N 5710   0.511   9.025   6.597  0.0284  0.3293  0.0295
   42MOL0     C 5711   0.401   8.160   7.468 -1.1582 -0.6081  0.6526
   42MOL0     C 5712   0.385   8.019   7.428 -0.3313 -0.0615 -0.1540
   42MOL0     C 5713   0.414   7.670   7.103 -0.3748 -0.9141 -0.2813
   42MOL0     C 5714   0.296   7.623   7.155  0.0006 -0.0954 -0.0219
   42MOL0     C 5715   0.234   7.513   7.094  0.3193 -0.4411 -0.0230
   42MOL0     C 5716   0.298   7.452   6.986  0.4796 -0.1905 -0.6839
   42MOL0     O 5717   0.253   7.342   6.931 -0.3108 -0.3460  0.2049
   42MOL0     C 5718   0.122   7.282   6.961  0.2931  0.5291 -0.1713
   42MOL0     C 5719   0.083   7.160   6.869  0.2115 -0.4043  0.0973
   42MOL0     C 5720   0.151   7.028   6.927  0.7778  0.3613  0.7807
   42MOL0     C 5721   0.126   6.907   6.828  0.1535  0.0731 -0.4855
   42MOL0     C 5722   0.173   6.775   6.880  0.5870 -0.0179 -0.6160
   42MOL0     C 5723   0.219   6.670   6.935  0.2262  0.5518  0.3634
   42MOL0     C 5724   0.427   7.487   6.943  0.0295 -0.3339 -0.2133
   42MOL0     C 5725   0.479   7.603   6.989  0.1808  0.2547 -0.9290
   42MOL0     C 5726   0.614   7.641   6.940  1.2532  0.4064  0.9430
   42MOL0     H 5727   0.575   8.046   7.141  1.3879  0.8506  0.5724
   42MOL0     H 5728   0.581   8.276   7.198  2.8793  1.0034  0.9913
   42MOL0     H 5729   0.404   8.436   7.207 -2.2804  1.1903  0.9418
   42MOL0     H 5730   0.565   8.479   7.278  0.0787 -1.6970  0.4203
   42MOL0     H 5731   0.295   8.603   7.304  0.2772  2.8117  0.4080
   42MOL0     H 5732   0.397   8.600   7.453  0.0092  1.8922  0.2742
   42MOL0     H 5733   0.421   8.815   7.332  1.7984  0.3282  1.0570
   42MOL0     H 5734   0.566   8.718   7.294  0.6760  1.3657  0.3510
   42MOL0     H 5735   0.489   8.654   7.082 -0.9890 -0.8259  1.4560
   42MOL0     H 5736   0.337   8.734   7.105  0.6174  0.5857 -1.7669
   42MOL0     H 5737   0.610   8.866   7.106 -0.5178 -0.8666  0.0216
   42MOL0     H 5738   0.466   8.953   7.139 -3.6565 -2.1522  0.3409
   42MOL0     H 5739   0.396   8.926   6.889  0.9336 -0.1354 -1.1375
   42MOL0     H 5740   0.539   9.010   6.914  1.7024  0.1116  3.7918
   42MOL0     H 5741   0.495   8.732   6.793 -0.3977  0.2957 -0.6631
   42MOL0     H 5742   0.641   8.754   6.896 -0.7609 -2.4124  1.0135
   42MOL0     H 5743   0.715   8.962   6.762 -1.8762  0.6336  0.6529
   42MOL0     H 5744   0.720   8.793   6.701 -0.3215 -1.6455  1.6418
   42MOL0     H 5745   0.570   8.716   6.509  0.2247 -0.9844  2.1908
   42MOL0     H 5746   0.443   8.761   6.254 -0.9967 -1.1006 -1.0215
   42MOL0     H 5747   0.341   8.908   6.252 -0.2573 -1.2319 -3.4986
   42MOL0     H 5748   0.295   8.651   6.400 -0.8165 -0.4926 -0.9719
   42MOL0     H 5749   0.200   8.807   6.437 -2.2009  0.2026 -1.1075
   42MOL0     H 5750   0.126   8.830   6.208  1.1855  0.1316  1.5598
   42MOL0     H 5751   0.243   8.724   6.143 -0.5578  1.2134 -1.2293
   42MOL0     H 5752   0.104   8.532   6.244 -0.8110 -1.3336 -0.0096
   42MOL0     H 5753   0.016   8.651   6.337 -0.2697 -0.2203 -0.3857
   42MOL0     H 5754  -0.074   8.405   6.266  1.4619  2.2245 -1.6370
   42MOL0     H 5755  -0.188   8.253   6.396 -0.1272 -0.9889  0.9170
   42MOL0     H 5756  -0.336   8.193   6.340 -0.5739 -0.3205  0.4006
   42MOL0     H 5757  -0.322   8.339   6.457  1.6487  3.3486 -2.2997
   42MOL0     H 5758  -0.809   8.386   5.915 -1.2018  1.4478 -1.1824
   42MOL0     H 5759  -1.052   8.364   5.923  1.9554 -1.2725 -0.9345
   42MOL0     H 5760  -1.226   8.588   6.216 -0.9213  0.9974  1.0395
   42MOL0     H 5761  -1.270   8.572   6.050 -2.3182  0.1567  0.6696
   42MOL0     H 5762  -1.487   8.576   6.138  2.5760  0.5509 -1.3556
   42MOL0     H 5763  -1.465   8.404   6.139 -1.1918 -0.4315  2.8970
   42MOL0     H 5764  -1.373   8.574   6.372 -1.4780  1.8375 -2.9968
   42MOL0     H 5765  -1.403   8.400   6.369  2.4101 -0.6934 -1.4757
   42MOL0     H 5766  -1.580   8.447   6.461 -1.6379 -1.5461 -0.5410
   42MOL0     H 5767  -1.635   8.431   6.301  0.4912  2.7140 -2.7945
   42MOL0     H 5768  -1.614   8.679   6.269  1.7876 -0.8709 -0.1240
   42MOL0     H 5769  -1.753   8.620   6.365  0.5038 -1.7138 -3.4856
   42MOL0     H 5770  -1.488   8.731   6.496  0.5516  4.8143 -2.8390
   42MOL0     H 5771  -1.636   8.679   6.578  4.3198  1.7831  3.4456
   42MOL0     H 5772  -1.749   8.861   6.544 -1.0085  2.6524  0.0818
   42MOL0     H 5773  -1.687   8.891   6.381 -3.3958 -1.3173  0.7135
   42MOL0     H 5774  -1.492   8.979   6.484 -1.3611 -1.3835 -1.5132
   42MOL0     H 5775  -1.520   8.935   6.647  2.0471 -0.9415 -2.3373
   42MOL0     H 5776  -1.033   8.397   6.355  0.0057 -3.9227 -0.6431
   42MOL0     H 5777  -0.797   8.432   6.339  1.8694  0.5230 -1.0195
   42MOL0     H 5778  -0.482   8.582   6.051  1.1044  1.0530 -1.5720
   42MOL0     H 5779  -0.274   8.708   6.046 -1.0733  1.4551  1.1879
   42MOL0     H 5780   0.370   8.206   7.562 -3.1755 -0.4661 -0.0354
   42MOL0     H 5781   0.331   7.952   7.493 -0.9157  0.3434 -0.2184
   42MOL0     H 5782   0.250   7.669   7.242  0.9559  1.0550 -0.1087
   42MOL0     H 5783   0.133   7.483   7.120  0.3135 -0.4858 -0.0971
   42MOL0     H 5784   0.120   7.252   7.066 -0.1683  1.2920  0.0473
   42MOL0     H 5785   0.056   7.367   6.942  0.0837  0.3513 -0.2534
   42MOL0     H 5786   0.113   7.183   6.767  0.0964 -0.6699  0.0021
   42MOL0     H 5787  -0.026   7.152   6.873 -0.0009  1.9681  0.6808
   42MOL0     H 5788   0.259   7.035   6.936  1.1084 -0.9533 -1.3707
   42MOL0     H 5789   0.099   6.993   7.016 -2.1085 -0.6655 -1.1465
   42MOL0     H 5790   0.193   6.920   6.742  1.3913 -0.7436  0.3214
   42MOL0     H 5791   0.021   6.922   6.801 -0.1659  2.3774  1.6287
   42MOL0     H 5792   0.255   6.587   6.992  0.2505 -0.6772 -1.3511
   42MOL0     H 5793   0.462   7.438   6.852 -2.0722  0.9029 -1.7652
   42MOL0     H 5794   0.702   7.597   6.987  3.6731  1.2122 -2.4182
   42MOL0     H 5795   0.624   7.602   6.838  2.5418  1.8265  0.4760
   42MOL0     H 5796   0.628   7.749   6.925  2.1141  0.1191 -0.6004
   43MOL0     O 5797   0.144   7.397   8.457 -0.0037  0.1644 -0.2408
   43MOL0     C 5798   0.097   7.371   8.345  0.2522  0.7178 -0.3184
   43MOL0     O 5799  -0.007   7.435   8.288  0.3308 -0.7610  1.4404
   43MOL0     C 5800  -0.069   7.536   8.359  0.2307  0.6765  0.4257
   43MOL0     C 5801  -0.200   7.509   8.420 -0.7912  0.5172  0.6164
   43MOL0     C 5802  -0.260   7.617   8.484  0.2239  0.7940  0.5485
   43MOL0     C 5803  -0.227   7.747   8.465  0.6854 -0.5140  0.8027
   43MOL0     O 5804  -0.289   7.855   8.525  0.0625 -0.4673 -0.3866
   43MOL0     C 5805  -0.418   7.891   8.473  0.2471  0.4043  0.4217
   43MOL0     C 5806  -0.413   8.049   8.468  0.6722  0.2735 -0.2768
   43MOL0     C 5807  -0.328   8.087   8.348  0.1825 -0.0130  0.4195
   43MOL0     C 5808  -0.361   8.224   8.300 -0.3593 -0.1766  0.7257
   43MOL0     C 5809  -0.262   8.278   8.196  0.3821  0.0336  0.8641
   43MOL0     C 5810  -0.119   8.238   8.231  0.2257 -0.1379  0.6265
   43MOL0     C 5811  -0.025   8.318   8.133  0.8540 -0.0473 -0.1728
   43MOL0     C 5812   0.119   8.264   8.126 -0.0387  0.2991 -0.5215
   43MOL0     N 5813   0.173   8.349   8.020 -0.5279  1.0147  0.5291
   43MOL0     C 5814   0.132   8.347   7.886 -0.8757 -0.1205 -0.1192
   43MOL0     C 5815   0.205   8.443   7.833 -0.0778 -0.3081  1.3323
   43MOL0     C 5816   0.224   8.469   7.695  0.2341  0.9432  0.0149
   43MOL0     C 5817   0.117   8.548   7.619  0.6175 -0.5065  0.2047
   43MOL0     C 5818   0.099   8.701   7.663  0.9245 -1.4001  0.5359
   43MOL0     C 5819   0.192   8.785   7.576  0.7752  0.0274  0.1882
   43MOL0     O 5820   0.136   8.780   7.441 -0.3408 -0.0296  0.1627
   43MOL0     C 5821   0.172   8.882   7.349 -0.0114  0.0185 -0.3371
   43MOL0     C 5822   0.249   8.996   7.373  0.5771 -0.6318  0.0336
   43MOL0     C 5823   0.266   9.087   7.268  0.6050  0.6521  0.7463
   43MOL0     C 5824   0.345   9.210   7.299  0.1144  0.0437 -0.1811
   43MOL0     C 5825   0.205   9.078   7.143 -0.0621  0.2442  0.0858
   43MOL0     C 5826   0.229   9.177   7.028  0.8748 -0.9351 -1.6046
   43MOL0     O 5827   0.178   9.137   6.906 -0.5236  0.1950  0.4338
   43MOL0     C 5828   0.169   9.229   6.810  0.3796  0.2640  1.0606
   43MOL0     C 5829   0.241   9.217   6.679  0.2278 -0.5570 -0.0280
   43MOL0     C 5830   0.215   9.312   6.574  0.9048 -0.0058 -0.3615
   43MOL0     C 5831   0.138   9.427   6.596 -0.4706 -0.5017  0.2829
   43MOL0     O 5832   0.129   9.531   6.508  0.1337  0.0978  0.3381
   43MOL0     C 5833   0.236   9.561   6.424 -0.2649 -0.1250  0.4060
   43MOL0     C 5834   0.191   9.689   6.350  1.1402  0.2826 -0.2211
   43MOL0     C 5835   0.304   9.768   6.286  0.3766  0.5782  0.5391
   43MOL0     C 5836   0.400   9.832   6.379 -0.6420 -0.6346 -0.6322
   43MOL0     C 5837   0.499   9.915   6.303  0.3477 -1.0488 -0.6037
   43MOL0     C 5838   0.594  10.007   6.389  0.2241  0.2547 -0.6863
   43MOL0     C 5839   0.697  10.064   6.288 -0.3417  0.2864  0.5712
   43MOL0     C 5840   0.757  10.197   6.321 -0.6287  0.2531  0.0490
   43MOL0    Cl 5841   0.641  10.305   6.390  0.5289  0.0910 -0.2032
   43MOL0     C 5842   0.074   9.431   6.718  0.2061 -0.6782  0.9736
   43MOL0     C 5843   0.083   9.338   6.824 -1.6398  0.1626  0.3142
   43MOL0     O 5844   0.276   9.291   7.046  0.0717 -0.4201  0.5119
   43MOL0     C 5845   0.119   8.961   7.126 -1.0563  0.5311 -0.3870
   43MOL0     C 5846   0.098   8.876   7.234 -0.2642  0.8061 -0.5873
   43MOL0     N 5847   0.284   8.509   7.920 -0.1136 -0.2860  0.0902
   43MOL0     N 5848   0.258   8.453   8.028  0.3097 -0.8474 -0.6658
   43MOL0     C 5849  -0.107   7.772   8.394  0.7773  0.3664 -1.1900
   43MOL0     C 5850  -0.019   7.667   8.360  0.1093 -0.8007  0.3647
   43MOL0     C 5851   0.158   7.266   8.262 -0.1707 -0.2022  0.6192
   43MOL0     C 5852   0.268   7.197   8.313  0.8608  0.2972  0.2600
   43MOL0     C 5853   0.332   7.096   8.247 -0.0111  0.2203  0.5354
   43MOL0     C 5854   0.284   7.062   8.122 -0.5976 -0.1818  0.0979
   43MOL0     O 5855   0.320   6.960   8.048  0.2299 -0.1360  1.6816
   43MOL0     C 5856   0.392   6.846   8.102  1.0105  0.6501 -0.5704
   43MOL0     C 5857   0.367   6.716   8.012  0.0843  0.4910 -0.2182
   43MOL0     C 5858   0.423   6.591   8.075  0.3532 -0.4902  0.5694
   43MOL0     C 5859   0.427   6.492   7.966  0.0253  1.0089 -0.0408
   43MOL0     C 5860   0.457   6.359   8.021  0.5887  0.1590 -0.1311
   43MOL0     C 5861   0.467   6.239   8.033 -0.0684 -0.3302  1.4260
   43MOL0     C 5862   0.187   7.146   8.063 -0.5612 -0.7112 -0.1721
   43MOL0     C 5863   0.122   7.245   8.129  0.1608  0.3485 -0.5739
   43MOL0     C 5864   0.005   7.300   8.054  0.1780 -0.0704 -0.4758
   43MOL0     H 5865  -0.237   7.408   8.433 -1.2535  0.4167 -1.2539
   43MOL0     H 5866  -0.347   7.588   8.541 -2.3453  1.6366 -2.6074
   43MOL0     H 5867  -0.494   7.858   8.545 -0.2159 -2.7411 -1.3362
   43MOL0     H 5868  -0.444   7.849   8.376  1.9408  1.3420 -0.4883
   43MOL0     H 5869  -0.513   8.089   8.452  0.7767  0.5823 -0.1737
   43MOL0     H 5870  -0.373   8.089   8.561 -1.0575  0.8400  0.2576
   43MOL0     H 5871  -0.225   8.070   8.382 -0.1943  0.3772  1.8188
   43MOL0     H 5872  -0.330   8.017   8.265  4.6033  0.1377 -0.0650
   43MOL0     H 5873  -0.458   8.228   8.250 -1.3476 -3.8210  2.0146
   43MOL0     H 5874  -0.347   8.290   8.386 -1.5015  1.0304  0.0142
   43MOL0     H 5875  -0.264   8.387   8.185  0.7817 -0.1269 -1.0117
   43MOL0     H 5876  -0.288   8.241   8.097 -2.9603 -0.9081  1.9589
   43MOL0     H 5877  -0.112   8.248   8.340  1.0316 -3.9086  1.0615
   43MOL0     H 5878  -0.103   8.131   8.215 -1.8061 -0.8144  2.5768
   43MOL0     H 5879  -0.012   8.423   8.162  3.0729 -0.7190  1.4816
   43MOL0     H 5880  -0.078   8.330   8.038 -0.6115  0.1037  0.6238
   43MOL0     H 5881   0.178   8.279   8.217 -2.0040 -2.4465  1.3580
   43MOL0     H 5882   0.114   8.156   8.108  0.2964 -0.0278  1.1685
   43MOL0     H 5883   0.063   8.277   7.838 -0.6779 -1.4315  1.4359
   43MOL0     H 5884   0.210   8.369   7.652  0.8458 -0.2532  2.4119
   43MOL0     H 5885   0.325   8.502   7.673  0.7727 -1.6715 -1.9537
   43MOL0     H 5886   0.138   8.547   7.512 -0.6710  0.6879 -0.0936
   43MOL0     H 5887   0.021   8.504   7.646 -0.0434  0.3038 -0.7527
   43MOL0     H 5888  -0.002   8.735   7.639  0.9501  0.5780  2.7928
   43MOL0     H 5889   0.096   8.734   7.768  2.3668  2.3853 -0.4326
   43MOL0     H 5890   0.203   8.886   7.616 -0.6842 -0.5538  2.2716
   43MOL0     H 5891   0.290   8.736   7.569 -0.4001 -2.2362 -2.2486
   43MOL0     H 5892   0.296   9.004   7.471 -1.7317  0.9089  1.0930
   43MOL0     H 5893   0.426   9.222   7.227 -1.4073 -2.3276 -2.4627
   43MOL0     H 5894   0.389   9.202   7.399  1.5218  1.0518 -0.6853
   43MOL0     H 5895   0.278   9.296   7.309 -2.1189 -1.6365  0.1833
   43MOL0     H 5896   0.308   9.132   6.665  2.8944  1.2658  0.9179
   43MOL0     H 5897   0.269   9.289   6.482 -0.4383 -1.0509 -0.9284
   43MOL0     H 5898   0.321   9.594   6.484 -2.3639  1.9349  2.5244
   43MOL0     H 5899   0.252   9.473   6.361 -2.4346 -0.7828  0.6711
   43MOL0     H 5900   0.109   9.673   6.280 -0.9225  1.2052  1.8590
   43MOL0     H 5901   0.158   9.758   6.428  3.6125 -0.6137  1.7722
   43MOL0     H 5902   0.246   9.839   6.227 -1.0513 -0.0461  1.1670
   43MOL0     H 5903   0.349   9.715   6.201 -0.5792  2.6001 -1.3418
   43MOL0     H 5904   0.458   9.755   6.431  1.4926 -0.4017 -2.5283
   43MOL0     H 5905   0.339   9.879   6.458  1.0411  0.9786 -0.2197
   43MOL0     H 5906   0.565   9.843   6.255  0.7879 -1.0073 -0.0733
   43MOL0     H 5907   0.458   9.983   6.228 -0.0631 -0.5738  0.0427
   43MOL0     H 5908   0.645   9.946   6.464  2.1488 -0.4923 -2.4917
   43MOL0     H 5909   0.547  10.079   6.456  2.8563  0.6988  0.7855
   43MOL0     H 5910   0.640  10.079   6.196 -1.0833  1.2736  1.1702
   43MOL0     H 5911   0.775   9.991   6.269 -0.9190 -0.5215  1.2090
   43MOL0     H 5912   0.807  10.252   6.241  3.9060 -1.7624  1.1908
   43MOL0     H 5913   0.838  10.182   6.393  0.3076  1.0078 -0.8276
   43MOL0     H 5914  -0.005   9.505   6.726  0.6087  0.1705 -1.6810
   43MOL0     H 5915   0.022   9.355   6.912 -0.7610  3.4575  0.4129
   43MOL0     H 5916   0.070   8.950   7.030  0.4525 -0.1251 -1.1265
   43MOL0     H 5917   0.022   8.799   7.221 -2.7329  3.2621 -1.9201
   43MOL0     H 5918  -0.065   7.872   8.391  0.0294  0.8081  1.3343
   43MOL0     H 5919   0.076   7.702   8.322 -1.1910  0.9050 -1.5526
   43MOL0     H 5920   0.312   7.234   8.405 -0.1457  2.3552 -0.0124
   43MOL0     H 5921   0.416   7.038   8.286  1.1080  0.6745 -1.0849
   43MOL0     H 5922   0.496   6.869   8.127  0.8671  0.3194  0.3533
   43MOL0     H 5923   0.357   6.815   8.200  2.6746 -5.5368 -1.4976
   43MOL0     H 5924   0.437   6.727   7.928 -1.7527 -0.4981 -1.9713
   43MOL0     H 5925   0.264   6.699   7.977  1.0192 -3.0888 -1.7341
   43MOL0     H 5926   0.526   6.597   8.111  0.9187  1.3606 -1.1387
   43MOL0     H 5927   0.360   6.552   8.155  0.6136 -0.4556  0.7946
   43MOL0     H 5928   0.504   6.521   7.894 -1.2400  1.0074 -1.4293
   43MOL0     H 5929   0.334   6.479   7.910  0.1334  0.1451 -0.0379
   43MOL0     H 5930   0.462   6.138   8.067 -0.2874 -0.5983  0.6158
   43MOL0     H 5931   0.164   7.124   7.959 -1.0712 -0.1327 -0.1863
   43MOL0     H 5932  -0.001   7.409   8.053 -1.2594 -0.0812  1.0337
   43MOL0     H 5933  -0.005   7.263   7.952 -4.7829  2.0873 -1.0544
   43MOL0     H 5934  -0.077   7.270   8.120  1.1123  1.9211  1.7490
   44MOL0     O 5935   3.306   6.538   3.779  0.0836  0.0840 -0.4808
   44MOL0     C 5936   3.425   6.526   3.757 -0.9130  0.9091 -0.0324
   44MOL0     O 5937   3.496   6.594   3.668  0.3100 -0.1246 -0.4519
   44MOL0     C 5938   3.418   6.664   3.589 -0.2552 -0.4010  0.0893
   44MOL0     C 5939   3.335   6.594   3.496 -0.0474 -0.0562  0.8002
   44MOL0     C 5940   3.250   6.666   3.403 -0.7682 -0.2523  0.1509
   44MOL0     C 5941   3.237   6.803   3.433  0.4257  0.2738  0.4447
   44MOL0     O 5942   3.177   6.886   3.343  0.0723  0.6689  0.1842
   44MOL0     C 5943   3.120   6.831   3.219  0.1466  0.5118  0.6007
   44MOL0     C 5944   3.218   6.783   3.112  0.6868  0.5764  0.1572
   44MOL0     C 5945   3.313   6.895   3.056  0.5193 -0.6149 -0.2465
   44MOL0     C 5946   3.384   6.840   2.943 -0.2631 -0.1132  0.8978
   44MOL0     C 5947   3.450   6.954   2.868  0.2505 -0.1093  0.1250
   44MOL0     C 5948   3.577   6.891   2.803 -0.2419 -0.1070  1.0100
   44MOL0     C 5949   3.629   6.970   2.688 -0.1882 -0.6720  0.1931
   44MOL0     C 5950   3.772   6.949   2.676  0.0677  0.6926  0.1750
   44MOL0     N 5951   3.856   6.978   2.797  0.0895 -0.2845  0.4822
   44MOL0     C 5952   3.946   6.887   2.848  0.8952  0.9498  0.1321
   44MOL0     C 5953   4.024   6.954   2.930 -0.7064 -0.1231 -0.1671
   44MOL0     C 5954   4.148   6.898   2.996  1.9677 -0.1740  0.5665
   44MOL0     C 5955   4.276   6.929   2.912 -0.2733  0.1093 -0.0330
   44MOL0     C 5956   4.300   7.073   2.882 -0.3157 -0.6184  0.0403
   44MOL0     C 5957   4.442   7.108   2.869 -0.7028  0.1397  0.7735
   44MOL0     O 5958   4.506   7.058   2.754 -0.7057 -0.1441  0.1300
   44MOL0     C 5959   4.641   7.055   2.754 -0.8490 -0.1585 -0.2815
   44MOL0     C 5960   4.706   6.967   2.674 -1.0470  0.9611  0.1475
   44MOL0     C 5961   4.850   6.949   2.660  0.5286  0.5048  0.0870
   44MOL0     C 5962   4.889   6.836   2.563 -0.6104  0.0224 -0.4707
   44MOL0     C 5963   4.922   7.027   2.750  0.3099 -0.3054 -0.0600
   44MOL0     C 5964   5.070   6.996   2.764  0.0922 -0.8057 -0.0458
   44MOL0     O 5965   5.164   7.090   2.762  0.5921 -0.2751 -0.0960
   44MOL0     C 5966   5.290   7.044   2.715 -0.2768 -0.1296  0.4339
   44MOL0     C 5967   5.311   6.936   2.633 -0.5964 -0.2299  0.8343
   44MOL0     C 5968   5.435   6.913   2.571  0.5924  1.0982  0.3171
   44MOL0     C 5969   5.544   6.984   2.609  0.2846 -0.0442  0.0009
   44MOL0     O 5970   5.659   6.963   2.540 -0.5480  0.7521 -0.3810
   44MOL0     C 5971   5.789   7.010   2.599  0.5152 -0.1628 -0.3241
   44MOL0     C 5972   5.895   6.913   2.547 -0.6542  0.5407 -0.2255
   44MOL0     C 5973   6.025   6.936   2.610 -0.1829 -0.7477 -0.2038
   44MOL0     C 5974   6.141   6.860   2.560 -0.3001 -0.2807  0.6724
   44MOL0     C 5975   6.131   6.714   2.504  0.2667  1.1759  0.0155
   44MOL0     C 5976   6.068   6.613   2.615  0.5987 -0.9345 -0.7633
   44MOL0     C 5977   6.026   6.475   2.563 -0.0537  0.5009 -0.1916
   44MOL0     C 5978   5.974   6.395   2.677  0.5690  0.0676  0.5976
   44MOL0    Cl 5979   5.901   6.235   2.628 -0.2540  0.2509 -0.8311
   44MOL0     C 5980   5.535   7.087   2.701 -0.4907 -0.3321  0.1289
   44MOL0     C 5981   5.399   7.116   2.750 -0.4112  0.2476 -0.4540
   44MOL0     O 5982   5.081   6.875   2.793 -0.1596 -0.0827 -0.6299
   44MOL0     C 5983   4.861   7.124   2.833  0.1923  0.6122  0.1462
   44MOL0     C 5984   4.722   7.145   2.826  0.6430  0.5389  0.6886
   44MOL0     N 5985   3.987   7.078   2.942 -0.5745  0.1848 -0.1741
   44MOL0     N 5986   3.883   7.092   2.869  0.1057 -0.3269 -0.1333
   44MOL0     C 5987   3.313   6.869   3.531 -0.5331  0.2968  0.3503
   44MOL0     C 5988   3.408   6.799   3.608  0.6766  0.0110  1.3705
   44MOL0     C 5989   3.509   6.417   3.828  1.0014 -1.1785  0.3124
   44MOL0     C 5990   3.600   6.352   3.741 -0.1869 -0.8847 -0.1897
   44MOL0     C 5991   3.674   6.243   3.788 -0.0174 -0.0299  1.1132
   44MOL0     C 5992   3.661   6.208   3.918  0.4225 -0.2654  0.1064
   44MOL0     O 5993   3.745   6.104   3.950 -0.9471  0.5512  0.3113
   44MOL0     C 5994   3.786   6.095   4.088 -0.5564  0.0572 -0.0365
   44MOL0     C 5995   3.730   5.974   4.162  0.0019  0.4938 -0.0399
   44MOL0     C 5996   3.715   6.004   4.314 -0.9317 -0.0096 -0.3242
   44MOL0     C 5997   3.854   5.988   4.390  0.6128 -1.4949 -0.5534
   44MOL0     C 5998   3.820   6.011   4.531 -0.3019 -0.2407  0.0462
   44MOL0     C 5999   3.784   6.032   4.644  0.6721  1.2746  0.3270
   44MOL0     C 6000   3.570   6.271   4.004 -1.0920 -0.3470 -0.2462
   44MOL0     C 6001   3.485   6.368   3.956  0.6737  1.0575 -0.1482
   44MOL0     C 6002   3.381   6.441   4.036 -0.7419  0.5883 -0.3610
   44MOL0     H 6003   3.352   6.488   3.482 -2.5102 -1.2197  4.8514
   44MOL0     H 6004   3.203   6.603   3.328 -2.4809  0.0006  0.9624
   44MOL0     H 6005   3.057   6.908   3.174 -3.4064 -1.6637  1.4021
   44MOL0     H 6006   3.058   6.743   3.240 -0.4488  0.3394 -1.6184
   44MOL0     H 6007   3.289   6.705   3.142  0.3528 -0.3595 -1.3725
   44MOL0     H 6008   3.161   6.755   3.022 -0.9048  2.3813  0.5213
   44MOL0     H 6009   3.260   6.987   3.031 -0.0212 -0.3307  1.7436
   44MOL0     H 6010   3.387   6.922   3.132  0.2864 -0.3839 -0.0994
   44MOL0     H 6011   3.463   6.778   2.986  2.4390  3.1318  1.0528
   44MOL0     H 6012   3.319   6.793   2.868  2.4900  0.2432 -1.9338
   44MOL0     H 6013   3.489   7.031   2.935  2.5349 -1.1724  0.1072
   44MOL0     H 6014   3.389   7.004   2.792 -0.1676 -2.3578 -1.0939
   44MOL0     H 6015   3.651   6.873   2.881  1.5972 -3.0326 -1.1914
   44MOL0     H 6016   3.539   6.792   2.777  0.6158 -0.7042  1.9928
   44MOL0     H 6017   3.611   7.078   2.693  2.5697 -0.1599  1.0881
   44MOL0     H 6018   3.582   6.929   2.599 -1.5375  1.1025  0.0236
   44MOL0     H 6019   3.797   6.848   2.644 -0.6191  1.0443 -1.6204
   44MOL0     H 6020   3.802   7.017   2.595  0.6598  0.2297  0.0031
   44MOL0     H 6021   3.940   6.783   2.817 -3.7764  1.3297 -0.9854
   44MOL0     H 6022   4.135   6.790   3.006 -0.5223  0.0590  0.4924
   44MOL0     H 6023   4.153   6.931   3.100  2.8623  0.1103  0.4425
   44MOL0     H 6024   4.361   6.877   2.958 -0.3960  0.7518  0.9628
   44MOL0     H 6025   4.274   6.886   2.812  2.2433  1.1243 -0.6059
   44MOL0     H 6026   4.241   7.096   2.793 -4.6675 -0.1373  2.6960
   44MOL0     H 6027   4.272   7.130   2.971 -0.2515 -0.7451  0.1412
   44MOL0     H 6028   4.434   7.216   2.853 -0.6648 -0.0439 -0.7148
   44MOL0     H 6029   4.497   7.090   2.961 -0.6585  1.0688  0.9359
   44MOL0     H 6030   4.635   6.899   2.627  2.0314 -1.8823 -0.7384
   44MOL0     H 6031   4.830   6.832   2.471 -0.2411 -0.1089 -0.7084
   44MOL0     H 6032   4.875   6.740   2.614 -0.7970 -0.6836 -1.7863
   44MOL0     H 6033   4.995   6.825   2.539 -0.9971 -4.4719 -1.1408
   44MOL0     H 6034   5.239   6.860   2.606  2.5896 -1.8504 -4.6147
   44MOL0     H 6035   5.439   6.836   2.495 -3.5738 -1.4527  2.2980
   44MOL0     H 6036   5.816   7.106   2.555  0.7092 -0.3346 -0.5816
   44MOL0     H 6037   5.786   7.014   2.709  4.8105 -2.3213  0.1018
   44MOL0     H 6038   5.867   6.811   2.575  1.6434  0.0613  0.5445
   44MOL0     H 6039   5.910   6.918   2.439 -1.5041  1.4589 -0.3157
   44MOL0     H 6040   6.018   6.934   2.719  1.2009  2.5039  0.0724
   44MOL0     H 6041   6.039   7.042   2.584 -4.4914 -0.3309 -1.5278
   44MOL0     H 6042   6.214   6.869   2.641  1.5180  0.1592 -0.9196
   44MOL0     H 6043   6.181   6.909   2.470 -0.6519 -4.3550 -1.9783
   44MOL0     H 6044   6.064   6.711   2.418 -1.0142 -0.7902  1.0215
   44MOL0     H 6045   6.228   6.682   2.466  0.0089  0.2822  0.1031
   44MOL0     H 6046   5.982   6.665   2.658  2.2967 -0.3093  2.1875
   44MOL0     H 6047   6.137   6.600   2.699 -0.1811 -2.9639 -0.3982
   44MOL0     H 6048   6.114   6.429   2.517  1.3327  0.6275  2.1711
   44MOL0     H 6049   5.938   6.486   2.499 -1.5196 -1.6446  1.3006
   44MOL0     H 6050   5.900   6.463   2.720  0.1700  0.1738 -0.2274
   44MOL0     H 6051   6.055   6.379   2.749  3.1953 -3.0681 -2.6951
   44MOL0     H 6052   5.617   7.151   2.732 -0.7287  1.1576 -2.0930
   44MOL0     H 6053   5.381   7.205   2.811 -1.7334  0.0312 -0.5017
   44MOL0     H 6054   4.923   7.176   2.905 -1.2382  1.0811  1.1020
   44MOL0     H 6055   4.672   7.226   2.877  1.2136  0.9824  0.5570
   44MOL0     H 6056   3.288   6.975   3.536 -0.0126  0.5427 -1.5152
   44MOL0     H 6057   3.473   6.851   3.677  2.2092  0.8348 -0.5733
   44MOL0     H 6058   3.623   6.393   3.644  1.2375  1.7303  1.1373
   44MOL0     H 6059   3.739   6.183   3.726 -0.2553 -1.0950  1.8700
   44MOL0     H 6060   3.893   6.078   4.073 -0.6546  1.4125 -3.0505
   44MOL0     H 6061   3.769   6.196   4.126 -0.2258  1.3987 -3.1390
   44MOL0     H 6062   3.784   5.883   4.134 -1.4532 -0.3279 -0.2987
   44MOL0     H 6063   3.628   5.972   4.123  0.0949 -0.5245 -0.2606
   44MOL0     H 6064   3.696   6.109   4.334  1.2638  0.2035  0.9488
   44MOL0     H 6065   3.638   5.944   4.363 -2.1686  1.5257 -0.3221
   44MOL0     H 6066   3.924   6.061   4.349 -0.4253 -0.1312  0.0541
   44MOL0     H 6067   3.901   5.889   4.387  2.5756 -0.8177  2.4212
   44MOL0     H 6068   3.753   6.055   4.744 -0.9808  1.2847 -0.1538
   44MOL0     H 6069   3.569   6.232   4.106  0.9641 -0.3524 -0.1760
   44MOL0     H 6070   3.294   6.394   3.991  1.8110 -0.8011 -4.3601
   44MOL0     H 6071   3.371   6.422   4.144 -2.2595  3.1141  0.0232
   44MOL0     H 6072   3.393   6.550   4.030  2.6746  0.4038  0.5899
   45MOL0     O 6073   2.573   5.861   6.392 -0.5886  0.8490 -0.5045
   45MOL0     C 6074   2.505   5.879   6.293  0.8312 -0.5421  0.5833
   45MOL0     O 6075   2.462   5.782   6.209  0.8669  0.6185 -0.0600
   45MOL0     C 6076   2.416   5.669   6.269  0.4619 -0.2483  0.6155
   45MOL0     C 6077   2.439   5.545   6.201 -0.2422  0.5451 -0.1218
   45MOL0     C 6078   2.391   5.416   6.253 -0.6287 -0.6808  0.2502
   45MOL0     C 6079   2.324   5.414   6.373 -0.0536  0.4578  0.7097
   45MOL0     O 6080   2.310   5.285   6.423  0.1826 -0.1851  0.4447
   45MOL0     C 6081   2.185   5.273   6.497 -0.5702 -0.1627  0.4471
   45MOL0     C 6082   2.155   5.123   6.537  0.1725 -0.0878  0.1115
   45MOL0     C 6083   2.133   5.029   6.419 -1.0412  0.3948  0.6565
   45MOL0     C 6084   2.052   4.907   6.472 -0.7566 -0.0252  0.4829
   45MOL0     C 6085   1.916   4.939   6.518 -0.1727  0.4775  0.4384
   45MOL0     C 6086   1.811   4.826   6.508  0.1547  1.0058 -0.4396
   45MOL0     C 6087   1.853   4.697   6.574  0.4511 -0.6831 -0.2389
   45MOL0     C 6088   1.737   4.601   6.611 -0.7338  0.9833  0.6388
   45MOL0     N 6089   1.780   4.467   6.657 -0.2730  0.7002  1.4080
   45MOL0     C 6090   1.705   4.356   6.633  0.5014  0.2281 -0.7113
   45MOL0     C 6091   1.756   4.265   6.721  0.5228 -0.9740 -0.0722
   45MOL0     C 6092   1.716   4.127   6.712  0.7178  0.9689 -0.1917
   45MOL0     C 6093   1.712   4.079   6.856  0.6579 -0.0473  0.0066
   45MOL0     C 6094   1.658   3.933   6.855 -1.0531 -0.0924  0.1753
   45MOL0     C 6095   1.671   3.851   6.990 -0.2474 -0.2123  0.4871
   45MOL0     O 6096   1.707   3.719   6.964 -0.6135 -0.1241 -0.0983
   45MOL0     C 6097   1.612   3.621   6.918 -0.7282  0.1787  0.4105
   45MOL0     C 6098   1.469   3.633   6.921  0.1127  0.8339  0.5010
   45MOL0     C 6099   1.389   3.535   6.867 -0.4292  0.9151 -0.5872
   45MOL0     C 6100   1.243   3.566   6.871 -0.3114  0.6306  0.1761
   45MOL0     C 6101   1.448   3.408   6.830 -0.1458  0.8257  0.6231
   45MOL0     C 6102   1.372   3.295   6.768 -0.3662  0.0845 -0.5657
   45MOL0     O 6103   1.440   3.168   6.768 -0.3376 -0.3115  0.6134
   45MOL0     C 6104   1.361   3.060   6.750  0.8329  1.2283 -0.0623
   45MOL0     C 6105   1.287   3.013   6.864 -0.2329  0.2498 -0.5180
   45MOL0     C 6106   1.217   2.893   6.855  0.1246  0.6434 -1.1361
   45MOL0     C 6107   1.218   2.815   6.736  0.1144 -0.7639 -0.2917
   45MOL0     O 6108   1.154   2.706   6.709 -0.3110  0.3006  0.9640
   45MOL0     C 6109   1.146   2.613   6.821 -0.0508  0.5547 -0.2672
   45MOL0     C 6110   1.146   2.463   6.759  0.3646 -1.0229  0.1673
   45MOL0     C 6111   1.283   2.423   6.715  0.3005  0.1676  0.6252
   45MOL0     C 6112   1.362   2.395   6.843 -0.7676 -0.9298  0.4172
   45MOL0     C 6113   1.508   2.354   6.822 -0.4189  0.0098  0.0244
   45MOL0     C 6114   1.522   2.207   6.765  0.1795 -0.3360  0.3223
   45MOL0     C 6115   1.670   2.164   6.736 -0.1261 -0.1088  1.2795
   45MOL0     C 6116   1.674   2.022   6.683 -0.4668  0.2700  0.3313
   45MOL0    Cl 6117   1.842   1.993   6.632  0.0844  0.3619  0.1805
   45MOL0     C 6118   1.279   2.865   6.624  0.0847 -0.0885 -0.7660
   45MOL0     C 6119   1.348   2.981   6.631  0.8300  0.5497  0.5385
   45MOL0     O 6120   1.252   3.306   6.726 -0.5613 -0.3635 -0.5626
   45MOL0     C 6121   1.587   3.393   6.831 -0.2730  1.0299  0.0170
   45MOL0     C 6122   1.666   3.501   6.869 -0.0800  0.6640  0.4608
   45MOL0     N 6123   1.863   4.319   6.788  0.1555 -0.9887 -0.0960
   45MOL0     N 6124   1.883   4.444   6.743 -0.4892  0.4109 -0.4870
   45MOL0     C 6125   2.318   5.532   6.450 -0.0788 -0.3779 -0.2039
   45MOL0     C 6126   2.355   5.656   6.393 -0.2528  0.1122 -0.7241
   45MOL0     C 6127   2.468   6.017   6.243 -0.9791 -0.0171 -0.1995
   45MOL0     C 6128   2.364   6.082   6.307  1.0914  0.0872 -0.2348
   45MOL0     C 6129   2.328   6.212   6.263 -0.1746 -0.2573 -0.0486
   45MOL0     C 6130   2.386   6.281   6.157  0.5470 -0.2477 -0.0640
   45MOL0     O 6131   2.359   6.409   6.114  0.2918  0.6144 -0.1763
   45MOL0     C 6132   2.272   6.494   6.195  0.0371 -1.1470  0.6643
   45MOL0     C 6133   2.129   6.508   6.142  0.4140 -1.5373  0.1778
   45MOL0     C 6134   2.117   6.557   6.001 -0.7814  0.1071  0.6637
   45MOL0     C 6135   2.145   6.444   5.907  0.2005 -0.1676 -0.7414
   45MOL0     C 6136   2.106   6.484   5.768 -1.0653 -0.2148  0.0644
   45MOL0     C 6137   2.082   6.523   5.657  0.4540 -0.8985 -0.4539
   45MOL0     C 6138   2.487   6.216   6.094 -0.2566  0.6566 -0.2006
   45MOL0     C 6139   2.535   6.086   6.137  0.8122 -0.7063 -0.9320
   45MOL0     C 6140   2.643   6.012   6.063 -0.3985 -0.1838  0.1274
   45MOL0     H 6141   2.489   5.538   6.105  0.4505 -0.9334  0.3147
   45MOL0     H 6142   2.403   5.325   6.194  0.2180 -0.3929 -0.0376
   45MOL0     H 6143   2.108   5.321   6.435 -0.7975  1.5977  1.9859
   45MOL0     H 6144   2.192   5.336   6.587 -0.4722 -2.1365  1.9072
   45MOL0     H 6145   2.242   5.083   6.590  0.6253  1.6812  0.7598
   45MOL0     H 6146   2.065   5.126   6.598  0.5447  1.6688  0.6280
   45MOL0     H 6147   2.082   5.076   6.334 -1.2648 -0.5180  0.2750
   45MOL0     H 6148   2.226   4.986   6.380 -2.5496 -0.6180 -2.1133
   45MOL0     H 6149   2.048   4.830   6.394  2.1853  0.3574 -0.1489
   45MOL0     H 6150   2.096   4.853   6.556  0.2571  1.1346  0.7242
   45MOL0     H 6151   1.879   5.014   6.448 -3.0523 -0.7742  0.4772
   45MOL0     H 6152   1.910   4.986   6.617  2.5226  4.2488 -0.9785
   45MOL0     H 6153   1.709   4.855   6.536 -1.1399 -3.5578  0.4649
   45MOL0     H 6154   1.801   4.806   6.401 -1.4036  1.4030 -0.3997
   45MOL0     H 6155   1.915   4.726   6.659 -1.4995  1.3762  0.5822
   45MOL0     H 6156   1.920   4.653   6.500 -1.7497 -2.3670 -1.3701
   45MOL0     H 6157   1.687   4.647   6.697  0.8210 -0.0712  2.1820
   45MOL0     H 6158   1.674   4.597   6.522  2.6545  1.6848 -1.9757
   45MOL0     H 6159   1.615   4.335   6.575  0.0812  1.4184 -0.5097
   45MOL0     H 6160   1.791   4.069   6.657  0.7403 -0.6915  1.4819
   45MOL0     H 6161   1.618   4.103   6.669  0.1227 -0.1065  1.6314
   45MOL0     H 6162   1.810   4.082   6.904  1.0801 -4.2641 -0.1851
   45MOL0     H 6163   1.636   4.139   6.908  0.3345  0.5650 -1.1412
   45MOL0     H 6164   1.551   3.933   6.832 -1.4900  1.3172  1.9887
   45MOL0     H 6165   1.710   3.876   6.777 -1.1653  2.0847 -1.6066
   45MOL0     H 6166   1.759   3.885   7.047  0.4529  0.6708 -1.0461
   45MOL0     H 6167   1.588   3.871   7.057  0.4434  3.5825  0.4534
   45MOL0     H 6168   1.433   3.730   6.953 -3.6832  0.3046 -1.5875
   45MOL0     H 6169   1.204   3.568   6.769  0.4339 -0.8489 -0.1630
   45MOL0     H 6170   1.240   3.664   6.920  0.2742 -0.0585  1.6431
   45MOL0     H 6171   1.192   3.496   6.938 -2.1979 -0.2110 -2.0014
   45MOL0     H 6172   1.285   3.085   6.945  0.5709 -1.0215  0.6722
   45MOL0     H 6173   1.159   2.845   6.934 -0.8991 -0.0601 -2.2757
   45MOL0     H 6174   1.239   2.618   6.878  0.0498  0.0042 -0.3754
   45MOL0     H 6175   1.057   2.631   6.882 -1.0051  1.2359 -1.7887
   45MOL0     H 6176   1.108   2.373   6.808 -0.3326 -1.5117 -1.2475
   45MOL0     H 6177   1.080   2.484   6.676  2.0745 -0.7870 -1.1948
   45MOL0     H 6178   1.321   2.504   6.652  1.0266 -1.4931 -1.1621
   45MOL0     H 6179   1.282   2.322   6.673  2.5295  1.0712 -1.8972
   45MOL0     H 6180   1.303   2.335   6.914 -1.6909 -1.6360 -0.9143
   45MOL0     H 6181   1.380   2.495   6.884  2.2180 -1.7911  1.4817
   45MOL0     H 6182   1.553   2.431   6.759 -0.0188  0.7114  1.1342
   45MOL0     H 6183   1.546   2.349   6.925  1.2031 -1.0662 -0.5773
   45MOL0     H 6184   1.471   2.217   6.668 -0.6779 -0.7471  0.7200
   45MOL0     H 6185   1.482   2.131   6.832  1.2754 -0.3691  0.9555
   45MOL0     H 6186   1.726   2.169   6.829  0.2600 -1.5343  1.1400
   45MOL0     H 6187   1.715   2.231   6.661  1.1104 -0.3243  1.8131
   45MOL0     H 6188   1.609   2.008   6.596 -0.9134  3.8900 -0.0593
   45MOL0     H 6189   1.644   1.947   6.757 -2.5081 -1.3961 -2.0223
   45MOL0     H 6190   1.276   2.808   6.532 -0.6228 -2.0474  0.4089
   45MOL0     H 6191   1.401   3.015   6.543  1.9584 -5.2676 -1.4623
   45MOL0     H 6192   1.641   3.305   6.797  0.2558  1.4024 -0.1090
   45MOL0     H 6193   1.775   3.500   6.872 -0.0906  0.5460  1.7869
   45MOL0     H 6194   2.292   5.527   6.555  4.9039  0.6183  1.3547
   45MOL0     H 6195   2.342   5.745   6.454  2.8946  0.9908 -1.1197
   45MOL0     H 6196   2.316   6.043   6.396  1.3576 -0.4214 -0.3115
   45MOL0     H 6197   2.238   6.260   6.299  0.4714 -1.4291  3.5466
   45MOL0     H 6198   2.254   6.466   6.299 -4.8109  3.1588  1.3809
   45MOL0     H 6199   2.312   6.595   6.183 -0.0283 -1.2652 -0.6065
   45MOL0     H 6200   2.060   6.575   6.195  0.5883 -1.4997  0.3603
   45MOL0     H 6201   2.079   6.412   6.158 -1.4809 -0.0800  5.0342
   45MOL0     H 6202   2.013   6.582   5.982 -1.2713 -1.6842  0.8165
   45MOL0     H 6203   2.185   6.640   5.976  1.2773 -1.0344  2.1458
   45MOL0     H 6204   2.100   6.349   5.935  0.4403 -1.3024 -3.8115
   45MOL0     H 6205   2.251   6.419   5.902  0.3528  0.6856 -2.7502
   45MOL0     H 6206   2.071   6.561   5.558  2.5359  0.9626 -0.0434
   45MOL0     H 6207   2.540   6.269   6.016  1.6659 -0.9704 -0.0835
   45MOL0     H 6208   2.726   5.977   6.125  1.5824  1.4438 -1.4561
   45MOL0     H 6209   2.589   5.933   6.010 -1.3305 -0.1521  0.9983
   45MOL0     H 6210   2.687   6.085   5.994  2.2056 -0.5353  1.3112
   46MOL0     O 6211   7.498   7.216   4.705  0.0715  0.0387  0.4062
   46MOL0     C 6212   7.474   7.313   4.779 -0.2797 -0.5634  0.6324
   46MOL0     O 6213   7.473   7.313   4.908  0.2942  0.1942  0.3715
   46MOL0     C 6214   7.480   7.195   4.978  0.5961 -0.2173  0.4085
   46MOL0     C 6215   7.531   7.204   5.106  0.3088  0.0166 -0.7415
   46MOL0     C 6216   7.541   7.089   5.186 -0.2467 -0.1131  0.0935
   46MOL0     C 6217   7.518   6.962   5.135  0.9149  1.1525  0.2969
   46MOL0     O 6218   7.547   6.847   5.197 -0.7196  0.6593  0.3443
   46MOL0     C 6219   7.435   6.771   5.248  0.2984  0.9790 -0.6346
   46MOL0     C 6220   7.441   6.753   5.400 -0.4992  0.6550  0.2720
   46MOL0     C 6221   7.364   6.862   5.470 -0.3358 -1.0611 -0.2214
   46MOL0     C 6222   7.335   6.823   5.625 -0.1268 -0.4211  0.6924
   46MOL0     C 6223   7.236   6.920   5.676  0.1914 -0.1515  0.4464
   46MOL0     C 6224   7.285   7.063   5.677 -0.0690 -0.5039  1.3731
   46MOL0     C 6225   7.251   7.134   5.811 -0.2305 -0.6909 -0.1063
   46MOL0     C 6226   7.312   7.275   5.828  0.1008 -0.2623  0.2076
   46MOL0     N 6227   7.352   7.315   5.964  0.1058  0.5376  0.4714
   46MOL0     C 6228   7.474   7.279   6.009  0.2731 -0.3647 -0.0874
   46MOL0     C 6229   7.466   7.303   6.141  0.5420 -1.1183  0.3226
   46MOL0     C 6230   7.584   7.294   6.230  0.6174 -0.0963  0.0111
   46MOL0     C 6231   7.588   7.397   6.345 -0.4751 -0.7073  0.1732
   46MOL0     C 6232   7.492   7.344   6.458  0.1043 -0.3782 -0.1228
   46MOL0     C 6233   7.489   7.442   6.573 -0.8519 -0.6606  0.0036
   46MOL0     O 6234   7.623   7.459   6.629 -0.4441  0.3061  0.7928
   46MOL0     C 6235   7.629   7.520   6.749  0.8430 -0.3060 -0.4046
   46MOL0     C 6236   7.522   7.556   6.830 -0.2164  0.9355  0.9407
   46MOL0     C 6237   7.530   7.630   6.951  0.0449 -0.1460 -0.4010
   46MOL0     C 6238   7.414   7.697   7.013 -0.6549  1.2039  0.8246
   46MOL0     C 6239   7.659   7.634   7.010 -0.2751 -0.1788 -0.0537
   46MOL0     C 6240   7.692   7.673   7.150  0.6532 -0.1258 -0.1679
   46MOL0     O 6241   7.822   7.695   7.182  0.1004 -0.2457 -0.3693
   46MOL0     C 6242   7.851   7.706   7.319 -0.0888  0.9567  0.2795
   46MOL0     C 6243   7.930   7.810   7.375  0.2724 -0.0328 -0.1417
   46MOL0     C 6244   8.000   7.795   7.500 -0.5315 -0.4577  0.1887
   46MOL0     C 6245   7.981   7.680   7.574 -0.2345 -1.2494 -0.1387
   46MOL0     O 6246   8.032   7.669   7.705 -0.5219 -0.4637  0.1384
   46MOL0     C 6247   8.177   7.672   7.713  0.7042 -0.5048 -0.3915
   46MOL0     C 6248   8.247   7.571   7.615 -0.3593 -0.7332 -0.3067
   46MOL0     C 6249   8.214   7.431   7.645 -0.6733 -0.9951 -0.4020
   46MOL0     C 6250   8.292   7.326   7.568 -0.8408  0.1446 -0.2860
   46MOL0     C 6251   8.246   7.189   7.597  0.8244  0.4272 -0.2719
   46MOL0     C 6252   8.129   7.158   7.501 -0.2999  0.1736 -0.1680
   46MOL0     C 6253   8.066   7.027   7.530 -0.2330  0.1321  0.5554
   46MOL0     C 6254   8.138   6.902   7.482 -0.9353 -1.0676 -0.0635
   46MOL0    Cl 6255   8.110   6.890   7.303 -0.6124  0.1288 -0.4144
   46MOL0     C 6256   7.890   7.582   7.533  0.8151  0.2042  1.2606
   46MOL0     C 6257   7.845   7.591   7.393 -0.5956  0.3343 -0.5094
   46MOL0     O 6258   7.600   7.666   7.234  0.2183 -0.3922  0.4160
   46MOL0     C 6259   7.766   7.614   6.927  0.3877  0.0009 -0.3375
   46MOL0     C 6260   7.754   7.565   6.790 -0.2672  0.0697 -1.0829
   46MOL0     N 6261   7.344   7.359   6.170 -0.0232 -0.2247  0.1277
   46MOL0     N 6262   7.273   7.372   6.064  0.0595  0.1070 -0.4117
   46MOL0     C 6263   7.440   6.956   5.018  0.4262  0.2445 -0.3427
   46MOL0     C 6264   7.406   7.078   4.942  0.7656 -0.7148  0.1014
   46MOL0     C 6265   7.399   7.429   4.716  0.3483  0.4465  0.4177
   46MOL0     C 6266   7.280   7.482   4.772  0.0999  0.5352 -0.9359
   46MOL0     C 6267   7.224   7.596   4.721  0.4554  0.1137  0.4855
   46MOL0     C 6268   7.269   7.662   4.604 -0.7136  1.7145  0.4008
   46MOL0     O 6269   7.190   7.759   4.563 -0.2303  0.0590  0.0002
   46MOL0     C 6270   7.231   7.830   4.444 -0.0139 -0.1005 -0.0548
   46MOL0     C 6271   7.162   7.963   4.451  0.3888 -1.3218 -0.1383
   46MOL0     C 6272   7.181   8.060   4.331 -0.0751  0.1439  0.1382
   46MOL0     C 6273   7.103   8.017   4.208  0.6731  0.1931 -1.0374
   46MOL0     C 6274   7.115   8.109   4.100  0.1746 -0.3949 -0.7128
   46MOL0     C 6275   7.139   8.171   3.998 -1.0819  0.4656 -0.1032
   46MOL0     C 6276   7.392   7.614   4.545 -0.0026  0.4596 -0.6253
   46MOL0     C 6277   7.457   7.499   4.601 -1.5245 -0.4305  0.6686
   46MOL0     C 6278   7.587   7.448   4.525  0.1926  0.0515 -0.1003
   46MOL0     H 6279   7.575   7.293   5.150  3.2503 -1.5028 -0.3849
   46MOL0     H 6280   7.592   7.094   5.282 -0.9263 -0.8910  0.5095
   46MOL0     H 6281   7.453   6.674   5.201  1.5011 -1.5954  4.3820
   46MOL0     H 6282   7.342   6.827   5.240  0.9337  2.7678  2.5025
   46MOL0     H 6283   7.394   6.657   5.421 -1.7960  1.2492  0.1727
   46MOL0     H 6284   7.535   6.752   5.455 -1.3070 -1.5388  1.7458
   46MOL0     H 6285   7.404   6.962   5.457 -3.1748  0.0916 -0.8881
   46MOL0     H 6286   7.267   6.891   5.429  1.6697  2.9059 -2.7731
   46MOL0     H 6287   7.299   6.720   5.633 -1.7448  0.1246  0.8312
   46MOL0     H 6288   7.429   6.829   5.679  1.4275  3.2280 -2.0392
   46MOL0     H 6289   7.214   6.891   5.779  1.0319 -1.5159  0.2621
   46MOL0     H 6290   7.142   6.927   5.621  0.1300  0.4672  0.6163
   46MOL0     H 6291   7.394   7.063   5.668  0.1459  0.4816  3.3626
   46MOL0     H 6292   7.227   7.113   5.599  0.4683 -0.0587  1.2507
   46MOL0     H 6293   7.269   7.072   5.900 -3.7865  1.8075  2.7054
   46MOL0     H 6294   7.143   7.151   5.824 -0.1771  0.0735 -0.6691
   46MOL0     H 6295   7.407   7.278   5.773 -0.6356  1.1620 -1.0540
   46MOL0     H 6296   7.249   7.350   5.779 -1.3807 -1.9782 -0.6313
   46MOL0     H 6297   7.556   7.235   5.953 -0.1117  2.3938 -3.1425
   46MOL0     H 6298   7.676   7.301   6.171 -0.2962 -1.9321 -1.7808
   46MOL0     H 6299   7.585   7.190   6.263  1.6480 -0.2454 -0.4446
   46MOL0     H 6300   7.691   7.414   6.379 -1.4964  2.5424  2.0140
   46MOL0     H 6301   7.553   7.491   6.302 -2.3828 -1.0162  0.9717
   46MOL0     H 6302   7.392   7.336   6.416 -1.1195  4.7292  1.0801
   46MOL0     H 6303   7.529   7.250   6.498 -0.3536 -1.4648 -2.1390
   46MOL0     H 6304   7.452   7.539   6.540  1.0080 -0.3220 -1.2219
   46MOL0     H 6305   7.415   7.401   6.642 -1.3885  2.9031  1.7547
   46MOL0     H 6306   7.421   7.537   6.796 -0.8413 -0.9853  3.5632
   46MOL0     H 6307   7.334   7.707   6.939  0.7413  1.4748 -0.6793
   46MOL0     H 6308   7.445   7.800   7.031  0.0776  0.7644  2.2682
   46MOL0     H 6309   7.371   7.640   7.096 -2.0710 -0.3063 -0.8728
   46MOL0     H 6310   7.932   7.900   7.314 -3.2055  0.1613 -0.1785
   46MOL0     H 6311   8.079   7.869   7.511  0.6580 -1.8058  0.9844
   46MOL0     H 6312   8.205   7.772   7.679  0.2343 -0.1779  0.1593
   46MOL0     H 6313   8.196   7.653   7.819 -2.0372 -2.9271 -0.2314
   46MOL0     H 6314   8.214   7.599   7.515 -3.6124 -0.7020  0.6498
   46MOL0     H 6315   8.353   7.592   7.630 -0.2328 -1.7636  0.4071
   46MOL0     H 6316   8.109   7.414   7.619 -0.4813  0.2938 -2.2219
   46MOL0     H 6317   8.233   7.418   7.752 -0.4385 -1.0773 -0.4539
   46MOL0     H 6318   8.393   7.334   7.610 -1.0191 -3.6660  1.2891
   46MOL0     H 6319   8.290   7.345   7.460 -1.5145 -2.8688 -0.9062
   46MOL0     H 6320   8.330   7.119   7.600  1.9422  1.7602  1.3668
   46MOL0     H 6321   8.206   7.171   7.697 -1.7178 -4.1697 -1.8261
   46MOL0     H 6322   8.165   7.142   7.399 -1.9457 -1.8633 -0.5185
   46MOL0     H 6323   8.055   7.238   7.492  1.8972  2.2930 -0.2279
   46MOL0     H 6324   7.965   7.019   7.489  0.1683  1.5333 -0.7529
   46MOL0     H 6325   8.053   7.019   7.639 -0.1798 -1.3104  0.4797
   46MOL0     H 6326   8.086   6.818   7.529 -4.7499  0.5215 -1.0434
   46MOL0     H 6327   8.246   6.911   7.497 -0.3515 -1.7424 -3.1232
   46MOL0     H 6328   7.874   7.501   7.602 -5.5235  0.6967  0.9583
   46MOL0     H 6329   7.779   7.510   7.364 -0.6315  0.1856 -0.0256
   46MOL0     H 6330   7.869   7.626   6.959  1.1930 -2.1222 -1.9430
   46MOL0     H 6331   7.837   7.537   6.726  0.9909  2.4625 -0.6331
   46MOL0     H 6332   7.414   6.865   4.965 -0.0077 -1.5722  2.7657
   46MOL0     H 6333   7.343   7.074   4.854 -0.8148  2.4296  0.9575
   46MOL0     H 6334   7.240   7.430   4.859 -0.7712  0.7088 -1.2254
   46MOL0     H 6335   7.132   7.636   4.761 -0.3356  1.1401 -2.1667
   46MOL0     H 6336   7.339   7.846   4.435  0.0596 -0.5738 -0.0022
   46MOL0     H 6337   7.197   7.780   4.353  0.5809 -1.1368  0.2853
   46MOL0     H 6338   7.204   8.003   4.543 -0.4194  0.4772 -0.5158
   46MOL0     H 6339   7.054   7.950   4.454 -0.2617  2.1429 -2.6144
   46MOL0     H 6340   7.150   8.162   4.353  3.5116  1.6151 -1.0392
   46MOL0     H 6341   7.287   8.044   4.312  0.3794  0.6708  1.9603
   46MOL0     H 6342   6.997   8.019   4.233  1.0858  4.2575  1.1317
   46MOL0     H 6343   7.135   7.919   4.170  0.1596  0.3299 -1.8434
   46MOL0     H 6344   7.172   8.225   3.912  1.7543  3.8773  2.8054
   46MOL0     H 6345   7.432   7.664   4.457 -1.5235  0.2773 -1.4521
   46MOL0     H 6346   7.648   7.537   4.511  4.9673 -2.7248  0.7415
   46MOL0     H 6347   7.648   7.371   4.574 -0.2323 -0.9110 -1.0311
   46MOL0     H 6348   7.556   7.417   4.425 -1.0900  2.7419 -0.6239
   47MOL0     O 6349   8.407   9.228   8.364  0.1744  0.3048 -0.3253
   47MOL0     C 6350   8.451   9.185   8.467  0.3717 -0.0813  0.6134
   47MOL0     O 6351   8.385   9.176   8.585 -0.5105 -1.1311 -0.8139
   47MOL0     C 6352   8.274   9.256   8.613  0.4570  0.1734 -0.3051
   47MOL0     C 6353   8.203   9.351   8.529 -1.2591 -1.1345  0.0576
   47MOL0     C 6354   8.108   9.446   8.587 -0.4021  0.1105  0.3332
   47MOL0     C 6355   8.066   9.429   8.722 -0.5345  0.4091  0.1340
   47MOL0     O 6356   7.967   9.506   8.767  0.3083 -0.2746  0.0074
   47MOL0     C 6357   7.861   9.553   8.686  0.1728  0.3455  0.2730
   47MOL0     C 6358   7.781   9.438   8.621 -0.2384  0.3398  0.0983
   47MOL0     C 6359   7.684   9.501   8.517  0.5133 -0.8966  0.4790
   47MOL0     C 6360   7.587   9.389   8.460 -0.1855  0.0307 -0.1452
   47MOL0     C 6361   7.458   9.434   8.387  0.3968  0.2158 -0.1286
   47MOL0     C 6362   7.474   9.530   8.271 -0.8858 -0.7101  0.5562
   47MOL0     C 6363   7.571   9.503   8.164  0.2675  0.6891  0.5604
   47MOL0     C 6364   7.527   9.371   8.090 -1.3251 -0.2796 -0.3003
   47MOL0     N 6365   7.630   9.318   7.997  1.0902  0.5819  0.5911
   47MOL0     C 6366   7.725   9.397   7.949 -0.4148  0.1605  0.2964
   47MOL0     C 6367   7.797   9.317   7.865  1.5498  0.7414 -0.4715
   47MOL0     C 6368   7.932   9.340   7.801  0.1131  0.2641  0.8781
   47MOL0     C 6369   7.957   9.477   7.738  0.1782 -0.0256 -0.2930
   47MOL0     C 6370   7.919   9.489   7.590 -0.5839 -0.9096 -0.6904
   47MOL0     C 6371   7.958   9.628   7.540 -1.0751 -0.1213  0.2990
   47MOL0     O 6372   7.917   9.637   7.397  0.0690  0.3054 -0.0734
   47MOL0     C 6373   7.824   9.734   7.376 -0.0202 -0.2465  0.5350
   47MOL0     C 6374   7.877   9.858   7.343  0.5855 -0.1197  0.3167
   47MOL0     C 6375   7.798   9.967   7.323 -0.2321  1.2425 -0.3732
   47MOL0     C 6376   7.868  10.097   7.308 -0.6342  0.8366 -0.1308
   47MOL0     C 6377   7.659   9.958   7.329 -0.0935  0.2421  0.2134
   47MOL0     C 6378   7.563  10.064   7.297 -0.4409 -0.8096 -0.3114
   47MOL0     O 6379   7.440  10.066   7.350  0.1321 -0.2751  0.0282
   47MOL0     C 6380   7.358  10.172   7.332  0.3907 -1.1181  0.4695
   47MOL0     C 6381   7.234  10.151   7.264 -0.3430 -1.1696 -0.5872
   47MOL0     C 6382   7.137  10.257   7.243 -0.0861  0.5647 -0.3713
   47MOL0     C 6383   7.167  10.378   7.307  0.6821  0.3873  0.1647
   47MOL0     O 6384   7.094  10.494   7.296 -0.2929  0.3559 -0.1221
   47MOL0     C 6385   6.954  10.489   7.259  0.4300  0.5770 -0.1951
   47MOL0     C 6386   6.888  10.624   7.275  0.2221 -0.2576  0.0015
   47MOL0     C 6387   6.933  10.722   7.384 -0.1803  0.0043 -0.5736
   47MOL0     C 6388   7.036  10.816   7.335  0.2700  0.3138  0.3346
   47MOL0     C 6389   7.124  10.869   7.455  0.1630  0.1150 -0.4346
   47MOL0     C 6390   7.048  10.936   7.559  0.4139  0.2561 -0.7826
   47MOL0     C 6391   6.960  11.063   7.522 -0.0919 -1.0107  0.3486
   47MOL0     C 6392   6.908  11.151   7.635 -1.9386  0.2224  0.0113
   47MOL0    Cl 6393   6.787  11.062   7.737  0.3814 -0.0972 -0.5746
   47MOL0     C 6394   7.287  10.397   7.368 -0.0174 -0.4011  0.2607
   47MOL0     C 6395   7.384  10.303   7.380  0.6978  0.4820 -0.1371
   47MOL0     O 6396   7.598  10.147   7.209  0.4349 -0.5113 -0.1212
   47MOL0     C 6397   7.607   9.829   7.371  0.4171 -0.2082 -0.1422
   47MOL0     C 6398   7.682   9.721   7.392  0.3323  0.3013 -0.9714
   47MOL0     N 6399   7.731   9.188   7.884  1.6344 -0.0077  0.7563
   47MOL0     N 6400   7.637   9.186   7.966 -0.2932 -0.2790 -0.4483
   47MOL0     C 6401   8.126   9.319   8.792  0.7500 -0.8912 -0.3105
   47MOL0     C 6402   8.226   9.237   8.742  0.2721  0.2602 -0.0095
   47MOL0     C 6403   8.591   9.119   8.471 -0.4628  0.3894 -0.0984
   47MOL0     C 6404   8.681   9.166   8.368 -1.3087  0.7036  0.1425
   47MOL0     C 6405   8.805   9.104   8.364  0.4589 -0.1018  0.3942
   47MOL0     C 6406   8.849   9.005   8.456 -1.1691  0.1079 -0.6787
   47MOL0     O 6407   8.979   8.959   8.452 -0.0544  0.8341  0.1445
   47MOL0     C 6408   8.990   8.842   8.373 -1.0055  0.0725  0.4446
   47MOL0     C 6409   9.115   8.849   8.287 -0.6916  0.2226  0.1156
   47MOL0     C 6410   9.099   8.975   8.205 -0.1598 -0.6367  0.0328
   47MOL0     C 6411   9.194   8.963   8.078 -0.5096 -0.3226 -0.8418
   47MOL0     C 6412   9.332   8.931   8.114  0.2787  0.2139  1.0325
   47MOL0     C 6413   9.441   8.896   8.143 -0.0818  0.3264  0.5736
   47MOL0     C 6414   8.759   8.975   8.559  0.0437 -0.2392 -1.0743
   47MOL0     C 6415   8.630   9.029   8.567 -0.2964 -0.0104  0.9181
   47MOL0     C 6416   8.547   8.988   8.689 -0.3609 -0.4437 -0.4320
   47MOL0     H 6417   8.221   9.372   8.424  1.8701  0.8458  0.8462
   47MOL0     H 6418   8.075   9.522   8.518 -0.8031  0.5308  0.9764
   47MOL0     H 6419   7.908   9.607   8.603 -1.3579 -1.0612 -1.6196
   47MOL0     H 6420   7.806   9.627   8.745  0.7815  0.5442  0.5892
   47MOL0     H 6421   7.844   9.369   8.563 -0.5775  1.9590 -2.3551
   47MOL0     H 6422   7.721   9.383   8.693 -1.8905  4.5088  2.2186
   47MOL0     H 6423   7.627   9.588   8.552 -0.2706 -1.0958 -0.2767
   47MOL0     H 6424   7.744   9.545   8.437 -1.8133 -0.5389 -1.1506
   47MOL0     H 6425   7.652   9.329   8.395 -0.3473  1.3286 -1.5494
   47MOL0     H 6426   7.565   9.334   8.552  2.0542 -1.6363 -0.5111
   47MOL0     H 6427   7.371   9.467   8.444 -1.1225 -0.1378 -2.1626
   47MOL0     H 6428   7.414   9.345   8.341  0.8574  0.5741 -1.2841
   47MOL0     H 6429   7.381   9.553   8.219 -1.3471 -1.1674  1.1662
   47MOL0     H 6430   7.511   9.625   8.312 -2.4170  0.3216 -0.3333
   47MOL0     H 6431   7.671   9.486   8.206  0.1587  1.1259  1.0007
   47MOL0     H 6432   7.584   9.587   8.094  0.4007  0.1202 -0.1188
   47MOL0     H 6433   7.500   9.296   8.165 -3.5201  1.6085  0.9654
   47MOL0     H 6434   7.434   9.374   8.032  0.8427  1.1820 -4.0808
   47MOL0     H 6435   7.732   9.504   7.967 -0.7752  0.0939  0.8434
   47MOL0     H 6436   7.956   9.264   7.726  2.5389 -0.1589  1.9636
   47MOL0     H 6437   8.001   9.321   7.884 -2.1245  1.1565  3.0408
   47MOL0     H 6438   7.912   9.561   7.792 -0.2728  0.7238 -1.7803
   47MOL0     H 6439   8.064   9.482   7.759  0.5626 -3.9885 -0.5057
   47MOL0     H 6440   7.950   9.411   7.520  2.6862  0.3560 -0.8454
   47MOL0     H 6441   7.810   9.498   7.585 -0.4287  1.5270 -1.1347
   47MOL0     H 6442   7.911   9.709   7.596  0.1740  0.0430  1.1300
   47MOL0     H 6443   8.066   9.642   7.540 -0.8282 -1.8170  0.2341
   47MOL0     H 6444   7.985   9.874   7.344  0.9150 -2.0371  2.2529
   47MOL0     H 6445   7.976  10.094   7.324  0.2706 -2.2529 -4.8174
   47MOL0     H 6446   7.814  10.173   7.366 -0.1939  2.8839 -2.2292
   47MOL0     H 6447   7.856  10.121   7.202 -1.3996 -4.9520 -1.6957
   47MOL0     H 6448   7.212  10.053   7.222 -0.0848 -1.4779 -0.0265
   47MOL0     H 6449   7.048  10.245   7.182 -0.7896 -0.3710  0.8032
   47MOL0     H 6450   6.941  10.460   7.154 -0.1696  4.1579 -1.2476
   47MOL0     H 6451   6.900  10.425   7.330  1.3872 -1.3901 -1.1702
   47MOL0     H 6452   6.880  10.674   7.178 -1.0137 -2.3324 -1.0514
   47MOL0     H 6453   6.787  10.597   7.309  1.1368 -1.0446  2.3113
   47MOL0     H 6454   6.979  10.661   7.462 -0.3716 -0.4386 -0.8010
   47MOL0     H 6455   6.848  10.781   7.421 -3.0905 -2.8012 -2.1921
   47MOL0     H 6456   6.994  10.906   7.290 -0.2558 -0.0955 -0.0057
   47MOL0     H 6457   7.085  10.770   7.249 -0.4474 -0.7826  0.4914
   47MOL0     H 6458   7.177  10.781   7.493 -1.0842 -0.1057  0.8843
   47MOL0     H 6459   7.204  10.939   7.427  0.7265 -0.1802  0.3759
   47MOL0     H 6460   7.115  10.973   7.637 -1.3952  2.2965 -0.0846
   47MOL0     H 6461   6.972  10.869   7.601 -1.0181  2.2951  0.0416
   47MOL0     H 6462   6.873  11.044   7.457 -0.1684 -2.2016  0.7659
   47MOL0     H 6463   7.038  11.121   7.472  0.5134 -1.0567  1.2363
   47MOL0     H 6464   6.867  11.243   7.592  0.4470 -0.0006 -3.1342
   47MOL0     H 6465   6.994  11.184   7.693 -1.8672  0.1766 -0.0671
   47MOL0     H 6466   7.299  10.501   7.396 -0.3444 -0.0510 -0.8371
   47MOL0     H 6467   7.479  10.320   7.429  0.8340  0.5372 -0.4138
   47MOL0     H 6468   7.500   9.824   7.388  0.5286  0.9340  1.1043
   47MOL0     H 6469   7.647   9.625   7.429  4.1251  0.1024  2.8182
   47MOL0     H 6470   8.084   9.289   8.888  1.4947  1.2736  0.7571
   47MOL0     H 6471   8.270   9.164   8.810  2.7126  1.1995 -0.4630
   47MOL0     H 6472   8.646   9.246   8.305 -1.8938  0.3602  0.0196
   47MOL0     H 6473   8.879   9.137   8.292 -0.1511 -1.3472 -0.8683
   47MOL0     H 6474   8.984   8.747   8.428  2.9268  0.4585  1.8594
   47MOL0     H 6475   8.911   8.827   8.300  1.3565 -1.1774 -2.0353
   47MOL0     H 6476   9.128   8.761   8.223  2.7592 -1.3601  2.6157
   47MOL0     H 6477   9.207   8.838   8.347 -2.3057  1.2104  2.9729
   47MOL0     H 6478   8.996   8.989   8.171  0.7989  2.0662 -2.1639
   47MOL0     H 6479   9.117   9.063   8.268 -0.9177 -1.0349  0.8233
   47MOL0     H 6480   9.207   9.055   8.021  0.9296 -0.6240 -1.0398
   47MOL0     H 6481   9.142   8.903   8.003 -2.3522  1.6027 -1.2100
   47MOL0     H 6482   9.524   8.846   8.188 -0.6526 -2.8675 -1.5983
   47MOL0     H 6483   8.778   8.903   8.638 -4.1792  0.0819  0.5075
   47MOL0     H 6484   8.563   9.058   8.772 -0.5249 -1.0637  0.1281
   47MOL0     H 6485   8.442   8.971   8.664  0.1026 -3.0030 -0.8201
   47MOL0     H 6486   8.579   8.894   8.734  0.3053 -0.4674 -0.9411
   48MOL0     O 6487  11.048   9.051   4.922  0.6519  0.3721  0.3998
   48MOL0     C 6488  11.136   9.111   4.862 -0.1338  0.9292  0.3494
   48MOL0     O 6489  11.238   9.170   4.921  0.5475  0.0240 -0.2256
   48MOL0     C 6490  11.241   9.176   5.056  0.5912  0.7415  0.5788
   48MOL0     C 6491  11.137   9.203   5.148 -0.2065 -0.1768  0.5471
   48MOL0     C 6492  11.168   9.204   5.292 -0.1367 -1.3807  1.8201
   48MOL0     C 6493  11.285   9.162   5.341 -0.0694  0.2906 -0.7443
   48MOL0     O 6494  11.297   9.182   5.481  0.6295 -0.2133 -0.1057
   48MOL0     C 6495  11.421   9.170   5.557  0.2507 -0.1094 -0.0941
   48MOL0     C 6496  11.482   9.311   5.565 -0.3898  0.2903 -0.3057
   48MOL0     C 6497  11.527   9.376   5.430  0.2059 -0.3706 -0.7669
   48MOL0     C 6498  11.576   9.521   5.453  0.2042  0.0726  0.5839
   48MOL0     C 6499  11.648   9.597   5.346  0.9810 -0.6714  0.2844
   48MOL0     C 6500  11.757   9.525   5.266  0.3021 -0.5488 -0.9941
   48MOL0     C 6501  11.829   9.634   5.179 -0.8462 -0.1748  0.9088
   48MOL0     C 6502  11.898   9.595   5.038 -0.1089  0.0305 -0.7976
   48MOL0     N 6503  12.030   9.532   5.055 -0.1301 -0.2719  0.3557
   48MOL0     C 6504  12.151   9.590   5.120  0.6131  1.3354  0.3175
   48MOL0     C 6505  12.245   9.498   5.084 -0.1007 -0.4020  0.0291
   48MOL0     C 6506  12.385   9.515   5.130 -0.5641 -0.7269  1.2100
   48MOL0     C 6507  12.417   9.458   5.269 -0.6073 -0.2053 -0.3285
   48MOL0     C 6508  12.348   9.514   5.395  1.2553  0.2175 -0.7607
   48MOL0     C 6509  12.429   9.468   5.522  0.0002  0.1181 -0.4769
   48MOL0     O 6510  12.542   9.553   5.530 -0.3381 -0.1146  0.7621
   48MOL0     C 6511  12.533   9.675   5.598  0.2873  0.8288  0.2247
   48MOL0     C 6512  12.414   9.735   5.654  0.0614  0.6019 -0.1805
   48MOL0     C 6513  12.415   9.841   5.744  0.8969  0.4877 -0.0591
   48MOL0     C 6514  12.288   9.908   5.807 -0.1299 -0.0080  0.4358
   48MOL0     C 6515  12.543   9.898   5.771 -0.2414  0.2133 -0.4871
   48MOL0     C 6516  12.569   9.988   5.888 -1.0777  0.2426 -0.1990
   48MOL0     O 6517  12.667  10.087   5.877 -0.1628 -0.1913  0.0029
   48MOL0     C 6518  12.694  10.173   5.978  0.8172 -1.2444 -0.0765
   48MOL0     C 6519  12.601  10.262   6.014  0.4904  0.0177 -0.9759
   48MOL0     C 6520  12.625  10.354   6.122 -0.2156  0.5688  0.3042
   48MOL0     C 6521  12.752  10.351   6.195 -0.2279  0.9634  0.2431
   48MOL0     O 6522  12.802  10.428   6.296 -0.4409  0.4111 -0.5747
   48MOL0     C 6523  12.723  10.537   6.348 -0.1520  0.6008  0.5645
   48MOL0     C 6524  12.811  10.611   6.434 -0.6160 -0.0663 -0.0819
   48MOL0     C 6525  12.754  10.752   6.468  0.2008  0.8376  1.0272
   48MOL0     C 6526  12.847  10.824   6.560 -0.5123 -0.2787 -0.3413
   48MOL0     C 6527  12.785  10.960   6.602 -0.1585 -0.8402 -0.4505
   48MOL0     C 6528  12.873  11.050   6.697  1.0108 -0.0818 -0.9915
   48MOL0     C 6529  12.997  11.111   6.635  0.5561 -0.3474 -0.5253
   48MOL0     C 6530  13.060  11.231   6.700 -0.2493 -0.0487 -0.5872
   48MOL0    Cl 6531  13.120  11.345   6.566 -0.1540 -0.1589 -0.3488
   48MOL0     C 6532  12.847  10.266   6.144  0.7031  0.1464  0.3194
   48MOL0     C 6533  12.821  10.180   6.032  0.0712 -0.0072 -0.8833
   48MOL0     O 6534  12.509   9.971   5.995 -0.8461  0.4085 -0.6480
   48MOL0     C 6535  12.664   9.852   5.701  0.1157 -0.9308  0.1385
   48MOL0     C 6536  12.646   9.740   5.625  0.2160 -0.4765 -1.0359
   48MOL0     N 6537  12.197   9.398   5.000 -0.6549 -0.1536 -0.7766
   48MOL0     N 6538  12.067   9.415   4.991  0.2837  0.3260 -0.5339
   48MOL0     C 6539  11.392   9.139   5.250  1.0283 -0.5972  0.3675
   48MOL0     C 6540  11.363   9.149   5.114  0.0630  0.0474  0.5010
   48MOL0     C 6541  11.141   9.089   4.716  0.0475 -0.1259  0.3767
   48MOL0     C 6542  11.250   9.145   4.648 -0.7932  0.5751  0.5633
   48MOL0     C 6543  11.275   9.125   4.505  0.7048 -0.1957 -0.3424
   48MOL0     C 6544  11.181   9.064   4.421  0.3689  0.1662 -1.1012
   48MOL0     O 6545  11.211   9.040   4.288  0.3155  0.1059 -0.3408
   48MOL0     C 6546  11.260   8.910   4.243  0.8305  0.4033 -0.3103
   48MOL0     C 6547  11.213   8.872   4.097 -0.4757  0.2360 -0.7110
   48MOL0     C 6548  11.054   8.872   4.074 -0.2917 -0.1568  0.8032
   48MOL0     C 6549  10.976   8.753   4.143  0.3629 -0.7101  0.4518
   48MOL0     C 6550  11.027   8.615   4.121  0.4073  0.4781 -0.2220
   48MOL0     C 6551  11.048   8.500   4.097 -0.3627  0.5658 -0.1290
   48MOL0     C 6552  11.063   9.017   4.489  1.0209 -0.9270 -0.2245
   48MOL0     C 6553  11.039   9.029   4.633  1.2839 -0.0932  1.1670
   48MOL0     C 6554  10.907   8.967   4.685  0.1389 -0.6812  0.2303
   48MOL0     H 6555  11.039   9.233   5.113  0.8101  2.7960 -0.0183
   48MOL0     H 6556  11.102   9.240   5.371 -0.9794 -1.1485  1.0280
   48MOL0     H 6557  11.495   9.107   5.507  0.0446 -2.2850  2.1406
   48MOL0     H 6558  11.401   9.128   5.656 -3.8934  1.0656 -0.2536
   48MOL0     H 6559  11.399   9.366   5.611 -1.5018 -2.1162  0.7365
   48MOL0     H 6560  11.565   9.308   5.636 -2.5889  3.0802  2.7301
   48MOL0     H 6561  11.607   9.310   5.393  1.7905 -0.2946  2.2352
   48MOL0     H 6562  11.440   9.379   5.363 -0.1525 -0.5540 -0.3162
   48MOL0     H 6563  11.490   9.581   5.486 -1.0128 -0.8466 -0.7606
   48MOL0     H 6564  11.649   9.528   5.534  0.6568 -1.4298  0.3475
   48MOL0     H 6565  11.686   9.690   5.389 -2.5522  1.5041 -0.8161
   48MOL0     H 6566  11.566   9.617   5.276 -0.0614 -0.6641  1.4799
   48MOL0     H 6567  11.832   9.484   5.334  1.1937  1.2952 -0.8051
   48MOL0     H 6568  11.706   9.445   5.210 -2.6939  0.0219  0.6811
   48MOL0     H 6569  11.905   9.675   5.245  1.1178 -1.9516 -0.1397
   48MOL0     H 6570  11.762   9.716   5.152  0.6330  0.7369 -0.1517
   48MOL0     H 6571  11.831   9.527   4.985 -1.0047 -1.1072  1.6733
   48MOL0     H 6572  11.909   9.686   4.977 -2.6830 -0.9774 -2.9738
   48MOL0     H 6573  12.155   9.682   5.177 -1.8884  0.8759  1.3659
   48MOL0     H 6574  12.409   9.621   5.125  0.6589 -1.0037  0.8120
   48MOL0     H 6575  12.447   9.464   5.056 -0.4788  4.5263 -2.8684
   48MOL0     H 6576  12.417   9.349   5.267 -0.5649 -0.3235  2.4173
   48MOL0     H 6577  12.522   9.487   5.275  0.1507 -3.0183  3.5667
   48MOL0     H 6578  12.349   9.623   5.401  0.6990  0.1528  0.9522
   48MOL0     H 6579  12.242   9.487   5.405  0.8312  1.1225 -2.4871
   48MOL0     H 6580  12.375   9.478   5.617 -0.1027  0.8418 -0.6035
   48MOL0     H 6581  12.457   9.362   5.518  1.9889  0.6415 -3.2576
   48MOL0     H 6582  12.318   9.691   5.629 -0.1578  0.9762  0.0013
   48MOL0     H 6583  12.232   9.961   5.730 -0.5727  0.7218  1.2429
   48MOL0     H 6584  12.314   9.982   5.884  1.1515 -0.5166  0.5220
   48MOL0     H 6585  12.224   9.835   5.856 -0.0292 -0.1641  0.3326
   48MOL0     H 6586  12.505  10.279   5.968  0.1665  0.8681 -0.0173
   48MOL0     H 6587  12.550  10.426   6.153 -1.1920 -0.1641 -0.2697
   48MOL0     H 6588  12.673  10.593   6.268  0.9633 -0.2325 -0.7631
   48MOL0     H 6589  12.637  10.501   6.407 -0.4691  1.8026  0.8598
   48MOL0     H 6590  12.829  10.554   6.525 -2.0804 -2.2304 -1.0470
   48MOL0     H 6591  12.902  10.631   6.377 -0.6996 -3.1346 -1.5184
   48MOL0     H 6592  12.653  10.734   6.506  0.0812  0.8069  0.7002
   48MOL0     H 6593  12.740  10.812   6.377  1.2324 -0.4976 -0.0392
   48MOL0     H 6594  12.944  10.836   6.511 -0.6151 -1.2016 -0.7867
   48MOL0     H 6595  12.873  10.763   6.647 -0.9670  1.3851  1.0133
   48MOL0     H 6596  12.763  11.022   6.514  2.2105 -1.5025 -1.5967
   48MOL0     H 6597  12.687  10.953   6.650  0.3336  2.2223  1.2245
   48MOL0     H 6598  12.903  10.992   6.785 -3.4859  0.4800  1.2488
   48MOL0     H 6599  12.812  11.127   6.747  0.0021 -0.5572 -1.4596
   48MOL0     H 6600  12.957  11.153   6.542  2.8397  1.9210 -0.5791
   48MOL0     H 6601  13.064  11.027   6.620  3.0510  1.8115 -2.3036
   48MOL0     H 6602  13.142  11.203   6.767 -1.5466 -1.6328  0.3910
   48MOL0     H 6603  12.982  11.289   6.751 -2.0350 -2.1750 -0.7721
   48MOL0     H 6604  12.938  10.268   6.203 -0.3216 -2.8703  2.2150
   48MOL0     H 6605  12.886  10.095   6.013 -1.7308 -3.0015  4.3794
   48MOL0     H 6606  12.760   9.896   5.723 -0.3262  0.8051 -1.1481
   48MOL0     H 6607  12.741   9.693   5.601 -0.0329 -2.0692  0.8236
   48MOL0     H 6608  11.487   9.105   5.290 -0.8331 -3.8757  2.4343
   48MOL0     H 6609  11.456   9.131   5.061  1.2615  0.6902  2.2848
   48MOL0     H 6610  11.328   9.207   4.691  2.4221 -1.5160 -1.7812
   48MOL0     H 6611  11.359   9.163   4.446 -0.3946  1.5567 -0.8490
   48MOL0     H 6612  11.369   8.903   4.248  0.9924 -1.0506 -3.4279
   48MOL0     H 6613  11.225   8.832   4.312 -0.5935 -0.4440 -1.9134
   48MOL0     H 6614  11.258   8.778   4.065  0.1815  1.3203 -3.1449
   48MOL0     H 6615  11.267   8.945   4.037  3.5425 -0.7596  1.3584
   48MOL0     H 6616  11.012   8.970   4.099  1.5278  0.4965  1.4718
   48MOL0     H 6617  11.022   8.877   3.970 -0.9983 -0.3602  1.0026
   48MOL0     H 6618  10.871   8.755   4.112  0.5610 -1.1152 -0.2830
   48MOL0     H 6619  10.978   8.776   4.250 -1.5285  1.9087  0.0231
   48MOL0     H 6620  11.062   8.396   4.080 -4.3424 -0.0074 -0.8761
   48MOL0     H 6621  10.987   8.970   4.427 -1.6296  1.2131  1.1903
   48MOL0     H 6622  10.931   8.865   4.717 -0.1525 -1.2172 -1.2205
   48MOL0     H 6623  10.865   9.023   4.769 -3.0029  0.1531 -1.7440
   48MOL0     H 6624  10.826   8.971   4.612  1.7738  0.4593 -1.6174
   49MOL0     O 6625   0.764  10.829   7.969 -0.6985  0.0629  0.1939
   49MOL0     C 6626   0.700  10.784   7.878 -0.5953  0.1777 -0.6907
   49MOL0     O 6627   0.621  10.855   7.797 -0.0888 -0.3132  0.5500
   49MOL0     C 6628   0.656  10.992   7.800 -0.6287  1.1818  0.2057
   49MOL0     C 6629   0.777  11.025   7.753 -0.0802 -1.5574 -0.5458
   49MOL0     C 6630   0.801  11.164   7.722  1.8152 -0.4884  0.2500
   49MOL0     C 6631   0.699  11.259   7.737  1.1197  0.2733  0.3523
   49MOL0     O 6632   0.724  11.388   7.690  0.2434  0.2205 -1.0446
   49MOL0     C 6633   0.626  11.459   7.612  0.6597 -0.4129 -1.1990
   49MOL0     C 6634   0.680  11.530   7.485 -0.3607 -0.5240 -0.0180
   49MOL0     C 6635   0.826  11.583   7.511  0.0225  0.3992  0.0533
   49MOL0     C 6636   0.891  11.656   7.392  0.2672  0.0460 -0.3044
   49MOL0     C 6637   1.042  11.694   7.419  0.5316 -0.5858 -0.5697
   49MOL0     C 6638   1.148  11.578   7.398  0.0850  0.2121 -0.6575
   49MOL0     C 6639   1.288  11.622   7.447 -0.1580 -0.3243  0.9726
   49MOL0     C 6640   1.361  11.677   7.318  1.0971  0.5913 -0.0112
   49MOL0     N 6641   1.505  11.700   7.328  0.4173 -0.3335 -0.3564
   49MOL0     C 6642   1.608  11.607   7.330 -0.4945  0.0895 -0.3031
   49MOL0     C 6643   1.723  11.674   7.358  0.7285  0.4061 -0.9676
   49MOL0     C 6644   1.852  11.612   7.402 -0.0220 -0.4932 -0.1500
   49MOL0     C 6645   1.961  11.566   7.296  1.0874 -0.0292 -0.7741
   49MOL0     C 6646   2.011  11.679   7.211 -0.0842 -0.0112  0.4836
   49MOL0     C 6647   2.113  11.646   7.106 -0.8275  0.4390 -0.6044
   49MOL0     O 6648   2.152  11.753   7.025 -0.2461  0.2233 -0.4360
   49MOL0     C 6649   2.281  11.750   6.964 -0.4114  0.0000 -0.5979
   49MOL0     C 6650   2.351  11.869   6.938 -0.5420 -0.2678 -0.6206
   49MOL0     C 6651   2.487  11.871   6.889  0.2144  0.8698 -0.2889
   49MOL0     C 6652   2.559  12.004   6.895 -0.5472  0.1330 -0.2736
   49MOL0     C 6653   2.551  11.749   6.857 -0.4050  0.6574 -0.3713
   49MOL0     C 6654   2.689  11.731   6.801 -0.2831  0.4489 -0.4938
   49MOL0     O 6655   2.728  11.614   6.744  0.8312  0.0394 -0.1151
   49MOL0     C 6656   2.843  11.613   6.669 -0.1139  0.5331  0.5569
   49MOL0     C 6657   2.897  11.716   6.589  0.1444  1.0534 -0.9393
   49MOL0     C 6658   3.015  11.708   6.528  0.2834  0.7281  0.1376
   49MOL0     C 6659   3.097  11.599   6.546 -0.4860  0.5771 -0.3667
   49MOL0     O 6660   3.209  11.599   6.467  0.5074  0.1266 -0.3751
   49MOL0     C 6661   3.297  11.486   6.460  0.2492  0.5012 -0.6461
   49MOL0     C 6662   3.440  11.527   6.419  0.6530 -0.8971 -0.8536
   49MOL0     C 6663   3.463  11.557   6.265  0.7036 -0.5530  0.5189
   49MOL0     C 6664   3.608  11.562   6.234 -0.7708  0.8487 -0.3521
   49MOL0     C 6665   3.625  11.640   6.096 -0.2365 -0.9168 -0.2528
   49MOL0     C 6666   3.750  11.595   6.028 -0.4227 -0.0153  0.4255
   49MOL0     C 6667   3.784  11.675   5.902 -0.3508 -0.3293 -0.7668
   49MOL0     C 6668   3.903  11.633   5.818 -0.4140  1.4707 -0.0875
   49MOL0    Cl 6669   3.942  11.767   5.708  0.4264  0.2263  0.0251
   49MOL0     C 6670   3.038  11.488   6.622  0.5607  0.4906 -0.0545
   49MOL0     C 6671   2.915  11.497   6.689  0.3552  0.1692 -0.1325
   49MOL0     O 6672   2.769  11.822   6.831  0.0697  0.2633  0.2313
   49MOL0     C 6673   2.475  11.631   6.880 -0.8676  0.8764 -0.3017
   49MOL0     C 6674   2.351  11.633   6.938  1.1826  0.3291  0.9504
   49MOL0     N 6675   1.682  11.804   7.373 -0.4486 -0.1289 -0.7322
   49MOL0     N 6676   1.559  11.819   7.351  0.8572  0.0720  0.5232
   49MOL0     C 6677   0.566  11.226   7.789 -0.8251 -0.3845  1.0587
   49MOL0     C 6678   0.552  11.091   7.813  0.3085  0.0668  0.2770
   49MOL0     C 6679   0.683  10.639   7.876  0.2581  0.2366 -0.2136
   49MOL0     C 6680   0.574  10.579   7.806  0.6099 -0.1251 -0.4223
   49MOL0     C 6681   0.557  10.445   7.799  0.0796  0.5213  1.0315
   49MOL0     C 6682   0.659  10.353   7.840  0.3743 -0.0513 -1.1709
   49MOL0     O 6683   0.652  10.228   7.795 -0.2670 -0.3084 -0.3292
   49MOL0     C 6684   0.753  10.138   7.836 -0.4802  0.1161 -0.3888
   49MOL0     C 6685   0.722  10.070   7.963  0.2345  0.3107 -0.2906
   49MOL0     C 6686   0.605   9.978   7.946  0.6747  0.1947  0.3972
   49MOL0     C 6687   0.568   9.925   8.089 -0.7941 -0.6637  0.0017
   49MOL0     C 6688   0.637   9.797   8.105 -1.0939 -1.1842 -0.4461
   49MOL0     C 6689   0.713   9.708   8.115  0.5936  0.0542 -0.4572
   49MOL0     C 6690   0.763  10.408   7.917  0.8956  0.0125 -0.2504
   49MOL0     C 6691   0.774  10.549   7.944 -0.4704 -0.1693  0.2362
   49MOL0     C 6692   0.892  10.586   8.035  0.2996 -0.4755  0.0147
   49MOL0     H 6693   0.854  10.949   7.747  4.5848  2.5994  0.2396
   49MOL0     H 6694   0.896  11.213   7.698  0.0265  2.7088 -0.9143
   49MOL0     H 6695   0.580  11.531   7.680 -1.8413 -0.9893 -2.1628
   49MOL0     H 6696   0.550  11.391   7.571  0.6042 -0.2946 -1.2918
   49MOL0     H 6697   0.682  11.461   7.401  1.3996 -1.6469  0.8871
   49MOL0     H 6698   0.609  11.609   7.458 -1.0875 -0.4725  1.8356
   49MOL0     H 6699   0.823  11.648   7.598 -1.6920  0.6175 -0.1374
   49MOL0     H 6700   0.892  11.497   7.523  1.4700  1.1489 -1.9964
   49MOL0     H 6701   0.861  11.607   7.300 -3.9330  0.3505  0.7085
   49MOL0     H 6702   0.835  11.750   7.384 -0.6760 -0.2219  2.2801
   49MOL0     H 6703   1.053  11.739   7.518 -2.0156 -0.2925 -0.3554
   49MOL0     H 6704   1.077  11.764   7.342  1.9161 -2.9690 -2.2387
   49MOL0     H 6705   1.121  11.495   7.464 -2.3333  1.3624 -0.0796
   49MOL0     H 6706   1.148  11.539   7.296  0.9929 -0.5591 -0.3802
   49MOL0     H 6707   1.341  11.536   7.488  1.0682  0.3643  0.8819
   49MOL0     H 6708   1.283  11.713   7.508 -1.5625  0.0966  0.2989
   49MOL0     H 6709   1.349  11.592   7.251  0.3229 -0.9034  1.9395
   49MOL0     H 6710   1.314  11.769   7.281  1.4899  1.2159  0.9866
   49MOL0     H 6711   1.581  11.504   7.312 -2.9907  1.0818 -3.0480
   49MOL0     H 6712   1.816  11.529   7.463 -2.0163  1.0884  0.9486
   49MOL0     H 6713   1.900  11.686   7.467 -0.2374  1.6461 -2.2805
   49MOL0     H 6714   2.042  11.512   7.346 -1.0366 -0.3027  2.6496
   49MOL0     H 6715   1.902  11.489   7.246 -2.9422  0.9404  2.0471
   49MOL0     H 6716   1.935  11.729   7.151 -0.3204 -1.6791 -0.6827
   49MOL0     H 6717   2.056  11.757   7.274  0.9600  0.4875 -0.8349
   49MOL0     H 6718   2.196  11.594   7.156  1.8016  1.7292 -3.3140
   49MOL0     H 6719   2.071  11.575   7.034  1.8929  0.5261 -2.4601
   49MOL0     H 6720   2.307  11.966   6.960 -0.8933  0.3483 -3.6082
   49MOL0     H 6721   2.542  12.030   7.000 -0.6185 -0.2584 -0.1891
   49MOL0     H 6722   2.525  12.079   6.824  3.5173 -0.1252 -2.8228
   49MOL0     H 6723   2.668  12.001   6.886 -0.7617 -0.6754 -4.3687
   49MOL0     H 6724   2.829  11.801   6.582  1.3860  2.2533  0.8401
   49MOL0     H 6725   3.054  11.788   6.467  1.1952  2.1842  2.4844
   49MOL0     H 6726   3.300  11.432   6.555 -1.9102  0.5214 -0.5117
   49MOL0     H 6727   3.259  11.416   6.383 -2.0347  1.1068 -0.1635
   49MOL0     H 6728   3.471  11.617   6.472  2.1593 -1.5762 -0.5398
   49MOL0     H 6729   3.505  11.442   6.440  2.1861  0.3658 -0.3532
   49MOL0     H 6730   3.428  11.661   6.265  2.3405  0.0354  0.6530
   49MOL0     H 6731   3.408  11.487   6.203  0.2542  1.9588 -2.1625
   49MOL0     H 6732   3.666  11.470   6.249  0.0271  1.7967  3.5854
   49MOL0     H 6733   3.646  11.624   6.316  0.6903  0.4188 -0.6855
   49MOL0     H 6734   3.539  11.619   6.032  0.4370 -0.8980 -1.1761
   49MOL0     H 6735   3.630  11.750   6.096 -0.2685 -0.8490 -3.0930
   49MOL0     H 6736   3.741  11.490   5.997 -0.0992  0.5977 -1.8812
   49MOL0     H 6737   3.830  11.598   6.103  1.3961 -0.8330 -1.3963
   49MOL0     H 6738   3.784  11.783   5.923  1.0404 -0.7122  1.5444
   49MOL0     H 6739   3.693  11.655   5.846 -3.8162  1.7473  3.4705
   49MOL0     H 6740   3.894  11.537   5.767  5.5091  1.3686 -1.6485
   49MOL0     H 6741   4.002  11.636   5.865  1.1701 -3.3874 -2.4495
   49MOL0     H 6742   3.082  11.388   6.624  0.1225  0.1628 -3.0746
   49MOL0     H 6743   2.898  11.420   6.764  0.3356  2.6351  2.5473
   49MOL0     H 6744   2.526  11.537   6.857  1.3485  2.3026 -1.5806
   49MOL0     H 6745   2.310  11.532   6.944  2.6618 -0.5170 -1.5451
   49MOL0     H 6746   0.486  11.299   7.798 -0.3785  0.0634  1.5076
   49MOL0     H 6747   0.455  11.054   7.846  0.7523  0.7773  2.5614
   49MOL0     H 6748   0.494  10.639   7.764  1.2992 -1.1888 -3.5117
   49MOL0     H 6749   0.466  10.408   7.753  0.2676 -0.1023  1.1520
   49MOL0     H 6750   0.752  10.071   7.749 -3.7409  0.7483 -0.9842
   49MOL0     H 6751   0.850  10.188   7.846 -0.3088 -0.1949 -0.4953
   49MOL0     H 6752   0.724  10.152   8.036  1.5825  0.0950 -0.0572
   49MOL0     H 6753   0.803   9.999   7.984  1.3681  2.1450  2.0010
   49MOL0     H 6754   0.517  10.027   7.903 -1.7365 -2.9256  1.4391
   49MOL0     H 6755   0.629   9.893   7.883  1.8433 -1.7878  3.3022
   49MOL0     H 6756   0.460   9.910   8.079 -0.6117 -2.1891  0.0900
   49MOL0     H 6757   0.576   9.992   8.175  0.8163 -0.9658  0.1104
   49MOL0     H 6758   0.789   9.633   8.132  2.3157  2.0362  1.1596
   49MOL0     H 6759   0.823  10.340   7.977  1.2554  0.7878  0.2771
   49MOL0     H 6760   0.957  10.500   8.053  3.7007  1.9899  0.3950
   49MOL0     H 6761   0.948  10.670   7.994 -0.0941  0.8244  2.0063
   49MOL0     H 6762   0.852  10.616   8.132  2.1276 -2.1692  1.3546
   50MOL0     O 6763  11.304   0.220  11.472  0.5077  1.0091 -0.5743
   50MOL0     C 6764  11.368   0.244  11.371  0.0833 -0.0478 -0.6443
   50MOL0     O 6765  11.320   0.227  11.236 -0.7117 -0.1599  0.0988
   50MOL0     C 6766  11.190   0.207  11.215 -0.3184 -0.0345  0.3365
   50MOL0     C 6767  11.141   0.245  11.089 -0.6942  0.2933 -0.0275
   50MOL0     C 6768  11.009   0.230  11.055 -0.1826 -0.0267  0.0343
   50MOL0     C 6769  10.907   0.181  11.140 -0.9047  0.1424 -0.5082
   50MOL0     O 6770  10.783   0.167  11.089 -0.6938 -0.7294 -0.5164
   50MOL0     C 6771  10.678   0.188  11.186  0.6643  0.3701  0.2558
   50MOL0     C 6772  10.550   0.210  11.115  0.4339 -1.2016  0.4108
   50MOL0     C 6773  10.437   0.229  11.229  0.1348 -0.6941 -0.4181
   50MOL0     C 6774  10.306   0.232  11.163  0.2775  0.4553  0.6845
   50MOL0     C 6775  10.277   0.365  11.078  0.0258  0.5380 -0.1974
   50MOL0     C 6776  10.129   0.387  11.029  0.8006 -0.1444 -0.7490
   50MOL0     C 6777  10.104   0.297  10.915  0.8107 -0.0729  0.5678
   50MOL0     C 6778   9.966   0.327  10.853  0.5843  0.5110  0.9905
   50MOL0     N 6779   9.977   0.290  10.706  0.6829  0.0771 -0.8329
   50MOL0     C 6780  10.051   0.359  10.611 -0.7089 -0.0401 -0.2962
   50MOL0     C 6781  10.042   0.287  10.499  0.2110  0.0717 -0.2405
   50MOL0     C 6782  10.124   0.314  10.380  0.2803 -0.4030 -0.0674
   50MOL0     C 6783  10.126   0.459  10.331  0.2140 -0.0243  0.2800
   50MOL0     C 6784  10.258   0.479  10.261 -0.4869  0.3203  1.0614
   50MOL0     C 6785  10.278   0.589  10.155  1.5041  0.5840  0.5140
   50MOL0     O 6786  10.406   0.638  10.169  0.6764  0.1226 -0.9543
   50MOL0     C 6787  10.479   0.690  10.067  0.7499 -0.0149 -0.0188
   50MOL0     C 6788  10.444   0.689   9.929 -0.2283  0.6128  0.7241
   50MOL0     C 6789  10.523   0.741   9.817  0.8241 -0.2354 -0.1399
   50MOL0     C 6790  10.462   0.738   9.680 -0.1080  0.0752 -0.8377
   50MOL0     C 6791  10.645   0.794   9.856  0.0089 -0.8405 -0.1370
   50MOL0     C 6792  10.737   0.851   9.748 -0.1184 -0.3819 -0.2570
   50MOL0     O 6793  10.704   0.891   9.625  0.2738  0.0373 -0.2606
   50MOL0     C 6794  10.773   0.983   9.548  0.8051  0.3033 -0.5099
   50MOL0     C 6795  10.751   0.977   9.415 -0.0993 -0.2135  1.1210
   50MOL0     C 6796  10.817   1.067   9.331  0.0672 -0.4181  0.0588
   50MOL0     C 6797  10.903   1.157   9.383  0.3844  0.4645  0.1283
   50MOL0     O 6798  10.948   1.251   9.294 -0.0434  0.6360 -0.3114
   50MOL0     C 6799  11.072   1.315   9.313 -0.2807 -0.6562 -0.7366
   50MOL0     C 6800  11.086   1.414   9.204  0.1896  0.4001 -1.1054
   50MOL0     C 6801  10.988   1.537   9.227  0.0090 -0.3919  0.0965
   50MOL0     C 6802  10.925   1.588   9.095  0.2281  0.9332 -0.2376
   50MOL0     C 6803  11.026   1.622   8.986 -0.0227 -0.6943 -0.6889
   50MOL0     C 6804  10.959   1.656   8.856  1.0248  0.9211 -0.1775
   50MOL0     C 6805  11.045   1.725   8.761 -0.9294  0.2798  0.0216
   50MOL0     C 6806  10.971   1.730   8.628 -1.3333 -0.5372  0.8077
   50MOL0    Cl 6807  10.812   1.819   8.649 -0.2910  0.1372 -0.1252
   50MOL0     C 6808  10.942   1.152   9.515  0.0720 -0.5783 -0.9897
   50MOL0     C 6809  10.869   1.067   9.600  0.0760 -0.3821 -0.1099
   50MOL0     O 6810  10.853   0.842   9.785  0.3690  0.2286 -0.4482
   50MOL0     C 6811  10.688   0.794   9.992 -0.5173 -0.6904 -0.2684
   50MOL0     C 6812  10.608   0.740  10.094 -0.4326 -0.2801 -0.4920
   50MOL0     N 6813   9.945   0.183  10.520 -0.1014 -1.2341  0.9484
   50MOL0     N 6814   9.915   0.195  10.646  1.0387  0.5234  0.3736
   50MOL0     C 6815  10.951   0.133  11.263 -0.2832 -0.0084  0.9996
   50MOL0     C 6816  11.089   0.143  11.298 -0.8369 -0.3468  0.6421
   50MOL0     C 6817  11.493   0.324  11.393  0.6578 -0.1819 -0.5073
   50MOL0     C 6818  11.516   0.383  11.519 -0.0733  0.3425  0.8374
   50MOL0     C 6819  11.622   0.472  11.525  0.6248  1.4931 -0.2906
   50MOL0     C 6820  11.720   0.476  11.430 -0.2390 -0.4448  0.0430
   50MOL0     O 6821  11.829   0.559  11.448 -0.4983  0.0602 -0.0976
   50MOL0     C 6822  11.836   0.670  11.544 -0.8546 -0.9717 -0.2454
   50MOL0     C 6823  11.760   0.800  11.488  0.1124  0.4026 -0.0079
   50MOL0     C 6824  11.836   0.860  11.362  0.3118 -1.0120 -0.7868
   50MOL0     C 6825  11.756   0.985  11.300 -0.6959 -0.3535 -0.1911
   50MOL0     C 6826  11.742   1.101  11.389  0.0719 -0.8135 -0.3958
   50MOL0     C 6827  11.720   1.205  11.452  0.8266 -0.3906  0.9041
   50MOL0     C 6828  11.706   0.418  11.311  0.2752 -0.0977 -0.6930
   50MOL0     C 6829  11.593   0.344  11.289  0.1988  1.0081  0.3113
   50MOL0     C 6830  11.589   0.265  11.153  0.6584 -0.4101 -0.0275
   50MOL0     H 6831  11.215   0.283  11.020  3.6823 -1.1417  3.4320
   50MOL0     H 6832  10.978   0.260  10.955  1.0691  3.0269  0.4691
   50MOL0     H 6833  10.702   0.273  11.250  0.4069  0.4863  0.1980
   50MOL0     H 6834  10.666   0.095  11.241  2.1474  1.3193  2.3389
   50MOL0     H 6835  10.554   0.306  11.064 -1.8744 -0.0957  2.1097
   50MOL0     H 6836  10.529   0.130  11.044 -0.4397  1.4152 -2.4827
   50MOL0     H 6837  10.433   0.144  11.298  0.1994  0.4386  1.0310
   50MOL0     H 6838  10.450   0.317  11.293 -2.8942  0.6526 -1.4903
   50MOL0     H 6839  10.293   0.150  11.092  3.2232  0.2675  0.2642
   50MOL0     H 6840  10.234   0.234  11.246 -0.1488 -1.7404  0.4320
   50MOL0     H 6841  10.348   0.366  10.995  3.6466 -3.1798  2.4445
   50MOL0     H 6842  10.308   0.442  11.149  0.8596 -0.2224  0.2928
   50MOL0     H 6843  10.055   0.365  11.106  0.1901  2.3456 -0.5541
   50MOL0     H 6844  10.123   0.489  10.991 -0.7135 -0.9266 -2.7617
   50MOL0     H 6845  10.112   0.191  10.938  0.2831 -0.2804 -0.1626
   50MOL0     H 6846  10.168   0.329  10.832 -3.6434  0.7588 -2.9630
   50MOL0     H 6847   9.879   0.273  10.891 -1.7636  3.3300 -0.0076
   50MOL0     H 6848   9.948   0.434  10.856 -0.6009  0.4775 -1.6947
   50MOL0     H 6849  10.083   0.462  10.624 -2.8850  0.7269 -0.6554
   50MOL0     H 6850  10.085   0.257  10.295 -0.6158  1.3643 -0.8763
   50MOL0     H 6851  10.222   0.270  10.401  1.2407  0.7027 -1.9921
   50MOL0     H 6852  10.050   0.480  10.256  2.2942 -1.7412 -2.5192
   50MOL0     H 6853  10.115   0.526  10.417  0.8601 -1.5650  1.6235
   50MOL0     H 6854  10.331   0.504  10.338  3.6036  1.4488 -2.7614
   50MOL0     H 6855  10.302   0.389  10.217  1.2729  1.3818  0.5717
   50MOL0     H 6856  10.244   0.548  10.060 -1.8113 -0.1492  1.8556
   50MOL0     H 6857  10.215   0.676  10.178 -0.6053 -0.3991 -1.1845
   50MOL0     H 6858  10.357   0.634   9.895  1.8816 -2.7258  0.3521
   50MOL0     H 6859  10.354   0.723   9.674  0.0918 -0.8947 -3.7109
   50MOL0     H 6860  10.505   0.660   9.616 -3.6205 -0.5317 -2.6675
   50MOL0     H 6861  10.483   0.834   9.632  1.7828  1.2746  2.1183
   50MOL0     H 6862  10.669   0.913   9.384 -1.3547  1.4463  0.8194
   50MOL0     H 6863  10.785   1.078   9.228 -1.2457 -0.6748  0.4188
   50MOL0     H 6864  11.082   1.377   9.402 -0.7126  1.6336 -2.1834
   50MOL0     H 6865  11.154   1.244   9.305  0.2784 -0.2597  1.0757
   50MOL0     H 6866  11.189   1.449   9.193  0.0592  0.8777 -0.8482
   50MOL0     H 6867  11.069   1.353   9.115  1.2509 -1.3360 -0.1863
   50MOL0     H 6868  11.040   1.621   9.273 -3.2299  0.3139  2.8192
   50MOL0     H 6869  10.913   1.505   9.300  2.5367 -4.1495  1.3433
   50MOL0     H 6870  10.869   1.678   9.123 -2.5269 -0.1537 -1.8319
   50MOL0     H 6871  10.860   1.504   9.068  1.1029  0.0059  0.4637
   50MOL0     H 6872  11.084   1.710   9.014 -0.6993 -0.2561 -0.6411
   50MOL0     H 6873  11.096   1.538   8.984 -0.6033 -1.2025 -0.1361
   50MOL0     H 6874  10.864   1.708   8.873 -0.5456 -2.3648  2.5181
   50MOL0     H 6875  10.940   1.559   8.808 -0.3880  1.8516 -1.6069
   50MOL0     H 6876  11.147   1.686   8.754  0.4141  3.7694 -2.1324
   50MOL0     H 6877  11.059   1.829   8.792  0.3404  0.9969 -2.6769
   50MOL0     H 6878  10.953   1.632   8.583 -1.6996  0.5757 -1.6298
   50MOL0     H 6879  11.027   1.779   8.548  2.9006 -2.4295  2.3543
   50MOL0     H 6880  11.029   1.210   9.544 -0.2934 -1.5713  2.7124
   50MOL0     H 6881  10.879   1.070   9.708 -0.9999 -3.2657  0.1774
   50MOL0     H 6882  10.780   0.842  10.022 -1.0817 -0.1766  0.7043
   50MOL0     H 6883  10.648   0.738  10.195 -1.4360  2.5920  0.0519
   50MOL0     H 6884  10.881   0.072  11.319  1.1725 -0.7243  2.0934
   50MOL0     H 6885  11.116   0.124  11.401 -0.3682  1.7815  0.9726
   50MOL0     H 6886  11.438   0.394  11.594 -0.5447 -0.2222  0.4423
   50MOL0     H 6887  11.621   0.517  11.624  0.3241 -1.8687  1.3736
   50MOL0     H 6888  11.784   0.649  11.638 -1.1715  1.7532  0.2905
   50MOL0     H 6889  11.937   0.706  11.564 -1.0283 -1.1310  0.9967
   50MOL0     H 6890  11.750   0.875  11.567  0.2539  0.4172 -0.0025
   50MOL0     H 6891  11.660   0.771  11.457 -0.8963  3.5151 -0.0201
   50MOL0     H 6892  11.929   0.893  11.410  0.4581 -3.7336  0.9839
   50MOL0     H 6893  11.853   0.790  11.280  1.0437 -0.7008 -0.9100
   50MOL0     H 6894  11.662   0.941  11.266  0.1868 -0.9515 -2.0013
   50MOL0     H 6895  11.801   1.024  11.209 -0.0253  0.8864  0.6424
   50MOL0     H 6896  11.692   1.287  11.515  5.3759  0.6988  1.8793
   50MOL0     H 6897  11.792   0.429  11.245  0.7930 -0.5605 -0.1175
   50MOL0     H 6898  11.592   0.157  11.165 -3.0159 -0.4720  1.4629
   50MOL0     H 6899  11.497   0.279  11.095 -0.4310 -2.3621  1.1549
   50MOL0     H 6900  11.672   0.300  11.091  0.4596 -0.6152 -0.4112
   51MOL0     O 6901   1.327   0.965   8.593  0.4486  0.3091  0.1010
   51MOL0     C 6902   1.324   0.844   8.577 -0.3815  0.3301 -1.1566
   51MOL0     O 6903   1.211   0.775   8.559  0.0222  0.3771 -0.0454
   51MOL0     C 6904   1.084   0.832   8.556 -0.2073 -0.1170 -0.4186
   51MOL0     C 6905   0.993   0.773   8.627  1.0892  1.9614  0.9263
   51MOL0     C 6906   0.857   0.817   8.618  0.2936  0.0203  0.3505
   51MOL0     C 6907   0.825   0.940   8.546  0.3994  0.2635  0.1583
   51MOL0     O 6908   0.697   0.992   8.551 -0.2110 -0.3053 -0.1980
   51MOL0     C 6909   0.609   0.940   8.650 -0.5817  1.1974 -0.3315
   51MOL0     C 6910   0.462   0.985   8.630 -0.7025  0.1649 -0.4602
   51MOL0     C 6911   0.368   0.914   8.728 -0.8687 -0.2783 -0.0547
   51MOL0     C 6912   0.226   0.966   8.718  0.5015  0.1897  0.9440
   51MOL0     C 6913   0.114   0.872   8.782  0.4968  0.2651 -0.4083
   51MOL0     C 6914   0.143   0.827   8.920  0.1141 -0.2684 -0.1677
   51MOL0     C 6915   0.156   0.944   9.015  0.6655 -0.5305  0.1472
   51MOL0     C 6916   0.171   0.916   9.161 -0.2091  0.1169 -0.3034
   51MOL0     N 6917   0.045   0.924   9.225  0.3855  0.4011  0.4007
   51MOL0     C 6918  -0.039   1.034   9.262 -1.3991  0.3172  0.5502
   51MOL0     C 6919  -0.163   0.979   9.278 -0.0692 -0.4718  0.0861
   51MOL0     C 6920  -0.292   1.042   9.324 -0.1236 -0.4302 -0.9398
   51MOL0     C 6921  -0.360   0.988   9.456  0.4150 -0.1588  0.3192
   51MOL0     C 6922  -0.339   0.836   9.484  0.0200  0.5989  0.4400
   51MOL0     C 6923  -0.396   0.819   9.621  0.5081 -0.8110 -0.4339
   51MOL0     O 6924  -0.401   0.675   9.650 -0.1489 -0.0853 -0.7420
   51MOL0     C 6925  -0.517   0.607   9.645 -0.3536  0.2682 -0.5088
   51MOL0     C 6926  -0.608   0.639   9.543  0.4793  0.5514 -0.1299
   51MOL0     C 6927  -0.740   0.584   9.547 -0.1363  0.3656  0.1444
   51MOL0     C 6928  -0.830   0.629   9.428  0.6469 -0.2758  0.0394
   51MOL0     C 6929  -0.769   0.477   9.641 -0.4866 -0.3206 -0.2654
   51MOL0     C 6930  -0.891   0.396   9.639  0.4454 -0.6049 -0.6642
   51MOL0     O 6931  -0.875   0.282   9.727  0.5803 -0.1622 -1.0127
   51MOL0     C 6932  -0.985   0.229   9.786  0.1810  0.8072  0.6657
   51MOL0     C 6933  -1.093   0.302   9.829  0.4752 -0.2094  0.1292
   51MOL0     C 6934  -1.195   0.234   9.903 -0.4534  1.0540  0.7835
   51MOL0     C 6935  -1.193   0.098   9.936  0.3461  0.2828  0.4538
   51MOL0     O 6936  -1.302   0.044  10.006 -0.0637  0.1189 -0.5436
   51MOL0     C 6937  -1.291  -0.094  10.060  0.3019 -0.7287 -0.2485
   51MOL0     C 6938  -1.414  -0.135  10.149  0.6043  0.2736 -0.2018
   51MOL0     C 6939  -1.549  -0.129  10.085  0.4765  0.9131  1.4795
   51MOL0     C 6940  -1.655  -0.169  10.192 -0.1967 -0.5859 -0.1633
   51MOL0     C 6941  -1.802  -0.151  10.166  0.2618 -0.2896  0.2797
   51MOL0     C 6942  -1.863  -0.240  10.049 -0.2703 -0.3412 -0.7013
   51MOL0     C 6943  -1.834  -0.391  10.064  0.0284 -0.3958 -0.5846
   51MOL0     C 6944  -1.919  -0.468   9.963  1.0451  0.2704 -0.7240
   51MOL0    Cl 6945  -1.861  -0.642   9.962  0.3551  0.1075 -0.1696
   51MOL0     C 6946  -1.080   0.027   9.887 -1.2402 -0.0002  0.4189
   51MOL0     C 6947  -0.978   0.094   9.810  1.5833  0.3943  0.3626
   51MOL0     O 6948  -0.995   0.416   9.572 -0.6579  0.2440 -0.2432
   51MOL0     C 6949  -0.672   0.453   9.743 -0.1380 -1.0189  0.1687
   51MOL0     C 6950  -0.545   0.511   9.739 -0.1797 -0.1238  0.0220
   51MOL0     N 6951  -0.159   0.850   9.246 -0.3363  0.4808  0.7186
   51MOL0     N 6952  -0.039   0.811   9.218 -0.5870 -0.2808  0.5322
   51MOL0     C 6953   0.934   0.996   8.479  0.6151 -0.6916  0.5920
   51MOL0     C 6954   1.054   0.931   8.474 -0.5494  0.3039  0.9932
   51MOL0     C 6955   1.453   0.769   8.566  0.0411 -0.1360 -1.1041
   51MOL0     C 6956   1.466   0.676   8.466  0.4482  0.1696  0.0583
   51MOL0     C 6957   1.576   0.594   8.464 -0.1363  0.3601 -0.3738
   51MOL0     C 6958   1.690   0.616   8.547  0.4711  0.7262 -0.2436
   51MOL0     O 6959   1.797   0.527   8.529  0.3923  0.4411  0.1892
   51MOL0     C 6960   1.908   0.526   8.624  0.1439 -0.1728 -0.4062
   51MOL0     C 6961   1.844   0.463   8.754  0.1378 -0.3847  0.0016
   51MOL0     C 6962   1.943   0.463   8.873  0.2830 -0.6500  0.1024
   51MOL0     C 6963   2.010   0.598   8.909  0.0564 -0.5606  0.6683
   51MOL0     C 6964   2.099   0.645   8.808  0.3200 -0.4336 -0.0559
   51MOL0     C 6965   2.171   0.672   8.717 -0.3779 -0.5512 -0.5159
   51MOL0     C 6966   1.683   0.720   8.638 -0.0650  0.0167 -0.2121
   51MOL0     C 6967   1.565   0.802   8.650  0.5858 -0.3139 -0.8878
   51MOL0     C 6968   1.564   0.904   8.766  0.5427 -0.6899 -0.3528
   51MOL0     H 6969   1.032   0.695   8.693 -1.2598  1.7445  2.1482
   51MOL0     H 6970   0.779   0.771   8.678  0.5105  2.5214  2.7552
   51MOL0     H 6971   0.648   0.968   8.749 -2.1560  1.7933  0.1370
   51MOL0     H 6972   0.594   0.831   8.650 -1.2423  1.2855  0.2389
   51MOL0     H 6973   0.450   1.094   8.635  3.7981  0.9669 -2.2293
   51MOL0     H 6974   0.439   0.965   8.525  1.1215 -0.7294 -0.7187
   51MOL0     H 6975   0.371   0.809   8.698 -0.1988 -0.2431 -0.1248
   51MOL0     H 6976   0.413   0.929   8.827 -2.1014  0.3675  0.4345
   51MOL0     H 6977   0.212   1.060   8.771  1.4847  0.0698  1.4437
   51MOL0     H 6978   0.208   0.972   8.610  2.0858 -2.7639  0.3938
   51MOL0     H 6979   0.112   0.784   8.718  0.8359 -0.0340 -0.0107
   51MOL0     H 6980   0.013   0.914   8.778 -0.3942 -1.7334 -4.8515
   51MOL0     H 6981   0.066   0.757   8.952  0.8620 -1.5194 -1.0487
   51MOL0     H 6982   0.238   0.772   8.924 -0.5105 -1.3546  0.0010
   51MOL0     H 6983   0.065   1.002   8.996 -1.1159 -2.3913  2.3251
   51MOL0     H 6984   0.248   0.998   8.990  1.7087 -1.8940  0.9179
   51MOL0     H 6985   0.221   0.818   9.166 -0.9740 -0.2531  0.2594
   51MOL0     H 6986   0.236   0.988   9.212 -1.8097  2.1392 -1.0282
   51MOL0     H 6987  -0.006   1.137   9.276  0.3559  0.0860 -1.3083
   51MOL0     H 6988  -0.368   1.017   9.249 -0.6808 -0.3799 -0.4030
   51MOL0     H 6989  -0.279   1.149   9.339  0.2170 -0.7837  1.8444
   51MOL0     H 6990  -0.339   1.056   9.539  1.4564 -1.2890  1.0155
   51MOL0     H 6991  -0.469   0.999   9.446  0.4720  1.3101  1.1065
   51MOL0     H 6992  -0.393   0.773   9.412 -0.8361  0.0637  1.5140
   51MOL0     H 6993  -0.231   0.821   9.481 -0.1015 -0.7183  1.5033
   51MOL0     H 6994  -0.336   0.875   9.693  0.1915  3.7565 -3.2955
   51MOL0     H 6995  -0.495   0.859   9.640  1.5074  0.0611  4.0788
   51MOL0     H 6996  -0.592   0.713   9.465 -0.4251 -2.8693 -3.9598
   51MOL0     H 6997  -0.784   0.593   9.336  1.2702  1.7595 -0.4983
   51MOL0     H 6998  -0.809   0.733   9.403 -2.0358 -0.3075 -2.8633
   51MOL0     H 6999  -0.937   0.621   9.448  0.6059  0.5239  0.1564
   51MOL0     H 7000  -1.096   0.409   9.811  0.3758  0.0079  1.3935
   51MOL0     H 7001  -1.278   0.295   9.936  1.5518  3.2607  2.0189
   51MOL0     H 7002  -1.284  -0.166   9.978 -1.3333 -0.1898 -0.9111
   51MOL0     H 7003  -1.211  -0.099  10.134 -1.4341 -1.7360  1.6862
   51MOL0     H 7004  -1.397  -0.231  10.200 -0.5737  0.4383  0.5303
   51MOL0     H 7005  -1.416  -0.065  10.234 -0.4083 -0.8064  0.6995
   51MOL0     H 7006  -1.546  -0.207  10.009  0.4406 -2.3312  4.5245
   51MOL0     H 7007  -1.567  -0.028  10.046  1.3774  0.1166 -1.2277
   51MOL0     H 7008  -1.624  -0.109  10.278 -1.4072  0.6510 -0.5618
   51MOL0     H 7009  -1.633  -0.272  10.220  0.3883 -1.1405 -2.3963
   51MOL0     H 7010  -1.863  -0.167  10.255 -1.7975  4.4260  0.0449
   51MOL0     H 7011  -1.822  -0.046  10.141 -2.8095 -0.8028  0.2560
   51MOL0     H 7012  -1.815  -0.205   9.957  1.2271  0.6148  0.3932
   51MOL0     H 7013  -1.968  -0.217  10.029 -1.2105 -2.0425  1.8383
   51MOL0     H 7014  -1.860  -0.427  10.164 -4.1080 -0.1185 -1.3674
   51MOL0     H 7015  -1.727  -0.410  10.053  0.0749  0.2475 -1.3407
   51MOL0     H 7016  -1.896  -0.429   9.863  1.6661  1.4071 -0.1445
   51MOL0     H 7017  -2.027  -0.458   9.976  1.0403  0.9757 -1.2295
   51MOL0     H 7018  -1.057  -0.078   9.898  1.5951  0.3220 -1.3154
   51MOL0     H 7019  -0.891   0.036   9.782  2.5207  2.1684 -0.5809
   51MOL0     H 7020  -0.699   0.390   9.826 -4.7842  1.6166  0.9927
   51MOL0     H 7021  -0.470   0.479   9.811  1.3740 -1.0054 -1.8871
   51MOL0     H 7022   0.919   1.094   8.435 -2.1825 -1.2147  0.2078
   51MOL0     H 7023   1.125   0.956   8.397 -1.5865  0.1619 -0.0330
   51MOL0     H 7024   1.369   0.651   8.424 -1.3056  1.5265  2.9643
   51MOL0     H 7025   1.579   0.510   8.396  1.2983  0.0058  0.0945
   51MOL0     H 7026   1.999   0.473   8.592  0.4500 -0.2515  0.5769
   51MOL0     H 7027   1.940   0.631   8.635  2.0823 -0.9055  1.6374
   51MOL0     H 7028   1.808   0.361   8.735 -1.5652  0.1850 -0.0176
   51MOL0     H 7029   1.759   0.527   8.782  2.3308  3.4008 -1.3217
   51MOL0     H 7030   1.900   0.429   8.968 -1.1030  2.9815  0.9411
   51MOL0     H 7031   2.028   0.397   8.853  1.1680  0.2518  0.8095
   51MOL0     H 7032   2.070   0.594   9.000  0.9182 -0.0222  0.1396
   51MOL0     H 7033   1.936   0.677   8.923 -0.6649 -0.7951 -1.3934
   51MOL0     H 7034   2.247   0.682   8.642 -0.2938  0.9319 -0.2719
   51MOL0     H 7035   1.772   0.738   8.697  1.3967 -0.9267 -2.0175
   51MOL0     H 7036   1.562   1.005   8.722 -0.7387 -1.5736 -2.4797
   51MOL0     H 7037   1.487   0.888   8.842  1.9942  2.8395  2.1173
   51MOL0     H 7038   1.660   0.899   8.819  0.1387 -0.7987  0.3846
   52MOL0     O 7039   7.930   9.348   5.262  0.5128  0.0468  0.3237
   52MOL0     C 7040   8.032   9.288   5.229  0.3850 -0.1092  0.5439
   52MOL0     O 7041   8.073   9.261   5.106  1.7191  0.2333  0.4269
   52MOL0     C 7042   7.994   9.295   4.991  0.1836  1.1641 -0.2591
   52MOL0     C 7043   8.000   9.209   4.883 -0.1714 -0.4055  0.3538
   52MOL0     C 7044   7.926   9.241   4.766  0.3828  0.4926  0.0870
   52MOL0     C 7045   7.823   9.346   4.763  0.0505  0.7053 -1.3967
   52MOL0     O 7046   7.747   9.354   4.652 -0.1983  0.0502 -0.6940
   52MOL0     C 7047   7.631   9.445   4.659 -0.3042  0.5436 -0.4334
   52MOL0     C 7048   7.557   9.432   4.528 -0.7214 -1.0404 -0.3459
   52MOL0     C 7049   7.499   9.295   4.509  0.2267 -0.1832 -0.2706
   52MOL0     C 7050   7.429   9.276   4.368  1.5081  0.1094 -0.2293
   52MOL0     C 7051   7.372   9.133   4.372  0.5348 -0.3349 -0.0349
   52MOL0     C 7052   7.270   9.109   4.267  0.0826  1.0804  0.6663
   52MOL0     C 7053   7.216   8.957   4.254 -0.0576  0.3261  0.0907
   52MOL0     C 7054   7.109   8.927   4.150 -0.0995  0.0616 -0.5997
   52MOL0     N 7055   7.144   8.809   4.068  0.0616  1.0392  0.4823
   52MOL0     C 7056   7.109   8.803   3.926 -1.6422 -0.9950  0.0312
   52MOL0     C 7057   7.160   8.683   3.887  0.0125  0.4099 -0.1558
   52MOL0     C 7058   7.163   8.606   3.759 -0.7912 -0.2666 -0.3897
   52MOL0     C 7059   7.263   8.681   3.666  0.2418  0.2202 -0.1683
   52MOL0     C 7060   7.309   8.614   3.538 -0.5421  0.2012  0.4962
   52MOL0     C 7061   7.424   8.678   3.455 -0.1403  0.5475 -0.6234
   52MOL0     O 7062   7.408   8.814   3.433  0.1090  0.7941  0.2045
   52MOL0     C 7063   7.525   8.864   3.382 -0.1265 -0.9810 -0.2736
   52MOL0     C 7064   7.626   8.801   3.301 -0.6306 -0.8650  0.3710
   52MOL0     C 7065   7.735   8.875   3.262  0.1561 -0.0180 -0.4874
   52MOL0     C 7066   7.841   8.797   3.187 -0.6392  1.0917  0.1928
   52MOL0     C 7067   7.750   9.006   3.305 -0.0999 -0.7256  0.0773
   52MOL0     C 7068   7.869   9.093   3.261 -0.2953  0.4417 -0.3927
   52MOL0     O 7069   7.841   9.174   3.155  0.4150 -0.6148  0.3247
   52MOL0     C 7070   7.929   9.271   3.115  1.0033 -0.1730 -0.1718
   52MOL0     C 7071   7.937   9.392   3.177 -0.0758  0.1065 -0.7175
   52MOL0     C 7072   8.023   9.490   3.136  1.4324 -0.1081 -0.0199
   52MOL0     C 7073   8.112   9.465   3.034 -0.9700 -0.3175  0.5837
   52MOL0     O 7074   8.224   9.540   3.013 -0.6602 -0.2463  0.1718
   52MOL0     C 7075   8.230   9.679   3.049 -1.5625 -0.6702  0.3432
   52MOL0     C 7076   8.270   9.719   3.193 -0.1721  0.8615  0.0530
   52MOL0     C 7077   8.203   9.855   3.220  0.3246 -0.0126 -0.9443
   52MOL0     C 7078   8.242   9.971   3.129 -1.0001 -0.7908  0.1193
   52MOL0     C 7079   8.162  10.099   3.157 -0.2911  0.4882  0.1958
   52MOL0     C 7080   8.004  10.086   3.173 -1.1069  0.4511  0.0549
   52MOL0     C 7081   7.952  10.201   3.264 -0.1037  0.1280  0.5936
   52MOL0     C 7082   7.941  10.329   3.188 -0.7867 -0.0219 -0.7500
   52MOL0    Cl 7083   8.110  10.414   3.214  0.4709 -0.2269  0.2423
   52MOL0     C 7084   8.104   9.341   2.970 -0.5042  0.0147 -0.4129
   52MOL0     C 7085   8.010   9.247   3.009 -0.0966 -0.4737 -0.7265
   52MOL0     O 7086   7.982   9.070   3.302 -0.2380 -0.1948  0.1516
   52MOL0     C 7087   7.650   9.069   3.364  0.0924 -0.4610  0.0675
   52MOL0     C 7088   7.535   9.001   3.399  0.1932  0.9937 -0.6205
   52MOL0     N 7089   7.206   8.622   4.006  0.0669  0.0945  0.3706
   52MOL0     N 7090   7.191   8.690   4.113  0.4668 -0.3096 -0.9319
   52MOL0     C 7091   7.816   9.430   4.875  0.3286  0.0048  0.5851
   52MOL0     C 7092   7.906   9.407   4.978  0.4271  0.4388 -0.1051
   52MOL0     C 7093   8.123   9.265   5.347  0.3777 -0.2857  0.5915
   52MOL0     C 7094   8.242   9.192   5.328 -0.1782 -0.0034  0.2497
   52MOL0     C 7095   8.327   9.155   5.442 -0.0466 -0.5444  0.2417
   52MOL0     C 7096   8.292   9.195   5.572  0.5766 -0.6779 -0.2174
   52MOL0     O 7097   8.378   9.181   5.674 -0.2500  0.6743 -0.6953
   52MOL0     C 7098   8.340   9.218   5.809 -0.9670 -0.5829  0.0657
   52MOL0     C 7099   8.447   9.161   5.907  0.0538  1.2288 -0.2111
   52MOL0     C 7100   8.431   9.212   6.052  0.5467  0.4380  0.1732
   52MOL0     C 7101   8.505   9.137   6.169 -0.7488  0.7861  0.0580
   52MOL0     C 7102   8.653   9.127   6.137  0.4979 -0.6437  0.6475
   52MOL0     C 7103   8.769   9.138   6.094 -0.7006  0.5730  0.4941
   52MOL0     C 7104   8.173   9.276   5.580  0.8745  0.0665 -0.0418
   52MOL0     C 7105   8.092   9.319   5.476  0.3510 -0.1714  0.1548
   52MOL0     C 7106   7.979   9.408   5.516  0.6129  0.3271 -0.2790
   52MOL0     H 7107   8.061   9.120   4.885  0.3496 -0.0502  1.2603
   52MOL0     H 7108   7.944   9.174   4.682 -0.2038  1.8051 -1.1161
   52MOL0     H 7109   7.673   9.545   4.647  2.8473 -0.3055  2.1589
   52MOL0     H 7110   7.583   9.434   4.757  4.4284  1.0543  2.2264
   52MOL0     H 7111   7.472   9.501   4.535  0.4186  0.3797  0.0389
   52MOL0     H 7112   7.611   9.455   4.435  1.7520  0.3742  1.3429
   52MOL0     H 7113   7.566   9.210   4.522 -4.3736 -3.7549  4.6257
   52MOL0     H 7114   7.428   9.275   4.589  0.3566  0.1844 -0.0576
   52MOL0     H 7115   7.345   9.345   4.350  2.2260  1.2471  0.6812
   52MOL0     H 7116   7.507   9.294   4.293  1.4518 -1.6291 -0.7598
   52MOL0     H 7117   7.331   9.120   4.473  1.3930  3.3409  0.9083
   52MOL0     H 7118   7.447   9.055   4.356  0.5103  0.0368 -2.2492
   52MOL0     H 7119   7.191   9.183   4.278 -0.3342  0.8563 -0.6624
   52MOL0     H 7120   7.304   9.129   4.165 -0.0277  1.1366  0.6403
   52MOL0     H 7121   7.180   8.927   4.353 -1.6265  1.0034 -0.2397
   52MOL0     H 7122   7.306   8.901   4.227  0.6692  0.3358  2.3269
   52MOL0     H 7123   7.010   8.902   4.189  0.0695 -4.1421 -2.3398
   52MOL0     H 7124   7.086   9.004   4.075 -1.5044 -0.5772 -0.8497
   52MOL0     H 7125   7.068   8.881   3.862  1.6188  1.4211  0.6097
   52MOL0     H 7126   7.075   8.600   3.695  0.1322  2.2828 -2.0628
   52MOL0     H 7127   7.204   8.506   3.773 -0.2907 -0.2383 -1.5098
   52MOL0     H 7128   7.224   8.781   3.645 -0.2123 -0.2549 -1.7341
   52MOL0     H 7129   7.360   8.684   3.715  0.3469 -2.0507 -0.1164
   52MOL0     H 7130   7.346   8.513   3.558  0.2584  0.1447 -1.0843
   52MOL0     H 7131   7.225   8.597   3.471  1.4857  0.7841 -2.3824
   52MOL0     H 7132   7.518   8.660   3.508 -0.5314 -0.0489 -0.1209
   52MOL0     H 7133   7.442   8.619   3.365  1.0581 -4.7690  2.6698
   52MOL0     H 7134   7.603   8.703   3.263 -1.8810  0.7499 -3.4687
   52MOL0     H 7135   7.802   8.697   3.167 -1.0784  1.4236 -0.6647
   52MOL0     H 7136   7.938   8.794   3.238  0.4773  0.1431 -1.8468
   52MOL0     H 7137   7.851   8.840   3.087 -1.4491 -0.5278 -0.6284
   52MOL0     H 7138   7.869   9.428   3.254  0.8329  1.2257 -0.4071
   52MOL0     H 7139   8.022   9.581   3.195 -2.3477 -2.5369  4.2734
   52MOL0     H 7140   8.303   9.724   2.982 -2.3162 -1.2368 -0.8856
   52MOL0     H 7141   8.134   9.727   3.029 -1.3042 -0.5891 -0.7772
   52MOL0     H 7142   8.239   9.641   3.264 -0.1012  1.3153  0.5921
   52MOL0     H 7143   8.379   9.725   3.202  0.0908  0.6313 -2.4927
   52MOL0     H 7144   8.223   9.900   3.318  0.0894  2.0388 -1.7932
   52MOL0     H 7145   8.095   9.838   3.228 -0.0065  1.5244 -1.8469
   52MOL0     H 7146   8.204   9.955   3.027 -1.9355  2.9802 -0.2813
   52MOL0     H 7147   8.350   9.982   3.128 -1.1593  1.3623  1.0622
   52MOL0     H 7148   8.201  10.142   3.251  2.8699 -1.9157  0.1624
   52MOL0     H 7149   8.173  10.181   3.086 -0.9478  1.8125  1.5544
   52MOL0     H 7150   7.980   9.989   3.217 -1.8087  0.0077 -1.2549
   52MOL0     H 7151   7.945  10.095   3.081 -0.6999 -1.1370 -0.3933
   52MOL0     H 7152   8.013  10.213   3.354 -1.2539 -1.4739  1.6464
   52MOL0     H 7153   7.854  10.163   3.296  1.1966 -3.4309  0.7979
   52MOL0     H 7154   7.861  10.397   3.219 -0.7087 -1.0006  1.8105
   52MOL0     H 7155   7.942  10.303   3.081  0.5737 -1.2393 -0.4670
   52MOL0     H 7156   8.171   9.306   2.893 -0.9871 -2.1994  0.0897
   52MOL0     H 7157   8.006   9.148   2.964 -1.2953 -0.6927 -0.1979
   52MOL0     H 7158   7.646   9.177   3.374  0.7551 -0.2570 -1.6394
   52MOL0     H 7159   7.442   9.049   3.431 -2.1739 -2.9091 -1.0947
   52MOL0     H 7160   7.764   9.525   4.875  1.1325  0.4686  2.0066
   52MOL0     H 7161   7.902   9.482   5.057 -0.5024  1.3581 -0.9926
   52MOL0     H 7162   8.265   9.169   5.224 -3.4252 -1.0615 -0.3438
   52MOL0     H 7163   8.423   9.108   5.423  0.2127 -0.1034  0.4508
   52MOL0     H 7164   8.322   9.325   5.822  1.1089 -0.3292  1.4625
   52MOL0     H 7165   8.244   9.170   5.829  0.0034 -2.0575  1.4095
   52MOL0     H 7166   8.545   9.185   5.866  0.1754 -0.6976 -1.1476
   52MOL0     H 7167   8.428   9.054   5.896  1.9261  1.0815 -2.9093
   52MOL0     H 7168   8.493   9.303   6.049 -1.7758  2.1185 -2.1124
   52MOL0     H 7169   8.328   9.232   6.082  0.3675 -0.9366  0.5309
   52MOL0     H 7170   8.449   9.044   6.187 -0.7745  0.4702 -1.5001
   52MOL0     H 7171   8.500   9.196   6.261  0.0272  2.7736 -1.1098
   52MOL0     H 7172   8.870   9.159   6.064 -0.0116 -0.8593  1.7242
   52MOL0     H 7173   8.136   9.309   5.677 -3.0130 -1.2616 -0.9014
   52MOL0     H 7174   7.985   9.428   5.623  0.5167 -0.8371 -0.0430
   52MOL0     H 7175   7.984   9.504   5.465 -3.7409 -1.2368 -4.4253
   52MOL0     H 7176   7.879   9.364   5.504  0.2680  1.5926 -2.8473
   53MOL0     O 7177   7.892   7.863   8.653 -0.1860  0.1411 -0.7959
   53MOL0     C 7178   7.873   7.767   8.578 -0.3785  0.0646 -0.8648
   53MOL0     O 7179   7.756   7.727   8.537  1.2397 -0.2268  0.6522
   53MOL0     C 7180   7.645   7.812   8.559 -0.6451 -1.7316 -0.0085
   53MOL0     C 7181   7.571   7.831   8.674  1.3273 -0.0723  0.8581
   53MOL0     C 7182   7.464   7.931   8.691  0.6434  0.2042 -0.3662
   53MOL0     C 7183   7.437   8.017   8.589  0.5596  0.1321 -0.1496
   53MOL0     O 7184   7.344   8.114   8.621  0.2141 -1.3150  0.3870
   53MOL0     C 7185   7.307   8.206   8.520 -0.3158 -0.2478 -1.3764
   53MOL0     C 7186   7.192   8.276   8.596 -0.4601  0.6939 -0.1007
   53MOL0     C 7187   7.057   8.195   8.600 -0.7305  0.8583  0.0709
   53MOL0     C 7188   6.946   8.276   8.662  0.8127  0.5339  0.1548
   53MOL0     C 7189   6.810   8.193   8.675 -0.8552  0.6145  0.0808
   53MOL0     C 7190   6.694   8.274   8.733  0.4325  0.0033 -0.5502
   53MOL0     C 7191   6.567   8.185   8.764 -0.2724  0.4093 -0.1430
   53MOL0     C 7192   6.441   8.281   8.783 -0.4106  0.7828 -0.1772
   53MOL0     N 7193   6.317   8.211   8.812 -1.0243 -0.7910 -0.4658
   53MOL0     C 7194   6.247   8.148   8.717 -0.2513 -0.3191 -0.5414
   53MOL0     C 7195   6.165   8.067   8.785  0.1223  0.2506  0.2710
   53MOL0     C 7196   6.053   7.994   8.715 -0.7167  1.2716  1.0548
   53MOL0     C 7197   6.068   7.840   8.722  0.3527  0.2999 -0.4920
   53MOL0     C 7198   5.965   7.771   8.635  0.1330 -0.1008 -0.7092
   53MOL0     C 7199   5.818   7.801   8.669  0.0040  0.5748  0.0571
   53MOL0     O 7200   5.809   7.763   8.805  0.3656  0.0453  0.3655
   53MOL0     C 7201   5.690   7.788   8.868  0.1733  0.6504 -0.0962
   53MOL0     C 7202   5.691   7.778   9.005  0.1871 -0.5761 -0.3613
   53MOL0     C 7203   5.574   7.787   9.080  0.4237 -0.2891 -0.1861
   53MOL0     C 7204   5.580   7.795   9.231  0.3794 -0.1428  1.1867
   53MOL0     C 7205   5.450   7.814   9.015  0.3363  0.8583  1.0879
   53MOL0     C 7206   5.326   7.843   9.087  0.5620  0.2778  0.5248
   53MOL0     O 7207   5.221   7.754   9.087  0.5391  0.2646  0.3078
   53MOL0     C 7208   5.103   7.782   9.152 -0.7873  0.3311  0.1100
   53MOL0     C 7209   5.085   7.867   9.258  0.2614 -0.3162 -0.2162
   53MOL0     C 7210   4.951   7.887   9.301 -0.1549  0.7637  0.4881
   53MOL0     C 7211   4.847   7.807   9.242 -0.6133  0.4578 -0.4603
   53MOL0     O 7212   4.730   7.810   9.288 -0.0054  0.4287 -0.2021
   53MOL0     C 7213   4.621   7.841   9.205  0.5661  0.6908 -0.4985
   53MOL0     C 7214   4.516   7.935   9.265 -0.3512 -0.9421  1.0149
   53MOL0     C 7215   4.452   7.864   9.389 -0.5942  0.7158 -0.5242
   53MOL0     C 7216   4.350   7.945   9.456  0.5469  0.9099 -0.3691
   53MOL0     C 7217   4.313   7.884   9.596 -1.0325  0.3535  0.8203
   53MOL0     C 7218   4.220   7.969   9.686 -0.6221  0.1625  0.0760
   53MOL0     C 7219   4.141   7.892   9.791 -0.4059  0.6532  0.5954
   53MOL0     C 7220   4.158   7.960   9.929 -0.0849 -0.0943  0.5777
   53MOL0    Cl 7221   4.063   7.869  10.048 -0.2324 -0.5712 -0.3971
   53MOL0     C 7222   4.878   7.713   9.147 -0.2204 -0.0632  0.7163
   53MOL0     C 7223   5.005   7.697   9.101  0.9676  0.0669  0.1337
   53MOL0     O 7224   5.322   7.962   9.122 -0.1507  0.2972 -0.0315
   53MOL0     C 7225   5.449   7.810   8.877  0.0210  0.0592 -0.2643
   53MOL0     C 7226   5.568   7.805   8.802  0.4843 -0.0433  1.0144
   53MOL0     N 7227   6.183   8.070   8.919 -0.5584  0.4001 -0.3914
   53MOL0     N 7228   6.272   8.170   8.930 -0.0173 -0.4012  0.2163
   53MOL0     C 7229   7.503   8.002   8.469  0.4757 -0.0439  0.0360
   53MOL0     C 7230   7.605   7.904   8.459  1.4755  0.3430  0.1215
   53MOL0     C 7231   7.989   7.684   8.547 -0.3445  0.3554  0.5824
   53MOL0     C 7232   8.087   7.672   8.653  1.4620  1.6656  0.3204
   53MOL0     C 7233   8.195   7.601   8.641  1.1971  0.9606  0.3882
   53MOL0     C 7234   8.224   7.542   8.517 -0.2497  1.1686 -0.0259
   53MOL0     O 7235   8.333   7.467   8.512 -0.0336 -0.6802  0.3699
   53MOL0     C 7236   8.445   7.526   8.446  0.1087 -0.1189  0.4402
   53MOL0     C 7237   8.485   7.416   8.345 -0.2583 -0.3390  0.0349
   53MOL0     C 7238   8.626   7.435   8.273  0.2331 -0.4225 -0.8174
   53MOL0     C 7239   8.615   7.542   8.164 -0.6495 -1.3252 -0.0338
   53MOL0     C 7240   8.521   7.526   8.057 -0.2919  0.5738 -0.0861
   53MOL0     C 7241   8.445   7.527   7.960  0.1724  0.1567 -0.6129
   53MOL0     C 7242   8.135   7.562   8.415 -0.2055 -0.2647 -0.3069
   53MOL0     C 7243   8.013   7.632   8.420 -0.2275  0.3369 -0.8567
   53MOL0     C 7244   7.928   7.634   8.291 -0.4459 -0.5463 -0.3356
   53MOL0     H 7245   7.566   7.759   8.754 -2.5216  1.5522  2.3022
   53MOL0     H 7246   7.396   7.926   8.776 -2.9517 -0.4335 -3.0075
   53MOL0     H 7247   7.270   8.167   8.425  3.2877 -0.7259 -2.7519
   53MOL0     H 7248   7.389   8.276   8.499 -0.1095 -0.7826 -2.4331
   53MOL0     H 7249   7.228   8.309   8.694  0.1254 -1.4710  0.4597
   53MOL0     H 7250   7.159   8.362   8.538  1.1400  1.4656  0.0789
   53MOL0     H 7251   7.037   8.174   8.495  1.3800  4.2227 -1.1490
   53MOL0     H 7252   7.074   8.107   8.664 -1.6308  0.0350 -0.7972
   53MOL0     H 7253   6.969   8.306   8.765 -0.4069  0.4701  0.4607
   53MOL0     H 7254   6.937   8.368   8.604  0.0159 -0.1420 -0.8150
   53MOL0     H 7255   6.822   8.114   8.749 -3.6258 -0.3367 -0.3751
   53MOL0     H 7256   6.772   8.140   8.587  1.1557 -1.7879  0.5309
   53MOL0     H 7257   6.729   8.335   8.817  2.8384 -0.3608 -1.2248
   53MOL0     H 7258   6.665   8.343   8.654  0.0760 -0.2853 -0.6747
   53MOL0     H 7259   6.582   8.120   8.851  1.4054  1.2529  0.2348
   53MOL0     H 7260   6.532   8.123   8.681 -2.4343  1.7258 -0.2667
   53MOL0     H 7261   6.463   8.346   8.868  0.1654 -0.3305  0.5414
   53MOL0     H 7262   6.423   8.355   8.704  0.7740  0.6500 -0.6032
   53MOL0     H 7263   6.265   8.152   8.610  1.3475  1.0743 -0.2572
   53MOL0     H 7264   6.054   8.038   8.615 -1.3969  0.8998  0.8749
   53MOL0     H 7265   5.958   8.018   8.765 -2.5858 -2.3659 -0.3581
   53MOL0     H 7266   6.172   7.821   8.698 -0.2143 -0.5249 -2.5249
   53MOL0     H 7267   6.056   7.794   8.820 -1.2804 -1.2147 -1.3351
   53MOL0     H 7268   5.987   7.809   8.535  1.3210 -2.6383 -1.4657
   53MOL0     H 7269   5.963   7.662   8.634 -0.6154 -0.0917 -0.9236
   53MOL0     H 7270   5.792   7.907   8.664 -1.4934  0.2252 -0.2245
   53MOL0     H 7271   5.747   7.754   8.599 -0.4279  3.8095 -1.8505
   53MOL0     H 7272   5.793   7.767   9.041  0.3239  2.0501  0.2818
   53MOL0     H 7273   5.602   7.897   9.265  1.4769  1.7497 -4.2146
   53MOL0     H 7274   5.666   7.739   9.268  0.1594 -0.7611  0.7680
   53MOL0     H 7275   5.490   7.747   9.270  0.0783  1.0164  1.9800
   53MOL0     H 7276   5.174   7.910   9.302  1.7594  0.0760 -3.3451
   53MOL0     H 7277   4.924   7.950   9.385  1.1461  0.4593  1.1634
   53MOL0     H 7278   4.647   7.878   9.105 -0.8305  2.5264 -0.2357
   53MOL0     H 7279   4.567   7.747   9.190  3.5008 -0.9983 -1.1827
   53MOL0     H 7280   4.559   8.033   9.287 -2.0762 -0.3127  1.7735
   53MOL0     H 7281   4.434   7.953   9.195  2.8350 -1.5817 -3.2854
   53MOL0     H 7282   4.531   7.828   9.455 -1.5834  1.8352  1.3395
   53MOL0     H 7283   4.398   7.776   9.352 -0.3386  0.8547 -1.2444
   53MOL0     H 7284   4.264   7.979   9.398 -0.1557 -2.5217 -1.5200
   53MOL0     H 7285   4.409   8.032   9.489 -0.7969  0.2898  4.3373
   53MOL0     H 7286   4.265   7.787   9.579 -2.0695  1.1068 -0.8006
   53MOL0     H 7287   4.401   7.860   9.656 -0.1526  0.0546 -0.5578
   53MOL0     H 7288   4.141   8.012   9.625 -1.5296 -1.4537  0.0497
   53MOL0     H 7289   4.288   8.041   9.732 -0.8410  0.7339 -0.4773
   53MOL0     H 7290   4.182   7.791   9.793  2.2360  1.6665  1.5549
   53MOL0     H 7291   4.036   7.885   9.762 -0.2254  0.2896  0.0114
   53MOL0     H 7292   4.115   8.061   9.919  0.0319 -0.1128 -0.2282
   53MOL0     H 7293   4.263   7.958   9.957 -0.0715 -1.4077  0.4833
   53MOL0     H 7294   4.798   7.651   9.108 -1.5357  2.1378 -0.3192
   53MOL0     H 7295   5.025   7.627   9.020 -0.6463 -0.6047  0.2770
   53MOL0     H 7296   5.355   7.790   8.827 -0.5215 -1.8086  1.3849
   53MOL0     H 7297   5.554   7.800   8.694 -0.1324  0.2381  1.0765
   53MOL0     H 7298   7.485   8.072   8.388 -1.9502  1.1392  1.4713
   53MOL0     H 7299   7.653   7.882   8.364  0.2306 -2.3185  0.0193
   53MOL0     H 7300   8.085   7.706   8.756 -0.5446 -3.7071  2.4359
   53MOL0     H 7301   8.276   7.592   8.712  3.7082  0.9926 -2.2402
   53MOL0     H 7302   8.425   7.624   8.400  1.3165  0.4816  1.1474
   53MOL0     H 7303   8.524   7.539   8.520 -2.3486 -2.4877  3.7659
   53MOL0     H 7304   8.406   7.400   8.271 -1.3514 -0.2796  1.1509
   53MOL0     H 7305   8.481   7.330   8.412 -0.4360  0.2187  0.7520
   53MOL0     H 7306   8.691   7.462   8.357 -2.4953 -1.8953  1.9996
   53MOL0     H 7307   8.661   7.344   8.225 -1.3684 -0.2994 -2.3326
   53MOL0     H 7308   8.713   7.546   8.115  1.1181  1.8095  3.2663
   53MOL0     H 7309   8.602   7.635   8.221  3.0031 -1.1486  0.7697
   53MOL0     H 7310   8.382   7.560   7.880 -0.7577  2.1063  0.8556
   53MOL0     H 7311   8.146   7.519   8.316 -0.9186  0.0227 -0.5190
   53MOL0     H 7312   7.990   7.625   8.201 -1.3072 -0.6676 -0.9267
   53MOL0     H 7313   7.859   7.550   8.293 -1.1678 -0.2817  5.9332
   53MOL0     H 7314   7.868   7.726   8.292 -0.4914 -0.5336  2.0695
   54MOL0     O 7315   9.445   8.385  10.994  0.9181 -0.1342 -0.3497
   54MOL0     C 7316   9.524   8.474  10.977 -1.3460  0.7675  0.4686
   54MOL0     O 7317   9.636   8.497  11.048 -0.6384  0.2657 -0.1503
   54MOL0     C 7318   9.684   8.403  11.137  0.2901  1.5582  0.2562
   54MOL0     C 7319   9.757   8.439  11.253  0.4094 -0.3608 -0.5523
   54MOL0     C 7320   9.817   8.348  11.348 -0.2540 -0.1760  0.9925
   54MOL0     C 7321   9.811   8.208  11.318  0.5233 -0.0147  0.2080
   54MOL0     O 7322   9.881   8.137  11.403 -0.1964  0.2841 -0.2574
   54MOL0     C 7323   9.874   7.997  11.414 -0.5562  0.2874  0.5119
   54MOL0     C 7324   9.731   7.957  11.466 -0.2224  0.0418 -0.4536
   54MOL0     C 7325   9.691   7.815  11.422 -0.0432 -0.7302  0.5209
   54MOL0     C 7326   9.818   7.728  11.446 -0.1963 -0.5379  0.0803
   54MOL0     C 7327   9.776   7.577  11.429  0.6756 -0.4194  1.4529
   54MOL0     C 7328   9.828   7.496  11.306  0.9640  0.3926 -0.4136
   54MOL0     C 7329   9.838   7.553  11.164  1.0901 -0.0818  0.0744
   54MOL0     C 7330   9.690   7.582  11.112 -0.5155 -0.4254  0.3469
   54MOL0     N 7331   9.626   7.469  11.047  0.5031  0.5840 -0.1052
   54MOL0     C 7332   9.681   7.357  10.983  0.5133 -0.5207  0.1787
   54MOL0     C 7333   9.569   7.294  10.932  0.8869  0.4377  0.1773
   54MOL0     C 7334   9.560   7.176  10.839 -0.1323  0.0485 -0.6496
   54MOL0     C 7335   9.557   7.050  10.920 -0.7050  0.3497 -0.1392
   54MOL0     C 7336   9.587   6.921  10.839 -0.0108  0.4310 -0.8505
   54MOL0     C 7337   9.458   6.865  10.773  0.1302 -0.4916 -0.1463
   54MOL0     O 7338   9.365   6.800  10.864  0.7067  0.6533 -0.3640
   54MOL0     C 7339   9.395   6.688  10.934  1.1589  0.1300  0.2971
   54MOL0     C 7340   9.322   6.664  11.055 -0.0252  0.2914  0.6148
   54MOL0     C 7341   9.338   6.542  11.120  0.2822 -0.6896 -0.3096
   54MOL0     C 7342   9.257   6.516  11.236  0.3978  0.2820  0.4743
   54MOL0     C 7343   9.421   6.445  11.069  0.4992  0.5594  0.2027
   54MOL0     C 7344   9.466   6.324  11.148 -0.3259  0.0118 -0.4337
   54MOL0     O 7345   9.481   6.208  11.085 -0.3121  0.3826  0.7117
   54MOL0     C 7346   9.544   6.115  11.160  0.0593  0.5937 -0.6339
   54MOL0     C 7347   9.685   6.112  11.181  0.2276  0.0877  0.2519
   54MOL0     C 7348   9.744   6.016  11.269 -0.1657 -1.2696  0.3792
   54MOL0     C 7349   9.673   5.908  11.319 -0.3070 -0.2163  1.2440
   54MOL0     O 7350   9.745   5.812  11.391 -0.5537 -0.5979 -0.1507
   54MOL0     C 7351   9.773   5.859  11.527 -0.2508  0.0992 -0.2945
   54MOL0     C 7352   9.691   5.800  11.643 -0.6955 -0.9593  0.6184
   54MOL0     C 7353   9.543   5.820  11.637  0.3964 -0.1214 -0.1006
   54MOL0     C 7354   9.481   5.791  11.764  0.1873 -0.6508 -0.0584
   54MOL0     C 7355   9.325   5.794  11.745 -0.1407 -0.3230 -0.2219
   54MOL0     C 7356   9.268   5.674  11.662 -0.6736 -0.0027  0.1906
   54MOL0     C 7357   9.114   5.699  11.671  0.2447  0.7329 -0.2051
   54MOL0     C 7358   9.053   5.636  11.797  0.1971 -0.0318  1.0549
   54MOL0    Cl 7359   9.081   5.461  11.793  0.4119  0.3027 -0.0878
   54MOL0     C 7360   9.534   5.914  11.306 -0.7399 -0.4831 -1.1826
   54MOL0     C 7361   9.471   6.014  11.222 -0.3372  0.6977 -0.8429
   54MOL0     O 7362   9.490   6.336  11.271  0.6604  0.0417 -0.0822
   54MOL0     C 7363   9.496   6.474  10.954  0.4458  0.6364 -0.1485
   54MOL0     C 7364   9.483   6.584  10.885 -0.3098 -0.2007  0.1432
   54MOL0     N 7365   9.457   7.370  10.965 -0.1057  0.4590 -0.8006
   54MOL0     N 7366   9.492   7.467  11.045 -0.1851  0.3622 -0.1856
   54MOL0     C 7367   9.749   8.165  11.199 -0.1877  0.0667  0.7955
   54MOL0     C 7368   9.682   8.259  11.111  1.1826 -0.1439  0.0996
   54MOL0     C 7369   9.494   8.560  10.867  0.8472  0.4681  0.9849
   54MOL0     C 7370   9.389   8.516  10.779  0.3168  0.4305  0.3238
   54MOL0     C 7371   9.345   8.574  10.660 -1.1943 -1.3333 -0.3722
   54MOL0     C 7372   9.392   8.707  10.641 -0.2440 -0.5751 -0.4277
   54MOL0     O 7373   9.325   8.785  10.541  0.5748  1.0486  0.0986
   54MOL0     C 7374   9.376   8.912  10.507  0.1508  0.1011  0.0009
   54MOL0     C 7375   9.318   8.944  10.365 -0.1654 -0.1493 -0.3579
   54MOL0     C 7376   9.386   8.861  10.251 -0.6013  0.6361  0.5553
   54MOL0     C 7377   9.351   8.910  10.106 -0.1784 -0.8461 -0.4048
   54MOL0     C 7378   9.407   9.041  10.073  0.4918 -0.1072 -0.7973
   54MOL0     C 7379   9.453   9.154  10.062 -0.5843  0.8582 -0.4217
   54MOL0     C 7380   9.512   8.750  10.712  0.3327  0.0038 -0.2145
   54MOL0     C 7381   9.553   8.688  10.832  0.3755  0.3706 -0.5782
   54MOL0     C 7382   9.685   8.745  10.899  0.0395 -0.9179  0.3331
   54MOL0     H 7383   9.767   8.547  11.262  0.4638 -0.3622 -0.6047
   54MOL0     H 7384   9.881   8.382  11.429  2.2421  0.4198 -1.0542
   54MOL0     H 7385   9.954   7.965  11.482 -2.8098  0.8089  3.6127
   54MOL0     H 7386   9.900   7.965  11.313  1.0918  0.1332  0.9546
   54MOL0     H 7387   9.734   7.958  11.575 -5.3055  1.2375 -0.0906
   54MOL0     H 7388   9.649   8.025  11.439 -1.5729 -1.5625 -0.5656
   54MOL0     H 7389   9.611   7.781  11.487 -0.1699 -0.1763  0.6542
   54MOL0     H 7390   9.671   7.819  11.314  0.2174 -0.7234  0.4710
   54MOL0     H 7391   9.899   7.757  11.378 -1.5579 -0.0025 -1.3683
   54MOL0     H 7392   9.849   7.750  11.548  1.5634 -1.3988 -0.2355
   54MOL0     H 7393   9.672   7.549  11.411  1.4412 -1.6141 -1.8171
   54MOL0     H 7394   9.812   7.529  11.520  3.0210  0.4946  1.0833
   54MOL0     H 7395   9.919   7.444  11.338  0.3760  1.7234  4.2000
   54MOL0     H 7396   9.763   7.410  11.293  1.4854  0.3797 -3.8563
   54MOL0     H 7397   9.896   7.492  11.095 -0.1951  0.4354 -1.5454
   54MOL0     H 7398   9.900   7.643  11.160 -1.2171  1.5613 -3.0961
   54MOL0     H 7399   9.635   7.632  11.192  0.6398  0.5191  0.5714
   54MOL0     H 7400   9.688   7.655  11.030 -3.9849 -0.4402  0.2630
   54MOL0     H 7401   9.788   7.341  10.972  0.8200  0.7743  1.1035
   54MOL0     H 7402   9.647   7.181  10.773  1.7892 -0.9211  1.6488
   54MOL0     H 7403   9.479   7.196  10.768  1.1345  1.4146 -1.7848
   54MOL0     H 7404   9.627   7.060  11.004 -0.7120 -2.9063  0.3777
   54MOL0     H 7405   9.455   7.043  10.958 -0.6967  1.0495  0.0234
   54MOL0     H 7406   9.661   6.952  10.765  1.9771 -1.4338  0.2138
   54MOL0     H 7407   9.611   6.836  10.904 -5.0174 -1.4772 -1.0504
   54MOL0     H 7408   9.405   6.950  10.729  4.4949  1.8680 -1.3599
   54MOL0     H 7409   9.487   6.803  10.688  0.1438 -0.8818  0.1392
   54MOL0     H 7410   9.267   6.749  11.093  3.0450  2.4238  0.6576
   54MOL0     H 7411   9.217   6.415  11.229  1.9268 -0.2713 -4.2008
   54MOL0     H 7412   9.184   6.597  11.235  0.6858  0.5564  1.2869
   54MOL0     H 7413   9.311   6.538  11.328  0.4031 -0.1243  0.5695
   54MOL0     H 7414   9.739   6.195  11.137  2.3190 -0.7932  1.0075
   54MOL0     H 7415   9.851   6.028  11.287 -0.0138 -3.4037  1.1052
   54MOL0     H 7416   9.877   5.829  11.545 -1.0775 -0.7546  4.3107
   54MOL0     H 7417   9.762   5.968  11.528  0.0568  0.1806 -1.9674
   54MOL0     H 7418   9.721   5.695  11.647 -1.7414 -1.3607 -1.1036
   54MOL0     H 7419   9.723   5.854  11.733 -1.2054  3.0770 -1.3846
   54MOL0     H 7420   9.522   5.744  11.561  1.7508  0.3760 -1.0129
   54MOL0     H 7421   9.515   5.919  11.601 -0.2069  0.1520  1.0914
   54MOL0     H 7422   9.508   5.864  11.842  1.0393 -2.4825  1.4622
   54MOL0     H 7423   9.502   5.690  11.799  2.5566 -1.3988 -3.1872
   54MOL0     H 7424   9.278   5.783  11.843 -0.3536 -0.0931 -0.2943
   54MOL0     H 7425   9.282   5.891  11.716 -4.7634 -1.2270  2.5955
   54MOL0     H 7426   9.303   5.581  11.707  2.3676 -0.5192 -2.8026
   54MOL0     H 7427   9.306   5.664  11.559 -1.0767 -2.0618  0.1992
   54MOL0     H 7428   9.067   5.649  11.585  4.2100 -0.4647 -1.9152
   54MOL0     H 7429   9.084   5.804  11.676 -3.8089 -0.2846  0.3233
   54MOL0     H 7430   8.947   5.660  11.808 -0.3914 -2.1728  0.3914
   54MOL0     H 7431   9.114   5.678  11.878  1.1658 -2.3006  1.5656
   54MOL0     H 7432   9.476   5.833  11.350  0.1838 -0.8599 -0.6268
   54MOL0     H 7433   9.364   6.004  11.206  0.0719  0.7717 -4.4944
   54MOL0     H 7434   9.565   6.397  10.922 -0.7938  0.3113 -2.2019
   54MOL0     H 7435   9.515   6.588  10.781  1.3568  1.9995  0.6632
   54MOL0     H 7436   9.760   8.058  11.189  1.6236  0.1009  2.0558
   54MOL0     H 7437   9.640   8.220  11.018 -1.2277 -0.4066  1.2113
   54MOL0     H 7438   9.326   8.430  10.802  0.1679 -0.5409 -3.1152
   54MOL0     H 7439   9.256   8.532  10.614 -1.6675 -0.7658  0.0004
   54MOL0     H 7440   9.336   8.990  10.572 -1.7213 -1.1406  0.4035
   54MOL0     H 7441   9.485   8.905  10.503  0.1257 -1.5251  1.3406
   54MOL0     H 7442   9.328   9.053  10.356 -1.0809  0.0537  0.8618
   54MOL0     H 7443   9.217   8.907  10.351 -0.4005  0.4377 -0.2448
   54MOL0     H 7444   9.494   8.861  10.270 -0.4112 -0.9266 -0.3276
   54MOL0     H 7445   9.343   8.762  10.267  2.1955 -1.2425 -2.2921
   54MOL0     H 7446   9.245   8.913  10.082 -0.1027 -0.9270 -0.7546
   54MOL0     H 7447   9.399   8.841  10.036 -0.4084 -1.0012 -0.4075
   54MOL0     H 7448   9.467   9.260  10.065 -1.6916  1.0105 -0.0806
   54MOL0     H 7449   9.549   8.847  10.683  0.1102 -0.2086 -1.2392
   54MOL0     H 7450   9.703   8.718  11.003  3.0628  2.6396  0.9286
   54MOL0     H 7451   9.778   8.715  10.851  2.8273  1.2834  3.8131
   54MOL0     H 7452   9.680   8.855  10.901  0.5003 -0.7474 -2.8379
   55MOL0     O 7453   1.226   9.552   2.860 -0.2193  0.2788 -0.8601
   55MOL0     C 7454   1.246   9.450   2.790 -0.3119 -0.5726 -0.2287
   55MOL0     O 7455   1.201   9.429   2.663  0.0893  0.0117 -0.1743
   55MOL0     C 7456   1.155   9.544   2.606 -0.0790 -0.3684 -0.8273
   55MOL0     C 7457   1.239   9.623   2.542 -0.2625 -0.6415  0.2442
   55MOL0     C 7458   1.198   9.752   2.515  0.3059  0.6819 -0.6951
   55MOL0     C 7459   1.060   9.789   2.533  1.1901  0.2752 -0.1962
   55MOL0     O 7460   1.005   9.918   2.510 -0.1617 -0.3850 -0.7176
   55MOL0     C 7461   1.095  10.014   2.464  0.4986  0.1904  0.0984
   55MOL0     C 7462   1.022  10.148   2.461 -0.6933  0.3821  0.4106
   55MOL0     C 7463   0.983  10.204   2.600 -0.0598 -0.6419  0.2511
   55MOL0     C 7464   0.859  10.292   2.593 -0.0622 -0.6265 -0.2093
   55MOL0     C 7465   0.820  10.347   2.726 -0.8003  0.2510  1.0811
   55MOL0     C 7466   0.668  10.308   2.770  0.3834 -0.5064 -0.1453
   55MOL0     C 7467   0.629  10.320   2.916 -0.4656  0.2819 -0.6974
   55MOL0     C 7468   0.663  10.200   3.012  0.5801 -0.7175 -0.8271
   55MOL0     N 7469   0.625  10.229   3.149  0.7187  0.5957  0.5689
   55MOL0     C 7470   0.509  10.183   3.211 -0.7764 -0.0476 -0.5750
   55MOL0     C 7471   0.518  10.236   3.338 -0.6313  0.3315 -0.5653
   55MOL0     C 7472   0.404  10.223   3.433 -0.0300  0.8154 -0.4697
   55MOL0     C 7473   0.345  10.360   3.466 -0.3175 -0.8264  0.7284
   55MOL0     C 7474   0.226  10.355   3.563  0.5384 -0.9458 -0.4000
   55MOL0     C 7475   0.108  10.267   3.516  0.5998  0.4468 -0.4492
   55MOL0     O 7476   0.009  10.275   3.607 -0.0382 -0.0497 -0.2955
   55MOL0     C 7477  -0.074  10.169   3.632 -0.0214  0.2725 -0.2615
   55MOL0     C 7478  -0.138  10.194   3.757 -0.0920  0.1105 -0.9524
   55MOL0     C 7479  -0.210  10.093   3.819  0.6929  0.5571 -0.2876
   55MOL0     C 7480  -0.298  10.117   3.947 -0.1843  0.9239 -0.7084
   55MOL0     C 7481  -0.227   9.970   3.755 -0.5702  0.7562  0.0664
   55MOL0     C 7482  -0.296   9.860   3.820 -0.2578  0.7669 -0.8208
   55MOL0     O 7483  -0.226   9.782   3.905 -1.0576 -0.2544 -0.1302
   55MOL0     C 7484  -0.287   9.710   4.006  0.3714 -1.2243 -0.3684
   55MOL0     C 7485  -0.238   9.737   4.138 -0.4101 -0.0437  0.3295
   55MOL0     C 7486  -0.289   9.677   4.253  0.2803 -0.7095  0.2126
   55MOL0     C 7487  -0.406   9.599   4.248 -0.5123  0.2204  0.1166
   55MOL0     O 7488  -0.467   9.562   4.366  0.1632  0.1534  0.1849
   55MOL0     C 7489  -0.386   9.535   4.479 -0.0994  0.9219  0.6432
   55MOL0     C 7490  -0.457   9.464   4.606 -0.8390  0.3568 -0.1679
   55MOL0     C 7491  -0.558   9.555   4.679  0.1695  0.9826  0.2671
   55MOL0     C 7492  -0.633   9.485   4.794  0.1637  0.2394  0.7976
   55MOL0     C 7493  -0.754   9.396   4.750  0.3692  0.2331 -0.3373
   55MOL0     C 7494  -0.876   9.482   4.720 -0.7057  0.1065  0.8449
   55MOL0     C 7495  -0.933   9.546   4.843  0.1120 -0.3549 -1.0874
   55MOL0     C 7496  -1.050   9.637   4.814  0.1137 -0.3090 -0.2374
   55MOL0    Cl 7497  -1.194   9.541   4.753 -0.0467 -0.2353  0.0644
   55MOL0     C 7498  -0.460   9.571   4.122 -0.1399  0.1672 -0.0835
   55MOL0     C 7499  -0.401   9.623   4.005  0.2943 -0.6538  0.8257
   55MOL0     O 7500  -0.415   9.838   3.781 -0.3847 -1.9385 -0.2970
   55MOL0     C 7501  -0.172   9.941   3.631 -1.1649 -0.5846 -0.4193
   55MOL0     C 7502  -0.088  10.039   3.572  1.1575  0.2468  0.2924
   55MOL0     N 7503   0.638  10.302   3.360  0.0585 -0.3448  0.7791
   55MOL0     N 7504   0.699  10.299   3.244  0.2726 -0.4948  0.2513
   55MOL0     C 7505   0.975   9.697   2.582  0.9960  0.3165  0.9927
   55MOL0     C 7506   1.021   9.568   2.623 -0.0054 -0.2625  1.1611
   55MOL0     C 7507   1.320   9.342   2.855 -0.3071 -0.0354 -0.1491
   55MOL0     C 7508   1.420   9.375   2.948  1.0367  0.2079 -0.1508
   55MOL0     C 7509   1.485   9.272   3.024  0.5803 -0.4018 -0.0932
   55MOL0     C 7510   1.446   9.139   3.025  0.1734  0.2786  0.0306
   55MOL0     O 7511   1.486   9.045   3.117  0.5145  0.3744 -0.0548
   55MOL0     C 7512   1.466   8.898   3.080 -0.0353 -0.2749  0.0761
   55MOL0     C 7513   1.556   8.811   3.171  0.4401 -0.3844  0.7719
   55MOL0     C 7514   1.537   8.828   3.319  0.3575  0.8355 -0.9788
   55MOL0     C 7515   1.595   8.704   3.384 -0.6783  0.0558  0.2820
   55MOL0     C 7516   1.615   8.706   3.534  0.0508  0.5474 -0.6533
   55MOL0     C 7517   1.615   8.703   3.657  0.1921  0.1704 -0.1318
   55MOL0     C 7518   1.348   9.109   2.927 -0.1063 -0.1432  0.0510
   55MOL0     C 7519   1.292   9.202   2.833 -1.1643 -0.2916  0.2781
   55MOL0     C 7520   1.187   9.147   2.737  0.4312  0.5018  0.1236
   55MOL0     H 7521   1.342   9.589   2.555  0.0415  0.6862  1.5013
   55MOL0     H 7522   1.270   9.825   2.480 -0.6341  1.7270 -0.5189
   55MOL0     H 7523   1.155   9.981   2.379 -2.6926 -6.9375 -0.1243
   55MOL0     H 7524   1.166  10.019   2.547 -2.8673  4.1332  3.1880
   55MOL0     H 7525   1.084  10.224   2.413 -0.8359  0.8738  0.9847
   55MOL0     H 7526   0.935  10.153   2.395  1.3999  1.9333 -2.4683
   55MOL0     H 7527   0.956  10.126   2.672 -1.4327 -1.1838 -0.8009
   55MOL0     H 7528   1.071  10.253   2.643 -0.7061  2.2348 -1.4637
   55MOL0     H 7529   0.873  10.372   2.520 -1.2357 -0.8207 -0.6679
   55MOL0     H 7530   0.779  10.225   2.560 -1.4813  0.7189  0.3818
   55MOL0     H 7531   0.825  10.456   2.722 -4.7171  0.5144 -0.6732
   55MOL0     H 7532   0.900  10.315   2.794 -0.7421  1.0514  1.4019
   55MOL0     H 7533   0.599  10.384   2.732  1.4464  0.0691 -0.9870
   55MOL0     H 7534   0.641  10.210   2.732  0.9404 -0.3164 -1.0661
   55MOL0     H 7535   0.520  10.325   2.925 -0.5234 -2.6453  2.0126
   55MOL0     H 7536   0.665  10.417   2.952 -1.6828  0.0334  1.3459
   55MOL0     H 7537   0.610  10.111   2.976 -1.9742  1.6161 -3.3910
   55MOL0     H 7538   0.770  10.179   3.018  0.1904 -2.5815  0.3867
   55MOL0     H 7539   0.414  10.148   3.172 -2.8325 -0.3470  4.0398
   55MOL0     H 7540   0.422  10.177   3.531 -0.8217  0.3935 -0.5112
   55MOL0     H 7541   0.333  10.160   3.380  1.2261 -0.4809 -0.6554
   55MOL0     H 7542   0.423  10.424   3.509 -0.5242  0.9819 -1.4085
   55MOL0     H 7543   0.318  10.409   3.372  0.0697  0.9760  1.5037
   55MOL0     H 7544   0.264  10.333   3.663 -0.2936  1.9059  0.6659
   55MOL0     H 7545   0.194  10.460   3.562  1.5227 -0.6366 -0.7201
   55MOL0     H 7546   0.066  10.309   3.424  0.6879 -0.8327 -1.1036
   55MOL0     H 7547   0.139  10.165   3.492  2.3446  1.1195 -1.2223
   55MOL0     H 7548  -0.115  10.290   3.801  1.9384 -0.8595  0.2389
   55MOL0     H 7549  -0.403  10.126   3.916 -0.1180 -1.2977 -1.7606
   55MOL0     H 7550  -0.260  10.212   3.986  2.9156 -1.4309  2.6440
   55MOL0     H 7551  -0.281  10.047   4.030  3.1228  2.1101 -0.2673
   55MOL0     H 7552  -0.156   9.807   4.141 -0.2199 -0.2168 -0.5727
   55MOL0     H 7553  -0.242   9.708   4.346 -0.0195  0.3377  0.0298
   55MOL0     H 7554  -0.313   9.464   4.439 -1.3064  1.7465 -3.4666
   55MOL0     H 7555  -0.333   9.624   4.513 -1.2975  2.4473 -1.2752
   55MOL0     H 7556  -0.507   9.377   4.563  1.2382 -0.9701 -0.0018
   55MOL0     H 7557  -0.391   9.424   4.684 -2.7638  1.0113  1.9394
   55MOL0     H 7558  -0.634   9.596   4.613  2.3494  3.5407 -0.7922
   55MOL0     H 7559  -0.504   9.645   4.710 -1.6820  1.0255  4.0042
   55MOL0     H 7560  -0.660   9.562   4.867  1.6811  2.2063 -0.6130
   55MOL0     H 7561  -0.566   9.429   4.860 -2.1909  0.8288  3.9028
   55MOL0     H 7562  -0.728   9.345   4.657  4.2368  0.9744  0.1551
   55MOL0     H 7563  -0.778   9.330   4.833 -1.7783  2.8057  1.2653
   55MOL0     H 7564  -0.947   9.418   4.667 -1.0045 -0.4400  1.8815
   55MOL0     H 7565  -0.857   9.568   4.655 -2.4782  0.7355  1.1227
   55MOL0     H 7566  -0.856   9.600   4.898 -1.8004  0.3730  1.0335
   55MOL0     H 7567  -0.985   9.478   4.911 -0.1896  0.7044 -0.2253
   55MOL0     H 7568  -1.023   9.704   4.733 -3.5597  0.6045 -0.8342
   55MOL0     H 7569  -1.076   9.705   4.895 -0.6645 -0.8157 -0.0536
   55MOL0     H 7570  -0.542   9.500   4.119  1.4780 -1.8018 -0.3268
   55MOL0     H 7571  -0.450   9.595   3.913  0.7039 -2.4297  1.1125
   55MOL0     H 7572  -0.179   9.837   3.602  2.4900 -1.2002  0.3962
   55MOL0     H 7573  -0.041  10.021   3.476 -4.6378  0.9266 -3.1431
   55MOL0     H 7574   0.880   9.745   2.604 -0.3029 -1.6667 -0.0485
   55MOL0     H 7575   0.957   9.497   2.676 -3.0878 -0.2663 -2.1809
   55MOL0     H 7576   1.434   9.481   2.930 -0.1609 -0.0041 -2.9135
   55MOL0     H 7577   1.557   9.309   3.096  2.3414 -1.5085 -1.2155
   55MOL0     H 7578   1.362   8.878   3.107  0.5081 -0.5573  2.1173
   55MOL0     H 7579   1.492   8.883   2.975  1.0898  2.8145 -0.2016
   55MOL0     H 7580   1.661   8.823   3.143  0.2146 -4.0614 -2.6858
   55MOL0     H 7581   1.532   8.707   3.144  0.5130 -0.3652  0.6364
   55MOL0     H 7582   1.584   8.919   3.357  1.5373  0.0642 -0.5579
   55MOL0     H 7583   1.431   8.822   3.348  0.8618  2.6385  1.5508
   55MOL0     H 7584   1.685   8.682   3.326 -0.0716 -0.3246  1.3332
   55MOL0     H 7585   1.519   8.628   3.361 -0.7636  1.1094 -3.6599
   55MOL0     H 7586   1.604   8.695   3.764  1.3126 -1.3872 -0.0922
   55MOL0     H 7587   1.315   9.007   2.912 -0.8232  0.5552 -4.8484
   55MOL0     H 7588   1.233   9.128   2.640 -0.9838  1.6448 -0.8201
   55MOL0     H 7589   1.142   9.056   2.779 -0.6161  0.5697 -0.8013
   55MOL0     H 7590   1.101   9.215   2.726 -2.8504 -2.8648  2.3851
   56MOL0     O 7591   1.279   4.381   4.346  0.6843  0.3643 -0.4932
   56MOL0     C 7592   1.191   4.466   4.336 -0.8549 -0.7978 -0.6184
   56MOL0     O 7593   1.117   4.504   4.221  0.1993 -0.3086 -0.5564
   56MOL0     C 7594   1.175   4.462   4.102  0.5107 -1.2128 -0.1832
   56MOL0     C 7595   1.161   4.325   4.057  0.2785 -1.1305 -0.1310
   56MOL0     C 7596   1.227   4.282   3.946 -0.4789 -0.5436 -0.1262
   56MOL0     C 7597   1.289   4.374   3.860  0.0194  0.7741 -0.4152
   56MOL0     O 7598   1.348   4.343   3.742  0.1439  0.4935  0.0570
   56MOL0     C 7599   1.327   4.218   3.671 -0.3526 -0.8473  0.0711
   56MOL0     C 7600   1.429   4.114   3.708 -0.5776  0.2490 -0.6924
   56MOL0     C 7601   1.449   4.020   3.592 -0.1564  0.7899 -0.1764
   56MOL0     C 7602   1.545   3.902   3.626  0.0637 -0.5196 -0.1666
   56MOL0     C 7603   1.594   3.836   3.499 -0.4030  0.6378  0.2817
   56MOL0     C 7604   1.647   3.699   3.545  0.4634 -0.0732 -0.5383
   56MOL0     C 7605   1.698   3.608   3.443 -0.0312  0.0624  0.8383
   56MOL0     C 7606   1.771   3.486   3.495 -0.1066  0.4065 -0.1522
   56MOL0     N 7607   1.840   3.405   3.391  1.0720  0.2048  0.6321
   56MOL0     C 7608   1.942   3.325   3.432  1.0795  0.6000  1.5893
   56MOL0     C 7609   1.982   3.263   3.314 -0.2082 -0.8826 -0.7788
   56MOL0     C 7610   2.056   3.137   3.316 -0.2291  0.6669 -1.2319
   56MOL0     C 7611   2.011   3.047   3.431  1.3691 -0.1997  0.7182
   56MOL0     C 7612   2.072   2.901   3.404 -0.0940  0.1633 -0.0439
   56MOL0     C 7613   2.031   2.796   3.512  0.0561 -0.6870 -0.2336
   56MOL0     O 7614   1.889   2.779   3.535  0.9902 -0.7141  0.2442
   56MOL0     C 7615   1.846   2.678   3.618 -0.1908  0.0671 -0.0209
   56MOL0     C 7616   1.906   2.621   3.729 -1.0218  1.1979  1.2899
   56MOL0     C 7617   1.856   2.510   3.801  0.0685  0.6744 -0.3910
   56MOL0     C 7618   1.947   2.456   3.914 -0.2895 -0.8493  0.7347
   56MOL0     C 7619   1.735   2.454   3.762 -0.2598  0.6559  0.5480
   56MOL0     C 7620   1.672   2.343   3.832  0.7142  0.8025  0.2857
   56MOL0     O 7621   1.531   2.336   3.814  0.9746  0.2843 -0.3622
   56MOL0     C 7622   1.443   2.272   3.898  0.4067  0.3307 -1.1095
   56MOL0     C 7623   1.322   2.217   3.840 -0.1620 -0.4762  0.7583
   56MOL0     C 7624   1.222   2.149   3.914  0.8292  0.5741 -0.7197
   56MOL0     C 7625   1.236   2.140   4.050 -0.7910 -0.4175  0.0272
   56MOL0     O 7626   1.150   2.092   4.147 -0.8285  0.0722  0.2560
   56MOL0     C 7627   1.009   2.063   4.101 -0.4092  0.5474  0.5632
   56MOL0     C 7628   0.934   2.024   4.238 -0.9624 -0.3257  1.0546
   56MOL0     C 7629   0.800   1.966   4.191  0.6229  0.8412 -0.5393
   56MOL0     C 7630   0.722   1.914   4.321  0.6673  0.1961  0.6875
   56MOL0     C 7631   0.571   1.880   4.290  0.1606 -0.3707  0.1928
   56MOL0     C 7632   0.487   2.009   4.330 -0.0456  0.2178  0.4801
   56MOL0     C 7633   0.351   2.008   4.259  0.4038  0.7453  0.2877
   56MOL0     C 7634   0.276   1.876   4.271 -1.1018  0.1318  0.4222
   56MOL0    Cl 7635   0.143   1.885   4.153  0.0778 -0.5116 -0.8240
   56MOL0     C 7636   1.352   2.202   4.108  0.1272  0.0808 -0.0586
   56MOL0     C 7637   1.460   2.257   4.034  0.6873  0.2086 -0.4172
   56MOL0     O 7638   1.742   2.264   3.895 -0.5558 -0.1808 -0.8135
   56MOL0     C 7639   1.672   2.512   3.647 -0.0619  0.8608 -0.4505
   56MOL0     C 7640   1.728   2.623   3.583 -1.0222 -0.0376  0.0426
   56MOL0     N 7641   1.902   3.315   3.211  0.8583 -0.6073 -0.3430
   56MOL0     N 7642   1.815   3.401   3.261 -0.2249 -0.1076 -0.3465
   56MOL0     C 7643   1.295   4.508   3.903  0.1005 -0.2017 -0.1582
   56MOL0     C 7644   1.244   4.556   4.025  0.1593 -0.0665 -0.6474
   56MOL0     C 7645   1.161   4.524   4.468 -0.0284  0.7901  0.2348
   56MOL0     C 7646   1.251   4.608   4.536  0.4525 -0.5456  0.1080
   56MOL0     C 7647   1.215   4.677   4.652  0.1520  0.0865 -0.8235
   56MOL0     C 7648   1.082   4.671   4.695  0.4279  0.2559 -0.0462
   56MOL0     O 7649   1.054   4.740   4.810 -0.9683  0.0329  0.8070
   56MOL0     C 7650   0.950   4.701   4.885  0.8043  0.6888 -0.8712
   56MOL0     C 7651   0.954   4.782   5.018  0.1727  0.2830 -0.7551
   56MOL0     C 7652   0.802   4.790   5.075  0.6949  0.2392  0.1377
   56MOL0     C 7653   0.785   4.922   5.153  0.0265  1.1530 -0.2961
   56MOL0     C 7654   0.901   4.938   5.237  0.3964  0.3376 -1.5562
   56MOL0     C 7655   1.000   4.952   5.310 -0.0312 -1.3515 -0.8396
   56MOL0     C 7656   0.980   4.585   4.629 -0.8224  0.2358 -0.0257
   56MOL0     C 7657   1.022   4.521   4.513  1.1093 -0.0939 -0.2662
   56MOL0     C 7658   0.925   4.424   4.453  0.0611 -1.1017 -0.7359
   56MOL0     H 7659   1.111   4.256   4.125  1.4255 -0.8689  1.0351
   56MOL0     H 7660   1.212   4.184   3.903 -2.8905  0.6528 -2.2646
   56MOL0     H 7661   1.333   4.246   3.565  0.9620 -1.2468  0.0240
   56MOL0     H 7662   1.225   4.180   3.679 -0.1457 -1.4859 -0.2485
   56MOL0     H 7663   1.517   4.174   3.733 -0.4802 -0.5658  1.0362
   56MOL0     H 7664   1.402   4.060   3.799  2.1771 -1.0941 -0.5892
   56MOL0     H 7665   1.352   3.994   3.550 -1.3464  4.1455  0.2267
   56MOL0     H 7666   1.499   4.074   3.511 -2.3196 -0.3238 -2.3724
   56MOL0     H 7667   1.637   3.935   3.676  0.6779 -3.3649  0.7636
   56MOL0     H 7668   1.495   3.835   3.697  0.0088 -3.3674 -2.6904
   56MOL0     H 7669   1.676   3.886   3.446  0.3517 -2.1214 -1.3526
   56MOL0     H 7670   1.513   3.825   3.427 -1.0384  2.8324  0.5841
   56MOL0     H 7671   1.720   3.729   3.621  1.1647  0.7226 -1.4944
   56MOL0     H 7672   1.571   3.645   3.602 -0.8006  1.5459 -0.6203
   56MOL0     H 7673   1.768   3.664   3.382  0.7397 -0.6169  1.0795
   56MOL0     H 7674   1.613   3.571   3.384  0.3407 -0.8222  0.8465
   56MOL0     H 7675   1.841   3.527   3.569  0.0464  0.3339 -0.2563
   56MOL0     H 7676   1.694   3.423   3.541 -0.1464 -0.3256 -1.2077
   56MOL0     H 7677   1.983   3.305   3.531  3.5537  0.0612  0.5339
   56MOL0     H 7678   2.163   3.139   3.338 -1.1250  0.7451  5.0164
   56MOL0     H 7679   2.041   3.080   3.224  0.7402 -3.3348  0.8319
   56MOL0     H 7680   2.030   3.077   3.535 -2.1966  0.2520  1.3648
   56MOL0     H 7681   1.902   3.038   3.434  1.1977  1.5464  0.7410
   56MOL0     H 7682   2.043   2.865   3.305 -5.3580  1.7584  0.6295
   56MOL0     H 7683   2.180   2.917   3.404 -0.0364 -0.1241  1.3731
   56MOL0     H 7684   2.080   2.698   3.505 -2.2251 -1.9338  0.4352
   56MOL0     H 7685   2.084   2.836   3.599  1.8563 -0.1364 -1.5226
   56MOL0     H 7686   2.003   2.666   3.751 -0.7753  2.1178 -1.2990
   56MOL0     H 7687   1.898   2.502   4.001  1.0130  2.8162 -0.2963
   56MOL0     H 7688   2.043   2.507   3.909 -1.1856  1.2208  2.6751
   56MOL0     H 7689   1.967   2.348   3.920  1.7917 -0.6521 -1.3273
   56MOL0     H 7690   1.309   2.224   3.733 -2.4065  1.7082  1.0755
   56MOL0     H 7691   1.130   2.117   3.867  1.5419 -1.4023 -0.8525
   56MOL0     H 7692   0.964   2.150   4.053 -0.7487  1.1625  1.9537
   56MOL0     H 7693   1.011   1.975   4.036  1.6671 -0.1732  1.5075
   56MOL0     H 7694   0.982   1.945   4.297  3.1634  0.3993 -0.9321
   56MOL0     H 7695   0.928   2.116   4.298 -1.3786  0.9282 -0.8178
   56MOL0     H 7696   0.819   1.874   4.135  0.0120  0.4124 -0.0729
   56MOL0     H 7697   0.739   2.027   4.124 -1.2476 -1.3732 -1.0074
   56MOL0     H 7698   0.717   1.989   4.401 -1.6997 -0.6887  1.4428
   56MOL0     H 7699   0.780   1.835   4.369 -1.2755 -1.2076  0.8234
   56MOL0     H 7700   0.557   1.867   4.182  1.1565  1.5708 -0.2202
   56MOL0     H 7701   0.549   1.793   4.352  0.9143  0.8537  2.3182
   56MOL0     H 7702   0.536   2.102   4.301 -1.1689  0.1493 -1.8387
   56MOL0     H 7703   0.477   2.011   4.439  0.0225 -0.3736  0.5030
   56MOL0     H 7704   0.370   2.017   4.152 -1.5720 -6.0412 -1.0542
   56MOL0     H 7705   0.300   2.096   4.300  0.3902  1.8354 -1.9255
   56MOL0     H 7706   0.253   1.868   4.378  0.4737 -0.7284  0.7364
   56MOL0     H 7707   0.335   1.790   4.237 -2.8980 -2.2337  2.8532
   56MOL0     H 7708   1.363   2.185   4.215  2.0677 -2.4327 -0.5556
   56MOL0     H 7709   1.546   2.311   4.073 -0.8230 -0.4929  4.4342
   56MOL0     H 7710   1.572   2.483   3.617 -0.2620 -0.9740  1.7331
   56MOL0     H 7711   1.675   2.673   3.503  0.8914  4.0656  1.0960
   56MOL0     H 7712   1.353   4.576   3.842  2.4397 -2.9505 -1.2022
   56MOL0     H 7713   1.254   4.661   4.047  0.1383 -0.4688  1.4778
   56MOL0     H 7714   1.354   4.601   4.500 -0.2733 -2.0236 -1.8776
   56MOL0     H 7715   1.290   4.743   4.693  2.5123 -2.0186 -1.4997
   56MOL0     H 7716   0.856   4.716   4.831  2.4322  1.8113 -3.6363
   56MOL0     H 7717   0.969   4.595   4.904  3.8120  1.3541  0.4700
   56MOL0     H 7718   1.010   4.875   5.007  2.2777 -0.8826 -0.4771
   56MOL0     H 7719   1.020   4.726   5.085  0.0828 -0.0246 -0.9222
   56MOL0     H 7720   0.729   4.811   4.996  1.9195  1.7829 -0.6392
   56MOL0     H 7721   0.789   4.701   5.136 -1.6915 -0.6500 -1.5273
   56MOL0     H 7722   0.692   4.919   5.211 -0.4334  2.2904 -0.9385
   56MOL0     H 7723   0.784   5.004   5.081  2.2955 -0.5943 -2.5054
   56MOL0     H 7724   1.084   4.976   5.372  0.6991  1.4168 -2.7092
   56MOL0     H 7725   0.876   4.571   4.655 -0.9615 -0.3748 -0.8557
   56MOL0     H 7726   0.860   4.375   4.527  1.5778 -1.0014  0.7110
   56MOL0     H 7727   0.854   4.465   4.381 -1.7338 -1.4195  0.7674
   56MOL0     H 7728   0.974   4.342   4.401  4.1944 -0.7147  2.1062
   57MOL0     O 7729   2.816   6.847   4.208  0.4994 -0.5362  0.0372
   57MOL0     C 7730   2.925   6.828   4.142 -0.1060  0.0430 -0.2919
   57MOL0     O 7731   3.057   6.847   4.201  0.1351 -0.3209 -0.8668
   57MOL0     C 7732   3.064   6.911   4.325 -0.0020 -0.2412  0.6360
   57MOL0     C 7733   3.123   6.845   4.428 -0.5449 -0.3424  0.5230
   57MOL0     C 7734   3.129   6.893   4.553 -0.7981 -0.0421 -0.2247
   57MOL0     C 7735   3.084   7.025   4.587 -0.8282  1.2402  0.7576
   57MOL0     O 7736   3.100   7.090   4.705 -0.4966  0.4476 -0.0256
   57MOL0     C 7737   3.124   7.023   4.830  0.2364 -0.1216 -0.1442
   57MOL0     C 7738   3.262   7.081   4.888  0.3015  0.5446  0.2270
   57MOL0     C 7739   3.235   7.149   5.019  0.4234  0.3965 -0.3092
   57MOL0     C 7740   3.378   7.174   5.086 -0.0711  0.2046  0.2341
   57MOL0     C 7741   3.357   7.246   5.220 -0.4835 -0.9021 -1.0900
   57MOL0     C 7742   3.243   7.193   5.306 -0.0775  0.5012  0.0543
   57MOL0     C 7743   3.248   7.263   5.448  0.7831 -0.0193  0.1442
   57MOL0     C 7744   3.150   7.194   5.541 -0.0094 -0.0597 -0.0168
   57MOL0     N 7745   3.152   7.255   5.681  0.9268 -0.6109 -0.6128
   57MOL0     C 7746   3.200   7.382   5.721  0.2721  0.4234 -1.1298
   57MOL0     C 7747   3.204   7.378   5.862  1.0270 -0.2409  0.4960
   57MOL0     C 7748   3.239   7.509   5.942 -0.3768  0.0619 -0.3709
   57MOL0     C 7749   3.136   7.619   5.901 -0.6658  1.1247 -0.0542
   57MOL0     C 7750   3.160   7.748   5.973 -0.2055  0.1104  0.4593
   57MOL0     C 7751   3.278   7.827   5.932  0.1434  0.4631 -0.2033
   57MOL0     O 7752   3.286   7.948   6.010 -1.0212 -0.6909  0.6087
   57MOL0     C 7753   3.221   8.063   5.955 -0.6527 -0.3866  0.7854
   57MOL0     C 7754   3.127   8.050   5.848 -0.3862 -0.7190 -0.5137
   57MOL0     C 7755   3.054   8.156   5.795  0.1457 -0.1345 -0.7804
   57MOL0     C 7756   2.959   8.142   5.689 -0.4781  0.2023  0.6304
   57MOL0     C 7757   3.076   8.286   5.863 -0.1277  0.6740  0.1275
   57MOL0     C 7758   3.028   8.417   5.807  1.5947 -0.8648  1.2320
   57MOL0     O 7759   3.068   8.526   5.883  0.0073 -0.4060 -0.2401
   57MOL0     C 7760   3.053   8.653   5.832 -0.0699  1.0147 -0.5349
   57MOL0     C 7761   3.118   8.690   5.713 -0.3140 -0.7371 -0.3459
   57MOL0     C 7762   3.093   8.816   5.666 -0.5300 -0.1521  0.3676
   57MOL0     C 7763   3.010   8.905   5.731  0.3029  1.2960 -1.0268
   57MOL0     O 7764   2.997   9.015   5.661  0.1070  0.5427  0.1197
   57MOL0     C 7765   2.868   9.078   5.657  0.4113 -0.4056 -0.0585
   57MOL0     C 7766   2.887   9.192   5.551 -0.3560  0.7670 -1.0177
   57MOL0     C 7767   2.998   9.297   5.589 -0.3313  0.7227  1.1298
   57MOL0     C 7768   2.990   9.404   5.477 -0.4301 -0.6602 -0.4213
   57MOL0     C 7769   3.119   9.480   5.458 -0.0656 -0.1499 -0.1083
   57MOL0     C 7770   3.132   9.590   5.557  0.4563  0.1245  0.4266
   57MOL0     C 7771   3.278   9.628   5.585 -0.2150  0.8383 -0.1557
   57MOL0     C 7772   3.355   9.651   5.456 -0.2057  0.9231 -0.5859
   57MOL0    Cl 7773   3.523   9.705   5.504  0.0183 -0.1748 -0.0379
   57MOL0     C 7774   2.954   8.869   5.851 -0.0001 -0.1259  0.6417
   57MOL0     C 7775   2.970   8.743   5.906  0.0076 -0.2734 -0.3510
   57MOL0     O 7776   2.960   8.423   5.697  0.5266 -0.0973 -0.4177
   57MOL0     C 7777   3.160   8.295   5.975  0.2660  0.9059  0.3363
   57MOL0     C 7778   3.226   8.181   6.019 -0.1655 -0.4750  0.5350
   57MOL0     N 7779   3.148   7.261   5.900  0.2924  0.3423 -0.2417
   57MOL0     N 7780   3.128   7.181   5.789  0.1912  0.7520 -0.1648
   57MOL0     C 7781   3.037   7.094   4.481  0.2143 -1.0316 -0.4263
   57MOL0     C 7782   3.017   7.040   4.350  0.9549  0.2164 -0.2005
   57MOL0     C 7783   2.908   6.758   4.010  0.0088  0.8587 -1.1634
   57MOL0     C 7784   2.997   6.664   3.964 -0.0662  0.9040  0.7534
   57MOL0     C 7785   2.978   6.600   3.842  0.6058 -0.4411  0.4406
   57MOL0     C 7786   2.877   6.652   3.753 -0.1977 -0.6721 -0.0085
   57MOL0     O 7787   2.856   6.577   3.635  0.5455  0.7719 -0.3305
   57MOL0     C 7788   2.741   6.575   3.556  0.5570  0.5233 -0.7193
   57MOL0     C 7789   2.755   6.702   3.465  1.5194  0.1569  0.4116
   57MOL0     C 7790   2.614   6.723   3.403 -0.1420 -0.2536 -0.0250
   57MOL0     C 7791   2.615   6.779   3.254 -0.2485 -0.5726 -0.4532
   57MOL0     C 7792   2.676   6.681   3.172  0.8162  0.5904  0.1446
   57MOL0     C 7793   2.713   6.597   3.095  0.0265 -0.1898  0.3938
   57MOL0     C 7794   2.799   6.754   3.794  0.2770  0.1030 -0.3709
   57MOL0     C 7795   2.807   6.805   3.921  0.4419 -0.3728  0.9535
   57MOL0     C 7796   2.717   6.930   3.943 -0.3981 -0.2710  0.1621
   57MOL0     H 7797   3.176   6.752   4.410 -0.1960 -0.1758  0.6865
   57MOL0     H 7798   3.184   6.836   4.628 -0.6857  1.9674  1.3171
   57MOL0     H 7799   3.122   6.913   4.824  0.0962 -0.0721 -1.1317
   57MOL0     H 7800   3.047   7.046   4.904  2.0158 -1.1803  2.1508
   57MOL0     H 7801   3.345   7.010   4.888 -0.7817 -0.7622  0.7586
   57MOL0     H 7802   3.288   7.166   4.824  2.3301  1.6914  2.4401
   57MOL0     H 7803   3.183   7.244   5.004 -0.2259 -0.2741 -2.8556
   57MOL0     H 7804   3.174   7.084   5.083  2.4062 -0.9334  0.3314
   57MOL0     H 7805   3.432   7.081   5.100 -1.3798 -0.9486 -1.9112
   57MOL0     H 7806   3.433   7.241   5.020 -0.9209  2.0992  1.3381
   57MOL0     H 7807   3.320   7.349   5.211  1.1652  0.2592  3.1000
   57MOL0     H 7808   3.448   7.260   5.278 -2.1361  2.0879  1.0483
   57MOL0     H 7809   3.142   7.210   5.267 -0.9169 -2.0331  0.8998
   57MOL0     H 7810   3.257   7.085   5.316 -0.2037  0.3217 -1.4867
   57MOL0     H 7811   3.255   7.372   5.441 -1.2195  0.1284 -0.1870
   57MOL0     H 7812   3.346   7.234   5.487  0.5132 -2.6559 -0.9325
   57MOL0     H 7813   3.046   7.203   5.511  0.4066  2.3089 -0.9285
   57MOL0     H 7814   3.179   7.089   5.552  0.3790  0.1666  1.3679
   57MOL0     H 7815   3.249   7.458   5.662  2.2047 -0.4870 -0.7874
   57MOL0     H 7816   3.343   7.537   5.929 -0.1546  0.8372  2.4837
   57MOL0     H 7817   3.225   7.491   6.049 -4.7036  0.5497 -0.6575
   57MOL0     H 7818   3.146   7.632   5.792  1.1493 -0.9013 -0.1997
   57MOL0     H 7819   3.036   7.577   5.915 -0.5786  0.3695 -1.4180
   57MOL0     H 7820   3.074   7.814   5.955  1.9620  2.3929 -2.7332
   57MOL0     H 7821   3.175   7.730   6.079  4.8708  0.5537  0.0381
   57MOL0     H 7822   3.363   7.763   5.960  1.8741  2.3879 -0.8624
   57MOL0     H 7823   3.285   7.838   5.824 -2.1503 -0.7644 -0.5489
   57MOL0     H 7824   3.105   7.957   5.797 -1.6908 -0.0931 -1.1251
   57MOL0     H 7825   2.934   8.035   5.685  0.3500  0.0311 -2.5194
   57MOL0     H 7826   2.996   8.165   5.589 -4.0480  0.0870 -0.8727
   57MOL0     H 7827   2.869   8.200   5.711 -1.0889 -0.6394  0.4420
   57MOL0     H 7828   3.191   8.628   5.664  0.7635  1.2194 -1.3247
   57MOL0     H 7829   3.145   8.839   5.574 -1.4751 -2.0070 -0.6945
   57MOL0     H 7830   2.798   9.003   5.619  1.1680  0.5631 -3.7738
   57MOL0     H 7831   2.835   9.112   5.755  2.9595 -1.3918  1.2221
   57MOL0     H 7832   2.912   9.138   5.460 -2.3747  0.7372 -1.6023
   57MOL0     H 7833   2.790   9.239   5.534 -1.5765 -1.2575 -0.1092
   57MOL0     H 7834   3.099   9.259   5.570 -0.7950  0.1026 -0.2150
   57MOL0     H 7835   2.989   9.352   5.683 -1.5699  0.6361  1.0734
   57MOL0     H 7836   2.912   9.479   5.492  3.2309  3.0367  2.3966
   57MOL0     H 7837   2.976   9.354   5.381 -1.2026 -2.6769  0.6939
   57MOL0     H 7838   3.202   9.411   5.474  0.7477  1.4725  3.9545
   57MOL0     H 7839   3.131   9.515   5.355  0.4925 -0.9748 -0.3372
   57MOL0     H 7840   3.094   9.555   5.653 -1.0771  0.6781  0.0413
   57MOL0     H 7841   3.074   9.676   5.525 -1.0973 -0.6274  1.1246
   57MOL0     H 7842   3.334   9.550   5.637 -1.0032  0.5766  0.3083
   57MOL0     H 7843   3.280   9.714   5.653  1.8425  1.0438 -0.3935
   57MOL0     H 7844   3.304   9.722   5.391 -0.8059  1.9820  0.9936
   57MOL0     H 7845   3.357   9.552   5.409 -4.2227  0.3759  0.1059
   57MOL0     H 7846   2.904   8.943   5.914 -0.5285  1.8948 -1.9561
   57MOL0     H 7847   2.939   8.718   6.007  0.7268  1.7910  0.4509
   57MOL0     H 7848   3.175   8.383   6.038  1.3111  1.3304 -0.4794
   57MOL0     H 7849   3.285   8.196   6.109  0.4134  6.0859 -0.4622
   57MOL0     H 7850   2.994   7.191   4.502  0.7957 -0.8855  0.1182
   57MOL0     H 7851   2.971   7.092   4.267  1.5010  3.3646  1.3145
   57MOL0     H 7852   3.080   6.642   4.031 -1.3446  0.5899  2.2858
   57MOL0     H 7853   3.052   6.522   3.825  3.5898  1.5733  2.9997
   57MOL0     H 7854   2.737   6.477   3.507  3.1449 -1.0958  2.0065
   57MOL0     H 7855   2.664   6.572   3.634  2.0277  2.5985  0.9030
   57MOL0     H 7856   2.825   6.667   3.389 -0.1050  1.7282 -1.9731
   57MOL0     H 7857   2.776   6.790   3.525 -0.2791  0.6766  0.3360
   57MOL0     H 7858   2.558   6.630   3.391 -2.8124  1.3055 -0.4450
   57MOL0     H 7859   2.557   6.790   3.469  2.2034 -0.7817  2.7531
   57MOL0     H 7860   2.669   6.873   3.246  1.8115 -1.7203 -0.6397
   57MOL0     H 7861   2.514   6.778   3.212  0.4392 -1.5517 -2.1877
   57MOL0     H 7862   2.745   6.526   3.021  0.1551  1.6798 -1.4166
   57MOL0     H 7863   2.730   6.795   3.721 -0.8810 -0.0067  0.6275
   57MOL0     H 7864   2.715   6.991   3.853 -1.9813 -0.5699 -0.0315
   57MOL0     H 7865   2.614   6.894   3.944 -0.3481 -0.5087  2.5326
   57MOL0     H 7866   2.738   6.998   4.026 -3.4492  1.3603 -0.2482
   58MOL0     O 7867   6.301   1.242   1.378  0.1399  0.2074  0.2126
   58MOL0     C 7868   6.381   1.331   1.362  0.1830  0.0254  0.1933
   58MOL0     O 7869   6.408   1.378   1.236 -0.5563  0.8314 -0.4597
   58MOL0     C 7870   6.344   1.325   1.131  0.8113  0.4833  0.4152
   58MOL0     C 7871   6.397   1.218   1.067 -0.4203  1.2235  0.0849
   58MOL0     C 7872   6.332   1.153   0.962  1.3051 -0.4177 -0.3312
   58MOL0     C 7873   6.208   1.224   0.923 -0.3285 -0.3000  0.3651
   58MOL0     O 7874   6.139   1.183   0.812  0.8888 -0.1086  0.2028
   58MOL0     C 7875   6.122   1.046   0.761 -1.3399 -0.4892 -1.4984
   58MOL0     C 7876   5.984   1.012   0.698 -0.9760  0.4120  0.7742
   58MOL0     C 7877   5.863   1.098   0.762  0.6346  0.5906  0.4468
   58MOL0     C 7878   5.874   1.078   0.914  0.6375  0.0663 -0.4326
   58MOL0     C 7879   5.743   1.132   0.971 -0.2110 -0.2121 -0.1802
   58MOL0     C 7880   5.751   1.150   1.124  0.2447 -0.2840  0.5332
   58MOL0     C 7881   5.631   1.213   1.195  0.4872  0.1234 -0.3020
   58MOL0     C 7882   5.659   1.250   1.340 -0.2623  0.2705 -0.6361
   58MOL0     N 7883   5.533   1.299   1.405  0.0785  0.1299  0.3969
   58MOL0     C 7884   5.438   1.206   1.446  0.4144  0.1552  0.4071
   58MOL0     C 7885   5.379   1.263   1.552  1.0807 -0.0117 -0.6083
   58MOL0     C 7886   5.277   1.200   1.648  0.4364 -0.4183  0.8733
   58MOL0     C 7887   5.142   1.276   1.637 -0.1556  0.1367 -0.5017
   58MOL0     C 7888   5.049   1.228   1.752 -0.2838  0.0852  0.4052
   58MOL0     C 7889   5.104   1.247   1.895  0.3291 -1.1858 -0.6974
   58MOL0     O 7890   5.000   1.243   2.001  0.2342 -0.4335 -0.4864
   58MOL0     C 7891   4.908   1.342   2.019 -0.3734 -1.0133 -0.3038
   58MOL0     C 7892   4.797   1.327   2.098 -1.2480  0.3043 -0.3476
   58MOL0     C 7893   4.699   1.417   2.122  0.6018  0.5204 -0.2221
   58MOL0     C 7894   4.572   1.362   2.196  1.8017  0.2981  0.4279
   58MOL0     C 7895   4.712   1.544   2.056  0.2452 -0.6463 -0.8058
   58MOL0     C 7896   4.609   1.650   2.078 -0.1113 -1.3531 -0.5590
   58MOL0     O 7897   4.621   1.762   2.003  0.6939 -0.2589 -0.3496
   58MOL0     C 7898   4.506   1.840   1.992  0.3337  0.5002  0.3237
   58MOL0     C 7899   4.508   1.909   1.870  0.1173  0.3483  0.9706
   58MOL0     C 7900   4.404   2.001   1.830 -0.2877 -0.1062  0.9418
   58MOL0     C 7901   4.288   2.006   1.908  0.3393  1.1763 -0.1239
   58MOL0     O 7902   4.172   2.057   1.864  0.4380  0.5337  0.4978
   58MOL0     C 7903   4.140   2.057   1.722  0.4997  0.1393  0.4279
   58MOL0     C 7904   3.991   2.068   1.731 -0.4497 -0.6160 -0.1308
   58MOL0     C 7905   3.927   2.075   1.595 -0.2232 -0.4049 -0.4921
   58MOL0     C 7906   3.777   2.116   1.611 -1.0966  0.6098  0.6659
   58MOL0     C 7907   3.737   2.202   1.487  0.2061  0.3046 -0.1653
   58MOL0     C 7908   3.577   2.197   1.487  0.0005  0.5855  1.0251
   58MOL0     C 7909   3.513   2.253   1.363  0.7975 -0.6137  0.7158
   58MOL0     C 7910   3.360   2.286   1.388 -0.2919  0.0378  0.1719
   58MOL0    Cl 7911   3.279   2.299   1.228 -0.5664 -0.7719  0.3954
   58MOL0     C 7912   4.285   1.944   2.033  1.0588  1.2023  0.2124
   58MOL0     C 7913   4.396   1.869   2.075 -0.3016  0.8016  0.5364
   58MOL0     O 7914   4.528   1.642   2.170  0.0328 -0.3103  0.4626
   58MOL0     C 7915   4.829   1.573   1.984  0.3689 -0.4492 -0.1092
   58MOL0     C 7916   4.929   1.479   1.970  0.1485 -0.0041  0.1207
   58MOL0     N 7917   5.432   1.382   1.578 -0.2172 -0.1752 -0.7527
   58MOL0     N 7918   5.527   1.406   1.492  0.3789 -0.1114 -0.3376
   58MOL0     C 7919   6.157   1.332   0.989  0.1080 -1.1194  0.3110
   58MOL0     C 7920   6.231   1.388   1.094 -0.4184  0.7982  0.1259
   58MOL0     C 7921   6.448   1.397   1.470  0.5372  0.4546 -0.1173
   58MOL0     C 7922   6.506   1.523   1.440 -0.0663  0.4803 -0.6157
   58MOL0     C 7923   6.562   1.609   1.534  0.2697 -0.4122  0.3212
   58MOL0     C 7924   6.568   1.566   1.670  0.4429 -0.0548  0.5496
   58MOL0     O 7925   6.626   1.639   1.775  0.8247  0.5010  0.2858
   58MOL0     C 7926   6.663   1.771   1.730  0.0232 -0.3736  0.3173
   58MOL0     C 7927   6.669   1.869   1.848 -0.1650 -0.1417  0.0269
   58MOL0     C 7928   6.529   1.914   1.883  0.1041 -0.5171  0.2146
   58MOL0     C 7929   6.475   2.027   1.788 -0.7913  0.5171 -0.8787
   58MOL0     C 7930   6.336   2.055   1.815 -0.7834  1.3301  0.2409
   58MOL0     C 7931   6.229   2.104   1.821  0.2713  0.1223  0.5253
   58MOL0     C 7932   6.524   1.436   1.697 -0.1479  0.0564 -0.1894
   58MOL0     C 7933   6.467   1.346   1.606 -0.5467  0.2850  0.1949
   58MOL0     C 7934   6.418   1.216   1.656  0.6999  0.0615  1.3587
   58MOL0     H 7935   6.491   1.178   1.102 -1.1998  0.8930  1.9363
   58MOL0     H 7936   6.371   1.064   0.914  3.6168 -0.0672  0.7371
   58MOL0     H 7937   6.147   0.978   0.843  0.8405  1.6147 -0.2788
   58MOL0     H 7938   6.198   1.030   0.683  1.2649  1.2414  0.5287
   58MOL0     H 7939   5.997   1.041   0.593  1.0484  2.7212  1.5780
   58MOL0     H 7940   5.958   0.906   0.689 -0.2548  0.3514 -1.0589
   58MOL0     H 7941   5.878   1.204   0.739  2.4315  0.5188  1.1699
   58MOL0     H 7942   5.772   1.056   0.718 -0.7701  1.6828  2.1520
   58MOL0     H 7943   5.874   0.972   0.940 -0.2700 -0.1641 -1.3190
   58MOL0     H 7944   5.962   1.128   0.955 -0.4946  1.2346  0.6810
   58MOL0     H 7945   5.660   1.065   0.947  0.7810 -0.3735 -3.6987
   58MOL0     H 7946   5.715   1.232   0.934  0.1795  1.2661  3.1528
   58MOL0     H 7947   5.754   1.055   1.180 -2.7060  1.4715  4.1458
   58MOL0     H 7948   5.843   1.202   1.151  1.9328 -2.8509  0.1078
   58MOL0     H 7949   5.543   1.149   1.184 -0.7751  1.9881 -1.8370
   58MOL0     H 7950   5.594   1.302   1.144  1.2655  0.9957  0.6048
   58MOL0     H 7951   5.696   1.156   1.382  3.6563  1.7049 -0.5122
   58MOL0     H 7952   5.732   1.331   1.347 -0.5800  0.6771 -1.7908
   58MOL0     H 7953   5.413   1.105   1.414 -0.0506 -0.1646  1.7023
   58MOL0     H 7954   5.328   1.221   1.743  0.5865  1.2724  0.4479
   58MOL0     H 7955   5.263   1.093   1.632 -0.7145 -0.4621  1.9593
   58MOL0     H 7956   5.162   1.382   1.656  0.8110  0.0782 -1.0971
   58MOL0     H 7957   5.100   1.266   1.537  3.0101  0.2495 -1.9856
   58MOL0     H 7958   4.955   1.280   1.734  0.0904 -0.1407 -2.9765
   58MOL0     H 7959   5.009   1.126   1.741 -2.1086  0.6735  1.2964
   58MOL0     H 7960   5.179   1.169   1.909  1.6794  0.1881  0.0028
   58MOL0     H 7961   5.162   1.338   1.911 -2.0506  0.3166 -0.0684
   58MOL0     H 7962   4.801   1.230   2.146  1.5525 -1.9181 -4.4684
   58MOL0     H 7963   4.539   1.423   2.280  1.8938 -0.1521  0.7978
   58MOL0     H 7964   4.586   1.261   2.236 -3.0062 -0.5843  0.5531
   58MOL0     H 7965   4.490   1.365   2.124  0.2063  2.0175  2.1978
   58MOL0     H 7966   4.595   1.894   1.808 -0.4253 -0.2603  0.3486
   58MOL0     H 7967   4.411   2.046   1.731 -1.9381  1.1307  1.3360
   58MOL0     H 7968   4.200   2.141   1.686  0.0876 -0.6173 -2.2105
   58MOL0     H 7969   4.170   1.966   1.669  0.8824  0.5511 -0.0719
   58MOL0     H 7970   3.951   1.985   1.789 -1.2872 -0.0668  0.0919
   58MOL0     H 7971   3.968   2.157   1.790  2.9779  0.4839 -0.2014
   58MOL0     H 7972   3.939   1.981   1.541  0.0719  0.0948 -1.3045
   58MOL0     H 7973   3.974   2.155   1.538  2.6735 -0.1589  1.9415
   58MOL0     H 7974   3.773   2.184   1.696  0.2782  0.4573  0.8752
   58MOL0     H 7975   3.721   2.022   1.620  2.3245 -2.1665 -3.0082
   58MOL0     H 7976   3.784   2.301   1.492  2.1114 -0.5829  0.2051
   58MOL0     H 7977   3.768   2.155   1.393  0.1091  1.6278 -0.8853
   58MOL0     H 7978   3.552   2.270   1.565  0.7832  2.0218 -0.0150
   58MOL0     H 7979   3.545   2.092   1.491  3.4808 -0.5715  2.4818
   58MOL0     H 7980   3.508   2.172   1.289 -0.5849 -1.1050  1.3300
   58MOL0     H 7981   3.565   2.339   1.319 -0.0391  0.5546  1.9519
   58MOL0     H 7982   3.343   2.368   1.458  0.4438 -0.2879  0.7307
   58MOL0     H 7983   3.315   2.197   1.434 -1.6802  1.6482  2.0780
   58MOL0     H 7984   4.195   1.951   2.093 -1.4595 -3.4178 -2.4124
   58MOL0     H 7985   4.397   1.839   2.180 -0.5357  3.2757  1.3181
   58MOL0     H 7986   4.862   1.675   1.966 -1.8498  0.7304  2.0302
   58MOL0     H 7987   5.010   1.512   1.906  2.5160 -4.2327  0.5923
   58MOL0     H 7988   6.060   1.363   0.953  1.3352  1.4238 -1.1247
   58MOL0     H 7989   6.203   1.469   1.161  2.7952  1.5704  0.7323
   58MOL0     H 7990   6.523   1.565   1.342 -0.0598 -1.9902 -1.7285
   58MOL0     H 7991   6.614   1.696   1.496 -0.8504  0.1294  0.0129
   58MOL0     H 7992   6.762   1.752   1.687 -0.0842 -2.7171  0.9687
   58MOL0     H 7993   6.595   1.821   1.661 -1.3888 -0.4091  1.6455
   58MOL0     H 7994   6.717   1.963   1.820  0.1832 -0.6913 -1.2550
   58MOL0     H 7995   6.730   1.815   1.921  0.5699  0.8797  0.1905
   58MOL0     H 7996   6.473   1.821   1.871  3.6689 -3.0912  1.6761
   58MOL0     H 7997   6.522   1.938   1.990  3.5135  0.2013  0.3800
   58MOL0     H 7998   6.491   2.007   1.682 -3.3345  0.0778 -1.2223
   58MOL0     H 7999   6.524   2.125   1.802  0.2809 -0.4250  3.6595
   58MOL0     H 8000   6.129   2.128   1.792  1.2083  0.3761 -3.0150
   58MOL0     H 8001   6.524   1.416   1.804 -1.0310 -1.8718 -0.5052
   58MOL0     H 8002   6.416   1.209   1.765 -0.1387 -0.0116  1.3429
   58MOL0     H 8003   6.317   1.195   1.621  1.6616  2.6408 -3.9486
   58MOL0     H 8004   6.497   1.153   1.615  0.1120  1.8241 -3.0548
   59MOL0     O 8005   9.187   7.408   3.273  0.5117 -0.3013 -0.2695
   59MOL0     C 8006   9.121   7.370   3.366 -0.3937 -0.0991 -0.3354
   59MOL0     O 8007   9.165   7.357   3.494  0.3906 -0.0933 -0.3416
   59MOL0     C 8008   9.297   7.362   3.524  0.2330 -0.1487 -0.1254
   59MOL0     C 8009   9.393   7.264   3.478  0.3389 -0.7580  1.0355
   59MOL0     C 8010   9.527   7.278   3.516  0.1300  0.1547  0.0408
   59MOL0     C 8011   9.574   7.395   3.590  0.4263  0.4494  0.6849
   59MOL0     O 8012   9.701   7.447   3.603 -0.3612 -0.2441 -0.9726
   59MOL0     C 8013   9.814   7.359   3.560  0.0629 -0.2740 -0.1080
   59MOL0     C 8014   9.944   7.412   3.578 -1.4471 -0.7608  0.0858
   59MOL0     C 8015   9.960   7.436   3.732 -0.5090  1.0202 -0.3591
   59MOL0     C 8016  10.101   7.474   3.763 -1.1671 -1.3730  0.1887
   59MOL0     C 8017  10.148   7.505   3.908  0.5151  1.0257  0.0425
   59MOL0     C 8018  10.271   7.596   3.939  0.3295 -0.1822 -0.5858
   59MOL0     C 8019  10.360   7.547   4.048  0.7828 -0.2138  0.4340
   59MOL0     C 8020  10.298   7.589   4.194  0.5707  0.7087  1.2140
   59MOL0     N 8021  10.403   7.586   4.293  0.0894 -1.2153  0.3651
   59MOL0     C 8022  10.519   7.670   4.303  0.5946  0.3641  1.6195
   59MOL0     C 8023  10.569   7.655   4.425 -0.5551  0.8744  0.0443
   59MOL0     C 8024  10.688   7.721   4.482  0.4196 -0.5091 -0.3517
   59MOL0     C 8025  10.783   7.625   4.561 -0.9344  0.2651  0.6766
   59MOL0     C 8026  10.909   7.588   4.481 -0.0754  0.4023 -0.7303
   59MOL0     C 8027  10.990   7.477   4.572  0.9749 -0.1359 -0.9382
   59MOL0     O 8028  11.001   7.508   4.714 -0.3363 -0.4758 -0.2194
   59MOL0     C 8029  11.113   7.564   4.761  1.0831 -1.0937 -0.3426
   59MOL0     C 8030  11.182   7.666   4.688 -0.6606 -0.3725 -0.6852
   59MOL0     C 8031  11.296   7.733   4.739 -0.0609  0.5770 -1.2084
   59MOL0     C 8032  11.352   7.836   4.639  1.4714 -0.2228  0.5584
   59MOL0     C 8033  11.349   7.692   4.870 -0.1525 -0.1236 -0.0143
   59MOL0     C 8034  11.488   7.748   4.919 -0.5794 -0.2692 -0.4006
   59MOL0     O 8035  11.502   7.877   4.949  0.3415  0.3557  0.8247
   59MOL0     C 8036  11.626   7.939   4.953 -0.4798 -0.0124 -0.5795
   59MOL0     C 8037  11.645   8.046   5.047 -0.2454  0.9832  0.6665
   59MOL0     C 8038  11.772   8.085   5.073  0.4650 -0.9253  0.0678
   59MOL0     C 8039  11.876   8.037   4.998 -0.4931  0.3378  0.6348
   59MOL0     O 8040  11.997   8.088   5.032  0.4414  0.9953  0.2240
   59MOL0     C 8041  12.120   8.029   4.987 -0.1106 -0.6362  0.5133
   59MOL0     C 8042  12.153   7.904   5.070 -0.2997  0.4722 -0.4498
   59MOL0     C 8043  12.305   7.901   5.122  0.3863 -0.5555  0.5753
   59MOL0     C 8044  12.404   7.871   5.019 -0.5085  0.4389 -0.0677
   59MOL0     C 8045  12.542   7.871   5.067  0.0693 -0.5094  0.1887
   59MOL0     C 8046  12.655   7.847   4.969 -1.3056  0.0740 -0.0120
   59MOL0     C 8047  12.785   7.811   5.052 -0.7657  0.0665  0.0044
   59MOL0     C 8048  12.915   7.793   4.967 -1.2258 -0.4521  0.1478
   59MOL0    Cl 8049  12.907   7.665   4.842  0.5138  0.0508 -0.1530
   59MOL0     C 8050  11.853   7.933   4.910 -0.4246 -0.3826 -1.0395
   59MOL0     C 8051  11.731   7.885   4.875 -0.0290 -0.0323 -0.0951
   59MOL0     O 8052  11.570   7.664   4.943  0.6098  0.6119 -0.6703
   59MOL0     C 8053  11.272   7.593   4.938  0.7326  0.6140 -0.4054
   59MOL0     C 8054  11.149   7.541   4.892  0.0724 -0.8528 -1.2673
   59MOL0     N 8055  10.503   7.548   4.478 -0.0006 -0.6381 -0.0502
   59MOL0     N 8056  10.403   7.505   4.403  0.3500  0.0859  0.0044
   59MOL0     C 8057   9.479   7.474   3.646 -0.4646  0.2492  0.2944
   59MOL0     C 8058   9.336   7.468   3.621 -0.3732  0.4313  0.1487
   59MOL0     C 8059   8.969   7.358   3.340 -1.6579 -0.9545 -1.3126
   59MOL0     C 8060   8.895   7.453   3.260 -0.5537  0.4237 -0.5079
   59MOL0     C 8061   8.757   7.446   3.242  0.2509  0.1150 -0.1154
   59MOL0     C 8062   8.682   7.338   3.291 -0.2854  0.5171 -1.5009
   59MOL0     O 8063   8.546   7.327   3.272 -0.1435 -0.5678 -0.9858
   59MOL0     C 8064   8.511   7.214   3.194  0.4291 -0.0923  0.4688
   59MOL0     C 8065   8.603   7.177   3.074  0.7248  0.3593 -0.2290
   59MOL0     C 8066   8.536   7.069   2.985 -0.1779 -0.3939 -1.1711
   59MOL0     C 8067   8.600   7.079   2.850 -0.3004  0.0441  1.4761
   59MOL0     C 8068   8.534   7.163   2.747 -0.0565  0.6379 -0.5209
   59MOL0     C 8069   8.462   7.239   2.685  0.5165  0.4690 -0.3544
   59MOL0     C 8070   8.759   7.234   3.352  0.0078 -0.9480  0.3736
   59MOL0     C 8071   8.894   7.246   3.389  0.0997  0.4430  0.2706
   59MOL0     C 8072   8.970   7.128   3.449  0.2642  0.0114  0.7818
   59MOL0     H 8073   9.354   7.196   3.403 -0.0058 -1.6627  2.0190
   59MOL0     H 8074   9.597   7.205   3.476  0.0064  1.1918 -2.2471
   59MOL0     H 8075   9.799   7.332   3.455 -1.9831 -0.3943  0.1740
   59MOL0     H 8076   9.804   7.259   3.604  0.8995  0.3047  1.4683
   59MOL0     H 8077  10.017   7.340   3.541 -1.9034 -1.9767  1.4536
   59MOL0     H 8078   9.963   7.506   3.525 -2.3008  0.5703  2.0323
   59MOL0     H 8079   9.885   7.513   3.750  1.0259  2.2370  1.2082
   59MOL0     H 8080   9.943   7.341   3.783  2.9575  0.2519 -0.3666
   59MOL0     H 8081  10.176   7.406   3.723 -0.4850 -0.2254 -0.5321
   59MOL0     H 8082  10.113   7.561   3.699  0.7615 -0.8303  1.1880
   59MOL0     H 8083  10.181   7.408   3.946 -0.3894  0.5493 -0.3381
   59MOL0     H 8084  10.064   7.542   3.967 -1.1119 -1.4159 -0.5682
   59MOL0     H 8085  10.325   7.611   3.844 -1.2597  2.2330 -1.2068
   59MOL0     H 8086  10.226   7.691   3.969  1.2889  1.0988 -2.8746
   59MOL0     H 8087  10.454   7.602   4.038  0.6223 -0.1060 -0.5107
   59MOL0     H 8088  10.377   7.439   4.051 -0.0547 -0.3627  0.0596
   59MOL0     H 8089  10.259   7.690   4.184 -0.4606  0.2159 -0.0210
   59MOL0     H 8090  10.217   7.517   4.210  0.3414  0.8182  0.5462
   59MOL0     H 8091  10.566   7.733   4.227  0.7801 -1.9468 -0.2917
   59MOL0     H 8092  10.645   7.794   4.551 -2.9262 -2.8396  0.2862
   59MOL0     H 8093  10.736   7.787   4.409 -3.1316  1.4838 -1.1298
   59MOL0     H 8094  10.814   7.676   4.653  1.1953  0.4810 -0.1007
   59MOL0     H 8095  10.729   7.538   4.598 -0.5573  0.4335  1.6372
   59MOL0     H 8096  10.881   7.553   4.381  0.2166  0.2846 -0.7726
   59MOL0     H 8097  10.968   7.679   4.465 -0.3841  0.6164 -0.6547
   59MOL0     H 8098  10.937   7.382   4.564 -0.5186  0.8047 -4.4074
   59MOL0     H 8099  11.086   7.461   4.522  1.9069 -2.3921  1.3996
   59MOL0     H 8100  11.145   7.700   4.592 -1.9741  1.0655  0.2856
   59MOL0     H 8101  11.281   7.876   4.567  2.2134  0.5087  0.2170
   59MOL0     H 8102  11.429   7.786   4.580 -0.2947 -0.2501 -1.8640
   59MOL0     H 8103  11.395   7.919   4.696 -0.6867  1.9665 -0.8336
   59MOL0     H 8104  11.556   8.070   5.105 -0.8908 -0.5093  0.3371
   59MOL0     H 8105  11.793   8.154   5.154 -2.3433 -0.9021  0.8899
   59MOL0     H 8106  12.123   8.004   4.880 -0.5705  0.1445  0.3101
   59MOL0     H 8107  12.190   8.112   5.000 -2.7931  1.8514  0.2395
   59MOL0     H 8108  12.098   7.897   5.164  2.9013 -1.1833  1.4641
   59MOL0     H 8109  12.129   7.807   5.025 -0.8242  0.1810  0.4110
   59MOL0     H 8110  12.322   7.829   5.203  3.8643  0.6900  1.1018
   59MOL0     H 8111  12.324   8.003   5.157 -1.0114  0.7617 -2.1678
   59MOL0     H 8112  12.397   7.933   4.929  0.6607  0.2318 -0.3178
   59MOL0     H 8113  12.370   7.771   4.988  0.0389  0.8979 -2.2832
   59MOL0     H 8114  12.555   7.973   5.104 -1.3974  0.1456 -0.9938
   59MOL0     H 8115  12.546   7.800   5.150 -1.9089 -0.1934  0.6035
   59MOL0     H 8116  12.668   7.932   4.901  0.4024  0.2066  0.4417
   59MOL0     H 8117  12.634   7.762   4.903  0.3618 -2.7288  2.8159
   59MOL0     H 8118  12.782   7.724   5.117 -3.1680 -0.2078 -0.3607
   59MOL0     H 8119  12.805   7.895   5.120  1.5748  1.8275 -2.6078
   59MOL0     H 8120  13.000   7.769   5.032 -0.0304 -0.7358 -1.4419
   59MOL0     H 8121  12.922   7.889   4.914 -3.5499 -0.1455  0.2830
   59MOL0     H 8122  11.939   7.891   4.859 -1.1019  0.0617 -2.6083
   59MOL0     H 8123  11.722   7.799   4.810  0.2186  0.5402 -0.8952
   59MOL0     H 8124  11.312   7.560   5.034  0.6693  0.6600 -0.3636
   59MOL0     H 8125  11.085   7.487   4.962 -1.1555  0.5849 -1.2331
   59MOL0     H 8126   9.510   7.571   3.685 -1.3385  0.8476 -0.4608
   59MOL0     H 8127   9.283   7.545   3.674 -0.9377 -0.7061  1.2951
   59MOL0     H 8128   8.946   7.543   3.228  0.7682 -0.1333 -0.0784
   59MOL0     H 8129   8.704   7.525   3.192 -3.0225 -1.4219  0.6517
   59MOL0     H 8130   8.509   7.121   3.251  0.4151 -0.4564 -0.1222
   59MOL0     H 8131   8.409   7.228   3.159  1.3251  0.3546 -2.2189
   59MOL0     H 8132   8.696   7.129   3.105 -1.3595 -5.2688 -1.5161
   59MOL0     H 8133   8.619   7.272   3.021  1.8031  0.6045  0.5098
   59MOL0     H 8134   8.543   6.970   3.029  2.6947 -0.6275 -1.9437
   59MOL0     H 8135   8.432   7.100   2.983 -0.6115 -1.3083  2.0466
   59MOL0     H 8136   8.592   6.975   2.816  0.4277  0.4211  0.0804
   59MOL0     H 8137   8.707   7.104   2.853  0.3200 -1.4983 -2.2417
   59MOL0     H 8138   8.393   7.299   2.629 -2.7953  0.1484  2.9921
   59MOL0     H 8139   8.708   7.139   3.361 -2.0380 -0.1327 -1.5626
   59MOL0     H 8140   8.982   7.148   3.556 -1.0613 -0.3537  1.0178
   59MOL0     H 8141   8.898   7.046   3.454 -2.5111  2.3059  0.7404
   59MOL0     H 8142   9.062   7.093   3.402  0.0362 -4.1184  2.9729
   60MOL0     O 8143  11.117  10.609   5.670 -0.5472 -0.1139 -0.3077
   60MOL0     C 8144  11.163  10.723   5.643  0.1536 -0.0157  0.0901
   60MOL0     O 8145  11.156  10.836   5.717  0.1460 -0.8472  0.6751
   60MOL0     C 8146  11.104  10.831   5.840  0.7614  0.0005  0.3459
   60MOL0     C 8147  10.968  10.853   5.862  0.2133  0.2594 -0.1589
   60MOL0     C 8148  10.933  10.846   6.000 -0.7042 -0.1542  0.1674
   60MOL0     C 8149  11.019  10.824   6.104 -0.5852 -0.2859  0.6353
   60MOL0     O 8150  10.971  10.813   6.226 -0.5923  0.0978  0.1307
   60MOL0     C 8151  11.019  10.894   6.336 -0.0548  0.1376 -0.4630
   60MOL0     C 8152  10.897  10.971   6.396 -0.5346  0.0845  0.6441
   60MOL0     C 8153  10.946  11.076   6.499 -0.1153  0.4419  1.5080
   60MOL0     C 8154  11.015  11.026   6.615  0.1770 -0.0194  0.5910
   60MOL0     C 8155  11.080  11.137   6.703  0.3540  0.0270 -0.3048
   60MOL0     C 8156  11.211  11.198   6.643 -0.3556  0.4853 -1.2489
   60MOL0     C 8157  11.329  11.099   6.644 -0.8157 -0.4671  0.3192
   60MOL0     C 8158  11.460  11.135   6.588 -0.4623 -0.5256 -0.1353
   60MOL0     N 8159  11.550  11.018   6.595 -0.4829 -1.1212 -1.1178
   60MOL0     C 8160  11.526  10.912   6.526  0.8933  0.4761  0.5234
   60MOL0     C 8161  11.622  10.821   6.562 -0.8257 -0.0369  0.4177
   60MOL0     C 8162  11.632  10.683   6.508  0.1201 -0.9293 -0.1996
   60MOL0     C 8163  11.714  10.588   6.600 -0.6007  0.4848  0.1665
   60MOL0     C 8164  11.671  10.552   6.746  0.2478 -0.2156  0.2298
   60MOL0     C 8165  11.525  10.515   6.775  0.7850 -0.3093 -0.4621
   60MOL0     O 8166  11.523  10.433   6.891  0.5690  0.3402 -1.1592
   60MOL0     C 8167  11.412  10.427   6.958 -0.8492  0.7153 -0.5359
   60MOL0     C 8168  11.283  10.418   6.902  0.1419  0.0031 -0.3676
   60MOL0     C 8169  11.161  10.388   6.967  0.5151  0.8120  0.0645
   60MOL0     C 8170  11.045  10.366   6.878  0.0285 -0.5541 -0.6148
   60MOL0     C 8171  11.169  10.371   7.105 -0.3706 -0.4684  0.1867
   60MOL0     C 8172  11.060  10.362   7.195  0.7701  0.5592 -0.6686
   60MOL0     O 8173  11.076  10.305   7.316  0.6218  0.0009 -0.4498
   60MOL0     C 8174  10.969  10.308   7.409  0.3449  0.1132 -0.3259
   60MOL0     C 8175  10.934  10.422   7.482  0.5424  0.5594  0.1861
   60MOL0     C 8176  10.821  10.416   7.566  0.4580  0.1414  1.0575
   60MOL0     C 8177  10.749  10.299   7.586 -0.4423  0.6466  0.3491
   60MOL0     O 8178  10.634  10.275   7.663 -0.5601 -0.0741 -0.2663
   60MOL0     C 8179  10.582  10.384   7.732  0.2709  0.8010  1.5419
   60MOL0     C 8180  10.630  10.395   7.872  0.2658 -0.5083 -0.0192
   60MOL0     C 8181  10.599  10.540   7.941 -0.7976  0.3403  0.1652
   60MOL0     C 8182  10.641  10.536   8.087  0.4067  0.6165 -0.0901
   60MOL0     C 8183  10.631  10.671   8.167 -0.5618 -0.0521 -0.3554
   60MOL0     C 8184  10.486  10.720   8.184  0.3620  0.0031 -0.1460
   60MOL0     C 8185  10.488  10.873   8.221 -0.1279  0.6453 -0.0902
   60MOL0     C 8186  10.343  10.939   8.231 -1.0243  0.6022  0.8103
   60MOL0    Cl 8187  10.256  10.902   8.374  0.2403 -0.1450 -0.2361
   60MOL0     C 8188  10.785  10.181   7.518 -0.4005  0.4456  0.8611
   60MOL0     C 8189  10.894  10.189   7.429  0.2211  0.2175  0.7895
   60MOL0     O 8190  10.957  10.404   7.152  0.8648  0.1953  0.3256
   60MOL0     C 8191  11.295  10.392   7.165 -0.4097  0.6036  0.1240
   60MOL0     C 8192  11.420  10.397   7.093  0.4631  0.4034  0.0014
   60MOL0     N 8193  11.723  10.892   6.647  1.2430 -0.9190  0.2108
   60MOL0     N 8194  11.669  11.007   6.663 -0.3281 -0.4327 -1.4900
   60MOL0     C 8195  11.159  10.816   6.080  0.1812 -1.3073 -0.3788
   60MOL0     C 8196  11.198  10.809   5.946  0.6633 -0.4188 -0.4403
   60MOL0     C 8197  11.223  10.738   5.515  0.5284  0.0049 -0.2933
   60MOL0     C 8198  11.363  10.697   5.490  0.9327 -0.4930 -1.8432
   60MOL0     C 8199  11.414  10.712   5.368  0.3362 -0.7435  0.9052
   60MOL0     C 8200  11.332  10.751   5.255  0.6029 -0.0437 -0.3881
   60MOL0     O 8201  11.379  10.760   5.123  0.3221  0.3085  0.6188
   60MOL0     C 8202  11.522  10.787   5.110 -0.4699  0.6128 -1.0344
   60MOL0     C 8203  11.551  10.820   4.966  0.7329 -0.1466 -0.4920
   60MOL0     C 8204  11.477  10.945   4.920  0.0111  0.0011  1.0168
   60MOL0     C 8205  11.508  10.993   4.779  0.0705 -0.3006  0.5226
   60MOL0     C 8206  11.649  11.049   4.759 -0.4377 -0.7787 -0.0183
   60MOL0     C 8207  11.766  11.087   4.755 -1.0827  0.5312 -0.0074
   60MOL0     C 8208  11.202  10.789   5.276 -1.0301 -0.1164  0.0917
   60MOL0     C 8209  11.144  10.793   5.411 -0.5738 -0.5279 -0.6188
   60MOL0     C 8210  11.003  10.841   5.420 -0.1639 -0.6326 -0.7760
   60MOL0     H 8211  10.896  10.877   5.785  0.2736 -0.8867 -0.6047
   60MOL0     H 8212  10.826  10.844   6.022 -0.7403 -3.3850  0.2041
   60MOL0     H 8213  11.087  10.972   6.302  0.5116  0.1340  0.6221
   60MOL0     H 8214  11.070  10.827   6.407  0.3798 -1.9028 -2.5707
   60MOL0     H 8215  10.853  11.036   6.320  1.3794 -0.3374 -0.8996
   60MOL0     H 8216  10.834  10.892   6.440  1.7418 -2.5970 -0.5700
   60MOL0     H 8217  11.018  11.126   6.433 -0.1518 -3.9492 -2.3408
   60MOL0     H 8218  10.873  11.154   6.521  0.2005  1.6673 -1.3679
   60MOL0     H 8219  10.953  10.963   6.679 -2.9777  2.3833  0.1538
   60MOL0     H 8220  11.091  10.956   6.580 -1.3234 -0.6985 -1.4655
   60MOL0     H 8221  11.102  11.092   6.800  0.5075  1.3286  0.2926
   60MOL0     H 8222  11.006  11.215   6.722 -0.0282 -0.3407 -0.2966
   60MOL0     H 8223  11.194  11.255   6.552  0.8583 -0.0027 -1.8028
   60MOL0     H 8224  11.243  11.270   6.719  1.8019 -3.0887  1.6143
   60MOL0     H 8225  11.307  11.011   6.583  0.5163 -1.3958  1.1113
   60MOL0     H 8226  11.348  11.065   6.747  0.7074  1.5797  0.7894
   60MOL0     H 8227  11.453  11.161   6.482  1.2452 -3.7259 -1.1741
   60MOL0     H 8228  11.503  11.226   6.631  1.3804 -1.2956 -0.2681
   60MOL0     H 8229  11.440  10.895   6.462  1.2179  1.9684 -0.3701
   60MOL0     H 8230  11.681  10.685   6.410  2.7617 -0.6761  1.0315
   60MOL0     H 8231  11.542  10.626   6.486  0.3587 -0.7787 -1.6999
   60MOL0     H 8232  11.728  10.504   6.531  1.0597 -0.3237  1.4325
   60MOL0     H 8233  11.817  10.625   6.598 -0.3492 -0.2275 -0.5485
   60MOL0     H 8234  11.742  10.484   6.795 -0.7922  0.6232  3.0601
   60MOL0     H 8235  11.694  10.645   6.797  1.0676 -1.2000  1.7344
   60MOL0     H 8236  11.454  10.597   6.770 -2.3046 -2.7942 -0.4596
   60MOL0     H 8237  11.491  10.450   6.693  1.0483 -0.9105 -0.1000
   60MOL0     H 8238  11.294  10.435   6.796  1.8050 -0.4879 -0.2985
   60MOL0     H 8239  10.965  10.303   6.918 -0.8250  0.8986  0.0417
   60MOL0     H 8240  11.073  10.310   6.788 -0.0544 -0.8347 -0.4677
   60MOL0     H 8241  10.994  10.462   6.864  0.7219 -0.4089 -2.4354
   60MOL0     H 8242  11.000  10.507   7.468  1.2180  0.5716  2.8831
   60MOL0     H 8243  10.798  10.516   7.601  1.2904  0.9715 -0.6576
   60MOL0     H 8244  10.605  10.475   7.675 -0.6300 -0.6832 -1.4175
   60MOL0     H 8245  10.473  10.377   7.727  0.3414 -0.1963 -3.3813
   60MOL0     H 8246  10.593  10.316   7.938  3.1590 -1.7398  0.2756
   60MOL0     H 8247  10.738  10.385   7.859  0.8098  3.1586  0.4994
   60MOL0     H 8248  10.501  10.585   7.922 -0.7553  0.6801  0.7340
   60MOL0     H 8249  10.667  10.614   7.898 -0.3467 -0.0467  0.1978
   60MOL0     H 8250  10.741  10.492   8.084 -0.2157 -0.8739  0.2218
   60MOL0     H 8251  10.576  10.463   8.136 -0.4627 -0.4988 -2.7567
   60MOL0     H 8252  10.674  10.647   8.265  0.3132 -4.0674 -1.5273
   60MOL0     H 8253  10.701  10.727   8.104 -0.2840 -0.6752 -0.6039
   60MOL0     H 8254  10.433  10.674   8.268 -0.6135  0.9707 -0.2063
   60MOL0     H 8255  10.421  10.704   8.097 -0.1433  0.4351  0.1435
   60MOL0     H 8256  10.544  10.938   8.153 -0.7015  3.6508  2.0986
   60MOL0     H 8257  10.523  10.887   8.324 -4.6569  2.9852  1.3806
   60MOL0     H 8258  10.284  10.909   8.145  2.3393 -0.4911 -1.3121
   60MOL0     H 8259  10.359  11.047   8.221 -2.4773  0.6149 -3.9532
   60MOL0     H 8260  10.740  10.083   7.530 -1.0554  0.6495  0.1496
   60MOL0     H 8261  10.914  10.100   7.372  1.5889  1.7898 -1.3337
   60MOL0     H 8262  11.311  10.381   7.271  3.5962 -4.2933 -0.6333
   60MOL0     H 8263  11.515  10.417   7.140 -0.3464  3.2211  0.5830
   60MOL0     H 8264  11.223  10.828   6.167  2.3427 -2.5310 -1.7228
   60MOL0     H 8265  11.301  10.791   5.917  0.9128  1.4307 -0.7888
   60MOL0     H 8266  11.422  10.657   5.571 -2.2082  4.4818  3.6579
   60MOL0     H 8267  11.520  10.690   5.352  0.3341 -0.1315 -0.0387
   60MOL0     H 8268  11.550  10.871   5.175  1.3031  0.1458 -1.1488
   60MOL0     H 8269  11.584  10.701   5.138  1.2610  2.7291  2.3264
   60MOL0     H 8270  11.534  10.728   4.909 -1.4989 -1.8246  2.5751
   60MOL0     H 8271  11.659  10.834   4.957  0.5329  1.7965 -0.3028
   60MOL0     H 8272  11.373  10.910   4.909  0.6096 -1.6062 -0.0069
   60MOL0     H 8273  11.467  11.025   4.993 -0.1527  1.9279 -0.9900
   60MOL0     H 8274  11.428  11.061   4.747 -0.9472 -2.1717 -1.1096
   60MOL0     H 8275  11.506  10.905   4.715  1.2554  1.6888 -2.5266
   60MOL0     H 8276  11.865  11.117   4.729 -1.1375 -0.7220 -1.9002
   60MOL0     H 8277  11.143  10.831   5.195 -3.8626 -2.4629  0.7632
   60MOL0     H 8278  10.953  10.745   5.435  3.6977 -2.7532 -0.2421
   60MOL0     H 8279  10.982  10.904   5.507 -0.1621  2.8123 -3.0620
   60MOL0     H 8280  10.972  10.900   5.332 -0.7864  2.1703  1.1919
   61MOL0     O 8281   6.660   1.288   6.449 -0.0337 -0.1213  0.5213
   61MOL0     C 8282   6.681   1.412   6.441 -0.1545  0.0670  0.0345
   61MOL0     O 8283   6.674   1.494   6.326  0.7090  1.1576  0.0042
   61MOL0     C 8284   6.577   1.459   6.232 -0.5305  0.1428 -0.2146
   61MOL0     C 8285   6.457   1.395   6.267 -0.2117  0.6666  0.1253
   61MOL0     C 8286   6.365   1.366   6.167  0.2476  0.2555  0.5424
   61MOL0     C 8287   6.379   1.393   6.031 -0.2240 -0.3510 -0.6340
   61MOL0     O 8288   6.280   1.354   5.934  0.1510 -0.0205 -0.0876
   61MOL0     C 8289   6.258   1.427   5.818  0.0968  0.8127  1.2857
   61MOL0     C 8290   6.136   1.359   5.748 -0.1989 -0.4206 -0.9586
   61MOL0     C 8291   5.999   1.372   5.822  0.1854 -0.3942  0.3369
   61MOL0     C 8292   5.988   1.504   5.893 -0.3093 -0.0636 -0.9292
   61MOL0     C 8293   5.861   1.510   5.963  0.6817  0.8237 -0.8378
   61MOL0     C 8294   5.813   1.648   6.008  0.0588  0.2033  0.3433
   61MOL0     C 8295   5.726   1.642   6.145 -0.7464  0.0474  0.9174
   61MOL0     C 8296   5.698   1.784   6.200 -0.1355  0.4517 -0.7618
   61MOL0     N 8297   5.649   1.864   6.090  0.2389  0.1188  0.2024
   61MOL0     C 8298   5.522   1.863   6.027 -0.0490 -0.0152 -0.0159
   61MOL0     C 8299   5.535   1.927   5.907 -0.9356 -0.4806  0.0130
   61MOL0     C 8300   5.431   1.902   5.805 -0.3016 -0.5012  0.5499
   61MOL0     C 8301   5.350   2.030   5.763 -0.9797  0.3674  0.3094
   61MOL0     C 8302   5.227   2.023   5.676 -0.9041 -0.3359 -0.5127
   61MOL0     C 8303   5.251   1.992   5.529 -0.4128 -0.3851 -0.7493
   61MOL0     O 8304   5.277   1.854   5.536  0.2130  0.8447 -0.5504
   61MOL0     C 8305   5.309   1.775   5.428 -0.1585  0.2321 -0.3018
   61MOL0     C 8306   5.329   1.645   5.443 -0.5184  0.8680 -0.5386
   61MOL0     C 8307   5.356   1.554   5.336  0.1556 -0.4465  0.5350
   61MOL0     C 8308   5.369   1.412   5.369  0.5415  0.9407  0.8190
   61MOL0     C 8309   5.365   1.604   5.204  0.3983  0.0309  0.6898
   61MOL0     C 8310   5.378   1.506   5.087  0.2829 -1.2215 -0.1777
   61MOL0     O 8311   5.320   1.375   5.086  0.4959  0.3431  1.1069
   61MOL0     C 8312   5.313   1.301   4.969  0.6744 -0.2976 -0.7452
   61MOL0     C 8313   5.212   1.204   4.965  0.8835 -0.8701  0.2497
   61MOL0     C 8314   5.182   1.121   4.856 -0.0044 -0.0468  0.3312
   61MOL0     C 8315   5.253   1.142   4.739 -0.6726 -0.1388  0.1408
   61MOL0     O 8316   5.235   1.070   4.619  0.9372 -0.0777 -0.0859
   61MOL0     C 8317   5.250   0.929   4.625  0.2787 -0.3034  0.0938
   61MOL0     C 8318   5.369   0.871   4.687 -0.1035 -0.6147  0.1363
   61MOL0     C 8319   5.498   0.899   4.611 -0.2214 -0.2302 -0.6734
   61MOL0     C 8320   5.528   0.792   4.505  0.2248 -0.0803  0.8576
   61MOL0     C 8321   5.678   0.789   4.478 -0.0870 -0.2395 -0.1812
   61MOL0     C 8322   5.709   0.693   4.360  0.3456 -0.0105 -1.4776
   61MOL0     C 8323   5.855   0.676   4.357 -0.2815 -0.1779  0.2061
   61MOL0     C 8324   5.909   0.600   4.234 -0.8599 -0.2751  0.5285
   61MOL0    Cl 8325   5.885   0.705   4.083  0.1352  0.3404 -0.0957
   61MOL0     C 8326   5.365   1.226   4.744 -0.7574  0.1457 -0.4618
   61MOL0     C 8327   5.396   1.307   4.857 -0.0884 -0.0721  0.4234
   61MOL0     O 8328   5.421   1.559   4.981 -0.1442 -0.3967 -0.9396
   61MOL0     C 8329   5.375   1.738   5.189 -0.1801  0.1596  0.3901
   61MOL0     C 8330   5.335   1.823   5.295 -0.5579  0.1123 -0.0708
   61MOL0     N 8331   5.670   1.967   5.905 -0.3125  0.2389  0.4117
   61MOL0     N 8332   5.731   1.939   6.012 -0.1220  0.2286 -0.0554
   61MOL0     C 8333   6.498   1.452   5.999 -0.2507 -1.2891 -0.3638
   61MOL0     C 8334   6.592   1.495   6.095  0.4559  0.5697 -0.7378
   61MOL0     C 8335   6.688   1.478   6.578 -0.0813 -0.7817 -0.0950
   61MOL0     C 8336   6.690   1.616   6.582 -0.4853 -0.8128 -0.1656
   61MOL0     C 8337   6.712   1.691   6.703 -0.3970  0.4972  0.2556
   61MOL0     C 8338   6.721   1.629   6.825 -0.5049 -0.5065 -0.0153
   61MOL0     O 8339   6.721   1.718   6.932 -0.2898  0.5475 -0.3484
   61MOL0     C 8340   6.726   1.674   7.073  0.7223 -0.6620 -0.3098
   61MOL0     C 8341   6.874   1.669   7.119  0.2907 -0.3766  0.6170
   61MOL0     C 8342   6.966   1.575   7.036  0.2032  0.1110  0.4509
   61MOL0     C 8343   7.117   1.592   7.063  0.3767 -1.0546  0.5969
   61MOL0     C 8344   7.164   1.734   7.053  0.5831 -0.9706  0.5828
   61MOL0     C 8345   7.217   1.848   7.047 -0.5745  0.3797 -0.0377
   61MOL0     C 8346   6.704   1.493   6.823  0.5967 -0.1272 -0.6016
   61MOL0     C 8347   6.686   1.418   6.709 -0.3236  0.5382  0.6036
   61MOL0     C 8348   6.684   1.272   6.742  0.7605 -0.0548 -0.6081
   61MOL0     H 8349   6.428   1.360   6.366 -0.4739  1.8148  0.4703
   61MOL0     H 8350   6.272   1.312   6.182 -0.1574 -0.1557 -2.6927
   61MOL0     H 8351   6.340   1.411   5.747 -2.7468 -2.6616 -1.6536
   61MOL0     H 8352   6.229   1.532   5.831  4.1885  2.1871  0.7941
   61MOL0     H 8353   6.136   1.402   5.648  1.4753  0.7174 -0.5121
   61MOL0     H 8354   6.154   1.253   5.727  3.9838 -0.6045  2.2629
   61MOL0     H 8355   5.915   1.350   5.756  0.8845  0.3494 -0.8385
   61MOL0     H 8356   6.017   1.303   5.904  0.8084  0.3625  0.8441
   61MOL0     H 8357   6.061   1.518   5.973  0.6456  2.3595 -2.1130
   61MOL0     H 8358   5.999   1.589   5.825 -3.0311  0.1660 -1.2174
   61MOL0     H 8359   5.862   1.443   6.049  0.8666  1.0076 -0.6958
   61MOL0     H 8360   5.779   1.467   5.905 -0.5501  0.2272  1.2270
   61MOL0     H 8361   5.905   1.698   6.038 -1.2502  2.6859  0.4780
   61MOL0     H 8362   5.758   1.695   5.926  4.9634 -0.7438 -4.0216
   61MOL0     H 8363   5.770   1.574   6.218 -0.5569  0.2273  0.9739
   61MOL0     H 8364   5.627   1.597   6.135 -1.3477  1.5290 -0.3696
   61MOL0     H 8365   5.619   1.772   6.275  0.8444 -0.3015  0.1771
   61MOL0     H 8366   5.788   1.830   6.243 -1.5814  1.6199  1.1763
   61MOL0     H 8367   5.424   1.822   6.053  0.4602 -0.9316  0.5157
   61MOL0     H 8368   5.360   1.825   5.835 -0.7533  0.0583  0.9459
   61MOL0     H 8369   5.497   1.881   5.720  0.4874  1.2396  0.6900
   61MOL0     H 8370   5.323   2.081   5.856 -0.1697 -2.7125  2.3667
   61MOL0     H 8371   5.424   2.090   5.709 -0.3837  2.2121  2.9793
   61MOL0     H 8372   5.156   1.950   5.716 -0.4445 -0.5316 -0.0402
   61MOL0     H 8373   5.195   2.127   5.670  2.8189  0.9001 -1.6201
   61MOL0     H 8374   5.167   2.017   5.464 -1.5468  0.8881  1.1121
   61MOL0     H 8375   5.340   2.042   5.489 -1.8517  1.7834 -1.4055
   61MOL0     H 8376   5.342   1.615   5.546 -1.6603  0.6871 -0.4407
   61MOL0     H 8377   5.390   1.399   5.475  4.7463 -0.5715  0.0096
   61MOL0     H 8378   5.453   1.377   5.308  2.3952  2.9738  2.0526
   61MOL0     H 8379   5.282   1.351   5.343  1.0084  0.2728  0.7714
   61MOL0     H 8380   5.148   1.195   5.051 -1.0589 -0.2914 -1.0686
   61MOL0     H 8381   5.109   1.042   4.849 -1.5204  1.4271 -1.9058
   61MOL0     H 8382   5.182   0.889   4.700  0.2132 -2.0281 -0.8365
   61MOL0     H 8383   5.231   0.881   4.528  1.2259 -1.2963  0.3701
   61MOL0     H 8384   5.382   0.909   4.789 -1.8098 -2.9216  1.2975
   61MOL0     H 8385   5.349   0.764   4.699 -2.6297 -0.2568 -0.3047
   61MOL0     H 8386   5.582   0.889   4.680  0.7022 -0.7582 -1.8290
   61MOL0     H 8387   5.498   1.004   4.579 -2.0563  0.5980  1.7465
   61MOL0     H 8388   5.483   0.814   4.408  1.0521 -1.1744  0.1969
   61MOL0     H 8389   5.491   0.696   4.542  0.0906 -0.5652 -0.5040
   61MOL0     H 8390   5.717   0.888   4.455 -1.4963  0.6942  1.2571
   61MOL0     H 8391   5.720   0.764   4.576 -0.9470  0.9455  0.5128
   61MOL0     H 8392   5.675   0.713   4.258 -0.9412  1.3997 -0.8135
   61MOL0     H 8393   5.668   0.592   4.373  1.2968 -0.1952  0.3227
   61MOL0     H 8394   5.890   0.609   4.436  0.1718 -0.8014 -0.5058
   61MOL0     H 8395   5.900   0.775   4.371 -1.9200  0.6147  0.1772
   61MOL0     H 8396   5.848   0.512   4.211  1.0244 -0.9592 -2.4767
   61MOL0     H 8397   6.014   0.573   4.246 -0.9151  0.1193  2.0213
   61MOL0     H 8398   5.418   1.241   4.650  0.6572  0.4840  0.3565
   61MOL0     H 8399   5.482   1.372   4.844 -0.7058  0.2040 -3.6026
   61MOL0     H 8400   5.399   1.795   5.100 -0.5389  1.6761  1.2420
   61MOL0     H 8401   5.316   1.930   5.284  3.2799  0.9710  0.1738
   61MOL0     H 8402   6.517   1.484   5.897  1.3448  1.9049  0.8106
   61MOL0     H 8403   6.675   1.550   6.053  2.0262  0.5228  2.0828
   61MOL0     H 8404   6.706   1.671   6.490  0.8440 -2.3878 -0.9507
   61MOL0     H 8405   6.721   1.799   6.697  2.1700  0.3117 -0.0383
   61MOL0     H 8406   6.671   1.752   7.126 -0.9717 -1.5355 -0.7363
   61MOL0     H 8407   6.674   1.582   7.099 -0.7268  0.8885  2.8507
   61MOL0     H 8408   6.891   1.627   7.218  2.9858  1.2094  0.9341
   61MOL0     H 8409   6.925   1.766   7.124  0.2873 -0.4394  2.3856
   61MOL0     H 8410   6.931   1.474   7.060 -2.9905  0.7189 -1.1516
   61MOL0     H 8411   6.955   1.592   6.929 -0.2243  2.0980  0.7643
   61MOL0     H 8412   7.176   1.536   6.990  2.4864  0.5006  1.0269
   61MOL0     H 8413   7.144   1.562   7.165  6.3452  2.7125  0.5847
   61MOL0     H 8414   7.267   1.943   7.048 -1.1487  0.7343  2.4044
   61MOL0     H 8415   6.709   1.434   6.914 -0.5812 -0.4575 -0.7222
   61MOL0     H 8416   6.583   1.245   6.776  1.2930  0.1947  1.2799
   61MOL0     H 8417   6.697   1.205   6.656  0.4927 -0.7043 -0.1501
   61MOL0     H 8418   6.747   1.253   6.829  2.0354  4.5760 -0.2284
   62MOL0     O 8419   3.291   1.890   7.207  0.0695 -0.2734  0.3598
   62MOL0     C 8420   3.213   1.895   7.298 -0.3157 -0.2725 -0.5009
   62MOL0     O 8421   3.241   1.872   7.426 -0.3765 -0.5065 -0.7253
   62MOL0     C 8422   3.378   1.895   7.466 -0.0053 -0.0596  0.4633
   62MOL0     C 8423   3.441   2.015   7.441  0.2017 -0.0381  0.5531
   62MOL0     C 8424   3.571   2.037   7.466  0.5259  0.6081  0.5176
   62MOL0     C 8425   3.654   1.937   7.517 -0.0397 -0.2512  0.3165
   62MOL0     O 8426   3.789   1.969   7.543  0.5171  0.0252  0.4725
   62MOL0     C 8427   3.848   2.077   7.473 -0.7233  0.1947  0.5224
   62MOL0     C 8428   3.831   2.207   7.548 -0.4263 -0.2744  0.0031
   62MOL0     C 8429   3.904   2.335   7.492  0.1533  0.3641  0.7120
   62MOL0     C 8430   3.855   2.458   7.582  0.6989  0.9528 -0.6520
   62MOL0     C 8431   3.951   2.573   7.602  0.8585  0.2573  0.4901
   62MOL0     C 8432   3.999   2.636   7.468 -0.4462 -0.1443 -0.1223
   62MOL0     C 8433   4.069   2.778   7.456 -0.4390 -0.8928 -0.7530
   62MOL0     C 8434   4.141   2.815   7.590  0.5103 -0.4620  0.6702
   62MOL0     N 8435   4.214   2.941   7.588 -0.5827 -0.1848 -0.4917
   62MOL0     C 8436   4.164   3.066   7.588  0.0261  0.3790  0.2845
   62MOL0     C 8437   4.272   3.150   7.571  0.7986 -1.0731 -0.9368
   62MOL0     C 8438   4.268   3.300   7.568  0.3199 -0.7130  0.4878
   62MOL0     C 8439   4.399   3.367   7.509 -0.1386 -0.5688 -0.4393
   62MOL0     C 8440   4.370   3.516   7.488 -0.3807  0.2315 -0.4805
   62MOL0     C 8441   4.473   3.588   7.398 -0.1324 -0.1375 -0.2893
   62MOL0     O 8442   4.465   3.536   7.271  0.5766 -0.5764  0.3887
   62MOL0     C 8443   4.563   3.573   7.182  0.0206  1.0803  0.2360
   62MOL0     C 8444   4.542   3.532   7.048 -0.3198  0.2031 -0.1138
   62MOL0     C 8445   4.637   3.564   6.949 -0.5495 -0.0586  0.2102
   62MOL0     C 8446   4.625   3.511   6.811 -0.2276 -0.5460 -0.3576
   62MOL0     C 8447   4.755   3.632   6.984 -0.0501 -0.9924 -0.6649
   62MOL0     C 8448   4.872   3.692   6.904 -0.4654 -0.0069  0.0212
   62MOL0     O 8449   4.951   3.795   6.952 -0.2614  0.0997  0.8353
   62MOL0     C 8450   5.045   3.834   6.856  0.5684  0.9297  0.3562
   62MOL0     C 8451   5.183   3.796   6.865  0.6411  0.6226  1.4815
   62MOL0     C 8452   5.283   3.829   6.765  0.3292  0.2010  0.4901
   62MOL0     C 8453   5.243   3.904   6.654  0.3859  0.0805  0.1756
   62MOL0     O 8454   5.333   3.921   6.551 -0.6294  0.3144 -0.0183
   62MOL0     C 8455   5.328   4.048   6.493  1.0416 -0.5021  1.0877
   62MOL0     C 8456   5.463   4.120   6.507 -0.3937  0.6469 -0.6004
   62MOL0     C 8457   5.494   4.171   6.648 -0.8021  0.3033 -0.2415
   62MOL0     C 8458   5.430   4.300   6.703  0.4012 -0.6556  0.7221
   62MOL0     C 8459   5.463   4.323   6.850  0.3254  0.6696 -0.3465
   62MOL0     C 8460   5.442   4.462   6.910 -0.2279  0.5581 -0.0650
   62MOL0     C 8461   5.297   4.505   6.902 -1.0914 -0.5396 -0.0378
   62MOL0     C 8462   5.241   4.560   7.034  0.6122  0.1421 -0.1384
   62MOL0    Cl 8463   5.227   4.450   7.176  0.3582 -0.3037  0.0002
   62MOL0     C 8464   5.109   3.933   6.640  0.0300  0.0802  0.0664
   62MOL0     C 8465   5.016   3.909   6.742 -0.0399  0.6643  0.6231
   62MOL0     O 8466   4.904   3.618   6.819 -0.1139 -0.0312  0.1007
   62MOL0     C 8467   4.779   3.643   7.119 -0.2662  0.0573 -0.8731
   62MOL0     C 8468   4.689   3.625   7.216  1.0637 -0.1931  0.4249
   62MOL0     N 8469   4.385   3.070   7.570 -0.2612 -0.8284  0.5595
   62MOL0     N 8470   4.354   2.944   7.586  0.6707  0.0983  0.0343
   62MOL0     C 8471   3.596   1.818   7.563 -0.7432 -0.4584  0.7890
   62MOL0     C 8472   3.452   1.800   7.539 -0.1729 -0.5534  0.5735
   62MOL0     C 8473   3.070   1.933   7.267 -0.0244 -0.4869  0.1253
   62MOL0     C 8474   3.013   1.879   7.150  0.3230  0.5648  0.9523
   62MOL0     C 8475   2.876   1.893   7.135 -1.2832  0.7352 -0.4512
   62MOL0     C 8476   2.797   1.966   7.224  0.0238  0.6532  0.1324
   62MOL0     O 8477   2.660   1.965   7.220  0.6940 -0.2325  0.0506
   62MOL0     C 8478   2.584   1.923   7.100  0.0838  0.5024  0.0023
   62MOL0     C 8479   2.558   2.043   7.011  0.0784  0.4560  0.2593
   62MOL0     C 8480   2.691   2.087   6.946 -0.3548 -0.2910  0.3293
   62MOL0     C 8481   2.678   2.218   6.860 -0.6106 -0.0994 -0.5198
   62MOL0     C 8482   2.809   2.250   6.797 -0.2568 -0.6456 -0.3374
   62MOL0     C 8483   2.914   2.265   6.730  0.1957  0.5988 -0.1216
   62MOL0     C 8484   2.860   2.031   7.330 -0.1925  0.7098 -1.2158
   62MOL0     C 8485   2.998   2.023   7.357 -0.0451  0.2649 -0.3367
   62MOL0     C 8486   3.052   2.090   7.489 -0.7291 -0.0301 -0.0933
   62MOL0     H 8487   3.384   2.099   7.404  1.2799  1.1538  1.5169
   62MOL0     H 8488   3.601   2.138   7.440  0.9795  0.2561 -0.3648
   62MOL0     H 8489   3.814   2.087   7.369  0.3817 -0.4457  0.0771
   62MOL0     H 8490   3.954   2.053   7.459 -1.3716 -2.7673  0.1569
   62MOL0     H 8491   3.728   2.246   7.550  0.5842  2.7544 -0.7799
   62MOL0     H 8492   3.862   2.190   7.651 -1.0238  0.6444  0.3547
   62MOL0     H 8493   4.011   2.312   7.496  0.0521 -0.3767 -0.3130
   62MOL0     H 8494   3.859   2.348   7.393 -3.3231  1.1573  2.2464
   62MOL0     H 8495   3.770   2.507   7.535  2.5207  1.9175 -3.1886
   62MOL0     H 8496   3.829   2.427   7.684  2.3956 -3.1898 -1.2661
   62MOL0     H 8497   4.040   2.535   7.653  0.2076 -0.1389  1.3453
   62MOL0     H 8498   3.908   2.646   7.672 -1.0250 -3.8971  4.1046
   62MOL0     H 8499   4.064   2.561   7.421  1.5450 -0.2351  2.5141
   62MOL0     H 8500   3.909   2.645   7.407 -0.3401  1.4238 -0.0810
   62MOL0     H 8501   3.996   2.858   7.443  0.1495 -0.1296  0.5322
   62MOL0     H 8502   4.137   2.783   7.370 -1.9625  0.4171 -1.9234
   62MOL0     H 8503   4.058   2.838   7.657  1.1203  2.9502  0.4392
   62MOL0     H 8504   4.210   2.736   7.621  1.3512 -1.2669 -2.7883
   62MOL0     H 8505   4.062   3.103   7.591 -0.3736 -0.7319  1.5312
   62MOL0     H 8506   4.258   3.330   7.673  1.1297  1.1397  0.0760
   62MOL0     H 8507   4.183   3.323   7.504  0.3407  0.5201  0.8845
   62MOL0     H 8508   4.486   3.355   7.574 -0.2494  1.6829  0.1929
   62MOL0     H 8509   4.428   3.315   7.417  1.5866  0.3494 -0.4672
   62MOL0     H 8510   4.272   3.524   7.441 -1.3233 -3.3298  0.5542
   62MOL0     H 8511   4.363   3.564   7.586  4.1248 -0.5022  0.3857
   62MOL0     H 8512   4.433   3.690   7.401  2.0460  0.7800  1.6978
   62MOL0     H 8513   4.573   3.599   7.442 -1.2104  0.6157  2.1963
   62MOL0     H 8514   4.453   3.480   7.013 -1.1180  1.0971  0.5401
   62MOL0     H 8515   4.611   3.591   6.738  0.3438 -2.1966 -2.3607
   62MOL0     H 8516   4.552   3.430   6.806 -0.7709 -0.0618 -0.4939
   62MOL0     H 8517   4.720   3.470   6.776  0.2162 -0.7564  1.0512
   62MOL0     H 8518   5.213   3.734   6.949 -0.3584  2.4713  3.2870
   62MOL0     H 8519   5.383   3.788   6.762 -0.4003 -1.7783 -3.1252
   62MOL0     H 8520   5.310   4.047   6.385 -0.8535 -1.0493  1.3710
   62MOL0     H 8521   5.249   4.114   6.530 -0.7847 -0.9377 -1.7075
   62MOL0     H 8522   5.536   4.045   6.476  3.0690  3.2793  0.5911
   62MOL0     H 8523   5.446   4.207   6.443  0.3315  2.2675  1.3133
   62MOL0     H 8524   5.598   4.204   6.655 -0.2904 -1.4365  1.8239
   62MOL0     H 8525   5.476   4.100   6.730  1.1394  1.9740  1.7568
   62MOL0     H 8526   5.321   4.294   6.692  0.2498 -0.6129  2.0764
   62MOL0     H 8527   5.478   4.377   6.642  1.8377 -0.7719  1.6774
   62MOL0     H 8528   5.416   4.248   6.914 -0.8432 -0.0806 -2.0116
   62MOL0     H 8529   5.572   4.310   6.851  0.4942  1.8645  1.3896
   62MOL0     H 8530   5.501   4.538   6.858 -1.2664  0.3060 -1.7017
   62MOL0     H 8531   5.460   4.448   7.017  0.3433 -3.6941 -0.5250
   62MOL0     H 8532   5.232   4.422   6.874 -2.1903 -0.6257  2.5115
   62MOL0     H 8533   5.295   4.589   6.831 -0.9531 -1.2061 -0.8529
   62MOL0     H 8534   5.138   4.593   7.024  0.2073 -0.3475  1.9999
   62MOL0     H 8535   5.306   4.640   7.069  1.0702 -0.6225  0.8097
   62MOL0     H 8536   5.095   3.988   6.548 -1.1810  2.3740  1.5233
   62MOL0     H 8537   4.916   3.947   6.724  0.3981  1.8870  0.7166
   62MOL0     H 8538   4.863   3.701   7.155 -1.5454  1.3757  0.1091
   62MOL0     H 8539   4.721   3.674   7.308  2.5803  1.4055 -0.8770
   62MOL0     H 8540   3.653   1.751   7.627  2.7175  1.5044 -0.0053
   62MOL0     H 8541   3.405   1.705   7.564 -2.9430  0.7722  0.8475
   62MOL0     H 8542   3.077   1.816   7.090 -1.3985  0.4788 -0.8610
   62MOL0     H 8543   2.821   1.837   7.059 -0.5255  1.0909 -1.2788
   62MOL0     H 8544   2.623   1.829   7.059  1.4458  1.5138 -1.1124
   62MOL0     H 8545   2.485   1.890   7.133 -0.0231 -0.5140 -1.2654
   62MOL0     H 8546   2.522   2.125   7.074 -2.1930 -1.6303  1.8953
   62MOL0     H 8547   2.487   2.022   6.931  0.9018  0.2091 -0.4215
   62MOL0     H 8548   2.761   2.123   7.022 -0.9164  3.1002 -0.5965
   62MOL0     H 8549   2.735   2.001   6.895 -1.4190 -1.1754  0.8358
   62MOL0     H 8550   2.645   2.309   6.912  2.3009  0.1756  1.0915
   62MOL0     H 8551   2.616   2.192   6.775 -0.6215  0.1062 -0.5764
   62MOL0     H 8552   2.995   2.264   6.661  1.3758 -0.0355  1.2286
   62MOL0     H 8553   2.802   2.092   7.399 -1.1143  1.0125 -2.2398
   62MOL0     H 8554   2.979   2.160   7.530  1.5164  2.1138  0.4672
   62MOL0     H 8555   3.059   2.012   7.566 -0.9235 -0.0050 -0.0484
   62MOL0     H 8556   3.145   2.142   7.469 -1.9060  1.3760 -2.3510
   63MOL0     O 8557   0.499   0.319   6.300  0.7908 -0.5755 -0.1721
   63MOL0     C 8558   0.574   0.389   6.367  0.4406  0.1815 -1.1151
   63MOL0     O 8559   0.616   0.356   6.500 -0.8776 -0.1117  0.0161
   63MOL0     C 8560   0.585   0.232   6.543 -1.2196  0.0025  0.4193
   63MOL0     C 8561   0.539   0.209   6.670 -0.8211  0.6916  0.1844
   63MOL0     C 8562   0.525   0.077   6.719 -0.5095  0.4962 -0.3776
   63MOL0     C 8563   0.568  -0.031   6.639  0.6183 -0.2837 -0.1847
   63MOL0     O 8564   0.562  -0.160   6.685 -0.2585  0.2615  0.5770
   63MOL0     C 8565   0.530  -0.189   6.817 -0.4930  0.4822  0.0256
   63MOL0     C 8566   0.513  -0.343   6.843  0.2547 -0.7431 -0.0681
   63MOL0     C 8567   0.652  -0.408   6.827 -0.4886 -0.8237  1.5616
   63MOL0     C 8568   0.655  -0.547   6.886 -0.1755  0.0534  0.3957
   63MOL0     C 8569   0.779  -0.630   6.836  0.1539 -0.1714 -0.1547
   63MOL0     C 8570   0.851  -0.737   6.931  0.7692 -0.1276  0.0569
   63MOL0     C 8571   0.988  -0.775   6.886 -0.8030 -0.0572  0.3993
   63MOL0     C 8572   1.032  -0.892   6.977 -0.4793  0.3817  0.5515
   63MOL0     N 8573   1.164  -0.948   6.936 -0.0298  0.4526  0.5841
   63MOL0     C 8574   1.188  -1.061   6.852 -0.2353 -0.4315 -0.4721
   63MOL0     C 8575   1.324  -1.077   6.867  0.3035  1.1773  0.5142
   63MOL0     C 8576   1.396  -1.175   6.783 -1.0584 -0.7399  0.7047
   63MOL0     C 8577   1.536  -1.132   6.741  0.2830 -0.0751 -0.9075
   63MOL0     C 8578   1.644  -1.171   6.849  0.9483 -0.1378 -0.5611
   63MOL0     C 8579   1.781  -1.114   6.808 -0.5878  0.6636  0.2341
   63MOL0     O 8580   1.881  -1.197   6.882 -0.5217 -0.6097 -0.0737
   63MOL0     C 8581   1.937  -1.298   6.809  0.2685  0.6217  0.0655
   63MOL0     C 8582   1.922  -1.435   6.856  0.6398  0.1981  0.2746
   63MOL0     C 8583   1.972  -1.547   6.784  0.0735  0.2885  0.4636
   63MOL0     C 8584   1.938  -1.686   6.841 -0.4053 -0.5512  0.6443
   63MOL0     C 8585   2.059  -1.517   6.682 -0.2563 -0.0061  0.3436
   63MOL0     C 8586   2.123  -1.615   6.586 -0.1129 -0.2055 -0.6274
   63MOL0     O 8587   2.053  -1.722   6.540 -0.4959  0.0641 -0.2094
   63MOL0     C 8588   2.101  -1.789   6.424 -0.4162  0.7488 -1.7100
   63MOL0     C 8589   2.106  -1.718   6.306 -0.7190 -0.7178  0.7708
   63MOL0     C 8590   2.164  -1.776   6.198  0.0533 -0.0054 -0.1881
   63MOL0     C 8591   2.217  -1.905   6.207 -1.5962 -0.1845  0.3651
   63MOL0     O 8592   2.288  -1.963   6.103 -0.0494  0.1799  0.3530
   63MOL0     C 8593   2.269  -1.900   5.980  0.0564 -0.5739  0.3104
   63MOL0     C 8594   2.317  -1.988   5.865 -0.5544 -0.0690 -0.3941
   63MOL0     C 8595   2.206  -2.104   5.849 -1.0044 -0.1962  0.1501
   63MOL0     C 8596   2.246  -2.240   5.808 -1.0595  0.7703  1.2170
   63MOL0     C 8597   2.121  -2.338   5.794 -0.1441  0.2162  0.0098
   63MOL0     C 8598   2.153  -2.467   5.714 -0.5502 -0.0249 -0.0021
   63MOL0     C 8599   2.167  -2.435   5.565  0.5106  0.2293 -0.0006
   63MOL0     C 8600   2.125  -2.548   5.480  0.2706  0.4127 -0.0859
   63MOL0    Cl 8601   2.183  -2.707   5.512  0.1838  0.0466  0.4112
   63MOL0     C 8602   2.202  -1.978   6.322 -0.9139 -0.0621  0.2997
   63MOL0     C 8603   2.141  -1.920   6.440  0.5945  0.2785 -0.1063
   63MOL0     O 8604   2.239  -1.586   6.557 -0.1426 -0.5739  0.4681
   63MOL0     C 8605   2.078  -1.378   6.642 -0.6986  0.9165 -0.5353
   63MOL0     C 8606   2.011  -1.270   6.694  0.1051  0.0023 -1.1288
   63MOL0     N 8607   1.371  -0.973   6.940 -0.2101  1.0348  0.3647
   63MOL0     N 8608   1.280  -0.900   6.986  0.2061  0.6933 -0.6422
   63MOL0     C 8609   0.624  -0.007   6.518  1.0707  0.2222  1.4319
   63MOL0     C 8610   0.627   0.127   6.469  1.4917  1.0166  0.1154
   63MOL0     C 8611   0.651   0.511   6.313  0.2893  0.1892 -0.0332
   63MOL0     C 8612   0.676   0.613   6.412  0.1057  0.2618 -0.2518
   63MOL0     C 8613   0.723   0.742   6.370  0.4261 -0.2444  0.1737
   63MOL0     C 8614   0.759   0.755   6.232  0.2751 -0.2450  0.8295
   63MOL0     O 8615   0.827   0.847   6.175  0.3876 -0.2709 -0.3032
   63MOL0     C 8616   0.846   0.972   6.242 -1.6545  0.6564 -0.2150
   63MOL0     C 8617   0.990   0.961   6.307  0.5548 -0.4688 -0.1456
   63MOL0     C 8618   1.031   1.101   6.373  0.0326 -0.2711  0.0920
   63MOL0     C 8619   0.942   1.158   6.483  0.2927  0.5103  0.6347
   63MOL0     C 8620   0.919   1.053   6.586 -0.4375 -0.6043  0.3370
   63MOL0     C 8621   0.884   0.964   6.656  0.5405  0.5736  0.0003
   63MOL0     C 8622   0.734   0.653   6.141  0.5760  0.3114 -0.5930
   63MOL0     C 8623   0.692   0.529   6.183 -0.6903 -0.2026 -0.2475
   63MOL0     C 8624   0.668   0.419   6.080 -0.4639 -0.3649 -0.1722
   63MOL0     H 8625   0.513   0.290   6.737  1.5982  1.1660  0.6713
   63MOL0     H 8626   0.492   0.073   6.822 -0.6827 -1.0577 -0.4704
   63MOL0     H 8627   0.439  -0.132   6.837  0.1607  1.6323 -0.1780
   63MOL0     H 8628   0.607  -0.157   6.888  0.3770 -2.5476  0.5682
   63MOL0     H 8629   0.479  -0.358   6.946  0.1395 -2.0807 -0.2766
   63MOL0     H 8630   0.432  -0.398   6.794 -1.3103 -0.6094  2.2115
   63MOL0     H 8631   0.695  -0.394   6.728 -0.3052 -0.0152  1.7516
   63MOL0     H 8632   0.723  -0.349   6.885 -1.5701  1.1531  0.9461
   63MOL0     H 8633   0.665  -0.526   6.993 -2.4305  0.7859  0.5162
   63MOL0     H 8634   0.555  -0.590   6.874  0.1432 -0.1625 -1.9162
   63MOL0     H 8635   0.860  -0.563   6.806 -0.0721  0.6510  1.0075
   63MOL0     H 8636   0.752  -0.673   6.739 -2.1232  3.2984 -1.2357
   63MOL0     H 8637   0.861  -0.705   7.035  2.7894  1.9546 -0.7109
   63MOL0     H 8638   0.781  -0.822   6.934  0.5934 -0.0107 -0.5482
   63MOL0     H 8639   1.060  -0.693   6.895  0.0777 -0.4189 -2.3579
   63MOL0     H 8640   0.996  -0.812   6.783  5.8085 -0.2448  0.5543
   63MOL0     H 8641   1.030  -0.877   7.085  0.0368  0.8293  0.5020
   63MOL0     H 8642   0.963  -0.974   6.953  0.4088 -0.0345 -0.6795
   63MOL0     H 8643   1.115  -1.122   6.799 -1.3054 -1.2907  1.8159
   63MOL0     H 8644   1.351  -1.187   6.684  0.1232  1.1827 -0.1416
   63MOL0     H 8645   1.390  -1.273   6.831 -3.8011 -1.4329 -0.8391
   63MOL0     H 8646   1.568  -1.184   6.649  0.6304  0.4446 -1.0875
   63MOL0     H 8647   1.537  -1.024   6.722 -5.0080  0.8360  2.1604
   63MOL0     H 8648   1.613  -1.110   6.935  1.3999  1.1103 -1.2759
   63MOL0     H 8649   1.645  -1.276   6.881  1.2615 -0.3287 -1.2012
   63MOL0     H 8650   1.792  -1.134   6.701 -0.8390 -1.9072  0.6287
   63MOL0     H 8651   1.804  -1.013   6.844  1.2980  1.3301 -2.5395
   63MOL0     H 8652   1.867  -1.456   6.947 -0.4359 -1.7911 -0.7542
   63MOL0     H 8653   1.829  -1.700   6.843 -0.5564  0.4784  2.8476
   63MOL0     H 8654   1.972  -1.699   6.944 -2.2125 -2.5643  1.0643
   63MOL0     H 8655   1.985  -1.763   6.781 -0.3923  1.1332 -1.6468
   63MOL0     H 8656   2.068  -1.617   6.304  1.7443  0.2841  1.2108
   63MOL0     H 8657   2.149  -1.716   6.108  0.5439  3.3294  1.7896
   63MOL0     H 8658   2.164  -1.874   5.964  0.8294  2.6611 -0.2020
   63MOL0     H 8659   2.332  -1.811   5.978  1.4347 -1.5279 -1.6459
   63MOL0     H 8660   2.340  -1.933   5.773  1.0543  0.2971  0.1985
   63MOL0     H 8661   2.413  -2.028   5.898 -0.2600  1.2320  0.4157
   63MOL0     H 8662   2.139  -2.070   5.770 -1.0671 -0.8042 -0.0672
   63MOL0     H 8663   2.153  -2.126   5.942  1.9938 -1.1350  1.7657
   63MOL0     H 8664   2.326  -2.276   5.874  1.0823  1.3007 -0.9711
   63MOL0     H 8665   2.283  -2.236   5.706 -2.3396 -2.1124  0.5401
   63MOL0     H 8666   2.098  -2.369   5.897  4.6815 -3.8922  0.2670
   63MOL0     H 8667   2.041  -2.282   5.745  0.6270  2.8109  1.5596
   63MOL0     H 8668   2.072  -2.541   5.720  0.5374 -1.1017  2.9813
   63MOL0     H 8669   2.245  -2.512   5.752 -1.1726  0.1418  1.8093
   63MOL0     H 8670   2.274  -2.412   5.556  0.9229 -1.4936  0.2119
   63MOL0     H 8671   2.104  -2.349   5.541 -1.8439 -1.6191 -0.8664
   63MOL0     H 8672   2.160  -2.519   5.381  0.4630  0.8902  0.1199
   63MOL0     H 8673   2.017  -2.558   5.488  0.2072  0.1289 -1.1782
   63MOL0     H 8674   2.225  -2.084   6.318  2.5057  0.5872 -0.8794
   63MOL0     H 8675   2.130  -1.980   6.529 -2.4789 -3.5165 -2.6956
   63MOL0     H 8676   2.121  -1.358   6.544 -1.0238 -1.7260 -1.2981
   63MOL0     H 8677   2.014  -1.171   6.649  1.0199  0.7336  0.4698
   63MOL0     H 8678   0.651  -0.093   6.457 -0.7315  0.3789  0.3607
   63MOL0     H 8679   0.683   0.143   6.377  0.3080  0.1880 -0.7841
   63MOL0     H 8680   0.655   0.598   6.517  0.2315  1.6883 -0.0048
   63MOL0     H 8681   0.728   0.824   6.440 -1.0619  1.2088 -1.3142
   63MOL0     H 8682   0.837   1.049   6.164  2.5559  0.9877 -0.6125
   63MOL0     H 8683   0.768   0.980   6.319 -1.3578 -2.6879  0.5654
   63MOL0     H 8684   1.060   0.948   6.224 -0.0535 -0.8443 -0.6054
   63MOL0     H 8685   1.007   0.888   6.387 -2.9319  1.0712  2.2542
   63MOL0     H 8686   1.122   1.067   6.423  1.1834 -2.2119 -3.0114
   63MOL0     H 8687   1.037   1.181   6.298 -1.7157 -0.2024 -0.0204
   63MOL0     H 8688   0.842   1.177   6.444  1.2434  2.3703 -1.0421
   63MOL0     H 8689   0.997   1.241   6.528  0.6742  1.7473 -1.9764
   63MOL0     H 8690   0.846   0.875   6.702 -0.4799 -1.1287 -3.7317
   63MOL0     H 8691   0.770   0.668   6.040  0.4869  0.7385 -0.5621
   63MOL0     H 8692   0.574   0.423   6.025  0.4496 -1.3496 -1.9042
   63MOL0     H 8693   0.744   0.412   6.002 -0.8375 -4.0765 -0.3900
   63MOL0     H 8694   0.672   0.323   6.132  2.5314 -0.8264 -1.0449
   64MOL0     O 8695  10.425   9.356   6.819 -0.8115  0.6146  0.6085
   64MOL0     C 8696  10.375   9.255   6.857 -0.5579 -0.0742  0.1723
   64MOL0     O 8697  10.333   9.150   6.769 -0.5754 -0.0022  0.1971
   64MOL0     C 8698  10.367   9.162   6.637  0.7835 -0.1027  0.6861
   64MOL0     C 8699  10.481   9.093   6.594  0.5245 -0.0395  0.2036
   64MOL0     C 8700  10.503   9.084   6.459  0.2057  1.1737  0.7398
   64MOL0     C 8701  10.424   9.150   6.365  0.2539  0.4230 -1.9514
   64MOL0     O 8702  10.437   9.131   6.230  0.6854 -0.5205 -0.3427
   64MOL0     C 8703  10.450   8.991   6.182  0.0582 -0.2436  0.1926
   64MOL0     C 8704  10.586   8.964   6.119 -0.6525  0.3753  0.0475
   64MOL0     C 8705  10.628   9.082   6.022 -1.1408 -0.2290  0.6772
   64MOL0     C 8706  10.746   9.044   5.928  0.5785  0.9033 -0.7194
   64MOL0     C 8707  10.774   9.144   5.826  0.1247 -1.2181  0.6347
   64MOL0     C 8708  10.660   9.167   5.720  0.1125  0.3566  0.3304
   64MOL0     C 8709  10.680   9.282   5.633  0.1468 -0.3562 -0.0010
   64MOL0     C 8710  10.789   9.250   5.525  0.3168  0.0253 -1.3501
   64MOL0     N 8711  10.799   9.344   5.412  0.2656 -0.3126  0.4973
   64MOL0     C 8712  10.864   9.460   5.407 -0.9693  0.3033  0.8208
   64MOL0     C 8713  10.822   9.514   5.283 -0.0559 -0.2829 -0.9752
   64MOL0     C 8714  10.879   9.633   5.221 -0.6142 -1.0106 -0.9231
   64MOL0     C 8715  11.017   9.608   5.158  0.2043  0.9382  0.5323
   64MOL0     C 8716  11.050   9.734   5.083  0.0063 -1.2106  0.9312
   64MOL0     C 8717  11.168   9.728   4.983 -0.4602 -0.2138  0.0039
   64MOL0     O 8718  11.258   9.619   5.007  0.4178 -0.2002  0.2240
   64MOL0     C 8719  11.359   9.593   4.922 -0.5651  0.6459  0.3168
   64MOL0     C 8720  11.406   9.461   4.927 -0.3971  0.0289  0.5706
   64MOL0     C 8721  11.503   9.424   4.829 -1.1244  0.5258 -0.3619
   64MOL0     C 8722  11.568   9.287   4.842  0.2749 -1.0574  0.7295
   64MOL0     C 8723  11.554   9.517   4.729 -0.2001  0.3501 -0.4489
   64MOL0     C 8724  11.656   9.482   4.630  0.7115 -0.3517 -1.0852
   64MOL0     O 8725  11.603   9.466   4.506  0.3668  0.7177 -0.3090
   64MOL0     C 8726  11.690   9.455   4.405  0.1002  0.5345  1.0774
   64MOL0     C 8727  11.692   9.558   4.313  0.3215  0.2562  1.0387
   64MOL0     C 8728  11.791   9.564   4.205 -0.3481 -0.7053 -0.3719
   64MOL0     C 8729  11.879   9.460   4.191  0.3461 -0.2001  0.1958
   64MOL0     O 8730  11.990   9.473   4.110  0.1471 -0.9552  0.3463
   64MOL0     C 8731  12.087   9.364   4.110 -0.3799  0.0507 -0.4039
   64MOL0     C 8732  12.211   9.391   4.030 -1.4070 -0.3548  0.1076
   64MOL0     C 8733  12.263   9.525   4.067  0.3376  0.8692  0.0330
   64MOL0     C 8734  12.419   9.545   4.033  0.4477 -0.2956 -0.5390
   64MOL0     C 8735  12.424   9.623   3.904 -0.8578 -0.2271 -0.2023
   64MOL0     C 8736  12.555   9.615   3.823  1.0608 -0.5813  0.6948
   64MOL0     C 8737  12.586   9.474   3.766 -1.4690  0.2696 -0.5686
   64MOL0     C 8738  12.526   9.453   3.632  1.1881  0.8232  0.1197
   64MOL0    Cl 8739  12.546   9.278   3.584  0.4645 -0.1283 -0.5695
   64MOL0     C 8740  11.856   9.347   4.273  0.1556  0.0127 -0.0071
   64MOL0     C 8741  11.767   9.344   4.377  0.7640  1.3818  0.6380
   64MOL0     O 8742  11.774   9.475   4.665 -0.3841  0.4563 -0.5368
   64MOL0     C 8743  11.512   9.650   4.736 -0.5784  0.4192 -1.2333
   64MOL0     C 8744  11.412   9.682   4.823  0.0001  0.9897 -0.3596
   64MOL0     N 8745  10.747   9.426   5.217 -0.3366 -0.1523  0.0161
   64MOL0     N 8746  10.731   9.326   5.295 -0.0304  0.4928  0.4210
   64MOL0     C 8747  10.323   9.234   6.407 -0.0034  0.0852 -0.4706
   64MOL0     C 8748  10.287   9.239   6.545 -0.0722  0.8089  0.0619
   64MOL0     C 8749  10.313   9.234   6.993  0.4969  0.1717 -0.5756
   64MOL0     C 8750  10.370   9.144   7.080 -1.2079 -0.0181  0.7753
   64MOL0     C 8751  10.324   9.131   7.210 -0.6383 -0.6096  0.0348
   64MOL0     C 8752  10.202   9.191   7.240  0.4876 -0.4303 -0.2348
   64MOL0     O 8753  10.152   9.164   7.367  1.0175  0.4385 -0.1042
   64MOL0     C 8754  10.016   9.191   7.405 -0.1777  0.1859 -0.1642
   64MOL0     C 8755  10.002   9.129   7.547  0.7364 -0.2119  0.0928
   64MOL0     C 8756  10.123   9.159   7.646  0.1849  0.0793 -0.2564
   64MOL0     C 8757  10.124   9.300   7.695 -0.3685  0.2060 -0.8371
   64MOL0     C 8758   9.998   9.330   7.774  0.5451  1.3239  0.8331
   64MOL0     C 8759   9.908   9.371   7.846  0.7559 -0.0798 -0.2593
   64MOL0     C 8760  10.139   9.269   7.157 -0.0753  0.5261  0.3875
   64MOL0     C 8761  10.196   9.305   7.033  0.4045 -0.7191 -1.0478
   64MOL0     C 8762  10.116   9.404   6.963 -0.5969  0.0927  0.4623
   64MOL0     H 8763  10.546   9.037   6.661 -1.2735 -0.6092  1.5561
   64MOL0     H 8764  10.567   9.005   6.420 -0.0929  1.9335 -1.4507
   64MOL0     H 8765  10.384   8.981   6.095  0.4023 -0.2070 -0.0772
   64MOL0     H 8766  10.438   8.909   6.254 -1.8430 -1.0803 -0.9833
   64MOL0     H 8767  10.657   8.951   6.201 -1.5194 -3.2223  0.3914
   64MOL0     H 8768  10.580   8.869   6.065  1.6095  1.2490 -1.9145
   64MOL0     H 8769  10.541   9.114   5.964  0.3604  1.5782 -0.7053
   64MOL0     H 8770  10.666   9.165   6.083  1.0855  2.2879 -3.6421
   64MOL0     H 8771  10.833   9.038   5.995  0.2493 -1.0618 -0.4212
   64MOL0     H 8772  10.736   8.943   5.887  1.4351  0.4466  0.1546
   64MOL0     H 8773  10.867   9.128   5.771  0.7927 -3.1365  2.1988
   64MOL0     H 8774  10.782   9.239   5.878 -2.1083 -0.9668  0.6307
   64MOL0     H 8775  10.643   9.079   5.656  1.4199  0.7527 -0.6158
   64MOL0     H 8776  10.563   9.194   5.762 -0.2359  1.3408 -1.0527
   64MOL0     H 8777  10.712   9.371   5.688 -0.3777  0.7326 -1.3777
   64MOL0     H 8778  10.585   9.312   5.588 -0.6113  1.1999  2.4356
   64MOL0     H 8779  10.882   9.248   5.583 -0.1583  1.2272 -0.5155
   64MOL0     H 8780  10.780   9.146   5.493  1.1918 -2.1681  4.3696
   64MOL0     H 8781  10.935   9.504   5.476  0.2769  1.2436 -0.9796
   64MOL0     H 8782  10.885   9.722   5.285  0.6140 -0.4658 -1.7536
   64MOL0     H 8783  10.803   9.669   5.152  0.6274 -0.2982 -1.9706
   64MOL0     H 8784  11.098   9.593   5.230 -1.2302  0.0530  2.0356
   64MOL0     H 8785  11.017   9.527   5.085 -0.8259 -1.8187  3.3624
   64MOL0     H 8786  10.956   9.765   5.038 -1.1721 -1.6343  2.9488
   64MOL0     H 8787  11.083   9.802   5.163 -0.5844  0.0365  0.1389
   64MOL0     H 8788  11.132   9.722   4.880  2.4027  1.5161 -1.2436
   64MOL0     H 8789  11.231   9.816   4.999 -1.2639 -0.1559  3.6750
   64MOL0     H 8790  11.381   9.396   5.010  0.8492  0.0915  1.0123
   64MOL0     H 8791  11.500   9.203   4.852  1.0544 -1.7095  0.6386
   64MOL0     H 8792  11.645   9.300   4.918  1.8294 -1.3036 -0.7313
   64MOL0     H 8793  11.616   9.274   4.744 -1.8786 -0.3947 -0.4920
   64MOL0     H 8794  11.633   9.649   4.323  1.6813  1.3073 -0.0211
   64MOL0     H 8795  11.790   9.652   4.141  0.5214 -1.0513 -0.8737
   64MOL0     H 8796  12.109   9.354   4.216  3.1493  0.0328 -1.0126
   64MOL0     H 8797  12.051   9.270   4.067 -0.9949  0.5470 -0.9972
   64MOL0     H 8798  12.278   9.306   4.044  1.9091  2.0327 -0.0560
   64MOL0     H 8799  12.184   9.396   3.925 -3.2351 -0.3109  0.5531
   64MOL0     H 8800  12.252   9.533   4.175 -0.6814 -2.2133  0.2385
   64MOL0     H 8801  12.197   9.602   4.024 -2.7577 -2.3891 -1.5333
   64MOL0     H 8802  12.480   9.454   4.039  2.2561  0.8026 -1.3312
   64MOL0     H 8803  12.466   9.607   4.109  0.2697 -1.4762  0.5580
   64MOL0     H 8804  12.335   9.610   3.842 -2.7763  0.4719  2.2426
   64MOL0     H 8805  12.407   9.723   3.942 -1.7523 -0.8154  1.0035
   64MOL0     H 8806  12.644   9.651   3.876  0.5411 -1.9087  2.5946
   64MOL0     H 8807  12.536   9.682   3.739 -1.6348  2.3475  3.3890
   64MOL0     H 8808  12.544   9.396   3.830  1.0449 -0.2414  0.5694
   64MOL0     H 8809  12.693   9.454   3.761 -1.6163 -0.7774  0.1621
   64MOL0     H 8810  12.570   9.520   3.557 -2.4198  1.3123 -1.8151
   64MOL0     H 8811  12.418   9.467   3.641  0.9213 -1.9389  3.2719
   64MOL0     H 8812  11.921   9.260   4.273 -1.1432 -0.9815  0.7807
   64MOL0     H 8813  11.758   9.253   4.435  0.4696  0.8008 -0.3198
   64MOL0     H 8814  11.555   9.729   4.675  1.7870 -0.6836 -1.0818
   64MOL0     H 8815  11.379   9.786   4.824 -0.6059  0.8152 -1.3378
   64MOL0     H 8816  10.267   9.294   6.335 -3.7418  0.2082  2.2576
   64MOL0     H 8817  10.197   9.288   6.581  1.1279  2.6902  0.5940
   64MOL0     H 8818  10.456   9.080   7.064 -0.7974  0.6592  0.1955
   64MOL0     H 8819  10.386   9.075   7.279  1.3479  1.8491  0.3856
   64MOL0     H 8820   9.977   9.293   7.409 -3.0728 -0.7816 -1.5621
   64MOL0     H 8821   9.945   9.133   7.346 -0.2952 -0.7898  0.8993
   64MOL0     H 8822  10.003   9.020   7.538 -1.0995 -0.1913 -0.8912
   64MOL0     H 8823   9.912   9.154   7.604  1.9975  1.8960  1.2848
   64MOL0     H 8824  10.111   9.087   7.727 -1.5964 -1.6653 -1.9691
   64MOL0     H 8825  10.225   9.136   7.613 -0.8692 -0.7751 -3.3021
   64MOL0     H 8826  10.129   9.367   7.608  0.3343 -2.1458 -2.7223
   64MOL0     H 8827  10.214   9.313   7.756 -0.7615 -1.5113  0.1787
   64MOL0     H 8828   9.843   9.406   7.923  3.0058  1.1979  1.1929
   64MOL0     H 8829  10.045   9.317   7.185  0.7804  1.6672  1.4483
   64MOL0     H 8830  10.168   9.477   6.901  0.1396  0.3503  1.3657
   64MOL0     H 8831  10.053   9.348   6.893 -1.3559 -0.5526  1.6331
   64MOL0     H 8832  10.058   9.460   7.036  0.4107 -1.7953  2.8260
   65MOL0     O 8833   1.748   6.256   3.445 -0.6318 -0.1283 -0.7539
   65MOL0     C 8834   1.792   6.368   3.469  0.4612  0.3000 -1.2506
   65MOL0     O 8835   1.902   6.394   3.547  0.0911 -0.9332  0.0806
   65MOL0     C 8836   1.965   6.293   3.616 -0.0291  0.6919  0.5584
   65MOL0     C 8837   2.101   6.268   3.594 -0.2339 -1.2345 -0.4963
   65MOL0     C 8838   2.163   6.166   3.666  0.8979  0.6673 -0.5463
   65MOL0     C 8839   2.095   6.101   3.765 -0.5947  0.0188 -0.4248
   65MOL0     O 8840   2.166   6.014   3.839  0.5146  0.7116 -0.2453
   65MOL0     C 8841   2.113   5.944   3.954  0.5809 -1.0316  0.2004
   65MOL0     C 8842   2.236   5.916   4.044 -0.1823  0.2022  0.4562
   65MOL0     C 8843   2.216   5.792   4.139 -0.3534  0.0730  0.4995
   65MOL0     C 8844   2.225   5.822   4.281  0.4648 -0.8205 -0.0380
   65MOL0     C 8845   2.105   5.906   4.338  0.1185 -0.0515 -1.2648
   65MOL0     C 8846   2.155   5.998   4.458 -0.0167  0.4993  0.3159
   65MOL0     C 8847   2.048   6.093   4.496 -0.5212  0.2689 -0.6034
   65MOL0     C 8848   1.925   6.035   4.553  0.4605  0.6139  0.4627
   65MOL0     N 8849   1.958   5.943   4.666  0.2256 -0.7069  0.4410
   65MOL0     C 8850   1.972   5.806   4.657  0.1172  0.1472  0.1672
   65MOL0     C 8851   1.985   5.767   4.787  0.5188 -0.7758 -0.2543
   65MOL0     C 8852   1.975   5.618   4.831 -0.2057 -0.2419  0.1553
   65MOL0     C 8853   2.109   5.581   4.895 -0.3498  0.5295  0.3849
   65MOL0     C 8854   2.132   5.435   4.930  0.3146 -0.0282 -0.6153
   65MOL0     C 8855   2.219   5.359   4.832 -0.0758  0.3856  0.1819
   65MOL0     O 8856   2.128   5.320   4.726  0.4281  0.0281 -0.2477
   65MOL0     C 8857   2.185   5.300   4.607  0.5612 -0.3287  0.0943
   65MOL0     C 8858   2.131   5.359   4.490  0.3070  0.5926  0.2336
   65MOL0     C 8859   2.188   5.345   4.363 -0.2347  1.0037 -0.0406
   65MOL0     C 8860   2.120   5.411   4.247  0.0095 -0.0331  0.0835
   65MOL0     C 8861   2.306   5.275   4.349  0.0556  0.3662 -0.5464
   65MOL0     C 8862   2.384   5.250   4.219  0.5507 -0.1510 -1.3206
   65MOL0     O 8863   2.466   5.143   4.230 -0.8300  0.1766  0.5432
   65MOL0     C 8864   2.546   5.103   4.125 -0.0663  0.2891 -0.8506
   65MOL0     C 8865   2.511   4.988   4.058  0.4598 -0.1409 -0.4856
   65MOL0     C 8866   2.595   4.935   3.963 -0.3952 -0.3426 -0.5522
   65MOL0     C 8867   2.696   5.012   3.905 -0.1282  0.4651  0.5047
   65MOL0     O 8868   2.777   4.959   3.806 -1.5756 -0.1890  0.6270
   65MOL0     C 8869   2.720   4.959   3.676 -0.0850 -0.6514  0.8211
   65MOL0     C 8870   2.747   4.814   3.616 -0.6440 -1.1432 -0.4299
   65MOL0     C 8871   2.683   4.708   3.697 -0.1294  0.2688 -1.0618
   65MOL0     C 8872   2.726   4.569   3.647 -0.5765 -0.4707 -0.7366
   65MOL0     C 8873   2.711   4.462   3.753 -0.3925  0.1830 -0.3853
   65MOL0     C 8874   2.657   4.320   3.723 -0.1085  0.2497  0.7403
   65MOL0     C 8875   2.712   4.262   3.589  0.0455  0.0138 -0.1647
   65MOL0     C 8876   2.857   4.240   3.584  0.8050 -0.5959 -0.7459
   65MOL0    Cl 8877   2.894   4.157   3.729  0.1944  0.3244 -0.0562
   65MOL0     C 8878   2.732   5.124   3.971 -0.2821 -1.0135 -1.4209
   65MOL0     C 8879   2.665   5.164   4.094  0.2873 -0.2400  1.0543
   65MOL0     O 8880   2.393   5.342   4.146 -0.6017 -0.3001  0.7828
   65MOL0     C 8881   2.358   5.209   4.466  0.7949  0.0128 -0.4089
   65MOL0     C 8882   2.297   5.223   4.588 -0.2265  0.5896  0.3083
   65MOL0     N 8883   1.988   5.882   4.868  0.3388  0.4447 -0.0345
   65MOL0     N 8884   1.974   5.986   4.795 -1.3281 -0.4495  0.0332
   65MOL0     C 8885   1.961   6.130   3.792 -0.3054 -0.1831  0.9361
   65MOL0     C 8886   1.895   6.218   3.712  0.3642  0.5578 -0.3269
   65MOL0     C 8887   1.711   6.491   3.427 -0.2751 -1.0738 -0.6501
   65MOL0     C 8888   1.575   6.465   3.402  0.4066 -0.6554 -0.6821
   65MOL0     C 8889   1.488   6.577   3.375 -0.6849 -0.6219  0.1393
   65MOL0     C 8890   1.554   6.698   3.346  1.5743 -0.3090 -0.2351
   65MOL0     O 8891   1.486   6.808   3.296  0.2382 -0.0951 -0.2316
   65MOL0     C 8892   1.346   6.832   3.326  0.3934 -0.4986  0.3537
   65MOL0     C 8893   1.330   6.973   3.376  0.6112  0.2480  0.2950
   65MOL0     C 8894   1.306   7.063   3.253  0.3546 -0.1087  0.7442
   65MOL0     C 8895   1.402   7.063   3.130  0.5850  0.5624 -1.1780
   65MOL0     C 8896   1.361   7.156   3.020  0.1355  0.2375  0.4218
   65MOL0     C 8897   1.322   7.224   2.924  0.5574  0.4687 -0.6419
   65MOL0     C 8898   1.684   6.719   3.384  0.2932  0.1321 -0.2610
   65MOL0     C 8899   1.773   6.624   3.432  0.3067  0.2320  0.8015
   65MOL0     C 8900   1.914   6.654   3.453  0.2007 -0.4946  0.7488
   65MOL0     H 8901   2.153   6.332   3.524 -4.4528  3.8909  0.4718
   65MOL0     H 8902   2.266   6.133   3.654  0.3787 -2.0709  1.5851
   65MOL0     H 8903   2.064   5.850   3.928  1.7592 -1.1955 -1.5738
   65MOL0     H 8904   2.047   6.018   3.999  0.1380  0.1087 -2.1758
   65MOL0     H 8905   2.318   5.899   3.974 -1.3884  1.1953 -1.2867
   65MOL0     H 8906   2.258   6.005   4.104  0.4833  0.6899 -0.4740
   65MOL0     H 8907   2.123   5.743   4.108 -1.9417  2.2372  1.5354
   65MOL0     H 8908   2.297   5.727   4.105  0.8400  1.9589 -0.4253
   65MOL0     H 8909   2.248   5.729   4.335  4.5137 -0.1689 -0.2702
   65MOL0     H 8910   2.319   5.878   4.294  1.1770 -1.5522 -1.7237
   65MOL0     H 8911   2.028   5.835   4.368  2.0635 -1.8027 -0.1276
   65MOL0     H 8912   2.063   5.976   4.266 -1.2862  0.1091 -0.3338
   65MOL0     H 8913   2.197   5.944   4.543  3.5980  2.1850 -0.1947
   65MOL0     H 8914   2.240   6.055   4.419  0.0650 -1.3201 -2.4406
   65MOL0     H 8915   2.018   6.169   4.423  0.6214  0.1150 -1.2527
   65MOL0     H 8916   2.086   6.156   4.578 -2.7612  2.2018 -0.9330
   65MOL0     H 8917   1.867   6.118   4.596  1.5173  0.7222  1.7602
   65MOL0     H 8918   1.864   5.994   4.472  2.3996 -0.2110 -0.6603
   65MOL0     H 8919   1.961   5.742   4.570 -1.1974 -0.3308  0.6675
   65MOL0     H 8920   1.958   5.546   4.751 -2.7537  0.4378 -0.0176
   65MOL0     H 8921   1.887   5.618   4.896 -0.5929 -1.0924 -0.3668
   65MOL0     H 8922   2.195   5.615   4.837 -0.5394 -2.4894 -1.9045
   65MOL0     H 8923   2.098   5.629   4.993  0.3228  2.0847 -0.2653
   65MOL0     H 8924   2.178   5.443   5.029 -2.8766 -0.2725  1.0038
   65MOL0     H 8925   2.038   5.380   4.943  1.5732 -1.8577  1.5434
   65MOL0     H 8926   2.308   5.409   4.792  1.4348  0.1530  2.9869
   65MOL0     H 8927   2.243   5.263   4.878  1.0500  1.3513  1.6967
   65MOL0     H 8928   2.033   5.404   4.502 -1.3315 -3.0046  1.7515
   65MOL0     H 8929   2.018   5.431   4.280  1.0606  1.0277  3.0299
   65MOL0     H 8930   2.125   5.350   4.157  1.0589  1.1807 -0.7197
   65MOL0     H 8931   2.169   5.509   4.242  0.5191  0.0381  3.5950
   65MOL0     H 8932   2.422   4.934   4.091  0.3653  0.6191  0.5778
   65MOL0     H 8933   2.561   4.842   3.916 -2.6414  1.1500 -2.1138
   65MOL0     H 8934   2.613   4.979   3.669 -0.2445 -0.9034  2.2736
   65MOL0     H 8935   2.775   5.024   3.607  1.6418 -2.0683  0.7751
   65MOL0     H 8936   2.707   4.821   3.515 -1.2978  4.1606 -0.1192
   65MOL0     H 8937   2.855   4.797   3.614 -0.9489 -3.3285 -1.5118
   65MOL0     H 8938   2.574   4.716   3.699  0.0337  4.0661 -0.0890
   65MOL0     H 8939   2.715   4.730   3.800 -2.3246 -0.0935 -0.2528
   65MOL0     H 8940   2.826   4.563   3.604 -0.0908  0.8319  0.1388
   65MOL0     H 8941   2.655   4.546   3.567 -1.1264 -1.6219  0.0537
   65MOL0     H 8942   2.808   4.463   3.804 -0.8922  0.3463  0.5809
   65MOL0     H 8943   2.640   4.501   3.826  1.0041 -0.0488  1.1527
   65MOL0     H 8944   2.551   4.330   3.697 -0.7212  1.7785  3.4173
   65MOL0     H 8945   2.682   4.244   3.797 -0.8704 -2.7618 -1.8695
   65MOL0     H 8946   2.684   4.330   3.508 -3.8789 -1.0350  0.1173
   65MOL0     H 8947   2.652   4.172   3.571  1.7744 -2.2971  3.9851
   65MOL0     H 8948   2.910   4.334   3.596 -1.4824  0.8390 -1.3381
   65MOL0     H 8949   2.878   4.185   3.492 -0.5775 -4.5905  1.0608
   65MOL0     H 8950   2.810   5.192   3.938 -2.2482  1.6921 -0.8155
   65MOL0     H 8951   2.704   5.246   4.153 -2.5858  1.6382  0.5142
   65MOL0     H 8952   2.441   5.140   4.467 -0.5765 -1.8699 -3.2563
   65MOL0     H 8953   2.336   5.164   4.671 -0.1022 -0.0264 -0.1813
   65MOL0     H 8954   1.898   6.078   3.864 -1.0126 -1.9363 -0.8821
   65MOL0     H 8955   1.787   6.227   3.725  0.4551  0.7600  0.3051
   65MOL0     H 8956   1.540   6.363   3.404 -3.1847  0.2302 -4.5741
   65MOL0     H 8957   1.380   6.572   3.371 -0.8844 -0.4681  3.0040
   65MOL0     H 8958   1.283   6.799   3.243  0.5747 -2.1610  0.8404
   65MOL0     H 8959   1.307   6.768   3.405 -7.0096  1.6838 -0.8034
   65MOL0     H 8960   1.411   7.002   3.443  3.4646  1.8991 -3.4867
   65MOL0     H 8961   1.240   6.974   3.439 -0.9710  1.1287 -1.8470
   65MOL0     H 8962   1.208   7.031   3.218  0.5460 -0.8651  0.8843
   65MOL0     H 8963   1.311   7.167   3.286  1.2425  0.8805 -2.1973
   65MOL0     H 8964   1.406   6.959   3.095  1.6314  0.5168 -0.9384
   65MOL0     H 8965   1.502   7.092   3.164 -0.3196  0.9097  1.3703
   65MOL0     H 8966   1.301   7.300   2.852  1.0248  1.7371  0.5059
   65MOL0     H 8967   1.726   6.816   3.358 -0.1003 -0.0663 -1.7503
   65MOL0     H 8968   1.949   6.636   3.555  1.1374 -2.2790  0.1585
   65MOL0     H 8969   1.970   6.585   3.390 -3.4013 -1.9134 -1.1625
   65MOL0     H 8970   1.939   6.755   3.419 -0.5248 -1.1635 -2.0139
   66MOL0     O 8971   7.603   7.464   0.869  0.8701  0.2891  0.1386
   66MOL0     C 8972   7.675   7.559   0.897 -0.6764 -0.2212 -0.3602
   66MOL0     O 8973   7.701   7.596   1.020 -0.2935 -0.2006  0.6101
   66MOL0     C 8974   7.648   7.537   1.138  0.6067 -0.2679  0.4774
   66MOL0     C 8975   7.677   7.607   1.254 -0.7883 -0.1148 -0.1900
   66MOL0     C 8976   7.647   7.541   1.381 -0.8445 -0.7915  0.6758
   66MOL0     C 8977   7.588   7.406   1.388  1.1093  0.3429 -0.6655
   66MOL0     O 8978   7.565   7.343   1.506 -0.7494 -0.0728  0.7216
   66MOL0     C 8979   7.566   7.417   1.625  0.9877 -0.3739 -0.0835
   66MOL0     C 8980   7.510   7.332   1.740 -0.3655 -0.5958 -0.1014
   66MOL0     C 8981   7.489   7.424   1.859 -0.0121 -0.3074  0.7742
   66MOL0     C 8982   7.355   7.506   1.848  0.6112 -0.0895 -0.0688
   66MOL0     C 8983   7.326   7.601   1.963 -0.3536 -0.0425  0.8051
   66MOL0     C 8984   7.449   7.688   1.982  0.8681  0.5248 -0.3513
   66MOL0     C 8985   7.431   7.817   2.064 -0.1276  0.0799  0.0038
   66MOL0     C 8986   7.372   7.804   2.208  0.0910 -0.1634 -0.2826
   66MOL0     N 8987   7.274   7.897   2.255  0.7958 -0.4666 -0.6165
   66MOL0     C 8988   7.152   7.933   2.195  0.4349  0.4260  0.3205
   66MOL0     C 8989   7.112   8.031   2.276  0.5333 -1.3249  0.4580
   66MOL0     C 8990   6.991   8.119   2.253 -0.7914 -0.5176  0.0041
   66MOL0     C 8991   7.000   8.193   2.113 -0.3367  0.8519 -0.7692
   66MOL0     C 8992   6.945   8.336   2.127  0.1390 -0.0272 -0.1107
   66MOL0     C 8993   6.952   8.409   1.987 -0.2253 -0.5673 -0.3910
   66MOL0     O 8994   6.905   8.333   1.876 -0.3644  0.3491 -0.7985
   66MOL0     C 8995   6.843   8.385   1.776 -0.4190  0.3111  0.4500
   66MOL0     C 8996   6.903   8.478   1.697 -0.5701 -0.4296  0.6156
   66MOL0     C 8997   6.846   8.523   1.577 -0.3295  0.3056  0.4226
   66MOL0     C 8998   6.924   8.625   1.505 -0.9996  0.2912 -0.4299
   66MOL0     C 8999   6.724   8.464   1.531  0.0848 -1.4869 -0.5623
   66MOL0     C 9000   6.673   8.488   1.398 -0.9311 -0.0846  0.3644
   66MOL0     O 9001   6.561   8.418   1.370 -1.3809  0.3420  0.8667
   66MOL0     C 9002   6.513   8.405   1.242 -0.0469 -0.3917 -0.7124
   66MOL0     C 9003   6.535   8.283   1.165 -0.4472  0.2842 -0.3002
   66MOL0     C 9004   6.494   8.269   1.030 -0.0856 -0.3233  0.0603
   66MOL0     C 9005   6.434   8.387   0.974  0.9270  1.0203  0.2919
   66MOL0     O 9006   6.403   8.371   0.843 -0.1517  0.8966  0.0325
   66MOL0     C 9007   6.328   8.468   0.771  0.4121  0.1692 -0.9169
   66MOL0     C 9008   6.257   8.390   0.659 -0.0345 -0.9914 -0.7987
   66MOL0     C 9009   6.177   8.277   0.723  0.3295 -0.5734 -0.4815
   66MOL0     C 9010   6.108   8.201   0.612  0.6792  0.3535 -0.2902
   66MOL0     C 9011   5.975   8.149   0.668  0.7482 -0.3020 -0.6483
   66MOL0     C 9012   5.887   8.077   0.566 -0.4365  0.4034 -0.5728
   66MOL0     C 9013   5.938   7.934   0.557 -0.1756  0.6340  0.6331
   66MOL0     C 9014   5.882   7.878   0.435  0.5618  0.2506  0.2464
   66MOL0    Cl 9015   5.941   7.712   0.403  0.2826 -0.0691  0.0543
   66MOL0     C 9016   6.417   8.503   1.042  0.2493 -0.3794 -0.4280
   66MOL0     C 9017   6.455   8.515   1.177 -0.0283  0.2520 -0.2206
   66MOL0     O 9018   6.749   8.537   1.308 -0.0969 -0.1584  1.0069
   66MOL0     C 9019   6.671   8.362   1.607 -1.3253  0.0065  0.3154
   66MOL0     C 9020   6.732   8.318   1.724 -0.0789  1.0797 -0.2496
   66MOL0     N 9021   7.186   8.051   2.385 -0.8258 -0.2975  0.3132
   66MOL0     N 9022   7.283   7.967   2.373 -0.3597  1.7172 -0.4308
   66MOL0     C 9023   7.559   7.339   1.262  1.1083 -0.2220  0.2020
   66MOL0     C 9024   7.586   7.410   1.142  0.2938 -0.0231  0.0041
   66MOL0     C 9025   7.722   7.646   0.786  0.4439 -1.3500  0.4515
   66MOL0     C 9026   7.725   7.789   0.809 -0.2876 -0.3615 -0.2866
   66MOL0     C 9027   7.777   7.878   0.715  0.1392 -0.5872  0.4964
   66MOL0     C 9028   7.816   7.828   0.595 -0.8758  0.6395  0.2492
   66MOL0     O 9029   7.873   7.909   0.510 -0.6488 -0.1861 -0.0671
   66MOL0     C 9030   8.004   7.886   0.455  0.0260  0.7403  0.1426
   66MOL0     C 9031   8.041   7.999   0.342  0.2147 -1.0299 -0.4072
   66MOL0     C 9032   8.022   8.133   0.407  0.2081  0.9254  1.0912
   66MOL0     C 9033   8.042   8.243   0.309 -0.7566 -0.3576  0.5153
   66MOL0     C 9034   8.023   8.380   0.378 -1.1461  0.3081 -0.5956
   66MOL0     C 9035   8.008   8.488   0.433  0.5575  0.4727  0.2725
   66MOL0     C 9036   7.805   7.692   0.562  0.2782  0.2673  0.8235
   66MOL0     C 9037   7.766   7.596   0.659  0.1116 -0.5427 -0.1329
   66MOL0     C 9038   7.740   7.452   0.619  0.0306  0.4249  0.2564
   66MOL0     H 9039   7.732   7.700   1.262  0.3346 -0.8166  0.5835
   66MOL0     H 9040   7.681   7.597   1.467  0.1666 -0.7255  0.2435
   66MOL0     H 9041   7.508   7.508   1.609 -2.1497 -2.5558 -2.3331
   66MOL0     H 9042   7.666   7.443   1.660  0.4803 -0.3537  1.4152
   66MOL0     H 9043   7.415   7.287   1.712 -1.0156  0.7428 -0.0759
   66MOL0     H 9044   7.568   7.244   1.772 -1.2748 -1.4530 -0.7629
   66MOL0     H 9045   7.492   7.385   1.961 -2.1969  1.0275  1.4325
   66MOL0     H 9046   7.566   7.501   1.855  2.0063 -2.2567 -0.0632
   66MOL0     H 9047   7.357   7.572   1.761  0.2313  0.7944  0.5746
   66MOL0     H 9048   7.265   7.446   1.830  0.3080  0.0389  0.9603
   66MOL0     H 9049   7.305   7.542   2.053 -3.9245 -0.5207 -0.2024
   66MOL0     H 9050   7.235   7.657   1.941  0.2349 -0.1040 -2.0836
   66MOL0     H 9051   7.519   7.629   2.042 -0.1571  0.6677  1.0187
   66MOL0     H 9052   7.501   7.708   1.887  1.1989 -0.0295 -0.2935
   66MOL0     H 9053   7.359   7.882   2.013 -0.6774 -0.5482 -0.0325
   66MOL0     H 9054   7.527   7.870   2.066  1.4356 -2.3938  4.8912
   66MOL0     H 9055   7.327   7.706   2.227 -1.3789  0.2416 -1.4838
   66MOL0     H 9056   7.453   7.806   2.281  1.2201  2.5225 -1.4780
   66MOL0     H 9057   7.097   7.895   2.110  1.2140  2.3467 -1.1284
   66MOL0     H 9058   6.994   8.194   2.332  1.8610 -1.2284  0.6609
   66MOL0     H 9059   6.903   8.053   2.252 -1.3972  0.2755  0.4035
   66MOL0     H 9060   7.101   8.220   2.082 -1.3416  3.4658 -2.0438
   66MOL0     H 9061   6.946   8.139   2.035 -0.6763  0.1478 -0.0667
   66MOL0     H 9062   6.837   8.340   2.146  0.4455 -3.7456  3.8466
   66MOL0     H 9063   6.982   8.394   2.212  0.5743 -1.7164  0.8918
   66MOL0     H 9064   6.894   8.502   1.990 -1.6153 -1.4143  0.0907
   66MOL0     H 9065   7.058   8.429   1.973 -0.4154  0.5529 -0.3223
   66MOL0     H 9066   6.991   8.517   1.748  0.0179 -2.4439  1.2311
   66MOL0     H 9067   7.001   8.667   1.571 -0.0899 -1.8650 -0.0225
   66MOL0     H 9068   6.852   8.699   1.470 -2.7845 -0.3550  1.6740
   66MOL0     H 9069   6.986   8.590   1.422 -0.6384  0.4954 -0.2488
   66MOL0     H 9070   6.575   8.193   1.210  0.3110  2.3544  3.6404
   66MOL0     H 9071   6.520   8.173   0.985  4.8197 -0.6209  2.8281
   66MOL0     H 9072   6.249   8.529   0.815  1.2506  0.5467  0.0827
   66MOL0     H 9073   6.390   8.546   0.725  2.4960  0.1071  1.5999
   66MOL0     H 9074   6.203   8.439   0.577  1.6372 -3.0641 -3.2852
   66MOL0     H 9075   6.341   8.332   0.622  0.0020 -1.1455 -0.4741
   66MOL0     H 9076   6.097   8.324   0.780  0.4706 -3.4331  2.3903
   66MOL0     H 9077   6.233   8.212   0.790  1.7518 -1.6431 -2.5918
   66MOL0     H 9078   6.176   8.126   0.572  1.8606  2.7337 -3.0645
   66MOL0     H 9079   6.080   8.273   0.535  0.9877  0.5080 -0.2596
   66MOL0     H 9080   5.999   8.081   0.751 -0.4439 -2.5981 -2.0776
   66MOL0     H 9081   5.915   8.237   0.695 -2.8609 -2.0576 -2.2966
   66MOL0     H 9082   5.894   8.138   0.476  1.0491  0.3256 -0.5372
   66MOL0     H 9083   5.785   8.073   0.604  0.1719 -0.8690  1.1308
   66MOL0     H 9084   5.908   7.864   0.636  1.5178 -0.2694  0.5173
   66MOL0     H 9085   6.047   7.924   0.559 -0.2988 -2.6612 -1.3862
   66MOL0     H 9086   5.925   7.932   0.350  2.4812 -2.9900 -1.0097
   66MOL0     H 9087   5.773   7.884   0.428  0.4616 -1.5799 -0.1444
   66MOL0     H 9088   6.384   8.587   0.983 -3.6702 -0.9759  0.6238
   66MOL0     H 9089   6.445   8.608   1.232 -2.0825  0.2031 -0.4343
   66MOL0     H 9090   6.586   8.301   1.578 -1.7033 -0.1017  1.5765
   66MOL0     H 9091   6.683   8.232   1.768 -1.9190  0.9608 -2.3822
   66MOL0     H 9092   7.529   7.236   1.250 -1.6180  0.6889 -1.7378
   66MOL0     H 9093   7.560   7.361   1.049 -1.0737  3.0178 -1.3714
   66MOL0     H 9094   7.693   7.812   0.910  2.6077 -0.7944  0.8438
   66MOL0     H 9095   7.776   7.987   0.719 -4.4040 -0.2879 -2.0868
   66MOL0     H 9096   8.073   7.879   0.539 -1.2351 -1.2018  1.0740
   66MOL0     H 9097   8.001   7.787   0.408 -2.5369  1.9665 -2.6107
   66MOL0     H 9098   7.969   7.987   0.261 -0.7136  0.2620  0.1852
   66MOL0     H 9099   8.132   7.986   0.283  0.0825  1.0945 -1.1767
   66MOL0     H 9100   7.920   8.146   0.444  0.0238  0.9629  0.5711
   66MOL0     H 9101   8.099   8.146   0.484  0.3463 -1.9677  1.5437
   66MOL0     H 9102   7.974   8.235   0.224 -2.4752  1.0586  1.6785
   66MOL0     H 9103   8.142   8.245   0.264 -1.8568 -0.8896 -2.1114
   66MOL0     H 9104   8.005   8.582   0.485  3.8640  0.5854  0.5186
   66MOL0     H 9105   7.839   7.657   0.465  0.4409  1.7708  0.3066
   66MOL0     H 9106   7.772   7.447   0.514 -1.3531 -0.0695 -0.1644
   66MOL0     H 9107   7.795   7.385   0.686 -0.3377 -0.7685 -0.5944
   66MOL0     H 9108   7.635   7.422   0.621 -0.0380  0.2459 -2.1279
   67MOL0     O 9109   7.410   9.787   9.146 -0.3060  0.8242  0.6912
   67MOL0     C 9110   7.285   9.804   9.154  0.7239  0.2942 -0.5330
   67MOL0     O 9111   7.213   9.806   9.275 -0.1787  0.2981 -0.2627
   67MOL0     C 9112   7.277   9.819   9.395  0.1763 -0.3120 -0.5963
   67MOL0     C 9113   7.215   9.915   9.476 -0.0469 -0.1205  0.5043
   67MOL0     C 9114   7.269   9.948   9.601 -0.2973  0.4280 -0.5535
   67MOL0     C 9115   7.391   9.881   9.655 -0.0763 -0.9079  0.7161
   67MOL0     O 9116   7.437   9.883   9.784 -0.4404 -0.9358  0.1769
   67MOL0     C 9117   7.378   9.988   9.868 -0.0447 -0.6895 -0.4583
   67MOL0     C 9118   7.437   9.965  10.011 -0.5812  0.3966 -0.2009
   67MOL0     C 9119   7.437  10.102  10.085  0.8466  1.0840  0.3513
   67MOL0     C 9120   7.412  10.075  10.233 -0.7070 -0.4880 -0.3942
   67MOL0     C 9121   7.281  10.005  10.280 -0.2089  0.0184  0.3225
   67MOL0     C 9122   7.154  10.059  10.205 -0.2297 -0.4281  0.0112
   67MOL0     C 9123   7.114  10.202  10.232  1.1449 -0.4650 -0.2034
   67MOL0     C 9124   6.977  10.235  10.153 -0.0681 -0.5178  0.3870
   67MOL0     N 9125   6.996  10.215  10.009  0.2160  0.1359  1.2812
   67MOL0     C 9126   6.896  10.180   9.921 -0.3262 -0.0254  0.0707
   67MOL0     C 9127   6.956  10.154   9.807  0.7059 -0.1791  0.3468
   67MOL0     C 9128   6.900  10.096   9.677 -0.0758  0.1791  0.0890
   67MOL0     C 9129   6.883  10.203   9.577  1.1065 -0.3948 -0.4125
   67MOL0     C 9130   6.789  10.163   9.462  0.8521 -0.5271 -0.0241
   67MOL0     C 9131   6.809  10.024   9.394  0.0295 -0.8895 -0.3825
   67MOL0     O 9132   6.726  10.013   9.272 -0.5325  1.0883 -0.2267
   67MOL0     C 9133   6.737   9.907   9.190  0.1018 -0.0513 -0.1340
   67MOL0     C 9134   6.652   9.904   9.077  0.0090  0.0368  0.6272
   67MOL0     C 9135   6.640   9.791   8.985  0.1917  0.5070  0.8650
   67MOL0     C 9136   6.559   9.808   8.861 -0.1014  0.5714  0.8299
   67MOL0     C 9137   6.740   9.689   8.999 -0.7414 -0.3625 -0.6748
   67MOL0     C 9138   6.742   9.564   8.915  0.1464 -0.3465  0.0338
   67MOL0     O 9139   6.622   9.532   8.844 -0.3707  0.0483  0.2065
   67MOL0     C 9140   6.623   9.424   8.756 -0.0245  0.0730 -0.0724
   67MOL0     C 9141   6.601   9.294   8.780  0.5293  0.0658 -0.2858
   67MOL0     C 9142   6.617   9.200   8.680  0.5733  0.0735 -0.5137
   67MOL0     C 9143   6.644   9.242   8.553  0.0651 -0.5666  0.4156
   67MOL0     O 9144   6.655   9.154   8.455 -0.8509 -0.0797 -0.3868
   67MOL0     C 9145   6.768   9.156   8.367 -0.4073 -0.6649  0.3064
   67MOL0     C 9146   6.774   9.020   8.306 -0.3652 -0.1287  0.6545
   67MOL0     C 9147   6.688   9.009   8.170  0.5361  1.2433 -0.1865
   67MOL0     C 9148   6.749   9.094   8.056 -0.0140  0.0841  0.7912
   67MOL0     C 9149   6.658   9.082   7.933 -0.1288  0.0539 -0.0231
   67MOL0     C 9150   6.743   9.063   7.806 -0.5198  0.8270 -0.4547
   67MOL0     C 9151   6.833   9.183   7.763 -0.6431  0.2036  0.1547
   67MOL0     C 9152   6.760   9.319   7.740 -0.3140 -0.1573  0.1531
   67MOL0    Cl 9153   6.747   9.410   7.890 -0.0193  0.4456 -0.2955
   67MOL0     C 9154   6.650   9.379   8.521 -0.5984  0.9823  0.5046
   67MOL0     C 9155   6.652   9.472   8.623  0.0289  0.3023 -0.2242
   67MOL0     O 9156   6.850   9.505   8.903 -0.5567  0.0154 -0.2518
   67MOL0     C 9157   6.831   9.703   9.109 -0.0491  1.7568  0.9345
   67MOL0     C 9158   6.827   9.802   9.199 -0.8671 -0.1224 -0.8626
   67MOL0     N 9159   7.086  10.187   9.817 -0.8409 -0.5508  0.2373
   67MOL0     N 9160   7.113  10.206   9.938  0.8194 -0.0718 -0.4411
   67MOL0     C 9161   7.435   9.776   9.568 -0.9919 -0.4548  1.2411
   67MOL0     C 9162   7.388   9.744   9.437 -0.4111  0.4570 -0.4652
   67MOL0     C 9163   7.202   9.819   9.046  0.6654  0.4398 -0.3928
   67MOL0     C 9164   7.151   9.948   9.017  0.1692  0.2114  0.3528
   67MOL0     C 9165   7.085   9.980   8.899 -0.0204 -0.4397 -0.5250
   67MOL0     C 9166   7.087   9.883   8.797  0.7038 -0.5278 -0.7868
   67MOL0     O 9167   7.038   9.938   8.686 -0.4801  0.2718 -0.6387
   67MOL0     C 9168   6.949   9.857   8.605  0.0342 -0.8975 -0.6931
   67MOL0     C 9169   6.858   9.948   8.518  0.2870 -0.0069 -0.6535
   67MOL0     C 9170   6.757  10.028   8.606 -0.3849 -1.3905  0.7474
   67MOL0     C 9171   6.677  10.127   8.522 -0.5636 -0.3474 -0.2190
   67MOL0     C 9172   6.617  10.082   8.393 -0.3614  1.1028  0.4529
   67MOL0     C 9173   6.567  10.049   8.288 -0.2462  0.7898  0.0002
   67MOL0     C 9174   7.137   9.750   8.824  0.3156 -0.1687 -0.3507
   67MOL0     C 9175   7.200   9.723   8.946  0.0097 -0.6236  0.1133
   67MOL0     C 9176   7.266   9.582   8.963  0.4622 -0.4489 -0.0253
   67MOL0     H 9177   7.126   9.970   9.448 -0.9332 -2.2623 -1.2034
   67MOL0     H 9178   7.222  10.031   9.652 -2.0379 -0.7237 -0.2038
   67MOL0     H 9179   7.269   9.995   9.871  0.0136  0.2337 -0.2759
   67MOL0     H 9180   7.405  10.088   9.835 -0.5254 -0.9909 -1.8033
   67MOL0     H 9181   7.398   9.890  10.080  3.3922 -1.5840  0.2094
   67MOL0     H 9182   7.538   9.923  10.003 -0.8610 -0.4323  0.5034
   67MOL0     H 9183   7.526  10.165  10.073  0.2841  1.4885 -2.2217
   67MOL0     H 9184   7.344  10.149  10.050  0.1013 -1.4031 -1.2612
   67MOL0     H 9185   7.505  10.029  10.268  0.8497  0.2859 -3.2308
   67MOL0     H 9186   7.400  10.173  10.280  0.0213 -1.0491  1.0390
   67MOL0     H 9187   7.265  10.025  10.387  2.2896 -2.0968  1.2033
   67MOL0     H 9188   7.293   9.897  10.274 -2.7315 -0.3583  1.0675
   67MOL0     H 9189   7.171  10.035  10.100  0.8182 -1.3163  0.3757
   67MOL0     H 9190   7.069  10.000  10.241 -2.5386  2.1645 -0.8515
   67MOL0     H 9191   7.178  10.278  10.187  1.1849 -0.7160 -0.5771
   67MOL0     H 9192   7.101  10.214  10.340 -4.7633 -2.1436 -0.3932
   67MOL0     H 9193   6.892  10.170  10.175  0.6306 -2.0111 -1.0816
   67MOL0     H 9194   6.958  10.340  10.175 -3.6857 -1.5776  3.3613
   67MOL0     H 9195   6.794  10.158   9.951 -0.6053  0.0066 -0.8205
   67MOL0     H 9196   6.800  10.052   9.686  0.6124 -2.4514 -2.9623
   67MOL0     H 9197   6.965  10.018   9.637 -1.0656 -0.6103 -0.0297
   67MOL0     H 9198   6.860  10.298   9.627  1.0726  0.0848 -1.2972
   67MOL0     H 9199   6.982  10.229   9.540  0.2288  1.0756 -1.9036
   67MOL0     H 9200   6.693  10.160   9.514  1.2492 -1.7995  0.6878
   67MOL0     H 9201   6.775  10.240   9.386 -0.0397  0.8984  1.5190
   67MOL0     H 9202   6.915  10.028   9.368  0.2310  1.8307  0.5712
   67MOL0     H 9203   6.801   9.943   9.467  0.5941  1.0907  2.0141
   67MOL0     H 9204   6.590   9.993   9.076 -2.5590 -1.4845  3.7664
   67MOL0     H 9205   6.456   9.772   8.856 -0.9375  2.9747 -1.9697
   67MOL0     H 9206   6.622   9.783   8.776 -0.6389  4.8255 -1.0729
   67MOL0     H 9207   6.538   9.915   8.852 -2.3129  0.0447 -1.1975
   67MOL0     H 9208   6.577   9.257   8.879  1.0134 -1.3713 -0.6705
   67MOL0     H 9209   6.598   9.097   8.710 -1.1838  1.0705  2.2508
   67MOL0     H 9210   6.759   9.236   8.293 -1.7953 -1.1325 -0.0706
   67MOL0     H 9211   6.852   9.166   8.436 -0.5113 -6.0165  1.6694
   67MOL0     H 9212   6.883   9.008   8.300 -0.0540  2.3352  0.2846
   67MOL0     H 9213   6.746   8.947   8.382  1.9832  0.5458  2.2623
   67MOL0     H 9214   6.591   9.051   8.198  1.0075  1.4195  1.2396
   67MOL0     H 9215   6.677   8.905   8.135 -1.1985  1.4726 -0.4177
   67MOL0     H 9216   6.856   9.080   8.037  0.0569  2.3432 -0.8481
   67MOL0     H 9217   6.758   9.200   8.081  0.4401  0.4455 -0.7573
   67MOL0     H 9218   6.589   8.999   7.950  1.9040 -1.4444  1.3769
   67MOL0     H 9219   6.607   9.178   7.918 -0.8436 -0.4594 -0.9060
   67MOL0     H 9220   6.669   9.032   7.731 -2.2278  2.6834  0.3986
   67MOL0     H 9221   6.806   8.975   7.826 -1.2775  0.5928  1.0279
   67MOL0     H 9222   6.904   9.148   7.687 -0.3648 -2.1470  1.4051
   67MOL0     H 9223   6.890   9.205   7.854  0.3071  0.2108 -0.4313
   67MOL0     H 9224   6.657   9.309   7.707 -0.9446  0.9459  1.6715
   67MOL0     H 9225   6.809   9.382   7.665 -2.7472  2.3328  0.4963
   67MOL0     H 9226   6.677   9.419   8.423  2.1642 -2.1911 -0.1925
   67MOL0     H 9227   6.673   9.576   8.604  1.8160 -0.0117 -0.1582
   67MOL0     H 9228   6.915   9.635   9.119 -0.2676  0.8435 -2.2423
   67MOL0     H 9229   6.901   9.804   9.279 -2.2086 -0.6483  0.4302
   67MOL0     H 9230   7.516   9.718   9.609 -2.2587 -1.9927  1.6705
   67MOL0     H 9231   7.443   9.673   9.376 -0.5134  1.0107 -1.2180
   67MOL0     H 9232   7.180  10.038   9.070  3.2815  0.0995 -0.9328
   67MOL0     H 9233   7.057  10.081   8.874 -0.0628 -0.7000 -1.6095
   67MOL0     H 9234   7.014   9.786   8.552  3.7060  3.1377 -2.3051
   67MOL0     H 9235   6.883   9.803   8.673 -2.5391  0.7095 -1.7822
   67MOL0     H 9236   6.799   9.882   8.454  1.2256  0.1215 -1.6819
   67MOL0     H 9237   6.919  10.024   8.468  3.4741 -2.3220 -0.5729
   67MOL0     H 9238   6.676   9.970   8.650 -3.5421  0.3462 -2.2489
   67MOL0     H 9239   6.811  10.094   8.674  1.2733 -0.5968 -1.2127
   67MOL0     H 9240   6.748  10.206   8.498 -0.7064 -0.2441 -0.3008
   67MOL0     H 9241   6.597  10.173   8.580 -2.2506 -4.1101  0.7936
   67MOL0     H 9242   6.534  10.008   8.195 -1.0130  2.1532 -0.3445
   67MOL0     H 9243   7.150   9.680   8.743 -2.0910 -0.3445 -0.6523
   67MOL0     H 9244   7.234   9.528   9.052  1.0161 -2.1091 -0.7789
   67MOL0     H 9245   7.245   9.528   8.870  2.0739 -1.3374  0.0773
   67MOL0     H 9246   7.373   9.605   8.965 -0.1171  2.4836  1.2449
   68MOL0     O 9247   4.808   6.178   4.851  0.4902 -0.4069 -0.2614
   68MOL0     C 9248   4.855   6.178   4.737  1.2779  0.0599  0.2609
   68MOL0     O 9249   4.927   6.282   4.688 -0.7682  0.2761 -0.1157
   68MOL0     C 9250   4.939   6.401   4.760 -0.2014 -0.6597  0.4946
   68MOL0     C 9251   4.823   6.477   4.807 -0.0382 -0.6101 -0.0896
   68MOL0     C 9252   4.844   6.582   4.906  0.5786 -0.3582 -0.1926
   68MOL0     C 9253   4.978   6.618   4.935 -0.4550  0.5034  0.1506
   68MOL0     O 9254   5.006   6.725   5.012 -0.1070  0.6055  0.3217
   68MOL0     C 9255   4.954   6.844   4.955 -0.0437 -0.1507  0.5337
   68MOL0     C 9256   5.068   6.938   4.938 -0.7107  0.0943  0.6225
   68MOL0     C 9257   5.156   6.968   5.064 -0.6824  1.2061  0.3742
   68MOL0     C 9258   5.083   6.965   5.203  0.3064  0.0883  0.3826
   68MOL0     C 9259   5.159   6.946   5.323 -0.3671  0.0336 -0.9857
   68MOL0     C 9260   5.275   7.043   5.363  0.1853  0.3322  0.5970
   68MOL0     C 9261   5.319   7.021   5.510 -0.1180  0.2809  0.7228
   68MOL0     C 9262   5.429   7.111   5.550  0.0143  0.6482  0.5030
   68MOL0     N 9263   5.550   7.101   5.465  1.5419  0.3033  0.6055
   68MOL0     C 9264   5.566   7.175   5.349 -1.1237  0.5145  0.5483
   68MOL0     C 9265   5.701   7.160   5.315 -0.0588 -0.2110  0.6888
   68MOL0     C 9266   5.770   7.216   5.197 -0.6193  0.6174  0.4334
   68MOL0     C 9267   5.709   7.149   5.069  0.3813 -0.9630 -0.1364
   68MOL0     C 9268   5.748   7.218   4.946  0.0034  0.5912  0.4445
   68MOL0     C 9269   5.659   7.160   4.829  0.7010  0.7629 -1.0541
   68MOL0     O 9270   5.525   7.225   4.834 -0.0239 -0.1380 -0.1037
   68MOL0     C 9271   5.442   7.201   4.724  0.4958 -0.5172  0.0519
   68MOL0     C 9272   5.465   7.129   4.610 -0.3316  0.5451 -0.6519
   68MOL0     C 9273   5.388   7.138   4.491 -0.6331  1.2659 -0.4570
   68MOL0     C 9274   5.443   7.045   4.381  0.1484 -0.1657  0.7086
   68MOL0     C 9275   5.265   7.212   4.498 -0.7349  0.0158  0.4188
   68MOL0     C 9276   5.180   7.230   4.379  1.3950  0.1254  0.1606
   68MOL0     O 9277   5.060   7.308   4.396  0.4962 -0.1304 -0.1428
   68MOL0     C 9278   4.981   7.313   4.283  0.7214  0.7968  0.2415
   68MOL0     C 9279   5.021   7.339   4.145  0.1420  1.0084 -0.8254
   68MOL0     C 9280   4.923   7.373   4.051  0.4237  0.2404 -1.0746
   68MOL0     C 9281   4.785   7.377   4.084 -0.3498 -0.2586 -0.0843
   68MOL0     O 9282   4.687   7.435   4.011 -0.4711 -1.1719 -0.2690
   68MOL0     C 9283   4.709   7.438   3.865 -0.2901 -0.4080  0.5363
   68MOL0     C 9284   4.577   7.470   3.790 -0.2592 -0.3642 -0.0036
   68MOL0     C 9285   4.559   7.618   3.793 -0.3241  0.8309  0.4799
   68MOL0     C 9286   4.423   7.657   3.737 -0.5771 -0.2429  0.2255
   68MOL0     C 9287   4.422   7.804   3.687  0.3912 -0.5164 -0.2194
   68MOL0     C 9288   4.447   7.906   3.794  0.2859 -0.2511  0.2557
   68MOL0     C 9289   4.321   7.988   3.833 -0.3562  0.2482 -0.6673
   68MOL0     C 9290   4.297   8.022   3.981 -0.1874  0.5505 -0.6024
   68MOL0    Cl 9291   4.417   8.126   4.032  0.2549 -0.0720  0.0705
   68MOL0     C 9292   4.749   7.347   4.215  0.2911  0.6582  0.1940
   68MOL0     C 9293   4.841   7.318   4.315 -0.1746 -0.5550  0.2670
   68MOL0     O 9294   5.222   7.183   4.270  0.5785  0.5491  0.0692
   68MOL0     C 9295   5.236   7.279   4.619 -0.4248 -0.3323  0.5416
   68MOL0     C 9296   5.327   7.280   4.727  0.1894  0.2466 -0.6873
   68MOL0     N 9297   5.756   7.080   5.415  0.6623  0.6532  0.1867
   68MOL0     N 9298   5.664   7.038   5.507  0.4382 -0.7531 -0.2226
   68MOL0     C 9299   5.081   6.548   4.890  0.5233  0.2440  0.7544
   68MOL0     C 9300   5.065   6.443   4.807  0.2846  0.2293 -0.0583
   68MOL0     C 9301   4.840   6.061   4.651 -0.5993 -0.4613  0.2051
   68MOL0     C 9302   4.931   6.047   4.549  0.6094 -0.2059 -0.2973
   68MOL0     C 9303   4.924   5.936   4.471  0.5196  0.8851  0.7389
   68MOL0     C 9304   4.819   5.843   4.468 -0.8480 -0.4400  1.0083
   68MOL0     O 9305   4.822   5.735   4.381 -0.0351 -0.2263  1.0896
   68MOL0     C 9306   4.746   5.616   4.417  0.0975  0.5677  0.0251
   68MOL0     C 9307   4.798   5.502   4.322 -0.0345 -0.6286  0.5836
   68MOL0     C 9308   4.945   5.475   4.340 -0.0735  0.6758  0.1484
   68MOL0     C 9309   4.984   5.410   4.472 -0.3785  0.7280  0.1734
   68MOL0     C 9310   4.926   5.272   4.492 -0.8335  0.2044 -0.5598
   68MOL0     C 9311   4.894   5.152   4.498  0.1802 -0.1479  0.0048
   68MOL0     C 9312   4.737   5.852   4.581 -0.5564  0.9812 -0.4412
   68MOL0     C 9313   4.740   5.965   4.676 -1.0622  0.7084  0.5249
   68MOL0     C 9314   4.640   5.961   4.783 -0.0717 -0.9300 -0.9528
   68MOL0     H 9315   4.724   6.439   4.785 -0.1942 -0.9435  1.1497
   68MOL0     H 9316   4.753   6.621   4.949  0.9990 -0.1195  0.5025
   68MOL0     H 9317   4.881   6.884   5.026 -1.4590 -2.2184  0.3344
   68MOL0     H 9318   4.921   6.819   4.854  0.7893 -1.2098  0.5145
   68MOL0     H 9319   5.123   6.901   4.852  0.1614 -1.5298  1.8204
   68MOL0     H 9320   5.036   7.037   4.905  1.5186  0.5605 -0.3193
   68MOL0     H 9321   5.232   6.890   5.058 -1.1576  0.8249 -1.6936
   68MOL0     H 9322   5.218   7.056   5.046 -2.4209  2.3060 -0.5991
   68MOL0     H 9323   5.020   7.054   5.214  0.2871 -0.2310  3.9269
   68MOL0     H 9324   5.016   6.878   5.207 -1.6929  1.5239 -0.4117
   68MOL0     H 9325   5.208   6.849   5.326 -2.5712 -1.1296 -0.1598
   68MOL0     H 9326   5.082   6.940   5.401  0.9208  2.6561  0.6512
   68MOL0     H 9327   5.354   7.021   5.291 -0.5229 -0.9213  0.1572
   68MOL0     H 9328   5.244   7.147   5.351  3.0315  0.8916 -4.7631
   68MOL0     H 9329   5.344   6.916   5.527 -1.1471 -0.4146 -1.5545
   68MOL0     H 9330   5.234   7.041   5.576  0.0169  0.8312  0.7335
   68MOL0     H 9331   5.386   7.210   5.570 -4.4213 -0.1278 -3.2837
   68MOL0     H 9332   5.461   7.071   5.646  1.4263 -1.8231 -0.9169
   68MOL0     H 9333   5.500   7.231   5.283  0.1452  1.7278  0.2539
   68MOL0     H 9334   5.879   7.209   5.197 -0.6136  0.5537 -0.3730
   68MOL0     H 9335   5.749   7.324   5.201  2.0071  1.2835 -1.3545
   68MOL0     H 9336   5.726   7.041   5.061 -0.4770 -1.7266  4.9151
   68MOL0     H 9337   5.605   7.168   5.097  0.2165 -1.8499 -0.1099
   68MOL0     H 9338   5.733   7.326   4.954  2.4323  1.1445 -1.1866
   68MOL0     H 9339   5.855   7.207   4.927  0.2855  2.7263  0.5453
   68MOL0     H 9340   5.716   7.182   4.738  2.6717  3.9902  0.7560
   68MOL0     H 9341   5.637   7.053   4.827 -2.4996  1.3310 -1.2776
   68MOL0     H 9342   5.558   7.074   4.605  1.3573  3.1902 -0.4000
   68MOL0     H 9343   5.513   7.102   4.319 -0.0676  1.1443  1.6430
   68MOL0     H 9344   5.361   7.003   4.322  0.0846  0.6898  0.1707
   68MOL0     H 9345   5.504   6.965   4.423  2.6206  1.1916 -0.0714
   68MOL0     H 9346   5.128   7.350   4.130  0.2615 -0.6961 -1.3827
   68MOL0     H 9347   4.938   7.397   3.946 -1.3643  1.2511 -1.1387
   68MOL0     H 9348   4.780   7.518   3.844  0.5259 -1.1251  0.5005
   68MOL0     H 9349   4.735   7.340   3.825 -0.9581 -0.2800 -0.2283
   68MOL0     H 9350   4.597   7.445   3.685  3.1776  0.0261  0.4259
   68MOL0     H 9351   4.501   7.409   3.840  2.5325 -3.0138  1.3884
   68MOL0     H 9352   4.649   7.662   3.750 -0.7024  2.0044  0.8450
   68MOL0     H 9353   4.555   7.651   3.897  0.9155  0.0392  0.7946
   68MOL0     H 9354   4.336   7.646   3.802 -0.0385 -0.3969  0.9282
   68MOL0     H 9355   4.406   7.581   3.659 -0.8640  0.3504 -0.2966
   68MOL0     H 9356   4.511   7.816   3.625  1.1795 -0.5546  0.8858
   68MOL0     H 9357   4.330   7.824   3.632 -0.2105 -1.4439  0.4124
   68MOL0     H 9358   4.523   7.976   3.759  2.7610 -2.6115  0.5863
   68MOL0     H 9359   4.494   7.863   3.883 -1.2585  1.3995  1.9633
   68MOL0     H 9360   4.240   7.918   3.809 -1.1667  0.5637  0.9860
   68MOL0     H 9361   4.315   8.085   3.783  0.4150  0.4549 -0.3628
   68MOL0     H 9362   4.309   7.927   4.035  2.7418 -0.0689 -2.1324
   68MOL0     H 9363   4.196   8.055   4.007 -0.7129 -0.3510 -1.3967
   68MOL0     H 9364   4.644   7.346   4.239  0.1946 -0.3477 -0.2127
   68MOL0     H 9365   4.811   7.297   4.417 -2.5393 -1.4152 -0.5400
   68MOL0     H 9366   5.160   7.356   4.617 -1.6896 -1.5306 -2.2680
   68MOL0     H 9367   5.312   7.354   4.804  0.9131  1.4776 -1.6869
   68MOL0     H 9368   5.181   6.569   4.927  0.0775  1.2184  1.4771
   68MOL0     H 9369   5.153   6.389   4.773 -1.1083 -1.5741 -0.9822
   68MOL0     H 9370   5.016   6.114   4.541 -1.9286  3.5427  1.2058
   68MOL0     H 9371   5.001   5.923   4.395  0.2212 -3.5428  0.9902
   68MOL0     H 9372   4.770   5.595   4.522 -2.3321 -0.2590  0.4947
   68MOL0     H 9373   4.638   5.632   4.403  0.2654  0.9938 -0.8418
   68MOL0     H 9374   4.775   5.515   4.216 -1.3996 -0.3650  0.8896
   68MOL0     H 9375   4.729   5.428   4.365 -1.2314  2.6454  5.0464
   68MOL0     H 9376   4.977   5.410   4.258 -0.3046  1.3436 -0.4902
   68MOL0     H 9377   4.995   5.573   4.334  2.1235 -0.3270  1.0573
   68MOL0     H 9378   4.958   5.461   4.565  2.5515 -1.9846  2.6821
   68MOL0     H 9379   5.093   5.414   4.468 -0.3222  3.0879  1.9416
   68MOL0     H 9380   4.860   5.051   4.488 -1.4737  0.3840 -0.1744
   68MOL0     H 9381   4.671   5.766   4.596  0.7160  0.0107 -0.1953
   68MOL0     H 9382   4.569   5.880   4.761 -0.9318 -0.2826 -0.6399
   68MOL0     H 9383   4.676   5.948   4.885  1.1544 -2.1717 -1.5173
   68MOL0     H 9384   4.572   6.047   4.783 -0.2933 -1.0466  1.4118
   69MOL0     O 9385   7.309   6.170   9.347 -0.9612  0.4078  0.3430
   69MOL0     C 9386   7.412   6.111   9.309 -0.2590 -0.0118  0.0621
   69MOL0     O 9387   7.418   5.983   9.275  0.4316  0.7676  0.3203
   69MOL0     C 9388   7.300   5.918   9.250  0.8924  0.1007  0.5602
   69MOL0     C 9389   7.267   5.901   9.121  0.3172  1.3959  0.0673
   69MOL0     C 9390   7.159   5.817   9.086 -0.4678 -0.1412  0.7019
   69MOL0     C 9391   7.084   5.760   9.180 -0.6135  0.6724  0.1282
   69MOL0     O 9392   7.005   5.653   9.161 -0.3533 -0.2110  0.1351
   69MOL0     C 9393   6.897   5.644   9.068  0.2550  0.4240 -0.1399
   69MOL0     C 9394   6.768   5.643   9.148 -0.7959 -0.4484 -0.5903
   69MOL0     C 9395   6.748   5.529   9.249  0.0827 -0.0855  0.2064
   69MOL0     C 9396   6.774   5.570   9.395  0.1784 -0.4682  0.5724
   69MOL0     C 9397   6.796   5.448   9.494 -0.2415  0.3886 -0.1021
   69MOL0     C 9398   6.671   5.357   9.485  0.2484 -0.1206 -0.5828
   69MOL0     C 9399   6.549   5.396   9.570  0.6937 -0.7528 -0.2435
   69MOL0     C 9400   6.458   5.287   9.556 -0.7246  0.2851  0.1742
   69MOL0     N 9401   6.322   5.320   9.621 -0.7654  0.4698  0.8365
   69MOL0     C 9402   6.215   5.371   9.559  0.4202  0.2995  0.5677
   69MOL0     C 9403   6.125   5.367   9.660 -0.6533 -0.1382  0.4400
   69MOL0     C 9404   5.988   5.415   9.661  0.0518  0.1008 -0.4136
   69MOL0     C 9405   5.967   5.542   9.580 -0.4150 -0.3102  0.6444
   69MOL0     C 9406   6.024   5.677   9.637 -0.0568 -0.1012  0.0922
   69MOL0     C 9407   5.973   5.696   9.782 -0.0973 -0.8548  0.0465
   69MOL0     O 9408   6.039   5.814   9.831 -0.1023  0.6584 -0.1738
   69MOL0     C 9409   6.171   5.827   9.825 -0.1844 -0.2115 -0.6181
   69MOL0     C 9410   6.266   5.720   9.834  1.2736  0.1481 -0.4275
   69MOL0     C 9411   6.406   5.749   9.831  0.2513  0.0409  0.4776
   69MOL0     C 9412   6.480   5.617   9.838 -1.3458  0.4127  0.2263
   69MOL0     C 9413   6.451   5.887   9.827  0.3777  0.1908  0.0135
   69MOL0     C 9414   6.596   5.921   9.837  0.1557 -0.0911 -0.2299
   69MOL0     O 9415   6.635   6.048   9.862 -0.3928  0.6885  0.2399
   69MOL0     C 9416   6.749   6.098   9.936  0.2649 -0.6154  0.1218
   69MOL0     C 9417   6.786   6.040  10.057 -0.7542  0.3927  0.1618
   69MOL0     C 9418   6.898   6.088  10.118 -0.3259  0.0490 -0.6322
   69MOL0     C 9419   6.981   6.197  10.061 -1.3962  0.6666 -0.4747
   69MOL0     O 9420   7.079   6.254  10.149 -0.5538  0.0501  0.0301
   69MOL0     C 9421   7.131   6.384  10.112  0.4478 -0.5110 -0.2760
   69MOL0     C 9422   7.213   6.429  10.226 -0.2332  0.0920 -0.0586
   69MOL0     C 9423   7.291   6.554  10.185  0.3537  0.2347  0.1621
   69MOL0     C 9424   7.397   6.585  10.300  1.2739 -0.4824  0.1954
   69MOL0     C 9425   7.430   6.735  10.293  0.5433 -0.3083  0.9212
   69MOL0     C 9426   7.539   6.753  10.390 -0.2634  0.0254 -0.3351
   69MOL0     C 9427   7.591   6.903  10.365 -0.9623  0.5077 -0.7479
   69MOL0     C 9428   7.666   6.952  10.488 -0.3130 -1.0586 -0.0933
   69MOL0    Cl 9429   7.690   7.120  10.451  0.3073  0.2748  0.4318
   69MOL0     C 9430   6.945   6.250   9.934  1.4471  0.4600  0.1355
   69MOL0     C 9431   6.832   6.196   9.875 -0.1469  0.4863  0.4840
   69MOL0     O 9432   6.671   5.831   9.840 -0.0793  0.4743  0.7467
   69MOL0     C 9433   6.354   5.984   9.811 -1.1061 -0.0805  0.9380
   69MOL0     C 9434   6.224   5.957   9.814  0.5747  0.0527 -0.7728
   69MOL0     N 9435   6.186   5.328   9.775 -0.7909  0.8852 -0.6232
   69MOL0     N 9436   6.306   5.296   9.755 -0.0888 -0.1240 -1.0330
   69MOL0     C 9437   7.106   5.787   9.315  0.2635  0.8205  0.3012
   69MOL0     C 9438   7.220   5.860   9.349  0.3627  0.1186 -0.2266
   69MOL0     C 9439   7.541   6.182   9.301  0.1427 -0.5775 -1.3110
   69MOL0     C 9440   7.661   6.119   9.337 -0.0623 -0.2019  1.1604
   69MOL0     C 9441   7.781   6.178   9.330 -0.8572  0.1645 -0.0347
   69MOL0     C 9442   7.796   6.308   9.295  0.7535  0.1507  0.9532
   69MOL0     O 9443   7.926   6.358   9.272  0.8950  0.4472  0.1665
   69MOL0     C 9444   7.950   6.400   9.135 -0.3250  0.5297 -0.1376
   69MOL0     C 9445   8.049   6.301   9.074  0.0960 -0.1914 -0.5590
   69MOL0     C 9446   8.109   6.372   8.958 -0.4315  0.8331  0.2491
   69MOL0     C 9447   8.224   6.285   8.897 -0.4822  0.3657 -0.4704
   69MOL0     C 9448   8.157   6.178   8.817  0.5529 -0.1857 -0.2026
   69MOL0     C 9449   8.090   6.086   8.769  0.3863  0.2907 -0.1014
   69MOL0     C 9450   7.669   6.375   9.254 -0.4613 -0.2918  0.5689
   69MOL0     C 9451   7.548   6.316   9.261  0.1285 -0.0287  0.2870
   69MOL0     C 9452   7.434   6.393   9.194  0.0075  0.6045 -0.3949
   69MOL0     H 9453   7.337   5.934   9.044 -1.2219  0.6941 -1.7164
   69MOL0     H 9454   7.146   5.774   8.987 -1.5167 -2.1732  1.6616
   69MOL0     H 9455   6.910   5.552   9.010 -0.5995  0.6236 -0.6687
   69MOL0     H 9456   6.902   5.724   8.994  1.8596 -2.1388 -3.0612
   69MOL0     H 9457   6.753   5.733   9.208 -0.3480 -0.6540 -0.1618
   69MOL0     H 9458   6.687   5.637   9.076 -1.8562  0.4658  0.4851
   69MOL0     H 9459   6.649   5.486   9.236  0.1529  0.4268 -2.5548
   69MOL0     H 9460   6.819   5.454   9.214  0.3535  1.2864 -2.4412
   69MOL0     H 9461   6.861   5.637   9.393  1.2574 -1.7606  2.3299
   69MOL0     H 9462   6.683   5.626   9.421  0.7298  0.5509  0.3959
   69MOL0     H 9463   6.829   5.478   9.594  1.7789  3.6031 -1.5463
   69MOL0     H 9464   6.876   5.394   9.442 -0.2158  1.3317 -1.0794
   69MOL0     H 9465   6.644   5.353   9.379  0.2554  3.4344 -0.8231
   69MOL0     H 9466   6.689   5.261   9.535 -3.6733  0.1888  1.9066
   69MOL0     H 9467   6.511   5.493   9.537  0.6315 -0.7043 -0.0317
   69MOL0     H 9468   6.572   5.395   9.677 -2.2357  1.0100  0.5069
   69MOL0     H 9469   6.442   5.281   9.448  0.4572 -2.5242  0.0693
   69MOL0     H 9470   6.496   5.193   9.597 -1.3069  0.8211  1.9936
   69MOL0     H 9471   6.198   5.411   9.460  2.1397 -0.6313 -0.1601
   69MOL0     H 9472   5.938   5.429   9.757 -1.1608 -2.9217 -0.5120
   69MOL0     H 9473   5.930   5.336   9.611 -2.1338  1.9994 -1.0705
   69MOL0     H 9474   6.032   5.529   9.493 -0.0931 -1.5973  1.0505
   69MOL0     H 9475   5.863   5.555   9.552  0.1295 -0.5037 -1.6442
   69MOL0     H 9476   6.132   5.664   9.622 -0.1946  1.3856 -3.0399
   69MOL0     H 9477   5.992   5.755   9.567 -2.5045  0.5666  1.8206
   69MOL0     H 9478   5.867   5.721   9.777  0.4875  1.6705 -1.0737
   69MOL0     H 9479   5.989   5.606   9.843 -0.7413 -0.3418  0.9910
   69MOL0     H 9480   6.228   5.619   9.825 -4.6173  1.8417  1.3431
   69MOL0     H 9481   6.567   5.616   9.771  0.1157  0.2841  2.0366
   69MOL0     H 9482   6.408   5.544   9.800 -0.6296  0.4325 -1.2575
   69MOL0     H 9483   6.503   5.597   9.943 -0.8426 -0.2520 -0.0002
   69MOL0     H 9484   6.723   5.964  10.102 -0.4188 -0.9562 -1.5433
   69MOL0     H 9485   6.927   6.054  10.217  3.3260  0.2937 -1.4835
   69MOL0     H 9486   7.197   6.387  10.024  0.7900  0.8198 -0.0019
   69MOL0     H 9487   7.048   6.453  10.095 -1.2737 -1.3657  3.6004
   69MOL0     H 9488   7.161   6.458  10.318 -0.5872 -0.8481  0.0426
   69MOL0     H 9489   7.278   6.345  10.253 -1.6015 -1.0897 -0.3141
   69MOL0     H 9490   7.229   6.644  10.176 -0.9216 -0.5096  1.1766
   69MOL0     H 9491   7.346   6.538  10.092 -1.2398 -3.9073 -0.2746
   69MOL0     H 9492   7.482   6.517  10.286  1.5280 -0.2218  0.4533
   69MOL0     H 9493   7.352   6.559  10.397  0.1249  0.7889  0.0233
   69MOL0     H 9494   7.460   6.754  10.189 -2.8392 -2.0316 -0.5159
   69MOL0     H 9495   7.350   6.803  10.323 -0.9569 -2.4323  1.9633
   69MOL0     H 9496   7.618   6.680  10.368  0.4464  1.0799 -1.4445
   69MOL0     H 9497   7.505   6.746  10.493 -0.7159  0.9487 -0.4112
   69MOL0     H 9498   7.514   6.978  10.344 -0.6859  1.1351  0.3696
   69MOL0     H 9499   7.658   6.897  10.279 -2.1911  1.1421 -1.7899
   69MOL0     H 9500   7.763   6.904  10.501  1.5618  2.1255 -1.1542
   69MOL0     H 9501   7.623   6.956  10.588 -0.6459  0.7121 -0.2575
   69MOL0     H 9502   6.999   6.328   9.881  0.3682  1.5296  0.5658
   69MOL0     H 9503   6.791   6.232   9.780 -1.4534 -2.6806 -0.2872
   69MOL0     H 9504   6.388   6.086   9.794 -2.0238 -0.2178 -2.5293
   69MOL0     H 9505   6.155   6.041   9.815 -0.9754 -1.1658  0.0275
   69MOL0     H 9506   7.049   5.735   9.390  0.0419 -0.6513 -0.8348
   69MOL0     H 9507   7.245   5.878   9.453 -2.8822  2.2174  0.3371
   69MOL0     H 9508   7.652   6.014   9.363  2.1254 -0.5251  0.8253
   69MOL0     H 9509   7.869   6.126   9.367  1.3241  2.8925 -1.0026
   69MOL0     H 9510   7.862   6.433   9.079 -1.2954 -0.0984  0.9612
   69MOL0     H 9511   8.002   6.496   9.140  0.3678  0.7522 -5.5849
   69MOL0     H 9512   7.993   6.210   9.049  0.2160 -0.4105 -0.0384
   69MOL0     H 9513   8.129   6.282   9.146  0.5293 -0.4921 -1.1181
   69MOL0     H 9514   8.031   6.406   8.889  2.1768  0.3251 -3.2386
   69MOL0     H 9515   8.169   6.452   9.001  1.0201 -2.3400  5.0037
   69MOL0     H 9516   8.289   6.249   8.977 -1.6401  0.6670  0.6374
   69MOL0     H 9517   8.273   6.351   8.825  0.7934  2.2508  1.9897
   69MOL0     H 9518   8.023   6.021   8.717 -1.6785  2.1394  0.1135
   69MOL0     H 9519   7.673   6.480   9.226  1.5467 -0.8449 -1.5290
   69MOL0     H 9520   7.472   6.479   9.139  0.1651 -1.6860 -4.2628
   69MOL0     H 9521   7.399   6.326   9.115 -2.1442  0.3939  0.6761
   69MOL0     H 9522   7.349   6.416   9.257 -0.2305  0.6591 -0.7334
   70MOL0     O 9523   6.242   7.645   2.912 -0.1237 -0.7379  0.1448
   70MOL0     C 9524   6.356   7.634   2.953  0.4808 -0.2033 -0.3342
   70MOL0     O 9525   6.396   7.645   3.086 -1.1300 -0.2124  0.9559
   70MOL0     C 9526   6.297   7.687   3.163  0.4179 -0.4152 -0.8184
   70MOL0     C 9527   6.223   7.588   3.229  0.8511 -0.5000 -0.8086
   70MOL0     C 9528   6.135   7.618   3.336  0.3187 -0.1600  0.4453
   70MOL0     C 9529   6.106   7.750   3.363  0.2819 -0.0434 -0.1853
   70MOL0     O 9530   6.008   7.800   3.448  0.3248 -0.1643  0.2092
   70MOL0     C 9531   5.926   7.699   3.512  0.8841 -0.1313  0.0966
   70MOL0     C 9532   5.830   7.768   3.605  0.3168  0.1439 -1.0734
   70MOL0     C 9533   5.735   7.673   3.680  0.5964  0.3237 -0.2598
   70MOL0     C 9534   5.608   7.634   3.590  0.6397  0.5779 -0.3398
   70MOL0     C 9535   5.513   7.746   3.548  1.0162  0.0106  0.0431
   70MOL0     C 9536   5.464   7.807   3.669 -0.2995 -0.0716 -0.3496
   70MOL0     C 9537   5.369   7.925   3.654  0.7536 -0.6374 -0.2943
   70MOL0     C 9538   5.443   8.048   3.601  1.1237 -0.3952 -0.1228
   70MOL0     N 9539   5.346   8.137   3.539 -0.1401  0.0797 -0.2601
   70MOL0     C 9540   5.291   8.235   3.605 -0.7331  0.8459 -0.1473
   70MOL0     C 9541   5.202   8.294   3.512  0.0770 -0.4242 -0.0079
   70MOL0     C 9542   5.130   8.425   3.531 -0.7363  0.6351 -0.2519
   70MOL0     C 9543   5.200   8.554   3.474  0.1512  0.9783 -0.6870
   70MOL0     C 9544   5.172   8.552   3.322 -1.0636  0.7556 -0.5659
   70MOL0     C 9545   5.239   8.686   3.266  0.1164 -0.1372 -0.1331
   70MOL0     O 9546   5.167   8.735   3.152  0.4496  0.3683 -0.9933
   70MOL0     C 9547   5.221   8.845   3.087  0.3474 -0.2402  0.0701
   70MOL0     C 9548   5.148   8.890   2.979  0.1948  0.2118 -0.5123
   70MOL0     C 9549   5.205   8.975   2.885  0.8545 -0.5126 -1.2606
   70MOL0     C 9550   5.117   8.995   2.764 -0.3471 -0.6278 -0.1939
   70MOL0     C 9551   5.331   9.054   2.919  1.2702  0.7842 -0.3189
   70MOL0     C 9552   5.387   9.165   2.841 -0.9551  1.0580  0.3287
   70MOL0     O 9553   5.485   9.249   2.909 -0.0934 -0.0602  0.0555
   70MOL0     C 9554   5.532   9.361   2.853 -0.5141 -0.3275 -0.9019
   70MOL0     C 9555   5.606   9.367   2.735 -0.8910  0.6897 -0.1544
   70MOL0     C 9556   5.663   9.488   2.692 -0.1449  0.2992  0.1730
   70MOL0     C 9557   5.653   9.608   2.767  0.3181  0.7922 -0.4488
   70MOL0     O 9558   5.714   9.718   2.712  0.5300 -0.5248 -0.1048
   70MOL0     C 9559   5.699   9.845   2.767 -0.2157  0.0042  0.1644
   70MOL0     C 9560   5.744   9.946   2.661 -0.1060  0.2480  0.2317
   70MOL0     C 9561   5.661  10.073   2.670 -0.1853  0.4529 -0.1315
   70MOL0     C 9562   5.693  10.167   2.559 -0.3363 -0.4543 -0.0063
   70MOL0     C 9563   5.769  10.291   2.609 -0.6372  0.3191 -0.0889
   70MOL0     C 9564   5.909  10.267   2.661 -0.2466  0.6973 -0.0919
   70MOL0     C 9565   5.979  10.388   2.719  0.2935  0.7053  0.2032
   70MOL0     C 9566   6.009  10.498   2.609  0.2162 -0.1191  0.0788
   70MOL0    Cl 9567   6.096  10.633   2.684 -0.4343 -0.3206  0.1045
   70MOL0     C 9568   5.576   9.601   2.882 -0.4557 -1.3279 -0.0376
   70MOL0     C 9569   5.516   9.478   2.926  0.9945 -0.8749  1.1043
   70MOL0     O 9570   5.356   9.183   2.726  0.3508  0.2594  0.1909
   70MOL0     C 9571   5.380   9.023   3.045  0.0586 -1.0450  0.2422
   70MOL0     C 9572   5.335   8.916   3.117  0.0841 -0.3309  0.6149
   70MOL0     N 9573   5.210   8.220   3.398 -0.2837  0.5247 -0.2654
   70MOL0     N 9574   5.301   8.135   3.412  0.0295 -0.2888  0.0759
   70MOL0     C 9575   6.163   7.851   3.296 -0.3431 -0.3003  0.0479
   70MOL0     C 9576   6.264   7.818   3.198 -0.2974 -0.8405  0.5316
   70MOL0     C 9577   6.451   7.562   2.861 -1.2139  0.5944 -0.9255
   70MOL0     C 9578   6.537   7.477   2.934 -0.1365  0.0325 -0.5582
   70MOL0     C 9579   6.645   7.414   2.877  0.3310 -0.2358  0.9451
   70MOL0     C 9580   6.662   7.437   2.738 -0.3754 -0.6857 -0.2532
   70MOL0     O 9581   6.769   7.377   2.672  0.4922 -0.3108 -0.0062
   70MOL0     C 9582   6.893   7.399   2.734 -0.5452  0.3935 -0.1131
   70MOL0     C 9583   6.996   7.347   2.634  0.3927  0.4867 -0.4837
   70MOL0     C 9584   7.143   7.344   2.695  0.1905 -0.6424  0.5538
   70MOL0     C 9585   7.205   7.478   2.739  0.6579 -0.8462  1.2401
   70MOL0     C 9586   7.219   7.560   2.630 -0.0314  1.6544 -0.5303
   70MOL0     C 9587   7.246   7.604   2.524  0.3515  0.5525  0.1110
   70MOL0     C 9588   6.574   7.521   2.671 -0.1257  0.1905  1.2962
   70MOL0     C 9589   6.467   7.586   2.724 -0.0906 -0.0021 -0.0010
   70MOL0     C 9590   6.374   7.682   2.644  0.4950  0.5906 -0.6050
   70MOL0     H 9591   6.236   7.482   3.210  1.2894 -1.4503  3.7710
   70MOL0     H 9592   6.083   7.539   3.388  0.2776  1.9087  3.8651
   70MOL0     H 9593   5.990   7.638   3.576  1.1951  0.9618  0.8630
   70MOL0     H 9594   5.884   7.646   3.426  1.3444 -0.2728 -0.0490
   70MOL0     H 9595   5.888   7.808   3.689  1.9566 -0.4694 -1.8607
   70MOL0     H 9596   5.774   7.849   3.557  0.6451 -0.1059 -1.9067
   70MOL0     H 9597   5.785   7.581   3.711  3.1110  2.5216  2.7899
   70MOL0     H 9598   5.707   7.706   3.780  1.4487  2.9747 -0.8178
   70MOL0     H 9599   5.660   7.586   3.508 -1.6254 -0.7046 -1.1220
   70MOL0     H 9600   5.555   7.561   3.652 -1.0167  1.2438 -0.8929
   70MOL0     H 9601   5.432   7.722   3.479 -0.3286  1.5155  1.0300
   70MOL0     H 9602   5.578   7.819   3.499  0.4969  0.0224 -0.6431
   70MOL0     H 9603   5.411   7.724   3.717  1.0678 -1.1098 -0.5576
   70MOL0     H 9604   5.545   7.844   3.733  1.0913 -0.9430 -1.5389
   70MOL0     H 9605   5.346   7.943   3.760  1.2150  1.4890 -0.5149
   70MOL0     H 9606   5.284   7.902   3.589 -1.0666  1.4421  1.1598
   70MOL0     H 9607   5.493   8.097   3.685 -0.7322  3.0576 -0.8558
   70MOL0     H 9608   5.519   8.013   3.530  1.5088  0.8789 -0.3648
   70MOL0     H 9609   5.325   8.270   3.702  2.6507  1.9047 -1.5642
   70MOL0     H 9610   5.103   8.421   3.637  1.4948 -0.9766  0.3154
   70MOL0     H 9611   5.042   8.409   3.468 -1.5635  1.2285  0.7113
   70MOL0     H 9612   5.155   8.643   3.520  0.8452 -0.0080  2.0346
   70MOL0     H 9613   5.308   8.556   3.486  0.0221 -1.1387  1.4423
   70MOL0     H 9614   5.204   8.460   3.273 -0.7449  0.3269  0.4171
   70MOL0     H 9615   5.067   8.571   3.297 -1.4836 -0.0671  0.4908
   70MOL0     H 9616   5.216   8.755   3.348  1.6539 -1.2168  1.2671
   70MOL0     H 9617   5.346   8.672   3.248  0.1875  0.7877 -0.4793
   70MOL0     H 9618   5.052   8.841   2.970  0.9543 -1.5572  0.3899
   70MOL0     H 9619   5.029   8.930   2.758 -1.2499  0.6523 -4.4427
   70MOL0     H 9620   5.172   8.968   2.673  0.8885 -1.3164  0.7287
   70MOL0     H 9621   5.081   9.098   2.760  0.6002 -0.3127 -0.9861
   70MOL0     H 9622   5.630   9.272   2.688 -0.0701  1.1678 -0.7188
   70MOL0     H 9623   5.711   9.494   2.595 -0.3378 -2.3847 -0.1743
   70MOL0     H 9624   5.596   9.875   2.788  0.9037  2.5518  2.5614
   70MOL0     H 9625   5.761   9.855   2.856 -1.9499  0.0792  1.4074
   70MOL0     H 9626   5.844   9.981   2.692  0.8560 -0.0734 -2.3062
   70MOL0     H 9627   5.742   9.903   2.561 -1.5245  1.6429 -0.3846
   70MOL0     H 9628   5.679  10.131   2.760 -6.4253  0.1212  1.8047
   70MOL0     H 9629   5.556  10.044   2.677  0.5657 -2.6081  0.2564
   70MOL0     H 9630   5.600  10.204   2.514 -0.0917  2.5456  1.6763
   70MOL0     H 9631   5.752  10.109   2.487  0.5220 -3.4626  2.8684
   70MOL0     H 9632   5.795  10.352   2.523  1.0079 -1.0634 -0.6209
   70MOL0     H 9633   5.703  10.344   2.678 -0.8080  0.6748 -0.5243
   70MOL0     H 9634   5.962  10.217   2.579 -0.5009  3.2751 -1.9738
   70MOL0     H 9635   5.897  10.201   2.747  0.2861  0.9887  0.2093
   70MOL0     H 9636   6.076  10.357   2.761  0.1725 -1.5268 -1.0632
   70MOL0     H 9637   5.926  10.436   2.802  2.7444  2.6565  0.8003
   70MOL0     H 9638   5.910  10.534   2.578  0.3077  0.6122  0.6261
   70MOL0     H 9639   6.066  10.459   2.525 -2.7000 -3.4200 -0.6221
   70MOL0     H 9640   5.559   9.690   2.940 -2.6180  1.7577 -4.7797
   70MOL0     H 9641   5.470   9.468   3.024  0.6649  1.6647  1.2646
   70MOL0     H 9642   5.477   9.066   3.068 -1.2796  0.7335  3.1602
   70MOL0     H 9643   5.401   8.902   3.202 -1.3845  0.9266  2.0081
   70MOL0     H 9644   6.125   7.949   3.322  0.2476  0.1441 -0.6994
   70MOL0     H 9645   6.313   7.904   3.153  1.7855 -0.8935  2.5189
   70MOL0     H 9646   6.528   7.456   3.040 -0.5329  0.7393 -0.4466
   70MOL0     H 9647   6.710   7.362   2.947 -1.3943 -2.1362  1.2344
   70MOL0     H 9648   6.910   7.507   2.746 -0.7901  0.2346  2.1555
   70MOL0     H 9649   6.893   7.359   2.836 -1.9779  0.3199 -0.1130
   70MOL0     H 9650   7.002   7.405   2.542  1.2080 -0.2327 -0.9002
   70MOL0     H 9651   6.969   7.242   2.618 -1.0083  0.4289  1.8170
   70MOL0     H 9652   7.139   7.276   2.781 -0.6218 -1.6583 -0.2484
   70MOL0     H 9653   7.207   7.286   2.628  1.0369  0.3875  0.4521
   70MOL0     H 9654   7.307   7.480   2.779  0.3382  2.3859  2.1927
   70MOL0     H 9655   7.137   7.533   2.805 -1.2135 -0.6442 -0.7306
   70MOL0     H 9656   7.278   7.660   2.439  1.5562  0.4407  0.4778
   70MOL0     H 9657   6.596   7.533   2.566 -2.5814  1.1909  0.8247
   70MOL0     H 9658   6.416   7.782   2.655  0.4600  0.5187  0.2455
   70MOL0     H 9659   6.379   7.660   2.537  0.4335  0.9581 -0.6836
   70MOL0     H 9660   6.267   7.675   2.664  0.5039  1.6551 -0.1443
   71MOL0     O 9661  11.395   9.214   2.683 -0.6726 -0.2924 -0.3540
   71MOL0     C 9662  11.381   9.331   2.646  0.4350 -0.8010 -0.4260
   71MOL0     O 9663  11.456   9.389   2.545  0.2008  0.3313  0.0167
   71MOL0     C 9664  11.531   9.309   2.452  0.2385  0.4801 -0.0632
   71MOL0     C 9665  11.618   9.211   2.495  1.3219  0.4005  0.3688
   71MOL0     C 9666  11.712   9.149   2.417 -0.4165  0.2178 -0.5643
   71MOL0     C 9667  11.719   9.177   2.276 -1.3350 -0.5112 -0.2091
   71MOL0     O 9668  11.806   9.124   2.187  0.0636 -0.2652  0.2201
   71MOL0     C 9669  11.874   9.009   2.228 -0.4565  0.2247  0.4539
   71MOL0     C 9670  11.956   8.952   2.114  0.4768 -0.0736  0.6323
   71MOL0     C 9671  12.085   9.032   2.083 -1.1777  0.4847 -0.2353
   71MOL0     C 9672  12.176   9.031   2.201 -0.3879 -0.1416  0.1798
   71MOL0     C 9673  12.318   9.085   2.176  0.8691 -0.5821  0.5669
   71MOL0     C 9674  12.406   9.012   2.074 -0.3875  0.0184 -0.3158
   71MOL0     C 9675  12.545   9.070   2.069 -0.4337  0.4200  0.5193
   71MOL0     C 9676  12.650   8.962   2.035 -0.2901 -0.0817 -0.1174
   71MOL0     N 9677  12.795   9.002   2.037  0.1681 -0.1486  0.7234
   71MOL0     C 9678  12.863   9.083   1.952 -0.5370 -0.6137  0.2507
   71MOL0     C 9679  12.997   9.059   1.970  0.4340 -0.0426  0.6969
   71MOL0     C 9680  13.119   9.124   1.900 -0.8969  0.1554  0.3124
   71MOL0     C 9681  13.141   9.274   1.939 -1.3855  0.3292  0.1446
   71MOL0     C 9682  13.030   9.365   1.871 -1.1689 -0.4797  0.3006
   71MOL0     C 9683  13.077   9.512   1.876  0.0259  0.3788 -0.0097
   71MOL0     O 9684  13.039   9.560   2.009  0.6019 -0.4691 -0.3519
   71MOL0     C 9685  13.079   9.685   2.040  0.2232 -0.5787  1.1685
   71MOL0     C 9686  13.157   9.770   1.954 -1.3784 -0.9475 -0.3285
   71MOL0     C 9687  13.176   9.911   1.996  0.3123 -0.8230 -0.2421
   71MOL0     C 9688  13.275   9.988   1.921  0.4055  0.4734  0.0851
   71MOL0     C 9689  13.120   9.955   2.120 -0.1151 -0.2324  0.1163
   71MOL0     C 9690  13.138  10.101   2.173  0.1184  0.7855  0.0532
   71MOL0     O 9691  13.052  10.126   2.285 -0.4910 -0.0250 -0.0391
   71MOL0     C 9692  13.080  10.226   2.378  0.6463 -0.2004  0.1737
   71MOL0     C 9693  13.086  10.359   2.342  0.1877 -0.2128  0.1730
   71MOL0     C 9694  13.101  10.463   2.444  0.4155 -0.0058 -0.2433
   71MOL0     C 9695  13.113  10.442   2.577  0.2509  0.0534  0.9875
   71MOL0     O 9696  13.131  10.523   2.682 -0.1005 -0.5610  0.9110
   71MOL0     C 9697  13.100  10.663   2.666  0.2145  0.4564 -0.3985
   71MOL0     C 9698  13.216  10.732   2.597 -0.7859  0.1133 -0.2746
   71MOL0     C 9699  13.183  10.862   2.522  0.9464 -1.3411 -0.6751
   71MOL0     C 9700  13.098  10.836   2.392  0.6997  0.4128  0.2313
   71MOL0     C 9701  13.038  10.961   2.335 -0.0634 -0.3705 -0.0781
   71MOL0     C 9702  13.141  11.074   2.312 -1.0832 -0.3131 -0.0689
   71MOL0     C 9703  13.083  11.178   2.215  0.0133 -0.5483  0.4633
   71MOL0     C 9704  13.178  11.296   2.228 -0.0485 -0.1800 -0.2170
   71MOL0    Cl 9705  13.114  11.393   2.362  0.1011  0.6161 -0.5706
   71MOL0     C 9706  13.107  10.307   2.612  0.7261  1.6249 -0.3575
   71MOL0     C 9707  13.087  10.205   2.516 -0.2827  0.1409  0.2918
   71MOL0     O 9708  13.227  10.175   2.138  0.4432  0.4468 -1.1072
   71MOL0     C 9709  13.048   9.859   2.195 -0.3474  0.5614 -0.0418
   71MOL0     C 9710  13.029   9.729   2.157 -0.2798  0.9415  0.0070
   71MOL0     N 9711  13.006   8.971   2.072 -0.6136 -0.1231  0.2707
   71MOL0     N 9712  12.884   8.934   2.113  0.5541 -0.3895 -0.3352
   71MOL0     C 9713  11.623   9.273   2.228 -0.4601 -0.3421  0.0295
   71MOL0     C 9714  11.531   9.339   2.316 -0.1543  0.6194  0.2431
   71MOL0     C 9715  11.291   9.423   2.712 -0.0355  0.6088  0.7055
   71MOL0     C 9716  11.266   9.547   2.650  0.1661  0.1202  0.5722
   71MOL0     C 9717  11.159   9.625   2.686  0.7316 -0.4946  0.6792
   71MOL0     C 9718  11.082   9.589   2.791  0.9322 -0.0953 -0.2774
   71MOL0     O 9719  10.993   9.685   2.835 -0.5600 -0.9988  0.3337
   71MOL0     C 9720  10.922   9.663   2.955  0.4286 -0.7301 -0.7183
   71MOL0     C 9721  10.836   9.790   2.990 -0.3590  0.1059 -0.4308
   71MOL0     C 9722  10.764   9.768   3.122 -0.9653  0.6580 -0.8171
   71MOL0     C 9723  10.650   9.663   3.120 -0.4460 -0.6636  0.1823
   71MOL0     C 9724  10.622   9.646   3.262 -0.3500 -1.6270  0.9996
   71MOL0     C 9725  10.600   9.631   3.379 -0.0033  0.9799  0.0015
   71MOL0     C 9726  11.107   9.467   2.857  0.3627  0.4954  0.4769
   71MOL0     C 9727  11.208   9.378   2.816  0.0850 -0.0146 -0.1336
   71MOL0     C 9728  11.206   9.246   2.881 -0.0310  0.2484 -0.2333
   71MOL0     H 9729  11.615   9.188   2.601  1.5710  1.3930  0.5969
   71MOL0     H 9730  11.766   9.066   2.463 -1.7353  0.2818  1.1852
   71MOL0     H 9731  11.800   8.931   2.248 -1.6704  1.9114  3.1475
   71MOL0     H 9732  11.927   9.018   2.324 -1.5309  1.6181  0.9396
   71MOL0     H 9733  11.972   8.848   2.144  0.1264  0.1696  1.6875
   71MOL0     H 9734  11.899   8.944   2.021  2.9946 -1.5118 -0.8942
   71MOL0     H 9735  12.131   8.985   1.996  0.3572  0.9300  0.2890
   71MOL0     H 9736  12.072   9.138   2.059  3.1634  1.9310  2.6117
   71MOL0     H 9737  12.130   9.082   2.286  1.6918  1.8530  0.2151
   71MOL0     H 9738  12.188   8.925   2.228 -2.0117 -1.4147 -3.4343
   71MOL0     H 9739  12.373   9.093   2.270 -0.9016  1.2354  1.5345
   71MOL0     H 9740  12.304   9.190   2.149  0.7854 -1.0230 -1.2268
   71MOL0     H 9741  12.417   8.906   2.097 -2.2215 -0.3082 -0.7828
   71MOL0     H 9742  12.364   9.022   1.974 -2.1108  1.9220  0.5310
   71MOL0     H 9743  12.576   9.102   2.169  2.4107 -0.1547 -0.0900
   71MOL0     H 9744  12.541   9.146   1.990 -4.4834 -0.3130 -0.1635
   71MOL0     H 9745  12.638   8.898   2.123 -1.6749  1.4866  0.9078
   71MOL0     H 9746  12.629   8.907   1.943  1.3499  3.0648 -2.6160
   71MOL0     H 9747  12.827   9.159   1.883  1.0000 -0.4249 -0.3689
   71MOL0     H 9748  13.107   9.128   1.791 -2.3999 -0.6896  0.4149
   71MOL0     H 9749  13.201   9.063   1.938 -0.2284  0.1535 -1.0891
   71MOL0     H 9750  13.131   9.297   2.045 -1.4522  0.2867  0.1478
   71MOL0     H 9751  13.232   9.321   1.899 -0.6949 -0.3513  0.8928
   71MOL0     H 9752  13.016   9.340   1.766 -0.6698  1.4030 -0.2493
   71MOL0     H 9753  12.937   9.353   1.927 -0.6882  1.7832  1.6892
   71MOL0     H 9754  13.185   9.529   1.865  0.0135  2.3088  1.8941
   71MOL0     H 9755  13.037   9.561   1.787 -0.4087  1.0527  0.5438
   71MOL0     H 9756  13.193   9.738   1.857 -0.2491 -1.4042  0.2187
   71MOL0     H 9757  13.237  10.090   1.909  0.7802  0.4306 -1.7336
   71MOL0     H 9758  13.276   9.941   1.822 -1.9957  0.3200  0.0712
   71MOL0     H 9759  13.372   9.979   1.970  0.2956 -3.1278 -0.0878
   71MOL0     H 9760  13.096  10.391   2.238  2.7123  1.3125  0.8041
   71MOL0     H 9761  13.108  10.565   2.407  1.5920  0.2773  0.7086
   71MOL0     H 9762  13.022  10.678   2.591 -0.9083 -2.0197  0.1816
   71MOL0     H 9763  13.088  10.715   2.761 -1.9504  1.9256 -1.4005
   71MOL0     H 9764  13.291  10.762   2.670  1.3201  0.0291 -2.2823
   71MOL0     H 9765  13.267  10.675   2.518  0.4241 -2.8186  2.4075
   71MOL0     H 9766  13.278  10.906   2.488  1.6857 -0.5064  2.1934
   71MOL0     H 9767  13.140  10.940   2.586  0.0007 -0.2042 -2.5961
   71MOL0     H 9768  13.006  10.780   2.414  0.4839  1.6219  2.7667
   71MOL0     H 9769  13.152  10.783   2.313 -0.6811 -0.0741 -0.4296
   71MOL0     H 9770  12.995  10.932   2.239 -2.2801  1.8682  0.1450
   71MOL0     H 9771  12.956  11.001   2.395  0.7166  1.2154 -0.0290
   71MOL0     H 9772  13.228  11.024   2.270 -0.5456 -1.6340  2.3725
   71MOL0     H 9773  13.170  11.122   2.407  0.1257 -2.6339  0.8046
   71MOL0     H 9774  12.981  11.206   2.241  1.3551  1.9886  3.6770
   71MOL0     H 9775  13.082  11.133   2.115 -1.6293  0.1153  0.1526
   71MOL0     H 9776  13.170  11.345   2.131 -1.7370 -1.1803 -0.6312
   71MOL0     H 9777  13.283  11.270   2.240 -0.6063 -3.5281 -1.5104
   71MOL0     H 9778  13.103  10.274   2.715 -1.2004 -3.0320 -1.7092
   71MOL0     H 9779  13.076  10.102   2.548  2.3093 -0.8367 -1.6276
   71MOL0     H 9780  12.983   9.893   2.276  2.7627  3.7558  1.3836
   71MOL0     H 9781  12.976   9.662   2.224  1.9226  0.0564  0.9509
   71MOL0     H 9782  11.625   9.300   2.123 -0.1211  1.6609  0.5116
   71MOL0     H 9783  11.466   9.416   2.276 -0.0072 -0.1794 -1.6845
   71MOL0     H 9784  11.337   9.578   2.574 -1.5970  0.5460 -0.9877
   71MOL0     H 9785  11.150   9.723   2.638 -0.1435 -1.0050 -0.2463
   71MOL0     H 9786  10.858   9.575   2.945  1.1565 -1.2853 -0.6118
   71MOL0     H 9787  11.005   9.643   3.024 -0.7477  1.3339  1.4587
   71MOL0     H 9788  10.767   9.822   2.911 -1.4991 -1.2190 -0.0076
   71MOL0     H 9789  10.908   9.869   3.013  2.4783 -2.0016 -1.4475
   71MOL0     H 9790  10.836   9.735   3.198 -1.9642  2.3333  0.9624
   71MOL0     H 9791  10.718   9.863   3.150  2.7670  1.9039  1.9401
   71MOL0     H 9792  10.688   9.569   3.079 -2.3331 -0.4102 -2.4243
   71MOL0     H 9793  10.564   9.691   3.059  3.0719  4.1070 -3.3408
   71MOL0     H 9794  10.584   9.625   3.485 -4.8840 -1.4768 -0.5977
   71MOL0     H 9795  11.052   9.436   2.945  1.4421  1.5683  1.5713
   71MOL0     H 9796  11.144   9.259   2.970 -0.9242  1.5781 -1.0082
   71MOL0     H 9797  11.163   9.164   2.823  0.2749 -0.4002  0.4363
   71MOL0     H 9798  11.301   9.200   2.910 -0.0285 -1.0623 -2.1330
   72MOL0     O 9799   1.906   8.306   5.837 -0.5853  0.8312 -0.0432
   72MOL0     C 9800   1.824   8.234   5.780 -0.0434 -0.0830 -0.0372
   72MOL0     O 9801   1.773   8.117   5.824 -0.2788 -0.2025 -0.1460
   72MOL0     C 9802   1.793   8.080   5.951 -0.3061  0.1621 -0.3463
   72MOL0     C 9803   1.734   8.158   6.053  0.4626 -0.1233 -0.4183
   72MOL0     C 9804   1.749   8.113   6.176 -0.1573  0.6622 -0.0088
   72MOL0     C 9805   1.810   7.998   6.209  0.5983  0.4231  0.7795
   72MOL0     O 9806   1.844   7.969   6.341  0.7775  0.0294 -0.0047
   72MOL0     C 9807   1.917   8.070   6.411 -0.9124 -0.3175 -1.3271
   72MOL0     C 9808   2.034   7.993   6.488 -0.3078  0.3494  0.5697
   72MOL0     C 9809   2.122   8.084   6.572 -0.7695 -0.1175  0.5754
   72MOL0     C 9810   2.217   8.001   6.664  0.5870  0.2020 -0.1770
   72MOL0     C 9811   2.308   8.097   6.743 -0.0958 -0.0321 -0.2724
   72MOL0     C 9812   2.391   8.001   6.836  0.0667  0.3791  0.3261
   72MOL0     C 9813   2.528   8.055   6.877 -0.2237 -0.3273 -0.8828
   72MOL0     C 9814   2.533   8.157   6.997  0.5152 -0.2698 -0.4650
   72MOL0     N 9815   2.459   8.104   7.123 -0.7955 -0.0256  0.9636
   72MOL0     C 9816   2.460   7.977   7.181  0.2994 -0.5581  0.7205
   72MOL0     C 9817   2.380   7.973   7.287 -0.8483 -0.2486 -0.5125
   72MOL0     C 9818   2.351   7.858   7.377 -0.1200  0.3499  0.4302
   72MOL0     C 9819   2.449   7.865   7.500  0.2938  0.2320 -0.1053
   72MOL0     C 9820   2.428   7.750   7.609  0.6300 -0.5968  0.3152
   72MOL0     C 9821   2.514   7.755   7.733  0.7203  0.3084  0.1709
   72MOL0     O 9822   2.459   7.648   7.816  0.9188 -0.4700  0.3309
   72MOL0     C 9823   2.346   7.656   7.901 -0.5773 -1.3701  0.0372
   72MOL0     C 9824   2.320   7.541   7.965  0.5057 -1.2410 -0.7786
   72MOL0     C 9825   2.214   7.532   8.065  0.5444  0.1979  0.6672
   72MOL0     C 9826   2.185   7.401   8.130  0.5460  1.2139  0.0753
   72MOL0     C 9827   2.141   7.647   8.101  1.2146 -0.2637  0.0201
   72MOL0     C 9828   2.025   7.652   8.201  0.3737  0.1531 -0.2997
   72MOL0     O 9829   2.002   7.762   8.275 -0.0253 -0.2558  0.0289
   72MOL0     C 9830   1.882   7.770   8.338  0.0727  0.2424  0.2404
   72MOL0     C 9831   1.770   7.815   8.269  0.5589  1.5956  0.1156
   72MOL0     C 9832   1.655   7.840   8.345  0.6150  0.2778  0.1361
   72MOL0     C 9833   1.650   7.839   8.489  0.2829 -0.9283  0.0899
   72MOL0     O 9834   1.542   7.842   8.569  0.2108  0.0709 -0.7997
   72MOL0     C 9835   1.416   7.815   8.518 -0.4554 -0.3320  0.7461
   72MOL0     C 9836   1.296   7.791   8.612 -1.0357 -0.1871  0.4305
   72MOL0     C 9837   1.337   7.660   8.690 -0.8891  0.3959  0.3738
   72MOL0     C 9838   1.224   7.601   8.769  0.6335  0.1619  0.3863
   72MOL0     C 9839   1.266   7.481   8.851  0.2688 -0.5907 -0.2763
   72MOL0     C 9840   1.334   7.536   8.977  0.8672 -0.0741 -0.4962
   72MOL0     C 9841   1.222   7.576   9.080 -0.0640  0.2765  0.2206
   72MOL0     C 9842   1.145   7.466   9.149  0.9143 -0.5069  0.8252
   72MOL0    Cl 9843   1.036   7.535   9.271 -0.4932 -0.0985  0.0201
   72MOL0     C 9844   1.772   7.820   8.553  0.1789 -0.7659 -0.5060
   72MOL0     C 9845   1.879   7.778   8.477  0.3377  0.3603 -0.4469
   72MOL0     O 9846   1.955   7.557   8.194  0.0869  0.4963  0.2942
   72MOL0     C 9847   2.182   7.774   8.038 -0.8939  0.3583 -0.9282
   72MOL0     C 9848   2.276   7.771   7.938 -0.7265 -0.1204 -0.2785
   72MOL0     N 9849   2.327   8.101   7.298 -0.4583 -0.3135 -0.1587
   72MOL0     N 9850   2.379   8.181   7.207  0.6558  0.0853 -0.3048
   72MOL0     C 9851   1.852   7.908   6.105 -0.6431 -0.4554 -0.0419
   72MOL0     C 9852   1.854   7.953   5.975 -0.1511  0.3098 -0.3141
   72MOL0     C 9853   1.801   8.263   5.637 -0.0903 -0.0794 -0.4713
   72MOL0     C 9854   1.913   8.322   5.566 -0.1535 -0.0157  0.2145
   72MOL0     C 9855   1.905   8.339   5.429 -0.1193  0.0161 -0.8553
   72MOL0     C 9856   1.794   8.308   5.351  0.3056  0.1816 -0.1145
   72MOL0     O 9857   1.789   8.328   5.212  0.0390 -0.1076 -0.4380
   72MOL0     C 9858   1.903   8.348   5.139 -0.8910 -1.0339  0.1576
   72MOL0     C 9859   1.875   8.367   4.981  0.1387  0.6466 -0.3468
   72MOL0     C 9860   1.754   8.460   4.962 -0.0244 -0.0035  0.0315
   72MOL0     C 9861   1.728   8.487   4.817  0.4005 -0.0840  0.2983
   72MOL0     C 9862   1.617   8.584   4.792 -0.0380  0.6419  0.3318
   72MOL0     C 9863   1.545   8.673   4.787  1.6512  0.5729 -1.1868
   72MOL0     C 9864   1.677   8.273   5.418  0.5114  0.4817  0.6135
   72MOL0     C 9865   1.688   8.236   5.556  0.9272  0.5618 -0.5294
   72MOL0     C 9866   1.570   8.163   5.618 -0.2233  0.3624  0.1919
   72MOL0     H 9867   1.672   8.242   6.025  0.9594 -0.9503 -4.6915
   72MOL0     H 9868   1.695   8.172   6.250  0.6620  1.6587 -0.1812
   72MOL0     H 9869   1.854   8.135   6.473 -2.1312 -2.3678 -0.3107
   72MOL0     H 9870   1.975   8.136   6.346  0.4668 -0.2449 -0.0776
   72MOL0     H 9871   1.984   7.925   6.558 -1.0444  0.4206  0.1311
   72MOL0     H 9872   2.092   7.941   6.410 -0.4154 -1.0412  1.3829
   72MOL0     H 9873   2.182   8.150   6.508 -0.5593 -0.0547  0.8347
   72MOL0     H 9874   2.062   8.141   6.644  0.1808  2.1647 -0.3131
   72MOL0     H 9875   2.162   7.946   6.740  0.6389  1.3426  0.7187
   72MOL0     H 9876   2.281   7.933   6.607  3.5328  1.7035  1.1145
   72MOL0     H 9877   2.251   8.170   6.801  1.1507  3.7594 -3.4140
   72MOL0     H 9878   2.372   8.149   6.672 -1.9285 -0.0394 -2.0470
   72MOL0     H 9879   2.341   7.995   6.934  0.0070 -0.7151  0.2460
   72MOL0     H 9880   2.393   7.900   6.794  0.2367  0.1103  0.9648
   72MOL0     H 9881   2.564   8.110   6.790 -0.9873 -1.5850 -2.0434
   72MOL0     H 9882   2.595   7.972   6.903  0.3855  0.8872  1.7666
   72MOL0     H 9883   2.633   8.199   7.014  0.3622 -0.9241  2.5216
   72MOL0     H 9884   2.481   8.246   6.961 -1.2438 -0.4583  1.4484
   72MOL0     H 9885   2.519   7.896   7.139  0.0377  0.2798 -1.3952
   72MOL0     H 9886   2.356   7.764   7.322  1.9108  0.5881  0.1498
   72MOL0     H 9887   2.249   7.859   7.418 -0.9208 -0.0710 -1.4409
   72MOL0     H 9888   2.545   7.840   7.454  0.2061  1.1937 -0.8392
   72MOL0     H 9889   2.460   7.963   7.547  4.5565 -0.4199  0.6306
   72MOL0     H 9890   2.326   7.774   7.639  1.6810  1.8951  2.2349
   72MOL0     H 9891   2.439   7.649   7.567  0.7558 -0.2433 -0.5142
   72MOL0     H 9892   2.619   7.741   7.705  1.1428  2.5352  0.4987
   72MOL0     H 9893   2.501   7.852   7.781 -0.0273 -0.9431  2.6808
   72MOL0     H 9894   2.380   7.455   7.937 -2.5711 -2.9895 -2.6807
   72MOL0     H 9895   2.194   7.413   8.238  4.5251  0.6566 -0.0368
   72MOL0     H 9896   2.268   7.332   8.112 -2.1592 -3.1527  2.5928
   72MOL0     H 9897   2.086   7.357   8.114 -0.1360  3.0105 -0.9852
   72MOL0     H 9898   1.769   7.825   8.161  1.6213 -1.8391 -0.3104
   72MOL0     H 9899   1.578   7.882   8.282  0.1965 -1.0677 -0.2952
   72MOL0     H 9900   1.395   7.903   8.456 -1.1914  0.3015  1.8759
   72MOL0     H 9901   1.425   7.729   8.450  1.2487 -0.9125  1.6541
   72MOL0     H 9902   1.285   7.870   8.688 -3.7119  0.3397 -0.4158
   72MOL0     H 9903   1.200   7.781   8.562 -0.5904 -2.3042 -0.0829
   72MOL0     H 9904   1.431   7.681   8.742 -0.2718  0.3949 -0.6971
   72MOL0     H 9905   1.371   7.594   8.610  0.8376  0.3635  1.0878
   72MOL0     H 9906   1.161   7.555   8.692  2.9420 -2.7483  0.0515
   72MOL0     H 9907   1.175   7.676   8.832  0.0938 -0.5344  0.8173
   72MOL0     H 9908   1.169   7.437   8.877 -1.5348  3.2834  0.4150
   72MOL0     H 9909   1.338   7.417   8.800  1.8572  1.4950 -0.7799
   72MOL0     H 9910   1.389   7.627   8.949 -1.6775  3.0083  3.4670
   72MOL0     H 9911   1.398   7.455   9.013  2.2744 -0.6757 -3.9503
   72MOL0     H 9912   1.140   7.633   9.036 -1.1986  0.4071  2.3885
   72MOL0     H 9913   1.279   7.631   9.156  0.0265  0.5789 -0.0645
   72MOL0     H 9914   1.211   7.394   9.199  2.6094  0.9123  0.7171
   72MOL0     H 9915   1.069   7.425   9.082 -0.5209  0.6581  1.6754
   72MOL0     H 9916   1.787   7.828   8.660  3.1973 -4.1110 -0.4756
   72MOL0     H 9917   1.976   7.754   8.520  0.4278  1.3585 -0.0726
   72MOL0     H 9918   2.130   7.865   8.066 -0.3421  1.0007 -1.9267
   72MOL0     H 9919   2.305   7.854   7.874  3.5703 -2.2983 -1.5852
   72MOL0     H 9920   1.886   7.809   6.132  0.3059 -0.7045 -1.9716
   72MOL0     H 9921   1.890   7.891   5.894 -4.6270 -0.3060 -2.0857
   72MOL0     H 9922   2.000   8.370   5.610  1.0101 -2.6337  0.9553
   72MOL0     H 9923   1.994   8.378   5.380  1.1017  1.6129  2.3392
   72MOL0     H 9924   1.930   8.453   5.153 -1.3495 -0.8773 -0.1446
   72MOL0     H 9925   1.980   8.274   5.165 -0.2483 -1.2070 -2.0706
   72MOL0     H 9926   1.849   8.268   4.943  0.0873 -0.4616  2.3341
   72MOL0     H 9927   1.965   8.398   4.928  1.7667 -1.3483  1.1025
   72MOL0     H 9928   1.663   8.418   5.005 -0.4394  1.0529  0.2202
   72MOL0     H 9929   1.776   8.554   5.013 -2.4828  0.2027  0.8685
   72MOL0     H 9930   1.702   8.401   4.755  0.6838 -1.9664  2.6477
   72MOL0     H 9931   1.820   8.530   4.775 -0.1818 -0.5778 -1.5735
   72MOL0     H 9932   1.473   8.752   4.782 -1.4701 -2.0199 -0.6646
   72MOL0     H 9933   1.597   8.241   5.351 -0.1430 -1.9268  2.3944
   72MOL0     H 9934   1.595   8.069   5.667 -1.8153  1.2343  2.8845
   72MOL0     H 9935   1.523   8.232   5.689  0.3360  0.7220  0.2193
   72MOL0     H 9936   1.488   8.141   5.550 -1.2739  1.8569  0.9149
   73MOL0     O 9937   8.097   9.425   7.263  0.1754  0.1287  0.4591
   73MOL0     C 9938   8.207   9.359   7.276 -0.2120  0.5302 -0.1490
   73MOL0     O 9939   8.294   9.332   7.174  0.5479  0.1931 -0.3698
   73MOL0     C 9940   8.247   9.363   7.052 -0.2665  0.0669  0.5067
   73MOL0     C 9941   8.285   9.477   6.969  0.4157 -0.3427  0.2944
   73MOL0     C 9942   8.234   9.498   6.845 -0.2082  0.0849  0.5591
   73MOL0     C 9943   8.130   9.420   6.793 -0.0423 -0.7785 -0.1102
   73MOL0     O 9944   8.093   9.431   6.663  0.2446 -0.1703  0.2776
   73MOL0     C 9945   8.041   9.555   6.623  0.0190 -0.3720 -0.1708
   73MOL0     C 9946   7.886   9.551   6.618 -0.8593  0.8793  0.2964
   73MOL0     C 9947   7.830   9.682   6.576  0.0763  0.2914  0.4231
   73MOL0     C 9948   7.674   9.689   6.597 -0.6276  0.1846 -0.5349
   73MOL0     C 9949   7.609   9.826   6.574 -0.0746 -0.0045 -0.0014
   73MOL0     C 9950   7.585   9.871   6.425 -0.1950  0.8981  0.7666
   73MOL0     C 9951   7.521  10.009   6.407  1.3455 -1.1544 -0.1618
   73MOL0     C 9952   7.492  10.035   6.259  0.6036 -1.2030  0.7990
   73MOL0     N 9953   7.606  10.051   6.167 -1.2519 -0.6716 -0.3003
   73MOL0     C 9954   7.706  10.140   6.196  0.3044  0.1156 -1.0972
   73MOL0     C 9955   7.808  10.113   6.117  0.3457 -0.2222 -0.5740
   73MOL0     C 9956   7.933  10.188   6.108  0.5968  0.3193  0.8552
   73MOL0     C 9957   8.041  10.081   6.127  1.0904 -0.4315  0.0095
   73MOL0     C 9958   8.036   9.996   6.258  0.6239  0.0904 -0.3864
   73MOL0     C 9959   8.043  10.083   6.374  0.2176 -0.3381 -0.3132
   73MOL0     O 9960   8.187  10.126   6.377 -0.3748  0.2031 -0.2393
   73MOL0     C 9961   8.202  10.239   6.450  1.1886 -0.6325 -0.3390
   73MOL0     C 9962   8.156  10.368   6.402  0.5997  0.4692 -0.0005
   73MOL0     C 9963   8.176  10.485   6.470  0.4872  0.7976  0.0051
   73MOL0     C 9964   8.129  10.614   6.403 -0.7190 -0.6582  1.4841
   73MOL0     C 9965   8.235  10.476   6.602 -1.0666  1.0064  0.3012
   73MOL0     C 9966   8.256  10.595   6.694  0.0134  0.2812 -0.1887
   73MOL0     O 9967   8.277  10.574   6.819 -0.4420 -0.8443 -0.2588
   73MOL0     C 9968   8.270  10.679   6.908 -0.6300 -0.7798  0.0203
   73MOL0     C 9969   8.368  10.695   7.001 -0.0913  0.6311 -0.6576
   73MOL0     C 9970   8.365  10.790   7.108  1.4240 -0.8368  0.7393
   73MOL0     C 9971   8.267  10.892   7.112  0.6681  0.1750 -0.2194
   73MOL0     O 9972   8.260  11.006   7.186  1.2466  0.5860  0.6292
   73MOL0     C 9973   8.355  11.046   7.287 -0.9236  0.0802 -0.3467
   73MOL0     C 9974   8.405  11.192   7.265  0.1240  0.0034  0.0745
   73MOL0     C 9975   8.520  11.198   7.166 -0.7249 -0.6970 -0.9621
   73MOL0     C 9976   8.637  11.271   7.229 -0.8487  0.1541  0.7009
   73MOL0     C 9977   8.764  11.264   7.141 -0.0468 -0.1492  0.7695
   73MOL0     C 9978   8.901  11.286   7.209  0.6854  0.1107 -0.6075
   73MOL0     C 9979   8.945  11.179   7.311  0.4198  1.0100  0.4871
   73MOL0     C 9980   9.081  11.207   7.367 -0.1830  0.1366 -0.3143
   73MOL0    Cl 9981   9.137  11.053   7.445  0.1041 -0.1332  0.1027
   73MOL0     C 9982   8.179  10.887   7.011  0.1424 -0.6103  0.3687
   73MOL0     C 9983   8.170  10.784   6.909 -0.4393 -0.0753  0.5098
   73MOL0     O 9984   8.248  10.703   6.640  0.1091  0.1091 -0.2952
   73MOL0     C 9985   8.269  10.351   6.656  0.0327 -0.2638  0.7922
   73MOL0     C 9986   8.248  10.238   6.584  0.7157 -0.0743  0.0787
   73MOL0     N 9987   7.766  10.016   6.027 -0.1287 -0.6728 -0.9485
   73MOL0     N 9988   7.644   9.979   6.054 -0.1786  0.4119  0.8273
   73MOL0     C 9989   8.097   9.297   6.866  0.6510  0.3197 -0.1732
   73MOL0     C 9990   8.161   9.270   6.989 -1.3341 -0.1819  0.1424
   73MOL0     C 9991   8.225   9.257   7.383 -0.0764 -0.8957 -0.6438
   73MOL0     C 9992   8.124   9.164   7.413 -0.2976 -0.2222 -0.2035
   73MOL0     C 9993   8.148   9.067   7.512  0.0849  0.1383  0.2769
   73MOL0     C 9994   8.277   9.052   7.567  0.5028  0.5410 -0.1183
   73MOL0     O 9995   8.312   8.952   7.661  0.1528 -0.6743  0.7746
   73MOL0     C 9996   8.216   8.889   7.757  0.0204 -0.3087 -0.0568
   73MOL0     C 9997   8.263   8.883   7.900 -0.2126 -0.2038  0.9904
   73MOL0     C 9998   8.203   8.776   7.992 -0.9274  1.8507 -0.7193
   73MOL0     C 9999   8.297   8.675   8.050 -0.2852 -0.4333  0.0087
   73MOL0     C10000   8.404   8.737   8.133 -0.0948  0.2300 -0.1089
   73MOL0     C10001   8.479   8.807   8.198  0.4490  0.6456  0.0113
   73MOL0     C10002   8.378   9.141   7.524  0.5909  0.0863 -0.3636
   73MOL0     C10003   8.355   9.240   7.433 -0.0919  0.9267  0.1712
   73MOL0     C10004   8.463   9.347   7.395  0.8135  0.1501 -0.3697
   73MOL0     H10005   8.354   9.556   6.997  0.7249 -0.9808  1.3923
   73MOL0     H10006   8.264   9.580   6.781  1.6915 -0.3026  0.9194
   73MOL0     H10007   8.066   9.564   6.517 -2.3650  1.4455 -0.6462
   73MOL0     H10008   8.076   9.634   6.691 -0.4943  1.2345 -1.6892
   73MOL0     H10009   7.855   9.467   6.555 -0.5102  0.9550  0.0203
   73MOL0     H10010   7.848   9.512   6.713 -1.0625 -2.9438 -1.1528
   73MOL0     H10011   7.872   9.761   6.639 -0.2087 -1.9220  3.6500
   73MOL0     H10012   7.857   9.695   6.471  0.6448  3.3893  0.8570
   73MOL0     H10013   7.634   9.600   6.547  1.5920 -2.2586  1.7246
   73MOL0     H10014   7.650   9.669   6.702 -1.1013  1.3243 -0.4132
   73MOL0     H10015   7.660   9.907   6.626 -4.2057  2.0709  1.2280
   73MOL0     H10016   7.511   9.823   6.622  0.2106  4.7814  1.3197
   73MOL0     H10017   7.682   9.866   6.375 -0.9212  0.0911 -0.6064
   73MOL0     H10018   7.507   9.808   6.382 -0.2641  1.2138  0.4260
   73MOL0     H10019   7.585  10.092   6.442  2.0164  0.7975 -5.1642
   73MOL0     H10020   7.427  10.019   6.461  0.8413 -1.3225 -0.9932
   73MOL0     H10021   7.431   9.952   6.222  0.7029  0.0266 -2.3812
   73MOL0     H10022   7.431  10.125   6.251  1.9657 -0.2546  0.8843
   73MOL0     H10023   7.693  10.223   6.265 -5.5653 -2.6705  1.9842
   73MOL0     H10024   7.939  10.279   6.169  0.5594  0.7929  0.1790
   73MOL0     H10025   7.955  10.229   6.008  0.1927  0.3406  0.7719
   73MOL0     H10026   8.042  10.012   6.042  2.6488  1.4590 -1.5874
   73MOL0     H10027   8.131  10.143   6.120 -1.2667  3.0588 -2.4878
   73MOL0     H10028   7.945   9.937   6.269 -2.0096  3.4329 -2.3778
   73MOL0     H10029   8.113   9.918   6.261  0.8257  0.0714  5.0672
   73MOL0     H10030   7.972  10.166   6.370  0.8725  0.2724  0.5280
   73MOL0     H10031   8.021  10.039   6.471  0.3300  0.7821  0.2376
   73MOL0     H10032   8.111  10.373   6.304 -2.4987  0.6463  1.3064
   73MOL0     H10033   8.068  10.606   6.313 -0.2400  1.1185  0.9515
   73MOL0     H10034   8.219  10.666   6.371  0.6228 -2.6420  1.8299
   73MOL0     H10035   8.075  10.680   6.471 -1.2735  2.7556 -1.9052
   73MOL0     H10036   8.450  10.624   7.007 -1.5449 -1.0168  1.0369
   73MOL0     H10037   8.447  10.804   7.178 -0.1601  1.6283  2.2811
   73MOL0     H10038   8.303  11.054   7.383  1.6027  2.1681  0.9752
   73MOL0     H10039   8.440  10.981   7.313  0.5741  2.2370  0.4617
   73MOL0     H10040   8.326  11.253   7.220  2.6086  0.5579 -3.9674
   73MOL0     H10041   8.421  11.227   7.367  1.7823  0.9828 -0.4813
   73MOL0     H10042   8.486  11.250   7.076 -1.8003 -2.9253 -1.8991
   73MOL0     H10043   8.556  11.100   7.133  3.2716  0.8851 -1.9476
   73MOL0     H10044   8.636  11.229   7.330 -2.3875 -1.2660  0.1431
   73MOL0     H10045   8.613  11.377   7.241  0.0987  0.2718  1.8041
   73MOL0     H10046   8.771  11.165   7.095  2.1100 -0.0690  0.8285
   73MOL0     H10047   8.745  11.328   7.054  1.0487 -0.9981 -0.1151
   73MOL0     H10048   8.895  11.382   7.261 -2.4654  0.3647 -1.2184
   73MOL0     H10049   8.979  11.302   7.134  2.1366 -0.6017  0.7068
   73MOL0     H10050   8.942  11.079   7.267  3.2276  1.7657 -1.7070
   73MOL0     H10051   8.869  11.190   7.388 -1.5357  0.4700 -1.2896
   73MOL0     H10052   9.083  11.296   7.431  0.7646 -1.0161  1.3492
   73MOL0     H10053   9.147  11.233   7.283 -1.8348  0.1620 -1.6490
   73MOL0     H10054   8.118  10.976   7.001  2.1553  0.7269 -0.7046
   73MOL0     H10055   8.095  10.789   6.831 -1.0162 -0.6213  1.0238
   73MOL0     H10056   8.315  10.326   6.751 -1.9840 -2.5542  1.2375
   73MOL0     H10057   8.278  10.145   6.630  0.2540 -0.4451 -0.3592
   73MOL0     H10058   8.033   9.219   6.826  0.6396  0.3444 -0.2024
   73MOL0     H10059   8.132   9.178   7.039 -2.8005  0.5578  0.7370
   73MOL0     H10060   8.030   9.174   7.359 -0.2044 -1.2634 -0.5619
   73MOL0     H10061   8.067   9.005   7.551 -1.2609  1.0430 -0.9938
   73MOL0     H10062   8.121   8.943   7.764 -0.0376 -0.2955 -0.8469
   73MOL0     H10063   8.194   8.791   7.715 -0.1994 -0.0051 -0.6607
   73MOL0     H10064   8.256   8.983   7.944  3.2084  0.6862 -0.1331
   73MOL0     H10065   8.370   8.859   7.900  0.1324  1.2179  1.9774
   73MOL0     H10066   8.160   8.816   8.084 -3.1351  1.8733 -1.6876
   73MOL0     H10067   8.121   8.729   7.937  1.2643 -0.0512 -2.5485
   73MOL0     H10068   8.339   8.618   7.967  0.4577 -1.5338  1.1039
   73MOL0     H10069   8.244   8.599   8.107 -0.2859 -2.2017 -2.2104
   73MOL0     H10070   8.552   8.854   8.261  0.5109 -1.7754  1.8749
   73MOL0     H10071   8.477   9.142   7.570  0.9331  0.1522 -1.0959
   73MOL0     H10072   8.534   9.344   7.477 -1.8072 -0.7223  2.0254
   73MOL0     H10073   8.512   9.340   7.298  3.0447  3.1749  0.3832
   73MOL0     H10074   8.435   9.453   7.392  0.1453  0.1135  2.1022
   74MOL0     O10075   6.567   9.973   6.371  0.3356  0.8613  0.3064
   74MOL0     C10076   6.553   9.855   6.338  0.7401  0.5227 -0.0596
   74MOL0     O10077   6.511   9.755   6.421 -0.8687  0.3188  0.2600
   74MOL0     C10078   6.527   9.751   6.554  0.0674  0.3383 -0.2574
   74MOL0     C10079   6.603   9.839   6.638 -0.5593  0.4852  0.1597
   74MOL0     C10080   6.618   9.812   6.777 -0.6098  1.0889 -0.2309
   74MOL0     C10081   6.555   9.703   6.839 -0.6793 -0.3412 -0.3119
   74MOL0     O10082   6.552   9.691   6.977  0.1252  0.1527 -0.5279
   74MOL0     C10083   6.611   9.789   7.059  0.5248  0.4689  0.4626
   74MOL0     C10084   6.619   9.742   7.206 -0.6165  0.0785  0.4069
   74MOL0     C10085   6.483   9.695   7.265  0.0087 -0.1878 -0.7108
   74MOL0     C10086   6.508   9.661   7.415  0.3763 -0.5993  0.3572
   74MOL0     C10087   6.389   9.591   7.479 -0.0971 -0.0886  0.3284
   74MOL0     C10088   6.275   9.694   7.515 -0.6861 -0.2549  0.6517
   74MOL0     C10089   6.142   9.621   7.542 -0.6470  0.6676 -0.4406
   74MOL0     C10090   6.139   9.501   7.631  0.0600 -0.8123  0.4984
   74MOL0     N10091   6.006   9.436   7.638  0.2868  1.0013 -0.8543
   74MOL0     C10092   5.895   9.498   7.682 -0.6190  0.8512  0.6315
   74MOL0     C10093   5.802   9.396   7.694  0.4567  0.3465 -0.2288
   74MOL0     C10094   5.659   9.410   7.745 -0.2623 -0.6725  0.8469
   74MOL0     C10095   5.574   9.469   7.624 -0.0133 -0.0076 -0.4356
   74MOL0     C10096   5.569   9.614   7.631 -0.1492  0.5865  0.5652
   74MOL0     C10097   5.462   9.657   7.732  0.6168 -0.4016  0.0042
   74MOL0     O10098   5.475   9.797   7.746  0.0539  0.2493 -0.0594
   74MOL0     C10099   5.366   9.883   7.759 -0.4668  0.2565  0.3135
   74MOL0     C10100   5.249   9.835   7.828 -0.2115 -0.3145  0.5283
   74MOL0     C10101   5.143   9.925   7.868 -0.5270 -0.3398 -0.1730
   74MOL0     C10102   5.016   9.854   7.897  0.5065 -0.2629 -0.1632
   74MOL0     C10103   5.170  10.061   7.852  0.5459  0.5619 -0.6816
   74MOL0     C10104   5.066  10.155   7.886 -0.5666 -0.2175  0.2120
   74MOL0     O10105   4.988  10.147   7.985  0.9149  0.0422 -0.4232
   74MOL0     C10106   4.908  10.254   8.024 -0.4326  1.4474  1.0929
   74MOL0     C10107   4.763  10.255   8.018 -0.6420  0.0686 -0.8393
   74MOL0     C10108   4.682  10.369   8.034  0.0005  0.5894 -0.3217
   74MOL0     C10109   4.756  10.495   8.042 -0.3453  0.1072  0.0649
   74MOL0     O10110   4.666  10.596   8.054 -0.2214  0.7973  0.3901
   74MOL0     C10111   4.697  10.712   8.136 -0.1983 -0.0497  0.2983
   74MOL0     C10112   4.719  10.674   8.284  0.1136 -0.0717  0.1796
   74MOL0     C10113   4.781  10.789   8.356  0.3963 -0.0229 -0.7109
   74MOL0     C10114   4.716  10.927   8.361  0.3025 -0.6855 -0.2309
   74MOL0     C10115   4.812  11.040   8.422  0.6378  0.9139  0.5517
   74MOL0     C10116   4.839  11.010   8.572  0.3391 -0.0376  0.0682
   74MOL0     C10117   4.901  11.138   8.632  0.2307  0.7097  0.6684
   74MOL0     C10118   4.933  11.103   8.778  0.2967 -0.8467  0.6721
   74MOL0    Cl10119   4.787  11.050   8.871 -0.1067 -0.2475  0.2455
   74MOL0     C10120   4.898  10.497   8.062 -0.2351  0.0425  0.6452
   74MOL0     C10121   4.974  10.372   8.058  0.0637  0.6695 -0.0775
   74MOL0     O10122   5.066  10.248   7.805  0.8776 -0.7842  0.9445
   74MOL0     C10123   5.286  10.102   7.800 -0.3818  0.0736 -0.8728
   74MOL0     C10124   5.384  10.017   7.748 -0.1747  0.0218 -0.5699
   74MOL0     N10125   5.860   9.275   7.661  0.3807 -0.1450 -0.2951
   74MOL0     N10126   5.983   9.299   7.630  0.1165 -0.4955 -1.0210
   74MOL0     C10127   6.485   9.619   6.752  0.1430  0.0125  0.6223
   74MOL0     C10128   6.478   9.636   6.616  0.7561 -0.5470  0.7539
   74MOL0     C10129   6.541   9.825   6.197  0.4683 -0.0002  0.7574
   74MOL0     C10130   6.519   9.689   6.164  0.1606  0.3057  0.1025
   74MOL0     C10131   6.506   9.645   6.032  0.0254  0.0691  0.0538
   74MOL0     C10132   6.538   9.719   5.922 -0.3392 -0.2793 -0.4961
   74MOL0     O10133   6.547   9.655   5.800 -0.1163 -0.2077 -0.0530
   74MOL0     C10134   6.596   9.740   5.697 -0.0183 -0.1892  0.7154
   74MOL0     C10135   6.577   9.670   5.563 -0.1695  0.6158  0.0614
   74MOL0     C10136   6.705   9.586   5.530  0.1698  0.1578  0.3278
   74MOL0     C10137   6.692   9.528   5.398 -0.6600 -0.1427  0.2079
   74MOL0     C10138   6.805   9.436   5.380  0.0010  0.4944  0.5999
   74MOL0     C10139   6.898   9.369   5.377  0.0344 -0.1310 -0.9111
   74MOL0     C10140   6.561   9.850   5.947  0.4666 -0.1568  1.1847
   74MOL0     C10141   6.563   9.910   6.078 -0.8489 -0.2078 -0.4270
   74MOL0     C10142   6.609  10.062   6.089 -0.4922 -1.2989 -0.5773
   74MOL0     H10143   6.648   9.933   6.608 -2.9902  1.2127 -1.5238
   74MOL0     H10144   6.663   9.886   6.843  0.2101  1.4629 -1.1833
   74MOL0     H10145   6.550   9.879   7.049  0.7050  0.8247  2.1836
   74MOL0     H10146   6.710   9.806   7.016 -1.1794  3.1458 -2.8601
   74MOL0     H10147   6.691   9.660   7.206 -1.2746 -0.5891  2.5882
   74MOL0     H10148   6.658   9.816   7.276  0.8244 -0.0271 -0.2455
   74MOL0     H10149   6.406   9.773   7.256 -1.1601 -1.1012  0.8676
   74MOL0     H10150   6.451   9.608   7.207  0.3624 -1.3756  0.8097
   74MOL0     H10151   6.594   9.594   7.412 -1.3234 -2.8890 -2.1372
   74MOL0     H10152   6.519   9.752   7.474 -2.0853  0.6663 -0.9490
   74MOL0     H10153   6.426   9.536   7.567  4.1753 -0.4350 -1.4550
   74MOL0     H10154   6.344   9.524   7.405  0.8930 -0.3616 -0.0288
   74MOL0     H10155   6.309   9.751   7.602  2.1706 -0.7834  0.0013
   74MOL0     H10156   6.268   9.771   7.438  0.8129  0.2714  1.0037
   74MOL0     H10157   6.118   9.587   7.441  1.0338  0.8377 -0.9163
   74MOL0     H10158   6.068   9.696   7.575 -0.9329 -0.8922  2.9208
   74MOL0     H10159   6.219   9.436   7.596  0.5158  2.2222 -5.4208
   74MOL0     H10160   6.170   9.542   7.728 -3.7658 -0.6410  1.8387
   74MOL0     H10161   5.884   9.604   7.704 -0.8962  1.1992 -1.0363
   74MOL0     H10162   5.642   9.458   7.842  1.1173 -0.7910  1.1657
   74MOL0     H10163   5.616   9.310   7.753 -0.3262 -0.5718  1.9498
   74MOL0     H10164   5.622   9.439   7.530  0.7210  1.8249 -0.6699
   74MOL0     H10165   5.475   9.422   7.619  0.6402 -1.2761 -2.4561
   74MOL0     H10166   5.670   9.650   7.650  0.1158 -0.2484  0.8018
   74MOL0     H10167   5.530   9.661   7.541  0.4206  1.1927  0.6355
   74MOL0     H10168   5.365   9.628   7.690 -0.2233 -1.2769  2.3887
   74MOL0     H10169   5.474   9.611   7.830  2.2771  0.4455  0.2346
   74MOL0     H10170   5.235   9.729   7.848  5.9134 -2.5414 -3.7890
   74MOL0     H10171   4.921   9.902   7.871 -0.1699 -1.6586 -0.3716
   74MOL0     H10172   5.021   9.830   8.003  3.3290 -0.8794 -0.3497
   74MOL0     H10173   5.018   9.760   7.841 -0.4100  1.1836 -2.8118
   74MOL0     H10174   4.717  10.163   7.984 -0.3976 -0.3118 -0.1611
   74MOL0     H10175   4.575  10.364   8.020  0.0780 -0.2600 -0.6960
   74MOL0     H10176   4.790  10.749   8.092 -0.6882 -1.0778 -1.7230
   74MOL0     H10177   4.619  10.785   8.118 -3.0927 -3.3018 -1.5383
   74MOL0     H10178   4.619  10.675   8.329  0.3276 -0.5647  0.6827
   74MOL0     H10179   4.778  10.584   8.304 -1.9203 -1.5151  0.0593
   74MOL0     H10180   4.874  10.819   8.308 -0.1210  1.7188 -0.7003
   74MOL0     H10181   4.800  10.754   8.458 -0.8974  1.4976  0.0953
   74MOL0     H10182   4.628  10.928   8.425  0.9942  1.5740  0.7940
   74MOL0     H10183   4.689  10.960   8.261  4.2494  3.1236 -0.3417
   74MOL0     H10184   4.898  11.026   8.356 -0.3178 -1.1934 -0.3155
   74MOL0     H10185   4.764  11.139   8.414  0.8620  0.9375 -0.6714
   74MOL0     H10186   4.898  10.922   8.598  1.7402  1.0225  0.5861
   74MOL0     H10187   4.742  11.010   8.623 -2.0371  0.2854 -3.9829
   74MOL0     H10188   4.822  11.214   8.627 -1.8598 -0.9894  4.0677
   74MOL0     H10189   4.994  11.167   8.583  0.8728 -2.2095 -0.0167
   74MOL0     H10190   4.979  11.191   8.825  0.2776  0.3898 -1.4927
   74MOL0     H10191   5.009  11.024   8.775  1.4615  0.2353  0.6849
   74MOL0     H10192   4.952  10.590   8.073 -1.3960  1.3733 -3.0950
   74MOL0     H10193   5.083  10.375   8.065  1.2355 -0.2541 -8.2426
   74MOL0     H10194   5.315  10.206   7.788  1.5975 -0.4861 -1.1880
   74MOL0     H10195   5.477  10.054   7.706  1.0391 -1.3772  0.7840
   74MOL0     H10196   6.424   9.545   6.804  1.3174 -0.4756  1.3239
   74MOL0     H10197   6.421   9.567   6.555 -1.8132  1.6113  0.5118
   74MOL0     H10198   6.510   9.611   6.238 -5.1724 -1.9594 -2.3876
   74MOL0     H10199   6.502   9.536   6.024  0.8302 -0.2163  2.5716
   74MOL0     H10200   6.542   9.835   5.700 -0.0198 -0.1110 -0.7373
   74MOL0     H10201   6.703   9.762   5.699  0.4730 -2.0912 -1.2029
   74MOL0     H10202   6.549   9.745   5.489 -2.1893 -0.6643 -0.5788
   74MOL0     H10203   6.490   9.605   5.576  1.9403 -3.3640 -3.3913
   74MOL0     H10204   6.789   9.655   5.528 -0.3274  0.8063  1.2475
   74MOL0     H10205   6.725   9.505   5.601 -0.4999 -2.1280 -1.8952
   74MOL0     H10206   6.693   9.612   5.329 -2.2135  2.7464  3.4414
   74MOL0     H10207   6.602   9.467   5.386 -1.1015 -0.1511  2.9589
   74MOL0     H10208   6.989   9.315   5.393  0.0161  0.8434  3.5449
   74MOL0     H10209   6.577   9.911   5.859 -1.2417 -2.6454 -0.9915
   74MOL0     H10210   6.613  10.115   5.993  0.6208 -2.5224 -1.2262
   74MOL0     H10211   6.552  10.120   6.162  1.4802  0.0409 -0.0109
   74MOL0     H10212   6.710  10.054   6.129 -1.5215 -3.9714  1.8417
   75MOL0     O10213  10.597   4.390   7.817 -0.1446  1.1218  0.6318
   75MOL0     C10214  10.656   4.316   7.731  0.1255 -0.4105  0.1199
   75MOL0     O10215  10.681   4.183   7.749 -0.4383  0.2243  0.3027
   75MOL0     C10216  10.629   4.121   7.865  0.2211  0.3319  0.4948
   75MOL0     C10217  10.488   4.095   7.874 -0.3399 -0.0126 -0.9562
   75MOL0     C10218  10.444   4.030   7.996 -0.3451  1.3825  0.2172
   75MOL0     C10219  10.529   3.998   8.095  0.1085 -0.1497  0.5315
   75MOL0     O10220  10.490   3.949   8.223  1.2810  0.0619  0.4646
   75MOL0     C10221  10.352   3.965   8.258 -0.6547  0.2228 -0.6276
   75MOL0     C10222  10.326   3.898   8.392 -0.4696 -0.8400 -0.6025
   75MOL0     C10223  10.175   3.910   8.420 -0.1220 -0.0679  0.4330
   75MOL0     C10224  10.128   3.771   8.462 -0.1833  0.9577  0.5716
   75MOL0     C10225   9.984   3.775   8.521  0.0698 -0.2106 -0.2769
   75MOL0     C10226   9.955   3.633   8.585  0.6377  0.7454  0.7249
   75MOL0     C10227   9.961   3.523   8.481  0.0636 -0.2067  0.1012
   75MOL0     C10228   9.887   3.398   8.525 -0.6707  0.6233  1.5069
   75MOL0     N10229   9.949   3.334   8.645 -0.8362 -0.6690 -0.1149
   75MOL0     C10230  10.051   3.233   8.647 -0.9082  0.2453  0.0704
   75MOL0     C10231  10.070   3.206   8.779 -0.4036  0.0122 -0.6755
   75MOL0     C10232  10.163   3.107   8.843  0.2973 -0.2773 -0.3853
   75MOL0     C10233  10.299   3.160   8.899  0.7241 -0.2358  0.1888
   75MOL0     C10234  10.277   3.271   9.011 -0.7484  0.5963  1.2469
   75MOL0     C10235  10.403   3.303   9.091 -0.8770 -0.2670 -0.7181
   75MOL0     O10236  10.497   3.334   8.992  1.0844 -0.3753  0.5685
   75MOL0     C10237  10.627   3.347   9.024 -1.3619 -0.6263 -0.1769
   75MOL0     C10238  10.713   3.391   8.915  0.5750 -0.2514 -0.8625
   75MOL0     C10239  10.852   3.408   8.940  0.5328  0.3154 -0.0716
   75MOL0     C10240  10.941   3.451   8.829  0.8385  0.3329 -0.3577
   75MOL0     C10241  10.911   3.368   9.072 -0.0626  0.2964 -0.8318
   75MOL0     C10242  11.060   3.371   9.109  0.6914  0.0767 -0.4553
   75MOL0     O10243  11.097   3.315   9.222 -0.0768  0.2187  0.0997
   75MOL0     C10244  11.230   3.334   9.248 -0.3951  0.2075 -0.5082
   75MOL0     C10245  11.322   3.242   9.196 -0.7333  0.3761 -0.0147
   75MOL0     C10246  11.462   3.254   9.234  0.0865 -0.4099  0.2278
   75MOL0     C10247  11.509   3.366   9.318  0.9106  0.3594  0.2148
   75MOL0     O10248  11.636   3.373   9.367 -0.1347 -0.2671 -0.4347
   75MOL0     C10249  11.748   3.321   9.299 -0.6942  0.5872 -0.7629
   75MOL0     C10250  11.881   3.400   9.334  0.9518 -0.2185  0.1709
   75MOL0     C10251  11.996   3.362   9.241 -0.0644  0.3666 -0.0075
   75MOL0     C10252  12.129   3.399   9.307 -0.5849  0.1143 -0.0008
   75MOL0     C10253  12.253   3.341   9.222 -0.1111 -0.7834  0.8741
   75MOL0     C10254  12.390   3.368   9.281 -0.5645  0.2502  0.3214
   75MOL0     C10255  12.503   3.268   9.240  0.0410 -0.6017  0.1549
   75MOL0     C10256  12.635   3.337   9.274 -1.1240 -0.2319 -1.1182
   75MOL0    Cl10257  12.648   3.372   9.452  0.4507  0.0689  0.0682
   75MOL0     C10258  11.410   3.455   9.372 -0.2074  0.2899  0.9865
   75MOL0     C10259  11.269   3.436   9.338 -0.7499 -0.3256 -0.6328
   75MOL0     O10260  11.128   3.430   9.030 -0.0204  0.0523  0.3658
   75MOL0     C10261  10.826   3.322   9.177 -0.0129  0.2663 -0.0035
   75MOL0     C10262  10.682   3.331   9.158  0.0976 -0.1382 -0.3335
   75MOL0     N10263   9.974   3.269   8.854  1.1314  0.5870  0.9266
   75MOL0     N10264   9.892   3.335   8.770 -0.8199  0.1365 -0.2475
   75MOL0     C10265  10.665   4.029   8.081  0.3591  0.0243  0.1717
   75MOL0     C10266  10.709   4.090   7.968 -0.7772 -0.6183 -0.8828
   75MOL0     C10267  10.667   4.364   7.588 -0.7163  0.6415 -0.0835
   75MOL0     C10268  10.702   4.257   7.495  0.4423 -0.1225  0.5615
   75MOL0     C10269  10.702   4.290   7.360 -1.3380  0.3730  0.1053
   75MOL0     C10270  10.668   4.415   7.311  1.2455 -0.3284 -0.1191
   75MOL0     O10271  10.653   4.427   7.176  0.8956 -0.0823  0.5232
   75MOL0     C10272  10.525   4.379   7.127  0.5253 -0.0915  0.9280
   75MOL0     C10273  10.400   4.459   7.147  0.1802 -0.1444 -0.1144
   75MOL0     C10274  10.397   4.599   7.084 -0.4002 -0.0979  0.9380
   75MOL0     C10275  10.261   4.666   7.061  0.3749 -0.4245  0.4330
   75MOL0     C10276  10.193   4.587   6.955 -0.3241 -0.1926 -0.1746
   75MOL0     C10277  10.140   4.535   6.856  0.9326  0.1312 -0.1076
   75MOL0     C10278  10.626   4.512   7.406  1.5023 -0.0882  0.9393
   75MOL0     C10279  10.639   4.494   7.541 -0.2979  0.3978  0.1774
   75MOL0     C10280  10.607   4.617   7.622 -0.7100  0.0699 -0.8441
   75MOL0     H10281  10.425   4.128   7.793 -1.2544 -0.7226 -0.5589
   75MOL0     H10282  10.337   4.012   8.002 -0.3758  0.0435 -2.5114
   75MOL0     H10283  10.290   3.912   8.185 -1.2097  1.3058 -0.9576
   75MOL0     H10284  10.312   4.066   8.266 -0.3313  0.3934 -1.1442
   75MOL0     H10285  10.365   3.796   8.385 -0.1701 -0.7408 -0.3690
   75MOL0     H10286  10.372   3.956   8.472  0.0433  1.1409 -2.2401
   75MOL0     H10287  10.161   3.986   8.497 -1.6961  0.9238 -0.7813
   75MOL0     H10288  10.114   3.928   8.331  1.0960 -1.9967 -0.8930
   75MOL0     H10289  10.128   3.693   8.386 -0.3672 -2.1295  3.4868
   75MOL0     H10290  10.204   3.742   8.536  3.3294  3.8361 -1.5349
   75MOL0     H10291   9.910   3.812   8.450 -0.3835 -1.4556 -0.4711
   75MOL0     H10292   9.986   3.838   8.611 -3.5367  1.2635 -1.0688
   75MOL0     H10293  10.018   3.601   8.668  2.1312 -2.5662 -1.4711
   75MOL0     H10294   9.850   3.629   8.615  0.9643  2.4129  2.3040
   75MOL0     H10295  10.065   3.493   8.464  0.5261  0.8813  0.8530
   75MOL0     H10296   9.929   3.552   8.381  0.2341  0.3553  0.2048
   75MOL0     H10297   9.779   3.413   8.533 -0.8204  0.5818 -0.1545
   75MOL0     H10298   9.886   3.331   8.438 -0.6974  0.3310  1.7287
   75MOL0     H10299  10.101   3.193   8.559 -0.0691  3.4920 -1.0819
   75MOL0     H10300  10.197   3.039   8.764  0.7738  0.4022 -0.7710
   75MOL0     H10301  10.102   3.057   8.919 -2.0595 -1.2621 -2.7713
   75MOL0     H10302  10.351   3.077   8.947  1.3766  1.0008  1.6920
   75MOL0     H10303  10.354   3.193   8.810 -0.6094 -1.3406 -1.1048
   75MOL0     H10304  10.254   3.370   8.971 -0.1787  0.6259  0.9907
   75MOL0     H10305  10.192   3.251   9.078 -1.0190 -2.5868  0.1341
   75MOL0     H10306  10.392   3.383   9.165 -1.3825  0.1579 -1.2407
   75MOL0     H10307  10.440   3.224   9.157  1.8846 -0.6064 -2.5434
   75MOL0     H10308  10.688   3.422   8.814  0.9973  2.1732 -0.2853
   75MOL0     H10309  11.025   3.381   8.822  0.2083 -0.3113 -2.4560
   75MOL0     H10310  10.968   3.552   8.859 -1.8020  0.5893  1.4669
   75MOL0     H10311  10.883   3.450   8.736 -1.8287 -0.6746  1.2075
   75MOL0     H10312  11.276   3.178   9.122 -1.2863  1.3039 -0.4900
   75MOL0     H10313  11.536   3.181   9.204 -2.0007 -3.3862  1.7574
   75MOL0     H10314  11.764   3.216   9.325 -1.9980  0.5954  0.1406
   75MOL0     H10315  11.738   3.314   9.190 -2.9181 -0.4394 -0.5410
   75MOL0     H10316  11.859   3.507   9.326  1.0842 -0.3527 -4.5618
   75MOL0     H10317  11.909   3.371   9.436 -2.8190  0.7118  1.6189
   75MOL0     H10318  11.964   3.401   9.144 -1.0583 -1.1572 -0.3334
   75MOL0     H10319  11.995   3.253   9.230  2.0324  0.4510 -1.7115
   75MOL0     H10320  12.135   3.373   9.413  0.1164  0.3997  0.0357
   75MOL0     H10321  12.149   3.506   9.301 -1.0508  0.2011 -0.0308
   75MOL0     H10322  12.228   3.237   9.199 -2.2778 -0.6310  2.2548
   75MOL0     H10323  12.241   3.400   9.130 -1.8391 -1.0771  0.8764
   75MOL0     H10324  12.377   3.360   9.390 -1.5620 -1.3692  0.1132
   75MOL0     H10325  12.433   3.462   9.245  4.0601 -2.1083 -1.0806
   75MOL0     H10326  12.508   3.247   9.133  1.0779  1.6852 -0.3048
   75MOL0     H10327  12.497   3.171   9.290 -2.0079 -0.3513  0.4801
   75MOL0     H10328  12.639   3.429   9.214  1.9631 -0.4473 -1.3860
   75MOL0     H10329  12.719   3.270   9.251 -0.4182 -0.3520  1.5025
   75MOL0     H10330  11.439   3.531   9.444  0.2253  1.6579 -0.5955
   75MOL0     H10331  11.199   3.508   9.381 -0.1170 -0.3260  0.4344
   75MOL0     H10332  10.858   3.290   9.276  1.4498 -0.2963 -0.6372
   75MOL0     H10333  10.625   3.308   9.248  0.2137 -0.0575 -0.2386
   75MOL0     H10334  10.742   4.012   8.156  1.8231  2.4695 -0.7000
   75MOL0     H10335  10.811   4.128   7.979  0.7943 -4.8381  1.4379
   75MOL0     H10336  10.731   4.157   7.524  3.2925  1.1846  2.6653
   75MOL0     H10337  10.726   4.216   7.284  0.1002 -1.4354  2.1665
   75MOL0     H10338  10.544   4.370   7.020  2.0755  0.8366  1.0824
   75MOL0     H10339  10.511   4.281   7.174  5.1405 -0.8933  1.1782
   75MOL0     H10340  10.383   4.479   7.253  1.2908  3.8260 -0.5311
   75MOL0     H10341  10.323   4.397   7.101 -0.3974  0.7937 -0.4445
   75MOL0     H10342  10.442   4.665   7.158 -0.3290 -1.2397  1.9412
   75MOL0     H10343  10.454   4.585   6.991 -1.4760 -1.5674  0.4640
   75MOL0     H10344  10.278   4.768   7.025  3.2128 -1.8250 -2.7718
   75MOL0     H10345  10.190   4.655   7.143  0.8453 -5.0601  0.4652
   75MOL0     H10346  10.087   4.480   6.780 -0.0947 -1.0222  1.3984
   75MOL0     H10347  10.590   4.606   7.365  0.0540 -1.4011 -0.9794
   75MOL0     H10348  10.656   4.604   7.719 -0.8358 -0.5307 -0.8574
   75MOL0     H10349  10.637   4.713   7.581  0.0581  0.8421  1.3777
   75MOL0     H10350  10.498   4.612   7.626 -0.7034 -0.1680 -0.8812
   76MOL0     O10351   2.029   3.177   3.806 -0.3366  1.0282  0.0248
   76MOL0     C10352   1.989   3.090   3.892 -0.2547  0.0411 -0.9913
   76MOL0     O10353   2.062   3.043   4.004  0.1459 -0.4350 -0.4730
   76MOL0     C10354   2.192   3.090   4.023  0.1144  0.1622  0.0471
   76MOL0     C10355   2.296   3.065   3.929 -0.0965 -1.5687  0.2724
   76MOL0     C10356   2.426   3.112   3.950  0.5378 -1.3917  0.1609
   76MOL0     C10357   2.458   3.172   4.073 -0.5131 -0.1276 -0.0850
   76MOL0     O10358   2.579   3.225   4.077 -0.2993 -0.1500 -0.4927
   76MOL0     C10359   2.649   3.267   4.187  0.3910 -0.8642 -0.2654
   76MOL0     C10360   2.685   3.153   4.284  1.0759  0.6892 -0.5870
   76MOL0     C10361   2.807   3.071   4.250  0.1657  0.6392 -0.3547
   76MOL0     C10362   2.835   2.959   4.352 -0.7698  0.6199  0.8959
   76MOL0     C10363   2.729   2.848   4.345 -0.1120  0.2046  0.8091
   76MOL0     C10364   2.753   2.747   4.448 -0.0986  0.5496 -0.1167
   76MOL0     C10365   2.682   2.767   4.582 -0.7556  0.1210 -1.1082
   76MOL0     C10366   2.537   2.763   4.581  0.7430 -0.2681  0.1271
   76MOL0     N10367   2.474   2.747   4.718  0.4404  0.6145  0.6039
   76MOL0     C10368   2.490   2.852   4.810 -0.0967  0.9185  0.3766
   76MOL0     C10369   2.386   2.824   4.892  0.8278  0.3791  0.7372
   76MOL0     C10370   2.327   2.904   4.999 -0.4294 -0.4003 -0.6211
   76MOL0     C10371   2.400   2.886   5.138 -0.5636 -0.2861  0.8416
   76MOL0     C10372   2.304   2.911   5.251 -0.1072 -0.2092 -0.2524
   76MOL0     C10373   2.375   2.881   5.381  0.0604 -0.1092 -0.7861
   76MOL0     O10374   2.473   2.985   5.404 -0.2849  0.6358  0.0976
   76MOL0     C10375   2.453   3.086   5.496 -0.6474 -0.8773 -0.2393
   76MOL0     C10376   2.564   3.129   5.574  0.3633  0.3363 -0.0482
   76MOL0     C10377   2.562   3.238   5.664 -0.1581  0.8481 -0.4317
   76MOL0     C10378   2.693   3.280   5.707  0.6018 -1.0277 -0.4701
   76MOL0     C10379   2.434   3.294   5.698  0.3974  0.5236  0.2693
   76MOL0     C10380   2.415   3.406   5.781 -0.2061  0.0315 -0.9179
   76MOL0     O10381   2.302   3.417   5.843 -0.0615 -0.4855  0.2840
   76MOL0     C10382   2.307   3.500   5.957  0.3241  0.2684 -0.4246
   76MOL0     C10383   2.352   3.446   6.077 -0.1804 -0.1800 -0.1134
   76MOL0     C10384   2.377   3.518   6.190  0.0585  0.4520 -0.6466
   76MOL0     C10385   2.342   3.648   6.194 -0.0955  1.1003  0.5260
   76MOL0     O10386   2.340   3.721   6.312  0.1982 -0.4539  0.1557
   76MOL0     C10387   2.456   3.720   6.403  1.4842  0.3682  0.6409
   76MOL0     C10388   2.406   3.670   6.526 -1.0682 -1.0275 -0.0502
   76MOL0     C10389   2.306   3.763   6.592 -0.1932 -0.2284  0.7211
   76MOL0     C10390   2.274   3.713   6.728 -0.0018  0.4167 -0.3972
   76MOL0     C10391   2.206   3.836   6.803  0.4761 -0.3080 -0.5162
   76MOL0     C10392   2.170   3.813   6.952 -0.6313  0.7413  0.4013
   76MOL0     C10393   2.089   3.683   6.970 -0.2920  0.2790  0.9961
   76MOL0     C10394   2.029   3.681   7.112  0.3176 -0.1075  0.1503
   76MOL0    Cl10395   2.137   3.623   7.239  0.6731 -0.6707 -0.0878
   76MOL0     C10396   2.297   3.712   6.078 -0.3110 -0.2922  0.0515
   76MOL0     C10397   2.283   3.643   5.952 -0.1399  1.1143  0.5240
   76MOL0     O10398   2.507   3.487   5.765 -0.0649  0.2217 -0.4283
   76MOL0     C10399   2.321   3.240   5.630 -0.0139  1.3851 -0.2319
   76MOL0     C10400   2.330   3.145   5.528 -0.3960  0.5422  0.9125
   76MOL0     N10401   2.319   2.712   4.858 -0.9666 -0.6008  0.6529
   76MOL0     N10402   2.380   2.655   4.755 -0.0231  0.4010  0.3888
   76MOL0     C10403   2.365   3.171   4.183  0.0545 -0.3391  0.1411
   76MOL0     C10404   2.235   3.136   4.151  0.3519  0.7962 -0.7254
   76MOL0     C10405   1.846   3.042   3.860  0.2020  0.2015 -0.1697
   76MOL0     C10406   1.763   3.110   3.777 -0.0001 -0.3020  0.9166
   76MOL0     C10407   1.645   3.055   3.723 -0.6275 -0.0938  0.0489
   76MOL0     C10408   1.591   2.948   3.781 -1.0819  1.9805 -0.3939
   76MOL0     O10409   1.470   2.892   3.763  0.4116  0.5490  0.1661
   76MOL0     C10410   1.395   2.918   3.649 -0.0182  0.6746  0.6886
   76MOL0     C10411   1.252   2.894   3.683 -0.4800  0.1431  0.3710
   76MOL0     C10412   1.190   2.964   3.812 -0.0982  1.1360  0.3164
   76MOL0     C10413   1.208   3.116   3.811  0.1486  0.4576  0.4436
   76MOL0     C10414   1.154   3.197   3.922  0.0618  1.1217 -0.7032
   76MOL0     C10415   1.140   3.275   4.017  0.8951  0.8460 -0.3468
   76MOL0     C10416   1.667   2.882   3.879  1.0468  0.1679 -1.1605
   76MOL0     C10417   1.797   2.924   3.913  0.5337 -0.2647  0.1408
   76MOL0     C10418   1.861   2.845   4.022  0.8102 -1.1366 -0.1886
   76MOL0     H10419   2.275   3.010   3.837 -1.9541 -0.0158 -0.3079
   76MOL0     H10420   2.498   3.127   3.870  1.2718 -1.3600  0.8125
   76MOL0     H10421   2.595   3.347   4.239  0.8924  0.8679 -2.2579
   76MOL0     H10422   2.741   3.320   4.157 -0.0264 -0.4301 -0.7936
   76MOL0     H10423   2.693   3.186   4.388 -0.3515 -0.1166 -0.1898
   76MOL0     H10424   2.590   3.099   4.291  0.5237  1.6558 -0.5800
   76MOL0     H10425   2.805   3.032   4.148  0.9535  2.8823 -1.2869
   76MOL0     H10426   2.889   3.142   4.234  2.3878 -1.8572 -0.7210
   76MOL0     H10427   2.933   2.918   4.327 -1.2523  0.2971 -0.5694
   76MOL0     H10428   2.847   3.000   4.452  1.5729 -1.0103  1.3698
   76MOL0     H10429   2.734   2.787   4.254 -0.4211 -1.3422  1.7832
   76MOL0     H10430   2.627   2.886   4.348 -0.7848 -1.3476 -0.5953
   76MOL0     H10431   2.719   2.659   4.393 -0.7027  1.7977 -1.8078
   76MOL0     H10432   2.860   2.744   4.471  0.6623  0.7343 -3.2440
   76MOL0     H10433   2.711   2.855   4.640 -1.8251 -0.0622 -0.2477
   76MOL0     H10434   2.702   2.674   4.635  1.2564  0.6274 -0.9259
   76MOL0     H10435   2.499   2.861   4.550  0.3535 -0.8424 -1.3112
   76MOL0     H10436   2.504   2.689   4.508  3.5757  1.2703 -3.0032
   76MOL0     H10437   2.558   2.937   4.809  1.0938  0.0069 -0.8022
   76MOL0     H10438   2.223   2.877   5.018 -1.0740  2.3523  0.1273
   76MOL0     H10439   2.343   3.004   4.959  2.6901  1.1113  3.6378
   76MOL0     H10440   2.445   2.786   5.150 -0.8302 -0.7297 -1.4053
   76MOL0     H10441   2.493   2.943   5.128  2.3583 -4.2271  2.7260
   76MOL0     H10442   2.266   3.013   5.237 -1.7228 -1.0133 -2.2704
   76MOL0     H10443   2.218   2.843   5.253 -1.0837  1.0130  0.4494
   76MOL0     H10444   2.301   2.862   5.459 -1.8005 -0.9338 -2.6545
   76MOL0     H10445   2.428   2.787   5.364  0.7911  0.4272 -1.5462
   76MOL0     H10446   2.652   3.066   5.560 -0.6524 -2.1111  3.2999
   76MOL0     H10447   2.776   3.220   5.667  2.9203  0.0300  2.4135
   76MOL0     H10448   2.695   3.259   5.814 -0.3729  0.2271 -0.1794
   76MOL0     H10449   2.713   3.386   5.691  2.3583 -1.1943  0.3882
   76MOL0     H10450   2.380   3.341   6.067  0.2665 -0.3400  2.2059
   76MOL0     H10451   2.397   3.471   6.286  1.1557  1.1049 -0.5371
   76MOL0     H10452   2.544   3.661   6.376  1.0797 -0.2905  0.7262
   76MOL0     H10453   2.480   3.824   6.425  1.0519  0.5770  0.1439
   76MOL0     H10454   2.360   3.572   6.512 -0.0365 -1.4390 -0.6755
   76MOL0     H10455   2.490   3.664   6.596  0.2786 -0.0280 -1.4950
   76MOL0     H10456   2.218   3.772   6.528  0.1736  0.6008  0.3239
   76MOL0     H10457   2.353   3.859   6.611 -0.3598  0.0574 -0.2747
   76MOL0     H10458   2.359   3.666   6.777 -0.6600 -0.1652  0.2091
   76MOL0     H10459   2.198   3.636   6.714 -4.2151  4.2086 -1.0012
   76MOL0     H10460   2.264   3.928   6.809 -3.4686  2.6137 -2.4343
   76MOL0     H10461   2.117   3.875   6.751 -0.5297 -1.8409 -0.0091
   76MOL0     H10462   2.094   3.890   6.970 -0.8632  0.9717 -1.4287
   76MOL0     H10463   2.249   3.811   7.028 -1.3951 -1.7977  1.2621
   76MOL0     H10464   2.164   3.603   6.962 -0.5197  0.2294 -1.0489
   76MOL0     H10465   2.009   3.674   6.896  1.0808  0.3685 -0.5477
   76MOL0     H10466   1.953   3.603   7.106 -0.8314  0.9060  1.0819
   76MOL0     H10467   1.981   3.767   7.160  2.4561  0.9742  0.4910
   76MOL0     H10468   2.274   3.818   6.073 -2.1386 -0.7061 -1.8866
   76MOL0     H10469   2.259   3.700   5.863 -1.4265  2.5033  1.6965
   76MOL0     H10470   2.227   3.282   5.664  1.0554  2.5954  1.4111
   76MOL0     H10471   2.239   3.116   5.475  0.3318 -0.6871  0.2987
   76MOL0     H10472   2.397   3.221   4.274 -1.8761  1.6834 -0.2024
   76MOL0     H10473   2.169   3.133   4.237  0.0752  1.1654 -0.9221
   76MOL0     H10474   1.795   3.211   3.753  1.0257  0.2332  4.0837
   76MOL0     H10475   1.586   3.126   3.666  0.3211  1.2443  0.6738
   76MOL0     H10476   1.415   3.020   3.617  3.3214  0.9731  3.1860
   76MOL0     H10477   1.416   2.851   3.565 -1.0596  0.4402  0.5912
   76MOL0     H10478   1.244   2.785   3.688  0.5158  0.0278 -0.3667
   76MOL0     H10479   1.187   2.922   3.600 -1.2935 -2.5902 -0.0461
   76MOL0     H10480   1.085   2.932   3.811  0.8595 -2.8602 -3.4026
   76MOL0     H10481   1.253   2.927   3.894  2.9405 -1.7213 -2.9514
   76MOL0     H10482   1.148   3.157   3.729 -0.2835 -2.3894 -0.8065
   76MOL0     H10483   1.316   3.133   3.807  0.3651 -0.8489 -3.5289
   76MOL0     H10484   1.108   3.335   4.101 -0.6876  1.1685 -1.1430
   76MOL0     H10485   1.635   2.788   3.924  1.3418  1.5524  2.2587
   76MOL0     H10486   1.862   2.900   4.117 -0.0392 -0.0097 -0.8118
   76MOL0     H10487   1.827   2.744   4.042  0.8444 -1.2923 -0.9028
   76MOL0     H10488   1.964   2.833   3.987  0.7609 -1.5313 -0.1995
   77MOL0     O10489   1.398   6.406   4.217  0.4447 -0.5732  0.2998
   77MOL0     C10490   1.465   6.354   4.133 -1.2098  0.0482 -0.9759
   77MOL0     O10491   1.465   6.220   4.102  0.2857 -0.7355  0.2062
   77MOL0     C10492   1.420   6.129   4.188 -0.6338  0.2528 -0.0927
   77MOL0     C10493   1.383   5.994   4.149  0.3733  0.8555 -0.0996
   77MOL0     C10494   1.324   5.895   4.231 -1.1687 -0.4509  0.3773
   77MOL0     C10495   1.296   5.938   4.362  0.1113  0.6843 -0.3974
   77MOL0     O10496   1.242   5.838   4.436  0.0069 -0.5812  0.2436
   77MOL0     C10497   1.208   5.868   4.575  0.3052  0.4577  0.2314
   77MOL0     C10498   1.060   5.920   4.569  0.2652 -1.0697 -0.4732
   77MOL0     C10499   1.012   5.935   4.713  0.0988  0.2722 -0.1740
   77MOL0     C10500   0.871   6.004   4.723 -1.0850 -0.6355  0.8869
   77MOL0     C10501   0.832   6.017   4.871 -0.7698  0.0492  0.0349
   77MOL0     C10502   0.915   6.131   4.935  0.8091  0.7003  0.1209
   77MOL0     C10503   0.851   6.202   5.047  0.4401 -0.0152 -0.8801
   77MOL0     C10504   0.880   6.129   5.182 -0.2123 -0.1656  0.3478
   77MOL0     N10505   0.914   6.220   5.288  0.3768 -0.6554 -0.0554
   77MOL0     C10506   1.007   6.319   5.270 -0.0446  0.0206 -0.1937
   77MOL0     C10507   0.982   6.408   5.369 -0.4798 -0.8814  0.7090
   77MOL0     C10508   1.049   6.553   5.366 -0.3827  0.4508  1.5868
   77MOL0     C10509   1.112   6.608   5.494  0.1712 -0.0824 -0.0697
   77MOL0     C10510   0.992   6.645   5.585  0.3498  0.7460  0.9575
   77MOL0     C10511   1.040   6.642   5.737 -0.3853 -0.9913 -0.6725
   77MOL0     O10512   1.151   6.730   5.754  0.9187  0.0440 -0.5338
   77MOL0     C10513   1.198   6.746   5.883 -0.6983 -0.2830 -0.4454
   77MOL0     C10514   1.243   6.874   5.920 -0.2567  1.2578  0.3025
   77MOL0     C10515   1.285   6.898   6.047  0.5384 -0.2598 -1.1860
   77MOL0     C10516   1.314   7.038   6.085  0.1087 -0.3089  0.1063
   77MOL0     C10517   1.270   6.794   6.141 -0.1357 -0.2214  0.0338
   77MOL0     C10518   1.337   6.812   6.282  0.3369 -0.7986 -0.4766
   77MOL0     O10519   1.302   6.715   6.378  0.3110  0.3126  0.2704
   77MOL0     C10520   1.371   6.710   6.494 -0.1421  0.1551 -0.4180
   77MOL0     C10521   1.426   6.585   6.533  0.8293  0.0369  0.2642
   77MOL0     C10522   1.490   6.581   6.662  0.0665 -0.7826  0.8245
   77MOL0     C10523   1.503   6.686   6.749 -0.6203 -0.0638 -0.1659
   77MOL0     O10524   1.567   6.655   6.864 -0.4019 -0.0862 -0.1352
   77MOL0     C10525   1.640   6.773   6.918 -0.1465 -0.1350 -0.7577
   77MOL0     C10526   1.726   6.738   7.050  0.5551 -0.4328 -0.1832
   77MOL0     C10527   1.632   6.719   7.164  0.4238  0.4459 -0.3056
   77MOL0     C10528   1.723   6.693   7.284  0.2199  0.2879 -0.0951
   77MOL0     C10529   1.618   6.703   7.398 -0.1064 -0.2933 -0.1317
   77MOL0     C10530   1.693   6.682   7.530  0.0378  0.6122 -0.2448
   77MOL0     C10531   1.594   6.665   7.639  0.1491 -0.0365 -0.9651
   77MOL0     C10532   1.506   6.784   7.675 -0.1388 -0.5152 -0.5667
   77MOL0    Cl10533   1.589   6.883   7.796  0.2547 -0.2844 -0.0755
   77MOL0     C10534   1.449   6.817   6.715  0.2159  0.3358 -0.5533
   77MOL0     C10535   1.384   6.828   6.584 -0.1931  0.2647  0.3948
   77MOL0     O10536   1.423   6.898   6.295  0.3912  1.4600  1.1371
   77MOL0     C10537   1.227   6.670   6.102  1.3670  0.6004 -0.2563
   77MOL0     C10538   1.197   6.643   5.973  0.2152  0.1175  0.9725
   77MOL0     N10539   0.865   6.373   5.430  0.2793  0.9358  0.9516
   77MOL0     N10540   0.825   6.252   5.384  0.4366 -0.1318 -0.0714
   77MOL0     C10541   1.344   6.062   4.409  0.3243 -0.6897 -0.0660
   77MOL0     C10542   1.405   6.154   4.327  0.4127  0.3194 -0.4607
   77MOL0     C10543   1.553   6.440   4.046  0.1850 -0.1573  0.5025
   77MOL0     C10544   1.603   6.546   4.117  0.1405 -0.6171 -0.0802
   77MOL0     C10545   1.686   6.633   4.052 -0.8544 -0.5367 -0.5785
   77MOL0     C10546   1.716   6.616   3.918  0.3913  0.4766  1.2039
   77MOL0     O10547   1.801   6.697   3.843 -0.7805 -0.2712  0.0598
   77MOL0     C10548   1.739   6.787   3.755 -0.1258 -0.2165 -0.6588
   77MOL0     C10549   1.773   6.925   3.820  0.2721  0.2397 -0.3928
   77MOL0     C10550   1.926   6.956   3.818  0.7012 -0.0470 -0.8968
   77MOL0     C10551   2.000   6.963   3.680  1.0240  0.2700 -0.4376
   77MOL0     C10552   1.935   7.061   3.588  0.2610 -1.0174 -0.9433
   77MOL0     C10553   1.899   7.130   3.503 -0.0527  0.1674  0.4428
   77MOL0     C10554   1.660   6.517   3.842 -0.2103 -0.6727  0.7605
   77MOL0     C10555   1.570   6.433   3.898 -0.2416 -0.3106 -0.5271
   77MOL0     C10556   1.505   6.318   3.818 -0.8290  0.0116  0.3399
   77MOL0     H10557   1.376   5.958   4.046  0.3718  3.5062 -1.1001
   77MOL0     H10558   1.309   5.794   4.196  1.8010 -1.1659  0.9007
   77MOL0     H10559   1.267   5.940   4.632 -0.5424  0.9418  0.5126
   77MOL0     H10560   1.205   5.769   4.621 -3.0648 -1.5062 -3.5650
   77MOL0     H10561   1.045   6.014   4.516 -0.5814  0.9523  3.0363
   77MOL0     H10562   1.002   5.837   4.526  1.4730 -2.6325  0.7484
   77MOL0     H10563   1.011   5.833   4.755  2.7493 -0.1342 -0.9165
   77MOL0     H10564   1.078   6.005   4.765 -3.1934  2.4733  1.3498
   77MOL0     H10565   0.874   6.106   4.685 -1.6759 -1.0869 -0.4285
   77MOL0     H10566   0.797   5.947   4.665  0.7699 -2.6407  0.3406
   77MOL0     H10567   0.828   5.921   4.923 -3.5185  0.3381  0.4909
   77MOL0     H10568   0.726   6.045   4.874 -1.0631 -0.9822 -0.3649
   77MOL0     H10569   1.012   6.092   4.964  0.2713 -1.7040 -1.0397
   77MOL0     H10570   0.945   6.205   4.860  2.5034 -0.3976 -0.3231
   77MOL0     H10571   0.744   6.200   5.025  0.4422 -2.8489 -1.0456
   77MOL0     H10572   0.886   6.305   5.050 -0.0220  0.1270  1.5986
   77MOL0     H10573   0.794   6.071   5.217 -0.0280  0.4025  1.8295
   77MOL0     H10574   0.972   6.072   5.171  1.1073  1.7197  1.1600
   77MOL0     H10575   1.076   6.325   5.186  0.8298  1.7120  0.5863
   77MOL0     H10576   0.989   6.634   5.323  1.7371  1.0447 -0.4532
   77MOL0     H10577   1.125   6.535   5.290 -2.5940 -2.8204 -0.0629
   77MOL0     H10578   1.172   6.524   5.532  0.6204 -0.9023 -2.4408
   77MOL0     H10579   1.175   6.695   5.475  0.5969 -0.3682  0.0056
   77MOL0     H10580   0.957   6.746   5.563 -1.8723  0.4655  2.8755
   77MOL0     H10581   0.914   6.571   5.568  1.4413 -0.1577 -0.3391
   77MOL0     H10582   0.956   6.675   5.799 -0.6303  1.1377 -2.0451
   77MOL0     H10583   1.062   6.536   5.757  0.0423 -0.1086  5.4652
   77MOL0     H10584   1.248   6.952   5.845 -1.3830  2.9068  1.8676
   77MOL0     H10585   1.422   7.057   6.093  0.5087 -0.0665 -3.9363
   77MOL0     H10586   1.267   7.068   6.179 -0.2479  0.4849 -0.3151
   77MOL0     H10587   1.278   7.105   6.007 -0.5108 -0.8226 -0.0636
   77MOL0     H10588   1.407   6.498   6.472  0.5763 -0.3132  0.8393
   77MOL0     H10589   1.525   6.482   6.690 -0.2180 -2.1381 -2.9877
   77MOL0     H10590   1.706   6.819   6.845 -1.9655  4.6710  0.2501
   77MOL0     H10591   1.580   6.861   6.943 -0.9627 -0.2768 -2.1164
   77MOL0     H10592   1.799   6.658   7.034  0.9510 -0.2034  0.3939
   77MOL0     H10593   1.785   6.831   7.053  0.7557 -0.4859 -1.8142
   77MOL0     H10594   1.552   6.646   7.148 -0.7058  1.6556 -0.2969
   77MOL0     H10595   1.561   6.801   7.176  1.1113  0.9370  0.4979
   77MOL0     H10596   1.800   6.769   7.302  0.0218  0.3618  0.4513
   77MOL0     H10597   1.768   6.595   7.266  4.2338  1.9388 -0.0297
   77MOL0     H10598   1.566   6.799   7.401  2.0018  1.0062 -2.0472
   77MOL0     H10599   1.553   6.616   7.382  0.7879 -0.6567 -2.0867
   77MOL0     H10600   1.758   6.765   7.558  1.8043 -0.6810 -0.3624
   77MOL0     H10601   1.752   6.591   7.514  1.5533  0.8799  3.0481
   77MOL0     H10602   1.651   6.629   7.725 -0.7233 -1.7275 -1.0455
   77MOL0     H10603   1.530   6.577   7.628  0.6999 -0.8792  1.7931
   77MOL0     H10604   1.419   6.743   7.727  0.0740  0.1032  0.3192
   77MOL0     H10605   1.454   6.842   7.598 -0.6653 -0.2629 -0.0279
   77MOL0     H10606   1.454   6.902   6.782 -0.7425  1.5016 -1.9003
   77MOL0     H10607   1.345   6.927   6.563 -2.2669 -0.9224 -1.9346
   77MOL0     H10608   1.214   6.594   6.179  1.1230 -0.5965 -1.4386
   77MOL0     H10609   1.155   6.551   5.935 -1.7756  1.5772 -0.5824
   77MOL0     H10610   1.334   6.101   4.510  0.8111  1.9938 -0.9748
   77MOL0     H10611   1.426   6.242   4.386 -2.9313 -0.9264  2.9614
   77MOL0     H10612   1.591   6.562   4.223  2.5417  0.4687  0.0981
   77MOL0     H10613   1.741   6.714   4.097 -0.6057 -0.2535 -1.3701
   77MOL0     H10614   1.788   6.789   3.658  1.1996 -1.1119 -0.0392
   77MOL0     H10615   1.630   6.773   3.753 -0.0186 -1.2168 -0.3171
   77MOL0     H10616   1.746   6.931   3.926  0.7095  2.7441 -0.3507
   77MOL0     H10617   1.722   7.006   3.767 -0.4218  0.3722  0.4583
   77MOL0     H10618   1.939   7.034   3.894 -0.2560 -2.3482  1.7986
   77MOL0     H10619   1.972   6.872   3.871 -0.7435  1.6139  3.4462
   77MOL0     H10620   2.000   6.862   3.636  1.4999 -0.7168  1.6661
   77MOL0     H10621   2.108   6.969   3.696  1.3544 -0.7471 -2.0884
   77MOL0     H10622   1.857   7.198   3.432 -0.2561  0.7819  1.1396
   77MOL0     H10623   1.697   6.507   3.740 -0.7255  3.9412 -0.0833
   77MOL0     H10624   1.478   6.364   3.722 -0.8425  1.4186  0.9979
   77MOL0     H10625   1.568   6.229   3.810 -1.9889 -0.9513  1.4452
   77MOL0     H10626   1.415   6.295   3.875 -1.3729 -1.9144 -1.1547
   78MOL0     O10627   5.216   8.728   6.552 -0.3629 -0.4737 -1.0581
   78MOL0     C10628   5.256   8.752   6.438 -0.0535 -0.2719  0.8141
   78MOL0     O10629   5.389   8.761   6.398 -0.3491 -0.6237  0.6237
   78MOL0     C10630   5.482   8.779   6.495 -0.8807 -1.4027  0.2376
   78MOL0     C10631   5.539   8.899   6.512  0.1984  0.1349 -0.2161
   78MOL0     C10632   5.626   8.929   6.614  0.2948 -0.6605 -0.7254
   78MOL0     C10633   5.678   8.831   6.688  0.2554  0.1157 -0.3952
   78MOL0     O10634   5.785   8.864   6.774 -0.0415  0.1312 -0.8076
   78MOL0     C10635   5.765   8.808   6.907 -0.9186  0.0143 -0.8257
   78MOL0     C10636   5.859   8.880   7.012  0.6276 -0.5861 -0.7412
   78MOL0     C10637   5.808   9.027   7.052 -0.5857 -0.4750  0.0017
   78MOL0     C10638   5.827   9.134   6.935  0.3780  0.9581 -0.0114
   78MOL0     C10639   5.786   9.270   6.977  0.1932  0.6034  0.4770
   78MOL0     C10640   5.782   9.366   6.862 -0.1528  0.2419  0.3629
   78MOL0     C10641   5.716   9.486   6.930  0.3304 -0.8189  0.5077
   78MOL0     C10642   5.683   9.597   6.826  0.5947 -0.4164 -0.0117
   78MOL0     N10643   5.633   9.711   6.899  0.2302  0.0808  0.4445
   78MOL0     C10644   5.668   9.843   6.891  0.0288 -0.3158  0.6620
   78MOL0     C10645   5.576   9.911   6.956  0.5636  0.9485 -0.6317
   78MOL0     C10646   5.577  10.066   6.980  0.2172 -0.1881  0.3836
   78MOL0     C10647   5.434  10.121   6.973  0.8429  1.2222  0.7068
   78MOL0     C10648   5.421  10.272   7.010 -0.6531  0.0481  0.4074
   78MOL0     C10649   5.280  10.319   6.988  0.0556  1.0195  0.1306
   78MOL0     O10650   5.258  10.340   6.845  0.7238  0.8820  0.0346
   78MOL0     C10651   5.145  10.400   6.793 -0.2680 -0.0530 -0.6410
   78MOL0     C10652   5.065  10.470   6.881 -0.4949  0.4038 -0.5158
   78MOL0     C10653   4.943  10.530   6.835 -1.0210 -0.3284  0.2199
   78MOL0     C10654   4.862  10.603   6.947 -0.4593 -0.5983  0.1001
   78MOL0     C10655   4.900  10.517   6.705  0.3181  1.1172 -0.5222
   78MOL0     C10656   4.777  10.576   6.655 -0.3347 -0.1732 -0.1954
   78MOL0     O10657   4.714  10.503   6.559 -0.6173 -0.5604  0.8676
   78MOL0     C10658   4.610  10.541   6.481 -0.1361 -0.1530  0.4518
   78MOL0     C10659   4.563  10.438   6.399 -0.1765 -0.4488 -0.6325
   78MOL0     C10660   4.471  10.464   6.292  0.4691 -0.1406 -0.2404
   78MOL0     C10661   4.393  10.589   6.295  0.6228 -0.0076 -0.3600
   78MOL0     O10662   4.311  10.617   6.183 -0.0248 -0.9922 -0.2963
   78MOL0     C10663   4.191  10.694   6.215 -0.2524 -0.4762  0.1686
   78MOL0     C10664   4.086  10.682   6.106 -0.6572 -0.1406  0.4154
   78MOL0     C10665   3.962  10.782   6.122 -1.6403  0.5016 -0.0297
   78MOL0     C10666   3.845  10.741   6.224 -0.2615  0.6995  0.9037
   78MOL0     C10667   3.720  10.834   6.214  0.2320  0.1780 -0.0386
   78MOL0     C10668   3.581  10.760   6.234  0.2944  0.6620  0.5326
   78MOL0     C10669   3.553  10.682   6.364  0.4926  0.0308 -0.6756
   78MOL0     C10670   3.407  10.647   6.368 -0.0152  0.0807 -1.2655
   78MOL0    Cl10671   3.307  10.788   6.414 -0.0933 -0.5400 -0.0651
   78MOL0     C10672   4.431  10.684   6.398  0.7287 -0.9014 -0.3453
   78MOL0     C10673   4.535  10.664   6.493 -0.0713  1.0815  0.1454
   78MOL0     O10674   4.742  10.691   6.697  0.1729 -0.2661  0.3066
   78MOL0     C10675   4.983  10.448   6.613 -0.8491  0.2605  0.2913
   78MOL0     C10676   5.109  10.396   6.662  0.5808  0.2739 -0.1397
   78MOL0     N10677   5.488   9.816   7.012  0.2507 -1.0371  0.2906
   78MOL0     N10678   5.520   9.694   6.972  0.0926 -0.0273 -0.4847
   78MOL0     C10679   5.630   8.698   6.659  0.4053  0.5460  0.3104
   78MOL0     C10680   5.528   8.679   6.567  0.2435  0.4454  0.1731
   78MOL0     C10681   5.154   8.750   6.330  0.0299  0.0379 -1.0420
   78MOL0     C10682   5.186   8.802   6.198 -0.3451 -0.6245 -0.3066
   78MOL0     C10683   5.098   8.810   6.102  0.4037  0.0240  0.4990
   78MOL0     C10684   4.967   8.756   6.108  0.1552  1.1448  0.3655
   78MOL0     O10685   4.862   8.775   6.014 -0.7210 -0.6082 -0.0943
   78MOL0     C10686   4.895   8.839   5.884  0.2617  0.1869  0.4335
   78MOL0     C10687   4.792   8.806   5.775 -0.6193  0.3498  0.1707
   78MOL0     C10688   4.844   8.816   5.631 -0.3303 -0.3656  0.6708
   78MOL0     C10689   4.868   8.964   5.596  0.1496  1.1871 -0.3298
   78MOL0     C10690   4.742   9.021   5.541  0.7332  1.3904 -0.2488
   78MOL0     C10691   4.652   9.061   5.469  0.0690  0.3910  0.1746
   78MOL0     C10692   4.931   8.702   6.236 -0.1362  0.0227 -0.2400
   78MOL0     C10693   5.026   8.693   6.346 -0.2296  1.1213  0.1609
   78MOL0     C10694   4.964   8.622   6.474 -0.7022 -0.0290 -0.7379
   78MOL0     H10695   5.505   8.970   6.436 -2.5339 -1.3843 -0.5737
   78MOL0     H10696   5.658   9.029   6.638  1.1234 -1.3794  1.3463
   78MOL0     H10697   5.790   8.702   6.904 -1.2954 -0.0724 -0.8907
   78MOL0     H10698   5.661   8.820   6.937 -0.2609  2.9550  0.7109
   78MOL0     H10699   5.876   8.816   7.099  1.5040 -0.0796 -0.5236
   78MOL0     H10700   5.965   8.892   6.988  1.6453  0.5230  3.4834
   78MOL0     H10701   5.711   9.011   7.100  0.2653  0.2204  2.0550
   78MOL0     H10702   5.870   9.070   7.131 -2.0463 -3.1263  2.7701
   78MOL0     H10703   5.930   9.142   6.902 -0.8114  2.2624 -3.9223
   78MOL0     H10704   5.767   9.107   6.847  1.5882  0.7589 -0.7890
   78MOL0     H10705   5.830   9.317   7.066 -1.4346  0.8974  1.1792
   78MOL0     H10706   5.687   9.237   7.011  2.4574 -4.6400  3.1418
   78MOL0     H10707   5.876   9.384   6.809 -1.2716  0.1121 -1.8193
   78MOL0     H10708   5.711   9.318   6.794 -1.7638  0.2308  2.0025
   78MOL0     H10709   5.794   9.531   6.991  1.7786 -4.2194  1.3839
   78MOL0     H10710   5.621   9.468   6.983 -0.4706 -1.3999 -1.0689
   78MOL0     H10711   5.776   9.617   6.773  0.3305  4.9565  1.0067
   78MOL0     H10712   5.616   9.570   6.744  1.2391  1.5698 -1.2534
   78MOL0     H10713   5.755   9.896   6.854  0.9179 -2.1949 -0.0560
   78MOL0     H10714   5.633  10.103   6.894 -0.7288 -2.0999 -1.1499
   78MOL0     H10715   5.626  10.092   7.074  0.6849 -2.8022  0.9361
   78MOL0     H10716   5.383  10.091   6.881  1.7750 -0.4536  0.7029
   78MOL0     H10717   5.391  10.064   7.056 -0.6469  0.7033 -0.3861
   78MOL0     H10718   5.447  10.288   7.115 -1.9580 -1.4656  1.0069
   78MOL0     H10719   5.488  10.330   6.946 -1.6201  3.3455  2.1538
   78MOL0     H10720   5.205  10.254   7.033 -1.2095  0.8020 -2.1486
   78MOL0     H10721   5.290  10.412   7.045 -4.0563  2.0083 -0.4433
   78MOL0     H10722   5.105  10.490   6.980  2.0691  0.1882 -1.4422
   78MOL0     H10723   4.889  10.709   6.951  1.1023 -0.8672 -1.8149
   78MOL0     H10724   4.882  10.565   7.047 -0.8898 -2.7489 -0.5891
   78MOL0     H10725   4.757  10.588   6.921  0.1193 -2.7167 -1.3069
   78MOL0     H10726   4.611  10.340   6.406 -2.5621 -1.7225 -0.8686
   78MOL0     H10727   4.458  10.382   6.222 -1.2879  0.7739 -1.0255
   78MOL0     H10728   4.149  10.653   6.307  0.0468  0.0682  0.5577
   78MOL0     H10729   4.221  10.800   6.219 -0.8536 -0.2853 -0.2493
   78MOL0     H10730   4.139  10.703   6.013 -0.4918  0.8409  0.7151
   78MOL0     H10731   4.053  10.578   6.104 -0.3051 -0.3266  2.3026
   78MOL0     H10732   3.910  10.801   6.028  1.9275  1.2970 -2.0506
   78MOL0     H10733   3.999  10.882   6.148 -0.6075 -0.1935  1.2878
   78MOL0     H10734   3.886  10.750   6.325 -1.1462 -2.4892  1.6564
   78MOL0     H10735   3.828  10.637   6.197  1.2820  1.3814 -3.5051
   78MOL0     H10736   3.734  10.904   6.296 -0.4155 -0.3620  0.5433
   78MOL0     H10737   3.727  10.890   6.120 -0.7462 -2.2374 -1.6459
   78MOL0     H10738   3.578  10.687   6.153  0.8305  1.4449 -0.2166
   78MOL0     H10739   3.521  10.851   6.233  1.0425  1.1615 -0.1144
   78MOL0     H10740   3.577  10.740   6.454  2.3942 -0.2329 -0.9721
   78MOL0     H10741   3.627  10.602   6.365  1.1539  0.5602  2.0159
   78MOL0     H10742   3.397  10.557   6.430  0.4820 -0.1113 -1.4584
   78MOL0     H10743   3.379  10.615   6.267  0.5792 -2.4181 -0.7115
   78MOL0     H10744   4.389  10.784   6.400  1.0885 -0.6660 -2.1269
   78MOL0     H10745   4.567  10.743   6.561 -3.7435  1.5910  1.5417
   78MOL0     H10746   4.954  10.417   6.513 -0.2105 -1.6490  0.6496
   78MOL0     H10747   5.160  10.329   6.593 -0.9372 -1.6798  0.5328
   78MOL0     H10748   5.674   8.609   6.703 -2.3206 -0.9029  0.3341
   78MOL0     H10749   5.505   8.576   6.542 -1.2107  1.1706 -1.7361
   78MOL0     H10750   5.287   8.838   6.179 -0.6740  0.2994 -0.3635
   78MOL0     H10751   5.130   8.855   6.008  0.1983 -2.2560 -0.7149
   78MOL0     H10752   4.905   8.946   5.900 -3.2268  1.1982 -2.7092
   78MOL0     H10753   4.993   8.805   5.849 -0.1619  0.0874 -0.7020
   78MOL0     H10754   4.702   8.864   5.801 -0.0820  0.6829  1.3460
   78MOL0     H10755   4.743   8.712   5.802 -3.5848  1.9074  0.6457
   78MOL0     H10756   4.936   8.758   5.619  1.1490  2.0195 -0.2435
   78MOL0     H10757   4.764   8.782   5.566 -0.5317  0.7265  0.3271
   78MOL0     H10758   4.944   8.973   5.518  2.5468  1.8014  1.9441
   78MOL0     H10759   4.897   9.021   5.685 -1.1375  2.0433 -0.4199
   78MOL0     H10760   4.571   9.089   5.405  0.9718  0.6277 -0.8947
   78MOL0     H10761   4.830   8.664   6.250 -0.0419 -1.3844 -2.7916
   78MOL0     H10762   4.942   8.693   6.554 -3.5619  1.5465 -2.7578
   78MOL0     H10763   4.882   8.550   6.459 -3.1759  2.2212  1.0952
   78MOL0     H10764   5.046   8.556   6.504  2.8246  3.0617 -2.7010
   79MOL0     O10765   5.010   7.497   6.810  0.1440 -0.6218  0.5526
   79MOL0     C10766   5.058   7.506   6.694  0.5769 -0.7064 -0.2798
   79MOL0     O10767   5.000   7.576   6.587 -0.3409  0.1218  0.5539
   79MOL0     C10768   4.866   7.609   6.594 -1.3255 -0.1095  0.4950
   79MOL0     C10769   4.781   7.550   6.507 -0.7738  0.1553  0.1651
   79MOL0     C10770   4.647   7.566   6.499 -0.1940  0.3667  0.4108
   79MOL0     C10771   4.590   7.656   6.583 -0.0967 -0.8678 -0.4598
   79MOL0     O10772   4.460   7.695   6.567  0.1424  0.0795  0.0120
   79MOL0     C10773   4.412   7.794   6.662  0.9952  0.5600  0.3079
   79MOL0     C10774   4.268   7.839   6.616  0.0984  0.6903  0.3671
   79MOL0     C10775   4.171   7.719   6.605  0.1213  0.7423  0.4318
   79MOL0     C10776   4.015   7.742   6.602  0.6190  0.7034  0.1223
   79MOL0     C10777   3.957   7.797   6.732  0.2580 -0.3416 -0.9130
   79MOL0     C10778   3.807   7.792   6.734  0.1325 -0.2759  0.2620
   79MOL0     C10779   3.751   7.647   6.724 -0.8152  0.5158 -0.1869
   79MOL0     C10780   3.601   7.643   6.772  0.2888 -0.6412  0.0405
   79MOL0     N10781   3.538   7.520   6.820  0.4173  0.5050  0.5388
   79MOL0     C10782   3.560   7.454   6.944 -0.1759  0.2149  0.0102
   79MOL0     C10783   3.484   7.337   6.931 -0.9536  0.8603 -0.1351
   79MOL0     C10784   3.462   7.222   7.026  0.7008 -0.5787 -0.3243
   79MOL0     C10785   3.331   7.232   7.104  0.6254 -0.5438 -0.7458
   79MOL0     C10786   3.218   7.229   7.007 -0.1641 -0.4304 -0.7314
   79MOL0     C10787   3.078   7.184   7.061 -0.5253  1.1637 -0.5543
   79MOL0     O10788   3.065   7.046   7.073 -0.3495 -0.9266  0.0664
   79MOL0     C10789   2.943   6.989   7.063 -0.2395  1.2286 -0.6971
   79MOL0     C10790   2.838   6.991   7.160 -0.1491  0.8702  0.1701
   79MOL0     C10791   2.721   6.916   7.139  0.4985 -0.1630  0.5008
   79MOL0     C10792   2.613   6.929   7.238  0.0667  0.1693  0.8306
   79MOL0     C10793   2.700   6.854   7.010  0.2941 -0.3895 -0.4747
   79MOL0     C10794   2.595   6.770   6.980  0.0807  0.5000 -0.1828
   79MOL0     O10795   2.518   6.716   7.078 -0.1583 -0.7155 -0.9179
   79MOL0     C10796   2.394   6.666   7.051  0.8259 -0.2320 -0.0938
   79MOL0     C10797   2.288   6.733   6.989  0.4415 -0.0378  0.9871
   79MOL0     C10798   2.161   6.675   6.970  0.9224 -0.4367 -0.5176
   79MOL0     C10799   2.138   6.547   7.007  1.2437  0.7270 -0.7483
   79MOL0     O10800   2.015   6.491   6.992 -0.1453 -0.6260 -0.6500
   79MOL0     C10801   2.000   6.343   6.978  0.6997  0.2574  0.9874
   79MOL0     C10802   1.852   6.305   6.970 -0.2239  0.6350 -0.5180
   79MOL0     C10803   1.791   6.322   7.104 -0.5939  0.4181 -0.1662
   79MOL0     C10804   1.647   6.269   7.122  1.1160 -0.0729  0.4126
   79MOL0     C10805   1.603   6.284   7.273 -0.1175 -0.0836  0.3571
   79MOL0     C10806   1.478   6.218   7.305  0.3658  0.7518  0.2207
   79MOL0     C10807   1.445   6.235   7.455  0.1110  0.6754 -0.7991
   79MOL0     C10808   1.315   6.295   7.476 -0.0834 -0.2632  0.3403
   79MOL0    Cl10809   1.179   6.200   7.467 -0.1296  0.3567  0.0814
   79MOL0     C10810   2.242   6.478   7.072  0.1025 -0.5074  0.9953
   79MOL0     C10811   2.369   6.532   7.092  0.1118  0.4629  0.4193
   79MOL0     O10812   2.575   6.755   6.860 -0.4271 -0.0532 -0.4168
   79MOL0     C10813   2.795   6.871   6.914 -0.6266  0.1663 -0.0952
   79MOL0     C10814   2.916   6.928   6.939 -0.6180 -0.3601 -0.0211
   79MOL0     N10815   3.412   7.346   6.812 -0.5725 -0.2431  0.2890
   79MOL0     N10816   3.439   7.450   6.754  0.8019 -0.5364  0.0502
   79MOL0     C10817   4.669   7.715   6.693 -0.1692  0.0203  0.4296
   79MOL0     C10818   4.811   7.691   6.700  0.1383  0.6673  0.3626
   79MOL0     C10819   5.191   7.449   6.654 -0.4173  0.4724  0.1525
   79MOL0     C10820   5.272   7.531   6.570  0.0201 -0.6357 -0.4871
   79MOL0     C10821   5.391   7.491   6.511  1.0043  0.3366 -0.1001
   79MOL0     C10822   5.438   7.366   6.525  0.4688  0.7500 -0.2265
   79MOL0     O10823   5.562   7.334   6.480 -0.3457  0.4825  0.1819
   79MOL0     C10824   5.581   7.199   6.441 -0.6067  0.0956 -0.0092
   79MOL0     C10825   5.612   7.199   6.288  0.0432 -0.1258 -0.0633
   79MOL0     C10826   5.480   7.234   6.218 -0.4554 -0.3800 -0.2951
   79MOL0     C10827   5.484   7.362   6.138 -0.0517 -0.9915 -0.5796
   79MOL0     C10828   5.358   7.386   6.061 -0.4772 -0.3887 -0.1199
   79MOL0     C10829   5.267   7.416   5.990 -0.2633 -0.1243 -0.0360
   79MOL0     C10830   5.364   7.283   6.609 -0.1001 -0.5450 -0.6977
   79MOL0     C10831   5.249   7.322   6.680  0.5940 -0.2259  1.4083
   79MOL0     C10832   5.181   7.226   6.768  0.5050  0.8223  0.2528
   79MOL0     H10833   4.826   7.487   6.431  0.7704  1.4398 -0.0123
   79MOL0     H10834   4.592   7.523   6.417 -0.4809 -0.5882  1.0914
   79MOL0     H10835   4.467   7.889   6.659  1.9054  0.0187 -0.7925
   79MOL0     H10836   4.405   7.752   6.763 -1.6847 -0.0510 -0.0550
   79MOL0     H10837   4.236   7.898   6.702 -2.3248 -0.8467  0.5977
   79MOL0     H10838   4.267   7.899   6.524  0.4668  2.6194  1.5668
   79MOL0     H10839   4.202   7.666   6.514 -0.0839 -0.0596  0.8165
   79MOL0     H10840   4.188   7.640   6.679 -0.4592 -1.5957 -1.7738
   79MOL0     H10841   3.985   7.786   6.507 -1.5934 -2.7397 -0.9818
   79MOL0     H10842   3.971   7.642   6.596 -0.8706  1.2338  1.4581
   79MOL0     H10843   3.980   7.903   6.748 -0.0572 -0.1444 -1.7155
   79MOL0     H10844   3.993   7.748   6.823 -2.8602  2.7979  2.3596
   79MOL0     H10845   3.776   7.839   6.827  1.6672  4.6408 -1.3865
   79MOL0     H10846   3.758   7.853   6.658 -0.8898  0.2053  1.2869
   79MOL0     H10847   3.814   7.583   6.788  0.7241  1.5637 -0.5914
   79MOL0     H10848   3.756   7.619   6.619 -0.2632  1.6441 -0.4773
   79MOL0     H10849   3.602   7.711   6.858 -0.1039 -2.6824  1.7155
   79MOL0     H10850   3.535   7.700   6.705  0.0869  0.0587  0.8128
   79MOL0     H10851   3.628   7.496   7.018  0.3005  3.0278 -1.8993
   79MOL0     H10852   3.543   7.226   7.100 -0.3622  5.1641  1.0295
   79MOL0     H10853   3.460   7.129   6.968 -2.5834  0.7925 -2.7294
   79MOL0     H10854   3.324   7.148   7.173 -3.1997 -1.8094 -2.4202
   79MOL0     H10855   3.325   7.318   7.171 -1.7928 -1.7160  0.6924
   79MOL0     H10856   3.195   7.333   6.984 -2.2434 -0.3001  1.5822
   79MOL0     H10857   3.240   7.162   6.923  3.4308 -0.6814  0.2522
   79MOL0     H10858   3.055   7.239   7.153  0.0524  0.3133  0.1147
   79MOL0     H10859   3.008   7.210   6.982 -1.1726 -0.4352 -0.5475
   79MOL0     H10860   2.862   7.048   7.249  0.8361 -0.0912  0.5446
   79MOL0     H10861   2.616   6.838   7.299  0.6407 -1.6212 -1.6637
   79MOL0     H10862   2.516   6.930   7.187 -0.3534 -0.5721  1.5828
   79MOL0     H10863   2.646   7.019   7.290  2.9789 -0.0839 -0.3576
   79MOL0     H10864   2.317   6.832   6.954  0.9375 -1.0496 -1.7429
   79MOL0     H10865   2.089   6.742   6.923  1.3935  1.3784  1.1764
   79MOL0     H10866   2.031   6.313   6.877  2.3416  0.3073  1.4539
   79MOL0     H10867   2.064   6.284   7.044 -0.6279 -0.0793  2.0111
   79MOL0     H10868   1.806   6.370   6.894 -1.2747 -1.1213 -1.4329
   79MOL0     H10869   1.833   6.208   6.923 -2.5223  2.1909 -3.1150
   79MOL0     H10870   1.799   6.425   7.139 -5.9842  0.6518  1.3672
   79MOL0     H10871   1.848   6.252   7.165 -0.6890  1.0342  0.6536
   79MOL0     H10872   1.650   6.161   7.111  2.4005  0.0786 -0.9949
   79MOL0     H10873   1.578   6.322   7.055 -2.4663 -1.4378  2.7181
   79MOL0     H10874   1.677   6.238   7.339  3.1477  3.9440 -0.1365
   79MOL0     H10875   1.608   6.388   7.306 -2.2820 -0.7786  3.3091
   79MOL0     H10876   1.484   6.111   7.288 -2.0539  0.2693  1.8209
   79MOL0     H10877   1.394   6.251   7.243 -0.9247 -2.1619  0.2541
   79MOL0     H10878   1.523   6.298   7.501 -0.1430  1.0491 -0.8771
   79MOL0     H10879   1.456   6.136   7.501  0.9078  1.9822  2.0630
   79MOL0     H10880   1.309   6.386   7.415 -1.3744  0.0518  0.9019
   79MOL0     H10881   1.317   6.340   7.575 -1.7644  2.0412 -0.5561
   79MOL0     H10882   2.224   6.381   7.119 -0.9734 -0.1110  1.4296
   79MOL0     H10883   2.436   6.480   7.160 -1.0539 -2.0120 -0.2231
   79MOL0     H10884   2.793   6.828   6.814  0.5592  1.4341 -0.6942
   79MOL0     H10885   2.983   6.956   6.858 -0.8469  0.2391 -0.0038
   79MOL0     H10886   4.627   7.777   6.771 -2.3130 -2.6492  1.5905
   79MOL0     H10887   4.873   7.709   6.787  2.2349 -0.4219 -0.8162
   79MOL0     H10888   5.248   7.634   6.549  1.9725  0.2183  1.1404
   79MOL0     H10889   5.453   7.569   6.469  0.7542  0.6315  0.0716
   79MOL0     H10890   5.659   7.166   6.510 -3.3025 -1.4266  2.5337
   79MOL0     H10891   5.500   7.129   6.463 -2.1923  1.6595 -0.6087
   79MOL0     H10892   5.649   7.099   6.263  0.9931  0.4395 -1.0328
   79MOL0     H10893   5.690   7.272   6.261  1.1835 -1.0832  0.5382
   79MOL0     H10894   5.469   7.148   6.151  0.7720  0.1151 -1.1580
   79MOL0     H10895   5.391   7.223   6.281  0.0140 -2.2446  0.1035
   79MOL0     H10896   5.574   7.361   6.076  1.7644 -2.2335  1.9090
   79MOL0     H10897   5.500   7.451   6.199  1.7139 -2.4275  1.1944
   79MOL0     H10898   5.186   7.428   5.921 -0.0503  0.6467 -0.1560
   79MOL0     H10899   5.408   7.186   6.633  1.9209  0.3622 -0.5543
   79MOL0     H10900   5.220   7.240   6.869  0.9444 -2.7946  0.7407
   79MOL0     H10901   5.073   7.244   6.768  0.8598  3.2721  0.3983
   79MOL0     H10902   5.197   7.123   6.733  2.6062  1.4818 -0.8244
   80MOL0     O10903  10.888   8.553   7.206  0.0228 -0.5110  1.0338
   80MOL0     C10904  10.978   8.467   7.208  0.3468 -0.4633 -1.3024
   80MOL0     O10905  10.976   8.353   7.286  0.2555 -0.0973 -0.4455
   80MOL0     C10906  10.880   8.342   7.382 -0.7586  0.2393  0.7418
   80MOL0     C10907  10.904   8.341   7.520  0.5118  0.5561 -0.1429
   80MOL0     C10908  10.804   8.314   7.606  0.1342  0.7613 -0.0048
   80MOL0     C10909  10.678   8.272   7.573 -0.3920  0.6600  0.0890
   80MOL0     O10910  10.573   8.238   7.664 -1.1399 -0.3838  0.3136
   80MOL0     C10911  10.597   8.234   7.806  0.1061 -0.0205 -0.3277
   80MOL0     C10912  10.510   8.123   7.879 -0.4806  0.8955  0.1625
   80MOL0     C10913  10.540   7.985   7.812  0.2258  0.3275  0.0200
   80MOL0     C10914  10.676   7.920   7.848  0.0937  0.0716  0.2273
   80MOL0     C10915  10.685   7.767   7.796 -0.5959 -0.2563 -0.8482
   80MOL0     C10916  10.802   7.687   7.856 -0.4780  0.7712 -0.1431
   80MOL0     C10917  10.811   7.544   7.815 -0.6205  0.7311  0.6873
   80MOL0     C10918  10.941   7.480   7.875  0.7856 -0.0954  0.7249
   80MOL0     N10919  10.961   7.343   7.834  0.3212  0.8059  0.3161
   80MOL0     C10920  10.948   7.235   7.923 -0.6770 -0.1321  0.3720
   80MOL0     C10921  10.981   7.125   7.853 -0.7892  0.8006 -0.2194
   80MOL0     C10922  10.984   6.984   7.916  0.5438  0.1968  0.0013
   80MOL0     C10923  10.837   6.927   7.940 -0.5327 -0.0927 -0.6727
   80MOL0     C10924  10.854   6.785   7.992 -0.0939  0.0881  0.1011
   80MOL0     C10925  10.719   6.708   7.992 -0.2946  0.5508  0.7396
   80MOL0     O10926  10.719   6.599   8.093 -0.3718 -0.5542 -0.4509
   80MOL0     C10927  10.793   6.482   8.073 -0.5548  0.3180  0.5863
   80MOL0     C10928  10.873   6.457   7.960  0.8240 -0.6552 -0.9565
   80MOL0     C10929  10.938   6.331   7.939  0.2039 -0.3848 -0.0284
   80MOL0     C10930  11.008   6.311   7.802 -0.3228  0.1120  1.0518
   80MOL0     C10931  10.912   6.219   8.034 -0.6813  1.5858  1.3082
   80MOL0     C10932  10.951   6.075   8.006  0.9609 -0.2357 -1.8187
   80MOL0     O10933  10.895   5.977   8.094  0.2360 -0.9928 -0.2254
   80MOL0     C10934  10.917   5.840   8.083  0.8052 -0.2096  0.1521
   80MOL0     C10935  10.836   5.771   8.176 -0.6386 -0.0444  0.1191
   80MOL0     C10936  10.845   5.635   8.187  0.7028 -0.5964 -0.4211
   80MOL0     C10937  10.924   5.555   8.104 -0.3703  1.1233  1.1827
   80MOL0     O10938  10.934   5.415   8.110 -0.8308 -0.7079 -0.0764
   80MOL0     C10939  10.847   5.363   8.218 -0.0718 -0.3049  0.0007
   80MOL0     C10940  10.860   5.212   8.192  0.1505  0.1220 -0.5087
   80MOL0     C10941  10.793   5.145   8.319  0.6794  0.0368 -0.2216
   80MOL0     C10942  10.724   5.010   8.269 -1.1765  0.7264  0.1485
   80MOL0     C10943  10.676   4.924   8.383  0.1007  0.3669  0.2326
   80MOL0     C10944  10.782   4.861   8.476 -0.4161 -0.7806 -0.3364
   80MOL0     C10945  10.728   4.823   8.611 -0.3345 -0.8870 -0.2338
   80MOL0     C10946  10.636   4.705   8.606  0.6767 -0.0858  1.2333
   80MOL0    Cl10947  10.587   4.689   8.774 -0.1631  0.2232 -0.1044
   80MOL0     C10948  10.998   5.620   8.003  0.7856 -0.0295  0.2031
   80MOL0     C10949  10.984   5.760   7.988 -0.3125 -0.7412 -0.5672
   80MOL0     O10950  11.027   6.056   7.917  0.7799  0.8568 -0.2258
   80MOL0     C10951  10.855   6.255   8.160 -0.4019  1.0489  0.0494
   80MOL0     C10952  10.788   6.377   8.173 -0.6520  0.3588  0.6578
   80MOL0     N10953  11.028   7.168   7.726  0.3642  0.6441  0.1660
   80MOL0     N10954  11.023   7.301   7.720  0.0573 -0.0737  0.1035
   80MOL0     C10955  10.650   8.276   7.428 -0.0523  0.7523 -0.3282
   80MOL0     C10956  10.746   8.309   7.327 -0.4173 -0.1290  0.8200
   80MOL0     C10957  11.101   8.493   7.127 -0.3941  0.5919 -0.5187
   80MOL0     C10958  11.170   8.377   7.086 -0.6000  0.6119 -0.5736
   80MOL0     C10959  11.284   8.380   6.993  0.5235 -0.0863  0.1602
   80MOL0     C10960  11.336   8.497   6.957  0.8949 -0.8927 -1.0519
   80MOL0     O10961  11.449   8.520   6.877  0.4410  0.2450  0.9530
   80MOL0     C10962  11.515   8.411   6.812  0.3028  0.3520 -1.1065
   80MOL0     C10963  11.643   8.458   6.743  0.5882 -0.1026 -0.0370
   80MOL0     C10964  11.709   8.575   6.816  1.3877  0.6098  0.4604
   80MOL0     C10965  11.846   8.610   6.767  0.4375  0.2107  0.1622
   80MOL0     C10966  11.948   8.518   6.826  0.3186 -0.3204  0.2804
   80MOL0     C10967  12.027   8.442   6.865 -0.7890 -0.4747 -0.6298
   80MOL0     C10968  11.273   8.615   7.007 -0.0255  0.2564  0.4257
   80MOL0     C10969  11.156   8.617   7.085  1.0756 -0.2972 -0.0122
   80MOL0     C10970  11.079   8.739   7.123 -0.2876  0.1771 -0.2865
   80MOL0     H10971  11.004   8.370   7.553  0.2277  1.4840 -0.0557
   80MOL0     H10972  10.848   8.324   7.705  2.9317  0.3571 -1.1157
   80MOL0     H10973  10.592   8.335   7.850 -0.7750  0.2303 -0.9680
   80MOL0     H10974  10.702   8.206   7.819  0.5448  0.5762 -2.2902
   80MOL0     H10975  10.534   8.122   7.985 -0.6931 -0.9785  0.2288
   80MOL0     H10976  10.402   8.140   7.877 -0.7279  0.1018  3.0200
   80MOL0     H10977  10.465   7.913   7.846  0.4364  0.0736 -0.0502
   80MOL0     H10978  10.547   7.971   7.704 -1.0820  1.0043 -0.1789
   80MOL0     H10979  10.756   7.978   7.801 -0.7674 -0.6783 -2.3295
   80MOL0     H10980  10.694   7.922   7.956 -0.5748  0.2620  0.3429
   80MOL0     H10981  10.691   7.772   7.687 -1.6130  6.1308 -0.9796
   80MOL0     H10982  10.588   7.722   7.822  0.2992 -1.0612  1.3336
   80MOL0     H10983  10.896   7.735   7.827  0.6807 -2.4809 -2.3562
   80MOL0     H10984  10.805   7.681   7.965  3.7826  0.5406 -0.1118
   80MOL0     H10985  10.819   7.542   7.706  2.8480  1.2480  0.8088
   80MOL0     H10986  10.726   7.485   7.850 -0.2346 -1.6819 -2.0797
   80MOL0     H10987  11.027   7.546   7.860 -1.0798  2.3629  0.1292
   80MOL0     H10988  10.924   7.486   7.983 -0.7783  2.7655  0.4317
   80MOL0     H10989  10.920   7.239   8.028 -3.2156  1.2153 -0.2846
   80MOL0     H10990  11.042   6.967   8.007  1.4754  0.2372 -0.5798
   80MOL0     H10991  11.031   6.920   7.841  0.2835  0.3503 -0.2950
   80MOL0     H10992  10.794   6.993   8.016  2.7325  1.6501 -0.1362
   80MOL0     H10993  10.780   6.927   7.846  1.5830  0.0198 -2.0257
   80MOL0     H10994  10.930   6.738   7.928 -1.0250  1.4372 -2.1459
   80MOL0     H10995  10.891   6.785   8.095  0.4709 -3.6179  0.0231
   80MOL0     H10996  10.632   6.767   8.020 -2.6746 -1.2433 -2.2314
   80MOL0     H10997  10.707   6.671   7.889  1.1537  0.2367  0.6594
   80MOL0     H10998  10.869   6.533   7.883  0.4824 -0.6427 -0.9261
   80MOL0     H10999  10.955   6.238   7.740 -0.2311 -0.9231  2.1691
   80MOL0     H11000  11.107   6.268   7.821  0.5441  0.9580 -1.1639
   80MOL0     H11001  11.019   6.405   7.746 -2.1715 -0.7067 -0.7919
   80MOL0     H11002  10.789   5.843   8.243  2.0524  3.4181 -1.3384
   80MOL0     H11003  10.787   5.589   8.267 -0.1777  1.9349  0.4806
   80MOL0     H11004  10.890   5.402   8.311  0.5023 -1.1580  0.1011
   80MOL0     H11005  10.745   5.400   8.206  0.6882  1.6624 -0.8596
   80MOL0     H11006  10.811   5.187   8.098 -1.7056  0.4778  0.3215
   80MOL0     H11007  10.966   5.185   8.187  0.0283 -0.2342 -1.3945
   80MOL0     H11008  10.719   5.213   8.362 -1.1459 -0.4116 -2.4797
   80MOL0     H11009  10.866   5.127   8.399  1.2856 -1.6462 -1.1022
   80MOL0     H11010  10.802   4.954   8.219 -2.3485 -1.1859  0.3652
   80MOL0     H11011  10.647   5.039   8.197  0.0157 -0.1738 -1.5365
   80MOL0     H11012  10.603   4.983   8.440 -0.3562  1.3056 -1.2508
   80MOL0     H11013  10.629   4.830   8.350 -3.7299  1.1601  2.7908
   80MOL0     H11014  10.860   4.936   8.494 -0.6952 -0.7498  0.8172
   80MOL0     H11015  10.839   4.776   8.437  0.8514 -0.5900  1.0078
   80MOL0     H11016  10.674   4.909   8.654 -0.9292 -1.7800  0.8661
   80MOL0     H11017  10.815   4.799   8.672 -0.0272  0.2981 -0.1878
   80MOL0     H11018  10.692   4.615   8.583 -1.0917 -0.8906 -0.1653
   80MOL0     H11019  10.546   4.720   8.546  0.9776  2.1215  1.2419
   80MOL0     H11020  11.065   5.574   7.931 -1.2847 -0.6586 -1.4143
   80MOL0     H11021  11.035   5.812   7.908 -0.7105  0.5167 -0.0349
   80MOL0     H11022  10.844   6.184   8.242 -1.0841  2.5026  1.2683
   80MOL0     H11023  10.723   6.390   8.260 -0.5882  2.7171  0.4088
   80MOL0     H11024  10.561   8.244   7.374  0.3492 -1.2094  0.0696
   80MOL0     H11025  10.728   8.321   7.221  3.1945 -0.1552  0.0815
   80MOL0     H11026  11.153   8.273   7.109  6.2319 -0.6560  1.1894
   80MOL0     H11027  11.315   8.284   6.953 -0.0975 -1.2124  2.1978
   80MOL0     H11028  11.545   8.341   6.890  0.2576  1.3001 -0.2174
   80MOL0     H11029  11.450   8.368   6.736 -2.6427  4.1751 -1.0566
   80MOL0     H11030  11.628   8.496   6.641  0.8134 -0.8475 -0.3497
   80MOL0     H11031  11.713   8.375   6.737 -0.9086 -1.3790 -0.4239
   80MOL0     H11032  11.648   8.666   6.816  1.5179  0.7356  2.1722
   80MOL0     H11033  11.725   8.544   6.920 -1.2618  0.6467  0.9683
   80MOL0     H11034  11.880   8.710   6.793  2.8194  0.1910 -2.4140
   80MOL0     H11035  11.862   8.604   6.659  1.1269 -0.6561  0.2968
   80MOL0     H11036  12.108   8.385   6.907 -2.0314 -2.2423 -0.5017
   80MOL0     H11037  11.321   8.712   6.995 -1.4580  1.0100  0.6299
   80MOL0     H11038  11.145   8.824   7.105  1.9364 -0.5820  3.2025
   80MOL0     H11039  10.989   8.739   7.062 -0.1692 -2.6265 -0.6200
   80MOL0     H11040  11.063   8.732   7.231  1.0170 -0.4408 -0.1047
   81MOL0     O11041   8.385   1.824  10.612  0.6051 -0.1746  0.0684
   81MOL0     C11042   8.271   1.868  10.652  0.3737  0.3134 -0.3237
   81MOL0     O11043   8.167   1.889  10.574  0.6352 -0.0145  0.0740
   81MOL0     C11044   8.171   1.930  10.445 -0.2293  0.4093  0.7963
   81MOL0     C11045   8.225   2.049  10.416 -0.8891  0.3231 -0.4605
   81MOL0     C11046   8.220   2.103  10.286  0.4320 -0.1148  0.6865
   81MOL0     C11047   8.149   2.037  10.184  0.6406  0.6395  0.2628
   81MOL0     O11048   8.132   2.099  10.071 -0.1164  0.6677  1.1163
   81MOL0     C11049   8.122   2.026   9.948  0.0989  0.3515  0.5136
   81MOL0     C11050   8.125   2.135   9.838 -0.0594  0.1949 -1.2470
   81MOL0     C11051   8.253   2.200   9.820  0.1896 -0.7927 -0.6579
   81MOL0     C11052   8.272   2.232   9.677 -0.5303  0.2048 -0.2770
   81MOL0     C11053   8.396   2.319   9.640 -0.0280 -0.9860 -0.4509
   81MOL0     C11054   8.423   2.323   9.486 -0.4993  0.2792 -1.0208
   81MOL0     C11055   8.552   2.410   9.461 -0.4264  0.2912  0.3494
   81MOL0     C11056   8.624   2.363   9.332  0.2963  0.2444  0.6830
   81MOL0     N11057   8.552   2.425   9.212 -0.9487 -0.3501 -0.4640
   81MOL0     C11058   8.572   2.552   9.161 -0.0684 -0.0622 -0.6638
   81MOL0     C11059   8.491   2.555   9.053  0.5004 -0.4230 -0.0308
   81MOL0     C11060   8.457   2.683   8.970  0.0664  0.4140 -0.8333
   81MOL0     C11061   8.400   2.794   9.059 -0.1294  2.1028  0.3621
   81MOL0     C11062   8.402   2.920   8.975 -0.0767 -0.6850 -0.0319
   81MOL0     C11063   8.273   2.966   8.905  0.1492  0.4270 -1.3691
   81MOL0     O11064   8.170   2.993   9.006  0.0808  0.4628  0.3643
   81MOL0     C11065   8.074   3.095   8.997 -0.8803  0.1714 -0.1389
   81MOL0     C11066   8.012   3.147   9.108  1.4294 -0.6272 -0.6824
   81MOL0     C11067   7.923   3.258   9.107  0.3096  0.3557  0.4501
   81MOL0     C11068   7.871   3.307   9.242 -0.0067  0.1765  0.7645
   81MOL0     C11069   7.889   3.309   8.973 -0.5027 -0.4203  0.2097
   81MOL0     C11070   7.783   3.411   8.947  0.0277  0.3761 -0.4363
   81MOL0     O11071   7.758   3.455   8.809 -0.0006  0.4721 -0.5800
   81MOL0     C11072   7.663   3.550   8.797 -0.2559  0.4237 -0.4063
   81MOL0     C11073   7.527   3.540   8.833 -0.3551 -0.1351 -1.1245
   81MOL0     C11074   7.434   3.645   8.795  0.2570  0.1207  0.7056
   81MOL0     C11075   7.479   3.759   8.715  0.3920  0.9788 -0.6078
   81MOL0     O11076   7.384   3.851   8.657 -0.3412 -0.3896  0.5024
   81MOL0     C11077   7.241   3.827   8.666 -0.3225 -0.0724 -0.3150
   81MOL0     C11078   7.174   3.950   8.602  1.0287 -0.0833  0.6297
   81MOL0     C11079   7.028   3.946   8.633 -0.2239  0.6318  0.2604
   81MOL0     C11080   6.956   4.073   8.583 -0.0567 -0.0123  0.4944
   81MOL0     C11081   6.825   4.084   8.663 -0.5527  0.4527 -0.1811
   81MOL0     C11082   6.782   4.237   8.685  0.2480 -0.2864  0.1836
   81MOL0     C11083   6.666   4.251   8.791 -0.1104 -0.2685 -0.7156
   81MOL0     C11084   6.541   4.297   8.724  0.4212  0.4003 -0.4679
   81MOL0    Cl11085   6.556   4.417   8.597 -0.1156  0.3965  0.0135
   81MOL0     C11086   7.617   3.760   8.681  0.2644 -0.5532 -0.1715
   81MOL0     C11087   7.701   3.654   8.713  0.8734  0.6801 -0.1767
   81MOL0     O11088   7.731   3.465   9.043 -0.2506  0.1376  0.0673
   81MOL0     C11089   7.949   3.254   8.861  0.2032  1.0510  0.5427
   81MOL0     C11090   8.046   3.152   8.874 -1.0401 -0.9553  0.3190
   81MOL0     N11091   8.433   2.431   9.037  0.2374  0.2212 -0.1245
   81MOL0     N11092   8.464   2.353   9.132 -0.1660 -0.2919 -0.2175
   81MOL0     C11093   8.109   1.912  10.212 -0.0197 -0.1918 -0.0238
   81MOL0     C11094   8.113   1.856  10.338  0.3222 -0.0600 -1.4069
   81MOL0     C11095   8.250   1.878  10.801  0.2780 -1.0771 -1.1489
   81MOL0     C11096   8.367   1.878  10.886  0.8139 -1.1716  0.6380
   81MOL0     C11097   8.359   1.879  11.026  0.4197 -0.4803  0.5511
   81MOL0     C11098   8.239   1.875  11.093  0.2417 -0.5250  0.8947
   81MOL0     O11099   8.228   1.888  11.230  0.4671  0.2727  0.3746
   81MOL0     C11100   8.192   1.768  11.301  0.9597  0.2608  0.2218
   81MOL0     C11101   8.324   1.684  11.292 -0.1276  0.1968 -0.3309
   81MOL0     C11102   8.311   1.539  11.284  0.5081  0.7389 -0.3098
   81MOL0     C11103   8.444   1.462  11.279 -0.1981  1.2777  0.3028
   81MOL0     C11104   8.552   1.490  11.374 -0.5103 -0.8244 -0.6807
   81MOL0     C11105   8.639   1.536  11.451  0.1766 -0.3087 -0.5762
   81MOL0     C11106   8.122   1.884  11.008  0.1637  0.3033 -0.6330
   81MOL0     C11107   8.121   1.873  10.867 -1.5524  0.2486 -0.0881
   81MOL0     C11108   7.993   1.867  10.787  0.3317 -0.7679  0.8201
   81MOL0     H11109   8.268   2.110  10.495  0.1548 -0.9672  0.0137
   81MOL0     H11110   8.270   2.194  10.255  1.7492 -0.6937  1.0383
   81MOL0     H11111   8.030   1.967   9.943  2.7101 -4.0147 -1.7973
   81MOL0     H11112   8.207   1.961   9.927 -1.3335 -1.4982  0.2159
   81MOL0     H11113   8.085   2.098   9.743  0.2526 -0.9796 -0.9312
   81MOL0     H11114   8.038   2.201   9.850  1.4079  1.8482  0.9883
   81MOL0     H11115   8.258   2.297   9.871 -0.5691 -0.9436 -0.2779
   81MOL0     H11116   8.341   2.146   9.857 -0.3973 -1.7844 -0.6532
   81MOL0     H11117   8.284   2.138   9.623 -3.8939 -0.4194 -0.1676
   81MOL0     H11118   8.182   2.288   9.649 -0.3462  1.0884  0.8420
   81MOL0     H11119   8.483   2.278   9.692 -0.7965  0.9785  2.6651
   81MOL0     H11120   8.381   2.418   9.684  2.3130 -0.6862 -0.2086
   81MOL0     H11121   8.447   2.227   9.440  1.5732  0.8464 -1.2211
   81MOL0     H11122   8.339   2.366   9.430  0.0270 -0.7632 -2.7043
   81MOL0     H11123   8.621   2.412   9.546 -2.3907 -1.0740  2.0805
   81MOL0     H11124   8.511   2.510   9.439  2.0579  1.5492  1.1177
   81MOL0     H11125   8.732   2.384   9.333 -0.2219  3.9153 -1.8735
   81MOL0     H11126   8.607   2.256   9.318 -0.0625 -0.2301  3.8316
   81MOL0     H11127   8.635   2.624   9.212  1.3503 -0.5517 -1.6868
   81MOL0     H11128   8.392   2.656   8.887  1.0074  1.6351 -2.0032
   81MOL0     H11129   8.555   2.708   8.927 -0.9362  1.0009 -2.8951
   81MOL0     H11130   8.301   2.771   9.097  0.8612  1.6416  2.8239
   81MOL0     H11131   8.463   2.798   9.148  0.3102 -5.5335  1.1207
   81MOL0     H11132   8.425   2.999   9.048  1.3849  1.1879 -2.3483
   81MOL0     H11133   8.485   2.929   8.904 -1.3875  1.2338 -1.3838
   81MOL0     H11134   8.313   3.050   8.847 -1.1730  1.9256 -0.1772
   81MOL0     H11135   8.235   2.882   8.845  3.2361 -2.7037  0.6705
   81MOL0     H11136   8.042   3.112   9.206 -2.8588 -1.4293  0.5515
   81MOL0     H11137   7.762   3.315   9.245 -0.0073  0.6169 -0.0992
   81MOL0     H11138   7.912   3.407   9.257  1.7592 -0.4924  0.5702
   81MOL0     H11139   7.913   3.250   9.325 -1.5870 -0.7020  1.0031
   81MOL0     H11140   7.481   3.466   8.897 -2.8127  2.3788  0.2850
   81MOL0     H11141   7.335   3.635   8.839  0.6896 -0.5544  1.5673
   81MOL0     H11142   7.212   3.731   8.623  2.5241 -1.2775  0.2391
   81MOL0     H11143   7.210   3.822   8.771 -1.5192 -1.2202 -0.6937
   81MOL0     H11144   7.223   4.041   8.638 -4.2105  3.5613 -0.3807
   81MOL0     H11145   7.189   3.953   8.493 -0.3788  1.1760  0.4377
   81MOL0     H11146   7.024   3.957   8.742  0.7369  1.8547  0.2002
   81MOL0     H11147   6.976   3.866   8.580  1.5268 -2.0496  2.2922
   81MOL0     H11148   6.943   4.063   8.475  3.3894 -0.0286 -0.0461
   81MOL0     H11149   7.031   4.150   8.602  0.2050  0.6076 -2.5037
   81MOL0     H11150   6.745   4.029   8.611  0.0217 -3.7047  2.8358
   81MOL0     H11151   6.837   4.031   8.758  1.7008 -3.9423 -2.6114
   81MOL0     H11152   6.752   4.278   8.589  0.6819  0.1288  0.2211
   81MOL0     H11153   6.872   4.290   8.718 -1.5708  0.6490  4.3795
   81MOL0     H11154   6.691   4.321   8.871  0.9438  0.6853 -1.8239
   81MOL0     H11155   6.638   4.153   8.829 -2.1971  0.7339  0.5576
   81MOL0     H11156   6.462   4.331   8.791  0.0740  2.3180 -1.7704
   81MOL0     H11157   6.513   4.202   8.678 -0.0804  0.8928 -1.1906
   81MOL0     H11158   7.634   3.852   8.626 -3.2659  0.9415  0.9616
   81MOL0     H11159   7.804   3.655   8.681  0.9790 -0.2622  0.1160
   81MOL0     H11160   7.907   3.288   8.767  1.5860  1.7245  0.1304
   81MOL0     H11161   8.099   3.126   8.784  2.5956 -0.2542  2.0827
   81MOL0     H11162   8.059   1.852  10.136 -2.5878  0.6417  0.9067
   81MOL0     H11163   8.065   1.759  10.354 -0.3848  0.4875 -0.0853
   81MOL0     H11164   8.467   1.870  10.846  1.4471 -0.8735  2.1003
   81MOL0     H11165   8.452   1.877  11.082  0.8162 -1.5133 -0.1082
   81MOL0     H11166   8.148   1.782  11.400  1.2587 -3.9095  1.1316
   81MOL0     H11167   8.121   1.709  11.242  2.2479 -2.0409  0.8667
   81MOL0     H11168   8.392   1.717  11.372 -2.0194  2.9508  0.2678
   81MOL0     H11169   8.386   1.714  11.207  1.0226 -0.0690  0.3862
   81MOL0     H11170   8.249   1.487  11.358 -0.0104  2.4257  0.4849
   81MOL0     H11171   8.256   1.523  11.191 -2.4017  0.0866  1.4131
   81MOL0     H11172   8.472   1.473  11.174 -2.1808 -1.3312 -0.6088
   81MOL0     H11173   8.430   1.353  11.284  1.4306  1.0846  1.4951
   81MOL0     H11174   8.719   1.570  11.515  0.9844 -0.1263 -1.6521
   81MOL0     H11175   8.036   1.895  11.074  3.2250  0.8764  3.7250
   81MOL0     H11176   7.910   1.843  10.854 -3.0786  3.1441 -1.4915
   81MOL0     H11177   7.966   1.962  10.740  0.6085 -0.7788  0.6367
   81MOL0     H11178   7.990   1.805  10.698 -0.1052  0.9714 -0.4296
   82MOL0     O11179   6.994   5.186   6.951  0.3725 -0.3338  0.0243
   82MOL0     C11180   7.027   5.246   7.056  0.1045 -0.6943  0.2848
   82MOL0     O11181   7.153   5.239   7.107 -1.2680  0.8427 -0.0014
   82MOL0     C11182   7.241   5.150   7.056  0.6330  0.5685  0.2330
   82MOL0     C11183   7.223   5.013   7.045 -0.0184  0.8749  0.0438
   82MOL0     C11184   7.324   4.933   6.985 -0.1402  0.2162 -0.3005
   82MOL0     C11185   7.449   4.989   6.954  0.4984 -0.8295 -0.0495
   82MOL0     O11186   7.543   4.913   6.894 -1.0664  0.2758  0.1312
   82MOL0     C11187   7.601   4.812   6.979 -0.3309 -1.0229  0.2324
   82MOL0     C11188   7.687   4.864   7.092 -0.0037 -0.9784 -0.0116
   82MOL0     C11189   7.712   4.747   7.200  0.8664  0.1225 -0.1948
   82MOL0     C11190   7.817   4.651   7.144 -0.9064  0.0918  0.1449
   82MOL0     C11191   7.864   4.541   7.238  0.0518  0.2477  0.0655
   82MOL0     C11192   7.748   4.444   7.288 -0.1149 -0.7535 -1.0708
   82MOL0     C11193   7.789   4.345   7.393  0.1766 -0.1458 -0.3198
   82MOL0     C11194   7.688   4.224   7.419  0.1443 -0.1323  0.1533
   82MOL0     N11195   7.579   4.244   7.517  0.3206  0.1258  0.3103
   82MOL0     C11196   7.459   4.318   7.495 -0.9498 -0.1657  0.5107
   82MOL0     C11197   7.391   4.307   7.609 -0.0288  0.8941 -0.7842
   82MOL0     C11198   7.248   4.360   7.640 -0.3696 -0.0367 -0.0119
   82MOL0     C11199   7.150   4.248   7.680 -0.4735 -0.1296  0.0104
   82MOL0     C11200   7.146   4.208   7.824 -0.8791 -0.0669  0.0233
   82MOL0     C11201   7.041   4.096   7.836  0.1136 -0.2330  0.1624
   82MOL0     O11202   6.914   4.161   7.835 -0.4296 -0.4719 -0.7297
   82MOL0     C11203   6.796   4.092   7.854 -0.9329 -0.3956  0.8005
   82MOL0     C11204   6.678   4.159   7.850  0.4322 -0.7741  0.7587
   82MOL0     C11205   6.553   4.085   7.870  0.7839 -0.4640  0.4551
   82MOL0     C11206   6.431   4.169   7.861  0.2388  0.5126  0.3427
   82MOL0     C11207   6.552   3.946   7.887  0.5072  0.8407  0.9196
   82MOL0     C11208   6.435   3.864   7.912 -1.4498  0.6621  0.0631
   82MOL0     O11209   6.322   3.924   7.961 -0.3161  0.2387  0.3240
   82MOL0     C11210   6.230   3.840   8.010  0.4779  0.3322 -0.2528
   82MOL0     C11211   6.123   3.798   7.921 -0.2533 -0.4976 -0.0040
   82MOL0     C11212   6.023   3.725   7.971  0.5578  0.7084  0.1202
   82MOL0     C11213   6.028   3.685   8.107 -0.0957  0.2758 -0.0727
   82MOL0     O11214   5.927   3.607   8.157  0.0829 -0.1364 -0.1438
   82MOL0     C11215   5.806   3.580   8.091 -0.1934 -1.0739 -0.0381
   82MOL0     C11216   5.722   3.529   8.200 -0.3908  0.5664  0.0507
   82MOL0     C11217   5.606   3.449   8.139  0.5865  0.0605  0.1340
   82MOL0     C11218   5.500   3.543   8.057  0.5045  0.2989 -0.2434
   82MOL0     C11219   5.357   3.483   8.069  0.6789  0.0645  0.0925
   82MOL0     C11220   5.329   3.338   8.025  0.2576  0.9507  0.1153
   82MOL0     C11221   5.369   3.284   7.878  0.4034 -0.5012  0.4436
   82MOL0     C11222   5.269   3.343   7.768 -0.6115  0.1646  0.2745
   82MOL0    Cl11223   5.357   3.426   7.634  0.3571  0.2824 -0.0951
   82MOL0     C11224   6.132   3.735   8.197  0.8529  1.2673  0.0842
   82MOL0     C11225   6.222   3.823   8.151 -1.6557  0.2509  0.4865
   82MOL0     O11226   6.446   3.738   7.891 -0.4533 -0.1207  0.2389
   82MOL0     C11227   6.681   3.885   7.892  0.6059 -0.6580  0.9063
   82MOL0     C11228   6.796   3.957   7.872 -0.1805  0.0421  0.3783
   82MOL0     N11229   7.449   4.206   7.685 -0.3317 -0.6373 -0.5757
   82MOL0     N11230   7.562   4.172   7.629 -0.6978  0.1579  0.3394
   82MOL0     C11231   7.465   5.120   6.974 -0.1512  0.1128  0.3395
   82MOL0     C11232   7.366   5.198   7.028  0.4885  0.6235  0.2856
   82MOL0     C11233   6.934   5.350   7.110  0.2806  0.3179  0.8844
   82MOL0     C11234   6.838   5.407   7.020  0.7966 -0.0098  0.0461
   82MOL0     C11235   6.739   5.489   7.066 -0.1878 -0.2563 -0.6049
   82MOL0     C11236   6.726   5.508   7.202 -0.7861  0.0241 -0.5225
   82MOL0     O11237   6.625   5.594   7.237 -0.9750  0.8029 -0.5288
   82MOL0     C11238   6.597   5.606   7.378 -0.0446 -0.5230  0.2290
   82MOL0     C11239   6.556   5.748   7.405 -0.4088 -0.1909 -0.3488
   82MOL0     C11240   6.672   5.840   7.424 -0.4088 -0.6530 -0.0356
   82MOL0     C11241   6.626   5.972   7.479  0.1449  0.0731 -0.1429
   82MOL0     C11242   6.565   5.945   7.611  1.1547 -0.1067  0.4577
   82MOL0     C11243   6.508   5.917   7.716  0.2991 -0.2016  1.4367
   82MOL0     C11244   6.829   5.461   7.286 -0.3711 -0.4815 -0.1836
   82MOL0     C11245   6.923   5.376   7.243  0.0415  0.0202  0.8734
   82MOL0     C11246   7.006   5.308   7.356  1.0105  0.8884  0.3818
   82MOL0     H11247   7.129   4.968   7.076  0.5687 -1.6844 -1.5385
   82MOL0     H11248   7.302   4.831   6.953  0.7572 -0.5268  1.2828
   82MOL0     H11249   7.666   4.744   6.922 -0.1028 -2.2907  1.9202
   82MOL0     H11250   7.518   4.754   7.019 -2.7182  1.5339 -0.7016
   82MOL0     H11251   7.782   4.907   7.060  0.6308 -1.6682  0.8818
   82MOL0     H11252   7.626   4.935   7.149  0.0696 -1.5333  0.7853
   82MOL0     H11253   7.742   4.784   7.298  0.0126 -2.7744  1.2769
   82MOL0     H11254   7.617   4.699   7.226  1.1780 -0.3300  0.1284
   82MOL0     H11255   7.799   4.612   7.044  1.7037  2.3154 -1.3498
   82MOL0     H11256   7.910   4.707   7.128 -1.2344  0.5810 -0.0836
   82MOL0     H11257   7.906   4.591   7.326 -0.0584  2.9306 -1.3199
   82MOL0     H11258   7.938   4.485   7.180  0.0266  0.3273 -0.0420
   82MOL0     H11259   7.664   4.506   7.318  0.2547  0.9412 -3.2589
   82MOL0     H11260   7.708   4.385   7.205 -0.8120 -2.6605  0.5281
   82MOL0     H11261   7.808   4.397   7.487 -1.6257  1.6277 -0.8712
   82MOL0     H11262   7.883   4.297   7.364  1.9646  1.2593  2.6379
   82MOL0     H11263   7.644   4.196   7.323  1.6264  1.4003 -1.0443
   82MOL0     H11264   7.737   4.130   7.445 -1.8683 -1.2011  0.2188
   82MOL0     H11265   7.417   4.375   7.413 -4.2130  0.0218  2.1653
   82MOL0     H11266   7.209   4.416   7.555  2.0753 -0.5445 -1.5886
   82MOL0     H11267   7.259   4.432   7.721  4.0524 -0.4206  0.0026
   82MOL0     H11268   7.053   4.289   7.650 -1.4063 -0.1136  2.8030
   82MOL0     H11269   7.166   4.166   7.610 -0.4092  3.2745 -4.4243
   82MOL0     H11270   7.247   4.173   7.849  0.6802  2.8090 -1.8039
   82MOL0     H11271   7.131   4.294   7.889  0.4799  0.6145 -0.5281
   82MOL0     H11272   7.063   4.029   7.753  0.6963  1.1553 -0.8461
   82MOL0     H11273   7.043   4.036   7.928  0.0783 -0.1830  0.1962
   82MOL0     H11274   6.673   4.264   7.823 -0.3619 -0.7920  0.8098
   82MOL0     H11275   6.351   4.111   7.814  2.5214 -1.4087 -1.4465
   82MOL0     H11276   6.453   4.249   7.790  1.7972  1.3057  1.6485
   82MOL0     H11277   6.404   4.205   7.960  2.0781 -2.2941  1.9945
   82MOL0     H11278   6.125   3.812   7.813  0.4814 -1.3103 -0.0999
   82MOL0     H11279   5.957   3.686   7.894  2.0077 -0.3538 -0.6303
   82MOL0     H11280   5.769   3.672   8.046  2.4974  1.2734  2.1467
   82MOL0     H11281   5.815   3.505   8.011  0.1294 -0.0319 -1.0066
   82MOL0     H11282   5.759   3.470   8.284  2.0736  3.3692  1.1076
   82MOL0     H11283   5.701   3.624   8.252 -1.7155  1.1506 -1.4561
   82MOL0     H11284   5.561   3.408   8.230  1.6170  0.4767  0.8473
   82MOL0     H11285   5.633   3.369   8.070 -0.9081 -2.5302  2.3713
   82MOL0     H11286   5.511   3.543   7.948 -0.9203 -0.2642 -0.4117
   82MOL0     H11287   5.491   3.630   8.123 -4.2544 -0.7915  0.9364
   82MOL0     H11288   5.302   3.516   8.158 -3.2687 -0.3246 -2.0161
   82MOL0     H11289   5.302   3.528   7.986 -0.9619 -0.7687  0.6931
   82MOL0     H11290   5.222   3.324   8.047  1.3162 -2.0968  4.7043
   82MOL0     H11291   5.371   3.278   8.106 -0.6736 -0.7692 -0.6158
   82MOL0     H11292   5.376   3.175   7.886  1.5912 -0.3611  1.7019
   82MOL0     H11293   5.463   3.327   7.845 -0.9628  0.2648 -2.9056
   82MOL0     H11294   5.212   3.424   7.813 -0.0866  0.5796  0.2029
   82MOL0     H11295   5.197   3.271   7.728  0.7391 -2.9403  2.9436
   82MOL0     H11296   6.120   3.698   8.298  0.8003  0.1717 -0.3132
   82MOL0     H11297   6.284   3.871   8.225 -2.4903  1.3609  0.4856
   82MOL0     H11298   6.692   3.780   7.917 -1.0943 -0.9719  0.4859
   82MOL0     H11299   6.889   3.902   7.886  0.6444  0.2025 -3.4306
   82MOL0     H11300   7.553   5.179   6.952  1.8003 -1.7801  2.5538
   82MOL0     H11301   7.384   5.304   7.046 -0.5638  1.0679 -1.0336
   82MOL0     H11302   6.841   5.380   6.915 -1.7880  0.4743 -0.2296
   82MOL0     H11303   6.669   5.530   6.994 -2.1042 -2.9092 -0.4033
   82MOL0     H11304   6.509   5.543   7.398 -0.1652  0.6300  3.9915
   82MOL0     H11305   6.666   5.563   7.451 -3.9702 -2.8568  2.9639
   82MOL0     H11306   6.493   5.744   7.495 -0.4446 -3.1081 -0.4038
   82MOL0     H11307   6.504   5.783   7.315  0.1083  0.2910 -0.4679
   82MOL0     H11308   6.732   5.793   7.502 -1.3934  0.1681  1.2687
   82MOL0     H11309   6.729   5.841   7.331 -2.2359 -1.0057 -1.2044
   82MOL0     H11310   6.553   6.020   7.413 -0.7604 -2.2115 -0.8933
   82MOL0     H11311   6.710   6.039   7.501  0.5833 -1.1818  2.4218
   82MOL0     H11312   6.470   5.882   7.810 -1.2743  0.1015  0.9484
   82MOL0     H11313   6.836   5.496   7.388  2.2583 -0.3987 -0.3069
   82MOL0     H11314   7.019   5.202   7.331 -2.1283  1.0997 -2.8977
   82MOL0     H11315   7.108   5.346   7.358  1.0442  0.9962  4.4289
   82MOL0     H11316   6.964   5.323   7.456 -2.3980  3.8349 -1.2581
   83MOL0     O11317  11.074  10.179   8.955  0.2210 -0.3140 -0.0282
   83MOL0     C11318  10.999  10.123   9.039 -0.0716 -0.6756  0.0840
   83MOL0     O11319  10.977  10.170   9.166 -0.4334  0.2848  0.2976
   83MOL0     C11320  11.013  10.295   9.216  0.0820  1.3760 -0.5884
   83MOL0     C11321  11.088  10.402   9.150  0.6610 -0.3756 -0.4658
   83MOL0     C11322  11.128  10.511   9.217  0.6518  0.2800 -0.5143
   83MOL0     C11323  11.104  10.522   9.355 -0.3020  0.2754  0.0118
   83MOL0     O11324  11.128  10.646   9.413  0.6199  0.8156  0.2517
   83MOL0     C11325  11.169  10.660   9.551 -0.2435  0.6366  0.1450
   83MOL0     C11326  11.204  10.805   9.596 -0.5324  0.2797 -0.5970
   83MOL0     C11327  11.272  10.897   9.501 -0.0502  0.0976 -0.2880
   83MOL0     C11328  11.300  11.032   9.549  0.3897  0.5905  0.5666
   83MOL0     C11329  11.358  11.123   9.437 -0.4499  0.1675  0.2914
   83MOL0     C11330  11.247  11.204   9.376 -0.4252 -0.3673  0.2110
   83MOL0     C11331  11.212  11.327   9.456  1.0933  0.1796  0.3674
   83MOL0     C11332  11.217  11.464   9.388 -0.6727  0.5314  0.2135
   83MOL0     N11333  11.133  11.462   9.271  0.3634  0.9426  0.4558
   83MOL0     C11334  11.141  11.555   9.167  1.3067 -0.0414 -0.0855
   83MOL0     C11335  11.039  11.530   9.085 -0.4564  0.5935 -0.0528
   83MOL0     C11336  10.971  11.624   8.986  0.3635  0.8260  1.1023
   83MOL0     C11337  11.060  11.732   8.942  0.4222 -0.1813 -0.1165
   83MOL0     C11338  10.966  11.838   8.868  0.3410  0.5204  0.1234
   83MOL0     C11339  11.038  11.972   8.841  0.7492 -0.4680  0.1140
   83MOL0     O11340  11.143  11.946   8.764 -0.1929 -0.6216 -0.1673
   83MOL0     C11341  11.153  12.022   8.645  0.0893 -0.3529  0.0337
   83MOL0     C11342  11.127  12.160   8.649 -0.9557 -0.3719  0.4842
   83MOL0     C11343  11.112  12.231   8.534 -0.1851  0.1528  1.1584
   83MOL0     C11344  11.075  12.382   8.535 -0.0983 -0.6966 -0.1104
   83MOL0     C11345  11.153  12.167   8.410  0.5920 -0.4442  0.3121
   83MOL0     C11346  11.140  12.240   8.277 -0.6035  0.0978  0.1375
   83MOL0     O11347  11.205  12.186   8.168 -0.6041 -0.6266 -0.3618
   83MOL0     C11348  11.227  12.261   8.049  0.0701 -0.1593 -0.4283
   83MOL0     C11349  11.189  12.206   7.928 -0.5566 -1.0445 -0.2401
   83MOL0     C11350  11.161  12.293   7.821 -1.0884  0.6799  0.5760
   83MOL0     C11351  11.192  12.435   7.832 -0.3236  0.0487 -0.5465
   83MOL0     O11352  11.174  12.525   7.727 -1.0591  0.5034  0.2444
   83MOL0     C11353  11.089  12.481   7.619 -0.6559 -1.0243 -0.0261
   83MOL0     C11354  11.076  12.581   7.507 -0.5616 -0.2192  0.8302
   83MOL0     C11355  11.035  12.713   7.567  0.2792 -0.2959 -0.3615
   83MOL0     C11356  11.048  12.832   7.472 -0.6435 -0.6449  0.8629
   83MOL0     C11357  11.095  12.961   7.541  0.2697  0.6072 -0.1699
   83MOL0     C11358  11.121  13.069   7.436  0.7971  1.1609  0.1009
   83MOL0     C11359  11.145  13.203   7.505 -0.2540 -0.2347  0.4691
   83MOL0     C11360  11.281  13.208   7.576  0.1088 -0.1566  0.3611
   83MOL0    Cl11361  11.294  13.384   7.624 -0.6236  0.6107 -0.5770
   83MOL0     C11362  11.241  12.492   7.949 -0.2982 -0.2951  0.1394
   83MOL0     C11363  11.249  12.400   8.055  0.4873 -0.5073  0.9730
   83MOL0     O11364  11.069  12.342   8.276 -0.7261 -0.2053 -0.2611
   83MOL0     C11365  11.204  12.033   8.406  0.1406 -0.2404 -0.6308
   83MOL0     C11366  11.201  11.961   8.524  0.1506  0.0118  0.8953
   83MOL0     N11367  10.956  11.432   9.143 -0.3097 -0.3972 -0.1163
   83MOL0     N11368  11.022  11.380   9.249  0.9120 -0.2054  0.8320
   83MOL0     C11369  11.016  10.431   9.425  0.3999  0.1353  0.4486
   83MOL0     C11370  10.981  10.316   9.354 -0.9597 -0.4670  0.3515
   83MOL0     C11371  10.916  10.005   8.999 -0.8776 -0.5551 -0.1940
   83MOL0     C11372  10.896   9.908   9.094 -0.5976  0.0437  0.4725
   83MOL0     C11373  10.854   9.778   9.061  0.3716 -0.0575  0.3072
   83MOL0     C11374  10.833   9.745   8.928 -0.0696 -0.6877 -0.1751
   83MOL0     O11375  10.831   9.615   8.900 -0.1302  0.7542 -0.6309
   83MOL0     C11376  10.870   9.573   8.775  0.6951 -0.2439 -0.4616
   83MOL0     C11377  10.874   9.422   8.768  0.7641 -0.4756 -1.0637
   83MOL0     C11378  10.908   9.366   8.634 -0.4626  0.7999  0.4689
   83MOL0     C11379  10.912   9.213   8.658  0.1802 -0.2578 -0.4693
   83MOL0     C11380  10.968   9.134   8.548 -0.4354  0.2071 -0.8603
   83MOL0     C11381  11.011   9.050   8.474 -0.8858 -0.2852 -0.5303
   83MOL0     C11382  10.836   9.853   8.835 -0.4276  0.0352 -0.7739
   83MOL0     C11383  10.872   9.984   8.866 -0.2360  0.0246  0.5329
   83MOL0     C11384  10.862  10.084   8.755  0.0326 -0.2931  0.1605
   83MOL0     H11385  11.114  10.398   9.044  1.0977 -4.8320 -0.3835
   83MOL0     H11386  11.184  10.594   9.174 -0.7914  0.9266 -1.1918
   83MOL0     H11387  11.248  10.593   9.585  0.5686  1.7650  0.5810
   83MOL0     H11388  11.076  10.623   9.595 -0.9971 -0.1394 -1.9950
   83MOL0     H11389  11.114  10.866   9.609 -2.5082 -2.4148 -0.8423
   83MOL0     H11390  11.263  10.792   9.687 -0.3410  3.2238 -0.1993
   83MOL0     H11391  11.366  10.847   9.478 -0.9832 -1.3157 -1.1808
   83MOL0     H11392  11.211  10.904   9.411 -0.2007 -1.7612 -0.3663
   83MOL0     H11393  11.211  11.066   9.603  0.3678 -1.1174  1.6921
   83MOL0     H11394  11.381  11.014   9.620  4.3825  0.1863 -3.6229
   83MOL0     H11395  11.395  11.056   9.358 -4.0277  0.2173 -1.6429
   83MOL0     H11396  11.444  11.179   9.475 -0.2167 -0.2059  0.3249
   83MOL0     H11397  11.272  11.239   9.275  4.2615  1.7604  1.7984
   83MOL0     H11398  11.156  11.143   9.373 -1.4132  1.0036  1.0412
   83MOL0     H11399  11.282  11.331   9.540 -0.0343 -2.0511  1.4802
   83MOL0     H11400  11.117  11.333   9.509  0.9874  4.0168  0.0403
   83MOL0     H11401  11.185  11.545   9.454  1.5197  0.9329  0.8779
   83MOL0     H11402  11.319  11.487   9.356 -0.1945 -0.1351  1.2077
   83MOL0     H11403  11.206  11.639   9.146 -2.1057  2.8841  0.1650
   83MOL0     H11404  10.882  11.659   9.039 -2.3189 -2.7174 -0.6295
   83MOL0     H11405  10.929  11.571   8.900 -3.9152  0.9837  2.8828
   83MOL0     H11406  11.110  11.778   9.027  2.4575 -0.2300 -1.2207
   83MOL0     H11407  11.124  11.696   8.861  2.7150 -2.4347  2.5134
   83MOL0     H11408  10.948  11.801   8.767  1.7481  0.0149  0.0420
   83MOL0     H11409  10.874  11.864   8.921  1.9217  1.6994  2.4705
   83MOL0     H11410  10.969  12.042   8.794 -0.1061  0.0609  2.0811
   83MOL0     H11411  11.075  12.013   8.936  3.5910 -0.2671 -0.9835
   83MOL0     H11412  11.096  12.214   8.737 -2.9741 -1.7378  0.6761
   83MOL0     H11413  11.166  12.435   8.505 -0.6370  1.1848  1.3591
   83MOL0     H11414  11.053  12.411   8.638 -1.2868  0.3830 -0.6342
   83MOL0     H11415  10.989  12.415   8.475 -0.5661 -2.1595 -0.2739
   83MOL0     H11416  11.173  12.099   7.925  0.1459 -1.1304 -1.0172
   83MOL0     H11417  11.129  12.240   7.731 -0.4049  1.1821  0.0298
   83MOL0     H11418  11.133  12.389   7.578 -0.2314 -0.9253  0.2051
   83MOL0     H11419  10.985  12.463   7.648 -1.3235 -0.2752 -1.7900
   83MOL0     H11420  11.171  12.592   7.452 -0.7912  3.1202  0.8979
   83MOL0     H11421  10.997  12.552   7.438  0.1745 -1.5434  0.5203
   83MOL0     H11422  11.086  12.733   7.662 -1.5906 -1.2731  0.9238
   83MOL0     H11423  10.931  12.711   7.601  0.5118 -1.2527  0.3555
   83MOL0     H11424  10.954  12.840   7.417 -1.6478 -0.3164  2.5927
   83MOL0     H11425  11.125  12.818   7.395  1.3600  1.0427  2.4418
   83MOL0     H11426  11.027  12.997   7.618  0.5696  3.0046 -0.9230
   83MOL0     H11427  11.191  12.935   7.587  0.4188 -3.1695 -2.2708
   83MOL0     H11428  11.041  13.071   7.361 -3.2892  0.0371  3.9355
   83MOL0     H11429  11.212  13.060   7.377 -0.5154  3.0935 -2.3931
   83MOL0     H11430  11.071  13.220   7.584 -1.6296 -2.4362 -0.2917
   83MOL0     H11431  11.128  13.284   7.434 -1.1058 -1.1518 -0.3977
   83MOL0     H11432  11.368  13.198   7.510 -0.4413 -1.2260 -0.2320
   83MOL0     H11433  11.289  13.126   7.648  1.1307 -1.5340 -1.2349
   83MOL0     H11434  11.261  12.598   7.954  4.1492 -0.9331 -0.0965
   83MOL0     H11435  11.268  12.441   8.154 -0.4773  0.7722  0.6616
   83MOL0     H11436  11.231  11.983   8.313 -1.7744  1.4217 -2.1828
   83MOL0     H11437  11.215  11.853   8.518  0.1995  0.0680 -0.2853
   83MOL0     H11438  10.957  10.458   9.512  0.5076 -1.0767  0.9124
   83MOL0     H11439  10.909  10.248   9.397  0.2786 -2.0170  0.0460
   83MOL0     H11440  10.925   9.925   9.197  5.5001 -0.4603 -0.7663
   83MOL0     H11441  10.844   9.710   9.145  2.6974 -0.0444  0.6473
   83MOL0     H11442  10.803   9.609   8.697  1.5266 -0.9702 -1.5375
   83MOL0     H11443  10.967   9.620   8.758  0.6235  0.2544  0.4310
   83MOL0     H11444  10.780   9.371   8.791  1.6528 -1.7694 -0.1198
   83MOL0     H11445  10.945   9.392   8.846 -0.4083 -2.0472 -0.5412
   83MOL0     H11446  10.830   9.380   8.559 -0.6785 -0.8511  0.3397
   83MOL0     H11447  11.008   9.401   8.606  0.7900 -0.0136  3.4869
   83MOL0     H11448  10.814   9.170   8.676 -0.4422  0.1208 -2.6353
   83MOL0     H11449  10.970   9.191   8.748  0.1845  0.6179 -0.2526
   83MOL0     H11450  11.047   8.974   8.408  0.6076  0.1502 -0.2705
   83MOL0     H11451  10.812   9.820   8.734 -0.3662  3.4435 -2.0074
   83MOL0     H11452  10.947  10.078   8.686 -1.1924 -0.2809 -1.4033
   83MOL0     H11453  10.770  10.078   8.696  0.4645 -0.4515 -0.5126
   83MOL0     H11454  10.858  10.187   8.791 -1.3964  0.0467 -0.8978
   84MOL0     O11455   0.817   6.613   3.117  0.4903  0.1674  0.0490
   84MOL0     C11456   0.867   6.496   3.121 -1.3145  0.9003  0.6141
   84MOL0     O11457   0.837   6.393   3.202  0.3559 -0.4859 -0.0586
   84MOL0     C11458   0.745   6.426   3.290 -0.4234 -0.4996  0.0120
   84MOL0     C11459   0.607   6.407   3.250 -0.6438 -0.0811 -0.8367
   84MOL0     C11460   0.506   6.415   3.351 -0.0996  0.5549 -0.1205
   84MOL0     C11461   0.537   6.438   3.487  0.1375 -0.7782  0.0515
   84MOL0     O11462   0.443   6.408   3.582 -0.2061  0.8819  0.3755
   84MOL0     C11463   0.307   6.480   3.582 -1.0879  1.0124  0.4470
   84MOL0     C11464   0.312   6.635   3.615  0.9521  0.4334  1.1193
   84MOL0     C11465   0.393   6.670   3.736 -0.7524 -0.2488  0.4848
   84MOL0     C11466   0.350   6.808   3.794  0.2456 -0.2931 -1.7031
   84MOL0     C11467   0.430   6.839   3.923  0.7461 -0.1866 -0.1135
   84MOL0     C11468   0.534   6.949   3.888  0.3249 -1.3059 -1.5074
   84MOL0     C11469   0.567   7.007   4.027  0.8801 -0.1160 -0.0507
   84MOL0     C11470   0.671   7.115   4.016  1.4151 -0.0293 -0.9335
   84MOL0     N11471   0.812   7.076   3.992  0.0854  0.0254  0.4212
   84MOL0     C11472   0.884   7.155   3.918  0.0281  0.5139  0.2393
   84MOL0     C11473   1.009   7.128   3.957 -0.2475 -0.3348 -0.3526
   84MOL0     C11474   1.127   7.195   3.903 -0.1619  0.0377 -0.1434
   84MOL0     C11475   1.170   7.308   3.993  0.6298  0.2495  0.1673
   84MOL0     C11476   1.318   7.334   3.964 -0.5355 -0.5926 -0.1122
   84MOL0     C11477   1.375   7.437   4.066  0.1656  0.2125 -1.1442
   84MOL0     O11478   1.325   7.563   4.039 -0.9122 -0.2020  0.8419
   84MOL0     C11479   1.290   7.637   4.152  0.5680  0.4787  0.8775
   84MOL0     C11480   1.371   7.640   4.268  0.6355 -0.7159 -0.2428
   84MOL0     C11481   1.326   7.713   4.382  0.0385 -0.5084 -0.5378
   84MOL0     C11482   1.424   7.709   4.496 -0.2938 -0.1842  0.4290
   84MOL0     C11483   1.200   7.779   4.388  0.2039 -0.2505  0.6687
   84MOL0     C11484   1.140   7.844   4.516  0.6773  0.0957 -0.2078
   84MOL0     O11485   1.011   7.876   4.495 -0.6936 -0.1004  0.2068
   84MOL0     C11486   0.964   7.993   4.543 -0.3555 -0.6594 -0.2851
   84MOL0     C11487   0.823   7.995   4.552 -0.5147  0.4818  0.1217
   84MOL0     C11488   0.765   8.115   4.613  0.1037 -0.5467 -0.9102
   84MOL0     C11489   0.836   8.234   4.647  0.3669  0.9055 -0.4995
   84MOL0     O11490   0.757   8.339   4.685 -0.1330 -0.7743  0.2350
   84MOL0     C11491   0.810   8.470   4.712  0.3873 -0.8427 -0.4922
   84MOL0     C11492   0.690   8.560   4.767  0.2359  0.6380 -0.5613
   84MOL0     C11493   0.726   8.700   4.791 -0.1564  0.0078 -0.7473
   84MOL0     C11494   0.628   8.777   4.883 -0.2767  0.2005 -0.5138
   84MOL0     C11495   0.649   8.931   4.874  0.3999  1.0144  0.2698
   84MOL0     C11496   0.793   8.983   4.884  0.2837 -0.2520 -0.1646
   84MOL0     C11497   0.798   9.134   4.878  0.1151  0.5113  0.3374
   84MOL0     C11498   0.802   9.168   4.730 -0.9427 -0.7453  0.8414
   84MOL0    Cl11499   0.963   9.134   4.649 -0.0081 -0.1556  0.1609
   84MOL0     C11500   0.971   8.222   4.626 -0.7227  0.2576 -0.3122
   84MOL0     C11501   1.042   8.106   4.586 -0.3307 -0.3842  0.5479
   84MOL0     O11502   1.204   7.866   4.617  0.6613  0.1730 -0.9697
   84MOL0     C11503   1.134   7.784   4.267  0.4874  0.2400  0.5672
   84MOL0     C11504   1.179   7.716   4.155 -1.2772 -0.4297 -0.0172
   84MOL0     N11505   1.012   7.016   4.037  0.5441 -0.3449 -0.5809
   84MOL0     N11506   0.890   6.992   4.065  0.5324 -0.6762  0.1779
   84MOL0     C11507   0.667   6.458   3.518 -0.8247 -0.9839 -0.0735
   84MOL0     C11508   0.771   6.457   3.420  0.2423 -0.2439 -0.3425
   84MOL0     C11509   0.983   6.468   3.026 -0.7876 -0.3058  0.3638
   84MOL0     C11510   1.004   6.335   2.989 -0.1865 -0.8983 -0.0126
   84MOL0     C11511   1.088   6.306   2.884 -0.9312 -0.1300 -0.4056
   84MOL0     C11512   1.172   6.408   2.832 -0.0930  0.0707 -0.3094
   84MOL0     O11513   1.271   6.383   2.746 -0.0977  1.0073 -0.5211
   84MOL0     C11514   1.323   6.250   2.719 -0.5825  0.7135  0.4355
   84MOL0     C11515   1.472   6.267   2.664  0.1627 -0.4832  0.6866
   84MOL0     C11516   1.485   6.330   2.531  0.5574 -0.6461 -0.3002
   84MOL0     C11517   1.629   6.319   2.484 -0.2391  0.4300  0.6671
   84MOL0     C11518   1.664   6.375   2.358 -0.8998  0.1294 -0.3460
   84MOL0     C11519   1.707   6.426   2.265 -0.4586 -1.4340 -0.5960
   84MOL0     C11520   1.166   6.534   2.880 -0.0879  0.2889 -0.9332
   84MOL0     C11521   1.070   6.567   2.984  0.0014 -0.1363  1.0039
   84MOL0     C11522   1.091   6.698   3.054 -0.6670 -0.4146 -0.7935
   84MOL0     H11523   0.575   6.367   3.154  2.5857  2.7735 -3.3635
   84MOL0     H11524   0.403   6.385   3.334 -0.2565  0.1825  1.3639
   84MOL0     H11525   0.242   6.420   3.647  1.6093 -3.0670 -0.2394
   84MOL0     H11526   0.252   6.462   3.489 -0.0100 -0.9888  0.1442
   84MOL0     H11527   0.369   6.681   3.534  1.0290 -0.3946  0.6932
   84MOL0     H11528   0.211   6.676   3.624  2.0453  3.7260 -0.0525
   84MOL0     H11529   0.388   6.596   3.816  1.6778  0.5126  1.4331
   84MOL0     H11530   0.496   6.682   3.701 -0.5035  1.4378  1.6812
   84MOL0     H11531   0.366   6.888   3.722  1.3407  0.0381 -1.1336
   84MOL0     H11532   0.244   6.806   3.819  1.0500 -0.2396  2.5414
   84MOL0     H11533   0.472   6.741   3.948  0.8354 -0.6289 -1.9117
   84MOL0     H11534   0.362   6.871   4.002 -0.5281 -1.0060 -0.8566
   84MOL0     H11535   0.628   6.917   3.841  0.4469 -1.0641 -1.4313
   84MOL0     H11536   0.498   7.034   3.830 -0.5211 -0.5002  0.1512
   84MOL0     H11537   0.600   6.929   4.096 -0.8416  1.5345  2.8283
   84MOL0     H11538   0.480   7.056   4.071  0.6306 -2.9254  2.9341
   84MOL0     H11539   0.642   7.183   3.936 -0.0163 -1.9965 -2.1828
   84MOL0     H11540   0.670   7.173   4.108  0.4989 -3.7558  1.6360
   84MOL0     H11541   0.849   7.236   3.856  0.1487  2.5100  2.6069
   84MOL0     H11542   1.108   7.238   3.804 -0.6483  2.0932  0.8008
   84MOL0     H11543   1.208   7.121   3.900 -1.9835 -2.1892  2.1118
   84MOL0     H11544   1.114   7.400   3.978 -0.9338 -0.8611 -1.1630
   84MOL0     H11545   1.144   7.275   4.095 -3.9373  2.0993 -0.1877
   84MOL0     H11546   1.382   7.246   3.977 -0.6260 -0.4733  1.4383
   84MOL0     H11547   1.318   7.385   3.867 -1.4348  1.0515  0.7032
   84MOL0     H11548   1.351   7.409   4.169 -2.9475  1.7724 -1.2928
   84MOL0     H11549   1.484   7.442   4.066  0.2646  0.6816  2.3692
   84MOL0     H11550   1.466   7.586   4.264  0.4759 -1.0684  0.5116
   84MOL0     H11551   1.378   7.695   4.595 -2.9503 -3.8052 -1.0987
   84MOL0     H11552   1.475   7.806   4.489  2.7265 -1.6239  0.9492
   84MOL0     H11553   1.491   7.627   4.471 -2.5771 -1.3634 -2.2862
   84MOL0     H11554   0.767   7.913   4.507  0.2740 -1.6335  2.7862
   84MOL0     H11555   0.658   8.110   4.630  0.6150 -5.1221  3.1150
   84MOL0     H11556   0.893   8.464   4.784  0.9528 -1.7113 -1.1907
   84MOL0     H11557   0.856   8.520   4.627  1.0100  0.9893  0.8526
   84MOL0     H11558   0.608   8.545   4.697  0.3547 -0.5360 -0.4698
   84MOL0     H11559   0.658   8.519   4.864  2.6334  2.3577  1.0648
   84MOL0     H11560   0.735   8.754   4.696 -1.4284 -2.4078 -2.3480
   84MOL0     H11561   0.822   8.702   4.843 -0.6259  0.9466  0.1149
   84MOL0     H11562   0.656   8.741   4.982  1.1884  0.7757 -0.7062
   84MOL0     H11563   0.530   8.744   4.847 -0.3280 -1.0778  0.7221
   84MOL0     H11564   0.606   8.967   4.780  1.2457  1.3878  0.0170
   84MOL0     H11565   0.595   8.983   4.954  1.5736  2.1486  0.3735
   84MOL0     H11566   0.867   8.939   4.817  0.8106 -1.9338  1.4156
   84MOL0     H11567   0.831   8.952   4.982 -0.2927 -0.1526  0.0944
   84MOL0     H11568   0.871   9.185   4.940  0.7636 -2.2231  2.0098
   84MOL0     H11569   0.703   9.169   4.919  0.5781 -0.2030  2.0917
   84MOL0     H11570   0.797   9.277   4.725  1.4597 -0.4928  2.2722
   84MOL0     H11571   0.722   9.109   4.683 -1.8085 -0.0446  1.3896
   84MOL0     H11572   1.023   8.312   4.658 -3.5269  0.8969  3.2112
   84MOL0     H11573   1.149   8.103   4.566 -0.5459  0.0622 -0.7421
   84MOL0     H11574   1.045   7.845   4.256 -0.5867 -1.4833 -0.8567
   84MOL0     H11575   1.136   7.734   4.057 -2.0827 -2.2722 -0.0298
   84MOL0     H11576   0.694   6.491   3.619  0.7238 -0.1601 -0.7121
   84MOL0     H11577   0.873   6.480   3.449  0.4588 -2.8484  1.3106
   84MOL0     H11578   0.952   6.257   3.043 -0.1380  0.3842  1.9745
   84MOL0     H11579   1.093   6.202   2.856 -1.7107  0.2941 -2.2020
   84MOL0     H11580   1.339   6.193   2.811 -0.2951  0.6657  0.3558
   84MOL0     H11581   1.254   6.199   2.653  0.5404  2.1428 -1.9816
   84MOL0     H11582   1.501   6.163   2.645  1.3634 -0.2182  0.9597
   84MOL0     H11583   1.544   6.313   2.734 -0.7010 -1.2450  2.1178
   84MOL0     H11584   1.418   6.284   2.457  1.7574 -0.5424 -1.4920
   84MOL0     H11585   1.469   6.436   2.553  1.5375 -0.5025 -0.2367
   84MOL0     H11586   1.671   6.218   2.486 -0.5825  0.2897  0.7197
   84MOL0     H11587   1.687   6.376   2.558  1.1506  0.2454 -0.2341
   84MOL0     H11588   1.748   6.465   2.174  1.8696 -0.1363  0.9093
   84MOL0     H11589   1.240   6.607   2.848  0.2378 -0.4469 -1.8845
   84MOL0     H11590   1.160   6.759   2.995  0.5047 -0.8015  0.1399
   84MOL0     H11591   0.996   6.751   3.064 -0.3564  0.0691 -0.3164
   84MOL0     H11592   1.134   6.663   3.149  1.4121 -0.5032 -1.7273
   85MOL0     O11593   1.863   2.090   9.716  0.6375 -0.2132  0.6181
   85MOL0     C11594   1.793   2.058   9.621 -0.0948 -0.3318 -0.5103
   85MOL0     O11595   1.795   1.935   9.563  0.2372  0.7608 -0.3950
   85MOL0     C11596   1.880   1.830   9.607  0.2246 -0.5625  0.2762
   85MOL0     C11597   1.916   1.799   9.746 -0.1233 -0.0913 -0.7347
   85MOL0     C11598   2.011   1.700   9.788 -0.1887  0.4967  0.1219
   85MOL0     C11599   2.090   1.648   9.681 -0.4544  0.2633  0.5562
   85MOL0     O11600   2.185   1.558   9.722  0.2977 -0.5708  0.4994
   85MOL0     C11601   2.250   1.476   9.629  0.3577 -1.0557  0.4405
   85MOL0     C11602   2.323   1.350   9.687 -0.1257 -0.6804 -0.2668
   85MOL0     C11603   2.445   1.395   9.763 -0.0137  0.3750  0.9148
   85MOL0     C11604   2.434   1.498   9.877  0.4413 -0.0045  0.4869
   85MOL0     C11605   2.572   1.503   9.941  0.4626  0.3253 -0.6126
   85MOL0     C11606   2.579   1.617  10.041 -0.0283  1.3788  0.1638
   85MOL0     C11607   2.716   1.603  10.115  0.3710 -0.6262  0.3481
   85MOL0     C11608   2.731   1.698  10.236 -0.5593 -0.9150  0.1402
   85MOL0     N11609   2.733   1.842  10.192  0.6368  0.5471  0.0812
   85MOL0     C11610   2.631   1.931  10.214 -0.9253 -0.0273 -1.1236
   85MOL0     C11611   2.674   2.047  10.153  0.4647  0.0051 -0.6660
   85MOL0     C11612   2.596   2.176  10.139 -0.3318  0.3429  0.0699
   85MOL0     C11613   2.493   2.165  10.021 -0.0056  0.0055  0.7852
   85MOL0     C11614   2.410   2.302  10.016 -0.4455 -0.2423 -0.3352
   85MOL0     C11615   2.306   2.303   9.903 -0.8900 -0.0465 -0.8242
   85MOL0     O11616   2.229   2.420   9.914  0.7023 -0.8863 -0.1988
   85MOL0     C11617   2.170   2.463   9.795 -0.2348  0.4970  0.2000
   85MOL0     C11618   2.240   2.541   9.702 -0.0553 -0.2917  0.5250
   85MOL0     C11619   2.184   2.582   9.581  0.6575  0.0045  0.1643
   85MOL0     C11620   2.264   2.668   9.487 -0.5348  0.0430 -0.4952
   85MOL0     C11621   2.054   2.550   9.557  0.1811 -0.4918 -0.9796
   85MOL0     C11622   1.963   2.609   9.454 -0.3314  0.8866 -0.8391
   85MOL0     O11623   1.825   2.585   9.478 -0.4137  0.3092  1.0283
   85MOL0     C11624   1.744   2.639   9.381 -0.4135 -1.1692  0.0940
   85MOL0     C11625   1.661   2.748   9.397  0.4764 -0.7229 -1.0077
   85MOL0     C11626   1.584   2.807   9.293 -0.0591  0.0227 -1.1358
   85MOL0     C11627   1.580   2.740   9.170 -0.1467  0.1762 -0.2364
   85MOL0     O11628   1.491   2.793   9.079  0.5688  0.0508  0.0186
   85MOL0     C11629   1.432   2.706   8.969 -0.0695  0.4798 -0.2931
   85MOL0     C11630   1.508   2.710   8.824  0.4486  0.7688  0.4892
   85MOL0     C11631   1.504   2.854   8.768 -0.7409 -0.5303  0.2522
   85MOL0     C11632   1.578   2.868   8.636 -0.8490 -1.2859  0.5420
   85MOL0     C11633   1.722   2.824   8.644  0.6830 -0.0474 -0.8302
   85MOL0     C11634   1.786   2.861   8.508  0.2630  0.8664 -0.2795
   85MOL0     C11635   1.941   2.820   8.520  0.3089 -0.0626  0.2354
   85MOL0     C11636   1.973   2.669   8.519  0.0618 -0.3750 -0.3340
   85MOL0    Cl11637   2.144   2.646   8.560  0.1793  0.1920  0.4038
   85MOL0     C11638   1.675   2.632   9.145  0.5932  1.2487 -0.6990
   85MOL0     C11639   1.742   2.576   9.257 -0.7548 -0.0113 -0.8301
   85MOL0     O11640   2.017   2.680   9.364 -0.3789 -0.0071  1.1597
   85MOL0     C11641   1.990   2.464   9.650  0.1374  0.3377 -0.0038
   85MOL0     C11642   2.044   2.417   9.770 -0.6283 -0.3953 -0.2208
   85MOL0     N11643   2.813   2.026  10.106  0.1758  0.4520 -0.0880
   85MOL0     N11644   2.835   1.896  10.120  0.8871 -0.1828 -0.4627
   85MOL0     C11645   2.068   1.672   9.544  0.5694  0.1453  0.2971
   85MOL0     C11646   1.962   1.767   9.511  0.2704  0.5233  0.0666
   85MOL0     C11647   1.691   2.168   9.564  0.5927  0.3438 -0.0301
   85MOL0     C11648   1.677   2.281   9.635 -0.1198 -0.3334  1.4666
   85MOL0     C11649   1.594   2.385   9.592  0.3492  0.8331  0.1797
   85MOL0     C11650   1.502   2.368   9.483 -0.5278  0.7660  0.2523
   85MOL0     O11651   1.407   2.459   9.442 -0.9123 -0.4414 -0.8786
   85MOL0     C11652   1.354   2.550   9.537  0.3500  0.0276 -0.9216
   85MOL0     C11653   1.228   2.614   9.482 -0.6129  0.5843 -0.1664
   85MOL0     C11654   1.260   2.678   9.339 -0.4342 -0.6331 -0.9402
   85MOL0     C11655   1.146   2.752   9.270 -0.1225 -1.1964 -0.0922
   85MOL0     C11656   1.101   2.868   9.355 -0.0769 -0.7622 -0.8754
   85MOL0     C11657   1.064   2.963   9.430 -0.8164  0.1490  0.2284
   85MOL0     C11658   1.504   2.244   9.417  0.2500 -0.6051 -0.3121
   85MOL0     C11659   1.594   2.137   9.460 -0.2090 -0.6638  0.3433
   85MOL0     C11660   1.597   2.002   9.396  0.6024  0.8305  1.0449
   85MOL0     H11661   1.855   1.843   9.824 -0.3801 -0.8700 -0.4803
   85MOL0     H11662   2.023   1.664   9.890 -0.7779  1.1343  0.4308
   85MOL0     H11663   2.333   1.521   9.575  0.7381 -3.1365 -0.8161
   85MOL0     H11664   2.176   1.444   9.555  1.4637 -2.7928  0.0338
   85MOL0     H11665   2.262   1.290   9.755  0.2815 -1.7552 -0.8276
   85MOL0     H11666   2.357   1.291   9.602 -2.3751 -1.1460 -0.9103
   85MOL0     H11667   2.476   1.299   9.806 -1.6239 -0.4937  0.2421
   85MOL0     H11668   2.517   1.427   9.688  2.0708 -1.6374  1.9219
   85MOL0     H11669   2.413   1.594   9.828  0.6126  0.4169  1.2199
   85MOL0     H11670   2.347   1.470   9.938 -1.8075  0.5804 -2.2185
   85MOL0     H11671   2.647   1.519   9.863 -1.1206 -3.5161 -3.2517
   85MOL0     H11672   2.598   1.417  10.004 -1.7543  0.8906  1.2245
   85MOL0     H11673   2.571   1.716   9.995 -1.1447  1.6021  0.8057
   85MOL0     H11674   2.502   1.598  10.117 -0.9707 -0.9639 -1.2754
   85MOL0     H11675   2.794   1.612  10.039  0.0455 -0.4213  0.0295
   85MOL0     H11676   2.731   1.507  10.164  1.5891 -0.0220  1.2112
   85MOL0     H11677   2.647   1.681  10.305 -0.9195 -2.6204 -0.6535
   85MOL0     H11678   2.829   1.686  10.283 -0.9784 -0.3601  1.1982
   85MOL0     H11679   2.541   1.904  10.267 -0.1435 -2.4933 -0.9356
   85MOL0     H11680   2.662   2.260  10.118 -1.3403  1.1626  0.1032
   85MOL0     H11681   2.560   2.199  10.240  2.1352  2.3610  0.5934
   85MOL0     H11682   2.541   2.152   9.924  0.5869  0.0691  1.0658
   85MOL0     H11683   2.428   2.078  10.040 -0.4776  0.4526  1.2836
   85MOL0     H11684   2.353   2.328  10.106 -0.8894 -0.0554 -0.6652
   85MOL0     H11685   2.488   2.378  10.005 -0.0887 -0.7064 -1.0698
   85MOL0     H11686   2.366   2.293   9.812  1.3245 -1.7059  0.7144
   85MOL0     H11687   2.239   2.218   9.916  1.3469 -1.5053  2.3921
   85MOL0     H11688   2.343   2.566   9.725  0.7502  0.3219 -3.1544
   85MOL0     H11689   2.280   2.628   9.387 -0.6246  2.4745 -1.5492
   85MOL0     H11690   2.365   2.680   9.529 -1.9537  4.0721  2.3635
   85MOL0     H11691   2.226   2.771   9.482  1.2550  0.6900 -2.1815
   85MOL0     H11692   1.663   2.797   9.494 -2.0494  0.1567 -1.3213
   85MOL0     H11693   1.533   2.900   9.313  2.3076  1.1415  0.2482
   85MOL0     H11694   1.423   2.599   8.993 -1.7356  0.0349 -2.5718
   85MOL0     H11695   1.328   2.738   8.958 -0.2850  1.2793  2.9970
   85MOL0     H11696   1.612   2.687   8.848  1.1358  2.1874 -1.0373
   85MOL0     H11697   1.463   2.636   8.756  0.0545  1.7865 -0.3762
   85MOL0     H11698   1.553   2.915   8.845  0.6089 -1.6353  0.3181
   85MOL0     H11699   1.402   2.891   8.757 -0.3530  1.0719  1.6840
   85MOL0     H11700   1.565   2.974   8.612 -2.2801 -1.1909  1.5800
   85MOL0     H11701   1.520   2.813   8.562 -2.0290 -0.9719  1.1979
   85MOL0     H11702   1.784   2.873   8.719  0.1012  0.4792 -0.6810
   85MOL0     H11703   1.722   2.714   8.646 -1.0691 -0.0600 -0.1292
   85MOL0     H11704   1.767   2.969   8.504 -1.1362  0.6064 -1.4310
   85MOL0     H11705   1.733   2.823   8.421 -1.1988  0.1477  0.8856
   85MOL0     H11706   1.975   2.858   8.617  0.4242  2.7583 -0.7920
   85MOL0     H11707   2.001   2.875   8.447 -0.2647 -1.2712 -1.1997
   85MOL0     H11708   1.942   2.622   8.425  2.4446 -2.7289 -0.0814
   85MOL0     H11709   1.912   2.614   8.592  0.1303 -0.4027 -0.2979
   85MOL0     H11710   1.672   2.593   9.044 -1.7640  0.7004 -0.4738
   85MOL0     H11711   1.807   2.491   9.240  1.7344  2.1126 -2.9247
   85MOL0     H11712   1.897   2.411   9.634  1.2437 -2.6564  2.5377
   85MOL0     H11713   1.982   2.366   9.843  1.3001 -2.0697  0.3315
   85MOL0     H11714   2.130   1.628   9.467 -3.8132 -3.1993 -1.8155
   85MOL0     H11715   1.937   1.777   9.406  2.4036 -0.3492 -0.5997
   85MOL0     H11716   1.738   2.295   9.724 -0.3237 -3.0225  2.1260
   85MOL0     H11717   1.589   2.467   9.663 -0.7775  0.4142  0.6071
   85MOL0     H11718   1.344   2.497   9.632 -1.7662 -0.0102 -1.1214
   85MOL0     H11719   1.423   2.633   9.557 -2.6881  2.3129  1.0762
   85MOL0     H11720   1.183   2.693   9.543  2.3640  2.3061  0.0101
   85MOL0     H11721   1.162   2.528   9.468 -0.4912  0.6950 -1.6542
   85MOL0     H11722   1.340   2.750   9.361 -0.9458 -0.7445  1.6488
   85MOL0     H11723   1.306   2.605   9.272 -1.9045 -0.0729 -2.6504
   85MOL0     H11724   1.060   2.685   9.263 -1.2812 -0.1760  2.8329
   85MOL0     H11725   1.178   2.803   9.179 -0.2969  2.2530  1.6182
   85MOL0     H11726   1.043   3.039   9.502  0.2950 -0.1317  0.8635
   85MOL0     H11727   1.448   2.241   9.324  1.2332  1.0746 -1.0088
   85MOL0     H11728   1.690   1.990   9.339 -0.1202  0.1947 -0.0401
   85MOL0     H11729   1.585   1.921   9.469  1.3614 -0.3326 -0.0746
   85MOL0     H11730   1.508   1.986   9.335  0.3490 -1.2797  1.8776
   86MOL0     O11731  10.747   7.260   1.591  0.1088 -1.0841  0.3885
   86MOL0     C11732  10.720   7.369   1.536 -0.1127  0.2603  0.3185
   86MOL0     O11733  10.682   7.381   1.399 -0.1653 -0.0318  0.2860
   86MOL0     C11734  10.717   7.287   1.308  0.0881  0.1265  0.1749
   86MOL0     C11735  10.655   7.153   1.313  0.0387 -1.2326 -0.9396
   86MOL0     C11736  10.683   7.044   1.236 -0.1852 -0.5425  0.7382
   86MOL0     C11737  10.764   7.082   1.122 -0.2097 -0.4364 -0.3944
   86MOL0     O11738  10.787   6.992   1.019  0.9955 -0.3124  0.4373
   86MOL0     C11739  10.695   6.894   0.989 -0.7687 -0.2742 -0.9158
   86MOL0     C11740  10.569   6.945   0.931  0.6309  0.6864 -0.0023
   86MOL0     C11741  10.467   6.830   0.964  0.7108  0.3358  1.2347
   86MOL0     C11742  10.322   6.888   0.952 -0.7167 -0.9448 -0.1355
   86MOL0     C11743  10.207   6.787   0.980  0.3328  0.1283 -0.4233
   86MOL0     C11744  10.231   6.639   0.917  0.2635 -1.1994  0.1422
   86MOL0     C11745  10.098   6.561   0.903  0.7333 -0.8672 -0.6378
   86MOL0     C11746  10.040   6.515   1.050  1.0551  0.5708 -0.1317
   86MOL0     N11747   9.910   6.435   1.030 -0.1271  0.3537 -0.1153
   86MOL0     C11748   9.800   6.481   0.963 -0.6337  0.6565  0.7119
   86MOL0     C11749   9.729   6.374   0.944  0.0450  0.1309 -0.5543
   86MOL0     C11750   9.624   6.357   0.838  0.8071 -1.0396  0.3606
   86MOL0     C11751   9.691   6.286   0.719  0.8282 -0.4387  0.4670
   86MOL0     C11752   9.601   6.283   0.590 -1.0207 -0.4116 -0.8361
   86MOL0     C11753   9.474   6.206   0.613  1.2486 -0.0774 -0.4598
   86MOL0     O11754   9.391   6.191   0.497 -0.9397  0.0280 -0.2571
   86MOL0     C11755   9.256   6.147   0.503 -0.6809  0.9214 -0.0398
   86MOL0     C11756   9.184   6.122   0.390 -0.0372 -0.4332 -0.0833
   86MOL0     C11757   9.047   6.102   0.392 -0.6043  0.0780 -0.1255
   86MOL0     C11758   8.998   6.067   0.253 -0.2517 -0.1758  0.4165
   86MOL0     C11759   8.979   6.081   0.521 -0.4252 -0.5525  0.6370
   86MOL0     C11760   8.837   6.046   0.541  0.6617 -0.5314  1.0002
   86MOL0     O11761   8.796   6.017   0.667 -0.6153  0.0990  0.4965
   86MOL0     C11762   8.668   5.970   0.705 -0.3558  0.1904  0.4591
   86MOL0     C11763   8.551   6.000   0.651  0.9879 -0.4527  0.6835
   86MOL0     C11764   8.425   5.945   0.699 -0.1815  0.4239  0.5849
   86MOL0     C11765   8.428   5.876   0.822 -0.2474 -0.1769 -0.2971
   86MOL0     O11766   8.324   5.828   0.897  0.4092 -0.1631 -0.2379
   86MOL0     C11767   8.212   5.792   0.825 -0.5887 -0.4310  1.0421
   86MOL0     C11768   8.103   5.749   0.930 -0.8897 -0.6793  1.0526
   86MOL0     C11769   8.124   5.606   0.956 -0.1600 -0.1472 -0.0957
   86MOL0     C11770   8.028   5.542   1.046 -0.0320  0.9347 -0.0494
   86MOL0     C11771   8.029   5.385   1.057 -0.3184 -0.3702  0.0567
   86MOL0     C11772   8.159   5.328   1.124 -0.8559 -0.1373 -0.7143
   86MOL0     C11773   8.143   5.184   1.144 -0.7990  1.0585 -0.6103
   86MOL0     C11774   8.151   5.157   1.296  0.4094 -0.8399 -1.6439
   86MOL0    Cl11775   8.205   5.002   1.336 -0.1349 -0.1477 -0.1482
   86MOL0     C11776   8.553   5.866   0.885 -0.4492  0.0177 -0.7376
   86MOL0     C11777   8.667   5.908   0.825 -1.1337 -0.1620 -0.0880
   86MOL0     O11778   8.757   6.052   0.445 -0.4884  0.1275 -0.4476
   86MOL0     C11779   9.058   6.108   0.638  0.1993 -0.3655 -0.0029
   86MOL0     C11780   9.191   6.135   0.625  0.1465  0.7059 -0.1347
   86MOL0     N11781   9.775   6.268   1.026 -0.8286 -0.1462 -0.5063
   86MOL0     N11782   9.897   6.299   1.051  0.6012  0.9091  0.6697
   86MOL0     C11783  10.828   7.205   1.104 -0.6294 -0.1977 -1.6478
   86MOL0     C11784  10.805   7.303   1.203 -0.5579  0.3341  0.9133
   86MOL0     C11785  10.754   7.492   1.615 -0.4226 -0.7436  0.3787
   86MOL0     C11786  10.708   7.615   1.554 -0.0242  0.5524  0.1976
   86MOL0     C11787  10.748   7.736   1.613  0.9454  0.0195 -0.4751
   86MOL0     C11788  10.818   7.740   1.730  0.3046  1.3878 -0.3207
   86MOL0     O11789  10.859   7.851   1.798  0.8329  0.4432 -0.5503
   86MOL0     C11790  10.817   7.987   1.755  0.6927  0.3547 -0.5313
   86MOL0     C11791  10.660   8.003   1.789  0.4170  0.2365  0.7508
   86MOL0     C11792  10.622   7.981   1.932 -0.7567 -0.6766  0.3761
   86MOL0     C11793  10.476   8.013   1.939  1.2191 -0.5969 -0.5258
   86MOL0     C11794  10.392   7.891   1.950 -0.0942 -0.1688 -0.0025
   86MOL0     C11795  10.310   7.802   1.959  0.4409 -0.2541  0.4151
   86MOL0     C11796  10.844   7.622   1.795  0.3664  0.6940 -0.5420
   86MOL0     C11797  10.829   7.498   1.737 -0.0228  0.3529  0.7294
   86MOL0     C11798  10.894   7.385   1.808 -0.3239 -0.0361  0.1060
   86MOL0     H11799  10.587   7.131   1.395 -1.9302  1.5680 -1.6798
   86MOL0     H11800  10.656   6.939   1.242 -0.3457 -0.7692 -2.1872
   86MOL0     H11801  10.688   6.829   1.076  0.2743 -0.1865 -0.7518
   86MOL0     H11802  10.742   6.824   0.919 -2.7322 -0.2509 -2.3576
   86MOL0     H11803  10.543   7.036   0.988  1.5219  0.4738  0.7656
   86MOL0     H11804  10.590   6.967   0.826  1.8131  1.5234  0.3912
   86MOL0     H11805  10.484   6.743   0.901  2.3417  0.2303  1.7671
   86MOL0     H11806  10.487   6.787   1.063  1.7221 -0.5349  0.6776
   86MOL0     H11807  10.311   6.982   1.008  0.2502  2.6674 -5.2880
   86MOL0     H11808  10.322   6.916   0.846 -0.7846 -1.7337 -0.3463
   86MOL0     H11809  10.114   6.819   0.933  1.5051  1.9302 -1.6273
   86MOL0     H11810  10.207   6.772   1.088  2.6689 -1.9064 -0.6121
   86MOL0     H11811  10.267   6.664   0.816  3.9931  2.5923  2.1060
   86MOL0     H11812  10.312   6.593   0.974 -0.0034 -1.0986  0.6098
   86MOL0     H11813  10.116   6.467   0.850 -0.8741 -0.6109 -1.6873
   86MOL0     H11814  10.034   6.626   0.843 -0.4432 -1.7996 -0.4365
   86MOL0     H11815  10.112   6.453   1.105  2.6094 -0.7911 -3.4389
   86MOL0     H11816  10.023   6.595   1.122  0.3749  0.0232  0.3295
   86MOL0     H11817   9.785   6.582   0.925 -3.1196 -0.5816 -2.0781
   86MOL0     H11818   9.585   6.451   0.798  0.2027 -1.4538 -0.0374
   86MOL0     H11819   9.535   6.302   0.869  1.6153 -2.9864 -0.5661
   86MOL0     H11820   9.779   6.343   0.688 -1.8385  2.2860 -2.8860
   86MOL0     H11821   9.713   6.182   0.745  1.7699  0.0022  1.5445
   86MOL0     H11822   9.568   6.379   0.548  2.3168  0.7031 -1.2763
   86MOL0     H11823   9.663   6.232   0.515  1.1240 -1.8598  1.7294
   86MOL0     H11824   9.494   6.112   0.665 -1.8118  0.5403  2.1842
   86MOL0     H11825   9.420   6.273   0.680  0.6150 -0.0519 -0.9834
   86MOL0     H11826   9.231   6.123   0.292  0.4457 -1.7751  0.1210
   86MOL0     H11827   8.955   5.967   0.269 -3.1537  1.1211  1.4170
   86MOL0     H11828   9.069   6.063   0.170  0.1962 -2.4517  0.8370
   86MOL0     H11829   8.919   6.138   0.227 -1.4900 -2.0283 -1.2647
   86MOL0     H11830   8.554   6.057   0.559 -1.8286 -1.4776 -0.1498
   86MOL0     H11831   8.334   5.956   0.642  1.9695 -1.5409 -3.6682
   86MOL0     H11832   8.167   5.876   0.772 -1.2550 -1.2537  0.2863
   86MOL0     H11833   8.227   5.717   0.747 -1.6614  1.1555 -0.7599
   86MOL0     H11834   8.127   5.813   1.016  0.7079 -0.5132  0.5310
   86MOL0     H11835   8.006   5.782   0.895 -0.2651  0.7855  0.6321
   86MOL0     H11836   8.225   5.576   0.983  0.0166 -1.8967 -2.3917
   86MOL0     H11837   8.106   5.554   0.861  1.7481 -0.0657 -0.5322
   86MOL0     H11838   7.929   5.557   1.002 -0.2642 -0.6714 -0.1561
   86MOL0     H11839   8.037   5.584   1.146  1.8730 -2.0109  1.1772
   86MOL0     H11840   7.936   5.359   1.109 -0.7614 -2.4714 -1.6655
   86MOL0     H11841   8.017   5.344   0.957 -0.7646  1.5687 -0.7362
   86MOL0     H11842   8.179   5.375   1.221 -2.6247  0.1028 -0.4357
   86MOL0     H11843   8.252   5.342   1.069 -1.5374  1.3433 -1.5428
   86MOL0     H11844   8.224   5.127   1.099 -2.0913 -1.5544  0.1865
   86MOL0     H11845   8.052   5.132   1.113  1.1801 -3.5775  0.4858
   86MOL0     H11846   8.063   5.177   1.357  0.8656 -1.0685 -0.8991
   86MOL0     H11847   8.230   5.222   1.336 -0.2993 -1.1903  0.4566
   86MOL0     H11848   8.560   5.800   0.971 -0.4029 -0.9860 -1.5041
   86MOL0     H11849   8.765   5.889   0.867 -0.6798  0.5316 -0.8045
   86MOL0     H11850   9.019   6.136   0.736  4.1894  3.4528  0.7824
   86MOL0     H11851   9.242   6.154   0.719 -0.2792  0.6244  0.1217
   86MOL0     H11852  10.889   7.222   1.016  0.8247  0.2904 -0.5976
   86MOL0     H11853  10.844   7.402   1.183  0.2201 -0.4048 -1.5587
   86MOL0     H11854  10.647   7.620   1.464  3.3270 -2.6063 -2.5828
   86MOL0     H11855  10.721   7.826   1.558 -0.2823 -0.6793 -1.0764
   86MOL0     H11856  10.879   8.049   1.820 -0.1893  1.1953 -0.4650
   86MOL0     H11857  10.843   8.005   1.651 -1.3127  1.3932 -0.9005
   86MOL0     H11858  10.599   7.940   1.724  1.3353 -0.1277  0.2367
   86MOL0     H11859  10.631   8.106   1.765 -0.8924  0.2334  2.1357
   86MOL0     H11860  10.650   7.880   1.963  0.6190  0.0992  1.7872
   86MOL0     H11861  10.685   8.048   1.991 -2.4728  1.8802 -0.5118
   86MOL0     H11862  10.449   8.075   1.853 -0.9186 -0.0998  0.4621
   86MOL0     H11863  10.454   8.073   2.028  2.9012 -2.1942  1.0518
   86MOL0     H11864  10.246   7.717   1.952  2.0148 -1.4650  0.3864
   86MOL0     H11865  10.878   7.625   1.898 -2.5433  0.8785  0.4966
   86MOL0     H11866  10.967   7.418   1.882  0.5570 -0.6520 -0.4669
   86MOL0     H11867  10.821   7.326   1.864 -0.7149 -0.0413 -0.4004
   86MOL0     H11868  10.963   7.331   1.743  0.6978  1.7652 -0.3629
   87MOL0     O11869  10.510  11.229   9.574 -1.0550  1.0079  0.2947
   87MOL0     C11870  10.431  11.185   9.493  0.3053  0.3070 -0.7377
   87MOL0     O11871  10.311  11.128   9.532 -0.3333 -0.1781 -0.7553
   87MOL0     C11872  10.290  11.111   9.669 -0.6243  0.4514  0.4186
   87MOL0     C11873  10.297  10.975   9.700 -0.6664  0.3274 -0.5776
   87MOL0     C11874  10.290  10.937   9.839 -0.7658 -1.2503  0.2797
   87MOL0     C11875  10.280  11.044   9.939  0.1633  0.5928  1.2317
   87MOL0     O11876  10.265  11.022  10.073 -0.1844  0.6159 -0.2410
   87MOL0     C11877  10.167  10.921  10.112  1.4104  0.0074  0.4437
   87MOL0     C11878  10.135  10.964  10.259 -0.0349 -0.5970  0.3642
   87MOL0     C11879  10.030  10.873  10.306 -0.0352 -0.4323 -0.4259
   87MOL0     C11880   9.993  10.908  10.448 -0.0353 -0.2029 -0.0887
   87MOL0     C11881   9.853  10.860  10.476 -0.3783  1.1443 -0.7313
   87MOL0     C11882   9.808  10.844  10.626  0.7852 -0.4437  0.0887
   87MOL0     C11883   9.800  10.971  10.710 -0.4082 -0.4887 -0.7185
   87MOL0     C11884   9.937  11.041  10.742  0.9154  0.4898 -0.1467
   87MOL0     N11885   9.968  11.004  10.880 -0.1146 -0.2663  0.4211
   87MOL0     C11886   9.901  11.056  10.989 -0.0552 -0.4491  0.1321
   87MOL0     C11887   9.952  10.987  11.091 -0.4299  0.3120 -0.8730
   87MOL0     C11888   9.898  10.969  11.233 -0.5219  0.0411  0.5621
   87MOL0     C11889   9.923  10.844  11.312 -0.5781  0.7115 -0.2706
   87MOL0     C11890   9.869  10.706  11.250 -0.0205 -0.8693  0.1693
   87MOL0     C11891   9.943  10.602  11.327 -0.4009 -0.9758 -0.0409
   87MOL0     O11892   9.859  10.567  11.432 -0.6166  0.5678  0.2259
   87MOL0     C11893   9.906  10.501  11.542 -0.7202  0.2417  0.4626
   87MOL0     C11894   9.806  10.470  11.640 -0.3669  0.1702  0.8865
   87MOL0     C11895   9.836  10.388  11.747  0.5251  0.2156 -0.5787
   87MOL0     C11896   9.720  10.348  11.842 -0.1349 -0.6058  0.4768
   87MOL0     C11897   9.974  10.349  11.773  0.3210 -0.8920  0.0080
   87MOL0     C11898  10.024  10.274  11.883 -0.3957 -0.1419  0.5128
   87MOL0     O11899  10.143  10.206  11.866 -0.6114 -0.0587 -0.3435
   87MOL0     C11900  10.218  10.145  11.969 -0.5567 -0.2415 -0.8376
   87MOL0     C11901  10.332  10.091  11.927  0.8030 -0.7779  0.9748
   87MOL0     C11902  10.423  10.035  12.021 -0.9413  0.0497 -0.4189
   87MOL0     C11903  10.394  10.018  12.155 -0.1909 -0.0553  0.7427
   87MOL0     O11904  10.483   9.954  12.241 -0.2388 -0.2997 -0.2836
   87MOL0     C11905  10.445   9.950  12.382  0.3334  0.2580  0.2387
   87MOL0     C11906  10.549   9.911  12.477  0.6839  0.3859 -0.5542
   87MOL0     C11907  10.663  10.021  12.477  0.3646 -0.3544 -0.0568
   87MOL0     C11908  10.750  10.017  12.605  0.2447 -0.4250  0.5819
   87MOL0     C11909  10.794  10.156  12.634 -0.1566 -0.1429  0.1245
   87MOL0     C11910  10.694  10.252  12.705 -0.0848 -0.6682 -0.0458
   87MOL0     C11911  10.639  10.209  12.841  0.5649 -0.6746  0.4456
   87MOL0     C11912  10.533  10.312  12.890  0.0137 -0.9094  0.6877
   87MOL0    Cl11913  10.602  10.476  12.886 -0.3155  0.0089 -0.1332
   87MOL0     C11914  10.277  10.084  12.195 -0.0364  0.1658 -0.2909
   87MOL0     C11915  10.189  10.140  12.106  0.1513  0.0268  1.1123
   87MOL0     O11916   9.968  10.293  11.992 -0.0253 -0.3824 -0.8330
   87MOL0     C11917  10.069  10.380  11.678  0.1413  0.1326  0.8918
   87MOL0     C11918  10.032  10.451  11.567  1.0185  0.4250  0.5808
   87MOL0     N11919  10.054  10.907  11.049 -0.3076  0.1406 -0.0506
   87MOL0     N11920  10.067  10.923  10.920 -0.4832 -0.3775  0.9882
   87MOL0     C11921  10.272  11.175   9.892 -0.4730  0.1054 -0.1979
   87MOL0     C11922  10.278  11.212   9.761 -0.5238  0.4732  0.5243
   87MOL0     C11923  10.461  11.182   9.350 -0.9375 -0.0966 -0.6810
   87MOL0     C11924  10.348  11.159   9.256 -0.4778 -1.0064  0.6759
   87MOL0     C11925  10.368  11.154   9.122 -0.5477  0.4299 -0.0072
   87MOL0     C11926  10.499  11.171   9.069  0.9874  0.4972 -1.0039
   87MOL0     O11927  10.511  11.145   8.939  0.7592 -0.3125 -0.1636
   87MOL0     C11928  10.525  11.260   8.859 -0.0693  0.5947 -0.0703
   87MOL0     C11929  10.480  11.223   8.715 -0.5924 -0.2382  0.5055
   87MOL0     C11930  10.556  11.107   8.659 -0.6102 -0.6776 -0.0816
   87MOL0     C11931  10.662  11.167   8.559 -0.2011 -0.1987  0.0258
   87MOL0     C11932  10.614  11.203   8.424  0.3634 -0.2806  0.1775
   87MOL0     C11933  10.573  11.250   8.316  0.6190  0.3628 -0.4809
   87MOL0     C11934  10.609  11.197   9.148  0.8539  0.0315  0.6290
   87MOL0     C11935  10.587  11.203   9.287 -0.6202  0.4253 -0.6120
   87MOL0     C11936  10.718  11.222   9.366  0.3684 -0.1760  0.4989
   87MOL0     H11937  10.314  10.906   9.617 -0.4174 -1.1555  0.6541
   87MOL0     H11938  10.277  10.839   9.884 -5.4285 -0.8347  0.3092
   87MOL0     H11939  10.223  10.827  10.111 -0.7034 -1.3257 -0.6785
   87MOL0     H11940  10.086  10.912  10.039  1.1387  0.5496  0.6711
   87MOL0     H11941  10.218  10.945  10.327 -0.3961 -1.0835  0.6826
   87MOL0     H11942  10.099  11.067  10.257 -0.6022 -0.7999 -0.7366
   87MOL0     H11943   9.943  10.898  10.244  0.3068  0.3616 -0.5995
   87MOL0     H11944  10.053  10.766  10.299  0.0110 -0.3266 -2.2092
   87MOL0     H11945  10.062  10.850  10.510 -4.1731 -3.2202  2.2061
   87MOL0     H11946  10.006  11.014  10.472  1.9382  0.1835 -2.5450
   87MOL0     H11947   9.861  10.757  10.440  1.4274 -0.1116  2.8235
   87MOL0     H11948   9.774  10.902  10.413 -1.9539  0.5570  0.7570
   87MOL0     H11949   9.706  10.804  10.628 -0.9775  3.5666  0.1571
   87MOL0     H11950   9.877  10.774  10.674 -0.5781 -2.0429 -0.1666
   87MOL0     H11951   9.747  10.952  10.804 -0.4337  1.2190 -0.3514
   87MOL0     H11952   9.754  11.049  10.649 -0.0895 -1.6389 -2.5065
   87MOL0     H11953  10.020  11.005  10.681  2.0318 -0.6577  1.9133
   87MOL0     H11954   9.922  11.149  10.729  0.6433  0.2555 -1.9442
   87MOL0     H11955   9.813  11.119  10.988 -2.0858 -3.0993  0.4504
   87MOL0     H11956   9.788  10.977  11.235 -0.8003 -2.2737 -1.3755
   87MOL0     H11957   9.928  11.055  11.294 -2.6864  0.0058  1.8158
   87MOL0     H11958  10.030  10.850  11.330 -0.5658  0.8392 -0.3807
   87MOL0     H11959   9.872  10.856  11.408 -4.2705 -1.2805 -1.7631
   87MOL0     H11960   9.761  10.696  11.264 -0.0425 -1.9381 -0.6398
   87MOL0     H11961   9.893  10.689  11.144  0.8311 -0.7558  0.3383
   87MOL0     H11962   9.942  10.509  11.271  1.7645 -1.7063  1.0170
   87MOL0     H11963  10.047  10.616  11.359 -0.4358 -3.3615  1.3887
   87MOL0     H11964   9.703  10.501  11.625 -0.2909  0.2430  0.5242
   87MOL0     H11965   9.623  10.385  11.807  0.0566 -0.9353 -0.4574
   87MOL0     H11966   9.743  10.377  11.945 -0.2013  0.3597  0.2339
   87MOL0     H11967   9.717  10.239  11.838 -0.6581 -0.5661 -1.7901
   87MOL0     H11968  10.374  10.119  11.831  3.3024  1.3840  2.5607
   87MOL0     H11969  10.522  10.010  11.985 -0.9457 -2.8759  1.2917
   87MOL0     H11970  10.413  10.050  12.414  0.2936  1.7158 -3.7601
   87MOL0     H11971  10.351   9.893  12.384  0.6694 -0.4425 -1.7125
   87MOL0     H11972  10.514   9.885  12.577 -1.7368 -2.8383 -2.0358
   87MOL0     H11973  10.596   9.822  12.434  1.6044 -0.0552  1.2650
   87MOL0     H11974  10.614  10.119  12.478 -0.3295 -0.6961 -0.0406
   87MOL0     H11975  10.733  10.012  12.394 -1.7706  2.5248 -2.4077
   87MOL0     H11976  10.841   9.959  12.587  3.4462  4.3033 -0.0111
   87MOL0     H11977  10.693   9.969  12.686  0.4329 -0.7590  0.5202
   87MOL0     H11978  10.886  10.155  12.694  0.5666  0.6132 -0.9415
   87MOL0     H11979  10.827  10.193  12.536  0.8094 -0.1011  0.4480
   87MOL0     H11980  10.600  10.259  12.651 -2.2183  1.9293  3.5322
   87MOL0     H11981  10.743  10.350  12.701 -2.2089  0.4748  0.6723
   87MOL0     H11982  10.724  10.212  12.910  0.0945 -2.2328  1.1254
   87MOL0     H11983  10.603  10.106  12.843 -0.7800 -0.4413 -3.2963
   87MOL0     H11984  10.505  10.286  12.992 -1.5678  0.2495  0.5927
   87MOL0     H11985  10.439  10.301  12.834  0.6768 -1.5037 -0.3399
   87MOL0     H11986  10.242  10.082  12.298  0.1169 -3.9462 -0.1731
   87MOL0     H11987  10.098  10.167  12.158  2.3039  1.5560  4.3988
   87MOL0     H11988  10.175  10.359  11.685 -0.2394 -3.5649 -1.4540
   87MOL0     H11989  10.107  10.470  11.491  1.8874 -2.8051  0.4484
   87MOL0     H11990  10.270  11.259   9.960 -1.1377  2.2669 -2.7017
   87MOL0     H11991  10.280  11.310   9.715 -0.4680  1.6356  2.8349
   87MOL0     H11992  10.252  11.143   9.305 -0.8836  0.7576  0.5202
   87MOL0     H11993  10.296  11.121   9.047 -1.7820 -0.3191  1.4449
   87MOL0     H11994  10.465  11.342   8.901 -1.2316  0.3874 -1.2397
   87MOL0     H11995  10.631  11.284   8.863  1.1779 -3.9495 -0.9470
   87MOL0     H11996  10.496  11.309   8.650  5.3734  0.0745  1.8848
   87MOL0     H11997  10.376  11.187   8.723  0.1070 -1.9860  2.8864
   87MOL0     H11998  10.610  11.041   8.728 -0.5961  0.3072  0.8788
   87MOL0     H11999  10.491  11.039   8.603  0.2565 -0.8456 -0.9115
   87MOL0     H12000  10.733  11.089   8.528 -1.7643  0.2132 -5.7130
   87MOL0     H12001  10.723  11.247   8.601  1.7271 -0.6548 -1.7214
   87MOL0     H12002  10.514  11.272   8.230 -1.2584  0.4531  0.7609
   87MOL0     H12003  10.708  11.197   9.102  0.5065 -1.5027 -0.1895
   87MOL0     H12004  10.775  11.294   9.307 -1.0205 -0.5431 -1.4002
   87MOL0     H12005  10.699  11.273   9.461  2.2780 -0.6065  1.1441
   87MOL0     H12006  10.776  11.131   9.385  0.4857 -0.3491 -0.6210
   88MOL0     O12007   0.494   9.093   0.463 -1.1857 -0.0988 -0.3251
   88MOL0     C12008   0.460   9.126   0.349 -0.3507 -0.9964  0.1145
   88MOL0     O12009   0.493   9.242   0.282  0.1384 -0.3875 -0.9023
   88MOL0     C12010   0.549   9.346   0.347 -0.2634 -0.5174  0.5914
   88MOL0     C12011   0.627   9.437   0.267 -0.5861 -0.7481  0.1883
   88MOL0     C12012   0.672   9.557   0.321 -0.0213 -0.2110  0.0010
   88MOL0     C12013   0.661   9.584   0.460 -0.6972 -0.2455 -0.2579
   88MOL0     O12014   0.714   9.696   0.529  0.2882 -0.0758  0.2589
   88MOL0     C12015   0.861   9.715   0.509 -0.3359  0.0041 -0.4139
   88MOL0     C12016   0.944   9.661   0.621 -0.2084  0.3406 -0.3666
   88MOL0     C12017   0.889   9.684   0.759 -0.3343 -0.5776 -1.0510
   88MOL0     C12018   0.990   9.634   0.865  0.2004 -0.9831  0.1910
   88MOL0     C12019   0.930   9.624   1.005 -0.2999  1.1906  0.3083
   88MOL0     C12020   0.934   9.764   1.079 -0.4094  0.3908 -0.6215
   88MOL0     C12021   0.864   9.760   1.212 -0.0891 -0.6214  0.3556
   88MOL0     C12022   0.848   9.898   1.272  1.0298 -0.3920 -0.0435
   88MOL0     N12023   0.789   9.908   1.407 -0.0174  0.2621 -0.4571
   88MOL0     C12024   0.834   9.840   1.525  0.8820 -0.4562  0.0262
   88MOL0     C12025   0.737   9.868   1.615 -0.1855  0.0738 -0.0993
   88MOL0     C12026   0.736   9.818   1.761  0.0205 -0.2064  0.1431
   88MOL0     C12027   0.606   9.849   1.839  0.7804 -0.8158  0.2894
   88MOL0     C12028   0.627   9.928   1.980  1.1129  0.2415  0.1287
   88MOL0     C12029   0.692  10.065   1.975  0.7010  0.4590  0.8238
   88MOL0     O12030   0.745  10.096   2.107  1.2155 -0.0450  0.3184
   88MOL0     C12031   0.647  10.095   2.201 -0.7953  0.2577  0.6775
   88MOL0     C12032   0.675  10.023   2.320 -0.7191 -0.3263  0.2931
   88MOL0     C12033   0.596  10.023   2.428  0.0202  0.0835  0.2743
   88MOL0     C12034   0.623   9.941   2.557 -0.5453  0.6637 -0.3139
   88MOL0     C12035   0.472  10.101   2.419  0.4618  0.3599 -1.4060
   88MOL0     C12036   0.371  10.093   2.528 -0.4279 -0.6379 -0.4721
   88MOL0     O12037   0.369  10.191   2.624 -0.9480 -0.2619  0.3221
   88MOL0     C12038   0.248  10.244   2.660  0.6310  0.3264 -0.9105
   88MOL0     C12039   0.119  10.212   2.620 -0.5434  0.7371  0.1354
   88MOL0     C12040   0.003  10.277   2.673  0.7160 -0.1988  0.5980
   88MOL0     C12041   0.005  10.389   2.757  0.1379  2.0658  0.7114
   88MOL0     O12042  -0.103  10.449   2.803  0.5513  0.2607 -0.9583
   88MOL0     C12043  -0.115  10.594   2.797  0.5338  0.6169 -0.7703
   88MOL0     C12044  -0.108  10.663   2.668  0.4714 -0.2237  0.5485
   88MOL0     C12045  -0.097  10.810   2.702 -0.0161 -0.5010  0.9266
   88MOL0     C12046  -0.068  10.891   2.574 -1.0677  0.2658  0.6770
   88MOL0     C12047  -0.077  11.037   2.587  0.4404  0.3141 -0.3585
   88MOL0     C12048  -0.052  11.123   2.455  0.6950  0.1995 -0.1984
   88MOL0     C12049   0.071  11.069   2.360  0.2096  0.2364 -1.8551
   88MOL0     C12050   0.201  11.102   2.430 -0.4003 -0.5275  0.3640
   88MOL0    Cl12051   0.330  11.087   2.307  0.0357  0.2199  0.0846
   88MOL0     C12052   0.140  10.433   2.774  0.4197  0.3676 -0.3307
   88MOL0     C12053   0.248  10.361   2.740 -0.1093 -0.0604  0.5002
   88MOL0     O12054   0.315   9.982   2.551 -0.6336  0.0797 -0.0950
   88MOL0     C12055   0.441  10.180   2.304  0.6582 -0.2370  0.5138
   88MOL0     C12056   0.532  10.172   2.200 -0.7599 -0.8976 -0.9367
   88MOL0     N12057   0.632   9.934   1.546 -0.8774  0.3086 -0.9518
   88MOL0     N12058   0.672   9.965   1.426  0.6443  0.3813 -0.4287
   88MOL0     C12059   0.587   9.494   0.543  0.0053 -0.3718 -0.2715
   88MOL0     C12060   0.530   9.379   0.482  0.1587 -0.2584  0.5996
   88MOL0     C12061   0.362   9.044   0.261  0.2254 -0.9330 -0.8232
   88MOL0     C12062   0.282   9.105   0.154  0.4862 -0.8744 -0.1583
   88MOL0     C12063   0.199   9.034   0.067  0.2141 -0.3268 -0.6013
   88MOL0     C12064   0.195   8.898   0.086  0.3044  0.7550  0.1145
   88MOL0     O12065   0.120   8.805   0.008  0.6120  0.1006  0.4743
   88MOL0     C12066   0.116   8.834  -0.132  0.4999 -0.5971  0.5566
   88MOL0     C12067  -0.036   8.850  -0.170  0.6058 -0.1388 -0.0784
   88MOL0     C12068  -0.050   8.925  -0.299 -0.8457 -0.0765  0.6134
   88MOL0     C12069  -0.197   8.961  -0.326  0.9708 -0.0857 -0.0936
   88MOL0     C12070  -0.273   9.051  -0.235 -0.8605  1.5054 -0.1661
   88MOL0     C12071  -0.326   9.120  -0.156  0.0108 -0.8520 -0.0769
   88MOL0     C12072   0.272   8.836   0.188 -0.7553  0.5959 -1.1952
   88MOL0     C12073   0.345   8.905   0.282 -0.6695 -0.6343 -0.1603
   88MOL0     C12074   0.420   8.822   0.380 -0.2961 -0.1764  0.7936
   88MOL0     H12075   0.624   9.433   0.158 -2.3327 -0.8447  0.2047
   88MOL0     H12076   0.723   9.631   0.261  0.1433 -0.5168 -0.2386
   88MOL0     H12077   0.875   9.823   0.495 -0.8765  0.0889 -0.3513
   88MOL0     H12078   0.890   9.679   0.411  3.4854  0.6848  0.3331
   88MOL0     H12079   0.957   9.553   0.604  1.0150  0.7654 -2.5311
   88MOL0     H12080   1.047   9.694   0.604 -0.3666  2.0485  1.6345
   88MOL0     H12081   0.864   9.789   0.778  0.8458 -0.1951 -1.4920
   88MOL0     H12082   0.793   9.632   0.767  0.8290 -2.6331  0.5639
   88MOL0     H12083   1.019   9.534   0.833  1.4086 -0.2975 -0.9425
   88MOL0     H12084   1.085   9.688   0.858  0.2171 -0.9812  0.4300
   88MOL0     H12085   0.976   9.557   1.077 -1.1310 -0.5483 -0.7057
   88MOL0     H12086   0.828   9.586   0.991  0.2786  0.3318 -2.2017
   88MOL0     H12087   1.040   9.789   1.090  0.1568 -1.9187 -0.2326
   88MOL0     H12088   0.879   9.838   1.020 -0.3037 -0.7328 -2.1965
   88MOL0     H12089   0.920   9.690   1.274  2.4400 -0.3064 -1.4355
   88MOL0     H12090   0.766   9.712   1.206 -0.7899  0.2613  3.2927
   88MOL0     H12091   0.945   9.947   1.284  2.6496 -3.5877  1.3724
   88MOL0     H12092   0.786   9.952   1.200  0.3726  1.4148  1.7917
   88MOL0     H12093   0.931   9.793   1.538  0.9058 -0.2214  0.6926
   88MOL0     H12094   0.815   9.873   1.813 -0.6005  2.3528 -1.3907
   88MOL0     H12095   0.757   9.711   1.766 -1.3618 -0.4574  1.1482
   88MOL0     H12096   0.536   9.906   1.779  1.5323 -0.3227 -0.1323
   88MOL0     H12097   0.564   9.753   1.870  1.4943 -0.4203  2.7078
   88MOL0     H12098   0.523   9.939   2.010 -0.3742 -3.0564 -3.1988
   88MOL0     H12099   0.675   9.863   2.055  1.0014 -2.3036 -1.8840
   88MOL0     H12100   0.769  10.071   1.898 -1.2819 -0.0768 -1.3126
   88MOL0     H12101   0.610  10.130   1.943 -0.2830 -2.5396 -3.8716
   88MOL0     H12102   0.769   9.968   2.320 -0.5344 -0.0070  0.0706
   88MOL0     H12103   0.582   9.842   2.536  2.0139 -0.8266  1.1706
   88MOL0     H12104   0.571   9.980   2.645 -0.7779  1.4218 -0.7787
   88MOL0     H12105   0.728   9.932   2.586 -0.4205  0.1967 -0.8991
   88MOL0     H12106   0.096  10.139   2.543 -0.2013 -0.9384  1.5652
   88MOL0     H12107  -0.090  10.232   2.639  0.9344 -0.0653 -0.2017
   88MOL0     H12108  -0.205  10.623   2.853  1.4770  2.5388 -0.1942
   88MOL0     H12109  -0.043  10.637   2.867  0.0574  0.9664 -0.4901
   88MOL0     H12110  -0.013  10.628   2.625 -0.9583 -0.7746 -2.3833
   88MOL0     H12111  -0.194  10.652   2.603 -0.2797  2.3821  0.9958
   88MOL0     H12112  -0.022  10.838   2.777  0.4887 -1.0771  0.6506
   88MOL0     H12113  -0.194  10.847   2.737 -0.7105  1.3266 -2.4581
   88MOL0     H12114  -0.151  10.867   2.507 -2.1682  0.8493  1.7916
   88MOL0     H12115   0.016  10.844   2.522 -1.1678 -0.0150  0.7710
   88MOL0     H12116  -0.177  11.060   2.625  0.7343  0.3388  0.4195
   88MOL0     H12117  -0.005  11.054   2.668 -0.0047 -1.4413  0.4544
   88MOL0     H12118  -0.028  11.226   2.485 -0.7690  0.6917 -0.6134
   88MOL0     H12119  -0.138  11.129   2.387  0.0276 -2.7418  0.2858
   88MOL0     H12120   0.074  11.129   2.268  0.7016  1.0118 -1.3444
   88MOL0     H12121   0.057  10.962   2.346  0.4925 -0.4623  2.0520
   88MOL0     H12122   0.214  11.036   2.516  1.4157 -1.5328 -0.6134
   88MOL0     H12123   0.190  11.202   2.473 -2.2841 -0.4716 -0.1320
   88MOL0     H12124   0.132  10.529   2.824 -3.2394 -0.9946  2.0708
   88MOL0     H12125   0.352  10.389   2.748  0.9582 -2.0819 -3.6895
   88MOL0     H12126   0.354  10.242   2.285  0.9421 -0.5704 -2.4272
   88MOL0     H12127   0.506  10.228   2.111  0.6650  0.6539 -0.4334
   88MOL0     H12128   0.562   9.507   0.648  0.9161 -0.2445 -0.0597
   88MOL0     H12129   0.465   9.321   0.547  1.3536  0.0491  2.1222
   88MOL0     H12130   0.292   9.212   0.135 -0.6157 -0.8085 -0.3953
   88MOL0     H12131   0.146   9.089  -0.010 -0.0941  1.2944  0.7042
   88MOL0     H12132   0.171   8.925  -0.157  0.0394 -0.6414 -0.7394
   88MOL0     H12133   0.167   8.752  -0.184  0.5129 -1.3568  1.7383
   88MOL0     H12134  -0.089   8.899  -0.087  0.8209  1.1626 -0.6748
   88MOL0     H12135  -0.078   8.750  -0.182 -0.7646  0.4449 -0.3239
   88MOL0     H12136   0.011   9.015  -0.311 -1.3226  0.0588 -1.0421
   88MOL0     H12137  -0.015   8.854  -0.375 -1.0736 -1.1952  1.5428
   88MOL0     H12138  -0.265   8.875  -0.331  0.5827  0.1790  0.4565
   88MOL0     H12139  -0.203   9.016  -0.420 -1.6521  0.0758  0.0952
   88MOL0     H12140  -0.388   9.177  -0.091 -1.4571 -0.8159 -1.4608
   88MOL0     H12141   0.262   8.728   0.198 -1.8718  0.8920  2.0876
   88MOL0     H12142   0.379   8.860   0.474 -2.5331  0.8392 -0.4991
   88MOL0     H12143   0.398   8.715   0.381 -0.1029 -0.3861 -2.9265
   88MOL0     H12144   0.523   8.852   0.360 -0.7223  0.7038 -0.1920
   89MOL0     O12145   0.237  11.580   0.319 -0.1077 -0.1256 -0.8595
   89MOL0     C12146   0.228  11.460   0.303  0.7696  0.1817 -0.3726
   89MOL0     O12147   0.327  11.367   0.324 -0.2354 -0.0674  0.1564
   89MOL0     C12148   0.437  11.397   0.401 -0.2559  0.6433 -1.3488
   89MOL0     C12149   0.426  11.448   0.532 -0.2136 -0.3400 -0.1505
   89MOL0     C12150   0.532  11.481   0.615 -0.1565  0.2673 -0.1467
   89MOL0     C12151   0.664  11.461   0.558 -0.9956  0.0138  0.4646
   89MOL0     O12152   0.776  11.520   0.615 -0.6305 -0.0390 -0.0454
   89MOL0     C12153   0.891  11.559   0.536  0.7206 -0.5078 -0.4106
   89MOL0     C12154   0.999  11.625   0.624  0.1737 -0.6629  0.2782
   89MOL0     C12155   1.125  11.666   0.537  0.0764 -0.0836 -0.0889
   89MOL0     C12156   1.085  11.743   0.407  0.3378  0.0468  0.7372
   89MOL0     C12157   1.186  11.844   0.356  0.2683  1.1152 -0.3452
   89MOL0     C12158   1.322  11.776   0.322 -0.2141 -0.0619 -0.5317
   89MOL0     C12159   1.410  11.872   0.229 -0.2296  0.5809  0.3028
   89MOL0     C12160   1.477  11.982   0.316  0.1497  0.0519  0.2939
   89MOL0     N12161   1.590  12.047   0.263  1.2164 -0.5490  0.4042
   89MOL0     C12162   1.581  12.139   0.163 -0.2003  0.0187 -0.4426
   89MOL0     C12163   1.705  12.139   0.105 -0.1324  0.1694  0.0785
   89MOL0     C12164   1.760  12.201  -0.020  0.4138  0.3526  1.0306
   89MOL0     C12165   1.719  12.125  -0.149 -0.1418  0.4383  0.2383
   89MOL0     C12166   1.613  12.206  -0.222  0.3384 -0.4330  0.0629
   89MOL0     C12167   1.601  12.175  -0.378  0.1403 -0.1602  0.2264
   89MOL0     O12168   1.726  12.212  -0.445 -0.3707 -0.5544  0.0740
   89MOL0     C12169   1.720  12.225  -0.581  0.1512 -0.1565  0.3642
   89MOL0     C12170   1.662  12.128  -0.667  0.3499 -0.6584 -0.2221
   89MOL0     C12171   1.638  12.161  -0.802  0.5667 -0.6276 -0.2714
   89MOL0     C12172   1.586  12.045  -0.878  0.3498  1.4229 -0.1291
   89MOL0     C12173   1.675  12.283  -0.855 -0.0099 -0.7985 -1.3521
   89MOL0     C12174   1.639  12.342  -0.995 -0.7206 -0.4777 -0.1372
   89MOL0     O12175   1.733  12.419  -1.050 -0.1164  0.8110 -0.1348
   89MOL0     C12176   1.721  12.478  -1.176  0.9114 -1.0713 -0.5126
   89MOL0     C12177   1.711  12.403  -1.299  0.8893  0.7092 -0.5342
   89MOL0     C12178   1.696  12.465  -1.419 -0.2226  0.0482  0.9234
   89MOL0     C12179   1.685  12.608  -1.425  0.4263 -0.1752  0.9455
   89MOL0     O12180   1.700  12.673  -1.543  0.4082 -0.3321  0.3322
   89MOL0     C12181   1.706  12.598  -1.672 -1.0270  0.0915  0.5631
   89MOL0     C12182   1.852  12.560  -1.702  0.1475  0.4800  0.3146
   89MOL0     C12183   1.869  12.455  -1.806 -0.0809 -0.0580  0.7039
   89MOL0     C12184   1.822  12.490  -1.949  1.3396 -0.0969  0.6133
   89MOL0     C12185   1.697  12.420  -1.999 -0.2299  0.5208  0.5740
   89MOL0     C12186   1.628  12.477  -2.127 -0.0397  0.3352  0.7761
   89MOL0     C12187   1.519  12.579  -2.095  0.8515 -1.5299 -0.4052
   89MOL0     C12188   1.429  12.596  -2.219 -0.4291  0.2832 -1.0853
   89MOL0    Cl12189   1.522  12.594  -2.371 -0.2127 -0.3425 -0.1460
   89MOL0     C12190   1.675  12.677  -1.309  0.2730  0.0265 -0.2882
   89MOL0     C12191   1.690  12.615  -1.183  0.0056  1.1029  0.7041
   89MOL0     O12192   1.528  12.319  -1.049 -0.4155 -0.7765 -0.3665
   89MOL0     C12193   1.746  12.368  -0.774  0.2724  0.6053  0.6458
   89MOL0     C12194   1.768  12.346  -0.640 -0.0051  0.6618 -0.6251
   89MOL0     N12195   1.776  12.038   0.172 -0.0452 -0.7271  0.3562
   89MOL0     N12196   1.705  11.988   0.265 -0.9167  0.0915 -0.7034
   89MOL0     C12197   0.678  11.390   0.437  0.1849 -0.0710  0.9553
   89MOL0     C12198   0.564  11.367   0.359  0.3043  0.2682  0.3240
   89MOL0     C12199   0.098  11.417   0.256 -0.3476 -0.1847  0.1432
   89MOL0     C12200   0.030  11.511   0.168  0.2207 -0.5202  0.0427
   89MOL0     C12201  -0.092  11.472   0.102 -0.5238  0.0967  0.0267
   89MOL0     C12202  -0.141  11.341   0.130 -0.2615 -0.1180  0.4501
   89MOL0     O12203  -0.253  11.289   0.062 -0.0571 -0.1780 -0.4735
   89MOL0     C12204  -0.358  11.223   0.128  1.0441  0.4406  0.0129
   89MOL0     C12205  -0.431  11.111   0.058 -0.1831 -1.1996  0.2411
   89MOL0     C12206  -0.469  10.999   0.153  0.5687 -0.1804  0.4177
   89MOL0     C12207  -0.340  10.925   0.179 -0.3767 -0.6610 -0.2561
   89MOL0     C12208  -0.355  10.813   0.268 -0.8186  0.7281  0.6089
   89MOL0     C12209  -0.368  10.719   0.333  0.3690 -0.1251  0.3712
   89MOL0     C12210  -0.076  11.263   0.231 -0.3463  0.1122 -0.8904
   89MOL0     C12211   0.042  11.292   0.290 -0.2865 -0.2976 -0.8951
   89MOL0     C12212   0.088  11.200   0.402  1.1252  0.8186 -0.5974
   89MOL0     H12213   0.325  11.467   0.566  0.7413  2.1938  1.6107
   89MOL0     H12214   0.526  11.543   0.703  2.6529  1.5987 -0.7753
   89MOL0     H12215   0.863  11.634   0.463  1.2601 -2.2100 -2.4750
   89MOL0     H12216   0.938  11.478   0.479  4.0282  0.8940  0.1127
   89MOL0     H12217   0.954  11.720   0.653  1.3402  0.2632 -0.8638
   89MOL0     H12218   1.031  11.564   0.709  2.1368  1.6832  1.3201
   89MOL0     H12219   1.201  11.716   0.598  0.1222  1.9484 -1.7282
   89MOL0     H12220   1.180  11.577   0.504  2.2956  0.2166  2.4367
   89MOL0     H12221   1.055  11.673   0.329 -0.2454  1.9325 -0.8278
   89MOL0     H12222   0.989  11.797   0.413 -1.6601 -3.0163 -1.1192
   89MOL0     H12223   1.204  11.920   0.432  1.0173  1.5509 -0.9372
   89MOL0     H12224   1.147  11.895   0.267  3.5900  2.0904 -1.4063
   89MOL0     H12225   1.385  11.744   0.405 -0.8928 -1.3685 -0.5044
   89MOL0     H12226   1.300  11.689   0.259 -0.2327 -2.4395  2.5720
   89MOL0     H12227   1.344  11.908   0.149 -0.2570  0.7857  0.4154
   89MOL0     H12228   1.484  11.817   0.170 -0.6752 -0.5986  0.8229
   89MOL0     H12229   1.399  12.058   0.325  1.6405  2.2212 -3.1292
   89MOL0     H12230   1.492  11.941   0.416 -1.1489 -0.2013  0.4056
   89MOL0     H12231   1.488  12.184   0.130 -0.1305 -0.3679 -1.1940
   89MOL0     H12232   1.869  12.208  -0.014  0.6595  0.6590 -2.2039
   89MOL0     H12233   1.724  12.304  -0.021  1.6589  0.8065  1.5726
   89MOL0     H12234   1.804  12.125  -0.218 -0.0627  0.8061  0.3316
   89MOL0     H12235   1.676  12.025  -0.138 -0.1849  0.5460  1.0761
   89MOL0     H12236   1.517  12.195  -0.171  0.2142 -0.7125 -0.2235
   89MOL0     H12237   1.644  12.311  -0.220  1.3802 -0.7161 -0.4657
   89MOL0     H12238   1.585  12.068  -0.396 -0.1602 -0.8035  3.7350
   89MOL0     H12239   1.513  12.232  -0.410  1.3090  2.8897  2.0376
   89MOL0     H12240   1.617  12.034  -0.638 -2.1195  0.1154 -1.3061
   89MOL0     H12241   1.658  11.963  -0.867 -0.5700  0.3373 -1.7029
   89MOL0     H12242   1.577  12.057  -0.987  2.5379 -0.5694 -0.6193
   89MOL0     H12243   1.488  12.013  -0.842  0.0345 -1.1807 -2.8960
   89MOL0     H12244   1.727  12.296  -1.311  0.2168  0.7771 -2.2172
   89MOL0     H12245   1.704  12.402  -1.507  0.0545  2.5079 -0.9224
   89MOL0     H12246   1.640  12.511  -1.662  3.7297 -3.8123  2.5407
   89MOL0     H12247   1.665  12.654  -1.756  1.9832  0.1773 -0.9905
   89MOL0     H12248   1.906  12.653  -1.721  3.6334 -1.5319 -0.4157
   89MOL0     H12249   1.893  12.518  -1.609  0.6093 -4.6898 -1.8953
   89MOL0     H12250   1.822  12.362  -1.772 -1.8601  0.7829  0.6039
   89MOL0     H12251   1.977  12.438  -1.819  1.0067  4.9712  1.2253
   89MOL0     H12252   1.898  12.475  -2.026 -0.8756  2.6612 -2.3683
   89MOL0     H12253   1.814  12.599  -1.947  3.3292  0.1111 -0.4397
   89MOL0     H12254   1.720  12.315  -2.019  2.4087  1.0055  0.7080
   89MOL0     H12255   1.622  12.433  -1.921  0.6256 -2.6516  2.0943
   89MOL0     H12256   1.587  12.391  -2.180 -1.0521  0.8275  0.7428
   89MOL0     H12257   1.712  12.520  -2.183  0.5188 -1.9654 -0.2412
   89MOL0     H12258   1.557  12.669  -2.046 -1.2967 -1.5163  1.3975
   89MOL0     H12259   1.452  12.553  -2.013  0.4309  0.2452 -0.1370
   89MOL0     H12260   1.358  12.678  -2.202 -1.5430 -1.1875  1.9706
   89MOL0     H12261   1.369  12.506  -2.238 -0.3827  0.3172 -1.4035
   89MOL0     H12262   1.659  12.784  -1.316  2.3146  0.4724  0.8549
   89MOL0     H12263   1.687  12.661  -1.085  0.9978  3.7209 -0.4074
   89MOL0     H12264   1.766  12.464  -0.821 -1.0104  0.8966  0.6602
   89MOL0     H12265   1.820  12.415  -0.574 -1.2334  1.1453 -0.1294
   89MOL0     H12266   0.777  11.363   0.401  2.2817  1.6749  4.7877
   89MOL0     H12267   0.566  11.310   0.267  3.7255  0.3767  0.1792
   89MOL0     H12268   0.072  11.609   0.148  1.7445 -1.5391 -2.1512
   89MOL0     H12269  -0.143  11.531   0.027  1.9608  3.2741  0.5956
   89MOL0     H12270  -0.310  11.183   0.218  0.2349 -0.0517  0.2291
   89MOL0     H12271  -0.425  11.294   0.178  1.5796  0.1131  1.2305
   89MOL0     H12272  -0.364  11.077  -0.021  3.4894 -0.6874  2.8702
   89MOL0     H12273  -0.515  11.166   0.014 -0.8707 -2.1709  0.3166
   89MOL0     H12274  -0.502  11.043   0.248  0.3825  1.6587 -0.4652
   89MOL0     H12275  -0.541  10.930   0.108  0.5850 -1.3535  2.0839
   89MOL0     H12276  -0.265  10.995   0.217 -1.0431 -0.1876  0.2104
   89MOL0     H12277  -0.293  10.884   0.089  1.2891  1.3278 -0.3733
   89MOL0     H12278  -0.360  10.630   0.392  1.5040 -0.8024 -0.7613
   89MOL0     H12279  -0.116  11.165   0.254 -1.0492  0.6375  0.1865
   89MOL0     H12280   0.010  11.138   0.448  0.3246  0.3950 -2.4432
   89MOL0     H12281   0.158  11.129   0.357 -0.5210 -0.0539 -1.8924
   89MOL0     H12282   0.137  11.244   0.489 -0.9819 -0.3929  1.3225
   90MOL0     O12283   1.431   2.045   1.390  0.5352  0.4630 -0.3729
   90MOL0     C12284   1.339   2.126   1.384  0.4387  1.1764  0.9595
   90MOL0     O12285   1.352   2.257   1.388 -0.1567 -0.5247  0.5776
   90MOL0     C12286   1.459   2.315   1.327 -0.3345 -0.3567  0.5450
   90MOL0     C12287   1.522   2.427   1.383  0.6468  0.6050  0.0713
   90MOL0     C12288   1.635   2.479   1.317  0.3526 -0.7008  0.0557
   90MOL0     C12289   1.682   2.433   1.205 -0.4231  0.3463  1.4075
   90MOL0     O12290   1.793   2.501   1.156  0.1607 -0.0432  0.5586
   90MOL0     C12291   1.893   2.417   1.105 -0.2734  0.2191 -0.5515
   90MOL0     C12292   2.018   2.514   1.103  1.4022 -0.1822  0.5025
   90MOL0     C12293   2.130   2.441   1.027 -0.5567  0.1926  0.6495
   90MOL0     C12294   2.244   2.538   1.012  0.7866 -0.7413  0.2600
   90MOL0     C12295   2.358   2.482   0.932  1.2990  0.1054  0.5027
   90MOL0     C12296   2.482   2.578   0.911 -0.1527  0.0566  0.2827
   90MOL0     C12297   2.593   2.488   0.838  0.3246 -0.4022  0.1294
   90MOL0     C12298   2.714   2.569   0.782  0.4381  0.4010 -0.9681
   90MOL0     N12299   2.683   2.663   0.676  0.9236  0.4317  0.6726
   90MOL0     C12300   2.569   2.665   0.604 -0.8051 -0.8948  0.2317
   90MOL0     C12301   2.585   2.772   0.519 -0.2389 -0.3368 -1.0293
   90MOL0     C12302   2.484   2.831   0.431 -0.3050 -0.7846  0.1707
   90MOL0     C12303   2.346   2.844   0.490 -0.9812  1.0848 -0.8181
   90MOL0     C12304   2.250   2.936   0.417  0.2889 -0.0634 -0.1850
   90MOL0     C12305   2.239   2.943   0.267 -0.1304  0.1715  0.3251
   90MOL0     O12306   2.239   2.826   0.183 -0.3071 -0.0989  0.0582
   90MOL0     C12307   2.140   2.734   0.186 -0.2710  0.3800  0.6586
   90MOL0     C12308   2.165   2.619   0.117  0.2722 -0.4213  0.4680
   90MOL0     C12309   2.074   2.510   0.096  0.2544  0.7703 -0.7103
   90MOL0     C12310   2.130   2.388   0.032 -0.5787 -0.9135  0.2604
   90MOL0     C12311   1.949   2.519   0.166 -0.3712  0.2764  0.3494
   90MOL0     C12312   1.850   2.414   0.161  0.5459  0.0486  0.0788
   90MOL0     O12313   1.764   2.416   0.273  0.3569  0.5028  0.1692
   90MOL0     C12314   1.686   2.305   0.277 -0.4706  0.1819  0.6723
   90MOL0     C12315   1.733   2.174   0.298 -0.3889  1.0812  0.0663
   90MOL0     C12316   1.651   2.060   0.312  0.1203 -0.3399  0.3643
   90MOL0     C12317   1.514   2.087   0.314  0.4727 -0.5619 -0.1202
   90MOL0     O12318   1.426   1.995   0.357 -0.1383 -0.4458  0.5872
   90MOL0     C12319   1.409   1.890   0.272 -0.5075 -0.2207 -0.0116
   90MOL0     C12320   1.261   1.851   0.252 -0.9198 -0.8222  0.1397
   90MOL0     C12321   1.210   1.795   0.389  0.0084 -1.2247 -0.4930
   90MOL0     C12322   1.063   1.743   0.372 -0.5443  0.4424  1.0863
   90MOL0     C12323   1.012   1.679   0.504  0.4450  0.3489 -1.3410
   90MOL0     C12324   0.855   1.681   0.523 -0.2446  0.0291 -0.2271
   90MOL0     C12325   0.807   1.821   0.544  1.1627 -1.0601  0.1533
   90MOL0     C12326   0.650   1.838   0.522 -0.3504  0.1198 -0.6320
   90MOL0    Cl12327   0.599   1.770   0.365 -0.4196  0.0592 -0.5570
   90MOL0     C12328   1.471   2.218   0.295 -0.1292 -0.7704 -1.3104
   90MOL0     C12329   1.552   2.330   0.283 -0.5051 -0.0719  0.7256
   90MOL0     O12330   1.850   2.337   0.064  0.5468 -0.6717 -0.7630
   90MOL0     C12331   1.919   2.639   0.232 -0.4031 -0.8458  0.3532
   90MOL0     C12332   2.012   2.745   0.248 -0.1170  0.1643 -0.0007
   90MOL0     N12333   2.716   2.814   0.526  0.3749 -0.3917 -0.1020
   90MOL0     N12334   2.772   2.754   0.630 -0.0330  0.4742  0.8605
   90MOL0     C12335   1.616   2.325   1.140 -0.4410 -0.2054  0.3555
   90MOL0     C12336   1.507   2.272   1.200 -0.3730  0.4419 -0.2403
   90MOL0     C12337   1.203   2.070   1.382 -0.4304  0.6203 -0.0268
   90MOL0     C12338   1.117   2.116   1.282  0.5489 -0.1068 -0.2538
   90MOL0     C12339   0.980   2.076   1.258  0.1140 -0.2166  0.1680
   90MOL0     C12340   0.931   1.990   1.353 -0.5871  0.2310 -0.2505
   90MOL0     O12341   0.801   1.943   1.333  0.1771 -0.0648  0.2750
   90MOL0     C12342   0.708   1.986   1.437 -0.2227  0.3816 -0.1716
   90MOL0     C12343   0.695   2.135   1.442 -0.0741  0.5864 -0.2399
   90MOL0     C12344   0.647   2.207   1.308  0.0042  0.2729 -0.5699
   90MOL0     C12345   0.676   2.360   1.300 -0.5749 -0.0663 -0.1198
   90MOL0     C12346   0.577   2.399   1.194 -0.0633 -0.4093  0.1503
   90MOL0     C12347   0.497   2.434   1.102 -0.1269 -0.2613  0.3894
   90MOL0     C12348   1.007   1.940   1.453  0.4297 -0.0951  0.7039
   90MOL0     C12349   1.149   1.974   1.465  1.6991  0.3452 -0.3801
   90MOL0     C12350   1.221   1.922   1.585 -1.0367  0.6697 -0.1630
   90MOL0     H12351   1.494   2.482   1.473 -2.6094  3.0081 -2.1789
   90MOL0     H12352   1.663   2.578   1.351 -1.6630 -0.1986  0.3635
   90MOL0     H12353   1.858   2.383   1.007 -0.4923 -3.4779  0.6467
   90MOL0     H12354   1.896   2.327   1.167 -3.7919 -0.8982 -1.8097
   90MOL0     H12355   1.994   2.606   1.048  2.7740  0.8018  1.4468
   90MOL0     H12356   2.052   2.555   1.199  2.5411 -0.0818  0.0734
   90MOL0     H12357   2.164   2.365   1.098  4.1493 -1.2140 -2.6585
   90MOL0     H12358   2.094   2.398   0.933 -0.3294  0.0576  0.6242
   90MOL0     H12359   2.214   2.639   0.982 -2.7122 -2.4269 -2.6585
   90MOL0     H12360   2.283   2.542   1.114  3.6333 -1.0753 -0.7213
   90MOL0     H12361   2.306   2.455   0.840 -4.9599  0.0927  3.5364
   90MOL0     H12362   2.389   2.389   0.980  0.8192  1.7930  4.4655
   90MOL0     H12363   2.436   2.652   0.845 -2.3729 -1.0629  0.4794
   90MOL0     H12364   2.525   2.620   1.002  0.7417  1.5021 -0.7551
   90MOL0     H12365   2.540   2.437   0.758  1.8120 -3.2672  0.8144
   90MOL0     H12366   2.613   2.400   0.900  0.3210 -0.6452 -0.2121
   90MOL0     H12367   2.783   2.617   0.853  0.2126 -0.5407 -0.0954
   90MOL0     H12368   2.772   2.498   0.723 -0.6966 -0.5658 -0.9425
   90MOL0     H12369   2.491   2.591   0.596 -3.4833  1.5140  2.1325
   90MOL0     H12370   2.474   2.774   0.338 -1.8154 -2.3711  1.2272
   90MOL0     H12371   2.523   2.932   0.422 -0.6527 -0.4268  2.0781
   90MOL0     H12372   2.308   2.742   0.481  3.5238 -0.6337 -5.5843
   90MOL0     H12373   2.350   2.877   0.594 -2.6374 -1.9555  0.3709
   90MOL0     H12374   2.151   2.920   0.459  0.2758 -0.0024 -0.1938
   90MOL0     H12375   2.279   3.037   0.446  1.2934 -0.2786 -0.3777
   90MOL0     H12376   2.149   3.005   0.259 -0.1853  0.2241  1.2706
   90MOL0     H12377   2.320   2.993   0.214 -1.2619 -0.0089 -1.7220
   90MOL0     H12378   2.261   2.618   0.065  0.3727 -0.4207  0.6550
   90MOL0     H12379   2.119   2.306   0.104 -0.9967 -0.5295  0.6443
   90MOL0     H12380   2.237   2.382   0.015 -0.4732 -0.8773  0.8754
   90MOL0     H12381   2.091   2.361  -0.067  1.9070  5.7857 -3.1732
   90MOL0     H12382   1.841   2.172   0.284 -0.6442  0.4764 -2.0023
   90MOL0     H12383   1.685   1.958   0.330 -1.3659 -0.9095  0.0704
   90MOL0     H12384   1.440   1.920   0.171  2.7128 -2.6562  0.1100
   90MOL0     H12385   1.454   1.794   0.297 -2.0846 -1.4422 -1.5658
   90MOL0     H12386   1.203   1.942   0.233  1.8233  1.2361  1.0696
   90MOL0     H12387   1.240   1.778   0.173 -4.3161  0.2785 -0.1526
   90MOL0     H12388   1.218   1.869   0.469  0.0585 -0.6236 -1.0394
   90MOL0     H12389   1.271   1.710   0.420  0.5000 -0.1682  1.6228
   90MOL0     H12390   1.072   1.651   0.312  0.6638 -0.4873  2.6139
   90MOL0     H12391   1.014   1.836   0.344  0.2167  1.3073  2.4854
   90MOL0     H12392   1.041   1.574   0.497  1.6032  0.7441 -3.7474
   90MOL0     H12393   1.059   1.727   0.591  0.2358 -0.1073 -0.9717
   90MOL0     H12394   0.822   1.610   0.599 -0.3059  0.2498 -0.0488
   90MOL0     H12395   0.813   1.647   0.428 -0.2392 -3.8135  0.9758
   90MOL0     H12396   0.840   1.889   0.465 -2.4857  1.8247  0.8066
   90MOL0     H12397   0.838   1.852   0.644 -1.1930 -1.2485  1.0066
   90MOL0     H12398   0.625   1.944   0.512 -1.6854 -0.1928 -0.7305
   90MOL0     H12399   0.595   1.788   0.603  3.3713 -1.6189  1.0901
   90MOL0     H12400   1.365   2.240   0.288  0.3828  2.1952 -1.0186
   90MOL0     H12401   1.506   2.423   0.253 -1.0398 -1.3787 -3.1396
   90MOL0     H12402   1.824   2.659   0.281 -0.7653  1.6627 -1.1818
   90MOL0     H12403   1.997   2.839   0.300  0.4708  0.1683  0.1646
   90MOL0     H12404   1.646   2.285   1.044 -2.0732 -2.3737  0.6811
   90MOL0     H12405   1.464   2.187   1.147  5.2858 -0.8920 -3.4387
   90MOL0     H12406   1.163   2.185   1.212 -1.0909  1.8073  0.4686
   90MOL0     H12407   0.912   2.110   1.181 -2.3472 -0.5844  2.0392
   90MOL0     H12408   0.607   1.945   1.431 -0.8919  1.7649  1.0204
   90MOL0     H12409   0.741   1.961   1.538 -3.1064  3.0789  1.6377
   90MOL0     H12410   0.785   2.190   1.469  0.0046  0.1751  0.3492
   90MOL0     H12411   0.608   2.156   1.506 -0.4186  1.7413 -1.0393
   90MOL0     H12412   0.679   2.156   1.217  3.1948  2.6944 -0.9567
   90MOL0     H12413   0.538   2.198   1.299  0.0270 -3.9605  1.1737
   90MOL0     H12414   0.773   2.388   1.257 -1.3311  0.8143 -1.3115
   90MOL0     H12415   0.658   2.417   1.391  1.8895  1.3663 -0.4379
   90MOL0     H12416   0.416   2.480   1.048  0.2834 -0.3006 -0.2722
   90MOL0     H12417   0.956   1.867   1.515 -1.4132 -0.3685 -1.0076
   90MOL0     H12418   1.225   1.991   1.670 -3.6453 -0.2094  0.7660
   90MOL0     H12419   1.164   1.838   1.626 -1.3090  0.7477 -0.3832
   90MOL0     H12420   1.322   1.890   1.557 -1.7659 -4.1725  1.6833
   91MOL0     O12421   6.962   5.480   5.878  0.6275  1.3261 -0.3808
   91MOL0     C12422   7.018   5.571   5.816  1.0539 -0.4298 -0.0822
   91MOL0     O12423   6.982   5.612   5.689 -0.0026 -0.0662  0.2613
   91MOL0     C12424   6.961   5.520   5.593  0.1925 -0.3709  0.2781
   91MOL0     C12425   6.952   5.380   5.600 -0.1712  0.3027  0.8318
   91MOL0     C12426   6.910   5.312   5.481 -0.3568 -0.6279  0.3119
   91MOL0     C12427   6.883   5.382   5.360  0.1421  0.1522 -0.3133
   91MOL0     O12428   6.853   5.310   5.252 -0.6636  0.1864 -0.6577
   91MOL0     C12429   6.953   5.215   5.204 -0.0987 -0.9690  0.6905
   91MOL0     C12430   6.882   5.083   5.185 -0.3879 -0.5871  0.0886
   91MOL0     C12431   6.758   5.090   5.097 -0.4529  0.6807 -0.8383
   91MOL0     C12432   6.648   4.991   5.143  0.1481  0.9382 -0.9730
   91MOL0     C12433   6.524   5.059   5.212 -0.5468  0.1825 -0.2846
   91MOL0     C12434   6.409   4.959   5.225 -0.7906  0.5877 -0.6234
   91MOL0     C12435   6.455   4.844   5.312  0.4454  0.9219  0.5023
   91MOL0     C12436   6.341   4.748   5.309  0.8911  0.3329 -0.3713
   91MOL0     N12437   6.369   4.651   5.414  0.1573 -0.5926  0.7629
   91MOL0     C12438   6.324   4.653   5.546 -0.2437 -0.3583  0.0558
   91MOL0     C12439   6.380   4.533   5.595  0.2448 -0.6769  0.2882
   91MOL0     C12440   6.360   4.477   5.733 -0.6759  0.7221 -0.0218
   91MOL0     C12441   6.229   4.390   5.742  0.4783 -0.3369 -0.6436
   91MOL0     C12442   6.172   4.338   5.876  0.3361 -0.9184 -0.4963
   91MOL0     C12443   6.284   4.274   5.960 -0.4164  0.3384 -0.0415
   91MOL0     O12444   6.324   4.164   5.880 -0.3485 -0.6578 -0.5145
   91MOL0     C12445   6.453   4.122   5.864  0.5724 -0.1005  0.0799
   91MOL0     C12446   6.469   4.024   5.756 -0.1256 -0.4344 -0.2984
   91MOL0     C12447   6.600   3.960   5.734 -1.0406  0.1852  0.2827
   91MOL0     C12448   6.619   3.879   5.615  0.5914  0.3377  0.5151
   91MOL0     C12449   6.694   3.968   5.833 -0.0391 -0.2874  0.6785
   91MOL0     C12450   6.823   3.892   5.842 -0.4182 -0.5632  0.8653
   91MOL0     O12451   6.941   3.945   5.910 -0.4348  0.0939 -0.2669
   91MOL0     C12452   7.060   3.879   5.898  1.0845  0.5134  0.4757
   91MOL0     C12453   7.080   3.741   5.893 -0.2920  0.0924  0.0766
   91MOL0     C12454   7.210   3.700   5.858 -0.0888 -0.5168  0.0399
   91MOL0     C12455   7.322   3.792   5.844  0.2974  0.0268  0.0152
   91MOL0     O12456   7.443   3.737   5.838 -0.4976 -1.1183 -0.0964
   91MOL0     C12457   7.542   3.808   5.922  0.0861  0.7900  0.2211
   91MOL0     C12458   7.667   3.828   5.834  0.5024 -0.3409 -0.2772
   91MOL0     C12459   7.655   3.919   5.705 -0.1161 -0.1301  0.3586
   91MOL0     C12460   7.787   3.910   5.626  0.1518 -0.2992 -0.4390
   91MOL0     C12461   7.768   4.002   5.506 -0.6433  0.9826 -0.2040
   91MOL0     C12462   7.803   4.143   5.542  0.8196  0.4723 -0.0143
   91MOL0     C12463   7.839   4.229   5.426 -0.3328 -0.9508 -0.4494
   91MOL0     C12464   7.877   4.367   5.481 -0.7901 -0.7483 -1.0214
   91MOL0    Cl12465   7.760   4.439   5.583 -0.2171 -0.3319  0.3004
   91MOL0     C12466   7.299   3.923   5.843 -0.4626 -0.3495  0.6071
   91MOL0     C12467   7.167   3.964   5.878  0.2933  0.6212 -0.4344
   91MOL0     O12468   6.819   3.798   5.777 -1.1212  0.2822  0.6936
   91MOL0     C12469   6.669   4.043   5.948 -0.0481 -1.0876  0.2913
   91MOL0     C12470   6.548   4.117   5.966 -0.3680 -0.4655 -0.0797
   91MOL0     N12471   6.447   4.475   5.497  0.6023  0.0231 -0.0888
   91MOL0     N12472   6.437   4.531   5.382  0.2053  0.6443 -0.3979
   91MOL0     C12473   6.894   5.518   5.364  1.3857  0.1755  0.5616
   91MOL0     C12474   6.928   5.587   5.476  0.5947 -0.2048  0.0168
   91MOL0     C12475   7.138   5.651   5.863 -0.1726 -0.8348  0.8214
   91MOL0     C12476   7.186   5.769   5.798  0.8035 -0.2051  0.5130
   91MOL0     C12477   7.282   5.847   5.850  0.6101  0.1962  0.8089
   91MOL0     C12478   7.338   5.822   5.978 -0.1206 -1.2166  0.2933
   91MOL0     O12479   7.411   5.915   6.049 -0.2723  0.1554 -0.5372
   91MOL0     C12480   7.412   6.056   6.014 -0.7677  0.7371  0.2988
   91MOL0     C12481   7.341   6.125   6.135  0.4329 -0.4413  0.3423
   91MOL0     C12482   7.370   6.281   6.139 -0.1990 -0.2333  0.2585
   91MOL0     C12483   7.505   6.313   6.202 -0.5241 -0.3388 -0.4978
   91MOL0     C12484   7.542   6.459   6.195 -0.9426 -0.2362  0.4113
   91MOL0     C12485   7.537   6.583   6.176  0.3496 -0.0207  0.6765
   91MOL0     C12486   7.315   5.696   6.026 -0.1532  0.0660  0.0725
   91MOL0     C12487   7.213   5.611   5.968  0.7731 -0.6366 -0.3606
   91MOL0     C12488   7.189   5.493   6.058 -0.0949  0.3134  0.3017
   91MOL0     H12489   6.964   5.326   5.693  0.1069  1.3115  1.3806
   91MOL0     H12490   6.902   5.204   5.490 -0.5559 -0.6065  0.3993
   91MOL0     H12491   7.036   5.213   5.275  3.0972 -0.5462 -2.7176
   91MOL0     H12492   6.985   5.256   5.108  2.6638 -2.1733  1.0136
   91MOL0     H12493   6.952   5.004   5.156 -1.2127 -2.0735  1.8879
   91MOL0     H12494   6.849   5.045   5.283 -0.2531 -1.1451 -0.0750
   91MOL0     H12495   6.715   5.190   5.087 -0.7419  0.5086 -1.3511
   91MOL0     H12496   6.790   5.041   5.005  0.4195  1.9089 -1.2145
   91MOL0     H12497   6.603   4.938   5.059 -4.7945  1.8585  0.7234
   91MOL0     H12498   6.694   4.921   5.213  0.0505 -1.1573 -2.8834
   91MOL0     H12499   6.489   5.141   5.148 -2.5223 -0.3207  0.0804
   91MOL0     H12500   6.540   5.112   5.306 -2.7273  2.7161 -1.2085
   91MOL0     H12501   6.332   5.006   5.286 -0.4728  0.5438 -0.1836
   91MOL0     H12502   6.368   4.940   5.125  1.9772  0.5460 -1.8635
   91MOL0     H12503   6.477   4.883   5.411 -2.5824  2.9332  0.5157
   91MOL0     H12504   6.540   4.802   5.257  1.0196  1.5432  0.9069
   91MOL0     H12505   6.243   4.794   5.328 -1.2046 -3.3538 -1.1822
   91MOL0     H12506   6.332   4.709   5.207  0.1133  1.5126 -0.7750
   91MOL0     H12507   6.251   4.722   5.588 -0.3679  0.5846 -1.5868
   91MOL0     H12508   6.366   4.555   5.809 -1.0409  2.2765 -1.5276
   91MOL0     H12509   6.446   4.416   5.765 -1.7797 -0.4014  0.9215
   91MOL0     H12510   6.153   4.449   5.690  0.8806  0.9995  0.2304
   91MOL0     H12511   6.244   4.307   5.673  0.7659  0.0189 -1.0110
   91MOL0     H12512   6.139   4.429   5.927  1.6955 -3.5769  6.0930
   91MOL0     H12513   6.090   4.266   5.874  0.1487 -1.0993  3.8064
   91MOL0     H12514   6.366   4.345   5.971  0.5820 -0.5426 -1.3455
   91MOL0     H12515   6.247   4.243   6.058 -2.4706 -0.4725 -1.0133
   91MOL0     H12516   6.394   4.015   5.677 -0.5804 -1.8015  0.2704
   91MOL0     H12517   6.634   3.772   5.633  1.8210  0.1962 -1.1639
   91MOL0     H12518   6.707   3.913   5.561 -0.5332  2.3234 -0.1722
   91MOL0     H12519   6.538   3.885   5.542 -0.4938 -0.1132  1.6217
   91MOL0     H12520   7.004   3.664   5.905 -0.2809  0.3022  1.8032
   91MOL0     H12521   7.230   3.593   5.863 -1.8263 -0.8533  0.8852
   91MOL0     H12522   7.501   3.899   5.964 -2.0766 -0.2499  0.4912
   91MOL0     H12523   7.564   3.739   6.004  1.6649  1.7589  0.6591
   91MOL0     H12524   7.743   3.874   5.898  0.8037  2.1569 -2.2601
   91MOL0     H12525   7.706   3.734   5.795 -4.3584 -2.9348  0.3815
   91MOL0     H12526   7.648   4.024   5.735  3.8902 -0.0931  1.8726
   91MOL0     H12527   7.579   3.884   5.635  1.8892 -2.6927 -0.7337
   91MOL0     H12528   7.795   3.805   5.600 -4.1501 -0.5289 -1.7240
   91MOL0     H12529   7.871   3.933   5.692  1.8406 -2.1184 -1.8732
   91MOL0     H12530   7.831   3.984   5.418 -0.9238 -1.7528  0.0833
   91MOL0     H12531   7.663   3.998   5.475 -0.6837 -3.5800 -0.0888
   91MOL0     H12532   7.892   4.141   5.606  2.9344 -1.5877 -2.7994
   91MOL0     H12533   7.719   4.183   5.600  0.4599 -3.0734  2.2123
   91MOL0     H12534   7.755   4.252   5.361  0.2390  4.3988  0.2403
   91MOL0     H12535   7.927   4.195   5.370 -0.1507  3.1654 -3.0578
   91MOL0     H12536   7.914   4.424   5.395  0.6641 -0.6624 -0.3819
   91MOL0     H12537   7.970   4.356   5.538 -2.4230 -2.3086  1.5219
   91MOL0     H12538   7.379   3.993   5.823  0.2035 -1.1148  0.5459
   91MOL0     H12539   7.152   4.068   5.905 -1.9390  0.1520  0.3919
   91MOL0     H12540   6.755   4.041   6.014  1.5771 -5.5365 -1.5175
   91MOL0     H12541   6.529   4.180   6.053 -0.5119  0.6206 -0.8837
   91MOL0     H12542   6.861   5.567   5.272 -1.7039  0.6963  1.7879
   91MOL0     H12543   6.935   5.696   5.471  0.0481 -0.1089  1.0346
   91MOL0     H12544   7.148   5.784   5.698  1.4209 -2.6515 -0.1639
   91MOL0     H12545   7.307   5.935   5.792 -0.3646 -1.5621 -2.4831
   91MOL0     H12546   7.517   6.087   6.021 -0.2137 -0.7870 -0.6368
   91MOL0     H12547   7.372   6.085   5.916  0.3396  1.2090 -0.0278
   91MOL0     H12548   7.356   6.070   6.228 -0.2479  0.2174  0.8497
   91MOL0     H12549   7.237   6.124   6.101  0.8411  1.9722 -1.2547
   91MOL0     H12550   7.368   6.333   6.042 -2.8035 -0.5230  0.0884
   91MOL0     H12551   7.282   6.332   6.179  3.0344  4.2183  2.5885
   91MOL0     H12552   7.584   6.251   6.159  0.2533 -1.4015  2.2535
   91MOL0     H12553   7.508   6.276   6.304 -2.3927 -1.4569 -0.7963
   91MOL0     H12554   7.539   6.690   6.164  0.1318 -0.0958 -0.1251
   91MOL0     H12555   7.370   5.674   6.117  0.9323 -1.0026 -0.8043
   91MOL0     H12556   7.122   5.522   6.139 -1.5275  2.6077 -1.5739
   91MOL0     H12557   7.157   5.404   6.004  2.0259  0.7773 -1.8969
   91MOL0     H12558   7.283   5.469   6.110  1.4430 -0.2360 -2.5419
   92MOL0     O12559   9.919   3.099  11.189  0.1095  0.2364 -0.0830
   92MOL0     C12560   9.797   3.101  11.212  0.4217  0.1927  0.2790
   92MOL0     O12561   9.705   3.116  11.115 -0.7292  0.3743 -0.3954
   92MOL0     C12562   9.740   3.158  10.989 -0.0310  0.2360  0.2677
   92MOL0     C12563   9.787   3.070  10.891  0.8497 -0.8777  1.0200
   92MOL0     C12564   9.835   3.119  10.764  0.7037  0.7957 -0.1942
   92MOL0     C12565   9.856   3.258  10.755  0.2273 -0.4261  1.0152
   92MOL0     O12566   9.916   3.317  10.642  1.0805 -0.3556 -0.1452
   92MOL0     C12567   9.945   3.238  10.529 -0.3000 -0.1453 -0.2521
   92MOL0     C12568   9.993   3.320  10.409 -0.3036 -1.0697  0.3966
   92MOL0     C12569   9.878   3.408  10.350 -0.0586  0.0280 -0.3207
   92MOL0     C12570   9.853   3.392  10.208 -0.3287 -0.4371  0.0299
   92MOL0     C12571   9.748   3.497  10.174  0.4857  0.4878 -0.4579
   92MOL0     C12572   9.737   3.498  10.022  0.7059  0.3357  0.2337
   92MOL0     C12573   9.642   3.609   9.962 -0.0110  0.2483  0.0660
   92MOL0     C12574   9.629   3.594   9.813  0.3967 -1.2700  0.5882
   92MOL0     N12575   9.753   3.644   9.751  0.3332  0.0745  0.7757
   92MOL0     C12576   9.825   3.755   9.775 -0.4139  0.4400 -0.2238
   92MOL0     C12577   9.936   3.739   9.694 -0.0915  0.3345 -0.7076
   92MOL0     C12578  10.045   3.839   9.683 -0.0360  0.0909 -0.8696
   92MOL0     C12579  10.123   3.839   9.816  0.0514 -0.1020 -0.4591
   92MOL0     C12580  10.211   3.968   9.820  0.0676 -0.0894  0.0097
   92MOL0     C12581  10.131   4.101   9.800 -0.6693  0.2681 -0.7972
   92MOL0     O12582  10.204   4.223   9.845 -0.1785  0.0134  0.6376
   92MOL0     C12583  10.126   4.334   9.843 -0.7668  0.4628 -0.2035
   92MOL0     C12584  10.178   4.445   9.914  0.4943 -0.2331  0.2440
   92MOL0     C12585  10.116   4.568   9.929  0.6917  0.6226 -0.5246
   92MOL0     C12586  10.196   4.679   9.984  0.0727  0.0054 -0.2185
   92MOL0     C12587   9.982   4.576   9.892 -0.0096  0.0690  0.4473
   92MOL0     C12588   9.892   4.703   9.899  0.8842  0.9407 -0.6843
   92MOL0     O12589   9.776   4.711   9.816 -0.1141 -0.2965  0.9527
   92MOL0     C12590   9.693   4.818   9.823 -1.1328  0.1912 -0.5871
   92MOL0     C12591   9.633   4.850   9.948 -0.8529  0.5654 -0.8164
   92MOL0     C12592   9.559   4.963   9.965  1.4687 -0.6568  0.0864
   92MOL0     C12593   9.537   5.050   9.856  0.0961  0.0270 -1.1677
   92MOL0     O12594   9.471   5.169   9.860  0.2405  0.3955 -0.7471
   92MOL0     C12595   9.430   5.210   9.988 -1.1550  0.4383 -0.5432
   92MOL0     C12596   9.340   5.336   9.977  0.6830 -0.4909 -0.2609
   92MOL0     C12597   9.341   5.424  10.100  0.2358  0.8592 -0.8762
   92MOL0     C12598   9.221   5.415  10.197  0.1921  0.5522 -0.6329
   92MOL0     C12599   9.079   5.423  10.123 -0.7761 -0.7944  0.5039
   92MOL0     C12600   8.961   5.477  10.211  0.1706  1.0365 -0.0777
   92MOL0     C12601   8.831   5.490  10.137  0.8280  0.8302  0.1960
   92MOL0     C12602   8.709   5.555  10.220  0.5874  0.8277  0.5380
   92MOL0    Cl12603   8.563   5.590  10.122 -0.3087  0.1542  0.2921
   92MOL0     C12604   9.584   5.014   9.730 -0.6561 -0.0657 -0.7143
   92MOL0     C12605   9.655   4.895   9.713  0.4621  0.4875 -1.2390
   92MOL0     O12606   9.920   4.776   9.986  0.4996 -0.1239  0.2691
   92MOL0     C12607   9.929   4.471   9.816 -0.2754 -0.3637 -0.7532
   92MOL0     C12608  10.000   4.356   9.780 -0.0812  0.5751  0.2138
   92MOL0     N12609   9.927   3.613   9.628  0.4089  1.0432 -0.6239
   92MOL0     N12610   9.816   3.559   9.666 -0.3524  1.2498  1.1759
   92MOL0     C12611   9.811   3.342  10.856  0.2563  0.3581  0.1278
   92MOL0     C12612   9.737   3.290  10.963 -0.6869 -1.1280  0.4403
   92MOL0     C12613   9.756   3.059  11.349 -1.1127 -0.5869  0.1875
   92MOL0     C12614   9.867   3.023  11.434  0.4414 -0.5210  0.3078
   92MOL0     C12615   9.834   2.988  11.563 -0.7487 -0.6061 -0.1305
   92MOL0     C12616   9.699   2.973  11.608 -0.1579  0.0519  0.6598
   92MOL0     O12617   9.686   2.925  11.738  0.0387  0.2466 -0.0774
   92MOL0     C12618   9.560   2.917  11.796  0.0454  0.6138 -1.0212
   92MOL0     C12619   9.580   2.902  11.940 -0.4100  0.3330  0.2777
   92MOL0     C12620   9.649   3.023  12.014 -0.0106  0.3731 -0.1737
   92MOL0     C12621   9.710   2.990  12.153 -0.3693  0.1077 -0.2749
   92MOL0     C12622   9.593   2.996  12.244 -0.4771  0.7999  0.2647
   92MOL0     C12623   9.507   2.995  12.324  0.0661  0.2369 -0.2693
   92MOL0     C12624   9.595   2.998  11.516  0.0787  0.7090 -0.3263
   92MOL0     C12625   9.623   3.049  11.393  0.4983  0.3095  1.0494
   92MOL0     C12626   9.488   3.078  11.315 -1.0372  0.1768 -0.4811
   92MOL0     H12627   9.793   2.964  10.915 -0.2290 -1.7944 -2.2079
   92MOL0     H12628   9.866   3.054  10.684 -2.8443  0.8290 -1.7797
   92MOL0     H12629   9.858   3.174  10.509 -0.3585 -0.2064  0.1958
   92MOL0     H12630  10.031   3.175  10.553  0.1383 -0.2070 -1.8220
   92MOL0     H12631  10.075   3.383  10.444  1.9121 -3.3274 -0.3455
   92MOL0     H12632  10.019   3.252  10.327 -0.8973 -0.0400 -0.6810
   92MOL0     H12633   9.782   3.377  10.393 -1.6831  2.3310 -2.0149
   92MOL0     H12634   9.886   3.513  10.378 -3.1308  0.0182  1.0112
   92MOL0     H12635   9.947   3.410  10.155 -1.0752  0.6244 -0.9684
   92MOL0     H12636   9.811   3.293  10.188 -1.6576  0.6836 -3.3462
   92MOL0     H12637   9.791   3.593  10.202  1.6525 -0.1934  0.1925
   92MOL0     H12638   9.657   3.481  10.234  1.9085  1.6579  2.1928
   92MOL0     H12639   9.836   3.508   9.976  0.4088 -0.9708 -0.7465
   92MOL0     H12640   9.693   3.406   9.983 -5.1729  1.7650  2.4682
   92MOL0     H12641   9.693   3.703   9.988 -1.2875  0.2738  2.7428
   92MOL0     H12642   9.541   3.601  10.002 -0.5826 -2.7321 -1.7070
   92MOL0     H12643   9.600   3.497   9.771  1.9489 -1.7007  0.4550
   92MOL0     H12644   9.556   3.669   9.780 -0.4667 -2.2148  0.2971
   92MOL0     H12645   9.797   3.843   9.832 -0.9914 -0.5784  1.1601
   92MOL0     H12646  10.002   3.938   9.665 -0.8103  0.4777  2.4704
   92MOL0     H12647  10.113   3.807   9.603  3.4872  2.7540  0.8402
   92MOL0     H12648  10.046   3.845   9.893  0.1880  0.3966 -0.3587
   92MOL0     H12649  10.180   3.746   9.827 -0.6121 -0.7820 -2.2945
   92MOL0     H12650  10.253   3.976   9.920  0.3659 -0.4544 -0.0853
   92MOL0     H12651  10.296   3.950   9.753 -0.2546  0.6878 -0.6228
   92MOL0     H12652  10.118   4.105   9.692 -1.4666  0.5182 -0.6955
   92MOL0     H12653  10.031   4.094   9.843 -1.7243 -1.1098 -3.2636
   92MOL0     H12654  10.282   4.445   9.943  0.6415  1.2792 -0.1995
   92MOL0     H12655  10.195   4.698  10.091  1.7777 -2.7195  0.3933
   92MOL0     H12656  10.160   4.770   9.935 -2.5402 -0.7789  0.1192
   92MOL0     H12657  10.297   4.675   9.941 -1.3495 -1.6435 -3.8749
   92MOL0     H12658   9.663   4.793  10.035 -2.8511 -2.1668 -1.7502
   92MOL0     H12659   9.512   4.972  10.062 -3.0973  1.2913 -2.0064
   92MOL0     H12660   9.364   5.133  10.029 -3.2444  1.6329 -1.5495
   92MOL0     H12661   9.518   5.251  10.040 -0.2329  0.3255 -1.9575
   92MOL0     H12662   9.386   5.395   9.897  2.4501  0.3904  1.3326
   92MOL0     H12663   9.242   5.301   9.942  0.8155 -1.1467  0.0157
   92MOL0     H12664   9.333   5.523  10.055 -1.9245  0.0296 -2.4699
   92MOL0     H12665   9.438   5.419  10.151 -0.5131 -2.6521  0.4397
   92MOL0     H12666   9.228   5.493  10.273 -1.1937  1.1752 -1.1159
   92MOL0     H12667   9.240   5.323  10.253 -1.7180  0.9402  0.7662
   92MOL0     H12668   9.100   5.485  10.035  1.2296 -2.8634 -0.5631
   92MOL0     H12669   9.046   5.326  10.086 -1.3037 -1.0265  1.5403
   92MOL0     H12670   8.985   5.576  10.253  2.8458  0.8011 -0.8635
   92MOL0     H12671   8.953   5.404  10.292 -0.2518 -0.0970 -1.1282
   92MOL0     H12672   8.810   5.387  10.108  1.3043  0.4151  1.2594
   92MOL0     H12673   8.843   5.553  10.049 -1.7082  0.3648 -0.5587
   92MOL0     H12674   8.746   5.649  10.264 -0.4973  0.8366  1.4825
   92MOL0     H12675   8.690   5.485  10.302 -1.4561  1.4354  0.6305
   92MOL0     H12676   9.566   5.075   9.643  0.2554  0.1546 -0.7639
   92MOL0     H12677   9.691   4.861   9.616  4.6919 -1.1015  0.6776
   92MOL0     H12678   9.826   4.488   9.788 -0.9770  0.1085  1.8765
   92MOL0     H12679   9.959   4.279   9.717  2.8964 -2.6013  1.8254
   92MOL0     H12680   9.826   3.449  10.847  3.2782 -0.0011 -0.0215
   92MOL0     H12681   9.695   3.364  11.031 -0.7194  0.3649 -1.1218
   92MOL0     H12682   9.970   3.028  11.399  0.5750  1.4580  0.8594
   92MOL0     H12683   9.909   2.965  11.638  1.7870  1.9961 -1.6693
   92MOL0     H12684   9.493   2.998  11.766  1.1108  0.8636 -2.8863
   92MOL0     H12685   9.508   2.825  11.767 -1.4920  0.6135  1.4807
   92MOL0     H12686   9.628   2.806  11.963 -3.3930 -1.1733  0.6561
   92MOL0     H12687   9.476   2.888  11.971 -0.5358 -2.5943 -1.1667
   92MOL0     H12688   9.721   3.060  11.940 -0.6120 -3.7288 -3.1784
   92MOL0     H12689   9.572   3.100  12.015 -0.4446 -0.0611 -0.1786
   92MOL0     H12690   9.788   3.055  12.193  2.5086 -3.1778 -0.0672
   92MOL0     H12691   9.753   2.891  12.172  2.3793  1.3203  0.3242
   92MOL0     H12692   9.429   2.992  12.397  0.0935  1.4320 -0.1708
   92MOL0     H12693   9.492   2.967  11.529  0.7464 -0.4841  2.9938
   92MOL0     H12694   9.481   3.176  11.268  0.0837  0.3114 -0.3970
   92MOL0     H12695   9.466   3.009  11.232  2.7781 -0.6044 -1.0560
   92MOL0     H12696   9.395   3.056  11.368 -0.4508 -1.5682 -0.1064
   93MOL0     O12697   5.629   2.223   2.700  0.3407  0.0036  0.7765
   93MOL0     C12698   5.606   2.230   2.822 -0.3981 -0.1951 -0.2070
   93MOL0     O12699   5.595   2.343   2.898  0.2707  0.3512 -1.4104
   93MOL0     C12700   5.601   2.470   2.847 -0.1010 -0.3165  0.0353
   93MOL0     C12701   5.490   2.522   2.786 -0.8610  0.1681 -0.2601
   93MOL0     C12702   5.503   2.643   2.712  1.1501 -0.1565  0.5481
   93MOL0     C12703   5.613   2.726   2.726  0.0638  0.0273 -0.2697
   93MOL0     O12704   5.602   2.852   2.662 -0.0988  0.2194 -0.6011
   93MOL0     C12705   5.713   2.947   2.676  0.6607  1.0594 -0.0377
   93MOL0     C12706   5.683   3.090   2.616  0.2967 -0.4810 -0.4923
   93MOL0     C12707   5.643   3.102   2.462 -0.6312  0.1212 -0.5729
   93MOL0     C12708   5.768   3.106   2.381 -0.5608  0.2946  0.2899
   93MOL0     C12709   5.735   3.133   2.237 -0.7451 -0.0205  0.2164
   93MOL0     C12710   5.865   3.155   2.151 -0.4413  0.4084 -0.3318
   93MOL0     C12711   5.813   3.169   2.002  0.2419 -0.0045 -0.5467
   93MOL0     C12712   5.934   3.145   1.902 -0.8380 -0.4366  0.6579
   93MOL0     N12713   5.873   3.144   1.762  0.7014 -0.5611 -0.4332
   93MOL0     C12714   5.825   3.035   1.698 -0.5853  0.1471  0.5446
   93MOL0     C12715   5.790   3.072   1.580 -0.7909 -0.2326 -0.2887
   93MOL0     C12716   5.725   2.985   1.471  0.6885  0.1735  0.7017
   93MOL0     C12717   5.588   3.065   1.429 -0.6976 -0.3345  0.4984
   93MOL0     C12718   5.513   3.010   1.311  1.5126  0.1848 -0.6293
   93MOL0     C12719   5.430   3.117   1.224 -0.5301 -0.5565  0.0531
   93MOL0     O12720   5.316   3.168   1.292  0.3339 -0.2126 -0.2525
   93MOL0     C12721   5.254   3.280   1.241 -0.9839 -0.0432 -1.0800
   93MOL0     C12722   5.288   3.331   1.120  0.4762 -0.2085  0.4529
   93MOL0     C12723   5.243   3.465   1.095  0.3007  1.0318 -0.1753
   93MOL0     C12724   5.288   3.525   0.968 -0.3642 -0.0951 -0.6064
   93MOL0     C12725   5.158   3.541   1.195  0.2889 -1.1755  0.5257
   93MOL0     C12726   5.121   3.682   1.166 -0.0386  0.1520  1.1712
   93MOL0     O12727   5.027   3.688   1.072 -0.1054  0.0100 -0.3431
   93MOL0     C12728   4.994   3.810   1.017  0.3728 -0.7394 -0.2393
   93MOL0     C12729   4.858   3.851   1.024 -0.3378  0.0364 -0.0606
   93MOL0     C12730   4.827   3.974   0.970  0.2755 -0.2302  1.1621
   93MOL0     C12731   4.926   4.060   0.915  0.8332  0.7597 -0.4139
   93MOL0     O12732   4.878   4.193   0.889 -0.5646  0.1027  0.1064
   93MOL0     C12733   4.955   4.299   0.827 -0.6922  1.0103  0.2124
   93MOL0     C12734   4.981   4.273   0.679  0.0668  0.3612  0.0873
   93MOL0     C12735   5.052   4.388   0.601 -0.6724 -0.0643  0.6812
   93MOL0     C12736   5.126   4.332   0.473  1.0170 -0.2730  0.4492
   93MOL0     C12737   5.201   4.436   0.400 -0.3933 -0.0735  1.0532
   93MOL0     C12738   5.341   4.484   0.457 -0.4959 -0.4695  1.3767
   93MOL0     C12739   5.423   4.585   0.363  0.5287  0.2033 -0.8818
   93MOL0     C12740   5.547   4.616   0.437 -1.0311 -0.3121 -0.0867
   93MOL0    Cl12741   5.525   4.779   0.514 -0.0782  0.1451 -0.0862
   93MOL0     C12742   5.056   4.011   0.911 -0.0852 -0.8994  0.2427
   93MOL0     C12743   5.092   3.894   0.967  0.1382 -0.4311  0.0467
   93MOL0     O12744   5.176   3.777   1.221  1.0446  0.4045 -0.7056
   93MOL0     C12745   5.125   3.475   1.314  0.1366  0.3930 -0.9827
   93MOL0     C12746   5.179   3.351   1.332  1.8704 -0.0212 -0.5363
   93MOL0     N12747   5.824   3.207   1.569 -0.1334 -0.9053  0.4769
   93MOL0     N12748   5.869   3.252   1.677 -0.2487  0.3345 -0.1800
   93MOL0     C12749   5.721   2.673   2.800 -0.0127  0.1756 -0.4283
   93MOL0     C12750   5.711   2.547   2.867 -0.2330 -0.4613  0.6131
   93MOL0     C12751   5.593   2.111   2.896 -0.0174 -0.6145  0.3183
   93MOL0     C12752   5.511   2.097   3.009  0.8431 -0.5810  0.4851
   93MOL0     C12753   5.504   1.978   3.076  0.1350  1.4907  0.5171
   93MOL0     C12754   5.573   1.859   3.042  0.3047 -0.0793  1.1135
   93MOL0     O12755   5.560   1.736   3.102 -0.1891 -0.7698  0.9437
   93MOL0     C12756   5.480   1.711   3.219 -0.3082  0.0890  0.5207
   93MOL0     C12757   5.494   1.566   3.266  0.7933  0.2747 -0.3481
   93MOL0     C12758   5.396   1.467   3.211 -0.1214 -0.2548 -0.1452
   93MOL0     C12759   5.405   1.428   3.062 -0.0318 -0.8137 -0.1007
   93MOL0     C12760   5.303   1.326   3.042 -1.1931 -0.1197 -0.4940
   93MOL0     C12761   5.215   1.258   2.999 -0.6566  0.5490 -0.3386
   93MOL0     C12762   5.654   1.877   2.927  0.7132  1.0436  0.1385
   93MOL0     C12763   5.671   1.998   2.857 -0.5864  1.0018  1.1814
   93MOL0     C12764   5.785   2.007   2.754 -0.3182 -0.0027  0.6161
   93MOL0     H12765   5.400   2.463   2.771 -1.3066  0.3013  1.6411
   93MOL0     H12766   5.418   2.667   2.648 -0.2955 -1.6154  1.8479
   93MOL0     H12767   5.802   2.904   2.628 -0.1191 -0.8473  0.1369
   93MOL0     H12768   5.744   2.954   2.780 -2.0516 -2.9946  1.2745
   93MOL0     H12769   5.597   3.117   2.678  0.2917  0.2618 -0.8076
   93MOL0     H12770   5.765   3.158   2.642  0.0917 -0.5521  0.3920
   93MOL0     H12771   5.581   3.019   2.428 -3.0490  0.5933  2.2739
   93MOL0     H12772   5.588   3.196   2.457 -0.4713  0.1748 -1.3305
   93MOL0     H12773   5.829   3.186   2.423  3.5109 -2.0863 -0.5334
   93MOL0     H12774   5.840   3.023   2.387  0.2876  1.0088  0.2550
   93MOL0     H12775   5.665   3.216   2.221  0.6135  1.5012  1.8111
   93MOL0     H12776   5.687   3.045   2.191 -1.8557  0.5981  0.1603
   93MOL0     H12777   5.914   3.247   2.182 -0.8814  0.3089  0.7051
   93MOL0     H12778   5.931   3.067   2.153  0.7542  1.2897  1.3240
   93MOL0     H12779   5.779   3.273   1.995 -0.1845 -0.0771  0.3332
   93MOL0     H12780   5.723   3.112   1.977 -2.2426  3.4841 -0.2633
   93MOL0     H12781   6.011   3.223   1.897 -1.2826 -0.0528 -0.6213
   93MOL0     H12782   5.984   3.050   1.922 -1.2725 -0.5842  1.0648
   93MOL0     H12783   5.792   2.942   1.743  1.6598 -1.2201 -0.4442
   93MOL0     H12784   5.703   2.887   1.514 -5.3135  2.7116  4.8153
   93MOL0     H12785   5.787   2.968   1.382  0.2446  1.1001  0.1886
   93MOL0     H12786   5.522   3.065   1.516 -1.7780  0.5421 -0.2933
   93MOL0     H12787   5.610   3.172   1.417 -0.0810 -0.2805  1.9211
   93MOL0     H12788   5.577   2.958   1.239  2.8256  2.2618 -1.0454
   93MOL0     H12789   5.438   2.933   1.334  2.3664 -1.3552 -2.6857
   93MOL0     H12790   5.499   3.200   1.207 -2.9917  1.1899 -2.2264
   93MOL0     H12791   5.392   3.080   1.128 -0.1012  0.6332 -0.6016
   93MOL0     H12792   5.336   3.258   1.055  0.6439  0.2341  0.0720
   93MOL0     H12793   5.211   3.575   0.909 -1.1466  0.2219  0.6325
   93MOL0     H12794   5.345   3.454   0.908 -1.2656 -1.2029 -0.1787
   93MOL0     H12795   5.359   3.597   1.010 -0.6256 -0.5957  0.7604
   93MOL0     H12796   4.793   3.770   1.058 -1.5237  0.9492 -0.0961
   93MOL0     H12797   4.722   4.000   0.974 -0.0500 -1.4254  0.8809
   93MOL0     H12798   4.899   4.393   0.829 -1.5348  0.6429 -2.3455
   93MOL0     H12799   5.048   4.308   0.884 -0.3971 -2.3520  0.4426
   93MOL0     H12800   5.042   4.183   0.689 -0.3138  0.3038  2.6220
   93MOL0     H12801   4.888   4.244   0.628  0.5828 -1.6015  0.1727
   93MOL0     H12802   5.121   4.429   0.675 -0.3012  1.2655 -0.3590
   93MOL0     H12803   4.983   4.468   0.571  0.2549 -0.4772 -3.0643
   93MOL0     H12804   5.055   4.293   0.399  0.4053  1.7062 -0.0866
   93MOL0     H12805   5.209   4.266   0.498  1.1319 -1.7600 -3.1603
   93MOL0     H12806   5.218   4.411   0.295  0.6702  2.1117  0.6471
   93MOL0     H12807   5.139   4.526   0.404 -1.7968 -0.9924  0.8478
   93MOL0     H12808   5.419   4.408   0.469  1.5264  0.5889 -3.2280
   93MOL0     H12809   5.321   4.529   0.555  0.3828  2.1678  0.4221
   93MOL0     H12810   5.362   4.673   0.340  0.4645  0.2667 -0.4786
   93MOL0     H12811   5.449   4.532   0.272  3.1403 -4.7188  2.3103
   93MOL0     H12812   5.629   4.612   0.365 -2.5952 -1.4869 -1.9211
   93MOL0     H12813   5.565   4.544   0.518  0.5756 -0.2898 -0.3973
   93MOL0     H12814   5.141   4.070   0.879 -2.3435  1.0584 -2.5643
   93MOL0     H12815   5.197   3.867   0.965 -0.1108 -1.4670  0.1842
   93MOL0     H12816   5.071   3.536   1.386  2.7781 -0.5183  1.9950
   93MOL0     H12817   5.167   3.305   1.429 -1.4345  0.3685 -0.6356
   93MOL0     H12818   5.805   2.735   2.829 -0.7309  1.0881 -0.2252
   93MOL0     H12819   5.784   2.498   2.930 -0.7662 -1.4836  0.4778
   93MOL0     H12820   5.461   2.184   3.051 -1.5312 -2.0560  0.9338
   93MOL0     H12821   5.441   1.971   3.164 -0.8236 -1.9666 -0.3060
   93MOL0     H12822   5.515   1.774   3.301  0.9162 -0.6505  0.5881
   93MOL0     H12823   5.377   1.729   3.185 -1.6368 -3.0680  2.4246
   93MOL0     H12824   5.490   1.574   3.375 -1.0524 -1.5359 -0.2375
   93MOL0     H12825   5.595   1.542   3.230 -0.0549 -0.5850 -2.3120
   93MOL0     H12826   5.391   1.376   3.272  0.1810  0.4617  0.9539
   93MOL0     H12827   5.296   1.508   3.228  0.9913  1.6422  2.5360
   93MOL0     H12828   5.504   1.386   3.041  0.9559  1.4966 -0.3854
   93MOL0     H12829   5.395   1.515   2.996  4.1804 -1.9658 -2.5979
   93MOL0     H12830   5.134   1.190   2.982 -2.0445  2.3075 -1.0970
   93MOL0     H12831   5.724   1.798   2.901  1.3014  2.1659 -1.8971
   93MOL0     H12832   5.850   2.092   2.778  0.3696 -0.8255  1.7683
   93MOL0     H12833   5.853   1.922   2.744 -1.7610 -0.9997 -1.7908
   93MOL0     H12834   5.739   2.008   2.654 -3.7409  1.5114  2.0535
   94MOL0     O12835   6.165  10.595   5.783 -1.0300  0.2357 -0.0451
   94MOL0     C12836   6.216  10.499   5.729 -0.4344 -0.4662  0.4343
   94MOL0     O12837   6.325  10.433   5.772 -0.8366  0.1828 -0.6839
   94MOL0     C12838   6.400  10.505   5.868 -0.6956 -0.3644  0.0501
   94MOL0     C12839   6.400  10.449   5.994 -0.5734 -0.1854 -0.1405
   94MOL0     C12840   6.482  10.506   6.096 -0.1473  0.3486  0.6936
   94MOL0     C12841   6.554  10.621   6.063 -0.1934 -0.7354 -1.4211
   94MOL0     O12842   6.632  10.671   6.167  0.9301  0.1040  0.3920
   94MOL0     C12843   6.639  10.811   6.185 -0.7636  0.4617  0.5424
   94MOL0     C12844   6.763  10.842   6.274 -0.1930 -0.0816 -0.6413
   94MOL0     C12845   6.734  10.802   6.423  0.0710 -1.2385 -0.5837
   94MOL0     C12846   6.859  10.845   6.505  0.0717  0.1334 -0.5742
   94MOL0     C12847   6.850  10.788   6.647  1.3222  0.2334  0.6487
   94MOL0     C12848   6.969  10.784   6.745  0.3744  0.0908 -0.2873
   94MOL0     C12849   7.025  10.921   6.787 -0.2594 -0.5157  1.0490
   94MOL0     C12850   7.133  10.904   6.893  0.9498  0.0484 -0.5199
   94MOL0     N12851   7.199  11.023   6.953 -0.4041 -0.6296 -0.1910
   94MOL0     C12852   7.244  11.137   6.889  0.0740  0.0878  0.4427
   94MOL0     C12853   7.277  11.224   6.986 -0.2563  0.5276  0.3662
   94MOL0     C12854   7.331  11.356   6.948  0.3115  0.3037 -0.6739
   94MOL0     C12855   7.251  11.423   6.845 -0.4169 -0.2230  0.0457
   94MOL0     C12856   7.098  11.442   6.882 -0.5554  0.3988  0.2248
   94MOL0     C12857   7.066  11.494   7.025  0.7273 -0.3755  0.1305
   94MOL0     O12858   6.924  11.509   7.037  0.3516  0.0136  0.7808
   94MOL0     C12859   6.844  11.406   7.056  0.4434 -0.6559 -0.6147
   94MOL0     C12860   6.714  11.449   7.078  1.2965 -0.3481 -0.2745
   94MOL0     C12861   6.615  11.356   7.104  0.5012 -0.3145 -0.1251
   94MOL0     C12862   6.473  11.414   7.110 -0.4867 -0.1016  0.1083
   94MOL0     C12863   6.647  11.222   7.128 -0.1011  0.8316  0.4555
   94MOL0     C12864   6.543  11.112   7.151 -0.1649  0.3336 -0.7169
   94MOL0     O12865   6.580  10.980   7.127 -0.0567  0.2375 -0.3448
   94MOL0     C12866   6.500  10.869   7.141  0.2931 -0.0614 -0.6273
   94MOL0     C12867   6.527  10.742   7.076 -0.4707  0.1411 -0.5097
   94MOL0     C12868   6.474  10.626   7.118 -0.9590  0.4572  0.3188
   94MOL0     C12869   6.377  10.622   7.217  0.0276 -0.7634  0.6083
   94MOL0     O12870   6.320  10.504   7.253 -0.5359 -0.9935 -0.9018
   94MOL0     C12871   6.371  10.464   7.384  0.5931  1.2790  0.2254
   94MOL0     C12872   6.278  10.373   7.447  0.7900 -0.1719 -0.0634
   94MOL0     C12873   6.162  10.452   7.495  0.7139  0.7112 -0.3844
   94MOL0     C12874   6.061  10.344   7.525 -0.0924  1.3666 -0.2841
   94MOL0     C12875   5.939  10.412   7.585  0.0725  0.0264 -0.4655
   94MOL0     C12876   5.812  10.328   7.560 -0.7056 -0.2243  0.6195
   94MOL0     C12877   5.679  10.384   7.633 -0.0408 -0.5932 -0.4148
   94MOL0     C12878   5.591  10.468   7.535  0.6689 -0.2410 -0.1994
   94MOL0    Cl12879   5.656  10.629   7.487  0.1493 -0.7051 -0.5643
   94MOL0     C12880   6.325  10.739   7.270  0.2552  0.6778  0.0374
   94MOL0     C12881   6.387  10.863   7.230  0.0537 -0.0027 -0.7250
   94MOL0     O12882   6.429  11.148   7.177 -0.2303  0.2456 -0.1527
   94MOL0     C12883   6.781  11.187   7.112  1.0459  0.2719 -0.5611
   94MOL0     C12884   6.872  11.278   7.076 -0.6405  0.0372  0.0069
   94MOL0     N12885   7.243  11.163   7.108  1.0802  0.5717  1.2646
   94MOL0     N12886   7.207  11.042   7.088  0.0593 -0.3097  0.3974
   94MOL0     C12887   6.558  10.672   5.934 -0.2165 -0.0928  0.2866
   94MOL0     C12888   6.491  10.609   5.839 -0.0714 -1.1025  0.2971
   94MOL0     C12889   6.150  10.460   5.605 -0.4957 -0.4123 -0.2436
   94MOL0     C12890   6.018  10.399   5.617 -0.9365  1.1742 -0.7921
   94MOL0     C12891   5.957  10.377   5.498 -0.5827  0.2971  0.3385
   94MOL0     C12892   6.005  10.418   5.370  0.4356 -0.1818  0.3895
   94MOL0     O12893   5.935  10.399   5.253  0.0310  0.2953  1.1451
   94MOL0     C12894   5.945  10.489   5.140  0.4555  0.8399 -0.9864
   94MOL0     C12895   5.851  10.613   5.159  0.7577 -0.7551 -0.2880
   94MOL0     C12896   5.722  10.587   5.228  0.2809  0.6699 -0.0063
   94MOL0     C12897   5.617  10.516   5.138  0.6813 -1.0242  0.2645
   94MOL0     C12898   5.509  10.484   5.222  0.7257  0.2243 -0.5439
   94MOL0     C12899   5.411  10.465   5.301  0.2908  0.9446  0.3018
   94MOL0     C12900   6.131  10.472   5.361  0.4507 -0.0359  0.3895
   94MOL0     C12901   6.206  10.486   5.473  1.1001  0.3882 -0.3225
   94MOL0     C12902   6.344  10.533   5.465 -0.8479  0.7315  0.9717
   94MOL0     H12903   6.345  10.362   6.030 -1.5390 -0.3242 -1.8699
   94MOL0     H12904   6.486  10.463   6.196 -3.7268 -2.5905 -0.2202
   94MOL0     H12905   6.552  10.842   6.243  0.5783  2.0488  1.7909
   94MOL0     H12906   6.642  10.866   6.090 -4.3263 -0.5581 -0.3429
   94MOL0     H12907   6.851  10.789   6.236  1.2575  0.6771  1.4548
   94MOL0     H12908   6.789  10.948   6.286  2.3735 -0.8132  1.3714
   94MOL0     H12909   6.648  10.853   6.468  1.5260 -0.4791  1.4800
   94MOL0     H12910   6.705  10.697   6.415 -2.1487 -0.5703 -2.3186
   94MOL0     H12911   6.956  10.820   6.460 -0.0998  3.0577 -2.8803
   94MOL0     H12912   6.867  10.953   6.491 -0.0781  0.3962  1.1081
   94MOL0     H12913   6.816  10.685   6.639 -1.4051  1.0439  0.6526
   94MOL0     H12914   6.769  10.853   6.683  1.0887  0.9344 -1.0381
   94MOL0     H12915   6.931  10.736   6.835 -0.5487  3.1639  1.0958
   94MOL0     H12916   7.052  10.719   6.715  1.7521  1.7370 -0.2169
   94MOL0     H12917   6.941  10.983   6.818 -0.8696  1.0046 -2.9647
   94MOL0     H12918   7.076  10.961   6.699 -0.5078 -2.1589  0.1115
   94MOL0     H12919   7.085  10.855   6.979  2.2265 -0.3405  0.0025
   94MOL0     H12920   7.218  10.846   6.857  2.7608  1.7413  0.7780
   94MOL0     H12921   7.252  11.141   6.781  2.6695 -1.5996  0.4608
   94MOL0     H12922   7.435  11.334   6.920  2.2455 -2.5934  6.4125
   94MOL0     H12923   7.335  11.430   7.029 -0.9850  1.1516 -1.3569
   94MOL0     H12924   7.291  11.524   6.834  1.7961 -1.1567 -1.2081
   94MOL0     H12925   7.271  11.370   6.751 -0.0928  1.9476 -1.1684
   94MOL0     H12926   7.075  11.531   6.823  0.7183  1.5163  1.3495
   94MOL0     H12927   7.026  11.364   6.855 -1.6013  0.9760  1.2686
   94MOL0     H12928   7.095  11.429   7.108 -1.1227 -2.4475 -0.7509
   94MOL0     H12929   7.111  11.594   7.034 -0.6910  0.2611  0.3557
   94MOL0     H12930   6.707  11.557   7.069  1.4438 -0.2276  0.8376
   94MOL0     H12931   6.465  11.523   7.105 -1.1155 -0.1936 -3.2054
   94MOL0     H12932   6.439  11.393   7.212 -1.7548  0.7130 -0.1251
   94MOL0     H12933   6.406  11.369   7.037 -0.1979  1.7385 -1.3830
   94MOL0     H12934   6.604  10.739   6.999  1.2758  1.1041  1.1002
   94MOL0     H12935   6.526  10.542   7.073 -0.3471  0.9276  0.1288
   94MOL0     H12936   6.463  10.407   7.367 -0.2133 -0.1237  0.3344
   94MOL0     H12937   6.406  10.539   7.455 -1.3535  0.5726  2.0391
   94MOL0     H12938   6.245  10.294   7.378 -0.1353  0.6154 -0.5518
   94MOL0     H12939   6.318  10.330   7.539  0.5566 -4.0047 -1.5841
   94MOL0     H12940   6.133  10.530   7.424  0.0059  2.0292  1.2843
   94MOL0     H12941   6.198  10.508   7.581 -0.1990  2.6536 -1.2166
   94MOL0     H12942   6.107  10.271   7.592 -2.7129 -1.1107 -0.9770
   94MOL0     H12943   6.027  10.283   7.441  0.4044  1.8150 -0.8172
   94MOL0     H12944   5.947  10.424   7.693  0.6060 -1.9844 -0.2368
   94MOL0     H12945   5.919  10.508   7.536  0.2382  2.1544  3.2667
   94MOL0     H12946   5.817  10.227   7.602 -0.3405  0.0178  1.1817
   94MOL0     H12947   5.794  10.312   7.454 -3.2589 -2.2951  1.2532
   94MOL0     H12948   5.711  10.443   7.719 -2.4055 -0.3739  0.4041
   94MOL0     H12949   5.616  10.300   7.663 -2.0300  0.6427 -0.9166
   94MOL0     H12950   5.497  10.501   7.580  0.6618 -1.1714  0.4984
   94MOL0     H12951   5.572  10.411   7.443  3.5121 -0.2185 -0.8725
   94MOL0     H12952   6.247  10.737   7.346 -1.2210 -0.4230 -1.4334
   94MOL0     H12953   6.375  10.946   7.299 -2.7460 -2.4309  2.0374
   94MOL0     H12954   6.804  11.085   7.140  2.0433  0.8031  0.6424
   94MOL0     H12955   6.976  11.247   7.069 -1.0433 -1.1723 -0.8463
   94MOL0     H12956   6.621  10.758   5.918 -0.9798  0.7137  1.4381
   94MOL0     H12957   6.518  10.643   5.739 -3.5057  0.5246 -0.2407
   94MOL0     H12958   5.981  10.355   5.709 -0.4204 -0.7331 -1.4503
   94MOL0     H12959   5.864  10.322   5.493 -0.3807  0.0438 -1.6520
   94MOL0     H12960   6.049  10.522   5.128  2.4598 -3.3078  2.2364
   94MOL0     H12961   5.916  10.440   5.047  2.4040 -0.0554 -1.1816
   94MOL0     H12962   5.840  10.662   5.062  1.4361 -1.6333 -0.8170
   94MOL0     H12963   5.903  10.681   5.228 -1.5519  1.6443 -0.7440
   94MOL0     H12964   5.733  10.529   5.319  3.8577 -0.5705 -1.0809
   94MOL0     H12965   5.681  10.685   5.258 -2.1733 -0.3773  0.3350
   94MOL0     H12966   5.658  10.424   5.095  2.1696 -0.0879 -0.4061
   94MOL0     H12967   5.592  10.581   5.053  1.1328 -0.5857  0.4624
   94MOL0     H12968   5.343  10.431   5.376  1.9588 -2.4180  0.4855
   94MOL0     H12969   6.191  10.498   5.275 -0.8622  1.6731 -0.0817
   94MOL0     H12970   6.365  10.585   5.371 -0.9934  0.8134  0.9831
   94MOL0     H12971   6.368  10.609   5.540 -0.1229  2.8368 -1.2689
   94MOL0     H12972   6.416  10.452   5.478 -1.0231  0.7239  2.0138
   95MOL0     O12973   9.087   6.814   0.987 -0.0001  0.1793  0.5136
   95MOL0     C12974   9.022   6.876   0.900  1.0072  0.3892  0.0920
   95MOL0     O12975   8.911   6.950   0.916  0.5489 -0.3787  0.3434
   95MOL0     C12976   8.861   6.953   1.046 -0.3129 -0.8526  0.5356
   95MOL0     C12977   8.854   7.079   1.115  0.1223  0.7369  0.2621
   95MOL0     C12978   8.787   7.080   1.225  0.5912 -1.1598 -1.4807
   95MOL0     C12979   8.734   6.969   1.283 -0.1014  0.0967  0.3425
   95MOL0     O12980   8.666   6.959   1.400 -0.0054 -0.1335 -0.5002
   95MOL0     C12981   8.589   7.073   1.455 -0.4269 -0.3153  0.5874
   95MOL0     C12982   8.443   7.079   1.390 -0.0499 -1.1277  0.1656
   95MOL0     C12983   8.350   7.182   1.438  0.0019  0.0341 -1.0559
   95MOL0     C12984   8.232   7.189   1.353  0.5796 -0.4113 -0.3328
   95MOL0     C12985   8.119   7.292   1.404 -0.3195 -0.2416 -0.0778
   95MOL0     C12986   8.162   7.430   1.412 -0.0108 -0.7686  0.0069
   95MOL0     C12987   8.046   7.525   1.459  0.2317 -0.2548  0.0670
   95MOL0     C12988   8.035   7.516   1.613 -0.9604 -0.8747 -0.0880
   95MOL0     N12989   7.936   7.614   1.669 -0.2547 -0.0265  0.6975
   95MOL0     C12990   7.910   7.750   1.632 -0.1564 -0.1106 -0.7573
   95MOL0     C12991   7.821   7.782   1.731 -1.1174 -1.0391 -0.7655
   95MOL0     C12992   7.767   7.919   1.750 -0.1885  0.4482  0.5961
   95MOL0     C12993   7.782   7.975   1.893  0.4145  0.1632 -0.4249
   95MOL0     C12994   7.739   8.119   1.896  0.4565  0.4791 -1.1274
   95MOL0     C12995   7.737   8.174   2.038  0.3920 -0.0482  0.4268
   95MOL0     O12996   7.601   8.215   2.060  0.6250 -0.1186 -0.9417
   95MOL0     C12997   7.578   8.308   2.161  0.3819  0.0039  0.2090
   95MOL0     C12998   7.447   8.318   2.211 -0.1166  0.2472  1.0292
   95MOL0     C12999   7.409   8.410   2.305  0.3921 -0.2073  0.3213
   95MOL0     C13000   7.256   8.426   2.326  0.9618  0.2686 -0.2701
   95MOL0     C13001   7.513   8.487   2.375 -0.6064 -0.2235  0.4419
   95MOL0     C13002   7.476   8.575   2.481 -0.6205 -0.2899  0.0377
   95MOL0     O13003   7.554   8.696   2.499  0.3728  0.3883  0.3062
   95MOL0     C13004   7.500   8.819   2.530  0.3146 -0.1055 -0.8607
   95MOL0     C13005   7.360   8.838   2.565  0.4209  0.0742 -0.0652
   95MOL0     C13006   7.308   8.964   2.584  0.2250  0.3698  0.0257
   95MOL0     C13007   7.393   9.074   2.587  0.1320  0.0655 -0.6490
   95MOL0     O13008   7.342   9.195   2.634  0.5268  0.1149 -0.5379
   95MOL0     C13009   7.425   9.312   2.679 -0.0804  0.0985  0.6541
   95MOL0     C13010   7.469   9.408   2.568  0.4782 -0.9840  0.4207
   95MOL0     C13011   7.564   9.527   2.595 -1.2505  0.6737 -0.4007
   95MOL0     C13012   7.539   9.637   2.497  1.0360  0.3638  0.4111
   95MOL0     C13013   7.633   9.761   2.520 -0.4000  0.5777 -0.8603
   95MOL0     C13014   7.588   9.876   2.441  0.2143 -0.0985  0.2941
   95MOL0     C13015   7.646  10.006   2.486 -0.0682 -0.9602  0.4790
   95MOL0     C13016   7.553  10.128   2.468 -0.8717 -0.1781  0.4594
   95MOL0    Cl13017   7.521  10.168   2.298 -0.4786  0.4127  0.0734
   95MOL0     C13018   7.535   9.053   2.566 -0.8080  0.3456 -0.1638
   95MOL0     C13019   7.585   8.930   2.519  0.0059  0.4334 -0.3788
   95MOL0     O13020   7.388   8.537   2.555  0.5914 -0.1175  0.2230
   95MOL0     C13021   7.652   8.474   2.327  0.3577 -0.6314  0.9588
   95MOL0     C13022   7.679   8.387   2.221  0.4606 -0.7314  0.2981
   95MOL0     N13023   7.789   7.685   1.821 -0.3620 -0.5535 -0.2103
   95MOL0     N13024   7.863   7.581   1.777 -0.0094 -0.0113 -0.4690
   95MOL0     C13025   8.754   6.842   1.235 -0.3490 -0.3507 -0.9512
   95MOL0     C13026   8.823   6.837   1.109 -0.1375 -0.2046  0.2295
   95MOL0     C13027   9.081   6.891   0.760 -0.5922 -1.4583 -0.3907
   95MOL0     C13028   9.048   7.004   0.676 -0.0040  0.0138 -0.7363
   95MOL0     C13029   9.120   7.044   0.565  0.4658  0.5981  1.5830
   95MOL0     C13030   9.207   6.954   0.510 -0.3278 -0.3353 -0.3845
   95MOL0     O13031   9.251   6.997   0.389 -0.4929  0.1071  0.7718
   95MOL0     C13032   9.378   6.939   0.351  1.2780  0.1070  0.0964
   95MOL0     C13033   9.488   7.017   0.422  0.2220 -0.1943  0.3669
   95MOL0     C13034   9.516   7.150   0.348 -0.0005  0.3796  0.9197
   95MOL0     C13035   9.620   7.230   0.414 -0.3340  0.2925 -0.0715
   95MOL0     C13036   9.606   7.378   0.387 -0.1895 -0.2204  0.6539
   95MOL0     C13037   9.594   7.495   0.354 -0.6348  0.0483 -0.0867
   95MOL0     C13038   9.244   6.834   0.586  0.5512 -0.5579  0.1847
   95MOL0     C13039   9.182   6.809   0.708  0.0485 -0.3343 -0.2201
   95MOL0     C13040   9.212   6.680   0.772 -0.1332  0.3559  0.4690
   95MOL0     H13041   8.894   7.166   1.064  0.3655 -0.4710 -1.7305
   95MOL0     H13042   8.764   7.181   1.256  1.4714 -0.9863 -1.3471
   95MOL0     H13043   8.644   7.166   1.449 -0.0754 -0.5555  0.0046
   95MOL0     H13044   8.584   7.054   1.563  0.2402 -1.5889  0.4096
   95MOL0     H13045   8.443   7.113   1.286 -5.2231 -1.5190 -0.2494
   95MOL0     H13046   8.394   6.981   1.386  0.8464 -1.5417 -2.6174
   95MOL0     H13047   8.313   7.141   1.533  3.1647  1.1057  0.7863
   95MOL0     H13048   8.401   7.278   1.444 -1.4604  0.8052 -0.4476
   95MOL0     H13049   8.256   7.235   1.257  2.3113  1.3128  0.8480
   95MOL0     H13050   8.191   7.088   1.343  3.2160 -1.6898  0.6557
   95MOL0     H13051   8.102   7.264   1.509 -0.5580  1.1562  0.2824
   95MOL0     H13052   8.023   7.277   1.355 -0.2116 -1.6889  0.1246
   95MOL0     H13053   8.249   7.437   1.478  0.4681 -3.4760 -0.2131
   95MOL0     H13054   8.188   7.454   1.308 -1.8810  0.5706 -0.2018
   95MOL0     H13055   7.953   7.503   1.406 -0.2000 -0.2696  0.8112
   95MOL0     H13056   8.071   7.627   1.429  0.1581 -0.4317 -0.6206
   95MOL0     H13057   7.996   7.419   1.645 -2.4810 -0.6240 -1.0845
   95MOL0     H13058   8.132   7.541   1.659  0.5012 -0.0933 -3.3422
   95MOL0     H13059   7.956   7.815   1.558  1.0415  1.2432  1.0861
   95MOL0     H13060   7.662   7.911   1.724  0.9202 -1.6736 -4.2188
   95MOL0     H13061   7.808   7.989   1.676  4.4329  0.2797  2.6146
   95MOL0     H13062   7.742   7.914   1.974 -0.5483 -0.5984 -1.4393
   95MOL0     H13063   7.890   7.980   1.911  0.2043 -1.1683  1.4667
   95MOL0     H13064   7.813   8.183   1.847 -0.5875  0.6534 -2.5502
   95MOL0     H13065   7.642   8.132   1.848 -0.1483  1.5842  0.3378
   95MOL0     H13066   7.776   8.111   2.118 -2.3518 -2.6932 -0.1153
   95MOL0     H13067   7.796   8.265   2.055 -3.1184  1.9766  3.6587
   95MOL0     H13068   7.365   8.262   2.168  0.1552 -0.5609  1.5497
   95MOL0     H13069   7.224   8.526   2.355 -0.2381 -0.6618  1.8267
   95MOL0     H13070   7.209   8.363   2.403  0.9274  0.4623 -0.1327
   95MOL0     H13071   7.205   8.401   2.232  2.0946  0.8734 -1.0707
   95MOL0     H13072   7.299   8.749   2.551 -1.2244  0.8507  1.7394
   95MOL0     H13073   7.205   8.970   2.618 -0.4191 -2.3662 -1.2338
   95MOL0     H13074   7.379   9.367   2.761  0.7671  0.9189  0.5923
   95MOL0     H13075   7.519   9.281   2.726  2.5203  1.7212 -2.9681
   95MOL0     H13076   7.520   9.343   2.496 -0.3590 -2.4932  1.1315
   95MOL0     H13077   7.383   9.454   2.519  1.1229  2.7305  2.3949
   95MOL0     H13078   7.666   9.495   2.573 -1.1651  0.8556 -0.2669
   95MOL0     H13079   7.543   9.554   2.698 -2.0463 -1.2953  0.0075
   95MOL0     H13080   7.435   9.668   2.509  1.1199  1.1550 -0.7294
   95MOL0     H13081   7.550   9.599   2.395 -2.5991 -0.6291  0.2465
   95MOL0     H13082   7.636   9.780   2.628 -0.1006 -2.4189 -0.2628
   95MOL0     H13083   7.737   9.732   2.501 -1.9614 -6.1717 -1.8093
   95MOL0     H13084   7.479   9.888   2.443 -0.0058 -1.1947 -1.8812
   95MOL0     H13085   7.600   9.882   2.332 -1.5436  3.1856  0.1486
   95MOL0     H13086   7.733  10.013   2.420 -3.5253  0.9560 -4.4402
   95MOL0     H13087   7.684   9.998   2.588  1.4850  0.3676  0.0632
   95MOL0     H13088   7.604  10.222   2.494 -0.6356 -0.8722  2.7452
   95MOL0     H13089   7.457  10.121   2.519 -2.4621 -2.5806 -2.5656
   95MOL0     H13090   7.604   9.136   2.575  0.6691 -0.7628 -0.8637
   95MOL0     H13091   7.691   8.911   2.509  0.2019 -0.6389  2.5817
   95MOL0     H13092   7.738   8.516   2.378  1.1105 -0.6429 -0.2503
   95MOL0     H13093   7.786   8.388   2.200  0.8057 -2.0410  1.7305
   95MOL0     H13094   8.739   6.759   1.303  4.6288  0.0009  0.9444
   95MOL0     H13095   8.853   6.739   1.073  1.8564  0.2799  0.4065
   95MOL0     H13096   8.985   7.079   0.722 -0.5814 -1.5373  1.1448
   95MOL0     H13097   9.101   7.142   0.521  1.6557  0.0537 -0.2452
   95MOL0     H13098   9.390   6.831   0.369  0.1076 -0.1465 -0.5538
   95MOL0     H13099   9.374   6.944   0.242 -4.1390  0.9214  0.0146
   95MOL0     H13100   9.577   6.955   0.407 -0.0202 -0.2244 -1.0662
   95MOL0     H13101   9.472   7.033   0.529  0.2924 -1.1683  0.5312
   95MOL0     H13102   9.534   7.129   0.242 -0.3093  0.1507  0.9123
   95MOL0     H13103   9.425   7.210   0.356 -0.6726 -0.1870 -1.4751
   95MOL0     H13104   9.720   7.205   0.378 -0.6767  1.5016 -2.0182
   95MOL0     H13105   9.606   7.215   0.521  1.3557  0.3417  0.1876
   95MOL0     H13106   9.570   7.599   0.342 -0.2271  0.7652  3.8528
   95MOL0     H13107   9.314   6.763   0.542 -1.2415 -1.0986 -2.0259
   95MOL0     H13108   9.279   6.687   0.859 -2.6413  3.1546  2.3642
   95MOL0     H13109   9.114   6.639   0.799 -2.6635  1.9002 -5.0382
   95MOL0     H13110   9.250   6.613   0.694 -1.1498 -2.0442  1.9175
   96MOL0     O13111   1.781   9.490  11.593 -0.5019  0.4922  0.4074
   96MOL0     C13112   1.782   9.376  11.654  0.2901 -0.1539  0.6960
   96MOL0     O13113   1.808   9.256  11.600  0.1486  1.1991 -0.2275
   96MOL0     C13114   1.839   9.250  11.470  0.6275 -0.5424  0.4302
   96MOL0     C13115   1.746   9.278  11.376  0.8315 -0.5367  0.7600
   96MOL0     C13116   1.767   9.283  11.241 -0.1206 -0.6469  0.9542
   96MOL0     C13117   1.900   9.262  11.193 -0.6764 -0.2575  0.3086
   96MOL0     O13118   1.921   9.289  11.063 -0.4596 -0.7341 -0.1095
   96MOL0     C13119   2.047   9.249  11.009 -0.0588 -0.4667 -0.6562
   96MOL0     C13120   2.074   9.348  10.896 -0.3103  0.3425 -0.2389
   96MOL0     C13121   2.108   9.482  10.947 -0.4443 -0.1667  0.0438
   96MOL0     C13122   2.150   9.589  10.840 -0.0310  0.7098 -0.8208
   96MOL0     C13123   2.243   9.695  10.906  0.9295  0.0516 -1.2475
   96MOL0     C13124   2.303   9.786  10.790 -0.0309  1.5515 -0.1676
   96MOL0     C13125   2.228   9.895  10.722 -0.4240 -0.1876  0.0486
   96MOL0     C13126   2.187  10.020  10.808 -0.0745 -0.2133 -0.5318
   96MOL0     N13127   2.111  10.128  10.733 -0.7642  0.1490 -0.5127
   96MOL0     C13128   2.007  10.195  10.785  0.7807  0.8273  0.1554
   96MOL0     C13129   1.984  10.309  10.711  0.3702  1.3200 -0.1576
   96MOL0     C13130   1.875  10.399  10.736 -1.3251  0.1012  0.4779
   96MOL0     C13131   1.743  10.335  10.693 -0.6001 -0.2568 -0.3040
   96MOL0     C13132   1.637  10.400  10.781 -0.2527  0.4493 -0.2645
   96MOL0     C13133   1.609  10.312  10.914 -0.5474 -0.7254 -0.2758
   96MOL0     O13134   1.734  10.313  10.983  1.0637 -0.1484 -0.3352
   96MOL0     C13135   1.728  10.273  11.120  1.3531 -0.6020 -1.0987
   96MOL0     C13136   1.625  10.205  11.178  0.6122  0.8370  0.2447
   96MOL0     C13137   1.636  10.137  11.293 -0.8896  0.4969 -0.2273
   96MOL0     C13138   1.532  10.049  11.335 -0.5150 -0.0472 -0.4480
   96MOL0     C13139   1.752  10.160  11.374 -0.4048 -0.5858  0.3132
   96MOL0     C13140   1.783  10.096  11.503  0.4216 -0.2233  0.4399
   96MOL0     O13141   1.786  10.172  11.613 -0.4563  0.4529 -0.2011
   96MOL0     C13142   1.799  10.109  11.733  0.6595 -0.5202  0.5186
   96MOL0     C13143   1.702  10.131  11.843 -0.5681  0.3649  0.4354
   96MOL0     C13144   1.710  10.062  11.967  1.2159  0.8732 -0.0957
   96MOL0     C13145   1.813   9.963  11.974  0.2257 -0.0946 -0.7332
   96MOL0     O13146   1.825   9.860  12.071  0.4617 -0.8175  0.0792
   96MOL0     C13147   1.723   9.869  12.170  0.0404 -0.1990 -0.2583
   96MOL0     C13148   1.747   9.743  12.258  0.0079  0.0263 -0.0579
   96MOL0     C13149   1.634   9.707  12.356  0.4836  0.9737  0.1942
   96MOL0     C13150   1.669   9.589  12.448  0.5063  0.7446 -0.0813
   96MOL0     C13151   1.543   9.532  12.503  0.3408  0.8637 -0.6793
   96MOL0     C13152   1.540   9.461  12.645  0.4668  0.0087  0.4418
   96MOL0     C13153   1.618   9.330  12.656 -0.3140 -0.0252  0.0085
   96MOL0     C13154   1.621   9.275  12.803  1.1922 -1.0222  0.3307
   96MOL0    Cl13155   1.721   9.126  12.808 -0.2175 -0.3335 -0.2182
   96MOL0     C13156   1.915   9.957  11.882  0.6750 -0.5683  0.3975
   96MOL0     C13157   1.915  10.037  11.767 -0.4633 -0.1251 -0.0493
   96MOL0     O13158   1.799   9.979  11.500 -0.5281  0.1543 -0.7595
   96MOL0     C13159   1.851  10.251  11.327  0.4707  0.7750 -0.7801
   96MOL0     C13160   1.842  10.306  11.204  0.8861  0.1960  0.0516
   96MOL0     N13161   2.082  10.306  10.610 -0.2639 -0.2150  0.1512
   96MOL0     N13162   2.159  10.202  10.629  0.4537 -0.7029 -0.2047
   96MOL0     C13163   2.000   9.233  11.292 -1.0801 -0.5183  0.0598
   96MOL0     C13164   1.974   9.227  11.430  0.3764  1.4712  0.1325
   96MOL0     C13165   1.749   9.365  11.800 -0.1752 -0.2986 -0.3887
   96MOL0     C13166   1.751   9.234  11.862 -0.2819 -0.1131  0.5966
   96MOL0     C13167   1.713   9.226  11.987 -0.3772  0.3224 -0.5955
   96MOL0     C13168   1.665   9.333  12.071  0.0087  0.2154  0.0598
   96MOL0     O13169   1.633   9.323  12.211  0.8308  0.9026  0.7191
   96MOL0     C13170   1.588   9.195  12.274 -0.5665 -0.8395 -0.2632
   96MOL0     C13171   1.720   9.125  12.327  0.0500 -0.1096  0.4375
   96MOL0     C13172   1.682   8.984  12.377 -0.1339 -0.5292  1.1033
   96MOL0     C13173   1.801   8.910  12.433 -0.5762 -0.1770  0.5541
   96MOL0     C13174   1.794   8.768  12.454 -0.6467 -0.2168  0.2767
   96MOL0     C13175   1.789   8.649  12.462 -0.9661 -0.5308 -0.4167
   96MOL0     C13176   1.652   9.461  12.008 -1.1508  0.2442 -0.3522
   96MOL0     C13177   1.696   9.481  11.873  0.6614 -0.4064  0.2397
   96MOL0     C13178   1.669   9.627  11.824 -0.4034 -0.5323 -0.0988
   96MOL0     H13179   1.651   9.314  11.414 -0.5189 -0.2130 -2.6455
   96MOL0     H13180   1.693   9.332  11.179  2.4370  1.0654 -0.9404
   96MOL0     H13181   2.042   9.142  10.985 -3.0575 -1.0469  1.8165
   96MOL0     H13182   2.128   9.264  11.081  0.0226  3.3364 -1.3427
   96MOL0     H13183   2.151   9.304  10.832 -2.6189 -2.4495 -1.2936
   96MOL0     H13184   1.988   9.357  10.829  0.5735  4.1955 -1.1106
   96MOL0     H13185   2.027   9.536  10.997  0.2693  1.8531 -0.8749
   96MOL0     H13186   2.191   9.460  11.016 -0.3219 -1.3524 -0.4541
   96MOL0     H13187   2.207   9.526  10.771  3.5043 -1.2068  3.3841
   96MOL0     H13188   2.062   9.613  10.780  0.3210  0.8306 -1.2927
   96MOL0     H13189   2.330   9.651  10.955  0.0981  0.2629  0.4664
   96MOL0     H13190   2.207   9.750  10.993  0.4754 -1.4858 -0.4333
   96MOL0     H13191   2.399   9.821  10.828  0.2404 -0.1173  0.7731
   96MOL0     H13192   2.335   9.710  10.718 -1.4569 -3.5577  3.9820
   96MOL0     H13193   2.155   9.844  10.658  2.2582 -1.2212 -2.4509
   96MOL0     H13194   2.294   9.944  10.650 -0.3992  0.5530  0.5676
   96MOL0     H13195   2.111   9.983  10.877  0.5703 -2.1774 -0.8167
   96MOL0     H13196   2.269  10.062  10.868 -0.3165 -1.6309  0.8638
   96MOL0     H13197   1.952  10.172  10.876  1.4778  5.1705  1.9207
   96MOL0     H13198   1.883  10.498  10.690 -0.0951 -0.3916 -0.4464
   96MOL0     H13199   1.888  10.398  10.844  2.4817  0.8761  0.1637
   96MOL0     H13200   1.730  10.358  10.587  1.0132  1.3125 -0.2058
   96MOL0     H13201   1.725  10.227  10.697  0.9132 -0.5447  3.6866
   96MOL0     H13202   1.639  10.505  10.811  2.8350  0.0156  1.5844
   96MOL0     H13203   1.551  10.386  10.716  0.7871  0.9681 -1.7922
   96MOL0     H13204   1.534  10.354  10.981 -1.8791 -0.9829 -1.5607
   96MOL0     H13205   1.599  10.203  10.906 -0.8567 -0.8545  1.4755
   96MOL0     H13206   1.526  10.192  11.137 -1.3693  4.8101  3.1293
   96MOL0     H13207   1.463  10.034  11.252 -0.4648 -0.0506 -0.4886
   96MOL0     H13208   1.479  10.087  11.423 -1.5205 -2.8865  0.2921
   96MOL0     H13209   1.570   9.950  11.361 -1.2514 -0.1080  0.4917
   96MOL0     H13210   1.614  10.193  11.829  0.3915  1.3037 -2.0929
   96MOL0     H13211   1.633  10.079  12.042 -0.0718  0.9734 -1.4055
   96MOL0     H13212   1.734   9.966  12.220 -0.4386  0.1547 -0.8257
   96MOL0     H13213   1.618   9.871  12.138  0.0525  1.2849 -0.2737
   96MOL0     H13214   1.771   9.659  12.192 -1.2714 -0.0208 -0.4983
   96MOL0     H13215   1.843   9.744  12.310 -0.2703 -2.0485  0.5759
   96MOL0     H13216   1.553   9.673  12.292 -1.7461  2.0364  2.2866
   96MOL0     H13217   1.596   9.789  12.418  1.6880 -0.6284  3.2912
   96MOL0     H13218   1.723   9.634  12.532 -1.4698  1.7423  0.7086
   96MOL0     H13219   1.722   9.508  12.397 -4.4420 -1.2196 -2.7909
   96MOL0     H13220   1.468   9.609  12.521  1.6097  2.0450 -0.2315
   96MOL0     H13221   1.505   9.463  12.427  1.9797  1.4873 -2.1540
   96MOL0     H13222   1.436   9.433  12.665  0.6402 -0.3432  0.8699
   96MOL0     H13223   1.577   9.537  12.714  3.7906 -2.5432  1.7336
   96MOL0     H13224   1.721   9.345  12.621 -0.3141 -3.4270 -1.8540
   96MOL0     H13225   1.584   9.251  12.589  2.2271 -0.7340 -0.5363
   96MOL0     H13226   1.519   9.248  12.829  0.4113  0.3176 -1.1644
   96MOL0     H13227   1.655   9.356  12.870  0.7135 -0.8655  0.3895
   96MOL0     H13228   1.998   9.890  11.897  1.0485 -0.7760 -2.1725
   96MOL0     H13229   1.985  10.036  11.684 -2.3941  0.6252 -1.7593
   96MOL0     H13230   1.940  10.276  11.384 -1.0750 -2.2253  3.5163
   96MOL0     H13231   1.925  10.366  11.168 -1.4387  2.2877 -2.2250
   96MOL0     H13232   2.105   9.221  11.268 -0.7398  0.4919  0.9475
   96MOL0     H13233   2.057   9.209  11.498 -0.2935  0.2131  0.6476
   96MOL0     H13234   1.774   9.145  11.805  0.2666  0.5584 -0.2511
   96MOL0     H13235   1.709   9.122  12.020 -1.3345  0.4813 -0.1784
   96MOL0     H13236   1.510   9.198  12.350 -1.6225  1.4069 -1.3546
   96MOL0     H13237   1.550   9.117  12.207 -3.0998 -0.1079  0.2430
   96MOL0     H13238   1.765   9.190  12.402  3.6371  0.3613 -1.8622
   96MOL0     H13239   1.790   9.131  12.243 -3.6869  1.2122 -2.8853
   96MOL0     H13240   1.610   9.001  12.458  0.1520  2.0000  0.8968
   96MOL0     H13241   1.620   8.924  12.309 -1.9905  2.4833 -0.0983
   96MOL0     H13242   1.817   8.954  12.532  0.6499  1.9636 -0.5237
   96MOL0     H13243   1.896   8.931  12.383 -0.9800 -1.5690 -0.8780
   96MOL0     H13244   1.782   8.542  12.465 -1.1123 -0.8178 -4.4741
   96MOL0     H13245   1.617   9.541  12.072 -2.3225 -0.1889 -0.4237
   96MOL0     H13246   1.764   9.672  11.793  0.6264 -0.6888  2.6048
   96MOL0     H13247   1.605   9.623  11.735  0.0877  1.3445 -0.5708
   96MOL0     H13248   1.640   9.693  11.905 -0.5556 -1.0689  0.2899
   97MOL0     O13249   4.024   1.438   3.972  0.1911  0.9759 -0.4380
   97MOL0     C13250   4.130   1.419   3.923 -0.2411 -0.3954  0.2417
   97MOL0     O13251   4.227   1.356   4.001  0.0252 -0.0962 -0.1726
   97MOL0     C13252   4.193   1.262   4.096  0.4978  0.3125  0.7754
   97MOL0     C13253   4.280   1.249   4.208 -0.0140 -0.6380  0.4642
   97MOL0     C13254   4.267   1.138   4.294 -0.6546  0.3335  0.9758
   97MOL0     C13255   4.157   1.052   4.282  0.3283 -0.7157 -0.4688
   97MOL0     O13256   4.137   0.940   4.367 -0.8998  0.0334 -0.3612
   97MOL0     C13257   4.224   0.828   4.350 -1.0818 -0.9948  0.0420
   97MOL0     C13258   4.155   0.689   4.352 -1.2058 -0.5595 -0.2463
   97MOL0     C13259   4.152   0.626   4.489  1.2795 -0.4158 -0.0709
   97MOL0     C13260   4.058   0.701   4.581  0.4138  0.3773  0.1701
   97MOL0     C13261   3.994   0.630   4.700 -0.0748  0.5980  0.2517
   97MOL0     C13262   3.876   0.716   4.756  0.0048  0.2617 -0.8657
   97MOL0     C13263   3.812   0.652   4.882  0.5861  0.1940  0.1646
   97MOL0     C13264   3.722   0.539   4.844  0.6049  0.3728 -0.1353
   97MOL0     N13265   3.611   0.603   4.779 -0.4473 -0.0820  0.7361
   97MOL0     C13266   3.589   0.568   4.654  0.4032 -0.2697  0.9667
   97MOL0     C13267   3.507   0.658   4.600  0.0523 -0.3468  0.0674
   97MOL0     C13268   3.483   0.646   4.452  0.1746 -0.9650  0.7334
   97MOL0     C13269   3.588   0.731   4.371  0.1188 -0.2830  0.2259
   97MOL0     C13270   3.588   0.891   4.387  0.5990  1.0700 -0.7710
   97MOL0     C13271   3.714   0.947   4.328 -0.2811  0.0196 -0.1935
   97MOL0     O13272   3.714   0.920   4.192 -0.2907  0.3711 -0.4636
   97MOL0     C13273   3.693   1.019   4.094  0.1173 -0.2031 -0.7291
   97MOL0     C13274   3.639   1.146   4.116 -0.5101  0.3971 -0.0034
   97MOL0     C13275   3.619   1.237   4.002 -0.0956 -0.1117 -0.1525
   97MOL0     C13276   3.572   1.374   4.036 -0.5818  0.1216  1.0264
   97MOL0     C13277   3.656   1.196   3.872 -0.4979  0.2464  0.0210
   97MOL0     C13278   3.639   1.266   3.748 -0.2244 -0.6135  0.0053
   97MOL0     O13279   3.712   1.213   3.645  0.3161 -0.3214  0.2540
   97MOL0     C13280   3.679   1.232   3.513 -0.3423 -0.6458 -0.0482
   97MOL0     C13281   3.554   1.250   3.466 -0.0529  0.4309  0.0736
   97MOL0     C13282   3.523   1.268   3.334  0.0568 -0.0523 -0.3983
   97MOL0     C13283   3.634   1.300   3.243 -0.1661 -0.4325  0.6852
   97MOL0     O13284   3.616   1.324   3.110 -0.4224  0.1708  0.0184
   97MOL0     C13285   3.487   1.334   3.044 -0.0126  0.0724  0.1370
   97MOL0     C13286   3.435   1.200   2.979 -0.1909 -0.3556  0.7902
   97MOL0     C13287   3.547   1.153   2.897  0.3996  0.6329  0.1752
   97MOL0     C13288   3.533   1.007   2.842  0.2487 -0.3460 -0.3064
   97MOL0     C13289   3.490   1.005   2.695  0.2158 -0.6860  0.0504
   97MOL0     C13290   3.350   1.057   2.660  0.6503 -0.5262 -0.0166
   97MOL0     C13291   3.244   0.952   2.698  0.3255  0.4664  0.0631
   97MOL0     C13292   3.105   1.020   2.706 -0.4808  0.2727 -0.1794
   97MOL0    Cl13293   2.977   0.891   2.725 -0.4260 -0.3922  0.1350
   97MOL0     C13294   3.770   1.285   3.288 -0.6544  0.3100 -0.0411
   97MOL0     C13295   3.782   1.248   3.426  0.0199 -0.0804 -0.3056
   97MOL0     O13296   3.557   1.355   3.731  0.0256 -0.7556 -0.0997
   97MOL0     C13297   3.727   1.076   3.871 -0.4980  0.2203  0.9644
   97MOL0     C13298   3.737   0.985   3.972  0.5029  0.5816 -0.3288
   97MOL0     N13299   3.484   0.751   4.694 -0.5218  0.0538 -0.4495
   97MOL0     N13300   3.553   0.726   4.802 -0.4688  0.2860 -0.0501
   97MOL0     C13301   4.057   1.082   4.189 -0.4556  0.0081  0.1981
   97MOL0     C13302   4.077   1.182   4.092 -0.6097  1.1459  0.3780
   97MOL0     C13303   4.171   1.471   3.780  0.2808 -0.1511 -0.2109
   97MOL0     C13304   4.307   1.495   3.761  0.7032 -0.6109 -0.2155
   97MOL0     C13305   4.353   1.541   3.643  0.5229  1.3688 -0.0735
   97MOL0     C13306   4.264   1.552   3.526 -1.3856  0.9258 -0.4139
   97MOL0     O13307   4.302   1.598   3.402  0.3328 -0.2824 -0.4452
   97MOL0     C13308   4.421   1.679   3.389 -0.1338 -0.5007 -0.2874
   97MOL0     C13309   4.442   1.731   3.243 -0.4583  0.4709 -0.1621
   97MOL0     C13310   4.334   1.833   3.203  0.8295  0.4962 -0.0823
   97MOL0     C13311   4.379   1.926   3.091 -0.5567 -0.2588  1.5057
   97MOL0     C13312   4.347   1.891   2.952 -0.6001 -0.5185  0.1152
   97MOL0     C13313   4.317   1.857   2.838 -0.4062 -0.8930 -0.1902
   97MOL0     C13314   4.129   1.536   3.549  0.3987  0.4794  0.1875
   97MOL0     C13315   4.073   1.498   3.676  0.2686 -0.4614 -0.3354
   97MOL0     C13316   3.918   1.490   3.689  0.0475 -0.3670 -0.8762
   97MOL0     H13317   4.355   1.324   4.234 -2.1516  0.7467  3.3010
   97MOL0     H13318   4.333   1.136   4.380 -0.1977 -0.1201  0.6228
   97MOL0     H13319   4.302   0.839   4.425  1.5606 -2.5579 -2.3104
   97MOL0     H13320   4.274   0.852   4.256 -2.8924 -0.1742 -0.7721
   97MOL0     H13321   4.059   0.692   4.301 -1.2331 -0.7416 -0.2064
   97MOL0     H13322   4.207   0.611   4.296 -1.6107 -1.8813  1.1279
   97MOL0     H13323   4.113   0.525   4.474  2.1709 -0.5403 -1.8344
   97MOL0     H13324   4.252   0.625   4.533  1.8672  1.6259 -1.2050
   97MOL0     H13325   4.121   0.777   4.629 -2.6554  1.3338  3.0642
   97MOL0     H13326   3.977   0.749   4.527  1.6211  1.5982 -0.6204
   97MOL0     H13327   4.065   0.613   4.781  0.4632  2.6751  0.2798
   97MOL0     H13328   3.957   0.536   4.658 -0.0410 -0.1638  1.8461
   97MOL0     H13329   3.905   0.810   4.804 -0.1510 -0.0739 -0.1072
   97MOL0     H13330   3.805   0.745   4.677 -1.6871 -0.9878  0.1407
   97MOL0     H13331   3.760   0.723   4.947  1.4403 -1.3996  2.7029
   97MOL0     H13332   3.888   0.613   4.950 -1.5308 -3.3876  0.6902
   97MOL0     H13333   3.756   0.461   4.776 -1.4031  1.3252 -2.3845
   97MOL0     H13334   3.687   0.492   4.937 -0.8937  1.9534  0.1669
   97MOL0     H13335   3.619   0.476   4.605 -2.1079  0.1795 -1.6883
   97MOL0     H13336   3.381   0.673   4.424  0.4433 -1.2667 -0.6108
   97MOL0     H13337   3.503   0.541   4.424  3.2225 -0.0964 -0.8441
   97MOL0     H13338   3.688   0.694   4.397  1.2085  0.6233 -2.3923
   97MOL0     H13339   3.581   0.703   4.266 -2.5467 -0.3200  0.3527
   97MOL0     H13340   3.493   0.932   4.352  0.9499  1.0650 -1.7543
   97MOL0     H13341   3.588   0.898   4.497 -3.4050 -0.6828 -0.4797
   97MOL0     H13342   3.735   1.049   4.359  0.6767  0.0918 -1.0190
   97MOL0     H13343   3.790   0.892   4.383 -1.9934 -0.3476  1.9403
   97MOL0     H13344   3.615   1.174   4.218 -0.8977  1.3048 -0.3392
   97MOL0     H13345   3.524   1.427   3.953  1.4841  0.9468  0.2962
   97MOL0     H13346   3.652   1.439   4.074 -0.1466  0.8249 -0.9896
   97MOL0     H13347   3.496   1.364   4.114  0.2293  0.4726  1.8843
   97MOL0     H13348   3.471   1.251   3.536  0.6567  1.8225  0.9343
   97MOL0     H13349   3.418   1.281   3.311 -0.8993 -0.4437  3.1733
   97MOL0     H13350   3.409   1.365   3.114  0.9743  0.4623  1.0929
   97MOL0     H13351   3.487   1.416   2.971 -0.7940  1.3177  1.4950
   97MOL0     H13352   3.408   1.142   3.068  1.1187  0.0398  1.4856
   97MOL0     H13353   3.346   1.233   2.925 -1.0862  0.3878  2.6426
   97MOL0     H13354   3.640   1.157   2.955 -0.4994  1.9141  1.6060
   97MOL0     H13355   3.569   1.226   2.819  0.5300 -1.3356 -1.7422
   97MOL0     H13356   3.469   0.952   2.911  1.7685 -2.8889 -0.8129
   97MOL0     H13357   3.628   0.952   2.841  0.0807 -0.6426 -1.3668
   97MOL0     H13358   3.566   1.066   2.645 -1.7555  2.3532  0.5425
   97MOL0     H13359   3.503   0.901   2.663 -2.4860 -0.9428 -0.4218
   97MOL0     H13360   3.342   1.074   2.553 -3.2411  4.8309  0.7238
   97MOL0     H13361   3.330   1.152   2.711  0.5881 -0.3777 -0.3223
   97MOL0     H13362   3.261   0.904   2.795 -2.3845 -0.5308  0.1319
   97MOL0     H13363   3.248   0.886   2.611  3.0907 -0.1112  0.5266
   97MOL0     H13364   3.087   1.089   2.623  1.0271  0.9401  0.0131
   97MOL0     H13365   3.098   1.068   2.804  0.7414 -2.6518  1.4792
   97MOL0     H13366   3.851   1.291   3.215 -1.2658 -5.5812 -1.7120
   97MOL0     H13367   3.883   1.233   3.464 -1.0156  0.9789  3.2626
   97MOL0     H13368   3.776   1.048   3.778  1.1892  3.4929  0.7283
   97MOL0     H13369   3.778   0.889   3.942  0.7165  0.6631 -0.3011
   97MOL0     H13370   3.969   1.019   4.182 -1.1032  0.7478  1.3933
   97MOL0     H13371   4.005   1.178   4.011 -0.9894 -1.9045  0.7657
   97MOL0     H13372   4.377   1.485   3.843 -0.1525  3.4873  1.2833
   97MOL0     H13373   4.455   1.578   3.643  0.7137  0.8687  0.8324
   97MOL0     H13374   4.425   1.768   3.454 -0.0117 -1.2156  0.7075
   97MOL0     H13375   4.508   1.618   3.414 -0.8993 -2.0603 -1.3112
   97MOL0     H13376   4.436   1.642   3.179 -2.4204 -0.0200  0.6544
   97MOL0     H13377   4.544   1.770   3.235  0.3861 -1.3542  1.0585
   97MOL0     H13378   4.236   1.785   3.194  0.7107 -0.1080  3.1642
   97MOL0     H13379   4.306   1.900   3.285 -0.6345  1.3580 -1.2297
   97MOL0     H13380   4.488   1.919   3.095 -0.5259 -0.4659  0.6580
   97MOL0     H13381   4.354   2.029   3.116 -0.6074 -0.4748  2.3468
   97MOL0     H13382   4.291   1.837   2.737  1.5752  1.3873 -1.2673
   97MOL0     H13383   4.061   1.555   3.467 -3.6872 -1.3005  2.8470
   97MOL0     H13384   3.871   1.589   3.682  0.1796 -0.0763  1.5699
   97MOL0     H13385   3.887   1.427   3.606  1.1742 -0.3867 -1.3031
   97MOL0     H13386   3.888   1.458   3.789 -0.0265 -1.6737 -1.3088
   98MOL0     O13387   7.059   8.101   5.710 -0.1989  1.0425 -0.9190
   98MOL0     C13388   6.989   8.198   5.711 -0.3592 -0.3353  0.5699
   98MOL0     O13389   7.026   8.315   5.756 -0.8385  0.9218  0.0483
   98MOL0     C13390   7.147   8.316   5.830  0.9183 -0.1908 -0.2594
   98MOL0     C13391   7.136   8.355   5.966 -0.2871 -0.4440 -1.0302
   98MOL0     C13392   7.252   8.372   6.043 -0.2316 -0.2950  0.8482
   98MOL0     C13393   7.378   8.353   5.987 -0.0258 -0.2032  0.1798
   98MOL0     O13394   7.492   8.360   6.057  0.5652 -0.5591  0.4285
   98MOL0     C13395   7.491   8.363   6.197  1.3729 -0.4784 -0.6795
   98MOL0     C13396   7.637   8.351   6.229  0.7669 -0.4735  1.0998
   98MOL0     C13397   7.657   8.368   6.378  0.2827 -0.4939 -0.2211
   98MOL0     C13398   7.800   8.330   6.418 -0.9703  1.2296 -0.6652
   98MOL0     C13399   7.884   8.457   6.449 -0.2278 -0.5198 -0.2133
   98MOL0     C13400   8.018   8.413   6.481 -0.1265 -0.5593  0.0931
   98MOL0     C13401   8.100   8.376   6.352 -0.2692  0.4561 -1.1640
   98MOL0     C13402   8.253   8.372   6.389  0.1351 -0.1643 -0.1741
   98MOL0     N13403   8.329   8.372   6.266  0.3318 -0.0399  0.4679
   98MOL0     C13404   8.420   8.476   6.229  0.7491  0.1896  0.3262
   98MOL0     C13405   8.471   8.441   6.108  0.1378  0.2847 -0.1488
   98MOL0     C13406   8.571   8.527   6.034  0.5401 -0.2603 -0.6099
   98MOL0     C13407   8.505   8.593   5.905 -0.3948  1.0755 -0.6449
   98MOL0     C13408   8.617   8.643   5.812 -0.4558 -0.1350 -0.6307
   98MOL0     C13409   8.667   8.788   5.834 -0.1471 -1.0068  0.2031
   98MOL0     O13410   8.766   8.831   5.742 -0.3805  0.2925 -0.5022
   98MOL0     C13411   8.898   8.804   5.755  0.7009 -0.2482  0.2153
   98MOL0     C13412   8.971   8.845   5.647 -0.3468  0.5248  0.5151
   98MOL0     C13413   9.112   8.829   5.633 -0.1003  0.2133 -1.0970
   98MOL0     C13414   9.170   8.890   5.504  0.1477  0.0537 -0.4101
   98MOL0     C13415   9.178   8.774   5.744 -0.6738 -0.5486  0.6416
   98MOL0     C13416   9.325   8.768   5.735 -0.7120 -0.0625  0.4270
   98MOL0     O13417   9.389   8.823   5.837 -0.0777 -0.9278 -0.5261
   98MOL0     C13418   9.526   8.843   5.839 -0.1627  0.2634  0.3288
   98MOL0     C13419   9.589   8.797   5.955  0.2325 -0.2666 -0.5427
   98MOL0     C13420   9.726   8.807   5.964 -0.1999  0.3404 -0.2076
   98MOL0     C13421   9.800   8.880   5.870 -0.4368  0.6084 -0.6685
   98MOL0     O13422   9.942   8.899   5.869 -0.6432 -0.8083  0.4721
   98MOL0     C13423  10.024   8.801   5.936  0.2900 -0.1103 -0.4270
   98MOL0     C13424  10.164   8.846   5.928 -0.6995 -0.0052  0.0859
   98MOL0     C13425  10.228   8.842   5.789 -0.2471 -0.9233 -0.3026
   98MOL0     C13426  10.366   8.781   5.806  0.0743  0.5591  0.1118
   98MOL0     C13427  10.466   8.799   5.696  0.0844  0.9535  0.6421
   98MOL0     C13428  10.444   8.690   5.593 -0.7671  0.2490 -0.4106
   98MOL0     C13429  10.569   8.695   5.497 -0.4141 -0.2410  1.1584
   98MOL0     C13430  10.680   8.591   5.522  0.5407  0.4720 -0.4218
   98MOL0    Cl13431  10.698   8.563   5.699 -0.2065  0.1525 -0.0709
   98MOL0     C13432   9.745   8.929   5.759 -0.1095  0.2193 -0.7593
   98MOL0     C13433   9.604   8.899   5.739 -1.3507  0.0594 -0.6998
   98MOL0     O13434   9.378   8.728   5.633 -0.7873 -0.5356  0.0791
   98MOL0     C13435   9.110   8.731   5.853  0.0384  0.4675 -0.6921
   98MOL0     C13436   8.967   8.739   5.857  0.2609  0.7970  1.4695
   98MOL0     N13437   8.415   8.316   6.076 -0.9862 -0.3293 -0.3050
   98MOL0     N13438   8.334   8.274   6.172 -0.5924 -0.2143 -0.4156
   98MOL0     C13439   7.384   8.313   5.853 -0.6553  0.2004  0.0632
   98MOL0     C13440   7.272   8.290   5.778 -0.4978 -0.3235  0.2444
   98MOL0     C13441   6.857   8.190   5.638 -0.5545 -0.0779 -0.9068
   98MOL0     C13442   6.760   8.293   5.658 -0.0776 -0.6657  0.5041
   98MOL0     C13443   6.632   8.293   5.606 -0.4391  0.1853  0.0131
   98MOL0     C13444   6.589   8.177   5.546  0.0342  0.0158  0.3761
   98MOL0     O13445   6.455   8.179   5.497  0.2166 -0.3283 -0.5109
   98MOL0     C13446   6.413   8.304   5.430 -0.0265 -0.2897  0.6918
   98MOL0     C13447   6.307   8.281   5.326  0.7462 -0.5659 -0.5382
   98MOL0     C13448   6.219   8.406   5.289 -1.2176 -0.8949 -0.2125
   98MOL0     C13449   6.302   8.526   5.238 -0.5899 -0.7147  0.5999
   98MOL0     C13450   6.359   8.593   5.355  0.2914  0.4090 -0.3304
   98MOL0     C13451   6.388   8.636   5.466  0.5121 -0.2877 -0.6509
   98MOL0     C13452   6.679   8.067   5.528 -0.5445  0.1123  0.9192
   98MOL0     C13453   6.808   8.079   5.573  1.1473  0.4496 -0.6440
   98MOL0     C13454   6.885   7.962   5.525 -0.2824  0.0379 -0.1293
   98MOL0     H13455   7.037   8.368   6.009  0.3567  0.0574  0.3440
   98MOL0     H13456   7.234   8.397   6.147 -0.1452  1.4427  0.4718
   98MOL0     H13457   7.452   8.272   6.245  0.7009 -0.1836 -0.6469
   98MOL0     H13458   7.443   8.453   6.235 -1.0133 -0.8910 -2.4334
   98MOL0     H13459   7.650   8.247   6.198 -2.2271  0.3211 -3.7333
   98MOL0     H13460   7.695   8.418   6.164 -0.6037  0.7581  1.0960
   98MOL0     H13461   7.638   8.472   6.406 -0.4585 -0.5618 -0.4356
   98MOL0     H13462   7.592   8.298   6.431  0.9369 -0.7877  0.2097
   98MOL0     H13463   7.807   8.269   6.508 -0.6765 -0.5389 -1.8355
   98MOL0     H13464   7.848   8.275   6.337  0.6546 -1.2474  1.7830
   98MOL0     H13465   7.847   8.510   6.537 -0.1583 -3.8753  2.0159
   98MOL0     H13466   7.886   8.527   6.364 -1.7963  3.2704  2.5707
   98MOL0     H13467   8.057   8.504   6.528  3.4341 -1.3784 -1.0041
   98MOL0     H13468   8.031   8.332   6.553  2.0001  0.5908  1.0934
   98MOL0     H13469   8.067   8.438   6.268 -4.8305  1.4254  1.0387
   98MOL0     H13470   8.089   8.277   6.308  4.7197  0.7312 -3.6453
   98MOL0     H13471   8.280   8.464   6.441  0.9029 -0.9482  0.8534
   98MOL0     H13472   8.271   8.276   6.439 -0.9111 -0.2333  0.1094
   98MOL0     H13473   8.447   8.570   6.275  0.3146  0.4986 -0.0392
   98MOL0     H13474   8.660   8.471   6.005  1.3170  2.0914 -3.2642
   98MOL0     H13475   8.593   8.611   6.101  1.2707 -0.8760 -0.0768
   98MOL0     H13476   8.454   8.518   5.843  0.4208  1.2790 -1.5796
   98MOL0     H13477   8.439   8.675   5.935 -1.8172  0.7205 -2.5685
   98MOL0     H13478   8.705   8.580   5.827  0.5498  1.0478 -1.3498
   98MOL0     H13479   8.583   8.638   5.708  1.2276  1.6421 -1.3182
   98MOL0     H13480   8.582   8.856   5.834 -0.1578 -0.9878  1.9969
   98MOL0     H13481   8.701   8.794   5.938  1.0423  2.4019 -0.2639
   98MOL0     H13482   8.922   8.889   5.561  1.2972  2.8153  0.6696
   98MOL0     H13483   9.220   8.802   5.462  0.2957 -1.8726  3.3750
   98MOL0     H13484   9.239   8.975   5.513  1.2549 -0.5052 -2.7141
   98MOL0     H13485   9.092   8.926   5.436  2.4958  5.5445 -0.7216
   98MOL0     H13486   9.538   8.742   6.033 -0.5329  2.7594  1.2460
   98MOL0     H13487   9.767   8.759   6.052  0.1893  3.2366  1.3251
   98MOL0     H13488   9.996   8.799   6.041 -0.6475 -0.1318 -0.6687
   98MOL0     H13489  10.017   8.700   5.895 -0.1853 -0.5873  0.7969
   98MOL0     H13490  10.162   8.947   5.970  1.5334 -0.9285  2.6787
   98MOL0     H13491  10.210   8.782   6.004 -2.8574 -1.2239  0.4430
   98MOL0     H13492  10.252   8.943   5.755  1.8081 -1.0351  0.6598
   98MOL0     H13493  10.174   8.792   5.709 -1.0102 -0.0582 -0.3427
   98MOL0     H13494  10.333   8.678   5.825 -0.1718  0.5233 -0.4755
   98MOL0     H13495  10.409   8.820   5.898  0.6791 -1.5518  0.7926
   98MOL0     H13496  10.457   8.899   5.653  2.5566  0.5387 -1.0746
   98MOL0     H13497  10.569   8.797   5.731  0.7385  1.1876 -1.1573
   98MOL0     H13498  10.356   8.716   5.533  1.1659  1.8883 -2.7202
   98MOL0     H13499  10.418   8.598   5.646  0.0075 -0.1950 -0.7912
   98MOL0     H13500  10.614   8.792   5.475  0.7261 -1.1421 -0.7204
   98MOL0     H13501  10.527   8.673   5.398  0.4619  1.8965  0.2585
   98MOL0     H13502  10.780   8.613   5.482  0.1829  0.2914 -1.4425
   98MOL0     H13503  10.659   8.494   5.476 -0.6469 -0.5290  2.0606
   98MOL0     H13504   9.810   8.984   5.692 -1.1730  2.1854 -0.2571
   98MOL0     H13505   9.551   8.934   5.651  2.7248  5.2467 -1.5978
   98MOL0     H13506   9.175   8.692   5.931  0.1148  0.2910 -0.8449
   98MOL0     H13507   8.914   8.698   5.942 -2.8520  3.8900  1.2339
   98MOL0     H13508   7.485   8.300   5.816 -1.7305 -3.4091 -1.9874
   98MOL0     H13509   7.278   8.248   5.678 -0.1675 -1.1275  0.5917
   98MOL0     H13510   6.782   8.380   5.719 -1.5388  1.2877 -1.5771
   98MOL0     H13511   6.568   8.379   5.625 -2.7468 -0.6324 -3.1271
   98MOL0     H13512   6.361   8.373   5.497 -1.5779  0.9005 -1.5802
   98MOL0     H13513   6.495   8.358   5.383 -1.4372  1.4197  0.0836
   98MOL0     H13514   6.236   8.212   5.371 -1.0570 -1.1864 -3.9707
   98MOL0     H13515   6.359   8.248   5.235  2.2626 -1.0687  0.4655
   98MOL0     H13516   6.170   8.365   5.200  3.6390 -1.6142 -2.9273
   98MOL0     H13517   6.164   8.437   5.378 -0.6703  0.6642 -0.3875
   98MOL0     H13518   6.240   8.599   5.186 -0.7962 -1.0136  0.4259
   98MOL0     H13519   6.391   8.494   5.183 -0.9669 -2.1065  0.7607
   98MOL0     H13520   6.421   8.684   5.556  3.9315  1.6574 -2.7245
   98MOL0     H13521   6.644   7.971   5.491 -2.6358 -0.6966  4.4463
   98MOL0     H13522   6.966   8.005   5.466 -0.3003 -0.0558 -0.2233
   98MOL0     H13523   6.926   7.904   5.609  2.3801  1.5268 -0.2942
   98MOL0     H13524   6.835   7.896   5.453 -1.5526 -2.7407  2.9997
   99MOL0     O13525   5.336   4.034  11.222  0.1111  0.2552  0.2351
   99MOL0     C13526   5.418   3.963  11.162 -0.3806  0.1589 -0.3698
   99MOL0     O13527   5.545   3.945  11.198 -0.2905 -0.5812 -0.7268
   99MOL0     C13528   5.609   4.005  11.305 -0.7492  0.4286 -0.5662
   99MOL0     C13529   5.584   4.134  11.351 -0.2095 -0.3997  0.0204
   99MOL0     C13530   5.648   4.175  11.476  0.6025  0.0524  0.1259
   99MOL0     C13531   5.742   4.086  11.542 -0.1842 -0.4339  0.5765
   99MOL0     O13532   5.819   4.127  11.642 -0.5123  0.4764  0.2083
   99MOL0     C13533   5.759   4.199  11.759 -0.0102 -0.1976  0.4718
   99MOL0     C13534   5.879   4.265  11.829 -0.7326  0.1713  1.3172
   99MOL0     C13535   5.977   4.335  11.718  0.6942 -0.1705 -0.2097
   99MOL0     C13536   5.895   4.440  11.635 -1.2270  1.1671  0.7005
   99MOL0     C13537   5.823   4.558  11.700  0.1111  0.0008 -0.3492
   99MOL0     C13538   5.928   4.649  11.776  0.5166  0.3089 -0.6241
   99MOL0     C13539   5.860   4.771  11.839  0.2495 -0.1097 -0.3531
   99MOL0     C13540   5.943   4.807  11.970  0.2173 -1.1196  1.1704
   99MOL0     N13541   5.910   4.939  12.018  1.3350 -0.3545  0.7246
   99MOL0     C13542   5.821   4.960  12.124  0.0845 -0.4654  0.1220
   99MOL0     C13543   5.787   5.091  12.117 -0.4545  0.2962 -0.1355
   99MOL0     C13544   5.706   5.178  12.211  0.2371 -0.8178 -0.0524
   99MOL0     C13545   5.806   5.263  12.297 -0.9205 -0.3917 -0.3813
   99MOL0     C13546   5.890   5.187  12.396  0.5554  0.2716  0.4449
   99MOL0     C13547   5.807   5.105  12.483  0.5224  0.3713 -0.7009
   99MOL0     O13548   5.685   5.165  12.542 -0.3495  0.6120 -0.5211
   99MOL0     C13549   5.622   5.101  12.648  0.5610 -0.5948  0.7710
   99MOL0     C13550   5.663   4.989  12.715 -0.0545 -0.1603  1.3429
   99MOL0     C13551   5.595   4.948  12.827 -0.3910  1.0328  0.7986
   99MOL0     C13552   5.641   4.815  12.898 -0.5739 -0.6855 -0.4623
   99MOL0     C13553   5.473   5.005  12.871 -0.0198  0.8526 -0.0318
   99MOL0     C13554   5.412   4.956  12.996 -0.4669 -0.5353 -0.0636
   99MOL0     O13555   5.289   4.919  12.985  0.2966 -0.0397 -0.7877
   99MOL0     C13556   5.217   4.908  13.095  0.5550  0.5933 -0.9854
   99MOL0     C13557   5.196   5.010  13.183 -0.9287  0.6722 -0.5836
   99MOL0     C13558   5.107   4.991  13.291  0.3622  1.0783  0.6253
   99MOL0     C13559   5.060   4.864  13.338 -0.0302 -0.3738 -0.2185
   99MOL0     O13560   4.967   4.854  13.436 -0.3905  0.2350  0.2412
   99MOL0     C13561   4.832   4.865  13.384 -0.5790 -1.0443  0.3453
   99MOL0     C13562   4.757   4.731  13.403  0.9882  1.4021 -0.3405
   99MOL0     C13563   4.690   4.735  13.537  0.5710  1.0630 -0.4317
   99MOL0     C13564   4.632   4.596  13.580  0.2799 -0.7153 -0.1867
   99MOL0     C13565   4.552   4.622  13.707 -0.1529 -0.5785  0.2718
   99MOL0     C13566   4.465   4.498  13.756 -0.2806 -0.7640 -0.3417
   99MOL0     C13567   4.418   4.503  13.908 -0.0315  0.5425  0.5739
   99MOL0     C13568   4.304   4.397  13.936 -0.5986  0.4094  0.1499
   99MOL0    Cl13569   4.140   4.455  13.933  0.4839  0.3231  0.0967
   99MOL0     C13570   5.105   4.747  13.257  0.1137  0.0527 -0.7384
   99MOL0     C13571   5.175   4.776  13.134  0.5000  0.3784  0.2197
   99MOL0     O13572   5.481   4.976  13.097 -0.3638 -0.1600 -0.1658
   99MOL0     C13573   5.421   5.109  12.797  0.8571  0.3643  0.3815
   99MOL0     C13574   5.495   5.165  12.688  0.4885  0.9423 -0.0121
   99MOL0     N13575   5.877   5.143  12.033 -1.2573  0.8123  0.0541
   99MOL0     N13576   5.948   5.058  11.962 -0.2415 -0.1490 -0.6653
   99MOL0     C13577   5.753   3.961  11.481 -0.3510 -0.4224  0.4173
   99MOL0     C13578   5.700   3.922  11.361  0.3971  0.1957  0.5014
   99MOL0     C13579   5.374   3.895  11.040  0.3592 -0.0216 -0.7158
   99MOL0     C13580   5.466   3.804  10.985 -0.0429  0.7111  0.2990
   99MOL0     C13581   5.438   3.749  10.860  0.1130 -0.0251 -0.2220
   99MOL0     C13582   5.321   3.755  10.793 -0.0153 -0.6948  0.6773
   99MOL0     O13583   5.288   3.688  10.672 -0.1203  0.5428 -0.1891
   99MOL0     C13584   5.383   3.606  10.601 -0.3061 -0.0241 -0.1448
   99MOL0     C13585   5.323   3.567  10.475  0.4001 -1.0399  0.4240
   99MOL0     C13586   5.184   3.490  10.490  0.8543 -0.2395  0.2570
   99MOL0     C13587   5.121   3.463  10.356 -0.3579  0.2111 -0.3480
   99MOL0     C13588   5.190   3.360  10.274 -0.0681  0.8990  0.2228
   99MOL0     C13589   5.265   3.286  10.219  0.0509  0.4993  0.8798
   99MOL0     C13590   5.218   3.820  10.855 -1.5736 -0.0126 -0.0008
   99MOL0     C13591   5.247   3.900  10.970  0.3002  0.3365  0.5541
   99MOL0     C13592   5.139   3.976  11.026 -1.2538 -0.1859 -0.5329
   99MOL0     H13593   5.513   4.202  11.304 -3.6363 -0.9115  3.9030
   99MOL0     H13594   5.618   4.263  11.533 -2.6925 -2.3766  2.4800
   99MOL0     H13595   5.714   4.129  11.830 -0.9342 -0.1525 -0.0458
   99MOL0     H13596   5.681   4.271  11.735  1.7469  1.7204  0.2519
   99MOL0     H13597   5.847   4.351  11.889 -0.0406  1.6281 -0.3250
   99MOL0     H13598   5.943   4.187  11.872  1.6449 -0.5674 -3.0235
   99MOL0     H13599   6.052   4.384  11.781 -0.3498  1.0551  0.1273
   99MOL0     H13600   6.031   4.266  11.653  0.0699  1.5562 -2.7281
   99MOL0     H13601   5.977   4.482  11.576 -0.2253  1.1794  2.0526
   99MOL0     H13602   5.829   4.381  11.570  0.7537 -0.4028  0.0370
   99MOL0     H13603   5.739   4.520  11.759 -0.5773 -0.1871 -1.4124
   99MOL0     H13604   5.782   4.633  11.632  0.7217 -0.5560 -1.3624
   99MOL0     H13605   5.974   4.600  11.863 -3.0187 -0.4094  1.0797
   99MOL0     H13606   6.008   4.680  11.710  0.6035  1.3974 -0.0325
   99MOL0     H13607   5.754   4.761  11.863  0.7517  0.0890  2.2725
   99MOL0     H13608   5.864   4.850  11.763 -3.3292 -0.7247 -1.3823
   99MOL0     H13609   5.915   4.729  12.041 -0.6540 -2.1860 -0.2991
   99MOL0     H13610   6.047   4.814  11.937 -0.4324 -2.5555 -1.4509
   99MOL0     H13611   5.767   4.894  12.192 -2.7629 -0.5975 -2.1075
   99MOL0     H13612   5.638   5.111  12.263 -1.7528 -1.0324 -2.7185
   99MOL0     H13613   5.655   5.256  12.154  0.1033 -0.8235  0.0611
   99MOL0     H13614   5.864   5.320  12.224  1.6631 -1.2429  0.8992
   99MOL0     H13615   5.752   5.341  12.352  1.9337  3.4058 -2.4527
   99MOL0     H13616   5.956   5.115  12.346 -0.0703 -1.3814  1.8657
   99MOL0     H13617   5.950   5.260  12.451  1.7832  0.6491 -1.3170
   99MOL0     H13618   5.766   5.018  12.431 -0.2584 -1.0124  2.0398
   99MOL0     H13619   5.865   5.062  12.565  0.8845 -1.4514 -1.8626
   99MOL0     H13620   5.761   4.947  12.693  0.7928  1.3339  2.0947
   99MOL0     H13621   5.646   4.837  13.005 -1.6089 -0.7020 -0.3968
   99MOL0     H13622   5.736   4.780  12.856 -2.1176 -2.3015 -2.8258
   99MOL0     H13623   5.573   4.739  12.860 -0.9311 -0.2067 -0.7922
   99MOL0     H13624   5.224   5.113  13.162  2.8822  0.7892  3.5605
   99MOL0     H13625   5.083   5.076  13.355 -1.3096  1.0935  0.0261
   99MOL0     H13626   4.784   4.947  13.439  0.1573  0.2445 -0.8545
   99MOL0     H13627   4.836   4.889  13.278  1.2663 -0.4701  0.5022
   99MOL0     H13628   4.688   4.706  13.322 -0.2641  0.9301  0.8423
   99MOL0     H13629   4.836   4.656  13.400 -0.9250 -1.0149  3.1269
   99MOL0     H13630   4.606   4.805  13.540 -0.5111 -0.1864 -0.5561
   99MOL0     H13631   4.774   4.753  13.605  0.4389 -1.9329  0.6861
   99MOL0     H13632   4.709   4.523  13.605 -1.0056 -1.8239  0.7223
   99MOL0     H13633   4.567   4.548  13.506 -0.0963 -6.2305  3.1557
   99MOL0     H13634   4.626   4.634  13.786  1.0852 -4.4605 -0.0951
   99MOL0     H13635   4.492   4.712  13.696 -0.2195 -0.6417  0.1031
   99MOL0     H13636   4.521   4.406  13.738 -0.6974 -1.1727  0.4159
   99MOL0     H13637   4.372   4.498  13.698  0.8614 -1.4554 -2.2953
   99MOL0     H13638   4.365   4.597  13.927 -1.7644  0.6040 -3.5118
   99MOL0     H13639   4.511   4.487  13.964  1.5851 -0.6921 -2.2700
   99MOL0     H13640   4.322   4.366  14.040  1.0585 -0.8849 -0.4615
   99MOL0     H13641   4.317   4.313  13.867  0.3216  1.7050 -1.3321
   99MOL0     H13642   5.081   4.644  13.281  0.3692  0.4807  1.5277
   99MOL0     H13643   5.190   4.692  13.067  1.1646  0.8647 -0.2467
   99MOL0     H13644   5.321   5.138  12.826  0.4756 -0.3739 -0.1589
   99MOL0     H13645   5.458   5.246  12.627 -1.0474  0.0851 -0.2801
   99MOL0     H13646   5.835   3.911  11.532  1.6877  3.3242  1.1974
   99MOL0     H13647   5.721   3.822  11.325 -3.0433  0.1710 -1.8896
   99MOL0     H13648   5.563   3.773  11.024 -1.3721 -0.1200  3.2404
   99MOL0     H13649   5.514   3.693  10.806 -1.0976 -2.7978  0.7938
   99MOL0     H13650   5.474   3.664  10.585  1.3182 -2.6981 -1.4879
   99MOL0     H13651   5.422   3.514  10.646 -0.1200 -1.9519 -3.8257
   99MOL0     H13652   5.378   3.504  10.404 -1.3480  0.9070 -2.8739
   99MOL0     H13653   5.293   3.655  10.418 -2.9205 -2.1021  0.2947
   99MOL0     H13654   5.203   3.396  10.543 -3.2876 -2.9040 -2.4329
   99MOL0     H13655   5.111   3.534  10.558 -0.3194 -2.2654  0.3981
   99MOL0     H13656   5.128   3.552  10.293  3.9977 -0.2585 -0.7932
   99MOL0     H13657   5.016   3.435  10.369  0.0096  0.1908  4.2548
   99MOL0     H13658   5.314   3.195  10.190 -1.1806 -0.5624  2.0105
   99MOL0     H13659   5.124   3.807  10.802 -0.2454  3.4048 -3.7323
   99MOL0     H13660   5.158   4.083  11.022  0.9402 -0.4581  1.0322
   99MOL0     H13661   5.048   3.965  10.965 -0.4196 -2.9973 -1.4543
   99MOL0     H13662   5.109   3.945  11.127 -2.2336 -3.0204 -1.5734
  100MOL0     O13663  10.737  10.537   6.491  0.0578 -0.2285 -0.4137
  100MOL0     C13664  10.714  10.535   6.375  0.0337  0.4893  0.1194
  100MOL0     O13665  10.621  10.618   6.318  0.3503  0.4116 -0.2188
  100MOL0     C13666  10.532  10.682   6.398  0.8652  0.3237 -0.3662
  100MOL0     C13667  10.533  10.824   6.416 -0.0629 -1.3162 -0.9010
  100MOL0     C13668  10.426  10.883   6.489  0.2047  0.1151 -0.2187
  100MOL0     C13669  10.330  10.807   6.558  1.2593 -0.5357 -0.3281
  100MOL0     O13670  10.232  10.870   6.636 -0.4967  0.3102  0.4984
  100MOL0     C13671  10.109  10.799   6.675 -0.0325  0.6851 -0.4551
  100MOL0     C13672   9.998  10.894   6.690  0.1382  0.3352 -0.2138
  100MOL0     C13673   9.877  10.827   6.761 -0.0055 -0.0870 -0.5572
  100MOL0     C13674   9.859  10.855   6.906 -0.7017  0.3981 -0.7400
  100MOL0     C13675   9.737  10.935   6.928 -0.0787 -0.8464  0.4557
  100MOL0     C13676   9.713  10.955   7.084  0.2817 -0.0681  1.3591
  100MOL0     C13677   9.579  11.028   7.115  0.3089  0.0620  0.4611
  100MOL0     C13678   9.529  10.991   7.256 -1.9119 -0.1678  0.9620
  100MOL0     N13679   9.613  11.063   7.345  1.0398  0.1421  0.5935
  100MOL0     C13680   9.572  11.166   7.428  0.3070 -0.1481  0.4542
  100MOL0     C13681   9.675  11.210   7.504  0.5449  0.2950  0.0421
  100MOL0     C13682   9.683  11.341   7.573  0.5114  0.3281 -1.1642
  100MOL0     C13683   9.605  11.330   7.712  0.3380  0.2579 -0.9683
  100MOL0     C13684   9.693  11.282   7.822 -0.6400  1.3442  0.1413
  100MOL0     C13685   9.756  11.151   7.787  0.2064  0.8685 -0.4188
  100MOL0     O13686   9.782  11.074   7.905 -0.4027 -0.1461  0.1490
  100MOL0     C13687   9.858  10.960   7.884  0.2215 -0.6591 -1.1437
  100MOL0     C13688   9.913  10.892   7.991 -0.0997  0.3003 -0.6610
  100MOL0     C13689   9.995  10.773   7.983 -0.2364 -0.1650 -0.0213
  100MOL0     C13690  10.049  10.718   8.105  0.5824 -0.3123  0.0417
  100MOL0     C13691  10.020  10.720   7.855  0.1017  0.9473  0.3189
  100MOL0     C13692  10.101  10.595   7.820 -0.1133 -0.5612 -0.5933
  100MOL0     O13693  10.042  10.474   7.842  0.2467  0.1534 -0.2879
  100MOL0     C13694  10.120  10.366   7.860 -0.8553 -1.0282  0.3961
  100MOL0     C13695  10.176  10.340   7.981  0.5106  0.7013  0.1967
  100MOL0     C13696  10.269  10.238   7.999 -0.5543 -0.2512 -0.1013
  100MOL0     C13697  10.295  10.151   7.895  1.0629 -0.1084  0.4964
  100MOL0     O13698  10.366  10.038   7.937  1.0078  0.5423  0.1344
  100MOL0     C13699  10.432   9.961   7.840  0.3059  0.1389 -0.6723
  100MOL0     C13700  10.462   9.825   7.906  0.9861  0.0730  0.9308
  100MOL0     C13701  10.343   9.722   7.927  0.3540 -0.3512  0.7695
  100MOL0     C13702  10.401   9.585   7.969  0.0462  0.6157 -0.2347
  100MOL0     C13703  10.287   9.482   7.976  0.3086 -0.7046  0.0124
  100MOL0     C13704  10.186   9.517   8.090  1.1221  0.5075 -0.3044
  100MOL0     C13705  10.133   9.385   8.158 -0.3140  0.0855 -0.2116
  100MOL0     C13706  10.048   9.421   8.284  0.4974  0.0018  0.0867
  100MOL0    Cl13707  10.142   9.483   8.428 -0.0845  0.2574 -0.1983
  100MOL0     C13708  10.240  10.180   7.766  1.0700 -0.5394  0.1941
  100MOL0     C13709  10.155  10.290   7.751  0.7368 -0.0899  0.4344
  100MOL0     O13710  10.221  10.607   7.805 -0.2636 -0.3377  0.8997
  100MOL0     C13711   9.948  10.775   7.748  0.1285 -0.2775 -0.4769
  100MOL0     C13712   9.874  10.889   7.764 -0.6628  0.0274  0.3000
  100MOL0     N13713   9.786  11.121   7.471 -0.1544 -0.4917  0.0656
  100MOL0     N13714   9.743  11.038   7.375  0.2289  1.0798  0.4240
  100MOL0     C13715  10.334  10.669   6.541  0.3421 -0.5453 -0.1871
  100MOL0     C13716  10.435  10.611   6.461  0.2458  0.0372  0.4359
  100MOL0     C13717  10.787  10.444   6.297  0.2372 -0.2807 -0.2513
  100MOL0     C13718  10.852  10.339   6.375  0.0891  0.0803 -0.3446
  100MOL0     C13719  10.928  10.248   6.310  0.2604  0.1947  0.3949
  100MOL0     C13720  10.952  10.252   6.172 -0.8826  1.0319  0.8418
  100MOL0     O13721  11.024  10.149   6.111  0.3246  0.6750 -0.4285
  100MOL0     C13722  11.053  10.152   5.972 -0.7345  1.1339  0.1471
  100MOL0     C13723  11.167  10.055   5.934 -0.1569  0.1618  0.8736
  100MOL0     C13724  11.250  10.113   5.814  0.0232  0.4457 -0.3814
  100MOL0     C13725  11.334   9.990   5.770 -0.1305 -0.2647 -0.0980
  100MOL0     C13726  11.404  10.028   5.641 -0.7083  0.4986 -0.6541
  100MOL0     C13727  11.474  10.071   5.551 -0.7216  0.8009  0.7626
  100MOL0     C13728  10.883  10.353   6.094  0.2946  0.5446 -0.4952
  100MOL0     C13729  10.808  10.451   6.159  0.5609 -0.3803  1.0829
  100MOL0     C13730  10.744  10.554   6.064  0.4648  0.4116  0.4385
  100MOL0     H13731  10.618  10.876   6.374 -0.0512 -0.9573 -0.4350
  100MOL0     H13732  10.426  10.989   6.516  0.9913 -0.3887  1.9730
  100MOL0     H13733  10.125  10.749   6.771 -0.7591  0.3423 -0.5003
  100MOL0     H13734  10.096  10.718   6.603  2.7652 -1.8663  1.6548
  100MOL0     H13735  10.039  10.981   6.743  0.7309 -0.6224  0.9706
  100MOL0     H13736   9.968  10.939   6.595  1.2405 -0.6588 -1.0635
  100MOL0     H13737   9.790  10.872   6.713 -2.0552 -2.1846  0.9809
  100MOL0     H13738   9.868  10.720   6.741 -1.8779  0.5435 -3.9838
  100MOL0     H13739   9.854  10.764   6.968  1.2579 -0.4502 -1.7376
  100MOL0     H13740   9.937  10.917   6.951 -0.6265 -0.6779  0.6870
  100MOL0     H13741   9.648  10.900   6.876  0.5440  0.8471 -1.8744
  100MOL0     H13742   9.758  11.031   6.881 -0.5873 -2.0894 -2.4847
  100MOL0     H13743   9.716  10.856   7.131  1.4188 -1.4428 -1.3644
  100MOL0     H13744   9.795  11.018   7.120  1.5801  0.4514 -2.1073
  100MOL0     H13745   9.501  10.990   7.047  1.4552  0.1546 -0.9530
  100MOL0     H13746   9.582  11.137   7.111 -3.0936  0.5012  3.7792
  100MOL0     H13747   9.421  11.000   7.271 -1.7444 -1.3919  3.2989
  100MOL0     H13748   9.560  10.888   7.278  2.4506 -0.2181 -3.5015
  100MOL0     H13749   9.469  11.202   7.433  0.3532  0.1448 -0.5089
  100MOL0     H13750   9.641  11.419   7.509  2.1794  0.5458 -2.0739
  100MOL0     H13751   9.789  11.366   7.583  0.2406  1.9342 -1.9720
  100MOL0     H13752   9.569  11.428   7.744 -1.3268 -0.5976 -0.1316
  100MOL0     H13753   9.527  11.256   7.695 -0.2546  0.8804 -0.9734
  100MOL0     H13754   9.768  11.354   7.855  2.1526 -0.0291 -2.7005
  100MOL0     H13755   9.634  11.257   7.911  0.8605 -3.7231 -0.0029
  100MOL0     H13756   9.691  11.093   7.720 -1.2009  0.3735  1.2845
  100MOL0     H13757   9.854  11.171   7.742  0.8865 -3.5152 -1.3889
  100MOL0     H13758   9.906  10.929   8.092  0.4793 -2.0934  0.3380
  100MOL0     H13759  10.045  10.788   8.188  2.0029  0.3205 -0.4000
  100MOL0     H13760  10.151  10.700   8.068 -0.4010  2.4001 -4.9656
  100MOL0     H13761   9.992  10.631   8.139 -0.3690  0.8115  1.4415
  100MOL0     H13762  10.149  10.409   8.061  1.9408  0.4772  0.9190
  100MOL0     H13763  10.301  10.196   8.094  3.4329  0.6367 -0.8919
  100MOL0     H13764  10.367   9.935   7.757 -0.9745 -0.7004  0.5647
  100MOL0     H13765  10.530  10.000   7.809  0.5193 -0.6515 -1.0225
  100MOL0     H13766  10.536   9.778   7.841  1.4910 -1.1601  2.3382
  100MOL0     H13767  10.505   9.839   8.006  2.3820 -0.9016  0.4941
  100MOL0     H13768  10.284   9.707   7.836 -1.1338  1.1396  1.4569
  100MOL0     H13769  10.269   9.765   7.994 -0.1929  1.9408 -1.1696
  100MOL0     H13770  10.460   9.598   8.060 -1.9536  2.1488  0.9157
  100MOL0     H13771  10.460   9.552   7.883 -3.0876 -0.9283 -1.9889
  100MOL0     H13772  10.242   9.483   7.876 -0.2115  1.3373  0.2215
  100MOL0     H13773  10.321   9.381   7.998  0.5695 -0.5767  0.2006
  100MOL0     H13774  10.098   9.565   8.045 -0.6864 -4.5146 -2.9791
  100MOL0     H13775  10.236   9.573   8.169  2.1896 -0.2883 -0.3924
  100MOL0     H13776  10.216   9.324   8.194 -0.5730  1.3753  2.8836
  100MOL0     H13777  10.084   9.322   8.084  1.5278  0.5042 -1.8608
  100MOL0     H13778   9.986   9.335   8.310 -0.0825  1.2339  3.2838
  100MOL0     H13779   9.971   9.496   8.260  0.0103 -0.7443 -0.7717
  100MOL0     H13780  10.265  10.131   7.672  1.5124  0.6927 -0.3504
  100MOL0     H13781  10.127  10.311   7.649  0.0684 -2.0662  0.1698
  100MOL0     H13782   9.956  10.710   7.661 -1.0141 -0.0274 -0.7894
  100MOL0     H13783   9.847  10.939   7.671 -0.6990 -0.0377  0.2749
  100MOL0     H13784  10.269  10.602   6.597  3.2138 -3.0681  0.4051
  100MOL0     H13785  10.441  10.503   6.454  0.0981  0.1428 -3.6993
  100MOL0     H13786  10.828  10.328   6.480 -3.1060 -2.3695 -1.1561
  100MOL0     H13787  10.966  10.176   6.382  1.0964  0.4846  0.2442
  100MOL0     H13788  10.964  10.130   5.912  0.5535 -0.6223 -1.2253
  100MOL0     H13789  11.090  10.252   5.950  0.4557  0.8278  0.6386
  100MOL0     H13790  11.124   9.958   5.907 -0.1503 -0.5000  3.0956
  100MOL0     H13791  11.229  10.049   6.024 -2.0170  1.3253  2.3057
  100MOL0     H13792  11.187  10.146   5.731 -1.7082 -2.1959 -0.2646
  100MOL0     H13793  11.316  10.190   5.853 -1.1609 -0.0622  2.9179
  100MOL0     H13794  11.268   9.907   5.745 -0.2555  0.5158 -2.6558
  100MOL0     H13795  11.407   9.961   5.846 -0.7357 -1.1800  0.1438
  100MOL0     H13796  11.512  10.122   5.465  1.0471  0.4969  1.3315
  100MOL0     H13797  10.888  10.346   5.986 -0.7511  2.9493 -0.7599
  100MOL0     H13798  10.638  10.536   6.041 -0.0289  0.8150  2.2548
  100MOL0     H13799  10.748  10.652   6.112 -0.4420  1.1049 -0.8485
  100MOL0     H13800  10.820  10.575   5.988  2.8870 -0.1098  2.5877
  101MOL0     O13801   8.665  11.525   1.576 -0.1498 -0.4336 -0.1276
  101MOL0     C13802   8.677  11.641   1.597  0.3391 -0.3124 -0.8242
  101MOL0     O13803   8.703  11.739   1.513 -0.3100  1.3289  0.4239
  101MOL0     C13804   8.734  11.691   1.388 -0.5462 -0.6613  0.9900
  101MOL0     C13805   8.871  11.692   1.335  0.3015  0.0623 -1.0188
  101MOL0     C13806   8.891  11.676   1.194 -0.2596 -0.5110  0.6887
  101MOL0     C13807   8.788  11.646   1.104  0.5482 -0.1684  0.2403
  101MOL0     O13808   8.797  11.625   0.968 -0.6160  0.8940 -0.1607
  101MOL0     C13809   8.923  11.563   0.925 -0.4570  0.0734 -0.2630
  101MOL0     C13810   8.908  11.519   0.777  0.8210 -0.5072 -0.4576
  101MOL0     C13811   8.876  11.629   0.672  0.4905 -0.2218  1.0917
  101MOL0     C13812   8.845  11.560   0.536 -0.0267 -0.2145 -0.4073
  101MOL0     C13813   8.838  11.676   0.421  0.0830  0.0322  0.2563
  101MOL0     C13814   8.971  11.717   0.374  0.2173 -0.2184 -0.7576
  101MOL0     C13815   8.948  11.773   0.234 -0.1607 -0.2281  0.1009
  101MOL0     C13816   8.950  11.660   0.128  0.5979  0.7357 -0.4755
  101MOL0     N13817   8.883  11.710   0.007  0.0244  0.6955  0.4177
  101MOL0     C13818   8.762  11.669  -0.046 -0.2774  0.2301  0.5439
  101MOL0     C13819   8.762  11.697  -0.181 -0.1992  0.7172 -0.6428
  101MOL0     C13820   8.642  11.680  -0.274 -0.9646  0.2090 -0.5996
  101MOL0     C13821   8.595  11.823  -0.318 -0.0659  1.3805 -0.3147
  101MOL0     C13822   8.484  11.816  -0.419 -0.1360 -0.9381 -0.4447
  101MOL0     C13823   8.457  11.958  -0.470 -0.1057  0.1345  0.3568
  101MOL0     O13824   8.583  12.016  -0.513  0.1601 -0.5450 -0.0687
  101MOL0     C13825   8.585  12.074  -0.633  0.1888  0.0325 -0.9901
  101MOL0     C13826   8.629  12.204  -0.648  0.3009 -1.0366  0.3165
  101MOL0     C13827   8.639  12.257  -0.777  0.4980  0.7071 -0.2685
  101MOL0     C13828   8.687  12.401  -0.790 -0.1361 -0.5768  0.3193
  101MOL0     C13829   8.623  12.179  -0.892  0.6140  0.6526  0.0373
  101MOL0     C13830   8.655  12.228  -1.026 -0.5250  0.3703  0.3237
  101MOL0     O13831   8.567  12.204  -1.129 -0.1748 -0.0600 -0.2064
  101MOL0     C13832   8.598  12.247  -1.250  0.7748 -1.5588 -0.5391
  101MOL0     C13833   8.663  12.166  -1.339 -0.1459  0.5097 -1.3660
  101MOL0     C13834   8.682  12.195  -1.473 -0.7568  0.0014  0.1645
  101MOL0     C13835   8.637  12.315  -1.519  0.8629  0.0737  1.0522
  101MOL0     O13836   8.662  12.344  -1.651 -0.0275  0.4065 -0.3813
  101MOL0     C13837   8.555  12.337  -1.741  1.3771 -0.4929  0.3625
  101MOL0     C13838   8.598  12.274  -1.881 -1.1458  0.4210  0.5495
  101MOL0     C13839   8.709  12.372  -1.928  0.1778 -0.6718 -0.1420
  101MOL0     C13840   8.756  12.320  -2.062  0.2668  0.9257 -0.7617
  101MOL0     C13841   8.877  12.394  -2.120 -0.6028  0.8523 -0.4794
  101MOL0     C13842   8.828  12.495  -2.225  0.4495 -0.9655  0.0582
  101MOL0     C13843   8.950  12.578  -2.271 -0.0650 -0.0825 -0.3583
  101MOL0     C13844   9.014  12.667  -2.172 -0.3878 -0.5443  0.3944
  101MOL0    Cl13845   8.877  12.767  -2.090 -0.2367 -0.1217 -0.4105
  101MOL0     C13846   8.563  12.400  -1.441  0.5477 -0.0451  0.7275
  101MOL0     C13847   8.540  12.363  -1.306 -0.1515  0.1996 -0.3746
  101MOL0     O13848   8.770  12.275  -1.036  0.1773  0.3709 -0.3143
  101MOL0     C13849   8.581  12.045  -0.868 -0.6141  0.7458 -0.3175
  101MOL0     C13850   8.545  11.998  -0.745 -0.6562  0.4891  0.3265
  101MOL0     N13851   8.888  11.760  -0.203  0.0981  0.0930  0.2469
  101MOL0     N13852   8.960  11.754  -0.090 -0.2791 -1.5518 -0.2415
  101MOL0     C13853   8.657  11.637   1.159 -0.5368  0.2546  0.5055
  101MOL0     C13854   8.631  11.654   1.296  0.1294  0.3251  0.2208
  101MOL0     C13855   8.675  11.678   1.747 -0.7787  0.3048  0.0297
  101MOL0     C13856   8.716  11.574   1.835 -1.2438  0.1391 -0.1511
  101MOL0     C13857   8.742  11.598   1.971  0.1252  0.0086  0.4891
  101MOL0     C13858   8.724  11.728   2.022 -0.0736  0.4464  0.7286
  101MOL0     O13859   8.758  11.730   2.151  0.2811 -0.4598  0.4537
  101MOL0     C13860   8.746  11.856   2.216  0.0880 -0.7581 -0.0961
  101MOL0     C13861   8.787  11.815   2.360  0.0548  0.6120 -0.3616
  101MOL0     C13862   8.750  11.915   2.476 -0.4477  0.4694  0.2519
  101MOL0     C13863   8.800  12.058   2.448  0.1460 -0.1154  0.9094
  101MOL0     C13864   8.931  12.062   2.392  0.0709  0.7217 -0.3755
  101MOL0     C13865   9.044  12.058   2.356 -1.0516 -0.3118 -0.2603
  101MOL0     C13866   8.674  11.829   1.939  0.9542 -0.0891  0.1865
  101MOL0     C13867   8.645  11.805   1.798 -0.8761  0.1476 -0.1879
  101MOL0     C13868   8.618  11.923   1.707 -0.5068  0.2055 -0.4047
  101MOL0     H13869   8.944  11.724   1.408 -0.7300  0.8207 -0.2831
  101MOL0     H13870   8.992  11.684   1.155 -1.3635 -0.4539 -2.4522
  101MOL0     H13871   8.950  11.476   0.985 -0.7582 -0.0196 -0.2660
  101MOL0     H13872   9.000  11.641   0.923  1.2207 -1.4881  0.7965
  101MOL0     H13873   9.008  11.487   0.746  1.6382  0.5491  0.9716
  101MOL0     H13874   8.835  11.438   0.770 -1.1800  1.0158  1.2719
  101MOL0     H13875   8.790  11.690   0.701  1.1749  1.0956  0.4281
  101MOL0     H13876   8.961  11.697   0.668  0.6603 -0.3510  2.1218
  101MOL0     H13877   8.927  11.490   0.519  1.3055  0.8490  1.2354
  101MOL0     H13878   8.748  11.510   0.532 -2.2205  3.4457  1.2458
  101MOL0     H13879   8.788  11.766   0.458 -2.3582 -0.8778 -0.6559
  101MOL0     H13880   8.778  11.634   0.340  1.2390 -2.7283  0.7153
  101MOL0     H13881   8.988  11.803   0.439  0.4584  0.3970 -1.6249
  101MOL0     H13882   9.047  11.639   0.392 -1.4689 -1.2555  2.7271
  101MOL0     H13883   9.039  11.831   0.215  0.1113 -1.0817 -1.3823
  101MOL0     H13884   8.864  11.843   0.240  0.3274  0.3131  0.8271
  101MOL0     H13885   9.055  11.635   0.109  0.8540 -0.1304  1.8079
  101MOL0     H13886   8.901  11.569   0.165 -0.8845  1.0588 -1.5255
  101MOL0     H13887   8.677  11.625   0.006 -1.4092 -1.4073 -2.4883
  101MOL0     H13888   8.558  11.626  -0.229  0.0154 -0.8532 -0.0001
  101MOL0     H13889   8.684  11.619  -0.354 -4.0099 -1.3086 -1.2113
  101MOL0     H13890   8.564  11.868  -0.224 -1.6237  0.8065 -0.5280
  101MOL0     H13891   8.681  11.882  -0.350 -0.0133  1.0535 -0.7931
  101MOL0     H13892   8.514  11.761  -0.508 -2.9033 -1.7685 -0.9736
  101MOL0     H13893   8.397  11.764  -0.377 -1.8491 -2.4896 -5.2745
  101MOL0     H13894   8.385  11.946  -0.551  1.1322  0.5241 -0.8450
  101MOL0     H13895   8.416  12.023  -0.393  0.5692  1.5772 -0.4580
  101MOL0     H13896   8.662  12.268  -0.566  2.1230 -0.6530 -0.6596
  101MOL0     H13897   8.631  12.446  -0.873  1.0417 -0.0839 -0.2271
  101MOL0     H13898   8.795  12.413  -0.804 -0.3272  2.3350  0.7076
  101MOL0     H13899   8.667  12.455  -0.697  0.6497  0.9185 -0.3360
  101MOL0     H13900   8.694  12.070  -1.297 -1.2641  1.3935  1.7772
  101MOL0     H13901   8.727  12.132  -1.549 -0.3491  0.8397 -0.3027
  101MOL0     H13902   8.477  12.273  -1.699  0.2032  0.1420 -0.7702
  101MOL0     H13903   8.527  12.443  -1.748 -0.0407 -0.9491 -2.4143
  101MOL0     H13904   8.641  12.174  -1.872  2.7926  1.5237 -2.7503
  101MOL0     H13905   8.517  12.276  -1.955 -3.9872  1.4347  3.4823
  101MOL0     H13906   8.794  12.382  -1.859 -1.7069  0.3538  2.1609
  101MOL0     H13907   8.655  12.467  -1.935 -2.0083 -1.1656  5.2409
  101MOL0     H13908   8.675  12.319  -2.134 -0.1409 -2.0286 -0.3653
  101MOL0     H13909   8.778  12.213  -2.052  2.0941  1.3355  0.2400
  101MOL0     H13910   8.945  12.434  -2.044 -3.1802  1.1383  1.8201
  101MOL0     H13911   8.926  12.313  -2.175 -1.5401 -1.5676  2.0046
  101MOL0     H13912   8.748  12.563  -2.194  0.2606 -0.6110 -1.1552
  101MOL0     H13913   8.792  12.434  -2.309  0.9566  1.7503 -2.2734
  101MOL0     H13914   8.923  12.635  -2.360  1.6018 -0.9096 -1.4496
  101MOL0     H13915   9.019  12.502  -2.309 -0.6258  0.1589 -1.9237
  101MOL0     H13916   9.076  12.738  -2.227  0.7231 -1.1742  0.7978
  101MOL0     H13917   9.078  12.618  -2.099  2.2182 -0.8494 -1.9389
  101MOL0     H13918   8.499  12.477  -1.483  1.7183  0.5889  0.0510
  101MOL0     H13919   8.471  12.422  -1.247 -3.3220 -3.6250  0.1376
  101MOL0     H13920   8.575  11.975  -0.951 -0.5236  3.1354 -2.4773
  101MOL0     H13921   8.502  11.899  -0.730 -2.3151  1.2976  1.2271
  101MOL0     H13922   8.572  11.612   1.097 -0.4054  1.8729 -0.3826
  101MOL0     H13923   8.529  11.644   1.332  0.5489 -4.2587  0.7065
  101MOL0     H13924   8.725  11.470   1.806  2.9516 -0.4718  2.5282
  101MOL0     H13925   8.775  11.515   2.034  0.2102  0.5627  1.1864
  101MOL0     H13926   8.803  11.935   2.167  1.7918 -1.3792  0.7962
  101MOL0     H13927   8.643  11.895   2.218 -0.6624 -2.5965  2.0741
  101MOL0     H13928   8.896  11.804   2.360 -0.1875 -2.9311 -0.5501
  101MOL0     H13929   8.740  11.717   2.375  1.2024 -0.7211 -4.2807
  101MOL0     H13930   8.643  11.905   2.498 -0.9946  1.9819 -1.4588
  101MOL0     H13931   8.809  11.881   2.562  0.3515  0.8382 -0.1373
  101MOL0     H13932   8.797  12.114   2.542 -3.0615 -0.0381  0.8895
  101MOL0     H13933   8.738  12.113   2.376  0.0173 -2.9838 -1.3537
  101MOL0     H13934   9.139  12.045   2.309  0.3295 -0.5944  2.3837
  101MOL0     H13935   8.660  11.930   1.975 -0.1825 -0.9031  2.1931
  101MOL0     H13936   8.707  11.950   1.648 -1.5841  1.1620 -1.6507
  101MOL0     H13937   8.543  11.881   1.639 -2.2243  0.4570  1.2666
  101MOL0     H13938   8.579  12.007   1.764  0.4281  0.2589  0.1756
  102MOL0     O13939   2.428   8.781   7.338 -0.6519 -0.2408 -0.0206
  102MOL0     C13940   2.419   8.733   7.454  0.4530 -0.2985  1.0488
  102MOL0     O13941   2.343   8.626   7.480 -1.0050  0.4674 -0.6087
  102MOL0     C13942   2.245   8.583   7.394  0.2825  0.1941  0.0871
  102MOL0     C13943   2.252   8.446   7.356 -0.9235  0.1581 -0.3224
  102MOL0     C13944   2.137   8.386   7.299  0.1009  0.1169 -0.0206
  102MOL0     C13945   2.034   8.470   7.241 -0.1014  1.1340  0.4915
  102MOL0     O13946   1.922   8.420   7.181 -0.0549  0.1366  0.0953
  102MOL0     C13947   1.929   8.299   7.098 -0.8445 -0.0152  0.1000
  102MOL0     C13948   1.804   8.297   7.003 -1.0828  0.7394  0.0027
  102MOL0     C13949   1.820   8.334   6.851  0.1524  0.2072  0.2395
  102MOL0     C13950   1.879   8.467   6.813  0.2956 -0.0021  0.2775
  102MOL0     C13951   1.935   8.460   6.678  0.6003 -0.2077  1.6933
  102MOL0     C13952   1.983   8.596   6.620 -0.4158  0.4119  0.0413
  102MOL0     C13953   2.056   8.697   6.710  1.0256 -0.1842  0.5723
  102MOL0     C13954   2.135   8.793   6.623 -0.2321  0.0515  0.5150
  102MOL0     N13955   2.211   8.904   6.682  0.8437 -0.4739  0.3500
  102MOL0     C13956   2.226   8.925   6.818 -0.9002  0.6092 -0.2206
  102MOL0     C13957   2.317   9.020   6.839  0.5000 -0.3114  0.5360
  102MOL0     C13958   2.363   9.062   6.975  0.3017 -0.6341 -0.7163
  102MOL0     C13959   2.323   9.209   7.014 -0.3700  0.9271  0.1105
  102MOL0     C13960   2.174   9.216   7.026  0.1376  0.0593 -0.1441
  102MOL0     C13961   2.142   9.353   7.085  0.1327  0.0102  0.0108
  102MOL0     O13962   2.150   9.458   6.990 -0.1792 -0.4164  0.0838
  102MOL0     C13963   2.175   9.578   7.046 -0.4026 -0.1621 -0.3724
  102MOL0     C13964   2.246   9.669   6.970  0.1377  0.4520  0.8820
  102MOL0     C13965   2.265   9.804   7.011 -0.8345  1.1253  0.1986
  102MOL0     C13966   2.327   9.906   6.920 -0.6535  0.0395 -0.2891
  102MOL0     C13967   2.221   9.842   7.143 -0.4640 -0.3949 -0.5743
  102MOL0     C13968   2.233   9.977   7.211 -0.1817  1.0104  0.3442
  102MOL0     O13969   2.136  10.020   7.296 -0.4818 -0.3778 -0.1412
  102MOL0     C13970   2.104  10.152   7.314 -0.6586 -0.4238 -0.6223
  102MOL0     C13971   1.979  10.200   7.259 -0.6543  0.1022 -0.0040
  102MOL0     C13972   1.937  10.334   7.290  0.3780  0.0879  0.7013
  102MOL0     C13973   2.026  10.416   7.371  0.8214 -0.0399  0.8546
  102MOL0     O13974   1.996  10.548   7.400 -0.5012 -0.1025 -0.0041
  102MOL0     C13975   1.864  10.602   7.397  0.5361 -0.7896  0.0362
  102MOL0     C13976   1.788  10.558   7.521 -0.5448  0.6549 -0.4175
  102MOL0     C13977   1.873  10.553   7.652  0.6797  0.3036 -0.2756
  102MOL0     C13978   1.789  10.513   7.770  0.3213  1.5341 -0.0196
  102MOL0     C13979   1.878  10.521   7.896 -0.5153 -0.1060  0.7145
  102MOL0     C13980   2.021  10.462   7.898  0.6519  0.9452 -0.1955
  102MOL0     C13981   2.031  10.308   7.880  0.6486 -0.0389  0.0056
  102MOL0     C13982   1.968  10.211   7.993 -0.7102 -0.8944  0.0304
  102MOL0    Cl13983   1.785  10.207   7.978 -0.0303  0.1069 -0.0270
  102MOL0     C13984   2.139  10.358   7.422  0.9152 -0.3028  0.4569
  102MOL0     C13985   2.180  10.231   7.397  0.1748 -0.4144  1.0113
  102MOL0     O13986   2.333  10.040   7.172  0.3775 -0.3479 -0.1458
  102MOL0     C13987   2.137   9.753   7.218  0.1043  0.0790 -0.7156
  102MOL0     C13988   2.102   9.626   7.159  0.0818 -0.9278  1.0628
  102MOL0     N13989   2.349   9.062   6.706  0.5343  0.0298 -0.0793
  102MOL0     N13990   2.298   8.988   6.623  0.2011 -0.1512  0.2834
  102MOL0     C13991   2.036   8.601   7.261  0.2557  0.1018  0.2033
  102MOL0     C13992   2.141   8.666   7.336  0.4358  0.0816 -0.5228
  102MOL0     C13993   2.487   8.804   7.560  0.3599  0.6847 -0.2215
  102MOL0     C13994   2.591   8.890   7.531 -0.1679 -0.0082 -0.1380
  102MOL0     C13995   2.687   8.922   7.625  0.2620 -0.0254  0.4277
  102MOL0     C13996   2.659   8.898   7.754 -0.5143 -0.3308 -0.2919
  102MOL0     O13997   2.763   8.949   7.841 -0.0502 -0.2490 -0.4830
  102MOL0     C13998   2.756   8.918   7.976  1.0848 -0.7170 -0.2223
  102MOL0     C13999   2.880   8.976   8.047 -0.2191 -0.1706  0.6999
  102MOL0     C14000   2.904   8.896   8.178  0.0725  0.6233 -0.3083
  102MOL0     C14001   2.800   8.926   8.280  0.3644 -0.1234  0.9652
  102MOL0     C14002   2.802   8.825   8.384  0.5062 -0.4144 -0.0732
  102MOL0     C14003   2.799   8.738   8.470 -0.4737 -0.1903  0.5912
  102MOL0     C14004   2.547   8.836   7.794  0.2870  0.4805 -0.0366
  102MOL0     C14005   2.450   8.798   7.698  1.0933  0.4110  0.7749
  102MOL0     C14006   2.315   8.743   7.747 -0.2915  0.5451  0.7495
  102MOL0     H14007   2.333   8.379   7.384 -0.8692  0.6984  0.8606
  102MOL0     H14008   2.142   8.278   7.290  1.8184  0.3306 -2.8692
  102MOL0     H14009   1.921   8.205   7.154  0.0943 -0.3110 -0.2555
  102MOL0     H14010   2.024   8.294   7.045  0.0588 -0.1289  1.6741
  102MOL0     H14011   1.777   8.190   7.001  1.6754 -0.0353 -1.6699
  102MOL0     H14012   1.730   8.352   7.061  1.9866  0.5890  4.5882
  102MOL0     H14013   1.894   8.259   6.822  1.9057  1.3799  1.4304
  102MOL0     H14014   1.724   8.315   6.803  0.1199  2.6804 -0.8469
  102MOL0     H14015   1.818   8.557   6.822 -0.1445 -0.1071 -1.2888
  102MOL0     H14016   1.966   8.487   6.877 -1.4576  2.1607  2.1669
  102MOL0     H14017   1.867   8.413   6.607  1.9152  0.3953 -0.0544
  102MOL0     H14018   2.031   8.407   6.683  0.8652  0.0471 -0.1151
  102MOL0     H14019   2.052   8.574   6.537  1.2783  0.2580  1.4286
  102MOL0     H14020   1.895   8.642   6.575  0.0595 -0.0432 -1.4400
  102MOL0     H14021   2.121   8.643   6.780  1.6080 -0.7024 -0.3431
  102MOL0     H14022   1.970   8.747   6.757 -3.1483 -3.6826 -2.5134
  102MOL0     H14023   2.212   8.730   6.578 -0.1126  0.2049  0.5060
  102MOL0     H14024   2.083   8.829   6.535  0.1562 -0.7306 -0.0445
  102MOL0     H14025   2.175   8.867   6.894  2.7039 -2.9268 -0.1303
  102MOL0     H14026   2.470   9.055   6.997  0.1727  4.0050  3.2380
  102MOL0     H14027   2.312   8.990   7.039 -0.2027  0.0052 -0.3883
  102MOL0     H14028   2.368   9.232   7.111 -0.6108 -0.8883  0.7007
  102MOL0     H14029   2.355   9.281   6.938 -2.0085  2.3379  0.7149
  102MOL0     H14030   2.129   9.209   6.927 -2.4007  4.0785  0.4823
  102MOL0     H14031   2.130   9.131   7.079  1.3564 -1.4988 -1.5515
  102MOL0     H14032   2.040   9.350   7.125 -0.1077  1.2006 -0.4811
  102MOL0     H14033   2.206   9.368   7.172 -0.3556  1.7411  0.1172
  102MOL0     H14034   2.288   9.635   6.876 -2.8075  2.4635 -1.3600
  102MOL0     H14035   2.259   9.992   6.929 -1.1813 -0.3806 -0.2709
  102MOL0     H14036   2.318   9.875   6.815 -2.6196 -0.1317 -0.1116
  102MOL0     H14037   2.424   9.938   6.960 -1.0938  0.8510  0.1633
  102MOL0     H14038   1.918  10.141   7.190 -1.5941  1.1734 -0.1169
  102MOL0     H14039   1.838  10.368   7.265 -0.5465 -2.7525  0.0820
  102MOL0     H14040   1.875  10.711   7.396 -3.9843 -0.1343 -0.1546
  102MOL0     H14041   1.816  10.598   7.299  1.6508  3.0429 -0.8156
  102MOL0     H14042   1.700  10.623   7.535 -1.4256 -0.2649 -1.4711
  102MOL0     H14043   1.748  10.461   7.491 -1.7471  0.9461  0.1623
  102MOL0     H14044   1.899  10.659   7.656  2.1045 -0.0577  0.4551
  102MOL0     H14045   1.968  10.500   7.649 -0.1002 -1.2071  0.4730
  102MOL0     H14046   1.762  10.408   7.756  2.8367  0.5296  1.8435
  102MOL0     H14047   1.703  10.579   7.782 -0.5589  1.5820 -4.5608
  102MOL0     H14048   1.897  10.623   7.930  2.2903 -0.4914  0.5836
  102MOL0     H14049   1.825  10.476   7.980 -0.5042 -0.0497  0.7523
  102MOL0     H14050   2.075  10.471   7.993 -3.9997 -3.6514  3.4876
  102MOL0     H14051   2.094  10.502   7.828  1.1886  0.0825 -0.1458
  102MOL0     H14052   2.133  10.274   7.862  0.0763 -2.4980  0.9803
  102MOL0     H14053   1.985  10.289   7.782 -0.0840  0.3745  0.2586
  102MOL0     H14054   2.002  10.246   8.091 -0.3126  1.6991 -0.9515
  102MOL0     H14055   2.005  10.108   7.985 -0.3720 -0.7784  0.0787
  102MOL0     H14056   2.199  10.424   7.484  2.4329 -2.0765  0.9664
  102MOL0     H14057   2.279  10.193   7.423  1.0174  0.1183 -1.2024
  102MOL0     H14058   2.112   9.767   7.323  0.6798  1.8408 -0.7876
  102MOL0     H14059   2.031   9.559   7.206 -3.5497  2.0771  0.3712
  102MOL0     H14060   1.948   8.649   7.219  0.4656  1.2846  1.0572
  102MOL0     H14061   2.148   8.771   7.361  0.1823  0.4974 -2.1162
  102MOL0     H14062   2.604   8.902   7.424 -1.1719 -0.3498 -0.3079
  102MOL0     H14063   2.777   8.968   7.585  0.0835 -0.5613 -0.6374
  102MOL0     H14064   2.669   8.977   8.006 -1.1415 -1.4552 -4.4683
  102MOL0     H14065   2.739   8.813   7.999  2.9952 -0.6864  1.6719
  102MOL0     H14066   2.854   9.079   8.071 -3.2638 -0.3425 -1.3170
  102MOL0     H14067   2.962   8.965   7.976 -0.3918 -0.7309  0.5842
  102MOL0     H14068   2.921   8.790   8.156 -1.0125  0.5174 -0.6895
  102MOL0     H14069   2.999   8.920   8.227 -1.4137 -0.4435  3.4323
  102MOL0     H14070   2.706   8.918   8.226  0.5256  0.7421  0.5485
  102MOL0     H14071   2.828   9.026   8.313  1.1318  1.1428 -2.9878
  102MOL0     H14072   2.800   8.669   8.552 -1.3407  0.3838  1.1170
  102MOL0     H14073   2.514   8.836   7.897 -0.2090  2.2760 -0.1532
  102MOL0     H14074   2.304   8.743   7.855 -2.1128  0.8470  0.5964
  102MOL0     H14075   2.237   8.811   7.710 -0.5288  0.8426  1.7668
  102MOL0     H14076   2.294   8.641   7.713 -3.4225  1.3997 -0.2447
  103MOL0     O14077   2.464   4.661   7.788 -0.0940 -0.0026  0.4151
  103MOL0     C14078   2.526   4.585   7.863  0.3555 -0.8283 -0.8011
  103MOL0     O14079   2.504   4.444   7.867 -1.2390  0.4237 -0.2520
  103MOL0     C14080   2.388   4.389   7.808 -0.8867  0.1208  0.2731
  103MOL0     C14081   2.263   4.418   7.869 -0.3091  0.0036  0.4297
  103MOL0     C14082   2.154   4.358   7.818 -0.2001 -0.2224 -0.4875
  103MOL0     C14083   2.163   4.251   7.730 -0.0089 -0.1797 -0.0253
  103MOL0     O14084   2.070   4.158   7.703 -0.4840  0.8093 -0.0990
  103MOL0     C14085   1.950   4.163   7.789  0.4326  0.0964 -0.6939
  103MOL0     C14086   1.853   4.059   7.744  0.2029 -0.4037 -0.3438
  103MOL0     C14087   1.886   3.925   7.812  0.0668  0.6059  1.0347
  103MOL0     C14088   1.786   3.827   7.744 -0.9825  0.3035 -0.3325
  103MOL0     C14089   1.789   3.704   7.835 -0.3306  0.4288 -0.5873
  103MOL0     C14090   1.927   3.625   7.828 -0.7661 -0.9378 -0.1251
  103MOL0     C14091   1.938   3.499   7.924  0.0059 -1.0831 -0.3150
  103MOL0     C14092   1.863   3.375   7.879  0.0715  0.2982 -0.0549
  103MOL0     N14093   1.903   3.264   7.959  0.5102 -0.5076  0.5643
  103MOL0     C14094   1.841   3.239   8.076 -0.6671  0.1528 -0.5018
  103MOL0     C14095   1.932   3.163   8.148 -0.5598 -0.0197 -0.0259
  103MOL0     C14096   1.905   3.144   8.291 -0.0841 -0.5634 -0.2299
  103MOL0     C14097   1.936   3.280   8.376  0.6963 -0.5973  0.8836
  103MOL0     C14098   1.887   3.283   8.528  0.1902  1.4544 -0.3258
  103MOL0     C14099   1.751   3.349   8.555  0.1123  0.8685 -0.2808
  103MOL0     O14100   1.702   3.284   8.678 -0.0746  0.1250  0.5348
  103MOL0     C14101   1.576   3.313   8.734  0.5918 -0.3176  0.7344
  103MOL0     C14102   1.532   3.238   8.846 -0.6802  0.6771  1.2161
  103MOL0     C14103   1.406   3.259   8.895 -0.3865 -0.8736  0.1989
  103MOL0     C14104   1.356   3.150   8.991 -0.6433 -0.1644  0.7252
  103MOL0     C14105   1.315   3.369   8.865 -0.7551 -0.1584  0.7126
  103MOL0     C14106   1.170   3.395   8.910  0.5983 -0.4160  0.3429
  103MOL0     O14107   1.090   3.484   8.836 -0.2697  0.1310 -0.5095
  103MOL0     C14108   0.984   3.533   8.904  0.2556  0.4205 -0.1609
  103MOL0     C14109   0.854   3.485   8.869  0.2443 -0.6477 -0.1356
  103MOL0     C14110   0.730   3.551   8.914 -0.3301  0.4745 -1.0357
  103MOL0     C14111   0.738   3.646   9.015  0.1289 -0.1582 -0.1437
  103MOL0     O14112   0.637   3.710   9.077  0.6652 -0.2491  0.2555
  103MOL0     C14113   0.510   3.736   9.007  0.0670  0.4844 -0.3964
  103MOL0     C14114   0.427   3.842   9.071 -0.7638 -0.8160  0.3347
  103MOL0     C14115   0.382   3.794   9.210  0.0477 -0.7885  0.5762
  103MOL0     C14116   0.288   3.900   9.280 -0.2963 -0.2063  0.1981
  103MOL0     C14117   0.221   3.826   9.400  0.5258 -0.2612 -0.9391
  103MOL0     C14118   0.137   3.936   9.482  0.0266 -0.4109  0.0189
  103MOL0     C14119   0.086   3.892   9.622 -0.1842  0.9972 -0.1922
  103MOL0     C14120  -0.037   3.782   9.609  0.5780 -0.3190  0.7372
  103MOL0    Cl14121  -0.185   3.843   9.538 -0.1487  0.4787  0.2781
  103MOL0     C14122   0.873   3.677   9.063  0.3042  0.0460  0.7322
  103MOL0     C14123   0.991   3.628   9.008  0.7930  0.3701  0.9595
  103MOL0     O14124   1.126   3.328   9.008 -1.0153 -0.2894 -1.4099
  103MOL0     C14125   1.370   3.448   8.764 -0.3217 -0.1285  0.7109
  103MOL0     C14126   1.496   3.422   8.700  0.1190  0.6114 -0.4219
  103MOL0     N14127   2.047   3.166   8.079  1.1128  0.2184  1.0545
  103MOL0     N14128   2.031   3.215   7.962  0.5854 -0.3779 -0.1088
  103MOL0     C14129   2.288   4.213   7.677  1.4986 -0.1474  0.7817
  103MOL0     C14130   2.400   4.287   7.714 -0.2917 -1.0431 -0.5474
  103MOL0     C14131   2.652   4.641   7.933  0.1592 -0.5192  0.8941
  103MOL0     C14132   2.744   4.548   7.973  0.1048 -0.4351 -0.0304
  103MOL0     C14133   2.872   4.591   8.029  0.7729  0.5851  0.7494
  103MOL0     C14134   2.889   4.729   8.058 -1.1610  0.7816  0.1589
  103MOL0     O14135   3.000   4.782   8.118 -0.7686 -0.6505  0.1930
  103MOL0     C14136   3.012   4.915   8.181 -0.0465  0.1407 -0.5971
  103MOL0     C14137   3.026   5.049   8.099  0.2062  1.4397  0.5269
  103MOL0     C14138   3.176   5.085   8.106 -1.1915 -0.7208 -0.5593
  103MOL0     C14139   3.208   5.230   8.047  0.8932 -0.2049 -0.3430
  103MOL0     C14140   3.210   5.210   7.900  0.6539 -0.3072 -0.2377
  103MOL0     C14141   3.206   5.180   7.781  0.8325 -0.4055  0.0298
  103MOL0     C14142   2.789   4.813   8.027 -0.1464 -0.0888  0.6736
  103MOL0     C14143   2.673   4.778   7.970  1.0935 -0.8127 -0.0982
  103MOL0     C14144   2.570   4.889   7.962 -1.3900  0.5951 -0.3034
  103MOL0     H14145   2.253   4.495   7.945 -0.8413 -0.8821  1.2630
  103MOL0     H14146   2.056   4.390   7.854  0.3428  0.1608  0.6919
  103MOL0     H14147   1.892   4.256   7.781 -1.1074 -0.7335  0.2782
  103MOL0     H14148   1.980   4.144   7.892  0.7478 -1.5197 -1.0688
  103MOL0     H14149   1.752   4.093   7.768 -0.1211 -3.4089  3.4466
  103MOL0     H14150   1.861   4.044   7.636 -2.2384 -5.4788 -0.1053
  103MOL0     H14151   1.991   3.901   7.791 -0.1292  0.3413  0.3172
  103MOL0     H14152   1.873   3.927   7.920  0.0652  4.3637  1.1012
  103MOL0     H14153   1.686   3.872   7.744 -1.8593 -1.5279  1.3141
  103MOL0     H14154   1.815   3.795   7.644 -1.3343 -1.1973  0.0248
  103MOL0     H14155   1.717   3.637   7.787  0.9605  0.2578 -2.4005
  103MOL0     H14156   1.747   3.724   7.934 -3.6875  0.0870 -1.7973
  103MOL0     H14157   1.943   3.588   7.726 -1.1806 -1.2951 -0.0640
  103MOL0     H14158   2.006   3.694   7.859 -0.3961 -0.5127 -1.9053
  103MOL0     H14159   1.890   3.531   8.018 -0.7068 -0.2155 -0.9555
  103MOL0     H14160   2.042   3.471   7.943  0.0224  0.3581  2.2689
  103MOL0     H14161   1.758   3.406   7.878  0.8227  3.1704  0.5890
  103MOL0     H14162   1.885   3.359   7.773  4.0093  0.4189  0.5917
  103MOL0     H14163   1.746   3.280   8.108 -1.8458 -1.8526 -1.2688
  103MOL0     H14164   1.971   3.066   8.328  2.3472  0.5338 -2.0233
  103MOL0     H14165   1.802   3.111   8.307 -1.0234  1.8929 -0.6406
  103MOL0     H14166   2.045   3.287   8.372  0.6724  4.1184  2.2973
  103MOL0     H14167   1.895   3.371   8.331 -1.6560 -3.2942 -2.9973
  103MOL0     H14168   1.889   3.177   8.555  1.5276  0.8303 -2.5884
  103MOL0     H14169   1.965   3.326   8.592  1.8235 -2.5308  0.6589
  103MOL0     H14170   1.749   3.458   8.564 -0.6192  0.9438 -1.1612
  103MOL0     H14171   1.689   3.318   8.470  2.2533  3.7996 -3.1304
  103MOL0     H14172   1.593   3.153   8.876 -2.0811 -0.0297  2.2045
  103MOL0     H14173   1.382   3.166   9.097  0.2807 -1.1584  0.6675
  103MOL0     H14174   1.405   3.057   8.962 -3.7511 -1.8206  0.3504
  103MOL0     H14175   1.249   3.135   8.975 -0.4892 -0.0635 -0.4554
  103MOL0     H14176   0.856   3.401   8.800  2.8348  1.3686 -2.8051
  103MOL0     H14177   0.635   3.513   8.879  1.8472 -6.1334 -1.1712
  103MOL0     H14178   0.533   3.764   8.904  0.5217  0.8764 -0.1959
  103MOL0     H14179   0.449   3.645   9.007 -1.3608  1.2731  3.1051
  103MOL0     H14180   0.488   3.933   9.077 -1.1513 -0.6426  2.7792
  103MOL0     H14181   0.336   3.864   9.013 -0.7418 -1.6296 -0.0241
  103MOL0     H14182   0.474   3.781   9.267 -0.9114  0.7691  2.5947
  103MOL0     H14183   0.345   3.691   9.215 -0.6722 -0.6444 -1.1670
  103MOL0     H14184   0.209   3.948   9.222 -1.1378  0.1635  1.5891
  103MOL0     H14185   0.342   3.981   9.331  1.0791 -2.2761  2.2592
  103MOL0     H14186   0.154   3.754   9.353  0.0710 -2.1005  2.2330
  103MOL0     H14187   0.287   3.771   9.468 -4.1563 -1.3487  3.3569
  103MOL0     H14188   0.052   3.980   9.430 -0.1544  0.7617  1.2467
  103MOL0     H14189   0.212   4.012   9.507  0.3133 -1.8749  4.5693
  103MOL0     H14190   0.049   3.975   9.683  1.0847  1.0084  0.5874
  103MOL0     H14191   0.165   3.842   9.678  0.5344  2.7136  0.3848
  103MOL0     H14192  -0.063   3.739   9.707  1.4072 -1.9673  0.2598
  103MOL0     H14193   0.001   3.709   9.538 -1.4010 -0.0641 -0.6686
  103MOL0     H14194   0.888   3.753   9.140  0.5929  0.7429 -0.0031
  103MOL0     H14195   1.082   3.660   9.057 -0.5430 -0.1810  4.0536
  103MOL0     H14196   1.318   3.536   8.726 -1.1679 -1.7795 -2.3040
  103MOL0     H14197   1.529   3.491   8.622  2.0269 -0.3903 -0.5522
  103MOL0     H14198   2.289   4.143   7.595  0.9117  1.3422 -0.5476
  103MOL0     H14199   2.499   4.262   7.677  0.4728  0.7900  0.1445
  103MOL0     H14200   2.737   4.441   7.956 -2.7131 -0.1890 -1.0129
  103MOL0     H14201   2.955   4.525   8.050 -0.6045 -1.0380  1.3267
  103MOL0     H14202   2.927   4.927   8.249 -1.2578 -2.2509 -1.5824
  103MOL0     H14203   3.103   4.907   8.242  0.8728  0.2105 -1.9101
  103MOL0     H14204   2.959   5.134   8.119 -1.1552  1.4344 -3.3109
  103MOL0     H14205   3.006   5.038   7.992 -1.4221  1.5742  0.7932
  103MOL0     H14206   3.201   5.104   8.211 -1.1713 -0.1640 -0.6586
  103MOL0     H14207   3.242   5.006   8.069  0.6464  0.4040  0.1763
  103MOL0     H14208   3.305   5.268   8.081  0.8927 -1.3886  1.0808
  103MOL0     H14209   3.128   5.298   8.077  0.9524 -1.1468  2.1443
  103MOL0     H14210   3.179   5.176   7.678  0.4646 -0.5763  0.1321
  103MOL0     H14211   2.791   4.919   8.053  1.7105  1.0995 -3.3366
  103MOL0     H14212   2.476   4.850   8.003 -0.4972 -0.8615  0.4689
  103MOL0     H14213   2.590   4.986   8.007  0.3354 -0.2183  0.7632
  103MOL0     H14214   2.553   4.904   7.855  1.2691 -0.9697 -1.0249
  104MOL0     O14215   0.406   8.392   5.546 -0.6635 -0.2991  1.4858
  104MOL0     C14216   0.375   8.340   5.652  0.2483  0.8640 -0.9785
  104MOL0     O14217   0.465   8.282   5.741  0.3366  0.4925 -0.1727
  104MOL0     C14218   0.584   8.357   5.732 -0.1245 -0.2112 -0.5970
  104MOL0     C14219   0.597   8.486   5.792  0.5689  0.5434  0.4170
  104MOL0     C14220   0.724   8.549   5.799  0.3320  0.6338 -0.0983
  104MOL0     C14221   0.839   8.490   5.743  0.1077  0.7333 -0.6899
  104MOL0     O14222   0.966   8.546   5.732 -0.5117 -0.2233  0.2810
  104MOL0     C14223   0.970   8.685   5.771  0.1230  0.4209  0.2863
  104MOL0     C14224   1.117   8.710   5.755  0.0410 -0.3342 -0.2817
  104MOL0     C14225   1.163   8.851   5.783 -0.4441 -0.3679  0.4304
  104MOL0     C14226   1.108   8.892   5.926  0.2414  0.6019 -0.2425
  104MOL0     C14227   1.159   9.022   5.994  0.0764  0.0757 -0.5305
  104MOL0     C14228   1.300   9.048   5.938 -0.1318 -0.3779  0.0847
  104MOL0     C14229   1.360   9.180   5.998  0.8843 -0.6692 -0.2341
  104MOL0     C14230   1.409   9.164   6.145  0.2603 -0.1353  0.4354
  104MOL0     N14231   1.442   9.290   6.212  0.2449  0.0420  0.5388
  104MOL0     C14232   1.349   9.389   6.243  0.9655  0.5902  0.1379
  104MOL0     C14233   1.405   9.472   6.323 -1.2298  0.0746 -0.1338
  104MOL0     C14234   1.326   9.584   6.390 -0.0858  0.6361  0.1639
  104MOL0     C14235   1.208   9.506   6.471 -1.0739 -0.1867 -0.3049
  104MOL0     C14236   1.122   9.605   6.548  0.2227  0.6158 -0.1063
  104MOL0     C14237   1.029   9.673   6.442  0.1088  0.0315  0.0494
  104MOL0     O14238   1.074   9.806   6.417  0.0457  0.0871  0.3896
  104MOL0     C14239   1.059   9.909   6.508  0.7963  0.6050 -0.4822
  104MOL0     C14240   0.988   9.904   6.631  0.1480 -0.4650  1.6673
  104MOL0     C14241   0.964  10.019   6.707  0.9366  0.4172  0.1915
  104MOL0     C14242   0.864  10.009   6.809 -0.5000 -0.4317  0.3827
  104MOL0     C14243   1.039  10.137   6.683 -0.2717  0.8395  0.8122
  104MOL0     C14244   1.006  10.264   6.754 -0.0296  0.8456  0.4105
  104MOL0     O14245   1.016  10.265   6.891  0.4142  0.0410 -0.3223
  104MOL0     C14246   0.933  10.353   6.970  1.0561 -0.0170  0.8723
  104MOL0     C14247   0.809  10.422   6.919  0.0554 -0.6156 -0.9435
  104MOL0     C14248   0.742  10.509   6.998 -0.2936  0.3105 -0.0382
  104MOL0     C14249   0.775  10.529   7.133  0.9095  0.3651 -0.1960
  104MOL0     O14250   0.703  10.608   7.216  0.4571  0.5587 -0.1541
  104MOL0     C14251   0.766  10.687   7.318  0.7849  0.8059 -1.0649
  104MOL0     C14252   0.647  10.770   7.372 -0.7766 -0.3102 -1.3028
  104MOL0     C14253   0.616  10.879   7.268 -0.1203 -0.1050 -0.3012
  104MOL0     C14254   0.493  10.967   7.302 -0.2306  0.1984 -0.5589
  104MOL0     C14255   0.466  11.070   7.207  0.1077  0.9977 -0.2887
  104MOL0     C14256   0.359  11.176   7.251 -0.2450  0.2042 -0.1968
  104MOL0     C14257   0.399  11.276   7.351 -0.7806  0.0245  0.0753
  104MOL0     C14258   0.330  11.407   7.338  0.3544 -0.0252  0.2077
  104MOL0    Cl14259   0.401  11.484   7.188 -0.3288  0.1229  0.5005
  104MOL0     C14260   0.883  10.454   7.189  0.1048 -0.9711 -0.2356
  104MOL0     C14261   0.966  10.377   7.100 -0.5748  1.4110  0.1310
  104MOL0     O14262   0.974  10.357   6.677  1.1113 -0.6315 -0.0932
  104MOL0     C14263   1.121  10.139   6.561  0.0917  0.3548  0.8430
  104MOL0     C14264   1.118  10.029   6.469  0.8495  0.0136 -0.8852
  104MOL0     N14265   1.533   9.420   6.344 -0.1159  0.3507  0.8947
  104MOL0     N14266   1.559   9.320   6.271  0.9028  0.1287 -0.0141
  104MOL0     C14267   0.820   8.368   5.679  0.2655  0.1770 -0.6405
  104MOL0     C14268   0.700   8.299   5.675 -0.1702 -0.5446 -0.6693
  104MOL0     C14269   0.235   8.331   5.678  0.0962 -0.4721 -0.1003
  104MOL0     C14270   0.153   8.298   5.576 -0.2778  0.2324  0.5658
  104MOL0     C14271   0.010   8.290   5.579 -0.4193 -0.2668  0.8981
  104MOL0     C14272  -0.053   8.323   5.697 -0.3341 -0.7095 -1.1130
  104MOL0     O14273  -0.191   8.321   5.697  0.2312  1.2783 -0.0769
  104MOL0     C14274  -0.258   8.442   5.721  0.1922 -0.0950 -0.0611
  104MOL0     C14275  -0.320   8.517   5.602  0.5876  0.0144 -0.3257
  104MOL0     C14276  -0.390   8.434   5.498 -0.1579 -0.1172 -0.2040
  104MOL0     C14277  -0.477   8.512   5.395 -0.0588 -0.2926 -0.7898
  104MOL0     C14278  -0.535   8.414   5.303  1.1135  0.0133  0.6906
  104MOL0     C14279  -0.604   8.345   5.227 -0.1602  0.8378 -0.3852
  104MOL0     C14280   0.025   8.359   5.807  0.8721 -0.8891 -0.3782
  104MOL0     C14281   0.165   8.361   5.797  0.3916  0.3331 -0.2754
  104MOL0     C14282   0.243   8.428   5.910  0.4675 -0.6836 -0.1528
  104MOL0     H14283   0.501   8.515   5.832  0.1901 -3.1060  2.5785
  104MOL0     H14284   0.725   8.648   5.843 -1.1479 -0.3204  2.2811
  104MOL0     H14285   0.948   8.704   5.877  0.3392 -1.2520  0.6542
  104MOL0     H14286   0.919   8.757   5.706  1.4453  1.8394  0.7600
  104MOL0     H14287   1.163   8.653   5.837  0.3665  1.4246  0.8230
  104MOL0     H14288   1.153   8.686   5.654  1.2594 -0.2006  0.0959
  104MOL0     H14289   1.272   8.853   5.788 -0.4405  3.1088  4.6756
  104MOL0     H14290   1.133   8.927   5.711  0.7130 -0.8135 -0.5565
  104MOL0     H14291   0.999   8.899   5.927  0.2012  0.1593 -0.8635
  104MOL0     H14292   1.132   8.807   5.990 -2.4519 -2.3407 -2.8208
  104MOL0     H14293   1.149   9.006   6.102 -1.8257 -1.1286 -0.8422
  104MOL0     H14294   1.089   9.101   5.963  0.3271  0.6186  0.2643
  104MOL0     H14295   1.356   8.956   5.958  1.7878  0.7406  0.0394
  104MOL0     H14296   1.308   9.060   5.830  4.4198 -1.7507  0.0714
  104MOL0     H14297   1.288   9.257   5.969  1.1074 -0.3594  0.0363
  104MOL0     H14298   1.440   9.220   5.934 -0.6832 -0.7029 -2.3372
  104MOL0     H14299   1.329   9.120   6.205  0.2325 -2.1804 -1.0072
  104MOL0     H14300   1.503   9.108   6.136 -1.7935 -3.5515 -3.3207
  104MOL0     H14301   1.252   9.402   6.195  0.7216  1.6498  0.8746
  104MOL0     H14302   1.283   9.636   6.304  1.1423  0.0632 -0.8293
  104MOL0     H14303   1.393   9.649   6.446  1.6816 -1.6721  0.8831
  104MOL0     H14304   1.147   9.441   6.406  0.4858  0.5918 -2.7074
  104MOL0     H14305   1.253   9.438   6.544 -1.5091 -2.6769 -2.1870
  104MOL0     H14306   1.050   9.548   6.607  0.2895 -0.1048 -0.6976
  104MOL0     H14307   1.171   9.683   6.607 -1.9378  1.3552  0.8218
  104MOL0     H14308   1.019   9.618   6.348  0.3555  0.4346 -0.2134
  104MOL0     H14309   0.925   9.676   6.479 -1.1244  1.7588 -3.1548
  104MOL0     H14310   0.953   9.807   6.666  1.4641 -1.1734  1.0921
  104MOL0     H14311   0.833   9.904   6.806  0.1964 -0.6229 -0.9351
  104MOL0     H14312   0.777  10.070   6.783  0.4703  0.9299  0.2341
  104MOL0     H14313   0.899  10.025   6.911  0.1505 -1.5991  0.3591
  104MOL0     H14314   0.768  10.410   6.820  1.0494  1.1069 -1.6065
  104MOL0     H14315   0.658  10.557   6.949  0.4894  0.9944 -0.7387
  104MOL0     H14316   0.795  10.629   7.405  1.4567  3.3295  0.4899
  104MOL0     H14317   0.853  10.745   7.288  0.3062  2.7309  0.9618
  104MOL0     H14318   0.558  10.706   7.374  0.4509 -2.1795  2.1415
  104MOL0     H14319   0.670  10.810   7.471 -0.2468 -0.8682 -1.1939
  104MOL0     H14320   0.600  10.828   7.172  0.4232  0.3472 -0.6339
  104MOL0     H14321   0.697  10.950   7.248 -1.1446  0.8165 -1.3571
  104MOL0     H14322   0.502  11.007   7.403  1.1391  0.2895 -0.7057
  104MOL0     H14323   0.399  10.912   7.289 -0.2744  0.5824 -2.0979
  104MOL0     H14324   0.564  11.117   7.192  1.3976 -1.4590 -0.1528
  104MOL0     H14325   0.437  11.028   7.110  2.6048  1.0930 -1.1541
  104MOL0     H14326   0.279  11.114   7.292 -0.0699 -0.3006 -0.6032
  104MOL0     H14327   0.316  11.232   7.167  0.0920  2.0994  0.8419
  104MOL0     H14328   0.507  11.287   7.356 -0.5859 -0.5571 -1.8383
  104MOL0     H14329   0.373  11.242   7.451  0.2707  1.3718  0.8387
  104MOL0     H14330   0.354  11.468   7.426 -2.3304 -0.6450  1.4854
  104MOL0     H14331   0.223  11.406   7.317  0.1817 -2.4432  0.7999
  104MOL0     H14332   0.917  10.459   7.292 -0.8600 -2.1810  0.1718
  104MOL0     H14333   1.050  10.311   7.123 -1.0569  1.0605  0.9274
  104MOL0     H14334   1.172  10.232   6.537 -0.5253  0.1359 -1.5631
  104MOL0     H14335   1.173  10.039   6.376 -0.6270 -1.9809 -2.0497
  104MOL0     H14336   0.915   8.338   5.637  0.3746  0.1039 -0.3495
  104MOL0     H14337   0.708   8.199   5.635  2.5307 -0.6704  0.0144
  104MOL0     H14338   0.190   8.264   5.480  2.0309  0.0942  1.4327
  104MOL0     H14339  -0.044   8.252   5.492 -1.6103  0.0741  1.4661
  104MOL0     H14340  -0.334   8.412   5.795  0.7263 -0.0131  0.5309
  104MOL0     H14341  -0.197   8.516   5.775 -1.7164  1.1635  0.4949
  104MOL0     H14342  -0.241   8.583   5.565  3.0452 -1.6552  1.5922
  104MOL0     H14343  -0.397   8.583   5.644  0.2309 -0.0182 -0.9308
  104MOL0     H14344  -0.309   8.379   5.450 -0.6366  0.3414 -1.5914
  104MOL0     H14345  -0.463   8.368   5.545 -2.8497  2.9804  0.3367
  104MOL0     H14346  -0.412   8.579   5.338  0.9051 -0.1281  0.4621
  104MOL0     H14347  -0.554   8.575   5.441  0.2300  0.8130 -1.7770
  104MOL0     H14348  -0.648   8.283   5.151 -2.0699  1.4353  0.1807
  104MOL0     H14349  -0.027   8.389   5.898 -0.9032 -3.4212 -0.4373
  104MOL0     H14350   0.309   8.355   5.958 -1.0825 -1.3438  1.0417
  104MOL0     H14351   0.309   8.508   5.876 -0.0005  0.4030  1.4092
  104MOL0     H14352   0.178   8.479   5.981 -0.0791  0.7680 -1.6418
  105MOL0     O14353   9.717   9.368   8.259 -0.1444 -0.3781  0.1159
  105MOL0     C14354   9.619   9.418   8.316 -1.0188 -0.5274  0.6862
  105MOL0     O14355   9.569   9.546   8.288  0.3564  0.4534  0.4754
  105MOL0     C14356   9.622   9.613   8.180 -0.9381  0.8027 -0.8363
  105MOL0     C14357   9.578   9.580   8.052  0.6329  0.0170  0.1108
  105MOL0     C14358   9.651   9.623   7.937 -0.1358 -0.4215 -0.7328
  105MOL0     C14359   9.765   9.700   7.957 -0.3207  0.7370 -0.2677
  105MOL0     O14360   9.839   9.707   7.847 -0.3916  0.1210 -0.1662
  105MOL0     C14361   9.960   9.778   7.858  0.0157 -0.1747  0.0889
  105MOL0     C14362  10.040   9.771   7.717 -0.5438  0.1611 -0.1337
  105MOL0     C14363   9.975   9.844   7.598 -0.4520  0.6033 -0.9741
  105MOL0     C14364  10.061   9.885   7.480 -0.0772 -0.2365 -0.3482
  105MOL0     C14365   9.988   9.987   7.390 -0.2693 -0.2433  1.2048
  105MOL0     C14366   9.991   9.963   7.238  0.1520  0.5029 -0.0779
  105MOL0     C14367  10.135   9.916   7.198  0.5011 -0.3210  0.0080
  105MOL0     C14368  10.169   9.974   7.057  0.0912  1.3680  0.8526
  105MOL0     N14369  10.068   9.931   6.962 -1.3378  0.8432 -1.1822
  105MOL0     C14370  10.072   9.820   6.866 -0.3036 -0.0749 -0.6137
  105MOL0     C14371   9.957   9.813   6.799 -1.4920 -0.5805  0.7086
  105MOL0     C14372   9.917   9.698   6.722  1.2138 -0.5736  0.3988
  105MOL0     C14373   9.791   9.641   6.783  0.0227  0.1450 -0.2602
  105MOL0     C14374   9.711   9.553   6.677  0.0410  1.1820  0.3164
  105MOL0     C14375   9.594   9.496   6.747 -0.3951  0.8039  0.1449
  105MOL0     O14376   9.528   9.402   6.665  0.2417 -0.2314  0.3212
  105MOL0     C14377   9.494   9.289   6.732 -0.1566 -0.7839  0.4978
  105MOL0     C14378   9.370   9.260   6.764  0.0027  0.3071  0.1750
  105MOL0     C14379   9.332   9.137   6.825 -0.5424 -1.2399 -0.2557
  105MOL0     C14380   9.190   9.126   6.853  0.8071  0.0267 -0.4550
  105MOL0     C14381   9.438   9.041   6.857  0.1860 -0.5741  0.5110
  105MOL0     C14382   9.416   8.905   6.924  0.4052  0.2909  0.9314
  105MOL0     O14383   9.508   8.809   6.887 -0.1493  0.5034 -0.5569
  105MOL0     C14384   9.506   8.675   6.932 -0.6859  0.4413 -0.9279
  105MOL0     C14385   9.391   8.610   6.971 -1.0344  0.3638 -0.4966
  105MOL0     C14386   9.381   8.465   6.987  0.8268 -0.7234  0.4319
  105MOL0     C14387   9.491   8.386   6.964  0.1857  0.3030  0.0026
  105MOL0     O14388   9.488   8.255   6.979 -0.3835  0.4715 -0.0549
  105MOL0     C14389   9.594   8.157   6.998 -0.6659  0.8868 -0.2626
  105MOL0     C14390   9.631   8.107   6.857  0.5814  0.7826  0.6312
  105MOL0     C14391   9.765   8.026   6.850  0.3660 -0.4859  0.5561
  105MOL0     C14392   9.752   7.883   6.901  0.3063 -0.3151  0.7516
  105MOL0     C14393   9.714   7.793   6.782  0.2566 -1.3756 -0.2463
  105MOL0     C14394   9.742   7.649   6.830 -0.1853 -0.7531 -0.8704
  105MOL0     C14395   9.896   7.629   6.807  0.0606  0.5301 -0.5936
  105MOL0     C14396   9.949   7.512   6.893 -0.0769 -0.4148  0.3218
  105MOL0    Cl14397  10.118   7.490   6.869  0.3771  0.1165  0.5447
  105MOL0     C14398   9.606   8.456   6.926  0.8986  0.4003  0.7853
  105MOL0     C14399   9.620   8.598   6.909  0.1580 -0.4013 -0.0784
  105MOL0     O14400   9.324   8.889   7.001  0.0195  0.1014  0.2994
  105MOL0     C14401   9.566   9.076   6.810  0.0066  0.0035  0.2608
  105MOL0     C14402   9.601   9.197   6.745  0.2958  0.7837  0.1329
  105MOL0     N14403   9.883   9.927   6.841 -0.7294 -0.4772 -0.0175
  105MOL0     N14404   9.950  10.002   6.926 -0.2408  0.6354 -0.5068
  105MOL0     C14405   9.791   9.747   8.085 -0.1566  0.4986  0.5788
  105MOL0     C14406   9.725   9.708   8.203  1.5053 -0.2436  0.1930
  105MOL0     C14407   9.543   9.346   8.428  0.0043  0.0663  0.1973
  105MOL0     C14408   9.472   9.231   8.380  0.2316 -0.8527 -0.4500
  105MOL0     C14409   9.367   9.184   8.464 -1.7885  0.1043  0.2885
  105MOL0     C14410   9.350   9.220   8.598 -0.4020  1.1588 -0.1013
  105MOL0     O14411   9.258   9.148   8.668  0.1654  0.6322  0.3409
  105MOL0     C14412   9.212   9.172   8.802 -0.0978  0.4133 -0.0350
  105MOL0     C14413   9.133   9.301   8.799  1.0714  0.3094 -0.5728
  105MOL0     C14414   8.996   9.270   8.728  0.6484  0.5502  0.7076
  105MOL0     C14415   8.882   9.359   8.766  0.5936 -0.9066 -0.0945
  105MOL0     C14416   8.931   9.502   8.782  0.1229  1.2173 -0.0762
  105MOL0     C14417   8.952   9.620   8.799 -0.2838 -0.0021  1.1417
  105MOL0     C14418   9.432   9.317   8.645 -0.5123  0.0033 -0.6697
  105MOL0     C14419   9.525   9.389   8.566  0.8880  0.2472  0.1294
  105MOL0     C14420   9.614   9.501   8.619  0.6836 -0.0463  0.0027
  105MOL0     H14421   9.492   9.514   8.044 -0.4425  1.1659  1.5215
  105MOL0     H14422   9.634   9.570   7.844  0.1255 -4.2420  1.1556
  105MOL0     H14423  10.022   9.748   7.943  0.4190 -1.3770 -0.6189
  105MOL0     H14424   9.946   9.886   7.874  0.6025  0.1211 -1.2544
  105MOL0     H14425  10.137   9.819   7.736 -0.1874 -1.2761  1.9120
  105MOL0     H14426  10.070   9.669   7.692  2.6686  1.2743 -1.4832
  105MOL0     H14427   9.902   9.776   7.553 -0.8026 -0.2896  0.8739
  105MOL0     H14428   9.918   9.927   7.641 -0.3217 -0.0628  0.5424
  105MOL0     H14429  10.148   9.939   7.518  0.9093  0.3362 -3.2347
  105MOL0     H14430  10.097   9.791   7.438 -0.5813  0.8224 -3.4095
  105MOL0     H14431  10.013  10.091   7.412 -2.0155  1.3432 -3.2218
  105MOL0     H14432   9.884   9.991   7.424 -0.6873 -2.2722  0.3281
  105MOL0     H14433   9.919   9.890   7.202  2.0944 -0.9828 -1.1247
  105MOL0     H14434   9.963  10.052   7.181 -0.1345  0.2532 -0.3279
  105MOL0     H14435  10.145   9.809   7.182 -1.2234 -0.0209 -4.0980
  105MOL0     H14436  10.201   9.959   7.275 -1.0161  0.1413  1.0979
  105MOL0     H14437  10.167  10.083   7.058  1.0272  1.4259 -0.6853
  105MOL0     H14438  10.270   9.947   7.023  1.7769  4.5616  2.7615
  105MOL0     H14439  10.152   9.749   6.849 -0.0822 -0.2662  1.1064
  105MOL0     H14440   9.989   9.616   6.724 -0.6360 -2.2747  0.5059
  105MOL0     H14441   9.895   9.723   6.618 -3.9180 -0.2964  1.2936
  105MOL0     H14442   9.825   9.591   6.874  2.9924  2.7866  0.2769
  105MOL0     H14443   9.731   9.726   6.818 -1.5140 -0.4991 -1.2235
  105MOL0     H14444   9.677   9.603   6.586 -1.9860  1.3972  1.1398
  105MOL0     H14445   9.772   9.466   6.650 -0.6989  0.7762 -0.0459
  105MOL0     H14446   9.633   9.448   6.837 -1.2791  0.4151  0.3275
  105MOL0     H14447   9.520   9.576   6.759 -0.7256  1.1293 -3.2283
  105MOL0     H14448   9.297   9.338   6.746 -1.8205 -1.0624  1.2669
  105MOL0     H14449   9.133   9.195   6.789 -1.7853  0.4949  2.1315
  105MOL0     H14450   9.166   9.149   6.957 -0.9706  0.1264 -0.8554
  105MOL0     H14451   9.162   9.022   6.835 -1.6209  0.5011  0.2259
  105MOL0     H14452   9.297   8.659   6.993 -2.2927 -2.1054  0.1144
  105MOL0     H14453   9.288   8.412   7.009  1.4349 -2.2813 -0.5543
  105MOL0     H14454   9.685   8.201   7.039  0.6236  0.8871 -2.8708
  105MOL0     H14455   9.570   8.071   7.060  1.5254 -1.3901 -2.3367
  105MOL0     H14456   9.556   8.053   6.797  3.6883 -4.8751  1.1439
  105MOL0     H14457   9.648   8.199   6.800  0.0892  0.0473 -0.7669
  105MOL0     H14458   9.843   8.082   6.904 -0.2223  1.1992 -0.2722
  105MOL0     H14459   9.786   8.022   6.743 -3.1991 -2.0032 -0.2303
  105MOL0     H14460   9.672   7.868   6.974 -2.3879 -2.4164 -2.3096
  105MOL0     H14461   9.848   7.851   6.943 -0.0634 -2.0730  0.3468
  105MOL0     H14462   9.610   7.809   6.754  0.1591 -0.6624  0.4866
  105MOL0     H14463   9.774   7.809   6.692  1.9491 -5.3544 -0.0359
  105MOL0     H14464   9.692   7.570   6.773 -2.6671 -3.0095  3.8468
  105MOL0     H14465   9.724   7.638   6.937  0.3566  3.4143 -0.2005
  105MOL0     H14466   9.956   7.716   6.835 -0.1801  1.1927 -2.0816
  105MOL0     H14467   9.909   7.610   6.700 -0.2350  1.5515 -0.8177
  105MOL0     H14468   9.885   7.431   6.858 -1.9786  1.6312 -1.2545
  105MOL0     H14469   9.930   7.524   7.000  4.2014  3.2379  0.9899
  105MOL0     H14470   9.690   8.390   6.905  1.0534 -0.1056  2.8193
  105MOL0     H14471   9.709   8.654   6.880  1.5846 -1.0364  2.7197
  105MOL0     H14472   9.642   8.998   6.814  0.1762  0.1738  0.3634
  105MOL0     H14473   9.697   9.230   6.707 -0.0101  2.9942  1.1671
  105MOL0     H14474   9.873   9.816   8.100  0.1770 -0.2245  2.3075
  105MOL0     H14475   9.741   9.750   8.301  0.9741  3.0393 -1.0139
  105MOL0     H14476   9.488   9.189   8.281 -1.8319 -0.1975 -1.0944
  105MOL0     H14477   9.304   9.109   8.418 -1.4297 -0.3311  0.4992
  105MOL0     H14478   9.158   9.082   8.832 -1.0452  1.4699  1.5816
  105MOL0     H14479   9.301   9.179   8.866  0.4645  1.2133 -0.8840
  105MOL0     H14480   9.185   9.378   8.743 -1.2962 -0.7724 -4.6298
  105MOL0     H14481   9.106   9.339   8.898 -3.3773 -1.4566 -0.8593
  105MOL0     H14482   9.016   9.289   8.622  2.1536 -0.4980  0.7707
  105MOL0     H14483   8.966   9.166   8.742  1.2740  0.4720  1.5406
  105MOL0     H14484   8.831   9.319   8.854  0.9284  0.7560  0.9111
  105MOL0     H14485   8.814   9.355   8.680 -1.6217  1.1268  1.4357
  105MOL0     H14486   8.974   9.721   8.825 -2.3380  1.1291 -1.0491
  105MOL0     H14487   9.414   9.322   8.752 -1.5669 -0.9674 -0.7731
  105MOL0     H14488   9.718   9.480   8.592  0.9715  0.9221  0.3233
  105MOL0     H14489   9.573   9.600   8.597  2.8761  0.7753 -0.6204
  105MOL0     H14490   9.613   9.500   8.728  0.4571  1.8517  0.0535
  106MOL0     O14491   6.891   1.399  10.276  0.0234  0.1400 -0.2003
  106MOL0     C14492   6.914   1.429  10.392 -0.7088  0.5992  0.7375
  106MOL0     O14493   6.979   1.350  10.487 -0.0193  0.0911  0.2977
  106MOL0     C14494   7.022   1.213  10.469  0.0249 -0.0138 -0.7673
  106MOL0     C14495   7.103   1.145  10.569 -0.6090  0.1521  0.4917
  106MOL0     C14496   7.113   1.007  10.567  0.2788 -0.0146  0.0840
  106MOL0     C14497   7.060   0.924  10.460  0.4001  0.3032  1.0699
  106MOL0     O14498   7.077   0.789  10.449  0.2878 -0.2673 -0.4317
  106MOL0     C14499   7.106   0.696  10.552  0.1634 -0.0704  0.8486
  106MOL0     C14500   6.976   0.654  10.632 -0.3805  0.9597  0.7684
  106MOL0     C14501   6.903   0.750  10.707  0.2583  0.5376 -1.2914
  106MOL0     C14502   6.793   0.686  10.793 -0.2755  0.9109 -0.2438
  106MOL0     C14503   6.855   0.645  10.924 -0.1507  0.4734 -0.4321
  106MOL0     C14504   6.759   0.613  11.040 -0.1898  1.7381  0.3006
  106MOL0     C14505   6.834   0.575  11.164 -0.4920  1.2878 -0.0409
  106MOL0     C14506   6.879   0.688  11.257 -0.2481  0.2508  0.0053
  106MOL0     N14507   6.937   0.635  11.383  0.5581  0.5360 -0.0401
  106MOL0     C14508   6.870   0.548  11.469 -0.1984  0.4303  0.4779
  106MOL0     C14509   6.954   0.539  11.580  0.3919  0.7218  0.0743
  106MOL0     C14510   6.906   0.477  11.707  0.3052 -0.5451 -0.2939
  106MOL0     C14511   7.010   0.500  11.816 -1.3230  1.0077  0.8325
  106MOL0     C14512   6.969   0.439  11.952  0.4355  0.4817  0.8730
  106MOL0     C14513   6.982   0.542  12.068 -1.1815  0.2326 -1.2428
  106MOL0     O14514   7.122   0.558  12.115  0.3218  0.3069 -0.7006
  106MOL0     C14515   7.170   0.460  12.208  0.0390  0.6888  0.2242
  106MOL0     C14516   7.124   0.327  12.231  0.9149  0.0163  1.3904
  106MOL0     C14517   7.205   0.232  12.310 -0.4142  0.0666  0.4155
  106MOL0     C14518   7.156   0.091  12.323 -0.0872  0.0148 -0.4921
  106MOL0     C14519   7.326   0.264  12.359  0.4027  0.5604  0.0017
  106MOL0     C14520   7.400   0.182  12.455 -0.0024  0.2650  0.3383
  106MOL0     O14521   7.514   0.241  12.509 -0.0794  0.1821 -0.4471
  106MOL0     C14522   7.589   0.180  12.611  0.5223  0.0411  0.9194
  106MOL0     C14523   7.611   0.034  12.621  0.4555 -0.0923  0.2496
  106MOL0     C14524   7.684  -0.012  12.727  0.0764 -0.1212 -0.8940
  106MOL0     C14525   7.738   0.068  12.830  0.6215  0.4192 -0.0653
  106MOL0     O14526   7.817   0.013  12.928 -0.4856 -0.0805  0.2361
  106MOL0     C14527   7.810   0.085  13.057  0.1044 -0.2048 -0.1102
  106MOL0     C14528   7.838  -0.011  13.167  0.5382 -0.3947 -0.2298
  106MOL0     C14529   7.713  -0.096  13.184 -0.5360  0.2657  0.8945
  106MOL0     C14530   7.707  -0.170  13.314  0.2302  0.1818  1.0417
  106MOL0     C14531   7.572  -0.250  13.343 -1.4900 -0.2801 -0.4524
  106MOL0     C14532   7.578  -0.370  13.251 -0.1479  0.3557  0.8392
  106MOL0     C14533   7.455  -0.455  13.279  0.5973 -0.7700 -0.5461
  106MOL0     C14534   7.442  -0.565  13.175 -0.3086  0.3365  0.4004
  106MOL0    Cl14535   7.301  -0.676  13.197 -0.0046  0.0610  0.7441
  106MOL0     C14536   7.711   0.213  12.822  0.4016 -0.2062  0.8599
  106MOL0     C14537   7.643   0.264  12.710  0.7522  0.0404  0.1034
  106MOL0     O14538   7.350   0.075  12.495 -0.3096 -0.2942 -0.0339
  106MOL0     C14539   7.370   0.386  12.333 -0.5052  0.6861 -0.9292
  106MOL0     C14540   7.296   0.481  12.260 -0.7661 -0.0158  0.8976
  106MOL0     N14541   7.069   0.604  11.548 -0.4278 -0.3756  0.3733
  106MOL0     N14542   7.060   0.663  11.432  1.1994  0.2388 -0.7300
  106MOL0     C14543   6.991   0.992  10.363 -1.2679 -0.2222 -0.2360
  106MOL0     C14544   6.973   1.133  10.365 -0.5380 -0.1840  0.2151
  106MOL0     C14545   6.911   1.574  10.429  0.7104  0.3059  0.0244
  106MOL0     C14546   6.971   1.619  10.549 -0.0122 -1.0130  0.3190
  106MOL0     C14547   6.963   1.757  10.591  0.3626  0.5807  0.2081
  106MOL0     C14548   6.910   1.850  10.491 -0.6283  0.7907  0.0434
  106MOL0     O14549   6.900   1.981  10.497  0.0579 -0.6451  0.8757
  106MOL0     C14550   6.893   2.042  10.626  0.1701  0.2041 -0.7769
  106MOL0     C14551   6.971   2.178  10.610 -0.3902  0.2408  0.0597
  106MOL0     C14552   6.915   2.266  10.492  0.2507  0.9185 -0.4878
  106MOL0     C14553   6.754   2.273  10.499 -0.5892  0.3738  1.1673
  106MOL0     C14554   6.717   2.373  10.386  0.4056 -0.7836 -0.5564
  106MOL0     C14555   6.688   2.459  10.306 -0.2018 -0.4420  0.8114
  106MOL0     C14556   6.854   1.802  10.378  0.2751 -0.5723  0.0459
  106MOL0     C14557   6.847   1.665  10.342  0.3461 -0.1081 -0.0996
  106MOL0     C14558   6.758   1.633  10.226  0.3277 -0.1436 -0.0066
  106MOL0     H14559   7.134   1.196  10.659  2.1183  1.7238 -1.2034
  106MOL0     H14560   7.154   0.954  10.652 -0.3624  2.5902  2.1404
  106MOL0     H14561   7.184   0.729  10.621  1.0737  0.8132 -0.5498
  106MOL0     H14562   7.150   0.606  10.508 -0.8925 -0.4183  0.4647
  106MOL0     H14563   6.912   0.606  10.557  0.9174 -0.1747  0.3393
  106MOL0     H14564   7.022   0.587  10.705  2.6536  3.1125  1.0464
  106MOL0     H14565   6.973   0.805  10.770  1.8393 -3.3913  0.7359
  106MOL0     H14566   6.869   0.823  10.633  1.1479  1.2726 -0.9944
  106MOL0     H14567   6.708   0.755  10.790 -1.6192 -0.6888 -0.7269
  106MOL0     H14568   6.757   0.593  10.749 -0.2665  0.2587  1.0913
  106MOL0     H14569   6.919   0.727  10.958  3.4603 -0.9451 -3.2584
  106MOL0     H14570   6.929   0.568  10.901 -0.6806  0.4501 -2.1920
  106MOL0     H14571   6.690   0.693  11.068 -0.9006  0.6824  1.7366
  106MOL0     H14572   6.703   0.525  11.006  2.4486  0.6720 -1.5403
  106MOL0     H14573   6.924   0.522  11.134 -0.2577  2.3802 -1.4017
  106MOL0     H14574   6.774   0.507  11.224  0.0462  1.2987  0.5092
  106MOL0     H14575   6.951   0.749  11.201 -0.1831 -0.0703 -0.2699
  106MOL0     H14576   6.793   0.748  11.285 -0.1512  1.2878 -1.7549
  106MOL0     H14577   6.763   0.530  11.458 -0.3022  2.4804 -3.8093
  106MOL0     H14578   6.916   0.373  11.674  0.8996  0.1273 -2.4128
  106MOL0     H14579   6.811   0.522  11.738  0.9019 -0.5549  1.7110
  106MOL0     H14580   7.103   0.450  11.786 -1.7642  2.4344 -3.5987
  106MOL0     H14581   7.049   0.601  11.803  2.6406 -0.4247  0.1373
  106MOL0     H14582   6.862   0.416  11.946  0.4486  0.7294 -1.6065
  106MOL0     H14583   7.014   0.341  11.973 -2.2028 -1.0050  0.0988
  106MOL0     H14584   6.947   0.640  12.037  1.1577  1.3617 -0.5337
  106MOL0     H14585   6.917   0.497  12.144 -1.6830  0.2627 -1.6477
  106MOL0     H14586   7.034   0.289  12.184  1.6109  0.5890 -0.5068
  106MOL0     H14587   7.225   0.033  12.261  0.6186  1.6657 -1.3054
  106MOL0     H14588   7.056   0.072  12.285 -1.0926  2.4101  0.7505
  106MOL0     H14589   7.142   0.056  12.426  0.4857  1.8904  0.2584
  106MOL0     H14590   7.566  -0.034  12.549  0.4726  2.1436 -2.0208
  106MOL0     H14591   7.709  -0.118  12.731 -0.6965 -0.2693  0.3345
  106MOL0     H14592   7.882   0.165  13.075  2.9846 -2.5795 -0.3411
  106MOL0     H14593   7.707   0.117  13.079  0.3080  0.2743  0.1604
  106MOL0     H14594   7.935  -0.061  13.153  2.9867  3.5795  0.9434
  106MOL0     H14595   7.834   0.048  13.259 -1.5696 -0.4533 -0.2412
  106MOL0     H14596   7.721  -0.171  13.105  0.3343  1.7276 -0.4684
  106MOL0     H14597   7.621  -0.041  13.164  0.9075  1.8837 -2.0492
  106MOL0     H14598   7.705  -0.101  13.399 -4.1249  1.2029  0.3663
  106MOL0     H14599   7.796  -0.232  13.327 -0.1802 -0.4973  0.6741
  106MOL0     H14600   7.563  -0.280  13.448  3.2446 -0.4262  0.1287
  106MOL0     H14601   7.485  -0.189  13.315 -1.2122  0.7965  0.9119
  106MOL0     H14602   7.666  -0.427  13.284 -1.2138 -2.0569 -0.1841
  106MOL0     H14603   7.592  -0.346  13.145 -0.8890 -1.6198  0.2526
  106MOL0     H14604   7.360  -0.404  13.295 -0.6575 -2.4106 -2.2227
  106MOL0     H14605   7.479  -0.499  13.376 -1.0431 -3.2617 -1.1626
  106MOL0     H14606   7.537  -0.610  13.145 -2.0390 -2.8820 -0.8702
  106MOL0     H14607   7.412  -0.515  13.082 -1.0584 -0.5641  0.1318
  106MOL0     H14608   7.743   0.287  12.894  1.6207  0.2615 -0.1308
  106MOL0     H14609   7.650   0.370  12.684  0.4571  0.4220  1.4963
  106MOL0     H14610   7.462   0.433  12.366 -2.9707  4.2499  1.7195
  106MOL0     H14611   7.349   0.572  12.236 -0.3170 -0.6331 -0.6206
  106MOL0     H14612   6.951   0.931  10.282  1.6521 -0.5686 -1.5064
  106MOL0     H14613   6.918   1.169  10.279 -2.3139  0.3641  1.5120
  106MOL0     H14614   7.024   1.559  10.622  0.6755  0.3170  0.9656
  106MOL0     H14615   6.996   1.792  10.688  2.1730 -0.9102  0.1905
  106MOL0     H14616   6.790   2.050  10.664  0.5760 -0.8212  0.5936
  106MOL0     H14617   6.940   1.991  10.710 -2.0439  1.3837  1.3232
  106MOL0     H14618   7.077   2.166  10.584  1.2603  1.9826  4.8260
  106MOL0     H14619   6.962   2.228  10.707 -0.2646 -4.2926  2.7096
  106MOL0     H14620   6.955   2.368  10.488 -1.3193  1.5445 -1.2023
  106MOL0     H14621   6.944   2.220  10.397  0.3128  0.1732 -0.1127
  106MOL0     H14622   6.736   2.305  10.602  1.7811  1.0254  1.4414
  106MOL0     H14623   6.705   2.178  10.476 -0.8218  0.3357  1.8059
  106MOL0     H14624   6.677   2.533  10.229  0.8285 -0.9812  0.1230
  106MOL0     H14625   6.808   1.879  10.316  1.6111 -0.3083 -0.6630
  106MOL0     H14626   6.816   1.587  10.146 -1.7078 -3.3878  0.1675
  106MOL0     H14627   6.682   1.561  10.258 -1.9477  0.1827 -4.0784
  106MOL0     H14628   6.710   1.727  10.197  2.0624  1.3263  1.6393
  107MOL0     O14629   5.482   8.312   3.888 -0.0550  0.3674 -0.4055
  107MOL0     C14630   5.579   8.337   3.957  1.2116 -0.0698 -0.5918
  107MOL0     O14631   5.692   8.262   3.962 -0.2296  0.1711 -0.7419
  107MOL0     C14632   5.672   8.125   3.999  0.1830  0.5675  0.9492
  107MOL0     C14633   5.778   8.036   3.970  0.6221  0.6790  0.5942
  107MOL0     C14634   5.782   7.904   4.016  0.5050  0.2080  0.9672
  107MOL0     C14635   5.670   7.849   4.080  0.1554 -0.4208 -0.0451
  107MOL0     O14636   5.665   7.736   4.157  0.0757  0.7429  0.0783
  107MOL0     C14637   5.722   7.621   4.100 -0.2822  1.3782 -0.1853
  107MOL0     C14638   5.682   7.501   4.188  0.0184  0.5384  0.2807
  107MOL0     C14639   5.760   7.381   4.172  0.4580  0.1575 -0.2488
  107MOL0     C14640   5.744   7.308   4.049  0.0811 -0.3295 -0.4705
  107MOL0     C14641   5.829   7.181   4.037  0.2716  0.3467  0.7953
  107MOL0     C14642   5.958   7.212   3.990 -0.0928 -0.7493 -0.2769
  107MOL0     C14643   6.037   7.086   3.971  0.3479 -0.2686  0.3091
  107MOL0     C14644   6.192   7.127   3.966  0.1231  0.0944 -0.0919
  107MOL0     N14645   6.246   7.185   4.094 -0.4609 -0.4882 -0.6055
  107MOL0     C14646   6.219   7.145   4.226 -0.3116  0.4872 -0.2115
  107MOL0     C14647   6.273   7.236   4.299 -0.4397  0.1669 -0.5075
  107MOL0     C14648   6.260   7.247   4.448  0.9672 -0.5193  0.6835
  107MOL0     C14649   6.113   7.279   4.475  0.6175  0.2099 -0.7423
  107MOL0     C14650   6.080   7.425   4.448 -0.3044 -0.7084 -1.1937
  107MOL0     C14651   5.932   7.467   4.451 -0.3375 -0.3094  0.5396
  107MOL0     O14652   5.900   7.493   4.589  0.6733 -0.0691 -0.3085
  107MOL0     C14653   5.772   7.533   4.618 -0.1506 -0.2082 -0.0237
  107MOL0     C14654   5.760   7.636   4.712  0.4644  0.4164  0.5100
  107MOL0     C14655   5.629   7.694   4.739 -0.1222  0.5848 -0.5182
  107MOL0     C14656   5.610   7.830   4.818  0.9707  0.1120  0.0530
  107MOL0     C14657   5.516   7.637   4.662  0.7989 -0.7919  0.4104
  107MOL0     C14658   5.380   7.687   4.675 -0.0791  0.8397 -0.1795
  107MOL0     O14659   5.274   7.595   4.673  0.2950  0.0088  0.6106
  107MOL0     C14660   5.164   7.641   4.620  0.5672  0.4048 -0.7661
  107MOL0     C14661   5.106   7.612   4.494  0.4067 -0.7418  0.9285
  107MOL0     C14662   4.988   7.665   4.441 -0.4636  0.5633  0.6027
  107MOL0     C14663   4.903   7.727   4.531  0.1486 -0.2035  0.5952
  107MOL0     O14664   4.788   7.769   4.473 -0.2240 -0.2621  0.8053
  107MOL0     C14665   4.661   7.782   4.547  0.2906 -0.3317  1.2322
  107MOL0     C14666   4.546   7.810   4.445  0.4438  0.3756 -0.0618
  107MOL0     C14667   4.548   7.939   4.362 -0.0699 -0.5714  0.2273
  107MOL0     C14668   4.515   8.059   4.447 -0.4408 -0.0955 -0.1835
  107MOL0     C14669   4.499   8.191   4.369  0.1089 -0.2695 -0.3640
  107MOL0     C14670   4.623   8.238   4.293 -0.0362 -0.2271  0.1131
  107MOL0     C14671   4.614   8.385   4.259 -0.4543 -0.0795  0.1588
  107MOL0     C14672   4.720   8.398   4.138  0.1683  0.4821  0.4610
  107MOL0    Cl14673   4.874   8.316   4.157 -0.9622 -0.0233  0.2938
  107MOL0     C14674   4.943   7.739   4.670  0.4620  0.1205  0.4670
  107MOL0     C14675   5.068   7.692   4.715  0.1507 -0.2333 -0.7734
  107MOL0     O14676   5.365   7.805   4.647 -0.1269 -0.1613  0.3170
  107MOL0     C14677   5.534   7.528   4.572 -0.0441 -0.2318 -0.8272
  107MOL0     C14678   5.659   7.475   4.554 -0.3345  0.1698  0.4263
  107MOL0     N14679   6.335   7.328   4.223 -0.1068  0.4141  0.1803
  107MOL0     N14680   6.330   7.294   4.100 -0.0075 -0.7121  0.1070
  107MOL0     C14681   5.558   7.933   4.100  0.3796 -0.3885 -0.3784
  107MOL0     C14682   5.561   8.072   4.075  0.6569 -0.3853 -0.1267
  107MOL0     C14683   5.573   8.474   4.024  0.0043 -0.5803  0.2902
  107MOL0     C14684   5.696   8.537   4.036 -0.7695 -0.8095 -1.0568
  107MOL0     C14685   5.714   8.660   4.094  0.5712  0.3982 -0.0406
  107MOL0     C14686   5.606   8.732   4.150  0.0821 -0.7537  0.2856
  107MOL0     O14687   5.609   8.866   4.195  0.1532  0.6096  1.0712
  107MOL0     C14688   5.736   8.936   4.187 -0.0395  0.4027  1.1647
  107MOL0     C14689   5.763   9.006   4.055  0.2490 -0.3229 -0.2881
  107MOL0     C14690   5.882   9.100   4.076 -0.4899 -0.7145  0.3613
  107MOL0     C14691   6.019   9.029   4.089  0.0127  0.1741 -0.4952
  107MOL0     C14692   6.017   8.903   4.009 -0.2109 -0.8725 -0.6590
  107MOL0     C14693   6.007   8.801   3.941  0.3945 -0.5157 -0.4634
  107MOL0     C14694   5.480   8.667   4.151 -0.0918 -0.2563 -0.5003
  107MOL0     C14695   5.466   8.538   4.087 -0.8091 -0.7368  0.3754
  107MOL0     C14696   5.326   8.490   4.085 -0.7887  0.0436 -0.5469
  107MOL0     H14697   5.860   8.073   3.910  0.3808 -1.3395 -1.1035
  107MOL0     H14698   5.870   7.840   4.006  0.5342 -0.7411  5.1187
  107MOL0     H14699   5.831   7.624   4.109 -0.3161 -0.5261  1.3884
  107MOL0     H14700   5.684   7.606   3.999 -2.6233  0.1385  0.8112
  107MOL0     H14701   5.670   7.524   4.294 -3.7388 -0.2626  0.1723
  107MOL0     H14702   5.580   7.479   4.154  0.6914 -0.7637 -1.0313
  107MOL0     H14703   5.864   7.392   4.204  0.1595 -3.8028  2.8110
  107MOL0     H14704   5.733   7.322   4.259 -0.7167 -1.2474 -1.5161
  107MOL0     H14705   5.640   7.275   4.040  0.5736 -2.1085  0.0813
  107MOL0     H14706   5.767   7.371   3.962  3.1906  2.9580  2.3989
  107MOL0     H14707   5.775   7.119   3.966  0.7395 -0.8568  1.4533
  107MOL0     H14708   5.836   7.128   4.133 -0.0008 -0.8014  0.1988
  107MOL0     H14709   5.959   7.287   3.910  1.6268  0.5064  0.8376
  107MOL0     H14710   5.993   7.265   4.079 -2.1241  0.4374 -0.1287
  107MOL0     H14711   6.016   7.029   3.881  2.4209 -3.0458  1.4407
  107MOL0     H14712   6.031   7.029   4.064 -0.0397 -1.5921 -0.5033
  107MOL0     H14713   6.253   7.039   3.944 -0.7410 -0.0971 -1.8670
  107MOL0     H14714   6.203   7.195   3.882  0.2602 -1.2132 -1.1615
  107MOL0     H14715   6.170   7.053   4.253  1.1994 -1.1791 -2.7015
  107MOL0     H14716   6.315   7.336   4.482 -1.4053  1.0272  0.7349
  107MOL0     H14717   6.309   7.160   4.493 -0.7047 -0.9750  1.7082
  107MOL0     H14718   6.042   7.219   4.417  1.4914 -2.1150  0.4760
  107MOL0     H14719   6.087   7.278   4.581 -0.3827  2.7679 -0.8850
  107MOL0     H14720   6.141   7.489   4.513  0.8166  0.4000 -3.2390
  107MOL0     H14721   6.097   7.443   4.341 -2.7732 -0.0177 -1.5248
  107MOL0     H14722   5.908   7.552   4.387  0.5506 -0.4832 -0.0358
  107MOL0     H14723   5.873   7.385   4.410  0.1966  0.8537 -2.8139
  107MOL0     H14724   5.855   7.672   4.750  0.1420  1.8009  0.0387
  107MOL0     H14725   5.672   7.907   4.770 -1.8454  1.8309 -1.0622
  107MOL0     H14726   5.636   7.808   4.922  1.2501 -2.1365 -0.4396
  107MOL0     H14727   5.506   7.863   4.811  1.5669  2.3889  0.8356
  107MOL0     H14728   5.166   7.559   4.420 -4.0101 -0.2749 -3.5050
  107MOL0     H14729   4.957   7.658   4.337  2.4936  2.5486 -0.5684
  107MOL0     H14730   4.632   7.687   4.593  0.4471 -0.4017  1.1863
  107MOL0     H14731   4.677   7.852   4.630  3.0105 -0.1697  0.6732
  107MOL0     H14732   4.540   7.725   4.376  0.4121 -1.6076  2.2734
  107MOL0     H14733   4.445   7.805   4.486 -0.3554 -4.0430 -2.0560
  107MOL0     H14734   4.486   7.928   4.272  0.9432 -2.1730 -0.3087
  107MOL0     H14735   4.651   7.937   4.327  0.0379  0.2857  0.4755
  107MOL0     H14736   4.589   8.075   4.527  1.7221  1.9062 -2.4167
  107MOL0     H14737   4.427   8.024   4.502 -0.3655  0.2081  0.1370
  107MOL0     H14738   4.421   8.180   4.294  1.1736 -2.0600 -1.2653
  107MOL0     H14739   4.477   8.263   4.448 -1.1051 -0.3790 -0.5805
  107MOL0     H14740   4.628   8.175   4.203 -4.1123  0.2355 -0.6568
  107MOL0     H14741   4.708   8.233   4.361  1.4979 -1.6232 -1.7665
  107MOL0     H14742   4.629   8.449   4.347  1.1031  0.1592 -0.2501
  107MOL0     H14743   4.515   8.413   4.223  0.6738  0.1348 -3.1461
  107MOL0     H14744   4.727   8.505   4.116 -2.6832  0.6796  0.1600
  107MOL0     H14745   4.677   8.349   4.049  1.6958  0.6856 -0.4225
  107MOL0     H14746   4.870   7.799   4.723  1.5292 -0.9021  3.3013
  107MOL0     H14747   5.099   7.718   4.816  1.1997  2.7723 -1.7541
  107MOL0     H14748   5.448   7.480   4.527 -1.4498  3.2839 -2.2529
  107MOL0     H14749   5.671   7.382   4.498  5.2085 -0.3356  1.8647
  107MOL0     H14750   5.487   7.890   4.169  1.0717 -1.2991 -0.2076
  107MOL0     H14751   5.487   8.139   4.115 -0.8645 -2.9470  1.6730
  107MOL0     H14752   5.786   8.498   3.990  0.7469 -0.7016  1.6426
  107MOL0     H14753   5.810   8.711   4.086 -0.0887  1.5891 -0.5090
  107MOL0     H14754   5.742   9.000   4.276  2.3588 -0.5833  1.7987
  107MOL0     H14755   5.823   8.874   4.208  1.4422  2.0553  0.1967
  107MOL0     H14756   5.689   9.087   4.046  1.4824  1.4145  3.1569
  107MOL0     H14757   5.771   8.942   3.967  0.9524  0.1686 -0.5970
  107MOL0     H14758   5.895   9.173   3.996  1.4270 -0.4543  0.8602
  107MOL0     H14759   5.862   9.162   4.164 -2.2112  1.6665 -1.5772
  107MOL0     H14760   6.038   9.003   4.193  0.9882 -0.8799 -0.9126
  107MOL0     H14761   6.098   9.095   4.053  0.3648  1.0474  1.7329
  107MOL0     H14762   5.984   8.722   3.872 -1.7183  0.5505 -1.0478
  107MOL0     H14763   5.400   8.720   4.202 -0.0918  0.1037 -0.8614
  107MOL0     H14764   5.311   8.390   4.129 -0.7996  1.1829  2.2470
  107MOL0     H14765   5.255   8.550   4.142 -1.8089 -1.8591  0.3095
  107MOL0     H14766   5.288   8.491   3.982  0.1945 -0.8809 -0.9335
  108MOL0     O14767   7.819   0.327   0.009  0.4613  0.4097  0.8299
  108MOL0     C14768   7.874   0.419   0.074 -0.7289  0.2918  0.8263
  108MOL0     O14769   7.962   0.509   0.026 -0.1000  0.1381  1.1113
  108MOL0     C14770   7.997   0.519  -0.108 -0.7103 -0.2616 -0.0426
  108MOL0     C14771   7.919   0.479  -0.224  0.7874 -0.2608  1.4045
  108MOL0     C14772   7.964   0.495  -0.356 -0.2203 -0.1970  0.3797
  108MOL0     C14773   8.093   0.543  -0.385 -0.5114 -0.4154 -0.9989
  108MOL0     O14774   8.132   0.546  -0.516  0.7935  0.2407 -0.1941
  108MOL0     C14775   8.245   0.625  -0.561 -0.0745  0.1955  0.9030
  108MOL0     C14776   8.266   0.641  -0.718  0.9010 -0.6954 -0.2727
  108MOL0     C14777   8.148   0.702  -0.796  0.0741  0.0289 -0.8185
  108MOL0     C14778   8.173   0.719  -0.946 -0.3867  0.8720  0.8301
  108MOL0     C14779   8.174   0.582  -1.025 -0.1439  0.3062  0.3536
  108MOL0     C14780   8.240   0.591  -1.163  0.7980  0.4216  0.4123
  108MOL0     C14781   8.235   0.466  -1.253 -0.0389 -0.0946  0.6428
  108MOL0     C14782   8.299   0.465  -1.393 -0.9314 -0.5312 -0.4274
  108MOL0     N14783   8.185   0.467  -1.494 -0.0099  0.2510  0.4364
  108MOL0     C14784   8.125   0.579  -1.549  0.0601 -0.1723  0.2553
  108MOL0     C14785   8.064   0.527  -1.659  0.7828 -0.1549  0.7746
  108MOL0     C14786   7.984   0.612  -1.755  0.7395  1.2862  0.1646
  108MOL0     C14787   8.058   0.732  -1.818 -0.1015  0.3321  0.2888
  108MOL0     C14788   8.183   0.689  -1.890 -0.5757  1.0159  0.1036
  108MOL0     C14789   8.233   0.787  -1.991 -0.4516  0.0327  1.2039
  108MOL0     O14790   8.262   0.908  -1.928  0.0991 -0.8697 -0.3429
  108MOL0     C14791   8.291   1.016  -2.015 -0.8759  0.3038 -0.1792
  108MOL0     C14792   8.235   1.140  -1.988 -0.2377  0.3197 -0.4540
  108MOL0     C14793   8.259   1.253  -2.065 -0.0020  1.2624  0.5065
  108MOL0     C14794   8.188   1.368  -2.009 -0.3398 -1.5552 -1.0121
  108MOL0     C14795   8.347   1.248  -2.177 -0.4752  0.5283  0.1491
  108MOL0     C14796   8.382   1.368  -2.255 -0.4061 -0.2600 -0.4495
  108MOL0     O14797   8.469   1.360  -2.359  0.0418  0.3978  0.5489
  108MOL0     C14798   8.493   1.466  -2.441 -0.0847  1.3792 -0.0415
  108MOL0     C14799   8.397   1.517  -2.533  0.2039 -0.0482 -0.0185
  108MOL0     C14800   8.423   1.634  -2.612 -0.2926 -0.4211  0.1885
  108MOL0     C14801   8.560   1.688  -2.619 -0.5077 -0.5136  0.4678
  108MOL0     O14802   8.594   1.790  -2.704  0.2624  0.1643  0.5097
  108MOL0     C14803   8.495   1.898  -2.699  0.2670 -0.1207  0.5072
  108MOL0     C14804   8.522   2.021  -2.800  0.3467 -0.2508  0.0632
  108MOL0     C14805   8.449   2.002  -2.931  0.2712 -0.5219 -1.2468
  108MOL0     C14806   8.482   2.106  -3.033  0.6202 -0.8415 -0.3207
  108MOL0     C14807   8.444   2.255  -3.005  0.2531 -0.4084 -0.9465
  108MOL0     C14808   8.302   2.280  -3.039  0.3128 -0.2156  0.2785
  108MOL0     C14809   8.264   2.423  -3.010 -0.3151 -0.9569 -0.0604
  108MOL0     C14810   8.180   2.506  -3.112 -1.1587 -0.2861  0.1177
  108MOL0    Cl14811   8.036   2.419  -3.193 -0.0165 -0.4409  0.2089
  108MOL0     C14812   8.654   1.614  -2.552  0.1454  0.4729 -0.8897
  108MOL0     C14813   8.623   1.516  -2.459 -0.0856  0.4007  1.0360
  108MOL0     O14814   8.313   1.470  -2.234  0.2981 -0.3981  0.2187
  108MOL0     C14815   8.416   1.125  -2.208  0.6315  0.9002 -0.7364
  108MOL0     C14816   8.379   1.005  -2.129 -0.7718 -0.4592  0.7465
  108MOL0     N14817   8.075   0.387  -1.657 -0.0323 -0.2812 -0.9546
  108MOL0     N14818   8.160   0.353  -1.568 -0.1593  0.6322 -0.2370
  108MOL0     C14819   8.175   0.585  -0.270  0.4197  1.3401  0.3772
  108MOL0     C14820   8.129   0.570  -0.143  0.6466 -0.4235 -0.1617
  108MOL0     C14821   7.878   0.387   0.215 -0.2844  0.1415 -0.6477
  108MOL0     C14822   8.000   0.361   0.269 -0.5009 -0.0220 -0.2327
  108MOL0     C14823   8.021   0.327   0.406 -0.6929 -1.6246  0.7165
  108MOL0     C14824   7.913   0.313   0.492  0.0408  1.0632  0.3070
  108MOL0     O14825   7.948   0.259   0.613  1.0639  0.0333  0.1073
  108MOL0     C14826   7.840   0.249   0.704 -0.4483 -1.1813  0.2694
  108MOL0     C14827   7.830   0.377   0.789 -0.9501 -1.1559 -0.1563
  108MOL0     C14828   7.967   0.423   0.849  0.7699  0.4517 -1.2593
  108MOL0     C14829   7.971   0.405   0.998  0.0876  0.9017  0.4010
  108MOL0     C14830   8.028   0.269   1.015  0.2697  0.2716  0.7130
  108MOL0     C14831   8.091   0.169   1.017  0.2701  1.0476 -0.0225
  108MOL0     C14832   7.784   0.355   0.441  0.6440 -0.7259  0.4521
  108MOL0     C14833   7.761   0.385   0.305 -0.3663 -0.6031  0.3935
  108MOL0     C14834   7.634   0.423   0.253  0.1769 -0.6888  0.5076
  108MOL0     H14835   7.818   0.440  -0.222  0.4355 -0.2136 -3.2788
  108MOL0     H14836   7.898   0.472  -0.440 -1.5375  3.7270  0.1621
  108MOL0     H14837   8.331   0.572  -0.520 -0.6439 -2.0485 -0.6126
  108MOL0     H14838   8.235   0.727  -0.524 -0.5793  0.7621 -0.7542
  108MOL0     H14839   8.352   0.703  -0.745 -0.1008  0.1924 -1.5322
  108MOL0     H14840   8.287   0.543  -0.761  1.4454 -0.0776 -1.4846
  108MOL0     H14841   8.059   0.641  -0.779  2.4384 -3.2795  0.8607
  108MOL0     H14842   8.144   0.796  -0.741 -2.6648 -1.7974  2.4397
  108MOL0     H14843   8.115   0.792  -1.002 -0.3978  2.1208  2.4094
  108MOL0     H14844   8.269   0.769  -0.961  0.9487 -2.0769 -1.5608
  108MOL0     H14845   8.069   0.552  -1.020 -0.5866  1.8977  1.3003
  108MOL0     H14846   8.220   0.502  -0.967 -0.6389 -0.0279  0.2956
  108MOL0     H14847   8.192   0.669  -1.224  2.5382  2.1328  1.1322
  108MOL0     H14848   8.338   0.637  -1.149  3.0067 -3.9057  0.7546
  108MOL0     H14849   8.131   0.433  -1.263 -0.1392 -1.1641  3.8880
  108MOL0     H14850   8.285   0.385  -1.198  2.0554  2.1784  2.2966
  108MOL0     H14851   8.385   0.532  -1.406  1.3892 -3.5140 -1.6333
  108MOL0     H14852   8.359   0.377  -1.418  2.4769  1.7746 -1.1450
  108MOL0     H14853   8.132   0.680  -1.510  1.9582 -0.5909  1.1184
  108MOL0     H14854   7.886   0.641  -1.716  1.2113  0.1662  2.3510
  108MOL0     H14855   7.965   0.549  -1.842  2.8983 -1.2635  1.3914
  108MOL0     H14856   7.995   0.794  -1.881  1.9017  3.1438  0.8613
  108MOL0     H14857   8.088   0.806  -1.743 -2.8951  0.5569  1.2842
  108MOL0     H14858   8.260   0.678  -1.813  1.2934  3.0356 -1.3567
  108MOL0     H14859   8.170   0.587  -1.930 -1.7076  1.0379  0.3737
  108MOL0     H14860   8.321   0.732  -2.027 -1.6961  0.0077 -2.0944
  108MOL0     H14861   8.162   0.804  -2.072  3.4200  1.6208 -2.2387
  108MOL0     H14862   8.180   1.154  -1.896 -1.1399  0.4178 -0.9946
  108MOL0     H14863   8.254   1.449  -1.976 -1.8910  0.7663 -3.2850
  108MOL0     H14864   8.132   1.355  -1.916 -3.0777 -0.7777 -2.4632
  108MOL0     H14865   8.123   1.413  -2.085 -2.5632 -1.0022  1.0776
  108MOL0     H14866   8.301   1.468  -2.520 -0.5228  1.1426 -0.7037
  108MOL0     H14867   8.332   1.669  -2.660 -0.3403  1.2203  1.4094
  108MOL0     H14868   8.395   1.858  -2.721  0.7288 -2.1682  1.9095
  108MOL0     H14869   8.481   1.953  -2.605 -1.2369  0.7285 -0.1795
  108MOL0     H14870   8.499   2.114  -2.747  0.5979 -1.1834  1.9063
  108MOL0     H14871   8.628   2.027  -2.826 -0.3411  1.3815 -2.7663
  108MOL0     H14872   8.341   2.002  -2.913 -0.4671  0.8507 -4.7843
  108MOL0     H14873   8.480   1.905  -2.972  0.7234 -1.3341  0.9081
  108MOL0     H14874   8.430   2.081  -3.126  0.5957  1.2565 -0.9066
  108MOL0     H14875   8.590   2.104  -3.055  0.8110 -1.2050  0.6084
  108MOL0     H14876   8.462   2.286  -2.902 -0.9110 -1.8216 -0.2800
  108MOL0     H14877   8.513   2.311  -3.069 -0.2058  3.5967  1.6824
  108MOL0     H14878   8.246   2.217  -2.970  2.8578 -1.8547  0.9963
  108MOL0     H14879   8.280   2.254  -3.143  1.1311 -3.8997  0.8928
  108MOL0     H14880   8.349   2.487  -2.983 -2.2836  2.6187 -1.5920
  108MOL0     H14881   8.189   2.421  -2.929  0.9113  1.5107  1.2580
  108MOL0     H14882   8.251   2.539  -3.188 -1.7557  0.9265  0.0640
  108MOL0     H14883   8.145   2.596  -3.063 -1.8606  0.2753 -1.3394
  108MOL0     H14884   8.760   1.637  -2.561  0.6476 -0.7369  1.2076
  108MOL0     H14885   8.702   1.470  -2.399  1.2306  0.6611 -0.4165
  108MOL0     H14886   8.485   1.120  -2.291  0.3509  1.4657 -1.0113
  108MOL0     H14887   8.412   0.908  -2.162  1.2025  0.2038  0.6710
  108MOL0     H14888   8.276   0.619  -0.289  2.0187 -2.1403  1.7824
  108MOL0     H14889   8.196   0.594  -0.060  2.2838 -1.8419 -1.0020
  108MOL0     H14890   8.094   0.381   0.219  0.8565 -2.7310  0.9626
  108MOL0     H14891   8.116   0.312   0.455 -0.0471 -0.9336 -0.2786
  108MOL0     H14892   7.747   0.228   0.651  1.2054 -2.1055 -2.4327
  108MOL0     H14893   7.856   0.163   0.770  1.0790 -2.0419 -1.1822
  108MOL0     H14894   7.759   0.372   0.872 -1.6507  0.2426 -0.6459
  108MOL0     H14895   7.808   0.458   0.719  3.0398  0.7152  0.4506
  108MOL0     H14896   8.047   0.364   0.805  0.6427  0.2683 -1.2483
  108MOL0     H14897   7.980   0.531   0.834 -2.0758  0.9466 -0.7326
  108MOL0     H14898   7.881   0.407   1.059  1.2200  2.7030  2.1403
  108MOL0     H14899   8.041   0.479   1.038  1.0679  1.6509 -2.4420
  108MOL0     H14900   8.151   0.080   1.004  0.8130  1.4118 -0.0383
  108MOL0     H14901   7.705   0.356   0.515  0.6098  1.1180  0.4271
  108MOL0     H14902   7.574   0.335   0.226 -2.6793  1.6196 -1.3202
  108MOL0     H14903   7.583   0.470   0.337 -0.4209  0.9297 -0.7112
  108MOL0     H14904   7.623   0.491   0.168 -1.9772  0.3710  1.5521
  109MOL0     O14905   6.298   3.031   1.828 -0.3420  0.4511  0.9943
  109MOL0     C14906   6.288   2.919   1.773 -0.0005 -0.1348  0.5947
  109MOL0     O14907   6.281   2.898   1.630  1.0312 -0.5091 -0.6112
  109MOL0     C14908   6.253   3.003   1.544 -0.6251  0.5039 -0.3568
  109MOL0     C14909   6.159   3.103   1.566  0.2849  0.4125 -0.8210
  109MOL0     C14910   6.139   3.212   1.476 -0.7887  0.0061 -0.0665
  109MOL0     C14911   6.218   3.214   1.360  0.8294  0.4061 -0.5350
  109MOL0     O14912   6.195   3.305   1.265 -0.0014 -0.7331  0.1632
  109MOL0     C14913   6.105   3.253   1.165  0.5262 -0.5025 -0.1644
  109MOL0     C14914   5.999   3.357   1.125  0.1947  0.3621 -0.6651
  109MOL0     C14915   5.940   3.416   1.263  0.6403 -0.1673 -0.1323
  109MOL0     C14916   5.791   3.475   1.240 -0.5312  0.1611  0.4044
  109MOL0     C14917   5.738   3.528   1.373  0.8907  0.8632  0.3774
  109MOL0     C14918   5.603   3.602   1.336  0.4347  0.2254 -0.5216
  109MOL0     C14919   5.482   3.529   1.384  0.1507 -0.2218 -0.9719
  109MOL0     C14920   5.465   3.565   1.527 -0.8100  0.0023 -0.7820
  109MOL0     N14921   5.408   3.459   1.616 -0.5735 -0.9261  0.2424
  109MOL0     C14922   5.438   3.328   1.617 -0.8699  0.1739  0.4717
  109MOL0     C14923   5.340   3.264   1.682  0.1493 -0.9180  0.4880
  109MOL0     C14924   5.311   3.113   1.717 -0.7942  0.7085 -0.4105
  109MOL0     C14925   5.418   3.038   1.794 -0.5024 -0.1336 -0.0343
  109MOL0     C14926   5.408   2.886   1.776 -0.2454 -0.0194 -0.3692
  109MOL0     C14927   5.490   2.794   1.867 -0.1488 -0.8009  0.6017
  109MOL0     O14928   5.640   2.821   1.861  0.2155  0.8021 -0.1864
  109MOL0     C14929   5.711   2.770   1.968 -0.7492 -0.5336 -0.2093
  109MOL0     C14930   5.665   2.760   2.103  1.1245 -0.2721  0.5754
  109MOL0     C14931   5.751   2.713   2.199 -0.4074  0.6731  0.3423
  109MOL0     C14932   5.685   2.674   2.329  0.4350 -0.1964 -0.2181
  109MOL0     C14933   5.882   2.685   2.164  0.1035  0.7691 -0.9112
  109MOL0     C14934   5.967   2.611   2.257 -0.0738 -0.9975  0.6667
  109MOL0     O14935   6.022   2.672   2.358  0.7821  0.3259 -0.1081
  109MOL0     C14936   6.055   2.584   2.458 -0.4591 -0.3826 -0.2737
  109MOL0     C14937   6.184   2.530   2.472  0.6309  0.4469  0.4076
  109MOL0     C14938   6.220   2.450   2.578 -0.3232  0.6400  0.4419
  109MOL0     C14939   6.121   2.402   2.660 -0.5568 -0.6001  0.4299
  109MOL0     O14940   6.147   2.320   2.764  0.0098  0.6660  0.3876
  109MOL0     C14941   6.277   2.317   2.819 -0.0483 -0.6617 -0.6360
  109MOL0     C14942   6.291   2.212   2.926 -0.2104 -0.1920 -0.4261
  109MOL0     C14943   6.297   2.069   2.867  0.4377 -0.0687  0.6572
  109MOL0     C14944   6.293   1.963   2.966 -0.2872  0.3969  0.4543
  109MOL0     C14945   6.150   1.952   3.027  0.0089  0.3627  0.4275
  109MOL0     C14946   6.146   1.910   3.174 -0.2569 -0.6028 -0.4866
  109MOL0     C14947   6.237   1.793   3.195  0.0832  0.8704  0.4409
  109MOL0     C14948   6.223   1.748   3.341 -0.0517 -0.3334  0.0348
  109MOL0    Cl14949   6.236   1.882   3.460 -0.2035 -0.1883  0.1793
  109MOL0     C14950   5.993   2.453   2.646 -0.1273 -1.1045 -0.1690
  109MOL0     C14951   5.953   2.536   2.541  0.2738  0.1825 -1.1418
  109MOL0     O14952   5.994   2.499   2.227 -0.5347 -0.8822 -0.0119
  109MOL0     C14953   5.928   2.691   2.035  0.3384 -0.3287 -0.6396
  109MOL0     C14954   5.846   2.760   1.942 -0.0468 -0.5926 -0.4376
  109MOL0     N14955   5.249   3.368   1.722 -0.2153  0.2232 -1.1010
  109MOL0     N14956   5.305   3.483   1.698  0.6972 -0.4099  0.1353
  109MOL0     C14957   6.320   3.122   1.348 -0.5413  0.3570  0.7785
  109MOL0     C14958   6.341   3.021   1.442 -0.2734 -0.0438 -1.0318
  109MOL0     C14959   6.297   2.788   1.852 -0.8144  0.6713  0.1854
  109MOL0     C14960   6.272   2.668   1.772  0.0173  0.7319 -0.9155
  109MOL0     C14961   6.319   2.541   1.825  0.1025  0.1212 -0.7544
  109MOL0     C14962   6.348   2.535   1.961  0.0259 -1.1070  0.4134
  109MOL0     O14963   6.388   2.421   2.018 -0.3154  0.9432  0.1460
  109MOL0     C14964   6.292   2.341   2.096 -0.0144 -0.4405 -0.8798
  109MOL0     C14965   6.349   2.222   2.179  0.3393  0.1298 -0.1418
  109MOL0     C14966   6.469   2.269   2.266  0.9464  0.7662 -0.2288
  109MOL0     C14967   6.518   2.162   2.362  0.8275 -0.8724 -0.8917
  109MOL0     C14968   6.575   2.043   2.311 -0.0973  1.0043  0.6898
  109MOL0     C14969   6.650   1.957   2.265  0.7553  0.5729  0.3386
  109MOL0     C14970   6.335   2.649   2.046 -0.1361  0.6390 -0.0371
  109MOL0     C14971   6.320   2.772   1.993 -0.4134  0.5112  0.2349
  109MOL0     C14972   6.311   2.881   2.087  1.0732 -0.1490  0.0062
  109MOL0     H14973   6.098   3.093   1.655  2.1310  4.0924  1.1035
  109MOL0     H14974   6.050   3.268   1.504 -2.1722 -2.9804  2.0696
  109MOL0     H14975   6.050   3.162   1.190 -1.7666  1.1884  1.4034
  109MOL0     H14976   6.174   3.234   1.082  0.7940  0.8882 -0.2904
  109MOL0     H14977   6.043   3.448   1.083  0.7984  1.8345  2.8205
  109MOL0     H14978   5.926   3.316   1.054  1.1168 -0.4937 -1.1602
  109MOL0     H14979   5.931   3.338   1.339 -2.2594  1.4274  1.3798
  109MOL0     H14980   6.005   3.498   1.295 -1.1703  1.5884 -0.7263
  109MOL0     H14981   5.798   3.548   1.158  0.8398  0.5121  0.8089
  109MOL0     H14982   5.714   3.410   1.198  0.9808 -1.6243  0.2984
  109MOL0     H14983   5.817   3.588   1.419  0.1108  3.2782 -1.2166
  109MOL0     H14984   5.724   3.442   1.439  2.1454 -0.2825 -0.7773
  109MOL0     H14985   5.603   3.705   1.372 -1.5432 -0.0561  0.4191
  109MOL0     H14986   5.596   3.629   1.231 -0.8878  2.8520  0.1675
  109MOL0     H14987   5.490   3.421   1.375 -1.9717 -0.3602 -1.7399
  109MOL0     H14988   5.395   3.571   1.333  0.4035  2.1011  0.3532
  109MOL0     H14989   5.556   3.587   1.584 -1.1563  0.2830 -0.3282
  109MOL0     H14990   5.416   3.663   1.535 -1.4397 -0.4072  0.6465
  109MOL0     H14991   5.529   3.288   1.574 -0.8964 -2.1263  2.3795
  109MOL0     H14992   5.285   3.052   1.630 -2.1624 -1.3856  1.3472
  109MOL0     H14993   5.212   3.103   1.764 -1.8595 -2.2278 -2.9310
  109MOL0     H14994   5.511   3.076   1.751  0.5569  1.2757  3.1981
  109MOL0     H14995   5.416   3.054   1.902  0.9557 -1.1807  0.1873
  109MOL0     H14996   5.303   2.857   1.778 -0.0872 -0.6837  2.3853
  109MOL0     H14997   5.448   2.876   1.675  2.0053 -0.2462  0.4865
  109MOL0     H14998   5.452   2.803   1.970 -0.8985  1.1815  0.1768
  109MOL0     H14999   5.474   2.687   1.847 -1.4218 -0.2983 -1.2970
  109MOL0     H15000   5.568   2.795   2.138 -0.4405 -2.2654 -1.3930
  109MOL0     H15001   5.578   2.688   2.345  0.3758 -0.5248 -0.3206
  109MOL0     H15002   5.733   2.726   2.412 -0.0110 -0.4891  0.2265
  109MOL0     H15003   5.698   2.565   2.334 -0.9243 -0.3204  1.8485
  109MOL0     H15004   6.256   2.560   2.396 -2.0353  3.4725 -1.1819
  109MOL0     H15005   6.322   2.412   2.576 -0.6973 -0.4456  1.1509
  109MOL0     H15006   6.353   2.300   2.742  3.8578  3.1427  1.9040
  109MOL0     H15007   6.300   2.406   2.878  2.9553 -1.0822 -1.0060
  109MOL0     H15008   6.388   2.231   2.973  0.0821 -1.0587 -0.6505
  109MOL0     H15009   6.217   2.224   3.006 -0.2197  1.5531 -0.6560
  109MOL0     H15010   6.372   2.057   2.789 -1.9611 -3.2018 -1.3979
  109MOL0     H15011   6.201   2.066   2.815  1.4554  2.4505 -1.6013
  109MOL0     H15012   6.374   1.975   3.038  1.1487 -2.0442 -0.6242
  109MOL0     H15013   6.305   1.866   2.916  0.6190  0.7972 -0.1347
  109MOL0     H15014   6.105   2.051   3.025  4.1323  2.4453  0.3728
  109MOL0     H15015   6.085   1.890   2.964 -0.7612  1.2488  0.3407
  109MOL0     H15016   6.047   1.883   3.210  1.0666 -2.3240  2.1993
  109MOL0     H15017   6.178   2.000   3.227 -1.3853  0.5819 -1.7448
  109MOL0     H15018   6.344   1.810   3.178  1.4258 -2.2855  4.4047
  109MOL0     H15019   6.202   1.719   3.123  1.5111  2.4632 -2.0595
  109MOL0     H15020   6.299   1.672   3.362 -1.4958 -1.6619  0.6350
  109MOL0     H15021   6.137   1.683   3.363  0.7711 -0.8393  1.9922
  109MOL0     H15022   5.923   2.427   2.725 -1.3895  2.9964  0.2973
  109MOL0     H15023   5.848   2.562   2.541 -0.2158 -1.6361 -0.4385
  109MOL0     H15024   6.019   2.644   2.000  0.6018 -1.5193  1.4574
  109MOL0     H15025   5.881   2.767   1.839 -0.3268  0.3002 -0.4786
  109MOL0     H15026   6.391   3.125   1.265 -2.6606  0.6656 -1.1203
  109MOL0     H15027   6.427   2.957   1.423  0.8969  0.5684  1.6317
  109MOL0     H15028   6.242   2.657   1.668 -0.7544 -0.1554 -0.6244
  109MOL0     H15029   6.330   2.447   1.773  4.2812  1.0050 -1.8595
  109MOL0     H15030   6.232   2.408   2.158 -0.2931 -0.8051 -0.7480
  109MOL0     H15031   6.220   2.296   2.026 -2.0777  0.6160  0.4547
  109MOL0     H15032   6.371   2.140   2.110  2.6746  0.6906 -0.1414
  109MOL0     H15033   6.275   2.184   2.250 -1.4715 -1.8222 -2.8923
  109MOL0     H15034   6.542   2.309   2.195  1.8221 -3.3118 -1.8895
  109MOL0     H15035   6.440   2.348   2.336 -2.7603  0.1645 -0.8984
  109MOL0     H15036   6.460   2.143   2.452  0.0817 -0.3869 -1.2639
  109MOL0     H15037   6.607   2.195   2.416  1.7749 -1.2894 -2.1449
  109MOL0     H15038   6.703   1.884   2.209 -0.2679 -0.0787  0.1965
  109MOL0     H15039   6.350   2.632   2.152  2.6566 -2.7942 -0.7731
  109MOL0     H15040   6.338   2.860   2.191 -0.0354  1.6574  0.7157
  109MOL0     H15041   6.381   2.960   2.059 -1.0884  2.1211  0.6644
  109MOL0     H15042   6.214   2.930   2.091 -0.1400 -2.2802  5.2941
  110MOL0     O15043   3.199   3.413   6.750  0.6427  0.8960 -0.1239
  110MOL0     C15044   3.315   3.401   6.779  0.3330  1.0694  0.5220
  110MOL0     O15045   3.424   3.437   6.693  0.3601 -0.0396  0.4421
  110MOL0     C15046   3.398   3.503   6.573  0.5163 -0.9020 -0.2160
  110MOL0     C15047   3.337   3.632   6.580  0.6542 -1.2540 -0.0568
  110MOL0     C15048   3.316   3.705   6.459  0.1757 -0.8433  0.4716
  110MOL0     C15049   3.384   3.662   6.341  0.2252  0.4807 -0.2753
  110MOL0     O15050   3.374   3.723   6.227  0.7726 -0.0107 -0.3276
  110MOL0     C15051   3.249   3.750   6.173  0.7544 -0.1204 -0.6652
  110MOL0     C15052   3.246   3.800   6.033 -0.3334 -0.1246  1.1683
  110MOL0     C15053   3.115   3.865   5.981 -0.0597 -0.4213 -0.8213
  110MOL0     C15054   3.006   3.756   5.973  0.2468 -0.8634  0.0556
  110MOL0     C15055   2.881   3.814   5.905  0.5359  0.1664  0.0212
  110MOL0     C15056   2.833   3.943   5.951 -0.0205 -1.5320 -0.2083
  110MOL0     C15057   2.694   3.979   5.908  1.1403  0.2791  0.2566
  110MOL0     C15058   2.590   3.945   6.016 -1.1928  0.6966 -0.8482
  110MOL0     N15059   2.572   4.045   6.127 -0.2457 -0.8303 -0.3576
  110MOL0     C15060   2.455   4.111   6.140  0.1073 -0.0693  0.5135
  110MOL0     C15061   2.480   4.176   6.254  0.1084 -1.2542  0.2616
  110MOL0     C15062   2.378   4.272   6.293  0.0784 -0.8924  0.2787
  110MOL0     C15063   2.243   4.206   6.332 -1.1866 -0.1848 -1.0984
  110MOL0     C15064   2.127   4.286   6.392 -0.3607 -0.5691  0.3191
  110MOL0     C15065   2.159   4.368   6.511 -0.3616  0.3607 -0.4181
  110MOL0     O15066   2.246   4.286   6.594 -0.1405  0.4871 -0.4756
  110MOL0     C15067   2.346   4.364   6.657  0.3543  0.4041  0.0961
  110MOL0     C15068   2.479   4.315   6.650 -0.0304  0.6525  0.9080
  110MOL0     C15069   2.592   4.368   6.707 -0.8186  0.3447 -0.2743
  110MOL0     C15070   2.729   4.319   6.669 -0.2873  0.4954  0.1859
  110MOL0     C15071   2.568   4.486   6.790 -1.0068 -0.2815 -0.9900
  110MOL0     C15072   2.675   4.565   6.860  0.5187  0.7705 -0.4059
  110MOL0     O15073   2.641   4.695   6.894 -0.8325  0.7261  0.1807
  110MOL0     C15074   2.720   4.772   6.975 -1.0688  0.1331  0.0940
  110MOL0     C15075   2.675   4.907   6.978 -1.2072  0.0559  0.1053
  110MOL0     C15076   2.746   5.009   7.050  0.0885 -0.0526  0.5799
  110MOL0     C15077   2.858   4.974   7.134  0.1611  0.2307  0.2150
  110MOL0     O15078   2.931   5.065   7.208 -0.8033  1.3016  0.0262
  110MOL0     C15079   2.958   5.189   7.147 -0.2245  0.4880 -0.1692
  110MOL0     C15080   3.087   5.196   7.083 -0.3248  0.4632  0.1772
  110MOL0     C15081   3.203   5.175   7.176  0.7554  1.4019 -0.9606
  110MOL0     C15082   3.223   5.291   7.274 -0.0900  0.4312  0.1091
  110MOL0     C15083   3.367   5.290   7.336 -0.0929 -0.7192 -0.0572
  110MOL0     C15084   3.403   5.203   7.442 -0.5286 -0.2957  0.5210
  110MOL0     C15085   3.542   5.231   7.493  0.0871  0.2765  0.1891
  110MOL0     C15086   3.560   5.190   7.643  0.2538 -0.2868 -0.6124
  110MOL0    Cl15087   3.536   5.330   7.753 -0.0806  0.1315 -0.1995
  110MOL0     C15088   2.889   4.839   7.138  0.3801 -0.9512  0.0501
  110MOL0     C15089   2.832   4.738   7.060 -0.2708 -1.0507  1.3716
  110MOL0     O15090   2.785   4.514   6.871  0.1406  0.6781 -0.3847
  110MOL0     C15091   2.435   4.529   6.807 -0.9607 -0.4498 -0.2962
  110MOL0     C15092   2.328   4.476   6.733  0.2080  0.4447 -0.8277
  110MOL0     N15093   2.602   4.154   6.308 -0.1435  0.0031  0.0805
  110MOL0     N15094   2.651   4.068   6.236  0.4218  1.0826  0.5351
  110MOL0     C15095   3.447   3.535   6.338  1.0110 -0.3745  0.0314
  110MOL0     C15096   3.450   3.454   6.451 -0.0292 -0.1114 -0.1320
  110MOL0     C15097   3.333   3.361   6.915 -1.2276  0.1805 -0.1713
  110MOL0     C15098   3.233   3.297   6.993  1.0201  0.3112 -0.2255
  110MOL0     C15099   3.258   3.240   7.124 -0.3328  0.9536  0.5027
  110MOL0     C15100   3.388   3.228   7.172 -0.7118 -0.0267 -0.7000
  110MOL0     O15101   3.404   3.139   7.280 -0.7459 -0.6071  0.2998
  110MOL0     C15102   3.528   3.062   7.281  1.0935 -0.1097 -0.0054
  110MOL0     C15103   3.519   2.993   7.420  0.6800 -0.8510 -1.1058
  110MOL0     C15104   3.406   2.882   7.435 -0.6888 -0.2564 -1.1524
  110MOL0     C15105   3.386   2.828   7.582  0.3088 -0.4988  0.1952
  110MOL0     C15106   3.269   2.738   7.590 -0.3093  0.2208  0.3615
  110MOL0     C15107   3.181   2.656   7.588 -0.5027 -0.2100  0.3365
  110MOL0     C15108   3.487   3.297   7.098 -0.4114 -0.1038 -0.0381
  110MOL0     C15109   3.459   3.353   6.976 -0.7523  1.0851  0.0687
  110MOL0     C15110   3.587   3.414   6.915 -0.7031  0.8666 -0.3085
  110MOL0     H15111   3.276   3.657   6.667  1.6879  4.3739 -0.5802
  110MOL0     H15112   3.258   3.797   6.460 -1.3037 -1.7617  1.5137
  110MOL0     H15113   3.200   3.820   6.242 -1.6917 -1.9491 -0.3829
  110MOL0     H15114   3.183   3.665   6.194  2.4439 -1.0613  1.2051
  110MOL0     H15115   3.317   3.882   6.020 -0.3847 -0.3464 -0.7374
  110MOL0     H15116   3.269   3.719   5.963 -1.3094  0.6927 -0.1602
  110MOL0     H15117   3.077   3.945   6.045 -0.4653 -0.7408 -0.6552
  110MOL0     H15118   3.129   3.914   5.884  1.2973 -0.5386 -0.7085
  110MOL0     H15119   3.041   3.676   5.908  2.4968  1.9170 -2.4246
  110MOL0     H15120   2.988   3.724   6.076  4.1199  2.2449  2.0189
  110MOL0     H15121   2.802   3.740   5.922 -0.2891  1.0145 -0.0398
  110MOL0     H15122   2.900   3.826   5.798  0.5578 -2.2301 -0.3013
  110MOL0     H15123   2.842   3.944   6.060 -0.0713  1.4493 -0.1652
  110MOL0     H15124   2.898   4.015   5.902 -2.6815  0.6453 -0.7605
  110MOL0     H15125   2.680   3.933   5.810 -4.0348 -0.3278  1.0133
  110MOL0     H15126   2.696   4.088   5.898 -1.6691  0.3265 -0.3182
  110MOL0     H15127   2.491   3.922   5.976 -2.1323  0.2372  1.5822
  110MOL0     H15128   2.627   3.853   6.063  2.2497  3.0022  1.3961
  110MOL0     H15129   2.374   4.119   6.068 -0.3109  0.1092  0.9988
  110MOL0     H15130   2.362   4.338   6.207  3.8274 -2.5159 -1.9191
  110MOL0     H15131   2.419   4.326   6.379 -1.2130 -1.5482  1.3581
  110MOL0     H15132   2.204   4.157   6.242  1.5213  2.4439 -3.9773
  110MOL0     H15133   2.282   4.132   6.403 -1.7160  0.8506  0.2971
  110MOL0     H15134   2.093   4.355   6.314  0.5993  0.2479  0.6067
  110MOL0     H15135   2.056   4.206   6.417 -0.9000 -0.2147 -0.0496
  110MOL0     H15136   2.191   4.466   6.475 -0.2473 -0.1354 -1.7176
  110MOL0     H15137   2.079   4.380   6.585  2.9448  0.4233  3.5457
  110MOL0     H15138   2.487   4.227   6.588  0.9926  1.7401 -0.5514
  110MOL0     H15139   2.798   4.400   6.693 -1.0899  0.5083  2.8586
  110MOL0     H15140   2.739   4.312   6.561  0.3759 -0.3517  0.2879
  110MOL0     H15141   2.771   4.231   6.719 -1.6641 -0.8973 -1.0012
  110MOL0     H15142   2.604   4.934   6.900  0.5865  1.2384 -1.2128
  110MOL0     H15143   2.713   5.112   7.040  0.2015 -0.1393 -0.8365
  110MOL0     H15144   2.882   5.212   7.072 -0.8456 -0.3997  0.1798
  110MOL0     H15145   2.950   5.270   7.220  0.4765  1.8568 -1.5422
  110MOL0     H15146   3.092   5.128   6.998 -3.2954  4.0262 -3.2859
  110MOL0     H15147   3.103   5.290   7.029  0.1791 -0.2236 -0.8878
  110MOL0     H15148   3.294   5.162   7.117  0.7180  1.2576 -0.9865
  110MOL0     H15149   3.190   5.074   7.216  1.8937  0.6320 -2.4000
  110MOL0     H15150   3.147   5.313   7.349 -0.7496  1.4400 -0.8101
  110MOL0     H15151   3.222   5.375   7.204  2.9231 -0.0779 -0.7275
  110MOL0     H15152   3.445   5.276   7.259 -2.2081 -4.8381 -1.7853
  110MOL0     H15153   3.380   5.393   7.369  0.4720 -0.8525  0.1516
  110MOL0     H15154   3.418   5.109   7.388 -0.2228  1.3431 -2.4445
  110MOL0     H15155   3.326   5.221   7.518 -0.4051 -1.4454  0.9327
  110MOL0     H15156   3.569   5.337   7.487  3.6569 -0.5653 -1.4178
  110MOL0     H15157   3.624   5.195   7.429  0.0011  2.5793 -1.3629
  110MOL0     H15158   3.644   5.128   7.675 -0.5709 -0.9553  0.3491
  110MOL0     H15159   3.493   5.109   7.674  1.2120 -0.1355  2.1188
  110MOL0     H15160   2.971   4.810   7.202  1.6115  1.8784 -0.1230
  110MOL0     H15161   2.858   4.634   7.075 -0.3054 -1.3090 -0.1651
  110MOL0     H15162   2.422   4.618   6.867 -1.2898 -1.1354  0.6730
  110MOL0     H15163   2.227   4.512   6.751  0.1421 -1.0674  2.7341
  110MOL0     H15164   3.479   3.493   6.243 -1.4673  1.7209 -1.8869
  110MOL0     H15165   3.505   3.360   6.449 -1.3064 -0.9066  0.6946
  110MOL0     H15166   3.133   3.281   6.955  2.1284 -1.5872 -2.6373
  110MOL0     H15167   3.180   3.180   7.169  0.3027 -1.0071 -0.8824
  110MOL0     H15168   3.529   2.979   7.210  2.7531 -2.1128  2.2123
  110MOL0     H15169   3.615   3.128   7.277 -0.8108  2.5979  0.1412
  110MOL0     H15170   3.511   3.074   7.492  2.0411 -0.5425 -1.2555
  110MOL0     H15171   3.609   2.936   7.447 -0.1870 -2.5259 -1.6258
  110MOL0     H15172   3.313   2.917   7.388 -2.6935 -2.3088  1.0390
  110MOL0     H15173   3.452   2.796   7.387 -1.5577 -1.5890  0.3208
  110MOL0     H15174   3.380   2.909   7.655 -1.0975 -1.2969  0.9865
  110MOL0     H15175   3.476   2.771   7.608 -0.6828 -2.7480 -0.9844
  110MOL0     H15176   3.111   2.576   7.598  0.1909 -1.3227 -2.6543
  110MOL0     H15177   3.588   3.299   7.137 -0.4191  1.4390 -0.0458
  110MOL0     H15178   3.677   3.398   6.975 -0.7791 -1.1239 -0.6758
  110MOL0     H15179   3.624   3.361   6.826 -0.4380  3.1313 -1.6435
  110MOL0     H15180   3.586   3.520   6.887  1.7900  0.2647 -3.2399
  111MOL0     O15181   2.068   2.551   5.576 -0.0571  0.4149 -0.5201
  111MOL0     C15182   1.969   2.512   5.514  0.8130 -0.3966  0.4085
  111MOL0     O15183   1.842   2.547   5.531 -0.0829  0.4134 -0.1979
  111MOL0     C15184   1.829   2.629   5.650  0.0083 -0.5736  0.4495
  111MOL0     C15185   1.765   2.579   5.762 -0.1106 -0.3566  0.6876
  111MOL0     C15186   1.754   2.644   5.886  0.3931 -0.2038  0.2248
  111MOL0     C15187   1.782   2.779   5.895  0.4258 -0.4432 -0.6409
  111MOL0     O15188   1.754   2.854   6.005 -0.0255 -0.1931  0.0830
  111MOL0     C15189   1.667   2.795   6.105  0.0023 -0.5785  0.3675
  111MOL0     C15190   1.633   2.892   6.215  0.1356 -0.8022 -0.7303
  111MOL0     C15191   1.549   3.019   6.156 -0.2894  0.6241 -0.7934
  111MOL0     C15192   1.517   3.111   6.276 -0.7820  0.2390  0.1653
  111MOL0     C15193   1.424   3.228   6.236  0.4920 -0.4233  0.1671
  111MOL0     C15194   1.357   3.287   6.360  0.0209 -0.6336 -0.3503
  111MOL0     C15195   1.239   3.383   6.322 -1.1533 -0.4268  0.9760
  111MOL0     C15196   1.150   3.397   6.441  0.4565 -0.5360  0.3221
  111MOL0     N15197   1.031   3.477   6.414  0.0302  0.3560 -0.6050
  111MOL0     C15198   1.042   3.598   6.342  0.9164 -0.0607  0.1588
  111MOL0     C15199   0.911   3.642   6.332  0.5695 -0.5194  0.4930
  111MOL0     C15200   0.870   3.777   6.267  0.7670 -0.0275 -0.1216
  111MOL0     C15201   0.933   3.891   6.346  0.3733  0.8971 -0.1705
  111MOL0     C15202   0.935   4.030   6.279 -0.5403  0.6119 -0.2754
  111MOL0     C15203   1.012   4.136   6.352  1.0583  0.4149  0.1886
  111MOL0     O15204   0.986   4.248   6.267 -0.1510  0.1569 -0.5008
  111MOL0     C15205   1.073   4.354   6.272 -0.2815 -0.0157  0.2587
  111MOL0     C15206   1.162   4.385   6.377 -0.2687  1.0315  0.6510
  111MOL0     C15207   1.264   4.477   6.365 -0.6058 -0.1895 -1.0040
  111MOL0     C15208   1.349   4.493   6.495  0.0573 -0.0354  0.1399
  111MOL0     C15209   1.280   4.544   6.242 -0.9143 -0.2951  0.4275
  111MOL0     C15210   1.402   4.632   6.206  0.1715  0.0055 -0.5583
  111MOL0     O15211   1.384   4.724   6.112  0.3358 -0.0362 -0.4122
  111MOL0     C15212   1.481   4.816   6.099 -0.3036  0.6327 -0.1756
  111MOL0     C15213   1.459   4.942   6.150  0.5548 -0.0298 -0.4966
  111MOL0     C15214   1.558   5.044   6.173  0.4350 -0.0777  0.1817
  111MOL0     C15215   1.687   5.020   6.119  0.7140 -0.1896 -0.9640
  111MOL0     O15216   1.789   5.108   6.129 -0.3192 -1.0057  0.4060
  111MOL0     C15217   1.788   5.204   6.236 -0.7210 -0.3390  0.7699
  111MOL0     C15218   1.730   5.340   6.210 -0.1767 -0.7424  1.1184
  111MOL0     C15219   1.775   5.407   6.081 -0.2380 -0.6043  0.1056
  111MOL0     C15220   1.933   5.404   6.061  0.3415  0.2526 -0.6120
  111MOL0     C15221   1.987   5.477   5.937 -0.4360 -0.5014 -0.2335
  111MOL0     C15222   2.147   5.472   5.926  0.5397  0.7757  0.3411
  111MOL0     C15223   2.198   5.576   5.827  0.8362 -0.0016  0.9530
  111MOL0     C15224   2.351   5.587   5.840 -0.6285 -0.1839 -0.0257
  111MOL0    Cl15225   2.440   5.437   5.783  0.4016  0.5142 -0.1949
  111MOL0     C15226   1.709   4.904   6.042  0.4196  0.1162 -0.4849
  111MOL0     C15227   1.609   4.800   6.040  0.5477  0.1951  0.0288
  111MOL0     O15228   1.510   4.608   6.259  0.1166  0.0941 -0.4490
  111MOL0     C15229   1.182   4.518   6.141  0.9402 -0.1476  0.7755
  111MOL0     C15230   1.082   4.427   6.154  1.0483  0.3719 -0.6066
  111MOL0     N15231   0.831   3.552   6.394  0.0428  0.7658 -0.9980
  111MOL0     N15232   0.905   3.444   6.429  0.1219  0.2655 -1.0057
  111MOL0     C15233   1.860   2.832   5.787 -0.3586  0.9663 -1.2018
  111MOL0     C15234   1.884   2.758   5.666  0.1102 -1.1605  0.1070
  111MOL0     C15235   1.983   2.398   5.416  0.3394 -0.2861 -0.3924
  111MOL0     C15236   1.879   2.310   5.407  0.3801  0.2703  0.5068
  111MOL0     C15237   1.879   2.194   5.326  0.0880 -0.4543  0.7654
  111MOL0     C15238   1.985   2.169   5.250 -0.2076 -0.9101 -0.5752
  111MOL0     O15239   1.974   2.064   5.159 -0.8059 -0.9285 -0.5179
  111MOL0     C15240   2.011   2.104   5.029  0.2572 -0.4154  0.2563
  111MOL0     C15241   1.986   1.996   4.921 -0.4008 -0.1422 -0.2264
  111MOL0     C15242   1.839   1.989   4.910  0.2361 -0.6984 -0.4553
  111MOL0     C15243   1.785   1.872   4.992 -0.5608  0.4070  0.9070
  111MOL0     C15244   1.643   1.833   4.972 -0.0334  0.7302 -0.0333
  111MOL0     C15245   1.529   1.788   4.966 -0.8559  0.5734  0.6726
  111MOL0     C15246   2.088   2.265   5.256 -0.7895  0.3370  0.1562
  111MOL0     C15247   2.100   2.380   5.342  0.6442  0.3013 -0.1453
  111MOL0     C15248   2.226   2.452   5.363 -0.7986  0.5417  0.9345
  111MOL0     H15249   1.739   2.474   5.745  0.1080 -0.3174  0.0638
  111MOL0     H15250   1.688   2.595   5.957 -1.7832  1.2250 -0.6971
  111MOL0     H15251   1.725   2.714   6.150  1.4522 -0.3526 -0.9929
  111MOL0     H15252   1.573   2.757   6.065 -0.0147  0.8905 -1.1479
  111MOL0     H15253   1.579   2.849   6.300  0.4491  0.6997  0.2763
  111MOL0     H15254   1.732   2.913   6.258  0.1866 -1.2600 -0.6208
  111MOL0     H15255   1.604   3.079   6.082 -1.2044  1.4723 -0.8145
  111MOL0     H15256   1.456   2.979   6.116 -0.3824 -0.3771  0.3841
  111MOL0     H15257   1.462   3.060   6.356 -0.9931 -0.0853 -0.1853
  111MOL0     H15258   1.618   3.134   6.314 -0.1333 -0.0688 -1.3160
  111MOL0     H15259   1.354   3.191   6.161  1.7759 -2.4616 -0.1071
  111MOL0     H15260   1.471   3.311   6.184 -0.5067 -0.6005 -1.0530
  111MOL0     H15261   1.324   3.204   6.423  2.1615 -1.3702 -0.0933
  111MOL0     H15262   1.431   3.341   6.419 -2.7122  2.0655  0.8388
  111MOL0     H15263   1.181   3.333   6.243 -0.7890 -3.9892  2.7837
  111MOL0     H15264   1.287   3.476   6.288 -1.4799 -1.4773 -2.8361
  111MOL0     H15265   1.116   3.300   6.478  0.9837 -0.3622  1.3206
  111MOL0     H15266   1.200   3.459   6.516  0.6943  1.4203 -1.3910
  111MOL0     H15267   1.131   3.654   6.314 -0.0905  0.9136 -1.2490
  111MOL0     H15268   0.763   3.768   6.286  0.2042  1.8023 -2.0292
  111MOL0     H15269   0.893   3.783   6.160  0.1933  2.9067 -0.1534
  111MOL0     H15270   0.881   3.895   6.442 -0.3107  0.3879 -0.5169
  111MOL0     H15271   1.040   3.871   6.362  0.2304  1.0844  1.0674
  111MOL0     H15272   0.988   4.013   6.185  0.7047 -1.3042  0.7151
  111MOL0     H15273   0.831   4.054   6.252 -1.0665 -3.1898 -2.4419
  111MOL0     H15274   0.980   4.156   6.455  0.2314 -2.1884  0.5087
  111MOL0     H15275   1.118   4.110   6.358  0.9616  0.3364  3.7101
  111MOL0     H15276   1.165   4.321   6.465  1.5002 -0.3526 -0.3427
  111MOL0     H15277   1.306   4.449   6.585 -2.3801  1.2568 -0.3010
  111MOL0     H15278   1.361   4.597   6.527 -1.1861 -1.1295  4.9618
  111MOL0     H15279   1.452   4.456   6.488 -0.7763 -2.4441 -0.1273
  111MOL0     H15280   1.358   4.971   6.178 -0.1582 -1.1310 -1.8085
  111MOL0     H15281   1.520   5.135   6.219 -2.5807 -2.1246  2.1466
  111MOL0     H15282   1.737   5.155   6.319 -0.8193 -2.1099 -0.2974
  111MOL0     H15283   1.891   5.232   6.261 -0.4941  2.1553 -2.3123
  111MOL0     H15284   1.624   5.333   6.188  0.1281 -1.1207 -0.3205
  111MOL0     H15285   1.745   5.403   6.298 -4.5458  1.0996  0.7882
  111MOL0     H15286   1.733   5.508   6.085 -0.4278 -0.7294  1.5792
  111MOL0     H15287   1.737   5.358   5.991  2.6480 -0.6142 -1.2095
  111MOL0     H15288   1.962   5.299   6.072 -0.5161  0.0846  0.1500
  111MOL0     H15289   1.974   5.457   6.147  0.1150 -1.5221  0.6368
  111MOL0     H15290   1.940   5.433   5.849 -0.2594  1.1401 -1.1866
  111MOL0     H15291   1.951   5.578   5.960  0.8824  0.4366 -2.0776
  111MOL0     H15292   2.188   5.379   5.885  1.6416  2.6305 -3.1152
  111MOL0     H15293   2.182   5.480   6.029 -0.3521  0.6394  0.6699
  111MOL0     H15294   2.152   5.670   5.859  0.1210 -1.0592  3.2596
  111MOL0     H15295   2.174   5.544   5.725  3.5954 -0.8485  0.4969
  111MOL0     H15296   2.374   5.620   5.942  1.2717 -1.4689  0.0106
  111MOL0     H15297   2.383   5.664   5.770  1.8003 -2.1067 -1.1866
  111MOL0     H15298   1.809   4.885   6.002  0.6327  0.7217 -0.2462
  111MOL0     H15299   1.637   4.707   5.992  0.0737  0.1551 -0.1793
  111MOL0     H15300   1.185   4.574   6.048 -0.6150  0.7518  1.2217
  111MOL0     H15301   1.028   4.393   6.066  0.2362 -0.0822  0.0537
  111MOL0     H15302   1.906   2.927   5.814 -3.2183  1.6421  2.1166
  111MOL0     H15303   1.941   2.820   5.597  0.8518 -1.1928  0.6812
  111MOL0     H15304   1.780   2.321   5.451 -0.6319 -1.1257 -1.2700
  111MOL0     H15305   1.801   2.120   5.332  0.4186 -0.7807  1.1410
  111MOL0     H15306   1.951   2.189   4.994 -1.4834 -1.6033  0.2302
  111MOL0     H15307   2.118   2.121   5.013  0.4521 -3.1822 -2.1353
  111MOL0     H15308   2.029   1.901   4.954 -0.6708  0.1389  0.9788
  111MOL0     H15309   2.029   2.041   4.832 -1.0452  4.8094  1.6495
  111MOL0     H15310   1.787   2.084   4.924  0.7186  0.2553 -4.1607
  111MOL0     H15311   1.809   1.972   4.806 -3.0911  0.4753  0.1910
  111MOL0     H15312   1.802   1.879   5.100 -0.4807  0.6996  0.8794
  111MOL0     H15313   1.840   1.782   4.960 -1.9320  1.1375 -4.6667
  111MOL0     H15314   1.423   1.773   4.974 -0.9872  1.9742  2.3554
  111MOL0     H15315   2.183   2.237   5.211  0.3328  1.2644  1.8313
  111MOL0     H15316   2.294   2.420   5.443  0.7694 -1.3788 -1.0179
  111MOL0     H15317   2.286   2.435   5.273 -1.6733 -0.0019  0.4411
  111MOL0     H15318   2.209   2.559   5.371  1.0843  0.9004  0.7965
  112MOL0     O15319   6.781  10.348   1.828  0.7710  0.7037  0.2091
  112MOL0     C15320   6.836  10.344   1.937 -0.3551 -0.1781  0.1229
  112MOL0     O15321   6.788  10.391   2.058  0.3860  0.0426 -0.3137
  112MOL0     C15322   6.653  10.415   2.062  0.8544  0.0136 -0.4282
  112MOL0     C15323   6.562  10.308   2.089  0.9480 -1.2649 -0.3715
  112MOL0     C15324   6.421  10.335   2.098 -1.0415 -0.2264  0.1669
  112MOL0     C15325   6.371  10.468   2.086 -0.0428 -0.1384 -0.8530
  112MOL0     O15326   6.235  10.489   2.107 -0.5384  0.3684 -0.5287
  112MOL0     C15327   6.183  10.601   2.175  0.2229  0.1838  0.2733
  112MOL0     C15328   6.042  10.573   2.238  0.0120  0.3803  0.6548
  112MOL0     C15329   5.940  10.513   2.136 -0.0586  0.1777  0.1258
  112MOL0     C15330   5.800  10.485   2.206 -0.2416 -0.6510  0.8940
  112MOL0     C15331   5.699  10.383   2.142 -0.8974  0.0635  0.6493
  112MOL0     C15332   5.575  10.449   2.083  0.1148  0.6505 -0.6336
  112MOL0     C15333   5.496  10.531   2.172  0.8674  0.4744 -0.3397
  112MOL0     C15334   5.406  10.633   2.090  1.0570 -1.0968  0.3634
  112MOL0     N15335   5.485  10.759   2.072  0.4202  0.9789  0.4899
  112MOL0     C15336   5.507  10.857   2.154  0.2423 -0.9793  0.4341
  112MOL0     C15337   5.549  10.956   2.074  0.6023 -0.4874 -0.4960
  112MOL0     C15338   5.575  11.094   2.122 -0.6460  0.4697  0.0016
  112MOL0     C15339   5.534  11.187   2.009 -0.5514  0.7985  0.1498
  112MOL0     C15340   5.376  11.181   1.982 -0.3130 -1.0483  0.3220
  112MOL0     C15341   5.331  11.295   1.887  0.5502  0.2528  0.7879
  112MOL0     O15342   5.387  11.422   1.931  0.7566 -0.2189 -0.0496
  112MOL0     C15343   5.335  11.532   1.867  0.0235  0.3225  0.1029
  112MOL0     C15344   5.355  11.662   1.924 -0.3286  0.1101  0.0134
  112MOL0     C15345   5.319  11.783   1.862  0.1168  0.4297 -0.4491
  112MOL0     C15346   5.341  11.923   1.919  0.7915  0.3491  0.6604
  112MOL0     C15347   5.247  11.769   1.742 -0.0304  0.0420 -0.7192
  112MOL0     C15348   5.207  11.890   1.668 -0.2261 -0.3225  0.3733
  112MOL0     O15349   5.072  11.906   1.659 -0.0551  0.2283 -0.1521
  112MOL0     C15350   5.028  12.020   1.611  0.5752  0.4773  0.5874
  112MOL0     C15351   4.982  12.120   1.695 -0.1999 -0.8332  0.8122
  112MOL0     C15352   4.944  12.241   1.636  0.0882  0.9731  0.7468
  112MOL0     C15353   4.948  12.261   1.494 -0.0764  0.1386  0.1011
  112MOL0     O15354   4.919  12.389   1.444  0.5342  0.8717  0.4000
  112MOL0     C15355   4.850  12.480   1.521  0.0259 -0.1800 -0.2992
  112MOL0     C15356   4.795  12.583   1.427 -0.5876  0.5514  0.1957
  112MOL0     C15357   4.705  12.677   1.509  0.6784 -0.2498 -0.2844
  112MOL0     C15358   4.619  12.755   1.402 -0.5703 -0.1309 -0.0854
  112MOL0     C15359   4.529  12.873   1.458  0.0573  0.3751 -0.3079
  112MOL0     C15360   4.613  12.957   1.571 -0.1053 -0.4625  0.5053
  112MOL0     C15361   4.546  13.091   1.615 -0.5518  0.0240  0.0707
  112MOL0     C15362   4.625  13.172   1.707  0.5524  0.2052 -0.5790
  112MOL0    Cl15363   4.760  13.245   1.616  0.3919  0.2203  0.0679
  112MOL0     C15364   4.989  12.156   1.411 -0.0829 -0.3649  0.0430
  112MOL0     C15365   5.028  12.036   1.470 -0.1042 -0.2415  0.2059
  112MOL0     O15366   5.301  11.960   1.628  0.3155 -1.0180 -0.1992
  112MOL0     C15367   5.205  11.637   1.702 -0.0239 -0.3451 -0.6553
  112MOL0     C15368   5.259  11.528   1.755  0.1554  0.3709  0.5060
  112MOL0     N15369   5.571  10.907   1.942  0.0465 -0.3463  0.1879
  112MOL0     N15370   5.536  10.785   1.945 -0.5127  0.3366  0.6755
  112MOL0     C15371   6.464  10.576   2.047 -0.2535  0.2740  0.1387
  112MOL0     C15372   6.606  10.544   2.035  0.5099 -0.4770 -0.5373
  112MOL0     C15373   6.959  10.275   1.943  0.3781 -0.0317 -0.3122
  112MOL0     C15374   6.999  10.207   2.050  0.4548 -0.3682  0.8395
  112MOL0     C15375   7.120  10.127   2.051 -0.3476 -1.1558 -0.1010
  112MOL0     C15376   7.202  10.122   1.944  0.0144  0.4817 -0.7704
  112MOL0     O15377   7.311  10.040   1.935  0.9377  0.1721  0.4039
  112MOL0     C15378   7.313   9.914   2.005 -0.1628 -0.0522  0.4819
  112MOL0     C15379   7.432   9.840   1.948 -0.5261  0.1697 -0.0727
  112MOL0     C15380   7.471   9.710   2.036  1.1860  0.0891  0.8989
  112MOL0     C15381   7.553   9.601   1.962  0.6758 -0.0146 -0.5031
  112MOL0     C15382   7.454   9.528   1.878 -0.2744 -0.2333  0.5106
  112MOL0     C15383   7.373   9.483   1.804 -0.2165  0.1225  0.0621
  112MOL0     C15384   7.168  10.201   1.836 -0.0410 -1.5683  0.2246
  112MOL0     C15385   7.050  10.277   1.835  0.6213  0.4347 -0.5020
  112MOL0     C15386   7.049  10.386   1.721  0.4968  0.0720  0.5826
  112MOL0     H15387   6.590  10.203   2.097 -1.5598 -1.8597  2.4301
  112MOL0     H15388   6.366  10.254   2.144  2.8103 -1.1151  3.7416
  112MOL0     H15389   6.174  10.668   2.089  2.2458  0.5647  0.3113
  112MOL0     H15390   6.246  10.632   2.259  3.9780 -0.1022 -2.1934
  112MOL0     H15391   6.039  10.507   2.325  0.1732  0.2856  0.5911
  112MOL0     H15392   6.001  10.666   2.278 -2.5961  0.7381 -2.4695
  112MOL0     H15393   5.930  10.579   2.049 -0.4187 -2.0214 -1.6018
  112MOL0     H15394   5.965  10.413   2.100 -2.8752 -0.8843  0.8147
  112MOL0     H15395   5.830  10.455   2.307  2.7075  1.5905  0.8296
  112MOL0     H15396   5.754  10.584   2.211 -0.4407 -0.5577 -1.7866
  112MOL0     H15397   5.653  10.311   2.211  0.3725 -0.4118  1.0290
  112MOL0     H15398   5.756  10.318   2.074 -0.8232  3.2777 -2.6854
  112MOL0     H15399   5.618  10.509   2.002 -0.8738  0.5373 -1.2641
  112MOL0     H15400   5.515  10.369   2.037  3.3332 -0.4446 -3.3133
  112MOL0     H15401   5.556  10.594   2.238 -0.9653  3.1302 -1.0219
  112MOL0     H15402   5.442  10.462   2.237  3.5401 -0.8442  0.6186
  112MOL0     H15403   5.375  10.595   1.993 -0.6921 -2.2088  1.3076
  112MOL0     H15404   5.322  10.653   2.158  2.8176  4.1116  1.5082
  112MOL0     H15405   5.484  10.875   2.258  3.1848 -1.2272  1.2022
  112MOL0     H15406   5.681  11.123   2.125  0.0853 -1.8825 -0.5671
  112MOL0     H15407   5.526  11.112   2.218  2.1579 -0.7563  1.8061
  112MOL0     H15408   5.565  11.289   2.035  0.1284  0.4064  0.9360
  112MOL0     H15409   5.587  11.166   1.916 -0.8448 -2.9017  0.6620
  112MOL0     H15410   5.339  11.085   1.945 -0.8742 -2.1671  3.4531
  112MOL0     H15411   5.335  11.194   2.083  2.8161 -2.0565  1.8580
  112MOL0     H15412   5.359  11.277   1.782 -3.4274 -2.7069 -0.0015
  112MOL0     H15413   5.223  11.306   1.896  0.4534  0.3719 -0.3243
  112MOL0     H15414   5.389  11.680   2.026 -3.4734  0.7160  1.0540
  112MOL0     H15415   5.328  11.914   2.028 -0.0168  0.5987  0.5911
  112MOL0     H15416   5.261  11.992   1.894  1.9105  0.8069 -1.9069
  112MOL0     H15417   5.444  11.955   1.901  0.4861  1.1001  0.2571
  112MOL0     H15418   4.974  12.122   1.803  3.2390  5.0000  1.3304
  112MOL0     H15419   4.924  12.318   1.710  0.6623  0.2841  1.6494
  112MOL0     H15420   4.776  12.432   1.585  1.8402 -1.9246  0.6020
  112MOL0     H15421   4.924  12.527   1.587 -0.3043  1.2202 -0.8971
  112MOL0     H15422   4.882  12.626   1.377  1.5849 -0.7634  2.6186
  112MOL0     H15423   4.743  12.516   1.357  0.9965  1.5978 -2.0821
  112MOL0     H15424   4.772  12.738   1.570  1.2128  0.8225 -1.8755
  112MOL0     H15425   4.637  12.629   1.580  1.6971  1.1007  1.7224
  112MOL0     H15426   4.548  12.685   1.357 -2.3025 -0.0301  2.2743
  112MOL0     H15427   4.688  12.799   1.329 -2.3512 -0.8391 -2.3048
  112MOL0     H15428   4.491  12.919   1.367  1.1015  1.0321 -0.4307
  112MOL0     H15429   4.440  12.848   1.516  0.1468  1.9084  0.5568
  112MOL0     H15430   4.707  12.980   1.521 -1.6387 -2.3167 -3.7505
  112MOL0     H15431   4.625  12.903   1.665  1.3145 -1.0469  0.0021
  112MOL0     H15432   4.460  13.073   1.681 -0.2496  0.7549  0.6832
  112MOL0     H15433   4.518  13.150   1.528  1.0259 -0.7901 -1.0360
  112MOL0     H15434   4.665  13.124   1.796  1.1577  2.8176  0.6497
  112MOL0     H15435   4.548  13.245   1.733 -0.2396 -0.5885 -0.6425
  112MOL0     H15436   4.989  12.151   1.303 -2.6090 -0.8755  0.0234
  112MOL0     H15437   5.071  11.952   1.417  2.9052  0.4863  1.2470
  112MOL0     H15438   5.135  11.635   1.619  0.3654  0.9764 -1.0282
  112MOL0     H15439   5.234  11.430   1.714 -0.6127  0.1282  1.4967
  112MOL0     H15440   6.445  10.682   2.034  0.8450  0.9248  3.1293
  112MOL0     H15441   6.665  10.626   1.994  0.3791 -1.9062 -3.8313
  112MOL0     H15442   6.947  10.196   2.145  0.1999 -3.0843  0.4643
  112MOL0     H15443   7.145  10.076   2.144 -0.1960  0.0900  0.5650
  112MOL0     H15444   7.304   9.925   2.113 -2.3236  5.3589  0.0540
  112MOL0     H15445   7.224   9.857   1.976 -0.9171  1.5835 -0.5787
  112MOL0     H15446   7.516   9.909   1.959  0.5072 -0.9655 -0.6597
  112MOL0     H15447   7.409   9.824   1.842 -3.1868  0.1032  0.4432
  112MOL0     H15448   7.546   9.752   2.104  2.5978 -0.0573 -0.4937
  112MOL0     H15449   7.373   9.674   2.069 -0.0537  0.7906 -1.7268
  112MOL0     H15450   7.592   9.544   2.047 -0.6191  0.9505  0.7681
  112MOL0     H15451   7.626   9.655   1.900  0.0257  1.3946 -0.0572
  112MOL0     H15452   7.285   9.462   1.745 -0.1459  0.1801 -0.0646
  112MOL0     H15453   7.249  10.218   1.766 -0.8567 -1.6684 -0.7556
  112MOL0     H15454   7.027  10.480   1.771 -1.7124 -0.8000  1.3355
  112MOL0     H15455   7.149  10.388   1.676 -0.3171  2.6774 -1.3186
  112MOL0     H15456   6.971  10.370   1.647 -0.7816  4.0364  0.8469
  113MOL0     O15457   2.885   2.393  10.887  0.3106 -0.0948  0.1421
  113MOL0     C15458   2.798   2.354  10.969 -0.4076 -0.4144  0.0656
  113MOL0     O15459   2.795   2.237  11.025 -0.4230  0.1897  0.6101
  113MOL0     C15460   2.910   2.162  11.033 -0.0610 -0.8073 -0.8342
  113MOL0     C15461   2.892   2.017  11.022 -0.0264 -0.6633 -0.0252
  113MOL0     C15462   3.011   1.941  11.046  0.5228 -0.0597  0.2715
  113MOL0     C15463   3.136   1.999  11.068 -0.3455  0.0917 -0.6380
  113MOL0     O15464   3.249   1.920  11.063 -0.1546 -0.3383 -0.3849
  113MOL0     C15465   3.300   1.896  10.929 -0.0365  0.1700 -0.6921
  113MOL0     C15466   3.424   1.809  10.924 -0.0672  0.2220 -1.0494
  113MOL0     C15467   3.555   1.889  10.962 -1.2265 -0.7043  0.9353
  113MOL0     C15468   3.674   1.801  10.986 -0.2350 -0.0964  0.4918
  113MOL0     C15469   3.818   1.875  10.975  0.8850 -0.0555 -0.3142
  113MOL0     C15470   3.838   1.952  11.105 -0.5154 -0.1744 -0.1201
  113MOL0     C15471   3.963   2.045  11.106  0.3571 -0.4550  0.1920
  113MOL0     C15472   4.094   1.970  11.135  0.3912  0.1345 -0.3796
  113MOL0     N15473   4.181   2.066  11.205  0.3809 -1.1091 -0.9382
  113MOL0     C15474   4.260   2.155  11.144  0.2136  0.8368  0.0493
  113MOL0     C15475   4.289   2.243  11.245 -0.3050 -0.5453  0.5095
  113MOL0     C15476   4.375   2.362  11.226 -0.2015  0.1276  0.1448
  113MOL0     C15477   4.518   2.346  11.193  0.4422  0.2149 -1.1476
  113MOL0     C15478   4.587   2.470  11.131 -0.0750  1.0198 -0.3861
  113MOL0     C15479   4.549   2.598  11.207  0.0154  0.7053  0.2366
  113MOL0     O15480   4.605   2.576  11.338  0.6237  1.1316  0.0175
  113MOL0     C15481   4.596   2.674  11.428  0.4991  0.6142  0.1184
  113MOL0     C15482   4.703   2.748  11.464 -0.6251  0.2664 -0.3941
  113MOL0     C15483   4.701   2.852  11.563  0.1796  0.4770  0.5412
  113MOL0     C15484   4.826   2.901  11.616  0.2237  0.5454  0.1271
  113MOL0     C15485   4.576   2.889  11.622  0.1535  0.2902 -0.2060
  113MOL0     C15486   4.563   3.003  11.720  0.4628  0.5333 -0.2316
  113MOL0     O15487   4.432   3.042  11.746 -0.0003 -0.1204 -0.0558
  113MOL0     C15488   4.411   3.169  11.796 -1.0068  1.1276 -0.3855
  113MOL0     C15489   4.412   3.286  11.727 -0.2951 -0.5819 -0.0024
  113MOL0     C15490   4.372   3.413  11.782  0.0494 -1.4052  0.1622
  113MOL0     C15491   4.322   3.418  11.914 -0.7296 -0.3800 -0.5376
  113MOL0     O15492   4.281   3.528  11.981 -0.3352  0.3851  0.6998
  113MOL0     C15493   4.296   3.655  11.914  0.0285  0.1052 -0.3200
  113MOL0     C15494   4.264   3.763  12.022 -0.5509  0.0991 -0.1411
  113MOL0     C15495   4.286   3.909  11.973 -0.4688  1.0591 -0.1758
  113MOL0     C15496   4.230   3.995  12.082  0.5004  1.0671 -0.9957
  113MOL0     C15497   4.232   4.145  12.041  0.1002  0.6472 -0.5672
  113MOL0     C15498   4.140   4.193  11.918 -0.0213 -0.0097 -0.1424
  113MOL0     C15499   4.151   4.348  11.923 -0.3935 -0.4316 -0.1933
  113MOL0     C15500   4.059   4.423  11.821 -0.4483  0.3785 -0.4237
  113MOL0    Cl15501   4.020   4.580  11.898 -0.4676  0.6985  0.2984
  113MOL0     C15502   4.321   3.291  11.991 -0.8931  0.3562  0.7952
  113MOL0     C15503   4.362   3.173  11.931 -0.4559 -0.0570  0.7367
  113MOL0     O15504   4.663   3.051  11.777 -0.4348 -0.3216  0.5575
  113MOL0     C15505   4.463   2.813  11.585  0.5086 -0.5098 -0.7936
  113MOL0     C15506   4.477   2.705  11.487  0.5527  0.4420 -0.8532
  113MOL0     N15507   4.237   2.205  11.366  0.1122  0.1782  0.8103
  113MOL0     N15508   4.169   2.101  11.339  0.7895 -0.3886  1.1184
  113MOL0     C15509   3.152   2.132  11.065  0.6958 -0.0525  0.1725
  113MOL0     C15510   3.044   2.215  11.049 -0.0705  0.5637  0.2498
  113MOL0     C15511   2.682   2.439  11.010  0.2881  0.0199 -0.9149
  113MOL0     C15512   2.653   2.458  11.148 -0.1989 -0.4891  1.1247
  113MOL0     C15513   2.559   2.553  11.183 -0.0067 -0.6230 -0.0330
  113MOL0     C15514   2.491   2.631  11.085  0.8404  0.4771 -0.2282
  113MOL0     O15515   2.406   2.743  11.109 -0.4668 -0.8385 -0.2257
  113MOL0     C15516   2.439   2.813  11.235 -0.0376 -0.8784  0.3755
  113MOL0     C15517   2.575   2.888  11.220  0.8337  0.4666 -0.2787
  113MOL0     C15518   2.593   3.010  11.125  0.0578 -0.0775  1.1797
  113MOL0     C15519   2.742   3.059  11.100 -0.0832  0.7261 -0.2663
  113MOL0     C15520   2.787   3.132  11.226  0.2681 -0.4126 -0.1467
  113MOL0     C15521   2.824   3.183  11.334 -0.1356  0.0965 -0.7525
  113MOL0     C15522   2.528   2.607  10.954  0.3995  0.3660 -0.9367
  113MOL0     C15523   2.619   2.516  10.915  0.2924  0.3311  0.8150
  113MOL0     C15524   2.652   2.507  10.767 -0.1917 -0.4355  0.7003
  113MOL0     H15525   2.793   1.980  10.998  0.4415 -0.8635 -1.8163
  113MOL0     H15526   2.999   1.833  11.046 -1.8596  0.0663  3.3997
  113MOL0     H15527   3.308   1.986  10.868  0.2091  1.6240  1.3619
  113MOL0     H15528   3.224   1.827  10.890 -1.1276 -0.2940  1.9934
  113MOL0     H15529   3.418   1.728  10.998 -2.3629  0.0574 -1.3354
  113MOL0     H15530   3.428   1.762  10.825  1.0021  0.1015 -0.9638
  113MOL0     H15531   3.573   1.963  10.883 -2.7988 -2.3907 -1.1437
  113MOL0     H15532   3.540   1.949  11.052  0.1958  1.8138 -0.3764
  113MOL0     H15533   3.660   1.758  11.086 -3.2540  3.4118  1.8246
  113MOL0     H15534   3.677   1.724  10.909  0.6562 -0.6066  1.0265
  113MOL0     H15535   3.820   1.947  10.893 -0.2738  2.1617  1.4867
  113MOL0     H15536   3.903   1.806  10.971  1.4218  0.5433 -5.0911
  113MOL0     H15537   3.748   2.013  11.109  1.8040  4.1328 -3.9559
  113MOL0     H15538   3.834   1.880  11.188  3.4554  2.1575  2.4824
  113MOL0     H15539   3.952   2.113  11.191  2.5319 -0.2973  0.4018
  113MOL0     H15540   3.965   2.099  11.011  0.4852  3.7453  2.3454
  113MOL0     H15541   4.075   1.882  11.197  1.7701  1.2695  1.8126
  113MOL0     H15542   4.124   1.929  11.038  0.2418  1.3847 -0.9730
  113MOL0     H15543   4.275   2.170  11.038 -1.0496  2.8078  0.0993
  113MOL0     H15544   4.360   2.416  11.319 -0.1128 -0.6569  0.6216
  113MOL0     H15545   4.336   2.419  11.141  0.1479  0.7536  0.4002
  113MOL0     H15546   4.559   2.307  11.286  0.2857 -0.6026 -1.4124
  113MOL0     H15547   4.525   2.272  11.113  0.7573 -0.6588 -0.3209
  113MOL0     H15548   4.695   2.462  11.142 -0.1769  1.0248  0.8535
  113MOL0     H15549   4.559   2.470  11.026 -0.5701 -3.3312 -0.4284
  113MOL0     H15550   4.604   2.685  11.171 -2.1874  1.5294 -1.4025
  113MOL0     H15551   4.443   2.623  11.209  0.2249  1.5453  1.1962
  113MOL0     H15552   4.793   2.726  11.407  1.2303 -1.0216  2.8006
  113MOL0     H15553   4.903   2.840  11.568  0.7556 -1.0057  2.7537
  113MOL0     H15554   4.836   2.878  11.722 -0.9964 -3.2523 -0.4434
  113MOL0     H15555   4.838   3.007  11.593  0.3858  0.4248 -0.3755
  113MOL0     H15556   4.452   3.276  11.627 -1.5752 -3.3491 -0.3425
  113MOL0     H15557   4.371   3.503  11.721  1.9606 -2.4813 -1.6111
  113MOL0     H15558   4.398   3.682  11.887  0.0812  0.5821  0.3346
  113MOL0     H15559   4.230   3.666  11.827  3.5596  0.8117 -3.1667
  113MOL0     H15560   4.158   3.754  12.045 -0.0926 -0.3522  2.0634
  113MOL0     H15561   4.328   3.746  12.110 -1.3611 -2.7791  0.0092
  113MOL0     H15562   4.224   3.922  11.883 -0.9848 -1.2980 -0.2247
  113MOL0     H15563   4.390   3.926  11.945  0.1097 -1.2965  0.3467
  113MOL0     H15564   4.296   3.971  12.166 -1.2711  1.5477  0.6105
  113MOL0     H15565   4.132   3.960  12.114  1.0606  1.7662  1.7024
  113MOL0     H15566   4.198   4.203  12.128 -0.7008 -1.1678  0.3749
  113MOL0     H15567   4.335   4.171  12.013  0.1903 -2.2389 -3.5300
  113MOL0     H15568   4.037   4.156  11.922  0.4061 -1.1193  1.2872
  113MOL0     H15569   4.189   4.155  11.828 -2.1672 -3.8136  0.1069
  113MOL0     H15570   4.254   4.376  11.897 -1.1562  2.4694 -0.3915
  113MOL0     H15571   4.127   4.384  12.023  1.4196 -3.6324  1.5573
  113MOL0     H15572   3.969   4.366  11.797 -1.3202  1.6896 -0.3618
  113MOL0     H15573   4.113   4.455  11.731  1.7012  0.4244  0.8083
  113MOL0     H15574   4.301   3.276  12.096 -1.0430  0.4414  0.7785
  113MOL0     H15575   4.349   3.078  11.981  3.2477 -1.5309 -0.8012
  113MOL0     H15576   4.369   2.848  11.627  1.6103  1.9990 -0.2650
  113MOL0     H15577   4.385   2.654  11.461  0.5709 -0.9411  1.6212
  113MOL0     H15578   3.247   2.178  11.090  1.0371 -1.5743  1.9268
  113MOL0     H15579   3.066   2.321  11.055 -3.1594  1.3505 -0.3866
  113MOL0     H15580   2.711   2.384  11.202 -2.1036 -2.9390  0.0225
  113MOL0     H15581   2.525   2.551  11.287 -2.4149 -0.3138 -0.7427
  113MOL0     H15582   2.363   2.892  11.244  0.3335 -0.4917  0.1466
  113MOL0     H15583   2.424   2.756  11.328  2.1445  1.2178  2.1261
  113MOL0     H15584   2.658   2.819  11.202  3.0085  3.0925 -0.9642
  113MOL0     H15585   2.597   2.925  11.321 -0.6229  2.5383 -0.6596
  113MOL0     H15586   2.544   2.978  11.033 -3.6178 -0.1454  2.9871
  113MOL0     H15587   2.534   3.093  11.165  2.2910  0.7577  2.9785
  113MOL0     H15588   2.734   3.132  11.019 -0.7048  5.0436  3.3021
  113MOL0     H15589   2.813   2.979  11.082 -1.9933 -0.7046 -1.8623
  113MOL0     H15590   2.831   3.205  11.438 -1.8394  0.9726 -0.7945
  113MOL0     H15591   2.488   2.668  10.874 -0.0597 -1.4070 -2.1043
  113MOL0     H15592   2.644   2.402  10.736 -2.2389  0.1102 -0.7761
  113MOL0     H15593   2.585   2.563  10.703  3.4328  2.3097 -1.0600
  113MOL0     H15594   2.744   2.561  10.744 -1.1613  2.8417  3.6741
  114MOL0     O15595  10.861  10.836   8.774  0.3596 -0.2959  0.1024
  114MOL0     C15596  10.847  10.723   8.818 -0.7081  0.0626 -0.6690
  114MOL0     O15597  10.937  10.666   8.895 -1.0817  0.3550  0.0087
  114MOL0     C15598  11.062  10.729   8.908 -0.3829  0.3068  0.5838
  114MOL0     C15599  11.074  10.853   8.979  0.0162 -0.5958 -0.7849
  114MOL0     C15600  11.206  10.906   8.986 -0.2887  0.0602  0.1793
  114MOL0     C15601  11.314  10.836   8.928  0.8280 -0.1326  0.1949
  114MOL0     O15602  11.438  10.880   8.948 -0.3791 -0.4594  0.1720
  114MOL0     C15603  11.492  10.903   9.082  0.0253  0.6547 -0.2833
  114MOL0     C15604  11.579  10.786   9.128 -0.6312 -1.2449 -0.5323
  114MOL0     C15605  11.686  10.749   9.022 -0.2819 -0.0241 -0.2164
  114MOL0     C15606  11.763  10.616   9.052 -0.1306 -0.5316  0.6591
  114MOL0     C15607  11.858  10.578   8.934 -0.6190 -0.0967 -0.6899
  114MOL0     C15608  11.984  10.521   9.004  0.9407 -0.0897  0.2579
  114MOL0     C15609  12.078  10.480   8.900  0.4028 -0.0114  0.7335
  114MOL0     C15610  12.205  10.428   8.961  0.1603 -0.7825  0.3381
  114MOL0     N15611  12.253  10.307   8.881 -0.1901 -0.0540  0.4221
  114MOL0     C15612  12.261  10.184   8.943 -0.3517 -0.4346 -0.8374
  114MOL0     C15613  12.312  10.110   8.839  0.2387 -0.7886 -0.1631
  114MOL0     C15614  12.329   9.958   8.846  0.1821  0.0283 -0.0254
  114MOL0     C15615  12.454   9.926   8.931 -0.0703  0.7686 -0.1428
  114MOL0     C15616  12.460   9.776   8.924  0.1599  0.5585 -0.5193
  114MOL0     C15617  12.583   9.723   9.002  0.5129 -0.3366  0.3902
  114MOL0     O15618  12.689   9.701   8.908 -0.4223 -0.0675 -0.6535
  114MOL0     C15619  12.807   9.654   8.959  0.4966  0.1385 -0.2972
  114MOL0     C15620  12.921   9.688   8.886  0.4600  0.4558 -0.4414
  114MOL0     C15621  13.055   9.643   8.913  0.3993 -0.5355  0.0643
  114MOL0     C15622  13.168   9.676   8.813 -0.3781 -0.8455  0.1549
  114MOL0     C15623  13.063   9.568   9.035 -1.1680 -0.2787  0.1473
  114MOL0     C15624  13.187   9.516   9.089 -0.9023 -0.0271 -0.1194
  114MOL0     O15625  13.175   9.412   9.182  0.1271  0.3730  0.2106
  114MOL0     C15626  13.286   9.378   9.251  0.1426  0.8502  0.1324
  114MOL0     C15627  13.331   9.465   9.351 -0.9847  1.1409 -0.1670
  114MOL0     C15628  13.445   9.427   9.427 -0.4902  0.2117 -0.7161
  114MOL0     C15629  13.522   9.314   9.397  0.5289  0.6327  0.7464
  114MOL0     O15630  13.638   9.269   9.452  0.7369  0.5308 -0.5988
  114MOL0     C15631  13.699   9.350   9.548 -0.2612  1.2302  0.4415
  114MOL0     C15632  13.834   9.275   9.580 -0.1208 -0.5369  0.2097
  114MOL0     C15633  13.928   9.284   9.467  0.5257  0.4932  0.2515
  114MOL0     C15634  14.005   9.411   9.470  1.3353 -0.7408 -0.1851
  114MOL0     C15635  14.127   9.412   9.375 -0.2142  0.4618  0.2516
  114MOL0     C15636  14.249   9.329   9.423  0.3002 -0.7730  0.7971
  114MOL0     C15637  14.367   9.368   9.338 -0.0590 -0.0809 -0.6102
  114MOL0     C15638  14.499   9.316   9.401  0.7178 -0.1578 -0.0862
  114MOL0    Cl15639  14.629   9.386   9.306  0.0865 -0.4807 -0.3986
  114MOL0     C15640  13.481   9.247   9.288  0.3211  0.8507 -0.4885
  114MOL0     C15641  13.362   9.264   9.220 -0.3119  0.2639 -0.0016
  114MOL0     O15642  13.288   9.563   9.052 -0.3070 -0.3825 -0.5778
  114MOL0     C15643  12.949   9.547   9.115  0.2105  0.2619 -0.7766
  114MOL0     C15644  12.822   9.587   9.075 -0.0780 -0.5510 -0.1425
  114MOL0     N15645  12.339  10.192   8.726  0.3494  0.0784  0.3899
  114MOL0     N15646  12.298  10.314   8.757 -0.3503 -0.0156 -0.9402
  114MOL0     C15647  11.295  10.706   8.872  0.1307 -0.5272  0.1629
  114MOL0     C15648  11.169  10.666   8.844 -0.0039 -0.8738 -1.0007
  114MOL0     C15649  10.728  10.638   8.785  0.4240 -0.6235 -0.8112
  114MOL0     C15650  10.639  10.676   8.684  0.9516 -0.1606  1.1797
  114MOL0     C15651  10.518  10.609   8.659 -0.3842  0.2963 -1.0604
  114MOL0     C15652  10.472  10.501   8.734 -0.5021  0.2377  0.1416
  114MOL0     O15653  10.349  10.443   8.730  0.3179 -0.1518 -0.4295
  114MOL0     C15654  10.260  10.475   8.622 -1.1266 -0.3669 -0.6136
  114MOL0     C15655  10.123  10.427   8.669  0.1070 -0.6413  0.4198
  114MOL0     C15656  10.064  10.522   8.788 -0.6132  0.1279  0.4516
  114MOL0     C15657  10.050  10.672   8.752  1.2136 -0.5637  0.2583
  114MOL0     C15658   9.978  10.697   8.627  0.4822 -0.5875  0.0110
  114MOL0     C15659   9.941  10.733   8.515  0.4074 -0.7568 -0.3865
  114MOL0     C15660  10.563  10.456   8.821 -0.4224  0.7585 -0.2015
  114MOL0     C15661  10.687  10.506   8.846  0.4825 -0.0544 -0.2298
  114MOL0     C15662  10.767  10.430   8.947 -0.4916  0.2993 -0.5111
  114MOL0     H15663  10.984  10.906   9.007  2.0372  2.1980  0.9755
  114MOL0     H15664  11.226  11.004   9.028 -0.3276  0.8892 -1.6333
  114MOL0     H15665  11.412  10.932   9.151 -1.2829 -0.7018 -1.1565
  114MOL0     H15666  11.551  10.994   9.076 -2.0287  2.4436  3.3395
  114MOL0     H15667  11.635  10.818   9.216 -0.2229  0.3652 -1.3480
  114MOL0     H15668  11.521  10.699   9.160 -1.8467 -0.1476  0.3548
  114MOL0     H15669  11.649  10.744   8.919 -0.8454  3.3358 -0.3182
  114MOL0     H15670  11.756  10.834   9.016 -1.8536  1.7990  3.6366
  114MOL0     H15671  11.816  10.625   9.147  1.5799 -0.4769 -0.2552
  114MOL0     H15672  11.698  10.529   9.060  1.8652 -2.0924  0.8243
  114MOL0     H15673  11.890  10.667   8.878 -0.1899  3.1466  4.0596
  114MOL0     H15674  11.803  10.507   8.873 -3.3335  1.1793  0.1156
  114MOL0     H15675  12.021  10.593   9.078 -3.6463  3.0463 -0.0632
  114MOL0     H15676  11.954  10.432   9.060  1.8041  0.0292  0.9307
  114MOL0     H15677  12.102  10.552   8.822  0.4116  0.6197  1.3114
  114MOL0     H15678  12.032  10.396   8.845 -1.2505  0.0002  2.0213
  114MOL0     H15679  12.268  10.517   8.958 -0.7191 -0.1488  0.2249
  114MOL0     H15680  12.195  10.392   9.063  2.0275  3.7779  2.3912
  114MOL0     H15681  12.231  10.176   9.047  1.3623  1.8280 -0.0926
  114MOL0     H15682  12.318   9.904   8.751 -2.7592 -2.1077  1.3572
  114MOL0     H15683  12.244   9.920   8.903  2.3723 -2.0589  2.1068
  114MOL0     H15684  12.545   9.981   8.905 -0.1986  0.9711 -0.1661
  114MOL0     H15685  12.435   9.941   9.038 -1.2720  1.5210 -0.4351
  114MOL0     H15686  12.372   9.735   8.974 -1.0657  1.2930 -1.9680
  114MOL0     H15687  12.451   9.734   8.823 -0.4226 -1.4538  0.3021
  114MOL0     H15688  12.602   9.795   9.082  2.1114 -0.6605  0.3357
  114MOL0     H15689  12.552   9.630   9.050 -0.9561 -1.5342 -2.5799
  114MOL0     H15690  12.909   9.742   8.793 -2.9919  4.7517  2.1059
  114MOL0     H15691  13.254   9.719   8.866 -1.0583 -2.9231  3.2071
  114MOL0     H15692  13.134   9.747   8.737  1.0387  1.3699  1.4664
  114MOL0     H15693  13.207   9.582   8.773  0.0760 -1.0808  1.1022
  114MOL0     H15694  13.275   9.555   9.373 -0.2276  1.6154 -0.1466
  114MOL0     H15695  13.490   9.486   9.505  3.3617 -0.3471 -2.2763
  114MOL0     H15696  13.717   9.453   9.515 -1.1464  0.5729 -2.3742
  114MOL0     H15697  13.637   9.342   9.638 -2.1980 -3.2463 -0.9948
  114MOL0     H15698  13.887   9.311   9.668 -1.1181 -0.7242  0.9080
  114MOL0     H15699  13.817   9.170   9.605  0.2119 -2.4686 -5.9921
  114MOL0     H15700  13.874   9.254   9.376  0.7305  1.1912 -0.1058
  114MOL0     H15701  13.995   9.202   9.495  0.3624  0.3967  0.3682
  114MOL0     H15702  14.039   9.443   9.569 -2.4749  0.7125  0.8346
  114MOL0     H15703  13.946   9.498   9.438  2.2291 -0.6024 -1.5153
  114MOL0     H15704  14.105   9.374   9.275  3.4351  0.4850 -0.7089
  114MOL0     H15705  14.161   9.515   9.358 -0.6180  0.3777 -1.1883
  114MOL0     H15706  14.225   9.226   9.397 -1.3745  0.0239 -1.1455
  114MOL0     H15707  14.271   9.343   9.529  2.9633  0.5751  0.1475
  114MOL0     H15708  14.381   9.476   9.336  1.2182 -0.2245 -0.5245
  114MOL0     H15709  14.360   9.328   9.237  2.4523 -1.4053 -0.3443
  114MOL0     H15710  14.504   9.207   9.401  2.5988 -0.1072 -0.4022
  114MOL0     H15711  14.502   9.361   9.501  1.1222  3.3893 -1.5580
  114MOL0     H15712  13.539   9.156   9.273 -0.1255  0.6087 -0.7806
  114MOL0     H15713  13.329   9.194   9.144  1.3155  1.3182 -1.7659
  114MOL0     H15714  12.962   9.512   9.217  1.1146  1.4909 -0.4477
  114MOL0     H15715  12.736   9.559   9.135 -0.7319  2.2156  0.3883
  114MOL0     H15716  11.384  10.658   8.833  0.6472 -0.8897  1.6921
  114MOL0     H15717  11.155  10.569   8.798  1.4857 -0.8410 -1.5645
  114MOL0     H15718  10.661  10.760   8.619  1.1896 -2.6278 -2.2290
  114MOL0     H15719  10.451  10.649   8.583 -2.2988 -2.5423 -1.0418
  114MOL0     H15720  10.258  10.580   8.592  3.4506  0.7143  1.8784
  114MOL0     H15721  10.292  10.417   8.535  1.6429 -0.6844  0.4976
  114MOL0     H15722  10.126  10.320   8.690  0.6089 -0.7936 -0.3892
  114MOL0     H15723  10.057  10.444   8.584  0.5898 -0.0136  0.1615
  114MOL0     H15724   9.969  10.477   8.818 -1.7451  2.2757  0.2504
  114MOL0     H15725  10.133  10.527   8.873 -0.0232  0.0789 -0.0112
  114MOL0     H15726  10.150  10.716   8.753  1.0192 -0.1267  0.6652
  114MOL0     H15727   9.998  10.719   8.835  0.2436 -1.5299  0.2111
  114MOL0     H15728   9.896  10.745   8.418 -1.1425 -1.8867  0.1688
  114MOL0     H15729  10.525  10.368   8.874  0.6419  0.7596  0.5941
  114MOL0     H15730  10.808  10.497   9.023 -1.3976 -2.1984  2.3770
  114MOL0     H15731  10.721  10.349   9.004  2.0379  0.4726  2.0083
  114MOL0     H15732  10.860  10.395   8.900 -1.8505 -1.4398 -2.0278
  115MOL0     O15733   1.408   7.455   7.341 -0.1727  0.1693 -0.6569
  115MOL0     C15734   1.419   7.499   7.229  0.7596  0.2826  0.3007
  115MOL0     O15735   1.515   7.455   7.134  0.5023  0.8909 -0.3748
  115MOL0     C15736   1.604   7.361   7.171 -0.4970  0.3459 -0.4213
  115MOL0     C15737   1.599   7.252   7.085 -0.5860 -0.6489  0.0042
  115MOL0     C15738   1.682   7.138   7.113 -0.3711 -0.2083  0.2324
  115MOL0     C15739   1.765   7.134   7.231 -0.0052  0.2922 -0.1944
  115MOL0     O15740   1.860   7.025   7.240 -0.2326 -0.4057 -0.3110
  115MOL0     C15741   1.923   7.011   7.366 -0.0607  0.3822  1.4460
  115MOL0     C15742   2.016   6.896   7.357 -0.5284 -0.6738  0.5714
  115MOL0     C15743   2.154   6.969   7.351  0.8977 -0.2846  0.1645
  115MOL0     C15744   2.264   6.866   7.354  0.8076 -0.3597 -0.7666
  115MOL0     C15745   2.265   6.759   7.470 -0.6820  0.3051 -0.7867
  115MOL0     C15746   2.393   6.670   7.468 -0.7201 -0.5522  0.6274
  115MOL0     C15747   2.419   6.589   7.596  0.8641 -0.2037 -0.4186
  115MOL0     C15748   2.533   6.488   7.575  0.1387  0.0379  0.3235
  115MOL0     N15749   2.579   6.418   7.699 -0.8002  0.0714 -0.2021
  115MOL0     C15750   2.508   6.334   7.782  0.5853  0.3780  0.1213
  115MOL0     C15751   2.587   6.308   7.885 -0.0908 -1.3331  0.7072
  115MOL0     C15752   2.551   6.227   8.003 -0.2059 -0.0099 -0.2640
  115MOL0     C15753   2.425   6.278   8.076 -0.3467  0.2443  1.0185
  115MOL0     C15754   2.458   6.416   8.156 -0.2478 -0.1218  0.6661
  115MOL0     C15755   2.369   6.438   8.276 -1.0133  0.2947 -0.2044
  115MOL0     O15756   2.393   6.564   8.351  0.2770  1.0994  0.3728
  115MOL0     C15757   2.350   6.581   8.482 -1.1313 -0.8976 -0.2900
  115MOL0     C15758   2.256   6.509   8.552  1.0030 -0.6579 -0.6194
  115MOL0     C15759   2.216   6.553   8.680  0.4919 -0.2206 -0.8199
  115MOL0     C15760   2.111   6.484   8.762  0.7952  1.5635 -0.1600
  115MOL0     C15761   2.276   6.672   8.735  0.3919  0.0530  0.1893
  115MOL0     C15762   2.248   6.720   8.876  0.5160  0.0109 -0.3505
  115MOL0     O15763   2.222   6.850   8.887 -0.0916  0.0245 -0.0011
  115MOL0     C15764   2.201   6.896   9.012  0.1995  0.2492  0.0619
  115MOL0     C15765   2.070   6.905   9.062 -0.4521  0.9146 -0.9626
  115MOL0     C15766   2.044   6.949   9.188 -0.0161 -1.1616 -0.0716
  115MOL0     C15767   2.146   6.994   9.279  0.8972  0.3472  0.8013
  115MOL0     O15768   2.111   7.028   9.406  0.4420 -0.1200  0.2382
  115MOL0     C15769   2.214   7.065   9.497  0.2122 -0.6641 -0.0891
  115MOL0     C15770   2.149   7.079   9.636  0.4053  0.2108  0.3428
  115MOL0     C15771   2.242   7.129   9.739  0.8516  0.0049 -0.4974
  115MOL0     C15772   2.171   7.129   9.878 -0.9208  0.9854  0.7197
  115MOL0     C15773   2.269   7.153   9.995  0.2346 -0.7812  0.4489
  115MOL0     C15774   2.289   7.050  10.095  0.2340  1.4473 -0.7336
  115MOL0     C15775   2.333   6.918  10.035 -0.3206 -0.5112 -0.6310
  115MOL0     C15776   2.433   6.835  10.114  0.3110  0.3019  0.2394
  115MOL0    Cl15777   2.502   6.692  10.028  0.2029 -0.2448 -0.0571
  115MOL0     C15778   2.274   7.001   9.226 -0.0203  0.5716  0.7531
  115MOL0     C15779   2.295   6.942   9.096 -0.9295 -1.0639 -1.0005
  115MOL0     O15780   2.244   6.645   8.969  0.6704  0.6589  0.1909
  115MOL0     C15781   2.372   6.748   8.666 -0.3626 -0.3701  0.7059
  115MOL0     C15782   2.409   6.697   8.543  0.8134 -0.5621 -0.0325
  115MOL0     N15783   2.702   6.386   7.874 -0.4607  1.0143 -1.0820
  115MOL0     N15784   2.695   6.451   7.767  0.0077  0.2044 -0.0963
  115MOL0     C15785   1.760   7.248   7.315  0.4894 -0.7264  0.7397
  115MOL0     C15786   1.689   7.364   7.292 -0.0263 -0.7417  0.3356
  115MOL0     C15787   1.324   7.604   7.180 -0.3393  0.0205 -0.4912
  115MOL0     C15788   1.386   7.713   7.114 -0.3369  1.4848  0.7533
  115MOL0     C15789   1.306   7.826   7.080 -0.4929  0.3274 -0.6345
  115MOL0     C15790   1.163   7.830   7.100 -0.9804 -0.5154  1.1643
  115MOL0     O15791   1.095   7.941   7.051 -1.1183 -0.1215 -0.3910
  115MOL0     C15792   0.950   7.952   7.040 -1.0035 -0.2827 -0.4735
  115MOL0     C15793   0.906   8.091   6.978 -0.3965 -0.3484 -0.4606
  115MOL0     C15794   0.928   8.216   7.067 -0.3173 -0.0742  0.0379
  115MOL0     C15795   0.824   8.315   7.034 -0.3706 -0.2444 -0.0288
  115MOL0     C15796   0.859   8.433   7.110  0.1087  0.3421  0.0035
  115MOL0     C15797   0.873   8.522   7.194 -0.0528 -0.8089  0.7494
  115MOL0     C15798   1.108   7.712   7.153 -1.0862  0.1808 -0.7948
  115MOL0     C15799   1.185   7.603   7.206  0.9725  0.2310  0.2332
  115MOL0     C15800   1.131   7.491   7.281  0.0739  0.0594 -0.6821
  115MOL0     H15801   1.529   7.261   7.003 -0.1999  0.9666 -0.1950
  115MOL0     H15802   1.688   7.061   7.036  1.0215  0.2087 -0.1034
  115MOL0     H15803   1.854   6.991   7.448  0.1028 -0.3548  1.4145
  115MOL0     H15804   1.968   7.105   7.400 -0.4524  1.8370 -1.7426
  115MOL0     H15805   2.011   6.833   7.447  0.8989  0.8757  1.8159
  115MOL0     H15806   1.993   6.836   7.268  1.6454  1.8380 -1.8712
  115MOL0     H15807   2.160   7.011   7.250 -2.1835  0.4318  0.1756
  115MOL0     H15808   2.155   7.044   7.431 -0.0835  0.9713 -0.9572
  115MOL0     H15809   2.268   6.826   7.253  2.9777  0.6423 -1.1256
  115MOL0     H15810   2.360   6.917   7.365  0.2144  0.4931  1.0083
  115MOL0     H15811   2.180   6.690   7.471  0.5804 -1.5510  3.8909
  115MOL0     H15812   2.265   6.804   7.570  4.2803 -1.4237  0.2680
  115MOL0     H15813   2.386   6.598   7.386 -1.0401 -1.9096  1.8200
  115MOL0     H15814   2.477   6.737   7.444  1.2101 -3.7465 -2.3819
  115MOL0     H15815   2.331   6.538   7.636  0.2418  0.1183 -1.3384
  115MOL0     H15816   2.462   6.658   7.669  0.1296  1.4034 -1.4576
  115MOL0     H15817   2.491   6.408   7.513 -0.4103 -1.2839  2.2990
  115MOL0     H15818   2.606   6.550   7.522  0.9735  0.0788  1.4977
  115MOL0     H15819   2.422   6.273   7.755  0.4092 -0.1201  1.6905
  115MOL0     H15820   2.634   6.209   8.072 -1.7921 -0.5076  1.6059
  115MOL0     H15821   2.534   6.125   7.967  1.5683 -0.6752  0.6545
  115MOL0     H15822   2.343   6.294   8.005 -0.4543 -3.0769  0.2103
  115MOL0     H15823   2.411   6.203   8.154  1.1783 -1.9182 -0.6401
  115MOL0     H15824   2.564   6.411   8.181  0.7005 -1.2936 -3.0306
  115MOL0     H15825   2.448   6.497   8.084 -0.3108  0.3508  1.1921
  115MOL0     H15826   2.265   6.436   8.239 -0.2417  2.4613 -2.8873
  115MOL0     H15827   2.398   6.363   8.350  1.9388 -0.5062 -2.0164
  115MOL0     H15828   2.210   6.418   8.516  1.6069 -1.5534  0.8319
  115MOL0     H15829   2.145   6.406   8.831 -2.1778 -1.9643 -2.3302
  115MOL0     H15830   2.040   6.437   8.694  2.9237  1.5247 -2.4886
  115MOL0     H15831   2.048   6.551   8.821 -2.1692 -1.8248  0.8510
  115MOL0     H15832   1.991   6.873   8.995 -0.7450 -1.9265  0.5782
  115MOL0     H15833   1.945   6.950   9.232  0.2655  0.2857  0.5609
  115MOL0     H15834   2.302   7.000   9.502 -1.0837 -2.4564  0.5724
  115MOL0     H15835   2.245   7.163   9.460  1.1094 -0.6580  0.6554
  115MOL0     H15836   2.053   7.131   9.627  0.2011 -0.4387 -1.8885
  115MOL0     H15837   2.118   6.975   9.650 -2.3250  0.6608 -1.5351
  115MOL0     H15838   2.266   7.233   9.716  2.7566 -0.0992  0.8696
  115MOL0     H15839   2.331   7.067   9.749 -1.1072 -2.9547 -0.0475
  115MOL0     H15840   2.130   7.029   9.889 -1.8920  1.3190  0.1936
  115MOL0     H15841   2.088   7.201   9.880 -0.5949  1.3601  1.9201
  115MOL0     H15842   2.358   7.193   9.945 -0.5227  0.2465 -0.1146
  115MOL0     H15843   2.223   7.231  10.056 -2.0392 -1.7049 -0.0240
  115MOL0     H15844   2.195   7.019  10.142  0.9604 -1.1691 -0.8416
  115MOL0     H15845   2.359   7.088  10.170  1.3547  0.5596 -1.3002
  115MOL0     H15846   2.404   6.950   9.957  1.7144 -1.0734  0.9085
  115MOL0     H15847   2.251   6.860   9.992 -1.4419  0.2181  0.4850
  115MOL0     H15848   2.378   6.796  10.200  0.3170  0.1652  0.1834
  115MOL0     H15849   2.520   6.891  10.148 -0.1826  2.3465 -1.6549
  115MOL0     H15850   2.353   7.044   9.288  0.7325  1.4744 -0.7741
  115MOL0     H15851   2.396   6.937   9.056 -0.4171 -2.6361  0.3430
  115MOL0     H15852   2.419   6.834   8.711 -1.8797  1.8959 -1.7074
  115MOL0     H15853   2.474   6.754   8.478 -0.1961 -1.4878 -1.9352
  115MOL0     H15854   1.826   7.253   7.401  1.8137  0.4952 -0.2886
  115MOL0     H15855   1.692   7.446   7.364 -0.5858  0.5912 -1.1025
  115MOL0     H15856   1.494   7.705   7.109 -0.2309  2.8485  0.4232
  115MOL0     H15857   1.356   7.902   7.021  2.2887 -0.9670 -0.0600
  115MOL0     H15858   0.913   7.862   6.990  1.4285 -0.4632 -2.0842
  115MOL0     H15859   0.914   7.963   7.143 -1.5988 -1.5577 -0.5255
  115MOL0     H15860   0.801   8.084   6.948 -0.2449 -2.2422 -0.6796
  115MOL0     H15861   0.968   8.118   6.892 -1.0550  4.0775  0.2149
  115MOL0     H15862   0.917   8.193   7.173 -0.0427 -1.0461 -0.1379
  115MOL0     H15863   1.033   8.237   7.050  0.2612 -2.0911  0.7926
  115MOL0     H15864   0.724   8.287   7.068 -0.7216  1.0805  0.0900
  115MOL0     H15865   0.838   8.342   6.929 -2.3402 -0.5325 -0.3873
  115MOL0     H15866   0.884   8.609   7.255 -3.7606  0.4968 -0.2021
  115MOL0     H15867   1.000   7.714   7.166 -0.8977  0.1197  0.9869
  115MOL0     H15868   1.146   7.503   7.389  0.8532 -0.8755 -0.6682
  115MOL0     H15869   1.024   7.481   7.260  0.2957 -2.0298 -1.1123
  115MOL0     H15870   1.169   7.393   7.251  0.2626 -1.1885  3.0980
  116MOL0     O15871   4.954  11.531   4.829  0.7641 -0.1445 -0.1615
  116MOL0     C15872   4.907  11.642   4.849 -0.1779 -0.1428 -0.4223
  116MOL0     O15873   4.889  11.728   4.748  0.0396  0.0428  0.0534
  116MOL0     C15874   4.899  11.689   4.624  0.4124  0.1845 -0.2517
  116MOL0     C15875   4.976  11.761   4.538  0.0076 -0.9249 -0.9689
  116MOL0     C15876   4.986  11.737   4.402  0.0580 -0.5374 -1.5635
  116MOL0     C15877   4.902  11.648   4.343  0.0136  0.1203  0.2038
  116MOL0     O15878   4.896  11.637   4.206  0.1346 -0.3229 -0.0638
  116MOL0     C15879   5.023  11.589   4.146  0.3032 -0.1276  0.1809
  116MOL0     C15880   5.047  11.645   4.001  0.4693  0.3804 -0.2917
  116MOL0     C15881   5.027  11.802   4.000 -0.3766 -1.1486  0.2931
  116MOL0     C15882   5.047  11.863   3.865  0.4002  0.5724 -0.2017
  116MOL0     C15883   5.052  12.018   3.873 -0.1690  0.6952 -0.0537
  116MOL0     C15884   4.941  12.093   3.938  1.0357 -0.4592 -0.0998
  116MOL0     C15885   4.816  12.098   3.861  0.2427 -0.0677 -0.0988
  116MOL0     C15886   4.770  12.252   3.860  1.0931  0.1159 -0.5983
  116MOL0     N15887   4.640  12.267   3.798  0.1237  0.3444  0.4771
  116MOL0     C15888   4.615  12.318   3.673 -0.1007  0.0752 -0.1021
  116MOL0     C15889   4.481  12.337   3.653 -0.2755 -0.7956  0.5789
  116MOL0     C15890   4.400  12.389   3.535 -0.2450  0.0849 -1.4491
  116MOL0     C15891   4.370  12.281   3.433 -1.3836 -0.2641  0.0078
  116MOL0     C15892   4.267  12.309   3.334  0.1041 -0.1964  1.0165
  116MOL0     C15893   4.251  12.201   3.228  0.1659 -0.4547 -0.9106
  116MOL0     O15894   4.360  12.235   3.147  0.5803 -0.3363  0.9874
  116MOL0     C15895   4.350  12.266   3.011  0.2062  0.3846 -0.2071
  116MOL0     C15896   4.447  12.347   2.954  0.6708 -0.4026  0.4419
  116MOL0     C15897   4.444  12.395   2.823 -0.3636 -0.2439  0.9665
  116MOL0     C15898   4.570  12.463   2.780 -0.7859 -0.4325  0.0799
  116MOL0     C15899   4.339  12.367   2.741  0.1437  0.6974 -0.0050
  116MOL0     C15900   4.320  12.420   2.601  0.1081  0.1576 -0.4858
  116MOL0     O15901   4.208  12.369   2.535  0.7153  0.7692  0.1800
  116MOL0     C15902   4.204  12.369   2.399  0.5000  0.8030  0.0058
  116MOL0     C15903   4.242  12.263   2.327  0.3508  0.3187 -0.5550
  116MOL0     C15904   4.222  12.259   2.192  0.8038 -0.3079 -0.2062
  116MOL0     C15905   4.170  12.372   2.123  0.5280  0.0211  1.6994
  116MOL0     O15906   4.167  12.365   1.990 -0.3611 -0.2093  0.0580
  116MOL0     C15907   4.068  12.437   1.908 -0.2004  0.2757 -0.3136
  116MOL0     C15908   4.097  12.427   1.761  0.2652  0.4474  0.3563
  116MOL0     C15909   4.210  12.523   1.712  0.4819  0.0791  0.5828
  116MOL0     C15910   4.161  12.629   1.613  0.1198  0.8179 -0.2579
  116MOL0     C15911   4.138  12.566   1.475  0.4954 -0.1792 -0.1181
  116MOL0     C15912   4.088  12.674   1.377 -0.8405 -0.5631 -0.5263
  116MOL0     C15913   4.088  12.611   1.241  0.4933 -0.2755 -0.6723
  116MOL0     C15914   4.027  12.706   1.142 -0.1844  0.3280  0.0891
  116MOL0    Cl15915   4.115  12.863   1.144 -0.2884  0.3630  0.1485
  116MOL0     C15916   4.114  12.474   2.201 -0.2981 -0.1565  0.4307
  116MOL0     C15917   4.124  12.475   2.343  1.4426  1.1917  0.1148
  116MOL0     O15918   4.393  12.511   2.558  0.5590  0.3963 -0.6749
  116MOL0     C15919   4.254  12.264   2.791  0.5845 -0.0145 -0.3811
  116MOL0     C15920   4.258  12.218   2.921 -0.0294  0.3433  0.4678
  116MOL0     N15921   4.434  12.299   3.775 -0.1209 -0.5364  0.0815
  116MOL0     N15922   4.522  12.263   3.856  0.6447  0.6024 -0.1169
  116MOL0     C15923   4.816  11.577   4.428  0.4407  0.4134 -0.2934
  116MOL0     C15924   4.824  11.586   4.566  0.6781 -0.4688  0.2717
  116MOL0     C15925   4.852  11.685   4.979  0.7816  1.0190  0.0167
  116MOL0     C15926   4.798  11.816   4.978 -0.3606  0.7791  0.5750
  116MOL0     C15927   4.751  11.871   5.095  0.9575 -0.1777 -0.4329
  116MOL0     C15928   4.744  11.801   5.219 -0.6131  0.1223  0.3564
  116MOL0     O15929   4.700  11.855   5.341  0.5604  0.4427  0.4950
  116MOL0     C15930   4.764  11.981   5.378  1.0526 -0.0478 -0.6103
  116MOL0     C15931   4.661  12.090   5.402 -0.4125 -0.1415 -0.3552
  116MOL0     C15932   4.719  12.218   5.475 -0.7576 -0.7239 -0.7046
  116MOL0     C15933   4.741  12.186   5.621 -0.8983  0.8218 -0.6689
  116MOL0     C15934   4.842  12.269   5.675 -1.0843 -1.1610 -0.1683
  116MOL0     C15935   4.920  12.349   5.715  0.1464  0.8836  0.1596
  116MOL0     C15936   4.806  11.674   5.213 -0.9544 -0.1169  0.5781
  116MOL0     C15937   4.863  11.615   5.104  0.5330  0.9060  0.7240
  116MOL0     C15938   4.925  11.483   5.115 -0.4552 -0.4274 -1.0018
  116MOL0     H15939   5.023  11.850   4.578  1.4894 -2.7297  1.5955
  116MOL0     H15940   5.042  11.803   4.337 -0.2854 -0.2054 -1.5244
  116MOL0     H15941   5.013  11.481   4.136 -0.8331 -0.0042 -0.0973
  116MOL0     H15942   5.105  11.607   4.217  0.4957 -4.6702  1.4051
  116MOL0     H15943   5.144  11.614   3.962 -0.0576 -0.5555 -0.8754
  116MOL0     H15944   4.963  11.601   3.947 -0.4011  1.6554 -0.0393
  116MOL0     H15945   4.926  11.818   4.039 -0.7189 -0.1182 -0.9519
  116MOL0     H15946   5.093  11.848   4.075  2.5037 -2.5655 -1.1952
  116MOL0     H15947   5.136  11.824   3.815  0.2320 -1.3207  0.9152
  116MOL0     H15948   4.963  11.839   3.799  1.4444  1.4721 -1.9602
  116MOL0     H15949   5.053  12.057   3.771 -2.0407 -1.6868 -1.0881
  116MOL0     H15950   5.147  12.037   3.922  0.1476  3.4907 -1.5685
  116MOL0     H15951   4.921  12.060   4.041  1.7825  1.4202  0.6835
  116MOL0     H15952   4.986  12.193   3.938  2.1748 -0.9575 -0.0067
  116MOL0     H15953   4.743  12.028   3.903 -0.3628 -0.6597 -2.0146
  116MOL0     H15954   4.833  12.059   3.760 -1.0188 -0.3420 -0.2183
  116MOL0     H15955   4.761  12.288   3.963 -2.0093  0.2128 -0.7962
  116MOL0     H15956   4.828  12.321   3.798  0.6815  0.1107 -0.9942
  116MOL0     H15957   4.693  12.345   3.603  0.9429 -0.7057  0.7312
  116MOL0     H15958   4.456  12.473   3.491 -0.0671  1.1410  0.6459
  116MOL0     H15959   4.311  12.430   3.582  1.5752  1.3321  1.1531
  116MOL0     H15960   4.461  12.265   3.375 -1.4461 -1.2226  0.1551
  116MOL0     H15961   4.359  12.185   3.485  3.4640  0.3072  2.6113
  116MOL0     H15962   4.179  12.320   3.397 -0.5002 -0.1425  0.1833
  116MOL0     H15963   4.281  12.403   3.280 -1.0296 -0.1663  0.7602
  116MOL0     H15964   4.265  12.115   3.293 -1.5166  0.3379  0.5867
  116MOL0     H15965   4.153  12.204   3.179  0.4342  0.6643 -1.4330
  116MOL0     H15966   4.529  12.375   3.019 -1.2353  0.2679  2.6819
  116MOL0     H15967   4.654  12.450   2.849 -0.1245 -1.9568 -0.9556
  116MOL0     H15968   4.561  12.568   2.749  1.4104 -0.6259 -1.4338
  116MOL0     H15969   4.607  12.405   2.695  0.8914  0.8583 -0.1241
  116MOL0     H15970   4.297  12.180   2.369  2.4469  0.7267 -2.2750
  116MOL0     H15971   4.250  12.169   2.139 -0.4613 -1.0992  0.4262
  116MOL0     H15972   3.975  12.380   1.920  3.0076 -6.6187 -2.7484
  116MOL0     H15973   4.053  12.542   1.935 -0.3778  0.4600 -1.1021
  116MOL0     H15974   4.112  12.320   1.747 -0.9883  0.1873  0.8087
  116MOL0     H15975   4.000  12.441   1.713 -1.9262 -4.2505  2.6944
  116MOL0     H15976   4.283  12.467   1.653  3.2071  3.2185  0.6664
  116MOL0     H15977   4.257  12.577   1.795  0.2254  0.7061  0.3252
  116MOL0     H15978   4.236  12.709   1.602 -0.5481  1.4521 -0.2556
  116MOL0     H15979   4.062  12.668   1.640 -0.9626 -0.0022 -2.7529
  116MOL0     H15980   4.221  12.506   1.437 -0.0396 -1.6606  0.9719
  116MOL0     H15981   4.054  12.495   1.478 -0.4779  0.9654  1.6431
  116MOL0     H15982   4.163  12.754   1.376 -2.4737  1.0730  0.9936
  116MOL0     H15983   3.991  12.715   1.405 -0.2008  0.9109 -0.3745
  116MOL0     H15984   4.032  12.517   1.242 -0.6248  0.2871 -3.2670
  116MOL0     H15985   4.186  12.592   1.196  0.6742 -0.9996 -0.0091
  116MOL0     H15986   3.930  12.731   1.186  0.8993  1.1073  2.1402
  116MOL0     H15987   4.030  12.683   1.035  1.7925 -0.6864  0.3343
  116MOL0     H15988   4.061  12.559   2.158 -0.8966 -0.7389  0.0097
  116MOL0     H15989   4.080  12.545   2.414 -0.2659 -0.7829  1.1064
  116MOL0     H15990   4.181  12.214   2.728 -1.6176  1.1722  1.1006
  116MOL0     H15991   4.196  12.132   2.943  4.0351 -3.3890 -1.0917
  116MOL0     H15992   4.738  11.510   4.395  0.9779 -0.6173  0.4889
  116MOL0     H15993   4.741  11.536   4.616  0.0825 -0.5605 -0.7745
  116MOL0     H15994   4.796  11.881   4.891  0.3103 -0.3110 -0.2864
  116MOL0     H15995   4.715  11.973   5.107 -0.7128 -0.4029 -2.8464
  116MOL0     H15996   4.800  11.942   5.474 -2.9472 -1.6795  0.4244
  116MOL0     H15997   4.843  12.025   5.317 -2.0375  5.3561 -1.3291
  116MOL0     H15998   4.584  12.041   5.461  1.7237  0.2656  3.0282
  116MOL0     H15999   4.625  12.109   5.300 -0.1519  0.0139 -0.4211
  116MOL0     H16000   4.812  12.240   5.423  1.1049 -3.6145  1.1447
  116MOL0     H16001   4.654  12.306   5.466  2.0767  1.6473  0.3019
  116MOL0     H16002   4.762  12.080   5.640 -1.9639  0.8021  0.4543
  116MOL0     H16003   4.655  12.213   5.683 -1.5079 -3.4019  0.6577
  116MOL0     H16004   5.012  12.397   5.739  0.3260 -0.2844  1.9674
  116MOL0     H16005   4.823  11.639   5.315  1.0747  2.0278  1.0700
  116MOL0     H16006   4.951  11.447   5.215 -0.2333 -1.0500 -1.2751
  116MOL0     H16007   4.869  11.400   5.070 -2.7942 -0.1053  1.0837
  116MOL0     H16008   5.022  11.503   5.067 -1.4016  1.5888 -2.1603
  117MOL0     O16009   8.319   6.062   9.723 -0.7507 -0.3574  0.3519
  117MOL0     C16010   8.356   5.955   9.684 -0.7826  0.4561 -0.7831
  117MOL0     O16011   8.469   5.930   9.612 -0.5979  1.0121  1.2175
  117MOL0     C16012   8.569   6.029   9.613  0.2307 -0.2995  0.6658
  117MOL0     C16013   8.636   6.083   9.728  0.7070  0.1252  0.1129
  117MOL0     C16014   8.727   6.188   9.716  0.1152  0.4426 -0.2532
  117MOL0     C16015   8.763   6.245   9.593 -0.6419 -0.6882  0.6779
  117MOL0     O16016   8.854   6.361   9.595  0.7155 -0.2934  0.6624
  117MOL0     C16017   8.899   6.418   9.470  0.4296  0.9571  0.0257
  117MOL0     C16018   8.962   6.547   9.513  0.0761  0.4444  0.0210
  117MOL0     C16019   8.868   6.627   9.608 -0.4747 -0.0791 -1.5111
  117MOL0     C16020   8.914   6.777   9.608 -0.0926  0.5629  0.5105
  117MOL0     C16021   8.836   6.857   9.711  0.0148 -1.0387 -0.9606
  117MOL0     C16022   8.890   6.834   9.853  0.2260  0.6437 -0.6053
  117MOL0     C16023   8.823   6.939   9.946 -0.0397 -0.7536 -0.6203
  117MOL0     C16024   8.770   6.885  10.077 -1.7754 -0.5534  0.4800
  117MOL0     N16025   8.733   7.006  10.159 -1.0329 -0.6641 -0.3015
  117MOL0     C16026   8.813   7.070  10.252  0.4346 -0.4078  0.7131
  117MOL0     C16027   8.741   7.183  10.297  0.5471  0.9776  0.0948
  117MOL0     C16028   8.781   7.290  10.388 -0.0572  0.2626  0.1991
  117MOL0     C16029   8.900   7.362  10.314 -0.1274 -0.2446  1.3329
  117MOL0     C16030   8.898   7.507  10.325 -0.9041 -1.1600 -0.1657
  117MOL0     C16031   8.897   7.546  10.476 -0.0634 -0.1687  0.4014
  117MOL0     O16032   8.949   7.672  10.499 -0.2112 -0.2274 -0.2341
  117MOL0     C16033   8.978   7.690  10.627 -0.2961 -0.4552  0.8323
  117MOL0     C16034   9.099   7.642  10.674 -0.7904 -0.3339  0.2442
  117MOL0     C16035   9.126   7.650  10.809  0.8007  0.1751 -0.3477
  117MOL0     C16036   9.257   7.613  10.871 -0.8261 -0.3855  0.0612
  117MOL0     C16037   9.030   7.697  10.902 -0.0871  1.2823 -0.3537
  117MOL0     C16038   9.052   7.684  11.048  0.5962 -0.2431 -0.5810
  117MOL0     O16039   9.098   7.569  11.101 -0.3157  1.1581 -0.0241
  117MOL0     C16040   9.110   7.556  11.233 -0.4087 -0.3274 -0.5070
  117MOL0     C16041   9.006   7.530  11.320  0.7668 -0.1557  0.4108
  117MOL0     C16042   9.037   7.498  11.452 -0.1271  0.2878 -1.3848
  117MOL0     C16043   9.173   7.480  11.501 -0.3577  0.1049  0.2307
  117MOL0     O16044   9.215   7.439  11.618  0.1005  0.4695 -0.5920
  117MOL0     C16045   9.141   7.472  11.735 -0.2453 -0.1210 -0.1812
  117MOL0     C16046   9.222   7.444  11.850 -0.2721 -0.1944 -0.1297
  117MOL0     C16047   9.184   7.507  11.988 -0.6129 -0.6587 -0.6757
  117MOL0     C16048   9.260   7.446  12.108  0.0323  0.8164 -0.4756
  117MOL0     C16049   9.180   7.470  12.241 -0.2113  0.0682 -0.9702
  117MOL0     C16050   9.241   7.386  12.361 -0.0576  0.1376  0.1905
  117MOL0     C16051   9.162   7.406  12.487  0.8713  0.3190  0.3275
  117MOL0     C16052   9.212   7.318  12.606  0.0092 -0.4642 -0.7874
  117MOL0    Cl16053   9.089   7.324  12.734  0.2933  0.1387 -0.1527
  117MOL0     C16054   9.268   7.509  11.407 -0.3228  0.8937  0.4880
  117MOL0     C16055   9.241   7.553  11.280  0.2597  1.4853  0.4222
  117MOL0     O16056   9.014   7.777  11.120 -1.2897  0.5105 -0.0367
  117MOL0     C16057   8.914   7.747  10.847 -0.7380 -0.7795  0.5469
  117MOL0     C16058   8.882   7.739  10.712 -0.9382  0.4362  1.0500
  117MOL0     N16059   8.613   7.175  10.232  0.0600 -0.4372 -0.1803
  117MOL0     N16060   8.617   7.063  10.164 -1.1799 -1.2370 -0.1606
  117MOL0     C16061   8.704   6.191   9.483  0.3299  0.1744  0.2688
  117MOL0     C16062   8.603   6.096   9.495  0.5220 -0.2474 -0.5861
  117MOL0     C16063   8.276   5.830   9.708 -0.5087 -0.3344 -0.1757
  117MOL0     C16064   8.317   5.709   9.635 -0.5229 -0.0062  0.1831
  117MOL0     C16065   8.242   5.592   9.654 -0.8638 -0.3355  0.2881
  117MOL0     C16066   8.134   5.589   9.750  0.4713  0.8018 -0.0907
  117MOL0     O16067   8.089   5.463   9.773 -0.0422 -0.3408 -1.4460
  117MOL0     C16068   8.004   5.444   9.890 -0.1951  0.1684  0.5353
  117MOL0     C16069   8.089   5.400  10.002 -1.2279 -0.3781  0.1919
  117MOL0     C16070   7.995   5.368  10.121 -0.7788  0.3597  0.2568
  117MOL0     C16071   8.070   5.337  10.253 -0.8262 -0.0682 -0.2802
  117MOL0     C16072   8.198   5.404  10.269 -0.5025  1.1022 -1.0904
  117MOL0     C16073   8.307   5.446  10.301 -1.0286  0.3560  0.5796
  117MOL0     C16074   8.096   5.706   9.816  0.4164 -0.5409 -0.4092
  117MOL0     C16075   8.169   5.824   9.804 -0.5555  1.1394  0.9337
  117MOL0     C16076   8.115   5.942   9.878  0.5422  0.5723 -0.0036
  117MOL0     H16077   8.613   6.040   9.825 -1.5304  1.2692  0.1557
  117MOL0     H16078   8.761   6.237   9.807 -2.2441 -0.6734  1.3468
  117MOL0     H16079   8.809   6.441   9.411 -0.2554 -2.1569 -0.3280
  117MOL0     H16080   8.963   6.341   9.426 -0.6071  0.2267 -0.2614
  117MOL0     H16081   9.055   6.529   9.567 -0.2055 -2.0995 -0.2520
  117MOL0     H16082   8.984   6.605   9.423 -2.7724 -1.4157 -2.0607
  117MOL0     H16083   8.763   6.614   9.580 -1.1678 -2.1020  1.5257
  117MOL0     H16084   8.885   6.601   9.713 -0.9547  1.3394 -1.0611
  117MOL0     H16085   9.022   6.774   9.627 -0.2705 -0.9843  1.4146
  117MOL0     H16086   8.900   6.821   9.509  3.4766  2.2942  0.5891
  117MOL0     H16087   8.728   6.846   9.701 -0.6879  4.0295 -2.1875
  117MOL0     H16088   8.844   6.965   9.694 -3.5215 -0.5780 -0.4364
  117MOL0     H16089   8.865   6.732   9.885  3.7843  0.1085  0.9757
  117MOL0     H16090   8.996   6.860   9.859  0.1140  0.9258  0.3003
  117MOL0     H16091   8.741   6.988   9.893  0.8880 -3.5941 -5.2626
  117MOL0     H16092   8.894   7.019   9.969 -0.1222 -1.2255  1.5220
  117MOL0     H16093   8.684   6.818  10.070 -2.2484  0.1487 -0.8630
  117MOL0     H16094   8.851   6.842  10.137 -1.5557 -0.3381  0.3400
  117MOL0     H16095   8.917   7.058  10.280  0.5213  1.0843  1.1387
  117MOL0     H16096   8.809   7.249  10.485 -0.5331  0.4444  0.4101
  117MOL0     H16097   8.700   7.359  10.413 -1.0893 -1.2860  1.2645
  117MOL0     H16098   8.996   7.313  10.328 -0.1068 -0.6561 -0.1159
  117MOL0     H16099   8.890   7.350  10.206 -2.3697  1.7763  1.2426
  117MOL0     H16100   8.974   7.545  10.257 -0.5621 -4.3313 -1.7326
  117MOL0     H16101   8.801   7.535  10.282 -0.9244 -2.5324 -1.0681
  117MOL0     H16102   8.794   7.533  10.509 -2.3983  3.7227 -4.1352
  117MOL0     H16103   8.953   7.468  10.529  1.4287  0.9782  0.5829
  117MOL0     H16104   9.167   7.598  10.601 -0.7568  2.2270 -1.3714
  117MOL0     H16105   9.282   7.680  10.953 -2.1571  0.5878 -0.2985
  117MOL0     H16106   9.336   7.624  10.796 -1.5562 -0.0666 -0.6736
  117MOL0     H16107   9.252   7.506  10.894 -0.4359 -1.0306 -2.5015
  117MOL0     H16108   8.906   7.524  11.279 -0.2731 -3.6759  2.9804
  117MOL0     H16109   8.948   7.481  11.511  0.2342 -0.8557 -1.1536
  117MOL0     H16110   9.094   7.570  11.738  1.7095  0.8898 -0.9337
  117MOL0     H16111   9.063   7.396  11.751  0.8154 -1.0670  0.6290
  117MOL0     H16112   9.250   7.338  11.853  0.3966  0.0015  1.7746
  117MOL0     H16113   9.318   7.487  11.819  0.6914 -3.3486 -1.9429
  117MOL0     H16114   9.080   7.481  12.013 -0.0350 -1.8138  0.6538
  117MOL0     H16115   9.193   7.616  11.992  1.9641 -0.8650  1.3165
  117MOL0     H16116   9.355   7.498  12.126  0.3569 -0.7752  3.2112
  117MOL0     H16117   9.271   7.339  12.091 -0.1807  0.1352  2.8972
  117MOL0     H16118   9.186   7.576  12.271 -1.5538 -0.5658  1.9232
  117MOL0     H16119   9.073   7.454  12.228  0.1084 -3.1290 -0.2633
  117MOL0     H16120   9.348   7.400  12.377 -0.0523  0.6034 -0.2516
  117MOL0     H16121   9.220   7.285  12.323 -2.1830  0.0042  1.5811
  117MOL0     H16122   9.058   7.379  12.468  0.2013  2.9633 -0.0955
  117MOL0     H16123   9.167   7.509  12.523 -1.1484  0.0084  1.6518
  117MOL0     H16124   9.298   7.367  12.654 -2.2246 -0.3235  3.5250
  117MOL0     H16125   9.242   7.214  12.589 -1.0971 -0.5348 -2.5205
  117MOL0     H16126   9.371   7.480  11.426  0.3510  1.2600 -2.2515
  117MOL0     H16127   9.322   7.560  11.209 -0.5726 -2.9635 -1.3095
  117MOL0     H16128   8.848   7.802  10.913 -1.2794  1.0750 -1.4245
  117MOL0     H16129   8.787   7.762  10.666  0.6500 -0.1835 -2.8825
  117MOL0     H16130   8.723   6.236   9.386  1.1977  0.8031  0.7199
  117MOL0     H16131   8.554   6.076   9.400 -2.3316  2.4562  0.1554
  117MOL0     H16132   8.392   5.709   9.556 -0.1355 -0.9005  0.5293
  117MOL0     H16133   8.275   5.500   9.606 -3.4161 -1.3385  0.2770
  117MOL0     H16134   7.944   5.533   9.908  0.4774  0.4104  1.7124
  117MOL0     H16135   7.943   5.359   9.857  0.2440 -1.5243  3.6834
  117MOL0     H16136   8.176   5.461  10.026 -1.5129 -0.8330  2.7486
  117MOL0     H16137   8.133   5.302   9.981  0.1625  0.0590  0.9161
  117MOL0     H16138   7.925   5.450  10.143 -0.2190  0.3389  2.2797
  117MOL0     H16139   7.933   5.283  10.093 -1.3434 -0.1378  2.7961
  117MOL0     H16140   8.099   5.232  10.257  2.0140  0.5778 -1.4636
  117MOL0     H16141   8.003   5.347  10.339 -0.7984 -1.2279 -0.1087
  117MOL0     H16142   8.404   5.471  10.338  1.1029 -2.3675 -2.5618
  117MOL0     H16143   8.010   5.705   9.882 -0.3107 -0.5825 -1.3425
  117MOL0     H16144   8.185   6.013   9.922 -1.4458  0.4307  3.8061
  117MOL0     H16145   8.035   5.992   9.821  0.7577  1.8921  0.8288
  117MOL0     H16146   8.070   5.901   9.969 -0.3349  1.9694  0.2310
  118MOL0     O16147   4.859   0.357   0.249 -0.6418  0.0287  0.5533
  118MOL0     C16148   4.933   0.437   0.198  0.5993  0.5902 -0.3177
  118MOL0     O16149   4.908   0.503   0.076  0.4509  0.6203  0.0485
  118MOL0     C16150   4.782   0.513   0.026  0.6845 -0.3001 -0.1735
  118MOL0     C16151   4.729   0.635  -0.016  0.9601  0.6457  0.6327
  118MOL0     C16152   4.597   0.644  -0.071  0.6700 -1.3809 -0.2086
  118MOL0     C16153   4.517   0.538  -0.091 -1.1030  0.5863 -0.3239
  118MOL0     O16154   4.389   0.543  -0.141 -0.0317 -0.2312  0.8076
  118MOL0     C16155   4.339   0.672  -0.192  0.5512  0.2067  0.9758
  118MOL0     C16156   4.226   0.625  -0.285  1.4404 -0.5362 -0.2885
  118MOL0     C16157   4.259   0.507  -0.380 -0.2908  1.0217 -0.1527
  118MOL0     C16158   4.142   0.436  -0.449 -0.4201 -1.2003  0.3759
  118MOL0     C16159   4.051   0.532  -0.520  0.1695 -0.7242  0.4933
  118MOL0     C16160   3.967   0.478  -0.638  0.0596 -0.8805 -0.2983
  118MOL0     C16161   3.897   0.345  -0.620  0.6761 -0.5803  0.5005
  118MOL0     C16162   3.844   0.316  -0.758  0.3682  0.0345  0.0891
  118MOL0     N16163   3.800   0.180  -0.777 -0.5041  0.4119  0.1351
  118MOL0     C16164   3.712   0.112  -0.711  0.5449 -0.9593 -0.6923
  118MOL0     C16165   3.725  -0.015  -0.738 -0.0677 -1.3531  0.0703
  118MOL0     C16166   3.638  -0.117  -0.678 -0.5414  0.9057 -0.5425
  118MOL0     C16167   3.700  -0.215  -0.582 -0.4584  0.6855  0.2914
  118MOL0     C16168   3.819  -0.300  -0.639 -0.0872 -0.3702 -0.8505
  118MOL0     C16169   3.861  -0.398  -0.538 -0.1649  0.8185  0.2605
  118MOL0     O16170   3.984  -0.467  -0.579  0.4259 -0.0930 -0.1136
  118MOL0     C16171   4.022  -0.572  -0.504 -0.5408 -0.0789  0.0972
  118MOL0     C16172   4.132  -0.650  -0.543  0.5734  1.3150 -0.1925
  118MOL0     C16173   4.177  -0.762  -0.460  0.5714 -0.5622 -0.0140
  118MOL0     C16174   4.266  -0.860  -0.520  0.2675  0.1576  0.7013
  118MOL0     C16175   4.112  -0.778  -0.332 -0.1822  0.2595 -0.2170
  118MOL0     C16176   4.160  -0.889  -0.238 -0.1243  0.0013 -0.1700
  118MOL0     O16177   4.084  -0.909  -0.123 -0.3122 -0.1555 -0.0963
  118MOL0     C16178   4.099  -1.028  -0.059 -0.6425  0.1576  0.3643
  118MOL0     C16179   4.054  -1.140  -0.135 -0.4505 -0.4250 -0.5716
  118MOL0     C16180   4.059  -1.267  -0.070  0.0757  0.5032 -0.2357
  118MOL0     C16181   4.080  -1.272   0.072  0.5889  0.0072  0.1651
  118MOL0     O16182   4.046  -1.379   0.149  0.1974 -1.0950 -0.3871
  118MOL0     C16183   4.095  -1.508   0.108 -0.0828  0.4102  0.4009
  118MOL0     C16184   4.239  -1.534   0.134  0.0657  0.5642  0.5278
  118MOL0     C16185   4.300  -1.674   0.082  0.4423 -0.1850  0.3704
  118MOL0     C16186   4.241  -1.791   0.173 -0.2613  0.6622 -0.0169
  118MOL0     C16187   4.321  -1.926   0.160  0.1060 -0.1994  0.3114
  118MOL0     C16188   4.287  -1.983   0.017  1.0949  0.4217 -0.7812
  118MOL0     C16189   4.369  -2.103  -0.031  0.0709  0.4092  0.2016
  118MOL0     C16190   4.392  -2.208   0.081  0.3992  0.3125  0.1943
  118MOL0    Cl16191   4.464  -2.355   0.004  0.2190  0.0972  0.5341
  118MOL0     C16192   4.123  -1.160   0.143 -0.1234  0.3523 -0.6139
  118MOL0     C16193   4.137  -1.040   0.071  0.2550 -0.3484 -0.5424
  118MOL0     O16194   4.254  -0.961  -0.272  0.2396 -0.2968 -0.0887
  118MOL0     C16195   4.003  -0.701  -0.295  0.1188  0.1505  0.7286
  118MOL0     C16196   3.960  -0.602  -0.378  0.9763 -0.0053 -0.0976
  118MOL0     N16197   3.826  -0.031  -0.827  0.1222 -0.4402 -0.7787
  118MOL0     N16198   3.861   0.089  -0.858 -0.1434  0.5075 -0.0452
  118MOL0     C16199   4.578   0.417  -0.064 -0.3720 -0.1421  0.1383
  118MOL0     C16200   4.707   0.402  -0.006 -0.0128  0.0311 -0.4575
  118MOL0     C16201   5.054   0.462   0.280 -0.1772  0.9416 -0.5384
  118MOL0     C16202   5.072   0.594   0.293  0.0049 -0.8515  0.4545
  118MOL0     C16203   5.184   0.630   0.372 -1.0927  0.2941 -0.0578
  118MOL0     C16204   5.267   0.530   0.439 -0.1932  0.1461  0.3728
  118MOL0     O16205   5.376   0.568   0.514 -0.2695 -0.3808 -0.9406
  118MOL0     C16206   5.376   0.692   0.580 -0.6772 -0.0279 -0.4933
  118MOL0     C16207   5.468   0.687   0.705  0.3620  0.2241 -0.4417
  118MOL0     C16208   5.410   0.581   0.806  0.2956 -1.2423  0.4703
  118MOL0     C16209   5.516   0.550   0.910  0.6125 -0.0605  0.0079
  118MOL0     C16210   5.566   0.671   0.970 -0.4262 -0.4985 -0.0260
  118MOL0     C16211   5.604   0.766   1.042  0.4027 -0.0979  0.9007
  118MOL0     C16212   5.239   0.397   0.415 -0.3244  0.6943  0.3588
  118MOL0     C16213   5.136   0.356   0.334 -0.3954 -0.2126  0.1598
  118MOL0     C16214   5.103   0.210   0.310 -0.8153 -0.0068 -0.2838
  118MOL0     H16215   4.774   0.732   0.000  1.1217  0.8147 -0.7493
  118MOL0     H16216   4.559   0.745  -0.077  1.9886 -0.8999 -0.6357
  118MOL0     H16217   4.416   0.733  -0.240 -0.0649 -0.1338 -0.5177
  118MOL0     H16218   4.307   0.751  -0.124 -0.9564  2.4601 -2.1232
  118MOL0     H16219   4.139   0.612  -0.220  0.1945 -2.5414 -2.1942
  118MOL0     H16220   4.193   0.709  -0.347  0.4120  1.3018  2.5573
  118MOL0     H16221   4.321   0.557  -0.455  0.8184 -0.2240 -0.1011
  118MOL0     H16222   4.320   0.424  -0.344  0.5383  0.8118 -1.9290
  118MOL0     H16223   4.184   0.360  -0.515  0.1296 -0.9652  0.4478
  118MOL0     H16224   4.089   0.379  -0.372  1.9957 -0.9506  2.3505
  118MOL0     H16225   4.104   0.622  -0.555  0.3724 -1.0661 -0.0909
  118MOL0     H16226   3.988   0.567  -0.438  0.6620  1.7530 -0.1004
  118MOL0     H16227   3.891   0.553  -0.663  2.1249  2.0216  1.4788
  118MOL0     H16228   4.044   0.471  -0.714 -0.1332 -3.4536 -0.3466
  118MOL0     H16229   3.817   0.346  -0.545 -2.7045 -0.1435 -2.7924
  118MOL0     H16230   3.973   0.279  -0.577  0.5398  1.1163  3.6479
  118MOL0     H16231   3.761   0.378  -0.793  0.1334  0.4159  1.2719
  118MOL0     H16232   3.932   0.331  -0.821  1.4834 -0.5685  1.4274
  118MOL0     H16233   3.639   0.144  -0.637  0.6825 -1.8488 -0.1471
  118MOL0     H16234   3.599  -0.174  -0.763  0.0762  1.6447 -1.3432
  118MOL0     H16235   3.561  -0.078  -0.610 -0.4079 -0.0195  0.1533
  118MOL0     H16236   3.718  -0.167  -0.486 -1.4801  1.5309  0.0859
  118MOL0     H16237   3.629  -0.296  -0.565  2.0244 -1.7649 -0.2297
  118MOL0     H16238   3.790  -0.348  -0.733  1.3915 -2.4306 -0.3538
  118MOL0     H16239   3.901  -0.234  -0.670 -0.3092  0.9576  1.2646
  118MOL0     H16240   3.880  -0.340  -0.447  0.3838  2.1565 -0.6731
  118MOL0     H16241   3.777  -0.465  -0.513  1.9376 -0.5946  4.5631
  118MOL0     H16242   4.180  -0.623  -0.637  1.3515 -0.6207 -0.4139
  118MOL0     H16243   4.364  -0.858  -0.471  0.2573 -2.5437  0.9650
  118MOL0     H16244   4.272  -0.842  -0.627 -0.7185  1.3889  0.8310
  118MOL0     H16245   4.225  -0.960  -0.500  1.4766 -0.0024  2.6421
  118MOL0     H16246   4.032  -1.129  -0.241 -0.7154 -1.9326 -0.7017
  118MOL0     H16247   4.031  -1.355  -0.126 -1.2255  1.0487 -0.4798
  118MOL0     H16248   4.031  -1.577   0.164  0.4358  1.8880  2.9550
  118MOL0     H16249   4.077  -1.507  -0.000  1.2895 -0.7722  0.1253
  118MOL0     H16250   4.294  -1.447   0.097  0.9841  0.6506  2.0387
  118MOL0     H16251   4.257  -1.512   0.239 -0.1565  3.1286  0.0881
  118MOL0     H16252   4.408  -1.664   0.095  0.2303  3.3401  0.4387
  118MOL0     H16253   4.277  -1.700  -0.022 -0.0724 -1.0336  0.6899
  118MOL0     H16254   4.136  -1.801   0.146 -0.2676 -2.5054  0.7620
  118MOL0     H16255   4.250  -1.756   0.276 -1.2911  0.6417  0.0874
  118MOL0     H16256   4.430  -1.922   0.164  0.4276 -4.0845 -0.3907
  118MOL0     H16257   4.286  -1.990   0.242  3.1731 -1.4656  0.7805
  118MOL0     H16258   4.300  -1.903  -0.056  3.5484  1.4602  0.6651
  118MOL0     H16259   4.186  -2.024   0.023  1.4448 -0.6951 -2.0264
  118MOL0     H16260   4.465  -2.063  -0.066 -0.2148  0.0685 -1.0239
  118MOL0     H16261   4.323  -2.149  -0.119  1.1398  0.1346 -0.2318
  118MOL0     H16262   4.297  -2.246   0.119  1.3535 -3.1537 -0.5946
  118MOL0     H16263   4.461  -2.149   0.143 -1.6314  1.8171  1.1458
  118MOL0     H16264   4.129  -1.168   0.251 -1.4824 -1.0100 -0.6056
  118MOL0     H16265   4.165  -0.944   0.112 -1.0745 -0.3763  0.5323
  118MOL0     H16266   3.960  -0.701  -0.196 -0.3141  1.4503  0.5601
  118MOL0     H16267   3.877  -0.540  -0.344  1.1733  0.2968 -0.1585
  118MOL0     H16268   4.518   0.333  -0.095 -3.2575  1.0146  2.2147
  118MOL0     H16269   4.751   0.307   0.024  0.4988  0.7882  1.2609
  118MOL0     H16270   5.011   0.670   0.246 -0.8937 -2.1429 -0.5307
  118MOL0     H16271   5.222   0.729   0.393  1.8684 -0.6419 -0.4963
  118MOL0     H16272   5.400   0.779   0.518 -2.5315  0.4141 -0.6509
  118MOL0     H16273   5.276   0.706   0.623 -1.0475 -3.2340 -0.0652
  118MOL0     H16274   5.479   0.791   0.740  1.1339 -0.7861  2.6928
  118MOL0     H16275   5.564   0.650   0.667  0.0952  1.4492 -2.4370
  118MOL0     H16276   5.328   0.631   0.859 -0.0830 -1.2066 -0.1393
  118MOL0     H16277   5.370   0.494   0.753 -2.7017  1.6973 -2.6151
  118MOL0     H16278   5.603   0.506   0.861 -0.1575 -0.7556 -0.7786
  118MOL0     H16279   5.482   0.478   0.984  2.2293 -2.9654 -1.8760
  118MOL0     H16280   5.635   0.846   1.106  0.4905  1.1520 -0.6381
  118MOL0     H16281   5.298   0.320   0.466 -1.2618  0.2590  0.8178
  118MOL0     H16282   5.010   0.183   0.361 -2.5473  1.0976 -2.6765
  118MOL0     H16283   5.076   0.188   0.206 -0.9627 -3.1384  0.3020
  118MOL0     H16284   5.193   0.148   0.323 -0.5401 -0.1142 -2.3504
  119MOL0     O16285   5.137   5.452   3.738 -0.9302  0.3621  0.0349
  119MOL0     C16286   5.022   5.468   3.706 -0.1564 -0.6456  1.3996
  119MOL0     O16287   4.920   5.387   3.741  0.0975 -0.0086 -0.5233
  119MOL0     C16288   4.933   5.298   3.837  0.1493  0.7679  0.2253
  119MOL0     C16289   4.866   5.313   3.958 -0.0684  0.1166 -0.2605
  119MOL0     C16290   4.873   5.216   4.058  0.1618  1.8384  0.5950
  119MOL0     C16291   4.957   5.107   4.048  0.6066 -0.8731 -0.1137
  119MOL0     O16292   4.958   5.014   4.139  0.0925 -0.1140 -0.0300
  119MOL0     C16293   5.075   4.942   4.174 -0.4915  0.2026  0.2052
  119MOL0     C16294   5.045   4.834   4.281  0.2855 -0.6744  1.0354
  119MOL0     C16295   4.947   4.720   4.235 -1.0740  0.6153 -0.5752
  119MOL0     C16296   4.800   4.765   4.269  0.2700  0.5477 -0.1767
  119MOL0     C16297   4.701   4.654   4.224  0.5660 -0.0764 -0.0354
  119MOL0     C16298   4.567   4.724   4.168 -1.1165 -0.0600 -0.3153
  119MOL0     C16299   4.572   4.848   4.072 -0.8326  0.5933  0.4713
  119MOL0     C16300   4.578   4.987   4.126 -0.2890  0.1240 -0.9235
  119MOL0     N16301   4.505   5.004   4.253 -0.4251 -0.8309 -0.0550
  119MOL0     C16302   4.576   5.003   4.371  0.6225 -0.3906  0.2749
  119MOL0     C16303   4.485   4.952   4.460  0.3099  0.1217 -0.3595
  119MOL0     C16304   4.507   4.929   4.599  0.8258 -0.5071 -0.5385
  119MOL0     C16305   4.539   5.068   4.676 -0.4829 -0.4935  0.6218
  119MOL0     C16306   4.573   5.054   4.825  0.1585  0.5134  0.6340
  119MOL0     C16307   4.641   5.181   4.877 -0.0335  0.3397  0.2727
  119MOL0     O16308   4.567   5.302   4.859 -0.7558  0.6833  1.0581
  119MOL0     C16309   4.626   5.405   4.925  0.0997  0.1147 -0.3212
  119MOL0     C16310   4.556   5.487   5.010 -0.0441  0.2505  0.3975
  119MOL0     C16311   4.613   5.594   5.068 -0.5737 -0.1826 -0.3648
  119MOL0     C16312   4.519   5.692   5.145 -0.7204 -0.2079  0.3596
  119MOL0     C16313   4.755   5.624   5.052  1.1155  0.8500  0.6105
  119MOL0     C16314   4.833   5.720   5.131 -1.0198 -0.0213 -0.2840
  119MOL0     O16315   4.964   5.745   5.085 -0.4504 -0.8550  0.2279
  119MOL0     C16316   5.029   5.857   5.128  0.5903  0.7099  1.2639
  119MOL0     C16317   4.967   5.981   5.093  0.3476  1.0411  0.0121
  119MOL0     C16318   5.011   6.101   5.149 -0.1292 -0.8228 -0.3042
  119MOL0     C16319   5.129   6.107   5.220  0.4145 -0.8675  0.0362
  119MOL0     O16320   5.199   6.212   5.265  0.0735 -0.9760 -0.1978
  119MOL0     C16321   5.144   6.339   5.244 -0.5601 -0.2667  0.1108
  119MOL0     C16322   5.251   6.439   5.297  0.1485  0.4749 -0.5709
  119MOL0     C16323   5.337   6.503   5.189  1.0498  1.0493  0.7373
  119MOL0     C16324   5.454   6.585   5.253 -0.4665  0.1687  0.2960
  119MOL0     C16325   5.503   6.691   5.155  0.1767  0.2935  0.2939
  119MOL0     C16326   5.631   6.754   5.205 -0.0759 -0.6031 -0.3302
  119MOL0     C16327   5.750   6.658   5.229  0.8050  0.1068  0.1708
  119MOL0     C16328   5.865   6.728   5.305  0.2029 -0.0944  0.4789
  119MOL0    Cl16329   6.022   6.654   5.299  0.0068 -0.0446  0.4178
  119MOL0     C16330   5.193   5.984   5.256  0.5595 -0.0799 -0.4051
  119MOL0     C16331   5.141   5.859   5.214  0.8457 -0.2281 -0.5075
  119MOL0     O16332   4.781   5.775   5.229 -0.3608 -0.3695  0.0796
  119MOL0     C16333   4.825   5.543   4.961 -0.0073 -0.5676 -0.3673
  119MOL0     C16334   4.762   5.438   4.897 -0.5052 -0.6238  0.5312
  119MOL0     N16335   4.356   4.945   4.405 -0.0553  0.4946  0.5816
  119MOL0     N16336   4.366   4.991   4.282 -0.6883  0.3044 -0.0011
  119MOL0     C16337   5.033   5.093   3.931  0.4305  1.1018 -0.2115
  119MOL0     C16338   5.016   5.180   3.822 -0.1830  0.7992 -0.3477
  119MOL0     C16339   4.984   5.582   3.621  0.9280  0.2378 -0.6111
  119MOL0     C16340   4.850   5.618   3.630  0.8800  0.0746  0.3917
  119MOL0     C16341   4.804   5.738   3.565 -0.3643 -0.8497 -0.1273
  119MOL0     C16342   4.886   5.816   3.490  0.9301 -1.3570  0.1726
  119MOL0     O16343   4.844   5.929   3.413 -0.3178  0.7059  0.7471
  119MOL0     C16344   4.728   5.896   3.334  0.0518  0.8694 -0.0888
  119MOL0     C16345   4.756   5.797   3.215 -1.1866  0.1780 -0.3452
  119MOL0     C16346   4.850   5.865   3.113 -0.4402  0.9109 -0.3255
  119MOL0     C16347   4.865   5.774   2.987  0.2981  0.1102 -0.1998
  119MOL0     C16348   4.946   5.846   2.894  0.0902  1.0758 -0.5847
  119MOL0     C16349   5.005   5.916   2.814 -0.1637  0.4001  0.3246
  119MOL0     C16350   5.020   5.785   3.479  0.3487 -0.5041  0.7067
  119MOL0     C16351   5.069   5.667   3.543  0.1444 -0.1011 -0.1528
  119MOL0     C16352   5.214   5.637   3.510 -0.5148  0.2469 -0.5887
  119MOL0     H16353   4.814   5.405   3.984 -1.7306 -0.6067 -0.9125
  119MOL0     H16354   4.808   5.223   4.144 -0.3203  0.1568  0.4056
  119MOL0     H16355   5.135   5.009   4.236 -1.3026 -0.2440  1.5226
  119MOL0     H16356   5.125   4.889   4.093 -2.5755 -1.1868 -0.2488
  119MOL0     H16357   5.145   4.801   4.311  2.2571  1.2067 -2.7257
  119MOL0     H16358   5.007   4.875   4.375 -2.2091  0.5196 -0.3922
  119MOL0     H16359   4.959   4.707   4.127 -0.4190 -2.0819 -0.2354
  119MOL0     H16360   4.968   4.627   4.288  0.3962  0.1644 -1.8910
  119MOL0     H16361   4.785   4.780   4.377  1.1790  0.5495 -0.0410
  119MOL0     H16362   4.789   4.860   4.218 -0.3827 -0.0620 -1.2161
  119MOL0     H16363   4.695   4.581   4.306 -1.4788  1.7096  1.5402
  119MOL0     H16364   4.739   4.596   4.140  3.2815  1.0558  0.3124
  119MOL0     H16365   4.504   4.652   4.114  0.0249 -0.0932 -1.6792
  119MOL0     H16366   4.510   4.745   4.259  0.4537 -0.2069  0.7370
  119MOL0     H16367   4.481   4.835   4.013  0.7287  1.3449 -2.2541
  119MOL0     H16368   4.660   4.834   4.009 -0.8466  1.1258  0.3314
  119MOL0     H16369   4.685   5.008   4.135 -0.1953  0.3741 -2.3806
  119MOL0     H16370   4.544   5.060   4.052  0.4798  2.0302  0.4878
  119MOL0     H16371   4.682   5.019   4.386  0.9448 -1.9601 -0.1933
  119MOL0     H16372   4.583   4.854   4.621  2.3943  0.8077 -1.2662
  119MOL0     H16373   4.413   4.895   4.643  0.1046 -0.5651 -2.0290
  119MOL0     H16374   4.625   5.113   4.626 -1.6992  0.9910 -0.2202
  119MOL0     H16375   4.463   5.139   4.644  2.1674  0.4775 -4.7678
  119MOL0     H16376   4.487   5.022   4.884  0.3813 -2.9728 -0.7168
  119MOL0     H16377   4.638   4.968   4.843 -1.5259 -1.2995 -1.3966
  119MOL0     H16378   4.667   5.160   4.981  0.8360 -1.9180 -0.3417
  119MOL0     H16379   4.737   5.182   4.824 -1.2204  4.6171 -2.2352
  119MOL0     H16380   4.452   5.459   5.018  0.2723 -3.1253 -3.4202
  119MOL0     H16381   4.501   5.664   5.249 -0.5654 -0.9256  0.1974
  119MOL0     H16382   4.426   5.698   5.088 -1.5077  3.2412  1.7152
  119MOL0     H16383   4.564   5.792   5.138  0.2828 -0.6425  0.3278
  119MOL0     H16384   4.881   5.973   5.027 -2.3327  0.0765  3.3445
  119MOL0     H16385   4.965   6.191   5.112  0.0879 -1.5938 -2.5712
  119MOL0     H16386   5.103   6.379   5.150 -3.6781  0.0722  1.5012
  119MOL0     H16387   5.061   6.344   5.314 -0.4686 -0.1611  0.2100
  119MOL0     H16388   5.186   6.515   5.343  1.9239  0.3369  2.4172
  119MOL0     H16389   5.318   6.400   5.374 -0.1459  0.2288 -0.4328
  119MOL0     H16390   5.265   6.562   5.132  0.9776  0.3039  0.0432
  119MOL0     H16391   5.389   6.432   5.124  1.5910  0.0250  2.2316
  119MOL0     H16392   5.537   6.518   5.280  2.4848  3.1155 -0.7557
  119MOL0     H16393   5.416   6.627   5.347 -2.4878 -0.2941 -0.2775
  119MOL0     H16394   5.515   6.648   5.055 -0.4029  0.0178  0.3416
  119MOL0     H16395   5.429   6.771   5.148 -1.0453 -0.8412 -0.0635
  119MOL0     H16396   5.608   6.807   5.298  0.4781 -0.8804 -0.0251
  119MOL0     H16397   5.666   6.827   5.132  3.5481  2.0035  3.5250
  119MOL0     H16398   5.784   6.627   5.130 -0.4396  0.5824 -0.4373
  119MOL0     H16399   5.729   6.585   5.307  0.9034  0.1074  0.1977
  119MOL0     H16400   5.830   6.742   5.408 -3.7330  0.1949 -0.7653
  119MOL0     H16401   5.880   6.827   5.261  0.4501 -0.0340  0.6957
  119MOL0     H16402   5.290   5.998   5.303 -0.5213  0.5630  1.7950
  119MOL0     H16403   5.188   5.765   5.239  0.6513 -0.3903 -0.7463
  119MOL0     H16404   4.931   5.553   4.940  0.3044 -0.8565  1.0090
  119MOL0     H16405   4.831   5.369   4.849 -0.3499 -1.7075  2.2084
  119MOL0     H16406   5.088   5.000   3.915 -0.0754  0.8925 -0.7349
  119MOL0     H16407   5.076   5.175   3.731  0.4497 -1.5163  0.1483
  119MOL0     H16408   4.778   5.550   3.673  1.4743 -0.9392 -0.1683
  119MOL0     H16409   4.697   5.751   3.562 -0.0450  2.6789  0.2836
  119MOL0     H16410   4.648   5.872   3.404  1.0810  0.8224  1.1277
  119MOL0     H16411   4.695   5.993   3.297  2.2743  1.5535 -0.4771
  119MOL0     H16412   4.658   5.781   3.169 -1.1573  2.2919 -1.3011
  119MOL0     H16413   4.800   5.703   3.249  1.6718  0.6715 -2.2678
  119MOL0     H16414   4.819   5.969   3.102  2.2688  1.9725  1.2920
  119MOL0     H16415   4.951   5.883   3.148 -0.5798  2.9149 -0.8623
  119MOL0     H16416   4.767   5.755   2.942  0.1321 -1.0940  0.6020
  119MOL0     H16417   4.917   5.681   3.013 -2.2214 -1.8411 -1.6267
  119MOL0     H16418   5.063   5.981   2.751  0.1486 -0.2203 -0.0264
  119MOL0     H16419   5.088   5.846   3.421  0.4303 -1.4292 -0.2167
  119MOL0     H16420   5.287   5.691   3.571  0.6575 -1.9464  0.0912
  119MOL0     H16421   5.236   5.531   3.526  0.4040  0.7212  1.8167
  119MOL0     H16422   5.243   5.656   3.406  1.9547  1.5212  0.2438
  120MOL0     O16423   3.939   2.616   4.574  0.3165 -0.1676 -0.1868
  120MOL0     C16424   3.929   2.733   4.587  0.3047  0.1183 -0.0601
  120MOL0     O16425   4.028   2.822   4.552  0.4408  0.2192 -0.5123
  120MOL0     C16426   4.123   2.799   4.450  1.1124  0.3413 -0.8397
  120MOL0     C16427   4.244   2.869   4.454 -0.8714 -0.9852 -0.2293
  120MOL0     C16428   4.352   2.839   4.367 -0.1250 -0.7361  0.5155
  120MOL0     C16429   4.344   2.743   4.266  0.7390  0.2017  0.2006
  120MOL0     O16430   4.442   2.690   4.185  0.3139  0.2100 -0.7197
  120MOL0     C16431   4.555   2.785   4.159 -0.3586 -0.3546  0.2221
  120MOL0     C16432   4.520   2.925   4.110 -1.0439  0.3918 -0.2845
  120MOL0     C16433   4.646   3.006   4.084 -0.3813 -0.9588 -0.1404
  120MOL0     C16434   4.608   3.146   4.056  0.2355 -0.2164  0.7652
  120MOL0     C16435   4.725   3.249   4.069  0.0155  0.1722  0.5825
  120MOL0     C16436   4.695   3.369   3.988 -0.6813 -0.3859  0.4389
  120MOL0     C16437   4.830   3.450   3.972 -0.7090  0.0417 -1.0310
  120MOL0     C16438   4.872   3.523   4.101 -0.2453 -0.5502  0.5084
  120MOL0     N16439   5.003   3.467   4.132 -0.5633 -0.4711 -0.1386
  120MOL0     C16440   5.130   3.509   4.085 -1.4759 -0.5570 -0.2469
  120MOL0     C16441   5.218   3.423   4.156 -0.7662 -0.3160 -0.8387
  120MOL0     C16442   5.365   3.408   4.125 -0.8925 -0.1193  0.8735
  120MOL0     C16443   5.454   3.457   4.234 -0.1297  0.2209  0.3722
  120MOL0     C16444   5.444   3.608   4.271  0.3352  0.1120 -0.6647
  120MOL0     C16445   5.504   3.698   4.173  0.5860 -0.0610 -0.7864
  120MOL0     O16446   5.435   3.818   4.202  0.3996 -0.3677  0.5994
  120MOL0     C16447   5.494   3.923   4.148  0.2340 -0.0227 -0.0064
  120MOL0     C16448   5.483   3.962   4.016  0.0167  0.1114  0.6971
  120MOL0     C16449   5.562   4.072   3.972  0.1324  1.0587 -0.6889
  120MOL0     C16450   5.545   4.134   3.839  0.1608  0.3791  0.2662
  120MOL0     C16451   5.657   4.126   4.055 -0.1032 -0.4727 -0.1632
  120MOL0     C16452   5.751   4.230   4.014 -0.4900 -1.2007 -0.0342
  120MOL0     O16453   5.757   4.336   4.104 -0.4453 -0.1893  0.2527
  120MOL0     C16454   5.860   4.428   4.097  0.0943 -0.6457  0.3666
  120MOL0     C16455   5.817   4.562   4.101 -0.0622  0.3176 -0.2435
  120MOL0     C16456   5.924   4.662   4.098  1.1254 -1.2255 -0.0349
  120MOL0     C16457   6.053   4.633   4.088  0.2812  0.3503 -0.2305
  120MOL0     O16458   6.144   4.735   4.106  1.1233  0.4286 -0.4486
  120MOL0     C16459   6.281   4.697   4.121 -1.4658 -1.1683  0.3730
  120MOL0     C16460   6.343   4.824   4.180  1.0783  0.6825 -0.1758
  120MOL0     C16461   6.492   4.833   4.154  0.1119  0.1608 -0.1610
  120MOL0     C16462   6.531   4.978   4.129 -0.5045  0.5202  0.9139
  120MOL0     C16463   6.687   5.008   4.102  0.7085 -0.6803 -0.4861
  120MOL0     C16464   6.778   4.973   4.221 -0.2104 -0.1649  0.8561
  120MOL0     C16465   6.767   5.071   4.340  0.0807  1.1834  0.2152
  120MOL0     C16466   6.833   5.007   4.461 -0.7915  0.1056 -0.1833
  120MOL0    Cl16467   7.010   5.005   4.435 -0.0239 -0.2350  0.2595
  120MOL0     C16468   6.086   4.501   4.063  0.0323  0.3179 -0.4874
  120MOL0     C16469   5.995   4.397   4.084  0.1174 -0.0345  0.7364
  120MOL0     O16470   5.817   4.230   3.907  0.9944 -0.3624  0.6508
  120MOL0     C16471   5.685   4.065   4.178 -1.1200  1.7289  0.2960
  120MOL0     C16472   5.603   3.971   4.227  0.4513 -0.1612  0.0679
  120MOL0     N16473   5.155   3.377   4.266  0.4781  0.0227  0.1731
  120MOL0     N16474   5.022   3.388   4.242 -1.5351 -0.5711  0.4099
  120MOL0     C16475   4.221   2.676   4.269  0.1978  0.3805  0.0363
  120MOL0     C16476   4.118   2.689   4.363 -0.0308 -0.1965 -0.1277
  120MOL0     C16477   3.814   2.777   4.679 -0.8702  0.2349  0.4799
  120MOL0     C16478   3.826   2.903   4.747 -0.0141  0.0048  0.1877
  120MOL0     C16479   3.723   2.956   4.822  0.3375 -0.8190 -0.6833
  120MOL0     C16480   3.599   2.892   4.841 -0.3239 -0.8889 -0.1058
  120MOL0     O16481   3.492   2.926   4.924  0.2080  0.3368 -0.3305
  120MOL0     C16482   3.493   3.046   5.001  0.3732  0.2444 -0.5952
  120MOL0     C16483   3.356   3.063   5.044  0.7209 -0.6674  0.2002
  120MOL0     C16484   3.324   3.201   5.106  0.4089 -0.6130  0.0780
  120MOL0     C16485   3.402   3.237   5.231 -0.2046  0.5474 -0.5983
  120MOL0     C16486   3.377   3.369   5.290  0.2696  0.7819  0.2296
  120MOL0     C16487   3.361   3.479   5.339  0.5125 -0.7308 -0.2256
  120MOL0     C16488   3.585   2.769   4.773  0.0583  0.7249  0.0456
  120MOL0     C16489   3.691   2.700   4.693 -1.0940  0.6937 -0.5106
  120MOL0     C16490   3.664   2.563   4.622 -0.2244  0.2288 -0.2444
  120MOL0     H16491   4.268   2.943   4.530 -0.8324 -1.8940  0.6668
  120MOL0     H16492   4.447   2.885   4.391 -0.3542  0.6886 -1.0926
  120MOL0     H16493   4.621   2.742   4.083 -0.5340 -2.1811  1.0465
  120MOL0     H16494   4.605   2.810   4.253 -1.4997  0.1200  0.7091
  120MOL0     H16495   4.454   2.914   4.023 -0.1311  2.9549 -1.4066
  120MOL0     H16496   4.467   2.983   4.186 -0.4257 -0.0603  0.4990
  120MOL0     H16497   4.696   3.010   4.181  1.1792  1.9597 -0.9271
  120MOL0     H16498   4.711   2.960   4.009 -3.3965 -1.7391 -2.4522
  120MOL0     H16499   4.583   3.147   3.949 -1.4726  1.2023  1.1396
  120MOL0     H16500   4.519   3.185   4.106 -1.4810 -0.3877 -1.9120
  120MOL0     H16501   4.815   3.199   4.032 -1.5922  0.1133 -3.7755
  120MOL0     H16502   4.739   3.263   4.177 -2.6194  0.5958  0.9439
  120MOL0     H16503   4.665   3.339   3.888 -0.2858  1.4857 -0.2932
  120MOL0     H16504   4.627   3.436   4.042  0.4313 -0.2043  1.6864
  120MOL0     H16505   4.814   3.532   3.901  1.6105  0.7960 -0.7763
  120MOL0     H16506   4.911   3.401   3.917  1.6218  1.2721  1.0868
  120MOL0     H16507   4.885   3.631   4.088  0.9854 -0.6299  0.9105
  120MOL0     H16508   4.805   3.509   4.185  0.9600  1.4289  1.9000
  120MOL0     H16509   5.146   3.591   4.016 -2.2653  1.0508  1.4245
  120MOL0     H16510   5.399   3.470   4.041  0.2576 -0.5187  1.0262
  120MOL0     H16511   5.382   3.303   4.099  2.0217  0.0665  1.7270
  120MOL0     H16512   5.432   3.404   4.327  0.8096 -0.3100  0.3063
  120MOL0     H16513   5.559   3.447   4.204  0.8130  3.6050  2.0228
  120MOL0     H16514   5.338   3.635   4.276  0.0566 -0.9301 -0.6423
  120MOL0     H16515   5.487   3.630   4.369  2.7417 -2.4136 -1.0182
  120MOL0     H16516   5.613   3.704   4.168  0.4915  2.1725 -5.3997
  120MOL0     H16517   5.479   3.657   4.074 -0.3063  0.3855 -0.7551
  120MOL0     H16518   5.424   3.909   3.942  0.5676 -1.4628  1.3200
  120MOL0     H16519   5.544   4.243   3.832 -0.7093  0.2882 -2.4600
  120MOL0     H16520   5.455   4.100   3.786  0.8596  1.8838 -2.0771
  120MOL0     H16521   5.629   4.104   3.776  0.2212  1.0840  0.0055
  120MOL0     H16522   5.711   4.587   4.100 -0.3334 -0.7595  0.1769
  120MOL0     H16523   5.906   4.769   4.106  2.8226 -1.0073  1.4227
  120MOL0     H16524   6.299   4.612   4.188  1.0896 -1.1491 -0.1562
  120MOL0     H16525   6.321   4.674   4.021  0.5123 -2.0752  1.3075
  120MOL0     H16526   6.286   4.913   4.149 -0.0718  0.7976  2.0461
  120MOL0     H16527   6.327   4.817   4.288  0.0211 -0.6065 -0.3877
  120MOL0     H16528   6.529   4.769   4.073 -1.1862 -2.0817  0.8997
  120MOL0     H16529   6.543   4.795   4.244  3.0146  1.7792 -0.9850
  120MOL0     H16530   6.506   5.044   4.212 -1.5960 -0.8218  1.6824
  120MOL0     H16531   6.468   4.997   4.041 -1.2256  0.1202  1.3368
  120MOL0     H16532   6.731   4.965   4.012  1.7888 -0.8024  0.0799
  120MOL0     H16533   6.690   5.117   4.096  3.0617 -0.7340 -0.9979
  120MOL0     H16534   6.883   4.991   4.194  0.6477  0.6989  4.3044
  120MOL0     H16535   6.763   4.870   4.251 -1.7450 -0.0586  0.5306
  120MOL0     H16536   6.662   5.080   4.370 -0.2505 -1.0487 -0.0883
  120MOL0     H16537   6.813   5.168   4.323  1.7091  0.3210 -0.5782
  120MOL0     H16538   6.803   4.906   4.490  1.1974  0.2139  2.7176
  120MOL0     H16539   6.808   5.073   4.545 -3.7225 -3.5333  2.1064
  120MOL0     H16540   6.184   4.469   4.028 -0.8783 -0.8108 -2.1483
  120MOL0     H16541   6.021   4.292   4.081 -0.4909 -0.1812 -1.8793
  120MOL0     H16542   5.765   4.088   4.247 -0.1170  0.2014 -0.3041
  120MOL0     H16543   5.638   3.921   4.317  1.6933  0.5037 -0.0323
  120MOL0     H16544   4.206   2.599   4.194 -0.5949  0.0668  0.5096
  120MOL0     H16545   4.025   2.635   4.350 -0.8041  0.9168  0.6359
  120MOL0     H16546   3.920   2.956   4.737  2.1648 -3.7318 -1.2357
  120MOL0     H16547   3.742   3.047   4.878 -0.7923 -0.2072 -1.2676
  120MOL0     H16548   3.557   3.035   5.089  0.7139  1.3975 -0.6894
  120MOL0     H16549   3.538   3.124   4.939  2.9261 -0.1228  0.6467
  120MOL0     H16550   3.335   2.984   5.117  1.0332 -3.9044 -2.9097
  120MOL0     H16551   3.300   3.053   4.951 -0.5029 -1.1741  0.9700
  120MOL0     H16552   3.344   3.281   5.034  5.1555  0.5756  2.3655
  120MOL0     H16553   3.219   3.201   5.137  0.2306 -1.8369 -0.4774
  120MOL0     H16554   3.508   3.228   5.205 -0.6404 -0.3167 -2.2305
  120MOL0     H16555   3.386   3.150   5.296  0.7135  0.5078 -0.4044
  120MOL0     H16556   3.360   3.578   5.379  0.5484 -0.1187 -1.6841
  120MOL0     H16557   3.492   2.714   4.779 -0.2509  0.7165 -3.0811
  120MOL0     H16558   3.663   2.586   4.515  0.8162 -0.2070 -0.3554
  120MOL0     H16559   3.738   2.487   4.645  0.7903  1.5229  0.9765
  120MOL0     H16560   3.566   2.524   4.651  0.7759 -0.2119  2.9248
  121MOL0     O16561   8.731   1.398   4.357 -0.0047  0.4998  0.5038
  121MOL0     C16562   8.788   1.457   4.263  0.5410  0.2230 -0.6764
  121MOL0     O16563   8.774   1.580   4.218 -0.1491 -0.8453 -0.3979
  121MOL0     C16564   8.686   1.662   4.274 -0.1793 -1.2997 -1.0168
  121MOL0     C16565   8.543   1.639   4.298 -0.3430  0.8192 -0.1473
  121MOL0     C16566   8.477   1.723   4.393 -0.2000  0.4061 -0.2530
  121MOL0     C16567   8.546   1.822   4.455  0.5653 -0.5621 -1.2374
  121MOL0     O16568   8.498   1.893   4.567  0.1862  0.0283 -0.4069
  121MOL0     C16569   8.368   1.874   4.610 -0.1894  0.1508 -0.0848
  121MOL0     C16570   8.350   1.992   4.704  0.4727 -1.6466  0.5472
  121MOL0     C16571   8.322   2.111   4.620  0.3226 -0.3270  0.0595
  121MOL0     C16572   8.445   2.205   4.620  0.1706 -0.0583 -0.2076
  121MOL0     C16573   8.421   2.333   4.532 -0.6698 -0.1535 -0.9158
  121MOL0     C16574   8.374   2.294   4.397 -0.4031  0.5346 -0.0281
  121MOL0     C16575   8.389   2.406   4.293  0.8939 -0.6753  0.0959
  121MOL0     C16576   8.337   2.375   4.157  0.5233 -0.1735 -0.2844
  121MOL0     N16577   8.359   2.500   4.075  0.3626  0.3888 -0.0617
  121MOL0     C16578   8.259   2.554   3.987 -0.7080  0.5721  0.6932
  121MOL0     C16579   8.299   2.682   3.981  0.6124 -1.7880  0.6909
  121MOL0     C16580   8.216   2.789   3.920 -0.2295  0.1093  0.4130
  121MOL0     C16581   8.131   2.852   4.026 -0.1868 -0.0138  0.2363
  121MOL0     C16582   8.050   2.985   3.981 -0.8453  0.3897  0.0196
  121MOL0     C16583   7.992   3.068   4.097 -0.2124 -0.5743  0.4691
  121MOL0     O16584   8.084   3.179   4.120  0.0805  0.3011  0.1050
  121MOL0     C16585   8.098   3.235   4.247 -0.1004  0.2423 -0.1820
  121MOL0     C16586   8.145   3.365   4.250  1.1161 -0.1344 -0.5152
  121MOL0     C16587   8.161   3.427   4.378 -1.1693  1.0390 -0.3277
  121MOL0     C16588   8.257   3.549   4.365 -0.0964 -0.5228 -0.0700
  121MOL0     C16589   8.109   3.372   4.504 -0.6351  0.7455  0.2413
  121MOL0     C16590   8.107   3.427   4.637 -0.0741  0.0262  0.2215
  121MOL0     O16591   8.068   3.342   4.743 -0.5129 -0.4005 -0.6425
  121MOL0     C16592   8.071   3.397   4.868 -0.9262 -0.6991  0.3773
  121MOL0     C16593   7.958   3.396   4.951  0.2929 -0.0752 -0.4275
  121MOL0     C16594   7.974   3.451   5.076 -0.5271  0.1877  0.3857
  121MOL0     C16595   8.092   3.507   5.131 -0.2828 -0.6395 -0.1572
  121MOL0     O16596   8.089   3.557   5.264  0.2229  0.5001  0.0165
  121MOL0     C16597   8.207   3.564   5.334 -1.3071 -0.9124  0.1133
  121MOL0     C16598   8.181   3.625   5.475 -0.6394  0.0935  0.0490
  121MOL0     C16599   8.065   3.549   5.552  0.0621  0.2166  0.2339
  121MOL0     C16600   8.074   3.577   5.705  0.9246  0.1040  0.2959
  121MOL0     C16601   7.961   3.502   5.775 -0.0555 -0.5443  0.8911
  121MOL0     C16602   7.946   3.545   5.925 -0.2610  0.2729 -0.0361
  121MOL0     C16603   7.834   3.491   6.014 -0.4557 -0.1041  0.6608
  121MOL0     C16604   7.833   3.333   6.028 -0.1546  0.3283 -0.2044
  121MOL0    Cl16605   7.695   3.306   6.119 -0.0315 -0.2876  0.0921
  121MOL0     C16606   8.207   3.506   5.051  0.4287  0.3306  0.8672
  121MOL0     C16607   8.189   3.462   4.920 -0.0219 -0.0136  0.0189
  121MOL0     O16608   8.146   3.542   4.632 -0.1890  0.6241 -0.0966
  121MOL0     C16609   8.057   3.242   4.485  1.1837  0.2925 -0.9861
  121MOL0     C16610   8.061   3.169   4.369 -0.3602  1.0098  0.2290
  121MOL0     N16611   8.419   2.706   4.030 -0.0971 -0.7465 -0.4880
  121MOL0     N16612   8.459   2.593   4.090  0.4647  0.0785  0.1552
  121MOL0     C16613   8.683   1.842   4.435  0.4738 -0.5164  0.9855
  121MOL0     C16614   8.752   1.765   4.346  0.8414 -0.7086 -0.5518
  121MOL0     C16615   8.875   1.385   4.169 -0.9593 -0.7707 -0.9910
  121MOL0     C16616   8.831   1.256   4.142 -0.2432 -0.9240  0.2592
  121MOL0     C16617   8.905   1.166   4.055  0.4031 -0.1197 -0.9520
  121MOL0     C16618   9.022   1.213   3.998  0.0322 -1.4430 -0.2477
  121MOL0     O16619   9.106   1.134   3.929 -0.0385  0.4063 -0.3617
  121MOL0     C16620   9.076   1.108   3.787  0.2833 -0.1221 -0.2091
  121MOL0     C16621   9.214   1.097   3.713  0.8986  0.5125  1.6579
  121MOL0     C16622   9.273   0.961   3.734  0.3629  0.0126  0.2854
  121MOL0     C16623   9.398   0.957   3.651  0.1066 -0.3510  0.5374
  121MOL0     C16624   9.513   0.891   3.717  0.3503  0.8105 -0.0627
  121MOL0     C16625   9.612   0.825   3.739 -0.1095 -0.6796  0.9841
  121MOL0     C16626   9.053   1.347   4.016 -0.5112 -0.6653  0.5393
  121MOL0     C16627   8.988   1.437   4.103  0.9196  1.1680 -0.1318
  121MOL0     C16628   9.019   1.590   4.097  0.6182 -0.1493  0.5441
  121MOL0     H16629   8.486   1.565   4.243 -1.7108  2.7315 -1.4320
  121MOL0     H16630   8.371   1.708   4.410  0.4342 -1.8349  2.6926
  121MOL0     H16631   8.367   1.783   4.671  0.1638  0.9124  1.0950
  121MOL0     H16632   8.289   1.859   4.536 -3.8044 -1.9178  3.7520
  121MOL0     H16633   8.259   1.976   4.764 -0.0323 -1.1076 -0.0631
  121MOL0     H16634   8.431   2.006   4.776 -0.0448  4.1324  0.4467
  121MOL0     H16635   8.286   2.073   4.524  1.2390  0.2663 -0.5403
  121MOL0     H16636   8.241   2.175   4.657  0.9052  1.5231 -1.6379
  121MOL0     H16637   8.469   2.233   4.723  2.7802 -2.0601 -0.1816
  121MOL0     H16638   8.527   2.146   4.578 -0.2973  1.3957 -3.4470
  121MOL0     H16639   8.524   2.370   4.532 -0.2010 -1.3832 -0.3749
  121MOL0     H16640   8.353   2.404   4.581 -2.3496 -2.6686  0.6425
  121MOL0     H16641   8.413   2.199   4.361 -2.4332  0.8216 -3.5051
  121MOL0     H16642   8.268   2.266   4.403  0.4269 -3.8594 -1.9789
  121MOL0     H16643   8.497   2.418   4.291  0.8763  1.0514  3.2283
  121MOL0     H16644   8.342   2.491   4.344 -0.1760 -2.0619  1.5352
  121MOL0     H16645   8.396   2.297   4.107  0.6501 -1.6194  2.0033
  121MOL0     H16646   8.234   2.341   4.165  1.3341 -2.9186 -0.6713
  121MOL0     H16647   8.169   2.507   3.950 -1.0740  2.1780 -0.5784
  121MOL0     H16648   8.141   2.745   3.853 -1.5125 -0.2195  2.0231
  121MOL0     H16649   8.278   2.856   3.859  0.2783 -1.8001 -1.2829
  121MOL0     H16650   8.048   2.785   4.052 -2.1407  1.6175 -1.4361
  121MOL0     H16651   8.199   2.875   4.109  0.8262  1.3401 -0.9206
  121MOL0     H16652   8.108   3.046   3.911  3.3255 -2.4133  0.6345
  121MOL0     H16653   7.958   2.949   3.935 -1.8805  2.3324  0.4803
  121MOL0     H16654   7.893   3.102   4.066 -1.0240 -3.2654 -0.1655
  121MOL0     H16655   7.983   3.001   4.183 -1.3857 -1.4603 -0.3200
  121MOL0     H16656   8.179   3.414   4.159  0.8326 -0.8287 -1.0071
  121MOL0     H16657   8.297   3.560   4.264  2.2903 -1.2309  0.7440
  121MOL0     H16658   8.336   3.544   4.441  0.3142  0.2821 -0.4259
  121MOL0     H16659   8.194   3.636   4.390 -2.2542 -2.7915  3.2019
  121MOL0     H16660   7.866   3.348   4.918  0.2139 -0.5245  0.4210
  121MOL0     H16661   7.887   3.457   5.140 -2.1871  0.5819 -1.7852
  121MOL0     H16662   8.251   3.466   5.354 -2.9081 -1.7354 -0.2610
  121MOL0     H16663   8.284   3.627   5.288 -2.6221  1.4430  0.9780
  121MOL0     H16664   8.277   3.621   5.527 -1.1611  0.0996  1.0433
  121MOL0     H16665   8.148   3.729   5.474 -0.9328  0.0248 -2.6147
  121MOL0     H16666   8.079   3.444   5.526  1.6416  0.5686 -0.4069
  121MOL0     H16667   7.968   3.576   5.509  1.3558 -0.7814 -3.6654
  121MOL0     H16668   8.073   3.686   5.721  0.1373 -0.1804  2.5936
  121MOL0     H16669   8.173   3.550   5.744  2.1448  3.5560  0.0161
  121MOL0     H16670   7.867   3.531   5.726 -2.2353 -1.5815  4.1199
  121MOL0     H16671   7.987   3.397   5.759  2.1390  0.5029 -4.3946
  121MOL0     H16672   7.923   3.652   5.924 -0.0221  0.3256 -0.5569
  121MOL0     H16673   8.043   3.522   5.969  1.2932 -2.1463 -4.0936
  121MOL0     H16674   7.743   3.534   5.970  0.5715 -1.8467 -3.7062
  121MOL0     H16675   7.847   3.543   6.109  3.3111  3.3677 -1.4466
  121MOL0     H16676   7.921   3.291   6.078  0.8084  1.3951 -0.9469
  121MOL0     H16677   7.831   3.284   5.930  3.2476 -4.1781  1.6009
  121MOL0     H16678   8.304   3.546   5.075  0.8252  0.4240 -0.7869
  121MOL0     H16679   8.276   3.488   4.860  1.3377  1.3839  2.4530
  121MOL0     H16680   8.022   3.197   4.577  0.5157  0.0348 -1.3598
  121MOL0     H16681   8.024   3.069   4.387 -0.9944  1.8021  4.2950
  121MOL0     H16682   8.747   1.908   4.493  1.6803 -3.5226  3.3429
  121MOL0     H16683   8.859   1.781   4.351  0.6226  1.6076 -1.9455
  121MOL0     H16684   8.746   1.224   4.201  0.7495 -2.0544  1.1397
  121MOL0     H16685   8.868   1.068   4.026 -1.1939 -0.2298  1.1787
  121MOL0     H16686   9.019   1.014   3.788  2.6065 -1.6034  0.3500
  121MOL0     H16687   9.014   1.184   3.738 -0.7387 -1.4196 -1.0353
  121MOL0     H16688   9.279   1.177   3.749  1.3300 -0.1913  2.4962
  121MOL0     H16689   9.187   1.111   3.608 -2.3186  0.1953  2.3242
  121MOL0     H16690   9.303   0.955   3.839  1.4024 -1.3133 -0.0573
  121MOL0     H16691   9.207   0.879   3.705 -1.6956  0.2409  3.7807
  121MOL0     H16692   9.444   1.056   3.641  3.2874 -1.7571 -0.1500
  121MOL0     H16693   9.378   0.914   3.552 -1.8739  4.2041 -1.3162
  121MOL0     H16694   9.697   0.766   3.765 -1.0483 -2.4065  0.3207
  121MOL0     H16695   9.144   1.373   3.961 -0.3464 -1.3974  0.4549
  121MOL0     H16696   8.938   1.660   4.073  2.4936  2.4812  1.4178
  121MOL0     H16697   9.043   1.639   4.192 -5.0067  0.5417  1.9700
  121MOL0     H16698   9.095   1.608   4.019  2.7937  0.1628  2.6201
  122MOL0     O16699   6.081   1.167   7.277 -0.8549 -0.3845 -0.4527
  122MOL0     C16700   6.099   1.283   7.324  0.0818 -0.2296 -0.1083
  122MOL0     O16701   6.209   1.365   7.325 -0.0883 -1.2550  0.3109
  122MOL0     C16702   6.330   1.311   7.282 -0.3084 -0.8542  1.1151
  122MOL0     C16703   6.351   1.351   7.142 -0.4850  0.7989 -0.1621
  122MOL0     C16704   6.467   1.310   7.083  0.2403  0.1856  0.8848
  122MOL0     C16705   6.561   1.235   7.159 -0.3891 -0.5817 -0.2831
  122MOL0     O16706   6.668   1.205   7.088 -0.6447 -0.1159 -1.0374
  122MOL0     C16707   6.762   1.118   7.147  0.0874 -0.1843  0.0703
  122MOL0     C16708   6.850   1.201   7.241  0.0107 -0.2095 -0.7714
  122MOL0     C16709   6.971   1.123   7.315 -0.4625 -0.2847  0.1085
  122MOL0     C16710   6.921   1.033   7.427 -0.3371  0.1063 -0.1688
  122MOL0     C16711   7.035   0.945   7.498  0.4077 -0.1921  0.2414
  122MOL0     C16712   7.112   1.025   7.604 -0.1660 -0.0435 -0.4357
  122MOL0     C16713   7.251   0.964   7.638 -0.3769  0.5257  0.7100
  122MOL0     C16714   7.324   1.052   7.752  0.1432 -0.2004  0.1189
  122MOL0     N16715   7.464   1.010   7.754  0.8857 -0.6223 -0.2832
  122MOL0     C16716   7.523   0.885   7.753  0.2068 -0.5302  1.0717
  122MOL0     C16717   7.658   0.901   7.776 -1.1949  0.2591  1.2377
  122MOL0     C16718   7.774   0.798   7.775 -0.8756 -1.0935 -0.8379
  122MOL0     C16719   7.748   0.672   7.708 -0.0955  0.2556 -0.4499
  122MOL0     C16720   7.748   0.686   7.546 -0.2373  0.6271  0.1014
  122MOL0     C16721   7.752   0.549   7.480 -0.0701  1.1331  0.2003
  122MOL0     O16722   7.878   0.486   7.496 -0.1311  0.4067  0.6626
  122MOL0     C16723   7.917   0.386   7.404 -0.4998 -0.1342  0.7319
  122MOL0     C16724   7.924   0.412   7.264  0.0726  0.7219  0.0450
  122MOL0     C16725   7.975   0.304   7.183  0.2039  0.0263  0.3854
  122MOL0     C16726   8.006   0.353   7.047 -0.6355 -0.0049 -0.3023
  122MOL0     C16727   7.987   0.174   7.234 -0.8883  1.0597  0.6178
  122MOL0     C16728   8.021   0.049   7.160  0.1298 -0.0887  0.2959
  122MOL0     O16729   8.119   0.048   7.063 -0.7581 -0.5751 -0.4268
  122MOL0     C16730   8.168  -0.054   6.999  0.6644 -0.5280  0.5027
  122MOL0     C16731   8.231  -0.023   6.874  0.9186  0.4459  0.4118
  122MOL0     C16732   8.298  -0.118   6.796 -0.4508 -0.0167 -0.3807
  122MOL0     C16733   8.295  -0.246   6.839 -0.5405  0.1778  0.8242
  122MOL0     O16734   8.382  -0.333   6.775  0.1536  0.7191  0.1216
  122MOL0     C16735   8.391  -0.474   6.812  0.5925  0.1007 -0.5104
  122MOL0     C16736   8.490  -0.538   6.723 -0.2480 -0.3542  0.6894
  122MOL0     C16737   8.440  -0.543   6.575 -0.4681 -0.6798 -1.0397
  122MOL0     C16738   8.549  -0.570   6.482 -0.2092 -0.2779  0.5013
  122MOL0     C16739   8.609  -0.714   6.492 -0.5998  0.0779  0.3959
  122MOL0     C16740   8.727  -0.734   6.395 -0.3579  0.7636  0.3203
  122MOL0     C16741   8.855  -0.650   6.423  0.0142  0.0815 -0.3650
  122MOL0     C16742   8.955  -0.657   6.312  1.4972 -0.2278  0.1659
  122MOL0    Cl16743   9.076  -0.521   6.314 -0.0964 -0.0235 -0.3227
  122MOL0     C16744   8.232  -0.285   6.956 -0.0861  0.5753 -0.0377
  122MOL0     C16745   8.163  -0.186   7.038 -0.2542 -0.1674  1.8112
  122MOL0     O16746   7.947  -0.052   7.190  0.3464  0.1514  0.8520
  122MOL0     C16747   7.980   0.156   7.370 -0.3909  0.1926  0.2435
  122MOL0     C16748   7.941   0.258   7.456  0.2971 -0.9082 -0.1845
  122MOL0     N16749   7.678   1.037   7.793  0.4356 -0.4251  0.0161
  122MOL0     N16750   7.563   1.096   7.770  0.0680  0.1531  0.9563
  122MOL0     C16751   6.536   1.198   7.294  0.5171  0.0192 -0.8273
  122MOL0     C16752   6.418   1.241   7.360 -0.8023  0.6817  0.4117
  122MOL0     C16753   5.979   1.337   7.393 -0.1380  0.2587  0.2946
  122MOL0     C16754   5.998   1.422   7.507  0.3262  0.3616  0.7046
  122MOL0     C16755   5.890   1.479   7.571  0.5135  0.1134  0.0531
  122MOL0     C16756   5.756   1.456   7.517 -0.4747  0.5361 -0.6824
  122MOL0     O16757   5.648   1.525   7.573  0.0981  0.6605 -0.7105
  122MOL0     C16758   5.617   1.638   7.494  0.5672 -0.8447 -0.8444
  122MOL0     C16759   5.502   1.704   7.583 -0.2030  0.5539  0.4685
  122MOL0     C16760   5.516   1.844   7.644 -0.9952  0.2513 -0.4080
  122MOL0     C16761   5.649   1.877   7.705 -0.5747  0.3634 -0.1218
  122MOL0     C16762   5.697   1.778   7.803 -0.2192  0.8518 -0.7342
  122MOL0     C16763   5.721   1.679   7.875  0.5954 -0.0060 -0.0185
  122MOL0     C16764   5.743   1.372   7.408  0.9831  0.7090 -0.1525
  122MOL0     C16765   5.845   1.318   7.341 -0.5632  0.6273 -0.0337
  122MOL0     C16766   5.807   1.242   7.213 -0.1553  0.5000 -0.0973
  122MOL0     H16767   6.280   1.415   7.090 -0.0604  0.6005 -0.9968
  122MOL0     H16768   6.466   1.362   6.988 -0.3986 -1.2163  0.0905
  122MOL0     H16769   6.822   1.076   7.066 -1.2655 -2.5400  0.1957
  122MOL0     H16770   6.715   1.034   7.199 -0.6259  1.2434  1.8480
  122MOL0     H16771   6.873   1.284   7.174 -1.4926  2.1831  1.4691
  122MOL0     H16772   6.803   1.251   7.327  3.8957 -0.4649  1.7760
  122MOL0     H16773   7.036   1.080   7.238 -0.3675  1.9943 -1.2032
  122MOL0     H16774   7.029   1.201   7.367 -2.5583  1.7980 -0.5137
  122MOL0     H16775   6.873   1.100   7.498 -1.2000  1.2390 -1.7672
  122MOL0     H16776   6.846   0.966   7.385  0.0205 -0.1958 -0.3394
  122MOL0     H16777   7.112   0.936   7.421  0.5726  1.7606  0.1399
  122MOL0     H16778   7.002   0.850   7.541  0.3494  0.1806  1.0382
  122MOL0     H16779   7.129   1.128   7.572 -2.5539  0.1919 -1.1436
  122MOL0     H16780   7.066   1.028   7.703  4.6575 -2.5253  2.2975
  122MOL0     H16781   7.310   0.968   7.546 -2.0508  0.2432 -0.4239
  122MOL0     H16782   7.236   0.867   7.685 -2.0862  1.0598  1.3421
  122MOL0     H16783   7.321   1.159   7.729 -4.1897  0.3685  2.4396
  122MOL0     H16784   7.274   1.039   7.848 -0.5777 -1.3423 -0.3897
  122MOL0     H16785   7.473   0.794   7.722 -2.5496  0.7031  1.6039
  122MOL0     H16786   7.821   0.792   7.874  3.0784 -2.3288 -2.6274
  122MOL0     H16787   7.854   0.855   7.727 -2.6470  3.7956  1.3519
  122MOL0     H16788   7.828   0.599   7.728  2.8329  2.6934 -2.2614
  122MOL0     H16789   7.660   0.613   7.736  0.9129 -0.7948  0.6276
  122MOL0     H16790   7.645   0.714   7.521 -0.9675 -1.6271  0.3176
  122MOL0     H16791   7.829   0.746   7.503 -0.2392  0.0541 -0.7285
  122MOL0     H16792   7.678   0.493   7.537  3.7106 -0.8917  3.6613
  122MOL0     H16793   7.734   0.555   7.372 -3.6095 -0.6106  0.5556
  122MOL0     H16794   7.898   0.510   7.225 -2.0722  0.5846  0.9771
  122MOL0     H16795   8.107   0.393   7.036 -0.3266 -1.0341 -1.5215
  122MOL0     H16796   7.934   0.433   7.028 -0.9769 -0.0668  0.6441
  122MOL0     H16797   7.988   0.276   6.971 -1.0050  0.7535 -0.9981
  122MOL0     H16798   8.241   0.080   6.843  0.3495  0.6820  1.0096
  122MOL0     H16799   8.342  -0.082   6.703 -2.9366  1.1767 -1.1899
  122MOL0     H16800   8.435  -0.496   6.910  1.6207 -0.0082 -0.9839
  122MOL0     H16801   8.302  -0.538   6.805  0.2386  0.6766 -1.3926
  122MOL0     H16802   8.590  -0.493   6.724 -0.1237 -0.6212  0.4710
  122MOL0     H16803   8.494  -0.642   6.754 -3.3764 -0.8410 -0.1922
  122MOL0     H16804   8.394  -0.449   6.543  0.0330  0.1286  0.5174
  122MOL0     H16805   8.371  -0.628   6.574 -0.8899 -0.3477 -0.5133
  122MOL0     H16806   8.626  -0.493   6.490 -1.7064  1.1017  3.0663
  122MOL0     H16807   8.508  -0.565   6.381  0.2486  1.5558  0.3664
  122MOL0     H16808   8.632  -0.731   6.597  2.3537  2.4280  0.2488
  122MOL0     H16809   8.529  -0.785   6.467 -3.1995  3.1625 -0.7317
  122MOL0     H16810   8.693  -0.703   6.296 -0.1228  0.3441  0.1040
  122MOL0     H16811   8.741  -0.843   6.397  0.4515  0.8698  1.1110
  122MOL0     H16812   8.910  -0.686   6.510  3.0839  1.2910 -1.6784
  122MOL0     H16813   8.828  -0.546   6.443 -1.0938  0.0032 -1.3421
  122MOL0     H16814   8.907  -0.642   6.215  0.4318  0.2576  0.7588
  122MOL0     H16815   8.995  -0.759   6.307 -1.0660 -1.3246  0.2555
  122MOL0     H16816   8.223  -0.389   6.986 -1.7312  1.4443  2.8805
  122MOL0     H16817   8.112  -0.214   7.130 -1.9042 -0.4159  0.8580
  122MOL0     H16818   7.987   0.062   7.424  0.9384 -0.3980 -0.9192
  122MOL0     H16819   7.928   0.247   7.563 -1.5682  2.6750  0.0716
  122MOL0     H16820   6.603   1.142   7.357  1.2158  2.0519  0.3240
  122MOL0     H16821   6.392   1.223   7.464 -0.8855  1.3057  0.5017
  122MOL0     H16822   6.101   1.441   7.536  1.5337  0.5913 -3.0821
  122MOL0     H16823   5.892   1.548   7.655 -0.5920  0.5114 -0.2392
  122MOL0     H16824   5.703   1.705   7.498 -2.1123  2.9728  4.1263
  122MOL0     H16825   5.585   1.615   7.392 -2.8175  0.8509 -0.2914
  122MOL0     H16826   5.462   1.644   7.665  2.0114  0.8984  1.8744
  122MOL0     H16827   5.423   1.701   7.508 -0.4085 -0.7365  0.7279
  122MOL0     H16828   5.486   1.913   7.564 -2.5604 -2.5916 -2.4530
  122MOL0     H16829   5.446   1.860   7.726 -1.2798  0.5852 -0.7130
  122MOL0     H16830   5.640   1.971   7.760 -2.4522  0.7151 -0.9420
  122MOL0     H16831   5.717   1.893   7.621  0.5258 -0.9026  0.4951
  122MOL0     H16832   5.742   1.601   7.946  0.4273 -0.5126 -0.5168
  122MOL0     H16833   5.640   1.352   7.380  0.6365  0.0442  1.4840
  122MOL0     H16834   5.852   1.279   7.121  0.8572  0.2123  0.2675
  122MOL0     H16835   5.818   1.133   7.213 -3.5488  0.0239  0.1838
  122MOL0     H16836   5.699   1.258   7.202 -0.0210  0.4910 -1.6548
  123MOL0     O16837   4.050   2.276   6.786  0.8208 -0.3649 -0.3112
  123MOL0     C16838   4.043   2.165   6.727 -0.0872  0.0020  1.1834
  123MOL0     O16839   3.923   2.112   6.684  0.8388  0.6668 -0.5525
  123MOL0     C16840   3.811   2.188   6.689  0.3469 -0.3268  0.3022
  123MOL0     C16841   3.808   2.323   6.642 -0.3788 -0.3044  0.4859
  123MOL0     C16842   3.688   2.401   6.652 -0.4847  0.1756 -0.0322
  123MOL0     C16843   3.573   2.351   6.707 -0.5711 -0.8622 -0.2297
  123MOL0     O16844   3.475   2.443   6.727  0.4883 -0.0740 -0.5865
  123MOL0     C16845   3.349   2.402   6.782 -0.5415 -0.0529 -0.4172
  123MOL0     C16846   3.251   2.524   6.827  1.0318 -0.1054 -0.1218
  123MOL0     C16847   3.226   2.622   6.714 -0.1599 -0.2542 -0.0789
  123MOL0     C16848   3.162   2.556   6.593  0.9337 -0.0051 -0.6690
  123MOL0     C16849   3.123   2.675   6.498 -0.2617  0.0797 -0.9987
  123MOL0     C16850   3.048   2.622   6.367 -0.0210 -0.8964  0.0393
  123MOL0     C16851   3.119   2.516   6.294 -0.0272 -0.5906  0.0639
  123MOL0     C16852   3.250   2.541   6.228  0.1732 -0.1041 -0.2441
  123MOL0     N16853   3.267   2.465   6.101  0.7104 -0.0696 -0.3305
  123MOL0     C16854   3.216   2.513   5.990  0.9116 -0.8628  0.2566
  123MOL0     C16855   3.278   2.438   5.895 -1.0538 -0.3753  0.5436
  123MOL0     C16856   3.271   2.465   5.745  1.2701 -0.1767  0.2277
  123MOL0     C16857   3.421   2.467   5.684  0.2485 -0.3260 -0.4201
  123MOL0     C16858   3.412   2.530   5.552  0.1056 -0.0117  1.3070
  123MOL0     C16859   3.543   2.590   5.503 -0.0559 -0.0721 -0.1872
  123MOL0     O16860   3.508   2.643   5.366  0.6181  0.9606  0.7257
  123MOL0     C16861   3.470   2.561   5.268 -0.4547  0.2130  0.0143
  123MOL0     C16862   3.395   2.611   5.159 -0.5186 -0.7144 -0.4723
  123MOL0     C16863   3.359   2.539   5.046  0.1067 -0.1627  0.1542
  123MOL0     C16864   3.281   2.595   4.931  0.3419 -0.5739 -1.1594
  123MOL0     C16865   3.386   2.398   5.050  0.3242 -0.1204 -0.4499
  123MOL0     C16866   3.345   2.295   4.950  0.0338 -0.3499  0.3420
  123MOL0     O16867   3.414   2.176   4.957  1.1850 -0.3177  0.2506
  123MOL0     C16868   3.358   2.078   4.882  0.4946  0.5242 -1.0613
  123MOL0     C16869   3.391   2.057   4.751  0.2586  0.2426 -0.3771
  123MOL0     C16870   3.342   1.957   4.666 -0.0850  0.2602 -0.1635
  123MOL0     C16871   3.241   1.875   4.722  0.1767  0.2919 -0.5516
  123MOL0     O16872   3.191   1.776   4.641  0.8922  0.2108 -0.9262
  123MOL0     C16873   3.051   1.802   4.602 -0.0214  0.6152 -0.0568
  123MOL0     C16874   2.995   1.671   4.535 -0.0248  0.2372 -0.3994
  123MOL0     C16875   2.997   1.549   4.626 -0.8755 -0.2471  0.5544
  123MOL0     C16876   2.954   1.574   4.769  0.0718 -1.0477 -0.9600
  123MOL0     C16877   2.907   1.449   4.849  0.5281 -0.4196 -1.2057
  123MOL0     C16878   2.871   1.486   4.998  0.4737  0.2468 -0.5949
  123MOL0     C16879   2.798   1.378   5.080 -0.4407 -0.1845  0.2051
  123MOL0     C16880   2.857   1.233   5.077 -0.3686 -0.4728  0.4369
  123MOL0    Cl16881   3.030   1.245   5.115  0.0936 -0.5224 -0.1569
  123MOL0     C16882   3.214   1.875   4.859 -0.1382 -0.1938 -0.7676
  123MOL0     C16883   3.272   1.972   4.937 -1.3998 -0.5524 -0.6148
  123MOL0     O16884   3.249   2.314   4.877 -0.5765 -0.6887 -0.2347
  123MOL0     C16885   3.453   2.343   5.162 -0.0331  0.3060 -0.6205
  123MOL0     C16886   3.495   2.427   5.267  0.7580  0.0825  0.0241
  123MOL0     N16887   3.355   2.346   5.953  0.1364 -0.3804  0.1319
  123MOL0     N16888   3.348   2.356   6.079 -0.3052  0.2049  0.3503
  123MOL0     C16889   3.577   2.218   6.754 -0.1444  1.7155 -1.1021
  123MOL0     C16890   3.692   2.137   6.746  0.1003 -0.2779  0.7232
  123MOL0     C16891   4.163   2.071   6.719 -0.1584 -0.4278  0.5903
  123MOL0     C16892   4.143   1.938   6.678  0.3939  0.5312  0.2139
  123MOL0     C16893   4.251   1.847   6.680 -0.0315 -0.1433  0.1053
  123MOL0     C16894   4.387   1.880   6.716  0.5751  0.6604  1.2010
  123MOL0     O16895   4.489   1.788   6.734 -0.0864 -0.2884 -0.6888
  123MOL0     C16896   4.483   1.721   6.856 -0.2288 -0.4149  0.0737
  123MOL0     C16897   4.621   1.670   6.910  1.5499  0.8287 -0.5506
  123MOL0     C16898   4.613   1.583   7.036 -0.4004  0.6226 -1.3656
  123MOL0     C16899   4.723   1.476   7.056  0.5965 -0.0312  0.1706
  123MOL0     C16900   4.701   1.402   7.177  0.8459  0.3484  0.1119
  123MOL0     C16901   4.690   1.332   7.277  0.3959  0.6042  0.0849
  123MOL0     C16902   4.408   2.020   6.741  0.3323 -0.9437 -0.3199
  123MOL0     C16903   4.298   2.109   6.753 -0.4640 -0.3770  0.4644
  123MOL0     C16904   4.328   2.255   6.774  0.4408 -0.1246  0.5950
  123MOL0     H16905   3.895   2.371   6.599  1.3495 -3.8200 -0.3380
  123MOL0     H16906   3.687   2.507   6.631  0.6587  0.0198 -0.9304
  123MOL0     H16907   3.361   2.329   6.863 -0.9748 -0.2020 -0.4817
  123MOL0     H16908   3.300   2.358   6.694 -1.2646  5.0386 -2.9546
  123MOL0     H16909   3.159   2.489   6.877 -0.2749  0.0850 -2.2879
  123MOL0     H16910   3.311   2.571   6.906 -0.6749 -1.6888  2.2923
  123MOL0     H16911   3.175   2.707   6.759  1.7407  0.4054  0.9398
  123MOL0     H16912   3.320   2.667   6.683 -0.1149  1.2214  1.9646
  123MOL0     H16913   3.226   2.481   6.546  2.2674  1.7800 -1.8005
  123MOL0     H16914   3.069   2.502   6.617  1.7753 -1.0872  0.2930
  123MOL0     H16915   3.214   2.719   6.458  0.2985  2.3055  2.2838
  123MOL0     H16916   3.054   2.748   6.542  0.0563 -1.9929  3.4937
  123MOL0     H16917   2.943   2.601   6.389 -0.8906 -2.5387 -4.5836
  123MOL0     H16918   3.044   2.699   6.290 -0.2448 -2.3719 -1.4760
  123MOL0     H16919   3.052   2.473   6.219  1.5144 -4.2213  0.5429
  123MOL0     H16920   3.128   2.435   6.367 -3.2358 -2.2222 -1.1387
  123MOL0     H16921   3.266   2.647   6.204  3.1376 -0.4524 -0.2519
  123MOL0     H16922   3.337   2.515   6.289  1.8758  2.2426 -1.4713
  123MOL0     H16923   3.149   2.596   5.972 -1.1285 -1.9880  2.0658
  123MOL0     H16924   3.225   2.563   5.728  0.0304 -0.3400  2.2886
  123MOL0     H16925   3.215   2.384   5.697 -1.4154 -0.2961  3.2396
  123MOL0     H16926   3.479   2.536   5.746 -1.3287  0.8028 -0.1397
  123MOL0     H16927   3.455   2.363   5.678 -0.9890 -0.7026 -1.4550
  123MOL0     H16928   3.381   2.444   5.492 -3.9075  0.3568  2.5827
  123MOL0     H16929   3.330   2.600   5.536 -0.0836 -0.0643  1.9975
  123MOL0     H16930   3.563   2.671   5.574 -2.8787  1.6272 -1.1698
  123MOL0     H16931   3.624   2.517   5.500  0.0138 -0.1408  1.9338
  123MOL0     H16932   3.368   2.716   5.151 -1.7145 -0.7023  2.3918
  123MOL0     H16933   3.178   2.560   4.939 -0.2869  1.3180 -0.3931
  123MOL0     H16934   3.330   2.558   4.840  0.6822  0.2741 -1.3271
  123MOL0     H16935   3.278   2.704   4.931  1.2711 -0.5071  0.6758
  123MOL0     H16936   3.466   2.124   4.710  1.8216 -1.9733 -1.3598
  123MOL0     H16937   3.362   1.955   4.560  0.8124 -0.2626  0.0098
  123MOL0     H16938   2.984   1.835   4.682 -0.6451  0.7547 -0.6226
  123MOL0     H16939   3.050   1.883   4.528  3.2504 -1.6392 -2.9090
  123MOL0     H16940   2.892   1.674   4.498  1.0978 -0.7745 -4.0424
  123MOL0     H16941   3.051   1.633   4.449  0.7737  2.6762 -1.0234
  123MOL0     H16942   3.100   1.513   4.633  0.9493  4.1584 -0.1729
  123MOL0     H16943   2.947   1.466   4.575  0.4950  1.4417 -4.0042
  123MOL0     H16944   2.873   1.648   4.775  0.2505 -0.9512  1.3763
  123MOL0     H16945   3.036   1.617   4.827  0.0789  1.6781 -2.7824
  123MOL0     H16946   2.818   1.421   4.791  1.4705 -0.4449 -2.6960
  123MOL0     H16947   2.969   1.359   4.853 -0.8078 -1.4172 -1.9165
  123MOL0     H16948   2.806   1.575   4.997  0.9192  0.5730 -0.6268
  123MOL0     H16949   2.955   1.517   5.059 -0.4612 -0.7466  1.2666
  123MOL0     H16950   2.690   1.387   5.066 -0.3588  2.3587  0.7543
  123MOL0     H16951   2.798   1.403   5.186 -2.2854  0.9237 -0.0155
  123MOL0     H16952   2.857   1.184   4.980  2.2721 -0.2799  0.2701
  123MOL0     H16953   2.815   1.170   5.156  2.0474 -1.4560  1.0284
  123MOL0     H16954   3.145   1.800   4.896  2.3621 -1.4103  1.7919
  123MOL0     H16955   3.243   1.996   5.039  1.8057  1.9595 -0.1250
  123MOL0     H16956   3.464   2.236   5.181 -1.3285 -0.2532 -2.6475
  123MOL0     H16957   3.557   2.391   5.348  0.3097  1.2814  0.9273
  123MOL0     H16958   3.489   2.172   6.798 -0.0857  2.7748  0.1736
  123MOL0     H16959   3.691   2.033   6.777  3.3337 -0.3273  1.0397
  123MOL0     H16960   4.038   1.911   6.666  0.3328  0.3639  1.0772
  123MOL0     H16961   4.235   1.744   6.652 -1.3107  0.1803 -0.4197
  123MOL0     H16962   4.444   1.785   6.935  1.9028  0.0330  0.8221
  123MOL0     H16963   4.414   1.636   6.850 -0.7840  0.0643 -0.4175
  123MOL0     H16964   4.678   1.762   6.925  0.1005  1.9292 -1.5339
  123MOL0     H16965   4.659   1.617   6.822 -1.7649 -2.0389 -0.4429
  123MOL0     H16966   4.616   1.641   7.129 -0.5231 -0.0855 -0.9155
  123MOL0     H16967   4.525   1.519   7.031  0.7979 -2.2405  4.4424
  123MOL0     H16968   4.825   1.517   7.053  0.5761  0.0054 -0.0261
  123MOL0     H16969   4.719   1.414   6.967 -0.5499 -0.8012  0.7410
  123MOL0     H16970   4.683   1.291   7.376 -1.5241  1.5224  0.3865
  123MOL0     H16971   4.499   2.079   6.749 -2.3966  3.4805  1.7328
  123MOL0     H16972   4.285   2.318   6.695  1.6611 -1.5460 -1.3013
  123MOL0     H16973   4.295   2.296   6.870  2.3000 -1.9263  2.0935
  123MOL0     H16974   4.434   2.274   6.787 -0.1849  4.0551  0.8335
  124MOL0     O16975   1.575   5.145   1.139 -0.5520 -0.8597  0.2949
  124MOL0     C16976   1.576   5.255   1.085 -0.4378  0.3128 -0.5331
  124MOL0     O16977   1.479   5.353   1.100  1.0863  0.2720  0.2260
  124MOL0     C16978   1.383   5.328   1.196  0.1710 -0.4108  0.0660
  124MOL0     C16979   1.280   5.237   1.169 -1.2878  1.2489 -0.0817
  124MOL0     C16980   1.193   5.198   1.273 -0.7211  0.7119  0.2353
  124MOL0     C16981   1.189   5.272   1.397 -0.6071  0.2098 -0.0156
  124MOL0     O16982   1.083   5.235   1.480  0.6400  0.1208 -0.4089
  124MOL0     C16983   1.077   5.311   1.600  0.5224  0.6217  1.0240
  124MOL0     C16984   0.978   5.253   1.701 -0.9152 -0.3036  0.1651
  124MOL0     C16985   0.830   5.272   1.651  0.8094 -1.1825  0.9696
  124MOL0     C16986   0.782   5.422   1.681 -0.4084 -0.1043  0.2515
  124MOL0     C16987   0.628   5.444   1.658 -0.6274 -0.4554  0.7972
  124MOL0     C16988   0.569   5.584   1.698 -0.3247  0.0343  0.3492
  124MOL0     C16989   0.413   5.585   1.694 -0.3156  0.3661  0.8094
  124MOL0     C16990   0.367   5.533   1.831  0.4966 -0.6681 -0.2203
  124MOL0     N16991   0.229   5.570   1.860  0.2626 -0.3907 -0.1556
  124MOL0     C16992   0.123   5.485   1.897  0.6998 -0.1240 -0.4416
  124MOL0     C16993   0.021   5.566   1.932 -0.1249  0.5895  0.6250
  124MOL0     C16994  -0.117   5.531   1.992 -0.1855 -0.2477 -0.4187
  124MOL0     C16995  -0.122   5.581   2.140  0.7306  0.5429  0.4422
  124MOL0     C16996  -0.043   5.517   2.253 -0.3439  0.3938  0.1894
  124MOL0     C16997  -0.014   5.607   2.374 -0.5137 -0.8263 -0.3224
  124MOL0     O16998   0.059   5.545   2.474  1.0603 -0.3513  0.6600
  124MOL0     C16999   0.184   5.494   2.469 -0.0159 -0.5843 -0.0968
  124MOL0     C17000   0.275   5.542   2.373 -0.1598 -0.5101 -0.4269
  124MOL0     C17001   0.414   5.525   2.381  0.4066 -0.0038 -0.0775
  124MOL0     C17002   0.499   5.608   2.285 -0.4259 -0.7417 -0.4151
  124MOL0     C17003   0.462   5.443   2.488 -0.6673  0.6067  1.1178
  124MOL0     C17004   0.605   5.429   2.527 -0.0272 -0.4834  0.3965
  124MOL0     O17005   0.701   5.435   2.423 -0.1266 -1.4072  0.3404
  124MOL0     C17006   0.835   5.438   2.451 -0.3257  0.5604  0.2840
  124MOL0     C17007   0.916   5.328   2.427 -0.5254  0.2754  0.5818
  124MOL0     C17008   1.059   5.330   2.431  0.5549 -1.5069  0.1543
  124MOL0     C17009   1.123   5.459   2.449 -0.3968 -1.3704  0.3297
  124MOL0     O17010   1.261   5.487   2.444  0.1996 -0.3537  0.0033
  124MOL0     C17011   1.347   5.378   2.418 -0.3229 -0.3242  0.4873
  124MOL0     C17012   1.493   5.422   2.412 -0.2098  0.1702  0.8304
  124MOL0     C17013   1.529   5.489   2.286 -0.0947 -0.2219 -0.0632
  124MOL0     C17014   1.678   5.506   2.280  0.1460 -0.3831 -0.5274
  124MOL0     C17015   1.727   5.582   2.152 -0.1079 -1.2446  0.2223
  124MOL0     C17016   1.663   5.722   2.138 -0.3557 -0.6742 -0.4854
  124MOL0     C17017   1.677   5.804   2.264 -0.0577  0.0213  0.1429
  124MOL0     C17018   1.628   5.948   2.238  1.1320 -1.2469  1.3847
  124MOL0    Cl17019   1.467   5.993   2.301  0.0440  0.2414  0.5196
  124MOL0     C17020   1.042   5.569   2.478 -0.5429  0.7903  0.8652
  124MOL0     C17021   0.905   5.558   2.479  0.0087 -0.1924 -0.5822
  124MOL0     O17022   0.638   5.413   2.648 -0.1436 -0.8034  0.8482
  124MOL0     C17023   0.365   5.399   2.586 -0.3257  0.3058 -0.5815
  124MOL0     C17024   0.232   5.422   2.580  0.3087 -1.2860  1.2063
  124MOL0     N17025   0.065   5.697   1.913  1.0672  0.0342 -0.7369
  124MOL0     N17026   0.187   5.695   1.863  0.5257  0.8059 -1.4935
  124MOL0     C17027   1.269   5.379   1.402 -0.4039 -0.0192 -1.1637
  124MOL0     C17028   1.362   5.412   1.302 -0.6078 -0.4637  0.1968
  124MOL0     C17029   1.686   5.289   0.978  0.6229 -0.6739 -0.5635
  124MOL0     C17030   1.692   5.428   0.938  0.1370 -0.7020  0.2911
  124MOL0     C17031   1.778   5.464   0.846 -0.0858 -0.0524  0.2543
  124MOL0     C17032   1.883   5.371   0.806  0.1762  0.1728  0.1942
  124MOL0     O17033   1.992   5.412   0.727 -0.3836  0.0430 -0.3602
  124MOL0     C17034   1.995   5.543   0.673  0.3098 -0.0912 -0.3478
  124MOL0     C17035   2.116   5.569   0.594  0.7010 -0.3904  0.3316
  124MOL0     C17036   2.111   5.714   0.531 -0.1177  0.4139  0.1098
  124MOL0     C17037   2.270   5.747   0.515  0.5843  0.2552  0.3621
  124MOL0     C17038   2.294   5.858   0.427  0.0367  0.5888  0.6004
  124MOL0     C17039   2.306   5.950   0.339  0.1830  0.6646  0.4883
  124MOL0     C17040   1.881   5.245   0.848 -0.0554 -0.2391 -0.2323
  124MOL0     C17041   1.795   5.202   0.944  0.0925  0.4255  0.3244
  124MOL0     C17042   1.817   5.062   1.005  0.7928  0.6558  0.2461
  124MOL0     H17043   1.283   5.179   1.077 -0.1026  1.3891 -0.1429
  124MOL0     H17044   1.121   5.120   1.251  0.9018 -1.1946  1.4407
  124MOL0     H17045   1.038   5.411   1.578  2.4772  1.2179  0.0345
  124MOL0     H17046   1.183   5.310   1.628  1.0409  0.1607 -0.7830
  124MOL0     H17047   0.997   5.146   1.713 -1.9002 -0.9454 -3.1100
  124MOL0     H17048   0.998   5.302   1.797 -3.1599 -0.4798  0.7749
  124MOL0     H17049   0.835   5.255   1.543  0.3419  1.7086  0.4032
  124MOL0     H17050   0.758   5.195   1.679  1.2434 -1.8957  0.1496
  124MOL0     H17051   0.809   5.446   1.784  0.0208  3.0354 -0.4779
  124MOL0     H17052   0.835   5.486   1.610  0.1818 -1.9742 -1.0588
  124MOL0     H17053   0.568   5.362   1.697  1.6976 -3.4021 -1.3272
  124MOL0     H17054   0.609   5.438   1.550  3.6308 -1.4187 -0.0866
  124MOL0     H17055   0.610   5.612   1.795  1.4266  1.4765 -0.7623
  124MOL0     H17056   0.614   5.646   1.620  0.3760 -2.0431 -1.0026
  124MOL0     H17057   0.376   5.516   1.617  0.1121 -1.6393  2.2965
  124MOL0     H17058   0.385   5.688   1.669 -1.5472 -0.5398 -1.8947
  124MOL0     H17059   0.375   5.424   1.839 -2.2188 -1.0358 -1.2636
  124MOL0     H17060   0.417   5.586   1.912 -2.3439  0.1094  1.1608
  124MOL0     H17061   0.126   5.377   1.890 -0.8329 -0.1023 -2.1277
  124MOL0     H17062  -0.126   5.422   1.986  3.8347 -0.6637 -4.1017
  124MOL0     H17063  -0.187   5.581   1.924 -1.6649  1.1683  2.0283
  124MOL0     H17064  -0.094   5.686   2.144  0.5377  0.6001  0.2806
  124MOL0     H17065  -0.229   5.590   2.159  0.7842 -0.3098  1.2270
  124MOL0     H17066  -0.098   5.433   2.295 -0.1521  0.4274  0.5095
  124MOL0     H17067   0.055   5.475   2.227  0.5544  0.8952  2.5418
  124MOL0     H17068   0.034   5.700   2.341 -1.8837 -0.4279 -1.2794
  124MOL0     H17069  -0.106   5.634   2.426 -1.2708  1.2005 -2.5094
  124MOL0     H17070   0.241   5.614   2.299  0.8186  0.9063  0.4531
  124MOL0     H17071   0.578   5.552   2.235  1.6256  2.7768 -1.4484
  124MOL0     H17072   0.555   5.682   2.343  0.0657 -0.9872 -0.5707
  124MOL0     H17073   0.439   5.659   2.209 -2.6657  1.9988  2.9104
  124MOL0     H17074   0.855   5.239   2.414 -2.0847  1.3959  0.0203
  124MOL0     H17075   1.111   5.236   2.418  1.8026 -0.7524 -0.5371
  124MOL0     H17076   1.335   5.311   2.504 -3.4482  0.4503  0.7749
  124MOL0     H17077   1.323   5.328   2.323 -1.6096 -0.0906  0.6749
  124MOL0     H17078   1.513   5.480   2.503  4.1217 -3.9232  2.9698
  124MOL0     H17079   1.558   5.335   2.424 -0.2925 -0.0004  0.0917
  124MOL0     H17080   1.479   5.586   2.291 -0.9733 -0.4900 -2.2219
  124MOL0     H17081   1.500   5.446   2.189  0.8059 -0.7640 -0.1069
  124MOL0     H17082   1.733   5.412   2.275  2.2475  0.8411 -1.5255
  124MOL0     H17083   1.712   5.559   2.370 -0.5308  0.9692 -1.0444
  124MOL0     H17084   1.836   5.586   2.150  0.0811 -0.0471  3.8589
  124MOL0     H17085   1.683   5.529   2.067 -0.9229 -2.0281  1.1074
  124MOL0     H17086   1.557   5.734   2.112  0.6113  3.7458 -3.5051
  124MOL0     H17087   1.708   5.766   2.049 -3.1315  1.3487 -1.0384
  124MOL0     H17088   1.785   5.801   2.279  0.1826 -0.5151 -1.5438
  124MOL0     H17089   1.612   5.763   2.343 -1.4919 -0.0710 -1.0351
  124MOL0     H17090   1.641   5.984   2.136  1.5067 -0.4968  1.6954
  124MOL0     H17091   1.703   6.006   2.291  1.9438 -2.2337  1.3421
  124MOL0     H17092   1.079   5.671   2.476 -1.3356  1.0791  0.7995
  124MOL0     H17093   0.840   5.645   2.482 -3.3323 -2.3941 -2.1721
  124MOL0     H17094   0.391   5.339   2.673  0.2577 -2.0302 -2.2765
  124MOL0     H17095   0.167   5.395   2.663 -0.0338  0.3601  1.5115
  124MOL0     H17096   1.256   5.438   1.492 -1.9491  0.8565 -1.9111
  124MOL0     H17097   1.412   5.508   1.307 -1.0281 -0.1498 -1.1613
  124MOL0     H17098   1.621   5.499   0.979  1.6353  0.9928  0.1028
  124MOL0     H17099   1.769   5.567   0.813  0.6116 -0.8530 -2.7136
  124MOL0     H17100   1.905   5.555   0.613 -1.8777  2.8922  3.1182
  124MOL0     H17101   2.000   5.616   0.755 -3.1547  0.4907 -0.5001
  124MOL0     H17102   2.120   5.507   0.504 -3.1005 -0.9913  0.3750
  124MOL0     H17103   2.202   5.559   0.660  0.3144  2.1899  1.3286
  124MOL0     H17104   2.051   5.711   0.440  0.2463 -2.0674 -0.1305
  124MOL0     H17105   2.064   5.786   0.598  0.2506 -0.2153  1.0714
  124MOL0     H17106   2.325   5.662   0.473  3.0287  1.9421 -0.0861
  124MOL0     H17107   2.305   5.769   0.617 -0.2914  4.4855 -0.0738
  124MOL0     H17108   2.312   6.023   0.260 -1.8073  1.1608  0.7524
  124MOL0     H17109   1.958   5.173   0.821 -0.8528 -1.2495  0.1430
  124MOL0     H17110   1.913   5.017   0.979  0.6413  1.1403 -1.2766
  124MOL0     H17111   1.798   5.056   1.113  2.0819 -2.1612  0.4032
  124MOL0     H17112   1.740   5.008   0.949 -0.8570  2.7940  0.2907
  125MOL0     O17113   7.399  10.426   3.653 -0.6471  0.0907  0.3736
  125MOL0     C17114   7.518  10.443   3.684 -0.0828 -0.7894 -1.1811
  125MOL0     O17115   7.605  10.342   3.709  0.3429 -0.2004 -0.2408
  125MOL0     C17116   7.598  10.211   3.665 -0.2659  0.9498 -0.3636
  125MOL0     C17117   7.487  10.133   3.684  0.1808 -0.9345 -0.7987
  125MOL0     C17118   7.469  10.004   3.628  0.0810 -1.1517 -0.3828
  125MOL0     C17119   7.575   9.953   3.564  0.2052  0.2792  0.6824
  125MOL0     O17120   7.567   9.822   3.525  0.0503  0.4005 -0.0566
  125MOL0     C17121   7.685   9.743   3.546  0.7289 -0.0799  0.6252
  125MOL0     C17122   7.719   9.721   3.702 -0.0392 -0.5137 -0.6253
  125MOL0     C17123   7.596   9.691   3.793 -0.2488  0.2480 -0.9384
  125MOL0     C17124   7.520   9.568   3.734 -0.4260 -0.0123 -0.1629
  125MOL0     C17125   7.428   9.515   3.834 -0.3222  0.6193  0.1981
  125MOL0     C17126   7.358   9.391   3.795 -0.0369  0.1504  0.2422
  125MOL0     C17127   7.288   9.342   3.927  0.1315 -0.0728 -0.1171
  125MOL0     C17128   7.200   9.223   3.909 -0.1240 -0.0152  0.3686
  125MOL0     N17129   7.251   9.109   3.853  0.3711  0.0330 -0.0878
  125MOL0     C17130   7.372   9.050   3.892 -0.2554 -0.1428 -0.8931
  125MOL0     C17131   7.418   8.984   3.794 -1.1875  0.9581  0.6071
  125MOL0     C17132   7.543   8.901   3.775  0.2109 -0.5911 -0.5501
  125MOL0     C17133   7.574   8.814   3.903  0.0544 -0.8012  0.1633
  125MOL0     C17134   7.708   8.730   3.894 -0.0995  0.4623 -0.0771
  125MOL0     C17135   7.726   8.648   4.023 -0.4019 -0.8445  0.1854
  125MOL0     O17136   7.616   8.560   4.037 -0.7854  0.3621 -0.2090
  125MOL0     C17137   7.603   8.474   4.143 -0.2503 -0.9044 -0.3875
  125MOL0     C17138   7.710   8.427   4.219  0.2040  0.4848  0.0107
  125MOL0     C17139   7.692   8.367   4.338 -0.5713 -0.1358 -0.5167
  125MOL0     C17140   7.829   8.343   4.414  0.6390  0.8020  0.7966
  125MOL0     C17141   7.555   8.328   4.378  0.0277  0.1192 -0.3547
  125MOL0     C17142   7.530   8.258   4.504 -0.9194  0.2253 -0.7224
  125MOL0     O17143   7.559   8.324   4.624 -0.9307  0.5336  0.1257
  125MOL0     C17144   7.496   8.269   4.735 -0.5038 -0.1035  0.3207
  125MOL0     C17145   7.569   8.262   4.856  0.8163 -0.2835 -0.8613
  125MOL0     C17146   7.496   8.211   4.969 -0.1029 -0.3513 -0.5346
  125MOL0     C17147   7.358   8.187   4.963  0.3380  0.2316 -0.6202
  125MOL0     O17148   7.295   8.149   5.081 -0.3094  0.1346  0.2914
  125MOL0     C17149   7.184   8.237   5.126  0.6037 -0.2564  0.8282
  125MOL0     C17150   7.152   8.236   5.278  0.4850 -0.1385 -0.4148
  125MOL0     C17151   7.033   8.321   5.327  0.6656  0.5892 -0.1631
  125MOL0     C17152   6.896   8.277   5.283 -0.5910  0.3748  0.4125
  125MOL0     C17153   6.855   8.277   5.132 -0.1630 -0.1164 -0.7232
  125MOL0     C17154   6.701   8.311   5.126 -0.3326 -0.2403  0.5118
  125MOL0     C17155   6.650   8.307   4.975 -0.0992 -0.2442 -0.0119
  125MOL0     C17156   6.498   8.289   4.958 -0.2955  0.5016 -0.7539
  125MOL0    Cl17157   6.456   8.290   4.790 -0.3186  0.2434  0.1521
  125MOL0     C17158   7.298   8.193   4.844  1.2871 -0.3636 -0.7162
  125MOL0     C17159   7.361   8.233   4.728  1.4286 -0.2461 -1.1209
  125MOL0     O17160   7.490   8.143   4.495  0.0060  0.0881 -0.0172
  125MOL0     C17161   7.455   8.360   4.291  1.5066  0.0264 -0.4596
  125MOL0     C17162   7.478   8.429   4.171  0.0357  0.7896  0.3507
  125MOL0     N17163   7.342   9.019   3.684  0.1557  0.6931  0.3421
  125MOL0     N17164   7.232   9.071   3.722  0.3615  0.1786  0.5064
  125MOL0     C17165   7.697  10.025   3.551  0.4962 -0.0024 -0.5785
  125MOL0     C17166   7.705  10.152   3.605  0.0760 -0.3639  0.8111
  125MOL0     C17167   7.558  10.585   3.726 -0.2449 -0.4660 -0.9857
  125MOL0     C17168   7.471  10.652   3.818  0.3794  0.4476  0.4787
  125MOL0     C17169   7.503  10.781   3.858  0.2737  0.1053  0.3414
  125MOL0     C17170   7.623  10.848   3.822 -0.5006 -0.4700  0.0274
  125MOL0     O17171   7.654  10.982   3.853  0.2041  0.6911 -0.0121
  125MOL0     C17172   7.575  11.057   3.949  0.7167  1.1990 -0.0364
  125MOL0     C17173   7.636  11.182   3.994 -0.5459 -0.6757  0.5684
  125MOL0     C17174   7.781  11.196   3.977 -0.2179 -0.0554 -0.6441
  125MOL0     C17175   7.824  11.336   3.971 -0.7202 -1.2446 -0.4216
  125MOL0     C17176   7.790  11.427   4.089  0.3333  0.6014  0.6140
  125MOL0     C17177   7.771  11.501   4.177  0.0607 -0.9428  0.4396
  125MOL0     C17178   7.702  10.783   3.728 -0.0467 -1.2618  0.5640
  125MOL0     C17179   7.675  10.658   3.675 -0.4093  0.1226  0.0684
  125MOL0     C17180   7.758  10.596   3.563 -0.1034 -1.0802  0.4115
  125MOL0     H17181   7.405  10.167   3.747  1.1910 -1.3252  0.7637
  125MOL0     H17182   7.377   9.951   3.648 -2.5623  3.3576  0.8201
  125MOL0     H17183   7.766   9.789   3.488 -2.1808  2.4639 -1.7944
  125MOL0     H17184   7.676   9.639   3.515 -0.1992  0.0516  0.4117
  125MOL0     H17185   7.796   9.646   3.720 -0.4070 -0.3370  2.1957
  125MOL0     H17186   7.748   9.817   3.745 -0.9450 -0.1610 -0.7697
  125MOL0     H17187   7.629   9.666   3.894 -0.2798 -0.2371 -1.0482
  125MOL0     H17188   7.537   9.784   3.795  0.7923  0.9207 -0.2662
  125MOL0     H17189   7.467   9.607   3.646 -0.6187  1.9530  0.7749
  125MOL0     H17190   7.590   9.493   3.696  0.4258  0.1113  1.1014
  125MOL0     H17191   7.359   9.596   3.857  2.5509  3.4279 -0.3032
  125MOL0     H17192   7.501   9.482   3.909  1.4300  0.0842 -1.6526
  125MOL0     H17193   7.271   9.421   3.736 -0.5930  0.2719  1.1114
  125MOL0     H17194   7.410   9.308   3.746 -0.6141  0.0778 -0.2742
  125MOL0     H17195   7.231   9.421   3.977  2.1805  0.2052  1.9029
  125MOL0     H17196   7.361   9.322   4.005 -0.6875  1.6351  1.1608
  125MOL0     H17197   7.169   9.203   4.012 -1.5657  0.3256  0.0192
  125MOL0     H17198   7.110   9.249   3.854  0.6324 -0.9905 -1.4236
  125MOL0     H17199   7.419   9.061   3.989 -3.0057  1.3991  0.3984
  125MOL0     H17200   7.627   8.965   3.748 -0.3232 -0.1054 -1.0888
  125MOL0     H17201   7.520   8.835   3.691 -3.6071  0.1807 -0.2848
  125MOL0     H17202   7.581   8.870   3.997  2.3649  0.4745 -0.6913
  125MOL0     H17203   7.495   8.740   3.919 -3.6271  2.7556  0.3799
  125MOL0     H17204   7.701   8.668   3.805  5.8027  1.0842 -1.3663
  125MOL0     H17205   7.787   8.806   3.894  1.5317 -1.1628  0.8152
  125MOL0     H17206   7.827   8.606   4.024  0.8678  1.9527 -0.5208
  125MOL0     H17207   7.733   8.721   4.104  2.7900  0.4509 -1.0796
  125MOL0     H17208   7.811   8.450   4.187  0.8130 -1.5185  0.3722
  125MOL0     H17209   7.801   8.365   4.517 -0.4487 -1.3873  1.0202
  125MOL0     H17210   7.907   8.408   4.373 -0.1773 -0.5071 -3.2530
  125MOL0     H17211   7.857   8.237   4.407 -0.1617  0.7039 -3.6347
  125MOL0     H17212   7.671   8.299   4.863  0.6122 -0.0842  2.4079
  125MOL0     H17213   7.547   8.219   5.064  0.8025  0.1154 -1.0494
  125MOL0     H17214   7.204   8.339   5.095 -2.5356 -0.3072 -1.9330
  125MOL0     H17215   7.099   8.203   5.066  0.3484 -1.0221  1.5901
  125MOL0     H17216   7.115   8.136   5.302 -0.2396  0.3012  0.3536
  125MOL0     H17217   7.241   8.251   5.339  1.4111  0.4942 -1.8571
  125MOL0     H17218   7.052   8.423   5.294  0.3820  0.5887 -0.3270
  125MOL0     H17219   7.021   8.322   5.435 -2.4316 -0.9177 -0.3834
  125MOL0     H17220   6.829   8.340   5.342  1.2386  1.5980  1.2961
  125MOL0     H17221   6.876   8.172   5.307 -1.4269  0.6958  1.1953
  125MOL0     H17222   6.907   8.346   5.065 -2.3872  0.9098 -1.4503
  125MOL0     H17223   6.866   8.174   5.096 -0.8743  0.1518 -1.7309
  125MOL0     H17224   6.700   8.417   5.152 -2.0011 -0.2842  0.6835
  125MOL0     H17225   6.645   8.252   5.199  0.2487 -2.9557 -1.0669
  125MOL0     H17226   6.702   8.225   4.925 -0.4502  1.6288 -3.8015
  125MOL0     H17227   6.678   8.401   4.927 -0.4156  1.3541  2.6844
  125MOL0     H17228   6.444   8.361   5.020 -0.0245 -0.4683  0.6511
  125MOL0     H17229   6.484   8.186   4.992 -1.1185  0.7476 -0.3094
  125MOL0     H17230   7.193   8.169   4.837  0.9704  1.1336 -1.5299
  125MOL0     H17231   7.298   8.246   4.640  0.6123  0.0529 -0.5127
  125MOL0     H17232   7.349   8.350   4.313  1.1589  0.6573 -1.7607
  125MOL0     H17233   7.411   8.461   4.092  1.7712 -1.4884 -2.2531
  125MOL0     H17234   7.794   9.994   3.515  1.6918  2.7939 -0.0279
  125MOL0     H17235   7.806  10.192   3.609  1.4099 -2.9590 -2.2072
  125MOL0     H17236   7.379  10.605   3.851  0.5013 -0.5445 -0.5437
  125MOL0     H17237   7.437  10.840   3.921 -1.5068 -1.0407 -0.3915
  125MOL0     H17238   7.482  11.094   3.905  0.2162 -0.4960 -0.4769
  125MOL0     H17239   7.541  10.999   4.036 -0.1982  0.8761 -0.5999
  125MOL0     H17240   7.620  11.191   4.102 -2.5537 -2.0990  0.4521
  125MOL0     H17241   7.583  11.268   3.951 -0.5504 -1.9319 -2.1044
  125MOL0     H17242   7.848  11.151   4.051  0.4009  1.3877 -0.3037
  125MOL0     H17243   7.802  11.164   3.874  2.9630 -1.0920  0.2070
  125MOL0     H17244   7.761  11.390   3.900 -1.0838  0.0946  0.8600
  125MOL0     H17245   7.928  11.353   3.942 -0.7334 -0.3983 -0.0152
  125MOL0     H17246   7.747  11.562   4.261  1.9961  1.1481 -0.4098
  125MOL0     H17247   7.793  10.835   3.700 -0.9132  0.7507  1.2561
  125MOL0     H17248   7.716  10.505   3.518  0.2997 -0.3477 -1.5534
  125MOL0     H17249   7.754  10.669   3.481 -0.0890 -1.7766 -0.2263
  125MOL0     H17250   7.865  10.582   3.583 -0.0171  1.1424  1.7709
  126MOL0     O17251   1.088   0.970   5.845 -0.9518 -0.0831 -0.1487
  126MOL0     C17252   0.984   0.928   5.880  0.6085  0.3754  0.5372
  126MOL0     O17253   0.960   0.793   5.900 -0.9175 -0.1055  0.3572
  126MOL0     C17254   1.066   0.712   5.870  0.7974  0.0721 -0.5829
  126MOL0     C17255   1.063   0.644   5.749 -0.6669 -0.6161 -0.4770
  126MOL0     C17256   1.168   0.559   5.709 -0.9537  0.6191 -0.2099
  126MOL0     C17257   1.282   0.540   5.788 -1.0806  1.2620 -0.9907
  126MOL0     O17258   1.378   0.450   5.738  0.0624 -0.1198 -0.1540
  126MOL0     C17259   1.500   0.509   5.689  0.5864  0.3666  0.0849
  126MOL0     C17260   1.604   0.403   5.683 -0.3840  0.5306 -0.1610
  126MOL0     C17261   1.742   0.456   5.649  1.2640  0.3276 -0.1502
  126MOL0     C17262   1.846   0.340   5.618 -0.3104 -0.0596 -0.3891
  126MOL0     C17263   1.890   0.260   5.735 -0.4484 -1.0497  0.3668
  126MOL0     C17264   1.980   0.332   5.838  0.4752 -0.3960 -0.7412
  126MOL0     C17265   2.074   0.238   5.912 -0.0391 -0.3795  0.8273
  126MOL0     C17266   2.127   0.302   6.046  0.9283  1.1898  0.3407
  126MOL0     N17267   2.195   0.430   6.035  0.0505 -0.7515  0.3853
  126MOL0     C17268   2.211   0.517   6.139 -0.0159 -0.9790 -0.2505
  126MOL0     C17269   2.295   0.617   6.102 -0.5413 -0.4564  0.1923
  126MOL0     C17270   2.349   0.730   6.190 -0.3298 -0.1334  0.2229
  126MOL0     C17271   2.305   0.871   6.138  1.5770  0.7731  0.7312
  126MOL0     C17272   2.422   0.976   6.147  0.2243 -0.2913  0.3875
  126MOL0     C17273   2.360   1.114   6.111 -0.1575  0.6526 -0.1948
  126MOL0     O17274   2.252   1.159   6.200 -1.2975 -0.1431  0.5909
  126MOL0     C17275   2.160   1.242   6.142 -0.2349  0.8093 -0.3647
  126MOL0     C17276   2.165   1.373   6.184  0.2605 -0.7378 -0.1669
  126MOL0     C17277   2.077   1.470   6.142  0.2742  0.0485 -0.2930
  126MOL0     C17278   2.088   1.616   6.182 -0.7339  0.3266 -0.3023
  126MOL0     C17279   1.962   1.430   6.060  1.0947 -1.1582  0.1311
  126MOL0     C17280   1.843   1.511   6.024 -0.3363 -0.5760 -0.0073
  126MOL0     O17281   1.754   1.455   5.936 -0.3152  0.3172 -0.0655
  126MOL0     C17282   1.635   1.520   5.916  0.4955  0.0724  0.5219
  126MOL0     C17283   1.544   1.542   6.024  0.3011  0.9072 -0.7525
  126MOL0     C17284   1.426   1.617   6.003 -0.7018  1.0963 -1.2034
  126MOL0     C17285   1.392   1.650   5.870  0.5205 -0.6945 -0.9216
  126MOL0     O17286   1.285   1.725   5.846 -0.1414 -0.7998  0.6675
  126MOL0     C17287   1.171   1.667   5.790 -0.3729 -0.9361 -1.1110
  126MOL0     C17288   1.072   1.785   5.756 -0.8978  0.4847  0.1507
  126MOL0     C17289   0.943   1.734   5.682  0.8233  0.6521 -0.1723
  126MOL0     C17290   0.839   1.658   5.781 -0.2437 -0.1581  0.6145
  126MOL0     C17291   0.779   1.747   5.894 -0.0859  0.1266  0.1865
  126MOL0     C17292   0.649   1.687   5.945  0.1714  0.0973 -0.3072
  126MOL0     C17293   0.578   1.772   6.046  1.4287 -0.3298 -0.8535
  126MOL0     C17294   0.425   1.754   6.049  0.2187  1.1433 -0.7182
  126MOL0    Cl17295   0.343   1.795   5.892 -0.1105  0.0595  0.5940
  126MOL0     C17296   1.474   1.609   5.765 -0.2761 -0.2319 -0.1941
  126MOL0     C17297   1.595   1.542   5.787  0.5638 -0.0282  0.7365
  126MOL0     O17298   1.828   1.630   6.072 -0.3409 -0.4154 -0.6366
  126MOL0     C17299   1.967   1.295   6.017  0.5219 -0.5072  0.6744
  126MOL0     C17300   2.062   1.201   6.058  0.6252 -0.1878 -0.2325
  126MOL0     N17301   2.337   0.591   5.972 -0.0680  0.2892  0.2221
  126MOL0     N17302   2.276   0.484   5.936  0.4349 -0.4514 -0.3364
  126MOL0     C17303   1.290   0.615   5.904 -0.1593  0.6384 -0.3218
  126MOL0     C17304   1.186   0.700   5.940  0.0527 -0.2023 -0.6534
  126MOL0     C17305   0.879   1.034   5.863 -0.4246  0.1741 -0.4186
  126MOL0     C17306   0.747   1.001   5.893 -0.0338  0.5038 -1.0603
  126MOL0     C17307   0.642   1.092   5.896 -0.2435 -0.6189 -0.3345
  126MOL0     C17308   0.659   1.225   5.871  0.8088 -0.6519 -0.0863
  126MOL0     O17309   0.568   1.329   5.870  0.4631 -0.4782  0.1684
  126MOL0     C17310   0.426   1.315   5.860 -0.0576 -0.5799  0.2330
  126MOL0     C17311   0.382   1.342   5.720 -0.6325  0.4406  0.3611
  126MOL0     C17312   0.421   1.235   5.619 -0.0878  0.4395 -0.1277
  126MOL0     C17313   0.334   1.212   5.494  0.3374  0.0092  0.3076
  126MOL0     C17314   0.404   1.119   5.394  0.8014  0.4719 -1.7023
  126MOL0     C17315   0.470   1.046   5.314  0.1714 -2.0542  0.6058
  126MOL0     C17316   0.790   1.255   5.830  1.0715 -0.0988  0.2756
  126MOL0     C17317   0.904   1.174   5.835 -0.4202  0.0869 -0.4377
  126MOL0     C17318   1.039   1.231   5.805 -0.0110  0.2755  0.3241
  126MOL0     H17319   0.970   0.647   5.695 -0.6856  1.1732 -0.3903
  126MOL0     H17320   1.170   0.502   5.617  1.1561 -1.5552  1.0725
  126MOL0     H17321   1.541   0.581   5.760  0.6918 -0.0316  0.4261
  126MOL0     H17322   1.474   0.547   5.589 -0.8727  0.8133  0.6062
  126MOL0     H17323   1.597   0.348   5.777 -1.5795  0.0899 -0.4949
  126MOL0     H17324   1.589   0.335   5.599 -0.6260  1.5652 -0.9686
  126MOL0     H17325   1.722   0.519   5.562 -0.8394  2.1294  1.5107
  126MOL0     H17326   1.780   0.514   5.734  2.6372 -1.1407  0.2951
  126MOL0     H17327   1.802   0.284   5.535  0.1723  1.7743 -1.9533
  126MOL0     H17328   1.938   0.387   5.581  0.1710 -0.2043  0.5840
  126MOL0     H17329   1.956   0.193   5.679 -0.9220 -0.5092 -0.8965
  126MOL0     H17330   1.805   0.204   5.775 -0.6611 -0.6607  0.4609
  126MOL0     H17331   2.037   0.418   5.802  2.1743 -1.8309 -1.6349
  126MOL0     H17332   1.911   0.363   5.917 -0.1787 -1.8700 -0.6968
  126MOL0     H17333   2.152   0.201   5.845 -1.1540  0.9257 -1.2977
  126MOL0     H17334   2.010   0.162   5.957  1.4160 -0.1815  3.4214
  126MOL0     H17335   2.040   0.322   6.110  0.0094  0.3803 -0.6136
  126MOL0     H17336   2.186   0.221   6.089 -0.2638  0.0306 -0.1418
  126MOL0     H17337   2.150   0.522   6.228  1.8334 -2.7208  1.1982
  126MOL0     H17338   2.454   0.716   6.217 -1.2396 -3.6664  2.5683
  126MOL0     H17339   2.304   0.710   6.287  1.2632  0.1136  1.0444
  126MOL0     H17340   2.277   0.866   6.033 -1.5449 -0.0891  1.5008
  126MOL0     H17341   2.213   0.894   6.194 -0.0553  3.8474 -2.7889
  126MOL0     H17342   2.458   0.980   6.250  0.2832  2.6444  0.3217
  126MOL0     H17343   2.507   0.966   6.080  0.4392  1.4665  0.3466
  126MOL0     H17344   2.435   1.190   6.136 -0.3541  0.5069  0.8927
  126MOL0     H17345   2.332   1.123   6.006  0.4393 -0.1992 -0.4363
  126MOL0     H17346   2.236   1.403   6.261  0.0721 -2.5585  0.7757
  126MOL0     H17347   2.186   1.626   6.231 -0.3575 -4.2855  0.2693
  126MOL0     H17348   2.009   1.640   6.254 -1.1246  0.0905 -0.6559
  126MOL0     H17349   2.073   1.683   6.097 -1.3193  0.9913  0.3129
  126MOL0     H17350   1.576   1.506   6.121 -2.4621 -0.8283 -0.3852
  126MOL0     H17351   1.361   1.642   6.087 -0.8776  0.6889 -1.2176
  126MOL0     H17352   1.182   1.603   5.703 -0.8247 -3.7749  0.7688
  126MOL0     H17353   1.133   1.609   5.875 -2.0999 -1.2350 -2.0434
  126MOL0     H17354   1.028   1.828   5.847 -0.3054  0.9979  0.1957
  126MOL0     H17355   1.109   1.868   5.696 -1.3483 -0.3067 -1.2622
  126MOL0     H17356   0.954   1.679   5.589  1.6880  2.8354 -1.4347
  126MOL0     H17357   0.891   1.825   5.651  0.2681 -0.5009 -2.9351
  126MOL0     H17358   0.891   1.572   5.825 -0.3068 -1.2764 -1.3992
  126MOL0     H17359   0.759   1.625   5.715 -1.5064  2.2567  0.8251
  126MOL0     H17360   0.851   1.738   5.976  0.8893 -2.4977 -0.8215
  126MOL0     H17361   0.762   1.848   5.857 -0.3366 -0.5756 -1.7453
  126MOL0     H17362   0.678   1.593   5.992  2.0267  0.4979 -0.5646
  126MOL0     H17363   0.588   1.682   5.854 -0.2241 -2.4874  0.0188
  126MOL0     H17364   0.593   1.872   6.004  1.5632 -0.2353 -0.5850
  126MOL0     H17365   0.614   1.764   6.149  2.8285  2.4723 -1.0269
  126MOL0     H17366   0.389   1.814   6.132 -1.2995  1.7060 -1.7396
  126MOL0     H17367   0.402   1.651   6.077  1.7764  0.1460 -2.8239
  126MOL0     H17368   1.476   1.651   5.665  2.6731 -1.5890 -0.8281
  126MOL0     H17369   1.653   1.507   5.703  0.6578  0.2630  0.6794
  126MOL0     H17370   1.888   1.245   5.962 -0.1261 -0.4376  1.5217
  126MOL0     H17371   2.042   1.100   6.026  1.5717  0.0775 -1.7372
  126MOL0     H17372   1.380   0.610   5.965 -0.4733  0.6444  0.1497
  126MOL0     H17373   1.193   0.769   6.023  0.3313  0.2546 -1.0506
  126MOL0     H17374   0.732   0.899   5.927  0.0674  1.3180  1.5901
  126MOL0     H17375   0.543   1.058   5.923 -1.0858  3.0734  2.0631
  126MOL0     H17376   0.386   1.214   5.879 -1.8783 -0.5937 -2.9635
  126MOL0     H17377   0.384   1.389   5.928  1.4543  2.9676 -2.3509
  126MOL0     H17378   0.429   1.434   5.684 -0.9186 -0.0389 -1.3445
  126MOL0     H17379   0.274   1.360   5.717 -0.4927  1.7365  1.6237
  126MOL0     H17380   0.524   1.244   5.585  0.8890 -0.5671  2.4013
  126MOL0     H17381   0.432   1.143   5.677  1.5967 -1.0972 -2.7064
  126MOL0     H17382   0.318   1.307   5.443  2.8219 -0.3176 -1.2099
  126MOL0     H17383   0.239   1.161   5.514  1.0481 -0.1288  4.2597
  126MOL0     H17384   0.527   0.992   5.241 -1.8208 -1.4296 -1.5145
  126MOL0     H17385   0.791   1.355   5.788 -2.8898  1.3169  2.9626
  126MOL0     H17386   1.109   1.201   5.884  2.0897 -1.3721 -1.9975
  126MOL0     H17387   1.063   1.192   5.706  2.4456  0.8397  0.6237
  126MOL0     H17388   1.032   1.339   5.791 -0.5535  0.5193  2.2059
  127MOL0     O17389  11.549   2.694   2.369 -0.0020 -0.2717  0.3379
  127MOL0     C17390  11.604   2.800   2.340  0.5285 -0.3301 -0.2292
  127MOL0     O17391  11.688   2.817   2.222  0.1350  1.0288 -0.3460
  127MOL0     C17392  11.731   2.712   2.152  0.1525  0.5391 -0.1258
  127MOL0     C17393  11.733   2.726   2.016  0.9269 -0.0780  0.4337
  127MOL0     C17394  11.772   2.621   1.927 -0.7132 -0.6558  0.6161
  127MOL0     C17395  11.811   2.505   1.989 -0.1504 -0.2176 -0.1709
  127MOL0     O17396  11.865   2.405   1.909 -0.9393 -0.9061 -0.1396
  127MOL0     C17397  11.771   2.298   1.895  0.7673  0.5890  0.4345
  127MOL0     C17398  11.629   2.336   1.834 -0.0061 -0.1391  1.4967
  127MOL0     C17399  11.657   2.405   1.693  0.3633 -0.1692  0.6450
  127MOL0     C17400  11.530   2.444   1.642  1.2616  0.0045 -0.0847
  127MOL0     C17401  11.542   2.484   1.493  0.6513  0.3864 -0.4740
  127MOL0     C17402  11.404   2.466   1.421 -0.8528 -0.2497  0.0662
  127MOL0     C17403  11.279   2.502   1.492  0.3027  0.6934 -0.8528
  127MOL0     C17404  11.176   2.506   1.393  0.4334 -0.7820 -0.9675
  127MOL0     N17405  11.048   2.506   1.460 -0.8865  0.6529  0.2248
  127MOL0     C17406  10.998   2.604   1.549  0.3377 -0.3036  0.2872
  127MOL0     C17407  10.862   2.570   1.565  0.4537  0.1335  0.8264
  127MOL0     C17408  10.750   2.645   1.634 -0.0420  0.0926 -0.2204
  127MOL0     C17409  10.605   2.593   1.605 -0.8727  0.4701 -0.0955
  127MOL0     C17410  10.505   2.646   1.704 -0.8828 -1.2142  0.1765
  127MOL0     C17411  10.507   2.575   1.848 -0.0972  0.1163  0.5600
  127MOL0     O17412  10.620   2.605   1.933  0.4313 -0.8569  0.2873
  127MOL0     C17413  10.658   2.523   2.036 -0.1195 -0.7630  0.0244
  127MOL0     C17414  10.795   2.505   2.074 -0.0031 -0.7585  0.0397
  127MOL0     C17415  10.833   2.419   2.172  0.6082  0.7337  1.6137
  127MOL0     C17416  10.978   2.406   2.183 -1.2268  0.3969 -0.7651
  127MOL0     C17417  10.736   2.329   2.233 -0.2577 -0.2329 -0.0290
  127MOL0     C17418  10.766   2.221   2.328  0.1800  0.3864  0.8572
  127MOL0     O17419  10.889   2.229   2.390  0.5859  0.5388 -0.2301
  127MOL0     C17420  10.910   2.161   2.512  0.5043  0.1068 -0.4344
  127MOL0     C17421  10.836   2.175   2.631 -0.1309  0.2425 -1.2774
  127MOL0     C17422  10.880   2.100   2.746 -0.4708 -0.7941  0.7338
  127MOL0     C17423  10.996   2.024   2.749  1.0803 -1.3965  0.2469
  127MOL0     O17424  11.026   1.930   2.841 -0.3552  0.3423 -0.4525
  127MOL0     C17425  10.939   1.874   2.942 -0.0687 -0.7215  0.5178
  127MOL0     C17426  10.878   1.742   2.903 -0.5376 -0.9486 -0.0870
  127MOL0     C17427  10.991   1.632   2.891  0.0632 -0.2921 -0.9840
  127MOL0     C17428  10.915   1.503   2.854  0.6071 -0.0814  1.0134
  127MOL0     C17429  11.008   1.382   2.833  0.7094  1.1071 -1.2413
  127MOL0     C17430  11.084   1.330   2.956  0.7626  0.3645  0.6038
  127MOL0     C17431  11.003   1.265   3.059  0.4998  0.3139 -0.0011
  127MOL0     C17432  11.086   1.201   3.163 -0.2461  0.5814  0.7721
  127MOL0    Cl17433  10.972   1.121   3.277  0.0457  0.1699 -0.2991
  127MOL0     C17434  11.076   2.033   2.638  0.3816  0.2902  0.9313
  127MOL0     C17435  11.028   2.098   2.526  0.0581 -0.3902  0.1892
  127MOL0     O17436  10.694   2.121   2.328  0.1755  0.3279  0.6561
  127MOL0     C17437  10.600   2.350   2.197 -0.3738 -0.0828  0.0438
  127MOL0     C17438  10.561   2.434   2.098  0.9139  0.4745  0.5724
  127MOL0     N17439  10.844   2.447   1.508  0.2690 -0.2456  0.1637
  127MOL0     N17440  10.950   2.409   1.448  0.8215 -0.8095  0.1643
  127MOL0     C17441  11.800   2.484   2.125 -0.1483 -0.3165 -0.0211
  127MOL0     C17442  11.762   2.589   2.205  0.0468 -0.0308  0.6214
  127MOL0     C17443  11.594   2.914   2.437  0.5711 -0.3439 -0.6701
  127MOL0     C17444  11.623   3.047   2.395  0.6158  0.2469 -0.2912
  127MOL0     C17445  11.609   3.162   2.478  0.2494  0.6032  0.7058
  127MOL0     C17446  11.558   3.140   2.610  0.1178 -0.1117 -0.7962
  127MOL0     O17447  11.516   3.246   2.695  0.1881  0.5967  0.2683
  127MOL0     C17448  11.601   3.353   2.685 -0.8734  0.7461  0.9079
  127MOL0     C17449  11.539   3.482   2.630  0.8290 -0.5348 -0.5343
  127MOL0     C17450  11.632   3.603   2.665 -0.6232 -0.0833  0.6449
  127MOL0     C17451  11.566   3.739   2.622 -0.1671 -0.0714  0.4329
  127MOL0     C17452  11.472   3.782   2.722  0.1221 -0.2219 -0.3373
  127MOL0     C17453  11.386   3.805   2.804  0.7289  1.4586 -1.1693
  127MOL0     C17454  11.531   3.004   2.657 -0.0442 -1.4720  0.8318
  127MOL0     C17455  11.564   2.895   2.576  0.1730  0.6322  0.2227
  127MOL0     C17456  11.545   2.761   2.638  0.7568 -0.3518  0.5652
  127MOL0     H17457  11.718   2.828   1.982  0.2997 -1.0120 -2.3781
  127MOL0     H17458  11.785   2.629   1.819  4.7212 -2.8550  0.7950
  127MOL0     H17459  11.763   2.241   1.988 -1.0744  1.8113  1.0945
  127MOL0     H17460  11.810   2.236   1.814 -0.7782  2.5633 -1.9884
  127MOL0     H17461  11.558   2.254   1.843 -1.8119  0.9833 -1.2933
  127MOL0     H17462  11.585   2.415   1.896 -1.3611  1.3324 -1.1464
  127MOL0     H17463  11.727   2.489   1.701  1.3708 -0.9070 -0.1605
  127MOL0     H17464  11.704   2.331   1.627 -3.6199 -2.3577 -0.0733
  127MOL0     H17465  11.456   2.365   1.657  0.5101  0.7154  0.0355
  127MOL0     H17466  11.491   2.526   1.702  0.0678  0.5278 -1.5228
  127MOL0     H17467  11.616   2.421   1.442 -0.6698 -3.3327  1.7925
  127MOL0     H17468  11.591   2.581   1.490 -0.1718  0.8327  0.1699
  127MOL0     H17469  11.410   2.522   1.327 -3.3484 -1.9037 -1.1993
  127MOL0     H17470  11.391   2.361   1.393  0.8549 -0.6278  0.5928
  127MOL0     H17471  11.289   2.594   1.549  2.1969  0.5215 -0.8250
  127MOL0     H17472  11.254   2.427   1.568  0.3490 -0.4201 -1.8986
  127MOL0     H17473  11.202   2.585   1.323  3.5995 -1.2806 -0.5156
  127MOL0     H17474  11.187   2.413   1.336 -0.9957 -1.1717 -0.6322
  127MOL0     H17475  11.045   2.695   1.583  1.2899 -0.7933  0.3184
  127MOL0     H17476  10.772   2.750   1.611 -1.3188  0.6110  0.8259
  127MOL0     H17477  10.768   2.622   1.740 -2.1986  0.3383  0.2364
  127MOL0     H17478  10.576   2.629   1.506  0.9592  0.4440 -0.6855
  127MOL0     H17479  10.608   2.484   1.598 -0.9333  0.4365  0.3353
  127MOL0     H17480  10.524   2.753   1.718 -0.4178 -1.0313 -1.6331
  127MOL0     H17481  10.400   2.637   1.676 -0.4386  0.1532 -2.1262
  127MOL0     H17482  10.414   2.604   1.896  0.5616  0.8513  1.4262
  127MOL0     H17483  10.489   2.467   1.842  0.7524 -0.3714  4.2912
  127MOL0     H17484  10.870   2.569   2.030  2.0726 -1.4921  2.2845
  127MOL0     H17485  11.015   2.450   2.276  1.1373  0.8699 -1.8740
  127MOL0     H17486  11.032   2.443   2.096  0.7912 -2.6581 -0.9580
  127MOL0     H17487  10.994   2.298   2.190 -1.3578  0.4064 -0.2393
  127MOL0     H17488  10.749   2.239   2.631 -2.4088 -2.4352 -5.1317
  127MOL0     H17489  10.818   2.106   2.836 -0.9633 -1.3923  0.4378
  127MOL0     H17490  10.986   1.861   3.039 -0.5071 -1.3669  0.6503
  127MOL0     H17491  10.857   1.947   2.939 -0.8284 -1.4824 -3.5795
  127MOL0     H17492  10.801   1.720   2.977 -1.2624  0.3580 -0.4246
  127MOL0     H17493  10.824   1.758   2.810 -0.4020  1.9956  0.2398
  127MOL0     H17494  11.041   1.613   2.987 -0.8661 -4.2948 -1.1577
  127MOL0     H17495  11.057   1.640   2.805 -2.6653  2.2130 -3.0640
  127MOL0     H17496  10.878   1.521   2.753 -3.1541 -2.8021  1.6992
  127MOL0     H17497  10.822   1.482   2.908 -0.0828  1.0358  0.3099
  127MOL0     H17498  10.950   1.310   2.775  1.7011 -0.7043 -0.0864
  127MOL0     H17499  11.081   1.423   2.763  0.8169 -2.4065 -3.4863
  127MOL0     H17500  11.119   1.424   2.999 -0.0260  2.1528 -2.3390
  127MOL0     H17501  11.157   1.260   2.912  0.7745  0.4437  0.4983
  127MOL0     H17502  10.929   1.195   3.018 -1.5535  2.7053 -0.6506
  127MOL0     H17503  10.937   1.337   3.109 -1.3087 -1.4224  0.2496
  127MOL0     H17504  11.156   1.270   3.211  0.3533  2.9126 -3.0324
  127MOL0     H17505  11.140   1.124   3.107  0.2755  1.2040  0.4066
  127MOL0     H17506  11.176   1.991   2.629  1.7565  3.5840 -1.5877
  127MOL0     H17507  11.084   2.097   2.433 -1.6111 -2.2074 -0.8672
  127MOL0     H17508  10.523   2.285   2.236 -0.2917  0.3278  0.9049
  127MOL0     H17509  10.455   2.432   2.076  1.2597 -2.7681 -1.6296
  127MOL0     H17510  11.833   2.394   2.175  1.4408  1.5695  2.5830
  127MOL0     H17511  11.777   2.577   2.312 -0.4367  2.9790  1.1307
  127MOL0     H17512  11.656   3.064   2.293 -0.1591 -2.1827 -1.0178
  127MOL0     H17513  11.623   3.258   2.429 -2.4381  0.5410 -0.3674
  127MOL0     H17514  11.644   3.367   2.784  0.0573  3.4776  0.1967
  127MOL0     H17515  11.686   3.330   2.620 -2.8013 -0.7461 -1.2616
  127MOL0     H17516  11.439   3.495   2.672  0.6807 -1.7239 -0.4695
  127MOL0     H17517  11.526   3.477   2.522  0.9891 -2.4774 -0.4964
  127MOL0     H17518  11.677   3.617   2.764  3.6005  1.3795 -1.2286
  127MOL0     H17519  11.728   3.586   2.616 -0.2507 -0.6639  1.5531
  127MOL0     H17520  11.507   3.720   2.533  3.4566 -1.8311 -1.8013
  127MOL0     H17521  11.641   3.818   2.611 -0.0019 -0.2468  0.3152
  127MOL0     H17522  11.300   3.819   2.866  1.5899 -0.3247  0.5491
  127MOL0     H17523  11.518   2.999   2.765  2.9589  1.9067  1.5188
  127MOL0     H17524  11.553   2.771   2.747 -1.6429 -0.4848  0.7922
  127MOL0     H17525  11.453   2.706   2.619  0.7102  0.0340 -0.3469
  127MOL0     H17526  11.629   2.699   2.606  1.1368  0.6829 -0.5223
  128MOL0     O17527   1.261   9.831   7.853  0.0726 -0.8441 -0.0224
  128MOL0     C17528   1.275   9.719   7.885 -0.5207  0.3832 -0.9147
  128MOL0     O17529   1.339   9.669   7.998  1.0096 -0.5082 -0.6346
  128MOL0     C17530   1.401   9.757   8.082 -0.2725  0.6683 -0.8316
  128MOL0     C17531   1.538   9.741   8.099  0.8303 -0.3411 -0.5149
  128MOL0     C17532   1.613   9.833   8.172  0.7495  0.6424  0.7395
  128MOL0     C17533   1.553   9.945   8.225 -0.3191  0.0824  0.6177
  128MOL0     O17534   1.633  10.036   8.293  0.1001 -0.7897  0.2540
  128MOL0     C17535   1.569  10.118   8.386  0.0797 -0.9134  0.8229
  128MOL0     C17536   1.666  10.210   8.456  0.7844  0.1840 -0.4016
  128MOL0     C17537   1.764  10.122   8.539  0.3987 -0.0976  0.8168
  128MOL0     C17538   1.861  10.202   8.620 -0.0505  0.8738  0.6711
  128MOL0     C17539   1.775  10.281   8.724 -0.9680 -0.1276  0.4921
  128MOL0     C17540   1.850  10.320   8.851  0.1827  0.3828  1.4850
  128MOL0     C17541   1.959  10.430   8.834 -0.4716 -0.0760 -0.5295
  128MOL0     C17542   2.054  10.428   8.958  0.1576 -0.0121 -0.4777
  128MOL0     N17543   2.151  10.325   8.911 -1.0963 -0.7706 -0.9654
  128MOL0     C17544   2.273  10.370   8.844  0.9907  1.1694 -0.4340
  128MOL0     C17545   2.331  10.253   8.814 -0.4863 -0.3066 -0.0850
  128MOL0     C17546   2.455  10.242   8.720 -0.1338 -1.1190  0.6726
  128MOL0     C17547   2.574  10.342   8.735  0.0680  0.4372 -0.6741
  128MOL0     C17548   2.549  10.482   8.673 -0.1987 -0.3735  0.0976
  128MOL0     C17549   2.538  10.492   8.525 -0.6909  0.4630 -0.3302
  128MOL0     O17550   2.576  10.622   8.480 -0.2124 -0.4582 -0.5382
  128MOL0     C17551   2.648  10.630   8.357  0.6704 -0.2836  0.4695
  128MOL0     C17552   2.748  10.720   8.340 -1.0419 -0.2333 -0.0765
  128MOL0     C17553   2.819  10.727   8.211  0.0587  0.0537 -0.0180
  128MOL0     C17554   2.955  10.792   8.207 -0.3017  0.3337  0.2875
  128MOL0     C17555   2.768  10.649   8.098 -0.3264  0.8284 -0.2487
  128MOL0     C17556   2.827  10.649   7.959  0.2465 -0.1802 -0.1142
  128MOL0     O17557   2.776  10.549   7.876  0.6515  0.3090 -0.1183
  128MOL0     C17558   2.806  10.555   7.743 -0.2996  0.0735 -0.1068
  128MOL0     C17559   2.909  10.484   7.692  0.3070  0.3270  0.5052
  128MOL0     C17560   2.932  10.464   7.551  0.1780 -0.5217 -0.3327
  128MOL0     C17561   2.857  10.539   7.465 -0.5181 -0.9981 -0.6732
  128MOL0     O17562   2.888  10.533   7.322 -0.4478  0.5992 -0.1765
  128MOL0     C17563   2.983  10.428   7.275 -0.3171 -0.2672  0.0056
  128MOL0     C17564   3.041  10.442   7.136  0.6964  0.8363 -1.1610
  128MOL0     C17565   2.934  10.413   7.033 -0.2018 -0.3005  0.6047
  128MOL0     C17566   2.876  10.271   7.019 -0.1111 -0.1900 -0.0282
  128MOL0     C17567   2.759  10.241   6.909 -0.6612  0.3895  0.0378
  128MOL0     C17568   2.831  10.236   6.776  0.1501 -0.0994 -0.7808
  128MOL0     C17569   2.743  10.270   6.656  0.6986 -0.1866 -0.2440
  128MOL0     C17570   2.801  10.245   6.521 -0.6672  0.5096  0.5019
  128MOL0    Cl17571   2.872  10.084   6.480  0.8614  0.0558 -0.4714
  128MOL0     C17572   2.756  10.623   7.515  0.1465  0.8359 -0.2494
  128MOL0     C17573   2.725  10.623   7.655  0.4565  0.2698  0.0234
  128MOL0     O17574   2.915  10.724   7.926  0.5436 -0.0852 -0.1140
  128MOL0     C17575   2.640  10.582   8.121 -0.2242  0.3429  0.3505
  128MOL0     C17576   2.591  10.572   8.246  1.0927  0.2058  0.3793
  128MOL0     N17577   2.261  10.138   8.866 -0.0514 -0.6871  0.0733
  128MOL0     N17578   2.154  10.197   8.919 -0.0496  0.1188  0.0614
  128MOL0     C17579   1.414   9.964   8.209 -0.1747 -0.0463 -0.6453
  128MOL0     C17580   1.333   9.867   8.138 -0.3547 -1.0380 -0.7082
  128MOL0     C17581   1.221   9.612   7.807 -0.1436 -0.2089 -0.1840
  128MOL0     C17582   1.306   9.509   7.776 -0.3729  1.2869 -0.1873
  128MOL0     C17583   1.275   9.405   7.696  0.1952 -0.0226 -1.2422
  128MOL0     C17584   1.148   9.396   7.637  0.2303 -0.1935 -0.8688
  128MOL0     O17585   1.090   9.303   7.548  0.5083 -0.6821 -0.1477
  128MOL0     C17586   1.175   9.193   7.499  1.3463  0.6681 -0.0155
  128MOL0     C17587   1.263   9.243   7.381  0.4143  0.2150  1.0860
  128MOL0     C17588   1.175   9.331   7.285  0.0894 -0.0453  0.3911
  128MOL0     C17589   1.058   9.244   7.215 -0.4805  0.4374 -0.0820
  128MOL0     C17590   1.098   9.122   7.152 -0.6078  0.1410 -0.7105
  128MOL0     C17591   1.133   9.021   7.093  1.0057  0.5205 -0.5216
  128MOL0     C17592   1.065   9.504   7.657  0.8141  0.5639  0.7495
  128MOL0     C17593   1.091   9.610   7.749 -0.7955 -0.1620  1.2501
  128MOL0     C17594   0.973   9.698   7.801 -0.9052  0.1682 -0.8171
  128MOL0     H17595   1.570   9.644   8.063 -2.1242 -2.8522  2.8617
  128MOL0     H17596   1.719   9.814   8.186 -0.0623 -3.1436  2.9714
  128MOL0     H17597   1.514  10.058   8.459 -2.2890  0.8316  0.5998
  128MOL0     H17598   1.494  10.181   8.337  0.1266 -2.1078 -0.8537
  128MOL0     H17599   1.722  10.268   8.382 -0.0930 -1.9662 -2.8791
  128MOL0     H17600   1.604  10.277   8.516  2.5856  4.4971 -2.9311
  128MOL0     H17601   1.706  10.059   8.608 -0.4156 -1.7008 -1.2111
  128MOL0     H17602   1.817  10.045   8.481  3.0623  2.2453 -0.0670
  128MOL0     H17603   1.931  10.145   8.682 -0.6013 -0.3535  0.2011
  128MOL0     H17604   1.923  10.265   8.555 -2.4938  2.2625 -0.4192
  128MOL0     H17605   1.690  10.218   8.750  0.2332 -3.2797 -2.5012
  128MOL0     H17606   1.745  10.368   8.665  1.4643  1.2449  1.1008
  128MOL0     H17607   1.782  10.357   8.928 -0.7444  0.6984  0.5325
  128MOL0     H17608   1.891  10.227   8.893 -0.3454 -2.0631 -2.8196
  128MOL0     H17609   1.907  10.525   8.822 -1.5338 -0.9022 -3.2661
  128MOL0     H17610   2.013  10.407   8.742 -0.4596  1.0497 -0.8121
  128MOL0     H17611   2.107  10.523   8.964  1.0664 -0.5826  0.8372
  128MOL0     H17612   2.012  10.392   9.052  1.1589 -2.0010 -0.7275
  128MOL0     H17613   2.305  10.472   8.826  2.2532  2.1646  5.2793
  128MOL0     H17614   2.418  10.250   8.618  1.8855  1.7252  0.0529
  128MOL0     H17615   2.489  10.138   8.726  0.0187 -1.0064  2.4406
  128MOL0     H17616   2.603  10.360   8.839 -3.4826 -3.0391  1.1730
  128MOL0     H17617   2.662  10.295   8.690  0.0441  0.5707 -0.8623
  128MOL0     H17618   2.465  10.535   8.717  0.1744  0.6089 -0.3440
  128MOL0     H17619   2.632  10.549   8.696 -0.9145  0.5911 -0.0517
  128MOL0     H17620   2.604  10.411   8.493 -3.3537 -2.0511  0.0797
  128MOL0     H17621   2.437  10.458   8.497 -0.5822  0.1621 -0.3623
  128MOL0     H17622   2.795  10.765   8.426 -2.8146  0.4005  0.6211
  128MOL0     H17623   3.019  10.715   8.162 -1.9568  0.7421 -3.0657
  128MOL0     H17624   2.995  10.830   8.302  0.3092 -0.8491  0.5234
  128MOL0     H17625   2.954  10.878   8.139 -0.3769 -0.4832 -0.7580
  128MOL0     H17626   2.963  10.413   7.753  1.8386  0.4327 -0.6623
  128MOL0     H17627   3.017  10.399   7.533  3.7668  3.5233  0.2681
  128MOL0     H17628   3.066  10.430   7.348 -1.0141 -1.1572  0.8408
  128MOL0     H17629   2.935  10.331   7.288 -2.8485  0.5536 -2.2210
  128MOL0     H17630   3.077  10.545   7.140  1.7596  0.4248  1.6780
  128MOL0     H17631   3.127  10.378   7.118  0.9344  0.3569  1.3769
  128MOL0     H17632   2.982  10.435   6.937 -1.3455  0.3031  0.1500
  128MOL0     H17633   2.858  10.490   7.051 -0.6038 -0.2279 -1.1833
  128MOL0     H17634   2.833  10.260   7.119  0.1593  2.3563  0.4367
  128MOL0     H17635   2.962  10.205   7.008  0.4099  0.5353 -0.3601
  128MOL0     H17636   2.701  10.152   6.934 -0.0002 -0.9864 -2.8736
  128MOL0     H17637   2.698  10.332   6.899  2.0001  2.5529  2.0353
  128MOL0     H17638   2.878  10.137   6.769  0.1399 -0.3400  1.7636
  128MOL0     H17639   2.907  10.315   6.775 -1.6191  1.8429  2.4311
  128MOL0     H17640   2.716  10.375   6.660  1.3503 -0.0494  1.8860
  128MOL0     H17641   2.647  10.221   6.674  2.3831 -2.8103  2.9334
  128MOL0     H17642   2.882  10.318   6.513  0.6464 -0.9078  0.5253
  128MOL0     H17643   2.724  10.255   6.444  1.7654 -0.6635 -2.2604
  128MOL0     H17644   2.689  10.676   7.448 -0.9330  1.6728  1.4277
  128MOL0     H17645   2.639  10.670   7.701  1.1074  1.2564  0.2586
  128MOL0     H17646   2.590  10.541   8.034  1.8317  1.8919 -1.6898
  128MOL0     H17647   2.496  10.521   8.256  0.5758  1.0348 -0.1683
  128MOL0     H17648   1.368  10.051   8.255  1.4925  1.4122 -1.6584
  128MOL0     H17649   1.225   9.869   8.138 -0.3855  1.4813  0.5201
  128MOL0     H17650   1.408   9.521   7.811  0.0705  2.0600 -1.6419
  128MOL0     H17651   1.344   9.322   7.683  2.1965  1.7161 -2.3050
  128MOL0     H17652   1.243   9.163   7.579  0.3555 -1.1824  0.2013
  128MOL0     H17653   1.116   9.109   7.460  0.9789  1.0390 -0.2552
  128MOL0     H17654   1.317   9.163   7.329  2.0704  1.8108  0.2516
  128MOL0     H17655   1.343   9.309   7.413  1.4062 -0.1912 -0.4770
  128MOL0     H17656   1.139   9.417   7.342  0.8894 -0.2358  1.2256
  128MOL0     H17657   1.242   9.381   7.214  1.2116  0.2493  1.6017
  128MOL0     H17658   1.005   9.302   7.140 -1.0716  0.6019  0.4501
  128MOL0     H17659   0.989   9.214   7.295  1.5596 -1.1506  1.1805
  128MOL0     H17660   1.165   8.943   7.028  2.2011  0.8037 -0.3014
  128MOL0     H17661   0.977   9.514   7.594  1.1633  0.6281  0.2625
  128MOL0     H17662   1.007   9.756   7.888  2.3363 -2.7673  0.1161
  128MOL0     H17663   0.931   9.764   7.724  1.1000  0.6455 -1.5683
  128MOL0     H17664   0.898   9.633   7.846  0.2494 -0.7452 -0.1346
  129MOL0     O17665   5.061   2.998   7.165  0.1980  0.2876 -0.4168
  129MOL0     C17666   5.131   3.001   7.067 -0.4560  0.2959  0.5433
  129MOL0     O17667   5.271   2.997   7.068 -0.0808  1.1655 -0.3408
  129MOL0     C17668   5.333   2.981   7.194  0.2398  0.6220  0.3873
  129MOL0     C17669   5.313   3.090   7.287  0.3477 -0.0574  1.3407
  129MOL0     C17670   5.379   3.084   7.409 -0.4815  0.0350  0.5301
  129MOL0     C17671   5.472   2.983   7.434 -0.5498  0.1419  0.3115
  129MOL0     O17672   5.555   2.973   7.542  0.1278  0.1639 -0.6164
  129MOL0     C17673   5.580   3.090   7.621 -0.3937  0.2347  0.7168
  129MOL0     C17674   5.677   3.056   7.731  0.9291 -0.3130 -0.5645
  129MOL0     C17675   5.618   2.946   7.825  0.5320  0.4638  0.1239
  129MOL0     C17676   5.674   2.969   7.966  0.0382  0.1990  0.0039
  129MOL0     C17677   5.643   2.871   8.078  0.3475 -1.1225 -0.1339
  129MOL0     C17678   5.676   2.929   8.221  0.6919 -0.7161  1.0807
  129MOL0     C17679   5.696   2.833   8.323 -0.6567  0.6223  0.6631
  129MOL0     C17680   5.575   2.774   8.403 -0.4758 -0.2513 -0.9727
  129MOL0     N17681   5.495   2.671   8.331  0.3876 -0.2185 -0.3607
  129MOL0     C17682   5.368   2.693   8.308  0.4530 -0.6484  0.8226
  129MOL0     C17683   5.324   2.577   8.255  0.4406  0.3711 -0.1396
  129MOL0     C17684   5.184   2.528   8.218  0.0371 -0.1435  0.6178
  129MOL0     C17685   5.190   2.408   8.103  1.0342 -0.1357 -1.1174
  129MOL0     C17686   5.052   2.397   8.049  1.1604 -0.5477  0.3630
  129MOL0     C17687   5.035   2.276   7.951 -0.6573  0.2294  0.3312
  129MOL0     O17688   5.109   2.158   8.000  0.3638 -0.2433 -0.4039
  129MOL0     C17689   5.047   2.059   8.072  0.4122 -0.5244  0.1180
  129MOL0     C17690   5.126   1.964   8.122 -1.2225  0.6383  0.7225
  129MOL0     C17691   5.074   1.872   8.223  0.1099  0.1261 -0.6718
  129MOL0     C17692   5.168   1.783   8.292 -0.5349 -0.6737 -0.7791
  129MOL0     C17693   4.930   1.867   8.245  0.6527  0.6823 -0.4717
  129MOL0     C17694   4.857   1.777   8.330 -0.7204 -0.0041  0.9762
  129MOL0     O17695   4.750   1.831   8.377  0.5064 -0.8831 -0.3476
  129MOL0     C17696   4.680   1.763   8.468  1.2123  0.6790 -0.6120
  129MOL0     C17697   4.726   1.736   8.597  1.0921 -0.0146  0.9450
  129MOL0     C17698   4.628   1.689   8.689 -0.9086  0.7507 -0.3556
  129MOL0     C17699   4.484   1.684   8.662  0.0491 -0.7260 -0.4119
  129MOL0     O17700   4.403   1.656   8.765 -0.3884 -0.5977  0.0144
  129MOL0     C17701   4.263   1.633   8.746 -0.0267  0.0676 -1.0745
  129MOL0     C17702   4.183   1.599   8.861 -0.0907 -0.2293 -0.8896
  129MOL0     C17703   4.053   1.522   8.814 -0.8501 -0.4965  1.0389
  129MOL0     C17704   3.974   1.494   8.942  0.4343  0.8346 -0.2088
  129MOL0     C17705   3.850   1.409   8.904  1.3800  1.2691  0.2573
  129MOL0     C17706   3.750   1.364   9.016 -0.8482  0.3677  0.1146
  129MOL0     C17707   3.812   1.299   9.144 -0.3482 -0.3935 -0.4266
  129MOL0     C17708   3.724   1.197   9.213 -0.6901  0.6619  0.1435
  129MOL0    Cl17709   3.798   1.143   9.359 -0.3904  0.2566  0.0337
  129MOL0     C17710   4.439   1.720   8.535  0.3271 -0.1970  1.0700
  129MOL0     C17711   4.536   1.748   8.438  0.2823 -0.3656 -0.2438
  129MOL0     O17712   4.902   1.661   8.336  1.0436  0.3321  0.6706
  129MOL0     C17713   4.855   1.950   8.165  0.4758 -0.8580 -0.3531
  129MOL0     C17714   4.908   2.045   8.086  0.3178  0.5036  0.0910
  129MOL0     N17715   5.431   2.490   8.254  0.3412 -0.2824  0.7287
  129MOL0     N17716   5.538   2.554   8.288  0.1172  0.0393 -0.0575
  129MOL0     C17717   5.480   2.873   7.347 -0.0693 -0.2913  1.0557
  129MOL0     C17718   5.405   2.866   7.223 -0.2606 -0.1106  0.2190
  129MOL0     C17719   5.057   3.006   6.935 -0.1566 -0.5131  0.1361
  129MOL0     C17720   5.083   3.112   6.850 -0.1140  0.5741  1.0932
  129MOL0     C17721   5.024   3.130   6.731  0.2397 -0.1392 -0.0287
  129MOL0     C17722   4.923   3.043   6.696  0.0823  0.9637 -0.0342
  129MOL0     O17723   4.868   3.065   6.570 -0.4626  0.4533 -0.1136
  129MOL0     C17724   4.733   3.033   6.551 -0.3718 -0.2949 -0.5950
  129MOL0     C17725   4.716   3.047   6.395  0.0482 -0.0594 -0.2490
  129MOL0     C17726   4.588   2.983   6.339 -0.2134 -0.5328  0.8715
  129MOL0     C17727   4.572   2.981   6.191 -0.0393 -0.7114  0.4219
  129MOL0     C17728   4.544   3.119   6.149  0.0385 -0.5116  0.7051
  129MOL0     C17729   4.516   3.230   6.114 -0.7426 -0.2355  1.1579
  129MOL0     C17730   4.901   2.927   6.775 -0.1058  0.3297  0.1370
  129MOL0     C17731   4.971   2.912   6.898  0.6605  1.2969 -0.6902
  129MOL0     C17732   4.940   2.799   6.999  0.7530  0.5140  0.8408
  129MOL0     H17733   5.242   3.171   7.271 -0.2366 -0.9892 -1.4277
  129MOL0     H17734   5.362   3.169   7.474 -3.5655  0.6030 -0.8608
  129MOL0     H17735   5.479   3.109   7.658 -1.4952 -2.5744 -0.5181
  129MOL0     H17736   5.628   3.168   7.561  1.1754  0.3616  2.0821
  129MOL0     H17737   5.776   3.019   7.703  2.7677  2.4695  1.7183
  129MOL0     H17738   5.687   3.152   7.782 -2.0134  0.8426 -1.9392
  129MOL0     H17739   5.509   2.962   7.822  0.3574  1.4904  4.8520
  129MOL0     H17740   5.631   2.844   7.788 -2.0533  1.0574 -3.0172
  129MOL0     H17741   5.782   2.965   7.949  0.2419  0.4732  1.1422
  129MOL0     H17742   5.648   3.072   7.992 -0.4624  0.1467 -0.2813
  129MOL0     H17743   5.697   2.778   8.059 -0.5225 -1.6335 -0.1963
  129MOL0     H17744   5.536   2.851   8.067  0.8516 -3.2378 -2.0885
  129MOL0     H17745   5.775   2.972   8.204  0.0224  0.8691  1.0222
  129MOL0     H17746   5.615   3.010   8.261 -2.0036 -1.4566 -1.2481
  129MOL0     H17747   5.757   2.896   8.389 -0.1549  2.4511 -1.4326
  129MOL0     H17748   5.756   2.761   8.267  0.7290  2.7120 -0.6545
  129MOL0     H17749   5.612   2.727   8.494 -0.2703  1.8992  0.1212
  129MOL0     H17750   5.510   2.861   8.417  0.4646  0.2822  0.2667
  129MOL0     H17751   5.308   2.775   8.346  0.8156 -0.8033  1.7473
  129MOL0     H17752   5.136   2.617   8.176  2.2544  0.3720 -1.0200
  129MOL0     H17753   5.125   2.493   8.303 -2.7813  3.2150  0.2607
  129MOL0     H17754   5.267   2.433   8.029 -0.6992  1.8102 -2.3529
  129MOL0     H17755   5.220   2.322   8.164 -4.4329 -2.2065 -0.7461
  129MOL0     H17756   4.977   2.396   8.128 -0.3558 -1.4341 -1.0186
  129MOL0     H17757   5.032   2.490   7.994  2.3000 -0.8221 -0.5659
  129MOL0     H17758   4.929   2.255   7.934  0.0224 -2.3067 -1.2191
  129MOL0     H17759   5.070   2.314   7.854 -0.0287 -0.7925  0.1488
  129MOL0     H17760   5.232   1.984   8.107 -0.4497 -1.4643  2.7209
  129MOL0     H17761   5.270   1.817   8.274 -0.4658 -1.4871 -2.1328
  129MOL0     H17762   5.160   1.681   8.253  3.1101 -1.3555 -0.0835
  129MOL0     H17763   5.141   1.775   8.397  0.8520  0.3564 -0.3162
  129MOL0     H17764   4.831   1.745   8.622  1.6843 -0.9349 -1.0224
  129MOL0     H17765   4.677   1.656   8.780  0.0241  1.1092 -0.7192
  129MOL0     H17766   4.224   1.726   8.705 -1.7423  0.0699  0.4381
  129MOL0     H17767   4.245   1.551   8.676  0.5452 -2.0419  1.1024
  129MOL0     H17768   4.237   1.537   8.935  3.0058 -0.2364 -2.9602
  129MOL0     H17769   4.157   1.697   8.902 -2.2728 -0.1531 -2.3013
  129MOL0     H17770   4.068   1.428   8.760 -0.9642 -0.5253  1.0557
  129MOL0     H17771   3.995   1.583   8.744 -2.8331 -3.5929 -0.2566
  129MOL0     H17772   3.948   1.591   8.986  2.6336  1.0622  0.7470
  129MOL0     H17773   4.045   1.441   9.006  0.4999  2.8346  1.5084
  129MOL0     H17774   3.782   1.464   8.838 -3.8519 -2.5035  1.7356
  129MOL0     H17775   3.883   1.326   8.842 -1.9760  0.4276 -0.6477
  129MOL0     H17776   3.677   1.303   8.962 -1.6858  1.7280 -0.3498
  129MOL0     H17777   3.701   1.457   9.047  0.8825  1.0565  0.8938
  129MOL0     H17778   3.842   1.383   9.207  0.9273  0.2665 -1.8764
  129MOL0     H17779   3.903   1.257   9.101  1.7041  3.9968 -0.8857
  129MOL0     H17780   3.697   1.110   9.152  1.4910 -1.6802  2.2783
  129MOL0     H17781   3.639   1.257   9.248 -0.3425  2.3006 -1.6919
  129MOL0     H17782   4.336   1.701   8.509  0.2190 -0.7796  1.8912
  129MOL0     H17783   4.497   1.777   8.342  2.1520 -1.9590 -1.5629
  129MOL0     H17784   4.747   1.955   8.179  0.9870  0.3078  6.3205
  129MOL0     H17785   4.847   2.128   8.050  0.8643  0.8440 -0.0565
  129MOL0     H17786   5.544   2.791   7.381 -1.5677 -1.5256  1.0221
  129MOL0     H17787   5.416   2.782   7.154  0.8118  1.9498 -2.2937
  129MOL0     H17788   5.145   3.195   6.885  1.2803 -0.1511  0.4383
  129MOL0     H17789   5.047   3.214   6.666  3.5292 -0.4830  0.5091
  129MOL0     H17790   4.694   2.934   6.573 -4.3205  0.9957 -1.0716
  129MOL0     H17791   4.676   3.113   6.599  0.2951  0.5976 -1.2371
  129MOL0     H17792   4.804   3.003   6.347 -0.3949 -0.9977 -0.2250
  129MOL0     H17793   4.730   3.149   6.359 -0.7192 -0.2077 -0.9941
  129MOL0     H17794   4.590   2.879   6.372 -4.0385 -0.3182  2.2986
  129MOL0     H17795   4.497   3.018   6.388 -0.7253 -2.1622  1.1723
  129MOL0     H17796   4.479   2.928   6.170 -0.5229  0.4099 -0.3779
  129MOL0     H17797   4.650   2.935   6.131  0.0133 -1.2698  0.9072
  129MOL0     H17798   4.477   3.326   6.087 -1.5833 -0.4215  1.6799
  129MOL0     H17799   4.840   2.840   6.756  0.4161 -0.3186  1.3517
  129MOL0     H17800   4.860   2.822   7.071  1.9725  0.6767  2.1853
  129MOL0     H17801   4.899   2.722   6.933  2.7284  0.8638 -0.8949
  129MOL0     H17802   5.031   2.753   7.039  1.2752 -1.6641 -2.4214
  130MOL0     O17803   9.955   6.043   0.137 -0.2749  0.7707 -0.2338
  130MOL0     C17804   9.980   6.149   0.086 -0.4862  0.7845  0.5128
  130MOL0     O17805   9.885   6.229   0.030  0.2868 -0.1570 -0.2014
  130MOL0     C17806   9.748   6.211   0.045 -0.8956 -0.6445  0.4890
  130MOL0     C17807   9.680   6.161   0.157  0.7645  0.4597 -0.4245
  130MOL0     C17808   9.544   6.166   0.166  0.0322  0.5406  0.8663
  130MOL0     C17809   9.470   6.200   0.048  0.7250 -0.6872 -0.3596
  130MOL0     O17810   9.338   6.229   0.076  0.9093 -0.2046  0.3601
  130MOL0     C17811   9.252   6.262  -0.036  0.0439 -0.3750  0.2223
  130MOL0     C17812   9.197   6.140  -0.114  0.0373  0.5104 -0.1553
  130MOL0     C17813   9.089   6.166  -0.217 -0.2823  0.6655  0.3751
  130MOL0     C17814   9.063   6.056  -0.317 -0.4686  0.4071  0.5188
  130MOL0     C17815   9.018   5.928  -0.242 -0.0674  0.3581 -0.0978
  130MOL0     C17816   8.955   5.824  -0.328  0.6388  0.1679  0.4290
  130MOL0     C17817   8.805   5.857  -0.365 -0.2453  0.3497  1.5481
  130MOL0     C17818   8.753   5.767  -0.489 -0.3279 -0.1848  0.0438
  130MOL0     N17819   8.838   5.769  -0.608  0.0514  0.6675 -0.4301
  130MOL0     C17820   8.867   5.875  -0.681 -0.3641 -0.1049 -0.2400
  130MOL0     C17821   8.957   5.838  -0.773 -0.4740 -0.4865  1.0726
  130MOL0     C17822   8.997   5.937  -0.883 -0.4405 -0.4616 -0.9654
  130MOL0     C17823   9.150   5.960  -0.894 -0.0968 -0.5152  0.2622
  130MOL0     C17824   9.194   6.048  -0.775 -0.0112 -0.5316 -0.0260
  130MOL0     C17825   9.187   6.203  -0.782  0.3210 -0.2004  0.0204
  130MOL0     O17826   9.059   6.251  -0.837  0.3618  0.2212 -0.2942
  130MOL0     C17827   8.961   6.260  -0.744  0.5398 -1.1192 -1.6461
  130MOL0     C17828   8.832   6.218  -0.779 -0.0717 -0.0534  0.7142
  130MOL0     C17829   8.716   6.243  -0.692  0.4341 -0.1491  0.3496
  130MOL0     C17830   8.578   6.208  -0.733  0.8499 -0.2617  0.1670
  130MOL0     C17831   8.740   6.317  -0.573 -0.2910  0.0090  0.1668
  130MOL0     C17832   8.631   6.348  -0.471  0.7018 -0.7871 -0.0268
  130MOL0     O17833   8.507   6.296  -0.490 -0.0945  0.2588  0.0625
  130MOL0     C17834   8.412   6.341  -0.408 -0.0808  0.1960 -0.1908
  130MOL0     C17835   8.314   6.417  -0.457  0.0779  0.3667  0.2332
  130MOL0     C17836   8.196   6.448  -0.383 -0.0372  0.6974  0.0103
  130MOL0     C17837   8.186   6.400  -0.251 -0.7259  0.1732 -0.0803
  130MOL0     O17838   8.069   6.418  -0.179  0.4279 -0.0308  0.0237
  130MOL0     C17839   8.038   6.547  -0.129 -0.4166  0.3467  1.0644
  130MOL0     C17840   7.916   6.621  -0.189  0.4074 -1.6267  0.4653
  130MOL0     C17841   7.784   6.550  -0.147  0.2249  0.5464 -0.5499
  130MOL0     C17842   7.678   6.654  -0.143 -0.2848  0.6122 -0.0182
  130MOL0     C17843   7.551   6.579  -0.100 -0.0088 -0.4010 -0.0171
  130MOL0     C17844   7.446   6.683  -0.055 -0.5106 -0.2777  0.5296
  130MOL0     C17845   7.304   6.629  -0.093  0.3447  1.1476  0.7229
  130MOL0     C17846   7.212   6.751  -0.069  0.8108  0.3215 -0.3000
  130MOL0    Cl17847   7.036   6.719  -0.111 -0.1217  0.2029 -0.2825
  130MOL0     C17848   8.289   6.324  -0.198  0.2875 -0.9769  0.9434
  130MOL0     C17849   8.395   6.290  -0.281 -0.0099  0.4693  0.2329
  130MOL0     O17850   8.664   6.419  -0.375 -0.7640  0.3269 -0.7227
  130MOL0     C17851   8.876   6.345  -0.536 -0.6879 -0.3718  0.4342
  130MOL0     C17852   8.984   6.320  -0.614  0.4797  0.1368  0.9301
  130MOL0     N17853   8.981   5.707  -0.747 -1.3673  0.1085  0.9558
  130MOL0     N17854   8.905   5.658  -0.658  0.9397 -0.1644 -0.1655
  130MOL0     C17855   9.537   6.232  -0.070 -0.6807  0.0406 -0.3137
  130MOL0     C17856   9.678   6.241  -0.070 -0.0786  0.0667  0.5979
  130MOL0     C17857  10.119   6.199   0.067 -0.8015  0.0826  0.0921
  130MOL0     C17858  10.138   6.322   0.004  0.1888  0.0334 -0.3421
  130MOL0     C17859  10.256   6.392   0.008 -0.6157 -0.0596  0.7700
  130MOL0     C17860  10.372   6.333   0.074 -0.1368 -0.2737 -0.1555
  130MOL0     O17861  10.494   6.396   0.096 -0.1395  0.4161  0.5082
  130MOL0     C17862  10.523   6.506   0.017 -0.7095  0.3460 -0.0519
  130MOL0     C17863  10.511   6.639   0.094  0.3149 -0.0052  0.1121
  130MOL0     C17864  10.592   6.644   0.214 -0.4741 -0.1686 -0.0363
  130MOL0     C17865  10.635   6.785   0.265  0.5210 -0.5536  0.4481
  130MOL0     C17866  10.682   6.789   0.404 -0.3818 -1.0237  0.5179
  130MOL0     C17867  10.711   6.766   0.524  0.2060  0.7290  1.1605
  130MOL0     C17868  10.344   6.210   0.124 -0.7507 -0.1851  0.3638
  130MOL0     C17869  10.232   6.132   0.125  0.8410 -0.3773  0.3233
  130MOL0     C17870  10.234   5.992   0.181 -0.4214  0.0489  0.3843
  130MOL0     H17871   9.741   6.124   0.238  1.8997  2.8502 -0.0948
  130MOL0     H17872   9.490   6.158   0.260  1.6311  2.0891  1.9682
  130MOL0     H17873   9.300   6.326  -0.111 -1.2080  1.9933  1.3064
  130MOL0     H17874   9.169   6.321   0.006 -0.7287 -0.8059 -0.6596
  130MOL0     H17875   9.274   6.075  -0.156 -3.5902 -2.5140 -2.6573
  130MOL0     H17876   9.146   6.072  -0.046 -0.5153  0.5481 -0.5349
  130MOL0     H17877   8.997   6.192  -0.165 -0.8827  0.4533 -0.5560
  130MOL0     H17878   9.115   6.247  -0.286  0.5977  0.7469  0.7827
  130MOL0     H17879   8.969   6.080  -0.369 -1.8209 -0.7358  2.3003
  130MOL0     H17880   9.149   6.036  -0.381 -1.3512  0.2635 -0.6736
  130MOL0     H17881   8.952   5.958  -0.160 -2.3212 -2.2310 -0.8393
  130MOL0     H17882   9.105   5.886  -0.190 -0.3558 -1.2215 -0.8322
  130MOL0     H17883   9.021   5.801  -0.412  1.0213 -0.9271  1.0013
  130MOL0     H17884   8.940   5.728  -0.278 -1.2346  1.2103  2.0060
  130MOL0     H17885   8.782   5.954  -0.410 -0.3405 -0.9656 -1.4842
  130MOL0     H17886   8.747   5.850  -0.273  1.5381 -4.0427  2.6082
  130MOL0     H17887   8.755   5.667  -0.444  3.4214 -0.6056 -0.6929
  130MOL0     H17888   8.657   5.798  -0.531  1.4229  1.3441 -3.2019
  130MOL0     H17889   8.824   5.972  -0.662  1.6152  0.2288  3.6225
  130MOL0     H17890   8.944   6.032  -0.874  2.4897  1.1370  0.9515
  130MOL0     H17891   8.967   5.905  -0.984 -0.4790  4.4198 -2.7626
  130MOL0     H17892   9.203   5.864  -0.901  0.5402 -0.2696  1.4179
  130MOL0     H17893   9.166   6.008  -0.991 -2.1297 -1.7357 -0.7546
  130MOL0     H17894   9.134   6.010  -0.692 -2.7035  0.0097 -1.6085
  130MOL0     H17895   9.301   6.032  -0.754  0.0391  1.5666  1.6018
  130MOL0     H17896   9.207   6.249  -0.685 -0.4401 -0.0521  0.1184
  130MOL0     H17897   9.258   6.235  -0.859 -0.2421 -3.7109 -2.1401
  130MOL0     H17898   8.806   6.182  -0.878  1.1770  1.7563 -0.3436
  130MOL0     H17899   8.508   6.286  -0.765  1.8770  0.2317 -0.9802
  130MOL0     H17900   8.529   6.146  -0.658  2.3982 -1.6880  0.0558
  130MOL0     H17901   8.582   6.145  -0.823 -0.5642 -1.8232  1.1482
  130MOL0     H17902   8.314   6.460  -0.557  0.6595  0.0129  0.0773
  130MOL0     H17903   8.103   6.493  -0.416 -1.1545 -0.4775  1.3949
  130MOL0     H17904   8.035   6.551  -0.020  1.3972  0.3426  1.1512
  130MOL0     H17905   8.120   6.617  -0.151  0.8712 -1.5147 -0.4195
  130MOL0     H17906   7.916   6.726  -0.158  2.6922 -0.8038 -1.9561
  130MOL0     H17907   7.924   6.633  -0.297  2.4333  0.8203  0.8002
  130MOL0     H17908   7.790   6.511  -0.045  0.2293  1.1167 -0.3323
  130MOL0     H17909   7.753   6.469  -0.214  2.2801 -0.1330 -0.7771
  130MOL0     H17910   7.663   6.699  -0.241 -1.3137  0.6676  0.1532
  130MOL0     H17911   7.714   6.732  -0.075  1.7053  1.1567 -1.6234
  130MOL0     H17912   7.512   6.503  -0.168  0.1735  0.3702 -1.0201
  130MOL0     H17913   7.573   6.514  -0.015  0.7354  0.7868  0.7429
  130MOL0     H17914   7.463   6.774  -0.113 -1.1116  0.5935  1.6845
  130MOL0     H17915   7.468   6.716   0.047 -0.6127  2.9832 -0.3968
  130MOL0     H17916   7.276   6.538  -0.038 -2.7784 -0.1476 -2.6292
  130MOL0     H17917   7.305   6.598  -0.198 -1.5962  1.4041  0.5981
  130MOL0     H17918   7.250   6.841  -0.120  0.1943  2.6501  3.0583
  130MOL0     H17919   7.210   6.762   0.039 -4.0199 -1.5190  0.0605
  130MOL0     H17920   8.296   6.280  -0.099 -0.7457  1.5839  2.2513
  130MOL0     H17921   8.475   6.231  -0.237  1.3896  1.9270 -0.2857
  130MOL0     H17922   8.893   6.382  -0.435  3.1075  0.2611 -0.2821
  130MOL0     H17923   9.079   6.356  -0.577 -0.1626 -0.4394  3.3287
  130MOL0     H17924   9.476   6.235  -0.159  1.3207  0.4842 -1.7506
  130MOL0     H17925   9.725   6.265  -0.165  1.0163  0.0569  1.1308
  130MOL0     H17926  10.052   6.369  -0.043  0.1034 -1.3649 -1.6799
  130MOL0     H17927  10.252   6.485  -0.049 -2.9126 -1.0925 -0.9157
  130MOL0     H17928  10.622   6.492  -0.027  0.1599 -0.1244  1.9464
  130MOL0     H17929  10.468   6.512  -0.077  2.6807  1.3313 -2.1585
  130MOL0     H17930  10.406   6.660   0.114  1.1812  5.6846  0.5593
  130MOL0     H17931  10.531   6.733   0.040 -1.7743  0.2483 -0.2957
  130MOL0     H17932  10.525   6.604   0.291 -1.4429 -2.1409 -1.8302
  130MOL0     H17933  10.684   6.587   0.199 -0.4172 -0.6257  1.7475
  130MOL0     H17934  10.544   6.843   0.283  0.5959 -0.5478  0.8167
  130MOL0     H17935  10.703   6.832   0.194 -1.6119 -0.1677 -1.4505
  130MOL0     H17936  10.734   6.757   0.628 -0.0958  1.1707  1.2678
  130MOL0     H17937  10.432   6.172   0.176 -0.3244  0.4799  0.1273
  130MOL0     H17938  10.325   5.990   0.243 -1.8308 -1.1561  2.5637
  130MOL0     H17939  10.154   5.958   0.248 -1.5013 -0.9315 -1.3450
  130MOL0     H17940  10.242   5.926   0.095  1.4409 -0.6832  1.0625
  131MOL0     O17941   1.092   1.083   7.431  0.4852  0.1113  0.5610
  131MOL0     C17942   1.098   1.006   7.339  0.2988 -0.8176  0.4693
  131MOL0     O17943   1.082   0.866   7.350 -0.3331 -0.1631 -0.8754
  131MOL0     C17944   1.022   0.807   7.459 -0.6757  0.9789 -0.2566
  131MOL0     C17945   1.102   0.769   7.579  0.4875 -0.0632  0.2493
  131MOL0     C17946   1.050   0.696   7.690 -0.2459  0.1313 -0.4136
  131MOL0     C17947   0.928   0.645   7.675 -0.6534  0.5057  0.4530
  131MOL0     O17948   0.884   0.558   7.762 -1.0740 -0.1007 -0.8356
  131MOL0     C17949   0.848   0.431   7.700 -0.1968 -0.5343  0.2588
  131MOL0     C17950   0.876   0.311   7.809  0.3606 -0.4917  0.1851
  131MOL0     C17951   1.023   0.319   7.865  0.5378 -1.1696  0.5547
  131MOL0     C17952   1.119   0.295   7.756 -0.6615 -0.5977 -1.0039
  131MOL0     C17953   1.272   0.299   7.784 -0.8959 -0.4354  0.4712
  131MOL0     C17954   1.336   0.190   7.872  0.0865 -0.5467 -0.2111
  131MOL0     C17955   1.487   0.182   7.885  0.2451  0.7685  0.4912
  131MOL0     C17956   1.559   0.140   7.759  0.3412  0.6380  0.5698
  131MOL0     N17957   1.699   0.102   7.790 -0.4463 -0.2053 -0.4594
  131MOL0     C17958   1.732  -0.014   7.850 -0.1013  0.8524 -0.2034
  131MOL0     C17959   1.865  -0.017   7.837  0.0302 -0.5269 -0.3926
  131MOL0     C17960   1.961  -0.124   7.882  0.9624 -0.2018  0.3539
  131MOL0     C17961   2.089  -0.147   7.800 -0.6028  0.1989  0.5913
  131MOL0     C17962   2.084  -0.259   7.698 -0.3073  0.4464 -0.0410
  131MOL0     C17963   2.208  -0.236   7.619  0.2403 -0.3815  0.1284
  131MOL0     O17964   2.239  -0.343   7.522  0.6120 -0.2080  0.4893
  131MOL0     C17965   2.333  -0.321   7.429 -0.4317 -0.2564 -0.1476
  131MOL0     C17966   2.339  -0.412   7.321 -0.2785  0.4516  0.7371
  131MOL0     C17967   2.443  -0.392   7.226  0.2790  0.5238  0.5152
  131MOL0     C17968   2.455  -0.499   7.123 -0.7394  0.2440 -0.1343
  131MOL0     C17969   2.521  -0.272   7.219 -0.2674 -0.1929 -0.2169
  131MOL0     C17970   2.627  -0.247   7.116  0.5395  0.5366  1.0095
  131MOL0     O17971   2.731  -0.158   7.141  0.1449  0.1593 -0.1232
  131MOL0     C17972   2.845  -0.160   7.071 -0.3323  0.9836  0.8212
  131MOL0     C17973   2.894  -0.045   7.026  0.4467  0.6183 -0.2376
  131MOL0     C17974   3.025  -0.036   6.993 -0.8509  1.0811  1.3633
  131MOL0     C17975   3.111  -0.147   6.986  0.0762 -0.1607 -0.1505
  131MOL0     O17976   3.246  -0.138   6.977  0.3136 -0.4803  0.1439
  131MOL0     C17977   3.314  -0.016   6.953  0.8534 -0.4493  0.0084
  131MOL0     C17978   3.289   0.061   6.809  0.6651  0.9309  0.6038
  131MOL0     C17979   3.408   0.144   6.775 -0.7803 -0.4306 -0.2971
  131MOL0     C17980   3.375   0.251   6.666  0.0335  0.4582  0.2016
  131MOL0     C17981   3.493   0.334   6.626  0.1383 -0.6944 -0.2003
  131MOL0     C17982   3.588   0.256   6.536  0.5284 -0.8802 -0.3185
  131MOL0     C17983   3.710   0.343   6.479  0.7563  0.2669 -0.3755
  131MOL0     C17984   3.708   0.335   6.323 -0.3261 -0.4097  0.4206
  131MOL0    Cl17985   3.832   0.418   6.229 -0.2227 -0.1395  0.0310
  131MOL0     C17986   3.055  -0.274   7.007  0.4107  0.3025  0.5831
  131MOL0     C17987   2.922  -0.278   7.055  0.1237  0.7715 -0.8717
  131MOL0     O17988   2.601  -0.285   7.001 -0.0231  1.1802  0.4295
  131MOL0     C17989   2.509  -0.181   7.328  0.1659 -0.1558  1.0480
  131MOL0     C17990   2.417  -0.206   7.430  0.4616  0.5419  0.3504
  131MOL0     N17991   1.909   0.097   7.778  0.2991  0.5308 -0.8357
  131MOL0     N17992   1.808   0.165   7.745 -0.2807 -0.6821 -0.4007
  131MOL0     C17993   0.844   0.681   7.562  0.5432 -0.4248 -0.4993
  131MOL0     C17994   0.896   0.750   7.456 -0.1459 -0.6513  0.2471
  131MOL0     C17995   1.148   1.059   7.208  0.2085 -0.1641 -0.1252
  131MOL0     C17996   1.273   1.120   7.202  0.2927  0.2199  0.2815
  131MOL0     C17997   1.329   1.161   7.088  0.7146 -0.2505 -0.4295
  131MOL0     C17998   1.252   1.138   6.974 -0.2133  0.0375  0.7252
  131MOL0     O17999   1.289   1.169   6.851 -0.2290 -0.6652  0.5245
  131MOL0     C18000   1.416   1.227   6.834  0.9763 -0.7524  0.4816
  131MOL0     C18001   1.416   1.379   6.863 -0.0143  0.3675  0.1692
  131MOL0     C18002   1.290   1.456   6.812 -0.2941  0.1372  0.6758
  131MOL0     C18003   1.300   1.609   6.825 -0.3012  0.4622  0.4198
  131MOL0     C18004   1.286   1.636   6.967 -0.1724  1.4138 -0.3010
  131MOL0     C18005   1.264   1.651   7.086  0.9494 -0.0461  0.0056
  131MOL0     C18006   1.127   1.085   6.980 -0.1218  0.9520  0.2329
  131MOL0     C18007   1.070   1.036   7.094 -0.7674 -0.1732 -1.1647
  131MOL0     C18008   0.928   0.991   7.095 -0.4524 -0.0680 -0.7278
  131MOL0     H18009   1.209   0.786   7.571  0.8529 -0.2380  3.4849
  131MOL0     H18010   1.098   0.666   7.782 -1.2291  2.1283  0.8166
  131MOL0     H18011   0.894   0.412   7.602  0.0228 -1.7268  0.5753
  131MOL0     H18012   0.739   0.436   7.689 -0.0896  0.1764 -0.5658
  131MOL0     H18013   0.807   0.324   7.893 -1.6083  1.4507 -1.6180
  131MOL0     H18014   0.851   0.218   7.757 -1.4317  0.0879 -0.0562
  131MOL0     H18015   1.041   0.415   7.912 -0.3389  1.4611 -3.8697
  131MOL0     H18016   1.020   0.242   7.942 -2.0702 -1.5870  0.1145
  131MOL0     H18017   1.094   0.202   7.705  0.8884 -2.8935  2.1041
  131MOL0     H18018   1.100   0.372   7.681 -1.1528 -0.2635 -0.5461
  131MOL0     H18019   1.285   0.396   7.833 -2.1303  1.4939 -2.7058
  131MOL0     H18020   1.319   0.288   7.686 -2.1625 -4.0612  0.0947
  131MOL0     H18021   1.297   0.200   7.974 -0.8186 -1.9399 -0.3972
  131MOL0     H18022   1.309   0.090   7.836  4.1119 -1.8381 -0.1445
  131MOL0     H18023   1.505   0.106   7.962  3.2616 -0.8449 -1.6265
  131MOL0     H18024   1.535   0.273   7.923  3.6505 -1.6657  2.6325
  131MOL0     H18025   1.518   0.053   7.706  1.6819  0.2466  0.1144
  131MOL0     H18026   1.554   0.217   7.681 -0.3777 -0.3118 -0.3483
  131MOL0     H18027   1.666  -0.087   7.895 -1.4972  1.4268 -1.2259
  131MOL0     H18028   1.902  -0.214   7.898 -3.5645  2.4677  0.5089
  131MOL0     H18029   2.002  -0.089   7.977  2.3007  2.0537 -0.9464
  131MOL0     H18030   2.134  -0.055   7.761 -1.6097  0.3494 -0.2533
  131MOL0     H18031   2.166  -0.173   7.874  0.6486  3.0508  0.4304
  131MOL0     H18032   2.081  -0.355   7.751  0.1337 -0.4809 -1.6204
  131MOL0     H18033   1.995  -0.262   7.634 -1.3834 -1.0174  1.4532
  131MOL0     H18034   2.195  -0.142   7.563  3.5356  0.6923  0.9648
  131MOL0     H18035   2.297  -0.209   7.676  0.9948 -0.8820 -0.7807
  131MOL0     H18036   2.296  -0.511   7.332  0.3095  0.4648  4.7581
  131MOL0     H18037   2.391  -0.584   7.149  0.5734 -0.2617  1.6776
  131MOL0     H18038   2.558  -0.535   7.130 -0.3811  0.8905 -1.6055
  131MOL0     H18039   2.448  -0.481   7.015  2.0953 -3.9696 -1.2419
  131MOL0     H18040   2.826   0.038   7.031 -1.8508 -1.2055  0.8106
  131MOL0     H18041   3.055   0.062   6.959 -0.2326  0.4918  0.1135
  131MOL0     H18042   3.292   0.054   7.034  0.1255  0.8499 -1.2571
  131MOL0     H18043   3.420  -0.037   6.966  2.1211  3.2436 -2.7229
  131MOL0     H18044   3.276  -0.018   6.734 -0.9699  0.0350  1.7703
  131MOL0     H18045   3.202   0.126   6.808  0.9620  1.3716 -1.5739
  131MOL0     H18046   3.486   0.084   6.727 -0.4943  0.0100 -0.3868
  131MOL0     H18047   3.450   0.191   6.864  1.8472 -3.9152  0.5360
  131MOL0     H18048   3.295   0.319   6.695  0.4629  1.3655 -0.7001
  131MOL0     H18049   3.337   0.193   6.582 -0.4300  0.1068  0.6447
  131MOL0     H18050   3.464   0.410   6.552  2.0132 -0.0667 -0.3568
  131MOL0     H18051   3.537   0.376   6.716  0.0516 -1.9635  0.4549
  131MOL0     H18052   3.534   0.220   6.448  0.3819  1.0754 -1.0840
  131MOL0     H18053   3.622   0.163   6.583  0.5399  0.0432  1.6049
  131MOL0     H18054   3.805   0.316   6.526 -0.2509 -1.9926  0.5275
  131MOL0     H18055   3.698   0.449   6.503 -2.4879 -0.5435  2.3729
  131MOL0     H18056   3.611   0.358   6.279  1.4202 -0.3355 -3.8347
  131MOL0     H18057   3.721   0.227   6.313 -2.2320 -0.8005  1.7598
  131MOL0     H18058   3.110  -0.368   7.008 -0.0081  0.0457 -0.0369
  131MOL0     H18059   2.867  -0.366   7.085 -3.1894  1.4000 -4.2060
  131MOL0     H18060   2.565  -0.089   7.338  0.0890  0.1182 -0.7296
  131MOL0     H18061   2.424  -0.131   7.509  1.2228  1.9348 -0.9828
  131MOL0     H18062   0.745   0.637   7.565 -0.7124  2.1173 -1.0026
  131MOL0     H18063   0.846   0.767   7.361  0.0954 -2.1011 -0.1600
  131MOL0     H18064   1.343   1.125   7.284 -0.1372  0.8789  0.6243
  131MOL0     H18065   1.431   1.197   7.084  0.8735 -0.4490  1.1753
  131MOL0     H18066   1.488   1.164   6.887 -2.5957 -3.4291  2.5273
  131MOL0     H18067   1.447   1.228   6.729 -0.2689  2.6773 -0.0007
  131MOL0     H18068   1.508   1.418   6.818  2.1476 -2.7481  1.5295
  131MOL0     H18069   1.420   1.387   6.972 -2.0594 -2.8335  0.6067
  131MOL0     H18070   1.271   1.442   6.705 -0.3518  3.8849  0.0602
  131MOL0     H18071   1.205   1.416   6.868 -0.3882 -0.0288  0.4145
  131MOL0     H18072   1.231   1.669   6.765  0.9927  0.9392 -0.6549
  131MOL0     H18073   1.392   1.650   6.781 -1.6482 -0.0437 -3.2105
  131MOL0     H18074   1.251   1.657   7.192  1.6125  1.0862  0.0385
  131MOL0     H18075   1.074   1.078   6.886 -1.2443 -1.1779  0.9548
  131MOL0     H18076   0.926   0.882   7.105  2.9295  0.0052  4.1419
  131MOL0     H18077   0.864   1.032   7.174 -0.3036  1.7643 -1.5118
  131MOL0     H18078   0.887   1.037   7.005 -0.0676  2.0182  0.1156
  132MOL0     O18079  10.368   0.093   1.080 -0.6790 -0.0759  0.0962
  132MOL0     C18080  10.445   0.024   1.149  0.4257  0.2418  0.3648
  132MOL0     O18081  10.452  -0.117   1.146 -0.7303 -0.0849  0.4376
  132MOL0     C18082  10.403  -0.207   1.043  0.0092 -0.6220  0.6452
  132MOL0     C18083  10.328  -0.177   0.921 -0.9153  0.0731  0.3777
  132MOL0     C18084  10.309  -0.277   0.825  0.1475 -0.7604 -0.4998
  132MOL0     C18085  10.354  -0.405   0.846  0.4831  0.3683 -0.7223
  132MOL0     O18086  10.321  -0.498   0.749 -0.0328  0.2034 -0.0648
  132MOL0     C18087  10.382  -0.630   0.758  0.0121 -1.3134 -0.2446
  132MOL0     C18088  10.312  -0.725   0.856  0.8060 -0.4468 -0.4849
  132MOL0     C18089  10.384  -0.852   0.889  0.5405 -0.1489  0.1395
  132MOL0     C18090  10.278  -0.964   0.858  0.1838  0.0254 -0.3323
  132MOL0     C18091  10.324  -1.097   0.917  0.7362 -0.3442  1.5367
  132MOL0     C18092  10.232  -1.212   0.880 -0.0334 -0.9309  0.2491
  132MOL0     C18093  10.113  -1.216   0.972 -0.4664  0.5620  0.3047
  132MOL0     C18094  10.138  -1.311   1.082  0.3623 -0.6966 -0.0758
  132MOL0     N18095  10.145  -1.447   1.038 -0.1238 -0.4357 -0.2492
  132MOL0     C18096  10.053  -1.513   0.972  0.6789  0.4710  0.0442
  132MOL0     C18097  10.100  -1.637   0.959 -0.0916 -0.3318  0.1486
  132MOL0     C18098  10.035  -1.751   0.890 -0.2928  0.3959  0.6954
  132MOL0     C18099   9.895  -1.787   0.939  0.2154 -0.8707 -0.5077
  132MOL0     C18100   9.874  -1.940   0.956  0.2137  0.6711  0.8295
  132MOL0     C18101   9.884  -2.024   0.826 -0.1698 -0.7441 -0.0628
  132MOL0     O18102   9.778  -2.014   0.736  0.1814 -0.2255 -0.0026
  132MOL0     C18103   9.783  -2.084   0.615 -0.2809  0.4189 -0.6403
  132MOL0     C18104   9.837  -2.210   0.593  0.0644 -0.9594 -0.2935
  132MOL0     C18105   9.840  -2.273   0.464  0.3396 -0.3820  0.1192
  132MOL0     C18106   9.929  -2.398   0.453 -0.0622 -0.2599 -0.2809
  132MOL0     C18107   9.769  -2.196   0.359  0.8808  0.3673 -0.5558
  132MOL0     C18108   9.771  -2.233   0.217 -0.3587  0.3965 -0.4565
  132MOL0     O18109   9.691  -2.158   0.130  0.2037 -0.2413 -0.1731
  132MOL0     C18110   9.656  -2.182  -0.001 -0.8323 -0.2710  0.3556
  132MOL0     C18111   9.736  -2.240  -0.098 -0.3583 -0.9086  0.2387
  132MOL0     C18112   9.693  -2.256  -0.231  0.3698 -0.3251  0.4689
  132MOL0     C18113   9.552  -2.236  -0.263 -0.1056  0.2948 -0.5312
  132MOL0     O18114   9.490  -2.259  -0.380  0.8448 -0.8996  0.9804
  132MOL0     C18115   9.553  -2.368  -0.461  0.5485  0.1320 -0.6729
  132MOL0     C18116   9.545  -2.505  -0.388  0.0230 -0.3281 -0.2395
  132MOL0     C18117   9.584  -2.620  -0.488 -0.6561  0.5378  1.6412
  132MOL0     C18118   9.549  -2.746  -0.416  0.1347  0.4664  0.3411
  132MOL0     C18119   9.411  -2.799  -0.458  0.9154  0.1215  0.1180
  132MOL0     C18120   9.380  -2.933  -0.394  0.1755 -0.4146  0.5108
  132MOL0     C18121   9.235  -2.984  -0.406 -0.1873  0.5967  0.5587
  132MOL0     C18122   9.200  -3.010  -0.555  0.6028  0.1618 -0.3146
  132MOL0    Cl18123   9.025  -2.995  -0.577  0.1905  0.1004  0.5486
  132MOL0     C18124   9.475  -2.177  -0.172 -0.6287 -0.0207  0.0478
  132MOL0     C18125   9.521  -2.163  -0.043  0.6403  0.0089 -0.9645
  132MOL0     O18126   9.844  -2.331   0.182  0.5722 -0.7197 -0.3298
  132MOL0     C18127   9.729  -2.069   0.392  0.6447 -0.5641  0.8099
  132MOL0     C18128   9.730  -2.017   0.514 -0.8495 -0.0471 -0.6383
  132MOL0     N18129  10.215  -1.653   1.024  0.2158 -0.2921 -0.0876
  132MOL0     N18130  10.248  -1.538   1.068 -0.6058  0.1918  0.7346
  132MOL0     C18131  10.420  -0.432   0.972  0.7244  0.4010  0.9208
  132MOL0     C18132  10.441  -0.333   1.067  0.4199  0.3731 -0.7332
  132MOL0     C18133  10.538   0.089   1.237  0.3524 -0.5528 -0.4680
  132MOL0     C18134  10.485   0.216   1.282  0.1403  0.4866  0.5395
  132MOL0     C18135  10.545   0.281   1.399 -0.4771  0.0298  0.2688
  132MOL0     C18136  10.654   0.220   1.460 -1.0657  0.3894 -0.6222
  132MOL0     O18137  10.709   0.282   1.567  0.0506  0.1994 -0.0796
  132MOL0     C18138  10.822   0.214   1.629 -0.8051 -0.3283 -0.4292
  132MOL0     C18139  10.884   0.308   1.746 -0.1238  0.8445  0.3854
  132MOL0     C18140  11.046   0.297   1.733  0.1888  0.3676 -0.4950
  132MOL0     C18141  11.124   0.361   1.847  0.8069  1.7397  0.6218
  132MOL0     C18142  11.131   0.501   1.846 -0.4021  0.0697  0.5773
  132MOL0     C18143  11.138   0.625   1.824 -0.5816 -0.1426  0.0099
  132MOL0     C18144  10.712   0.105   1.394 -0.7731  1.6170 -0.1852
  132MOL0     C18145  10.657   0.042   1.284  0.4737 -0.3213 -1.1703
  132MOL0     C18146  10.723  -0.090   1.230  1.9994  0.3024  0.3763
  132MOL0     H18147  10.302  -0.074   0.900 -1.2998 -0.2546 -0.7942
  132MOL0     H18148  10.258  -0.260   0.731 -0.1258 -0.0347 -0.2268
  132MOL0     H18149  10.488  -0.630   0.784  0.5285  0.9647 -2.0217
  132MOL0     H18150  10.381  -0.668   0.656  1.9329 -0.7960 -0.4907
  132MOL0     H18151  10.289  -0.674   0.951  1.2218 -3.9083  1.6584
  132MOL0     H18152  10.222  -0.757   0.802  1.0126 -0.8261 -0.6072
  132MOL0     H18153  10.473  -0.862   0.826 -0.3772 -0.7293 -1.1080
  132MOL0     H18154  10.411  -0.847   0.995  2.2006  2.5143 -0.3255
  132MOL0     H18155  10.172  -0.943   0.877  0.7639  3.3817 -0.3359
  132MOL0     H18156  10.282  -0.972   0.749  1.2198  0.5472 -0.3415
  132MOL0     H18157  10.336  -1.080   1.025 -0.5305  5.2960  1.1010
  132MOL0     H18158  10.424  -1.116   0.877  1.8874  3.5924  2.1377
  132MOL0     H18159  10.176  -1.208   0.786 -2.1350 -1.2897  1.4195
  132MOL0     H18160  10.284  -1.308   0.873 -2.4926 -2.4053  0.9932
  132MOL0     H18161  10.032  -1.248   0.907  0.7173  0.5107 -1.2025
  132MOL0     H18162  10.073  -1.121   1.009 -2.5911 -0.6651  1.3594
  132MOL0     H18163  10.231  -1.289   1.135 -0.2331  1.4505  0.1760
  132MOL0     H18164  10.071  -1.291   1.166  0.4222  0.8933 -0.3769
  132MOL0     H18165   9.963  -1.469   0.931 -2.2172 -0.4875  4.6893
  132MOL0     H18166  10.100  -1.838   0.906  0.4227  0.4422 -1.5644
  132MOL0     H18167  10.038  -1.728   0.783  5.1019  1.0357  0.6764
  132MOL0     H18168   9.892  -1.738   1.037  0.3767  1.3209 -1.5452
  132MOL0     H18169   9.818  -1.744   0.874  1.1689  1.5903 -0.1041
  132MOL0     H18170   9.954  -1.967   1.026  1.6768  1.1982 -0.5666
  132MOL0     H18171   9.783  -1.972   1.007  1.6023  0.8488  3.5718
  132MOL0     H18172   9.968  -1.998   0.760 -1.2535  0.0859 -1.1652
  132MOL0     H18173   9.898  -2.124   0.868  4.0366 -0.1308  0.4768
  132MOL0     H18174   9.890  -2.266   0.669 -1.5365 -2.4434 -0.2183
  132MOL0     H18175  10.023  -2.378   0.400  0.9508  1.1134  1.8856
  132MOL0     H18176   9.886  -2.480   0.393 -2.7418 -0.4877  1.7754
  132MOL0     H18177   9.964  -2.439   0.548 -0.1585 -1.0875 -0.5900
  132MOL0     H18178   9.843  -2.244  -0.085 -0.2889  2.2388  1.7186
  132MOL0     H18179   9.767  -2.297  -0.300  2.1502  0.8813  1.5842
  132MOL0     H18180   9.485  -2.377  -0.546 -3.1201 -0.7614  2.0828
  132MOL0     H18181   9.653  -2.339  -0.494 -0.4401  3.1232 -1.4050
  132MOL0     H18182   9.596  -2.511  -0.292 -0.5744 -1.7924  0.0174
  132MOL0     H18183   9.438  -2.518  -0.367  0.0917  0.5454  0.7201
  132MOL0     H18184   9.692  -2.620  -0.507 -0.6715  4.2569  0.7979
  132MOL0     H18185   9.535  -2.613  -0.586 -0.2328 -1.2145  1.2786
  132MOL0     H18186   9.564  -2.742  -0.307  3.1974 -0.2805  0.0463
  132MOL0     H18187   9.621  -2.820  -0.453 -1.2259  0.0654 -1.6198
  132MOL0     H18188   9.340  -2.720  -0.431 -3.0446 -3.1424  0.1226
  132MOL0     H18189   9.407  -2.818  -0.566  2.3723 -0.7810  0.1973
  132MOL0     H18190   9.395  -2.916  -0.287  3.6271  1.4796 -0.1277
  132MOL0     H18191   9.446  -3.018  -0.406 -1.1663 -2.0531  3.5124
  132MOL0     H18192   9.165  -2.910  -0.367  1.0111  1.3680  1.3359
  132MOL0     H18193   9.235  -3.086  -0.366  1.0860 -0.0565 -1.0029
  132MOL0     H18194   9.218  -3.113  -0.588 -0.0241 -0.0429 -0.0152
  132MOL0     H18195   9.253  -2.961  -0.637  3.1011 -2.9236 -0.7487
  132MOL0     H18196   9.373  -2.158  -0.206 -1.0038 -0.0712  1.1133
  132MOL0     H18197   9.454  -2.118   0.029 -0.2032 -4.2051  1.2586
  132MOL0     H18198   9.666  -2.011   0.325  0.6972 -2.4956 -1.0320
  132MOL0     H18199   9.684  -1.919   0.521 -1.0995 -0.1265 -1.1539
  132MOL0     H18200  10.458  -0.532   0.992 -1.5524 -0.7596 -0.1928
  132MOL0     H18201  10.483  -0.348   1.166  1.4176  0.1812 -1.1615
  132MOL0     H18202  10.394   0.257   1.239 -0.6954 -0.8786  0.9394
  132MOL0     H18203  10.512   0.374   1.444  2.2685 -0.5671  4.0195
  132MOL0     H18204  10.775   0.125   1.670 -2.3604  0.7531  0.2352
  132MOL0     H18205  10.908   0.205   1.562 -1.3275 -0.6312 -1.0666
  132MOL0     H18206  10.854   0.270   1.845 -0.3521  1.8471  0.7117
  132MOL0     H18207  10.857   0.414   1.738  0.4531  0.9668  0.0088
  132MOL0     H18208  11.059   0.188   1.736  0.6270  0.2485 -3.5955
  132MOL0     H18209  11.079   0.343   1.639 -1.2555  0.7072 -0.8573
  132MOL0     H18210  11.226   0.321   1.856 -0.2072 -1.3745 -0.5266
  132MOL0     H18211  11.062   0.335   1.933 -1.1577  0.4565 -1.1088
  132MOL0     H18212  11.125   0.731   1.816  0.1875 -0.2050 -3.2950
  132MOL0     H18213  10.801   0.050   1.425 -0.2530  0.3398 -3.5494
  132MOL0     H18214  10.668  -0.180   1.258 -2.3124  1.8758 -2.1494
  132MOL0     H18215  10.718  -0.098   1.122 -2.6935 -2.1508  0.5147
  132MOL0     H18216  10.829  -0.094   1.256  2.0841 -3.2380 -0.0764
  133MOL0     O18217   3.265   1.391   9.443  0.6510 -0.3316 -0.0981
  133MOL0     C18218   3.171   1.349   9.374  1.4814  0.2990 -1.0422
  133MOL0     O18219   3.040   1.396   9.372 -0.7211  0.1739 -0.0634
  133MOL0     C18220   2.991   1.476   9.472 -0.0171  0.3428 -0.9470
  133MOL0     C18221   3.051   1.574   9.539  0.3352 -1.2238 -0.3125
  133MOL0     C18222   2.995   1.642   9.647 -0.5315  0.1920  0.9782
  133MOL0     C18223   2.851   1.633   9.660 -0.3362 -0.9533 -0.3060
  133MOL0     O18224   2.774   1.709   9.747  0.4786  0.0154  0.3781
  133MOL0     C18225   2.794   1.847   9.724  0.9336 -0.5636  0.9524
  133MOL0     C18226   2.667   1.916   9.794 -0.3688 -0.0288  0.4598
  133MOL0     C18227   2.537   1.877   9.721 -0.2076  1.0211  0.3745
  133MOL0     C18228   2.452   1.999   9.668 -0.1851  0.4676  0.5938
  133MOL0     C18229   2.312   1.934   9.660 -0.0651 -0.4291 -0.3905
  133MOL0     C18230   2.198   2.035   9.647 -0.3140 -0.7917 -0.0190
  133MOL0     C18231   2.205   2.078   9.494  1.1667  0.1904 -0.1943
  133MOL0     C18232   2.077   2.153   9.464  0.3704  0.1148  0.1706
  133MOL0     N18233   2.083   2.215   9.325 -0.1103 -0.2543 -0.7026
  133MOL0     C18234   2.125   2.338   9.291 -0.4163 -0.5146  0.0252
  133MOL0     C18235   2.091   2.339   9.155 -0.6336  0.0180  0.2350
  133MOL0     C18236   2.116   2.448   9.052  0.7436 -0.6542 -0.5975
  133MOL0     C18237   1.989   2.532   9.028 -0.7830 -0.6715 -0.8361
  133MOL0     C18238   1.995   2.641   8.921  0.3193  0.4718 -0.9326
  133MOL0     C18239   2.103   2.752   8.923 -0.3369 -0.4782  0.5622
  133MOL0     O18240   2.071   2.882   8.867 -0.4574 -0.3465 -0.3820
  133MOL0     C18241   1.990   2.971   8.936  0.0652 -0.0751  0.1484
  133MOL0     C18242   1.961   3.087   8.870  0.2250 -0.8061 -0.6190
  133MOL0     C18243   1.881   3.183   8.935 -0.3223  0.4843  0.1550
  133MOL0     C18244   1.907   3.332   8.901 -0.2952  0.1370  0.9904
  133MOL0     C18245   1.811   3.150   9.053  1.1250  0.1972 -0.0679
  133MOL0     C18246   1.728   3.241   9.135  0.7819  0.5375  1.3415
  133MOL0     O18247   1.719   3.219   9.276  0.7318  0.6691 -0.4223
  133MOL0     C18248   1.642   3.284   9.362  0.2577  0.7361  0.4240
  133MOL0     C18249   1.667   3.249   9.495  0.6716  0.0773  0.6397
  133MOL0     C18250   1.607   3.324   9.598 -0.7755  0.5316 -1.2558
  133MOL0     C18251   1.509   3.416   9.581  0.1243 -0.3732  0.2564
  133MOL0     O18252   1.456   3.491   9.681 -0.1465 -0.2265 -0.8060
  133MOL0     C18253   1.327   3.555   9.659 -0.3103 -0.3015 -0.8928
  133MOL0     C18254   1.274   3.635   9.779 -0.3746 -0.3060  0.0265
  133MOL0     C18255   1.258   3.547   9.909  0.2205  0.0004  0.2550
  133MOL0     C18256   1.239   3.635  10.034 -0.9820  0.6872 -0.0777
  133MOL0     C18257   1.224   3.543  10.157  0.9237 -0.0532  0.7693
  133MOL0     C18258   1.186   3.633  10.281 -0.2203  0.2710  0.2681
  133MOL0     C18259   1.298   3.706  10.344 -0.7507  0.5333  0.7843
  133MOL0     C18260   1.256   3.758  10.482  0.5956  0.1346 -1.0196
  133MOL0    Cl18261   1.119   3.878  10.482  0.2320 -0.3430  0.7202
  133MOL0     C18262   1.471   3.435   9.447 -0.2840  0.0195  0.2889
  133MOL0     C18263   1.534   3.368   9.337  0.5186  0.0391 -0.6255
  133MOL0     O18264   1.678   3.336   9.076  0.8328  0.5182  0.3665
  133MOL0     C18265   1.829   3.020   9.110 -0.1296 -0.0547 -0.5389
  133MOL0     C18266   1.924   2.933   9.055 -0.1003  1.0323 -0.8797
  133MOL0     N18267   2.017   2.221   9.125 -0.6443 -0.1315 -0.1180
  133MOL0     N18268   2.031   2.142   9.225 -0.1652 -0.0152 -1.2855
  133MOL0     C18269   2.792   1.534   9.591 -0.5949  0.0280 -0.2277
  133MOL0     C18270   2.859   1.452   9.499  0.6460 -0.6383  0.1878
  133MOL0     C18271   3.209   1.235   9.289  0.1874  0.4777 -0.2704
  133MOL0     C18272   3.322   1.154   9.332  0.2023  0.9301 -0.7067
  133MOL0     C18273   3.367   1.049   9.258  0.1898 -0.3190  0.3642
  133MOL0     C18274   3.305   1.013   9.137 -0.5024  0.0102 -0.1064
  133MOL0     O18275   3.346   0.897   9.073  0.9902  0.0935 -0.0828
  133MOL0     C18276   3.339   0.911   8.930  0.1790 -0.5027 -0.1049
  133MOL0     C18277   3.405   0.793   8.858  0.9286 -0.6018  0.1772
  133MOL0     C18278   3.553   0.793   8.857  0.0131  0.0698  0.0169
  133MOL0     C18279   3.625   0.927   8.819 -0.1297 -0.4509  0.0445
  133MOL0     C18280   3.610   0.978   8.680  0.2382 -0.1077 -0.9168
  133MOL0     C18281   3.582   1.003   8.567  0.1496  0.2612 -0.2825
  133MOL0     C18282   3.184   1.079   9.106 -0.6825  0.4612  0.5035
  133MOL0     C18283   3.135   1.186   9.182  0.7348  0.7684  0.1497
  133MOL0     C18284   3.012   1.260   9.130  0.6061 -0.5818  0.3344
  133MOL0     H18285   3.153   1.608   9.522 -1.4554  4.3688 -2.2077
  133MOL0     H18286   3.063   1.714   9.692  1.2293 -0.0713 -1.0868
  133MOL0     H18287   2.789   1.855   9.615  0.3946 -0.9420  0.9404
  133MOL0     H18288   2.893   1.882   9.755  2.8801 -2.9681 -2.0047
  133MOL0     H18289   2.664   1.867   9.892 -1.1838 -0.8260  0.0537
  133MOL0     H18290   2.684   2.023   9.783  1.1917 -0.3797 -0.8725
  133MOL0     H18291   2.557   1.815   9.633  0.5123 -2.3965  2.7744
  133MOL0     H18292   2.475   1.821   9.791 -1.1022  2.9543  1.2199
  133MOL0     H18293   2.451   2.089   9.730  0.2512  0.3370  0.7942
  133MOL0     H18294   2.489   2.033   9.571 -1.7111  1.3697  0.3060
  133MOL0     H18295   2.284   1.879   9.751  0.6311 -0.8683 -0.4376
  133MOL0     H18296   2.316   1.852   9.588 -0.4463 -4.0072  3.2745
  133MOL0     H18297   2.102   1.987   9.667 -0.0409 -0.5191  2.2827
  133MOL0     H18298   2.210   2.120   9.715  2.2629  0.8615 -2.3123
  133MOL0     H18299   2.213   1.991   9.428 -2.6068 -1.1983  0.9580
  133MOL0     H18300   2.284   2.153   9.484 -1.3614  3.0384 -0.1301
  133MOL0     H18301   2.000   2.077   9.477 -1.6228  1.8741 -0.6945
  133MOL0     H18302   2.055   2.228   9.541  0.4014  0.6759 -0.3642
  133MOL0     H18303   2.173   2.414   9.353 -3.5331 -2.6139  5.7986
  133MOL0     H18304   2.158   2.417   8.956  0.8780 -1.8697 -0.1675
  133MOL0     H18305   2.198   2.503   9.100 -1.3392 -0.2091  2.7815
  133MOL0     H18306   1.909   2.460   9.008  0.4617 -3.8768  3.9475
  133MOL0     H18307   1.962   2.587   9.120 -0.5067  2.0536 -2.2843
  133MOL0     H18308   2.000   2.587   8.826 -0.3064  1.7828 -1.7367
  133MOL0     H18309   1.903   2.701   8.915  0.4843  1.0468  1.3511
  133MOL0     H18310   2.123   2.762   9.030 -0.5624 -1.9873  0.7741
  133MOL0     H18311   2.192   2.719   8.867 -1.0726  0.4668 -1.2305
  133MOL0     H18312   2.000   3.117   8.774 -0.2726  3.1621  0.2514
  133MOL0     H18313   1.959   3.368   8.990  3.0945 -0.2486 -0.7041
  133MOL0     H18314   1.821   3.400   8.894  0.1169  0.6178  0.4598
  133MOL0     H18315   1.974   3.332   8.815 -0.3659 -2.6981  0.8514
  133MOL0     H18316   1.736   3.168   9.521  2.5510  1.0317 -1.1215
  133MOL0     H18317   1.636   3.310   9.701  0.7949  0.3874 -1.6936
  133MOL0     H18318   1.324   3.628   9.577 -5.0817  0.4766 -0.3558
  133MOL0     H18319   1.248   3.483   9.633 -1.4937  0.6002  0.0734
  133MOL0     H18320   1.355   3.704   9.804 -0.7166  0.1884 -0.1969
  133MOL0     H18321   1.183   3.686   9.745 -0.8973 -1.1706  0.0933
  133MOL0     H18322   1.354   3.499   9.931  0.7673  1.0523  0.2414
  133MOL0     H18323   1.181   3.470   9.896 -2.9046  2.9072  0.1120
  133MOL0     H18324   1.148   3.694  10.022 -1.1387  0.5808  0.5391
  133MOL0     H18325   1.328   3.697  10.043 -1.3915  1.5525 -1.6756
  133MOL0     H18326   1.134   3.482  10.142  0.6673  0.4248  0.3134
  133MOL0     H18327   1.310   3.482  10.185 -1.2166 -3.4465  0.4887
  133MOL0     H18328   1.149   3.563  10.357  2.2900 -0.3757  0.9891
  133MOL0     H18329   1.114   3.712  10.257  0.5438  0.2068 -2.6635
  133MOL0     H18330   1.325   3.780  10.269  0.8446 -0.2018  0.5851
  133MOL0     H18331   1.387   3.642  10.348 -0.4465  0.7522 -1.4031
  133MOL0     H18332   1.339   3.803  10.537 -0.0903  1.6044 -1.1257
  133MOL0     H18333   1.217   3.672  10.537 -0.4088  0.9370 -0.4404
  133MOL0     H18334   1.379   3.486   9.423 -2.5501 -3.4600  0.8599
  133MOL0     H18335   1.511   3.412   9.240 -6.2950  1.8378  1.2689
  133MOL0     H18336   1.774   2.987   9.198 -1.7431  0.1273 -1.4468
  133MOL0     H18337   1.950   2.847   9.116  2.0404  2.6149  0.6163
  133MOL0     H18338   2.685   1.517   9.596 -1.4886  4.7007  1.2804
  133MOL0     H18339   2.801   1.384   9.439 -0.3505  1.3894 -1.2713
  133MOL0     H18340   3.385   1.183   9.415 -0.1753  1.6484 -0.6603
  133MOL0     H18341   3.453   0.998   9.300 -0.6903  0.1159  2.8527
  133MOL0     H18342   3.233   0.901   8.905  0.5189 -1.5762 -1.2201
  133MOL0     H18343   3.381   1.002   8.886 -1.2327  1.2314  1.9404
  133MOL0     H18344   3.383   0.789   8.751  0.4623  0.3342  0.2270
  133MOL0     H18345   3.367   0.704   8.910 -2.1598  1.9688  2.8003
  133MOL0     H18346   3.587   0.758   8.955  5.0310 -0.3866 -1.6019
  133MOL0     H18347   3.583   0.715   8.786  2.9911 -0.8161  2.0789
  133MOL0     H18348   3.727   0.892   8.840 -0.5892 -0.7235  2.0111
  133MOL0     H18349   3.591   0.994   8.898  1.3909  2.0234 -1.2688
  133MOL0     H18350   3.562   1.045   8.471 -2.5694  2.2202  0.9880
  133MOL0     H18351   3.116   1.047   9.027 -1.1243 -4.1233  2.4486
  133MOL0     H18352   2.923   1.253   9.193  1.2306 -2.5022  1.0880
  133MOL0     H18353   3.042   1.365   9.121 -2.1450  0.3245  0.8318
  133MOL0     H18354   2.978   1.222   9.033  1.1629  0.7271 -0.4039
  134MOL0     O18355  10.306   5.767   4.048 -0.0834  0.0768 -0.3950
  134MOL0     C18356  10.276   5.752   3.935 -0.4222  0.2859  0.1468
  134MOL0     O18357  10.168   5.811   3.876 -0.0901 -0.0033  0.4741
  134MOL0     C18358  10.080   5.885   3.958  0.4740 -0.5697 -0.1136
  134MOL0     C18359  10.059   6.016   3.913 -0.6443 -0.0706  0.2803
  134MOL0     C18360   9.958   6.103   3.962 -0.7469 -0.1412  0.6901
  134MOL0     C18361   9.882   6.061   4.080 -0.2433 -0.0352  0.4007
  134MOL0     O18362   9.797   6.143   4.147 -0.4247 -0.1149  0.7571
  134MOL0     C18363   9.783   6.282   4.114  0.7449 -0.2052  0.1441
  134MOL0     C18364   9.697   6.345   4.236 -0.4304 -0.3370  0.8848
  134MOL0     C18365   9.730   6.492   4.225  0.5393  0.8449 -0.4227
  134MOL0     C18366   9.647   6.573   4.332 -0.2786  0.0468  0.2931
  134MOL0     C18367   9.681   6.716   4.317 -0.2494 -0.2861  0.4991
  134MOL0     C18368   9.578   6.822   4.356  0.2099 -0.5411  0.1543
  134MOL0     C18369   9.491   6.859   4.227 -0.5839 -0.0471  0.1296
  134MOL0     C18370   9.365   6.921   4.286 -1.0871  0.4336 -0.7857
  134MOL0     N18371   9.289   6.960   4.177  0.4376  0.0755  1.2975
  134MOL0     C18372   9.313   7.067   4.087 -0.3107  0.4064  0.2322
  134MOL0     C18373   9.200   7.088   4.019 -0.1981 -0.0688 -0.4953
  134MOL0     C18374   9.176   7.181   3.894 -0.1512 -0.0296 -0.1430
  134MOL0     C18375   9.226   7.328   3.912  0.5256 -0.5725 -0.5725
  134MOL0     C18376   9.189   7.387   4.051 -0.4595 -0.5791  0.7291
  134MOL0     C18377   9.040   7.376   4.079 -0.1782  0.0026 -0.5257
  134MOL0     O18378   9.003   7.443   4.196  0.3424 -0.3236 -0.2855
  134MOL0     C18379   9.030   7.400   4.324  0.8773  0.6340 -0.3569
  134MOL0     C18380   9.080   7.272   4.364  0.2978  0.2641 -0.3442
  134MOL0     C18381   9.119   7.245   4.496 -0.5418 -0.1612 -0.7352
  134MOL0     C18382   9.168   7.102   4.531 -0.0250  0.3578 -0.4974
  134MOL0     C18383   9.096   7.350   4.595  0.2380  0.8484 -0.6354
  134MOL0     C18384   9.133   7.329   4.740  1.5070 -0.0008  0.2590
  134MOL0     O18385   9.075   7.427   4.830  0.6697  0.6730 -0.1232
  134MOL0     C18386   9.054   7.396   4.964 -0.4113 -0.1641 -0.3755
  134MOL0     C18387   8.934   7.333   4.998 -0.3805 -0.0435  0.7274
  134MOL0     C18388   8.916   7.277   5.123  0.1294  0.2494  0.7151
  134MOL0     C18389   9.012   7.294   5.226  0.6283  0.0686  0.6217
  134MOL0     O18390   8.984   7.265   5.358 -0.2063  0.7345 -0.4403
  134MOL0     C18391   9.082   7.294   5.457  0.0171  0.2165  0.2077
  134MOL0     C18392   9.027   7.387   5.568 -0.4058 -0.0490  0.8120
  134MOL0     C18393   8.910   7.335   5.653 -0.2357 -0.9609 -0.2568
  134MOL0     C18394   8.865   7.445   5.758  0.7035  0.4692  0.1265
  134MOL0     C18395   8.970   7.466   5.860 -0.1907 -0.6514 -0.4035
  134MOL0     C18396   9.000   7.339   5.945  0.8087  0.1273 -0.0014
  134MOL0     C18397   9.043   7.359   6.086 -1.2214 -0.0292  0.0445
  134MOL0     C18398   9.057   7.234   6.173  0.2410 -0.4418  0.1381
  134MOL0    Cl18399   9.227   7.173   6.174 -0.1033 -0.6029  0.0279
  134MOL0     C18400   9.132   7.365   5.189  0.4112  0.9596 -0.3600
  134MOL0     C18401   9.152   7.406   5.058  0.0446  0.6438  0.6131
  134MOL0     O18402   9.218   7.247   4.770  0.8258  0.0403 -0.0319
  134MOL0     C18403   9.031   7.477   4.566 -0.7840  0.2868  0.3471
  134MOL0     C18404   9.000   7.492   4.424  0.1510  0.8065 -0.3418
  134MOL0     N18405   9.101   7.004   4.058  0.2202 -0.0779 -0.1067
  134MOL0     N18406   9.159   6.926   4.154 -0.0701  0.9212  0.1323
  134MOL0     C18407   9.895   5.927   4.122  0.1374  0.3683  0.2143
  134MOL0     C18408   9.995   5.835   4.064  0.3714 -0.1236 -0.3770
  134MOL0     C18409  10.329   5.652   3.833 -0.3940  1.1042 -0.1645
  134MOL0     C18410  10.267   5.625   3.706 -0.0101  0.3048 -0.8783
  134MOL0     C18411  10.332   5.528   3.622  0.4355  0.1686  0.2076
  134MOL0     C18412  10.454   5.466   3.655 -0.7222 -0.2636 -0.0632
  134MOL0     O18413  10.537   5.389   3.570 -0.2324 -0.0034 -0.4461
  134MOL0     C18414  10.511   5.388   3.432  0.0498  0.5757 -0.3727
  134MOL0     C18415  10.562   5.261   3.376  0.0916 -0.0494  0.0510
  134MOL0     C18416  10.528   5.259   3.231  1.0925  0.1831  0.1915
  134MOL0     C18417  10.539   5.116   3.161  0.4653 -1.0382 -0.2187
  134MOL0     C18418  10.474   5.099   3.034  0.7413  1.0662 -0.6442
  134MOL0     C18419  10.421   5.100   2.927 -0.1694  0.2460  0.0690
  134MOL0     C18420  10.510   5.502   3.775  0.6626 -0.0607  0.1833
  134MOL0     C18421  10.454   5.584   3.874  0.7621  0.4124 -0.2408
  134MOL0     C18422  10.532   5.611   3.993 -1.2893 -0.1010  0.0028
  134MOL0     H18423  10.121   6.042   3.827  1.8086 -1.4853  1.5036
  134MOL0     H18424   9.945   6.204   3.924  0.9444 -0.0057  0.3901
  134MOL0     H18425   9.727   6.278   4.020  2.6460  0.9662 -1.1163
  134MOL0     H18426   9.879   6.330   4.096 -0.9789  3.3807 -0.3920
  134MOL0     H18427   9.591   6.323   4.221 -0.2769 -1.3352  1.1577
  134MOL0     H18428   9.735   6.290   4.323  1.6525 -1.9060 -0.8845
  134MOL0     H18429   9.838   6.509   4.235  0.9588 -0.9158 -1.4851
  134MOL0     H18430   9.686   6.536   4.135  2.9662  2.9091 -0.7205
  134MOL0     H18431   9.540   6.560   4.311 -0.5519  1.5201  0.6766
  134MOL0     H18432   9.675   6.541   4.433  4.6076  2.4082 -0.0163
  134MOL0     H18433   9.717   6.728   4.214  1.1907 -2.0042  0.7471
  134MOL0     H18434   9.765   6.745   4.381 -0.8720  1.4298  0.5879
  134MOL0     H18435   9.507   6.778   4.426  0.0259  0.4328  0.5901
  134MOL0     H18436   9.624   6.911   4.399 -0.8308 -0.7591  1.7841
  134MOL0     H18437   9.478   6.777   4.156 -1.9775 -0.7986  1.2191
  134MOL0     H18438   9.544   6.938   4.172  3.2380 -1.8419  0.8920
  134MOL0     H18439   9.309   6.845   4.343  2.9119 -1.7000  0.7520
  134MOL0     H18440   9.396   6.994   4.361 -2.4758 -1.0943  1.4364
  134MOL0     H18441   9.399   7.133   4.081 -0.6619  0.8971  0.5318
  134MOL0     H18442   9.067   7.190   3.884 -0.8698  2.5412  5.8083
  134MOL0     H18443   9.210   7.134   3.801  0.8578  0.6610 -0.1307
  134MOL0     H18444   9.335   7.321   3.906  0.5350 -1.7040  0.4889
  134MOL0     H18445   9.189   7.382   3.824  0.7814  1.9362  0.7591
  134MOL0     H18446   9.255   7.339   4.123  5.5363  0.1493 -3.5101
  134MOL0     H18447   9.214   7.494   4.049 -3.0660  0.1105 -1.5374
  134MOL0     H18448   8.977   7.432   4.009 -0.2696 -0.4763 -0.8345
  134MOL0     H18449   9.005   7.272   4.077  0.9817 -0.4718  1.5885
  134MOL0     H18450   9.091   7.191   4.292  0.3698  0.7593 -0.8894
  134MOL0     H18451   9.151   7.039   4.444  3.0358 -0.2056 -0.8017
  134MOL0     H18452   9.119   7.063   4.621  0.6895 -1.9037 -1.0390
  134MOL0     H18453   9.276   7.104   4.550 -0.4724  0.9020  2.6603
  134MOL0     H18454   8.854   7.319   4.927  1.1683 -0.6292 -0.9790
  134MOL0     H18455   8.824   7.221   5.135  0.4273 -1.4091 -3.2158
  134MOL0     H18456   9.098   7.201   5.512  2.2403 -2.1220 -3.9502
  134MOL0     H18457   9.178   7.329   5.418 -0.6360 -0.9478 -2.7279
  134MOL0     H18458   9.118   7.396   5.628 -0.6266  2.3951  0.8988
  134MOL0     H18459   9.017   7.488   5.526 -1.4650  0.8901  3.1621
  134MOL0     H18460   8.945   7.238   5.688  1.4925  0.7868  3.4196
  134MOL0     H18461   8.828   7.310   5.586  0.4582 -0.2572 -1.3951
  134MOL0     H18462   8.773   7.411   5.807  0.9909 -0.0797  0.2875
  134MOL0     H18463   8.850   7.537   5.700 -1.1515 -0.2373 -0.5954
  134MOL0     H18464   9.061   7.512   5.821 -1.7556  2.1606 -1.0287
  134MOL0     H18465   8.919   7.539   5.924  2.6364 -0.8443  2.2814
  134MOL0     H18466   9.081   7.284   5.896 -0.8724 -2.1083 -0.4141
  134MOL0     H18467   8.909   7.278   5.942  2.1573 -2.0306 -3.6874
  134MOL0     H18468   8.982   7.429   6.144  0.2521 -0.7714  2.6782
  134MOL0     H18469   9.144   7.401   6.088 -0.7975 -0.9522 -0.8691
  134MOL0     H18470   8.991   7.153   6.143  1.1635 -1.3816  0.6041
  134MOL0     H18471   9.026   7.257   6.276  2.4485  0.2112  0.7231
  134MOL0     H18472   9.219   7.382   5.251 -1.0417 -0.5537  2.3109
  134MOL0     H18473   9.236   7.460   5.016  2.0241 -1.4539  1.6919
  134MOL0     H18474   9.006   7.553   4.639  3.4870  0.3936  1.9950
  134MOL0     H18475   8.947   7.581   4.392 -1.3599  0.2781  0.5696
  134MOL0     H18476   9.832   5.897   4.205  1.1050 -0.5868  0.6307
  134MOL0     H18477  10.008   5.736   4.107 -0.9888  0.7623  2.2838
  134MOL0     H18478  10.173   5.677   3.691 -0.1621  0.4084  0.3471
  134MOL0     H18479  10.275   5.498   3.534  2.8028 -0.7266 -1.1119
  134MOL0     H18480  10.405   5.395   3.405 -0.7715 -1.1142  2.0075
  134MOL0     H18481  10.573   5.462   3.381 -2.1605  3.0677  0.3370
  134MOL0     H18482  10.513   5.182   3.433 -0.8062  0.5052  0.0573
  134MOL0     H18483  10.668   5.238   3.393  0.0290 -1.2423 -1.0067
  134MOL0     H18484  10.427   5.300   3.224  0.4927 -1.3883 -0.9888
  134MOL0     H18485  10.590   5.336   3.184  0.4891  0.7183  0.2603
  134MOL0     H18486  10.508   5.048   3.241 -2.1934 -2.7749 -2.5448
  134MOL0     H18487  10.644   5.096   3.139  0.2814 -0.8658 -1.2921
  134MOL0     H18488  10.364   5.106   2.836  2.5798  0.7371 -1.7250
  134MOL0     H18489  10.609   5.459   3.788  0.6995  0.5298  2.1665
  134MOL0     H18490  10.568   5.714   3.987 -0.1889 -0.4453  0.4212
  134MOL0     H18491  10.487   5.581   4.088 -1.5530  0.9346  0.2113
  134MOL0     H18492  10.627   5.558   4.005  0.7938  3.0731 -1.2044
  135MOL0     O18493   7.020  11.449   7.612 -0.3422 -1.0514  1.0311
  135MOL0     C18494   7.093  11.551   7.603  0.7274  0.0312  0.1988
  135MOL0     O18495   7.094  11.658   7.687 -0.2806 -0.3397 -0.4959
  135MOL0     C18496   7.014  11.670   7.790  0.2153 -0.5021 -1.1721
  135MOL0     C18497   7.017  11.796   7.852  0.1768 -0.3977 -0.1684
  135MOL0     C18498   6.940  11.823   7.964  0.4044 -0.3963  0.3013
  135MOL0     C18499   6.850  11.731   8.018  0.1784  0.6555  0.3167
  135MOL0     O18500   6.756  11.749   8.121  0.7823  0.3604  1.0288
  135MOL0     C18501   6.689  11.874   8.131  0.2877  1.0081  0.5967
  135MOL0     C18502   6.593  11.893   8.009  0.4661 -0.3994  0.2333
  135MOL0     C18503   6.481  11.792   8.006  0.4983 -1.2668  0.3087
  135MOL0     C18504   6.384  11.807   7.896  0.2603 -0.0661 -0.0400
  135MOL0     C18505   6.283  11.695   7.911 -0.2372  0.1997 -0.3146
  135MOL0     C18506   6.148  11.724   7.832 -0.5355  0.6886  0.7808
  135MOL0     C18507   6.052  11.600   7.809 -0.1944 -0.9337 -1.2101
  135MOL0     C18508   6.005  11.531   7.941 -0.1423 -0.4838 -0.0541
  135MOL0     N18509   5.922  11.609   8.036  0.8420  0.7419  0.3409
  135MOL0     C18510   5.801  11.671   8.016 -0.1056 -0.1542  0.1554
  135MOL0     C18511   5.785  11.759   8.120  0.9679 -0.1516  0.5422
  135MOL0     C18512   5.666  11.855   8.148 -0.3307 -0.4884 -0.7863
  135MOL0     C18513   5.689  11.995   8.098  0.5576 -0.1745  0.3162
  135MOL0     C18514   5.580  12.085   8.161 -0.4056  0.9736 -0.1934
  135MOL0     C18515   5.590  12.220   8.092 -0.0310  0.1260 -0.3626
  135MOL0     O18516   5.713  12.286   8.082  0.2608 -0.2521  0.0189
  135MOL0     C18517   5.775  12.278   7.962 -0.1986  1.0917 -0.5551
  135MOL0     C18518   5.893  12.209   7.971 -0.2724  0.2764 -0.8169
  135MOL0     C18519   5.973  12.193   7.857  0.1302 -0.6488  1.1475
  135MOL0     C18520   6.107  12.147   7.890 -0.6723  0.2740 -0.7048
  135MOL0     C18521   5.922  12.242   7.734 -0.3173 -1.1603 -1.2163
  135MOL0     C18522   5.989  12.229   7.601 -0.3656 -0.1211  0.8472
  135MOL0     O18523   5.937  12.292   7.490  1.4245 -0.5595  0.3689
  135MOL0     C18524   6.023  12.315   7.380  0.2137  0.9128 -0.7825
  135MOL0     C18525   6.081  12.216   7.295  0.2479  0.0865 -0.6101
  135MOL0     C18526   6.198  12.247   7.217  0.4073 -0.3078  0.3781
  135MOL0     C18527   6.237  12.379   7.209 -0.5065  0.4030  0.5049
  135MOL0     O18528   6.349  12.401   7.133  0.1521  0.5252 -0.1403
  135MOL0     C18529   6.395  12.534   7.101 -0.4947  0.2430 -0.1028
  135MOL0     C18530   6.507  12.530   6.992 -0.1459  1.0121 -0.1008
  135MOL0     C18531   6.462  12.506   6.855 -0.6248  0.8277  0.4739
  135MOL0     C18532   6.477  12.370   6.785 -0.1108  0.4808  0.1474
  135MOL0     C18533   6.430  12.378   6.634 -0.1185  1.2287 -0.1580
  135MOL0     C18534   6.284  12.372   6.603  1.1198 -0.1131 -0.4299
  135MOL0     C18535   6.269  12.341   6.454  0.4860 -0.2308  0.0602
  135MOL0     C18536   6.121  12.327   6.408  0.3939  0.4679 -0.3615
  135MOL0    Cl18537   6.018  12.470   6.435 -0.0362 -0.0196 -0.2041
  135MOL0     C18538   6.176  12.480   7.279 -0.8897  0.0556  0.6790
  135MOL0     C18539   6.065  12.449   7.356  0.5601 -0.7785 -0.2063
  135MOL0     O18540   6.104  12.178   7.608 -0.4668  0.5674 -0.4156
  135MOL0     C18541   5.797  12.309   7.732  0.5559 -0.5087 -0.3730
  135MOL0     C18542   5.721  12.327   7.846 -0.1975 -0.3250  0.4808
  135MOL0     N18543   5.897  11.765   8.189  0.1618  0.3076 -1.0188
  135MOL0     N18544   5.975  11.674   8.145 -0.1304 -0.4665  0.4208
  135MOL0     C18545   6.849  11.602   7.959 -0.7181  0.0028  0.2285
  135MOL0     C18546   6.940  11.570   7.854 -0.4032  0.0887  0.1338
  135MOL0     C18547   7.188  11.567   7.487  0.1032 -0.0599  0.5791
  135MOL0     C18548   7.172  11.679   7.403  0.1096  0.2281  0.6760
  135MOL0     C18549   7.258  11.688   7.283  0.3711 -1.0687 -0.5138
  135MOL0     C18550   7.352  11.589   7.266 -0.2859  1.2901 -0.6676
  135MOL0     O18551   7.434  11.617   7.162 -0.3886  0.6811 -0.4457
  135MOL0     C18552   7.559  11.547   7.142  0.9768 -0.6117 -0.2186
  135MOL0     C18553   7.640  11.621   7.034  1.0455 -0.2633 -0.1821
  135MOL0     C18554   7.711  11.530   6.926  0.4979 -0.2754  0.1372
  135MOL0     C18555   7.751  11.608   6.794  0.0622 -0.2668  0.0498
  135MOL0     C18556   7.863  11.540   6.725 -0.4156  0.0339  0.4447
  135MOL0     C18557   7.947  11.464   6.668  0.8096  0.1367  1.3169
  135MOL0     C18558   7.362  11.478   7.344  0.1523 -0.0928  0.2936
  135MOL0     C18559   7.265  11.461   7.445 -0.8368  0.9731 -0.0528
  135MOL0     C18560   7.273  11.333   7.516 -0.1745  0.2998  0.0981
  135MOL0     H18561   7.082  11.874   7.811 -1.5229  1.4860  0.5605
  135MOL0     H18562   6.944  11.922   8.010 -0.0368  1.0703 -2.5413
  135MOL0     H18563   6.744  11.967   8.146 -1.4154  2.3623 -1.0747
  135MOL0     H18564   6.633  11.874   8.225 -0.2090  0.2526  0.3082
  135MOL0     H18565   6.546  11.991   8.025 -0.0590  0.2852 -4.2516
  135MOL0     H18566   6.643  11.900   7.912 -1.3894 -1.3129 -0.8530
  135MOL0     H18567   6.524  11.691   8.005  0.3691 -1.3218  0.1967
  135MOL0     H18568   6.413  11.793   8.091  0.1009 -2.6844  0.0401
  135MOL0     H18569   6.336  11.906   7.894  1.6168  0.6763 -3.6077
  135MOL0     H18570   6.431  11.783   7.801  3.8687 -2.4269  2.1036
  135MOL0     H18571   6.252  11.677   8.014 -2.2126 -1.1271 -1.0699
  135MOL0     H18572   6.331  11.609   7.862  3.8969  2.0091  0.1835
  135MOL0     H18573   6.092  11.810   7.870 -1.7820  1.4053 -2.3602
  135MOL0     H18574   6.195  11.751   7.737  1.5488  1.1424  1.8736
  135MOL0     H18575   6.095  11.522   7.746  2.1622 -3.2066  2.7597
  135MOL0     H18576   5.957  11.638   7.771 -0.3332  2.5280  2.0289
  135MOL0     H18577   5.947  11.443   7.912 -4.1618  1.0387  2.6051
  135MOL0     H18578   6.100  11.494   7.982  0.8086 -0.5136 -2.1111
  135MOL0     H18579   5.732  11.652   7.934  2.6582 -0.2733 -2.3079
  135MOL0     H18580   5.662  11.868   8.257 -3.5002  1.4300 -1.0092
  135MOL0     H18581   5.565  11.827   8.118 -1.9710  2.5281  1.3789
  135MOL0     H18582   5.784  12.026   8.142 -0.4258 -0.2340  2.6744
  135MOL0     H18583   5.693  11.987   7.989  2.7254 -1.7001  0.4505
  135MOL0     H18584   5.476  12.053   8.157 -0.4383  0.2100  3.3701
  135MOL0     H18585   5.609  12.094   8.267 -0.2573  1.2530 -0.2584
  135MOL0     H18586   5.535  12.207   7.998 -1.7017 -0.8801  0.7143
  135MOL0     H18587   5.519  12.290   8.137  0.7169  1.5301 -1.2831
  135MOL0     H18588   5.921  12.173   8.069  0.3783 -0.0610 -1.1227
  135MOL0     H18589   6.173  12.204   7.824 -1.1066  2.4662  0.6631
  135MOL0     H18590   6.113  12.038   7.883  4.6215 -0.1345  3.6014
  135MOL0     H18591   6.121  12.186   7.991 -0.8102  1.2682 -1.0573
  135MOL0     H18592   6.051  12.112   7.302  0.3047  0.1107  0.0735
  135MOL0     H18593   6.248  12.161   7.176 -2.1363 -2.4803  1.5252
  135MOL0     H18594   6.310  12.582   7.053 -0.5073 -0.0696 -0.3971
  135MOL0     H18595   6.426  12.588   7.191  2.9287 -5.7020  2.8754
  135MOL0     H18596   6.562  12.625   6.985  2.7074 -0.6276 -4.6223
  135MOL0     H18597   6.571  12.446   7.020  2.3980  2.8748  0.1346
  135MOL0     H18598   6.517  12.582   6.798  0.5541  0.5582  1.2234
  135MOL0     H18599   6.354  12.526   6.850 -0.2896  2.8868  0.3840
  135MOL0     H18600   6.414  12.293   6.830 -0.1714 -0.2781 -1.1654
  135MOL0     H18601   6.584  12.349   6.774  0.2283  1.7366  0.8483
  135MOL0     H18602   6.475  12.465   6.587 -0.9392  3.0246  2.1550
  135MOL0     H18603   6.477  12.291   6.589 -1.6152 -0.3069  1.1085
  135MOL0     H18604   6.247  12.473   6.620 -0.2172 -0.7099  0.3867
  135MOL0     H18605   6.235  12.292   6.659  2.1805 -0.3810  0.1549
  135MOL0     H18606   6.331  12.253   6.436  0.1315 -0.8047  1.4965
  135MOL0     H18607   6.304  12.423   6.390 -0.9295 -0.8990 -1.6515
  135MOL0     H18608   6.061  12.237   6.426 -0.6651  0.2298 -4.1610
  135MOL0     H18609   6.132  12.302   6.302  1.1519 -3.3943  0.4633
  135MOL0     H18610   6.211  12.582   7.272 -1.7927  0.2755 -1.1506
  135MOL0     H18611   6.003  12.521   7.408  1.2684 -1.5495  1.8299
  135MOL0     H18612   5.754  12.338   7.636  1.2189  1.5941 -0.0982
  135MOL0     H18613   5.626  12.379   7.834 -0.7376 -0.1789  4.2278
  135MOL0     H18614   6.778  11.524   7.985  0.1274 -0.5820  0.8169
  135MOL0     H18615   6.945  11.468   7.817  2.8438  0.9072 -2.1492
  135MOL0     H18616   7.104  11.758   7.431 -1.2598 -1.5193  2.5919
  135MOL0     H18617   7.267  11.776   7.220 -0.6519  0.7648  1.7171
  135MOL0     H18618   7.621  11.524   7.229 -0.3577 -2.7234  0.2364
  135MOL0     H18619   7.542  11.447   7.101  3.0534 -1.4889  0.8842
  135MOL0     H18620   7.710  11.687   7.086  1.5614 -1.7029  1.0158
  135MOL0     H18621   7.571  11.685   6.978 -0.8483 -2.4288 -0.4693
  135MOL0     H18622   7.786  11.474   6.982 -1.3404 -1.1773  1.8409
  135MOL0     H18623   7.643  11.455   6.882 -1.0146 -0.2021  2.2087
  135MOL0     H18624   7.795  11.704   6.824  1.0084 -0.4368 -0.7360
  135MOL0     H18625   7.667  11.629   6.726 -0.1291  2.3240  0.9820
  135MOL0     H18626   8.020  11.414   6.608 -1.1958 -1.3059 -0.0772
  135MOL0     H18627   7.435  11.401   7.320  0.8717  0.6337  0.1442
  135MOL0     H18628   7.294  11.340   7.624  3.5654 -1.6825 -0.3466
  135MOL0     H18629   7.181  11.275   7.507 -0.7056  1.4401 -3.6612
  135MOL0     H18630   7.362  11.280   7.485  1.9379  1.4552  3.5805
  136MOL0     O18631   0.479   6.846   5.538  0.4204 -0.7914  0.5127
  136MOL0     C18632   0.498   6.730   5.519  0.0792 -0.2548 -0.5421
  136MOL0     O18633   0.503   6.668   5.398  0.0815  0.4911 -0.1564
  136MOL0     C18634   0.511   6.751   5.289 -1.0582 -0.3250 -0.2805
  136MOL0     C18635   0.411   6.835   5.244 -0.5809  0.0872 -0.8687
  136MOL0     C18636   0.449   6.919   5.134  0.1077  1.0822 -0.4422
  136MOL0     C18637   0.570   6.915   5.069 -0.0708  0.5094  0.0246
  136MOL0     O18638   0.599   7.002   4.971 -0.4623  0.3655 -1.0578
  136MOL0     C18639   0.667   6.961   4.850  0.8005  0.3499  0.3641
  136MOL0     C18640   0.689   7.086   4.764  0.3443 -0.2894  1.0273
  136MOL0     C18641   0.641   7.066   4.622  0.0308 -0.0307  0.0293
  136MOL0     C18642   0.747   6.984   4.539  0.0852 -0.6184  2.0708
  136MOL0     C18643   0.733   6.837   4.544 -0.1512 -0.5298  0.2162
  136MOL0     C18644   0.817   6.756   4.448  0.3983  0.8246 -0.9303
  136MOL0     C18645   0.772   6.771   4.306 -0.7678  0.1099 -0.3087
  136MOL0     C18646   0.847   6.669   4.205  0.7522  0.5940  0.0148
  136MOL0     N18647   0.767   6.629   4.098  0.0390  0.4931  0.0693
  136MOL0     C18648   0.673   6.532   4.106  0.6518  0.0024  0.7341
  136MOL0     C18649   0.640   6.513   3.973  0.6772 -0.1924  0.3752
  136MOL0     C18650   0.556   6.406   3.915 -0.1320  0.3737 -0.6374
  136MOL0     C18651   0.639   6.276   3.905 -0.3865 -0.1001 -1.5752
  136MOL0     C18652   0.563   6.170   3.825 -0.6973  0.0659  0.2776
  136MOL0     C18653   0.640   6.036   3.839  0.1669 -0.5707  0.1911
  136MOL0     O18654   0.610   5.942   3.733  0.3008 -0.6190 -0.2684
  136MOL0     C18655   0.660   5.964   3.606  0.5696 -0.5385 -0.1537
  136MOL0     C18656   0.624   5.861   3.520 -0.4030 -0.3921  0.0450
  136MOL0     C18657   0.664   5.866   3.386 -0.9394  0.2630  1.3292
  136MOL0     C18658   0.609   5.755   3.294  0.6928  0.5165 -0.3143
  136MOL0     C18659   0.753   5.970   3.340  0.1321 -0.1560  1.3389
  136MOL0     C18660   0.791   5.974   3.200  0.2576  0.3647  0.3924
  136MOL0     O18661   0.694   5.963   3.107  0.3983  0.2441  0.8848
  136MOL0     C18662   0.730   5.955   2.975  0.2319 -0.0142 -0.7302
  136MOL0     C18663   0.776   5.834   2.923  0.1561  1.0989  0.9304
  136MOL0     C18664   0.811   5.829   2.787 -0.9560  0.2309 -0.6800
  136MOL0     C18665   0.798   5.943   2.711 -0.0832  0.8325 -0.1903
  136MOL0     O18666   0.804   5.929   2.570 -0.1421  0.8099  0.2668
  136MOL0     C18667   0.808   6.051   2.490  0.4411 -0.3236  0.1322
  136MOL0     C18668   0.854   6.026   2.350 -0.6568 -0.1342  0.9161
  136MOL0     C18669   0.991   5.946   2.328 -0.3991  0.2390 -0.3959
  136MOL0     C18670   1.017   5.941   2.180  0.3116  0.0882 -0.0040
  136MOL0     C18671   1.154   5.877   2.124  0.7824 -0.7005 -0.2111
  136MOL0     C18672   1.171   5.725   2.152  0.1952  0.1207  0.7393
  136MOL0     C18673   1.086   5.618   2.084 -1.4702 -1.1319  0.3420
  136MOL0     C18674   1.151   5.474   2.070 -0.6583 -0.8333  0.0168
  136MOL0    Cl18675   1.016   5.368   2.051 -0.3179 -0.0313  0.3193
  136MOL0     C18676   0.742   6.065   2.767 -0.7932 -0.1210  0.1899
  136MOL0     C18677   0.719   6.076   2.900 -0.2613 -0.3776 -0.1396
  136MOL0     O18678   0.911   6.000   3.178 -0.0920 -0.1023  0.3201
  136MOL0     C18679   0.794   6.070   3.426 -0.0079 -0.0977 -1.2351
  136MOL0     C18680   0.736   6.074   3.559  0.1211 -0.3443  0.1692
  136MOL0     N18681   0.712   6.597   3.898  0.1944  0.4763 -0.3181
  136MOL0     N18682   0.788   6.668   3.976 -0.9235 -0.0350  0.5729
  136MOL0     C18683   0.663   6.815   5.113 -0.3476 -0.8648  0.5778
  136MOL0     C18684   0.627   6.730   5.213  0.4219  0.5121 -0.3002
  136MOL0     C18685   0.535   6.651   5.643  0.4282  0.5425 -0.6493
  136MOL0     C18686   0.618   6.536   5.625 -0.6060 -0.6202  0.2548
  136MOL0     C18687   0.671   6.469   5.739 -1.1853  0.6002  0.9315
  136MOL0     C18688   0.628   6.500   5.872  0.1474 -0.0150 -0.4813
  136MOL0     O18689   0.651   6.423   5.983 -0.0029 -0.3013 -0.0957
  136MOL0     C18690   0.739   6.309   5.973 -0.8894 -0.4423  0.2452
  136MOL0     C18691   0.803   6.267   6.106  0.4068  0.1441 -0.1455
  136MOL0     C18692   0.709   6.237   6.218 -0.0123  0.8865 -0.2879
  136MOL0     C18693   0.625   6.346   6.286  0.7582 -0.0676  0.3008
  136MOL0     C18694   0.558   6.288   6.402 -0.7503 -0.1731  0.0049
  136MOL0     C18695   0.508   6.211   6.483 -0.1960  0.3861  0.0176
  136MOL0     C18696   0.540   6.599   5.881  1.1737 -0.8402 -0.5638
  136MOL0     C18697   0.493   6.672   5.776 -0.6713  0.9549 -0.3402
  136MOL0     C18698   0.396   6.766   5.818  0.3375 -0.9807 -0.7565
  136MOL0     H18699   0.309   6.835   5.280 -0.8214 -0.1596 -1.5329
  136MOL0     H18700   0.364   6.974   5.095  0.1117  1.3707 -0.0536
  136MOL0     H18701   0.608   6.889   4.792 -0.2709 -0.6104  2.5147
  136MOL0     H18702   0.764   6.918   4.873  0.9153  0.7265  0.5974
  136MOL0     H18703   0.625   7.165   4.805  0.2482  1.0190 -1.4757
  136MOL0     H18704   0.797   7.101   4.756  0.3416 -1.1979 -1.3674
  136MOL0     H18705   0.541   7.022   4.622  0.2936 -0.6331  0.7048
  136MOL0     H18706   0.631   7.156   4.561  1.1895 -1.0538 -1.7487
  136MOL0     H18707   0.736   7.013   4.434 -0.5390 -2.1313  1.6971
  136MOL0     H18708   0.852   7.009   4.558  0.2749 -0.2906  0.7010
  136MOL0     H18709   0.632   6.797   4.527  0.3267 -1.2186 -1.0819
  136MOL0     H18710   0.766   6.807   4.644 -0.7592  4.3323  2.1835
  136MOL0     H18711   0.923   6.782   4.462 -0.0057  2.2347 -0.2974
  136MOL0     H18712   0.807   6.651   4.475 -0.3593  0.4958 -2.3968
  136MOL0     H18713   0.790   6.874   4.276  0.4505  0.1051  0.3217
  136MOL0     H18714   0.665   6.750   4.300 -0.5541 -0.7106 -1.5696
  136MOL0     H18715   0.940   6.719   4.177  1.0635  0.1515  0.2540
  136MOL0     H18716   0.879   6.579   4.258  1.6419  0.0362 -1.4133
  136MOL0     H18717   0.625   6.486   4.191 -0.0407 -0.7122 -0.0296
  136MOL0     H18718   0.525   6.429   3.813 -0.1633 -1.5490 -1.1067
  136MOL0     H18719   0.472   6.394   3.984  0.3791  2.7519  0.5121
  136MOL0     H18720   0.740   6.301   3.871  0.5004  0.3719  1.1786
  136MOL0     H18721   0.647   6.229   4.004 -2.6350  2.7601  0.1261
  136MOL0     H18722   0.457   6.155   3.848 -0.6905 -0.1692  0.1486
  136MOL0     H18723   0.563   6.205   3.722  0.4688  3.8828  1.3822
  136MOL0     H18724   0.748   6.053   3.837 -0.0700  2.1324  3.0864
  136MOL0     H18725   0.606   5.987   3.931 -3.5316 -2.1630 -1.8128
  136MOL0     H18726   0.573   5.778   3.568 -0.8908  1.0835  2.2304
  136MOL0     H18727   0.633   5.660   3.344 -4.0399  1.5258  5.0268
  136MOL0     H18728   0.631   5.755   3.187 -3.8951 -1.0347 -1.5242
  136MOL0     H18729   0.500   5.762   3.299  0.8230  2.7301  0.5575
  136MOL0     H18730   0.771   5.746   2.987  0.4992  0.1001 -0.3844
  136MOL0     H18731   0.845   5.736   2.742 -1.0506 -1.1982  1.9921
  136MOL0     H18732   0.708   6.094   2.487  0.8063  0.4792 -1.5394
  136MOL0     H18733   0.865   6.128   2.542 -2.3706  1.3993  0.8652
  136MOL0     H18734   0.773   5.973   2.298  1.1233  1.2951 -3.7792
  136MOL0     H18735   0.865   6.127   2.312  1.4458 -0.2690  1.0416
  136MOL0     H18736   0.983   5.840   2.356 -4.1001 -0.3661 -3.0160
  136MOL0     H18737   1.073   5.999   2.376 -0.6756  0.0145  0.3408
  136MOL0     H18738   1.015   6.045   2.146 -0.9821 -0.0839 -0.4925
  136MOL0     H18739   0.944   5.892   2.115  1.8966 -4.9577  1.5121
  136MOL0     H18740   1.166   5.902   2.018 -2.5637 -2.3223 -1.1213
  136MOL0     H18741   1.228   5.936   2.179  2.6190 -1.8498 -1.3425
  136MOL0     H18742   1.179   5.706   2.260  1.4535  0.6987  0.7652
  136MOL0     H18743   1.272   5.716   2.112  0.1538  2.9879 -0.2271
  136MOL0     H18744   1.074   5.644   1.979  3.9907 -1.1423 -0.6045
  136MOL0     H18745   0.996   5.606   2.144 -1.9921  1.2661  0.1059
  136MOL0     H18746   1.206   5.451   2.161  1.6944 -2.3598 -1.6744
  136MOL0     H18747   1.227   5.463   1.992 -1.0706  1.4499 -0.7958
  136MOL0     H18748   0.720   6.148   2.701  0.2244  0.7025  0.8550
  136MOL0     H18749   0.691   6.171   2.944  0.6858  0.9610 -2.2515
  136MOL0     H18750   0.862   6.153   3.408 -1.3645  0.7438 -2.8114
  136MOL0     H18751   0.766   6.149   3.632 -0.1567  1.6698 -1.6597
  136MOL0     H18752   0.765   6.799   5.081 -0.2528  1.2678 -0.3841
  136MOL0     H18753   0.708   6.658   5.224 -0.6686 -1.2030 -2.7746
  136MOL0     H18754   0.661   6.502   5.532  0.4755  1.8751 -0.2385
  136MOL0     H18755   0.744   6.390   5.730 -0.8417  1.0669 -0.6453
  136MOL0     H18756   0.697   6.229   5.913 -0.2061 -1.3544  0.9523
  136MOL0     H18757   0.831   6.350   5.929 -0.3591  0.4264  2.0455
  136MOL0     H18758   0.873   6.344   6.141  1.3748  0.8078 -3.1804
  136MOL0     H18759   0.858   6.177   6.080  0.1597 -0.2444  0.6615
  136MOL0     H18760   0.634   6.159   6.200 -1.4766  1.3544  3.1348
  136MOL0     H18761   0.776   6.200   6.297 -0.3068  2.8983  0.9791
  136MOL0     H18762   0.546   6.380   6.218 -0.6613 -0.7644  1.5324
  136MOL0     H18763   0.679   6.438   6.308  0.5502  0.2956 -0.6454
  136MOL0     H18764   0.453   6.142   6.544  0.3654 -0.2971 -0.2244
  136MOL0     H18765   0.511   6.625   5.982  1.7976 -0.0248 -0.5862
  136MOL0     H18766   0.337   6.739   5.906 -1.9520 -1.3694 -2.3234
  136MOL0     H18767   0.444   6.860   5.847  1.1685 -1.1890 -1.4393
  136MOL0     H18768   0.336   6.796   5.731  2.8342  0.4540 -2.0868
  137MOL0     O18769   6.925   7.675   8.986  0.2397 -0.3643  0.0535
  137MOL0     C18770   7.022   7.621   9.024 -0.3285 -1.0320 -0.0201
  137MOL0     O18771   7.027   7.492   9.072 -0.5966 -0.5007  0.1193
  137MOL0     C18772   6.915   7.421   9.045  0.9315 -0.2277  0.2564
  137MOL0     C18773   6.838   7.407   9.159  0.4690  0.1741 -0.1145
  137MOL0     C18774   6.721   7.332   9.137  0.0059  0.5546 -0.3400
  137MOL0     C18775   6.688   7.260   9.021 -0.2476  0.4631 -0.8458
  137MOL0     O18776   6.585   7.171   9.000  0.3362 -0.8797 -0.4722
  137MOL0     C18777   6.452   7.204   9.044  0.1421 -0.2776 -0.5954
  137MOL0     C18778   6.346   7.216   8.930  0.6774 -0.6728 -0.1668
  137MOL0     C18779   6.331   7.101   8.838 -0.0129  0.3226  1.1136
  137MOL0     C18780   6.446   7.092   8.721 -0.5654 -1.0714 -0.4947
  137MOL0     C18781   6.444   6.954   8.662  0.1255  0.0304  0.0360
  137MOL0     C18782   6.561   6.932   8.564  0.1007 -0.4864 -0.1993
  137MOL0     C18783   6.570   6.785   8.515  0.8788  0.0985  0.2382
  137MOL0     C18784   6.654   6.707   8.613 -0.4026  0.0796  0.0969
  137MOL0     N18785   6.664   6.561   8.587 -0.1370 -0.2348  0.5148
  137MOL0     C18786   6.559   6.482   8.603 -0.3351  0.0650 -0.2185
  137MOL0     C18787   6.599   6.375   8.534  0.7942 -0.6920 -0.4089
  137MOL0     C18788   6.522   6.246   8.510  0.1413  0.3616  0.0784
  137MOL0     C18789   6.402   6.281   8.426 -0.0201 -0.8395  0.4747
  137MOL0     C18790   6.339   6.143   8.401  0.0486 -0.3347  0.0285
  137MOL0     C18791   6.213   6.157   8.305 -0.3316 -0.7319 -0.0636
  137MOL0     O18792   6.251   6.205   8.181  0.3772 -0.5674 -0.1887
  137MOL0     C18793   6.170   6.296   8.106 -0.8336 -1.3088 -0.5270
  137MOL0     C18794   6.225   6.394   8.028  0.5443  0.1832  0.7376
  137MOL0     C18795   6.158   6.476   7.938  0.1422 -0.7369  0.9449
  137MOL0     C18796   6.241   6.576   7.862  0.2836 -0.4752 -0.3342
  137MOL0     C18797   6.018   6.459   7.927  0.5987  0.0918 -0.0115
  137MOL0     C18798   5.931   6.508   7.823 -0.1751  0.1578 -0.7246
  137MOL0     O18799   5.797   6.459   7.815 -0.0903  0.3325  0.8991
  137MOL0     C18800   5.727   6.514   7.702 -0.6282 -0.0645 -0.8779
  137MOL0     C18801   5.621   6.599   7.721  1.0672 -1.1840  0.2098
  137MOL0     C18802   5.526   6.612   7.619  0.4047 -0.5832  0.1348
  137MOL0     C18803   5.534   6.544   7.494  0.1520  0.1822 -0.9849
  137MOL0     O18804   5.438   6.565   7.395 -0.0747  0.2151  0.3719
  137MOL0     C18805   5.462   6.508   7.263  0.4148 -0.6987 -0.1513
  137MOL0     C18806   5.349   6.562   7.174 -0.7060  0.5601 -0.3824
  137MOL0     C18807   5.216   6.514   7.216 -0.1536  0.4793 -0.1616
  137MOL0     C18808   5.110   6.566   7.121 -0.1447 -0.7922 -0.8469
  137MOL0     C18809   5.057   6.710   7.153 -0.4196  0.3162  0.3719
  137MOL0     C18810   4.965   6.733   7.280 -0.9226 -0.2276  0.3214
  137MOL0     C18811   4.838   6.651   7.285 -0.8053  1.2122  0.2959
  137MOL0     C18812   4.768   6.651   7.424  0.4207 -1.0221 -0.1041
  137MOL0    Cl18813   4.755   6.824   7.476  0.1148 -0.4276 -0.3648
  137MOL0     C18814   5.645   6.453   7.482 -0.0144 -0.2426 -0.5477
  137MOL0     C18815   5.739   6.440   7.589  0.0924 -0.6639  0.8850
  137MOL0     O18816   5.975   6.599   7.757  0.5334 -0.3539 -0.5223
  137MOL0     C18817   5.960   6.364   8.016  0.9357 -0.7387  0.5604
  137MOL0     C18818   6.034   6.284   8.100  0.5658 -1.0685 -0.0883
  137MOL0     N18819   6.730   6.388   8.486  0.0466 -0.2384 -0.8154
  137MOL0     N18820   6.759   6.506   8.511  0.0942  0.1712  0.4299
  137MOL0     C18821   6.763   7.277   8.908 -0.6500  0.0336  0.4036
  137MOL0     C18822   6.883   7.361   8.919 -0.7141  0.5740  0.6542
  137MOL0     C18823   7.144   7.716   9.055  0.1676 -0.8258 -0.3340
  137MOL0     C18824   7.159   7.845   8.983  0.1176 -0.2378  0.1459
  137MOL0     C18825   7.270   7.928   8.993 -0.2392  0.7373 -0.7283
  137MOL0     C18826   7.370   7.890   9.081  0.5850  0.3787 -0.8805
  137MOL0     O18827   7.481   7.968   9.078 -0.5208 -0.3440 -0.0588
  137MOL0     C18828   7.609   7.927   9.135 -1.3205 -0.6649 -0.4460
  137MOL0     C18829   7.712   8.017   9.061 -0.3917  0.2827 -0.0793
  137MOL0     C18830   7.704   8.164   9.104 -0.1634  0.6363 -0.2634
  137MOL0     C18831   7.780   8.190   9.236 -0.4149 -0.1202  0.4074
  137MOL0     C18832   7.831   8.331   9.237  0.8019 -0.3294 -0.4779
  137MOL0     C18833   7.865   8.450   9.236  0.3423 -0.4844 -0.4885
  137MOL0     C18834   7.352   7.774   9.170 -0.5384 -0.2080  0.5986
  137MOL0     C18835   7.236   7.690   9.158  0.6244 -0.3948 -0.9211
  137MOL0     C18836   7.207   7.588   9.269 -0.3734 -0.4597  0.4399
  137MOL0     H18837   6.883   7.436   9.254  1.4108 -1.4136 -0.0368
  137MOL0     H18838   6.658   7.336   9.225  1.0817  0.9122  0.4440
  137MOL0     H18839   6.442   7.298   9.100  1.2009 -0.3630 -0.2247
  137MOL0     H18840   6.428   7.125   9.116 -0.4527  1.1511  0.8448
  137MOL0     H18841   6.247   7.221   8.977  0.5094 -2.7752 -0.2069
  137MOL0     H18842   6.358   7.308   8.872 -1.2567 -0.8357 -0.9017
  137MOL0     H18843   6.330   7.004   8.888  2.0518  1.5400  3.8351
  137MOL0     H18844   6.235   7.107   8.788  0.9543  1.7220 -0.7050
  137MOL0     H18845   6.416   7.173   8.653  0.6773 -0.0594  0.1121
  137MOL0     H18846   6.543   7.112   8.766  1.1200  3.2233 -5.0308
  137MOL0     H18847   6.359   6.938   8.594  0.1811  0.0567 -0.0382
  137MOL0     H18848   6.449   6.879   8.742  0.4279 -1.3571 -1.2362
  137MOL0     H18849   6.555   6.982   8.467  2.5138  1.5304  0.5892
  137MOL0     H18850   6.660   6.968   8.592  0.8195 -1.6347 -1.1526
  137MOL0     H18851   6.616   6.777   8.416 -0.0151  3.0094 -0.5270
  137MOL0     H18852   6.469   6.743   8.507  0.0458  1.9127  0.6890
  137MOL0     H18853   6.754   6.751   8.599 -0.3740 -0.5316 -1.9224
  137MOL0     H18854   6.623   6.729   8.716 -1.3469  3.1993 -0.7515
  137MOL0     H18855   6.463   6.499   8.650 -0.9698 -2.1513 -0.5869
  137MOL0     H18856   6.495   6.195   8.603  2.8276 -2.0096 -0.3125
  137MOL0     H18857   6.594   6.181   8.459  0.4849  1.8977 -1.5042
  137MOL0     H18858   6.335   6.342   8.487  0.0462 -0.5852  0.2960
  137MOL0     H18859   6.423   6.334   8.332 -2.2420 -0.2037  0.2686
  137MOL0     H18860   6.406   6.065   8.364 -0.2628 -0.0923 -1.0821
  137MOL0     H18861   6.299   6.111   8.498  2.3492  1.0200  1.5295
  137MOL0     H18862   6.132   6.084   8.296 -0.7645 -0.2035 -0.5418
  137MOL0     H18863   6.160   6.241   8.350 -0.5173 -0.4167 -0.8486
  137MOL0     H18864   6.333   6.394   8.019  0.4455  1.2728 -1.0227
  137MOL0     H18865   6.346   6.548   7.851  0.2365 -0.7111 -0.1762
  137MOL0     H18866   6.253   6.666   7.923  0.3461 -0.6114 -0.1485
  137MOL0     H18867   6.210   6.598   7.759  4.6300 -2.7682 -2.3993
  137MOL0     H18868   5.628   6.641   7.821  6.8509 -2.8388  0.8591
  137MOL0     H18869   5.448   6.688   7.615 -1.6548 -2.6151 -0.9120
  137MOL0     H18870   5.561   6.534   7.224  0.1185  0.0791 -0.3969
  137MOL0     H18871   5.454   6.399   7.264  2.0989 -0.8479 -0.0976
  137MOL0     H18872   5.355   6.671   7.172  0.5917  0.5134 -0.0027
  137MOL0     H18873   5.365   6.545   7.068  1.1082  0.1187 -0.0673
  137MOL0     H18874   5.186   6.536   7.319 -4.4537 -1.8683 -0.6684
  137MOL0     H18875   5.208   6.406   7.202  0.1676  0.0332  2.6645
  137MOL0     H18876   5.027   6.495   7.131  2.4600 -3.8687  0.9413
  137MOL0     H18877   5.150   6.560   7.019 -1.0864  2.2341 -1.4887
  137MOL0     H18878   5.142   6.775   7.174 -0.4468  0.9817 -1.4301
  137MOL0     H18879   5.008   6.755   7.066 -1.1076 -0.1537  0.5134
  137MOL0     H18880   4.959   6.842   7.279 -0.2457 -0.1575  1.4271
  137MOL0     H18881   5.027   6.702   7.366  2.7802  2.6170 -1.0392
  137MOL0     H18882   4.859   6.543   7.278 -2.2922  0.8487  0.9908
  137MOL0     H18883   4.777   6.672   7.197  1.8607  2.3247 -1.4119
  137MOL0     H18884   4.828   6.603   7.502  0.1850 -0.1883  0.6065
  137MOL0     H18885   4.666   6.613   7.412 -0.0845  0.0997  0.5009
  137MOL0     H18886   5.662   6.396   7.391 -2.5134 -0.1587 -1.1337
  137MOL0     H18887   5.819   6.367   7.589  1.0781  0.3256  3.0125
  137MOL0     H18888   5.855   6.342   8.001 -0.0082  3.9124 -1.5579
  137MOL0     H18889   5.984   6.206   8.156  0.7641  0.3012  2.1521
  137MOL0     H18890   6.732   7.230   8.816 -2.7156  2.6426 -0.3663
  137MOL0     H18891   6.942   7.384   8.831 -1.2604 -0.7316 -0.0781
  137MOL0     H18892   7.086   7.881   8.911 -1.3368 -0.5194  1.4261
  137MOL0     H18893   7.272   8.023   8.941  0.7156  0.0672 -1.9864
  137MOL0     H18894   7.627   7.937   9.242 -2.1664  0.7053 -0.4120
  137MOL0     H18895   7.621   7.825   9.096 -1.6942 -0.8242 -0.1457
  137MOL0     H18896   7.680   8.014   8.957 -1.4277 -1.8372  0.2432
  137MOL0     H18897   7.819   7.993   9.060 -0.2539  0.6302 -3.2254
  137MOL0     H18898   7.736   8.217   9.014 -1.9227  0.0362 -1.2759
  137MOL0     H18899   7.599   8.176   9.132  0.5054 -0.1735  3.1201
  137MOL0     H18900   7.867   8.124   9.242  1.9650  2.8445  1.6110
  137MOL0     H18901   7.711   8.182   9.320 -0.4154  4.6109  1.1550
  137MOL0     H18902   7.883   8.556   9.227  3.0949 -1.0243 -2.6954
  137MOL0     H18903   7.424   7.756   9.249  0.6997  0.8759 -0.2535
  137MOL0     H18904   7.276   7.596   9.354  1.0018  1.1090 -0.7518
  137MOL0     H18905   7.101   7.578   9.297 -0.6430  3.6654  1.6732
  137MOL0     H18906   7.233   7.492   9.226 -1.6241 -0.5624 -0.1481
  138MOL0     O18907   1.346   8.852   1.145 -0.4331 -0.6255 -0.7036
  138MOL0     C18908   1.359   8.817   1.029  0.1679 -0.0375 -0.0027
  138MOL0     O18909   1.406   8.695   1.000 -0.6819  0.2736 -0.7621
  138MOL0     C18910   1.453   8.611   1.109 -1.0419 -0.0723 -0.2714
  138MOL0     C18911   1.352   8.556   1.190  0.2344  0.4234  0.4635
  138MOL0     C18912   1.391   8.474   1.296 -0.7580 -0.1916 -0.2776
  138MOL0     C18913   1.523   8.446   1.326 -0.5259 -0.9430  0.2789
  138MOL0     O18914   1.542   8.352   1.417  0.5265  0.7717 -0.0995
  138MOL0     C18915   1.672   8.335   1.471  1.2203  0.2146  0.5949
  138MOL0     C18916   1.723   8.461   1.531 -0.0612 -0.1961 -0.8409
  138MOL0     C18917   1.832   8.415   1.629 -1.6452  0.2531  0.0012
  138MOL0     C18918   1.897   8.535   1.704 -0.9336 -0.1675 -0.5682
  138MOL0     C18919   1.953   8.517   1.840 -0.4989 -0.7024 -0.5820
  138MOL0     C18920   2.044   8.644   1.867 -0.3390  1.4193  0.2515
  138MOL0     C18921   2.112   8.642   2.005  0.1981 -1.5681 -0.8616
  138MOL0     C18922   2.201   8.761   2.026  0.7323 -0.4204  0.5750
  138MOL0     N18923   2.227   8.759   2.173  0.1365  0.6235 -0.2271
  138MOL0     C18924   2.270   8.864   2.251  0.0447 -0.1606 -0.2929
  138MOL0     C18925   2.272   8.825   2.381  1.0576  0.4108  0.8484
  138MOL0     C18926   2.324   8.909   2.494 -0.6238  0.8416 -0.2666
  138MOL0     C18927   2.308   9.055   2.470 -0.5285 -0.5289 -0.9653
  138MOL0     C18928   2.308   9.153   2.590 -1.0740 -0.2896  0.2428
  138MOL0     C18929   2.262   9.291   2.565  0.0891  0.2913  0.0726
  138MOL0     O18930   2.135   9.283   2.497 -0.0712 -0.2267  1.0036
  138MOL0     C18931   2.032   9.365   2.539  0.1522 -0.7509 -0.4089
  138MOL0     C18932   1.905   9.314   2.570  0.0386 -1.2650  0.4805
  138MOL0     C18933   1.799   9.402   2.600 -0.4911  0.5995 -0.1039
  138MOL0     C18934   1.667   9.330   2.615 -0.4840  0.4200 -0.6327
  138MOL0     C18935   1.817   9.535   2.608 -0.3030 -0.4815 -0.0045
  138MOL0     C18936   1.709   9.633   2.636 -1.2036  0.0188 -0.1034
  138MOL0     O18937   1.738   9.744   2.709  0.4006 -0.2050  0.8582
  138MOL0     C18938   1.647   9.837   2.746  0.0361  0.1969  0.1422
  138MOL0     C18939   1.701   9.966   2.778  0.4665 -0.3600 -0.7407
  138MOL0     C18940   1.612  10.062   2.830  0.1294  0.4435  0.6133
  138MOL0     C18941   1.470  10.048   2.840 -0.2209  0.7957 -0.4543
  138MOL0     O18942   1.401  10.152   2.893 -0.2099 -0.0142  0.0298
  138MOL0     C18943   1.260  10.149   2.870  2.5337  0.2319  0.0895
  138MOL0     C18944   1.191  10.267   2.940  0.2246  0.4481 -0.4537
  138MOL0     C18945   1.213  10.272   3.100  0.0999 -0.0650  0.4921
  138MOL0     C18946   1.124  10.373   3.171 -0.1550  0.3643  0.2057
  138MOL0     C18947   1.138  10.380   3.327 -0.4863 -0.2516  0.1948
  138MOL0     C18948   1.140  10.244   3.393  0.5296  0.3889 -0.5344
  138MOL0     C18949   0.993  10.185   3.382  1.1145  0.2967 -0.1734
  138MOL0     C18950   0.995  10.051   3.456  0.6534  0.3098 -0.2638
  138MOL0    Cl18951   1.039  10.063   3.631 -0.3128 -0.0368  0.0312
  138MOL0     C18952   1.424   9.923   2.815  1.0324  0.8623  0.3083
  138MOL0     C18953   1.508   9.823   2.757  0.7868  0.5069 -0.2356
  138MOL0     O18954   1.610   9.614   2.568  0.1875  0.5848  0.7615
  138MOL0     C18955   1.946   9.584   2.594 -0.0615 -0.8141  0.0181
  138MOL0     C18956   2.055   9.504   2.561 -0.4785 -0.1404  0.6713
  138MOL0     N18957   2.193   8.706   2.385 -0.1318 -0.6895  0.1922
  138MOL0     N18958   2.171   8.669   2.266 -0.5752 -0.0780 -0.4389
  138MOL0     C18959   1.619   8.517   1.247  0.7485  0.9858 -0.3425
  138MOL0     C18960   1.586   8.584   1.134  0.3380 -0.1845  0.0900
  138MOL0     C18961   1.319   8.905   0.920 -0.5714  0.6434  0.7639
  138MOL0     C18962   1.283   9.033   0.955  0.0437 -1.0641  0.1815
  138MOL0     C18963   1.256   9.132   0.863 -0.0802 -0.2242 -0.8780
  138MOL0     C18964   1.263   9.100   0.727  1.0231 -0.4229  0.7133
  138MOL0     O18965   1.237   9.190   0.627  0.6283  0.4114  0.3626
  138MOL0     C18966   1.221   9.327   0.659  0.5435  0.3098  0.1624
  138MOL0     C18967   1.190   9.386   0.520 -0.1808 -0.5668  0.4270
  138MOL0     C18968   1.326   9.398   0.436 -0.1320  0.1579  0.8003
  138MOL0     C18969   1.318   9.536   0.348  0.3158  0.6870  0.2595
  138MOL0     C18970   1.345   9.657   0.428 -0.6513  0.4943  0.8143
  138MOL0     C18971   1.360   9.765   0.493 -0.6069  0.1899  0.7199
  138MOL0     C18972   1.285   8.969   0.695 -0.0946 -0.1793  0.3376
  138MOL0     C18973   1.311   8.877   0.791  0.1166 -0.8960 -0.5047
  138MOL0     C18974   1.331   8.742   0.718  0.0668  0.1928 -0.5131
  138MOL0     H18975   1.248   8.569   1.163  0.9305 -0.4697 -3.3251
  138MOL0     H18976   1.314   8.422   1.352  0.2869 -1.1249  0.3400
  138MOL0     H18977   1.739   8.307   1.389  0.6484  1.2419 -0.2627
  138MOL0     H18978   1.662   8.263   1.553  1.8281 -1.3799 -0.6806
  138MOL0     H18979   1.756   8.535   1.456 -2.0371  3.2732  1.4405
  138MOL0     H18980   1.650   8.498   1.603  0.9746 -0.2410  0.2572
  138MOL0     H18981   1.776   8.347   1.695 -0.7856  3.4241  4.4133
  138MOL0     H18982   1.910   8.363   1.573 -0.3596  0.6532  1.3544
  138MOL0     H18983   1.960   8.593   1.636 -1.9869 -0.5975 -1.9549
  138MOL0     H18984   1.816   8.609   1.713 -0.6440  0.2337 -1.2298
  138MOL0     H18985   2.015   8.427   1.845 -2.0154 -1.8233 -1.3377
  138MOL0     H18986   1.883   8.508   1.923  2.6979  1.6362  2.7437
  138MOL0     H18987   2.126   8.650   1.796  1.7013  3.1561  2.5920
  138MOL0     H18988   1.985   8.736   1.866 -2.2975  0.3047  2.6271
  138MOL0     H18989   2.173   8.556   2.032 -1.2973 -2.2865  0.3598
  138MOL0     H18990   2.028   8.649   2.074 -0.8626  0.6902 -2.2709
  138MOL0     H18991   2.289   8.743   1.963  0.1185  1.3281 -0.8776
  138MOL0     H18992   2.144   8.846   1.988 -3.1100 -2.3487  1.5500
  138MOL0     H18993   2.302   8.962   2.217  1.3188  0.4465  2.4683
  138MOL0     H18994   2.430   8.884   2.502 -0.7444 -0.3063 -1.7235
  138MOL0     H18995   2.272   8.899   2.590  1.3893  2.2019  1.0375
  138MOL0     H18996   2.404   9.089   2.430  0.0971  0.5764  1.3147
  138MOL0     H18997   2.228   9.078   2.400 -1.6657  1.5594  0.9152
  138MOL0     H18998   2.247   9.105   2.666 -0.9967 -1.5112 -0.4432
  138MOL0     H18999   2.411   9.156   2.626 -0.5983 -3.8075 -0.4594
  138MOL0     H19000   2.270   9.362   2.647  2.6969  0.2356 -0.0284
  138MOL0     H19001   2.331   9.339   2.494  1.1132 -1.5261 -0.2400
  138MOL0     H19002   1.882   9.208   2.574  0.5780 -1.4170 -0.2896
  138MOL0     H19003   1.635   9.315   2.719  2.1152  1.0653  0.3459
  138MOL0     H19004   1.675   9.229   2.575  0.6178  0.1549  0.1813
  138MOL0     H19005   1.596   9.379   2.549  0.4768  0.6390 -1.5227
  138MOL0     H19006   1.805   9.996   2.789  0.1144  1.3713 -1.7660
  138MOL0     H19007   1.660  10.155   2.859 -0.1747  1.1253 -0.9240
  138MOL0     H19008   1.222  10.152   2.767 -0.5822 -1.8499  1.0375
  138MOL0     H19009   1.221  10.057   2.914 -1.2018  2.1083  1.1225
  138MOL0     H19010   1.248  10.351   2.898  1.0469  0.6371  1.0005
  138MOL0     H19011   1.085  10.260   2.916  0.5578 -0.4483 -1.7902
  138MOL0     H19012   1.319  10.295   3.117  0.4880 -0.4084 -1.2441
  138MOL0     H19013   1.192  10.172   3.140  1.6348 -0.4442  0.4504
  138MOL0     H19014   1.019  10.353   3.150 -0.8673  0.3040  3.3575
  138MOL0     H19015   1.149  10.476   3.147  0.3970  0.9953  3.1178
  138MOL0     H19016   1.236  10.424   3.346  0.3827 -0.2975 -3.4014
  138MOL0     H19017   1.059  10.441   3.372 -2.2410 -1.9348 -0.4563
  138MOL0     H19018   1.164  10.261   3.498 -0.3886 -0.5910 -0.1469
  138MOL0     H19019   1.219  10.177   3.358  0.1392 -1.0196  1.1201
  138MOL0     H19020   0.966  10.163   3.278 -0.4003 -1.1882  0.4905
  138MOL0     H19021   0.920  10.256   3.422 -0.4536 -1.1959 -0.2295
  138MOL0     H19022   1.061   9.977   3.409 -0.8078 -1.8807  0.9508
  138MOL0     H19023   0.896  10.005   3.460  1.7782 -2.2998 -0.4415
  138MOL0     H19024   1.322   9.892   2.835  1.1037  0.9111  0.7619
  138MOL0     H19025   1.460   9.732   2.721  0.2689  1.3513 -1.7345
  138MOL0     H19026   1.956   9.691   2.611  1.0924 -1.1213  1.4604
  138MOL0     H19027   2.156   9.542   2.547 -1.1936  1.5491 -0.1354
  138MOL0     H19028   1.724   8.491   1.257  0.8774  2.1693  2.4139
  138MOL0     H19029   1.664   8.618   1.067  1.3280  1.1354  1.8118
  138MOL0     H19030   1.299   9.055   1.060 -1.1062 -1.1805  0.3977
  138MOL0     H19031   1.250   9.234   0.899 -0.9870 -1.5792  3.3440
  138MOL0     H19032   1.144   9.353   0.731 -1.1978 -0.6374 -1.2752
  138MOL0     H19033   1.313   9.376   0.693  1.8885 -1.0564 -1.2925
  138MOL0     H19034   1.141   9.482   0.537  1.2667  0.8191 -2.4028
  138MOL0     H19035   1.118   9.324   0.467 -0.8040  0.0720  0.5131
  138MOL0     H19036   1.410   9.399   0.506  0.7995 -2.1528 -0.1629
  138MOL0     H19037   1.345   9.311   0.372  3.0204  0.6510  0.9202
  138MOL0     H19038   1.222   9.540   0.295  0.2357 -0.5678  0.2900
  138MOL0     H19039   1.391   9.531   0.267 -2.1751 -0.9434 -2.0824
  138MOL0     H19040   1.376   9.865   0.529 -0.0836  1.3926 -2.5082
  138MOL0     H19041   1.272   8.942   0.591 -1.6223  6.5947 -1.7140
  138MOL0     H19042   1.413   8.684   0.762 -0.8001 -2.6774 -2.4387
  138MOL0     H19043   1.239   8.688   0.743 -0.2400  1.4461  1.3232
  138MOL0     H19044   1.332   8.747   0.609 -0.5636  1.6491 -0.4817
  139MOL0     O19045   8.764  10.064  11.183 -1.0109  0.1250 -0.4565
  139MOL0     C19046   8.679   9.988  11.137 -0.0319  0.8695 -0.8124
  139MOL0     O19047   8.683   9.929  11.016 -0.4242 -0.5272  0.4228
  139MOL0     C19048   8.774   9.975  10.925  0.4191  1.3267  0.3755
  139MOL0     C19049   8.863  10.091  10.914 -0.1447  0.8086 -0.1952
  139MOL0     C19050   8.962  10.101  10.804  0.6832  0.3798 -0.1776
  139MOL0     C19051   8.964  10.002  10.705 -0.8339 -1.1470 -0.0211
  139MOL0     O19052   9.053  10.014  10.600  0.0613 -0.0360 -0.0908
  139MOL0     C19053   9.084  10.141  10.536  0.6739 -0.4699  0.9683
  139MOL0     C19054   9.196  10.113  10.430  0.3933 -0.3787  0.3951
  139MOL0     C19055   9.254  10.252  10.391  0.7660  0.6465  0.1529
  139MOL0     C19056   9.139  10.349  10.344  0.2835 -0.1642 -0.2654
  139MOL0     C19057   9.200  10.488  10.289  0.2035 -0.0659  0.7800
  139MOL0     C19058   9.105  10.577  10.201 -0.2269  0.0518  0.4647
  139MOL0     C19059   9.080  10.531  10.065 -0.9073 -0.6642  1.2828
  139MOL0     C19060   8.972  10.616   9.999  0.0034 -0.5207  0.1866
  139MOL0     N19061   8.951  10.587   9.850  0.2202 -0.0557 -0.0126
  139MOL0     C19062   8.889  10.478   9.791 -0.8009 -0.9590  0.3505
  139MOL0     C19063   8.859  10.517   9.669  0.4516  0.3939  0.8711
  139MOL0     C19064   8.816  10.425   9.563 -0.1189 -0.5813 -0.0199
  139MOL0     C19065   8.930  10.403   9.464  0.7032  0.6467 -0.0445
  139MOL0     C19066   8.937  10.515   9.355 -0.4063 -1.0201  1.0774
  139MOL0     C19067   8.825  10.495   9.245 -0.7863 -0.9778 -0.2728
  139MOL0     O19068   8.815  10.368   9.184  0.0378  0.3471  0.1349
  139MOL0     C19069   8.742  10.364   9.074  0.2624 -0.2026  0.1197
  139MOL0     C19070   8.602  10.338   9.077  0.2866 -0.1817  0.5564
  139MOL0     C19071   8.517  10.345   8.964  0.9292 -0.3256  0.2722
  139MOL0     C19072   8.362  10.338   8.975  0.6325 -0.5074  0.1065
  139MOL0     C19073   8.579  10.383   8.833  0.9506 -0.9025 -0.0588
  139MOL0     C19074   8.492  10.416   8.717 -0.2638  0.2788  0.0814
  139MOL0     O19075   8.431  10.314   8.651 -0.1371  0.4119  0.5470
  139MOL0     C19076   8.357  10.334   8.542 -0.6680  0.2230  0.2830
  139MOL0     C19077   8.229  10.369   8.556  1.0011 -0.2710  0.3984
  139MOL0     C19078   8.139  10.388   8.453 -0.1995  0.0423 -0.1034
  139MOL0     C19079   8.189  10.379   8.322  0.6960 -0.1913 -0.3250
  139MOL0     O19080   8.122  10.410   8.209  0.4357  0.6222 -0.6261
  139MOL0     C19081   7.975  10.422   8.202 -0.3806  0.7360 -0.3614
  139MOL0     C19082   7.911  10.376   8.066 -0.4179 -0.5933 -1.2667
  139MOL0     C19083   7.769  10.428   8.073  0.1982 -0.8219  0.2366
  139MOL0     C19084   7.666  10.312   8.094 -0.3824  0.2191 -0.0417
  139MOL0     C19085   7.519  10.351   8.077  0.3299  0.1537 -0.0442
  139MOL0     C19086   7.472  10.401   7.942 -0.1961 -0.0698 -0.7293
  139MOL0     C19087   7.332  10.468   7.932 -0.7469  0.8966 -0.8324
  139MOL0     C19088   7.316  10.533   7.799  0.7881  0.1449  0.4184
  139MOL0    Cl19089   7.157  10.615   7.746 -0.4390  0.3358 -0.1750
  139MOL0     C19090   8.323  10.363   8.301  0.0794 -0.0457 -1.0130
  139MOL0     C19091   8.410  10.342   8.411 -0.3428  1.1612  0.6704
  139MOL0     O19092   8.460  10.535   8.708 -0.0673 -1.3009 -0.3932
  139MOL0     C19093   8.718  10.406   8.826 -0.1391 -0.2294  0.3097
  139MOL0     C19094   8.792  10.397   8.946  0.4562  0.7117  0.4371
  139MOL0     N19095   8.882  10.650   9.656 -0.0831 -0.9757 -0.2332
  139MOL0     N19096   8.942  10.689   9.763  0.1498 -0.7269 -0.1795
  139MOL0     C19097   8.890   9.893  10.716  0.3442  0.7609  0.8213
  139MOL0     C19098   8.789   9.883  10.820  0.6256 -1.0380  0.5263
  139MOL0     C19099   8.571   9.965  11.228  0.8685 -0.1252 -0.8286
  139MOL0     C19100   8.601   9.935  11.362  0.4506 -0.3409 -0.0182
  139MOL0     C19101   8.504   9.936  11.456 -0.0139 -1.1553 -0.5815
  139MOL0     C19102   8.368   9.938  11.418 -0.3680  1.2412 -0.0146
  139MOL0     O19103   8.263   9.913  11.497  0.4192  0.4636  0.0355
  139MOL0     C19104   8.284   9.810  11.595  0.3419  0.0583 -0.7126
  139MOL0     C19105   8.156   9.759  11.658 -0.2103  0.8409 -0.4345
  139MOL0     C19106   8.030   9.735  11.573 -0.2056  0.3563 -0.1225
  139MOL0     C19107   8.055   9.613  11.496  0.4337  0.4146 -0.6982
  139MOL0     C19108   7.940   9.580  11.408  0.2911 -0.0975  0.2757
  139MOL0     C19109   7.843   9.539  11.351 -0.1081 -0.0626  0.1909
  139MOL0     C19110   8.340   9.963  11.280 -0.8330  0.1959  0.3704
  139MOL0     C19111   8.442   9.989  11.189  0.0840 -0.5539  0.0588
  139MOL0     C19112   8.399  10.032  11.051  0.1447 -0.4312 -0.4363
  139MOL0     H19113   8.871  10.159  10.998 -0.0765 -0.8873  1.2305
  139MOL0     H19114   9.034  10.182  10.806  1.2824 -0.0843 -1.5496
  139MOL0     H19115   9.112  10.206  10.619 -1.4737  0.3673  1.1032
  139MOL0     H19116   8.999  10.182  10.481 -1.1553 -4.2446  0.6780
  139MOL0     H19117   9.278  10.051  10.469  0.7206 -0.1956  0.0004
  139MOL0     H19118   9.139  10.063  10.351  0.7514 -1.5159  0.8321
  139MOL0     H19119   9.310  10.291  10.476 -0.6235  1.5067  0.6985
  139MOL0     H19120   9.332  10.244  10.315  1.4836  0.0641  0.9258
  139MOL0     H19121   9.073  10.307  10.268  1.1991 -0.2749 -1.0126
  139MOL0     H19122   9.075  10.379  10.429  1.7238  1.9205  0.1744
  139MOL0     H19123   9.289  10.477  10.226 -1.3023 -1.4456 -1.1924
  139MOL0     H19124   9.219  10.558  10.371 -3.5613  2.4239 -0.1943
  139MOL0     H19125   9.007  10.588  10.248  0.3343  2.3739  1.2625
  139MOL0     H19126   9.145  10.679  10.193 -2.5466  1.0110  0.2466
  139MOL0     H19127   9.048  10.427  10.072 -0.1208 -1.0057  0.1006
  139MOL0     H19128   9.172  10.531  10.006 -1.0413 -1.4045  1.0628
  139MOL0     H19129   8.874  10.597  10.044 -0.0887  1.7952  1.1174
  139MOL0     H19130   8.983  10.723  10.018 -3.1635 -0.4431  2.3240
  139MOL0     H19131   8.892  10.376   9.829 -1.3792 -1.1777 -0.1862
  139MOL0     H19132   8.731  10.474   9.516 -0.4628 -1.3316 -0.1983
  139MOL0     H19133   8.792  10.329   9.610 -0.1265 -0.4856  0.1739
  139MOL0     H19134   9.024  10.373   9.511 -0.7466  1.0648  3.4436
  139MOL0     H19135   8.901  10.306   9.422  1.8239 -0.4539  1.6409
  139MOL0     H19136   8.935  10.616   9.396  1.4402 -0.4764 -0.0461
  139MOL0     H19137   9.037  10.506   9.310 -1.1810 -0.7590 -0.8083
  139MOL0     H19138   8.725  10.508   9.287 -0.6612 -1.1464  0.0875
  139MOL0     H19139   8.845  10.567   9.166  3.1786  0.2201  1.5599
  139MOL0     H19140   8.572  10.316   9.179 -0.8801 -0.0390  0.2557
  139MOL0     H19141   8.314  10.423   8.927  0.8622  1.3350  2.8614
  139MOL0     H19142   8.349  10.350   9.083 -2.0050 -0.9647 -0.1040
  139MOL0     H19143   8.319  10.245   8.936  2.2987 -0.0162 -3.2832
  139MOL0     H19144   8.190  10.404   8.651 -4.4223 -0.7433 -1.3111
  139MOL0     H19145   8.040  10.415   8.490 -1.1544 -0.9109 -1.8427
  139MOL0     H19146   7.931  10.358   8.278  0.9476 -0.0379 -0.2064
  139MOL0     H19147   7.939  10.524   8.217  0.2580  1.2330 -1.9370
  139MOL0     H19148   7.977  10.416   7.989  3.0497 -1.8337  0.8212
  139MOL0     H19149   7.908  10.267   8.063 -3.4168 -0.6371 -0.6092
  139MOL0     H19150   7.737  10.487   7.987 -2.8059 -1.3723  0.8756
  139MOL0     H19151   7.752  10.496   8.158  2.6653  1.0578 -0.6408
  139MOL0     H19152   7.674  10.280   8.198  1.7629 -2.3778 -0.8771
  139MOL0     H19153   7.687  10.223   8.034  1.8811  1.5705 -1.4104
  139MOL0     H19154   7.461  10.261   8.099  2.4784 -1.4470 -0.5885
  139MOL0     H19155   7.494  10.428   8.150  0.7527 -1.8376  2.3725
  139MOL0     H19156   7.485  10.326   7.863  1.7416 -1.2499  0.6122
  139MOL0     H19157   7.547  10.471   7.905  1.2729 -2.2347 -2.1270
  139MOL0     H19158   7.319  10.547   8.006  0.0172  0.5888 -0.3589
  139MOL0     H19159   7.252  10.397   7.955  0.4630 -0.0113  0.8026
  139MOL0     H19160   7.340  10.456   7.726 -1.2879 -0.0934 -0.0751
  139MOL0     H19161   7.400  10.602   7.791  3.3857 -2.6456  1.6818
  139MOL0     H19162   8.363  10.370   8.200  1.0887 -0.6364 -0.6660
  139MOL0     H19163   8.515  10.335   8.386 -1.1783 -2.0231 -2.7135
  139MOL0     H19164   8.780  10.409   8.737  0.4965 -0.8032  0.7262
  139MOL0     H19165   8.899  10.414   8.942  0.7961 -0.8934  1.7751
  139MOL0     H19166   8.916   9.817  10.643 -2.6292  2.3412 -2.1393
  139MOL0     H19167   8.735   9.789  10.825  0.1975 -0.8386 -0.1582
  139MOL0     H19168   8.705   9.924  11.389  0.1508 -0.1938  1.2460
  139MOL0     H19169   8.529   9.907  11.558  0.1592 -0.6390 -0.4708
  139MOL0     H19170   8.344   9.725  11.563  2.1457  0.9306  0.1964
  139MOL0     H19171   8.336   9.842  11.685  1.9249 -1.0213 -1.2046
  139MOL0     H19172   8.135   9.829  11.740  2.3049 -0.6651  1.6376
  139MOL0     H19173   8.192   9.675  11.717  2.4117  1.6872 -0.6977
  139MOL0     H19174   7.940   9.731  11.634 -0.8496 -1.5869 -1.1351
  139MOL0     H19175   8.019   9.809  11.492 -0.0564  0.8181  0.2734
  139MOL0     H19176   8.085   9.526  11.556 -2.3283 -1.6247 -2.0327
  139MOL0     H19177   8.143   9.623  11.432 -0.7311 -0.3365 -2.5184
  139MOL0     H19178   7.745   9.502  11.329 -0.2160 -0.5744  1.4821
  139MOL0     H19179   8.241   9.971  11.236 -0.0003 -2.6144 -2.4282
  139MOL0     H19180   8.466  10.107  11.008  0.9762  0.0020  1.4999
  139MOL0     H19181   8.375   9.946  10.988 -3.9116 -0.6384  1.0999
  139MOL0     H19182   8.315  10.098  11.071  0.7001  1.2059 -2.9900
  140MOL0     O19183  11.402   1.378   8.587 -0.2383 -0.1968 -0.0057
  140MOL0     C19184  11.316   1.322   8.649 -0.1636 -0.7219 -1.3074
  140MOL0     O19185  11.314   1.304   8.789  0.3422 -0.1419 -1.3143
  140MOL0     C19186  11.383   1.385   8.879  0.1423  0.3136 -0.9857
  140MOL0     C19187  11.424   1.336   9.006  0.3658  1.1671 -0.4054
  140MOL0     C19188  11.463   1.424   9.107 -0.8882  0.4411  0.1122
  140MOL0     C19189  11.470   1.563   9.085 -0.0078  0.7316  0.3507
  140MOL0     O19190  11.501   1.642   9.191  0.4641  0.5610  0.0211
  140MOL0     C19191  11.450   1.775   9.177 -0.3073  0.0499 -0.4899
  140MOL0     C19192  11.434   1.826   9.323  0.6026 -0.1777 -0.4482
  140MOL0     C19193  11.310   1.773   9.385  0.5520  0.5235  0.7726
  140MOL0     C19194  11.290   1.819   9.525  0.3017 -0.1252  0.4587
  140MOL0     C19195  11.196   1.742   9.620 -0.7655 -0.8333  1.1930
  140MOL0     C19196  11.049   1.748   9.575  0.3145  0.7697  0.1604
  140MOL0     C19197  10.957   1.683   9.679 -0.9935  0.0749  0.2212
  140MOL0     C19198  10.830   1.610   9.626 -0.5576  0.5492  0.3988
  140MOL0     N19199  10.742   1.706   9.556 -0.6831  0.5674 -0.5411
  140MOL0     C19200  10.661   1.788   9.625  0.0821  0.4071 -0.5311
  140MOL0     C19201  10.580   1.845   9.530 -0.6122  0.8290 -0.0726
  140MOL0     C19202  10.456   1.923   9.568 -0.3865  0.9928  0.5239
  140MOL0     C19203  10.335   1.868   9.491 -0.0221  0.1225 -0.5384
  140MOL0     C19204  10.323   1.710   9.522 -0.1105  0.3826  0.7705
  140MOL0     C19205  10.188   1.647   9.473  0.3184  0.1481 -0.1592
  140MOL0     O19206  10.085   1.719   9.533  0.2289 -0.6632 -0.6702
  140MOL0     C19207   9.957   1.679   9.505 -0.1454  0.8602  0.2622
  140MOL0     C19208   9.923   1.621   9.384  0.9696  0.4136  0.5890
  140MOL0     C19209   9.787   1.594   9.350 -0.8917 -0.2775  0.5053
  140MOL0     C19210   9.774   1.540   9.216  0.7522 -0.5178  0.6685
  140MOL0     C19211   9.690   1.614   9.449  0.2945  0.3776  0.4709
  140MOL0     C19212   9.544   1.594   9.423  0.6332 -1.0026  0.3585
  140MOL0     O19213   9.463   1.574   9.527  0.8635 -0.3336  0.2210
  140MOL0     C19214   9.324   1.585   9.533 -0.3625 -0.3845 -0.2370
  140MOL0     C19215   9.264   1.573   9.661  0.0796 -0.7262  0.1792
  140MOL0     C19216   9.132   1.557   9.677  0.2460  0.3447 -0.0629
  140MOL0     C19217   9.041   1.584   9.568 -0.3307 -0.0406  0.0817
  140MOL0     O19218   8.911   1.560   9.567 -0.4297  0.5097  0.1459
  140MOL0     C19219   8.837   1.568   9.691  0.6045 -0.2425  0.3504
  140MOL0     C19220   8.690   1.594   9.645  0.0160 -0.7012 -0.0340
  140MOL0     C19221   8.615   1.469   9.606  0.2005  0.0938  0.0862
  140MOL0     C19222   8.631   1.341   9.699 -1.0248 -0.7227 -0.5338
  140MOL0     C19223   8.555   1.373   9.827  0.5397  1.2366 -0.0768
  140MOL0     C19224   8.571   1.252   9.914  0.1562 -0.6549 -0.3821
  140MOL0     C19225   8.463   1.250  10.018 -0.0561  0.3743 -0.1703
  140MOL0     C19226   8.463   1.109  10.094 -0.7350  0.3027  0.4562
  140MOL0    Cl19227   8.351   1.112  10.249  0.1644  0.2206  0.2407
  140MOL0     C19228   9.098   1.617   9.446 -0.5163 -0.0555  0.6360
  140MOL0     C19229   9.237   1.605   9.425 -0.5603 -0.4903  0.1918
  140MOL0     O19230   9.515   1.594   9.306 -0.7171  0.1313 -0.6636
  140MOL0     C19231   9.736   1.660   9.567  0.6969  0.4483  0.1366
  140MOL0     C19232   9.863   1.691   9.600 -0.1763 -0.2558 -0.6851
  140MOL0     N19233  10.631   1.805   9.410 -0.3831  0.9713 -0.7649
  140MOL0     N19234  10.724   1.720   9.423 -1.0033  0.7776  0.4273
  140MOL0     C19235  11.450   1.610   8.954  0.7581 -0.5431 -0.6401
  140MOL0     C19236  11.394   1.524   8.852  0.2328  0.6915 -0.1117
  140MOL0     C19237  11.197   1.282   8.582  0.2705  0.0877  0.3912
  140MOL0     C19238  11.083   1.362   8.577  0.2310  0.8027 -0.8663
  140MOL0     C19239  10.969   1.317   8.509 -0.3190 -0.2133  0.5672
  140MOL0     C19240  10.971   1.187   8.449 -0.1639  0.1133 -0.6334
  140MOL0     O19241  10.853   1.148   8.388 -0.2944 -0.1659  0.3587
  140MOL0     C19242  10.872   1.088   8.255  0.2868  0.6710  0.1771
  140MOL0     C19243  10.774   0.964   8.234 -0.4201  0.0926  0.2382
  140MOL0     C19244  10.729   0.934   8.090  0.3166 -0.0581 -0.5485
  140MOL0     C19245  10.822   0.921   7.977  0.1808 -0.1103 -0.1094
  140MOL0     C19246  10.729   0.897   7.858  0.5274 -0.1674  0.2514
  140MOL0     C19247  10.661   0.867   7.768  0.1736 -0.3326  0.9895
  140MOL0     C19248  11.082   1.113   8.451 -0.0568 -0.4560  0.0205
  140MOL0     C19249  11.197   1.156   8.510 -0.3889 -0.7939  0.2500
  140MOL0     C19250  11.325   1.086   8.488 -0.4391  0.9591  0.0389
  140MOL0     H19251  11.425   1.234   9.042  0.1847  0.6175 -1.9019
  140MOL0     H19252  11.481   1.384   9.206 -1.6923 -0.3009 -0.0275
  140MOL0     H19253  11.359   1.774   9.117 -1.6407 -3.9050  1.2290
  140MOL0     H19254  11.525   1.836   9.127 -0.8900  1.5734  0.4330
  140MOL0     H19255  11.523   1.791   9.376 -0.4848  0.0964  1.6766
  140MOL0     H19256  11.425   1.935   9.326  0.5735 -0.1979  1.2481
  140MOL0     H19257  11.216   1.805   9.340 -0.4631  0.7663  2.9418
  140MOL0     H19258  11.320   1.664   9.376  1.4642  0.7132 -0.8598
  140MOL0     H19259  11.389   1.818   9.572 -0.3661  0.5144  1.9592
  140MOL0     H19260  11.254   1.922   9.522  0.4165 -0.1055 -0.2603
  140MOL0     H19261  11.220   1.795   9.713  1.5732 -3.1168  2.0111
  140MOL0     H19262  11.227   1.641   9.646 -0.0117 -0.6643  0.9765
  140MOL0     H19263  11.023   1.852   9.549 -0.0000  1.1609  1.9279
  140MOL0     H19264  11.036   1.692   9.482 -3.0561 -1.8125  1.9704
  140MOL0     H19265  10.924   1.748   9.760 -0.4938 -0.0942  0.5625
  140MOL0     H19266  11.006   1.603   9.736 -0.2357  1.4851  1.6172
  140MOL0     H19267  10.861   1.523   9.568  0.6951  0.7801  0.6824
  140MOL0     H19268  10.781   1.572   9.716 -1.3453 -0.4818 -0.4421
  140MOL0     H19269  10.643   1.791   9.732 -4.7229 -0.0831 -1.1137
  140MOL0     H19270  10.487   2.025   9.544  0.2831  0.6866  0.0201
  140MOL0     H19271  10.437   1.920   9.675 -0.2181 -0.0631  0.5381
  140MOL0     H19272  10.248   1.924   9.527  1.1339  1.2158  0.6619
  140MOL0     H19273  10.341   1.873   9.382 -2.9182  0.6666 -0.7710
  140MOL0     H19274  10.402   1.657   9.467  1.0869 -0.4018  3.1120
  140MOL0     H19275  10.338   1.687   9.627  1.1548 -4.1391 -0.1959
  140MOL0     H19276  10.192   1.648   9.364 -1.9572  2.2291 -0.3042
  140MOL0     H19277  10.175   1.546   9.515  0.3371  0.9442  1.8977
  140MOL0     H19278   9.994   1.609   9.303 -1.2668  1.6479 -1.7089
  140MOL0     H19279   9.863   1.507   9.162  0.3394  0.5468 -0.7042
  140MOL0     H19280   9.721   1.621   9.166  3.9861  1.3631  0.0599
  140MOL0     H19281   9.697   1.461   9.216 -2.1649  1.9651 -3.0665
  140MOL0     H19282   9.346   1.588   9.730  0.3912  1.7415 -0.6022
  140MOL0     H19283   9.094   1.560   9.779 -2.4212 -1.6417 -0.8872
  140MOL0     H19284   8.862   1.474   9.742  3.2393  0.4509  0.4745
  140MOL0     H19285   8.875   1.650   9.752  0.2894 -0.2510  0.5633
  140MOL0     H19286   8.645   1.640   9.734  1.5280  0.2453  0.2936
  140MOL0     H19287   8.680   1.668   9.564  1.5765 -0.7053 -0.2601
  140MOL0     H19288   8.644   1.438   9.505  1.8805 -4.5972  1.7415
  140MOL0     H19289   8.509   1.495   9.603 -0.7494 -3.0249  1.8483
  140MOL0     H19290   8.736   1.319   9.719 -0.4689 -0.7191 -3.1116
  140MOL0     H19291   8.589   1.254   9.649 -0.6116 -1.7891  0.9245
  140MOL0     H19292   8.602   1.449   9.890  1.3024 -0.5543  1.6581
  140MOL0     H19293   8.451   1.395   9.803  0.5023 -1.3954 -2.8150
  140MOL0     H19294   8.673   1.253   9.954 -0.3360 -0.6281  0.9439
  140MOL0     H19295   8.558   1.169   9.844  0.2530  0.5546 -1.8873
  140MOL0     H19296   8.373   1.264   9.957  0.3699  1.2936 -0.6122
  140MOL0     H19297   8.466   1.335  10.087 -0.3385  1.1884 -1.1260
  140MOL0     H19298   8.564   1.082  10.124 -0.4484  1.3329  0.4685
  140MOL0     H19299   8.414   1.028  10.039  1.7302 -1.1880  0.2858
  140MOL0     H19300   9.031   1.622   9.361  1.8310 -5.1592 -1.9737
  140MOL0     H19301   9.282   1.602   9.326  0.9370  1.5205  0.7371
  140MOL0     H19302   9.664   1.673   9.647 -0.1791 -5.4222  0.7494
  140MOL0     H19303   9.876   1.740   9.696  0.2973  0.0754 -0.9166
  140MOL0     H19304  11.459   1.715   8.927  0.3741 -0.4727 -0.4937
  140MOL0     H19305  11.362   1.563   8.756 -3.6758  4.0869  2.2563
  140MOL0     H19306  11.079   1.457   8.630  0.5220  2.1229 -3.0514
  140MOL0     H19307  10.876   1.372   8.519  0.7467  2.7015 -3.0004
  140MOL0     H19308  10.848   1.163   8.178 -0.4299  2.0538  1.6930
  140MOL0     H19309  10.974   1.053   8.235 -0.6821 -1.2758 -1.9089
  140MOL0     H19310  10.685   0.979   8.296 -2.6293  0.2660 -2.7681
  140MOL0     H19311  10.837   0.880   8.267  0.1551  0.6016  0.4713
  140MOL0     H19312  10.674   0.841   8.101  0.7680 -0.4537 -1.5190
  140MOL0     H19313  10.649   1.000   8.053  0.4471 -0.8842 -2.4482
  140MOL0     H19314  10.889   0.835   7.971 -0.9756 -1.0112 -0.4830
  140MOL0     H19315  10.876   1.015   7.977 -1.2158  0.8127  2.4451
  140MOL0     H19316  10.600   0.852   7.682 -2.1271  2.0619  2.0730
  140MOL0     H19317  11.071   1.011   8.413  4.9710 -0.6304 -1.6164
  140MOL0     H19318  11.374   1.058   8.583 -1.1241  3.0022  1.0482
  140MOL0     H19319  11.314   0.993   8.432 -4.7181  1.9545 -1.1211
  140MOL0     H19320  11.398   1.145   8.432 -1.0360  1.3688 -0.3116
  141MOL0     O19321   1.449   7.148   4.234  1.3848 -0.1301 -0.2486
  141MOL0     C19322   1.465   7.067   4.318 -0.5223  0.0458  0.6748
  141MOL0     O19323   1.478   6.936   4.281 -0.6322 -0.5158 -0.4472
  141MOL0     C19324   1.418   6.888   4.169 -0.5791 -0.7382 -0.3991
  141MOL0     C19325   1.322   6.787   4.192 -0.8510  0.3041  0.9909
  141MOL0     C19326   1.268   6.728   4.082  0.2770 -0.1734  0.0383
  141MOL0     C19327   1.297   6.765   3.949 -1.0364 -0.2024 -0.3981
  141MOL0     O19328   1.239   6.701   3.839  0.3445 -0.7850 -0.3815
  141MOL0     C19329   1.092   6.684   3.851 -0.7584  0.4310 -0.6412
  141MOL0     C19330   1.016   6.793   3.785 -0.1699  0.3408 -0.0197
  141MOL0     C19331   1.050   6.817   3.633  1.3727  0.2342  0.0704
  141MOL0     C19332   1.014   6.958   3.571 -0.7572  1.3537  0.5557
  141MOL0     C19333   0.868   6.998   3.582 -0.2284 -1.0507  0.3345
  141MOL0     C19334   0.783   6.907   3.496  1.2858 -1.2062  0.5964
  141MOL0     C19335   0.640   6.952   3.482  0.0904  0.1023 -0.7329
  141MOL0     C19336   0.572   6.843   3.397  0.4099 -0.5483  0.6575
  141MOL0     N19337   0.434   6.874   3.374  0.7933  0.8658  0.1541
  141MOL0     C19338   0.365   6.822   3.270 -0.2726 -0.2036 -0.1987
  141MOL0     C19339   0.253   6.885   3.255  0.4084  0.3400 -0.2691
  141MOL0     C19340   0.165   6.869   3.136 -0.2672  0.6432  0.0979
  141MOL0     C19341   0.180   7.000   3.048  0.4816  0.2703  0.1152
  141MOL0     C19342   0.169   6.959   2.907  0.0911 -0.2874  0.4953
  141MOL0     C19343   0.130   7.067   2.809  0.6057 -0.1459 -0.5583
  141MOL0     O19344   0.231   7.162   2.804  0.8569  0.3144  0.6756
  141MOL0     C19345   0.195   7.289   2.815 -0.1930 -1.0823 -1.3835
  141MOL0     C19346   0.254   7.380   2.725 -0.8771 -0.0179  0.8288
  141MOL0     C19347   0.232   7.518   2.723 -0.2655  0.2354 -0.0384
  141MOL0     C19348   0.299   7.609   2.621 -0.2927 -0.2862  0.6882
  141MOL0     C19349   0.143   7.562   2.828  0.7694 -0.2231 -0.3898
  141MOL0     C19350   0.099   7.704   2.836 -0.5577  0.4168 -0.0920
  141MOL0     O19351   0.046   7.751   2.949  0.6579 -0.7002  0.2565
  141MOL0     C19352  -0.029   7.871   2.958 -0.4362  0.6860  0.3109
  141MOL0     C19353  -0.013   7.933   3.087  0.6358  0.3353  0.0458
  141MOL0     C19354  -0.061   8.064   3.103 -0.6871 -0.2720 -0.6056
  141MOL0     C19355  -0.125   8.134   3.005  1.0186  0.6627  0.2708
  141MOL0     O19356  -0.155   8.264   3.037 -0.4643  0.1892 -0.2206
  141MOL0     C19357  -0.258   8.333   2.966  0.8629 -0.3537 -0.1048
  141MOL0     C19358  -0.193   8.402   2.840  0.2787  0.1236 -0.5966
  141MOL0     C19359  -0.300   8.448   2.740 -0.8505  0.3976 -0.4306
  141MOL0     C19360  -0.359   8.572   2.815  0.9072 -0.2727  0.1253
  141MOL0     C19361  -0.461   8.631   2.710  0.7095 -0.2900 -0.5043
  141MOL0     C19362  -0.496   8.776   2.769 -0.6406 -0.4795 -0.0739
  141MOL0     C19363  -0.590   8.871   2.683  0.7489  0.2777 -1.1550
  141MOL0     C19364  -0.721   8.811   2.635  0.4757 -0.3132 -0.0778
  141MOL0    Cl19365  -0.805   8.747   2.782  0.1110  0.7531  0.4321
  141MOL0     C19366  -0.155   8.064   2.881  0.4744  0.2383  0.3721
  141MOL0     C19367  -0.105   7.940   2.855  0.0096  0.1811  0.0875
  141MOL0     O19368   0.099   7.768   2.737 -0.1416  0.3843 -0.7075
  141MOL0     C19369   0.094   7.484   2.931  0.0763  0.9743  0.7415
  141MOL0     C19370   0.114   7.344   2.917  0.5673  0.0790 -0.3674
  141MOL0     N19371   0.239   6.973   3.366 -0.7723  0.9872 -0.3873
  141MOL0     N19372   0.352   6.976   3.431  0.5707  0.3612 -0.0520
  141MOL0     C19373   1.392   6.863   3.922 -0.7886 -0.0777 -0.2529
  141MOL0     C19374   1.454   6.923   4.036 -0.2145  0.0671 -0.1028
  141MOL0     C19375   1.479   7.114   4.461 -0.2852 -0.3900  0.3509
  141MOL0     C19376   1.542   7.024   4.553 -0.2710 -0.3556 -0.6485
  141MOL0     C19377   1.566   7.054   4.684  0.3564  0.5415 -0.4308
  141MOL0     C19378   1.510   7.174   4.729  0.2304  1.0199 -1.3617
  141MOL0     O19379   1.535   7.212   4.853  0.0892  0.3345 -0.5313
  141MOL0     C19380   1.424   7.206   4.951  0.0648 -0.3574  0.6975
  141MOL0     C19381   1.417   7.340   5.024 -0.5170 -0.3089  0.3991
  141MOL0     C19382   1.550   7.341   5.111 -0.8911 -0.3018  0.6422
  141MOL0     C19383   1.514   7.425   5.240  0.3942  0.5926 -0.3416
  141MOL0     C19384   1.629   7.461   5.321 -0.1574  0.8381  0.1692
  141MOL0     C19385   1.704   7.505   5.402  0.0152  1.0601 -0.7080
  141MOL0     C19386   1.437   7.254   4.652 -0.0603 -0.4549 -0.0125
  141MOL0     C19387   1.419   7.230   4.512 -0.4773 -0.2599  0.2902
  141MOL0     C19388   1.352   7.341   4.418  0.3522  0.0485 -0.4350
  141MOL0     H19389   1.294   6.744   4.288 -0.3715 -1.1472  0.5076
  141MOL0     H19390   1.186   6.657   4.091 -0.1491  0.2685 -0.2938
  141MOL0     H19391   1.054   6.679   3.953  1.1319 -2.3017  0.0415
  141MOL0     H19392   1.060   6.595   3.796 -1.1992 -0.6380  1.2849
  141MOL0     H19393   0.909   6.784   3.805 -0.2755  0.7110 -0.4115
  141MOL0     H19394   1.029   6.888   3.838  3.0853 -1.0448  2.0371
  141MOL0     H19395   1.158   6.810   3.615  1.4681  0.9819  0.3093
  141MOL0     H19396   1.002   6.734   3.582  0.2079 -0.9448  2.8718
  141MOL0     H19397   1.089   7.024   3.615 -0.8028  1.1335  0.9712
  141MOL0     H19398   1.030   6.955   3.463 -2.2956  1.2998  0.2991
  141MOL0     H19399   0.878   7.093   3.529  0.5197 -1.2887  0.0413
  141MOL0     H19400   0.832   7.016   3.684  1.0930 -1.0889  0.8251
  141MOL0     H19401   0.828   6.894   3.398  2.0018 -0.0343  0.7546
  141MOL0     H19402   0.770   6.809   3.543 -2.2928 -1.5345 -0.7209
  141MOL0     H19403   0.628   7.048   3.432 -0.4294 -0.0168 -0.8398
  141MOL0     H19404   0.599   6.955   3.584  2.6701  1.3951  0.3710
  141MOL0     H19405   0.631   6.832   3.305  0.9029  0.1145  0.8797
  141MOL0     H19406   0.581   6.743   3.439  3.3542 -1.5170 -1.8784
  141MOL0     H19407   0.406   6.751   3.200 -1.0223 -2.2795  1.3554
  141MOL0     H19408   0.067   6.866   3.184 -0.6917  0.5944 -0.7592
  141MOL0     H19409   0.187   6.778   3.079 -1.2803  0.4036  0.0821
  141MOL0     H19410   0.098   7.070   3.067 -3.0042 -2.5135 -3.1015
  141MOL0     H19411   0.274   7.048   3.078 -0.0233  1.0419  0.5033
  141MOL0     H19412   0.264   6.913   2.876 -0.6842 -1.8481  0.3532
  141MOL0     H19413   0.094   6.880   2.895 -0.7220  0.8508 -3.3237
  141MOL0     H19414   0.116   7.016   2.713  1.2117  0.0527 -0.7566
  141MOL0     H19415   0.035   7.119   2.825  1.5507  1.2455  0.7895
  141MOL0     H19416   0.324   7.344   2.650 -0.7859  1.3996  0.2076
  141MOL0     H19417   0.355   7.685   2.675 -0.8983 -0.3238  1.3888
  141MOL0     H19418   0.229   7.655   2.551  0.0137 -1.6694 -0.5840
  141MOL0     H19419   0.377   7.550   2.571  1.9347  2.4389  0.7259
  141MOL0     H19420   0.051   7.879   3.155  0.6158 -0.0236 -0.2144
  141MOL0     H19421  -0.035   8.108   3.199  4.6627 -1.1212 -1.3752
  141MOL0     H19422  -0.335   8.257   2.949  2.2292 -2.6100  2.8026
  141MOL0     H19423  -0.309   8.412   3.023 -0.9177 -2.1944  0.9952
  141MOL0     H19424  -0.142   8.496   2.865 -1.1005  1.4432 -2.5244
  141MOL0     H19425  -0.120   8.334   2.795 -1.8004 -2.2573 -0.5725
  141MOL0     H19426  -0.375   8.373   2.717 -0.2296 -0.6060  0.6939
  141MOL0     H19427  -0.247   8.481   2.650 -0.2794 -1.5705 -0.8661
  141MOL0     H19428  -0.283   8.646   2.842 -0.8400  1.2441  1.0875
  141MOL0     H19429  -0.414   8.549   2.906 -1.6058 -0.3242 -1.3106
  141MOL0     H19430  -0.415   8.638   2.611  2.0052  2.5617  0.1931
  141MOL0     H19431  -0.554   8.573   2.708  1.3596 -1.7757  3.4608
  141MOL0     H19432  -0.401   8.830   2.767  0.7301 -2.7644 -2.2505
  141MOL0     H19433  -0.536   8.774   2.871  0.5057  0.1092  0.4024
  141MOL0     H19434  -0.534   8.905   2.596  3.9139  3.1277  1.6695
  141MOL0     H19435  -0.609   8.961   2.744 -0.0177  0.3150 -1.4367
  141MOL0     H19436  -0.713   8.737   2.555 -2.0528  0.2908 -0.9998
  141MOL0     H19437  -0.783   8.892   2.595 -1.8123 -1.5506  0.7732
  141MOL0     H19438  -0.215   8.113   2.805 -1.4278  0.9999  2.2630
  141MOL0     H19439  -0.114   7.892   2.759  0.5231 -1.0960  0.6593
  141MOL0     H19440   0.021   7.513   3.006 -2.3631 -2.0246 -0.2665
  141MOL0     H19441   0.058   7.281   2.986  0.9342  1.3942  1.2022
  141MOL0     H19442   1.423   6.893   3.823  0.2865  2.1554  0.6828
  141MOL0     H19443   1.539   6.983   4.004  1.2896 -2.6146 -1.5109
  141MOL0     H19444   1.580   6.927   4.519  0.7355 -0.0073 -0.5630
  141MOL0     H19445   1.618   6.981   4.745  1.4021  1.8201  0.2699
  141MOL0     H19446   1.329   7.204   4.897 -1.2265  3.8694  2.4042
  141MOL0     H19447   1.439   7.123   5.020  2.3443  1.2200  2.2316
  141MOL0     H19448   1.320   7.343   5.074  0.0158 -2.6298  1.7375
  141MOL0     H19449   1.420   7.425   4.955  2.1253 -2.3096 -2.2606
  141MOL0     H19450   1.590   7.243   5.141 -0.6459 -0.1600  0.7760
  141MOL0     H19451   1.622   7.405   5.060 -0.7045 -0.5591  0.5826
  141MOL0     H19452   1.445   7.360   5.294 -1.7578 -0.6576 -4.1627
  141MOL0     H19453   1.452   7.510   5.211 -4.5931 -2.8939 -1.1899
  141MOL0     H19454   1.765   7.543   5.481  2.6837 -0.4375 -1.9116
  141MOL0     H19455   1.410   7.347   4.703  4.1606  0.5362  0.7696
  141MOL0     H19456   1.432   7.371   4.350 -0.2793  1.4407 -0.5998
  141MOL0     H19457   1.265   7.293   4.372 -0.7025  0.0567  1.4394
  141MOL0     H19458   1.322   7.431   4.473  0.7595  0.2192 -0.4886
  142MOL0     O19459  10.000  10.623   5.187  0.2799  0.4742  0.4765
  142MOL0     C19460  10.073  10.571   5.267 -1.1232 -0.4819 -0.2225
  142MOL0     O19461  10.179  10.487   5.231 -0.1479  0.3871 -0.2561
  142MOL0     C19462  10.244  10.485   5.109  1.1009 -0.7049  0.3888
  142MOL0     C19463  10.379  10.518   5.091 -0.1732  1.6607 -0.1971
  142MOL0     C19464  10.447  10.490   4.972  0.2093 -0.2493  0.8459
  142MOL0     C19465  10.372  10.455   4.859  0.2383  0.0230  0.3077
  142MOL0     O19466  10.436  10.425   4.741 -0.4092  0.0079  0.2216
  142MOL0     C19467  10.576  10.389   4.727 -0.8292  0.2779 -0.6066
  142MOL0     C19468  10.598  10.330   4.588  0.0153  0.0765 -0.5090
  142MOL0     C19469  10.751  10.310   4.585 -0.4596 -0.1584  0.1219
  142MOL0     C19470  10.805  10.270   4.446  0.2445 -0.2415 -0.1640
  142MOL0     C19471  10.951  10.249   4.438  0.6806  0.0507 -0.1812
  142MOL0     C19472  10.991  10.158   4.319  0.2229 -0.0286  0.2828
  142MOL0     C19473  11.007  10.239   4.183 -0.4551 -0.2529 -0.0334
  142MOL0     C19474  10.872  10.228   4.097 -0.2031  0.1285 -0.2643
  142MOL0     N19475  10.874  10.279   3.956 -0.1813  0.3525 -1.6001
  142MOL0     C19476  10.954  10.223   3.858 -0.1036  0.8204 -0.5340
  142MOL0     C19477  10.960  10.322   3.768  0.2274  1.2007 -0.1735
  142MOL0     C19478  11.046  10.336   3.647  0.2506 -0.1467 -0.1919
  142MOL0     C19479  11.187  10.377   3.667 -0.2175 -0.3259 -0.0402
  142MOL0     C19480  11.217  10.527   3.690 -0.2507  0.3727  0.1054
  142MOL0     C19481  11.154  10.617   3.568 -0.7405 -0.0612 -0.5469
  142MOL0     O19482  11.200  10.750   3.581 -0.6127 -0.8340 -0.7192
  142MOL0     C19483  11.329  10.792   3.546  0.1683 -0.4368 -0.6813
  142MOL0     C19484  11.421  10.709   3.477 -0.2789 -0.9198  0.8219
  142MOL0     C19485  11.551  10.753   3.434 -1.0658 -0.3988 -0.2315
  142MOL0     C19486  11.643  10.657   3.366  0.6284 -0.5570 -0.0098
  142MOL0     C19487  11.598  10.886   3.472  0.0054  0.0717 -0.8025
  142MOL0     C19488  11.732  10.949   3.428  0.3171 -0.2490  0.2410
  142MOL0     O19489  11.795  11.051   3.502 -0.0436 -0.4852 -1.0208
  142MOL0     C19490  11.918  11.103   3.472  0.3301  0.8350  0.6105
  142MOL0     C19491  11.944  11.208   3.382  0.1261  0.4842  0.4372
  142MOL0     C19492  12.075  11.245   3.346  0.7482 -0.4103  0.2908
  142MOL0     C19493  12.179  11.177   3.403 -1.6383 -0.3260 -0.6563
  142MOL0     O19494  12.321  11.209   3.371 -0.2351 -0.1286 -0.3671
  142MOL0     C19495  12.357  11.277   3.250  1.0075  0.4489 -0.0491
  142MOL0     C19496  12.389  11.185   3.136 -0.0760 -0.3748 -0.6938
  142MOL0     C19497  12.416  11.279   3.007  0.7350 -0.4625  1.0140
  142MOL0     C19498  12.484  11.206   2.896  0.9971  0.4827 -0.1858
  142MOL0     C19499  12.555  11.281   2.787  1.1261  0.8835  0.3916
  142MOL0     C19500  12.469  11.345   2.677 -0.5096  0.0558  0.1090
  142MOL0     C19501  12.431  11.247   2.566 -0.0489 -0.4614  0.6225
  142MOL0     C19502  12.344  11.315   2.464 -0.0793  0.9380  0.7941
  142MOL0    Cl19503  12.441  11.431   2.371 -0.1682  0.0514 -0.0971
  142MOL0     C19504  12.168  11.086   3.505  0.2034  0.8695 -0.5096
  142MOL0     C19505  12.033  11.056   3.543  0.1638 -0.2690 -0.6967
  142MOL0     O19506  11.762  10.915   3.313  0.0537 -0.9549  0.1470
  142MOL0     C19507  11.507  10.964   3.544  0.3915  0.7845 -0.1264
  142MOL0     C19508  11.378  10.926   3.574  0.4142 -0.8345  0.9379
  142MOL0     N19509  10.868  10.424   3.803 -0.5549 -0.4792  0.8420
  142MOL0     N19510  10.834  10.397   3.925  0.1148 -0.0049  0.1788
  142MOL0     C19511  10.240  10.442   4.871  1.4835 -0.1121  0.3080
  142MOL0     C19512  10.177  10.444   4.993  0.5138 -0.4158  0.7576
  142MOL0     C19513  10.045  10.600   5.413  0.6307 -0.7735  1.0265
  142MOL0     C19514  10.134  10.566   5.506  0.4701 -0.1613  0.4008
  142MOL0     C19515  10.115  10.585   5.641 -0.1190 -0.3164 -0.5928
  142MOL0     C19516  10.008  10.654   5.693  0.9172  0.4892 -0.5169
  142MOL0     O19517  10.007  10.671   5.831  0.4153 -0.3952 -0.1387
  142MOL0     C19518   9.912  10.763   5.898 -0.0419 -0.0685  0.0954
  142MOL0     C19519   9.904  10.716   6.048  1.0989  1.4951  0.0730
  142MOL0     C19520  10.051  10.713   6.111  0.5414 -0.8641 -0.3456
  142MOL0     C19521  10.046  10.719   6.271 -0.8457 -0.2182  0.1419
  142MOL0     C19522   9.937  10.674   6.353 -0.7055 -0.2184 -0.6982
  142MOL0     C19523   9.826  10.634   6.397  1.0303  1.0896  0.2529
  142MOL0     C19524   9.916  10.708   5.594 -0.4658  1.1275 -0.9881
  142MOL0     C19525   9.931  10.675   5.463  0.0195  0.1588  0.4651
  142MOL0     C19526   9.812  10.725   5.382  0.2156 -0.5833  0.1629
  142MOL0     H19527  10.438  10.534   5.180  1.1802 -2.8313 -0.0035
  142MOL0     H19528  10.554  10.507   4.979  0.8528 -3.5041  0.2113
  142MOL0     H19529  10.620  10.334   4.811  1.8464  4.1752  0.8123
  142MOL0     H19530  10.638  10.479   4.736  1.2168 -0.8384 -2.6012
  142MOL0     H19531  10.549  10.233   4.580 -1.7268  0.9359 -0.7586
  142MOL0     H19532  10.571  10.406   4.514  0.4577  0.7474  0.0092
  142MOL0     H19533  10.803  10.403   4.610 -1.2396  0.9616 -2.0871
  142MOL0     H19534  10.777  10.229   4.654 -1.1197 -0.6363 -0.1794
  142MOL0     H19535  10.740  10.188   4.413 -4.3650  2.1363  1.9905
  142MOL0     H19536  10.782  10.357   4.383 -0.7573  0.0120  0.5246
  142MOL0     H19537  10.979  10.192   4.527 -0.5889 -5.2761 -2.8112
  142MOL0     H19538  11.004  10.344   4.422  2.0598 -1.0351 -2.6889
  142MOL0     H19539  11.084  10.112   4.353  1.3449  2.2641  0.5102
  142MOL0     H19540  10.918  10.077   4.314 -0.3471  0.4802  0.2301
  142MOL0     H19541  11.098  10.202   4.135  0.0562 -0.5650  1.1300
  142MOL0     H19542  11.021  10.346   4.201 -0.3088 -0.1796 -0.5765
  142MOL0     H19543  10.845  10.122   4.089  2.6453 -0.5566 -2.4937
  142MOL0     H19544  10.798  10.294   4.142 -0.9321  0.0875 -1.3759
  142MOL0     H19545  10.984  10.119   3.854 -0.0866  0.8673 -3.0188
  142MOL0     H19546  11.002  10.399   3.569 -1.9236  0.9019  1.7534
  142MOL0     H19547  11.062  10.231   3.621  1.4396 -0.2005  0.6346
  142MOL0     H19548  11.234  10.342   3.760  0.6753  0.3766 -0.2086
  142MOL0     H19549  11.255  10.342   3.588  0.8494  4.7936 -1.7693
  142MOL0     H19550  11.188  10.563   3.788 -0.9175  0.9096 -0.2841
  142MOL0     H19551  11.324  10.551   3.686 -0.2664  1.0666  2.4141
  142MOL0     H19552  11.156  10.558   3.476 -0.4291  0.8320 -1.1264
  142MOL0     H19553  11.047  10.630   3.590 -0.9079 -2.6026  0.5175
  142MOL0     H19554  11.388  10.609   3.448 -1.8816 -0.0015 -0.7732
  142MOL0     H19555  11.606  10.639   3.265  0.4370 -2.9875  0.4095
  142MOL0     H19556  11.640  10.559   3.415  0.8636  0.2085  1.6028
  142MOL0     H19557  11.749  10.679   3.358  1.2197 -3.6496 -2.8058
  142MOL0     H19558  11.857  11.240   3.326 -0.2909  0.3099  0.9762
  142MOL0     H19559  12.091  11.319   3.269  1.0843  0.1452  0.8849
  142MOL0     H19560  12.294  11.360   3.217  0.0643 -0.5316 -0.7884
  142MOL0     H19561  12.449  11.330   3.277  2.6130 -1.7941 -0.7877
  142MOL0     H19562  12.474  11.122   3.162 -1.0963 -0.7015  2.2243
  142MOL0     H19563  12.310  11.111   3.124  1.7778 -3.4533  3.6600
  142MOL0     H19564  12.471  11.367   3.041 -0.2152  0.6815 -0.3118
  142MOL0     H19565  12.316  11.310   2.975 -0.0759  0.8241  4.3656
  142MOL0     H19566  12.417  11.128   2.858  0.5343  0.3674  0.8174
  142MOL0     H19567  12.549  11.150   2.963  1.1841  2.0503  1.0010
  142MOL0     H19568  12.607  11.366   2.832 -0.7907  2.6493 -0.5200
  142MOL0     H19569  12.634  11.221   2.741 -0.6044  0.2922 -1.9841
  142MOL0     H19570  12.523  11.424   2.624  0.2259 -2.8957 -4.0378
  142MOL0     H19571  12.382  11.399   2.714 -0.4990  0.8516 -0.9686
  142MOL0     H19572  12.375  11.167   2.615 -0.0294 -1.9636 -1.6542
  142MOL0     H19573  12.526  11.220   2.519 -1.5098  0.1774 -3.0168
  142MOL0     H19574  12.268  11.372   2.517 -1.3600  1.0295 -1.0498
  142MOL0     H19575  12.301  11.249   2.388  0.9681  1.6492 -0.4682
  142MOL0     H19576  12.252  11.040   3.555  0.1742  2.4565  1.1040
  142MOL0     H19577  12.013  10.978   3.616  1.0089  3.1260  3.5193
  142MOL0     H19578  11.540  11.063   3.576  2.6568  0.0059  0.1130
  142MOL0     H19579  11.304  10.998   3.608  1.4605  1.5843 -1.5080
  142MOL0     H19580  10.177  10.417   4.786  2.4953  1.9299 -1.1351
  142MOL0     H19581  10.069  10.430   4.989  0.7112 -2.0440 -2.8500
  142MOL0     H19582  10.222  10.521   5.461 -0.3554  1.5040 -3.2069
  142MOL0     H19583  10.196  10.550   5.706 -0.7218 -3.8275 -1.5090
  142MOL0     H19584   9.948  10.866   5.896  0.4738 -0.2405  0.4460
  142MOL0     H19585   9.812  10.767   5.854 -0.4026  0.4983  0.9300
  142MOL0     H19586   9.866  10.616   6.067 -0.4762  2.5111  2.9475
  142MOL0     H19587   9.844  10.779   6.114  0.1325  0.3010  0.3663
  142MOL0     H19588  10.087  10.611   6.090 -0.2309 -1.5381  1.4357
  142MOL0     H19589  10.119  10.788   6.072  0.1260 -0.7117 -0.7856
  142MOL0     H19590  10.060  10.826   6.285  0.4406  0.0291 -2.4090
  142MOL0     H19591  10.142  10.687   6.313  0.6135  3.7273  0.2251
  142MOL0     H19592   9.730  10.587   6.405  1.0777  0.7771 -0.8511
  142MOL0     H19593   9.829  10.764   5.628  0.2375  1.9877 -0.5426
  142MOL0     H19594   9.758  10.807   5.431  1.0125  0.6379 -0.9457
  142MOL0     H19595   9.850  10.756   5.285  1.3127  0.7313  0.9670
  142MOL0     H19596   9.742  10.645   5.359 -1.8299  1.5287 -1.4564
  143MOL0     O19597   3.466   6.382   8.282  0.0467 -0.2680  0.6366
  143MOL0     C19598   3.527   6.280   8.251  0.6816 -0.8714 -1.0723
  143MOL0     O19599   3.576   6.187   8.333 -0.3101 -0.7622 -0.8527
  143MOL0     C19600   3.597   6.220   8.468 -0.6799  0.0704  0.2342
  143MOL0     C19601   3.492   6.257   8.559 -0.2311 -0.1659 -0.3367
  143MOL0     C19602   3.511   6.260   8.701 -0.5000  0.4582 -0.1877
  143MOL0     C19603   3.634   6.221   8.756  0.0317 -0.2527 -0.0014
  143MOL0     O19604   3.663   6.221   8.888  0.4058 -0.7071  0.4934
  143MOL0     C19605   3.733   6.114   8.948 -0.0063 -0.2174 -0.6803
  143MOL0     C19606   3.636   6.035   9.033  0.2497  0.4756 -0.1546
  143MOL0     C19607   3.650   5.879   9.028 -0.1145 -0.0767  0.1831
  143MOL0     C19608   3.647   5.818   9.169  0.6605 -0.6137 -0.4407
  143MOL0     C19609   3.593   5.680   9.167  0.1753 -0.9954  0.5526
  143MOL0     C19610   3.605   5.617   9.312 -0.6113 -0.8124  0.1545
  143MOL0     C19611   3.751   5.618   9.362 -0.0514  1.8209 -0.2380
  143MOL0     C19612   3.818   5.491   9.444  0.6637 -1.2144 -0.0402
  143MOL0     N19613   3.788   5.370   9.372 -0.0350  0.8800 -1.6839
  143MOL0     C19614   3.856   5.304   9.271 -0.1961  0.3584 -1.2675
  143MOL0     C19615   3.797   5.178   9.268  0.9304 -1.3491 -0.1409
  143MOL0     C19616   3.838   5.068   9.181  0.1271  0.4143  0.9816
  143MOL0     C19617   3.732   4.956   9.185 -0.6623  0.9728  0.5322
  143MOL0     C19618   3.795   4.819   9.152 -0.7286 -0.6139  0.5429
  143MOL0     C19619   3.692   4.707   9.156  0.2784 -0.4501 -0.3290
  143MOL0     O19620   3.664   4.697   9.296  0.6220 -0.1481  0.4727
  143MOL0     C19621   3.710   4.587   9.365  0.0055  0.5700 -0.3920
  143MOL0     C19622   3.644   4.555   9.488 -0.9616 -0.1738  0.7715
  143MOL0     C19623   3.686   4.451   9.568 -0.5055  0.4874 -0.9322
  143MOL0     C19624   3.609   4.432   9.702  0.3054  0.1330  0.1297
  143MOL0     C19625   3.797   4.364   9.532  0.4785  0.3357 -0.5809
  143MOL0     C19626   3.850   4.255   9.613  1.0078 -0.1594  0.8973
  143MOL0     O19627   3.984   4.261   9.623 -0.1358 -0.5614  0.9211
  143MOL0     C19628   4.064   4.189   9.707  0.3191 -0.1476 -0.6321
  143MOL0     C19629   4.197   4.197   9.682 -0.0687 -0.3271  0.0375
  143MOL0     C19630   4.293   4.141   9.775 -0.7567  0.8330 -0.6916
  143MOL0     C19631   4.247   4.077   9.890  0.9567  0.3339 -1.1308
  143MOL0     O19632   4.346   4.030   9.977 -0.1634 -0.6046  0.8646
  143MOL0     C19633   4.310   4.036  10.118 -0.5811  0.5359  0.2403
  143MOL0     C19634   4.423   4.107  10.196 -0.0882  0.0945 -0.6011
  143MOL0     C19635   4.425   4.258  10.152 -0.4552  0.6098  0.2661
  143MOL0     C19636   4.487   4.348  10.259  0.2166  0.4694  0.2315
  143MOL0     C19637   4.530   4.477  10.192  0.4771  0.7369  0.0048
  143MOL0     C19638   4.559   4.595  10.292 -0.6829  1.0402  0.3568
  143MOL0     C19639   4.629   4.717  10.221 -0.1179 -0.7996  0.2318
  143MOL0     C19640   4.682   4.827  10.312  0.0282 -1.7505 -0.4366
  143MOL0    Cl19641   4.797   4.757  10.430 -0.2543 -0.3822 -0.1619
  143MOL0     C19642   4.112   4.063   9.912  0.3515 -0.5837 -0.4319
  143MOL0     C19643   4.020   4.123   9.818 -0.0933  0.1705 -0.3247
  143MOL0     O19644   3.774   4.163   9.650 -0.0358  0.9356  0.4462
  143MOL0     C19645   3.861   4.390   9.408 -0.1718 -1.2482 -0.3062
  143MOL0     C19646   3.814   4.497   9.334  1.1363 -0.8512  0.7181
  143MOL0     N19647   3.692   5.176   9.364 -0.5266 -0.5121 -0.4983
  143MOL0     N19648   3.693   5.284   9.421 -0.2079  0.3457 -0.7214
  143MOL0     C19649   3.741   6.196   8.665 -0.3040  0.3235 -0.0258
  143MOL0     C19650   3.722   6.197   8.527 -0.1186 -1.2394  0.1591
  143MOL0     C19651   3.558   6.268   8.107  0.3391  0.3375  0.1207
  143MOL0     C19652   3.655   6.169   8.075  0.1093 -0.6863  0.7146
  143MOL0     C19653   3.667   6.125   7.943  0.0084  1.0430 -0.5059
  143MOL0     C19654   3.591   6.183   7.832  0.0256  0.4298  0.7543
  143MOL0     O19655   3.611   6.145   7.702  0.3363  0.1346 -0.5915
  143MOL0     C19656   3.507   6.172   7.601  0.4130  0.1230 -1.4051
  143MOL0     C19657   3.484   6.045   7.519  0.7733 -0.2185  0.1555
  143MOL0     C19658   3.478   5.920   7.609  1.0092  0.6174  0.1144
  143MOL0     C19659   3.409   5.787   7.568 -0.0844 -0.0055  0.3898
  143MOL0     C19660   3.308   5.793   7.461 -0.8693  0.5827 -1.1898
  143MOL0     C19661   3.217   5.783   7.389 -0.9193  1.4427  0.5562
  143MOL0     C19662   3.502   6.280   7.871 -0.1292  0.3190  0.4840
  143MOL0     C19663   3.475   6.313   8.006 -0.4360 -0.6443  0.4138
  143MOL0     C19664   3.356   6.407   8.020 -0.3226  0.2346  0.2033
  143MOL0     H19665   3.396   6.282   8.517  0.2421  1.4526 -0.4951
  143MOL0     H19666   3.429   6.275   8.771  0.2230  1.0867  0.5539
  143MOL0     H19667   3.810   6.160   9.011 -0.0278 -0.9057 -0.1520
  143MOL0     H19668   3.776   6.050   8.871  0.2925  1.7031 -2.2098
  143MOL0     H19669   3.661   6.054   9.138 -0.2558 -1.8777  0.4503
  143MOL0     H19670   3.531   6.049   9.006  1.3063  2.0402 -4.0721
  143MOL0     H19671   3.570   5.836   8.966 -2.2447 -2.0139  3.9239
  143MOL0     H19672   3.744   5.855   8.978 -0.2602  0.0349 -0.1502
  143MOL0     H19673   3.750   5.831   9.204  0.7800 -1.6002 -0.4136
  143MOL0     H19674   3.583   5.879   9.234 -1.2521 -0.4601 -2.3646
  143MOL0     H19675   3.656   5.623   9.098  0.0644  1.7102 -2.0124
  143MOL0     H19676   3.485   5.689   9.149  0.3749  2.6765  0.3636
  143MOL0     H19677   3.537   5.675   9.375  0.0129  0.0718  0.0202
  143MOL0     H19678   3.563   5.516   9.303  0.2698 -1.0746 -1.3657
  143MOL0     H19679   3.777   5.702   9.427  2.1985  0.0264  1.3780
  143MOL0     H19680   3.808   5.620   9.269 -0.5411 -2.3769 -0.8592
  143MOL0     H19681   3.926   5.505   9.453  0.6972  0.1847 -1.9223
  143MOL0     H19682   3.771   5.478   9.542 -0.2749 -3.5469 -0.7172
  143MOL0     H19683   3.941   5.342   9.215  0.1663  1.0662 -0.2486
  143MOL0     H19684   3.935   5.030   9.214 -0.8352 -0.7496  2.6078
  143MOL0     H19685   3.854   5.096   9.076 -1.8928  0.8746  0.7523
  143MOL0     H19686   3.683   4.950   9.283 -1.6929 -0.1863 -0.0181
  143MOL0     H19687   3.658   4.973   9.107  0.9113 -0.6600 -1.4181
  143MOL0     H19688   3.844   4.820   9.054 -0.5205 -1.2481  0.6398
  143MOL0     H19689   3.867   4.788   9.228 -2.2459 -1.0703  1.8518
  143MOL0     H19690   3.591   4.732   9.125 -0.8078 -0.0922  3.0284
  143MOL0     H19691   3.734   4.614   9.117  1.0745 -0.7725  1.1880
  143MOL0     H19692   3.555   4.607   9.520 -0.7212 -1.6853  4.3799
  143MOL0     H19693   3.569   4.527   9.740 -1.0101  0.8905 -2.8109
  143MOL0     H19694   3.675   4.399   9.782  1.0954 -0.2893 -0.6786
  143MOL0     H19695   3.525   4.363   9.687  0.6300  0.0196 -1.3264
  143MOL0     H19696   4.220   4.254   9.592  0.9372 -2.5548 -1.1979
  143MOL0     H19697   4.397   4.141   9.743 -0.8004  1.8490 -0.8819
  143MOL0     H19698   4.215   4.088  10.138 -1.3526 -0.5825 -0.4109
  143MOL0     H19699   4.300   3.933  10.154  0.1889  0.8247  1.3243
  143MOL0     H19700   4.409   4.113  10.304  3.6065  3.5851 -0.0654
  143MOL0     H19701   4.519   4.056  10.184 -1.1114 -2.0033 -0.3217
  143MOL0     H19702   4.322   4.290  10.132 -1.6155 -2.2883  1.1237
  143MOL0     H19703   4.484   4.262  10.060  3.6609 -1.7011  2.5140
  143MOL0     H19704   4.576   4.301  10.301  0.4248 -0.4157 -1.1440
  143MOL0     H19705   4.411   4.362  10.336  0.9681  1.0353  0.8944
  143MOL0     H19706   4.622   4.468  10.134  0.8985  2.2718  0.3906
  143MOL0     H19707   4.451   4.511  10.124 -2.0572 -5.1266 -0.6074
  143MOL0     H19708   4.630   4.555  10.365 -0.9579  0.1913  0.1705
  143MOL0     H19709   4.472   4.619  10.353 -0.6340  0.7938  0.5227
  143MOL0     H19710   4.543   4.749  10.162 -0.3914 -2.0148 -0.0443
  143MOL0     H19711   4.710   4.684  10.155  1.7446  1.9949  0.9342
  143MOL0     H19712   4.609   4.890  10.364  1.4433  1.4215 -1.9896
  143MOL0     H19713   4.739   4.892  10.244  0.8628 -1.9246  0.0825
  143MOL0     H19714   4.072   3.994   9.985 -3.1971  1.4610 -0.2050
  143MOL0     H19715   3.914   4.101   9.822 -0.4525  0.4197 -4.5397
  143MOL0     H19716   3.931   4.329   9.353  2.8163  1.1996  0.4930
  143MOL0     H19717   3.852   4.505   9.233 -0.9402 -4.0750 -0.4660
  143MOL0     H19718   3.839   6.180   8.709  0.5386  2.1495 -1.1180
  143MOL0     H19719   3.812   6.175   8.469 -1.2733 -1.7668 -1.5092
  143MOL0     H19720   3.721   6.128   8.150  0.6826 -2.1212 -0.5271
  143MOL0     H19721   3.746   6.054   7.921 -0.4597  0.4530 -0.3211
  143MOL0     H19722   3.411   6.207   7.641  1.0176 -0.3437  0.5545
  143MOL0     H19723   3.535   6.252   7.531  1.8108 -1.6840 -3.0069
  143MOL0     H19724   3.580   6.038   7.467  0.9842 -1.9224  0.7007
  143MOL0     H19725   3.391   6.061   7.464  0.7994  1.4157  0.5524
  143MOL0     H19726   3.584   5.899   7.621  0.4230 -4.3502 -1.3324
  143MOL0     H19727   3.443   5.950   7.709  0.3839  1.1776 -0.2546
  143MOL0     H19728   3.372   5.735   7.657 -3.0831  0.5295 -0.4465
  143MOL0     H19729   3.483   5.711   7.541 -1.2519 -1.1392  0.2847
  143MOL0     H19730   3.144   5.757   7.315 -0.7605 -2.4067  1.5082
  143MOL0     H19731   3.434   6.328   7.802 -2.4622  0.1950  2.5356
  143MOL0     H19732   3.330   6.458   7.927  0.5388  1.0771  0.4205
  143MOL0     H19733   3.272   6.341   8.045  0.2748 -1.3908 -1.7647
  143MOL0     H19734   3.360   6.493   8.087 -2.6123  1.0978 -0.6404
  144MOL0     O19735   9.478   7.510   2.734  0.4642 -0.1774 -0.0095
  144MOL0     C19736   9.480   7.391   2.730 -0.1439 -0.5616  0.1747
  144MOL0     O19737   9.582   7.323   2.671  0.4476 -0.2591 -0.2513
  144MOL0     C19738   9.663   7.385   2.587  0.3353 -0.0319 -0.5348
  144MOL0     C19739   9.792   7.358   2.604 -0.8494 -0.8559  0.5727
  144MOL0     C19740   9.890   7.406   2.520  0.3825 -0.4975 -0.5000
  144MOL0     C19741   9.858   7.493   2.416  0.0939 -0.1235 -0.0212
  144MOL0     O19742   9.956   7.555   2.341 -0.5495 -0.3540 -0.7305
  144MOL0     C19743   9.990   7.474   2.227 -0.6921  0.8513  0.4726
  144MOL0     C19744   9.896   7.477   2.109  0.9276 -0.8997 -0.7409
  144MOL0     C19745   9.892   7.633   2.059  0.0126 -0.4418 -0.4168
  144MOL0     C19746   9.847   7.654   1.911 -0.4358 -0.2072 -0.7436
  144MOL0     C19747   9.806   7.793   1.892  0.3285 -0.5009  0.2053
  144MOL0     C19748   9.922   7.902   1.880 -0.1322 -0.1890 -0.5194
  144MOL0     C19749   9.886   8.047   1.868 -0.3551  0.3338 -0.0017
  144MOL0     C19750   9.994   8.141   1.843 -0.4755 -0.1732  0.6848
  144MOL0     N19751  10.040   8.133   1.699 -0.5630 -0.0013 -0.0290
  144MOL0     C19752   9.971   8.186   1.589 -0.3344 -1.2594  0.1755
  144MOL0     C19753  10.056   8.193   1.491 -0.2115 -0.1430  0.1285
  144MOL0     C19754  10.021   8.240   1.356 -0.3508 -0.1908  0.1354
  144MOL0     C19755  10.104   8.370   1.316  0.0409 -0.0930 -0.0906
  144MOL0     C19756  10.065   8.422   1.176 -0.1863 -0.1615  0.0921
  144MOL0     C19757   9.916   8.467   1.159  0.3091 -0.6688 -0.5886
  144MOL0     O19758   9.906   8.560   1.044  0.8408  0.5699  1.1269
  144MOL0     C19759   9.781   8.583   0.997 -0.7014  0.5084 -0.6267
  144MOL0     C19760   9.661   8.525   1.041  0.1637 -0.0218  0.5049
  144MOL0     C19761   9.543   8.556   0.964  0.0490 -1.0389 -0.0671
  144MOL0     C19762   9.418   8.490   1.014  0.3868  0.8396 -1.4205
  144MOL0     C19763   9.535   8.658   0.865 -0.4992  0.3008  0.8318
  144MOL0     C19764   9.413   8.702   0.789  0.9504  0.0697  0.0229
  144MOL0     O19765   9.344   8.599   0.748  0.0532 -0.6314  0.5770
  144MOL0     C19766   9.279   8.591   0.629 -0.6657 -0.3144  0.2860
  144MOL0     C19767   9.230   8.466   0.600  0.2565 -0.4127 -0.5248
  144MOL0     C19768   9.161   8.448   0.485 -0.0655 -0.8099  0.0942
  144MOL0     C19769   9.180   8.530   0.369  0.1550  0.2308  0.0147
  144MOL0     O19770   9.121   8.492   0.248  0.5612 -0.3285 -0.4627
  144MOL0     C19771   9.091   8.598   0.151 -0.2381 -0.9681 -0.1242
  144MOL0     C19772   9.068   8.538   0.014 -0.1519 -0.0917  0.2041
  144MOL0     C19773   8.924   8.495  -0.016  0.9981 -0.1133  0.7797
  144MOL0     C19774   8.882   8.376   0.068 -0.0928 -0.0457 -1.1322
  144MOL0     C19775   8.728   8.348   0.046 -0.4933 -0.3431 -0.6028
  144MOL0     C19776   8.677   8.227   0.126  0.0392  0.2368  0.2911
  144MOL0     C19777   8.525   8.240   0.125 -0.3448  0.1731 -0.0211
  144MOL0     C19778   8.450   8.110   0.160 -0.6153 -0.2906  0.4070
  144MOL0    Cl19779   8.502   8.072   0.335 -0.0120 -0.0590  0.3621
  144MOL0     C19780   9.242   8.652   0.394 -0.0448 -0.5414  1.3743
  144MOL0     C19781   9.286   8.691   0.519  1.5892  0.3423 -1.0909
  144MOL0     O19782   9.390   8.823   0.776 -0.2066  0.6125  0.0015
  144MOL0     C19783   9.663   8.717   0.838  1.0576  0.4399 -0.6162
  144MOL0     C19784   9.777   8.666   0.890  0.4780 -0.7655 -0.3335
  144MOL0     N19785  10.174   8.140   1.535  0.1606  0.3810  0.4754
  144MOL0     N19786  10.167   8.104   1.657  0.8194 -0.2898  0.4490
  144MOL0     C19787   9.717   7.519   2.394 -0.4274  0.2754  1.0640
  144MOL0     C19788   9.616   7.470   2.474 -0.0835  0.6608  0.4759
  144MOL0     C19789   9.371   7.319   2.798 -0.2080  0.3765  0.0913
  144MOL0     C19790   9.370   7.174   2.781 -0.4104  0.4925  1.2658
  144MOL0     C19791   9.268   7.097   2.841  0.9733 -0.2547 -0.5640
  144MOL0     C19792   9.162   7.158   2.915 -1.3207  0.0183  0.5719
  144MOL0     O19793   9.061   7.094   2.983 -0.9518  0.0949 -0.4071
  144MOL0     C19794   9.120   6.990   3.064 -0.2634  0.0118  0.1893
  144MOL0     C19795   9.005   6.957   3.158 -0.7356 -0.5959 -0.0745
  144MOL0     C19796   8.894   6.878   3.087  0.6412 -1.0033  0.5260
  144MOL0     C19797   8.783   6.831   3.181  0.1364 -0.0140 -0.2220
  144MOL0     C19798   8.844   6.744   3.292  1.0705 -0.5583  0.4846
  144MOL0     C19799   8.905   6.684   3.372  0.5772 -0.1055 -0.0634
  144MOL0     C19800   9.171   7.300   2.936 -0.3923  0.1131 -0.3006
  144MOL0     C19801   9.274   7.384   2.884 -0.0379  0.1993  0.4597
  144MOL0     C19802   9.270   7.528   2.917 -0.0549 -0.0653  0.1810
  144MOL0     H19803   9.822   7.284   2.678  0.2810  1.5971  2.7573
  144MOL0     H19804   9.997   7.390   2.534  0.0905 -1.7594  0.5033
  144MOL0     H19805  10.003   7.369   2.255 -0.5931 -0.0025 -2.5271
  144MOL0     H19806  10.090   7.507   2.199 -0.1703  0.0216  1.2774
  144MOL0     H19807   9.932   7.416   2.025 -1.4524 -0.8324 -1.8802
  144MOL0     H19808   9.801   7.426   2.128  1.0996 -1.2075 -0.7037
  144MOL0     H19809   9.823   7.688   2.123  0.4149 -0.1273 -0.2457
  144MOL0     H19810   9.986   7.686   2.077 -0.1284 -0.8013  1.6095
  144MOL0     H19811   9.928   7.639   1.839  1.0029  0.5478  0.6546
  144MOL0     H19812   9.770   7.582   1.881  1.0399 -0.5900 -4.0709
  144MOL0     H19813   9.739   7.828   1.971  2.4141 -1.2722  2.4127
  144MOL0     H19814   9.748   7.796   1.799 -0.4323  1.4409  0.6901
  144MOL0     H19815   9.997   7.894   1.960  0.8455  0.2788 -1.3762
  144MOL0     H19816   9.977   7.887   1.787 -1.0791  4.9835 -2.2412
  144MOL0     H19817   9.834   8.082   1.958  4.2188  0.3212  2.9590
  144MOL0     H19818   9.817   8.056   1.784 -1.6360 -0.6606  0.8986
  144MOL0     H19819   9.948   8.237   1.866 -1.4761 -0.2124 -0.9735
  144MOL0     H19820  10.076   8.121   1.912  1.1901  1.3356 -0.7497
  144MOL0     H19821   9.877   8.239   1.581 -0.5808 -1.8866 -1.4757
  144MOL0     H19822   9.913   8.258   1.356 -0.5435 -0.9292  2.4671
  144MOL0     H19823  10.042   8.160   1.285 -2.6309 -1.1125  0.4250
  144MOL0     H19824  10.110   8.453   1.386  4.2858 -2.5158  2.8734
  144MOL0     H19825  10.210   8.345   1.314  0.8817  2.9109  1.6426
  144MOL0     H19826  10.132   8.506   1.157  1.4413 -1.7329 -1.4809
  144MOL0     H19827  10.081   8.350   1.095 -0.2956  1.4876 -1.4842
  144MOL0     H19828   9.849   8.380   1.166  1.2598 -1.4028 -0.2613
  144MOL0     H19829   9.909   8.535   1.244  2.1992 -0.3505 -0.6648
  144MOL0     H19830   9.658   8.471   1.135  2.2464 -0.0342  0.6199
  144MOL0     H19831   9.362   8.440   0.934 -0.6343 -1.6483  0.6943
  144MOL0     H19832   9.348   8.558   1.063  0.1077 -1.8075  2.2870
  144MOL0     H19833   9.435   8.400   1.074 -0.4124  1.3674 -0.3829
  144MOL0     H19834   9.224   8.387   0.673  1.2270 -1.5197 -1.5964
  144MOL0     H19835   9.107   8.354   0.476 -2.0127  0.0739  1.7721
  144MOL0     H19836   8.999   8.654   0.170 -0.7593 -1.3888 -1.2889
  144MOL0     H19837   9.173   8.669   0.135 -1.3953  0.1070 -1.6494
  144MOL0     H19838   9.091   8.604  -0.070  1.9580 -0.6756  0.2726
  144MOL0     H19839   9.120   8.443  -0.001 -2.3002 -1.0776 -1.6798
  144MOL0     H19840   8.915   8.477  -0.123  2.4844 -0.0110  0.6133
  144MOL0     H19841   8.856   8.576   0.012  1.6385  0.6184  0.2426
  144MOL0     H19842   8.894   8.403   0.173  1.6807 -1.2492 -0.9920
  144MOL0     H19843   8.947   8.289   0.054  3.0157  2.1093 -1.0920
  144MOL0     H19844   8.671   8.439   0.064  1.5376  0.7657  0.6122
  144MOL0     H19845   8.718   8.311  -0.056 -1.2055 -1.1334 -0.2553
  144MOL0     H19846   8.705   8.225   0.232 -4.0187  0.7164  1.5432
  144MOL0     H19847   8.712   8.141   0.069 -0.4175  1.2917 -1.6696
  144MOL0     H19848   8.499   8.288   0.030  1.7350  0.5544 -0.4649
  144MOL0     H19849   8.484   8.312   0.197 -1.4721 -0.9844  0.5202
  144MOL0     H19850   8.476   8.031   0.089 -1.3165 -0.4933  0.3729
  144MOL0     H19851   8.345   8.139   0.153 -1.0284 -1.1408  2.4715
  144MOL0     H19852   9.253   8.729   0.318 -2.0474 -1.4425  0.0915
  144MOL0     H19853   9.327   8.791   0.524  1.5094  0.3157  0.8488
  144MOL0     H19854   9.679   8.792   0.761 -1.1807  0.6715 -0.9213
  144MOL0     H19855   9.863   8.713   0.843 -0.2406  0.0458 -0.8850
  144MOL0     H19856   9.697   7.584   2.309  1.6449 -2.8077 -2.0582
  144MOL0     H19857   9.516   7.494   2.440 -0.1241 -1.5241 -1.1035
  144MOL0     H19858   9.453   7.125   2.731 -0.4715 -4.8009  5.4984
  144MOL0     H19859   9.283   6.990   2.826  2.7196  0.2208 -2.9059
  144MOL0     H19860   9.156   6.901   3.011  0.1238 -1.2835  2.4856
  144MOL0     H19861   9.207   7.023   3.122 -0.0198  1.5075 -0.9550
  144MOL0     H19862   8.961   7.052   3.190 -0.8747  0.0915 -2.1856
  144MOL0     H19863   9.051   6.902   3.240 -1.1167  0.1101  0.6252
  144MOL0     H19864   8.843   6.948   3.019  0.2654  0.7282  2.5067
  144MOL0     H19865   8.927   6.791   3.030 -4.1341 -1.9111 -1.3499
  144MOL0     H19866   8.706   6.768   3.135  1.3013 -0.2756 -1.9340
  144MOL0     H19867   8.746   6.923   3.226  0.3661  0.7737 -1.5771
  144MOL0     H19868   8.965   6.624   3.439  1.3742  1.0570  0.3032
  144MOL0     H19869   9.098   7.344   3.002 -2.3693 -0.9476 -1.6735
  144MOL0     H19870   9.363   7.565   2.961  0.5185  1.4850 -2.1164
  144MOL0     H19871   9.267   7.586   2.824  2.4144  1.2124  0.7849
  144MOL0     H19872   9.192   7.569   2.981  2.4461  3.2996  1.3920
  145MOL0     O19873   0.182   2.849   2.848  0.7741 -0.3072  0.7161
  145MOL0     C19874   0.207   2.730   2.855 -0.4874  0.5257 -0.5316
  145MOL0     O19875   0.287   2.656   2.775 -0.1045 -0.4319 -0.6381
  145MOL0     C19876   0.372   2.715   2.688 -0.3309  0.0672 -1.0801
  145MOL0     C19877   0.326   2.814   2.600 -0.9484  0.4158 -0.5406
  145MOL0     C19878   0.420   2.880   2.509  0.4886  0.3397  0.7420
  145MOL0     C19879   0.556   2.847   2.521  0.2170 -0.3694  1.2120
  145MOL0     O19880   0.658   2.919   2.459 -0.3200  0.2643  0.2269
  145MOL0     C19881   0.645   3.057   2.440  0.2498  1.0569 -0.2308
  145MOL0     C19882   0.771   3.147   2.465  0.9965  0.1046 -0.3892
  145MOL0     C19883   0.893   3.083   2.399 -0.1295 -0.5308  0.1038
  145MOL0     C19884   1.009   3.141   2.472 -1.7333 -0.7641 -0.2369
  145MOL0     C19885   1.097   3.028   2.517  0.7107 -0.4001  0.0428
  145MOL0     C19886   1.216   3.076   2.603 -0.1803  0.6881  0.4219
  145MOL0     C19887   1.185   3.121   2.745  0.3692 -0.5187 -0.1603
  145MOL0     C19888   1.302   3.133   2.844  0.2107  0.1702 -1.0549
  145MOL0     N19889   1.333   3.272   2.895 -0.5939  0.0510 -0.2645
  145MOL0     C19890   1.456   3.311   2.919  0.4318  0.2467  0.7597
  145MOL0     C19891   1.444   3.431   2.994  0.1219  0.0695 -0.2560
  145MOL0     C19892   1.569   3.509   3.034  0.4357 -0.1372  0.3335
  145MOL0     C19893   1.603   3.617   2.934  0.3381 -0.8608 -0.6362
  145MOL0     C19894   1.502   3.731   2.911  0.0068  0.6539  0.0814
  145MOL0     C19895   1.509   3.843   3.029  0.0065  1.0679 -0.1833
  145MOL0     O19896   1.625   3.922   3.017 -0.7326  0.3729 -0.4298
  145MOL0     C19897   1.618   4.051   3.062  0.0777 -1.1611 -0.6056
  145MOL0     C19898   1.661   4.160   2.981  0.0177 -0.6012  0.4274
  145MOL0     C19899   1.646   4.294   3.017  0.3520  0.5067  0.7611
  145MOL0     C19900   1.684   4.396   2.914  0.4976 -0.0790  0.0767
  145MOL0     C19901   1.616   4.319   3.155 -0.6016  1.1016 -0.0306
  145MOL0     C19902   1.607   4.457   3.216 -0.9991  0.2188 -0.5200
  145MOL0     O19903   1.583   4.465   3.351  0.6590  0.4077 -1.0045
  145MOL0     C19904   1.632   4.573   3.432  0.5489 -0.3874  0.6684
  145MOL0     C19905   1.572   4.595   3.555  0.0003  0.3575 -0.4350
  145MOL0     C19906   1.617   4.697   3.641 -0.8727  0.4333  0.4429
  145MOL0     C19907   1.743   4.753   3.607  0.3465  0.0966 -0.6966
  145MOL0     O19908   1.814   4.826   3.701  0.4672  0.8652 -0.3189
  145MOL0     C19909   1.752   4.882   3.816 -0.6144  0.0782  0.6487
  145MOL0     C19910   1.838   4.997   3.869  0.4185  0.2224 -0.4802
  145MOL0     C19911   1.948   4.940   3.960  1.1359  0.5863  0.6012
  145MOL0     C19912   2.018   5.053   4.041 -0.4646 -0.3648  0.2054
  145MOL0     C19913   2.121   5.006   4.137  0.2130  0.2843 -1.3504
  145MOL0     C19914   2.086   4.871   4.209 -0.5280 -0.1295  0.1843
  145MOL0     C19915   2.168   4.824   4.330  0.0539  0.3346 -0.5035
  145MOL0     C19916   2.128   4.903   4.452  0.8849  0.1645  0.0210
  145MOL0    Cl19917   2.189   4.833   4.602 -0.1985 -0.0279 -0.2781
  145MOL0     C19918   1.798   4.733   3.483  0.1253 -0.8021  0.1943
  145MOL0     C19919   1.742   4.645   3.397  0.3639 -0.3452  0.2686
  145MOL0     O19920   1.613   4.557   3.143  0.1860  0.4323 -0.4759
  145MOL0     C19921   1.573   4.206   3.241 -0.4979  0.0646 -0.4394
  145MOL0     C19922   1.576   4.078   3.196  0.1582 -0.1864  0.0035
  145MOL0     N19923   1.310   3.452   3.027 -0.1767  0.0233 -0.2340
  145MOL0     N19924   1.246   3.353   2.965 -0.0521 -0.2907 -0.6561
  145MOL0     C19925   0.598   2.738   2.593 -0.4488 -0.3273  0.5507
  145MOL0     C19926   0.515   2.674   2.678  1.0121  0.5097 -0.4731
  145MOL0     C19927   0.147   2.647   2.971  0.1507  0.7399  0.0660
  145MOL0     C19928   0.197   2.513   2.981  0.5533  1.0047 -0.2510
  145MOL0     C19929   0.151   2.418   3.079 -0.3715 -0.6583  1.1863
  145MOL0     C19930   0.056   2.446   3.174 -0.0778  0.1180  0.0350
  145MOL0     O19931  -0.003   2.356   3.271 -0.4772 -0.2842 -0.0991
  145MOL0     C19932   0.063   2.227   3.287 -0.7327 -0.3514  0.0125
  145MOL0     C19933   0.028   2.162   3.418 -0.0647  1.0809  0.4289
  145MOL0     C19934   0.123   2.046   3.425  0.5467  0.8401 -0.2850
  145MOL0     C19935   0.116   1.977   3.567 -1.0995 -0.5910 -0.7373
  145MOL0     C19936   0.229   1.883   3.567  0.1630  0.4044  0.4166
  145MOL0     C19937   0.326   1.810   3.557  0.7370 -0.0380  0.1137
  145MOL0     C19938   0.013   2.579   3.170 -0.4738 -0.2398 -0.0085
  145MOL0     C19939   0.052   2.675   3.070 -0.1079  0.1816 -0.1876
  145MOL0     C19940  -0.034   2.808   3.060  0.4731  1.1863 -0.0280
  145MOL0     H19941   0.222   2.845   2.590 -0.4594  1.7708 -1.6042
  145MOL0     H19942   0.380   2.962   2.450 -3.8145 -1.5384  0.7126
  145MOL0     H19943   0.556   3.091   2.493  2.4899  1.4244  3.6619
  145MOL0     H19944   0.626   3.065   2.332 -0.4274  0.4515 -0.1679
  145MOL0     H19945   0.749   3.244   2.418 -0.7171  0.0538  0.2576
  145MOL0     H19946   0.795   3.150   2.572  3.2496 -1.7150 -0.7590
  145MOL0     H19947   0.880   2.975   2.411 -2.5431 -0.1076  2.1192
  145MOL0     H19948   0.905   3.119   2.297  1.9083  0.1715  0.5312
  145MOL0     H19949   1.065   3.209   2.408 -3.6384  0.4330 -0.7196
  145MOL0     H19950   0.985   3.205   2.558 -1.5469 -1.5026  0.3838
  145MOL0     H19951   1.125   2.974   2.426 -2.4077 -1.9374 -0.1568
  145MOL0     H19952   1.040   2.955   2.576 -1.3498  0.1610 -1.1492
  145MOL0     H19953   1.295   3.000   2.599 -1.4214 -0.7400  1.7420
  145MOL0     H19954   1.273   3.155   2.551  0.5194  0.2546  0.5150
  145MOL0     H19955   1.119   3.040   2.777  0.8049 -0.7862  0.0702
  145MOL0     H19956   1.134   3.218   2.743  1.8160  0.2739 -1.8528
  145MOL0     H19957   1.293   3.071   2.933  0.9392  3.2792  1.3707
  145MOL0     H19958   1.394   3.100   2.794  0.0457  0.5265 -1.6099
  145MOL0     H19959   1.548   3.258   2.897  0.3841  0.5825 -0.3211
  145MOL0     H19960   1.647   3.432   3.033  0.6659  0.0191 -2.3297
  145MOL0     H19961   1.556   3.556   3.132 -2.6789 -0.4347  0.1462
  145MOL0     H19962   1.701   3.658   2.961  0.6466 -0.3601 -2.4089
  145MOL0     H19963   1.628   3.573   2.837  1.0015 -0.9549 -0.4295
  145MOL0     H19964   1.536   3.774   2.817 -0.8447  2.0031  0.3517
  145MOL0     H19965   1.400   3.692   2.916  1.3093 -3.0481  1.2023
  145MOL0     H19966   1.430   3.916   3.010  0.8045  2.9313  3.0215
  145MOL0     H19967   1.490   3.797   3.127  0.1928  0.1664 -0.5570
  145MOL0     H19968   1.688   4.127   2.881 -0.3188  0.7354 -0.1294
  145MOL0     H19969   1.690   4.354   2.813  1.4141 -3.2799  1.3199
  145MOL0     H19970   1.784   4.437   2.933  1.0995 -0.3414 -2.1737
  145MOL0     H19971   1.608   4.474   2.921  0.4148 -0.2512  1.1759
  145MOL0     H19972   1.495   4.525   3.586  1.4284 -0.9683  0.2067
  145MOL0     H19973   1.570   4.699   3.739  1.6560 -0.2981  1.7552
  145MOL0     H19974   1.658   4.932   3.789 -0.1096  0.2637 -0.8298
  145MOL0     H19975   1.733   4.817   3.903  1.6516  0.5035  1.5290
  145MOL0     H19976   1.888   5.059   3.794  1.4820  0.9500  0.7882
  145MOL0     H19977   1.782   5.070   3.928 -2.2760  0.9011 -3.5975
  145MOL0     H19978   2.020   4.891   3.893  0.4071  1.7418 -1.0945
  145MOL0     H19979   1.898   4.870   4.028  0.8303 -0.0024 -0.2033
  145MOL0     H19980   1.945   5.097   4.110 -2.9237 -2.8770 -0.6138
  145MOL0     H19981   2.072   5.124   3.977  3.1920 -2.4178  0.7529
  145MOL0     H19982   2.217   4.983   4.089 -0.0399 -3.2736 -0.4627
  145MOL0     H19983   2.157   5.081   4.208  1.6560  1.5756 -3.3316
  145MOL0     H19984   2.103   4.788   4.141 -0.9219 -1.1229  1.2653
  145MOL0     H19985   1.982   4.867   4.243 -0.7479 -2.5474 -0.6445
  145MOL0     H19986   2.275   4.824   4.305  0.0445 -2.0167 -0.7911
  145MOL0     H19987   2.136   4.723   4.357  1.1822 -1.1074 -3.9724
  145MOL0     H19988   2.020   4.911   4.467  0.6186 -2.2549 -0.2939
  145MOL0     H19989   2.158   5.007   4.433 -1.3298  0.4222 -2.7376
  145MOL0     H19990   1.883   4.795   3.457  0.0957 -0.4048  1.0342
  145MOL0     H19991   1.770   4.636   3.293 -3.2119  0.4035 -0.8697
  145MOL0     H19992   1.528   4.236   3.335  0.2657  0.5648 -0.2272
  145MOL0     H19993   1.546   3.987   3.248 -1.6029 -0.7471 -1.8392
  145MOL0     H19994   0.697   2.695   2.578 -0.6163 -0.3177 -0.6805
  145MOL0     H19995   0.546   2.596   2.747 -0.4752 -0.5276 -0.9269
  145MOL0     H19996   0.280   2.478   2.921  0.6038  2.2896 -0.9581
  145MOL0     H19997   0.203   2.323   3.085 -0.0169 -0.5989 -0.4547
  145MOL0     H19998   0.048   2.163   3.200  0.5646 -0.9021  0.1722
  145MOL0     H19999   0.170   2.245   3.304 -0.4416 -2.8319  1.2528
  145MOL0     H20000  -0.075   2.127   3.417  0.3484 -0.8012 -4.3615
  145MOL0     H20001   0.059   2.229   3.499 -0.9348  0.4672  1.2975
  145MOL0     H20002   0.093   1.979   3.343 -2.6083  0.6865  0.8604
  145MOL0     H20003   0.226   2.081   3.415  1.3179 -1.0830  0.4003
  145MOL0     H20004   0.022   1.922   3.568 -0.3659 -1.9400 -1.5667
  145MOL0     H20005   0.121   2.044   3.653  2.5132 -1.3868 -0.1745
  145MOL0     H20006   0.412   1.751   3.534 -0.9265 -2.7965  0.4845
  145MOL0     H20007  -0.045   2.605   3.258  3.3509  0.5802  2.5272
  145MOL0     H20008  -0.127   2.796   3.116  0.0300  1.0344 -0.7850
  145MOL0     H20009   0.028   2.894   3.089  1.1591  0.4445  0.7398
  145MOL0     H20010  -0.066   2.832   2.958  1.2002 -0.3756 -0.6467
  146MOL0     O20011   1.610   5.764   6.054 -0.4423 -0.0372  0.4451
  146MOL0     C20012   1.628   5.720   5.943  0.2145  0.2438  0.8061
  146MOL0     O20013   1.572   5.615   5.890 -0.0635 -0.1314 -0.5235
  146MOL0     C20014   1.473   5.532   5.947  0.5655  0.8037  0.2329
  146MOL0     C20015   1.404   5.554   6.071 -0.2442 -0.3908 -1.1014
  146MOL0     C20016   1.334   5.465   6.135 -0.5041  0.4585 -0.6121
  146MOL0     C20017   1.304   5.345   6.069 -0.3131 -0.7057 -0.1369
  146MOL0     O20018   1.226   5.248   6.122 -0.3222 -0.6315 -0.1697
  146MOL0     C20019   1.098   5.288   6.176  0.1127  0.1724 -0.4477
  146MOL0     C20020   1.001   5.177   6.150  0.9157  0.2487  0.2267
  146MOL0     C20021   0.861   5.204   6.220  0.3186  0.2225 -0.0708
  146MOL0     C20022   0.773   5.280   6.125 -1.2315 -0.5521 -0.2374
  146MOL0     C20023   0.631   5.312   6.174 -0.6377 -0.6189  0.3982
  146MOL0     C20024   0.608   5.440   6.254  0.4069  0.3936 -0.0422
  146MOL0     C20025   0.659   5.561   6.188 -0.2563 -0.6444  1.0004
  146MOL0     C20026   0.594   5.600   6.048 -0.3686 -0.7885  0.0517
  146MOL0     N20027   0.645   5.719   5.981  0.1778  0.3741  0.3256
  146MOL0     C20028   0.601   5.777   5.863  0.2669 -0.3182 -1.1350
  146MOL0     C20029   0.697   5.871   5.837 -0.6360 -0.8856 -0.0339
  146MOL0     C20030   0.712   5.962   5.709 -0.1207 -0.5932 -0.2284
  146MOL0     C20031   0.854   5.946   5.662 -0.2194  0.9729  1.1172
  146MOL0     C20032   0.948   6.059   5.710 -0.5092 -0.7969  0.0224
  146MOL0     C20033   1.074   6.064   5.634 -0.5992  0.5732 -0.3780
  146MOL0     O20034   1.134   5.937   5.597 -0.0568  0.0806  0.4803
  146MOL0     C20035   1.138   5.900   5.466  0.3664 -0.5286 -1.0423
  146MOL0     C20036   1.103   5.768   5.440 -0.9821  0.7883  0.2858
  146MOL0     C20037   1.107   5.705   5.313 -0.0685  0.1349 -0.8598
  146MOL0     C20038   1.078   5.555   5.300 -0.5851  0.4301 -0.3152
  146MOL0     C20039   1.140   5.789   5.202  0.6212 -0.2818 -0.3097
  146MOL0     C20040   1.138   5.741   5.063  0.2500  0.1945  0.2991
  146MOL0     O20041   1.064   5.641   5.026 -0.0887  1.0829 -0.3932
  146MOL0     C20042   1.074   5.595   4.896  1.4089 -0.0562 -0.7406
  146MOL0     C20043   0.959   5.583   4.826 -0.2700 -0.0283 -0.8616
  146MOL0     C20044   0.971   5.558   4.690 -0.2393 -0.1997 -0.4895
  146MOL0     C20045   1.092   5.531   4.629 -1.3192 -0.4992  0.1139
  146MOL0     O20046   1.113   5.504   4.498  0.2908  0.4833  0.0219
  146MOL0     C20047   0.997   5.523   4.414 -0.6117  0.7736  0.4961
  146MOL0     C20048   1.024   5.438   4.292 -1.1041 -0.2203 -0.3595
  146MOL0     C20049   1.142   5.507   4.202  0.5605 -0.2108  0.0149
  146MOL0     C20050   1.271   5.435   4.203  0.6736  0.2755  0.1944
  146MOL0     C20051   1.379   5.528   4.151  0.2667  0.5852  0.8628
  146MOL0     C20052   1.522   5.463   4.124 -0.1336 -0.2095 -0.7421
  146MOL0     C20053   1.636   5.568   4.095  0.0603  0.0031 -0.3490
  146MOL0     C20054   1.746   5.509   4.012  0.8919 -0.9693 -1.4366
  146MOL0    Cl20055   1.875   5.622   3.963  0.1954 -0.0415 -0.3623
  146MOL0     C20056   1.209   5.531   4.704  0.8132  0.5781 -0.9413
  146MOL0     C20057   1.195   5.569   4.840 -0.4450  0.2806 -0.6684
  146MOL0     O20058   1.202   5.808   4.989 -0.0378 -0.0131  0.1505
  146MOL0     C20059   1.180   5.928   5.229  0.6102 -0.6083  0.3444
  146MOL0     C20060   1.185   5.982   5.364  0.0868 -0.0824  0.1250
  146MOL0     N20061   0.790   5.875   5.940  0.0340  0.3751  0.0713
  146MOL0     N20062   0.758   5.786   6.020  0.0735  0.6490  0.4020
  146MOL0     C20063   1.355   5.326   5.938  0.4203 -1.0888  0.0007
  146MOL0     C20064   1.441   5.417   5.883 -0.7079 -0.5021 -0.3542
  146MOL0     C20065   1.725   5.795   5.864 -0.2384 -0.4533 -0.8461
  146MOL0     C20066   1.764   5.928   5.898  0.0010  0.0967  0.4719
  146MOL0     C20067   1.852   5.999   5.827 -0.3980 -0.5891  0.4796
  146MOL0     C20068   1.904   5.957   5.705  0.9191 -0.8561 -0.0426
  146MOL0     O20069   2.004   6.033   5.647 -0.5652 -0.2925  0.1452
  146MOL0     C20070   1.968   6.092   5.522  0.5416 -1.1208 -0.4284
  146MOL0     C20071   2.046   6.027   5.416  0.1251  0.7410  0.0429
  146MOL0     C20072   1.958   5.946   5.307 -0.3909  0.0071 -0.2006
  146MOL0     C20073   2.069   5.899   5.211  0.2343 -0.3136 -0.9815
  146MOL0     C20074   2.156   5.796   5.270  0.3039 -0.9269 -0.4558
  146MOL0     C20075   2.203   5.707   5.336  0.1683  0.2537 -0.6810
  146MOL0     C20076   1.856   5.836   5.657 -0.3246 -0.7813 -0.7549
  146MOL0     C20077   1.778   5.752   5.739 -0.6422  0.2625  0.5718
  146MOL0     C20078   1.772   5.617   5.678  0.3091 -0.1353 -0.7379
  146MOL0     H20079   1.404   5.650   6.121 -3.3150 -1.3454  0.9736
  146MOL0     H20080   1.302   5.475   6.239 -2.6919  1.4452 -1.3418
  146MOL0     H20081   1.060   5.381   6.134  0.0616  0.3295 -0.0474
  146MOL0     H20082   1.116   5.312   6.281 -3.5564 -0.0255  0.3538
  146MOL0     H20083   0.996   5.149   6.044 -0.4807 -1.5440  0.7153
  146MOL0     H20084   1.046   5.088   6.196 -1.4142 -0.8565  0.5181
  146MOL0     H20085   0.819   5.106   6.244 -0.8137  0.0066 -2.6007
  146MOL0     H20086   0.884   5.246   6.318 -1.1966 -2.9523  1.7735
  146MOL0     H20087   0.830   5.373   6.109  1.2997 -0.8766  4.8625
  146MOL0     H20088   0.763   5.227   6.030  2.2742  0.7382 -1.4804
  146MOL0     H20089   0.592   5.232   6.238 -2.3528  0.0488  0.2494
  146MOL0     H20090   0.569   5.307   6.084  2.6269 -0.3461 -2.0764
  146MOL0     H20091   0.501   5.456   6.270  0.2072 -0.0637 -0.8997
  146MOL0     H20092   0.650   5.428   6.355 -3.9114  1.8048  2.1760
  146MOL0     H20093   0.763   5.541   6.161 -0.5075  1.2886 -1.9125
  146MOL0     H20094   0.665   5.650   6.252 -2.9042  1.8332 -1.8261
  146MOL0     H20095   0.611   5.520   5.975 -2.3216 -1.9530  0.7886
  146MOL0     H20096   0.485   5.610   6.055 -0.5207  0.6503 -2.8762
  146MOL0     H20097   0.508   5.770   5.807  0.7372 -0.2065 -1.9510
  146MOL0     H20098   0.680   6.064   5.733  2.9220  0.7941 -1.5771
  146MOL0     H20099   0.649   5.923   5.628  0.2467  0.2178 -0.9192
  146MOL0     H20100   0.889   5.849   5.698 -1.0374  0.6867  1.1656
  146MOL0     H20101   0.867   5.941   5.554  0.7237 -2.8815  1.2697
  146MOL0     H20102   0.901   6.156   5.693 -0.6363 -1.1483 -1.8347
  146MOL0     H20103   0.974   6.053   5.816  6.2963 -1.2283 -1.2340
  146MOL0     H20104   1.043   6.135   5.557 -1.5368  0.6511  0.0599
  146MOL0     H20105   1.149   6.118   5.691  0.6312  0.1385 -1.5285
  146MOL0     H20106   1.080   5.709   5.528 -0.0822 -1.8349 -1.1137
  146MOL0     H20107   1.078   5.511   5.401  0.4321  2.8907  0.8502
  146MOL0     H20108   1.153   5.510   5.234  3.8443  2.4045  2.8921
  146MOL0     H20109   0.980   5.542   5.254 -0.2374  1.8254 -1.5216
  146MOL0     H20110   0.868   5.614   4.878  0.0604  2.4515 -1.6103
  146MOL0     H20111   0.879   5.565   4.633 -0.2519 -0.6614 -0.5275
  146MOL0     H20112   0.910   5.476   4.461  0.1806 -0.4543  0.7815
  146MOL0     H20113   0.985   5.630   4.392  1.1914  1.2210  1.5214
  146MOL0     H20114   1.051   5.336   4.321 -0.3701 -0.1209 -0.6593
  146MOL0     H20115   0.930   5.422   4.238 -2.9744 -0.5981  2.7708
  146MOL0     H20116   1.163   5.606   4.244 -0.5997  0.4314 -0.8838
  146MOL0     H20117   1.097   5.517   4.103 -0.5559  0.7714  0.5978
  146MOL0     H20118   1.264   5.341   4.147 -0.4702  1.5754 -1.9830
  146MOL0     H20119   1.296   5.412   4.307 -4.0272 -1.4597  1.1940
  146MOL0     H20120   1.346   5.578   4.059  0.7420 -1.1094 -0.2820
  146MOL0     H20121   1.401   5.607   4.223 -3.8297 -0.6685  3.9476
  146MOL0     H20122   1.516   5.387   4.046 -1.3258 -0.6619 -0.2368
  146MOL0     H20123   1.543   5.409   4.217 -3.2722 -0.8444 -0.2926
  146MOL0     H20124   1.670   5.605   4.193  0.3296  1.1969 -0.8839
  146MOL0     H20125   1.592   5.648   4.036 -1.3170  1.6853  2.6845
  146MOL0     H20126   1.703   5.488   3.913 -1.6341  1.9440 -1.0981
  146MOL0     H20127   1.803   5.433   4.066  0.3113  0.2233  1.0035
  146MOL0     H20128   1.301   5.510   4.650  0.9781  0.8528 -0.7647
  146MOL0     H20129   1.284   5.579   4.901 -0.4732  1.9486 -0.8555
  146MOL0     H20130   1.215   5.998   5.154  1.0351  1.3912  2.3152
  146MOL0     H20131   1.215   6.085   5.379  0.9314 -0.5366  1.7471
  146MOL0     H20132   1.329   5.237   5.882 -2.2602 -0.2154 -0.3005
  146MOL0     H20133   1.485   5.398   5.785  1.7172 -1.2888  0.8200
  146MOL0     H20134   1.731   5.963   5.996  2.5754  1.0703  1.0547
  146MOL0     H20135   1.899   6.087   5.870  1.6915 -1.6669  0.5448
  146MOL0     H20136   1.860   6.088   5.507 -0.0481 -1.7206  3.1188
  146MOL0     H20137   2.003   6.196   5.520  0.2969 -1.0451 -0.8391
  146MOL0     H20138   2.101   5.950   5.471 -0.0512  2.4387  2.7588
  146MOL0     H20139   2.114   6.102   5.375  1.1580  0.2088  0.7235
  146MOL0     H20140   1.888   5.871   5.345 -2.7161  2.5762  0.9873
  146MOL0     H20141   1.903   6.020   5.249 -0.3599 -1.9200 -2.8272
  146MOL0     H20142   2.114   5.991   5.174 -2.0980  1.0361 -0.6827
  146MOL0     H20143   2.014   5.868   5.122  0.7443  0.1562 -1.4676
  146MOL0     H20144   2.242   5.632   5.401 -1.6256  0.7642  1.0855
  146MOL0     H20145   1.891   5.808   5.558  1.4163 -3.5342  0.4904
  146MOL0     H20146   1.688   5.620   5.608  1.3185  1.6172 -1.9580
  146MOL0     H20147   1.870   5.600   5.631  1.0981 -2.7802  1.5995
  146MOL0     H20148   1.761   5.539   5.754  2.8703  0.2113  0.1100
  147MOL0     O20149  10.245   5.728   7.910 -0.1644  0.1182 -0.0453
  147MOL0     C20150  10.366   5.725   7.930 -0.2450 -0.5755  0.5454
  147MOL0     O20151  10.467   5.666   7.852  0.1607 -0.3068  0.7055
  147MOL0     C20152  10.440   5.547   7.791  0.8505 -0.4889 -0.4495
  147MOL0     C20153  10.479   5.534   7.656 -0.0357 -0.3088  0.3110
  147MOL0     C20154  10.473   5.408   7.585 -0.6772 -0.3839  0.8310
  147MOL0     C20155  10.439   5.297   7.663 -0.8870 -0.4220  0.2158
  147MOL0     O20156  10.456   5.168   7.607  0.9453 -1.1435 -0.4417
  147MOL0     C20157  10.477   5.140   7.469 -0.0328 -0.5826  0.0436
  147MOL0     C20158  10.511   4.994   7.445  0.0896  0.1110  0.2580
  147MOL0     C20159  10.419   4.891   7.505  0.1348 -0.4762  0.3234
  147MOL0     C20160  10.273   4.899   7.458  0.6474  0.0629  0.8497
  147MOL0     C20161  10.190   4.773   7.482 -0.7102 -0.6725 -0.1810
  147MOL0     C20162  10.054   4.798   7.421 -0.3854  0.0177 -0.3031
  147MOL0     C20163   9.987   4.663   7.397  0.1339  0.6921  0.0831
  147MOL0     C20164   9.838   4.678   7.353 -0.2340  0.0789 -0.5472
  147MOL0     N20165   9.745   4.738   7.450  0.2285  0.6073 -1.1358
  147MOL0     C20166   9.730   4.872   7.481 -0.2831  0.0689  0.1793
  147MOL0     C20167   9.677   4.878   7.599 -0.7136 -0.9047  0.1674
  147MOL0     C20168   9.636   5.001   7.676 -0.4504  0.7646 -0.0067
  147MOL0     C20169   9.515   4.974   7.757 -0.0528 -0.3858  0.1814
  147MOL0     C20170   9.477   5.093   7.852 -1.1977  0.5882 -0.3625
  147MOL0     C20171   9.427   5.223   7.785  0.8962  0.5935  0.5128
  147MOL0     O20172   9.438   5.336   7.872  0.1595 -1.3360 -0.4455
  147MOL0     C20173   9.337   5.389   7.950 -0.8711  0.4808  0.2039
  147MOL0     C20174   9.345   5.514   8.016 -0.8936  0.3766  0.7259
  147MOL0     C20175   9.253   5.564   8.108 -0.1509 -0.6278 -0.3626
  147MOL0     C20176   9.266   5.694   8.176 -0.3460  0.4717  0.7171
  147MOL0     C20177   9.139   5.476   8.136 -0.6210 -0.1050 -0.2435
  147MOL0     C20178   9.024   5.506   8.225 -0.4849 -0.3631 -0.0953
  147MOL0     O20179   8.992   5.406   8.309 -0.1019  0.4760  0.2262
  147MOL0     C20180   8.866   5.381   8.350  0.2188 -0.3814  0.6810
  147MOL0     C20181   8.859   5.332   8.480 -0.2150 -0.3690 -0.2118
  147MOL0     C20182   8.741   5.322   8.544  0.5260  0.1550  0.3122
  147MOL0     C20183   8.623   5.323   8.474 -0.1524 -0.9425 -1.0337
  147MOL0     O20184   8.501   5.307   8.537  0.2831  0.7717  0.2501
  147MOL0     C20185   8.414   5.410   8.559 -0.3582 -1.3766 -0.3465
  147MOL0     C20186   8.463   5.471   8.693  0.2081 -0.2086 -0.6736
  147MOL0     C20187   8.380   5.599   8.723 -0.5967  0.0199 -0.1838
  147MOL0     C20188   8.246   5.563   8.788 -0.8529  0.1821 -0.4458
  147MOL0     C20189   8.169   5.698   8.804 -0.6191 -1.0653  0.7537
  147MOL0     C20190   8.034   5.660   8.861 -0.0328  0.2455 -0.3331
  147MOL0     C20191   7.981   5.788   8.930 -0.4841  0.3445 -0.5206
  147MOL0     C20192   7.837   5.750   8.989 -0.0618 -0.0412 -0.6428
  147MOL0    Cl20193   7.782   5.910   9.051  0.2907  0.4376  0.0319
  147MOL0     C20194   8.623   5.373   8.346 -0.0644 -0.1227  1.3051
  147MOL0     C20195   8.748   5.410   8.281 -0.2889  0.0408  0.8537
  147MOL0     O20196   8.993   5.621   8.249 -0.2900  0.3899  0.5445
  147MOL0     C20197   9.121   5.359   8.062 -0.2737 -0.0871  0.3229
  147MOL0     C20198   9.226   5.309   7.972 -0.9326 -0.6934 -0.1576
  147MOL0     N20199   9.657   4.756   7.635  0.8274  0.9017 -0.6559
  147MOL0     N20200   9.688   4.666   7.549  1.2171 -0.8888  0.6717
  147MOL0     C20201  10.383   5.313   7.788 -0.8624 -0.1866  0.6443
  147MOL0     C20202  10.378   5.438   7.857 -0.5086  0.4228  0.3147
  147MOL0     C20203  10.414   5.817   8.026 -0.7555  1.1618 -0.3680
  147MOL0     C20204  10.513   5.905   7.989  0.3952  0.3730 -0.4143
  147MOL0     C20205  10.554   6.010   8.076 -0.7909  0.0994 -0.6482
  147MOL0     C20206  10.513   6.015   8.209 -0.6539  0.0821  0.4967
  147MOL0     O20207  10.563   6.121   8.290  0.2707 -0.2246  0.5544
  147MOL0     C20208  10.514   6.152   8.419  0.5567 -0.4645 -0.1674
  147MOL0     C20209  10.551   6.284   8.473  0.2516  0.0027  0.2357
  147MOL0     C20210  10.474   6.306   8.608 -0.0905 -0.4291  0.4703
  147MOL0     C20211  10.548   6.422   8.694  0.3273 -0.6407 -0.6531
  147MOL0     C20212  10.689   6.420   8.708  0.5201 -0.8600  0.2913
  147MOL0     C20213  10.805   6.416   8.736 -0.3843  0.1491  0.1334
  147MOL0     C20214  10.426   5.912   8.249 -0.5090 -0.2154 -0.9389
  147MOL0     C20215  10.365   5.818   8.160 -0.4910  0.2195 -0.0547
  147MOL0     C20216  10.260   5.707   8.211  0.4719  0.2245 -0.2638
  147MOL0     H20217  10.518   5.622   7.607  0.8247 -0.9607 -0.2091
  147MOL0     H20218  10.494   5.408   7.479 -1.9491  1.2494  0.5505
  147MOL0     H20219  10.556   5.201   7.425  0.3189 -3.0133 -3.0525
  147MOL0     H20220  10.387   5.163   7.411  0.5508 -1.0754 -1.0832
  147MOL0     H20221  10.524   4.967   7.340 -1.4052 -2.8685  0.7184
  147MOL0     H20222  10.608   4.983   7.494  1.7958  2.3735 -2.2908
  147MOL0     H20223  10.465   4.793   7.489  1.0307  0.0255 -0.3091
  147MOL0     H20224  10.427   4.896   7.614  1.2422 -1.0255  0.2858
  147MOL0     H20225  10.226   4.981   7.514 -0.1311  1.0214 -1.0845
  147MOL0     H20226  10.262   4.917   7.350 -1.4489 -1.0833  0.8109
  147MOL0     H20227  10.198   4.748   7.588  1.1419  0.8161  0.0822
  147MOL0     H20228  10.244   4.688   7.439  2.7385  1.1428  0.1685
  147MOL0     H20229   9.988   4.868   7.473  1.9145  2.0928  0.0158
  147MOL0     H20230  10.059   4.844   7.322 -0.9177 -0.8838 -0.7676
  147MOL0     H20231  10.019   4.595   7.477  1.8867  3.8595  2.2645
  147MOL0     H20232  10.036   4.618   7.310  0.9041 -0.3940  1.0512
  147MOL0     H20233   9.834   4.738   7.262  0.4037  2.3205  0.8228
  147MOL0     H20234   9.798   4.584   7.313 -1.4383  0.4385 -0.2355
  147MOL0     H20235   9.753   4.952   7.412  1.3355  0.4718  1.1494
  147MOL0     H20236   9.618   5.085   7.608  0.6952 -0.7161 -2.2826
  147MOL0     H20237   9.719   5.023   7.743 -0.3285  1.7762 -0.4791
  147MOL0     H20238   9.432   4.950   7.690 -0.0948  2.3548 -0.8804
  147MOL0     H20239   9.534   4.886   7.819  3.2210 -0.7607 -1.1620
  147MOL0     H20240   9.396   5.063   7.920 -0.5124  1.3910  0.8636
  147MOL0     H20241   9.559   5.124   7.917  3.2783 -2.8782 -3.7734
  147MOL0     H20242   9.487   5.244   7.696 -2.2060  0.7249 -1.7278
  147MOL0     H20243   9.321   5.206   7.762  0.9359  0.9303  0.0618
  147MOL0     H20244   9.441   5.563   8.007 -0.3067 -0.6861  0.9771
  147MOL0     H20245   9.368   5.734   8.173  0.0103 -0.2438  2.2371
  147MOL0     H20246   9.233   5.697   8.280  1.8282 -0.7019  1.5355
  147MOL0     H20247   9.204   5.769   8.127  1.4925  0.7524 -1.3715
  147MOL0     H20248   8.949   5.308   8.536 -2.2564 -2.5656  2.4244
  147MOL0     H20249   8.736   5.276   8.642  0.9436 -0.6333 -0.0214
  147MOL0     H20250   8.406   5.485   8.480 -4.2935 -1.5968 -0.3865
  147MOL0     H20251   8.311   5.375   8.575 -1.0781  0.1891 -1.2811
  147MOL0     H20252   8.451   5.400   8.775 -1.0723 -1.0245 -1.5321
  147MOL0     H20253   8.567   5.506   8.691 -0.2255  1.1550 -2.8552
  147MOL0     H20254   8.375   5.661   8.633  2.3213  0.3659 -0.2332
  147MOL0     H20255   8.426   5.665   8.798  1.1559 -0.4674 -0.7720
  147MOL0     H20256   8.259   5.524   8.890  3.4006 -2.0058 -1.5885
  147MOL0     H20257   8.193   5.488   8.727 -3.3947  1.0831  0.5142
  147MOL0     H20258   8.228   5.756   8.876 -1.4009 -0.1517  0.6841
  147MOL0     H20259   8.179   5.748   8.707  1.7326 -1.1456  0.9092
  147MOL0     H20260   8.049   5.578   8.932 -0.2672  3.0854  3.3421
  147MOL0     H20261   7.965   5.628   8.783  0.2038 -1.3193  0.0648
  147MOL0     H20262   7.957   5.869   8.860 -3.8640  1.0382  1.2028
  147MOL0     H20263   8.046   5.806   9.016  0.4388  0.2669 -1.1839
  147MOL0     H20264   7.835   5.682   9.075 -3.4241 -0.5623 -0.9710
  147MOL0     H20265   7.777   5.730   8.900  1.4574 -1.4509 -1.3923
  147MOL0     H20266   8.532   5.377   8.287  0.8516 -0.1840 -0.1527
  147MOL0     H20267   8.753   5.457   8.184 -0.6785 -2.3691 -0.4190
  147MOL0     H20268   9.040   5.296   8.097  1.0621 -1.1613  1.5838
  147MOL0     H20269   9.216   5.202   7.962  0.2125 -0.7869 -0.3766
  147MOL0     H20270  10.341   5.221   7.826  1.9563 -1.3548  1.1986
  147MOL0     H20271  10.338   5.440   7.959  0.2400  0.6934  0.6050
  147MOL0     H20272  10.562   5.892   7.893  2.6685  1.1763  0.5864
  147MOL0     H20273  10.611   6.097   8.044  5.0636 -2.8375  0.5781
  147MOL0     H20274  10.406   6.140   8.428  0.5563 -0.5768 -0.3231
  147MOL0     H20275  10.557   6.082   8.491 -2.6023 -1.2900  1.0612
  147MOL0     H20276  10.522   6.363   8.402 -0.0590  0.1982  0.5785
  147MOL0     H20277  10.660   6.286   8.487  0.6020  1.2810 -2.1047
  147MOL0     H20278  10.373   6.341   8.588 -0.0187 -0.4459  0.0817
  147MOL0     H20279  10.470   6.224   8.681  0.8735  0.9682  2.1899
  147MOL0     H20280  10.510   6.421   8.797 -0.1027  2.4362 -0.6903
  147MOL0     H20281  10.514   6.513   8.645  2.5159  0.6217  0.0439
  147MOL0     H20282  10.900   6.399   8.782  0.1153 -0.7312 -1.1532
  147MOL0     H20283  10.400   5.906   8.354 -0.8107 -0.8065 -1.0436
  147MOL0     H20284  10.274   5.671   8.313  1.0431  2.0277  0.3279
  147MOL0     H20285  10.164   5.759   8.209 -1.9790 -3.6448  3.0213
  147MOL0     H20286  10.257   5.625   8.138 -1.7759  0.5738 -0.6446
  148MOL0     O20287   0.451   0.952   7.802  0.8116 -0.8812 -0.5882
  148MOL0     C20288   0.414   1.003   7.906 -0.5698  0.6911 -0.1677
  148MOL0     O20289   0.479   0.985   8.023 -0.1761 -0.2273 -0.4239
  148MOL0     C20290   0.612   0.959   8.029 -0.6840 -0.4845  0.8863
  148MOL0     C20291   0.679   0.855   7.950  0.6588  0.2052 -0.9978
  148MOL0     C20292   0.813   0.827   7.971 -0.7178  0.3897  1.5221
  148MOL0     C20293   0.883   0.907   8.058 -0.6801  0.3972  0.6635
  148MOL0     O20294   1.019   0.891   8.064  0.3971  0.9348 -0.5518
  148MOL0     C20295   1.097   0.931   7.958 -0.7746 -1.0330  1.4534
  148MOL0     C20296   1.195   1.045   7.997  0.1473  0.4527  0.1418
  148MOL0     C20297   1.282   1.017   8.114 -0.5611  0.7394 -0.1758
  148MOL0     C20298   1.422   0.967   8.065 -0.2534 -0.1542  0.0200
  148MOL0     C20299   1.528   0.981   8.178 -0.4722  0.4321 -0.6034
  148MOL0     C20300   1.664   0.954   8.121 -0.2496 -0.3479 -0.4550
  148MOL0     C20301   1.771   0.914   8.228  0.3842  0.3069 -0.7603
  148MOL0     C20302   1.784   1.025   8.335  0.1820 -0.3375 -0.5154
  148MOL0     N20303   1.876   0.989   8.443  0.3667  0.3230 -0.3668
  148MOL0     C20304   1.873   1.050   8.568 -0.5918  0.8044  0.2450
  148MOL0     C20305   1.992   1.032   8.633 -0.1288 -0.3255 -0.5819
  148MOL0     C20306   2.035   1.075   8.771 -0.8432 -0.0142 -0.2603
  148MOL0     C20307   2.187   1.039   8.801  1.1129  0.4687 -0.0446
  148MOL0     C20308   2.227   1.061   8.944  0.3708 -1.0927 -1.0553
  148MOL0     C20309   2.159   0.959   9.037  0.1056 -0.1391 -0.6531
  148MOL0     O20310   2.194   1.000   9.173 -0.2213  0.7026  0.2816
  148MOL0     C20311   2.326   0.969   9.218 -0.3347  0.1056 -0.3216
  148MOL0     C20312   2.405   1.062   9.273 -0.9687  0.4358  0.5207
  148MOL0     C20313   2.536   1.048   9.305 -0.2013 -1.0635  0.0079
  148MOL0     C20314   2.597   1.168   9.372 -0.5309  0.5312  0.9578
  148MOL0     C20315   2.606   0.931   9.290 -0.1734  0.0343  0.6152
  148MOL0     C20316   2.751   0.909   9.327  0.2613 -0.3541 -1.0610
  148MOL0     O20317   2.781   0.775   9.374  0.1784 -0.3656  0.4474
  148MOL0     C20318   2.907   0.726   9.401  0.1253 -0.8259 -0.6380
  148MOL0     C20319   2.914   0.595   9.455 -1.0108  1.8213  0.2893
  148MOL0     C20320   3.036   0.543   9.497  0.4343  0.9162  1.4802
  148MOL0     C20321   3.157   0.611   9.470  0.1560 -0.3545 -0.7026
  148MOL0     O20322   3.276   0.559   9.518 -0.0584  0.5256  0.1382
  148MOL0     C20323   3.372   0.645   9.580  1.1638  1.6005 -1.1943
  148MOL0     C20324   3.484   0.566   9.645  0.2927  0.8921  0.9812
  148MOL0     C20325   3.588   0.666   9.702 -0.7347  0.3753 -0.2599
  148MOL0     C20326   3.687   0.639   9.817  0.0173  0.3371 -0.0892
  148MOL0     C20327   3.786   0.742   9.848  0.0256  0.3960  0.7419
  148MOL0     C20328   3.722   0.873   9.911  0.2949 -0.3133  0.3883
  148MOL0     C20329   3.679   0.844  10.048  0.5047 -0.6443 -0.4390
  148MOL0     C20330   3.594   0.948  10.121 -0.5505 -0.4378  0.4488
  148MOL0    Cl20331   3.679   1.111  10.150 -0.2622  0.2602  0.2962
  148MOL0     C20332   3.148   0.744   9.418  0.0388  0.3695 -0.8936
  148MOL0     C20333   3.030   0.795   9.376 -0.3482  0.0696 -0.1997
  148MOL0     O20334   2.833   0.999   9.305 -0.2601  0.1740 -0.0626
  148MOL0     C20335   2.531   0.829   9.241  0.1727 -0.6116  1.4443
  148MOL0     C20336   2.395   0.844   9.208  0.1752 -0.4584  0.8490
  148MOL0     N20337   2.077   0.972   8.538 -0.3409  0.3691  0.1230
  148MOL0     N20338   2.000   0.948   8.435 -0.4572 -0.1906  0.0352
  148MOL0     C20339   0.818   0.986   8.150 -0.1458 -0.5019 -0.5821
  148MOL0     C20340   0.677   1.011   8.134  0.5099 -0.6014 -0.5909
  148MOL0     C20341   0.294   1.081   7.910 -0.1621  0.7057  0.3034
  148MOL0     C20342   0.174   1.031   7.865  0.7206  0.5347 -0.1138
  148MOL0     C20343   0.054   1.104   7.863  0.5041 -0.0858 -0.0676
  148MOL0     C20344   0.064   1.243   7.890 -0.6910  0.1811 -0.3420
  148MOL0     O20345  -0.038   1.326   7.865  0.6625  0.0902  0.3897
  148MOL0     C20346  -0.120   1.356   7.980 -0.1423 -0.5902 -0.7825
  148MOL0     C20347  -0.210   1.240   8.031 -0.9047 -0.5348 -0.0425
  148MOL0     C20348  -0.279   1.273   8.167  1.0286  1.4149 -0.7324
  148MOL0     C20349  -0.383   1.382   8.163 -0.2618 -0.4537 -0.5550
  148MOL0     C20350  -0.479   1.358   8.063  0.1233  0.4211  0.4399
  148MOL0     C20351  -0.561   1.333   7.972  0.8978  0.4445 -0.5007
  148MOL0     C20352   0.185   1.294   7.938 -0.4573  0.6923 -0.2866
  148MOL0     C20353   0.303   1.217   7.947  0.5315 -0.5891  0.1930
  148MOL0     C20354   0.411   1.293   8.007  0.0307  0.2817  1.3546
  148MOL0     H20355   0.621   0.812   7.869 -1.2859  5.2695 -2.6942
  148MOL0     H20356   0.857   0.762   7.896 -1.2082  1.1782  0.5289
  148MOL0     H20357   1.034   0.971   7.877  1.4834  3.3429  1.5576
  148MOL0     H20358   1.158   0.850   7.918  0.4164  1.5190 -2.5752
  148MOL0     H20359   1.243   1.088   7.909  0.0195 -0.8196 -0.5811
  148MOL0     H20360   1.137   1.135   8.020  0.6195  0.6584  0.5306
  148MOL0     H20361   1.309   1.111   8.164  2.1117  0.3034 -0.6264
  148MOL0     H20362   1.228   0.948   8.180 -3.9671  2.0274 -1.3981
  148MOL0     H20363   1.413   0.861   8.039 -0.4195  0.0744 -0.8650
  148MOL0     H20364   1.446   1.028   7.977  1.6714 -3.4112 -1.9094
  148MOL0     H20365   1.506   0.913   8.261  2.5314  0.9151  0.7186
  148MOL0     H20366   1.513   1.080   8.219  1.0728  0.4626 -0.0498
  148MOL0     H20367   1.655   0.870   8.052 -5.3577 -0.4137 -0.0893
  148MOL0     H20368   1.703   1.045   8.074 -0.2339  0.7654  1.5990
  148MOL0     H20369   1.867   0.894   8.180  0.5039 -3.3994  0.6568
  148MOL0     H20370   1.735   0.828   8.285 -4.1801  0.8300 -2.4422
  148MOL0     H20371   1.817   1.118   8.288 -1.1288 -1.5935 -4.2787
  148MOL0     H20372   1.688   1.039   8.385  0.9626  2.8507  0.2821
  148MOL0     H20373   1.785   1.087   8.620 -1.0497  0.4715 -0.2822
  148MOL0     H20374   1.980   1.011   8.840 -0.4467  0.1439  0.2097
  148MOL0     H20375   2.011   1.182   8.779 -1.4640 -0.1354 -0.4254
  148MOL0     H20376   2.204   0.933   8.781 -0.2817 -0.5768  3.5719
  148MOL0     H20377   2.243   1.097   8.727  0.2831  1.7040  0.2563
  148MOL0     H20378   2.333   1.037   8.961 -0.0129 -1.9367  0.3273
  148MOL0     H20379   2.196   1.157   8.987 -3.9434 -2.2850 -1.0498
  148MOL0     H20380   2.050   0.967   9.037  0.1488  4.4547  2.6791
  148MOL0     H20381   2.190   0.864   8.993  0.9318  0.6280 -1.8011
  148MOL0     H20382   2.354   1.157   9.287 -1.3284  0.4166 -0.6111
  148MOL0     H20383   2.662   1.149   9.458 -2.8902  0.0434  2.7490
  148MOL0     H20384   2.520   1.241   9.400  0.1880  1.5423  0.3790
  148MOL0     H20385   2.673   1.206   9.303  0.0632 -2.4959 -0.1756
  148MOL0     H20386   2.820   0.541   9.465  0.0165 -0.0167  0.5208
  148MOL0     H20387   3.043   0.443   9.540 -0.8269 -0.2979 -0.9611
  148MOL0     H20388   3.420   0.715   9.511 -2.1606  3.5882 -1.7477
  148MOL0     H20389   3.326   0.704   9.660  0.1027  0.8718 -1.2418
  148MOL0     H20390   3.438   0.510   9.727  2.1591 -0.1081  1.4219
  148MOL0     H20391   3.521   0.488   9.578 -0.5553  0.7367  0.6913
  148MOL0     H20392   3.543   0.758   9.740 -0.4877  0.3537  0.0919
  148MOL0     H20393   3.659   0.691   9.623  0.0235  1.4818  0.7398
  148MOL0     H20394   3.750   0.552   9.794  1.4784  0.8270  1.8373
  148MOL0     H20395   3.629   0.610   9.905 -0.9204  0.3110 -0.7037
  148MOL0     H20396   3.855   0.700   9.922 -0.7963 -0.8066  0.8579
  148MOL0     H20397   3.838   0.753   9.752 -0.7965 -3.2969 -0.2934
  148MOL0     H20398   3.645   0.917   9.846 -0.4258  1.6046  2.4183
  148MOL0     H20399   3.799   0.951   9.914  0.2798 -0.3112  3.2739
  148MOL0     H20400   3.768   0.813  10.105  0.0547 -2.2816 -0.5796
  148MOL0     H20401   3.615   0.756  10.061 -1.0202  0.7438  2.5785
  148MOL0     H20402   3.557   0.919  10.219 -0.3068  2.3183  1.4569
  148MOL0     H20403   3.498   0.969  10.074 -0.6822 -0.5473  0.6671
  148MOL0     H20404   3.241   0.796   9.397  0.3825  0.2738  0.3523
  148MOL0     H20405   3.029   0.889   9.321 -0.8308 -0.3316 -0.9011
  148MOL0     H20406   2.579   0.732   9.226  2.5113  0.7318 -0.4827
  148MOL0     H20407   2.341   0.770   9.150 -1.3209  0.3454  1.1630
  148MOL0     H20408   0.889   1.022   8.225  0.5415 -1.0811 -0.9475
  148MOL0     H20409   0.623   1.059   8.215 -1.2949  1.1909 -2.7340
  148MOL0     H20410   0.182   0.930   7.827  0.8352  0.5937 -0.2454
  148MOL0     H20411  -0.028   1.052   7.815  1.5167 -1.5360 -0.2794
  148MOL0     H20412  -0.051   1.382   8.061  0.3765 -0.1347 -1.3585
  148MOL0     H20413  -0.187   1.439   7.957  3.8058  2.9277 -0.8313
  148MOL0     H20414  -0.135   1.162   8.044  2.7037  2.5036 -0.8485
  148MOL0     H20415  -0.280   1.201   7.956  0.0751 -1.2583 -0.6101
  148MOL0     H20416  -0.317   1.175   8.198  4.7833 -0.3451 -1.1440
  148MOL0     H20417  -0.219   1.303   8.253 -2.6886 -0.5884  2.9220
  148MOL0     H20418  -0.331   1.478   8.147 -0.7272  0.0904  1.0031
  148MOL0     H20419  -0.423   1.389   8.265 -1.9091 -0.4286 -1.1764
  148MOL0     H20420  -0.629   1.341   7.890 -3.1701  2.2095  2.6844
  148MOL0     H20421   0.183   1.396   7.975  3.2631  1.0576 -0.7245
  148MOL0     H20422   0.437   1.382   7.949  4.8750 -4.0014 -4.4089
  148MOL0     H20423   0.393   1.311   8.114 -3.6118 -1.9992  1.3047
  148MOL0     H20424   0.500   1.232   7.986  0.0672  0.4345  1.0692
  149MOL0     O20425   1.711   4.177   5.803  0.0628 -1.0175  0.2807
  149MOL0     C20426   1.827   4.185   5.758  0.7188 -0.7551  0.2228
  149MOL0     O20427   1.911   4.088   5.753 -0.3559  0.2263 -0.4632
  149MOL0     C20428   1.891   3.975   5.828  0.6241 -0.4818  0.9136
  149MOL0     C20429   1.837   3.858   5.770 -0.0291 -0.1377 -0.1679
  149MOL0     C20430   1.810   3.737   5.842  0.5708 -0.4408 -0.4769
  149MOL0     C20431   1.841   3.732   5.977  0.0623  0.2727  1.0704
  149MOL0     O20432   1.853   3.623   6.059 -0.3654  0.2996  0.7203
  149MOL0     C20433   1.897   3.498   5.996  0.1318 -0.4606  0.5859
  149MOL0     C20434   1.890   3.375   6.087  0.3101 -0.2968 -1.1059
  149MOL0     C20435   1.906   3.237   6.013 -0.3069 -0.8319 -0.2745
  149MOL0     C20436   2.062   3.209   6.003 -0.1471  0.2110 -1.2880
  149MOL0     C20437   2.088   3.070   5.928 -1.3326 -0.4583 -0.5434
  149MOL0     C20438   2.240   3.036   5.925  0.3800 -0.1238 -0.3679
  149MOL0     C20439   2.275   2.922   5.822  0.9474 -0.0061  0.3668
  149MOL0     C20440   2.231   2.782   5.845  0.2838  1.0720  0.7330
  149MOL0     N20441   2.246   2.735   5.996  0.5797 -0.3486  0.5466
  149MOL0     C20442   2.157   2.738   6.098 -0.7012  0.3190 -0.6936
  149MOL0     C20443   2.245   2.700   6.206 -0.7264  0.5420  0.3687
  149MOL0     C20444   2.209   2.705   6.347 -0.4656 -0.3881  0.0512
  149MOL0     C20445   2.063   2.765   6.360 -0.4796  0.0346  0.9978
  149MOL0     C20446   2.029   2.794   6.507 -0.6551  0.6016 -0.3075
  149MOL0     C20447   1.879   2.815   6.536 -0.6226  0.3132  0.3482
  149MOL0     O20448   1.862   2.958   6.556 -0.0142 -0.1688  1.1573
  149MOL0     C20449   1.864   2.996   6.687  0.2191  0.0806  0.1930
  149MOL0     C20450   1.983   3.054   6.734 -0.1647  0.7473  0.4476
  149MOL0     C20451   2.000   3.105   6.863 -0.3041  0.3175 -0.8756
  149MOL0     C20452   2.127   3.170   6.892 -0.7703  0.1514  0.2538
  149MOL0     C20453   1.892   3.097   6.948  0.3018  0.1361 -1.0535
  149MOL0     C20454   1.901   3.148   7.084  0.5736  0.4050 -0.0618
  149MOL0     O20455   1.986   3.087   7.167 -0.0920 -0.5084 -0.3622
  149MOL0     C20456   2.015   3.135   7.302  0.6905 -0.7963 -0.0213
  149MOL0     C20457   2.105   3.058   7.365  0.0611  1.0781  0.3174
  149MOL0     C20458   2.153   3.076   7.496  1.4548 -0.1594 -1.6270
  149MOL0     C20459   2.105   3.191   7.560 -0.7083 -0.0359  0.6299
  149MOL0     O20460   2.127   3.205   7.696  0.5814  0.4246  0.2324
  149MOL0     C20461   2.255   3.217   7.730 -0.6770  0.3309  0.0625
  149MOL0     C20462   2.351   3.309   7.651 -0.3159  0.3897 -0.0120
  149MOL0     C20463   2.429   3.251   7.536  0.1636 -0.0133 -0.0202
  149MOL0     C20464   2.541   3.352   7.509  0.2926 -0.2647 -0.4025
  149MOL0     C20465   2.666   3.334   7.598 -0.5937 -0.2025  0.2947
  149MOL0     C20466   2.742   3.204   7.568 -0.3562  0.9166  0.3960
  149MOL0     C20467   2.885   3.217   7.622 -0.2272  0.2392  0.0762
  149MOL0     C20468   2.981   3.101   7.582  0.6118 -0.1298 -1.1257
  149MOL0    Cl20469   3.001   3.128   7.403 -0.6434  0.1808 -0.3227
  149MOL0     C20470   2.020   3.283   7.501 -0.6564  1.3881 -0.2884
  149MOL0     C20471   1.971   3.251   7.368  1.4967  0.9872 -0.0985
  149MOL0     O20472   1.820   3.241   7.115  0.9033 -0.0830 -1.1683
  149MOL0     C20473   1.757   3.071   6.900 -0.7442  0.3823  1.0402
  149MOL0     C20474   1.745   3.024   6.765 -0.3116 -0.2124 -0.1687
  149MOL0     N20475   2.370   2.671   6.154  0.1698 -0.3326  0.3224
  149MOL0     N20476   2.369   2.682   6.029  0.5272 -0.6427  0.6321
  149MOL0     C20477   1.896   3.851   6.038  0.5369  0.3794  0.5895
  149MOL0     C20478   1.920   3.969   5.965 -0.2380  0.3815  0.3110
  149MOL0     C20479   1.846   4.303   5.685  0.8897 -0.3516 -0.1254
  149MOL0     C20480   1.804   4.429   5.734  0.3844  0.1973  0.0265
  149MOL0     C20481   1.805   4.546   5.662 -0.3642  0.9654 -0.8595
  149MOL0     C20482   1.868   4.548   5.534  0.1608  0.5454 -0.2672
  149MOL0     O20483   1.865   4.652   5.444  0.2747 -1.0750 -1.2779
  149MOL0     C20484   1.746   4.736   5.449  0.8715  0.1876 -0.0142
  149MOL0     C20485   1.626   4.654   5.392  0.1572 -0.4890 -0.2699
  149MOL0     C20486   1.491   4.718   5.429 -1.3944  0.7475 -0.5335
  149MOL0     C20487   1.452   4.853   5.349 -0.0285  0.0119 -0.7312
  149MOL0     C20488   1.361   4.792   5.253  0.1066 -0.2620 -0.0434
  149MOL0     C20489   1.282   4.728   5.180 -0.2238 -1.5245  0.3505
  149MOL0     C20490   1.931   4.426   5.492 -0.1229 -0.3896 -0.1283
  149MOL0     C20491   1.914   4.303   5.560  0.7551  0.2510 -0.2267
  149MOL0     C20492   1.959   4.174   5.481  0.2233 -0.0922 -0.1098
  149MOL0     H20493   1.815   3.864   5.663 -2.6670  2.7042  0.3834
  149MOL0     H20494   1.762   3.659   5.784  0.8849 -0.1929 -1.0715
  149MOL0     H20495   1.998   3.507   5.956 -0.9323 -0.9394 -2.4622
  149MOL0     H20496   1.830   3.481   5.911  1.0335 -1.1964  0.0101
  149MOL0     H20497   1.968   3.382   6.164 -2.6179 -0.7407  2.1517
  149MOL0     H20498   1.792   3.379   6.135  1.1319 -2.7797  1.0218
  149MOL0     H20499   1.859   3.160   6.075  0.7871 -0.9624  0.4208
  149MOL0     H20500   1.865   3.249   5.912 -0.3644  1.8412 -0.0200
  149MOL0     H20501   2.115   3.289   5.951  0.6225  1.4618  1.2191
  149MOL0     H20502   2.112   3.210   6.101  0.2359  0.8403 -1.4812
  149MOL0     H20503   2.061   3.066   5.822 -1.0937  1.3294 -0.7021
  149MOL0     H20504   2.040   2.987   5.979 -4.2366  0.4541 -1.5537
  149MOL0     H20505   2.285   3.133   5.901 -1.0398  1.4845  2.8498
  149MOL0     H20506   2.285   3.008   6.021 -0.4311 -2.3426 -0.5893
  149MOL0     H20507   2.385   2.924   5.823  0.9850 -1.1144  1.1870
  149MOL0     H20508   2.254   2.946   5.718  1.9023  0.0041  0.1629
  149MOL0     H20509   2.126   2.775   5.814  1.2233  0.9174 -2.7952
  149MOL0     H20510   2.283   2.703   5.791 -1.8285 -1.6213  2.3584
  149MOL0     H20511   2.051   2.761   6.100 -1.3560 -2.3138 -0.0205
  149MOL0     H20512   2.268   2.779   6.403  1.5094 -3.1921  1.9794
  149MOL0     H20513   2.201   2.607   6.393 -0.3941 -0.2678  0.3240
  149MOL0     H20514   2.050   2.854   6.297 -3.0603 -2.0393 -1.6505
  149MOL0     H20515   2.009   2.687   6.306  2.0293 -1.0294 -0.1413
  149MOL0     H20516   2.076   2.718   6.570 -0.3844  2.8603  2.4417
  149MOL0     H20517   2.084   2.886   6.533 -0.2811 -0.5698  3.7741
  149MOL0     H20518   1.836   2.776   6.444 -0.9248  2.6934 -0.6085
  149MOL0     H20519   1.834   2.759   6.618  0.0693 -2.3937 -1.0251
  149MOL0     H20520   2.070   3.067   6.671  0.7382 -0.9699  1.2650
  149MOL0     H20521   2.143   3.265   6.840 -1.1692  0.5652  0.8743
  149MOL0     H20522   2.204   3.095   6.877 -0.8725 -0.5967  3.0114
  149MOL0     H20523   2.141   3.198   6.997 -0.2740  4.6346 -0.7746
  149MOL0     H20524   2.143   2.983   7.295 -4.1830 -3.0044  1.8753
  149MOL0     H20525   2.222   3.014   7.553  0.2255  1.6083  2.1147
  149MOL0     H20526   2.249   3.266   7.828 -1.5313  3.0121 -1.2327
  149MOL0     H20527   2.310   3.123   7.741  1.1401  1.2472 -0.7809
  149MOL0     H20528   2.298   3.402   7.632  0.6454  1.5166  2.3559
  149MOL0     H20529   2.416   3.342   7.733  1.0311  0.8034 -1.2084
  149MOL0     H20530   2.363   3.240   7.449  1.7768 -1.3848 -1.1462
  149MOL0     H20531   2.469   3.152   7.560  0.8693 -0.1466 -1.5906
  149MOL0     H20532   2.500   3.452   7.528 -0.3528 -0.7824  1.1116
  149MOL0     H20533   2.569   3.344   7.403  0.5820  1.8579 -0.5380
  149MOL0     H20534   2.733   3.419   7.585 -1.7238  0.4982 -1.3553
  149MOL0     H20535   2.651   3.338   7.706  2.3253  0.7284  0.7611
  149MOL0     H20536   2.737   3.197   7.459 -2.7053  0.9460  0.4697
  149MOL0     H20537   2.694   3.118   7.615 -0.2434  0.6337 -0.0092
  149MOL0     H20538   2.880   3.227   7.731 -0.2245 -0.0098  0.1006
  149MOL0     H20539   2.927   3.312   7.589 -1.5901  1.3778  1.4444
  149MOL0     H20540   2.929   3.006   7.596 -1.1206  0.9072 -0.1295
  149MOL0     H20541   3.079   3.104   7.629  0.3680  0.3291 -0.6265
  149MOL0     H20542   1.984   3.370   7.554  1.8232  1.6011  1.1870
  149MOL0     H20543   1.893   3.319   7.335  1.3024  0.7844 -0.0593
  149MOL0     H20544   1.673   3.083   6.968  0.0170 -1.4003  2.3621
  149MOL0     H20545   1.642   3.001   6.741 -1.2210 -1.5954  4.1743
  149MOL0     H20546   1.933   3.860   6.140  0.9972  1.2303  0.3570
  149MOL0     H20547   1.964   4.054   6.017 -2.0212  2.6339 -1.6390
  149MOL0     H20548   1.756   4.441   5.831  2.3642 -2.1187  1.3740
  149MOL0     H20549   1.778   4.645   5.698  0.7594  1.3541 -1.0365
  149MOL0     H20550   1.709   4.770   5.546 -0.6542  0.7777 -0.7610
  149MOL0     H20551   1.762   4.830   5.393 -3.4434  0.8062 -0.5411
  149MOL0     H20552   1.617   4.554   5.434 -4.4393 -0.6871 -1.1981
  149MOL0     H20553   1.636   4.649   5.284  4.0589 -3.4035  0.0282
  149MOL0     H20554   1.412   4.643   5.425 -1.2225  0.4497  1.0341
  149MOL0     H20555   1.491   4.742   5.536  1.0936 -3.1233  0.5277
  149MOL0     H20556   1.544   4.892   5.304  1.2011 -1.9218 -0.0304
  149MOL0     H20557   1.403   4.929   5.410 -1.9313  0.9028 -3.2245
  149MOL0     H20558   1.208   4.674   5.123 -1.7079 -0.3500  1.0828
  149MOL0     H20559   1.988   4.434   5.400 -0.1078  1.6021  0.0233
  149MOL0     H20560   2.057   4.189   5.434  1.5652  0.0339  2.4775
  149MOL0     H20561   1.984   4.085   5.539  2.4465  1.5745  1.7149
  149MOL0     H20562   1.877   4.160   5.411 -3.9469 -0.7539  4.3924
  150MOL0     O20563   5.463   2.740   8.811 -1.2497  0.4988  0.2472
  150MOL0     C20564   5.395   2.783   8.714 -0.3234 -0.2306 -0.0924
  150MOL0     O20565   5.324   2.700   8.628 -0.3110  0.2513 -0.5134
  150MOL0     C20566   5.321   2.563   8.656 -0.3793 -1.6238 -0.5867
  150MOL0     C20567   5.223   2.518   8.738 -0.1632 -1.2583 -0.5724
  150MOL0     C20568   5.201   2.384   8.746  0.3522  0.6803  0.3468
  150MOL0     C20569   5.285   2.296   8.682 -0.1962  0.2315  0.3470
  150MOL0     O20570   5.253   2.166   8.674  0.3453  0.0882  0.0249
  150MOL0     C20571   5.262   2.099   8.547  0.1116  0.1812 -0.9486
  150MOL0     C20572   5.203   2.181   8.433 -0.4785  0.1086 -0.3493
  150MOL0     C20573   5.055   2.189   8.457 -0.1174  0.0733  0.9020
  150MOL0     C20574   4.978   2.078   8.519  0.5209  1.0102 -0.4252
  150MOL0     C20575   4.819   2.117   8.542 -1.1116 -0.9862  0.5632
  150MOL0     C20576   4.737   2.174   8.423 -0.3602  0.7896 -0.3492
  150MOL0     C20577   4.595   2.125   8.423  0.4765  0.0477 -0.7623
  150MOL0     C20578   4.514   2.117   8.297  0.2223 -0.5673 -0.3274
  150MOL0     N20579   4.482   2.243   8.228 -0.0482 -0.4750 -0.5704
  150MOL0     C20580   4.572   2.331   8.185  0.1778 -0.0912 -0.1844
  150MOL0     C20581   4.513   2.449   8.155 -0.1842  0.3208 -0.5038
  150MOL0     C20582   4.589   2.581   8.122 -1.2046  0.1673 -0.2238
  150MOL0     C20583   4.728   2.560   8.070  0.0532 -0.1110  0.3682
  150MOL0     C20584   4.792   2.688   7.992  0.2124  0.2557  0.4893
  150MOL0     C20585   4.715   2.720   7.856 -1.3664 -1.0134 -0.8202
  150MOL0     O20586   4.764   2.842   7.800 -0.5682  0.3833  0.0120
  150MOL0     C20587   4.735   2.968   7.851  0.2400 -1.8167  0.5776
  150MOL0     C20588   4.833   3.059   7.899  0.3394 -0.4326  0.2441
  150MOL0     C20589   4.806   3.193   7.939  0.6467 -0.1838  0.2275
  150MOL0     C20590   4.921   3.264   7.995 -0.1099 -1.1201  0.1238
  150MOL0     C20591   4.673   3.244   7.918 -0.4524  0.1080 -0.8358
  150MOL0     C20592   4.634   3.379   7.960  0.0430  0.1067  0.4452
  150MOL0     O20593   4.738   3.466   7.989  0.3607  0.2775  0.2189
  150MOL0     C20594   4.719   3.596   8.033  0.6030  0.4382  0.2057
  150MOL0     C20595   4.832   3.676   8.001 -0.7674  0.8437  0.2789
  150MOL0     C20596   4.839   3.814   8.033  0.2399  0.7897  1.1227
  150MOL0     C20597   4.720   3.876   8.075 -0.9528 -0.0331 -0.4103
  150MOL0     O20598   4.694   4.010   8.086  0.1746  0.8125  0.4427
  150MOL0     C20599   4.798   4.100   8.049  0.2046 -0.4295 -0.5476
  150MOL0     C20600   4.756   4.247   8.019  0.6680  0.6782  0.0746
  150MOL0     C20601   4.697   4.274   7.884 -1.1358  0.0561 -0.2720
  150MOL0     C20602   4.795   4.248   7.767  0.4971  0.0698 -0.1884
  150MOL0     C20603   4.729   4.282   7.631  0.1834 -0.1404 -0.6355
  150MOL0     C20604   4.852   4.322   7.537 -0.0571 -0.5073 -0.5733
  150MOL0     C20605   4.809   4.413   7.410  0.4768 -0.1864  0.6113
  150MOL0     C20606   4.919   4.453   7.303 -0.0938 -0.1885  0.0954
  150MOL0    Cl20607   5.018   4.603   7.358  0.1632  0.3245  0.1377
  150MOL0     C20608   4.612   3.797   8.108  0.0633  0.1149 -1.0105
  150MOL0     C20609   4.609   3.653   8.099  0.3879 -0.8169 -0.1652
  150MOL0     O20610   4.515   3.405   7.964 -0.7067 -0.3898 -0.5578
  150MOL0     C20611   4.581   3.154   7.858 -0.0460 -0.1661 -1.7963
  150MOL0     C20612   4.603   3.021   7.835  0.2483 -1.0528  0.4460
  150MOL0     N20613   4.384   2.435   8.187 -0.2273 -0.1795 -0.2936
  150MOL0     N20614   4.366   2.313   8.231  0.1030  0.6407  0.2383
  150MOL0     C20615   5.409   2.342   8.626 -0.0713 -0.0659  0.6919
  150MOL0     C20616   5.423   2.479   8.609 -0.2714 -0.0600  0.3602
  150MOL0     C20617   5.393   2.933   8.692 -0.4208 -0.3419  0.3781
  150MOL0     C20618   5.271   2.986   8.655  0.3177 -0.8061  0.1927
  150MOL0     C20619   5.258   3.123   8.625 -0.3234  0.5198 -0.6847
  150MOL0     C20620   5.377   3.205   8.626  0.3198 -1.0217  0.8736
  150MOL0     O20621   5.395   3.342   8.617  0.4347 -0.1033 -0.8693
  150MOL0     C20622   5.291   3.434   8.585  0.1613  0.2111 -0.1810
  150MOL0     C20623   5.239   3.502   8.711 -0.8189 -0.9265 -0.3756
  150MOL0     C20624   5.362   3.563   8.786 -0.1293  0.9486 -0.4260
  150MOL0     C20625   5.439   3.679   8.717 -0.0500  0.2524  0.5031
  150MOL0     C20626   5.541   3.641   8.610  0.0905  0.5650 -0.4588
  150MOL0     C20627   5.628   3.588   8.545  0.5604  0.4225  0.4154
  150MOL0     C20628   5.497   3.161   8.668 -0.0178  1.0014 -0.0847
  150MOL0     C20629   5.512   3.021   8.701 -0.9545 -0.6077 -1.3917
  150MOL0     C20630   5.654   2.984   8.744 -0.1531 -0.2807 -0.6138
  150MOL0     H20631   5.156   2.590   8.783 -1.3691 -2.7231  0.0330
  150MOL0     H20632   5.108   2.341   8.780  2.0418 -1.7368  2.2993
  150MOL0     H20633   5.220   1.999   8.558 -0.3186  0.4825  0.4105
  150MOL0     H20634   5.368   2.082   8.526  0.2354 -0.0538 -0.1743
  150MOL0     H20635   5.257   2.272   8.405  0.8755 -0.5587  0.0318
  150MOL0     H20636   5.219   2.123   8.341  2.6291  0.5930 -0.2224
  150MOL0     H20637   5.049   2.282   8.515  1.6332  0.2633  0.8563
  150MOL0     H20638   5.010   2.213   8.360 -3.7585  3.9960  3.1890
  150MOL0     H20639   4.994   1.986   8.462  0.2412 -0.4056  1.6789
  150MOL0     H20640   5.012   2.050   8.620  1.6618  0.1272 -1.0256
  150MOL0     H20641   4.811   2.188   8.624 -0.8774 -0.3781  0.0639
  150MOL0     H20642   4.764   2.026   8.568 -1.6626 -0.6815  0.4791
  150MOL0     H20643   4.740   2.283   8.418 -1.0972  0.7754 -1.1727
  150MOL0     H20644   4.786   2.138   8.332  1.9084  3.1503 -0.1846
  150MOL0     H20645   4.533   2.187   8.489 -0.5185 -1.7088  0.0248
  150MOL0     H20646   4.577   2.030   8.474  2.3365  1.6441  3.2382
  150MOL0     H20647   4.565   2.056   8.222  2.9639 -0.9450  1.7112
  150MOL0     H20648   4.415   2.078   8.320 -0.0737  0.3708  0.0375
  150MOL0     H20649   4.674   2.308   8.154  0.1119 -1.1925  0.3504
  150MOL0     H20650   4.600   2.648   8.208  0.2998  0.2402 -0.4381
  150MOL0     H20651   4.520   2.640   8.062  1.4432  3.4810 -0.3390
  150MOL0     H20652   4.797   2.538   8.151  1.9267 -2.3480 -1.6565
  150MOL0     H20653   4.740   2.475   8.002  0.1500  1.2003 -1.3310
  150MOL0     H20654   4.792   2.778   8.054 -1.2428  2.3208 -2.2863
  150MOL0     H20655   4.892   2.666   7.955 -0.2397 -2.4809  0.6607
  150MOL0     H20656   4.701   2.645   7.776 -1.6520 -1.3912 -0.4210
  150MOL0     H20657   4.613   2.747   7.885 -1.3316  0.4425 -1.9193
  150MOL0     H20658   4.937   3.028   7.892 -0.0033 -1.4082 -0.9461
  150MOL0     H20659   4.883   3.320   8.081 -2.0460 -1.7202 -0.3078
  150MOL0     H20660   4.961   3.327   7.915  1.4977 -0.3750  1.4541
  150MOL0     H20661   5.005   3.203   8.030  3.3471  2.9495 -0.3124
  150MOL0     H20662   4.916   3.636   7.945 -1.2982  5.3437 -4.5415
  150MOL0     H20663   4.928   3.875   8.020  1.6284 -1.0545  1.4745
  150MOL0     H20664   4.857   4.108   8.141 -1.1552 -0.8431  0.3826
  150MOL0     H20665   4.865   4.077   7.965  3.2736  3.4170  0.5725
  150MOL0     H20666   4.681   4.274   8.094 -1.0156 -2.1116 -0.4716
  150MOL0     H20667   4.843   4.312   8.033 -0.2269  1.3901  3.4152
  150MOL0     H20668   4.651   4.373   7.881 -0.1232  0.6935  2.5717
  150MOL0     H20669   4.626   4.192   7.868 -1.0410  0.3006 -2.2517
  150MOL0     H20670   4.816   4.140   7.765  3.8505  0.5832 -3.2766
  150MOL0     H20671   4.892   4.298   7.771 -0.3124  1.6319  0.8170
  150MOL0     H20672   4.667   4.201   7.591  0.0084  0.8723 -2.5244
  150MOL0     H20673   4.670   4.374   7.640  3.8512  2.2908  0.5689
  150MOL0     H20674   4.902   4.232   7.498 -1.6521 -2.0105  0.6893
  150MOL0     H20675   4.913   4.395   7.591 -0.6486 -1.5743  1.6879
  150MOL0     H20676   4.777   4.515   7.432 -0.4005 -0.3165 -0.0281
  150MOL0     H20677   4.722   4.373   7.358 -1.5137  0.8655  2.9458
  150MOL0     H20678   4.854   4.478   7.218 -0.0242 -0.6825 -0.1090
  150MOL0     H20679   4.977   4.363   7.282 -1.6757 -1.8211  2.2060
  150MOL0     H20680   4.517   3.840   8.140 -0.2933 -2.0414  1.1303
  150MOL0     H20681   4.516   3.604   8.125  1.3544 -1.2331  3.0265
  150MOL0     H20682   4.485   3.201   7.839 -0.9711  0.0779  2.4326
  150MOL0     H20683   4.536   2.953   7.784 -2.6893  1.8511  0.0404
  150MOL0     H20684   5.475   2.270   8.578 -0.4449  0.2145 -0.2744
  150MOL0     H20685   5.506   2.530   8.560 -0.4569  1.9381  1.9577
  150MOL0     H20686   5.184   2.922   8.643  2.2384 -3.7221  0.6724
  150MOL0     H20687   5.156   3.155   8.603 -1.0957 -1.4299 -0.1815
  150MOL0     H20688   5.329   3.505   8.511  3.9423 -1.7730 -0.4270
  150MOL0     H20689   5.212   3.383   8.530 -0.9677  1.5291  0.1913
  150MOL0     H20690   5.185   3.431   8.775  1.0411 -1.8386  0.2660
  150MOL0     H20691   5.183   3.595   8.701  0.7025 -0.1283 -1.7567
  150MOL0     H20692   5.332   3.612   8.879 -1.0617 -0.9176  0.3080
  150MOL0     H20693   5.436   3.483   8.799  0.8121  1.7342 -0.7646
  150MOL0     H20694   5.484   3.728   8.804 -2.4519  0.5773  1.6419
  150MOL0     H20695   5.376   3.752   8.667  1.0645 -0.6193 -2.3908
  150MOL0     H20696   5.673   3.529   8.467 -0.7722 -0.6799  0.4302
  150MOL0     H20697   5.574   3.235   8.691 -1.5368  1.8650  2.7737
  150MOL0     H20698   5.691   2.924   8.660 -3.8075 -1.0932 -1.8418
  150MOL0     H20699   5.716   3.074   8.747 -0.0302 -0.2580 -2.6412
  150MOL0     H20700   5.673   2.923   8.833  2.2593  0.8497 -0.2732
  151MOL0     O20701   6.604  10.321   7.695 -0.1391  0.0752  0.2970
  151MOL0     C20702   6.722  10.331   7.723 -0.1138  0.6741 -0.3763
  151MOL0     O20703   6.785  10.456   7.761  0.3117  0.0547  0.4690
  151MOL0     C20704   6.718  10.576   7.726  0.0186  0.1746 -1.0739
  151MOL0     C20705   6.667  10.603   7.602 -0.9253 -0.0238 -0.6557
  151MOL0     C20706   6.598  10.724   7.580 -0.7209  0.0621 -0.0596
  151MOL0     C20707   6.577  10.819   7.685 -0.4717  0.4558 -0.1878
  151MOL0     O20708   6.493  10.923   7.674 -0.2569  0.0918  0.6362
  151MOL0     C20709   6.480  10.972   7.535  0.2134  0.6676  1.1758
  151MOL0     C20710   6.403  11.103   7.544 -0.3223  0.1386  0.1524
  151MOL0     C20711   6.482  11.226   7.517 -0.1887 -0.0900  0.0232
  151MOL0     C20712   6.399  11.344   7.574  0.5206  0.1871  0.9900
  151MOL0     C20713   6.434  11.478   7.511  1.0719  0.2527 -0.8882
  151MOL0     C20714   6.569  11.516   7.545  0.0706 -0.3906  0.9186
  151MOL0     C20715   6.610  11.646   7.476  0.1770  0.0778 -0.7089
  151MOL0     C20716   6.743  11.692   7.522  0.0486 -0.4585 -0.1769
  151MOL0     N20717   6.811  11.794   7.440 -0.2633 -0.5886 -0.2056
  151MOL0     C20718   6.822  11.802   7.308 -0.8570  0.5095 -0.4856
  151MOL0     C20719   6.889  11.921   7.286  0.3877  1.1395 -0.7704
  151MOL0     C20720   6.939  11.977   7.154  0.5357  0.5907 -0.2033
  151MOL0     C20721   6.841  12.073   7.082  0.1800  0.5072 -0.4380
  151MOL0     C20722   6.805  12.204   7.148 -0.5904 -0.0071  0.4564
  151MOL0     C20723   6.925  12.295   7.173  0.2011  0.6172 -0.9953
  151MOL0     O20724   6.958  12.386   7.064 -0.4459  0.1321  0.5559
  151MOL0     C20725   7.090  12.384   7.020  1.0152  0.6207 -0.0691
  151MOL0     C20726   7.146  12.504   6.983  0.7123 -0.3896 -1.0549
  151MOL0     C20727   7.265  12.509   6.916 -0.7468  0.3385 -0.4331
  151MOL0     C20728   7.307  12.647   6.868 -0.3335  0.2126 -0.4858
  151MOL0     C20729   7.344  12.398   6.896  0.9843 -0.6695 -0.0122
  151MOL0     C20730   7.474  12.396   6.829  0.4232 -0.3931  0.0276
  151MOL0     O20731   7.565  12.303   6.869 -0.1583 -0.2205 -0.9556
  151MOL0     C20732   7.672  12.274   6.790 -0.2147 -0.4811 -0.6086
  151MOL0     C20733   7.679  12.283   6.648 -0.1823 -0.9248  0.4874
  151MOL0     C20734   7.804  12.257   6.588  0.0754  0.5317 -0.2670
  151MOL0     C20735   7.920  12.230   6.659  0.0481 -0.4494  0.7391
  151MOL0     O20736   8.034  12.230   6.583  0.2061 -0.0821 -0.1321
  151MOL0     C20737   8.160  12.211   6.645  1.0912  0.1803  0.3665
  151MOL0     C20738   8.273  12.197   6.542 -0.1804  0.4830  0.6448
  151MOL0     C20739   8.244  12.080   6.445  0.2824 -0.9130 -0.8961
  151MOL0     C20740   8.350  12.076   6.339  0.5611 -0.3691  0.0698
  151MOL0     C20741   8.328  11.960   6.246 -0.5186 -0.3075  0.5780
  151MOL0     C20742   8.449  11.932   6.158 -0.1094  0.2864  0.0424
  151MOL0     C20743   8.438  11.797   6.081  0.1927 -0.0917  0.2811
  151MOL0     C20744   8.561  11.751   6.000 -0.9256  1.2270 -0.1933
  151MOL0    Cl20745   8.517  11.603   5.917 -0.0206 -0.6449 -0.4634
  151MOL0     C20746   7.913  12.219   6.793  0.9163  0.5144 -0.5128
  151MOL0     C20747   7.788  12.244   6.863 -0.5338 -0.2760 -0.8181
  151MOL0     O20748   7.490  12.480   6.740  0.3557 -0.0956 -0.0791
  151MOL0     C20749   7.282  12.273   6.945  0.0657  0.0678 -0.2252
  151MOL0     C20750   7.163  12.259   7.009 -1.1128  0.1961 -0.0788
  151MOL0     N20751   6.912  11.979   7.404  0.2599  0.0049  1.4606
  151MOL0     N20752   6.863  11.908   7.499  0.3529  0.1136 -0.0742
  151MOL0     C20753   6.626  10.785   7.811 -0.2847 -0.0443 -0.0411
  151MOL0     C20754   6.699  10.662   7.828  0.0497  0.6435 -1.4208
  151MOL0     C20755   6.814  10.205   7.712  0.3988  0.3705 -0.0173
  151MOL0     C20756   6.939  10.217   7.649  0.2924  0.4669  1.0572
  151MOL0     C20757   7.032  10.121   7.637  0.3869  0.3153 -0.2604
  151MOL0     C20758   6.997   9.995   7.685  0.5290  0.3986 -0.3708
  151MOL0     O20759   7.079   9.886   7.703 -0.7177  0.3772  0.0399
  151MOL0     C20760   7.206   9.881   7.644  0.2996 -1.1004 -1.5353
  151MOL0     C20761   7.304   9.935   7.755  0.9633 -0.6279 -0.0815
  151MOL0     C20762   7.285   9.901   7.900 -0.3359  1.0914  1.0452
  151MOL0     C20763   7.277   9.753   7.919  0.7029 -0.8557  0.9957
  151MOL0     C20764   7.398   9.688   7.876 -0.5384  0.0555  0.0566
  151MOL0     C20765   7.516   9.663   7.841 -1.5427 -0.3602 -0.0320
  151MOL0     C20766   6.873   9.970   7.753  0.4193  0.2318  1.1067
  151MOL0     C20767   6.777  10.076   7.754  0.3195 -0.3303  0.1327
  151MOL0     C20768   6.652  10.058   7.838 -0.2944 -0.7289 -0.8428
  151MOL0     H20769   6.691  10.531   7.523  1.6151 -1.1400  0.9926
  151MOL0     H20770   6.558  10.746   7.482  0.7804  1.8881 -0.3151
  151MOL0     H20771   6.408  10.905   7.488  1.8750  0.8332 -1.8274
  151MOL0     H20772   6.569  10.969   7.472 -2.1679 -0.5187 -2.4527
  151MOL0     H20773   6.315  11.114   7.480 -2.3875  0.4646  2.8628
  151MOL0     H20774   6.365  11.110   7.647 -1.5784  2.6372 -0.3913
  151MOL0     H20775   6.572  11.223   7.578  0.3334  2.4480 -0.5090
  151MOL0     H20776   6.507  11.243   7.411  1.7338 -0.2356  0.4233
  151MOL0     H20777   6.296  11.323   7.546  0.9826  0.5727 -1.1367
  151MOL0     H20778   6.408  11.335   7.683 -1.0679 -1.8147  1.0095
  151MOL0     H20779   6.359  11.551   7.545  1.7170 -0.6890  3.0328
  151MOL0     H20780   6.430  11.472   7.402  0.4663 -0.5162 -0.8316
  151MOL0     H20781   6.581  11.529   7.653  1.6733  1.2251  0.6021
  151MOL0     H20782   6.639  11.441   7.505  2.8772  0.7833  3.2981
  151MOL0     H20783   6.536  11.724   7.492 -0.1401 -0.4622  0.5716
  151MOL0     H20784   6.601  11.621   7.370 -0.6938  0.4317 -0.7263
  151MOL0     H20785   6.728  11.739   7.619 -1.0091 -1.6824  0.2760
  151MOL0     H20786   6.815  11.612   7.541 -1.5736 -2.3741 -1.6323
  151MOL0     H20787   6.793  11.724   7.238 -1.8807 -2.1438  2.6392
  151MOL0     H20788   6.963  11.896   7.085  1.6285 -0.2913  1.1426
  151MOL0     H20789   7.037  12.023   7.170  1.2794 -0.8074 -0.5293
  151MOL0     H20790   6.856  12.084   6.974 -1.3913  0.8978 -0.6429
  151MOL0     H20791   6.749  12.012   7.081 -1.1109  2.3749 -1.3559
  151MOL0     H20792   6.737  12.250   7.076  1.5489  2.1709 -0.2910
  151MOL0     H20793   6.748  12.177   7.238 -2.5607 -0.4755 -0.8557
  151MOL0     H20794   6.893  12.354   7.260  2.1193 -1.3438  1.1675
  151MOL0     H20795   7.012  12.244   7.216  1.2510  2.7296 -0.4698
  151MOL0     H20796   7.079  12.587   7.003  0.4061 -1.4608  3.1332
  151MOL0     H20797   7.308  12.638   6.759 -0.8529  0.4488 -0.5173
  151MOL0     H20798   7.405  12.678   6.904 -0.4648 -1.8687  1.9474
  151MOL0     H20799   7.236  12.721   6.908 -0.2344 -1.2315  2.6633
  151MOL0     H20800   7.589  12.308   6.592  0.1837  0.0154  0.2884
  151MOL0     H20801   7.802  12.251   6.480 -2.9039  1.8138 -0.3701
  151MOL0     H20802   8.186  12.302   6.699  0.8223  0.8315 -0.5778
  151MOL0     H20803   8.152  12.120   6.705  2.9567 -1.3856 -1.6101
  151MOL0     H20804   8.259  12.290   6.485 -1.8973 -0.4122 -0.4841
  151MOL0     H20805   8.378  12.194   6.574  0.1147  2.4567  0.0489
  151MOL0     H20806   8.146  12.085   6.398  0.0141 -1.7642 -0.4317
  151MOL0     H20807   8.252  11.985   6.498  0.6976 -1.4560 -1.8900
  151MOL0     H20808   8.449  12.085   6.386  0.5530 -2.6174  0.6307
  151MOL0     H20809   8.335  12.166   6.279 -1.0323 -0.8242 -0.2474
  151MOL0     H20810   8.301  11.878   6.314  0.1779 -0.0239  1.2042
  151MOL0     H20811   8.240  11.967   6.182  0.0891  2.7002 -0.0411
  151MOL0     H20812   8.538  11.929   6.221 -0.8285 -1.2232  1.0292
  151MOL0     H20813   8.465  12.020   6.095  1.5847  1.3894  1.8750
  151MOL0     H20814   8.347  11.784   6.022  1.4935  1.0224 -2.1421
  151MOL0     H20815   8.429  11.720   6.158 -0.5435 -2.0165 -1.6357
  151MOL0     H20816   8.644  11.735   6.069 -0.0320 -1.2012 -1.7002
  151MOL0     H20817   8.603  11.830   5.936  2.2682  2.4727  3.0868
  151MOL0     H20818   8.010  12.197   6.837  3.3668 -0.3042 -5.5681
  151MOL0     H20819   7.789  12.217   6.968  2.7573 -1.5486 -1.0584
  151MOL0     H20820   7.333  12.181   6.921 -0.4076 -0.3924  0.4740
  151MOL0     H20821   7.109  12.168   7.030 -0.3196 -0.0356  1.0688
  151MOL0     H20822   6.605  10.842   7.901 -2.1799 -3.2290  1.7335
  151MOL0     H20823   6.734  10.637   7.928  1.7338  0.1364 -2.0878
  151MOL0     H20824   6.977  10.312   7.612  1.1425  0.2834  1.4353
  151MOL0     H20825   7.129  10.145   7.595  0.3803  0.9624  0.0837
  151MOL0     H20826   7.227   9.776   7.622  0.8512 -0.9785 -1.6043
  151MOL0     H20827   7.208   9.930   7.546 -3.5029  0.0453 -1.2140
  151MOL0     H20828   7.297  10.044   7.759  0.7619 -0.6749  3.1058
  151MOL0     H20829   7.406   9.911   7.727  1.2803 -0.1500  0.6273
  151MOL0     H20830   7.371   9.939   7.956  1.7393  0.7152 -1.6868
  151MOL0     H20831   7.190   9.937   7.941  0.0043  1.4635  1.5118
  151MOL0     H20832   7.189   9.711   7.871  1.3864  0.6969 -1.8159
  151MOL0     H20833   7.272   9.722   8.024 -2.0453 -1.8753  0.6282
  151MOL0     H20834   7.596   9.632   7.777 -2.9185 -3.7117 -0.3055
  151MOL0     H20835   6.847   9.870   7.787  1.0162 -0.3896 -0.1841
  151MOL0     H20836   6.642   9.954   7.871  0.1780 -0.5449 -0.0964
  151MOL0     H20837   6.648  10.131   7.919 -0.8408 -1.1913 -0.4473
  151MOL0     H20838   6.565  10.076   7.774  0.2851  0.4116 -1.3410
  152MOL0     O20839   5.613  10.673   6.183 -0.2488  0.6740  0.4715
  152MOL0     C20840   5.605  10.709   6.301 -1.4544  0.1559 -0.0611
  152MOL0     O20841   5.508  10.671   6.384 -0.4813 -0.8140 -0.0670
  152MOL0     C20842   5.417  10.574   6.332 -0.7474 -0.6665  0.3028
  152MOL0     C20843   5.450  10.442   6.309 -0.0589  0.7520 -1.4582
  152MOL0     C20844   5.352  10.358   6.258 -0.0094  0.3567  0.2978
  152MOL0     C20845   5.226  10.395   6.223  0.7698 -0.6627  0.6087
  152MOL0     O20846   5.131  10.304   6.175 -0.6664 -0.0482 -1.2749
  152MOL0     C20847   5.168  10.162   6.188  0.6119  0.2917  0.2223
  152MOL0     C20848   5.053  10.058   6.161 -0.0201  0.8474  0.5519
  152MOL0     C20849   4.936  10.077   6.258 -0.6062  1.5585  0.2467
  152MOL0     C20850   4.955  10.001   6.389 -0.9171  0.4363 -0.0159
  152MOL0     C20851   4.869  10.058   6.498 -0.6044  0.6408 -0.1406
  152MOL0     C20852   4.917  10.010   6.635 -0.8531 -0.3522  0.6983
  152MOL0     C20853   4.841  10.092   6.734  1.3788  0.2307  0.5134
  152MOL0     C20854   4.691  10.042   6.745  0.3459  0.2639  0.8384
  152MOL0     N20855   4.677   9.901   6.784 -0.3293  0.1848 -0.6086
  152MOL0     C20856   4.682   9.798   6.692 -0.8866 -0.5111 -0.6779
  152MOL0     C20857   4.663   9.693   6.762 -0.2672  0.6692 -0.5264
  152MOL0     C20858   4.686   9.553   6.719 -1.2872  1.2542  0.8232
  152MOL0     C20859   4.574   9.458   6.772 -0.6527 -0.9928 -0.2204
  152MOL0     C20860   4.431   9.507   6.765 -0.6648  0.0607  0.0307
  152MOL0     C20861   4.321   9.404   6.776 -0.0788  0.0650  1.1713
  152MOL0     O20862   4.202   9.467   6.734  0.4158 -0.2789 -0.2225
  152MOL0     C20863   4.090   9.388   6.724  0.5693 -0.3816  0.1585
  152MOL0     C20864   4.078   9.248   6.712  0.3910 -0.5406 -0.0732
  152MOL0     C20865   3.951   9.191   6.708  0.5473 -0.5118 -0.5248
  152MOL0     C20866   3.953   9.042   6.695 -0.4221  0.6653 -0.4519
  152MOL0     C20867   3.828   9.266   6.687  0.0173 -0.9096  0.3559
  152MOL0     C20868   3.689   9.220   6.681 -0.0884  0.3330  0.1693
  152MOL0     O20869   3.615   9.288   6.588 -0.8012 -0.4339  0.1867
  152MOL0     C20870   3.484   9.269   6.585  0.5318 -0.7009  0.1598
  152MOL0     C20871   3.407   9.237   6.468 -1.1668 -0.0143  0.6386
  152MOL0     C20872   3.268   9.240   6.480  0.2374  0.5255  0.4596
  152MOL0     C20873   3.195   9.269   6.596  0.4768  0.7386 -0.4733
  152MOL0     O20874   3.058   9.281   6.596 -0.1497 -0.2901 -0.1237
  152MOL0     C20875   2.970   9.263   6.710 -0.0090  0.2368 -0.5042
  152MOL0     C20876   2.822   9.303   6.675 -2.1444 -0.1492 -0.3802
  152MOL0     C20877   2.777   9.216   6.560 -0.1787  0.0157  1.0320
  152MOL0     C20878   2.649   9.277   6.504  0.4722 -1.2678  0.8266
  152MOL0     C20879   2.591   9.234   6.365  0.5688  0.4387 -0.6092
  152MOL0     C20880   2.434   9.244   6.355 -0.6301 -0.3363 -0.1929
  152MOL0     C20881   2.378   9.180   6.222  0.2401  0.3149 -0.4199
  152MOL0     C20882   2.238   9.219   6.191  0.0303 -0.5740  0.2500
  152MOL0    Cl20883   2.117   9.167   6.302  0.1667  0.0083 -0.1104
  152MOL0     C20884   3.269   9.305   6.710  0.5432  0.9063  0.5783
  152MOL0     C20885   3.407   9.307   6.698  0.0768 -0.5294  0.9058
  152MOL0     O20886   3.655   9.117   6.743  0.1040 -0.1566  0.1625
  152MOL0     C20887   3.844   9.413   6.693 -0.2744  0.9589 -0.6613
  152MOL0     C20888   3.976   9.465   6.709  0.9174  0.0618 -0.8689
  152MOL0     N20889   4.645   9.722   6.898 -0.0143  0.1514 -0.7871
  152MOL0     N20890   4.660   9.853   6.910 -0.9218  0.3417 -0.1967
  152MOL0     C20891   5.191  10.530   6.249 -0.2704 -0.5438  0.2780
  152MOL0     C20892   5.288  10.615   6.308  0.2303  0.0318 -0.4609
  152MOL0     C20893   5.704  10.808   6.350 -0.7335 -0.3257  0.0671
  152MOL0     C20894   5.743  10.801   6.487 -0.3477  0.2558 -0.0447
  152MOL0     C20895   5.810  10.918   6.537  0.6506 -0.2998 -0.5383
  152MOL0     C20896   5.853  11.018   6.453  0.8737  0.6151 -0.1295
  152MOL0     O20897   5.910  11.136   6.490 -0.7386  0.0245 -0.8091
  152MOL0     C20898   5.883  11.183   6.623 -0.5228  0.2649  0.4392
  152MOL0     C20899   5.893  11.340   6.627  0.1665 -0.1969 -0.0700
  152MOL0     C20900   5.780  11.391   6.730  0.6392 -0.1739  0.3945
  152MOL0     C20901   5.788  11.544   6.739  0.4935  0.1125  0.7626
  152MOL0     C20902   5.906  11.603   6.800 -0.1439 -0.6654 -0.1767
  152MOL0     C20903   6.004  11.662   6.842  0.7481  0.8231  0.6222
  152MOL0     C20904   5.824  11.012   6.320  0.7275 -1.2683  0.9208
  152MOL0     C20905   5.749  10.912   6.267 -0.3090 -0.1438 -0.6917
  152MOL0     C20906   5.696  10.952   6.134 -0.8867 -0.1845  0.7906
  152MOL0     H20907   5.555  10.416   6.312  0.7573  3.7673  1.4865
  152MOL0     H20908   5.391  10.259   6.235 -0.4035  0.1838  0.3685
  152MOL0     H20909   5.208  10.146   6.289 -2.0655  0.3619  1.3561
  152MOL0     H20910   5.238  10.137   6.107 -0.2214 -0.2183 -0.3495
  152MOL0     H20911   5.029  10.067   6.054  1.1446  0.6978  0.2666
  152MOL0     H20912   5.099   9.960   6.177  0.8227  1.4507  2.0058
  152MOL0     H20913   4.918  10.184   6.267 -0.2361  1.6762 -0.3374
  152MOL0     H20914   4.856  10.023   6.206 -1.5734  2.5265  0.6922
  152MOL0     H20915   4.941   9.895   6.365  3.2636  0.3548 -3.2632
  152MOL0     H20916   5.059  10.014   6.421 -0.4568  1.2862 -1.7446
  152MOL0     H20917   4.765  10.028   6.477 -0.1162 -0.0415 -1.7068
  152MOL0     H20918   4.880  10.166   6.502  2.8612  0.4120 -0.8434
  152MOL0     H20919   4.917   9.901   6.639 -0.6351 -0.3835 -0.0002
  152MOL0     H20920   5.021  10.043   6.643 -1.7953  2.6102  2.2454
  152MOL0     H20921   4.847  10.198   6.710  1.2924  0.0692 -0.2582
  152MOL0     H20922   4.866  10.081   6.840 -1.6075 -2.3761  1.1100
  152MOL0     H20923   4.641  10.118   6.806 -0.3793  2.0663 -1.8138
  152MOL0     H20924   4.635  10.038   6.651 -0.5867  0.2848  1.3846
  152MOL0     H20925   4.692   9.803   6.584 -1.8109 -1.9969 -0.8562
  152MOL0     H20926   4.784   9.514   6.748 -0.8878  1.9130  0.3902
  152MOL0     H20927   4.683   9.552   6.610  1.9380  2.6984  0.6077
  152MOL0     H20928   4.584   9.362   6.721 -0.8296 -0.1619 -1.8748
  152MOL0     H20929   4.601   9.440   6.877 -0.0137  0.9742 -0.0016
  152MOL0     H20930   4.410   9.573   6.850  1.0263  2.3682 -1.2585
  152MOL0     H20931   4.419   9.545   6.663 -2.3184 -1.3411 -0.3549
  152MOL0     H20932   4.340   9.318   6.711 -0.7908 -0.0809  1.1536
  152MOL0     H20933   4.308   9.371   6.880  4.0452 -1.3068  1.4395
  152MOL0     H20934   4.170   9.190   6.714 -0.3665 -1.7474  1.2131
  152MOL0     H20935   4.050   8.999   6.720 -0.1593  2.6143  2.4248
  152MOL0     H20936   3.932   9.006   6.594  0.7096 -0.1082 -0.4303
  152MOL0     H20937   3.882   9.007   6.770  1.3599 -3.1044 -0.3124
  152MOL0     H20938   3.441   9.198   6.373 -0.5484  0.3097  0.7244
  152MOL0     H20939   3.214   9.220   6.388 -0.4832  1.4597  0.6602
  152MOL0     H20940   2.970   9.156   6.730 -1.6379  0.7505  2.8599
  152MOL0     H20941   2.999   9.301   6.808 -1.4893 -4.2264  1.9431
  152MOL0     H20942   2.760   9.281   6.763 -1.3400 -0.1829  0.1821
  152MOL0     H20943   2.817   9.409   6.649  0.8771 -0.2220 -1.6311
  152MOL0     H20944   2.741   9.121   6.599 -1.3273  0.4374  1.0152
  152MOL0     H20945   2.852   9.197   6.482 -0.5372  2.5265 -0.0324
  152MOL0     H20946   2.662   9.384   6.483 -0.9273 -1.2996 -0.3204
  152MOL0     H20947   2.577   9.263   6.585  0.2670 -2.5770  0.4430
  152MOL0     H20948   2.642   9.290   6.286  0.4348 -1.3811 -2.0642
  152MOL0     H20949   2.621   9.129   6.360  1.8188  0.8183 -1.9707
  152MOL0     H20950   2.402   9.348   6.365 -1.3682 -0.5237 -0.4789
  152MOL0     H20951   2.397   9.184   6.439 -0.9938 -2.0014 -1.4649
  152MOL0     H20952   2.368   9.074   6.249 -2.8483  0.2502 -1.4334
  152MOL0     H20953   2.441   9.197   6.134  0.7979 -0.0692 -0.1070
  152MOL0     H20954   2.204   9.185   6.093 -1.3824  3.5356 -0.9192
  152MOL0     H20955   2.225   9.327   6.176 -2.6501 -0.8955 -0.3489
  152MOL0     H20956   3.221   9.334   6.803 -1.4082  3.1151 -1.0001
  152MOL0     H20957   3.471   9.339   6.780  0.2083  0.5450  0.4030
  152MOL0     H20958   3.753   9.473   6.694 -0.7887  0.1949 -0.9131
  152MOL0     H20959   3.987   9.572   6.722 -0.4420 -0.0994  2.3413
  152MOL0     H20960   5.092  10.567   6.228 -0.4193 -1.2650 -0.3205
  152MOL0     H20961   5.264  10.715   6.345  2.4193 -0.8577  4.1413
  152MOL0     H20962   5.698  10.714   6.533  0.3012 -0.3382 -0.5054
  152MOL0     H20963   5.819  10.926   6.645 -2.7787 -0.4074 -0.1284
  152MOL0     H20964   5.786  11.152   6.664 -0.4726 -0.5152 -0.0008
  152MOL0     H20965   5.957  11.141   6.691 -0.4644 -1.5054 -0.6346
  152MOL0     H20966   5.901  11.385   6.528  3.0730 -1.8592 -0.6818
  152MOL0     H20967   5.984  11.370   6.679  1.3682 -0.2923 -2.0193
  152MOL0     H20968   5.684  11.372   6.683  2.0473 -3.2858 -1.5210
  152MOL0     H20969   5.785  11.346   6.830 -2.5337 -1.1170  0.2374
  152MOL0     H20970   5.704  11.573   6.802 -1.1127 -3.1157  0.3106
  152MOL0     H20971   5.773  11.589   6.640  4.5046  0.0719 -0.0521
  152MOL0     H20972   6.095  11.700   6.883 -0.0159  3.7723 -0.1353
  152MOL0     H20973   5.850  11.098   6.260 -2.3164  3.1430  5.1107
  152MOL0     H20974   5.775  10.925   6.063  1.0537  1.2978  2.2521
  152MOL0     H20975   5.605  10.895   6.116 -1.1139 -0.1245  1.6868
  152MOL0     H20976   5.672  11.058   6.121 -1.5525 -0.3742  0.4650
  153MOL0     O20977   0.570  10.849   4.190 -0.2419  0.3663  0.2638
  153MOL0     C20978   0.491  10.909   4.122 -0.0885 -0.2307 -0.7692
  153MOL0     O20979   0.463  10.893   3.989 -0.1908 -0.4652 -0.8521
  153MOL0     C20980   0.510  10.790   3.923 -0.8118  0.3272 -0.2964
  153MOL0     C20981   0.534  10.658   3.980  0.2158  0.6716  0.0776
  153MOL0     C20982   0.563  10.544   3.907 -0.3106  0.3598 -0.2997
  153MOL0     C20983   0.593  10.555   3.769  0.5989 -0.3333 -0.1793
  153MOL0     O20984   0.621  10.449   3.690  0.2406  0.6664 -0.2802
  153MOL0     C20985   0.719  10.355   3.746 -1.3121 -0.0993  1.3140
  153MOL0     C20986   0.862  10.401   3.722  0.3594 -0.7238  0.5445
  153MOL0     C20987   0.904  10.538   3.794 -0.3475 -0.1297  0.3494
  153MOL0     C20988   1.052  10.596   3.770  0.7092  0.2032 -0.2082
  153MOL0     C20989   1.036  10.735   3.715 -0.5733 -1.1986 -0.3341
  153MOL0     C20990   1.170  10.825   3.694  0.6270 -0.4574 -0.6248
  153MOL0     C20991   1.257  10.772   3.576 -0.8039  0.5389 -0.1416
  153MOL0     C20992   1.380  10.866   3.574 -0.2038  0.6398 -0.7704
  153MOL0     N20993   1.435  10.847   3.439  0.5150  0.6486 -0.3416
  153MOL0     C20994   1.528  10.746   3.396 -0.4614  0.5687  0.3424
  153MOL0     C20995   1.538  10.771   3.267  0.7057 -0.6090  0.6602
  153MOL0     C20996   1.613  10.703   3.153 -0.6916  0.1347 -0.3526
  153MOL0     C20997   1.533  10.564   3.125  0.1058 -0.0865 -0.5100
  153MOL0     C20998   1.555  10.497   2.994  0.2166  0.2972  0.5584
  153MOL0     C20999   1.700  10.473   2.975 -0.5196  0.0983 -0.0139
  153MOL0     O21000   1.744  10.352   3.049  0.4104 -1.4610 -0.2855
  153MOL0     C21001   1.880  10.344   3.053 -0.9270  0.1145  0.2007
  153MOL0     C21002   1.958  10.393   3.160  0.4559 -0.1857  0.5507
  153MOL0     C21003   2.093  10.371   3.166 -0.3692 -0.8172 -0.0303
  153MOL0     C21004   2.165  10.424   3.290  0.5528 -0.2779 -0.4386
  153MOL0     C21005   2.158  10.302   3.060 -0.7973  0.2279  0.5212
  153MOL0     C21006   2.306  10.279   3.046 -0.6977  0.3611 -0.6426
  153MOL0     O21007   2.377  10.308   3.161  0.1412  0.5321 -0.0221
  153MOL0     C21008   2.503  10.267   3.170 -0.4590  1.1885 -0.5256
  153MOL0     C21009   2.612  10.343   3.131 -0.1130  0.2283  0.6950
  153MOL0     C21010   2.740  10.299   3.167 -0.4861 -0.4411 -0.6281
  153MOL0     C21011   2.764  10.189   3.248  1.0557 -0.2486 -0.1343
  153MOL0     O21012   2.880  10.139   3.290  0.3474  1.1070 -0.1581
  153MOL0     C21013   2.961  10.233   3.352  0.3099  0.2266 -0.5697
  153MOL0     C21014   3.079  10.154   3.394 -0.4282 -0.0583 -1.2821
  153MOL0     C21015   3.180  10.257   3.458  0.5057 -0.0380 -1.0248
  153MOL0     C21016   3.292  10.179   3.528  0.3910  0.6756 -0.3393
  153MOL0     C21017   3.396  10.261   3.600  0.1501 -0.5374 -0.5074
  153MOL0     C21018   3.498  10.175   3.662 -0.3364  0.4082  0.4576
  153MOL0     C21019   3.598  10.265   3.735  0.5808 -0.4477 -0.5498
  153MOL0     C21020   3.714  10.185   3.798  0.2812  0.0868 -0.2496
  153MOL0    Cl21021   3.645  10.095   3.930  0.1511  0.2423 -0.1466
  153MOL0     C21022   2.647  10.122   3.284 -0.1779  0.3667  0.6700
  153MOL0     C21023   2.522  10.162   3.246 -0.5702  0.1879  0.1696
  153MOL0     O21024   2.360  10.244   2.942 -0.3004  0.0797  0.5056
  153MOL0     C21025   2.081  10.261   2.944  0.1580  0.2514 -0.3940
  153MOL0     C21026   1.940  10.282   2.940  0.4792  0.6628  0.1345
  153MOL0     N21027   1.456  10.876   3.230  0.9212  0.4600  0.2810
  153MOL0     N21028   1.395  10.926   3.330 -0.6029  0.3164 -0.8225
  153MOL0     C21029   0.571  10.679   3.710  0.4957  0.0619  0.6788
  153MOL0     C21030   0.533  10.793   3.791 -0.1728  0.2998  1.1627
  153MOL0     C21031   0.407  11.018   4.183 -0.1034 -0.7886 -1.3334
  153MOL0     C21032   0.356  11.117   4.097  0.2685 -0.0509 -0.2061
  153MOL0     C21033   0.281  11.222   4.151 -0.0134 -0.1614 -0.5810
  153MOL0     C21034   0.266  11.225   4.289 -0.5464  0.8248  0.7232
  153MOL0     O21035   0.221  11.336   4.353 -0.2063 -0.1830 -0.0600
  153MOL0     C21036   0.082  11.358   4.358  1.1367  0.6459 -0.9760
  153MOL0     C21037   0.041  11.494   4.408  0.8303 -0.4960 -0.4763
  153MOL0     C21038   0.108  11.623   4.334 -0.3483  0.1247  0.7254
  153MOL0     C21039   0.023  11.763   4.347 -1.4879  0.8465  0.9689
  153MOL0     C21040  -0.020  11.788   4.483  0.5413 -0.2571  0.0972
  153MOL0     C21041  -0.073  11.806   4.589 -1.5184  0.3194  0.2873
  153MOL0     C21042   0.307  11.128   4.375 -0.3455  1.8416  0.2063
  153MOL0     C21043   0.394  11.027   4.329  0.1841  0.1891  0.0612
  153MOL0     C21044   0.453  10.929   4.427 -0.4935  0.2016 -0.7285
  153MOL0     H21045   0.506  10.647   4.084 -2.6426 -1.7339 -0.7952
  153MOL0     H21046   0.544  10.444   3.944  0.5961  1.0061  2.0457
  153MOL0     H21047   0.713  10.268   3.680  0.6759 -0.6405  1.7614
  153MOL0     H21048   0.708  10.325   3.851 -3.4060  0.6202  1.3311
  153MOL0     H21049   0.940  10.329   3.750  1.9983  0.6125 -0.3263
  153MOL0     H21050   0.880  10.409   3.614 -3.0780 -1.2915 -0.1726
  153MOL0     H21051   0.843  10.622   3.756  1.5301  0.5731 -1.2611
  153MOL0     H21052   0.890  10.526   3.902 -0.3261 -1.0882  0.2527
  153MOL0     H21053   1.114  10.598   3.859 -1.0872 -1.6467  1.1705
  153MOL0     H21054   1.105  10.528   3.702  1.4600 -0.6669  1.2163
  153MOL0     H21055   0.971  10.794   3.781  0.0794  0.6059 -1.2334
  153MOL0     H21056   0.981  10.711   3.623 -2.0517 -3.3222  1.0270
  153MOL0     H21057   1.136  10.928   3.680 -1.9643 -0.9044  1.5453
  153MOL0     H21058   1.227  10.824   3.787  0.0647 -2.4276 -0.2693
  153MOL0     H21059   1.203  10.785   3.482  1.6169 -2.2474 -2.0884
  153MOL0     H21060   1.278  10.667   3.599  2.0675  0.7133 -1.5527
  153MOL0     H21061   1.336  10.966   3.578 -0.9918  0.2711  1.2048
  153MOL0     H21062   1.444  10.847   3.660  1.2435 -2.3899 -2.3865
  153MOL0     H21063   1.591  10.678   3.452 -0.9398  1.8378  2.5122
  153MOL0     H21064   1.721  10.703   3.171 -1.0117 -0.5028  1.9310
  153MOL0     H21065   1.592  10.770   3.069 -0.8732  2.2457  1.2679
  153MOL0     H21066   1.545  10.492   3.206 -0.5304  0.4852  0.1115
  153MOL0     H21067   1.427  10.589   3.129 -0.3809 -1.8445 -1.4785
  153MOL0     H21068   1.494  10.406   2.988 -0.8115  0.9903  0.3944
  153MOL0     H21069   1.527  10.572   2.920  1.4791 -0.0987 -0.3530
  153MOL0     H21070   1.719  10.451   2.869  0.6857 -1.2083  0.4377
  153MOL0     H21071   1.758  10.564   2.991 -1.6965  0.7247  0.7997
  153MOL0     H21072   1.917  10.441   3.249 -0.5791 -1.5027  0.8224
  153MOL0     H21073   2.094  10.447   3.370  2.8119  0.2676  1.5533
  153MOL0     H21074   2.226  10.515   3.286 -3.3637  2.6079 -0.1740
  153MOL0     H21075   2.220  10.335   3.323  1.7389  0.2455 -0.9206
  153MOL0     H21076   2.600  10.439   3.081 -1.4180  0.0145  0.5493
  153MOL0     H21077   2.826  10.364   3.154 -1.5252  0.7835 -1.7552
  153MOL0     H21078   2.991  10.319   3.291 -0.0978 -0.0492 -1.1730
  153MOL0     H21079   2.912  10.273   3.441  0.1146 -0.5863 -0.3087
  153MOL0     H21080   3.043  10.081   3.467  0.8596 -0.0597 -0.6232
  153MOL0     H21081   3.121  10.095   3.311 -0.9069 -1.3595 -0.6308
  153MOL0     H21082   3.136  10.321   3.536 -0.1839  0.7804 -2.0619
  153MOL0     H21083   3.220  10.321   3.379 -1.5661  0.2686 -1.8887
  153MOL0     H21084   3.343  10.112   3.457 -1.1352 -1.3343  0.3520
  153MOL0     H21085   3.244  10.113   3.602  0.1491  2.4755  1.1737
  153MOL0     H21086   3.436  10.343   3.540 -1.8701  0.6024 -0.3938
  153MOL0     H21087   3.351  10.318   3.682 -0.2454  2.6742 -2.7620
  153MOL0     H21088   3.552  10.106   3.597 -1.2902  0.0857 -0.0196
  153MOL0     H21089   3.458  10.108   3.739  2.9042  0.3761  2.3170
  153MOL0     H21090   3.547  10.322   3.814  2.3380 -1.0922  1.1260
  153MOL0     H21091   3.642  10.332   3.662  2.1402  1.6016  2.0759
  153MOL0     H21092   3.803  10.243   3.824  0.8196 -0.9079  0.2145
  153MOL0     H21093   3.748  10.115   3.721 -1.9359  1.0503 -2.2317
  153MOL0     H21094   2.661  10.030   3.340  1.2831  0.6138  0.7487
  153MOL0     H21095   2.434  10.099   3.258 -0.6186  0.0252 -0.9610
  153MOL0     H21096   2.132  10.217   2.859 -0.1864  2.7432 -2.0130
  153MOL0     H21097   1.881  10.252   2.854  0.4301  1.2627 -0.0437
  153MOL0     H21098   0.582  10.695   3.603  3.4023  2.3000  1.1951
  153MOL0     H21099   0.512  10.888   3.743 -1.0120 -1.5441 -2.5177
  153MOL0     H21100   0.372  11.104   3.991 -0.2150 -0.2802 -0.2574
  153MOL0     H21101   0.237  11.302   4.092 -0.0600 -1.4730 -2.4162
  153MOL0     H21102   0.030  11.342   4.263  0.7515 -2.4063 -0.3577
  153MOL0     H21103   0.033  11.285   4.423  1.4084  1.1224 -0.2253
  153MOL0     H21104   0.073  11.505   4.511  1.3955 -1.8326 -0.4783
  153MOL0     H21105  -0.067  11.503   4.393  0.9951  2.6152 -0.4071
  153MOL0     H21106   0.201  11.628   4.392 -2.6152  1.7786  4.6351
  153MOL0     H21107   0.123  11.593   4.230 -0.6617 -2.3687  1.3280
  153MOL0     H21108  -0.064  11.750   4.282  0.5626 -1.6784 -1.5309
  153MOL0     H21109   0.088  11.843   4.311 -1.3747  0.6346  0.6935
  153MOL0     H21110  -0.122  11.834   4.680  0.0909 -1.0485  1.6357
  153MOL0     H21111   0.295  11.137   4.483  1.4831 -0.8549  0.7256
  153MOL0     H21112   0.388  10.928   4.516 -0.8885 -2.0040 -0.9703
  153MOL0     H21113   0.417  10.831   4.391 -0.0664 -0.7498  1.2940
  153MOL0     H21114   0.557  10.935   4.458 -0.8373 -2.2570  1.2568
  154MOL0     O21115   6.858   0.335   6.313  0.2363 -0.3342  0.4817
  154MOL0     C21116   6.930   0.247   6.366  0.9462 -1.0660 -0.3385
  154MOL0     O21117   7.048   0.264   6.421 -0.5705 -0.2093 -0.4858
  154MOL0     C21118   7.110   0.382   6.417  0.2259  0.5165 -0.3744
  154MOL0     C21119   7.165   0.450   6.317 -1.1946  0.2756 -0.0332
  154MOL0     C21120   7.229   0.579   6.323  0.3728 -0.0405 -0.9283
  154MOL0     C21121   7.233   0.642   6.447  0.9515 -0.4567 -0.9499
  154MOL0     O21122   7.260   0.770   6.477  0.2506  0.3678  0.1880
  154MOL0     C21123   7.315   0.848   6.366 -0.7231  0.3365 -0.6034
  154MOL0     C21124   7.358   0.975   6.431 -0.1129 -0.4121 -0.4382
  154MOL0     C21125   7.406   1.072   6.324 -0.4356 -0.2689  0.3652
  154MOL0     C21126   7.426   1.222   6.375 -0.5604  0.3555 -0.6766
  154MOL0     C21127   7.538   1.294   6.306  1.2664 -0.2081 -0.2725
  154MOL0     C21128   7.562   1.432   6.381 -0.8219  0.3843  0.3138
  154MOL0     C21129   7.639   1.534   6.297  0.2880 -0.1143  0.2500
  154MOL0     C21130   7.703   1.640   6.395  0.2116  0.5584  0.4969
  154MOL0     N21131   7.782   1.732   6.318 -0.9554 -0.2151  0.3986
  154MOL0     C21132   7.741   1.831   6.222 -0.1724 -0.9733  0.4508
  154MOL0     C21133   7.853   1.878   6.165 -0.3753 -0.0452 -0.3098
  154MOL0     C21134   7.880   1.973   6.054  0.5617  0.2202  0.7899
  154MOL0     C21135   7.907   1.898   5.918 -0.1334  0.1635  1.7422
  154MOL0     C21136   7.780   1.844   5.848  0.1636  1.1663 -0.3489
  154MOL0     C21137   7.810   1.767   5.715  0.0477 -0.5365  0.5260
  154MOL0     O21138   7.873   1.642   5.735  0.0037 -0.7452  0.3406
  154MOL0     C21139   7.814   1.528   5.771  0.7426 -0.7262 -0.5613
  154MOL0     C21140   7.909   1.430   5.809  0.4739 -0.3118 -0.8908
  154MOL0     C21141   7.870   1.319   5.879  0.3505 -0.5477  0.1989
  154MOL0     C21142   7.988   1.249   5.927 -0.5976  0.6298 -0.1677
  154MOL0     C21143   7.734   1.286   5.889 -0.0707  0.3949 -1.1062
  154MOL0     C21144   7.691   1.153   5.936  0.5486 -0.2764  0.3633
  154MOL0     O21145   7.558   1.124   5.906  0.0572 -0.0957 -0.3682
  154MOL0     C21146   7.486   1.006   5.932  0.4564 -0.1972 -0.0685
  154MOL0     C21147   7.540   0.879   5.928 -0.3497  0.1437  0.1203
  154MOL0     C21148   7.454   0.770   5.944 -0.8231  0.7316  0.1061
  154MOL0     C21149   7.320   0.777   5.978 -0.4471 -0.4958 -0.3085
  154MOL0     O21150   7.250   0.665   5.996 -0.0764 -0.5642 -0.2643
  154MOL0     C21151   7.133   0.655   5.914  0.3563  0.4914  1.2459
  154MOL0     C21152   7.003   0.636   5.989  0.1112  1.2996  0.6295
  154MOL0     C21153   6.977   0.725   6.106 -0.0756 -0.7099 -0.6705
  154MOL0     C21154   6.859   0.666   6.190  0.1683  0.9767 -0.6836
  154MOL0     C21155   6.800   0.744   6.303 -1.2735 -0.5213 -0.2277
  154MOL0     C21156   6.898   0.760   6.427  0.3036 -0.1727 -0.0493
  154MOL0     C21157   6.839   0.847   6.542  0.2295  0.6328  0.5671
  154MOL0     C21158   6.946   0.860   6.645 -0.1781  0.6047 -1.1612
  154MOL0    Cl21159   6.866   0.939   6.780  0.1635  0.1184  0.1227
  154MOL0     C21160   7.273   0.906   5.997 -0.4923  0.3920  0.1253
  154MOL0     C21161   7.350   1.017   5.967 -0.3704  0.0746  1.0153
  154MOL0     O21162   7.770   1.074   5.991 -0.0767  0.1726  0.1837
  154MOL0     C21163   7.637   1.380   5.856  0.0100  0.1606 -0.3175
  154MOL0     C21164   7.678   1.505   5.799 -0.8120  0.5905 -0.8483
  154MOL0     N21165   7.957   1.806   6.218 -0.3536  0.0895  0.0497
  154MOL0     N21166   7.918   1.733   6.313 -0.2831 -1.2098 -0.1607
  154MOL0     C21167   7.177   0.564   6.556 -0.6968 -0.4533  0.4970
  154MOL0     C21168   7.119   0.441   6.537  0.7348 -1.0810 -0.2321
  154MOL0     C21169   6.866   0.098   6.378 -0.3605  0.9813  0.3668
  154MOL0     C21170   6.729   0.086   6.350  0.1580  0.6406  0.0667
  154MOL0     C21171   6.675  -0.046   6.363 -0.2189 -0.7951  0.3515
  154MOL0     C21172   6.749  -0.160   6.400  0.4870 -0.3164  0.7462
  154MOL0     O21173   6.683  -0.283   6.392 -0.3507 -0.8435 -1.1199
  154MOL0     C21174   6.750  -0.401   6.439  0.4795 -0.4071 -0.6744
  154MOL0     C21175   6.771  -0.398   6.584 -0.3818  0.7640  0.5878
  154MOL0     C21176   6.650  -0.392   6.674  0.4308 -0.3487  0.2332
  154MOL0     C21177   6.547  -0.505   6.653  0.0334  0.8794 -0.6461
  154MOL0     C21178   6.422  -0.480   6.726 -0.0437 -0.1436 -0.3185
  154MOL0     C21179   6.337  -0.486   6.808  0.3554 -0.3381  0.9813
  154MOL0     C21180   6.882  -0.141   6.420 -0.2218 -0.7215  0.4688
  154MOL0     C21181   6.944  -0.013   6.414 -0.2524  1.1824 -0.1438
  154MOL0     C21182   7.091  -0.022   6.414 -0.8406  0.8840 -0.4393
  154MOL0     H21183   7.154   0.409   6.217  1.3919  0.5651 -0.4911
  154MOL0     H21184   7.272   0.622   6.233  2.6149  0.9858  0.5271
  154MOL0     H21185   7.229   0.868   6.301 -0.0007 -0.8321 -1.9843
  154MOL0     H21186   7.394   0.808   6.302 -2.6135 -1.0478 -2.2081
  154MOL0     H21187   7.280   1.021   6.492 -0.5581  1.2474 -2.1647
  154MOL0     H21188   7.444   0.951   6.494 -0.7052  0.6042  0.8201
  154MOL0     H21189   7.496   1.027   6.281  1.4680  2.9747  0.6138
  154MOL0     H21190   7.335   1.075   6.240  0.7688  0.4437 -0.6682
  154MOL0     H21191   7.330   1.274   6.376 -1.6555 -1.5079  1.9025
  154MOL0     H21192   7.455   1.212   6.480 -2.4373 -0.1121 -0.1738
  154MOL0     H21193   7.496   1.314   6.207  2.8444  0.1817 -0.8957
  154MOL0     H21194   7.633   1.241   6.313  1.3534  0.0973  1.0828
  154MOL0     H21195   7.459   1.455   6.408 -0.8318 -1.2017  1.8128
  154MOL0     H21196   7.624   1.411   6.469  1.1734 -0.4883 -1.2261
  154MOL0     H21197   7.578   1.596   6.231  0.4279  0.8121  0.9701
  154MOL0     H21198   7.725   1.484   6.249  0.3184 -1.1301  1.3024
  154MOL0     H21199   7.612   1.674   6.445 -1.5256 -1.3322 -1.1935
  154MOL0     H21200   7.771   1.587   6.463  1.4983 -1.7175 -2.3869
  154MOL0     H21201   7.640   1.869   6.209 -0.4473 -2.1073 -0.9465
  154MOL0     H21202   7.972   2.028   6.070  2.2575 -1.9384 -0.8735
  154MOL0     H21203   7.795   2.042   6.045 -1.3715 -2.2116 -1.6063
  154MOL0     H21204   7.959   1.962   5.846 -2.2378 -1.6596 -1.6381
  154MOL0     H21205   7.970   1.810   5.935 -2.5408 -1.9171  0.5445
  154MOL0     H21206   7.736   1.776   5.922  1.5163  1.2102  0.5349
  154MOL0     H21207   7.701   1.917   5.829 -1.0321 -0.2429 -1.0091
  154MOL0     H21208   7.724   1.760   5.648  0.8111  0.9585 -0.6652
  154MOL0     H21209   7.882   1.828   5.660  1.9289 -2.2796  0.9206
  154MOL0     H21210   8.011   1.465   5.792 -0.1803  0.8421 -2.7865
  154MOL0     H21211   7.990   1.226   6.034  1.7420 -2.4859 -0.7494
  154MOL0     H21212   8.082   1.302   5.908 -0.7524  0.5938 -1.0465
  154MOL0     H21213   7.998   1.150   5.884 -0.9171  0.1742  0.7705
  154MOL0     H21214   7.648   0.865   5.923 -0.6797 -2.7726 -0.4578
  154MOL0     H21215   7.484   0.665   5.937  1.5992  1.4387 -1.5125
  154MOL0     H21216   7.116   0.743   5.851  1.1159  0.7330  1.3725
  154MOL0     H21217   7.145   0.562   5.858 -0.0476  0.7197  0.7729
  154MOL0     H21218   6.913   0.646   5.928  0.5388  1.2419 -0.0258
  154MOL0     H21219   6.999   0.532   6.022 -0.1232  1.2886  0.5681
  154MOL0     H21220   6.960   0.823   6.060  2.0270 -0.6472 -1.4373
  154MOL0     H21221   7.071   0.737   6.159  0.3997  1.4654 -1.8852
  154MOL0     H21222   6.893   0.569   6.227  0.8276  0.9348 -1.3853
  154MOL0     H21223   6.771   0.647   6.128 -0.0009  1.3022 -0.5444
  154MOL0     H21224   6.773   0.846   6.278  2.7604  1.4808  2.5038
  154MOL0     H21225   6.708   0.691   6.332 -1.1421 -0.2309  0.7415
  154MOL0     H21226   6.992   0.806   6.396 -0.4069  0.8687 -0.7044
  154MOL0     H21227   6.915   0.659   6.466  1.3273 -0.0948 -0.2579
  154MOL0     H21228   6.748   0.797   6.576  1.7670 -0.8921  2.7027
  154MOL0     H21229   6.819   0.948   6.505  1.2017  1.5521  2.4278
  154MOL0     H21230   7.034   0.909   6.603 -1.2587  1.7233 -2.2339
  154MOL0     H21231   6.964   0.756   6.671  1.2347  0.2271 -3.3617
  154MOL0     H21232   7.170   0.920   6.029 -0.8141  0.2869 -0.8065
  154MOL0     H21233   7.306   1.114   5.988 -2.7476 -0.9127  0.9350
  154MOL0     H21234   7.530   1.361   5.861  0.3248 -1.9459 -0.5370
  154MOL0     H21235   7.607   1.580   5.765  0.3769  1.5374 -1.2841
  154MOL0     H21236   7.166   0.616   6.650 -1.9204 -0.5861  0.4464
  154MOL0     H21237   7.074   0.402   6.628 -3.2223  2.6084 -0.2879
  154MOL0     H21238   6.646   0.153   6.334 -0.6270 -0.4219 -0.4408
  154MOL0     H21239   6.570  -0.053   6.333  0.7603  0.8307 -4.1442
  154MOL0     H21240   6.701  -0.489   6.395 -2.3548  2.1707 -3.1057
  154MOL0     H21241   6.849  -0.408   6.391  2.2579 -1.3864  2.7988
  154MOL0     H21242   6.833  -0.312   6.610 -0.5504  0.6463  1.4095
  154MOL0     H21243   6.826  -0.488   6.610 -3.5319 -0.8849  2.2014
  154MOL0     H21244   6.682  -0.392   6.778 -2.0445  1.3772  1.0930
  154MOL0     H21245   6.590  -0.303   6.652 -1.0336 -2.1807 -4.4627
  154MOL0     H21246   6.596  -0.596   6.688  2.2208  1.6241 -1.6180
  154MOL0     H21247   6.516  -0.520   6.549  1.2497 -0.9513 -0.7969
  154MOL0     H21248   6.249  -0.513   6.863 -2.5317  0.5924 -2.7657
  154MOL0     H21249   6.948  -0.224   6.442  1.7553  0.1655 -1.6846
  154MOL0     H21250   7.135   0.017   6.506 -1.1262 -1.7041  0.8773
  154MOL0     H21251   7.125  -0.124   6.393 -3.8683 -0.2950 -0.0696
  154MOL0     H21252   7.139   0.038   6.336 -0.6137 -0.2524 -1.2077
  155MOL0     O21253   2.320   5.960   9.268 -0.5595 -0.1343  0.1286
  155MOL0     C21254   2.360   5.880   9.187  0.3342  0.9491 -0.1555
  155MOL0     O21255   2.454   5.898   9.090  0.3228  1.2896  0.1050
  155MOL0     C21256   2.485   6.024   9.059 -0.1564 -0.1385  0.0142
  155MOL0     C21257   2.401   6.135   9.028  0.3786  0.3056 -0.3248
  155MOL0     C21258   2.457   6.260   9.006  0.1691 -0.3657  0.4628
  155MOL0     C21259   2.595   6.294   9.035  0.2030  0.4463  0.2361
  155MOL0     O21260   2.654   6.413   9.043 -0.5638 -0.2790 -0.3034
  155MOL0     C21261   2.563   6.526   9.056 -0.8232  0.0200  0.2901
  155MOL0     C21262   2.503   6.548   9.190 -0.5657  0.5689 -0.4936
  155MOL0     C21263   2.603   6.603   9.306  0.3699  0.2116 -0.3889
  155MOL0     C21264   2.555   6.608   9.454  0.3723  0.4017  0.8334
  155MOL0     C21265   2.474   6.724   9.500 -0.9234  0.6171  0.1010
  155MOL0     C21266   2.438   6.723   9.647  0.0764 -0.2562  0.1158
  155MOL0     C21267   2.328   6.626   9.686 -0.1236 -0.7287 -0.7066
  155MOL0     C21268   2.200   6.629   9.603 -0.1864 -0.8799 -0.9045
  155MOL0     N21269   2.091   6.568   9.675 -0.2990  0.3635  0.4435
  155MOL0     C21270   2.007   6.647   9.749  0.3034 -0.0904 -1.0302
  155MOL0     C21271   1.928   6.561   9.821 -0.4694  0.0837 -0.5117
  155MOL0     C21272   1.823   6.609   9.919  0.2559 -0.2953 -0.5305
  155MOL0     C21273   1.695   6.530   9.918 -0.5988  0.0733 -0.7794
  155MOL0     C21274   1.621   6.549   9.781 -0.1429 -0.3523 -0.6360
  155MOL0     C21275   1.510   6.451   9.772  0.5822  0.7650  0.1189
  155MOL0     O21276   1.556   6.311   9.791 -0.4142  0.5199 -0.0173
  155MOL0     C21277   1.465   6.243   9.863  0.1103  1.0098 -0.1356
  155MOL0     C21278   1.340   6.218   9.815 -0.1527  0.6358  0.1377
  155MOL0     C21279   1.249   6.136   9.898  1.2961 -0.4297 -0.2309
  155MOL0     C21280   1.112   6.099   9.838 -0.6346  0.3421 -0.0636
  155MOL0     C21281   1.287   6.086  10.030 -0.0915 -0.5032  0.6230
  155MOL0     C21282   1.226   5.993  10.112 -0.5601  0.6579 -0.5827
  155MOL0     O21283   1.201   5.881  10.046 -0.6644  0.1294 -0.0828
  155MOL0     C21284   1.133   5.787  10.113  0.2883 -0.2707  0.6187
  155MOL0     C21285   1.194   5.690  10.190 -0.1167  0.3393 -0.3614
  155MOL0     C21286   1.122   5.578  10.238 -0.4488 -1.6074  0.2857
  155MOL0     C21287   0.989   5.576  10.219  0.1675  0.0381 -0.1970
  155MOL0     O21288   0.911   5.473  10.262  0.1068 -0.1951 -0.5016
  155MOL0     C21289   0.943   5.387  10.362 -0.7752  0.2663  0.1236
  155MOL0     C21290   0.820   5.311  10.398  0.2477  0.4239  0.0365
  155MOL0     C21291   0.752   5.378  10.519 -0.1681  0.1237  0.2575
  155MOL0     C21292   0.604   5.321  10.534 -0.5740  0.2588  0.3753
  155MOL0     C21293   0.529   5.381  10.653 -0.7391 -0.1530 -0.2938
  155MOL0     C21294   0.579   5.342  10.797 -0.4022 -0.1095  0.4725
  155MOL0     C21295   0.468   5.383  10.900 -0.5674  0.7705  0.9659
  155MOL0     C21296   0.507   5.397  11.042 -0.8956 -0.2744 -0.1667
  155MOL0    Cl21297   0.390   5.501  11.135 -0.0280  0.7485 -0.2591
  155MOL0     C21298   0.918   5.678  10.163 -0.4706 -0.3960 -0.4122
  155MOL0     C21299   0.990   5.790  10.109 -0.0390  0.2348  0.1748
  155MOL0     O21300   1.208   6.008  10.239  0.4909  0.0603 -0.6263
  155MOL0     C21301   1.419   6.125  10.075  0.7249  0.9475  0.0219
  155MOL0     C21302   1.495   6.204   9.988  0.2000 -0.4638 -0.4299
  155MOL0     N21303   1.951   6.437   9.781  0.3269 -0.1531 -0.0386
  155MOL0     N21304   2.055   6.436   9.699 -0.8595  0.5872 -0.3721
  155MOL0     C21305   2.676   6.179   9.051 -0.3871  0.2003  0.3150
  155MOL0     C21306   2.620   6.052   9.054 -0.2466 -0.6058  0.0129
  155MOL0     C21307   2.302   5.749   9.213 -0.6228 -0.1516 -0.8247
  155MOL0     C21308   2.159   5.746   9.184 -0.8154 -0.0067  0.2809
  155MOL0     C21309   2.095   5.632   9.194 -0.1178 -0.4908 -0.2799
  155MOL0     C21310   2.158   5.515   9.239 -1.2797 -0.2379  0.4549
  155MOL0     O21311   2.084   5.401   9.267 -0.5299 -0.6229 -0.1897
  155MOL0     C21312   2.119   5.288   9.193 -0.2582 -0.5628  0.2239
  155MOL0     C21313   2.004   5.183   9.188 -1.1646 -0.6884 -0.7044
  155MOL0     C21314   1.966   5.122   9.326  0.4132 -0.3154  0.1178
  155MOL0     C21315   1.879   4.996   9.310  0.7883 -1.0978  0.7107
  155MOL0     C21316   1.775   4.982   9.416 -1.7486  0.8824  0.3107
  155MOL0     C21317   1.688   4.979   9.497 -0.6888 -0.5664 -0.7499
  155MOL0     C21318   2.296   5.515   9.268  0.0748 -0.1499  0.1671
  155MOL0     C21319   2.369   5.633   9.252 -0.9573  0.6770  0.1523
  155MOL0     C21320   2.515   5.637   9.297  0.7793  0.3547  1.1633
  155MOL0     H21321   2.293   6.127   9.019  0.0887  3.2737 -0.5848
  155MOL0     H21322   2.379   6.335   9.017 -1.2855 -2.1127  3.1184
  155MOL0     H21323   2.489   6.520   8.975  0.4220  1.6309 -1.0459
  155MOL0     H21324   2.634   6.607   9.035 -0.2835 -0.8404 -1.4226
  155MOL0     H21325   2.435   6.627   9.158 -0.9513  0.6000  0.3795
  155MOL0     H21326   2.443   6.461   9.220  0.6516 -0.7773 -1.8110
  155MOL0     H21327   2.690   6.537   9.302 -1.2948 -2.2526  1.2806
  155MOL0     H21328   2.640   6.704   9.285  3.0843 -0.3334  1.2687
  155MOL0     H21329   2.499   6.516   9.476  0.1564  0.4062  0.3323
  155MOL0     H21330   2.652   6.618   9.504  1.4070  0.2013 -1.0318
  155MOL0     H21331   2.383   6.735   9.440  1.2299 -1.6772 -3.9939
  155MOL0     H21332   2.542   6.808   9.480  1.1707 -1.4196 -1.9592
  155MOL0     H21333   2.522   6.709   9.716 -0.2366  0.0239  0.5545
  155MOL0     H21334   2.391   6.815   9.682 -3.8861 -1.6501 -1.0174
  155MOL0     H21335   2.295   6.641   9.789  1.8427 -1.2258  0.0610
  155MOL0     H21336   2.379   6.529   9.680 -1.6417 -1.7050  1.1136
  155MOL0     H21337   2.166   6.728   9.573  0.5922 -0.6932 -1.1837
  155MOL0     H21338   2.224   6.577   9.510 -0.4486  0.3176 -1.6586
  155MOL0     H21339   2.013   6.753   9.769  1.9166 -0.2285 -0.6279
  155MOL0     H21340   1.806   6.717   9.910 -0.2523 -0.4610 -1.6190
  155MOL0     H21341   1.855   6.594  10.023 -3.6945  2.4514  1.3472
  155MOL0     H21342   1.711   6.423   9.935  0.7645  0.9157  5.2617
  155MOL0     H21343   1.632   6.558  10.003  0.9525 -0.1512  0.4915
  155MOL0     H21344   1.573   6.647   9.778 -0.5544 -0.5010  0.4336
  155MOL0     H21345   1.685   6.556   9.693 -2.0453  0.0616 -2.0325
  155MOL0     H21346   1.435   6.463   9.850  0.1675 -2.4727  0.3157
  155MOL0     H21347   1.461   6.465   9.675  3.0805 -0.4236 -1.4344
  155MOL0     H21348   1.311   6.248   9.715  0.6255  0.1112 -0.2562
  155MOL0     H21349   1.030   6.163   9.873  0.2668  0.8917  1.1246
  155MOL0     H21350   1.097   5.993   9.858  0.6058  0.4188  1.4335
  155MOL0     H21351   1.117   6.113   9.730  0.0310  0.1743 -0.0577
  155MOL0     H21352   1.302   5.686  10.197 -0.2153  0.7259  2.5731
  155MOL0     H21353   1.170   5.502  10.298 -0.1915 -1.9261 -0.3162
  155MOL0     H21354   1.014   5.320  10.312  1.5774  1.7684  1.3156
  155MOL0     H21355   0.985   5.431  10.452 -2.1505  4.0945 -0.9118
  155MOL0     H21356   0.746   5.295  10.319  1.3488 -4.8034 -0.2750
  155MOL0     H21357   0.837   5.205  10.421  0.2340  0.5165  0.4841
  155MOL0     H21358   0.730   5.485  10.506 -2.4649 -0.1890  1.1229
  155MOL0     H21359   0.807   5.352  10.609  2.8880 -5.0410 -2.6385
  155MOL0     H21360   0.625   5.216  10.558 -0.6478  0.2726  0.5003
  155MOL0     H21361   0.540   5.324  10.446 -1.4306 -1.6140  0.8726
  155MOL0     H21362   0.552   5.488  10.643 -2.1617  0.1625 -0.4086
  155MOL0     H21363   0.422   5.371  10.634 -1.7739  3.7909  2.2859
  155MOL0     H21364   0.675   5.395  10.797 -0.9813  1.2970 -3.6323
  155MOL0     H21365   0.595   5.234  10.807 -0.4309 -0.2409 -0.7622
  155MOL0     H21366   0.376   5.326  10.888  0.2275 -1.3021  3.6327
  155MOL0     H21367   0.440   5.481  10.859 -1.6366 -0.3553 -1.1588
  155MOL0     H21368   0.612   5.428  11.055 -0.4116 -2.4241  1.6255
  155MOL0     H21369   0.514   5.292  11.071 -1.9932  0.1151  1.6579
  155MOL0     H21370   0.810   5.680  10.151 -0.4169  1.4182 -0.9856
  155MOL0     H21371   0.938   5.875  10.067 -0.2690 -0.9727 -2.1846
  155MOL0     H21372   1.463   6.088  10.167  0.7511  2.4520  0.6422
  155MOL0     H21373   1.593   6.235  10.023  1.1948  1.2399 -4.2306
  155MOL0     H21374   2.780   6.186   9.081 -0.2694 -2.4408  0.7783
  155MOL0     H21375   2.691   5.971   9.064  1.1716  0.3565 -1.7384
  155MOL0     H21376   2.104   5.836   9.160 -1.0863 -0.5470 -1.2381
  155MOL0     H21377   1.989   5.628   9.168 -0.2812  0.3504  0.2081
  155MOL0     H21378   2.152   5.308   9.090 -0.2511 -0.3949  0.2596
  155MOL0     H21379   2.210   5.241   9.231  1.3154  0.1881 -2.3476
  155MOL0     H21380   2.034   5.106   9.117  1.7583  0.6386 -1.0454
  155MOL0     H21381   1.913   5.224   9.141 -0.4426 -1.5297 -2.9514
  155MOL0     H21382   2.059   5.085   9.370 -0.4099 -2.2982  0.3065
  155MOL0     H21383   1.916   5.207   9.373 -0.0582  0.9712 -2.4718
  155MOL0     H21384   1.948   4.912   9.302  2.6545  0.4885 -1.1016
  155MOL0     H21385   1.830   5.001   9.213  0.3701 -2.3237  0.8503
  155MOL0     H21386   1.601   4.970   9.559 -0.1989 -1.2435 -0.1549
  155MOL0     H21387   2.343   5.423   9.304 -0.6099  0.4503  2.7887
  155MOL0     H21388   2.578   5.695   9.229 -1.1742 -0.2796 -1.3308
  155MOL0     H21389   2.525   5.664   9.403 -0.1974 -1.9503  1.9039
  155MOL0     H21390   2.553   5.534   9.295 -2.0766 -0.7695 -0.5469
  156MOL0     O21391   4.142   8.152   5.279 -0.6588  0.4822  0.5651
  156MOL0     C21392   4.178   8.267   5.292  0.3209  0.1797 -0.2666
  156MOL0     O21393   4.286   8.320   5.218  1.2805 -0.1887  0.1795
  156MOL0     C21394   4.399   8.235   5.183  0.1844 -0.2748  0.2469
  156MOL0     C21395   4.409   8.098   5.172 -0.5404  0.6910 -0.2945
  156MOL0     C21396   4.521   8.022   5.139 -0.2149 -0.4478  0.2802
  156MOL0     C21397   4.649   8.085   5.124 -0.4065  0.5703 -0.3981
  156MOL0     O21398   4.769   8.036   5.081 -0.0776  0.1506  0.2336
  156MOL0     C21399   4.805   7.898   5.112 -0.3229 -0.0294  0.6346
  156MOL0     C21400   4.874   7.880   5.237 -0.2368 -0.4930  0.3344
  156MOL0     C21401   5.019   7.866   5.212 -0.5199  0.1330  0.1043
  156MOL0     C21402   5.087   7.993   5.149 -0.3827 -0.0793 -0.2604
  156MOL0     C21403   5.232   7.960   5.113 -1.1961 -0.3422  1.6591
  156MOL0     C21404   5.312   8.078   5.050  0.1393  0.5038 -0.2011
  156MOL0     C21405   5.242   8.146   4.937  0.2408 -0.4613  0.6044
  156MOL0     C21406   5.237   8.062   4.811 -0.3136 -0.1766 -0.1583
  156MOL0     N21407   5.228   8.148   4.693 -0.0300 -0.1916  0.8952
  156MOL0     C21408   5.243   8.115   4.564  0.7657 -1.2365  0.1219
  156MOL0     C21409   5.184   8.212   4.496  0.7811 -0.5733 -0.5798
  156MOL0     C21410   5.162   8.217   4.345 -0.0509  0.4296 -0.7227
  156MOL0     C21411   5.094   8.087   4.287 -0.4738  0.5419  0.2138
  156MOL0     C21412   5.197   7.967   4.266 -0.2011 -0.2624 -0.0210
  156MOL0     C21413   5.148   7.861   4.173  0.1696 -0.9288  0.0602
  156MOL0     O21414   5.247   7.761   4.174  0.1308  0.3676 -0.2832
  156MOL0     C21415   5.258   7.668   4.073  0.1881  0.2005 -0.6374
  156MOL0     C21416   5.195   7.680   3.947 -0.2564  0.2942  1.3413
  156MOL0     C21417   5.192   7.584   3.851 -0.1410  0.6694  0.8473
  156MOL0     C21418   5.119   7.608   3.727  0.3639  0.0757  0.8051
  156MOL0     C21419   5.260   7.468   3.883 -0.5186 -0.4049 -1.0102
  156MOL0     C21420   5.249   7.361   3.792 -1.4077  1.5152  0.4534
  156MOL0     O21421   5.204   7.242   3.841 -0.0093 -0.0105 -0.1711
  156MOL0     C21422   5.150   7.147   3.751  0.4254 -0.0084 -0.7030
  156MOL0     C21423   5.108   7.034   3.818  0.9934 -0.5433  0.5457
  156MOL0     C21424   5.048   6.926   3.757 -0.3370 -1.2238 -1.1125
  156MOL0     C21425   5.010   6.951   3.623  0.3309  0.6944  0.5599
  156MOL0     O21426   4.936   6.841   3.571  0.2767 -0.8681  0.3611
  156MOL0     C21427   4.879   6.841   3.440 -0.4718 -0.4569  0.1856
  156MOL0     C21428   4.793   6.715   3.419  0.7177 -0.3366 -0.2117
  156MOL0     C21429   4.867   6.585   3.449  0.4287 -1.4091 -0.1241
  156MOL0     C21430   4.974   6.556   3.344  0.3388 -1.1843  0.0091
  156MOL0     C21431   5.030   6.420   3.370  0.6331  0.9869  0.2415
  156MOL0     C21432   5.046   6.374   3.524 -1.4685 -0.4986  0.9449
  156MOL0     C21433   5.162   6.273   3.537  0.3775 -0.4333  0.2432
  156MOL0     C21434   5.124   6.145   3.472  0.5077 -0.9238 -0.2649
  156MOL0    Cl21435   5.274   6.045   3.477 -0.1758 -0.6636  0.0479
  156MOL0     C21436   5.049   7.061   3.547 -0.3373 -0.4002 -0.6661
  156MOL0     C21437   5.111   7.166   3.614  0.4660 -0.7926 -0.8805
  156MOL0     O21438   5.303   7.376   3.681 -0.3094  0.6151 -0.5501
  156MOL0     C21439   5.330   7.444   4.007 -0.2263 -0.3708 -0.0454
  156MOL0     C21440   5.326   7.545   4.107  0.0585 -0.4939 -0.3244
  156MOL0     N21441   5.134   8.305   4.587  0.9418  0.6647 -0.4922
  156MOL0     N21442   5.146   8.249   4.704 -0.4983 -0.4762 -0.0542
  156MOL0     C21443   4.640   8.223   5.146  0.7944 -0.2751  0.0642
  156MOL0     C21444   4.520   8.296   5.167 -0.3267 -0.6756 -0.0235
  156MOL0     C21445   4.083   8.351   5.363  0.3468  0.8484 -1.2776
  156MOL0     C21446   4.076   8.488   5.337  0.0271  0.7903  0.4310
  156MOL0     C21447   3.991   8.572   5.394  0.2748  0.6458  0.5358
  156MOL0     C21448   3.900   8.534   5.495 -0.3363 -0.2706 -0.9240
  156MOL0     O21449   3.798   8.600   5.556  0.2322  0.5957 -0.8545
  156MOL0     C21450   3.792   8.744   5.551 -0.0422 -0.4405  0.3027
  156MOL0     C21451   3.654   8.792   5.494 -0.1121  0.4266  0.2835
  156MOL0     C21452   3.528   8.724   5.554  0.6141 -0.8749  0.1171
  156MOL0     C21453   3.410   8.759   5.461  1.1470 -0.5043  0.3593
  156MOL0     C21454   3.387   8.902   5.469 -0.4155 -0.6137 -0.3349
  156MOL0     C21455   3.385   9.025   5.483 -0.0786 -0.3120 -0.3328
  156MOL0     C21456   3.915   8.402   5.539 -0.3304  0.0382  0.1368
  156MOL0     C21457   4.000   8.313   5.475 -0.0094 -0.7758 -0.6860
  156MOL0     C21458   4.008   8.180   5.548 -0.0806  1.1706  0.7976
  156MOL0     H21459   4.321   8.038   5.189 -1.8163  2.7659  0.9865
  156MOL0     H21460   4.519   7.915   5.123  0.1250 -0.3417 -0.5518
  156MOL0     H21461   4.863   7.873   5.023 -0.4032  0.4880  0.4340
  156MOL0     H21462   4.712   7.841   5.108 -1.1513  1.2012  1.5757
  156MOL0     H21463   4.835   7.952   5.310  1.5204  2.0119 -1.0365
  156MOL0     H21464   4.853   7.777   5.266 -1.6354 -0.8544 -1.7782
  156MOL0     H21465   5.068   7.851   5.309  1.3127  1.5697 -0.5504
  156MOL0     H21466   5.036   7.788   5.137 -1.1979 -0.0302  0.1135
  156MOL0     H21467   5.025   8.019   5.062  1.9332  3.8761 -0.9573
  156MOL0     H21468   5.090   8.079   5.216 -0.7161 -1.4393  1.5983
  156MOL0     H21469   5.235   7.878   5.041  0.6214  1.0942  0.0045
  156MOL0     H21470   5.291   7.934   5.202 -0.3254 -1.3485  0.8077
  156MOL0     H21471   5.318   8.150   5.132 -0.8607 -2.4134  2.6608
  156MOL0     H21472   5.406   8.031   5.020  0.3465 -0.0278  1.1814
  156MOL0     H21473   5.293   8.240   4.914  0.7221 -0.6907  0.7255
  156MOL0     H21474   5.144   8.178   4.973 -1.1111 -3.4789 -0.0676
  156MOL0     H21475   5.330   8.003   4.809  1.2811  2.1076  1.3133
  156MOL0     H21476   5.150   7.997   4.816  2.3477 -4.2059 -0.9020
  156MOL0     H21477   5.290   8.032   4.511  0.3009 -0.3129 -1.7967
  156MOL0     H21478   5.265   8.233   4.312  2.0174  2.1901  5.3277
  156MOL0     H21479   5.104   8.306   4.322 -1.4143  0.3194  1.9768
  156MOL0     H21480   5.005   8.069   4.348  0.3142 -1.4560  0.8519
  156MOL0     H21481   5.061   8.112   4.185  2.9231  1.2290 -0.8310
  156MOL0     H21482   5.289   8.018   4.238  0.1989  1.6710  4.0776
  156MOL0     H21483   5.206   7.906   4.356 -3.5921 -4.7443 -2.3256
  156MOL0     H21484   5.050   7.826   4.207  1.9834 -3.4641  3.1696
  156MOL0     H21485   5.126   7.913   4.079 -0.4781  1.7832  1.6012
  156MOL0     H21486   5.148   7.775   3.923 -1.4194 -0.4748  0.4277
  156MOL0     H21487   5.175   7.592   3.634 -0.5979  1.7175 -0.1097
  156MOL0     H21488   5.080   7.710   3.721  0.1672 -0.0483 -0.4059
  156MOL0     H21489   5.035   7.539   3.722  0.9045 -0.7251  2.2325
  156MOL0     H21490   5.137   7.020   3.922 -2.0167 -0.1001  1.5323
  156MOL0     H21491   5.018   6.836   3.810 -2.1047 -0.6999 -1.1391
  156MOL0     H21492   4.811   6.925   3.427 -0.5451 -0.0212  2.8222
  156MOL0     H21493   4.966   6.834   3.374 -0.5964  1.9707 -0.3387
  156MOL0     H21494   4.718   6.726   3.498 -1.3081  3.6224 -2.4162
  156MOL0     H21495   4.759   6.709   3.315  2.5041  0.1502 -0.8613
  156MOL0     H21496   4.781   6.516   3.452 -1.1045  0.4206  0.0861
  156MOL0     H21497   4.911   6.579   3.548  1.1973  0.8406 -0.2805
  156MOL0     H21498   5.055   6.629   3.359  0.6451 -1.2787 -1.1326
  156MOL0     H21499   4.927   6.565   3.246 -2.4386  1.1988  1.4207
  156MOL0     H21500   4.958   6.344   3.339  0.4555  1.8365 -1.5099
  156MOL0     H21501   5.120   6.398   3.312 -0.8993 -1.2527 -1.4371
  156MOL0     H21502   4.953   6.333   3.564 -0.5764 -1.0808  2.5100
  156MOL0     H21503   5.083   6.458   3.583  0.3476  0.3245 -1.1973
  156MOL0     H21504   5.183   6.261   3.644  2.1660 -2.2945 -0.2632
  156MOL0     H21505   5.255   6.309   3.492  0.4177  0.1531  0.7710
  156MOL0     H21506   5.106   6.168   3.367  3.4173  2.0501 -0.2564
  156MOL0     H21507   5.034   6.111   3.525 -2.3129  0.5882 -3.6859
  156MOL0     H21508   5.022   7.071   3.442 -0.7200  0.3537 -0.5057
  156MOL0     H21509   5.124   7.262   3.565  1.8461 -0.6593 -0.2803
  156MOL0     H21510   5.398   7.363   4.028 -1.6325 -1.1680  1.6946
  156MOL0     H21511   5.365   7.516   4.205  0.8513 -0.5751 -0.6566
  156MOL0     H21512   4.726   8.289   5.138  1.8036 -1.6761 -1.1867
  156MOL0     H21513   4.523   8.405   5.164  0.5760 -0.7055 -1.0078
  156MOL0     H21514   4.126   8.522   5.248  0.1929 -0.3054  0.0894
  156MOL0     H21515   3.992   8.673   5.353 -1.0954 -0.0513 -1.3697
  156MOL0     H21516   3.816   8.796   5.645  0.6689  0.5328 -0.4048
  156MOL0     H21517   3.853   8.797   5.477 -1.7650  0.4952 -0.5121
  156MOL0     H21518   3.662   8.766   5.388  0.0424  0.2852  0.3283
  156MOL0     H21519   3.651   8.900   5.505  0.2884  0.4495  0.1668
  156MOL0     H21520   3.541   8.615   5.547  3.9026 -0.5212 -5.0809
  156MOL0     H21521   3.516   8.753   5.658  0.1885  0.5457 -0.3085
  156MOL0     H21522   3.315   8.713   5.490 -1.9554  4.4793 -0.7904
  156MOL0     H21523   3.417   8.723   5.358 -0.0983 -0.1181  0.1185
  156MOL0     H21524   3.390   9.131   5.497 -0.2923 -0.2670 -0.5856
  156MOL0     H21525   3.870   8.355   5.625  0.5443 -1.4865 -0.2001
  156MOL0     H21526   3.961   8.171   5.647 -0.4557 -1.9355  0.4162
  156MOL0     H21527   3.951   8.109   5.488  0.2328  2.3799 -1.0112
  156MOL0     H21528   4.110   8.145   5.566 -1.3618 -2.1420  2.4569
  157MOL0     O21529   5.659   7.735   6.528 -0.3573 -0.4942  0.1614
  157MOL0     C21530   5.734   7.659   6.586  0.5912 -0.6772 -0.1949
  157MOL0     O21531   5.724   7.640   6.719 -0.1774 -0.4749  0.0932
  157MOL0     C21532   5.616   7.672   6.792  0.4382 -0.0275 -0.4955
  157MOL0     C21533   5.510   7.577   6.826  1.1628 -0.7901 -0.6213
  157MOL0     C21534   5.392   7.614   6.893  1.0187 -0.5549 -0.6457
  157MOL0     C21535   5.381   7.755   6.935 -0.8683  0.5622  0.3247
  157MOL0     O21536   5.272   7.814   7.001  0.7981 -0.1721 -0.4038
  157MOL0     C21537   5.166   7.720   7.035 -0.7248  0.7043  0.1146
  157MOL0     C21538   5.043   7.783   7.094 -0.4794 -0.5285 -0.2104
  157MOL0     C21539   5.067   7.828   7.238  0.0562 -0.6872  0.4779
  157MOL0     C21540   4.951   7.889   7.306  0.5334  0.1862  0.1549
  157MOL0     C21541   4.991   7.976   7.430 -0.0089  0.0511 -0.2934
  157MOL0     C21542   5.050   8.111   7.394  0.2543  0.3034  1.1167
  157MOL0     C21543   5.104   8.174   7.526  1.3877 -0.9089  0.0057
  157MOL0     C21544   5.159   8.312   7.494 -0.0884  0.5890 -0.5068
  157MOL0     N21545   5.237   8.339   7.623  0.6917  1.1904  0.0137
  157MOL0     C21546   5.186   8.404   7.734  0.6973  0.6175 -0.7113
  157MOL0     C21547   5.301   8.426   7.801 -0.1061 -0.3134  0.2340
  157MOL0     C21548   5.289   8.492   7.936 -0.0519  0.2120  0.1939
  157MOL0     C21549   5.219   8.402   8.040 -1.0293  0.1716  0.4197
  157MOL0     C21550   5.189   8.465   8.178 -0.2347 -0.2632 -0.1214
  157MOL0     C21551   5.074   8.384   8.242 -0.1356 -0.7283 -0.3001
  157MOL0     O21552   5.098   8.357   8.384  0.3860  0.3188 -0.6162
  157MOL0     C21553   5.052   8.448   8.478  0.6410  0.2786  0.0121
  157MOL0     C21554   4.918   8.462   8.502 -0.0834  0.6433  1.4103
  157MOL0     C21555   4.880   8.560   8.589  0.9560 -0.2619 -0.0560
  157MOL0     C21556   4.732   8.585   8.611 -0.5680 -1.0645  0.4750
  157MOL0     C21557   4.975   8.629   8.666  0.1679 -0.4595  0.6103
  157MOL0     C21558   4.940   8.707   8.785 -0.8707  0.2230 -0.0397
  157MOL0     O21559   4.896   8.638   8.893 -0.3742  0.0523 -0.1937
  157MOL0     C21560   4.822   8.707   8.984  0.6835 -0.5384 -0.0182
  157MOL0     C21561   4.879   8.786   9.082 -0.0706 -0.5271 -0.1090
  157MOL0     C21562   4.807   8.854   9.177  0.4183  0.9789  1.2689
  157MOL0     C21563   4.671   8.835   9.178  0.3465  1.3020 -0.5808
  157MOL0     O21564   4.594   8.888   9.279 -0.6049  0.9061 -0.8904
  157MOL0     C21565   4.656   8.988   9.363 -1.2876  0.2051  0.4197
  157MOL0     C21566   4.542   9.074   9.417  1.2486 -0.0923  0.0841
  157MOL0     C21567   4.503   9.193   9.312  0.2032  0.3855  0.8173
  157MOL0     C21568   4.461   9.143   9.175 -0.1934 -0.2232 -0.1489
  157MOL0     C21569   4.377   9.249   9.115 -0.2981  0.5404  0.0946
  157MOL0     C21570   4.341   9.241   8.964 -0.1349  0.2277  0.8370
  157MOL0     C21571   4.209   9.168   8.940  0.1457  0.9519  0.6388
  157MOL0     C21572   4.091   9.259   8.966  0.3981 -0.4011  0.1168
  157MOL0    Cl21573   4.096   9.411   8.875 -0.4811  0.1433 -0.2031
  157MOL0     C21574   4.608   8.746   9.091  1.1872 -0.6116 -0.2286
  157MOL0     C21575   4.687   8.684   8.989  0.5618 -0.5161  0.3082
  157MOL0     O21576   4.972   8.826   8.775 -0.0048  0.8265 -0.7099
  157MOL0     C21577   5.108   8.619   8.636 -0.4356  0.6698 -0.7281
  157MOL0     C21578   5.147   8.525   8.540  1.3391 -0.3713  0.1426
  157MOL0     N21579   5.410   8.381   7.731 -0.2040  0.3506  0.3495
  157MOL0     N21580   5.369   8.344   7.618 -0.3330 -0.2667 -0.1575
  157MOL0     C21581   5.484   7.838   6.904 -0.5677  0.3018  0.4803
  157MOL0     C21582   5.605   7.804   6.843 -0.7263  0.0049 -0.1907
  157MOL0     C21583   5.809   7.557   6.504 -0.1777  0.3421 -0.6748
  157MOL0     C21584   5.799   7.557   6.365 -0.6350 -0.3388  0.7558
  157MOL0     C21585   5.862   7.468   6.281  0.1672  0.4706 -0.4002
  157MOL0     C21586   5.948   7.374   6.342 -0.0969 -0.4586  0.4044
  157MOL0     O21587   6.017   7.295   6.257  0.1352 -1.5609 -0.8396
  157MOL0     C21588   6.118   7.207   6.311 -0.1605  0.9755 -0.1418
  157MOL0     C21589   6.178   7.128   6.194 -0.5243  0.6026  0.3007
  157MOL0     C21590   6.070   7.041   6.127 -0.4434 -0.7316 -0.5105
  157MOL0     C21591   6.146   6.948   6.041  1.0025 -0.7892 -0.2643
  157MOL0     C21592   6.085   6.824   6.009 -0.7473 -0.7245 -0.7424
  157MOL0     C21593   6.036   6.722   5.980  1.0215  1.4438 -0.2537
  157MOL0     C21594   5.952   7.371   6.483 -0.6438 -0.6381 -0.0754
  157MOL0     C21595   5.868   7.447   6.562 -0.5413  0.0844  0.8413
  157MOL0     C21596   5.875   7.416   6.715  0.0327 -0.6816  0.5647
  157MOL0     H21597   5.502   7.472   6.800 -1.3272 -0.7997 -0.0832
  157MOL0     H21598   5.317   7.539   6.918  1.2331  0.3019  3.3086
  157MOL0     H21599   5.211   7.649   7.105  1.1951  1.5124 -0.2205
  157MOL0     H21600   5.139   7.659   6.948 -1.2210  0.3844  0.4902
  157MOL0     H21601   5.027   7.868   7.027  0.7093  0.1938  0.3885
  157MOL0     H21602   4.955   7.718   7.091 -3.3455  3.0421 -0.7259
  157MOL0     H21603   5.099   7.740   7.296 -0.8596  0.3753  2.6759
  157MOL0     H21604   5.160   7.885   7.245  1.0253 -2.0608 -0.4766
  157MOL0     H21605   4.897   7.948   7.232 -0.3515 -1.1454 -0.2907
  157MOL0     H21606   4.888   7.809   7.346 -0.2989  0.1120 -1.2510
  157MOL0     H21607   5.067   7.916   7.481  0.6053 -0.0297 -1.2818
  157MOL0     H21608   4.905   7.999   7.493  1.9918  0.8678  2.3089
  157MOL0     H21609   5.135   8.106   7.325  1.9996 -1.6528  3.2082
  157MOL0     H21610   4.973   8.174   7.349  1.6315  0.7833 -0.6739
  157MOL0     H21611   5.181   8.109   7.567  1.7961 -0.4083  0.0416
  157MOL0     H21612   5.022   8.182   7.598 -1.2573 -4.6844 -2.2204
  157MOL0     H21613   5.220   8.306   7.403  0.2467 -0.1272 -0.2516
  157MOL0     H21614   5.083   8.389   7.485  1.0549  1.8922  0.4562
  157MOL0     H21615   5.081   8.428   7.745  0.3619 -1.2315  0.6101
  157MOL0     H21616   5.218   8.574   7.920 -0.9867  0.0162  2.8496
  157MOL0     H21617   5.381   8.523   7.985 -0.0339  4.3882 -2.0067
  157MOL0     H21618   5.127   8.368   7.990 -0.4021 -0.1573 -0.5495
  157MOL0     H21619   5.281   8.312   8.043 -2.1952 -0.6466  0.8850
  157MOL0     H21620   5.281   8.449   8.235  1.6036 -0.9818 -3.1096
  157MOL0     H21621   5.157   8.569   8.171 -3.6234 -0.7835  3.6647
  157MOL0     H21622   4.987   8.451   8.237  0.8322  1.0002  2.9388
  157MOL0     H21623   5.054   8.283   8.206 -2.2294 -0.6122  0.4156
  157MOL0     H21624   4.843   8.402   8.452 -2.1794  2.1838  2.5594
  157MOL0     H21625   4.692   8.518   8.688 -0.4503 -2.4489 -0.6176
  157MOL0     H21626   4.663   8.574   8.526  1.0886  2.0540 -1.4714
  157MOL0     H21627   4.710   8.684   8.652 -0.6654 -0.5049 -0.8545
  157MOL0     H21628   4.987   8.800   9.081 -0.1376 -0.0386 -0.4583
  157MOL0     H21629   4.868   8.921   9.236  0.3402  0.5973  1.7952
  157MOL0     H21630   4.694   8.932   9.449 -0.7297 -1.4964 -0.8754
  157MOL0     H21631   4.738   9.058   9.339 -1.2924  0.7665  1.9232
  157MOL0     H21632   4.454   9.015   9.445 -0.5279  2.1876 -0.3811
  157MOL0     H21633   4.575   9.117   9.512 -1.2519  0.4731  0.7842
  157MOL0     H21634   4.585   9.263   9.297 -0.6303  1.3790  0.7817
  157MOL0     H21635   4.422   9.250   9.360  0.9890  1.2802  1.1135
  157MOL0     H21636   4.404   9.050   9.171 -1.6263  0.5035  1.9167
  157MOL0     H21637   4.556   9.136   9.121 -0.9226  4.2211 -2.5006
  157MOL0     H21638   4.284   9.262   9.173 -0.1835  1.7986  0.0244
  157MOL0     H21639   4.424   9.348   9.117 -1.7279  1.2761 -1.1528
  157MOL0     H21640   4.417   9.183   8.910 -0.3399  2.3478 -1.9740
  157MOL0     H21641   4.339   9.345   8.928  0.6432 -0.1118 -0.2593
  157MOL0     H21642   4.198   9.089   9.015  0.8705  3.2929  3.4465
  157MOL0     H21643   4.194   9.131   8.839 -4.5522 -0.6587  1.6946
  157MOL0     H21644   4.080   9.279   9.072  2.3653 -3.7391  1.0908
  157MOL0     H21645   4.008   9.204   8.919  1.5522 -0.8913 -1.4762
  157MOL0     H21646   4.500   8.756   9.091  1.3129  2.0839 -2.7379
  157MOL0     H21647   4.642   8.621   8.913  1.2223 -0.2190 -0.3396
  157MOL0     H21648   5.189   8.652   8.699 -0.6863 -0.0098 -0.0323
  157MOL0     H21649   5.250   8.494   8.522  0.5682 -5.0628  2.3393
  157MOL0     H21650   5.459   7.933   6.950  0.0507 -0.3337  2.2020
  157MOL0     H21651   5.699   7.858   6.835  0.7633 -2.5077 -0.7002
  157MOL0     H21652   5.763   7.640   6.305 -1.3535 -1.4712 -0.4046
  157MOL0     H21653   5.870   7.475   6.173  3.0555 -0.1524 -0.3085
  157MOL0     H21654   6.190   7.266   6.367 -0.7467  0.5329  1.1355
  157MOL0     H21655   6.073   7.146   6.391  2.5100  2.8037  3.0191
  157MOL0     H21656   6.259   7.071   6.240 -1.1929  0.3744  1.2197
  157MOL0     H21657   6.223   7.196   6.122  0.1468 -0.2226 -0.0778
  157MOL0     H21658   6.016   6.999   6.212  2.5425  0.8825  2.4413
  157MOL0     H21659   6.007   7.101   6.061  1.1307  0.2230 -1.2153
  157MOL0     H21660   6.247   6.930   6.077  1.3544  0.3867 -0.6272
  157MOL0     H21661   6.159   7.000   5.946 -0.2714  0.4231  0.1975
  157MOL0     H21662   5.975   6.641   5.945 -0.9089  3.2951 -1.4056
  157MOL0     H21663   6.025   7.310   6.536  1.2110  1.7100  0.2483
  157MOL0     H21664   5.899   7.506   6.772  2.0099  2.1583 -4.1673
  157MOL0     H21665   5.775   7.380   6.741 -0.0562 -0.5575  0.3927
  157MOL0     H21666   5.949   7.341   6.743  1.3998  0.8910  1.3380
  158MOL0     O21667   7.193   4.231   6.571  0.0818 -0.0405  0.3227
  158MOL0     C21668   7.245   4.117   6.551  0.9159  0.3681  0.2412
  158MOL0     O21669   7.307   4.079   6.435 -0.1304 -0.7143  0.2841
  158MOL0     C21670   7.329   4.181   6.335  0.7019 -1.0449 -0.4338
  158MOL0     C21671   7.305   4.147   6.202  0.1587  1.2623 -0.7543
  158MOL0     C21672   7.344   4.245   6.110  0.0973 -0.7417 -0.5921
  158MOL0     C21673   7.409   4.370   6.142 -0.5989  0.0068  0.8439
  158MOL0     O21674   7.462   4.452   6.040 -0.6296 -0.2691  0.3426
  158MOL0     C21675   7.561   4.547   6.091  1.1410 -0.2756  0.3921
  158MOL0     C21676   7.633   4.611   5.982 -0.7218  0.3126 -1.6464
  158MOL0     C21677   7.711   4.733   6.024  0.0925  0.4082 -0.5807
  158MOL0     C21678   7.796   4.770   5.906 -0.4367 -0.3165 -0.9815
  158MOL0     C21679   7.930   4.694   5.881  0.0205 -0.4801 -0.3114
  158MOL0     C21680   8.035   4.751   5.783  0.3413 -0.3254  0.4894
  158MOL0     C21681   8.177   4.687   5.792 -0.2513 -0.2979 -0.1145
  158MOL0     C21682   8.187   4.543   5.729  0.2048 -0.5547 -0.0476
  158MOL0     N21683   8.293   4.536   5.631 -0.7416  0.6647  0.2779
  158MOL0     C21684   8.279   4.556   5.493  0.6600  0.2219  0.5823
  158MOL0     C21685   8.398   4.559   5.433 -0.2291  0.5339  0.5062
  158MOL0     C21686   8.441   4.593   5.291 -0.3725  0.1554 -0.4784
  158MOL0     C21687   8.450   4.469   5.197  0.2314  0.1961  0.2440
  158MOL0     C21688   8.316   4.385   5.186 -0.2755 -0.0578 -0.3626
  158MOL0     C21689   8.199   4.458   5.139  0.6659 -0.2554  0.1715
  158MOL0     O21690   8.093   4.373   5.090  0.1011  0.0028  0.9850
  158MOL0     C21691   7.975   4.435   5.042  0.4768  0.7173  0.3056
  158MOL0     C21692   7.873   4.357   4.995 -0.0768 -0.6448 -0.1749
  158MOL0     C21693   7.757   4.409   4.936 -0.4022  0.0371  0.0086
  158MOL0     C21694   7.656   4.311   4.865  0.0375 -0.2141 -0.4102
  158MOL0     C21695   7.724   4.548   4.947 -0.7274 -0.5354 -2.2341
  158MOL0     C21696   7.600   4.621   4.915 -0.4515 -0.3715 -0.0542
  158MOL0     O21697   7.572   4.735   4.996  0.0897 -0.2928  0.4365
  158MOL0     C21698   7.461   4.805   4.967  0.8109 -0.0964 -0.0374
  158MOL0     C21699   7.344   4.784   5.047 -0.3774 -0.8680 -0.4130
  158MOL0     C21700   7.218   4.846   5.006 -0.0190 -0.7415 -0.1775
  158MOL0     C21701   7.222   4.943   4.905 -0.9609 -0.3664 -1.0217
  158MOL0     O21702   7.107   5.013   4.885  0.2418 -0.6311  0.1062
  158MOL0     C21703   7.104   5.120   4.789 -1.3638  0.5123 -0.6850
  158MOL0     C21704   6.962   5.171   4.789 -0.3198 -0.0363  0.5550
  158MOL0     C21705   6.946   5.284   4.697  0.2216  0.1242 -0.1886
  158MOL0     C21706   6.801   5.339   4.704  0.2668  0.5684  0.6670
  158MOL0     C21707   6.777   5.466   4.634  0.8918  1.0045  0.3590
  158MOL0     C21708   6.844   5.479   4.492 -0.4579 -0.3662 -0.1215
  158MOL0     C21709   6.800   5.605   4.420  0.7034 -0.7928 -0.6870
  158MOL0     C21710   6.836   5.590   4.275 -0.6910  0.5717  0.7219
  158MOL0    Cl21711   6.765   5.454   4.185  0.0202  0.4887  0.5222
  158MOL0     C21712   7.337   4.964   4.828  1.3556  0.2890  0.2640
  158MOL0     C21713   7.453   4.891   4.858  0.0266  0.0403  0.4859
  158MOL0     O21714   7.535   4.587   4.821 -1.4198  0.1255  0.2777
  158MOL0     C21715   7.833   4.626   4.992  0.0465 -0.0306  0.0956
  158MOL0     C21716   7.952   4.573   5.036 -0.4755  0.2524 -0.3101
  158MOL0     N21717   8.486   4.543   5.531  0.5982 -0.4211 -0.9729
  158MOL0     N21718   8.431   4.525   5.642 -0.4610 -0.0430  0.0063
  158MOL0     C21719   7.411   4.393   6.278 -1.4461 -0.0030  0.7779
  158MOL0     C21720   7.387   4.303   6.377 -0.1679  0.1557  0.7233
  158MOL0     C21721   7.221   4.004   6.647  0.4863  0.1234 -0.6401
  158MOL0     C21722   7.301   3.893   6.634 -0.2260  0.7641  0.5278
  158MOL0     C21723   7.276   3.773   6.708 -0.2067  0.5781  1.6466
  158MOL0     C21724   7.174   3.766   6.800 -0.1819  0.6286 -0.4494
  158MOL0     O21725   7.171   3.657   6.879  0.4114 -0.6296  0.4318
  158MOL0     C21726   7.124   3.659   7.017 -0.0063  0.0824  1.1941
  158MOL0     C21727   7.051   3.529   7.044  0.6210 -0.5121 -0.5434
  158MOL0     C21728   6.893   3.538   7.027 -0.4704 -0.3546  0.4794
  158MOL0     C21729   6.867   3.580   6.879  0.8209  0.6837  0.1167
  158MOL0     C21730   6.735   3.538   6.836 -1.1194 -0.7742 -0.6078
  158MOL0     C21731   6.626   3.513   6.796  0.3113  1.5898  0.6889
  158MOL0     C21732   7.094   3.878   6.817 -0.7669 -0.2463 -0.0438
  158MOL0     C21733   7.114   3.998   6.743  0.0334 -0.9992 -0.3051
  158MOL0     C21734   7.011   4.115   6.773  1.0128 -0.4501  0.0130
  158MOL0     H21735   7.265   4.051   6.171 -0.9953  1.7817 -0.9328
  158MOL0     H21736   7.327   4.217   6.007 -1.9595 -1.0200 -0.2215
  158MOL0     H21737   7.633   4.486   6.146  1.1182 -0.1956  0.5113
  158MOL0     H21738   7.516   4.623   6.156 -0.1920  2.0321 -2.9402
  158MOL0     H21739   7.703   4.533   5.953 -1.1716 -2.9835  4.5252
  158MOL0     H21740   7.556   4.631   5.906 -1.4333  0.9981 -0.7802
  158MOL0     H21741   7.644   4.817   6.045  1.9742  1.4820  1.5245
  158MOL0     H21742   7.770   4.737   6.116  0.1235  3.3823 -0.6436
  158MOL0     H21743   7.739   4.780   5.813 -2.8273  0.4116  0.4477
  158MOL0     H21744   7.832   4.871   5.927 -3.4912  1.0434 -1.6780
  158MOL0     H21745   7.903   4.599   5.833 -0.9920  1.4044 -3.8786
  158MOL0     H21746   7.973   4.681   5.980 -0.6124 -0.7329 -0.0673
  158MOL0     H21747   8.006   4.746   5.678 -3.5732 -1.0909  1.4572
  158MOL0     H21748   8.037   4.855   5.817 -0.4406 -0.3622  0.6648
  158MOL0     H21749   8.205   4.694   5.897  0.7398  2.9052 -0.4797
  158MOL0     H21750   8.246   4.750   5.735  2.8846 -1.3398  2.2688
  158MOL0     H21751   8.198   4.473   5.812  0.0470  0.9168  1.2633
  158MOL0     H21752   8.100   4.525   5.666  1.5406 -2.3473 -1.4887
  158MOL0     H21753   8.184   4.568   5.441  0.4695  0.3181  0.9459
  158MOL0     H21754   8.542   4.633   5.301  0.2276 -1.4340  0.2345
  158MOL0     H21755   8.369   4.666   5.254 -0.4803 -0.3568 -1.3119
  158MOL0     H21756   8.471   4.501   5.095 -0.6106 -3.0480 -1.0597
  158MOL0     H21757   8.540   4.410   5.218  1.1745  0.7289 -2.0262
  158MOL0     H21758   8.333   4.304   5.115  3.0432 -1.3760  1.6899
  158MOL0     H21759   8.291   4.334   5.279 -0.4566  0.9058  0.1354
  158MOL0     H21760   8.164   4.520   5.223  2.1101  1.4881 -0.4519
  158MOL0     H21761   8.232   4.531   5.065 -0.2339  1.4005  1.3213
  158MOL0     H21762   7.877   4.249   4.981  0.9444 -0.7046  0.4478
  158MOL0     H21763   7.617   4.238   4.936 -0.9094  0.6868  0.0146
  158MOL0     H21764   7.705   4.248   4.790  0.3094 -1.1720  0.5517
  158MOL0     H21765   7.569   4.361   4.821 -1.1707 -2.6484 -0.9602
  158MOL0     H21766   7.346   4.727   5.140 -0.6875 -0.8893 -0.4179
  158MOL0     H21767   7.135   4.846   5.076 -2.3062  0.4561 -2.7463
  158MOL0     H21768   7.176   5.195   4.822 -0.1471 -1.2676  0.8964
  158MOL0     H21769   7.107   5.088   4.684 -2.2916  0.8756 -0.8361
  158MOL0     H21770   6.882   5.102   4.761 -2.2681  0.9569  3.2171
  158MOL0     H21771   6.928   5.194   4.891  1.7647 -2.6140  1.9704
  158MOL0     H21772   6.962   5.272   4.589  0.2752  4.7837 -0.8867
  158MOL0     H21773   7.019   5.358   4.729 -1.1209  1.3081  0.2361
  158MOL0     H21774   6.756   5.345   4.803 -1.2107  1.9058 -0.0423
  158MOL0     H21775   6.739   5.266   4.651  0.1712 -1.3449  3.2619
  158MOL0     H21776   6.668   5.482   4.628  1.2109  4.2345  1.2219
  158MOL0     H21777   6.818   5.551   4.689 -0.8799  2.1586  0.0049
  158MOL0     H21778   6.830   5.391   4.428 -0.4194  0.9255 -1.9564
  158MOL0     H21779   6.952   5.488   4.499 -0.0334 -2.3610 -2.7039
  158MOL0     H21780   6.861   5.689   4.455 -1.0872 -0.3200  1.5745
  158MOL0     H21781   6.693   5.625   4.427  0.7457 -0.2855 -1.4018
  158MOL0     H21782   6.945   5.584   4.266 -0.8468 -0.9700 -0.7700
  158MOL0     H21783   6.805   5.688   4.238  0.6092  0.7827  0.1380
  158MOL0     H21784   7.359   5.034   4.748 -1.5635  2.0381  0.8409
  158MOL0     H21785   7.549   4.913   4.812 -0.1103  1.6660  0.9459
  158MOL0     H21786   7.823   4.734   4.998 -1.7759 -0.1186 -0.6278
  158MOL0     H21787   8.029   4.642   5.069 -1.4056 -0.0610  2.7565
  158MOL0     H21788   7.440   4.493   6.309  0.3202 -0.6275  1.2936
  158MOL0     H21789   7.413   4.331   6.478  1.2747  0.5669  0.2654
  158MOL0     H21790   7.388   3.888   6.569 -1.4514 -1.1241 -1.0692
  158MOL0     H21791   7.347   3.692   6.693 -2.1855 -0.8199 -0.9600
  158MOL0     H21792   7.208   3.663   7.086  0.3038  2.2356  0.7607
  158MOL0     H21793   7.051   3.738   7.037 -1.0211 -0.5948  0.2625
  158MOL0     H21794   7.075   3.492   7.143 -2.0172  0.3015  0.5024
  158MOL0     H21795   7.087   3.456   6.971 -1.3913 -1.1095 -1.0237
  158MOL0     H21796   6.848   3.442   7.055  0.2439  0.2742  4.3295
  158MOL0     H21797   6.863   3.618   7.095 -0.9272 -0.6526  0.6324
  158MOL0     H21798   6.931   3.524   6.810  0.0798 -0.7591  0.5681
  158MOL0     H21799   6.871   3.689   6.876  1.8771  0.6871  1.0125
  158MOL0     H21800   6.525   3.500   6.762 -0.0169  1.1414  1.7881
  158MOL0     H21801   7.005   3.860   6.877  0.0411 -3.7310  0.2685
  158MOL0     H21802   7.062   4.208   6.799  0.5811  0.0141 -0.7774
  158MOL0     H21803   6.961   4.136   6.678  2.7612  1.9959 -0.4699
  158MOL0     H21804   6.932   4.082   6.841 -0.5770 -0.3414 -1.7141
  159MOL0     O21805   1.422   1.433   9.552 -0.0524 -0.4256  0.3020
  159MOL0     C21806   1.424   1.544   9.604  0.5309 -1.0037  0.2262
  159MOL0     O21807   1.431   1.662   9.533  0.2328  0.9874 -0.0811
  159MOL0     C21808   1.478   1.666   9.398  0.6777 -0.9980 -0.4487
  159MOL0     C21809   1.404   1.728   9.306  0.5200 -0.1359  0.3667
  159MOL0     C21810   1.445   1.756   9.181 -0.1090  0.0699  0.2298
  159MOL0     C21811   1.575   1.716   9.138  0.0155  0.7855 -0.2128
  159MOL0     O21812   1.636   1.740   9.016 -0.2777  0.8227 -0.1907
  159MOL0     C21813   1.542   1.741   8.899 -0.2108  0.1121  0.3749
  159MOL0     C21814   1.644   1.747   8.779 -0.0319  0.3214 -1.0519
  159MOL0     C21815   1.573   1.762   8.649  0.4868 -0.2535  0.3971
  159MOL0     C21816   1.646   1.823   8.536 -0.2680 -0.3730 -0.2139
  159MOL0     C21817   1.665   1.978   8.548 -0.3852 -0.5362  0.5991
  159MOL0     C21818   1.710   2.048   8.416 -0.1081  0.4922  0.5558
  159MOL0     C21819   1.739   2.194   8.416 -0.6452 -0.1801 -0.7061
  159MOL0     C21820   1.830   2.264   8.523 -0.9120  0.0438 -0.1435
  159MOL0     N21821   1.755   2.302   8.645  0.2466  0.1217  0.5189
  159MOL0     C21822   1.762   2.253   8.774 -0.5117 -0.6377  0.7217
  159MOL0     C21823   1.666   2.319   8.843 -0.8973 -0.2565 -0.1533
  159MOL0     C21824   1.651   2.279   8.989 -0.7878 -0.6897 -0.4133
  159MOL0     C21825   1.623   2.135   9.010  0.4323 -0.5160 -0.0004
  159MOL0     C21826   1.481   2.104   8.955 -1.0684  0.2881 -0.6813
  159MOL0     C21827   1.368   2.187   9.014 -0.0879  0.4184  0.5888
  159MOL0     O21828   1.240   2.144   8.981  0.1785 -0.2497  0.3110
  159MOL0     C21829   1.176   2.176   8.861  0.1300 -0.2324 -1.1892
  159MOL0     C21830   1.229   2.259   8.756 -0.3017  0.4865 -0.4158
  159MOL0     C21831   1.142   2.281   8.650  0.4126  0.2136  0.1131
  159MOL0     C21832   1.189   2.369   8.537 -0.8543 -1.1183 -0.1060
  159MOL0     C21833   1.012   2.229   8.646  0.7330  0.1435  0.9053
  159MOL0     C21834   0.922   2.233   8.525  0.6516  0.5574 -0.7262
  159MOL0     O21835   0.881   2.118   8.477  0.1240  0.0482 -0.3004
  159MOL0     C21836   0.811   2.090   8.354  0.1707  0.3669  0.5069
  159MOL0     C21837   0.752   2.192   8.283 -0.1415  0.5105  0.5807
  159MOL0     C21838   0.683   2.169   8.168  0.6847 -0.2314 -1.1673
  159MOL0     C21839   0.655   2.044   8.117  0.5783  1.0710 -0.2690
  159MOL0     O21840   0.563   2.040   8.020  0.1662 -0.8616  0.2452
  159MOL0     C21841   0.522   1.920   7.952 -0.0470 -0.5571 -0.9128
  159MOL0     C21842   0.643   1.857   7.869  0.5562 -0.5584  0.5831
  159MOL0     C21843   0.595   1.771   7.746  1.2646  0.3162 -1.0798
  159MOL0     C21844   0.560   1.854   7.629 -0.1364 -0.2236  1.9669
  159MOL0     C21845   0.523   1.765   7.505  0.1154 -0.5406  0.0800
  159MOL0     C21846   0.486   1.864   7.382 -0.0390  0.0581  0.4857
  159MOL0     C21847   0.433   1.766   7.266  0.6162  0.3037 -1.3955
  159MOL0     C21848   0.324   1.814   7.163  0.1178  0.5682 -0.6704
  159MOL0    Cl21849   0.337   1.699   7.026 -0.0457 -0.4652  0.3496
  159MOL0     C21850   0.711   1.936   8.182 -0.6966 -0.1888 -1.1016
  159MOL0     C21851   0.789   1.960   8.298 -0.7722 -0.5236 -0.3093
  159MOL0     O21852   0.903   2.338   8.475  0.1503 -0.8810 -0.3569
  159MOL0     C21853   0.968   2.148   8.750  0.4270  0.0432 -0.3986
  159MOL0     C21854   1.048   2.124   8.861 -0.0040  0.7735  0.5968
  159MOL0     N21855   1.596   2.396   8.748  1.2643 -0.6533  0.1388
  159MOL0     N21856   1.650   2.388   8.638  0.3395  0.5489  0.9517
  159MOL0     C21857   1.647   1.645   9.229  0.0583  0.2970  0.5368
  159MOL0     C21858   1.606   1.626   9.353  0.5048 -0.4713 -0.2853
  159MOL0     C21859   1.426   1.558   9.746 -0.0185 -0.9585 -0.1365
  159MOL0     C21860   1.449   1.683   9.794  0.2714 -0.2260  0.2579
  159MOL0     C21861   1.453   1.704   9.935  0.2703  0.0530  0.3524
  159MOL0     C21862   1.428   1.597  10.022  0.5809  0.0565 -1.1990
  159MOL0     O21863   1.432   1.613  10.157 -0.4727 -0.1595 -0.4126
  159MOL0     C21864   1.504   1.728  10.212  0.4731  0.1252 -0.3886
  159MOL0     C21865   1.573   1.690  10.344  0.1467 -0.1821  0.0304
  159MOL0     C21866   1.686   1.596  10.300 -0.1102  0.2581  0.2013
  159MOL0     C21867   1.771   1.551  10.422 -0.3319  0.7620 -0.6677
  159MOL0     C21868   1.711   1.435  10.488 -1.7238 -0.4975  0.5777
  159MOL0     C21869   1.680   1.343  10.556 -0.3346  0.5416 -0.1763
  159MOL0     C21870   1.388   1.475   9.976 -0.1283 -0.7311 -0.5031
  159MOL0     C21871   1.386   1.450   9.832  0.3851 -0.5734 -0.2785
  159MOL0     C21872   1.359   1.305   9.792 -0.7907  1.0367  0.0656
  159MOL0     H21873   1.305   1.760   9.337 -0.2754 -3.3809  1.6733
  159MOL0     H21874   1.388   1.810   9.107 -0.3897 -0.2392  0.2155
  159MOL0     H21875   1.480   1.830   8.889 -0.0172  0.6437  3.2375
  159MOL0     H21876   1.478   1.653   8.913  0.4754 -0.0695  2.8906
  159MOL0     H21877   1.717   1.828   8.780  0.7302 -0.3592 -0.6182
  159MOL0     H21878   1.709   1.659   8.777  0.8079  0.8992  0.0414
  159MOL0     H21879   1.520   1.672   8.619 -1.1947  0.6650  0.4964
  159MOL0     H21880   1.493   1.832   8.673 -2.0239 -2.9546  0.4935
  159MOL0     H21881   1.743   1.771   8.538  0.3564  0.7675 -0.1355
  159MOL0     H21882   1.598   1.804   8.440  1.3702 -1.6316 -0.8501
  159MOL0     H21883   1.737   1.987   8.630 -1.2362 -1.8084  1.5277
  159MOL0     H21884   1.577   2.022   8.595 -1.2346 -1.0667 -0.4651
  159MOL0     H21885   1.803   1.995   8.392 -1.2449 -1.8272  0.9678
  159MOL0     H21886   1.637   2.017   8.340  1.0794 -2.1817  0.3760
  159MOL0     H21887   1.644   2.245   8.434 -1.1206 -2.0643  3.3816
  159MOL0     H21888   1.781   2.222   8.319 -3.4221  1.6262 -1.5046
  159MOL0     H21889   1.914   2.199   8.550 -2.0454 -1.1937  0.5140
  159MOL0     H21890   1.872   2.359   8.489 -1.1387  0.5755  0.9923
  159MOL0     H21891   1.831   2.177   8.812 -1.9876 -1.4712  1.8482
  159MOL0     H21892   1.578   2.340   9.043 -1.3876 -0.4503 -1.4761
  159MOL0     H21893   1.751   2.304   9.026 -0.1661 -0.5287 -2.1174
  159MOL0     H21894   1.701   2.069   8.970  1.3453  1.6334 -1.9993
  159MOL0     H21895   1.613   2.107   9.115 -1.1917  0.9238  0.2563
  159MOL0     H21896   1.478   2.101   8.846 -0.0153  3.6889 -0.9180
  159MOL0     H21897   1.449   2.003   8.982 -0.4765 -0.0212 -1.1295
  159MOL0     H21898   1.364   2.180   9.123 -4.9624  2.4845  0.8131
  159MOL0     H21899   1.384   2.288   8.977  0.7282 -0.0296 -0.3239
  159MOL0     H21900   1.314   2.326   8.760 -2.3317  3.2109 -0.3568
  159MOL0     H21901   1.176   2.315   8.443  2.7656 -4.1338  0.8860
  159MOL0     H21902   1.297   2.387   8.541 -0.6656 -2.3233  1.7364
  159MOL0     H21903   1.128   2.458   8.521  0.7954  0.4877  1.9565
  159MOL0     H21904   0.768   2.293   8.319 -0.9011 -0.1483  2.9278
  159MOL0     H21905   0.627   2.247   8.117 -0.6951  0.4579  1.2365
  159MOL0     H21906   0.493   1.854   8.034 -2.1017  1.6136  0.2367
  159MOL0     H21907   0.428   1.942   7.901 -0.5069  1.7555  0.7455
  159MOL0     H21908   0.713   1.931   7.830  1.8563 -3.4999 -3.3727
  159MOL0     H21909   0.708   1.803   7.938 -0.6931  0.7974  2.9848
  159MOL0     H21910   0.510   1.705   7.765  0.9663  0.3399 -2.2370
  159MOL0     H21911   0.679   1.707   7.717  0.9250  0.3740 -2.2564
  159MOL0     H21912   0.653   1.909   7.612  0.5234 -1.8426 -0.1011
  159MOL0     H21913   0.490   1.934   7.654 -2.0738 -0.4807 -1.9107
  159MOL0     H21914   0.593   1.695   7.459 -0.8032 -1.2150 -0.3040
  159MOL0     H21915   0.430   1.717   7.537  0.1585 -1.1102 -0.6243
  159MOL0     H21916   0.577   1.912   7.345 -0.8345  0.5807 -0.8810
  159MOL0     H21917   0.405   1.932   7.409 -0.7473  0.0088 -1.3384
  159MOL0     H21918   0.398   1.677   7.318 -2.0637  1.6174 -0.7911
  159MOL0     H21919   0.525   1.736   7.214  2.2893  3.2460 -0.4213
  159MOL0     H21920   0.356   1.915   7.136 -0.3615  1.0099  0.3546
  159MOL0     H21921   0.226   1.824   7.209  1.8944 -1.4644  4.2124
  159MOL0     H21922   0.696   1.830   8.165  3.8162 -1.0274 -1.2383
  159MOL0     H21923   0.820   1.880   8.364  0.6044 -0.1397 -0.4511
  159MOL0     H21924   0.880   2.085   8.739  0.3152  0.0206  0.5395
  159MOL0     H21925   1.022   2.053   8.938 -0.8581 -1.2990 -1.4961
  159MOL0     H21926   1.744   1.605   9.201 -2.6773 -5.1893 -2.8748
  159MOL0     H21927   1.667   1.566   9.420 -1.3918 -0.6176  1.4161
  159MOL0     H21928   1.473   1.773   9.737 -1.8049 -0.2295 -0.6933
  159MOL0     H21929   1.460   1.806   9.971 -0.9681  0.3124 -0.1024
  159MOL0     H21930   1.574   1.782  10.149  2.8621 -0.6333  1.4779
  159MOL0     H21931   1.414   1.789  10.229 -3.5207 -4.7537 -1.4692
  159MOL0     H21932   1.507   1.633  10.410  2.5871 -3.4656 -0.1390
  159MOL0     H21933   1.618   1.774  10.397  0.1712 -0.2068  0.0487
  159MOL0     H21934   1.645   1.513  10.241 -1.2238  0.3852  0.7715
  159MOL0     H21935   1.757   1.651  10.238 -1.8170 -1.1196 -3.2230
  159MOL0     H21936   1.787   1.634  10.491 -0.8961  0.3989 -0.0947
  159MOL0     H21937   1.871   1.523  10.388  0.0284  1.3662 -0.1053
  159MOL0     H21938   1.637   1.260  10.608 -2.1285 -0.8264 -3.5552
  159MOL0     H21939   1.386   1.390  10.043 -2.7319 -1.4058 -1.3118
  159MOL0     H21940   1.340   1.225   9.864 -0.8995 -0.4964 -1.5771
  159MOL0     H21941   1.274   1.297   9.723 -0.1308 -0.6790 -0.6203
  159MOL0     H21942   1.448   1.272   9.738  1.8233  2.5652  3.1303
  160MOL0     O21943   1.635   4.399   2.520  0.2061  0.3904 -0.3539
  160MOL0     C21944   1.541   4.412   2.440 -0.0059  0.0369  0.4146
  160MOL0     O21945   1.431   4.324   2.429 -0.5733  0.1211  0.5320
  160MOL0     C21946   1.437   4.204   2.494 -0.3986 -0.3665 -0.1963
  160MOL0     C21947   1.305   4.150   2.509  0.2098  0.5074 -0.3350
  160MOL0     C21948   1.292   4.031   2.584  0.5035 -0.0352 -0.5085
  160MOL0     C21949   1.398   3.952   2.617  0.1675  0.1626 -0.8511
  160MOL0     O21950   1.373   3.825   2.674  0.9788 -0.0222 -0.5902
  160MOL0     C21951   1.284   3.732   2.603  0.4958 -0.4007  0.1384
  160MOL0     C21952   1.329   3.578   2.613 -0.3879 -0.2650 -1.3512
  160MOL0     C21953   1.240   3.492   2.520  0.9878 -0.0934  0.8986
  160MOL0     C21954   1.287   3.493   2.374  0.0508  0.4253 -0.2539
  160MOL0     C21955   1.432   3.440   2.338 -0.1733  0.2812 -0.5134
  160MOL0     C21956   1.468   3.455   2.188 -0.3219  0.6792  0.3028
  160MOL0     C21957   1.608   3.395   2.139  0.4657 -0.6775  0.8368
  160MOL0     C21958   1.618   3.243   2.152  0.3350 -1.1705 -1.2477
  160MOL0     N21959   1.500   3.179   2.111 -0.4938 -0.7703 -0.3073
  160MOL0     C21960   1.401   3.123   2.177 -0.4189  0.7012 -0.4725
  160MOL0     C21961   1.295   3.109   2.090 -0.4574  0.5074  0.4280
  160MOL0     C21962   1.155   3.059   2.117  0.5510 -0.5914  0.2211
  160MOL0     C21963   1.140   2.908   2.120 -0.0748  1.1506 -0.0085
  160MOL0     C21964   1.164   2.835   1.982 -0.2060 -0.8636 -0.4770
  160MOL0     C21965   1.062   2.873   1.872  0.5706  0.3954  0.2533
  160MOL0     O21966   0.943   2.796   1.907 -0.5049 -0.0608  0.3433
  160MOL0     C21967   0.822   2.850   1.877  1.1722  0.5534  0.0100
  160MOL0     C21968   0.713   2.814   1.952  0.5894 -0.8947 -0.9284
  160MOL0     C21969   0.580   2.855   1.922 -1.1011  0.0664  0.2506
  160MOL0     C21970   0.472   2.816   2.015 -0.5628  0.0801 -0.2947
  160MOL0     C21971   0.560   2.933   1.801 -0.2144  0.3950  0.6776
  160MOL0     C21972   0.428   2.988   1.739 -0.6412 -0.1244 -0.4336
  160MOL0     O21973   0.432   3.106   1.665 -0.5674  0.5289 -0.7886
  160MOL0     C21974   0.323   3.152   1.607  0.4225  0.1609  0.9556
  160MOL0     C21975   0.298   3.118   1.473  1.1391 -0.0166 -0.2615
  160MOL0     C21976   0.193   3.178   1.397 -0.2222  1.0366 -1.1955
  160MOL0     C21977   0.130   3.294   1.455  0.3264  1.0200 -0.3898
  160MOL0     O21978   0.024   3.354   1.388  0.1756 -0.0484 -0.0336
  160MOL0     C21979   0.033   3.495   1.387  0.5799 -0.2590 -0.2821
  160MOL0     C21980  -0.093   3.573   1.370  0.7352  0.4891 -0.6271
  160MOL0     C21981  -0.181   3.534   1.243 -1.2957  0.3560 -0.6850
  160MOL0     C21982  -0.272   3.647   1.206 -0.0197 -0.1105 -0.5660
  160MOL0     C21983  -0.409   3.653   1.278 -0.9948  0.3804 -1.2773
  160MOL0     C21984  -0.511   3.547   1.236 -0.2009 -0.2330  0.3254
  160MOL0     C21985  -0.627   3.551   1.337  0.5277 -0.5821 -0.2864
  160MOL0     C21986  -0.748   3.459   1.291 -0.0506  0.0559  0.5842
  160MOL0    Cl21987  -0.858   3.416   1.421 -0.1618 -0.3169  0.4454
  160MOL0     C21988   0.152   3.324   1.593 -0.0728  0.2538 -0.1235
  160MOL0     C21989   0.252   3.251   1.665 -0.1431  0.3229 -0.3315
  160MOL0     O21990   0.336   2.909   1.749  0.8401  0.0775 -0.7684
  160MOL0     C21991   0.675   2.961   1.718  0.6043 -0.4792 -0.0534
  160MOL0     C21992   0.796   2.926   1.767  1.4131 -0.0201  0.6096
  160MOL0     N21993   1.338   3.149   1.964 -0.0585 -0.3326  0.1148
  160MOL0     N21994   1.462   3.174   1.983  0.6884 -0.1992  1.1899
  160MOL0     C21995   1.526   3.994   2.589  0.9548  0.8231 -0.2995
  160MOL0     C21996   1.545   4.115   2.528 -0.0245 -0.3058  0.9124
  160MOL0     C21997   1.562   4.506   2.324  0.4775 -1.0836 -0.3750
  160MOL0     C21998   1.481   4.495   2.207 -0.1963  0.2604  0.2932
  160MOL0     C21999   1.491   4.579   2.091  0.4201 -0.3898  0.3658
  160MOL0     C22000   1.576   4.682   2.100 -1.2025  0.0280  0.6869
  160MOL0     O22001   1.587   4.765   1.983 -0.7894  0.6536 -0.8040
  160MOL0     C22002   1.719   4.776   1.917  0.0716 -0.2713  0.5725
  160MOL0     C22003   1.734   4.670   1.807 -0.8432 -0.0149  0.0493
  160MOL0     C22004   1.631   4.682   1.701  0.3355  0.2379 -0.0733
  160MOL0     C22005   1.624   4.566   1.596 -0.5913 -0.2905 -0.4201
  160MOL0     C22006   1.717   4.590   1.493 -0.7073  0.4747  0.0432
  160MOL0     C22007   1.792   4.617   1.392 -0.7907  0.4966  0.3974
  160MOL0     C22008   1.646   4.704   2.212 -0.1057  0.6661  0.0211
  160MOL0     C22009   1.642   4.625   2.329 -0.7480 -0.2130 -0.0429
  160MOL0     C22010   1.722   4.671   2.444 -0.0312 -0.1743  0.1306
  160MOL0     H22011   1.219   4.213   2.493 -3.5934 -1.7875  6.6409
  160MOL0     H22012   1.191   4.000   2.608  0.6664  0.6990  1.2812
  160MOL0     H22013   1.261   3.760   2.500 -0.8603 -1.1133  0.2175
  160MOL0     H22014   1.186   3.744   2.651 -0.2606 -0.5973 -1.2901
  160MOL0     H22015   1.433   3.583   2.582 -0.2892  2.5597 -0.8212
  160MOL0     H22016   1.317   3.545   2.717  1.2523 -0.0790 -1.0733
  160MOL0     H22017   1.227   3.393   2.566 -1.8833  0.5627  1.7358
  160MOL0     H22018   1.139   3.534   2.510  1.3665  0.5257 -0.6061
  160MOL0     H22019   1.223   3.426   2.315  0.9539 -2.9779  2.2880
  160MOL0     H22020   1.290   3.596   2.337 -0.8809 -0.0262 -1.6412
  160MOL0     H22021   1.444   3.339   2.377  0.6065 -0.5448 -2.7302
  160MOL0     H22022   1.505   3.494   2.401  0.4746 -0.7202 -0.3855
  160MOL0     H22023   1.390   3.417   2.121 -0.7145  1.9405  0.0171
  160MOL0     H22024   1.472   3.562   2.167 -2.7774  1.1469  1.7871
  160MOL0     H22025   1.684   3.455   2.189 -0.1229 -1.5905  2.9522
  160MOL0     H22026   1.605   3.405   2.030 -2.7843 -3.7747  0.4381
  160MOL0     H22027   1.702   3.203   2.095 -0.2234 -1.5094 -1.8601
  160MOL0     H22028   1.638   3.211   2.255 -2.4244 -2.1620 -0.9272
  160MOL0     H22029   1.396   3.106   2.284  1.1778  0.5918 -0.3859
  160MOL0     H22030   1.090   3.104   2.042  2.1618  2.5709  0.5345
  160MOL0     H22031   1.118   3.105   2.209 -1.1877 -3.8901  1.3455
  160MOL0     H22032   1.219   2.878   2.190  2.3060  0.2477 -2.8807
  160MOL0     H22033   1.040   2.881   2.155 -0.6931  1.3157 -1.5560
  160MOL0     H22034   1.256   2.860   1.928 -0.1748 -0.9514 -0.4648
  160MOL0     H22035   1.170   2.727   2.002  0.2991 -0.8070 -0.2986
  160MOL0     H22036   1.056   2.982   1.866 -0.2478  0.3189 -0.5706
  160MOL0     H22037   1.103   2.826   1.782 -0.5335  1.2607 -0.7214
  160MOL0     H22038   0.725   2.755   2.042  1.1925 -2.2985 -1.8949
  160MOL0     H22039   0.510   2.771   2.107 -0.4249  0.2932 -0.2452
  160MOL0     H22040   0.405   2.761   1.949  3.1139  0.6071 -5.0776
  160MOL0     H22041   0.413   2.906   2.034 -3.5118 -1.6131 -0.8309
  160MOL0     H22042   0.360   3.033   1.447  2.0237  1.6807 -4.5350
  160MOL0     H22043   0.155   3.134   1.305 -0.5430  0.3003 -0.7229
  160MOL0     H22044   0.065   3.523   1.487 -2.6422  2.8582  0.0911
  160MOL0     H22045   0.102   3.533   1.310  0.9255  0.4726  0.3760
  160MOL0     H22046  -0.144   3.568   1.467  0.9585 -2.6669 -0.5514
  160MOL0     H22047  -0.064   3.676   1.349 -1.1149  0.9519 -1.1332
  160MOL0     H22048  -0.237   3.447   1.279 -0.2238 -0.9265 -2.0319
  160MOL0     H22049  -0.118   3.514   1.157  0.0458  2.9282 -0.3929
  160MOL0     H22050  -0.308   3.625   1.105 -4.8079  0.2815  0.7793
  160MOL0     H22051  -0.213   3.739   1.208 -2.4829  1.6424 -2.3432
  160MOL0     H22052  -0.398   3.637   1.385 -3.4494 -1.6314 -1.2352
  160MOL0     H22053  -0.442   3.755   1.259 -0.3848  0.8289 -0.0225
  160MOL0     H22054  -0.470   3.446   1.243  2.7082  0.8621  0.2509
  160MOL0     H22055  -0.541   3.572   1.133  1.2001 -2.7612 -0.7761
  160MOL0     H22056  -0.653   3.656   1.354  1.0386 -0.3243 -1.0371
  160MOL0     H22057  -0.586   3.516   1.432  2.7305  2.2568 -0.0719
  160MOL0     H22058  -0.698   3.369   1.254 -2.8320 -1.7036  0.7952
  160MOL0     H22059  -0.799   3.501   1.203  2.8156 -1.1970 -1.8693
  160MOL0     H22060   0.104   3.410   1.639 -2.1875  1.0942 -3.5696
  160MOL0     H22061   0.253   3.279   1.769  0.4392  3.7430 -1.1579
  160MOL0     H22062   0.648   3.027   1.637 -1.8476 -1.0372  0.2228
  160MOL0     H22063   0.876   2.940   1.695 -0.8152 -1.7061 -2.4351
  160MOL0     H22064   1.613   3.933   2.613  1.0922 -0.1009 -2.8315
  160MOL0     H22065   1.648   4.148   2.514 -0.4600 -0.2185 -2.8318
  160MOL0     H22066   1.417   4.407   2.202  0.3143 -0.0858 -0.1485
  160MOL0     H22067   1.431   4.564   2.002  3.2072  0.1013 -1.7396
  160MOL0     H22068   1.736   4.876   1.875  0.9019 -0.6538 -0.0379
  160MOL0     H22069   1.799   4.749   1.988  0.1167 -0.7985  0.3253
  160MOL0     H22070   1.728   4.568   1.847 -1.9278 -0.6787 -1.6465
  160MOL0     H22071   1.837   4.659   1.770 -1.4440 -1.1060 -1.3981
  160MOL0     H22072   1.531   4.681   1.743  1.0889  2.1712  1.9481
  160MOL0     H22073   1.634   4.772   1.638 -0.1451 -0.1176 -0.6168
  160MOL0     H22074   1.524   4.559   1.553 -1.6875  3.2279  1.1864
  160MOL0     H22075   1.659   4.473   1.641  0.1839  0.5669  0.7878
  160MOL0     H22076   1.836   4.634   1.296  2.3050  1.3844  1.8676
  160MOL0     H22077   1.713   4.789   2.213  0.6728  0.0830 -0.7971
  160MOL0     H22078   1.687   4.625   2.536  2.6999 -0.7992  0.9313
  160MOL0     H22079   1.829   4.650   2.440 -0.7120 -4.2814 -2.3504
  160MOL0     H22080   1.700   4.778   2.448 -0.9196 -0.3638  0.5255
  161MOL0     O22081   9.707   6.077   2.140  1.0875 -0.6003 -0.0618
  161MOL0     C22082   9.673   5.976   2.081 -0.8097  0.3350 -0.4743
  161MOL0     O22083   9.579   5.967   1.983 -0.1022  0.8100 -0.4759
  161MOL0     C22084   9.495   6.078   1.968 -0.6587 -0.2516 -0.0455
  161MOL0     C22085   9.361   6.063   1.998 -0.2123  0.0178  0.0649
  161MOL0     C22086   9.275   6.180   2.013 -0.0749  0.5536  0.4958
  161MOL0     C22087   9.320   6.309   1.981  0.0805 -0.0346  0.0055
  161MOL0     O22088   9.253   6.426   1.999  0.1422 -0.1008  1.2413
  161MOL0     C22089   9.139   6.421   2.092  0.0712  0.0035 -0.3686
  161MOL0     C22090   9.080   6.564   2.094  1.3315 -0.2812 -0.1973
  161MOL0     C22091   9.175   6.668   2.150 -0.5262  0.7115 -0.1253
  161MOL0     C22092   9.191   6.663   2.299  0.7068 -0.5170  0.5395
  161MOL0     C22093   9.255   6.797   2.342  0.9897  0.1149  0.6042
  161MOL0     C22094   9.307   6.785   2.482 -0.1242  0.4311 -0.2666
  161MOL0     C22095   9.433   6.700   2.490  0.1115 -0.1139 -0.3645
  161MOL0     C22096   9.449   6.599   2.606 -0.9639  0.5475 -0.1608
  161MOL0     N22097   9.463   6.677   2.728 -0.1568 -0.0040 -0.8092
  161MOL0     C22098   9.585   6.711   2.786 -0.8223  0.1666 -0.1345
  161MOL0     C22099   9.552   6.751   2.913  0.8245 -0.3053  1.2574
  161MOL0     C22100   9.647   6.809   3.022 -0.1166 -0.1065  0.7644
  161MOL0     C22101   9.601   6.941   3.078 -0.1235 -0.8337  0.1115
  161MOL0     C22102   9.642   6.982   3.223 -0.2092  0.5975  0.8034
  161MOL0     C22103   9.794   7.002   3.241 -0.5921  0.5753 -0.4286
  161MOL0     O22104   9.821   7.080   3.356 -0.8601 -0.2323  0.1184
  161MOL0     C22105   9.887   7.016   3.458  0.3671 -0.3417  0.2466
  161MOL0     C22106  10.020   7.036   3.484 -0.1442 -1.1760  0.2748
  161MOL0     C22107  10.089   6.968   3.583 -0.5976  0.6428 -0.1159
  161MOL0     C22108  10.225   7.019   3.619 -0.1023  0.5590 -0.1432
  161MOL0     C22109  10.033   6.861   3.656  1.1573  1.2844  0.7814
  161MOL0     C22110  10.097   6.771   3.752 -0.8965  1.0875  0.0523
  161MOL0     O22111  10.017   6.709   3.844 -0.5045 -0.5397 -0.2674
  161MOL0     C22112  10.079   6.629   3.935  0.4630  0.4123  0.5531
  161MOL0     C22113  10.151   6.514   3.890  0.3385  0.2545 -0.0156
  161MOL0     C22114  10.199   6.430   3.989  0.5228  0.5636 -0.9736
  161MOL0     C22115  10.190   6.453   4.125  0.4321 -0.0517  0.7324
  161MOL0     O22116  10.253   6.374   4.219 -0.8528 -0.2174  0.5502
  161MOL0     C22117  10.185   6.249   4.263 -0.5317  0.1499  0.9170
  161MOL0     C22118  10.274   6.152   4.334 -0.2546 -0.3104 -0.7682
  161MOL0     C22119  10.208   6.017   4.358 -0.4917  0.7001  0.3532
  161MOL0     C22120  10.146   6.016   4.505 -0.0872 -0.3770  0.0865
  161MOL0     C22121  10.013   5.943   4.524  0.1734  0.5756 -0.4198
  161MOL0     C22122   9.977   5.922   4.676 -0.8856 -0.1812 -0.2415
  161MOL0     C22123   9.944   6.061   4.730  0.0090  0.3255 -0.9571
  161MOL0     C22124   9.839   6.065   4.842  0.5636  0.0726 -0.2073
  161MOL0    Cl22125   9.670   6.055   4.781 -0.0856 -0.1189 -0.2608
  161MOL0     C22126  10.113   6.566   4.164  1.0786  1.2481 -0.0084
  161MOL0     C22127  10.046   6.652   4.070  0.1074 -0.0408 -0.4098
  161MOL0     O22128  10.223   6.769   3.755  0.3412 -0.0474  0.0786
  161MOL0     C22129   9.889   6.861   3.642 -0.7643 -0.2639 -0.4275
  161MOL0     C22130   9.818   6.928   3.542 -0.1826 -0.4909  0.0419
  161MOL0     N22131   9.416   6.735   2.926  0.1944 -0.6438 -0.1904
  161MOL0     N22132   9.361   6.701   2.812  1.2763 -0.7218  0.0172
  161MOL0     C22133   9.449   6.320   1.938 -1.9342  0.4825  1.4737
  161MOL0     C22134   9.533   6.206   1.914  0.5734 -0.2731 -0.0228
  161MOL0     C22135   9.770   5.861   2.096 -0.0774 -0.1065 -0.4184
  161MOL0     C22136   9.874   5.843   2.004 -0.0665 -0.1143  0.5733
  161MOL0     C22137   9.964   5.735   2.014  0.7539  0.2423  0.0054
  161MOL0     C22138   9.950   5.633   2.117  0.0785  0.8284 -0.5688
  161MOL0     O22139  10.046   5.539   2.142 -0.1223  0.9649  0.5920
  161MOL0     C22140  10.147   5.509   2.042  0.0960  0.2722 -0.0073
  161MOL0     C22141  10.234   5.394   2.089 -0.5244 -0.6312 -0.5146
  161MOL0     C22142  10.353   5.450   2.166 -0.7772 -0.0093  0.1119
  161MOL0     C22143  10.417   5.368   2.275  0.4689  1.1891 -0.1050
  161MOL0     C22144  10.315   5.351   2.382  0.8397  0.5788 -0.2595
  161MOL0     C22145  10.239   5.339   2.469 -0.8093  0.0336 -0.8701
  161MOL0     C22146   9.847   5.648   2.205  0.2883 -0.4319  0.8597
  161MOL0     C22147   9.756   5.757   2.199 -1.1820  0.0492  0.0708
  161MOL0     C22148   9.653   5.765   2.304 -0.2198 -0.6120 -0.1890
  161MOL0     H22149   9.313   5.973   2.035  1.4542 -0.0691  2.2349
  161MOL0     H22150   9.176   6.155   2.050 -1.0158  0.4908 -1.8909
  161MOL0     H22151   9.171   6.379   2.187  0.3819  0.3134 -0.3360
  161MOL0     H22152   9.058   6.352   2.065  0.2417 -1.2573  2.0682
  161MOL0     H22153   9.059   6.589   1.990  1.3392  0.6446  0.0123
  161MOL0     H22154   8.981   6.559   2.141 -0.3897 -3.3510 -3.6323
  161MOL0     H22155   9.270   6.650   2.099  0.8007 -2.8001  3.0800
  161MOL0     H22156   9.137   6.766   2.120  1.3379  2.2077  1.9749
  161MOL0     H22157   9.097   6.666   2.356  0.4733  2.6914  0.1794
  161MOL0     H22158   9.254   6.578   2.326 -0.1163 -1.2602  0.1498
  161MOL0     H22159   9.172   6.868   2.346 -0.9849 -2.0492  0.4253
  161MOL0     H22160   9.337   6.823   2.275  0.8424  0.2233  0.4680
  161MOL0     H22161   9.326   6.885   2.522 -3.6566  1.1805 -0.1721
  161MOL0     H22162   9.238   6.739   2.553 -0.7392  2.0227  0.2013
  161MOL0     H22163   9.510   6.777   2.501 -0.4546  0.2487  1.3622
  161MOL0     H22164   9.454   6.652   2.394 -1.5267 -2.7260  0.4633
  161MOL0     H22165   9.361   6.536   2.624  0.8333 -1.5373  2.0247
  161MOL0     H22166   9.533   6.530   2.600  0.6241  2.3144  0.6405
  161MOL0     H22167   9.688   6.717   2.752 -0.7498  1.4875  0.2377
  161MOL0     H22168   9.750   6.821   2.987 -0.3859 -0.5493 -0.1945
  161MOL0     H22169   9.647   6.725   3.093  2.0043 -0.6163  0.2314
  161MOL0     H22170   9.632   7.029   3.020  1.2921  0.9366  3.3076
  161MOL0     H22171   9.492   6.951   3.081 -0.0168  1.5600 -0.8734
  161MOL0     H22172   9.589   7.076   3.242 -0.3279  0.9904 -1.2362
  161MOL0     H22173   9.614   6.903   3.294 -0.9304 -2.7322 -2.8601
  161MOL0     H22174   9.827   6.899   3.256  0.6649  0.6274 -2.3775
  161MOL0     H22175   9.838   7.055   3.156  1.0861  0.7824  0.5140
  161MOL0     H22176  10.056   7.123   3.430 -0.3867 -0.1089  1.7547
  161MOL0     H22177  10.230   7.118   3.573  0.1644  0.0944 -1.1557
  161MOL0     H22178  10.301   6.963   3.564 -0.4188  0.2138 -0.2333
  161MOL0     H22179  10.259   7.036   3.722  0.8231  2.0060 -0.6645
  161MOL0     H22180  10.176   6.487   3.788  2.6876 -2.3393  1.1283
  161MOL0     H22181  10.264   6.344   3.974  0.5143 -0.3541  3.1741
  161MOL0     H22182  10.100   6.286   4.321 -0.2126  1.1414  0.7599
  161MOL0     H22183  10.137   6.191   4.183  0.6677 -2.4831  1.9884
  161MOL0     H22184  10.374   6.158   4.291 -0.3837  1.0598 -0.9288
  161MOL0     H22185  10.302   6.187   4.433  2.2345 -0.4594 -1.3403
  161MOL0     H22186  10.285   5.940   4.347  3.7813  4.7909 -1.8449
  161MOL0     H22187  10.134   6.004   4.279 -0.4103  2.6324 -0.0852
  161MOL0     H22188  10.122   6.120   4.528  0.8087 -0.0797 -0.2800
  161MOL0     H22189  10.222   5.988   4.579 -2.6548 -2.8240  2.0380
  161MOL0     H22190   9.933   5.993   4.468  2.4174  2.2400 -2.3991
  161MOL0     H22191  10.026   5.848   4.471  0.4689  2.6309 -4.4707
  161MOL0     H22192  10.061   5.877   4.730 -0.8157  1.3814  1.0174
  161MOL0     H22193   9.891   5.857   4.695 -1.0639  0.5952  1.8916
  161MOL0     H22194   9.911   6.135   4.656 -0.6213  2.3375  1.1868
  161MOL0     H22195  10.030   6.110   4.777 -2.3260  1.3350  2.7088
  161MOL0     H22196   9.855   6.152   4.906 -1.2256  0.4672 -0.2356
  161MOL0     H22197   9.853   5.976   4.905 -1.5878  0.2330  0.5908
  161MOL0     H22198  10.112   6.592   4.269 -1.6139  0.5867  0.2000
  161MOL0     H22199   9.984   6.740   4.085  0.4274  0.1448 -0.1565
  161MOL0     H22200   9.829   6.794   3.704 -0.6530  1.6426  1.8789
  161MOL0     H22201   9.714   6.901   3.528  0.5800 -4.8284  1.2279
  161MOL0     H22202   9.471   6.415   1.892 -1.2577 -0.0652  0.6280
  161MOL0     H22203   9.630   6.211   1.865  1.3577  2.5372  1.5374
  161MOL0     H22204   9.894   5.924   1.934 -2.9716 -0.6963 -1.1233
  161MOL0     H22205  10.053   5.734   1.953  1.8963  0.8508  1.5817
  161MOL0     H22206  10.105   5.476   1.946  3.2632 -0.5987 -1.2075
  161MOL0     H22207  10.214   5.592   2.017  4.7705 -1.8518  3.8602
  161MOL0     H22208  10.259   5.333   2.002 -0.2563 -0.5052 -0.5270
  161MOL0     H22209  10.186   5.333   2.166  0.1161  2.1756  2.3376
  161MOL0     H22210  10.429   5.481   2.094 -2.1818  0.2377 -1.3010
  161MOL0     H22211  10.319   5.545   2.210  0.5792  0.9423 -0.8110
  161MOL0     H22212  10.503   5.422   2.315  1.1661  0.0378  0.0114
  161MOL0     H22213  10.440   5.271   2.229  0.7879  2.4301 -2.7797
  161MOL0     H22214  10.174   5.317   2.551 -0.6326  0.7240 -0.5377
  161MOL0     H22215   9.842   5.573   2.283  0.2096 -2.2123 -0.7791
  161MOL0     H22216   9.648   5.687   2.381 -4.5749  0.0666  0.5015
  161MOL0     H22217   9.668   5.854   2.366  2.5762 -2.6336  2.3197
  161MOL0     H22218   9.553   5.778   2.261 -0.2524 -0.3651 -0.0391
  162MOL0     O22219   3.968  11.293   5.735 -0.8284  0.2310  0.1057
  162MOL0     C22220   3.876  11.213   5.726  0.3085  0.4568 -0.4455
  162MOL0     O22221   3.779  11.203   5.824 -0.2646 -0.6125 -0.1540
  162MOL0     C22222   3.812  11.195   5.960 -0.7318 -0.0372  0.1510
  162MOL0     C22223   3.712  11.196   6.049  0.6685 -0.3656  0.5564
  162MOL0     C22224   3.737  11.183   6.194 -0.4387  0.3949  0.0714
  162MOL0     C22225   3.867  11.175   6.248 -0.4020 -0.5131  0.3842
  162MOL0     O22226   3.883  11.160   6.389 -0.1676 -0.3054 -0.1396
  162MOL0     C22227   3.997  11.081   6.432 -0.7199 -0.3400  0.4503
  162MOL0     C22228   3.971  11.037   6.581 -0.9114  0.3094  0.7226
  162MOL0     C22229   3.851  10.950   6.587  0.9227  0.5379  0.0886
  162MOL0     C22230   3.852  10.879   6.724  0.6059  0.6381  0.6229
  162MOL0     C22231   3.755  10.759   6.725  0.0609  0.5877  0.4889
  162MOL0     C22232   3.758  10.667   6.850 -0.2234  0.4325 -0.1726
  162MOL0     C22233   3.716  10.720   6.992  0.0874 -0.1218 -0.3214
  162MOL0     C22234   3.573  10.764   7.010  0.8062 -0.3583 -0.5478
  162MOL0     N22235   3.476  10.677   6.957  0.0615  0.2546  0.2388
  162MOL0     C22236   3.483  10.536   6.959  0.2189 -0.3557 -0.4749
  162MOL0     C22237   3.380  10.494   6.879 -0.5258  0.2055 -0.3887
  162MOL0     C22238   3.331  10.348   6.858 -0.0691  0.8784  0.9699
  162MOL0     C22239   3.418  10.266   6.754 -0.7183  0.5005 -0.6679
  162MOL0     C22240   3.356  10.125   6.721  0.7725  0.4241  0.5390
  162MOL0     C22241   3.213  10.136   6.656 -0.4847 -0.3082  0.6717
  162MOL0     O22242   3.206  10.233   6.554 -0.3301 -0.7623 -0.3498
  162MOL0     C22243   3.220  10.205   6.419 -0.4764  1.0205 -0.0965
  162MOL0     C22244   3.211  10.316   6.336  0.0293  0.0611  0.2006
  162MOL0     C22245   3.202  10.298   6.202 -0.2520  0.8703  0.2725
  162MOL0     C22246   3.191  10.422   6.118  0.1169 -0.1147 -0.6459
  162MOL0     C22247   3.208  10.166   6.145 -0.4544  0.9062  0.3035
  162MOL0     C22248   3.213  10.153   5.991  0.5500  0.6823 -0.8854
  162MOL0     O22249   3.270  10.035   5.946  0.8145 -0.5160  0.1709
  162MOL0     C22250   3.270  10.024   5.807 -0.4830  0.4545 -0.0447
  162MOL0     C22251   3.387  10.061   5.732 -0.5248  0.1550 -0.1395
  162MOL0     C22252   3.386  10.062   5.593 -0.4617  0.7031 -0.0477
  162MOL0     C22253   3.271  10.028   5.524  0.4237  0.2050  0.1964
  162MOL0     O22254   3.283  10.034   5.380  0.0260 -0.1469  0.5968
  162MOL0     C22255   3.158  10.053   5.317  0.0405 -0.0076 -0.2202
  162MOL0     C22256   3.187  10.113   5.182 -0.5077 -0.0041  0.0806
  162MOL0     C22257   3.201  10.265   5.176  0.0350  0.1486  0.6558
  162MOL0     C22258   3.077  10.354   5.221 -0.6607  0.8658  0.1514
  162MOL0     C22259   3.085  10.504   5.187 -0.1884  0.5428  0.4708
  162MOL0     C22260   2.950  10.572   5.216 -0.8568 -1.3867 -0.2972
  162MOL0     C22261   2.837  10.556   5.108 -0.5642 -0.1942  0.6897
  162MOL0     C22262   2.709  10.639   5.138  0.3921  0.4886 -0.1171
  162MOL0    Cl22263   2.634  10.621   5.305  0.4364 -0.2671  1.0049
  162MOL0     C22264   3.161   9.977   5.596  0.6195 -0.1788 -0.4777
  162MOL0     C22265   3.156   9.977   5.737  0.6776 -0.0394  0.3100
  162MOL0     O22266   3.158  10.235   5.918 -0.0797 -0.1448 -0.5490
  162MOL0     C22267   3.225  10.057   6.232  0.1619  0.7085  0.1608
  162MOL0     C22268   3.220  10.072   6.366 -0.3234 -0.7703  0.9225
  162MOL0     N22269   3.324  10.608   6.812 -0.1945  0.4226 -0.1474
  162MOL0     N22270   3.384  10.712   6.868 -0.6223  0.1929  0.3430
  162MOL0     C22271   3.970  11.181   6.156 -0.4541  0.4341  0.8920
  162MOL0     C22272   3.947  11.184   6.016 -0.2006 -0.0056 -0.0288
  162MOL0     C22273   3.861  11.159   5.591 -0.0987  1.3172 -0.2314
  162MOL0     C22274   3.950  11.189   5.489  0.2476 -1.3720 -0.1760
  162MOL0     C22275   3.932  11.142   5.358  1.2042 -0.0932  0.3645
  162MOL0     C22276   3.828  11.056   5.325  0.2546 -1.1693 -0.1610
  162MOL0     O22277   3.802  10.999   5.199  1.1345 -0.1756 -0.2283
  162MOL0     C22278   3.910  10.991   5.100  0.6063 -0.5799  1.0154
  162MOL0     C22279   3.876  10.876   5.005  0.8179 -0.2345 -0.4971
  162MOL0     C22280   3.969  10.877   4.873  0.0763 -0.5489 -1.0977
  162MOL0     C22281   3.931  10.790   4.744 -0.6001  0.1058  0.5776
  162MOL0     C22282   3.848  10.857   4.645 -0.3152  0.6433  0.4730
  162MOL0     C22283   3.781  10.896   4.551  0.4546 -0.0715 -0.3419
  162MOL0     C22284   3.733  11.028   5.429  0.0403 -0.3374 -0.3591
  162MOL0     C22285   3.750  11.076   5.554  0.0091 -0.2135 -0.0225
  162MOL0     C22286   3.637  11.035   5.643 -0.1842 -0.1830  0.0395
  162MOL0     H22287   3.616  11.186   5.999 -0.3184  1.4107  1.9989
  162MOL0     H22288   3.657  11.172   6.266  0.3682 -0.4756  0.8540
  162MOL0     H22289   4.092  11.135   6.431 -0.0402 -1.2092  4.0787
  162MOL0     H22290   4.009  10.990   6.372 -0.5478 -1.0509  1.5324
  162MOL0     H22291   4.063  10.986   6.610 -1.2175 -0.4944  0.3142
  162MOL0     H22292   3.950  11.124   6.645 -0.9827 -0.6872  2.0832
  162MOL0     H22293   3.757  11.007   6.586  2.2312  2.9616 -3.2717
  162MOL0     H22294   3.857  10.897   6.492 -1.0962  1.5559 -0.6750
  162MOL0     H22295   3.949  10.843   6.758  1.5654  0.8917 -1.6663
  162MOL0     H22296   3.812  10.944   6.802 -0.4493 -0.0340  0.6574
  162MOL0     H22297   3.801  10.694   6.650  0.3153  1.9326 -0.5505
  162MOL0     H22298   3.655  10.793   6.699  0.1248  0.6449  0.3167
  162MOL0     H22299   3.696  10.581   6.823  2.0125 -0.5781 -2.6841
  162MOL0     H22300   3.855  10.617   6.857 -1.0314 -0.8988  4.5584
  162MOL0     H22301   3.783  10.802   7.020 -4.3789  3.1070  2.2537
  162MOL0     H22302   3.729  10.632   7.055 -1.9788  1.2281  2.1499
  162MOL0     H22303   3.558  10.780   7.117  2.2208 -1.3946 -0.1498
  162MOL0     H22304   3.571  10.858   6.955  0.3779 -0.8007 -1.3079
  162MOL0     H22305   3.555  10.475   7.013  0.6517 -0.5597 -1.2719
  162MOL0     H22306   3.233  10.366   6.813  0.3298 -0.0544 -0.3097
  162MOL0     H22307   3.330  10.300   6.957  2.4508 -2.7258 -0.5416
  162MOL0     H22308   3.427  10.318   6.659 -1.5550  0.3719 -0.8202
  162MOL0     H22309   3.511  10.251   6.810 -0.8873 -1.6277 -0.8835
  162MOL0     H22310   3.416  10.082   6.640  2.1891  0.9094  1.3059
  162MOL0     H22311   3.351  10.053   6.803  1.1768 -1.8005 -1.2990
  162MOL0     H22312   3.190  10.036   6.618  0.6709 -0.0588 -0.7693
  162MOL0     H22313   3.137  10.177   6.724 -0.2325  1.4323 -0.0348
  162MOL0     H22314   3.206  10.415   6.380 -2.4049 -0.5972  1.5694
  162MOL0     H22315   3.200  10.512   6.179  2.8487  1.1921 -2.7627
  162MOL0     H22316   3.099  10.419   6.058  0.9761 -0.2724 -1.9872
  162MOL0     H22317   3.278  10.431   6.052  1.3930 -0.5753  0.9295
  162MOL0     H22318   3.475  10.081   5.794  1.7237 -3.1343 -1.9611
  162MOL0     H22319   3.474  10.088   5.535 -0.1645 -0.3265 -0.0867
  162MOL0     H22320   3.099   9.961   5.325  1.3265 -0.8384  0.1024
  162MOL0     H22321   3.103  10.129   5.374 -1.5305  1.7884 -3.8430
  162MOL0     H22322   3.280  10.070   5.143 -1.8016 -1.7404 -1.2891
  162MOL0     H22323   3.107  10.086   5.111 -0.0788  0.2813 -0.5256
  162MOL0     H22324   3.215  10.302   5.074  3.5624  3.5568  2.1209
  162MOL0     H22325   3.299  10.287   5.219  0.1148 -0.6134  0.8804
  162MOL0     H22326   3.049  10.330   5.324  0.4008  3.0195  1.0156
  162MOL0     H22327   2.993  10.322   5.158 -0.9962  2.4280 -0.2307
  162MOL0     H22328   3.153  10.552   5.258  0.2989 -0.3109  0.6005
  162MOL0     H22329   3.114  10.512   5.082 -1.8053 -1.5085 -0.2104
  162MOL0     H22330   2.977  10.678   5.221 -0.7699 -1.2467 -2.7134
  162MOL0     H22331   2.915  10.547   5.317  1.0757  2.9252  1.7126
  162MOL0     H22332   2.794  10.457   5.125 -0.5757 -0.3676 -0.2767
  162MOL0     H22333   2.870  10.581   5.006  0.9136  2.0459  1.6201
  162MOL0     H22334   2.633  10.603   5.067  1.7628 -2.8717 -0.0189
  162MOL0     H22335   2.734  10.746   5.132  0.6850  0.3497 -2.1336
  162MOL0     H22336   3.069   9.950   5.546  0.7925 -0.7359 -0.5054
  162MOL0     H22337   3.062   9.955   5.786  0.6971  0.0891  0.4064
  162MOL0     H22338   3.224   9.962   6.179 -0.2723 -1.0621  3.1365
  162MOL0     H22339   3.231   9.980   6.421 -3.7154 -1.2750  0.9270
  162MOL0     H22340   4.073  11.190   6.190 -0.4769 -2.3843  1.9008
  162MOL0     H22341   4.029  11.170   5.946 -2.3612 -0.7573 -2.5786
  162MOL0     H22342   4.022  11.267   5.514  0.4461 -1.2618 -1.0589
  162MOL0     H22343   3.999  11.180   5.282  0.7679  0.4566  0.2477
  162MOL0     H22344   3.901  11.088   5.050  1.6308 -0.3027  1.3594
  162MOL0     H22345   4.009  10.994   5.146  1.7776  0.5888 -1.3911
  162MOL0     H22346   3.772  10.881   4.972  1.0759 -0.3495 -1.3794
  162MOL0     H22347   3.892  10.780   5.055 -2.0594 -1.3752 -1.5292
  162MOL0     H22348   3.982  10.980   4.839 -4.0452  0.0659 -1.3356
  162MOL0     H22349   4.068  10.849   4.908 -0.8675 -3.2602 -0.3476
  162MOL0     H22350   3.885  10.694   4.770  1.3813 -0.3284  2.8325
  162MOL0     H22351   4.022  10.760   4.690 -1.6175  0.8459 -1.6936
  162MOL0     H22352   3.717  10.916   4.468 -2.1450 -1.2048  1.2813
  162MOL0     H22353   3.659  10.960   5.390 -1.3242  1.5521 -1.2321
  162MOL0     H22354   3.677  10.975   5.726  1.6822 -0.2155 -0.8444
  162MOL0     H22355   3.582  11.121   5.684  0.0385 -0.4150  0.8387
  162MOL0     H22356   3.555  10.989   5.587 -0.1680  0.5743 -0.6207
  163MOL0     O22357   1.823   4.058  10.049 -0.0954 -0.0359 -0.3971
  163MOL0     C22358   1.745   4.143  10.086  0.9252  0.6504 -0.1746
  163MOL0     O22359   1.694   4.253  10.016 -0.5489  0.5518  0.2770
  163MOL0     C22360   1.726   4.270   9.885 -0.2633 -0.3400 -0.0840
  163MOL0     C22361   1.724   4.401   9.840 -0.9805  0.3906 -0.0822
  163MOL0     C22362   1.742   4.426   9.705 -0.7201  0.1877 -0.8196
  163MOL0     C22363   1.781   4.329   9.603 -0.5181 -0.8644  0.4963
  163MOL0     O22364   1.797   4.373   9.479 -0.0488  0.1823  0.1804
  163MOL0     C22365   1.775   4.282   9.375  1.1008  0.0825  0.5228
  163MOL0     C22366   1.747   4.348   9.243 -0.0313 -1.0836  1.0110
  163MOL0     C22367   1.863   4.435   9.198  0.1396  0.0466 -0.6324
  163MOL0     C22368   1.823   4.497   9.059 -0.1174  0.3214 -0.8749
  163MOL0     C22369   1.921   4.609   9.027 -0.3147 -0.1689 -0.4147
  163MOL0     C22370   1.881   4.659   8.888 -0.3660  0.1940  1.0299
  163MOL0     C22371   1.947   4.783   8.828 -1.2492 -0.2280 -0.8484
  163MOL0     C22372   1.897   4.907   8.890  0.4668 -0.0530 -1.0953
  163MOL0     N22373   1.752   4.944   8.893 -0.2705  0.2453 -0.0169
  163MOL0     C22374   1.668   4.933   8.778 -0.0815 -0.3048  0.3559
  163MOL0     C22375   1.539   4.949   8.820 -1.0727  0.7560  0.0964
  163MOL0     C22376   1.413   4.953   8.735 -0.4636  0.5922  0.1127
  163MOL0     C22377   1.299   5.039   8.797 -0.3141  0.3363 -0.4696
  163MOL0     C22378   1.169   4.956   8.817 -0.0009  0.9570 -0.3112
  163MOL0     C22379   1.062   5.041   8.891  0.7152  0.1403 -0.8638
  163MOL0     O22380   0.965   4.960   8.961 -1.3693  0.4108  0.4884
  163MOL0     C22381   0.836   5.003   8.976 -0.3434 -0.7852 -0.1233
  163MOL0     C22382   0.737   4.919   9.020  0.6298  0.8623 -0.0149
  163MOL0     C22383   0.603   4.947   9.037  0.5947 -0.6435  0.3998
  163MOL0     C22384   0.510   4.846   9.078 -0.0168 -0.2737 -0.2786
  163MOL0     C22385   0.562   5.084   9.003  0.4142  0.2669 -0.6886
  163MOL0     C22386   0.424   5.133   8.998  0.7824  0.1072  0.7554
  163MOL0     O22387   0.327   5.053   9.036  0.4554  0.5008 -0.0524
  163MOL0     C22388   0.197   5.095   9.028  0.3718  0.2127 -0.2911
  163MOL0     C22389   0.127   5.102   8.904  0.1279 -0.1949 -0.9479
  163MOL0     C22390  -0.004   5.151   8.891  0.7518  0.0700 -0.8509
  163MOL0     C22391  -0.072   5.181   9.008 -0.7870  0.0810 -0.0248
  163MOL0     O22392  -0.191   5.243   8.997  0.0069 -0.1156 -0.1008
  163MOL0     C22393  -0.294   5.179   9.072 -1.2555  0.6784  0.1490
  163MOL0     C22394  -0.422   5.267   9.078  0.3860 -0.6435 -0.3074
  163MOL0     C22395  -0.495   5.306   8.943 -0.6618 -0.2446 -0.2873
  163MOL0     C22396  -0.524   5.189   8.847 -0.3004 -0.2379  0.1751
  163MOL0     C22397  -0.581   5.214   8.710 -1.2137 -0.8011  0.0549
  163MOL0     C22398  -0.507   5.307   8.611  0.0091 -0.1782  0.2067
  163MOL0     C22399  -0.384   5.243   8.538 -0.0527  0.6195  0.5445
  163MOL0     C22400  -0.293   5.333   8.453 -0.0414  0.5304  0.3730
  163MOL0    Cl22401  -0.197   5.410   8.585  0.0259  0.1969 -0.1495
  163MOL0     C22402  -0.005   5.163   9.133  0.1102  0.1770 -0.6354
  163MOL0     C22403   0.123   5.125   9.146  0.3815 -0.2282 -0.2280
  163MOL0     O22404   0.408   5.245   8.947 -0.4488 -0.2109 -0.0383
  163MOL0     C22405   0.670   5.178   8.972  0.2903  0.3263 -0.4989
  163MOL0     C22406   0.802   5.139   8.953 -0.3369 -0.0639  0.6789
  163MOL0     N22407   1.544   4.981   8.954  0.3560  0.0922 -1.0139
  163MOL0     N22408   1.668   4.983   8.992  0.6813  0.1637 -0.3435
  163MOL0     C22409   1.786   4.198   9.656 -0.5678 -0.6642 -0.1853
  163MOL0     C22410   1.751   4.173   9.788  0.5536  0.2719 -0.3776
  163MOL0     C22411   1.698   4.119  10.222  0.4681  0.4245  0.0434
  163MOL0     C22412   1.712   3.989  10.272  0.2891 -0.8937  0.0701
  163MOL0     C22413   1.670   3.945  10.397 -1.0667 -0.5146 -0.2233
  163MOL0     C22414   1.620   4.048  10.480  0.2137 -0.2682 -0.2700
  163MOL0     O22415   1.570   4.011  10.602  1.1593  0.4001 -0.7529
  163MOL0     C22416   1.647   4.046  10.715 -0.1128 -0.0305  0.1814
  163MOL0     C22417   1.706   3.934  10.799  0.1583  0.4119  0.2449
  163MOL0     C22418   1.598   3.857  10.881  0.1246 -0.2381 -1.1991
  163MOL0     C22419   1.510   3.760  10.795 -0.4760 -1.0303 -0.5315
  163MOL0     C22420   1.460   3.647  10.871 -0.3097  0.8740  1.0575
  163MOL0     C22421   1.432   3.534  10.906 -0.4161  0.5486  0.0091
  163MOL0     C22422   1.617   4.179  10.441 -0.8301  0.0352 -0.0329
  163MOL0     C22423   1.646   4.221  10.308 -0.0303  1.2886  0.0770
  163MOL0     C22424   1.631   4.368  10.271 -0.4470 -0.0605 -0.7478
  163MOL0     H22425   1.688   4.479   9.906 -3.0047 -0.0678 -0.5837
  163MOL0     H22426   1.728   4.530   9.674 -1.4948  0.3199 -0.0622
  163MOL0     H22427   1.687   4.221   9.394  0.0003  2.0602  2.1079
  163MOL0     H22428   1.865   4.219   9.375  4.0003  3.8696  1.9834
  163MOL0     H22429   1.741   4.268   9.169  1.6122  0.0739 -0.4382
  163MOL0     H22430   1.655   4.406   9.259  1.4491  1.9985 -0.7717
  163MOL0     H22431   1.894   4.507   9.275 -0.4712  0.8574 -1.1265
  163MOL0     H22432   1.952   4.379   9.169  1.4131  2.7374 -2.3756
  163MOL0     H22433   1.833   4.418   8.985 -1.1021 -2.8051  2.0825
  163MOL0     H22434   1.722   4.539   9.064  0.3803  1.5721 -1.0240
  163MOL0     H22435   2.020   4.565   9.038 -0.1816 -0.1098 -1.2779
  163MOL0     H22436   1.910   4.688   9.102  1.3320 -1.5226  1.3610
  163MOL0     H22437   1.893   4.583   8.810  3.0677  0.0128  1.5669
  163MOL0     H22438   1.775   4.683   8.891 -0.2813  0.6203  0.7092
  163MOL0     H22439   1.919   4.784   8.722 -0.1895 -1.1363 -1.1603
  163MOL0     H22440   2.054   4.765   8.841 -1.7732 -0.9238  5.0402
  163MOL0     H22441   1.932   4.905   8.993  2.0537 -2.4777 -1.6067
  163MOL0     H22442   1.948   4.983   8.829 -1.2232 -0.9185 -3.7905
  163MOL0     H22443   1.709   4.918   8.679 -0.7076  2.2542 -0.3495
  163MOL0     H22444   1.379   4.850   8.724 -2.0681  0.9727  1.1303
  163MOL0     H22445   1.429   4.995   8.635 -3.4189  2.6800  0.3904
  163MOL0     H22446   1.332   5.090   8.888 -0.7020 -1.2981  0.6453
  163MOL0     H22447   1.277   5.117   8.724 -0.7629  3.3972  2.6594
  163MOL0     H22448   1.122   4.929   8.722  1.2096 -0.0252 -0.6430
  163MOL0     H22449   1.183   4.868   8.880 -4.6484 -1.1945 -1.8319
  163MOL0     H22450   1.108   5.108   8.964  1.9127 -2.3846  0.8123
  163MOL0     H22451   1.011   5.098   8.812  0.7866 -0.4782 -1.3594
  163MOL0     H22452   0.777   4.823   9.052 -0.6957 -0.1340 -1.2225
  163MOL0     H22453   0.445   4.869   9.163 -0.6066 -0.8717 -0.5569
  163MOL0     H22454   0.568   4.758   9.110  0.8638  0.3299 -0.1847
  163MOL0     H22455   0.453   4.817   8.989  1.6794 -1.3835 -1.0496
  163MOL0     H22456   0.179   5.093   8.809  1.0524 -1.0143 -0.3727
  163MOL0     H22457  -0.053   5.180   8.798 -2.9133  1.5709  1.3186
  163MOL0     H22458  -0.312   5.083   9.024 -3.4117 -0.3689  2.7856
  163MOL0     H22459  -0.265   5.154   9.175  0.9847  0.7877 -0.4067
  163MOL0     H22460  -0.494   5.209   9.137  2.0719 -0.6939  1.8384
  163MOL0     H22461  -0.398   5.351   9.145  0.1454 -1.6512  1.0979
  163MOL0     H22462  -0.438   5.379   8.885 -1.4011 -1.3659 -2.5795
  163MOL0     H22463  -0.589   5.361   8.958 -2.2441 -2.0439 -2.7252
  163MOL0     H22464  -0.588   5.113   8.892  1.0333 -0.1708  2.3589
  163MOL0     H22465  -0.428   5.137   8.838  0.8089  1.4740  1.3321
  163MOL0     H22466  -0.583   5.118   8.658 -0.8443  0.0144 -1.5077
  163MOL0     H22467  -0.681   5.257   8.718 -0.4661  0.7434  2.9760
  163MOL0     H22468  -0.474   5.402   8.653  1.4901  0.0651 -1.4090
  163MOL0     H22469  -0.575   5.329   8.528  1.0021  2.7745  0.0623
  163MOL0     H22470  -0.413   5.164   8.468 -0.8251  1.6978 -0.4015
  163MOL0     H22471  -0.317   5.191   8.606  3.0414  0.7380 -2.1738
  163MOL0     H22472  -0.348   5.406   8.393 -0.7651  0.0670  0.4577
  163MOL0     H22473  -0.225   5.290   8.379 -0.2592 -1.5339  1.3042
  163MOL0     H22474  -0.055   5.185   9.227  2.3133 -4.0926  1.8290
  163MOL0     H22475   0.163   5.115   9.246  0.9158 -0.2190 -0.4340
  163MOL0     H22476   0.644   5.273   8.928 -0.5321 -0.7893 -2.6007
  163MOL0     H22477   0.874   5.219   8.938 -0.3609  0.0701  1.2412
  163MOL0     H22478   1.826   4.117   9.597  1.1094 -0.4950  0.6639
  163MOL0     H22479   1.760   4.069   9.816 -2.6111  0.8318  3.6320
  163MOL0     H22480   1.740   3.913  10.200  1.6180  0.1227 -0.5106
  163MOL0     H22481   1.666   3.840  10.423 -1.4724 -0.4878 -0.1668
  163MOL0     H22482   1.718   4.126  10.690  0.6636 -0.4514  0.9663
  163MOL0     H22483   1.575   4.093  10.783  0.4991  1.6643 -0.2836
  163MOL0     H22484   1.778   3.979  10.869  0.4850  0.7936 -0.3243
  163MOL0     H22485   1.754   3.862  10.732 -1.1574 -0.2732  0.0196
  163MOL0     H22486   1.640   3.795  10.960  2.3597  1.5170 -0.9118
  163MOL0     H22487   1.533   3.922  10.940 -0.1649 -4.3160  3.6279
  163MOL0     H22488   1.579   3.729  10.717  0.4004  3.3248 -1.7840
  163MOL0     H22489   1.422   3.803  10.746 -0.0110  2.2345  1.2167
  163MOL0     H22490   1.421   3.430  10.928  1.0230 -0.5206 -3.5926
  163MOL0     H22491   1.588   4.253  10.515 -0.6808  1.0209 -0.9298
  163MOL0     H22492   1.619   4.422  10.365  1.0549 -0.6282 -0.1961
  163MOL0     H22493   1.718   4.405  10.216  0.8476  0.7487  1.6758
  163MOL0     H22494   1.541   4.374  10.210 -0.8504  0.3554 -0.1207
  164MOL0     O22495   7.867   6.553   7.806  0.1055 -0.5551 -0.4789
  164MOL0     C22496   7.926   6.651   7.859  0.7308 -0.1720 -0.6715
  164MOL0     O22497   7.865   6.768   7.907 -0.4127 -0.5106  0.4211
  164MOL0     C22498   7.733   6.792   7.900 -0.2722  0.0940  1.3122
  164MOL0     C22499   7.683   6.847   7.781  0.6990 -0.4352  0.9274
  164MOL0     C22500   7.548   6.874   7.774 -0.3041  0.5835 -0.1741
  164MOL0     C22501   7.466   6.864   7.889 -0.1935 -0.2290  0.3579
  164MOL0     O22502   7.334   6.913   7.878  0.6927  0.1348  1.1295
  164MOL0     C22503   7.244   6.832   7.953  0.9975 -0.2233  0.3581
  164MOL0     C22504   7.104   6.868   7.909 -1.0101 -0.4501  0.1518
  164MOL0     C22505   7.070   7.008   7.927  0.2837 -0.7124  1.6075
  164MOL0     C22506   6.929   7.046   7.898 -0.2971 -0.9482  0.8397
  164MOL0     C22507   6.826   6.985   7.998  0.3928  0.1903  0.1869
  164MOL0     C22508   6.702   7.071   8.002  0.4308  0.4237  0.1031
  164MOL0     C22509   6.610   7.026   8.113  0.7097  0.3641 -0.6559
  164MOL0     C22510   6.502   6.933   8.063 -0.0852 -0.0147 -0.2518
  164MOL0     N22511   6.423   6.880   8.173 -0.1919  0.1912  0.3353
  164MOL0     C22512   6.384   6.750   8.174 -0.1267 -0.2657  0.5579
  164MOL0     C22513   6.278   6.752   8.263 -1.0103 -0.6243  0.8286
  164MOL0     C22514   6.186   6.624   8.282 -0.0929  0.3141 -1.0021
  164MOL0     C22515   6.076   6.646   8.375  0.9841 -0.1174 -1.1045
  164MOL0     C22516   5.989   6.508   8.374  1.8820  0.5695 -0.3884
  164MOL0     C22517   5.901   6.499   8.501 -0.1410 -0.0489 -0.7291
  164MOL0     O22518   5.799   6.599   8.496  0.4477  0.0277  0.0768
  164MOL0     C22519   5.720   6.617   8.606 -0.4553 -0.0394 -0.6985
  164MOL0     C22520   5.705   6.532   8.717  0.9059  1.0230 -1.0151
  164MOL0     C22521   5.626   6.578   8.835 -0.5633 -0.1786  1.3430
  164MOL0     C22522   5.601   6.468   8.934 -0.0650  0.9388 -0.3166
  164MOL0     C22523   5.560   6.702   8.821 -0.5877  0.9021  0.1217
  164MOL0     C22524   5.482   6.744   8.931 -0.1353  0.9275 -0.2494
  164MOL0     O22525   5.355   6.694   8.931 -0.2282  0.1344  0.4088
  164MOL0     C22526   5.255   6.748   9.007  0.6031 -1.2892 -0.6937
  164MOL0     C22527   5.146   6.794   8.933 -0.5466  0.3768 -0.4277
  164MOL0     C22528   5.047   6.864   8.992  0.0573 -0.4905  0.5041
  164MOL0     C22529   5.050   6.873   9.130  0.6533  0.1179 -0.4781
  164MOL0     O22530   4.954   6.925   9.206 -0.1382 -0.5599 -1.2432
  164MOL0     C22531   4.886   7.040   9.160 -0.0857 -0.8665  0.3347
  164MOL0     C22532   4.961   7.169   9.149  0.8863  0.2312 -0.4029
  164MOL0     C22533   5.040   7.206   9.283  0.9279 -0.7242 -0.3582
  164MOL0     C22534   5.085   7.354   9.275 -0.4335  1.0675  0.3247
  164MOL0     C22535   5.186   7.406   9.376 -0.4812  0.1855 -1.2603
  164MOL0     C22536   5.119   7.465   9.499  0.4783 -0.9082  0.0599
  164MOL0     C22537   5.236   7.487   9.593 -0.2914 -0.4903 -0.9003
  164MOL0     C22538   5.336   7.597   9.577 -0.6482 -0.0784  0.6160
  164MOL0    Cl22539   5.246   7.750   9.548  0.4913 -0.1245  0.1564
  164MOL0     C22540   5.154   6.818   9.207 -0.5182  0.5242  0.4464
  164MOL0     C22541   5.265   6.756   9.149  0.0338 -0.2772  0.5725
  164MOL0     O22542   5.537   6.803   9.024  0.5769 -0.1628  0.1031
  164MOL0     C22543   5.578   6.776   8.707  0.0709  0.2076  0.7182
  164MOL0     C22544   5.651   6.743   8.601 -0.2276  0.8602  0.4396
  164MOL0     N22545   6.245   6.885   8.293 -0.4530  0.4144 -0.3316
  164MOL0     N22546   6.340   6.959   8.241  1.0863 -0.8203  0.1477
  164MOL0     C22547   7.532   6.818   8.005  1.4104 -0.4122 -0.0702
  164MOL0     C22548   7.656   6.766   8.006  0.0061 -0.4408  0.6781
  164MOL0     C22549   8.084   6.666   7.852  0.1744  0.1183  0.6295
  164MOL0     C22550   8.147   6.794   7.843 -0.7099 -0.9008  0.0748
  164MOL0     C22551   8.288   6.796   7.840 -0.3448 -0.1931  0.0787
  164MOL0     C22552   8.376   6.685   7.837  0.2023 -0.1030  0.2088
  164MOL0     O22553   8.512   6.688   7.819 -0.6338 -0.2093  0.2498
  164MOL0     C22554   8.593   6.801   7.815  0.8579 -0.3591 -0.1913
  164MOL0     C22555   8.669   6.836   7.946  0.8516  0.4775 -0.1053
  164MOL0     C22556   8.586   6.917   8.045  0.3246 -0.0655 -0.0488
  164MOL0     C22557   8.583   7.065   8.015  0.5205 -0.5903  0.1315
  164MOL0     C22558   8.448   7.119   7.994  0.0631 -0.3958 -0.0643
  164MOL0     C22559   8.343   7.171   7.980 -0.2121  0.3997  0.2853
  164MOL0     C22560   8.309   6.562   7.835  0.4465 -0.2690 -0.6435
  164MOL0     C22561   8.170   6.552   7.847 -1.0859  0.2415 -0.9145
  164MOL0     C22562   8.116   6.408   7.843  0.3278 -0.2942 -0.0101
  164MOL0     H22563   7.741   6.853   7.690 -0.0116 -2.6989  0.2757
  164MOL0     H22564   7.499   6.917   7.688 -0.9892 -3.1092 -1.8322
  164MOL0     H22565   7.266   6.850   8.058  1.6273  0.6950  0.0858
  164MOL0     H22566   7.259   6.726   7.930 -0.5321 -0.3492 -0.1358
  164MOL0     H22567   7.108   6.852   7.801  2.0915  2.2311 -0.2926
  164MOL0     H22568   7.036   6.794   7.952 -1.6377 -0.6453 -1.1386
  164MOL0     H22569   7.089   7.038   8.031 -1.5248  0.7971  1.5425
  164MOL0     H22570   7.138   7.055   7.856 -2.0118  1.8608  0.9793
  164MOL0     H22571   6.923   7.154   7.911  2.1820 -0.4165 -1.6007
  164MOL0     H22572   6.905   7.035   7.792  3.4571 -0.3773 -0.2107
  164MOL0     H22573   6.874   6.980   8.096  1.8435 -0.7258 -0.5366
  164MOL0     H22574   6.814   6.887   7.952 -0.0774  0.5117 -0.3811
  164MOL0     H22575   6.728   7.170   8.041  0.9478  0.8939 -1.3931
  164MOL0     H22576   6.653   7.089   7.906 -0.6414  0.6354  0.6695
  164MOL0     H22577   6.563   7.110   8.164 -1.3941  0.6173 -2.7821
  164MOL0     H22578   6.667   6.971   8.187 -1.0454 -0.0332  0.4613
  164MOL0     H22579   6.439   6.993   7.996 -2.4137  1.4308  2.9858
  164MOL0     H22580   6.541   6.859   7.992  0.3258 -1.5263  1.4915
  164MOL0     H22581   6.432   6.659   8.140  2.0653  0.7934  0.6519
  164MOL0     H22582   6.248   6.537   8.306 -1.2878 -0.6032 -1.1521
  164MOL0     H22583   6.144   6.600   8.185 -1.1936 -1.7741 -0.0719
  164MOL0     H22584   6.119   6.665   8.474 -1.7510 -1.2397  0.4238
  164MOL0     H22585   6.010   6.728   8.345 -1.0562 -0.2513  2.4900
  164MOL0     H22586   5.925   6.503   8.286 -1.0412  1.0365  1.5768
  164MOL0     H22587   6.052   6.418   8.371 -0.5263 -1.3314  1.8045
  164MOL0     H22588   5.851   6.402   8.511  1.1653 -0.5510  2.0959
  164MOL0     H22589   5.965   6.493   8.590 -2.1409  1.8054  0.9481
  164MOL0     H22590   5.743   6.430   8.719 -2.8124 -0.5240 -0.5177
  164MOL0     H22591   5.497   6.465   8.969 -0.1293 -1.3088 -0.5910
  164MOL0     H22592   5.671   6.467   9.018  2.0501 -5.8228 -1.5931
  164MOL0     H22593   5.622   6.368   8.895 -0.0745 -0.0811  2.0721
  164MOL0     H22594   5.148   6.777   8.826 -0.6855 -1.2301 -0.2042
  164MOL0     H22595   4.963   6.907   8.939 -0.0586 -1.6850 -0.3183
  164MOL0     H22596   4.842   7.028   9.060 -0.7963  0.2082  0.4997
  164MOL0     H22597   4.808   7.063   9.233  2.2934  4.7239  1.6397
  164MOL0     H22598   5.034   7.159   9.068 -0.9451  0.8566 -2.2287
  164MOL0     H22599   4.892   7.248   9.120  0.9966  1.1304  1.6036
  164MOL0     H22600   5.126   7.140   9.294  0.7240 -1.0973 -1.0028
  164MOL0     H22601   4.971   7.209   9.368  0.2518  3.2972 -0.8130
  164MOL0     H22602   4.991   7.409   9.280 -2.0670 -1.5860  0.3855
  164MOL0     H22603   5.117   7.378   9.173 -0.9899  1.4875  0.2470
  164MOL0     H22604   5.237   7.319   9.417 -0.5663  2.1855  3.7125
  164MOL0     H22605   5.254   7.475   9.326  1.6285 -0.2836  0.7914
  164MOL0     H22606   5.049   7.394   9.543  0.5067 -1.1331 -0.2554
  164MOL0     H22607   5.071   7.564   9.492  2.7391  0.2125 -0.8734
  164MOL0     H22608   5.291   7.395   9.618 -1.0340 -0.9061 -0.7693
  164MOL0     H22609   5.205   7.502   9.697 -4.3469 -2.0351 -1.6900
  164MOL0     H22610   5.385   7.577   9.481  1.6577 -1.6354  2.0048
  164MOL0     H22611   5.403   7.594   9.663  1.7582 -2.1155 -1.1577
  164MOL0     H22612   5.150   6.836   9.314 -1.0949  1.3778  0.2919
  164MOL0     H22613   5.340   6.697   9.200 -0.5086 -4.4616 -2.8612
  164MOL0     H22614   5.530   6.873   8.702  4.2404  2.4498 -1.5955
  164MOL0     H22615   5.657   6.797   8.507  3.1481 -0.3771 -0.2211
  164MOL0     H22616   7.481   6.826   8.101  0.2315  0.1918 -0.7154
  164MOL0     H22617   7.711   6.733   8.094  0.3231  0.2594  0.7463
  164MOL0     H22618   8.092   6.888   7.844  0.3244 -0.2754  0.2638
  164MOL0     H22619   8.315   6.901   7.836 -2.1769  0.3338  0.5291
  164MOL0     H22620   8.674   6.771   7.748  0.2245 -2.3675 -0.1145
  164MOL0     H22621   8.536   6.888   7.780  0.8754  1.6520  4.0187
  164MOL0     H22622   8.766   6.884   7.928  1.0261 -0.7151 -2.9351
  164MOL0     H22623   8.682   6.740   7.997  0.7932 -0.4266 -1.7190
  164MOL0     H22624   8.486   6.875   8.060  0.0227  0.7680  0.3448
  164MOL0     H22625   8.646   6.895   8.134 -1.2346 -1.8841  0.6306
  164MOL0     H22626   8.642   7.089   7.926  0.1367  0.9944  0.2755
  164MOL0     H22627   8.641   7.124   8.087  2.4429  1.2026 -2.6589
  164MOL0     H22628   8.248   7.219   7.979  0.0019  0.8272 -1.4449
  164MOL0     H22629   8.368   6.472   7.823  0.8782  0.0379 -0.8208
  164MOL0     H22630   8.070   6.385   7.746  2.1520  0.6954 -1.1747
  164MOL0     H22631   8.204   6.346   7.863  0.6256 -0.2503 -1.1243
  164MOL0     H22632   8.043   6.400   7.923  1.8923  2.5721  1.8680
  165MOL0     O22633   6.767   0.835   9.953 -0.0363  0.6239  0.3333
  165MOL0     C22634   6.839   0.808   9.862 -0.1364 -0.0957  0.3273
  165MOL0     O22635   6.887   0.681   9.826 -0.6202 -0.1574  0.0119
  165MOL0     C22636   6.956   0.613   9.924 -0.0371  0.2519 -0.4105
  165MOL0     C22637   7.004   0.484   9.890 -1.6323 -0.2125  1.0076
  165MOL0     C22638   7.087   0.419   9.973  0.0993  0.4562  0.8566
  165MOL0     C22639   7.109   0.470  10.100  0.6919  0.9207 -0.1341
  165MOL0     O22640   7.197   0.394  10.180 -0.2846 -0.4508 -0.2779
  165MOL0     C22641   7.285   0.469  10.255 -0.2760 -0.1366 -0.8923
  165MOL0     C22642   7.368   0.377  10.339 -0.3881 -0.0953  0.3055
  165MOL0     C22643   7.463   0.446  10.432 -0.3340  0.3166  0.1688
  165MOL0     C22644   7.523   0.341  10.516  0.0285  0.3997  0.1892
  165MOL0     C22645   7.582   0.395  10.641  0.0649 -0.4039 -0.1846
  165MOL0     C22646   7.714   0.339  10.681 -0.6048  0.6037  0.2654
  165MOL0     C22647   7.719   0.185  10.694  0.0861  0.2220 -0.1954
  165MOL0     C22648   7.635   0.154  10.821 -0.5693 -0.4474 -0.9848
  165MOL0     N22649   7.717   0.176  10.941  0.6377 -0.4758 -0.0545
  165MOL0     C22650   7.789   0.082  11.009 -0.4247 -0.0324 -0.6065
  165MOL0     C22651   7.820   0.126  11.131 -0.4201  0.4138 -0.2358
  165MOL0     C22652   7.876   0.041  11.246 -0.6552  0.5266  1.2967
  165MOL0     C22653   7.930   0.139  11.354  0.1142 -0.0412 -0.8729
  165MOL0     C22654   8.032   0.055  11.435 -0.2406 -0.4945 -0.2165
  165MOL0     C22655   8.077   0.129  11.573 -0.0941 -0.1151  0.5858
  165MOL0     O22656   8.168   0.049  11.636  0.2768 -0.0174 -0.5143
  165MOL0     C22657   8.228   0.100  11.747  1.1805  0.1842 -0.1409
  165MOL0     C22658   8.183   0.038  11.864 -0.2675 -0.7499  0.3107
  165MOL0     C22659   8.248   0.079  11.982  0.1993  1.5927  0.2841
  165MOL0     C22660   8.192   0.000  12.109 -0.4247  0.3169 -1.0589
  165MOL0     C22661   8.354   0.171  11.991 -0.1740 -0.5618 -0.4570
  165MOL0     C22662   8.435   0.204  12.112 -0.3720 -1.6073 -0.4546
  165MOL0     O22663   8.413   0.139  12.232 -0.2407  0.2815  0.3447
  165MOL0     C22664   8.434   0.218  12.343  0.0875  0.6100  0.7828
  165MOL0     C22665   8.522   0.185  12.437  1.2924 -0.2728  0.1836
  165MOL0     C22666   8.529   0.278  12.546  0.2779  0.1721  0.2698
  165MOL0     C22667   8.447   0.386  12.565 -0.5482 -0.0598 -0.4614
  165MOL0     O22668   8.463   0.463  12.681 -0.0480 -0.8365 -0.1948
  165MOL0     C22669   8.452   0.396  12.807 -0.5693  0.2068  0.8044
  165MOL0     C22670   8.307   0.347  12.837  0.5255 -0.2577  0.3416
  165MOL0     C22671   8.274   0.339  12.991 -0.0404 -0.4812 -0.1487
  165MOL0     C22672   8.274   0.195  13.058  0.0667  0.4184  0.6005
  165MOL0     C22673   8.179   0.087  13.000 -0.2343 -0.2843  0.2319
  165MOL0     C22674   8.257  -0.024  12.927 -0.1518 -0.7487  0.5281
  165MOL0     C22675   8.153  -0.110  12.862 -0.5401  0.6757  0.9125
  165MOL0     C22676   8.205  -0.235  12.794  0.1723  0.0532 -0.4420
  165MOL0    Cl22677   8.252  -0.357  12.909  0.7816 -0.1767 -0.0188
  165MOL0     C22678   8.367   0.425  12.458  0.2831 -0.3960 -0.0180
  165MOL0     C22679   8.369   0.339  12.347  0.6559  0.9751  0.1518
  165MOL0     O22680   8.524   0.294  12.095  0.3576 -0.0989 -0.0891
  165MOL0     C22681   8.395   0.223  11.861  0.6044 -0.3061  0.7251
  165MOL0     C22682   8.332   0.192  11.740  0.0442  0.4598 -0.4150
  165MOL0     N22683   7.770   0.257  11.137 -1.2147 -0.1902 -0.8861
  165MOL0     N22684   7.705   0.277  11.029 -0.1766 -0.2203  0.3693
  165MOL0     C22685   7.052   0.587  10.146  0.9341 -0.2962 -0.3703
  165MOL0     C22686   6.988   0.667  10.051  0.5942 -0.3975 -0.3416
  165MOL0     C22687   6.860   0.915   9.765 -0.6151 -0.5612  0.6343
  165MOL0     C22688   6.869   0.883   9.626  0.2121 -0.7081  0.0485
  165MOL0     C22689   6.889   0.981   9.526  0.1515 -0.2092  0.5727
  165MOL0     C22690   6.903   1.120   9.560 -0.7655 -0.0458  0.4803
  165MOL0     O22691   6.933   1.232   9.482  0.6533  0.4445  0.0063
  165MOL0     C22692   6.959   1.216   9.338 -0.5711 -0.2534 -0.8597
  165MOL0     C22693   7.013   1.357   9.299 -0.4861 -0.6506  0.3907
  165MOL0     C22694   6.973   1.392   9.160  1.1047  0.5543 -0.0598
  165MOL0     C22695   7.069   1.331   9.047  0.3960 -0.4871 -0.6584
  165MOL0     C22696   6.996   1.303   8.933 -0.5450  0.1010  0.1889
  165MOL0     C22697   6.920   1.282   8.843 -0.2339 -0.4103  0.0331
  165MOL0     C22698   6.885   1.148   9.698  0.6360 -1.1621 -0.8451
  165MOL0     C22699   6.852   1.047   9.799 -0.3277 -0.6963  0.3646
  165MOL0     C22700   6.846   1.104   9.941  0.0285 -0.7792 -0.8141
  165MOL0     H22701   6.976   0.435   9.797 -0.8121 -0.9987  1.1644
  165MOL0     H22702   7.116   0.318   9.943 -0.1934  0.3751  0.8436
  165MOL0     H22703   7.247   0.536  10.333  4.0486 -1.1460  2.4675
  165MOL0     H22704   7.347   0.536  10.195 -0.1340  0.7408  0.1832
  165MOL0     H22705   7.293   0.309  10.380 -0.0822 -0.9245 -0.4771
  165MOL0     H22706   7.416   0.318  10.259 -1.4086  3.3644 -3.1875
  165MOL0     H22707   7.539   0.496  10.372  0.3417  1.8668  2.2121
  165MOL0     H22708   7.391   0.514  10.479 -1.8688 -2.0595  1.4627
  165MOL0     H22709   7.451   0.267  10.552  0.3649 -1.5997 -2.9253
  165MOL0     H22710   7.602   0.284  10.468 -0.0024 -0.3759  1.0244
  165MOL0     H22711   7.520   0.390  10.732  1.1883  4.9501  1.2765
  165MOL0     H22712   7.607   0.502  10.635  4.0926 -1.0267  2.0560
  165MOL0     H22713   7.790   0.368  10.608 -1.6045 -0.0720 -1.0933
  165MOL0     H22714   7.729   0.392  10.775 -2.5182  6.2718 -2.1689
  165MOL0     H22715   7.820   0.144  10.685 -0.6566 -1.9003  0.3817
  165MOL0     H22716   7.679   0.127  10.610  0.1345 -0.1504  0.0328
  165MOL0     H22717   7.534   0.196  10.823 -0.9032 -1.2515  0.3576
  165MOL0     H22718   7.611   0.047  10.821  1.7371 -1.0293 -1.3049
  165MOL0     H22719   7.817  -0.017  10.974  0.5528  0.0758 -0.1645
  165MOL0     H22720   7.962  -0.008  11.198 -1.6068  0.7689 -0.7900
  165MOL0     H22721   7.799  -0.032  11.271 -0.4579 -1.2299 -2.4497
  165MOL0     H22722   7.977   0.227  11.308  0.2584  0.8169  0.8454
  165MOL0     H22723   7.842   0.167  11.412 -0.5766 -1.4032 -1.2142
  165MOL0     H22724   7.994  -0.039  11.476 -0.0072 -0.3348  0.3913
  165MOL0     H22725   8.114   0.028  11.368 -1.7303 -0.3252 -2.1730
  165MOL0     H22726   8.112   0.230  11.551  1.1740 -0.4383  1.0104
  165MOL0     H22727   7.986   0.133  11.634 -1.2747  0.4045 -1.1303
  165MOL0     H22728   8.104  -0.035  11.855  0.9174 -1.8072 -4.3286
  165MOL0     H22729   8.119  -0.079  12.089  0.5422 -0.5275 -1.3564
  165MOL0     H22730   8.135   0.068  12.173 -1.5115  0.3885 -2.0559
  165MOL0     H22731   8.275  -0.056  12.153 -0.9404  0.2099 -0.1952
  165MOL0     H22732   8.576   0.091  12.434  3.2823  0.8286  0.0595
  165MOL0     H22733   8.610   0.255  12.615  2.6986  0.4550 -2.2639
  165MOL0     H22734   8.526   0.316  12.819 -0.1633  0.4768  0.1368
  165MOL0     H22735   8.475   0.478  12.876 -1.0665  1.1177 -0.0799
  165MOL0     H22736   8.236   0.418  12.794 -1.9470 -2.6981  0.1137
  165MOL0     H22737   8.314   0.250  12.787  3.2121 -0.0031  0.0564
  165MOL0     H22738   8.166   0.360  12.994 -2.1028 -8.0348  1.0275
  165MOL0     H22739   8.334   0.411  13.047 -0.8880  2.5020 -2.7707
  165MOL0     H22740   8.243   0.216  13.160 -0.3359  0.4724  0.4676
  165MOL0     H22741   8.375   0.152  13.064  0.1720  0.6773  0.7242
  165MOL0     H22742   8.122   0.043  13.083  1.2524 -0.6231  1.1115
  165MOL0     H22743   8.105   0.126  12.930  1.8991  1.0316 -1.4500
  165MOL0     H22744   8.321  -0.084  12.992  3.4685 -1.0533 -2.9089
  165MOL0     H22745   8.322   0.031  12.858  1.4811 -0.3443  2.3097
  165MOL0     H22746   8.102  -0.044  12.791  1.3582  1.5287  0.2763
  165MOL0     H22747   8.075  -0.152  12.926 -2.0736 -2.1804 -2.5443
  165MOL0     H22748   8.292  -0.212  12.732  0.2716  3.5544  0.7874
  165MOL0     H22749   8.128  -0.275  12.727  0.2351  1.4496 -1.3821
  165MOL0     H22750   8.306   0.513  12.442 -0.3178 -0.0415  3.5352
  165MOL0     H22751   8.286   0.356  12.279  2.9136  1.4901 -2.6476
  165MOL0     H22752   8.482   0.287  11.868  0.6693 -0.4240  1.0771
  165MOL0     H22753   8.375   0.216  11.644  1.7053  1.7870  0.6019
  165MOL0     H22754   7.059   0.627  10.246 -6.4859 -0.6317  0.8061
  165MOL0     H22755   6.968   0.770  10.078  3.4878 -0.8261  4.8098
  165MOL0     H22756   6.841   0.784   9.591  2.3109 -0.9015 -1.2081
  165MOL0     H22757   6.884   0.950   9.422  1.2267  2.9735 -0.5511
  165MOL0     H22758   7.039   1.145   9.314  0.1774  0.9669 -2.1687
  165MOL0     H22759   6.868   1.187   9.285 -1.2216  0.6994 -0.2789
  165MOL0     H22760   7.122   1.352   9.313 -0.0531  0.1252 -2.2560
  165MOL0     H22761   6.982   1.446   9.355 -0.3758  0.6156 -1.4898
  165MOL0     H22762   6.876   1.342   9.160  1.6903 -0.6022 -0.2699
  165MOL0     H22763   6.932   1.491   9.137 -5.1069 -1.0767  2.0037
  165MOL0     H22764   7.118   1.239   9.080 -1.3296 -0.2341  3.0290
  165MOL0     H22765   7.147   1.403   9.019 -2.3201  3.0169 -0.0042
  165MOL0     H22766   6.854   1.258   8.761 -1.8468 -1.4967  1.5831
  165MOL0     H22767   6.892   1.250   9.736 -2.8088  0.5061 -4.0998
  165MOL0     H22768   6.752   1.078   9.990 -0.9143  2.6817 -0.4989
  165MOL0     H22769   6.935   1.081   9.999 -1.7428 -0.3379  2.2546
  165MOL0     H22770   6.837   1.213   9.937 -2.2021 -0.9327 -2.8771
  166MOL0     O22771   3.629   2.265   7.203  0.2232 -0.4055 -0.6259
  166MOL0     C22772   3.534   2.225   7.144  0.3473  0.2980  0.0556
  166MOL0     O22773   3.539   2.116   7.062 -0.5411 -0.4892  0.4888
  166MOL0     C22774   3.663   2.055   7.062  0.1745  0.4670  0.1347
  166MOL0     C22775   3.783   2.121   7.025  0.1381 -0.0128  0.2637
  166MOL0     C22776   3.907   2.070   7.058  0.0973 -0.2875  0.2691
  166MOL0     C22777   3.925   1.952   7.126 -0.5097 -1.0643 -0.7678
  166MOL0     O22778   4.049   1.922   7.162 -0.1020 -0.5329 -0.9569
  166MOL0     C22779   4.080   1.786   7.161  0.3905  0.4219 -0.1398
  166MOL0     C22780   4.224   1.764   7.215  0.7444 -0.3506  1.4360
  166MOL0     C22781   4.233   1.824   7.361  1.2750  1.0047 -0.6112
  166MOL0     C22782   4.343   1.773   7.442 -0.3815 -1.0580  0.1273
  166MOL0     C22783   4.324   1.829   7.585  0.0742  0.1635 -0.4250
  166MOL0     C22784   4.451   1.811   7.666  0.1989  0.1731 -0.1015
  166MOL0     C22785   4.431   1.852   7.821 -0.6077  0.6241  1.1387
  166MOL0     C22786   4.411   2.007   7.835 -1.1672 -0.0072  0.2420
  166MOL0     N22787   4.537   2.078   7.817 -0.5736  0.2613 -0.3910
  166MOL0     C22788   4.597   2.112   7.697 -0.2706 -0.7913 -0.8074
  166MOL0     C22789   4.701   2.195   7.722  0.3799 -0.3973  0.4346
  166MOL0     C22790   4.804   2.272   7.643  0.0410 -1.5823  0.0778
  166MOL0     C22791   4.921   2.174   7.591 -0.1565  0.3195  0.2999
  166MOL0     C22792   5.026   2.278   7.549  0.7142 -0.0998 -0.5363
  166MOL0     C22793   5.168   2.208   7.545  0.7646 -0.8144  0.8536
  166MOL0     O22794   5.171   2.116   7.436 -0.2621  0.5018 -0.2161
  166MOL0     C22795   5.290   2.086   7.376 -0.6959  1.1835 -0.0193
  166MOL0     C22796   5.294   1.983   7.276 -0.5584  0.0824 -1.2091
  166MOL0     C22797   5.412   1.924   7.230 -0.4886 -0.5495  0.8658
  166MOL0     C22798   5.398   1.803   7.155 -0.5387 -0.3937 -0.7366
  166MOL0     C22799   5.531   1.982   7.275 -0.5510 -0.7031 -0.3699
  166MOL0     C22800   5.664   1.921   7.235 -0.1676  0.3822  0.1523
  166MOL0     O22801   5.673   1.830   7.131 -0.0754 -0.7228 -0.3917
  166MOL0     C22802   5.786   1.772   7.086  0.1099  0.5110 -0.7770
  166MOL0     C22803   5.867   1.690   7.166 -0.3422 -0.3589 -0.5724
  166MOL0     C22804   5.984   1.633   7.111  0.9855  0.7688  0.0318
  166MOL0     C22805   6.012   1.636   6.975  0.2397  0.1266  0.0470
  166MOL0     O22806   6.115   1.567   6.924 -0.0304  0.2799 -0.2189
  166MOL0     C22807   6.233   1.643   6.894  0.2853 -0.2560 -0.0041
  166MOL0     C22808   6.306   1.587   6.770  0.0639 -1.0332  0.3880
  166MOL0     C22809   6.200   1.581   6.664 -0.2372  0.3143  1.0078
  166MOL0     C22810   6.266   1.518   6.545 -0.1306 -0.1018  0.1154
  166MOL0     C22811   6.175   1.536   6.425  0.1924 -0.0742  1.5168
  166MOL0     C22812   6.202   1.670   6.358  0.0600  0.3531 -0.4948
  166MOL0     C22813   6.107   1.679   6.231 -0.4305 -0.4206  0.2216
  166MOL0     C22814   6.150   1.797   6.144 -0.0210  0.0296 -0.4133
  166MOL0    Cl22815   6.308   1.773   6.085  0.0954  0.1227 -0.1313
  166MOL0     C22816   5.928   1.716   6.896  0.7673  0.6022 -0.8673
  166MOL0     C22817   5.808   1.772   6.952 -0.3675 -0.0651  0.1732
  166MOL0     O22818   5.756   1.964   7.299 -0.5601  0.2977  0.7467
  166MOL0     C22819   5.538   2.089   7.363 -0.5535  0.3308  0.2781
  166MOL0     C22820   5.410   2.140   7.419  0.5612  0.0850  0.3575
  166MOL0     N22821   4.706   2.198   7.863  0.6082 -0.1219 -0.5786
  166MOL0     N22822   4.612   2.127   7.913 -0.1815  0.8357 -0.4434
  166MOL0     C22823   3.808   1.894   7.169 -0.1351 -0.8301  1.2398
  166MOL0     C22824   3.679   1.937   7.137  0.4532 -1.1338 -0.1627
  166MOL0     C22825   3.399   2.285   7.165 -0.7201 -0.1993  0.6286
  166MOL0     C22826   3.294   2.227   7.092  0.0134 -0.6507 -1.6616
  166MOL0     C22827   3.172   2.290   7.101 -0.1656 -0.1219  1.4314
  166MOL0     C22828   3.160   2.424   7.140  0.2814  0.8222 -0.8633
  166MOL0     O22829   3.029   2.471   7.146  0.6816  0.3013  0.5804
  166MOL0     C22830   2.986   2.541   7.262 -0.0516  0.1021 -0.4483
  166MOL0     C22831   2.834   2.503   7.292 -0.2207 -0.1776 -0.5395
  166MOL0     C22832   2.825   2.365   7.351 -0.6376  0.7704 -0.5974
  166MOL0     C22833   2.756   2.346   7.491 -0.3290  0.0172  0.2647
  166MOL0     C22834   2.846   2.397   7.588 -0.4363  0.2631 -0.3694
  166MOL0     C22835   2.907   2.439   7.686 -0.1243 -0.9713 -0.2829
  166MOL0     C22836   3.266   2.479   7.207 -0.1263 -0.3122  0.9416
  166MOL0     C22837   3.388   2.415   7.224  0.3920 -0.6269 -0.3526
  166MOL0     C22838   3.495   2.475   7.321  0.6770  0.0459  0.7439
  166MOL0     H22839   3.783   2.225   6.993 -0.7661 -0.4083 -1.1462
  166MOL0     H22840   3.997   2.129   7.044  1.6936 -2.8369 -0.9374
  166MOL0     H22841   4.074   1.753   7.057 -1.9084  0.5816 -0.1117
  166MOL0     H22842   4.021   1.722   7.228  0.6220 -1.7890 -1.9388
  166MOL0     H22843   4.256   1.661   7.201  0.7585  0.0792 -2.9227
  166MOL0     H22844   4.296   1.818   7.153  0.7765 -0.1751  1.6227
  166MOL0     H22845   4.228   1.933   7.347 -1.2740  1.0053 -0.2511
  166MOL0     H22846   4.139   1.807   7.414  2.0217  0.0348  0.4770
  166MOL0     H22847   4.339   1.664   7.434  0.6563 -0.9827 -4.0642
  166MOL0     H22848   4.433   1.813   7.394  0.1444 -0.0938  1.8258
  166MOL0     H22849   4.236   1.789   7.635  0.5672  0.5075  0.7403
  166MOL0     H22850   4.301   1.936   7.576  1.7478  0.4890 -1.2558
  166MOL0     H22851   4.465   1.702   7.662  0.8887  0.2814 -1.0275
  166MOL0     H22852   4.534   1.856   7.610 -2.2903  2.8225 -1.9360
  166MOL0     H22853   4.526   1.834   7.871 -1.0038  0.6131  1.9028
  166MOL0     H22854   4.346   1.801   7.867 -0.4575  1.0661  1.9294
  166MOL0     H22855   4.349   2.045   7.752 -1.8224  0.2251  0.8248
  166MOL0     H22856   4.362   2.041   7.927 -1.1970  1.3342 -0.2424
  166MOL0     H22857   4.574   2.080   7.596 -0.6838 -3.0519 -0.0531
  166MOL0     H22858   4.845   2.352   7.704  2.8850 -2.8760  0.0342
  166MOL0     H22859   4.763   2.318   7.553  2.7944 -0.3952 -0.6584
  166MOL0     H22860   4.953   2.103   7.668 -1.9733 -1.2504 -0.2984
  166MOL0     H22861   4.885   2.119   7.503  1.1790  1.4239 -0.9846
  166MOL0     H22862   4.990   2.348   7.473 -1.5223  2.7352  2.8314
  166MOL0     H22863   5.047   2.359   7.619  0.1332 -1.6652  1.5645
  166MOL0     H22864   5.233   2.293   7.522 -2.8499  2.6362  2.2194
  166MOL0     H22865   5.189   2.166   7.644  0.7858  2.4652  2.3920
  166MOL0     H22866   5.199   1.947   7.237  0.5712 -0.4145 -3.7101
  166MOL0     H22867   5.454   1.722   7.202  0.8287  0.3977 -0.9551
  166MOL0     H22868   5.444   1.812   7.056  1.8257 -2.9091  0.0094
  166MOL0     H22869   5.297   1.761   7.161  0.3048 -2.6622 -1.5604
  166MOL0     H22870   5.844   1.689   7.272 -1.3475  0.2196 -0.7719
  166MOL0     H22871   6.063   1.588   7.171  2.3047  0.2531 -1.9821
  166MOL0     H22872   6.221   1.751   6.880  0.2493  0.0354  2.0107
  166MOL0     H22873   6.304   1.634   6.977  0.9789  0.3012 -0.5157
  166MOL0     H22874   6.388   1.645   6.726 -2.6740  1.7367 -1.4950
  166MOL0     H22875   6.345   1.488   6.792 -0.4559 -1.3150  0.0671
  166MOL0     H22876   6.165   1.682   6.646 -0.7144  0.4902  2.7796
  166MOL0     H22877   6.115   1.518   6.691  1.7025 -3.1558 -0.2000
  166MOL0     H22878   6.279   1.410   6.557 -2.3578 -0.3093  1.1022
  166MOL0     H22879   6.361   1.565   6.518 -1.1177  0.8979 -1.8755
  166MOL0     H22880   6.196   1.461   6.348  1.0793  0.8171  0.8400
  166MOL0     H22881   6.068   1.538   6.443 -0.9775  4.5412 -3.2629
  166MOL0     H22882   6.307   1.667   6.328 -0.7926 -0.3622 -3.7187
  166MOL0     H22883   6.181   1.761   6.416  0.9253  2.0167 -2.6479
  166MOL0     H22884   6.006   1.704   6.264 -1.3497  0.2254 -2.7121
  166MOL0     H22885   6.103   1.586   6.174  1.7065 -0.4685  0.0644
  166MOL0     H22886   6.137   1.884   6.208  1.9303 -1.4278  2.1640
  166MOL0     H22887   6.080   1.809   6.060 -0.9871  0.0589  0.3704
  166MOL0     H22888   5.945   1.722   6.789  1.1333 -0.1614 -0.8657
  166MOL0     H22889   5.735   1.827   6.893  0.4573 -0.1743 -0.9897
  166MOL0     H22890   5.626   2.135   7.406 -1.8471  2.8601  0.4471
  166MOL0     H22891   5.420   2.223   7.488  1.0542 -0.1584  0.5874
  166MOL0     H22892   3.823   1.803   7.227 -1.8308 -3.1095 -1.6356
  166MOL0     H22893   3.595   1.890   7.187 -1.7237  0.3207 -2.2300
  166MOL0     H22894   3.304   2.128   7.048  3.8203 -1.0980 -0.1971
  166MOL0     H22895   3.085   2.238   7.064 -0.4643  0.5686  1.1513
  166MOL0     H22896   3.042   2.525   7.354 -1.2375  3.8136  1.1250
  166MOL0     H22897   2.989   2.650   7.253 -1.4016  0.4125  2.0619
  166MOL0     H22898   2.771   2.517   7.204 -1.0953 -1.9344 -0.2313
  166MOL0     H22899   2.809   2.582   7.364 -0.6122  0.1211 -0.9957
  166MOL0     H22900   2.769   2.315   7.272  1.2491  2.4566 -3.1800
  166MOL0     H22901   2.925   2.324   7.338 -0.8083  0.0492  0.3005
  166MOL0     H22902   2.742   2.240   7.516 -0.0531  0.0021  0.3539
  166MOL0     H22903   2.657   2.391   7.482 -1.9787 -3.1240  1.2455
  166MOL0     H22904   2.954   2.469   7.777 -4.2903  0.2625  1.7003
  166MOL0     H22905   3.254   2.570   7.265 -1.0444 -0.0826  0.3986
  166MOL0     H22906   3.557   2.408   7.383  2.1562  2.5173  2.0995
  166MOL0     H22907   3.566   2.534   7.263  0.2095 -1.8846 -1.9961
  166MOL0     H22908   3.452   2.546   7.393 -0.5014  0.4658 -0.3534
  167MOL0     O22909   8.472   1.030  10.678 -0.0135  0.4142  0.6690
  167MOL0     C22910   8.530   1.135  10.704 -0.4944  0.4432  0.2182
  167MOL0     O22911   8.541   1.183  10.829 -0.0129 -0.3403 -0.3767
  167MOL0     C22912   8.479   1.121  10.939 -0.8194  0.1429  0.4983
  167MOL0     C22913   8.352   1.072  10.939 -1.5413  0.0842  0.2527
  167MOL0     C22914   8.300   1.012  11.046  0.3683  0.8103 -0.6281
  167MOL0     C22915   8.368   0.997  11.163  0.9532  0.3591  0.0869
  167MOL0     O22916   8.316   0.946  11.277 -0.4702  0.4586  0.3466
  167MOL0     C22917   8.172   0.945  11.298 -0.2463  0.8699  0.5900
  167MOL0     C22918   8.132   0.938  11.451 -0.2639  0.6507 -0.3067
  167MOL0     C22919   8.142   1.067  11.522  0.0245 -0.8840 -0.0179
  167MOL0     C22920   8.245   1.056  11.617 -1.1972 -0.3511 -0.8023
  167MOL0     C22921   8.277   1.185  11.698  0.5044  1.3166 -1.1480
  167MOL0     C22922   8.342   1.300  11.612  0.5374 -0.2561 -0.0272
  167MOL0     C22923   8.381   1.423  11.698 -0.2995  0.2231  0.5506
  167MOL0     C22924   8.521   1.396  11.759  0.1761  0.1802  0.1934
  167MOL0     N22925   8.558   1.505  11.858  0.1925 -0.3510 -0.2303
  167MOL0     C22926   8.634   1.607  11.813 -1.1311  0.5899  0.3545
  167MOL0     C22927   8.669   1.672  11.924  0.1373  0.3386 -1.1121
  167MOL0     C22928   8.768   1.796  11.914 -0.1666 -0.3207 -0.8631
  167MOL0     C22929   8.699   1.918  11.896  0.6111  0.2806  0.3079
  167MOL0     C22930   8.588   1.964  11.984  0.6840 -0.9835  1.0320
  167MOL0     C22931   8.520   2.097  11.963  0.2386 -0.0259  0.6380
  167MOL0     O22932   8.612   2.197  11.916 -0.4159  0.1265 -0.1863
  167MOL0     C22933   8.635   2.218  11.783  0.7811 -0.5008  0.3396
  167MOL0     C22934   8.694   2.340  11.740  0.0044  0.1682  0.3477
  167MOL0     C22935   8.733   2.370  11.606  1.6053 -0.7480  0.9360
  167MOL0     C22936   8.818   2.491  11.578  0.4656 -0.4297  0.6795
  167MOL0     C22937   8.697   2.277  11.510 -0.3871  0.7105  0.0266
  167MOL0     C22938   8.726   2.293  11.355  0.2271 -0.1879  0.0490
  167MOL0     O22939   8.702   2.193  11.265  0.2971  0.1807 -0.6132
  167MOL0     C22940   8.694   2.215  11.131  0.8243  0.7281 -0.0122
  167MOL0     C22941   8.808   2.239  11.051 -0.0057 -0.6926 -0.5934
  167MOL0     C22942   8.801   2.268  10.912  0.2199  0.5810  0.6205
  167MOL0     C22943   8.669   2.260  10.848 -0.3531  0.6947  0.2276
  167MOL0     O22944   8.649   2.269  10.708 -0.7958  0.7497 -1.0585
  167MOL0     C22945   8.753   2.192  10.642  1.0560  0.2904  0.0936
  167MOL0     C22946   8.713   2.149  10.494  0.8756 -0.0059  0.4572
  167MOL0     C22947   8.659   2.267  10.416  0.7282 -0.1247  0.2547
  167MOL0     C22948   8.611   2.212  10.276 -0.4289 -0.6413 -0.0765
  167MOL0     C22949   8.553   2.323  10.183  0.1118 -0.0893 -0.3535
  167MOL0     C22950   8.636   2.338  10.058 -0.2830 -0.5267  0.9719
  167MOL0     C22951   8.582   2.450   9.971 -0.0267 -1.1077  0.1417
  167MOL0     C22952   8.686   2.479   9.854 -0.2652 -0.8547 -0.1347
  167MOL0    Cl22953   8.619   2.617   9.763  0.3032 -0.2622 -0.2312
  167MOL0     C22954   8.559   2.241  10.926 -0.5122 -0.0946 -0.0230
  167MOL0     C22955   8.566   2.214  11.062 -0.9217 -0.1710 -0.2452
  167MOL0     O22956   8.764   2.400  11.319  0.1499 -0.3555  0.2177
  167MOL0     C22957   8.629   2.158  11.553 -0.9471 -0.4492 -0.4641
  167MOL0     C22958   8.593   2.132  11.676  0.2944 -0.2681 -0.0645
  167MOL0     N22959   8.612   1.618  12.036 -0.0682  0.6583  0.1147
  167MOL0     N22960   8.537   1.517  11.995  0.6328  0.3996  0.0255
  167MOL0     C22961   8.497   1.049  11.173 -0.3001  0.9231 -0.5496
  167MOL0     C22962   8.558   1.105  11.055  0.8341 -0.0885 -0.2413
  167MOL0     C22963   8.545   1.225  10.594  0.2707 -0.1459  0.1985
  167MOL0     C22964   8.495   1.357  10.612 -0.0354 -0.7972 -0.6940
  167MOL0     C22965   8.495   1.442  10.511  0.5885 -0.7043  0.1401
  167MOL0     C22966   8.544   1.408  10.385 -0.5511  0.2513  0.2512
  167MOL0     O22967   8.554   1.498  10.285 -0.0141  0.8340  0.1801
  167MOL0     C22968   8.505   1.637  10.299  0.5142 -0.4427 -0.9249
  167MOL0     C22969   8.528   1.699  10.162 -0.2829 -0.8479 -0.8388
  167MOL0     C22970   8.524   1.851  10.153 -0.0334  0.1388  0.8168
  167MOL0     C22971   8.514   1.898  10.012  0.5417 -0.5378 -0.1112
  167MOL0     C22972   8.637   1.888   9.938  0.5095  0.4237  0.8784
  167MOL0     C22973   8.737   1.911   9.868 -0.2339  0.3363  0.1493
  167MOL0     C22974   8.603   1.287  10.364  0.7531 -0.3479  0.5272
  167MOL0     C22975   8.602   1.192  10.466  0.3084  0.0553  0.3152
  167MOL0     C22976   8.658   1.060  10.421  0.5899  0.5505 -0.0429
  167MOL0     H22977   8.292   1.074  10.849 -0.7081  0.4947 -0.3073
  167MOL0     H22978   8.201   0.967  11.039 -0.7097  2.5640  1.5366
  167MOL0     H22979   8.125   0.853  11.262 -1.8027  0.3140  3.6714
  167MOL0     H22980   8.117   1.034  11.265 -0.6397  0.7532  0.9201
  167MOL0     H22981   8.034   0.893  11.471 -1.3856  2.7434 -0.7892
  167MOL0     H22982   8.198   0.863  11.496 -0.4601 -0.5899 -1.9556
  167MOL0     H22983   8.165   1.150  11.454  0.2840 -0.8581  0.1031
  167MOL0     H22984   8.048   1.086  11.576  1.0335  1.4097  1.0650
  167MOL0     H22985   8.225   0.971  11.684  0.3300 -1.0351 -1.1655
  167MOL0     H22986   8.338   1.032  11.564  0.0188  0.3750  0.9285
  167MOL0     H22987   8.343   1.155  11.780  2.5565 -0.7887 -3.4024
  167MOL0     H22988   8.182   1.214  11.743  0.1402 -1.9328  0.4138
  167MOL0     H22989   8.427   1.267  11.552  0.8458 -0.1956  0.3756
  167MOL0     H22990   8.260   1.331  11.546  0.9396  0.0869 -0.3676
  167MOL0     H22991   8.302   1.448  11.770 -0.7483  0.0060  0.1420
  167MOL0     H22992   8.388   1.508  11.631 -0.2738 -1.1322 -1.2426
  167MOL0     H22993   8.524   1.298  11.809 -0.9334 -0.4049 -0.8407
  167MOL0     H22994   8.596   1.395  11.679 -0.3533  0.8083 -0.3070
  167MOL0     H22995   8.677   1.626  11.715 -0.1888  1.1217  0.8560
  167MOL0     H22996   8.843   1.775  11.838 -1.2904 -5.7842 -0.8766
  167MOL0     H22997   8.825   1.811  12.007 -0.7814  2.4207 -0.8470
  167MOL0     H22998   8.777   1.993  11.909  0.2654  0.1820  3.6236
  167MOL0     H22999   8.652   1.920  11.796 -4.0326 -2.8249  2.0550
  167MOL0     H23000   8.504   1.894  11.981 -0.2815  0.1801 -0.6215
  167MOL0     H23001   8.632   1.957  12.084 -0.7501  1.4179  1.9208
  167MOL0     H23002   8.440   2.093  11.890  0.5273  1.1916  0.2312
  167MOL0     H23003   8.476   2.143  12.052  4.5818  2.9829  1.5756
  167MOL0     H23004   8.737   2.408  11.813  1.0580 -2.2047  2.0856
  167MOL0     H23005   8.912   2.460  11.532 -0.0572 -1.0092 -0.0329
  167MOL0     H23006   8.841   2.544  11.671  0.5192 -0.4269  0.6659
  167MOL0     H23007   8.765   2.563  11.515 -1.5427 -1.2924  1.2939
  167MOL0     H23008   8.906   2.249  11.096 -0.4066  0.0793  0.1307
  167MOL0     H23009   8.880   2.310  10.850  0.0533 -0.6173 -0.4409
  167MOL0     H23010   8.836   2.260  10.619 -0.9020  1.6996 -3.7287
  167MOL0     H23011   8.781   2.101  10.695  4.3388  1.3776  0.4671
  167MOL0     H23012   8.800   2.105  10.444 -0.0287 -1.1295 -0.1795
  167MOL0     H23013   8.640   2.068  10.502 -2.3247  2.5525 -0.5774
  167MOL0     H23014   8.745   2.334  10.414  0.6286  0.2200  3.1953
  167MOL0     H23015   8.585   2.329  10.467  1.2534  3.7771 -3.2016
  167MOL0     H23016   8.540   2.129  10.289 -0.9067 -0.3724 -0.8772
  167MOL0     H23017   8.698   2.175  10.220 -0.0111 -0.1545  0.2510
  167MOL0     H23018   8.449   2.298  10.162 -0.1731 -0.0292  0.8627
  167MOL0     H23019   8.555   2.418  10.238  3.4932  1.1364 -2.3018
  167MOL0     H23020   8.637   2.241  10.007  2.5782 -0.7864  1.3643
  167MOL0     H23021   8.739   2.367  10.080  0.0424  0.3079 -1.3714
  167MOL0     H23022   8.580   2.539  10.034  0.7463 -0.9579 -0.0317
  167MOL0     H23023   8.485   2.426   9.927 -1.1378  2.2047  0.5818
  167MOL0     H23024   8.699   2.398   9.782 -2.3142 -0.0057 -1.5335
  167MOL0     H23025   8.781   2.512   9.897  0.2019 -2.7876  0.4545
  167MOL0     H23026   8.466   2.258  10.873 -1.2370  0.5512  1.4084
  167MOL0     H23027   8.478   2.212  11.125  0.4924 -1.5865  1.8195
  167MOL0     H23028   8.582   2.101  11.474 -0.2506  1.9751 -2.8024
  167MOL0     H23029   8.537   2.041  11.690 -1.1342  0.5433 -0.3663
  167MOL0     H23030   8.542   1.037  11.271 -1.7444 -1.9430 -0.1326
  167MOL0     H23031   8.662   1.134  11.045  0.3768  1.6561 -0.3189
  167MOL0     H23032   8.466   1.385  10.713  2.4419  3.3375 -0.9111
  167MOL0     H23033   8.472   1.547  10.524  2.9489  0.3662 -3.0663
  167MOL0     H23034   8.402   1.654  10.329  1.7101  4.7723  1.3566
  167MOL0     H23035   8.564   1.684  10.378 -3.9192 -0.6344  2.9172
  167MOL0     H23036   8.464   1.647  10.090 -0.6497  0.6381 -1.6240
  167MOL0     H23037   8.634   1.675  10.146  0.2926  0.6309  0.4936
  167MOL0     H23038   8.442   1.895  10.210 -0.5977  1.6457 -1.0304
  167MOL0     H23039   8.617   1.892  10.192  0.9763 -2.3215  1.1769
  167MOL0     H23040   8.494   2.005  10.019  3.0481 -0.0855  1.5347
  167MOL0     H23041   8.432   1.850   9.956 -2.6834  3.0730  1.1331
  167MOL0     H23042   8.813   1.912   9.793 -1.0582 -0.7218 -0.7405
  167MOL0     H23043   8.653   1.267  10.270  2.7164 -0.8794  1.6308
  167MOL0     H23044   8.587   1.021  10.347 -0.0077  0.7023  0.4455
  167MOL0     H23045   8.750   1.069  10.363  0.9202 -4.0194 -0.6033
  167MOL0     H23046   8.666   0.981  10.497  1.6137  0.4557 -0.2340
  168MOL0     O23047   7.205   5.000   3.776 -0.1719 -0.1678  0.4888
  168MOL0     C23048   7.203   5.119   3.750 -0.0183  0.1263 -0.7643
  168MOL0     O23049   7.313   5.186   3.699  0.0842  0.0628 -0.2056
  168MOL0     C23050   7.427   5.115   3.675 -0.2267  0.0461 -0.2380
  168MOL0     C23051   7.510   5.081   3.785 -0.0307  0.8176 -0.7051
  168MOL0     C23052   7.627   5.001   3.763 -0.2204  0.4359 -0.1643
  168MOL0     C23053   7.664   4.963   3.635 -0.2674  0.4009  1.1133
  168MOL0     O23054   7.790   4.903   3.616  0.2729  0.5273  0.1623
  168MOL0     C23055   7.897   4.944   3.702 -0.0938  0.2316 -0.0533
  168MOL0     C23056   8.032   4.910   3.644 -0.3155  0.1849  0.1424
  168MOL0     C23057   8.141   4.997   3.687  1.1588  0.1427 -0.0591
  168MOL0     C23058   8.262   4.978   3.592  0.2396  0.1641  0.5886
  168MOL0     C23059   8.369   5.059   3.651  0.2040 -0.9128  0.1402
  168MOL0     C23060   8.507   5.033   3.592 -0.0194 -0.0789 -0.0420
  168MOL0     C23061   8.621   5.122   3.637  0.3718  0.7531  0.7753
  168MOL0     C23062   8.615   5.265   3.563 -0.4308  0.2777  0.7069
  168MOL0     N23063   8.667   5.255   3.421 -0.3166  0.1778  0.2451
  168MOL0     C23064   8.764   5.336   3.374 -0.2645 -0.2580 -0.5310
  168MOL0     C23065   8.756   5.326   3.242 -0.5608  0.1018 -0.4702
  168MOL0     C23066   8.846   5.382   3.138  0.6895  0.0738 -0.2254
  168MOL0     C23067   8.806   5.518   3.086 -0.5746 -0.3310 -0.1896
  168MOL0     C23068   8.671   5.530   3.033 -0.2066  0.6560  0.1916
  168MOL0     C23069   8.642   5.679   3.024 -0.0765  0.3367  0.2623
  168MOL0     O23070   8.520   5.681   2.959  0.4700  0.0558 -0.0059
  168MOL0     C23071   8.470   5.806   2.927 -1.4089 -0.3838  0.7991
  168MOL0     C23072   8.440   5.822   2.790  0.1662 -0.1958  0.4155
  168MOL0     C23073   8.348   5.925   2.745 -0.3268 -0.0411  0.3752
  168MOL0     C23074   8.318   5.915   2.596 -0.0360  0.6857  0.1196
  168MOL0     C23075   8.302   6.021   2.837 -1.0760  0.5720 -0.6273
  168MOL0     C23076   8.210   6.133   2.803  0.1985  0.1438  0.0327
  168MOL0     O23077   8.159   6.132   2.675  0.5316 -0.3264 -0.2488
  168MOL0     C23078   8.059   6.232   2.663  0.9787 -0.3884  0.2429
  168MOL0     C23079   7.926   6.202   2.688 -0.2145 -0.3740 -1.1479
  168MOL0     C23080   7.829   6.301   2.678 -0.3530  0.6984 -0.6017
  168MOL0     C23081   7.861   6.437   2.694 -0.7831 -0.7085  0.0391
  168MOL0     O23082   7.747   6.519   2.722  1.0458  0.1056  0.3382
  168MOL0     C23083   7.770   6.658   2.741 -0.1593  0.1695 -2.1737
  168MOL0     C23084   7.804   6.708   2.879  0.0755 -0.1924  0.5839
  168MOL0     C23085   7.680   6.745   2.966 -0.0795 -0.5950  0.1428
  168MOL0     C23086   7.708   6.888   3.018 -0.0643 -0.0194  0.8883
  168MOL0     C23087   7.651   6.915   3.160  0.5437  0.4151 -0.8505
  168MOL0     C23088   7.493   6.897   3.167 -0.2588 -0.2764 -0.5266
  168MOL0     C23089   7.420   6.969   3.046  0.3964  0.2353 -0.1748
  168MOL0     C23090   7.438   7.121   3.053  0.5112  0.5661 -0.1180
  168MOL0    Cl23091   7.301   7.220   2.985  0.0958 -0.4082 -0.0903
  168MOL0     C23092   7.992   6.465   2.656  0.2930 -0.7204 -0.6684
  168MOL0     C23093   8.082   6.367   2.636 -1.3229 -0.0813 -0.9166
  168MOL0     O23094   8.198   6.221   2.886 -0.1148 -0.0209  0.0490
  168MOL0     C23095   8.342   6.005   2.973  0.5647 -1.0808  0.0676
  168MOL0     C23096   8.427   5.904   3.020 -0.9048 -0.2422 -0.2846
  168MOL0     N23097   8.642   5.251   3.212 -0.4787 -0.4905 -0.6620
  168MOL0     N23098   8.585   5.222   3.320  0.3625 -0.1705  0.6146
  168MOL0     C23099   7.587   5.005   3.523 -0.4148 -0.6070  0.3839
  168MOL0     C23100   7.468   5.075   3.550  0.0774 -0.3769 -0.1277
  168MOL0     C23101   7.090   5.188   3.746  0.2930  0.8234 -0.0596
  168MOL0     C23102   7.043   5.241   3.618  0.7012 -0.1338 -0.5377
  168MOL0     C23103   6.934   5.333   3.615 -0.8773  0.4255  0.7996
  168MOL0     C23104   6.873   5.358   3.735 -0.0107 -0.1792 -1.6944
  168MOL0     O23105   6.754   5.430   3.744  0.4287 -0.0554  0.1278
  168MOL0     C23106   6.643   5.351   3.690  0.2234  0.3268 -0.6525
  168MOL0     C23107   6.598   5.409   3.542  0.8402  0.6472 -0.0004
  168MOL0     C23108   6.518   5.545   3.563 -0.1434  0.1161  0.5707
  168MOL0     C23109   6.458   5.614   3.431 -1.1052  0.3421  0.0721
  168MOL0     C23110   6.571   5.679   3.359  0.0472  0.8019  0.0830
  168MOL0     C23111   6.673   5.703   3.300 -0.1457 -0.4692 -0.5301
  168MOL0     C23112   6.911   5.300   3.859  0.1352  0.0996 -0.1089
  168MOL0     C23113   7.023   5.214   3.863  0.5082  0.5953  0.4459
  168MOL0     C23114   7.070   5.171   3.995  0.7376  0.6328 -0.6081
  168MOL0     H23115   7.494   5.110   3.888  3.2741  0.5153 -0.0098
  168MOL0     H23116   7.683   4.975   3.853 -0.0126  1.2466 -0.0544
  168MOL0     H23117   7.896   4.894   3.799  2.1368  0.6685  0.2548
  168MOL0     H23118   7.895   5.053   3.715 -0.6952  0.4655 -1.8658
  168MOL0     H23119   8.071   4.812   3.670  2.5464  1.0547 -0.4498
  168MOL0     H23120   8.010   4.914   3.537 -2.8488 -0.5752  0.5708
  168MOL0     H23121   8.101   5.096   3.714 -1.3717 -1.1081  1.1089
  168MOL0     H23122   8.177   4.948   3.778 -2.0392  1.0498  1.8441
  168MOL0     H23123   8.299   4.875   3.590  1.1049  0.4736 -0.6333
  168MOL0     H23124   8.231   5.009   3.492  0.9427 -3.0113 -0.7292
  168MOL0     H23125   8.374   5.015   3.751 -1.0672 -0.1928  0.5460
  168MOL0     H23126   8.343   5.165   3.658  2.0227 -0.4184  0.1039
  168MOL0     H23127   8.520   4.925   3.601 -2.4017 -0.5529 -1.4549
  168MOL0     H23128   8.494   5.047   3.484  0.8870  2.3542  0.1122
  168MOL0     H23129   8.712   5.065   3.617 -0.3657 -0.3570  0.4908
  168MOL0     H23130   8.616   5.135   3.746  2.7592 -3.1106  1.5646
  168MOL0     H23131   8.512   5.299   3.564 -0.0798  1.5475 -1.5457
  168MOL0     H23132   8.686   5.337   3.605  3.5282 -0.8672 -3.3029
  168MOL0     H23133   8.839   5.386   3.436  0.4231 -1.1108 -0.6503
  168MOL0     H23134   8.837   5.314   3.053 -2.4912 -0.6127  0.5219
  168MOL0     H23135   8.946   5.398   3.179 -0.0386  0.3613  1.4974
  168MOL0     H23136   8.822   5.590   3.167  0.1406 -2.8980  2.1234
  168MOL0     H23137   8.867   5.551   3.002  1.2272 -0.6087  0.9631
  168MOL0     H23138   8.671   5.472   2.940  0.3821 -2.5428  2.0369
  168MOL0     H23139   8.601   5.484   3.105  2.6656 -0.7257  2.2994
  168MOL0     H23140   8.625   5.730   3.120  0.0750  1.1687 -0.1368
  168MOL0     H23141   8.723   5.722   2.965  1.9013 -2.4840  0.7286
  168MOL0     H23142   8.479   5.752   2.717  0.8692  0.2686  0.3327
  168MOL0     H23143   8.392   5.851   2.545 -0.7416  1.0658 -1.4546
  168MOL0     H23144   8.327   6.011   2.545 -2.4152 -0.7389 -3.4325
  168MOL0     H23145   8.218   5.875   2.579 -1.7591  3.7356  2.2617
  168MOL0     H23146   7.888   6.106   2.721 -1.0559  0.0156 -0.9724
  168MOL0     H23147   7.732   6.257   2.700  0.5618 -0.2565  1.9630
  168MOL0     H23148   7.847   6.696   2.674  2.5905 -1.2678 -0.0407
  168MOL0     H23149   7.677   6.711   2.716 -1.3373 -2.3945 -3.6985
  168MOL0     H23150   7.862   6.626   2.922  0.8543 -0.1830 -0.4431
  168MOL0     H23151   7.873   6.792   2.870  3.5620 -2.8182  0.7357
  168MOL0     H23152   7.671   6.671   3.046 -0.1357  0.4224  1.1059
  168MOL0     H23153   7.589   6.753   2.907 -0.1376  0.5805  0.3617
  168MOL0     H23154   7.661   6.957   2.947 -1.9937 -0.7947  1.3430
  168MOL0     H23155   7.815   6.911   3.026  0.3000 -1.9289  2.3152
  168MOL0     H23156   7.692   6.845   3.234 -0.6076  0.0854 -0.4936
  168MOL0     H23157   7.681   7.010   3.205  2.2547 -1.6178  2.7952
  168MOL0     H23158   7.457   6.941   3.261 -1.5682  1.1855 -1.6554
  168MOL0     H23159   7.462   6.793   3.170 -2.0212  0.2353  0.2941
  168MOL0     H23160   7.314   6.946   3.048 -0.3315  2.5844 -3.2292
  168MOL0     H23161   7.460   6.938   2.949 -2.7713  0.7281 -1.7819
  168MOL0     H23162   7.532   7.145   3.002  1.7593 -1.6400  0.9906
  168MOL0     H23163   7.450   7.144   3.160  3.2269  0.0386 -0.2248
  168MOL0     H23164   8.009   6.572   2.657 -0.5464 -0.5802  0.2789
  168MOL0     H23165   8.182   6.405   2.619 -1.5114  1.3185  0.7957
  168MOL0     H23166   8.305   6.079   3.043 -0.6460 -0.4114 -1.2420
  168MOL0     H23167   8.457   5.883   3.122  0.8404  0.2273 -0.6648
  168MOL0     H23168   7.621   4.967   3.427  4.9070 -2.2358  2.5083
  168MOL0     H23169   7.410   5.090   3.459 -0.0444 -0.1789 -0.0192
  168MOL0     H23170   7.076   5.220   3.517 -1.5653 -3.4156 -0.7670
  168MOL0     H23171   6.900   5.385   3.526  0.4529  5.0106  2.6900
  168MOL0     H23172   6.675   5.248   3.670  1.1610  0.4264  0.2042
  168MOL0     H23173   6.561   5.349   3.762  2.6073  1.6041  2.3316
  168MOL0     H23174   6.534   5.339   3.487  0.3597 -0.5224  1.9357
  168MOL0     H23175   6.688   5.419   3.481  1.3637 -0.9658  0.4449
  168MOL0     H23176   6.427   5.528   3.621  0.4967 -0.2249  1.4945
  168MOL0     H23177   6.573   5.616   3.626 -2.4731  2.8259 -0.2174
  168MOL0     H23178   6.382   5.687   3.459  0.5094  1.5897  1.4489
  168MOL0     H23179   6.413   5.539   3.365  0.7269  0.4680 -1.4298
  168MOL0     H23180   6.761   5.708   3.239  1.4910  1.6866  1.7872
  168MOL0     H23181   6.834   5.318   3.933  0.0930  1.1996 -0.4058
  168MOL0     H23182   7.172   5.205   4.013  1.6751 -1.8905 -0.7725
  168MOL0     H23183   7.004   5.214   4.071  1.1391 -1.7445  1.1884
  168MOL0     H23184   7.074   5.062   4.002 -0.7242  0.6556  1.6345
  169MOL0     O23185   4.759   8.027   1.728 -0.8271 -0.2023 -0.4653
  169MOL0     C23186   4.733   8.036   1.613  0.3814  0.1111 -0.6335
  169MOL0     O23187   4.828   8.037   1.518  0.2934  0.2285  0.3015
  169MOL0     C23188   4.964   8.071   1.545 -0.4517 -0.0901  0.2880
  169MOL0     C23189   5.013   8.170   1.629  0.2639  0.2694 -0.5242
  169MOL0     C23190   5.151   8.196   1.630 -0.9350  0.2946  0.0407
  169MOL0     C23191   5.242   8.129   1.539 -0.2160 -0.5668 -0.0390
  169MOL0     O23192   5.379   8.151   1.528  0.2110  1.3965  0.8623
  169MOL0     C23193   5.455   8.201   1.637 -0.8701  0.0028 -0.8282
  169MOL0     C23194   5.465   8.360   1.645  0.1126  0.5843 -0.5558
  169MOL0     C23195   5.526   8.417   1.514 -0.2010 -0.4076 -0.9581
  169MOL0     C23196   5.560   8.565   1.543 -0.1153 -0.4738 -0.0900
  169MOL0     C23197   5.616   8.621   1.406 -0.5986 -1.0677 -0.0476
  169MOL0     C23198   5.683   8.766   1.421 -0.4850  1.5771  0.4478
  169MOL0     C23199   5.586   8.881   1.385  0.4516 -1.1623  0.2296
  169MOL0     C23200   5.578   8.895   1.226  0.2552 -0.0159  0.5353
  169MOL0     N23201   5.479   8.990   1.194  0.7289  0.1598  0.4267
  169MOL0     C23202   5.399   8.989   1.081 -0.8248 -0.0936  0.1803
  169MOL0     C23203   5.346   9.111   1.071  0.5249  0.0131 -0.0923
  169MOL0     C23204   5.247   9.152   0.963  0.0762  0.5484  0.1404
  169MOL0     C23205   5.272   9.299   0.924 -0.0391  0.4810  0.0675
  169MOL0     C23206   5.138   9.349   0.863  0.6796  0.6946 -0.1680
  169MOL0     C23207   5.076   9.284   0.748 -0.5402  0.6540  1.2079
  169MOL0     O23208   4.942   9.313   0.724 -0.2810  0.3367 -0.4246
  169MOL0     C23209   4.844   9.236   0.796 -0.6825  0.1527  0.2611
  169MOL0     C23210   4.716   9.273   0.778  0.7629 -0.3547  0.3859
  169MOL0     C23211   4.610   9.220   0.849  0.2513 -0.3192  0.0115
  169MOL0     C23212   4.482   9.299   0.825  0.2439 -0.6459  0.3104
  169MOL0     C23213   4.634   9.133   0.953  0.6952  1.2827 -0.2715
  169MOL0     C23214   4.532   9.079   1.054  0.1499 -0.0817  1.0498
  169MOL0     O23215   4.584   9.019   1.160  0.7932 -0.8750 -0.1282
  169MOL0     C23216   4.506   8.978   1.266  0.1183 -0.1359 -0.7030
  169MOL0     C23217   4.371   8.939   1.255 -0.0642 -0.8430 -1.2497
  169MOL0     C23218   4.302   8.917   1.372  0.6186 -0.0799  0.2217
  169MOL0     C23219   4.364   8.899   1.496 -0.1819 -0.3949  0.5749
  169MOL0     O23220   4.315   8.865   1.623 -0.0113 -0.0812  0.4363
  169MOL0     C23221   4.178   8.911   1.637 -1.0845 -0.0881  0.8068
  169MOL0     C23222   4.142   8.918   1.785  0.9099 -0.8980 -0.9146
  169MOL0     C23223   4.093   8.795   1.850 -0.0881 -0.6915  0.0431
  169MOL0     C23224   4.016   8.831   1.981  0.0073 -0.0301 -0.5191
  169MOL0     C23225   3.982   8.705   2.054 -0.1486 -0.0137 -0.5247
  169MOL0     C23226   4.001   8.709   2.202 -0.1768 -0.3229  1.0771
  169MOL0     C23227   4.007   8.575   2.266 -0.0972 -0.1286  0.2533
  169MOL0     C23228   4.086   8.578   2.397 -0.2045  0.5607 -0.5512
  169MOL0    Cl23229   3.990   8.660   2.516  0.7447 -0.3142  0.4233
  169MOL0     C23230   4.500   8.930   1.499  0.0195  0.1731 -0.3815
  169MOL0     C23231   4.571   8.971   1.390 -0.7006  0.3759 -0.1488
  169MOL0     O23232   4.412   9.095   1.029  0.1323  0.3097  0.1513
  169MOL0     C23233   4.768   9.080   0.965 -0.3590  0.2792 -0.0805
  169MOL0     C23234   4.874   9.141   0.894  0.6085 -0.9409  0.6746
  169MOL0     N23235   5.389   9.187   1.180  0.8236 -0.1188 -0.4380
  169MOL0     N23236   5.471   9.120   1.249 -0.0470  0.7316 -0.1806
  169MOL0     C23237   5.196   8.024   1.461 -0.6168 -0.9765  0.3160
  169MOL0     C23238   5.055   8.000   1.461 -0.8272  0.0126 -0.2338
  169MOL0     C23239   4.581   8.054   1.586 -0.4443 -0.2754  1.7842
  169MOL0     C23240   4.531   8.021   1.450 -0.2469 -0.6861  0.1083
  169MOL0     C23241   4.389   8.036   1.419  0.0012 -0.4290 -0.5145
  169MOL0     C23242   4.303   8.093   1.513 -0.2645 -0.0488  1.5971
  169MOL0     O23243   4.177   8.128   1.500  0.1432  1.1915  0.7099
  169MOL0     C23244   4.130   8.136   1.369  0.5208 -0.5661  0.0348
  169MOL0     C23245   3.994   8.203   1.355  0.9105 -0.1219  0.4047
  169MOL0     C23246   3.888   8.139   1.439 -0.0635  1.1365  0.2216
  169MOL0     C23247   3.746   8.183   1.420  0.8546 -0.7965  1.0207
  169MOL0     C23248   3.687   8.144   1.300  1.0166 -0.7945  0.5638
  169MOL0     C23249   3.616   8.120   1.198 -0.5108  0.3070  1.0388
  169MOL0     C23250   4.360   8.131   1.634  0.5957 -0.3529  0.0080
  169MOL0     C23251   4.486   8.105   1.676 -0.3630  0.0728  0.8114
  169MOL0     C23252   4.533   8.155   1.816  0.9804  0.5187  0.4320
  169MOL0     H23253   4.939   8.226   1.686  1.6488  0.1771  1.4540
  169MOL0     H23254   5.188   8.284   1.682  1.0943  0.7327 -1.9830
  169MOL0     H23255   5.552   8.152   1.626 -0.4266  0.6598 -0.0095
  169MOL0     H23256   5.406   8.160   1.726 -3.5116  1.9092 -1.3054
  169MOL0     H23257   5.373   8.416   1.667  0.0633 -0.5816  2.6192
  169MOL0     H23258   5.536   8.390   1.722  0.9134  0.4976 -1.2441
  169MOL0     H23259   5.610   8.353   1.487 -1.1306 -2.9300  1.5551
  169MOL0     H23260   5.450   8.416   1.435 -2.5356 -0.7145  1.1611
  169MOL0     H23261   5.465   8.614   1.566  0.8047  0.4785  1.9114
  169MOL0     H23262   5.621   8.587   1.631  2.3903 -2.6883 -1.1459
  169MOL0     H23263   5.529   8.613   1.341 -0.8754 -1.8477  0.4044
  169MOL0     H23264   5.684   8.555   1.351 -1.9613 -0.4408 -2.6525
  169MOL0     H23265   5.730   8.778   1.519  0.0073 -0.8627  0.5836
  169MOL0     H23266   5.755   8.776   1.340 -0.4972  0.3808  0.2708
  169MOL0     H23267   5.623   8.975   1.427  0.2826  1.0383 -3.9803
  169MOL0     H23268   5.488   8.871   1.433 -0.3430 -0.8826 -1.2945
  169MOL0     H23269   5.678   8.926   1.197  0.0694  1.9677  1.8467
  169MOL0     H23270   5.559   8.798   1.178  0.1707 -0.1612  0.8544
  169MOL0     H23271   5.381   8.902   1.018 -3.6941 -1.2303  2.3007
  169MOL0     H23272   5.147   9.140   1.005 -0.4666  1.0310 -0.9864
  169MOL0     H23273   5.255   9.085   0.878  0.3748  1.4769 -0.5829
  169MOL0     H23274   5.290   9.366   1.009  1.2616  0.8681 -0.4939
  169MOL0     H23275   5.348   9.316   0.847 -1.8292  2.8283 -1.3235
  169MOL0     H23276   5.063   9.356   0.943 -1.9008  2.1762 -2.5709
  169MOL0     H23277   5.137   9.456   0.841 -2.8783  0.8868  0.4401
  169MOL0     H23278   5.114   9.333   0.658  0.1103 -0.1221  1.0568
  169MOL0     H23279   5.097   9.178   0.737  2.9906  1.3590 -0.1567
  169MOL0     H23280   4.700   9.348   0.701 -0.2843  1.3319  2.1414
  169MOL0     H23281   4.506   9.400   0.790 -0.0406 -0.3585  0.9368
  169MOL0     H23282   4.417   9.311   0.912  0.3275  3.0578  0.0529
  169MOL0     H23283   4.430   9.244   0.746  3.5406 -1.4913 -1.4569
  169MOL0     H23284   4.309   8.938   1.166 -2.3930 -0.1264  0.2642
  169MOL0     H23285   4.198   8.914   1.343  1.0969 -2.0353 -1.5304
  169MOL0     H23286   4.169   9.013   1.599 -3.3008  0.5389  2.7575
  169MOL0     H23287   4.108   8.846   1.583 -0.0040  0.2326 -1.0567
  169MOL0     H23288   4.227   8.946   1.848 -0.3435  0.2035  0.3434
  169MOL0     H23289   4.070   9.000   1.786 -0.9649 -2.4421 -2.1500
  169MOL0     H23290   4.178   8.728   1.865 -0.4370 -1.5889 -1.7543
  169MOL0     H23291   4.021   8.743   1.786 -0.5346  0.3609 -0.3289
  169MOL0     H23292   3.921   8.884   1.979 -1.0187 -1.8262 -0.7917
  169MOL0     H23293   4.072   8.897   2.049 -1.9106  1.6529 -0.4893
  169MOL0     H23294   3.885   8.666   2.019  1.0215 -2.0796 -1.6962
  169MOL0     H23295   4.050   8.625   2.022  1.8102  1.2165  0.3743
  169MOL0     H23296   3.916   8.761   2.247  0.5807  0.8638  1.1820
  169MOL0     H23297   4.095   8.759   2.225 -0.4337  0.4583  0.4760
  169MOL0     H23298   4.040   8.498   2.195 -1.3007 -0.5135  0.0872
  169MOL0     H23299   3.900   8.554   2.278 -1.6965  3.0778 -4.8917
  169MOL0     H23300   4.179   8.634   2.385  1.2953 -0.8932  2.9392
  169MOL0     H23301   4.105   8.476   2.433  1.3854  1.1230  0.2902
  169MOL0     H23302   4.553   8.916   1.593  0.5229  1.9592 -0.3699
  169MOL0     H23303   4.678   8.982   1.410 -0.3520 -2.7710  0.3588
  169MOL0     H23304   4.790   9.012   1.046 -0.5043 -2.4152 -2.1552
  169MOL0     H23305   4.974   9.130   0.934  0.3020 -2.3854  1.1053
  169MOL0     H23306   5.268   7.977   1.395  0.3136 -1.4516  1.6540
  169MOL0     H23307   5.007   7.921   1.403  0.9408  0.6203 -2.7131
  169MOL0     H23308   4.607   7.986   1.382  2.9302  2.4411  1.7625
  169MOL0     H23309   4.355   7.999   1.323  0.6347 -3.1525  0.2226
  169MOL0     H23310   4.193   8.187   1.295 -1.1512  1.2879 -0.1848
  169MOL0     H23311   4.126   8.035   1.328  0.1619 -0.1097 -1.0871
  169MOL0     H23312   3.958   8.178   1.254 -0.5768 -1.5796  1.2398
  169MOL0     H23313   4.006   8.310   1.374  3.3332 -0.6461  2.3473
  169MOL0     H23314   3.892   8.030   1.425 -2.7606  0.8550  1.0945
  169MOL0     H23315   3.901   8.166   1.544 -1.3320  0.6383  0.5302
  169MOL0     H23316   3.743   8.292   1.426 -0.7522 -0.8278  1.0440
  169MOL0     H23317   3.675   8.148   1.495 -1.5201 -0.6454 -1.0154
  169MOL0     H23318   3.558   8.094   1.112  2.6356  0.4291 -1.3051
  169MOL0     H23319   4.297   8.191   1.699 -0.3131 -0.9807 -0.2695
  169MOL0     H23320   4.542   8.060   1.870  0.3673 -1.2794 -2.4418
  169MOL0     H23321   4.623   8.215   1.801 -0.1649  1.5694 -3.2016
  169MOL0     H23322   4.464   8.220   1.870  0.6984 -0.7542  1.6658
  170MOL0     O23323   6.802   1.275   0.703 -0.5101  0.7508  0.2664
  170MOL0     C23324   6.751   1.257   0.808 -0.2059 -0.1613 -0.8562
  170MOL0     O23325   6.695   1.133   0.843 -1.0276 -0.3561 -0.5483
  170MOL0     C23326   6.699   1.042   0.740 -0.5412 -0.1835 -0.0985
  170MOL0     C23327   6.809   0.959   0.721 -0.3367  0.5633  0.7130
  170MOL0     C23328   6.807   0.878   0.604  0.3496  0.9409 -0.3333
  170MOL0     C23329   6.717   0.904   0.506  0.5123  0.4215 -0.6323
  170MOL0     O23330   6.735   0.838   0.383  0.2812 -0.0840  1.0071
  170MOL0     C23331   6.700   0.915   0.261 -0.0827  0.9112 -0.7065
  170MOL0     C23332   6.815   1.016   0.227  0.7735  0.0309  0.7673
  170MOL0     C23333   6.956   0.944   0.228  0.2439 -0.1545  0.0317
  170MOL0     C23334   7.055   1.055   0.208  0.5670 -0.3798  0.4863
  170MOL0     C23335   7.097   1.135   0.328  1.1934 -0.9232  0.1251
  170MOL0     C23336   7.078   1.069   0.459  0.1534 -0.8250  0.9079
  170MOL0     C23337   7.139   1.167   0.560 -0.4174  0.2303 -0.2015
  170MOL0     C23338   7.182   1.109   0.687  0.5499  0.1175 -0.1095
  170MOL0     N23339   7.227   1.206   0.790  0.2643  0.0008  0.0234
  170MOL0     C23340   7.144   1.239   0.893  0.4841 -0.6195 -0.1826
  170MOL0     C23341   7.233   1.295   0.979  0.3762 -0.5888  0.4813
  170MOL0     C23342   7.212   1.362   1.109 -0.4231 -0.2419 -0.9107
  170MOL0     C23343   7.283   1.281   1.225 -0.5498 -0.6828 -0.4238
  170MOL0     C23344   7.284   1.350   1.364  0.5503 -0.1859 -0.3082
  170MOL0     C23345   7.348   1.268   1.478  0.3479  0.4586 -0.6341
  170MOL0     O23346   7.332   1.361   1.592  0.3951 -0.2283  0.5690
  170MOL0     C23347   7.319   1.313   1.721  0.1150  0.8886 -1.0946
  170MOL0     C23348   7.313   1.178   1.755 -0.9076 -0.1201 -0.8782
  170MOL0     C23349   7.291   1.124   1.887 -0.9340  0.2844  0.5564
  170MOL0     C23350   7.281   0.974   1.885  0.3535 -0.0209  0.3492
  170MOL0     C23351   7.275   1.216   1.993  0.7604  0.9159 -0.4260
  170MOL0     C23352   7.245   1.178   2.137  0.8494  0.4735 -0.0591
  170MOL0     O23353   7.243   1.282   2.228 -0.5218  0.1100  0.3050
  170MOL0     C23354   7.193   1.259   2.355  0.3296 -0.3117  0.1304
  170MOL0     C23355   7.237   1.155   2.434 -0.4043  0.4941 -0.2518
  170MOL0     C23356   7.189   1.139   2.561 -0.3061 -0.3388  0.5051
  170MOL0     C23357   7.106   1.234   2.614  0.0383  0.3375  0.2018
  170MOL0     O23358   7.061   1.212   2.744  0.3897 -0.8068 -0.3208
  170MOL0     C23359   6.919   1.245   2.756  0.0499 -0.5147  0.3648
  170MOL0     C23360   6.848   1.149   2.851 -0.0516  0.7049  0.6468
  170MOL0     C23361   6.716   1.204   2.896 -0.0100 -1.1003  0.5951
  170MOL0     C23362   6.719   1.319   3.004 -0.5145  0.2566 -0.1329
  170MOL0     C23363   6.580   1.381   3.026 -0.3000 -0.0205 -0.3682
  170MOL0     C23364   6.526   1.468   2.906 -1.3167  1.2300 -0.2718
  170MOL0     C23365   6.406   1.539   2.935 -0.6695 -0.5718 -0.6882
  170MOL0     C23366   6.287   1.459   2.899  0.5773  0.2070  0.4143
  170MOL0    Cl23367   6.141   1.545   2.846  0.0197 -0.0620  0.2271
  170MOL0     C23368   7.068   1.351   2.543 -0.4363 -0.4017  0.4959
  170MOL0     C23369   7.119   1.366   2.415 -0.1854  0.2864 -0.2972
  170MOL0     O23370   7.224   1.057   2.159  0.1865  0.5013 -0.7036
  170MOL0     C23371   7.273   1.354   1.958 -1.1904 -0.4045  0.0541
  170MOL0     C23372   7.287   1.394   1.822 -0.3052  0.5529  0.5135
  170MOL0     N23373   7.358   1.300   0.926  0.0471 -1.0419 -0.1229
  170MOL0     N23374   7.357   1.248   0.809 -0.0632 -1.0187 -0.1201
  170MOL0     C23375   6.606   0.988   0.523  0.3933 -0.5965 -0.2515
  170MOL0     C23376   6.594   1.056   0.646  0.8334 -0.0225  1.1824
  170MOL0     C23377   6.758   1.370   0.918  0.9396 -0.8316  0.1181
  170MOL0     C23378   6.731   1.336   1.053 -0.1151 -1.0620  0.5394
  170MOL0     C23379   6.734   1.422   1.158  0.3400 -0.3190 -0.3477
  170MOL0     C23380   6.773   1.553   1.147 -0.1915 -1.0657 -0.4464
  170MOL0     O23381   6.792   1.621   1.263 -0.4467 -0.0456  0.0274
  170MOL0     C23382   6.882   1.732   1.264 -0.4364  0.1019 -1.3802
  170MOL0     C23383   6.918   1.765   1.408 -0.1206 -0.3184 -0.1414
  170MOL0     C23384   6.995   1.639   1.460  0.2557 -0.1970  0.3412
  170MOL0     C23385   7.037   1.611   1.601  1.2229 -0.3852 -0.1331
  170MOL0     C23386   7.128   1.718   1.643  0.2301 -0.4396  0.9899
  170MOL0     C23387   7.204   1.809   1.663  0.6547 -1.0187  0.1092
  170MOL0     C23388   6.805   1.599   1.018  0.8456 -0.4767  0.7815
  170MOL0     C23389   6.791   1.509   0.901 -0.0666 -0.0200 -0.7452
  170MOL0     C23390   6.842   1.551   0.766  0.3073  0.7876 -0.7096
  170MOL0     H23391   6.894   0.944   0.787 -0.0879 -1.8516 -0.0508
  170MOL0     H23392   6.888   0.807   0.588 -0.6896 -0.0420 -1.4160
  170MOL0     H23393   6.610   0.978   0.265 -1.0503 -0.3443 -1.5872
  170MOL0     H23394   6.678   0.853   0.173 -1.0370 -0.3554  0.3845
  170MOL0     H23395   6.803   1.059   0.128 -4.5878  1.3235  1.6819
  170MOL0     H23396   6.813   1.097   0.300  1.0799  2.7215 -2.0450
  170MOL0     H23397   6.981   0.884   0.316  1.2068  0.7465  0.3889
  170MOL0     H23398   6.971   0.867   0.152  2.4436 -0.4212  0.6874
  170MOL0     H23399   7.140   1.016   0.152  0.6288 -0.5112  0.6705
  170MOL0     H23400   7.015   1.123   0.132 -2.0731  0.1879  2.2530
  170MOL0     H23401   7.032   1.223   0.325 -0.5182 -2.1828 -0.7456
  170MOL0     H23402   7.199   1.170   0.305 -0.1674  0.7659 -4.5125
  170MOL0     H23403   6.972   1.057   0.483 -0.6448 -0.9898 -2.2964
  170MOL0     H23404   7.128   0.972   0.472 -0.2321 -0.8165  2.8054
  170MOL0     H23405   7.060   1.241   0.576  0.0496  0.3624  1.7058
  170MOL0     H23406   7.229   1.210   0.517  1.0025 -1.4641  0.9301
  170MOL0     H23407   7.097   1.047   0.719  0.5727  0.2900  0.2908
  170MOL0     H23408   7.270   1.050   0.658 -0.1023  0.5932 -3.4204
  170MOL0     H23409   7.035   1.238   0.901  0.3532  2.2073 -0.4320
  170MOL0     H23410   7.107   1.392   1.118  0.5362  3.5926 -0.7318
  170MOL0     H23411   7.257   1.462   1.106  2.4025 -1.1538  3.2489
  170MOL0     H23412   7.236   1.182   1.228 -2.2809  0.1174 -0.1415
  170MOL0     H23413   7.388   1.262   1.200  1.0488  3.5413  2.1493
  170MOL0     H23414   7.348   1.439   1.367  0.0954  0.2420 -2.1185
  170MOL0     H23415   7.180   1.369   1.389 -0.3675 -2.5034 -1.9499
  170MOL0     H23416   7.286   1.179   1.491  0.2397  0.6212 -0.0143
  170MOL0     H23417   7.447   1.237   1.443 -0.5192 -1.5134 -1.5152
  170MOL0     H23418   7.327   1.103   1.678  0.9626 -1.8742  1.0476
  170MOL0     H23419   7.382   0.949   1.919  0.9990  4.0681  2.0624
  170MOL0     H23420   7.269   0.931   1.785 -1.4771  3.7481 -1.2365
  170MOL0     H23421   7.204   0.936   1.951  0.5556  1.0310  1.2158
  170MOL0     H23422   7.314   1.089   2.399  0.4222  0.3906  1.6424
  170MOL0     H23423   7.220   1.048   2.611  1.5925 -0.3140 -0.5026
  170MOL0     H23424   6.918   1.350   2.786 -0.5070  0.1046 -1.7238
  170MOL0     H23425   6.861   1.230   2.665 -3.9308 -0.6959  2.7066
  170MOL0     H23426   6.809   1.061   2.798 -1.5840 -0.2084  3.1077
  170MOL0     H23427   6.912   1.105   2.927 -0.6995 -3.4182 -0.9392
  170MOL0     H23428   6.648   1.131   2.941 -3.3279  3.6127  4.2640
  170MOL0     H23429   6.659   1.235   2.808 -0.6063 -0.4280  1.2055
  170MOL0     H23430   6.798   1.392   2.984  2.2520 -2.6985 -0.6751
  170MOL0     H23431   6.760   1.274   3.094  3.4350  2.2981 -0.6953
  170MOL0     H23432   6.511   1.305   3.064 -1.9643  2.2400  1.4108
  170MOL0     H23433   6.584   1.449   3.111  0.1262  0.8616 -1.0758
  170MOL0     H23434   6.513   1.401   2.821 -2.6754 -0.5535  1.2525
  170MOL0     H23435   6.604   1.538   2.876 -0.4529  0.7252  0.7170
  170MOL0     H23436   6.413   1.622   2.865  1.2056  0.7485  0.9310
  170MOL0     H23437   6.405   1.586   3.034  0.1309  1.4091 -1.5774
  170MOL0     H23438   6.255   1.411   2.992  1.3009  3.6136  2.6025
  170MOL0     H23439   6.310   1.381   2.826 -0.7450 -0.8425  1.0686
  170MOL0     H23440   7.003   1.430   2.579  0.3447  1.6957 -2.2915
  170MOL0     H23441   7.089   1.458   2.367 -0.3605 -0.2351 -1.2243
  170MOL0     H23442   7.259   1.426   2.038 -0.4374  1.1509 -1.1797
  170MOL0     H23443   7.290   1.501   1.804  1.7208  0.4876  0.2061
  170MOL0     H23444   6.531   1.015   0.450 -2.1146  0.2022  2.4337
  170MOL0     H23445   6.520   1.136   0.646  1.7720  0.8866  2.3927
  170MOL0     H23446   6.712   1.234   1.084 -2.5030 -0.8455 -0.0571
  170MOL0     H23447   6.710   1.387   1.257  7.1082  1.8472  2.6495
  170MOL0     H23448   6.975   1.708   1.212  0.9919 -2.0118  1.7893
  170MOL0     H23449   6.832   1.823   1.230 -2.4621  2.2914  5.6702
  170MOL0     H23450   6.824   1.788   1.459  0.7200  2.5900  0.2634
  170MOL0     H23451   6.973   1.858   1.427 -1.4444  0.1831  1.4899
  170MOL0     H23452   6.933   1.553   1.434  0.8081  0.0024 -1.9097
  170MOL0     H23453   7.081   1.612   1.397  0.4015 -1.2721  0.9811
  170MOL0     H23454   7.079   1.511   1.604  0.5905 -0.7441 -2.0863
  170MOL0     H23455   6.945   1.610   1.661  1.3499 -1.5758  0.0666
  170MOL0     H23456   7.266   1.890   1.695 -1.2946 -0.3001  2.3008
  170MOL0     H23457   6.844   1.700   1.007 -1.7880  0.4072 -1.5623
  170MOL0     H23458   6.850   1.660   0.759  2.0798  0.6587 -1.3731
  170MOL0     H23459   6.936   1.504   0.738  0.4684  0.5481  0.2042
  170MOL0     H23460   6.771   1.518   0.689 -1.9574 -0.9311  1.9234
  171MOL0     O23461  10.492   3.782   2.302 -0.0989 -0.3400  0.9855
  171MOL0     C23462  10.382   3.814   2.342  0.0417 -0.8501  0.0943
  171MOL0     O23463  10.263   3.821   2.270 -0.1944  0.6562 -0.0188
  171MOL0     C23464  10.247   3.773   2.139 -0.3480  0.3906 -0.3314
  171MOL0     C23465  10.331   3.687   2.069 -0.2496  0.3436 -0.2890
  171MOL0     C23466  10.283   3.645   1.942  0.1265  0.4431 -0.9488
  171MOL0     C23467  10.166   3.699   1.878 -0.1756 -0.7003 -0.3046
  171MOL0     O23468  10.147   3.667   1.745  0.7615 -0.6715  1.1735
  171MOL0     C23469  10.020   3.686   1.681  0.7672  0.1719  0.5326
  171MOL0     C23470  10.016   3.650   1.539 -0.0616  0.4469 -0.2945
  171MOL0     C23471   9.885   3.704   1.468 -0.4535  0.1122 -0.4603
  171MOL0     C23472   9.894   3.686   1.316  0.2894 -0.4978  0.1544
  171MOL0     C23473   9.778   3.748   1.242  0.2745  0.2853 -0.3069
  171MOL0     C23474   9.805   3.752   1.097  0.2839 -0.1025  0.7671
  171MOL0     C23475   9.679   3.796   1.021  0.0406  0.3726  0.2599
  171MOL0     C23476   9.712   3.846   0.879 -0.5315  0.0286  0.0067
  171MOL0     N23477   9.583   3.877   0.804  0.0992  0.3216 -0.3698
  171MOL0     C23478   9.501   3.979   0.828 -0.2204 -0.0110  0.2854
  171MOL0     C23479   9.402   3.968   0.737  0.3174 -0.3389 -0.8217
  171MOL0     C23480   9.283   4.064   0.715  0.3333  0.2247 -0.4283
  171MOL0     C23481   9.311   4.125   0.582  0.4445  0.2880  0.2985
  171MOL0     C23482   9.182   4.186   0.543 -1.1130 -0.0552  0.1806
  171MOL0     C23483   9.126   4.298   0.638 -0.3626  0.0000  0.3212
  171MOL0     O23484   9.050   4.263   0.750 -0.1866 -0.2548 -0.1174
  171MOL0     C23485   8.978   4.363   0.822 -1.1129  0.1735 -0.3533
  171MOL0     C23486   8.867   4.321   0.894  1.0973 -1.3908  0.5213
  171MOL0     C23487   8.786   4.403   0.972  0.2264  0.2294 -0.2693
  171MOL0     C23488   8.664   4.348   1.047  0.2802  0.4787  0.6733
  171MOL0     C23489   8.818   4.544   0.978 -0.2610  0.4901  0.5849
  171MOL0     C23490   8.731   4.648   1.054  0.0120  0.1468  0.3850
  171MOL0     O23491   8.752   4.775   1.001 -0.5958  0.0640  0.0303
  171MOL0     C23492   8.694   4.890   1.047  0.2847  0.6779  0.2054
  171MOL0     C23493   8.666   4.996   0.957 -0.1426 -0.2557  0.1317
  171MOL0     C23494   8.638   5.129   1.014 -0.2427  0.0918  1.4893
  171MOL0     C23495   8.641   5.148   1.157  0.4252  0.1172  0.0667
  171MOL0     O23496   8.614   5.268   1.212  0.6493  0.5618 -0.1489
  171MOL0     C23497   8.628   5.380   1.128 -0.5198  0.3460 -1.1321
  171MOL0     C23498   8.621   5.505   1.216 -0.1463 -0.6137  0.4487
  171MOL0     C23499   8.487   5.517   1.298 -0.4266  0.1895 -0.1400
  171MOL0     C23500   8.455   5.663   1.341  0.0547  0.0175  0.7394
  171MOL0     C23501   8.327   5.683   1.435 -1.5004  0.1896 -0.7977
  171MOL0     C23502   8.311   5.579   1.555  0.1016 -0.3432 -0.0635
  171MOL0     C23503   8.173   5.592   1.617 -0.4451  0.1445 -0.5991
  171MOL0     C23504   8.061   5.538   1.530 -0.0046 -0.3793 -0.2730
  171MOL0    Cl23505   7.915   5.574   1.620  0.5580 -0.0259 -0.2695
  171MOL0     C23506   8.685   5.053   1.246 -0.6569  0.6770  0.6982
  171MOL0     C23507   8.711   4.925   1.184  0.1213  0.0821  0.3901
  171MOL0     O23508   8.668   4.625   1.157 -0.5690 -0.4244  0.1436
  171MOL0     C23509   8.935   4.586   0.903 -0.1630  0.1172  0.4566
  171MOL0     C23510   9.012   4.497   0.829 -0.2601 -0.3802  0.3504
  171MOL0     N23511   9.415   3.846   0.677 -0.3539 -0.4117  0.0826
  171MOL0     N23512   9.527   3.789   0.717  0.2955 -0.4576 -0.4807
  171MOL0     C23513  10.079   3.774   1.954 -0.3618 -0.3292  0.6406
  171MOL0     C23514  10.122   3.810   2.078 -0.2764  0.6663 -0.7237
  171MOL0     C23515  10.377   3.856   2.484 -0.3862  0.2058  0.4538
  171MOL0     C23516  10.254   3.916   2.524 -0.1267 -0.6429 -0.1756
  171MOL0     C23517  10.239   3.955   2.656  0.2502 -0.6220 -1.0420
  171MOL0     C23518  10.345   3.945   2.747  0.1453 -0.8190  0.1739
  171MOL0     O23519  10.312   3.984   2.874 -0.2221 -0.5191 -0.2665
  171MOL0     C23520  10.375   4.101   2.916 -0.5766 -0.0094  0.7029
  171MOL0     C23521  10.323   4.234   2.859 -0.7340  0.2722 -0.6503
  171MOL0     C23522  10.396   4.367   2.896 -0.2522  0.5457 -0.9043
  171MOL0     C23523  10.302   4.477   2.864  0.8939  0.2379 -0.0075
  171MOL0     C23524  10.353   4.610   2.883 -0.1717  0.1547 -0.1182
  171MOL0     C23525  10.405   4.716   2.919 -0.6844  0.0059  0.1340
  171MOL0     C23526  10.457   3.875   2.712 -0.2289  0.1970 -0.3045
  171MOL0     C23527  10.479   3.844   2.579  0.6359  0.9387  0.8728
  171MOL0     C23528  10.613   3.770   2.559  0.3380 -0.2068 -0.1102
  171MOL0     H23529  10.417   3.650   2.124  1.2535  2.3258 -1.1941
  171MOL0     H23530  10.348   3.586   1.878  0.9569 -0.3382  0.5788
  171MOL0     H23531   9.981   3.787   1.699 -1.7946 -0.8951  1.4731
  171MOL0     H23532   9.944   3.621   1.727 -1.4777  2.4016  0.2101
  171MOL0     H23533  10.105   3.680   1.483  0.2569 -0.5998 -0.3579
  171MOL0     H23534  10.018   3.541   1.529  1.2719  0.4517 -0.2777
  171MOL0     H23535   9.797   3.651   1.504 -1.4933  2.1644  0.1679
  171MOL0     H23536   9.860   3.808   1.487  1.0692  0.2849  0.8037
  171MOL0     H23537   9.984   3.736   1.279  0.8861 -1.6976 -0.0646
  171MOL0     H23538   9.887   3.578   1.301  0.1320 -0.3584 -0.9119
  171MOL0     H23539   9.773   3.852   1.275  1.1977 -0.0024  0.8500
  171MOL0     H23540   9.683   3.699   1.265  1.4492 -1.9053  0.2304
  171MOL0     H23541   9.884   3.827   1.086  0.2878  0.2756  2.9801
  171MOL0     H23542   9.837   3.655   1.058 -3.7743  0.1224 -4.1672
  171MOL0     H23543   9.629   3.873   1.080  1.6053  0.4714  1.5143
  171MOL0     H23544   9.612   3.709   1.014 -1.3842  1.5888 -2.7726
  171MOL0     H23545   9.783   3.929   0.878 -1.4168  0.8063 -0.3545
  171MOL0     H23546   9.774   3.768   0.833  0.2729 -0.2716  1.5447
  171MOL0     H23547   9.518   4.069   0.886 -2.9074  3.5054 -3.7982
  171MOL0     H23548   9.291   4.135   0.798 -0.2263 -0.6218  0.3770
  171MOL0     H23549   9.186   4.014   0.721  0.9008 -0.9465 -0.7650
  171MOL0     H23550   9.395   4.194   0.589 -0.0489  0.7880  1.6946
  171MOL0     H23551   9.340   4.053   0.505  1.6036  1.0832 -0.0220
  171MOL0     H23552   9.171   4.230   0.443  1.4519 -1.2060 -0.6782
  171MOL0     H23553   9.106   4.107   0.549  0.5535 -1.6040  2.0884
  171MOL0     H23554   9.212   4.363   0.658  0.9583 -1.2931 -0.8900
  171MOL0     H23555   9.065   4.372   0.585  0.6304  1.2089  0.7987
  171MOL0     H23556   8.834   4.218   0.884 -1.4467 -0.4412 -2.3371
  171MOL0     H23557   8.654   4.244   1.016 -1.2468  1.4187 -2.3046
  171MOL0     H23558   8.568   4.393   1.020 -0.3290 -1.6955 -1.0825
  171MOL0     H23559   8.698   4.348   1.151  0.2585 -0.4587  0.6934
  171MOL0     H23560   8.670   4.981   0.850 -1.2304 -0.5055  0.1154
  171MOL0     H23561   8.606   5.212   0.951 -1.3239 -1.5106 -0.1865
  171MOL0     H23562   8.726   5.382   1.079  1.6036  1.0647  2.7791
  171MOL0     H23563   8.546   5.383   1.056 -0.3169 -1.8748 -1.5428
  171MOL0     H23564   8.690   5.495   1.301 -2.2098 -0.4596  2.2257
  171MOL0     H23565   8.637   5.598   1.160 -3.6776 -0.1488 -0.0499
  171MOL0     H23566   8.506   5.448   1.381  2.5296  0.5659 -0.3773
  171MOL0     H23567   8.398   5.488   1.242 -0.8979 -0.6000  0.9690
  171MOL0     H23568   8.435   5.709   1.243 -1.1209 -3.4669 -0.7975
  171MOL0     H23569   8.542   5.723   1.371 -0.0699  0.2469  0.6474
  171MOL0     H23570   8.315   5.782   1.479 -5.7720 -0.9674  1.1849
  171MOL0     H23571   8.236   5.665   1.378  0.0254 -3.0899 -2.5143
  171MOL0     H23572   8.396   5.594   1.623 -1.3486  2.4077  1.2933
  171MOL0     H23573   8.317   5.474   1.525  0.6475 -0.6384  1.0256
  171MOL0     H23574   8.152   5.695   1.646 -2.4896 -0.1888 -0.8051
  171MOL0     H23575   8.170   5.539   1.713  2.9387  3.7724  1.8602
  171MOL0     H23576   8.057   5.429   1.519 -1.6531 -0.0910 -3.7486
  171MOL0     H23577   8.047   5.588   1.434  3.0320  0.7627 -0.2367
  171MOL0     H23578   8.705   5.076   1.351 -0.9353 -1.6847  1.3131
  171MOL0     H23579   8.751   4.847   1.248  1.5390 -0.7272 -1.4234
  171MOL0     H23580   8.961   4.691   0.901  1.4838 -0.2067  2.1103
  171MOL0     H23581   9.099   4.537   0.777 -1.5689 -1.8122 -3.2734
  171MOL0     H23582   9.987   3.807   1.908  0.1316 -0.4718 -0.4928
  171MOL0     H23583  10.060   3.878   2.137 -1.7806 -2.6070  1.7911
  171MOL0     H23584  10.176   3.946   2.454 -0.2218  1.0797  0.6249
  171MOL0     H23585  10.153   4.012   2.690 -0.4185 -1.4319 -1.3197
  171MOL0     H23586  10.360   4.101   3.025  0.7931 -1.7323  0.9338
  171MOL0     H23587  10.483   4.095   2.906 -0.5108  0.9660  0.7829
  171MOL0     H23588  10.218   4.234   2.889 -0.2612  1.8049  1.1745
  171MOL0     H23589  10.335   4.242   2.750  2.7264 -0.8010 -0.4722
  171MOL0     H23590  10.427   4.367   3.001  0.2224  1.8751 -1.0248
  171MOL0     H23591  10.493   4.365   2.846  0.5048 -0.4787  0.5494
  171MOL0     H23592  10.221   4.469   2.937  1.1231  1.4596  0.4032
  171MOL0     H23593  10.250   4.466   2.768  3.5183  2.8167 -1.9029
  171MOL0     H23594  10.461   4.800   2.956  0.3585 -0.6613  0.1220
  171MOL0     H23595  10.527   3.857   2.793 -2.7393  3.5946  2.9723
  171MOL0     H23596  10.668   3.763   2.653 -3.2890  0.5377  2.2567
  171MOL0     H23597  10.604   3.668   2.520  1.0040 -2.0335  3.9655
  171MOL0     H23598  10.666   3.838   2.491 -0.9859  1.8231  0.7936
  172MOL0     O23599   4.609   0.678   7.480  0.5304  0.5521 -0.7373
  172MOL0     C23600   4.495   0.708   7.459  0.2200  0.2840 -0.5874
  172MOL0     O23601   4.402   0.615   7.412 -0.2123  1.2220  0.0994
  172MOL0     C23602   4.425   0.487   7.451  0.1990 -0.6890  0.4674
  172MOL0     C23603   4.434   0.390   7.354  0.6593 -0.1392  0.3590
  172MOL0     C23604   4.458   0.260   7.385  0.0159 -0.0084 -0.4309
  172MOL0     C23605   4.485   0.219   7.515 -0.2319  1.8273  0.4688
  172MOL0     O23606   4.541   0.095   7.542  1.0097 -0.1526  0.4823
  172MOL0     C23607   4.592   0.008   7.440  0.2283 -0.1762  0.5560
  172MOL0     C23608   4.485  -0.070   7.362  0.8526 -0.3835 -0.7936
  172MOL0     C23609   4.547  -0.184   7.282 -0.0059  0.4554 -0.4247
  172MOL0     C23610   4.554  -0.320   7.363 -0.2473  0.6513 -0.7422
  172MOL0     C23611   4.604  -0.442   7.279  0.6147 -0.4033 -0.2902
  172MOL0     C23612   4.556  -0.562   7.356  0.2299 -0.1273 -0.7647
  172MOL0     C23613   4.637  -0.617   7.487  0.2347  0.4593  0.0867
  172MOL0     C23614   4.709  -0.753   7.466 -0.8865 -0.1766  0.8311
  172MOL0     N23615   4.829  -0.750   7.374  0.1854 -0.0631 -0.8599
  172MOL0     C23616   4.965  -0.703   7.391  0.0982 -0.1420 -0.2813
  172MOL0     C23617   5.034  -0.736   7.280 -0.6456  0.4441 -1.4949
  172MOL0     C23618   5.188  -0.729   7.260 -0.6056 -0.1893 -0.3597
  172MOL0     C23619   5.239  -0.854   7.317  0.1030  0.3430 -0.0944
  172MOL0     C23620   5.381  -0.840   7.365  0.2325 -0.2107  0.0591
  172MOL0     C23621   5.415  -0.717   7.440  0.9083  0.3465  0.3898
  172MOL0     O23622   5.312  -0.671   7.531 -0.3467  0.4510  0.0722
  172MOL0     C23623   5.326  -0.557   7.603 -1.0760  0.7558 -0.1489
  172MOL0     C23624   5.351  -0.574   7.735 -0.6324 -0.3415 -0.5962
  172MOL0     C23625   5.377  -0.455   7.815  0.0064  0.6154 -0.2866
  172MOL0     C23626   5.392  -0.480   7.956  0.2319 -0.4102 -0.2208
  172MOL0     C23627   5.339  -0.326   7.768  1.2129 -0.0821  0.0604
  172MOL0     C23628   5.346  -0.203   7.848 -0.1794  0.3850 -0.3839
  172MOL0     O23629   5.235  -0.147   7.900 -1.3163 -0.1079  0.6233
  172MOL0     C23630   5.233  -0.016   7.944  0.1317 -0.2991  0.4814
  172MOL0     C23631   5.276   0.101   7.875 -0.3811  0.9620  0.1797
  172MOL0     C23632   5.256   0.230   7.922  0.3279 -0.3769  0.6256
  172MOL0     C23633   5.193   0.253   8.052 -0.5463  0.8984  0.4620
  172MOL0     O23634   5.183   0.370   8.113 -0.7645  0.3026  0.2950
  172MOL0     C23635   5.175   0.496   8.045  0.8167  0.2373 -0.1645
  172MOL0     C23636   5.126   0.598   8.142  1.3351  0.5085  0.8026
  172MOL0     C23637   5.236   0.634   8.245 -0.1206 -1.0414 -0.1342
  172MOL0     C23638   5.177   0.694   8.370  0.0570 -0.5922 -0.9284
  172MOL0     C23639   5.247   0.663   8.498 -0.8659  0.0283  0.7074
  172MOL0     C23640   5.199   0.730   8.625 -0.3744  0.2661  1.2107
  172MOL0     C23641   5.073   0.684   8.692 -0.2017 -0.4368  0.4386
  172MOL0     C23642   5.043   0.531   8.692  0.1615 -0.2127  0.7094
  172MOL0    Cl23643   4.912   0.490   8.810 -0.2075 -0.3816  0.0446
  172MOL0     C23644   5.146   0.135   8.114 -0.3948 -0.3433 -0.6957
  172MOL0     C23645   5.153   0.011   8.057 -0.1282  0.1928  0.1177
  172MOL0     O23646   5.457  -0.152   7.854 -0.1269 -0.4267 -0.3738
  172MOL0     C23647   5.316  -0.313   7.628  0.5041 -1.0815 -0.6031
  172MOL0     C23648   5.309  -0.433   7.549 -0.0894  0.0527  0.9681
  172MOL0     N23649   4.943  -0.804   7.200 -0.5406 -0.5860  0.5669
  172MOL0     N23650   4.831  -0.811   7.254 -0.6152 -0.0508 -1.2072
  172MOL0     C23651   4.474   0.317   7.615  1.2789  0.5573 -0.0074
  172MOL0     C23652   4.432   0.457   7.586  0.3233  0.2569 -0.7287
  172MOL0     C23653   4.445   0.843   7.485  0.0373  0.0121  0.4690
  172MOL0     C23654   4.360   0.902   7.392 -0.5055  0.5449 -0.6878
  172MOL0     C23655   4.322   1.035   7.397  0.1761  0.1374  0.1605
  172MOL0     C23656   4.379   1.113   7.495  0.0773 -0.5867 -0.2101
  172MOL0     O23657   4.340   1.241   7.504  0.5248  0.4267 -0.0549
  172MOL0     C23658   4.367   1.322   7.622  0.1018  0.1665 -1.2357
  172MOL0     C23659   4.254   1.430   7.645 -0.5137  0.4448 -0.1462
  172MOL0     C23660   4.114   1.410   7.590  0.3943  0.4967  0.1421
  172MOL0     C23661   4.047   1.538   7.578  0.0894 -0.6866 -0.5705
  172MOL0     C23662   3.909   1.525   7.528 -0.1236  0.3445 -0.3682
  172MOL0     C23663   3.803   1.473   7.488  0.4012 -0.0524  0.2078
  172MOL0     C23664   4.467   1.050   7.592 -0.2669 -0.2736 -0.8914
  172MOL0     C23665   4.487   0.920   7.593 -0.4123 -0.1185  0.0477
  172MOL0     C23666   4.579   0.865   7.701  0.8711 -0.1224  0.3658
  172MOL0     H23667   4.422   0.421   7.251 -0.4793  1.1297  0.8401
  172MOL0     H23668   4.473   0.204   7.294 -0.9822 -1.1135  0.0702
  172MOL0     H23669   4.654  -0.062   7.496  0.6076  0.4882  0.9901
  172MOL0     H23670   4.659   0.066   7.376  0.3062  0.6144  1.3227
  172MOL0     H23671   4.408  -0.094   7.436  0.5959 -0.0815 -0.9639
  172MOL0     H23672   4.432  -0.002   7.294 -0.5720 -0.8763 -0.2176
  172MOL0     H23673   4.489  -0.185   7.189 -0.1115 -0.3784 -0.3567
  172MOL0     H23674   4.649  -0.149   7.263 -0.9203  3.7278  0.1227
  172MOL0     H23675   4.621  -0.304   7.448  1.9924 -1.4516 -1.9736
  172MOL0     H23676   4.460  -0.326   7.419  0.3712  0.4080  0.3041
  172MOL0     H23677   4.713  -0.433   7.281  0.5224  2.2088 -2.5646
  172MOL0     H23678   4.567  -0.425   7.178 -1.9639 -2.4606  0.1912
  172MOL0     H23679   4.454  -0.547   7.392  0.8630  1.3045  0.5495
  172MOL0     H23680   4.561  -0.642   7.281 -3.4096  0.2857 -1.6145
  172MOL0     H23681   4.569  -0.638   7.571 -2.0540 -0.0124 -1.7652
  172MOL0     H23682   4.702  -0.536   7.521 -1.6478  1.8560  0.5396
  172MOL0     H23683   4.750  -0.779   7.564 -2.2340  0.4158  1.5674
  172MOL0     H23684   4.641  -0.830   7.428  0.1294 -0.2968 -0.8409
  172MOL0     H23685   4.996  -0.664   7.487 -0.4070 -0.8453  0.1800
  172MOL0     H23686   5.224  -0.634   7.302  0.6320 -0.6624 -0.2972
  172MOL0     H23687   5.200  -0.732   7.151 -3.7336 -2.4344 -0.7593
  172MOL0     H23688   5.190  -0.877   7.411  0.6710 -1.8261 -0.2884
  172MOL0     H23689   5.228  -0.940   7.250  1.2792  1.6407 -2.0955
  172MOL0     H23690   5.403  -0.925   7.430  3.1841  0.1154 -0.3831
  172MOL0     H23691   5.441  -0.857   7.275 -0.1406 -5.4655  0.4672
  172MOL0     H23692   5.504  -0.729   7.503 -0.4095  0.1668  2.3158
  172MOL0     H23693   5.429  -0.642   7.362 -3.5463  4.2160  2.7565
  172MOL0     H23694   5.358  -0.674   7.777 -4.5146 -0.5603 -0.1748
  172MOL0     H23695   5.432  -0.578   7.987  1.3120  0.2776  0.6333
  172MOL0     H23696   5.297  -0.462   8.006 -2.4081  0.2327 -4.9466
  172MOL0     H23697   5.459  -0.404   7.997 -3.5548  2.5576  0.9336
  172MOL0     H23698   5.335   0.087   7.785  2.6374  0.7639  2.0507
  172MOL0     H23699   5.294   0.313   7.864 -0.4415 -0.2775  0.2479
  172MOL0     H23700   5.270   0.528   8.001  0.7825 -0.5847 -0.8650
  172MOL0     H23701   5.114   0.492   7.955  1.5463  2.4370 -0.8223
  172MOL0     H23702   5.102   0.689   8.086  1.7420 -0.5057 -1.0995
  172MOL0     H23703   5.036   0.571   8.198  1.7339  1.6591  2.0447
  172MOL0     H23704   5.296   0.716   8.204 -0.6733 -0.5365  0.0492
  172MOL0     H23705   5.295   0.546   8.271  1.1908 -0.7501 -1.8927
  172MOL0     H23706   5.073   0.663   8.387  0.2375 -0.5839  0.2333
  172MOL0     H23707   5.180   0.803   8.361  1.4290 -0.7234 -2.4385
  172MOL0     H23708   5.235   0.555   8.511  3.7601 -1.1325 -2.3881
  172MOL0     H23709   5.354   0.682   8.492 -0.7040 -0.9880 -4.5966
  172MOL0     H23710   5.190   0.839   8.614  0.3874  0.5030  2.6686
  172MOL0     H23711   5.277   0.731   8.702  1.1460 -1.9035 -0.1788
  172MOL0     H23712   4.999   0.752   8.647  1.8604 -0.1801 -2.9375
  172MOL0     H23713   5.075   0.712   8.798  3.6574  3.8427 -0.4419
  172MOL0     H23714   5.131   0.472   8.716 -1.5161 -2.4900  1.5630
  172MOL0     H23715   5.007   0.500   8.593 -1.0807  1.5665  0.5400
  172MOL0     H23716   5.094   0.139   8.209  1.5740  2.1376  0.4074
  172MOL0     H23717   5.109  -0.074   8.108 -1.9190 -0.1895 -1.8729
  172MOL0     H23718   5.323  -0.216   7.579  1.5628 -0.9312 -0.1860
  172MOL0     H23719   5.293  -0.418   7.443 -3.6246 -3.0718  0.8516
  172MOL0     H23720   4.490   0.299   7.721 -1.0698  0.6402  0.4066
  172MOL0     H23721   4.423   0.528   7.667 -0.7411  0.1041 -0.6950
  172MOL0     H23722   4.324   0.854   7.302  1.4760  2.1587 -2.4485
  172MOL0     H23723   4.252   1.078   7.327 -1.2752  0.8471  1.9740
  172MOL0     H23724   4.367   1.262   7.713 -3.8076  1.2034 -0.3709
  172MOL0     H23725   4.468   1.360   7.608  0.9170 -0.7894  1.4560
  172MOL0     H23726   4.293   1.527   7.612  0.7017 -0.0802 -0.3182
  172MOL0     H23727   4.248   1.439   7.753 -3.0985  0.3547 -0.2256
  172MOL0     H23728   4.101   1.355   7.495 -1.7112  0.5612  0.3304
  172MOL0     H23729   4.066   1.356   7.672 -1.9303 -1.9403 -2.5822
  172MOL0     H23730   4.115   1.597   7.515  4.5527  0.7354  4.8220
  172MOL0     H23731   4.042   1.571   7.682  0.6631 -1.2343 -0.3693
  172MOL0     H23732   3.721   1.431   7.433  2.4610 -1.7506 -1.8103
  172MOL0     H23733   4.515   1.115   7.664 -1.8611 -1.6622  1.5375
  172MOL0     H23734   4.535   0.786   7.764  1.9206  0.3837  1.7820
  172MOL0     H23735   4.677   0.823   7.677  1.9706  2.4165  0.1881
  172MOL0     H23736   4.605   0.945   7.771  0.8332 -1.8754  2.5209
  173MOL0     O23737   8.911   8.551   1.509  0.5561 -0.0345  0.5526
  173MOL0     C23738   9.003   8.627   1.541  0.6143 -0.1832  0.2374
  173MOL0     O23739   9.029   8.749   1.482  0.7343  0.3093 -0.0556
  173MOL0     C23740   8.952   8.809   1.380 -0.7981  0.0636 -0.0150
  173MOL0     C23741   9.024   8.881   1.289 -0.0133 -0.7437  0.2099
  173MOL0     C23742   8.963   8.928   1.181 -0.1459 -0.2334  0.3496
  173MOL0     C23743   8.825   8.932   1.174  0.3695 -0.4746  0.4549
  173MOL0     O23744   8.765   8.983   1.062 -0.5112 -0.2081  0.6231
  173MOL0     C23745   8.634   9.053   1.065  0.3289  0.8991  0.3043
  173MOL0     C23746   8.645   9.185   1.010 -0.6133  0.0463 -0.0169
  173MOL0     C23747   8.739   9.283   1.090  0.3928 -0.5845 -0.7465
  173MOL0     C23748   8.842   9.347   0.995 -0.8220  0.8397  0.0091
  173MOL0     C23749   8.896   9.472   1.064 -0.5338 -0.3057 -0.1823
  173MOL0     C23750   9.005   9.440   1.168  0.4731  0.8579 -0.7290
  173MOL0     C23751   9.054   9.558   1.250 -0.0480 -0.8746  0.2095
  173MOL0     C23752   9.185   9.518   1.324 -0.0898  0.1794  0.5440
  173MOL0     N23753   9.206   9.620   1.424  0.3494 -0.0624 -0.5027
  173MOL0     C23754   9.284   9.729   1.394  0.1649  0.4075  0.1809
  173MOL0     C23755   9.279   9.811   1.513 -0.2803  0.3534  1.0719
  173MOL0     C23756   9.341   9.947   1.547 -0.7204 -0.0809 -0.5161
  173MOL0     C23757   9.492   9.929   1.589  0.1286 -0.8265 -0.6047
  173MOL0     C23758   9.555  10.065   1.608 -0.2923  0.1759  0.3172
  173MOL0     C23759   9.708  10.069   1.648  0.4765 -0.0081  0.7780
  173MOL0     O23760   9.745  10.073   1.788  0.7664  0.1559 -0.9137
  173MOL0     C23761   9.826   9.976   1.824 -1.0215 -0.3958 -0.4204
  173MOL0     C23762   9.949  10.008   1.873  0.0771  0.2384 -0.0370
  173MOL0     C23763  10.032   9.901   1.921 -0.1253  0.5652 -0.2559
  173MOL0     C23764  10.180   9.938   1.966 -0.0522  0.6236 -0.1322
  173MOL0     C23765   9.990   9.769   1.900  0.2880 -0.0227 -0.2342
  173MOL0     C23766  10.067   9.649   1.943 -0.4993 -0.3601 -0.8730
  173MOL0     O23767  10.023   9.533   1.899 -0.4616 -0.1591  0.7665
  173MOL0     C23768  10.075   9.417   1.958  0.6983 -0.1740 -0.0345
  173MOL0     C23769  10.023   9.386   2.078 -0.8050 -0.3512 -0.0864
  173MOL0     C23770  10.029   9.253   2.127  0.5111 -0.4888 -0.0154
  173MOL0     C23771  10.094   9.152   2.061 -0.2420 -0.5188  0.3132
  173MOL0     O23772  10.115   9.027   2.118 -0.4070 -0.6954  0.1267
  173MOL0     C23773  10.075   8.999   2.248  0.5116  0.6410  0.6562
  173MOL0     C23774  10.110   8.842   2.274  0.3320 -0.2685 -0.5021
  173MOL0     C23775  10.258   8.817   2.271 -0.6457  0.5683 -0.4695
  173MOL0     C23776  10.295   8.689   2.349 -0.3080  0.9930  0.0142
  173MOL0     C23777  10.444   8.679   2.345  0.5706 -0.2808 -0.9778
  173MOL0     C23778  10.511   8.549   2.395 -0.7453 -0.4303 -0.4038
  173MOL0     C23779  10.652   8.565   2.462  0.3998 -0.8652 -0.2671
  173MOL0     C23780  10.691   8.431   2.517  0.1742 -0.2290 -0.5208
  173MOL0    Cl23781  10.800   8.334   2.406  0.4479 -0.5575  0.1226
  173MOL0     C23782  10.151   9.179   1.933  0.4221 -0.4400 -0.7568
  173MOL0     C23783  10.149   9.311   1.888 -0.3265 -0.0765 -0.5102
  173MOL0     O23784  10.143   9.665   2.040 -0.1269 -0.5692  0.2643
  173MOL0     C23785   9.873   9.745   1.835  0.1164 -0.8438  0.2643
  173MOL0     C23786   9.790   9.847   1.807  0.2457 -0.0944 -0.7047
  173MOL0     N23787   9.210   9.739   1.603 -0.3379 -0.1195  0.1137
  173MOL0     N23788   9.167   9.617   1.556 -0.9180 -1.8172  0.0931
  173MOL0     C23789   8.746   8.863   1.271 -0.0249 -0.2030  0.2899
  173MOL0     C23790   8.811   8.788   1.370  0.3800  0.6088 -0.6549
  173MOL0     C23791   9.082   8.603   1.657  0.2574  1.3417  0.6123
  173MOL0     C23792   9.209   8.668   1.655  0.3859  0.3451  0.4178
  173MOL0     C23793   9.283   8.671   1.769  1.2801  0.3228  0.2100
  173MOL0     C23794   9.256   8.591   1.878  1.1080 -0.5136 -0.9379
  173MOL0     O23795   9.338   8.591   1.984 -0.1251 -0.4682 -0.4917
  173MOL0     C23796   9.341   8.466   2.044 -0.0417 -0.1806  0.3520
  173MOL0     C23797   9.462   8.455   2.133 -0.4178  0.5745 -0.6234
  173MOL0     C23798   9.458   8.558   2.245  0.5438  0.2012 -0.0402
  173MOL0     C23799   9.532   8.689   2.193 -0.4931 -0.1575  0.0964
  173MOL0     C23800   9.678   8.679   2.205 -0.4935 -0.2904  0.7175
  173MOL0     C23801   9.797   8.669   2.230  1.1290  0.5475 -0.8428
  173MOL0     C23802   9.132   8.516   1.878 -0.3637 -0.9470 -0.3087
  173MOL0     C23803   9.048   8.519   1.764  0.3326 -0.1381  0.5011
  173MOL0     C23804   8.920   8.441   1.771  1.2129 -0.1503 -1.4311
  173MOL0     H23805   9.132   8.890   1.295  0.1390 -1.0867 -1.4232
  173MOL0     H23806   9.020   8.972   1.100 -4.0779  0.1755 -2.5196
  173MOL0     H23807   8.602   9.058   1.170 -0.5080 -2.7266  0.3465
  173MOL0     H23808   8.558   8.996   1.012  0.0411  0.6469  0.9774
  173MOL0     H23809   8.682   9.172   0.907 -1.3650 -2.2479 -0.0430
  173MOL0     H23810   8.544   9.226   1.003 -0.8338 -0.6811 -1.6378
  173MOL0     H23811   8.678   9.363   1.136 -0.5018 -0.8400 -1.4494
  173MOL0     H23812   8.784   9.232   1.175  2.5018 -0.3845 -1.6943
  173MOL0     H23813   8.928   9.288   0.963  0.0604  2.8394 -1.4965
  173MOL0     H23814   8.784   9.386   0.911 -0.2128 -1.2989 -1.4786
  173MOL0     H23815   8.822   9.538   1.111  0.5183 -0.5797  1.9585
  173MOL0     H23816   8.952   9.537   0.995  2.0736 -2.4984 -0.3308
  173MOL0     H23817   8.971   9.363   1.238  0.5291 -0.6148 -2.2362
  173MOL0     H23818   9.087   9.392   1.114  0.2444 -1.8893  1.1304
  173MOL0     H23819   8.981   9.597   1.321 -0.1483 -1.7972  0.6229
  173MOL0     H23820   9.083   9.627   1.170  2.4139 -3.2661 -1.1346
  173MOL0     H23821   9.176   9.420   1.372  1.5423  0.6502  1.9165
  173MOL0     H23822   9.268   9.523   1.252 -1.1448  1.3985 -0.6452
  173MOL0     H23823   9.338   9.744   1.301 -0.2765  1.1797  0.0410
  173MOL0     H23824   9.288   9.994   1.630  1.6601 -0.6014  1.4306
  173MOL0     H23825   9.353  10.014   1.462  3.5475  0.4848  0.2951
  173MOL0     H23826   9.504   9.877   1.685 -0.0493  0.4566  0.1463
  173MOL0     H23827   9.548   9.879   1.510  0.9176 -2.9970  1.2391
  173MOL0     H23828   9.538  10.120   1.515  1.8393  0.4168  0.0162
  173MOL0     H23829   9.497  10.119   1.683 -0.4964  1.7735 -0.9418
  173MOL0     H23830   9.758   9.989   1.593 -1.3837 -2.9566  3.0585
  173MOL0     H23831   9.763  10.152   1.604  3.7014 -1.8915  0.9625
  173MOL0     H23832   9.984  10.111   1.884  1.0181 -0.2226  1.7067
  173MOL0     H23833  10.199  10.043   1.989 -0.1744  0.6818 -0.2857
  173MOL0     H23834  10.253   9.914   1.888  0.9648  0.2645  0.9001
  173MOL0     H23835  10.219   9.889   2.055  2.4462  0.9455 -0.9851
  173MOL0     H23836   9.962   9.458   2.131 -2.3629 -0.6278 -1.4251
  173MOL0     H23837   9.985   9.237   2.225 -0.0579 -0.4839 -0.2659
  173MOL0     H23838  10.127   9.063   2.321 -1.6674 -0.1375  3.0606
  173MOL0     H23839   9.971   9.021   2.272 -0.0007 -0.5308 -0.4415
  173MOL0     H23840  10.069   8.825   2.374  0.8408  0.7914 -0.1039
  173MOL0     H23841  10.053   8.777   2.207 -3.1595  0.0980  1.8744
  173MOL0     H23842  10.308   8.895   2.329 -0.3104  0.7360 -0.9842
  173MOL0     H23843  10.293   8.805   2.169  2.4085  2.6285  0.2020
  173MOL0     H23844  10.260   8.599   2.299 -0.3169  1.2880 -0.5135
  173MOL0     H23845  10.257   8.691   2.452 -3.7469 -0.0701 -1.1186
  173MOL0     H23846  10.474   8.696   2.241  0.4742  1.7729 -0.7131
  173MOL0     H23847  10.497   8.763   2.391 -0.6966  0.4497 -0.8092
  173MOL0     H23848  10.505   8.492   2.302  2.1865  1.4204 -1.8847
  173MOL0     H23849  10.453   8.498   2.471 -2.1475  2.2983  0.4991
  173MOL0     H23850  10.662   8.642   2.539 -0.7334 -1.0620  0.1034
  173MOL0     H23851  10.731   8.590   2.391  2.1698 -0.9989  1.5686
  173MOL0     H23852  10.627   8.374   2.585 -0.3427  2.1202  1.0857
  173MOL0     H23853  10.763   8.457   2.596 -0.8769 -0.0226  0.3875
  173MOL0     H23854  10.211   9.101   1.888  2.9294  0.2905  1.1072
  173MOL0     H23855  10.208   9.334   1.801  1.3471 -2.2389 -0.0423
  173MOL0     H23856   9.839   9.646   1.806 -1.3150  0.1578 -1.6924
  173MOL0     H23857   9.700   9.832   1.749  1.6290  1.1917 -3.3719
  173MOL0     H23858   8.639   8.873   1.257  0.0627  2.5253  0.9602
  173MOL0     H23859   8.759   8.738   1.450  0.8290  0.6219 -0.3522
  173MOL0     H23860   9.238   8.731   1.572 -2.2633  0.1674 -0.7582
  173MOL0     H23861   9.372   8.733   1.773  2.1266 -0.8919  0.8639
  173MOL0     H23862   9.247   8.452   2.100 -3.1313  1.7121 -3.8551
  173MOL0     H23863   9.336   8.387   1.969 -0.6929  1.8835 -1.8855
  173MOL0     H23864   9.555   8.465   2.076 -0.5288 -1.6266 -1.3110
  173MOL0     H23865   9.471   8.349   2.163  1.5719 -0.9498 -5.6563
  173MOL0     H23866   9.357   8.581   2.280 -0.6224 -4.1010 -0.0040
  173MOL0     H23867   9.506   8.513   2.332 -0.7654 -6.1735 -2.0287
  173MOL0     H23868   9.494   8.768   2.260 -1.5477 -1.6213  1.3000
  173MOL0     H23869   9.496   8.715   2.093 -1.6129 -1.4021  0.1467
  173MOL0     H23870   9.898   8.652   2.260  0.9003  1.3947  0.4738
  173MOL0     H23871   9.102   8.460   1.966 -1.1900  0.7250  0.5121
  173MOL0     H23872   8.907   8.376   1.684 -2.5035 -2.2592  0.4328
  173MOL0     H23873   8.924   8.374   1.858  2.7305 -1.4490 -2.4528
  173MOL0     H23874   8.837   8.512   1.780  1.7356  0.2173  4.7080
  174MOL0     O23875   5.768   9.605  11.177  0.7049 -0.8571 -0.1151
  174MOL0     C23876   5.665   9.660  11.158 -0.1730 -0.0294  1.0252
  174MOL0     O23877   5.633   9.741  11.053  0.4892 -0.1646 -0.4280
  174MOL0     C23878   5.738   9.784  10.977  0.6128 -0.9712 -0.1741
  174MOL0     C23879   5.855   9.843  11.033 -0.1951 -0.6660  0.4083
  174MOL0     C23880   5.957   9.878  10.946  0.2116 -1.1403 -0.2963
  174MOL0     C23881   5.956   9.856  10.807  0.7968 -0.0447  0.7139
  174MOL0     O23882   6.043   9.892  10.712  0.3761  0.3283  0.0890
  174MOL0     C23883   6.176   9.921  10.759  0.5812  0.5491  0.7215
  174MOL0     C23884   6.180  10.066  10.780  0.4787 -0.5943  0.6617
  174MOL0     C23885   6.326  10.107  10.795 -0.8846  0.0183 -0.3926
  174MOL0     C23886   6.337  10.251  10.855  0.6978 -0.6042 -0.7217
  174MOL0     C23887   6.485  10.294  10.856  0.6916 -0.1112 -0.9690
  174MOL0     C23888   6.548  10.246  10.988 -0.3711  0.9904  0.0014
  174MOL0     C23889   6.682  10.321  10.995  0.5683  0.6095 -0.4152
  174MOL0     C23890   6.792  10.265  11.088 -0.3298 -0.1079 -0.3809
  174MOL0     N23891   6.768  10.273  11.241 -0.6007  0.0554  0.6701
  174MOL0     C23892   6.781  10.388  11.318  0.8197  0.5395 -0.3211
  174MOL0     C23893   6.752  10.346  11.447  0.2643  0.9377  0.3130
  174MOL0     C23894   6.786  10.428  11.570 -0.4601 -0.8950  0.0726
  174MOL0     C23895   6.916  10.516  11.570 -0.3054  0.1013  0.0340
  174MOL0     C23896   7.034  10.428  11.518  0.4451  0.3528 -0.0616
  174MOL0     C23897   7.160  10.515  11.529 -0.0463 -0.2142  0.6353
  174MOL0     O23898   7.138  10.647  11.479  0.2598 -0.2861  0.0185
  174MOL0     C23899   7.202  10.679  11.359  0.7045  0.6568 -0.0989
  174MOL0     C23900   7.219  10.584  11.257 -0.4304 -0.5338 -0.7580
  174MOL0     C23901   7.268  10.629  11.128  0.9087  1.1195  0.2786
  174MOL0     C23902   7.297  10.515  11.035  0.0432  0.3270 -0.5705
  174MOL0     C23903   7.299  10.769  11.104 -0.3060  1.4326  0.0223
  174MOL0     C23904   7.373  10.817  10.984  0.5279 -0.3678  0.0349
  174MOL0     O23905   7.350  10.744  10.873  0.9283  0.0545  0.4692
  174MOL0     C23906   7.386  10.798  10.749 -0.0909  0.1046 -0.3832
  174MOL0     C23907   7.459  10.723  10.652 -1.6685  0.5048  0.6926
  174MOL0     C23908   7.508  10.778  10.532  0.4141 -0.2827 -0.2526
  174MOL0     C23909   7.464  10.906  10.496  0.6012 -0.0307  0.0723
  174MOL0     O23910   7.485  10.964  10.371  0.2160  0.3925 -0.5683
  174MOL0     C23911   7.571  10.898  10.276  0.2780  0.4907 -1.0446
  174MOL0     C23912   7.713  10.941  10.312  0.9993  0.3802  0.2715
  174MOL0     C23913   7.815  10.856  10.238 -0.8725  1.8847  0.5732
  174MOL0     C23914   7.940  10.924  10.219 -0.2059  0.1570 -0.5517
  174MOL0     C23915   8.055  10.836  10.179  0.0675 -1.2416 -0.2473
  174MOL0     C23916   8.072  10.830  10.024 -0.8496  0.2454  0.5471
  174MOL0     C23917   8.097  10.967   9.964  0.0730 -0.3897  0.3364
  174MOL0     C23918   8.146  10.964   9.817  0.4345  0.3659  0.6848
  174MOL0    Cl23919   8.020  10.896   9.716  0.5286 -0.1691  0.4619
  174MOL0     C23920   7.374  10.979  10.580 -0.2325 -0.5601 -0.9111
  174MOL0     C23921   7.350  10.933  10.710  1.2036 -0.6801 -1.2482
  174MOL0     O23922   7.457  10.909  11.002  1.5698 -0.7431  0.0219
  174MOL0     C23923   7.291  10.854  11.212  0.1447  0.2577 -0.4668
  174MOL0     C23924   7.233  10.813  11.335 -1.0611 -0.7169 -0.7928
  174MOL0     N23925   6.719  10.210  11.441 -0.7035  0.0438  0.1115
  174MOL0     N23926   6.707  10.173  11.315 -1.1631 -0.1383 -0.0352
  174MOL0     C23927   5.844   9.789  10.753  0.6759  0.2163  0.8861
  174MOL0     C23928   5.729   9.770  10.842 -1.0384  0.4396 -0.0990
  174MOL0     C23929   5.550   9.632  11.252 -0.6792 -0.0326  0.1332
  174MOL0     C23930   5.433   9.710  11.240 -0.0867  0.5933  0.0002
  174MOL0     C23931   5.328   9.700  11.326 -0.6498 -0.6828  0.7149
  174MOL0     C23932   5.328   9.605  11.424 -0.5236 -0.7704  0.4727
  174MOL0     O23933   5.230   9.584  11.514  0.4868 -0.0044 -0.4371
  174MOL0     C23934   5.112   9.500  11.470  0.0698 -1.2122  0.6599
  174MOL0     C23935   5.063   9.510  11.320 -0.7638  0.7680 -0.7078
  174MOL0     C23936   4.920   9.457  11.307 -0.1900 -1.3301  0.6749
  174MOL0     C23937   4.908   9.299  11.307  0.2536 -0.6567 -0.7164
  174MOL0     C23938   4.909   9.218  11.434 -0.5446 -0.1700  0.0451
  174MOL0     C23939   4.883   9.139  11.528 -0.2985  0.1847 -0.3701
  174MOL0     C23940   5.441   9.528  11.438 -0.3593  0.0754 -0.7443
  174MOL0     C23941   5.548   9.536  11.353 -0.2357 -1.0485  0.3209
  174MOL0     C23942   5.664   9.455  11.381 -0.1970  0.4834 -0.5023
  174MOL0     H23943   5.867   9.861  11.139  0.8158  1.8990 -0.0724
  174MOL0     H23944   6.046   9.927  10.984  0.7437 -1.3917 -1.1750
  174MOL0     H23945   6.247   9.903  10.678 -1.1662 -1.9179 -0.3807
  174MOL0     H23946   6.195   9.862  10.849 -3.8944 -3.9372 -0.8076
  174MOL0     H23947   6.147  10.126  10.695 -0.1840  0.8805  1.9210
  174MOL0     H23948   6.115  10.100  10.861  1.6607  0.6762  1.1147
  174MOL0     H23949   6.360  10.040  10.875 -2.4451  0.3614  0.6032
  174MOL0     H23950   6.383  10.087  10.705  4.0233  0.0630  2.3555
  174MOL0     H23951   6.275  10.312  10.789 -0.3481 -0.4431  0.3754
  174MOL0     H23952   6.288  10.249  10.953 -2.5221  1.0337 -2.1561
  174MOL0     H23953   6.488  10.404  10.854 -1.9999  0.0416 -0.2858
  174MOL0     H23954   6.543  10.262  10.769  2.6963  3.3345 -1.1055
  174MOL0     H23955   6.484  10.271  11.073 -0.5226  1.8377 -0.3574
  174MOL0     H23956   6.558  10.137  10.979 -1.2220  1.0310 -1.7550
  174MOL0     H23957   6.657  10.421  11.030 -2.4814 -0.7505  1.8013
  174MOL0     H23958   6.724  10.337  10.896 -1.9303  2.4823 -1.2771
  174MOL0     H23959   6.819  10.160  11.068 -0.2916  0.1998 -2.0941
  174MOL0     H23960   6.879  10.328  11.070 -2.7051  2.8293 -2.6273
  174MOL0     H23961   6.827  10.477  11.275  1.3518  0.0461 -0.7986
  174MOL0     H23962   6.791  10.352  11.648 -0.6174  1.0361  2.0680
  174MOL0     H23963   6.700  10.491  11.596  2.1074  3.4095 -0.8203
  174MOL0     H23964   6.900  10.604  11.507  0.7273  0.8162  0.7259
  174MOL0     H23965   6.940  10.564  11.665 -0.1248 -0.0541  0.0685
  174MOL0     H23966   7.052  10.338  11.579 -1.5779  1.5086  2.4741
  174MOL0     H23967   7.020  10.406  11.412  3.6873  1.1470 -0.7498
  174MOL0     H23968   7.181  10.527  11.636  0.6409  1.3292  0.3571
  174MOL0     H23969   7.241  10.464  11.476 -2.4211 -1.6199 -1.9397
  174MOL0     H23970   7.186  10.480  11.265 -0.3694 -0.7043 -2.3822
  174MOL0     H23971   7.227  10.499  10.952 -1.8490 -0.2870  1.0678
  174MOL0     H23972   7.296  10.417  11.082  0.4135  1.0462  1.0238
  174MOL0     H23973   7.398  10.524  10.994 -0.0166 -1.7670 -1.2693
  174MOL0     H23974   7.498  10.632  10.695 -3.2929 -0.1884  0.7615
  174MOL0     H23975   7.580  10.731  10.466  1.9832  1.5599  0.0427
  174MOL0     H23976   7.567  10.791  10.254 -0.3415  0.0262  1.1290
  174MOL0     H23977   7.542  10.948  10.183 -4.5201  1.4430  0.6464
  174MOL0     H23978   7.725  11.047  10.290 -3.7110  0.9210 -0.8826
  174MOL0     H23979   7.735  10.922  10.417 -0.2360  1.3793  0.7369
  174MOL0     H23980   7.786  10.828  10.136 -0.0039  0.2098  0.7498
  174MOL0     H23981   7.834  10.767  10.298  0.6611 -0.0775 -2.5665
  174MOL0     H23982   7.964  10.974  10.313  0.4698  2.0122 -1.6480
  174MOL0     H23983   7.922  11.004  10.146 -0.5350 -1.3273 -2.1692
  174MOL0     H23984   8.148  10.880  10.216  0.1219 -1.9019  0.4240
  174MOL0     H23985   8.053  10.739  10.229  0.0470  0.0443  2.4282
  174MOL0     H23986   7.979  10.796   9.976 -1.3959  2.6991 -0.2776
  174MOL0     H23987   8.162  10.772  10.004 -2.4238 -2.1106 -0.1304
  174MOL0     H23988   8.180  11.017  10.016 -0.1878 -1.1574  1.5116
  174MOL0     H23989   8.002  11.021   9.960  0.3065  0.0249  0.3318
  174MOL0     H23990   8.248  10.927   9.803  1.7861  3.5691  1.2194
  174MOL0     H23991   8.151  11.070   9.791 -1.6045 -0.2252 -2.6641
  174MOL0     H23992   7.340  11.082  10.568 -1.8877 -0.4760  2.9295
  174MOL0     H23993   7.290  10.997  10.772 -1.5789 -1.4612 -2.9691
  174MOL0     H23994   7.318  10.959  11.213 -3.6480  1.4007 -1.2235
  174MOL0     H23995   7.216  10.882  11.417  2.4638 -2.0669  1.3504
  174MOL0     H23996   5.843   9.769  10.647 -0.6640 -3.7002  1.4612
  174MOL0     H23997   5.635   9.730  10.805 -1.2430  2.3497 -1.8629
  174MOL0     H23998   5.418   9.789  11.166 -0.7016  1.3127  0.8592
  174MOL0     H23999   5.245   9.769  11.315  2.8704  4.1533  0.7936
  174MOL0     H24000   5.143   9.396  11.486  0.6430 -1.2137 -0.4171
  174MOL0     H24001   5.027   9.532  11.531 -0.8208  1.5621 -1.8257
  174MOL0     H24002   5.131   9.446  11.263 -2.1705 -1.5941  0.1257
  174MOL0     H24003   5.062   9.614  11.287 -0.6485  0.7980 -0.6189
  174MOL0     H24004   4.857   9.519  11.372 -0.4284  1.6647 -2.1386
  174MOL0     H24005   4.879   9.496  11.213  2.4137  1.7085  0.6193
  174MOL0     H24006   4.976   9.257  11.232  0.8610  0.0248 -0.5570
  174MOL0     H24007   4.806   9.291  11.269  0.4590 -1.2929 -1.1533
  174MOL0     H24008   4.848   9.064  11.597  0.7991 -1.1908 -1.2394
  174MOL0     H24009   5.440   9.464  11.526 -1.5253  0.0026 -0.7896
  174MOL0     H24010   5.647   9.395  11.471 -0.8653  1.8339  0.2986
  174MOL0     H24011   5.702   9.389  11.302 -2.3906 -2.5456  0.7465
  174MOL0     H24012   5.751   9.517  11.405 -1.2543  1.3148  1.3244
  175MOL0     O24013   7.390   8.647   8.722  0.3537 -0.7696  0.3273
  175MOL0     C24014   7.478   8.572   8.757  0.4206  0.5150 -0.3170
  175MOL0     O24015   7.562   8.506   8.677  0.1998 -0.5695  0.0661
  175MOL0     C24016   7.672   8.430   8.728  0.5433 -0.6525 -0.1971
  175MOL0     C24017   7.783   8.504   8.767  0.8257 -0.5135  0.2551
  175MOL0     C24018   7.897   8.446   8.812 -0.5138 -0.1951  0.0760
  175MOL0     C24019   7.907   8.307   8.809  0.4703 -0.0966 -0.6307
  175MOL0     O24020   8.022   8.231   8.820 -0.5381  0.0048  0.0191
  175MOL0     C24021   8.139   8.281   8.757  0.3678  0.4201 -1.1227
  175MOL0     C24022   8.239   8.159   8.735 -0.0226 -0.7090  0.4045
  175MOL0     C24023   8.315   8.133   8.852 -0.6315 -0.0374  0.0461
  175MOL0     C24024   8.424   8.030   8.825  0.7469  0.5405 -0.4409
  175MOL0     C24025   8.550   8.070   8.897 -0.0676 -0.2269  0.1747
  175MOL0     C24026   8.668   7.977   8.858 -0.2911  0.1924  0.3806
  175MOL0     C24027   8.793   8.045   8.904  0.8532 -0.0304 -0.3333
  175MOL0     C24028   8.912   7.959   8.899  0.5299 -0.2492 -0.0482
  175MOL0     N24029   8.938   7.898   8.766 -0.4158 -1.6017  0.3305
  175MOL0     C24030   8.860   7.806   8.706  0.0966 -0.1219 -0.1683
  175MOL0     C24031   8.911   7.788   8.577 -0.5840 -0.1605 -1.0212
  175MOL0     C24032   8.878   7.690   8.479  1.4381  0.0833 -0.6381
  175MOL0     C24033   8.921   7.719   8.337  0.6231 -0.3580 -0.2968
  175MOL0     C24034   8.841   7.836   8.281  0.0825 -0.6750 -0.2641
  175MOL0     C24035   8.908   7.983   8.292  0.3619  0.0669 -0.4660
  175MOL0     O24036   8.841   8.073   8.194 -0.2073  0.0335  0.4125
  175MOL0     C24037   8.726   8.140   8.212 -0.4688 -0.4232 -0.2941
  175MOL0     C24038   8.647   8.180   8.113  0.0490 -0.7240  0.2774
  175MOL0     C24039   8.544   8.272   8.136  0.1330  0.8983 -0.9002
  175MOL0     C24040   8.489   8.329   8.012  0.1188 -0.2603  0.0159
  175MOL0     C24041   8.500   8.311   8.269  0.1069 -0.0184  0.4425
  175MOL0     C24042   8.406   8.411   8.297  0.0408  0.6076 -0.7053
  175MOL0     O24043   8.416   8.492   8.408 -0.8547  0.5047 -0.5881
  175MOL0     C24044   8.306   8.574   8.444 -0.1334  0.6351 -0.2946
  175MOL0     C24045   8.176   8.520   8.464 -0.9084 -0.9683  0.5240
  175MOL0     C24046   8.078   8.608   8.498  0.0603  0.1623  0.3172
  175MOL0     C24047   8.097   8.741   8.532 -0.0608  0.3486 -0.4368
  175MOL0     O24048   7.987   8.813   8.574  0.0172 -0.8067  0.3604
  175MOL0     C24049   7.993   8.954   8.569  0.0336 -0.0707 -0.4811
  175MOL0     C24050   7.852   8.994   8.634  1.3545  0.4037  0.1901
  175MOL0     C24051   7.868   9.026   8.784 -0.2305 -0.1145 -0.3690
  175MOL0     C24052   7.878   8.903   8.879  0.5382  1.7576  0.5603
  175MOL0     C24053   7.912   8.946   9.033  0.0252 -0.2085 -0.7018
  175MOL0     C24054   7.786   9.003   9.109 -0.7289  0.6441  0.1230
  175MOL0     C24055   7.821   9.024   9.259  0.2987 -0.6128  0.0937
  175MOL0     C24056   7.739   8.925   9.335  0.5442 -0.1626  0.1775
  175MOL0    Cl24057   7.809   8.912   9.500 -0.5996 -0.5471  0.1928
  175MOL0     C24058   8.230   8.785   8.520  0.3564 -0.1287  0.0197
  175MOL0     C24059   8.335   8.703   8.474  0.2474 -0.4436 -0.3880
  175MOL0     O24060   8.301   8.404   8.227 -0.0732  0.5816 -0.3980
  175MOL0     C24061   8.584   8.270   8.377  0.1847  0.3166 -0.6933
  175MOL0     C24062   8.698   8.190   8.345 -1.0001 -0.1086  0.3860
  175MOL0     N24063   9.034   7.863   8.573  0.1415  0.5922 -0.4763
  175MOL0     N24064   9.046   7.934   8.683 -0.1182  0.8966  0.3998
  175MOL0     C24065   7.795   8.227   8.777  0.0599  0.6736  0.1635
  175MOL0     C24066   7.675   8.286   8.741 -0.0739 -0.2111  0.1345
  175MOL0     C24067   7.456   8.522   8.905  0.0803 -1.1706 -0.0499
  175MOL0     C24068   7.411   8.393   8.916  0.6848 -1.0113 -1.3590
  175MOL0     C24069   7.389   8.336   9.047  1.0807  0.8434  0.5452
  175MOL0     C24070   7.412   8.413   9.153 -0.5982  0.1424 -0.3795
  175MOL0     O24071   7.388   8.353   9.272 -0.1639 -0.1989  0.1367
  175MOL0     C24072   7.272   8.389   9.343  1.1805  0.2604  0.3354
  175MOL0     C24073   7.301   8.430   9.492 -0.2227 -0.4720  0.8100
  175MOL0     C24074   7.398   8.553   9.501  0.3921 -0.3326 -0.7707
  175MOL0     C24075   7.324   8.682   9.458 -0.2830  1.2983 -0.1882
  175MOL0     C24076   7.234   8.718   9.566 -0.3637 -0.0530  0.3262
  175MOL0     C24077   7.169   8.758   9.658  0.9852 -0.4360 -1.1220
  175MOL0     C24078   7.459   8.542   9.141 -0.0612 -0.0569 -0.3612
  175MOL0     C24079   7.478   8.602   9.013  0.3106 -0.7516 -0.7810
  175MOL0     C24080   7.511   8.746   9.005 -0.0620 -0.3453 -0.2054
  175MOL0     H24081   7.781   8.612   8.775 -2.1997 -0.5774  2.0213
  175MOL0     H24082   7.983   8.506   8.841 -0.4326 -1.6336  3.3310
  175MOL0     H24083   8.192   8.360   8.811  0.5875 -1.3936  1.5210
  175MOL0     H24084   8.115   8.322   8.658  2.4645  0.0369 -1.8238
  175MOL0     H24085   8.182   8.073   8.699 -0.0444  0.7799 -3.6452
  175MOL0     H24086   8.307   8.196   8.657 -0.8727 -0.5296 -0.2661
  175MOL0     H24087   8.357   8.228   8.886  0.0621  0.5009 -2.1474
  175MOL0     H24088   8.246   8.098   8.930 -1.4182 -1.4957 -1.2440
  175MOL0     H24089   8.403   7.927   8.856  0.8168  0.6459 -0.0483
  175MOL0     H24090   8.442   8.012   8.718 -1.4908 -1.0550 -0.6428
  175MOL0     H24091   8.539   8.061   9.006  0.0834 -4.0405  0.0127
  175MOL0     H24092   8.579   8.171   8.868  0.9277 -0.3290  0.7659
  175MOL0     H24093   8.663   7.873   8.893  2.9244  0.0032  0.6301
  175MOL0     H24094   8.655   7.970   8.750  0.2056  0.6095  0.2865
  175MOL0     H24095   8.772   8.071   9.008 -1.0793  1.1523 -0.9653
  175MOL0     H24096   8.805   8.137   8.846  2.5768  1.3995  2.0628
  175MOL0     H24097   8.994   8.025   8.929 -0.9001  1.5070  0.1409
  175MOL0     H24098   8.899   7.873   8.965 -1.8173 -0.8251 -1.1841
  175MOL0     H24099   8.770   7.759   8.746 -0.4164 -0.3218 -1.4967
  175MOL0     H24100   8.769   7.684   8.480  1.4939 -2.0297  1.4511
  175MOL0     H24101   8.906   7.590   8.514  3.4674  1.0658  0.8150
  175MOL0     H24102   9.030   7.728   8.337  0.7047 -0.2903  2.6560
  175MOL0     H24103   8.903   7.635   8.269  1.4314  1.0009 -2.2716
  175MOL0     H24104   8.855   7.830   8.172 -0.6915  2.3047 -0.6180
  175MOL0     H24105   8.735   7.823   8.304  0.3249 -1.2604  0.5742
  175MOL0     H24106   8.884   8.009   8.395  1.1460  0.7542 -0.4483
  175MOL0     H24107   9.016   7.989   8.280  0.4326  4.7539  0.4765
  175MOL0     H24108   8.666   8.156   8.009  0.1730  1.1587 -0.1790
  175MOL0     H24109   8.563   8.342   7.932 -1.5543 -1.2295 -1.7566
  175MOL0     H24110   8.447   8.428   8.031 -3.3990 -1.7053  0.3487
  175MOL0     H24111   8.411   8.266   7.969  1.5542 -2.9891  1.1654
  175MOL0     H24112   8.143   8.421   8.432  0.1009 -1.3274  0.5752
  175MOL0     H24113   7.976   8.572   8.503  0.7043 -1.8484  0.0237
  175MOL0     H24114   8.079   8.987   8.627  1.9724 -1.1395 -2.5729
  175MOL0     H24115   7.997   8.997   8.468 -3.0034  0.4534 -0.4755
  175MOL0     H24116   7.800   9.082   8.595 -3.3249 -0.0741  4.3837
  175MOL0     H24117   7.780   8.913   8.615  0.4017  1.1788  0.4434
  175MOL0     H24118   7.780   9.085   8.810  0.1017  1.4518 -2.4335
  175MOL0     H24119   7.965   9.078   8.786 -0.9506  1.4004 -1.7694
  175MOL0     H24120   7.960   8.841   8.841 -0.2317  0.4796  0.9323
  175MOL0     H24121   7.784   8.847   8.876  0.6987  1.5191 -0.1187
  175MOL0     H24122   7.943   8.855   9.085  2.2181  0.8695 -0.0133
  175MOL0     H24123   7.992   9.020   9.042  1.2453 -1.6961  1.2890
  175MOL0     H24124   7.697   8.944   9.086 -0.1289  0.3767 -1.7180
  175MOL0     H24125   7.759   9.107   9.087  1.5526  2.2286  3.9425
  175MOL0     H24126   7.808   9.126   9.296 -0.2492 -1.5107  2.5058
  175MOL0     H24127   7.927   8.997   9.263  0.4210 -0.7660 -2.4559
  175MOL0     H24128   7.736   8.828   9.283 -0.0826 -1.2618  2.1711
  175MOL0     H24129   7.638   8.965   9.343 -0.3908 -2.5047  1.2264
  175MOL0     H24130   8.248   8.886   8.556 -2.3154  0.4507 -0.0599
  175MOL0     H24131   8.437   8.740   8.477 -0.5208  2.0494 -1.5683
  175MOL0     H24132   8.574   8.325   8.469 -1.4873 -1.1032  0.0253
  175MOL0     H24133   8.775   8.193   8.422  1.4025 -0.3195 -1.8997
  175MOL0     H24134   7.813   8.120   8.775 -2.4775  0.1862  0.2439
  175MOL0     H24135   7.594   8.221   8.710  1.5645 -0.9167 -3.1882
  175MOL0     H24136   7.379   8.325   8.838 -2.7847  0.1525 -1.1438
  175MOL0     H24137   7.343   8.238   9.052 -0.7651  1.4825 -2.0119
  175MOL0     H24138   7.222   8.464   9.281 -0.8322 -1.5142 -0.3273
  175MOL0     H24139   7.205   8.302   9.347  2.8447 -1.0660  0.9853
  175MOL0     H24140   7.356   8.343   9.531  1.1507 -0.4212 -0.8431
  175MOL0     H24141   7.210   8.429   9.552  1.8663  3.7564  4.6483
  175MOL0     H24142   7.434   8.563   9.603 -0.4949  3.7206 -0.6764
  175MOL0     H24143   7.486   8.554   9.437  0.2586 -0.7172 -0.9652
  175MOL0     H24144   7.256   8.680   9.373  3.7065 -1.3268 -3.7457
  175MOL0     H24145   7.404   8.753   9.433  2.4604 -2.0012 -1.6653
  175MOL0     H24146   7.099   8.766   9.739  1.1633 -2.6171 -0.6746
  175MOL0     H24147   7.470   8.598   9.233 -0.9057 -2.8808  1.5846
  175MOL0     H24148   7.429   8.818   8.999  0.8669  0.8882  1.1793
  175MOL0     H24149   7.560   8.779   9.097 -1.4977  1.3267  0.0012
  175MOL0     H24150   7.572   8.770   8.917 -1.5284  0.9397 -0.9301
  176MOL0     O24151   1.017   5.022   2.352  0.9886  0.3371  0.2624
  176MOL0     C24152   0.945   4.946   2.286 -0.4696 -1.2367  0.1434
  176MOL0     O24153   0.851   4.867   2.338 -0.3820 -0.1954 -0.6095
  176MOL0     C24154   0.791   4.907   2.465  0.1990 -0.2228  0.2550
  176MOL0     C24155   0.845   4.969   2.576  0.8338 -0.5690 -0.2409
  176MOL0     C24156   0.765   5.013   2.696  0.1998 -0.9286  0.1960
  176MOL0     C24157   0.622   4.992   2.689  0.6065 -0.0642  0.5378
  176MOL0     O24158   0.528   5.043   2.780 -0.5367 -0.5879  0.1085
  176MOL0     C24159   0.579   5.139   2.877 -0.0885 -0.0336  0.7013
  176MOL0     C24160   0.448   5.187   2.924  0.6816 -0.5996 -0.1044
  176MOL0     C24161   0.361   5.087   3.003 -0.0075 -1.5100  0.2464
  176MOL0     C24162   0.229   5.148   3.061  0.2494  0.7062  0.1289
  176MOL0     C24163   0.144   5.055   3.146  0.8241 -0.1946 -0.1318
  176MOL0     C24164  -0.010   5.076   3.141 -0.4951  0.2178  0.1236
  176MOL0     C24165  -0.042   5.218   3.168 -0.0628  0.6011 -0.5505
  176MOL0     C24166  -0.099   5.249   3.306 -0.4061  0.3135  0.9053
  176MOL0     N24167  -0.182   5.376   3.299  0.4450 -0.9488 -0.2284
  176MOL0     C24168  -0.135   5.508   3.273 -0.7858 -0.0202 -0.6232
  176MOL0     C24169  -0.236   5.589   3.293  0.1858 -0.2497 -0.2730
  176MOL0     C24170  -0.247   5.732   3.255 -0.6565 -0.8466  0.6957
  176MOL0     C24171  -0.252   5.807   3.392 -0.1948  0.1711  0.7891
  176MOL0     C24172  -0.215   5.955   3.370  0.4779 -0.3146  0.0216
  176MOL0     C24173  -0.192   6.034   3.501 -1.6254 -0.2800 -0.6607
  176MOL0     O24174  -0.110   6.146   3.456 -0.2767 -0.4634 -0.1649
  176MOL0     C24175  -0.120   6.271   3.518 -0.0227 -0.1022 -1.2990
  176MOL0     C24176  -0.079   6.378   3.450  0.4025 -0.4744  0.3880
  176MOL0     C24177  -0.081   6.511   3.497 -0.4381 -0.0383 -0.6845
  176MOL0     C24178  -0.026   6.626   3.413 -0.1976  0.1507  0.8252
  176MOL0     C24179  -0.126   6.531   3.639 -0.1075  0.5108  0.3946
  176MOL0     C24180  -0.125   6.661   3.710  0.2670 -0.3498 -0.2270
  176MOL0     O24181  -0.152   6.656   3.840 -1.4854 -0.0164  0.0958
  176MOL0     C24182  -0.128   6.760   3.921  0.0796  0.2850  0.4870
  176MOL0     C24183  -0.205   6.751   4.035  0.4261 -0.0892 -0.1320
  176MOL0     C24184  -0.187   6.842   4.137  0.9142 -0.8410 -0.6881
  176MOL0     C24185  -0.102   6.953   4.130 -0.0127  0.5143 -0.2341
  176MOL0     O24186  -0.074   7.054   4.215  0.2293  0.0834 -0.0971
  176MOL0     C24187  -0.161   7.066   4.328 -0.6908 -0.5330  0.0027
  176MOL0     C24188  -0.288   7.133   4.292  0.6902 -0.0397  0.3919
  176MOL0     C24189  -0.392   7.134   4.399  0.2773 -0.5412 -0.0142
  176MOL0     C24190  -0.421   7.012   4.488  0.5992 -0.2307 -0.7931
  176MOL0     C24191  -0.524   7.049   4.597  0.0328  0.7492 -0.5630
  176MOL0     C24192  -0.527   6.953   4.707  0.5696  0.6954 -0.1503
  176MOL0     C24193  -0.541   7.023   4.844 -0.0179 -0.1936 -0.1889
  176MOL0     C24194  -0.411   7.069   4.911 -0.1285 -0.3730 -0.0313
  176MOL0    Cl24195  -0.366   7.221   4.827 -0.5865  0.3823 -0.1493
  176MOL0     C24196  -0.027   6.961   4.013  0.1638  0.4173  0.5017
  176MOL0     C24197  -0.036   6.869   3.907 -0.1604  0.0010  0.7460
  176MOL0     O24198  -0.111   6.765   3.642 -0.0267  0.2095  0.3528
  176MOL0     C24199  -0.154   6.419   3.720 -0.4971  0.8270 -0.1311
  176MOL0     C24200  -0.162   6.293   3.656  0.2073  0.0745  0.0817
  176MOL0     N24201  -0.351   5.513   3.329 -0.3501 -0.2805  0.2679
  176MOL0     N24202  -0.321   5.383   3.318 -0.1781  0.3937 -0.3916
  176MOL0     C24203   0.577   4.936   2.570 -0.4075  0.5864 -1.3271
  176MOL0     C24204   0.650   4.889   2.468  0.2902  0.3144 -0.3646
  176MOL0     C24205   0.976   4.923   2.148  1.2890 -0.2082  0.5968
  176MOL0     C24206   1.116   4.914   2.116  0.7782 -0.1090  0.0460
  176MOL0     C24207   1.160   4.883   1.991  0.3044 -1.0313  0.2761
  176MOL0     C24208   1.066   4.846   1.890 -0.6186 -0.0464 -0.1872
  176MOL0     O24209   1.100   4.805   1.764  0.2883 -0.0445 -0.4352
  176MOL0     C24210   1.231   4.769   1.727 -0.5838 -0.7915  0.3114
  176MOL0     C24211   1.303   4.880   1.642  0.1712 -0.2766 -0.0581
  176MOL0     C24212   1.232   4.904   1.505 -0.0647  0.1172  0.3607
  176MOL0     C24213   1.235   4.793   1.407  0.3789  0.2050 -0.4810
  176MOL0     C24214   1.368   4.777   1.355 -1.3032 -0.4832  0.0558
  176MOL0     C24215   1.485   4.773   1.324 -0.3221  1.0757 -0.2644
  176MOL0     C24216   0.929   4.845   1.918  0.5514 -0.4479  0.2209
  176MOL0     C24217   0.877   4.898   2.038  0.5608 -0.5333 -0.3363
  176MOL0     C24218   0.723   4.901   2.066  0.0304 -0.3307  1.0711
  176MOL0     H24219   0.950   4.996   2.590  0.0964  0.7783  5.0451
  176MOL0     H24220   0.805   5.060   2.785 -0.0271  0.5333 -0.4493
  176MOL0     H24221   0.623   5.225   2.827 -1.6202 -0.9350 -2.4467
  176MOL0     H24222   0.650   5.101   2.951 -2.8862 -1.0295  3.0733
  176MOL0     H24223   0.457   5.275   2.989 -0.3458  0.8849 -1.8688
  176MOL0     H24224   0.391   5.212   2.834  1.9247 -0.5114 -0.8857
  176MOL0     H24225   0.348   5.005   2.933 -0.5059  0.0672 -1.5939
  176MOL0     H24226   0.419   5.052   3.089 -1.0816  0.1010  1.6902
  176MOL0     H24227   0.267   5.232   3.119 -0.3285 -0.4845  2.3365
  176MOL0     H24228   0.176   5.177   2.970 -0.1818 -2.0071 -0.5675
  176MOL0     H24229   0.170   5.062   3.252 -0.7890  1.1514  0.2119
  176MOL0     H24230   0.165   4.953   3.111  1.4559 -0.7160  1.6365
  176MOL0     H24231  -0.025   5.057   3.034  0.7766  0.4072 -0.1049
  176MOL0     H24232  -0.059   5.009   3.211  2.6023 -2.7187 -0.2752
  176MOL0     H24233  -0.109   5.239   3.083  0.2074  0.4604 -0.7992
  176MOL0     H24234   0.040   5.289   3.153  0.4047  1.0935  3.3120
  176MOL0     H24235  -0.154   5.160   3.338  4.3869 -2.9849  1.1242
  176MOL0     H24236  -0.028   5.260   3.389  0.6722 -2.3257  0.4220
  176MOL0     H24237  -0.041   5.551   3.240 -1.0391  2.4255  1.5307
  176MOL0     H24238  -0.333   5.751   3.191 -1.1160  0.1148  1.5742
  176MOL0     H24239  -0.154   5.762   3.204 -1.1324  2.9539  1.7100
  176MOL0     H24240  -0.353   5.786   3.429  0.3896 -1.8371  1.3643
  176MOL0     H24241  -0.183   5.754   3.459 -2.1089 -3.0332  0.4146
  176MOL0     H24242  -0.123   5.956   3.311  0.5378  0.9220  0.1020
  176MOL0     H24243  -0.289   6.011   3.312  0.4432  0.2901  0.6262
  176MOL0     H24244  -0.286   6.064   3.548  0.0023  3.4666  0.5319
  176MOL0     H24245  -0.144   5.977   3.580 -1.8532  3.0322  2.0825
  176MOL0     H24246  -0.048   6.364   3.347 -0.2140  1.5729 -0.1277
  176MOL0     H24247  -0.088   6.713   3.390 -1.2099 -0.7838 -0.0670
  176MOL0     H24248   0.008   6.597   3.313  1.7273  5.0569 -0.2392
  176MOL0     H24249   0.070   6.655   3.459  1.0775  0.5823 -1.9058
  176MOL0     H24250  -0.269   6.668   4.061  1.6726  0.0484  4.2439
  176MOL0     H24251  -0.249   6.824   4.224  0.8751 -0.2876 -0.5971
  176MOL0     H24252  -0.184   6.962   4.353 -3.7315 -0.7889 -3.1105
  176MOL0     H24253  -0.121   7.125   4.410 -4.9085  0.9169  1.2641
  176MOL0     H24254  -0.258   7.235   4.268 -0.6360  0.7946  2.0325
  176MOL0     H24255  -0.331   7.080   4.207 -1.4327 -0.5244  1.6754
  176MOL0     H24256  -0.482   7.161   4.343  1.8063  0.3154 -2.2194
  176MOL0     H24257  -0.361   7.216   4.463  1.0177  1.5461 -2.8435
  176MOL0     H24258  -0.326   6.986   4.535 -0.1428 -0.5070  0.6099
  176MOL0     H24259  -0.450   6.923   4.432  2.8327 -2.6744  1.5804
  176MOL0     H24260  -0.494   7.151   4.622 -2.4754  1.1278  1.2939
  176MOL0     H24261  -0.627   7.062   4.562 -0.1261  2.0756  0.3218
  176MOL0     H24262  -0.445   6.880   4.706  0.4661  0.5728 -1.0725
  176MOL0     H24263  -0.617   6.892   4.692  1.3212 -1.1249  2.1824
  176MOL0     H24264  -0.605   6.963   4.909  0.2090  0.3763  0.5719
  176MOL0     H24265  -0.599   7.115   4.833  0.5956  0.6228  2.6433
  176MOL0     H24266  -0.327   7.000   4.894 -0.7302 -0.8218 -1.3247
  176MOL0     H24267  -0.424   7.088   5.018 -1.1688  2.3836 -0.5663
  176MOL0     H24268   0.048   7.040   4.006  2.4166 -1.7503 -3.2659
  176MOL0     H24269   0.032   6.889   3.825 -0.8458  0.6955  0.3308
  176MOL0     H24270  -0.181   6.427   3.825  0.7879 -0.9661  0.3995
  176MOL0     H24271  -0.203   6.215   3.719 -2.9422  0.2676 -1.5523
  176MOL0     H24272   0.471   4.923   2.552 -0.0588 -3.2768 -1.4379
  176MOL0     H24273   0.592   4.853   2.383 -2.7490  0.2276  1.6054
  176MOL0     H24274   1.192   4.930   2.192 -2.6648 -1.3041  4.0507
  176MOL0     H24275   1.265   4.896   1.968 -0.4498  0.2590 -2.8641
  176MOL0     H24276   1.290   4.752   1.818  0.1523 -0.2136 -0.0389
  176MOL0     H24277   1.228   4.680   1.663 -2.1576 -0.6505  0.1640
  176MOL0     H24278   1.405   4.843   1.629  0.3332  0.5898 -1.4973
  176MOL0     H24279   1.298   4.973   1.699  1.1051 -0.5559  0.4928
  176MOL0     H24280   1.129   4.921   1.536 -0.6346 -0.2834 -1.1938
  176MOL0     H24281   1.277   4.995   1.464  0.9008 -0.2576  0.5588
  176MOL0     H24282   1.182   4.822   1.316  1.6038 -1.1353 -1.6778
  176MOL0     H24283   1.185   4.706   1.451  1.6697 -1.2576 -1.7891
  176MOL0     H24284   1.585   4.755   1.290 -1.1679 -1.0885 -1.8220
  176MOL0     H24285   0.858   4.812   1.843 -0.2932  0.1533  0.7316
  176MOL0     H24286   0.705   4.794   2.077  1.0257 -0.3932  2.3140
  176MOL0     H24287   0.701   4.953   2.160  3.3323  2.7331  0.3875
  176MOL0     H24288   0.663   4.951   1.989  1.3209  0.4497  0.5460
  177MOL0     O24289   8.223   8.397   0.981  0.8282 -1.1329 -0.5439
  177MOL0     C24290   8.214   8.301   0.908 -0.5542 -0.0821 -1.3770
  177MOL0     O24291   8.105   8.271   0.842 -1.1219  0.8321  0.4122
  177MOL0     C24292   8.000   8.351   0.804 -0.6929 -0.4959 -0.2077
  177MOL0     C24293   8.014   8.493   0.805 -0.4453  0.3728 -0.9410
  177MOL0     C24294   7.897   8.569   0.796 -0.7219  0.1792 -0.6008
  177MOL0     C24295   7.775   8.513   0.775 -0.3535  0.3323  0.9841
  177MOL0     O24296   7.655   8.578   0.755 -0.0279  0.3696 -0.3549
  177MOL0     C24297   7.663   8.640   0.632 -0.0757 -0.4485  0.7190
  177MOL0     C24298   7.577   8.561   0.537  0.7845 -0.5529 -0.4416
  177MOL0     C24299   7.426   8.589   0.555 -0.5706 -0.9801 -1.0270
  177MOL0     C24300   7.356   8.500   0.657 -0.6368  0.1016 -1.0341
  177MOL0     C24301   7.205   8.461   0.647  0.2574 -0.4512 -0.1944
  177MOL0     C24302   7.188   8.374   0.522  0.0059  0.1728  0.1749
  177MOL0     C24303   7.039   8.331   0.503  1.2316 -0.6664  0.4856
  177MOL0     C24304   7.026   8.208   0.411  0.7065  0.3711  0.1714
  177MOL0     N24305   7.081   8.233   0.278 -0.9342  0.8985  0.9299
  177MOL0     C24306   7.027   8.312   0.184  0.6645  0.2079 -0.3600
  177MOL0     C24307   7.113   8.305   0.079  0.1533 -0.7076  0.2770
  177MOL0     C24308   7.096   8.377  -0.050  0.2222 -0.3734  0.4265
  177MOL0     C24309   7.094   8.540  -0.035  0.5669  0.0858 -0.2428
  177MOL0     C24310   7.125   8.616  -0.167  1.0338  0.0566 -0.7311
  177MOL0     C24311   7.148   8.767  -0.152 -0.0811  0.3233 -0.7909
  177MOL0     O24312   7.260   8.779  -0.065  0.7624 -0.2010  0.5845
  177MOL0     C24313   7.355   8.866  -0.102  0.0603  0.0661  0.5349
  177MOL0     C24314   7.332   8.999  -0.133  0.3693 -0.3766  0.7679
  177MOL0     C24315   7.432   9.088  -0.178 -0.1622 -0.3737 -0.3170
  177MOL0     C24316   7.376   9.231  -0.202 -0.6241  0.5540 -0.1329
  177MOL0     C24317   7.562   9.030  -0.182  0.5183 -0.0293 -0.0431
  177MOL0     C24318   7.678   9.111  -0.232 -0.2119 -0.1934 -0.1154
  177MOL0     O24319   7.802   9.063  -0.200  0.7704 -0.0891 -0.0319
  177MOL0     C24320   7.906   9.099  -0.272  0.0258 -0.1921  0.3396
  177MOL0     C24321   7.928   9.052  -0.399 -0.6401  0.7423  0.6189
  177MOL0     C24322   8.046   9.093  -0.466  0.0902  0.3108  0.1209
  177MOL0     C24323   8.137   9.179  -0.404 -0.9880 -0.7980  0.7074
  177MOL0     O24324   8.256   9.199  -0.466  0.6732  0.1620 -0.1116
  177MOL0     C24325   8.375   9.165  -0.396 -0.1372  0.1133 -1.0267
  177MOL0     C24326   8.498   9.190  -0.486  0.0240  0.0383  0.5201
  177MOL0     C24327   8.623   9.104  -0.454  0.8165 -0.5695 -0.2294
  177MOL0     C24328   8.736   9.148  -0.530  0.2822 -0.9952  0.0502
  177MOL0     C24329   8.832   9.041  -0.527 -0.4828 -0.5787  0.3939
  177MOL0     C24330   8.974   9.079  -0.578  0.2875  0.1503  0.1006
  177MOL0     C24331   9.058   8.950  -0.616  0.1646 -0.9375  0.7898
  177MOL0     C24332   9.184   8.986  -0.693  0.1289  0.0738  0.2475
  177MOL0    Cl24333   9.270   9.119  -0.591  0.0707  0.0141  0.3526
  177MOL0     C24334   8.100   9.245  -0.286  0.2062 -0.5660 -0.2072
  177MOL0     C24335   7.987   9.201  -0.214 -0.4077  0.6115 -0.6166
  177MOL0     O24336   7.658   9.213  -0.299 -1.0122  0.1609 -0.0818
  177MOL0     C24337   7.595   8.895  -0.156  0.6200  1.3402  0.1452
  177MOL0     C24338   7.484   8.816  -0.112  0.1774  0.0284  0.1216
  177MOL0     N24339   7.210   8.217   0.104 -0.4470  0.4119  0.0880
  177MOL0     N24340   7.184   8.168   0.216 -0.2324 -0.5272 -0.6990
  177MOL0     C24341   7.768   8.373   0.786 -0.5503  0.7448  0.5795
  177MOL0     C24342   7.879   8.287   0.792 -0.1617 -0.9126 -1.4640
  177MOL0     C24343   8.338   8.208   0.906  1.1540  0.0528  0.7488
  177MOL0     C24344   8.405   8.190   1.027 -0.1451  0.3980  0.2380
  177MOL0     C24345   8.523   8.119   1.029  0.1376  0.6441 -0.4019
  177MOL0     C24346   8.571   8.044   0.920 -0.3148 -0.3410  0.7581
  177MOL0     O24347   8.696   7.974   0.929 -0.0065 -0.5793 -0.0667
  177MOL0     C24348   8.707   7.864   1.027 -0.9315  0.0604  0.1626
  177MOL0     C24349   8.798   7.748   0.975  0.8346 -0.2299  0.1577
  177MOL0     C24350   8.946   7.774   0.977 -1.4292 -0.1422 -0.8875
  177MOL0     C24351   9.019   7.865   0.878 -0.2590  0.1791 -0.3667
  177MOL0     C24352   8.990   7.809   0.745  0.9740 -0.8518 -0.8063
  177MOL0     C24353   8.970   7.798   0.617 -0.5407  0.2306 -0.7035
  177MOL0     C24354   8.501   8.055   0.798  0.0721 -0.2786 -1.2856
  177MOL0     C24355   8.384   8.124   0.796  1.0777  0.5439 -0.1431
  177MOL0     C24356   8.308   8.120   0.665 -0.2122  0.6628 -0.0946
  177MOL0     H24357   8.110   8.539   0.827  0.4143  0.4331 -4.2727
  177MOL0     H24358   7.903   8.677   0.812  2.0884  0.1422 -0.9610
  177MOL0     H24359   7.762   8.650   0.587  0.0252 -2.9427  0.2751
  177MOL0     H24360   7.619   8.738   0.657 -0.4670 -1.0080  2.3217
  177MOL0     H24361   7.613   8.588   0.437  2.0450  3.3532  0.8408
  177MOL0     H24362   7.599   8.454   0.540  3.1331 -0.1152  0.1892
  177MOL0     H24363   7.412   8.693   0.588 -1.8146 -1.7632  1.1336
  177MOL0     H24364   7.385   8.587   0.454  0.5361  2.1059 -1.6654
  177MOL0     H24365   7.401   8.400   0.664 -1.3608 -0.2172 -0.8615
  177MOL0     H24366   7.391   8.545   0.750  5.2709 -2.6582 -1.4033
  177MOL0     H24367   7.146   8.552   0.640  3.7731  2.2746  2.3095
  177MOL0     H24368   7.175   8.401   0.734 -0.0921  1.4781  1.0581
  177MOL0     H24369   7.219   8.429   0.433  2.1214 -1.0837  0.0709
  177MOL0     H24370   7.252   8.285   0.521  1.4024  1.1664  0.0155
  177MOL0     H24371   6.981   8.418   0.472  0.4878 -0.2336  2.9218
  177MOL0     H24372   6.991   8.298   0.596 -1.6586 -3.3524 -1.7364
  177MOL0     H24373   7.071   8.121   0.462 -1.8817 -0.8092  0.6148
  177MOL0     H24374   6.919   8.193   0.398  0.6836 -0.4110  1.1069
  177MOL0     H24375   6.934   8.367   0.195 -0.6652 -2.1633  1.2812
  177MOL0     H24376   6.998   8.346  -0.088  1.2967 -1.1884 -1.7986
  177MOL0     H24377   7.170   8.340  -0.121 -2.2480 -1.1005 -1.9589
  177MOL0     H24378   6.991   8.562  -0.005  0.4105 -1.0149  0.0462
  177MOL0     H24379   7.167   8.571   0.040 -0.8755 -1.4783  1.9281
  177MOL0     H24380   7.210   8.577  -0.223  0.8466  0.2284 -1.1445
  177MOL0     H24381   7.035   8.616  -0.230  1.0072 -0.5882 -0.6892
  177MOL0     H24382   7.157   8.807  -0.253 -1.0512  0.6172 -0.7702
  177MOL0     H24383   7.059   8.813  -0.108  0.7364  2.0095 -0.8308
  177MOL0     H24384   7.230   9.032  -0.116  0.7261  1.1071  0.1197
  177MOL0     H24385   7.283   9.238  -0.146 -1.4979 -1.4483 -1.2124
  177MOL0     H24386   7.349   9.230  -0.308  1.4211 -3.2910 -0.8088
  177MOL0     H24387   7.458   9.301  -0.182 -0.7816  0.4378  0.9393
  177MOL0     H24388   7.870   8.966  -0.430  0.7373  0.2091 -0.5744
  177MOL0     H24389   8.066   9.041  -0.560  2.0852 -1.1280  1.2767
  177MOL0     H24390   8.392   9.223  -0.305  0.4730 -1.8300  0.1754
  177MOL0     H24391   8.370   9.058  -0.373 -1.5584  0.7214  1.9895
  177MOL0     H24392   8.466   9.163  -0.587 -1.3544 -1.2932  1.2647
  177MOL0     H24393   8.524   9.295  -0.476 -2.1273  0.9748 -2.5047
  177MOL0     H24394   8.586   9.003  -0.474 -1.2389  0.3790 -1.5728
  177MOL0     H24395   8.646   9.103  -0.347 -4.1146 -2.4202  1.0777
  177MOL0     H24396   8.767   9.243  -0.484 -0.0925 -0.7298 -0.2354
  177MOL0     H24397   8.702   9.176  -0.631  2.1178  1.2752 -0.0330
  177MOL0     H24398   8.836   8.992  -0.430 -0.6787 -1.6112 -0.1040
  177MOL0     H24399   8.792   8.962  -0.592  1.2685  1.1381 -3.0645
  177MOL0     H24400   9.022   9.133  -0.496  2.3657  0.9545 -1.5718
  177MOL0     H24401   8.965   9.140  -0.668 -0.1167  1.7103  1.1653
  177MOL0     H24402   9.007   8.881  -0.684  1.4457 -0.7445 -0.4288
  177MOL0     H24403   9.083   8.893  -0.527  1.7945 -0.4203  0.6910
  177MOL0     H24404   9.152   9.028  -0.788 -4.0685  1.8145  2.1723
  177MOL0     H24405   9.254   8.904  -0.713 -0.0559  0.8111 -4.6232
  177MOL0     H24406   8.154   9.332  -0.249 -3.6128  1.9393 -0.0603
  177MOL0     H24407   7.938   9.244  -0.127 -2.3931 -1.9191 -0.3485
  177MOL0     H24408   7.682   8.839  -0.191 -0.3714  0.0383 -0.3206
  177MOL0     H24409   7.493   8.709  -0.098  2.2014  0.3990  2.3990
  177MOL0     H24410   7.668   8.331   0.784 -1.5726  3.0772  0.4715
  177MOL0     H24411   7.877   8.181   0.816  1.7948 -0.8457 -0.8809
  177MOL0     H24412   8.393   8.253   1.115 -1.9927  0.0570  0.2783
  177MOL0     H24413   8.582   8.127   1.120  2.8177  0.6780 -2.0343
  177MOL0     H24414   8.745   7.888   1.127  0.3104  1.6096 -0.6274
  177MOL0     H24415   8.614   7.809   1.040  1.6572 -5.2877 -1.1820
  177MOL0     H24416   8.770   7.706   0.878 -2.6838  1.6684  0.1940
  177MOL0     H24417   8.787   7.669   1.049  0.3607 -3.2736 -2.8960
  177MOL0     H24418   8.974   7.819   1.073  1.9859  1.6190 -2.4956
  177MOL0     H24419   9.000   7.680   0.992 -1.9814 -0.5552 -1.4290
  177MOL0     H24420   9.121   7.851   0.914 -2.0849 -0.8932  5.3950
  177MOL0     H24421   9.006   7.974   0.887  1.1555  0.3852 -0.6055
  177MOL0     H24422   8.953   7.797   0.512 -0.8007  1.0475 -0.6767
  177MOL0     H24423   8.537   8.000   0.711  0.3708  0.3321 -1.5520
  177MOL0     H24424   8.331   8.035   0.600  0.2236  2.5750 -2.5317
  177MOL0     H24425   8.201   8.115   0.690  0.4164 -0.8129  2.9056
  177MOL0     H24426   8.318   8.212   0.608 -0.5187  0.3150 -0.7220
  178MOL0     O24427  10.794   2.452   9.040  0.7830 -0.1725  0.2451
  178MOL0     C24428  10.839   2.340   9.018  0.0034  0.4979 -0.1977
  178MOL0     O24429  10.841   2.245   9.112  0.0159 -0.1722  0.3708
  178MOL0     C24430  10.793   2.243   9.242 -0.3427 -0.5655 -0.1241
  178MOL0     C24431  10.835   2.149   9.334 -0.2292  0.9466  0.3802
  178MOL0     C24432  10.778   2.143   9.464 -0.2829 -1.2108  0.4090
  178MOL0     C24433  10.685   2.244   9.510 -0.7167  0.3962 -0.1368
  178MOL0     O24434  10.648   2.232   9.642 -0.6068 -0.1843  0.2921
  178MOL0     C24435  10.538   2.302   9.695  0.6282 -0.1073  0.3407
  178MOL0     C24436  10.588   2.449   9.737 -0.1025 -0.2326  0.5470
  178MOL0     C24437  10.492   2.501   9.838 -0.6199 -0.2079 -0.5477
  178MOL0     C24438  10.564   2.545   9.977  0.3046 -0.1544  1.1921
  178MOL0     C24439  10.481   2.636  10.066 -0.1676  0.1681  0.3252
  178MOL0     C24440  10.373   2.548  10.135  0.9057 -0.2281 -0.5299
  178MOL0     C24441  10.291   2.624  10.252  0.6336 -0.6508 -0.8721
  178MOL0     C24442  10.371   2.696  10.366  0.0791  0.4793  0.4161
  178MOL0     N24443  10.271   2.747  10.464 -0.5020  0.7992  0.1129
  178MOL0     C24444  10.298   2.754  10.598  0.4044 -0.0095  0.1805
  178MOL0     C24445  10.215   2.852  10.655 -0.7076  0.4485  0.1355
  178MOL0     C24446  10.214   2.892  10.793 -0.2473 -1.0840 -0.1340
  178MOL0     C24447  10.100   2.815  10.872  0.5915  0.6327  0.8312
  178MOL0     C24448  10.086   2.666  10.835 -0.1465  0.1665 -0.5437
  178MOL0     C24449   9.984   2.590  10.923 -0.9810 -0.1058 -0.3580
  178MOL0     O24450   9.879   2.524  10.838  0.1266 -0.2447  0.0688
  178MOL0     C24451   9.908   2.409  10.766 -0.6766  1.1395  0.1678
  178MOL0     C24452  10.033   2.339  10.742 -0.1400  0.3632 -0.0723
  178MOL0     C24453  10.054   2.223  10.666 -0.1014 -0.3047 -1.1320
  178MOL0     C24454  10.194   2.163  10.654 -0.1007  0.6541  0.4358
  178MOL0     C24455   9.933   2.175  10.604 -0.2426 -0.2755  0.1851
  178MOL0     C24456   9.934   2.050  10.522 -0.2878  0.0407 -0.8115
  178MOL0     O24457  10.050   1.992  10.501  0.2836  0.0602 -0.4001
  178MOL0     C24458  10.066   1.856  10.452 -0.5366 -0.8952 -0.7811
  178MOL0     C24459   9.972   1.761  10.411  0.8256 -0.5124 -0.5150
  178MOL0     C24460  10.010   1.636  10.364 -0.4323 -1.0985  0.4646
  178MOL0     C24461  10.148   1.600  10.359  1.6127 -0.1276  0.9351
  178MOL0     O24462  10.171   1.465  10.329 -0.1991  0.5898 -0.8159
  178MOL0     C24463  10.304   1.433  10.272  0.7481 -0.0053  0.1920
  178MOL0     C24464  10.329   1.287  10.304 -0.6425  0.3014 -0.8788
  178MOL0     C24465  10.368   1.255  10.456  0.1277  0.4034 -0.4337
  178MOL0     C24466  10.382   1.110  10.495 -0.6102  0.0791  0.3092
  178MOL0     C24467  10.249   1.036  10.506  0.2150 -0.2801  0.8392
  178MOL0     C24468  10.265   0.892  10.541 -0.6355  1.1340  0.3943
  178MOL0     C24469  10.312   0.854  10.680 -0.2124 -0.3800 -0.2118
  178MOL0     C24470  10.274   0.713  10.714 -0.9183 -0.5998  0.2579
  178MOL0    Cl24471  10.093   0.684  10.738  0.1175  0.1348 -0.0127
  178MOL0     C24472  10.244   1.694  10.398  0.7697 -0.5170 -1.5772
  178MOL0     C24473  10.202   1.824  10.432  0.8123  0.7608 -0.4640
  178MOL0     O24474   9.824   2.011  10.486 -0.4077 -0.4382 -0.1824
  178MOL0     C24475   9.808   2.230  10.630  0.8506 -0.6563  0.3602
  178MOL0     C24476   9.794   2.342  10.712 -0.4297 -0.1358  0.5877
  178MOL0     N24477  10.133   2.906  10.555 -0.9798  0.1230  0.1039
  178MOL0     N24478  10.174   2.844  10.448  0.3713 -0.3270  0.0794
  178MOL0     C24479  10.632   2.334   9.414 -1.0501  0.1892 -0.5673
  178MOL0     C24480  10.684   2.324   9.282 -1.1259 -0.6266  1.1075
  178MOL0     C24481  10.877   2.300   8.877 -0.4597 -0.4497  0.2514
  178MOL0     C24482  10.901   2.400   8.776  0.1264  0.5644 -1.0263
  178MOL0     C24483  10.943   2.366   8.649  0.1950 -0.0960 -1.0837
  178MOL0     C24484  10.979   2.241   8.621 -0.4138  0.1607  0.8479
  178MOL0     O24485  11.038   2.222   8.504  0.2516  0.0826  0.3054
  178MOL0     C24486  11.121   2.107   8.487 -0.9492  0.5016 -0.0036
  178MOL0     C24487  11.221   2.130   8.378  0.1328 -0.4875  0.1923
  178MOL0     C24488  11.303   2.259   8.381 -0.2278 -0.4261  0.1227
  178MOL0     C24489  11.395   2.269   8.256  0.0198  0.3774 -1.0260
  178MOL0     C24490  11.319   2.313   8.137  1.2020  0.0637  0.2526
  178MOL0     C24491  11.259   2.359   8.039 -0.0463  0.7050  0.8413
  178MOL0     C24492  10.945   2.136   8.706 -0.1962 -0.9059  0.5735
  178MOL0     C24493  10.896   2.159   8.837 -0.2605 -0.8135 -0.1416
  178MOL0     C24494  10.863   2.044   8.932  0.3316  0.3561 -0.2578
  178MOL0     H24495  10.918   2.089   9.300  2.3152  4.2535  0.2304
  178MOL0     H24496  10.819   2.060   9.521  0.3941 -1.3594 -0.2717
  178MOL0     H24497  10.513   2.252   9.789  2.9267 -1.7003  0.1857
  178MOL0     H24498  10.459   2.314   9.621 -1.4627  1.1193  2.6142
  178MOL0     H24499  10.691   2.440   9.773  0.0156  0.7934  0.4855
  178MOL0     H24500  10.601   2.516   9.652  1.1105  0.9595  1.6254
  178MOL0     H24501  10.451   2.585   9.783  0.1101 -0.4964 -1.5661
  178MOL0     H24502  10.424   2.420   9.866 -2.5491  0.7943 -2.1660
  178MOL0     H24503  10.577   2.455  10.038  1.2369  0.0312  1.2853
  178MOL0     H24504  10.659   2.598   9.968 -1.1762  2.3395 -1.0201
  178MOL0     H24505  10.431   2.718  10.013 -0.3891 -1.4884 -2.1776
  178MOL0     H24506  10.545   2.685  10.140 -1.0041  1.6049  0.1434
  178MOL0     H24507  10.293   2.507  10.073 -3.2269 -0.8216  4.5124
  178MOL0     H24508  10.429   2.466  10.182 -0.3076 -1.7357 -1.5931
  178MOL0     H24509  10.212   2.565  10.299 -0.7189  0.4439 -1.6813
  178MOL0     H24510  10.232   2.696  10.195 -0.5581 -3.9266 -4.1897
  178MOL0     H24511  10.443   2.627  10.410  0.1083 -0.0567 -0.4472
  178MOL0     H24512  10.418   2.786  10.325 -1.9323  0.2702 -2.7256
  178MOL0     H24513  10.383   2.700  10.638  2.2383  0.4691 -2.7485
  178MOL0     H24514  10.205   3.001  10.791 -2.8529 -1.2252 -2.0833
  178MOL0     H24515  10.299   2.853  10.849  0.8717  1.3935 -0.0066
  178MOL0     H24516  10.103   2.814  10.982 -5.4597  0.4964  1.3365
  178MOL0     H24517  10.014   2.881  10.855  0.7112  0.0655 -2.5539
  178MOL0     H24518  10.050   2.667  10.731 -0.8288  0.9257 -0.3149
  178MOL0     H24519  10.181   2.616  10.855 -1.0167 -0.7621  1.5474
  178MOL0     H24520  10.020   2.507  10.984 -4.7253 -2.4635 -1.0193
  178MOL0     H24521   9.950   2.665  10.995  0.4323  0.2641 -0.0543
  178MOL0     H24522  10.121   2.383  10.788  1.0638 -1.3400 -0.6632
  178MOL0     H24523  10.230   2.149  10.552  0.2558 -1.8310  0.8293
  178MOL0     H24524  10.184   2.062  10.696 -1.8708  1.2877  1.6635
  178MOL0     H24525  10.270   2.219  10.709  0.9174  0.7168 -0.9759
  178MOL0     H24526   9.865   1.776  10.400  0.9958  0.9891 -0.3439
  178MOL0     H24527   9.945   1.558  10.326 -1.9839  1.1965 -2.0309
  178MOL0     H24528  10.300   1.439  10.163  0.2921  2.7666  0.2992
  178MOL0     H24529  10.390   1.474  10.326  0.0428  0.6382  0.8496
  178MOL0     H24530  10.248   1.222  10.272  1.6558 -2.8505 -0.7801
  178MOL0     H24531  10.409   1.248  10.240  1.0532 -0.1373  1.3575
  178MOL0     H24532  10.288   1.292  10.520  1.1362 -2.3922  2.7538
  178MOL0     H24533  10.461   1.311  10.470  0.8217 -0.2208 -2.1965
  178MOL0     H24534  10.418   1.101  10.597 -2.5231  4.7308  1.6615
  178MOL0     H24535  10.451   1.052  10.432  2.1919  1.6161  1.7871
  178MOL0     H24536  10.198   1.088  10.588  1.7032 -1.2303  2.4488
  178MOL0     H24537  10.204   1.036  10.407  2.9795 -1.4897 -0.5355
  178MOL0     H24538  10.328   0.843  10.466 -2.3361  0.5422 -0.7049
  178MOL0     H24539  10.167   0.847  10.527 -1.9367  3.1117  2.5226
  178MOL0     H24540  10.283   0.929  10.754  1.9582  2.0736 -1.6880
  178MOL0     H24541  10.421   0.863  10.680 -0.1104 -1.4334 -1.3023
  178MOL0     H24542  10.328   0.685  10.805  0.7829  1.3922 -0.0705
  178MOL0     H24543  10.304   0.641  10.637 -4.2183 -0.9765 -0.8234
  178MOL0     H24544  10.350   1.676  10.410  0.8017  1.1730  1.7854
  178MOL0     H24545  10.281   1.896  10.449  1.5773 -0.1549 -0.1117
  178MOL0     H24546   9.718   2.188  10.587  0.4036 -0.0796  0.7229
  178MOL0     H24547   9.700   2.396  10.712  0.2147  1.0840 -0.9084
  178MOL0     H24548  10.570   2.418   9.442  0.2114  0.7711  0.6367
  178MOL0     H24549  10.656   2.403   9.213  0.4999 -0.0030  1.1109
  178MOL0     H24550  10.880   2.504   8.799 -0.6335  0.5598 -1.6899
  178MOL0     H24551  10.959   2.446   8.578 -0.0903  0.5525 -0.4249
  178MOL0     H24552  11.187   2.092   8.573  0.8819  3.0438 -0.8526
  178MOL0     H24553  11.057   2.020   8.468  0.2378 -0.9444  2.2284
  178MOL0     H24554  11.163   2.133   8.285  1.0518 -1.1090 -0.4220
  178MOL0     H24555  11.286   2.042   8.374 -1.8266 -2.4548  4.6027
  178MOL0     H24556  11.238   2.348   8.382  0.2071 -0.1106  1.2107
  178MOL0     H24557  11.360   2.257   8.474  0.7523  0.2154 -0.4415
  178MOL0     H24558  11.458   2.183   8.232 -4.2645 -2.6234 -2.5397
  178MOL0     H24559  11.473   2.346   8.262 -0.7726  1.0686  2.1943
  178MOL0     H24560  11.200   2.402   7.960  1.7814  2.5662  0.3937
  178MOL0     H24561  10.953   2.033   8.672 -3.0106 -1.2305  0.7172
  178MOL0     H24562  10.860   1.953   8.871  1.0226  1.6306 -2.2726
  178MOL0     H24563  10.941   2.030   9.007  1.6494 -5.0315 -2.1731
  178MOL0     H24564  10.770   2.059   8.988  1.6796 -0.1278  2.2666
  179MOL0     O24565   3.838   9.814   6.970 -0.3675 -0.4911 -0.5292
  179MOL0     C24566   3.943   9.807   6.911 -0.4097  0.5462 -0.5734
  179MOL0     O24567   3.957   9.833   6.781  0.3210 -0.8517  0.2951
  179MOL0     C24568   3.861   9.910   6.713  0.1356 -0.8360  0.7114
  179MOL0     C24569   3.871  10.041   6.752  0.4247 -0.2026 -0.8007
  179MOL0     C24570   3.808  10.138   6.681 -0.3089 -0.2889  0.0706
  179MOL0     C24571   3.738  10.116   6.564  0.2248 -0.2249  1.0888
  179MOL0     O24572   3.694  10.233   6.496 -0.7340  0.5753  0.1543
  179MOL0     C24573   3.679  10.214   6.353 -1.2166 -0.4359  0.4912
  179MOL0     C24574   3.656  10.343   6.291  0.1580 -0.3082  0.6599
  179MOL0     C24575   3.633  10.321   6.134  0.5006  0.6737  0.5133
  179MOL0     C24576   3.757  10.280   6.050 -0.7595 -1.0345 -0.2300
  179MOL0     C24577   3.733  10.276   5.906 -0.0086  0.8052  0.0587
  179MOL0     C24578   3.864  10.228   5.848  0.0188 -0.1762 -0.2939
  179MOL0     C24579   3.855  10.197   5.693 -0.1059  0.3448  0.6897
  179MOL0     C24580   3.997  10.165   5.642  0.4319 -0.5701  0.3185
  179MOL0     N24581   4.035  10.023   5.659 -0.0521 -0.4832 -0.1557
  179MOL0     C24582   3.954   9.911   5.659  0.6703 -0.2215 -0.4948
  179MOL0     C24583   4.035   9.805   5.658 -0.1666  0.0598  0.4184
  179MOL0     C24584   4.001   9.661   5.687  0.2616  0.5355 -0.9446
  179MOL0     C24585   3.933   9.654   5.829 -0.4025  0.1769  0.1756
  179MOL0     C24586   3.843   9.531   5.846  0.2390  0.1537 -0.2677
  179MOL0     C24587   3.720   9.516   5.753  0.4055  0.7089 -0.1575
  179MOL0     O24588   3.616   9.608   5.778  0.2489  0.5917  0.3193
  179MOL0     C24589   3.576   9.638   5.902  0.9235 -0.5093 -0.2500
  179MOL0     C24590   3.559   9.535   5.995 -0.1803  0.2066  0.8188
  179MOL0     C24591   3.520   9.556   6.131  0.2811 -0.3459 -0.5614
  179MOL0     C24592   3.509   9.437   6.215  0.2470  0.0519 -0.5189
  179MOL0     C24593   3.493   9.682   6.179 -0.4266 -0.7747  0.1022
  179MOL0     C24594   3.454   9.714   6.321 -0.0851  0.4301  0.1966
  179MOL0     O24595   3.443   9.617   6.417 -0.3876  0.2696  0.1283
  179MOL0     C24596   3.391   9.661   6.535 -0.0419 -0.6162  0.5820
  179MOL0     C24597   3.251   9.654   6.560 -0.5298  0.0860  0.6106
  179MOL0     C24598   3.198   9.706   6.674 -0.4263 -0.4807 -0.0407
  179MOL0     C24599   3.282   9.755   6.783  0.4628  0.0867  0.8749
  179MOL0     O24600   3.239   9.803   6.903 -0.1083  1.0930  0.3068
  179MOL0     C24601   3.128   9.900   6.909 -0.6871  0.1048 -1.4191
  179MOL0     C24602   3.076   9.912   7.046 -0.1557 -0.5798  0.2056
  179MOL0     C24603   3.175   9.995   7.134 -0.2827  0.1484 -0.5156
  179MOL0     C24604   3.135   9.982   7.280  0.7399  0.7405 -0.2605
  179MOL0     C24605   3.233  10.065   7.370  0.6805 -0.1988  0.0877
  179MOL0     C24606   3.200  10.055   7.524 -0.2237  1.4040  0.5589
  179MOL0     C24607   3.270  10.166   7.597  0.5570 -0.2727  1.3431
  179MOL0     C24608   3.253  10.131   7.747 -0.4488  0.1405  0.8375
  179MOL0    Cl24609   3.283  10.290   7.819 -0.0747 -0.0661 -0.3491
  179MOL0     C24610   3.414   9.730   6.765 -0.4485  0.1146  0.3739
  179MOL0     C24611   3.470   9.701   6.641  0.4081  0.1501  0.5483
  179MOL0     O24612   3.434   9.834   6.338  0.1718 -0.2161  0.4622
  179MOL0     C24613   3.511   9.790   6.082  0.5985 -0.0299  0.4831
  179MOL0     C24614   3.554   9.762   5.949  0.0464  0.1694  0.4821
  179MOL0     N24615   4.169   9.859   5.668  0.2963 -0.5523 -0.4055
  179MOL0     N24616   4.162   9.982   5.667 -0.1516 -0.8473 -0.9719
  179MOL0     C24617   3.739   9.982   6.514  0.2408  0.0989 -1.3951
  179MOL0     C24618   3.800   9.880   6.594  1.7026 -0.1725 -0.0175
  179MOL0     C24619   4.062   9.752   6.972 -0.2380  0.6871 -0.0417
  179MOL0     C24620   4.177   9.825   6.955 -0.1165  0.7280  0.3952
  179MOL0     C24621   4.295   9.785   7.024  0.1589 -0.4322  0.3586
  179MOL0     C24622   4.285   9.684   7.121  0.1139 -0.1332 -0.7780
  179MOL0     O24623   4.394   9.653   7.199 -0.0137 -0.1080  0.4983
  179MOL0     C24624   4.459   9.533   7.158  0.7235  0.1291 -0.1541
  179MOL0     C24625   4.560   9.486   7.256 -0.2425  0.1891 -0.5252
  179MOL0     C24626   4.494   9.413   7.374  0.2474 -0.6675 -0.9763
  179MOL0     C24627   4.427   9.504   7.480  0.8297 -0.7141 -0.0866
  179MOL0     C24628   4.329   9.435   7.564  0.3827  1.0230 -0.7474
  179MOL0     C24629   4.243   9.398   7.647 -0.1234 -0.3391 -0.4831
  179MOL0     C24630   4.161   9.609   7.135  0.8710 -0.5305 -0.0249
  179MOL0     C24631   4.056   9.643   7.061  0.2022 -0.4423 -0.4552
  179MOL0     C24632   3.929   9.565   7.085 -0.1022 -0.0850  0.1761
  179MOL0     H24633   3.919  10.064   6.846  1.5222  3.0505 -2.0202
  179MOL0     H24634   3.815  10.242   6.710 -0.0746 -0.9867  2.8298
  179MOL0     H24635   3.591  10.151   6.336  0.8232 -3.1513 -0.9200
  179MOL0     H24636   3.770  10.175   6.307 -2.5164 -2.2355 -0.7046
  179MOL0     H24637   3.568  10.393   6.333 -0.2590  0.0896 -0.6298
  179MOL0     H24638   3.743  10.409   6.301  0.9834 -1.5480  1.9905
  179MOL0     H24639   3.578  10.229   6.113  0.6640  1.3252 -3.8968
  179MOL0     H24640   3.581  10.408   6.093 -0.5878  1.5361  3.4994
  179MOL0     H24641   3.835  10.354   6.073 -2.9088  0.9404  1.1762
  179MOL0     H24642   3.795  10.188   6.094  2.4099  0.3707  0.2647
  179MOL0     H24643   3.710  10.380   5.881 -2.4570  0.3939  0.2921
  179MOL0     H24644   3.653  10.204   5.885  2.8850 -2.0032 -2.5133
  179MOL0     H24645   3.949  10.295   5.866 -0.5031  0.1459  1.0978
  179MOL0     H24646   3.887  10.130   5.891 -1.1026  0.1108  1.0038
  179MOL0     H24647   3.812  10.279   5.634 -1.6817 -1.7056 -1.1954
  179MOL0     H24648   3.778  10.122   5.670 -1.1665  1.2055  1.3095
  179MOL0     H24649   4.000  10.186   5.534  0.4399 -1.8159  0.0578
  179MOL0     H24650   4.079  10.221   5.687  0.4580 -0.0013 -0.4261
  179MOL0     H24651   3.850   9.907   5.689  1.3189  1.5082  2.4363
  179MOL0     H24652   4.097   9.609   5.678  0.2906  0.4464 -0.1639
  179MOL0     H24653   3.933   9.633   5.605 -0.8595 -1.9798  0.7306
  179MOL0     H24654   4.015   9.652   5.901  1.3580  1.4175 -1.6762
  179MOL0     H24655   3.875   9.744   5.852  1.4923  1.6049 -0.4281
  179MOL0     H24656   3.896   9.437   5.831 -1.6437 -0.6949 -2.1962
  179MOL0     H24657   3.808   9.540   5.949 -0.8713  1.0878 -0.6996
  179MOL0     H24658   3.748   9.543   5.651 -1.7662  6.4409  0.3621
  179MOL0     H24659   3.690   9.411   5.752 -2.3570  1.4183 -0.1118
  179MOL0     H24660   3.579   9.433   5.964 -0.7855 -0.1786  1.6455
  179MOL0     H24661   3.563   9.428   6.310 -1.6994  1.3164  0.7832
  179MOL0     H24662   3.533   9.344   6.163  2.7117  0.4840 -0.2893
  179MOL0     H24663   3.404   9.422   6.242  0.2644  1.3182  0.3343
  179MOL0     H24664   3.186   9.626   6.478 -1.5569  0.6830  1.2042
  179MOL0     H24665   3.090   9.712   6.671 -0.5902 -2.7200 -1.8292
  179MOL0     H24666   3.172   9.990   6.866  0.3583 -0.4676 -1.5713
  179MOL0     H24667   3.049   9.867   6.839  1.2046  1.6681 -4.5271
  179MOL0     H24668   2.973   9.948   7.044 -0.7324 -2.1388  0.8404
  179MOL0     H24669   3.072   9.808   7.078  2.0514 -0.5764  0.6681
  179MOL0     H24670   3.158  10.098   7.103 -1.6314  0.5472  1.3729
  179MOL0     H24671   3.276   9.953   7.139 -1.2816 -2.4163  3.9959
  179MOL0     H24672   3.123   9.877   7.307  0.8693  1.5265  3.2985
  179MOL0     H24673   3.038  10.032   7.294  0.1469  1.3489 -4.9704
  179MOL0     H24674   3.327  10.017   7.342 -1.7503 -3.7212 -3.0165
  179MOL0     H24675   3.235  10.168   7.331  3.5604 -0.1008  0.2810
  179MOL0     H24676   3.221   9.952   7.553  1.0629  1.4273 -0.2498
  179MOL0     H24677   3.094  10.070   7.548 -1.3464 -0.4230 -2.6618
  179MOL0     H24678   3.223  10.263   7.580 -2.9251 -1.7506  1.6548
  179MOL0     H24679   3.375  10.175   7.565  0.5206  0.2523  1.3574
  179MOL0     H24680   3.322  10.058   7.790  0.1072  0.7147  0.9434
  179MOL0     H24681   3.150  10.110   7.774 -1.3867  0.0786 -2.3175
  179MOL0     H24682   3.489   9.753   6.839  0.5096  1.0703 -0.8507
  179MOL0     H24683   3.578   9.713   6.644  0.7354 -2.3712  0.9083
  179MOL0     H24684   3.502   9.896   6.103  2.9874  0.3758 -0.2845
  179MOL0     H24685   3.580   9.849   5.891 -4.1176  3.1429  2.5494
  179MOL0     H24686   3.685   9.964   6.422 -1.6850  0.5554 -0.4064
  179MOL0     H24687   3.789   9.779   6.554 -2.4481 -0.3026  0.9480
  179MOL0     H24688   4.186   9.891   6.869  0.5570 -1.4269 -1.3074
  179MOL0     H24689   4.384   9.844   7.004 -1.4144  2.7601  1.9419
  179MOL0     H24690   4.400   9.445   7.132  2.6876 -1.5024  0.6311
  179MOL0     H24691   4.513   9.559   7.066  0.1511 -0.2695 -0.6072
  179MOL0     H24692   4.633   9.560   7.291 -1.1733 -0.1780  2.5217
  179MOL0     H24693   4.626   9.420   7.199  3.5880  3.0142  0.2146
  179MOL0     H24694   4.416   9.351   7.329  0.7064 -0.7870 -1.6249
  179MOL0     H24695   4.571   9.360   7.431  0.5207 -0.1155 -0.8157
  179MOL0     H24696   4.375   9.587   7.431 -1.7067 -1.3329  1.4064
  179MOL0     H24697   4.510   9.552   7.533  2.0213 -1.4306 -1.2528
  179MOL0     H24698   4.168   9.384   7.722 -0.5254 -0.9655 -0.9940
  179MOL0     H24699   4.158   9.527   7.206  0.6618  1.1256  1.9818
  179MOL0     H24700   3.874   9.579   6.992 -0.5910  2.8560  0.7917
  179MOL0     H24701   3.942   9.458   7.104  0.1935  0.4540  3.5751
  179MOL0     H24702   3.869   9.602   7.169  1.7674  1.2742  0.9781
  180MOL0     O24703   1.348   2.668   6.187  0.1521 -0.5256 -0.8002
  180MOL0     C24704   1.297   2.666   6.300 -0.0993  0.1230 -0.6833
  180MOL0     O24705   1.365   2.623   6.410 -0.1157  0.0186 -0.2305
  180MOL0     C24706   1.488   2.558   6.390  1.6369  0.9285 -0.1273
  180MOL0     C24707   1.502   2.445   6.305 -0.1724 -0.0809 -0.0788
  180MOL0     C24708   1.620   2.367   6.316  0.2316  0.2551  0.7389
  180MOL0     C24709   1.724   2.405   6.394 -0.8058  0.4381  0.3002
  180MOL0     O24710   1.850   2.341   6.399  0.1794  0.2090  0.0529
  180MOL0     C24711   1.901   2.255   6.292  0.0642  0.1386  0.1474
  180MOL0     C24712   2.057   2.231   6.308  0.4914 -0.4894  1.3604
  180MOL0     C24713   2.126   2.232   6.165  0.0829 -1.1189 -0.0329
  180MOL0     C24714   2.149   2.377   6.124 -1.0771 -0.1665  0.6801
  180MOL0     C24715   2.235   2.375   5.992 -0.1134 -0.1586 -0.2609
  180MOL0     C24716   2.367   2.311   6.001 -0.7082  0.8861  0.3686
  180MOL0     C24717   2.375   2.216   5.882 -0.2832  0.2042  1.1719
  180MOL0     C24718   2.403   2.290   5.744 -0.1480 -0.6738 -0.4659
  180MOL0     N24719   2.469   2.223   5.639 -0.8795  0.0419 -0.1779
  180MOL0     C24720   2.489   2.088   5.618  0.3173 -0.0246 -0.5104
  180MOL0     C24721   2.557   2.074   5.505 -0.2195 -0.8440 -0.8433
  180MOL0     C24722   2.600   1.945   5.433 -0.4223 -0.5175 -0.1498
  180MOL0     C24723   2.534   1.940   5.296 -0.3104 -0.4599  1.0230
  180MOL0     C24724   2.589   1.818   5.224 -1.4237 -0.0647 -1.0022
  180MOL0     C24725   2.507   1.786   5.105  0.3508  0.2079  0.0582
  180MOL0     O24726   2.603   1.717   5.027 -0.6865 -0.0964 -0.1491
  180MOL0     C24727   2.575   1.708   4.902  0.8690 -0.4023 -0.6334
  180MOL0     C24728   2.586   1.818   4.815  0.2632  0.2592  0.4358
  180MOL0     C24729   2.556   1.797   4.682 -0.1360  0.0472 -0.7165
  180MOL0     C24730   2.586   1.910   4.586  0.2743  0.3524  0.7974
  180MOL0     C24731   2.519   1.668   4.623 -0.0288  0.1368  0.4178
  180MOL0     C24732   2.492   1.644   4.473  0.1648 -0.4394 -0.2980
  180MOL0     O24733   2.515   1.528   4.419  0.2467  0.8048  0.3121
  180MOL0     C24734   2.483   1.498   4.286  0.4861 -0.0700 -0.5569
  180MOL0     C24735   2.578   1.494   4.182  0.5488 -1.0092  0.4323
  180MOL0     C24736   2.540   1.438   4.056  0.3999 -0.0536 -0.3212
  180MOL0     C24737   2.410   1.407   4.028  0.8099 -0.2914  0.2088
  180MOL0     O24738   2.376   1.383   3.898 -0.1092 -0.4094 -0.7310
  180MOL0     C24739   2.285   1.276   3.852 -0.6094 -0.3337 -0.8695
  180MOL0     C24740   2.218   1.309   3.728 -0.0440  0.6756 -0.0158
  180MOL0     C24741   2.319   1.312   3.614  0.1540  0.4585 -0.2584
  180MOL0     C24742   2.237   1.347   3.497  0.0068  0.2456  0.1322
  180MOL0     C24743   2.324   1.360   3.365  0.2502 -0.4510  0.4133
  180MOL0     C24744   2.264   1.286   3.244  0.0848  0.1981  0.7202
  180MOL0     C24745   2.355   1.310   3.124 -0.3663 -0.1391  0.0803
  180MOL0     C24746   2.310   1.253   2.994 -0.0615  0.3251  0.0769
  180MOL0    Cl24747   2.133   1.283   2.970 -0.4875 -0.1147 -0.4283
  180MOL0     C24748   2.310   1.433   4.120  0.5890 -0.0202 -0.4821
  180MOL0     C24749   2.348   1.463   4.257  0.0788  0.3068 -0.4227
  180MOL0     O24750   2.462   1.740   4.398 -0.4650  0.1628 -0.2133
  180MOL0     C24751   2.511   1.561   4.715 -0.2380  0.2015 -0.2668
  180MOL0     C24752   2.534   1.584   4.851  0.1015  0.4918  0.0397
  180MOL0     N24753   2.591   2.200   5.460 -0.3769 -0.1847 -0.6022
  180MOL0     N24754   2.538   2.295   5.543  0.4944  0.6014  0.3369
  180MOL0     C24755   1.709   2.510   6.481  0.4740 -1.2575  0.4537
  180MOL0     C24756   1.587   2.589   6.478 -0.1763 -0.1014  0.3547
  180MOL0     C24757   1.155   2.690   6.308 -0.1709  0.1813  0.0581
  180MOL0     C24758   1.078   2.574   6.318  0.1900 -1.0603  0.6420
  180MOL0     C24759   0.937   2.587   6.320 -0.8236 -0.0638  0.2713
  180MOL0     C24760   0.877   2.714   6.290  0.1283  0.4775  0.1345
  180MOL0     O24761   0.744   2.729   6.287 -1.0425 -0.8151  0.3981
  180MOL0     C24762   0.684   2.850   6.344 -0.6280  0.1559  0.5027
  180MOL0     C24763   0.741   2.916   6.469  0.1800 -0.2852  0.2329
  180MOL0     C24764   0.751   2.811   6.580  0.7247 -0.3561  0.4034
  180MOL0     C24765   0.782   2.877   6.720  0.0729  0.1747  0.6015
  180MOL0     C24766   0.893   2.976   6.703 -0.1587  0.3968  0.8847
  180MOL0     C24767   0.990   3.048   6.711 -0.4605  0.7878  0.3154
  180MOL0     C24768   0.958   2.822   6.261 -0.3772  0.1708  0.1108
  180MOL0     C24769   1.104   2.817   6.276  0.1865  0.1193 -0.6173
  180MOL0     C24770   1.178   2.942   6.266  0.0919 -0.1350  0.4685
  180MOL0     H24771   1.418   2.419   6.241 -0.0431  3.2387 -1.8198
  180MOL0     H24772   1.628   2.282   6.249  1.2645  0.0756  1.0698
  180MOL0     H24773   1.874   2.299   6.196  2.0998 -0.8533 -0.9467
  180MOL0     H24774   1.861   2.154   6.300  1.0897 -0.2507  0.5733
  180MOL0     H24775   2.088   2.307   6.380 -0.9473  0.8938  0.5979
  180MOL0     H24776   2.060   2.127   6.342  2.4321 -1.6786 -1.9558
  180MOL0     H24777   2.222   2.180   6.163  0.4921 -0.3710 -0.2094
  180MOL0     H24778   2.065   2.180   6.090 -0.0916 -0.7576 -0.1414
  180MOL0     H24779   2.052   2.428   6.124 -2.3310 -2.1382  4.9073
  180MOL0     H24780   2.212   2.419   6.202  0.3098 -1.7400  0.4600
  180MOL0     H24781   2.241   2.477   5.952  1.9904 -0.0479  0.2412
  180MOL0     H24782   2.171   2.319   5.924  0.2783 -4.4375  2.5197
  180MOL0     H24783   2.444   2.386   5.983  2.6883 -1.9511  1.8292
  180MOL0     H24784   2.389   2.264   6.098  0.0238  2.7473  1.1652
  180MOL0     H24785   2.287   2.152   5.872  0.8045 -1.0440 -1.3675
  180MOL0     H24786   2.452   2.140   5.896  0.7372  0.8222 -0.6933
  180MOL0     H24787   2.304   2.304   5.699  0.8666  0.7090 -2.4213
  180MOL0     H24788   2.446   2.389   5.761  2.1210 -1.9784  2.1680
  180MOL0     H24789   2.438   2.012   5.677 -0.4832  0.7145 -0.2120
  180MOL0     H24790   2.551   1.868   5.494 -0.2678  1.0190  2.0284
  180MOL0     H24791   2.707   1.925   5.427 -0.2032  0.7741 -0.8375
  180MOL0     H24792   2.424   1.940   5.299 -0.3270  1.1734  1.4472
  180MOL0     H24793   2.555   2.028   5.235  0.5691 -1.4759 -0.1965
  180MOL0     H24794   2.692   1.846   5.197 -1.5419 -0.4396 -1.8736
  180MOL0     H24795   2.583   1.737   5.297  0.1691  2.3944  2.1112
  180MOL0     H24796   2.408   1.743   5.125  0.1333 -1.0513 -3.0401
  180MOL0     H24797   2.479   1.881   5.060 -4.0467  0.1230  2.1142
  180MOL0     H24798   2.636   1.909   4.846  2.2908 -0.8321  0.5115
  180MOL0     H24799   2.663   1.889   4.511  0.5881  1.3051  0.8373
  180MOL0     H24800   2.623   2.000   4.637  0.5052  0.0226  1.2167
  180MOL0     H24801   2.487   1.920   4.540  0.5483 -0.5791 -0.0163
  180MOL0     H24802   2.677   1.528   4.212  2.1663 -2.7248 -2.4859
  180MOL0     H24803   2.600   1.412   3.969  0.9650 -0.7452  0.2707
  180MOL0     H24804   2.353   1.191   3.837  1.8250  1.0741  1.3866
  180MOL0     H24805   2.207   1.249   3.924 -2.3732  6.0635  0.2604
  180MOL0     H24806   2.131   1.244   3.711  0.5567  0.0141 -0.5936
  180MOL0     H24807   2.182   1.412   3.734  1.9116  1.5509 -2.3443
  180MOL0     H24808   2.378   1.224   3.585  2.8278  2.2459 -0.6548
  180MOL0     H24809   2.389   1.389   3.647 -0.6575 -0.2740  3.7001
  180MOL0     H24810   2.182   1.441   3.512  1.3222  0.8467  1.3915
  180MOL0     H24811   2.158   1.272   3.487 -0.5545  0.6562  1.3050
  180MOL0     H24812   2.336   1.468   3.353 -0.8939 -0.3885 -0.2832
  180MOL0     H24813   2.424   1.317   3.367  0.1063 -0.7674  1.9723
  180MOL0     H24814   2.161   1.315   3.224 -0.5305 -2.1790  0.1686
  180MOL0     H24815   2.247   1.181   3.269 -1.3333 -0.7781 -3.5482
  180MOL0     H24816   2.448   1.267   3.161 -2.6300 -2.9570  3.1096
  180MOL0     H24817   2.361   1.419   3.112  2.8130 -0.3376 -0.9585
  180MOL0     H24818   2.322   1.146   3.013  0.7000  0.4549  0.3583
  180MOL0     H24819   2.366   1.287   2.907 -0.8508 -2.0090 -1.4591
  180MOL0     H24820   2.203   1.423   4.106  0.3075  1.1769  0.6600
  180MOL0     H24821   2.274   1.495   4.330 -0.5769  1.6372 -1.6331
  180MOL0     H24822   2.488   1.464   4.673 -0.4802 -0.8458  2.0873
  180MOL0     H24823   2.516   1.504   4.921 -3.0293 -0.4929 -1.6809
  180MOL0     H24824   1.790   2.535   6.548  0.7896 -0.0423 -0.3539
  180MOL0     H24825   1.570   2.656   6.562  1.4954  2.5646 -1.2539
  180MOL0     H24826   1.117   2.473   6.320  0.5394 -0.9159  1.2917
  180MOL0     H24827   0.870   2.502   6.335 -1.4319  0.0409 -1.6589
  180MOL0     H24828   0.688   2.928   6.267  1.5469  1.3083  1.6757
  180MOL0     H24829   0.579   2.833   6.366 -0.5791 -2.3228 -0.7666
  180MOL0     H24830   0.671   2.996   6.495  0.3087 -0.5738  1.5445
  180MOL0     H24831   0.841   2.956   6.449  0.2816 -0.7356 -0.1847
  180MOL0     H24832   0.657   2.756   6.591  0.4195  0.0090 -0.2816
  180MOL0     H24833   0.836   2.749   6.549  0.0140  0.4878 -3.8325
  180MOL0     H24834   0.822   2.802   6.789  4.2075  1.0162 -0.6253
  180MOL0     H24835   0.693   2.929   6.757  0.1958  0.7004  0.1712
  180MOL0     H24836   1.075   3.113   6.710  3.1689 -3.4631 -1.2332
  180MOL0     H24837   0.909   2.915   6.237 -0.3291 -0.0770 -1.0405
  180MOL0     H24838   1.128   3.015   6.330  0.6998  0.4774  0.2670
  180MOL0     H24839   1.280   2.933   6.304  1.2043  1.7689 -1.7760
  180MOL0     H24840   1.172   2.987   6.166 -2.3308  2.8452  1.7557
  181MOL0     O24841   1.327   4.324   6.800  0.6691 -0.1477  0.0261
  181MOL0     C24842   1.278   4.302   6.916  0.2510 -0.7294 -0.2627
  181MOL0     O24843   1.291   4.399   7.019  1.3439  0.3654 -0.0631
  181MOL0     C24844   1.393   4.483   7.004  0.4169  0.8906  0.5949
  181MOL0     C24845   1.513   4.430   7.046 -0.1044  0.2800 -1.2600
  181MOL0     C24846   1.632   4.505   7.037 -1.0914  0.8073 -0.1985
  181MOL0     C24847   1.627   4.634   6.973 -0.2658  0.4874  0.2006
  181MOL0     O24848   1.738   4.709   6.950 -0.0524 -0.3141  0.0008
  181MOL0     C24849   1.863   4.680   7.022  0.5623  0.0229  0.3128
  181MOL0     C24850   1.959   4.795   7.005  0.4218 -0.2238  1.1165
  181MOL0     C24851   2.074   4.750   6.915 -0.1367  0.4092  0.8387
  181MOL0     C24852   2.168   4.866   6.858  0.3801 -0.2198 -0.7799
  181MOL0     C24853   2.265   4.930   6.960 -0.8976 -0.4351 -0.3516
  181MOL0     C24854   2.318   5.065   6.905  0.0679 -0.4809 -0.3544
  181MOL0     C24855   2.406   5.157   6.998 -0.6779 -0.3915  0.6504
  181MOL0     C24856   2.434   5.289   6.939 -0.4415  0.5267  0.3164
  181MOL0     N24857   2.449   5.385   7.045 -0.1538  0.4037  0.0545
  181MOL0     C24858   2.550   5.465   7.073  0.3358  0.4798  0.9600
  181MOL0     C24859   2.513   5.533   7.177  0.5253  0.5351  0.8293
  181MOL0     C24860   2.591   5.633   7.258 -1.6118 -0.5322 -1.4132
  181MOL0     C24861   2.748   5.604   7.259 -0.6178  0.1834  0.2008
  181MOL0     C24862   2.817   5.690   7.374 -0.1342  0.3079  0.1312
  181MOL0     C24863   2.791   5.643   7.516 -1.2927  1.0273  0.5660
  181MOL0     O24864   2.808   5.756   7.600 -0.2955 -0.2345 -0.8087
  181MOL0     C24865   2.770   5.746   7.732 -0.4168  0.5124  0.3407
  181MOL0     C24866   2.725   5.627   7.797  0.1265 -0.1117 -0.2428
  181MOL0     C24867   2.680   5.629   7.933 -0.6068  0.1224 -0.9345
  181MOL0     C24868   2.636   5.492   7.993  0.0680  0.2954 -1.2651
  181MOL0     C24869   2.679   5.757   8.000 -0.7189  0.0930  0.0848
  181MOL0     C24870   2.644   5.764   8.144  0.0196 -0.9040  0.3921
  181MOL0     O24871   2.567   5.674   8.203 -0.3468  0.6895 -0.4513
  181MOL0     C24872   2.545   5.694   8.339  0.4565  0.5109  0.6427
  181MOL0     C24873   2.642   5.681   8.441  0.1438 -0.1276  0.3874
  181MOL0     C24874   2.592   5.701   8.573  0.8092  0.5196  0.8071
  181MOL0     C24875   2.456   5.721   8.610  0.3195  0.2445  0.3326
  181MOL0     O24876   2.427   5.746   8.738 -0.3641  0.0697 -0.6696
  181MOL0     C24877   2.365   5.642   8.813 -0.5557 -0.6945  0.1550
  181MOL0     C24878   2.219   5.683   8.817  0.1504 -0.6874 -0.3061
  181MOL0     C24879   2.127   5.561   8.834 -0.1216 -0.5219 -0.0810
  181MOL0     C24880   1.979   5.589   8.841  1.5619 -0.6219 -0.2004
  181MOL0     C24881   1.898   5.466   8.877  0.5292  0.0237  0.0259
  181MOL0     C24882   1.733   5.469   8.851 -0.8034 -0.4043  0.0569
  181MOL0     C24883   1.656   5.340   8.796  0.0114  0.4641  0.1973
  181MOL0     C24884   1.727   5.294   8.671 -0.3463 -1.0471 -0.0947
  181MOL0    Cl24885   1.609   5.177   8.587  0.4245 -0.1060  0.1447
  181MOL0     C24886   2.371   5.732   8.504 -1.2018  0.6149  0.1578
  181MOL0     C24887   2.417   5.724   8.374 -0.6325  0.7768  0.1159
  181MOL0     O24888   2.679   5.875   8.199  0.2234 -0.1956 -0.3188
  181MOL0     C24889   2.713   5.878   7.933 -0.6934 -0.0898  0.8259
  181MOL0     C24890   2.766   5.861   7.804  0.0952 -0.0087 -0.4054
  181MOL0     N24891   2.383   5.510   7.212 -0.0908 -0.0620  0.4666
  181MOL0     N24892   2.341   5.416   7.124 -0.3885  0.0448  0.3082
  181MOL0     C24893   1.506   4.681   6.928  0.1868  0.0620  0.0413
  181MOL0     C24894   1.382   4.603   6.941 -0.1841 -0.3946 -0.2352
  181MOL0     C24895   1.216   4.170   6.932 -0.6326 -0.9228 -0.1930
  181MOL0     C24896   1.297   4.069   6.990  0.0472  0.1233 -0.0167
  181MOL0     C24897   1.250   3.949   7.023 -0.1436 -0.2207 -0.4610
  181MOL0     C24898   1.116   3.922   7.017  0.6528 -0.0467 -0.4829
  181MOL0     O24899   1.065   3.809   7.064  0.6309 -0.0088  0.2342
  181MOL0     C24900   0.952   3.815   7.145 -0.2484 -0.1505 -1.0755
  181MOL0     C24901   0.847   3.699   7.122  0.0635 -1.1041  0.2760
  181MOL0     C24902   0.714   3.708   7.204  0.3559 -0.0042 -0.3076
  181MOL0     C24903   0.611   3.605   7.148  0.0285  1.3256  0.0718
  181MOL0     C24904   0.653   3.470   7.174 -0.4119  0.0232  0.7548
  181MOL0     C24905   0.674   3.347   7.190  0.2883 -0.2726  0.4691
  181MOL0     C24906   1.031   4.012   6.954 -0.5444 -0.2846 -0.1228
  181MOL0     C24907   1.080   4.143   6.914 -0.2568 -1.1250 -0.5297
  181MOL0     C24908   0.986   4.248   6.866  0.2781 -0.9279 -0.2241
  181MOL0     H24909   1.522   4.325   7.074  0.8808  0.8308  0.5992
  181MOL0     H24910   1.732   4.480   7.069 -1.2246  1.4803  0.7768
  181MOL0     H24911   1.911   4.589   6.985  2.3603  1.5001 -1.2304
  181MOL0     H24912   1.853   4.662   7.130  0.6332 -0.1189  0.2959
  181MOL0     H24913   1.908   4.885   6.971  4.1538  1.2004 -1.3544
  181MOL0     H24914   2.002   4.827   7.100 -2.3873  1.1627  2.0420
  181MOL0     H24915   2.126   4.666   6.962 -3.4910 -1.6076  1.2539
  181MOL0     H24916   2.027   4.711   6.824 -0.2202 -1.0542  1.4952
  181MOL0     H24917   2.220   4.835   6.766  0.6289 -0.6061 -0.5116
  181MOL0     H24918   2.094   4.944   6.839  0.3877  0.0017  0.0513
  181MOL0     H24919   2.350   4.864   6.982  1.2652  2.0091 -0.8346
  181MOL0     H24920   2.219   4.952   7.056  1.6998 -1.8191  1.3431
  181MOL0     H24921   2.396   5.042   6.832  0.7973 -2.2479  0.8894
  181MOL0     H24922   2.239   5.129   6.865  0.2177 -0.9324 -1.4027
  181MOL0     H24923   2.501   5.104   7.007  1.7073  3.1617 -1.2052
  181MOL0     H24924   2.340   5.154   7.086 -4.5233 -1.1077 -1.9867
  181MOL0     H24925   2.526   5.285   6.880  1.3767 -0.1182  2.9978
  181MOL0     H24926   2.351   5.317   6.874 -1.7949 -2.0142  0.8067
  181MOL0     H24927   2.648   5.469   7.027  0.5685  1.8367  1.5447
  181MOL0     H24928   2.565   5.643   7.364  1.6948  1.9128 -0.6785
  181MOL0     H24929   2.570   5.735   7.225 -1.0026 -0.4923 -1.6893
  181MOL0     H24930   2.770   5.497   7.265  0.5590  0.3462 -0.8958
  181MOL0     H24931   2.787   5.641   7.164 -1.9923  3.9166  0.9321
  181MOL0     H24932   2.925   5.697   7.359 -0.3471  2.0697 -0.8502
  181MOL0     H24933   2.788   5.794   7.361  2.0590  0.6137 -3.4636
  181MOL0     H24934   2.690   5.600   7.518 -1.3972  1.2813  2.4826
  181MOL0     H24935   2.859   5.562   7.541 -1.3761  1.0350  0.8170
  181MOL0     H24936   2.717   5.533   7.744 -3.2613 -0.4951  0.7561
  181MOL0     H24937   2.703   5.459   8.073  0.2611  1.6106 -0.8605
  181MOL0     H24938   2.644   5.424   7.907  0.9446  1.0796 -1.8334
  181MOL0     H24939   2.535   5.514   8.028 -0.7789 -3.6323 -0.7984
  181MOL0     H24940   2.739   5.651   8.405 -0.7981  0.6017 -3.2205
  181MOL0     H24941   2.657   5.699   8.660 -2.1992  2.5753  3.3132
  181MOL0     H24942   2.371   5.545   8.762  1.3336 -0.0003 -1.0526
  181MOL0     H24943   2.401   5.651   8.916 -0.3599 -0.8077  0.0962
  181MOL0     H24944   2.202   5.752   8.900  0.6841 -0.9290  0.0074
  181MOL0     H24945   2.194   5.739   8.726  0.0124 -2.5426 -1.4718
  181MOL0     H24946   2.162   5.519   8.929  3.1098  2.0026  0.0266
  181MOL0     H24947   2.135   5.497   8.746 -1.2476  3.1049 -3.0609
  181MOL0     H24948   1.950   5.611   8.738 -0.4175 -2.5455 -0.1106
  181MOL0     H24949   1.946   5.670   8.908 -0.8292  0.8945 -2.9664
  181MOL0     H24950   1.939   5.377   8.829 -1.8939 -0.9813 -0.3258
  181MOL0     H24951   1.918   5.449   8.984  2.5904 -4.7879 -0.8580
  181MOL0     H24952   1.718   5.555   8.784 -2.5360 -0.6740  0.0484
  181MOL0     H24953   1.700   5.483   8.954 -1.2759 -1.5318  0.0684
  181MOL0     H24954   1.552   5.366   8.773 -0.0587  0.2830  0.3035
  181MOL0     H24955   1.653   5.267   8.877  0.2156  0.3708  0.1209
  181MOL0     H24956   1.811   5.232   8.703 -0.0139 -0.9138 -0.6776
  181MOL0     H24957   1.770   5.373   8.607  0.7000 -1.6474 -0.1632
  181MOL0     H24958   2.274   5.779   8.510 -2.3507 -1.2146 -2.2573
  181MOL0     H24959   2.368   5.767   8.287 -2.1432  2.0702  1.5320
  181MOL0     H24960   2.722   5.976   7.980  3.8009  0.7769 -1.2723
  181MOL0     H24961   2.794   5.950   7.749 -1.5031 -0.6571 -2.4072
  181MOL0     H24962   1.492   4.781   6.888  2.3856  1.7602  3.1511
  181MOL0     H24963   1.288   4.649   6.913  1.0669  2.3990 -0.2318
  181MOL0     H24964   1.397   4.084   7.028 -1.3203  0.5387  3.9522
  181MOL0     H24965   1.315   3.891   7.088 -0.7609 -0.0540  0.3155
  181MOL0     H24966   0.989   3.813   7.248 -0.5549  1.9703 -0.8757
  181MOL0     H24967   0.903   3.913   7.136 -0.0265  0.0053 -0.6372
  181MOL0     H24968   0.891   3.601   7.141  1.8014 -0.7950 -1.8175
  181MOL0     H24969   0.818   3.704   7.017 -2.1917  2.0741  0.8838
  181MOL0     H24970   0.735   3.676   7.307 -1.6161 -2.1056 -0.4736
  181MOL0     H24971   0.670   3.808   7.211 -0.7220 -0.4049 -1.0378
  181MOL0     H24972   0.603   3.621   7.040 -0.8720  2.2295  0.2591
  181MOL0     H24973   0.515   3.617   7.199 -0.3816 -2.3039  0.3975
  181MOL0     H24974   0.707   3.246   7.196  1.7359  0.1625  0.2151
  181MOL0     H24975   0.927   3.987   6.939 -0.1937 -1.5263 -0.6482
  181MOL0     H24976   0.998   4.263   6.758  0.8843  1.1146  0.0871
  181MOL0     H24977   0.887   4.210   6.891 -0.0294 -0.1279 -0.2136
  181MOL0     H24978   1.017   4.336   6.923 -1.9804 -0.9358  1.1283
  182MOL0     O24979   3.500   2.240   7.852  0.3450 -0.2470  0.2002
  182MOL0     C24980   3.533   2.182   7.957  0.0657  1.0128 -0.2443
  182MOL0     O24981   3.635   2.217   8.043  0.5272 -0.7552 -0.6715
  182MOL0     C24982   3.714   2.331   8.028 -0.4398 -0.2600  1.1137
  182MOL0     C24983   3.812   2.339   8.123  0.4052 -0.3161  0.9593
  182MOL0     C24984   3.895   2.448   8.121  0.2288  0.4846 -0.2549
  182MOL0     C24985   3.884   2.553   8.019  0.0851  0.7862  0.6669
  182MOL0     O24986   3.983   2.644   7.995  0.4884 -0.1702  0.1065
  182MOL0     C24987   4.103   2.647   8.074 -0.4785  0.5541 -0.4529
  182MOL0     C24988   4.209   2.746   8.018  0.2430 -0.3757  0.0835
  182MOL0     C24989   4.169   2.893   8.029 -0.0643  0.1953  0.9093
  182MOL0     C24990   4.289   2.978   7.979  1.0971  0.1407 -0.6165
  182MOL0     C24991   4.268   3.123   8.028 -0.0981  0.4124 -0.1621
  182MOL0     C24992   4.157   3.194   7.956  0.2650 -0.5440 -1.2401
  182MOL0     C24993   4.154   3.346   7.964  0.6139 -0.2786 -0.5570
  182MOL0     C24994   4.127   3.388   8.110  0.1267  0.0715 -0.8166
  182MOL0     N24995   4.000   3.333   8.155  0.1678  0.7005 -0.1046
  182MOL0     C24996   3.968   3.264   8.275 -0.1765 -0.4211  0.2534
  182MOL0     C24997   3.829   3.241   8.255 -0.4677 -0.6651  1.4893
  182MOL0     C24998   3.752   3.160   8.349  1.2638 -0.7158 -0.5357
  182MOL0     C24999   3.775   3.013   8.355 -0.9221  0.3450  0.0273
  182MOL0     C25000   3.739   2.921   8.231 -0.2331 -0.3741  0.2609
  182MOL0     C25001   3.749   2.781   8.260  0.0241  1.0513 -0.3353
  182MOL0     O25002   3.676   2.752   8.384 -0.5965  0.2456  0.9035
  182MOL0     C25003   3.674   2.619   8.423  0.5494 -0.0849  0.0864
  182MOL0     C25004   3.575   2.546   8.352 -0.2557  0.4803 -0.0134
  182MOL0     C25005   3.553   2.415   8.383 -0.3362  0.1015  0.7265
  182MOL0     C25006   3.438   2.341   8.318 -0.5965  0.1951  0.0549
  182MOL0     C25007   3.621   2.357   8.489 -0.8904  0.2952 -0.4939
  182MOL0     C25008   3.602   2.216   8.516  0.0599 -0.2952 -0.8059
  182MOL0     O25009   3.569   2.187   8.640  0.4831  0.3729 -0.3859
  182MOL0     C25010   3.521   2.059   8.680  0.2721  0.3330  0.3534
  182MOL0     C25011   3.400   2.009   8.624 -0.5373 -0.9937  0.7897
  182MOL0     C25012   3.333   1.894   8.664 -0.8184  0.2641 -0.4204
  182MOL0     C25013   3.388   1.815   8.768  0.4120 -0.5050  0.7719
  182MOL0     O25014   3.317   1.702   8.801  0.0557  0.0421  0.5510
  182MOL0     C25015   3.365   1.638   8.922 -0.2788  0.0556 -0.7242
  182MOL0     C25016   3.261   1.518   8.962 -0.4699  0.1462 -0.9578
  182MOL0     C25017   3.289   1.386   8.881 -0.3138  0.5037 -0.8771
  182MOL0     C25018   3.228   1.393   8.740 -0.4350 -0.4852  0.4449
  182MOL0     C25019   3.264   1.268   8.659  0.0991  0.2080  0.3626
  182MOL0     C25020   3.207   1.261   8.525 -0.8564  0.6992  1.0875
  182MOL0     C25021   3.249   1.141   8.445 -0.3861  0.4522 -0.5973
  182MOL0     C25022   3.147   1.021   8.481 -0.9172  0.3547 -0.0021
  182MOL0    Cl25023   3.208   0.902   8.599 -0.2659  0.1693 -0.5943
  182MOL0     C25024   3.500   1.865   8.832 -0.7546  0.0454 -0.6243
  182MOL0     C25025   3.568   1.989   8.790  0.0272  0.0975 -0.7518
  182MOL0     O25026   3.613   2.133   8.426 -1.1823  0.7779 -0.7376
  182MOL0     C25027   3.722   2.429   8.556 -1.2247 -0.8280 -0.5819
  182MOL0     C25028   3.743   2.564   8.528 -0.0769 -0.2667 -0.5472
  182MOL0     N25029   3.779   3.299   8.141 -0.5892  0.2244  0.4373
  182MOL0     N25030   3.883   3.362   8.083  0.1251  0.1146 -0.5298
  182MOL0     C25031   3.780   2.549   7.926 -0.1167 -0.4825  0.5107
  182MOL0     C25032   3.688   2.443   7.940  0.0813  0.4636 -0.9198
  182MOL0     C25033   3.446   2.079   8.015 -0.2131 -0.3478  0.2573
  182MOL0     C25034   3.473   2.033   8.152  0.7158 -0.5696  0.6213
  182MOL0     C25035   3.381   1.949   8.219 -0.6500 -0.9044 -0.6360
  182MOL0     C25036   3.259   1.921   8.160  0.3954  0.4459 -0.6382
  182MOL0     O25037   3.154   1.857   8.214  0.0595  0.2008 -0.1089
  182MOL0     C25038   3.161   1.797   8.344  0.2482 -0.5752  0.2073
  182MOL0     C25039   3.242   1.661   8.348  0.7445 -0.2597  0.8781
  182MOL0     C25040   3.163   1.560   8.251  0.3707  0.1343 -0.8996
  182MOL0     C25041   3.027   1.514   8.307 -0.2084  0.6903  1.0056
  182MOL0     C25042   2.981   1.395   8.244  0.2792  1.5160 -0.2390
  182MOL0     C25043   2.945   1.312   8.154  0.9108  0.0647 -0.6867
  182MOL0     C25044   3.241   1.950   8.024  0.0385 -0.3327  0.0422
  182MOL0     C25045   3.337   2.019   7.947  0.0408 -0.6510  0.2741
  182MOL0     C25046   3.300   2.045   7.802 -0.0487  0.1508 -0.2627
  182MOL0     H25047   3.824   2.264   8.201 -1.1158 -1.1796  0.4139
  182MOL0     H25048   3.974   2.458   8.195 -2.3835  1.4096  2.5803
  182MOL0     H25049   4.158   2.553   8.068  0.0529  0.7992  0.4347
  182MOL0     H25050   4.074   2.660   8.178 -1.9940 -1.9478 -0.4652
  182MOL0     H25051   4.302   2.731   8.074  0.8358 -1.0505 -1.0550
  182MOL0     H25052   4.229   2.719   7.914 -1.5228 -0.8708 -0.1505
  182MOL0     H25053   4.079   2.914   7.970  0.4751  0.0403  0.0154
  182MOL0     H25054   4.141   2.912   8.133 -1.6677  0.7090  0.4143
  182MOL0     H25055   4.383   2.948   8.025  1.0477 -0.2656 -0.7807
  182MOL0     H25056   4.300   2.974   7.870  1.0218  2.4007 -0.7681
  182MOL0     H25057   4.352   3.186   7.997 -1.0242  1.2031 -1.1192
  182MOL0     H25058   4.250   3.125   8.136  0.0284  1.8333 -0.1533
  182MOL0     H25059   4.166   3.180   7.848 -0.7959  0.1566 -1.4283
  182MOL0     H25060   4.063   3.153   7.993 -0.2768  1.0446 -0.7765
  182MOL0     H25061   4.072   3.387   7.903  0.1065  2.5570  1.8014
  182MOL0     H25062   4.243   3.394   7.923  0.2095 -0.9515 -2.3185
  182MOL0     H25063   4.211   3.375   8.180 -0.7849  4.4638  1.4535
  182MOL0     H25064   4.124   3.497   8.112  1.2778  0.1846 -2.5815
  182MOL0     H25065   4.026   3.229   8.359  4.1056  0.0095 -2.1947
  182MOL0     H25066   3.646   3.186   8.344  1.1226 -1.0355  0.4960
  182MOL0     H25067   3.784   3.197   8.447  1.9391  0.6985 -1.2674
  182MOL0     H25068   3.881   2.991   8.372 -0.0266  4.8742  2.0385
  182MOL0     H25069   3.714   2.987   8.442  0.6792  0.3480  1.1932
  182MOL0     H25070   3.633   2.924   8.205 -1.0091 -4.4315  2.1577
  182MOL0     H25071   3.795   2.950   8.141  0.5474  2.7558  1.6186
  182MOL0     H25072   3.691   2.726   8.186  0.3312 -0.6775  0.6409
  182MOL0     H25073   3.853   2.748   8.273 -0.2302  1.0436  2.1171
  182MOL0     H25074   3.525   2.595   8.269 -0.1171  0.9102  0.1582
  182MOL0     H25075   3.355   2.411   8.307  1.3818  2.2718 -4.0335
  182MOL0     H25076   3.406   2.246   8.362 -3.6870  1.8543  1.7710
  182MOL0     H25077   3.457   2.319   8.213 -3.5980 -0.1562 -0.5055
  182MOL0     H25078   3.370   2.057   8.531  4.5397  0.6998 -0.2797
  182MOL0     H25079   3.241   1.855   8.621 -0.7008  1.3977 -1.7826
  182MOL0     H25080   3.462   1.591   8.904  1.5305  2.9489  0.7550
  182MOL0     H25081   3.375   1.706   9.008  0.9010 -0.7109 -0.2444
  182MOL0     H25082   3.263   1.500   9.070 -1.0144  0.8358 -0.8177
  182MOL0     H25083   3.161   1.555   8.935  0.0906 -0.6183 -4.5610
  182MOL0     H25084   3.245   1.296   8.925 -1.0235  0.7160 -1.1335
  182MOL0     H25085   3.396   1.366   8.871 -0.0424  1.7109 -0.6096
  182MOL0     H25086   3.263   1.477   8.680 -1.4542 -0.5868 -0.3177
  182MOL0     H25087   3.120   1.403   8.756 -0.3664 -0.8969  1.2291
  182MOL0     H25088   3.374   1.273   8.654  0.2677  1.2304  3.3077
  182MOL0     H25089   3.249   1.180   8.723  0.4464 -1.4088 -1.6562
  182MOL0     H25090   3.245   1.351   8.475  1.4994 -1.6178 -1.6625
  182MOL0     H25091   3.099   1.265   8.542 -1.7528 -4.4319 -1.5886
  182MOL0     H25092   3.356   1.116   8.447 -0.2716  0.6715 -2.2606
  182MOL0     H25093   3.233   1.156   8.338  1.9531 -3.6768 -1.7611
  182MOL0     H25094   3.153   0.976   8.381  0.4834 -0.2904  0.3390
  182MOL0     H25095   3.042   1.048   8.492 -1.4723 -1.6648  0.0201
  182MOL0     H25096   3.544   1.807   8.912 -0.9203  1.5989  0.6596
  182MOL0     H25097   3.654   2.016   8.851  0.7573 -1.7739 -0.8940
  182MOL0     H25098   3.780   2.393   8.640 -1.5917  2.3731  1.2314
  182MOL0     H25099   3.804   2.623   8.596 -0.7088 -0.2199 -0.0078
  182MOL0     H25100   3.777   2.631   7.855 -0.1791  0.0269  1.0931
  182MOL0     H25101   3.602   2.446   7.874 -0.2680  0.7805 -0.4569
  182MOL0     H25102   3.548   2.084   8.211 -0.7166  3.1034 -0.4457
  182MOL0     H25103   3.390   1.910   8.320  0.7640 -0.9348 -0.7548
  182MOL0     H25104   3.203   1.868   8.416  2.4391 -0.5931 -0.9548
  182MOL0     H25105   3.058   1.776   8.376 -0.7901 -0.1765 -2.5642
  182MOL0     H25106   3.229   1.608   8.442 -2.1484 -0.8529  0.2257
  182MOL0     H25107   3.346   1.687   8.323  0.0975  4.4390  2.1142
  182MOL0     H25108   3.159   1.600   8.150  1.2534  1.4672 -0.4313
  182MOL0     H25109   3.225   1.471   8.237 -1.4099 -0.9376 -2.4080
  182MOL0     H25110   2.946   1.584   8.283 -0.1860  0.4691  0.2497
  182MOL0     H25111   3.023   1.483   8.412 -3.4342 -0.2033  0.7480
  182MOL0     H25112   2.898   1.261   8.073  1.4581  1.3519 -1.8442
  182MOL0     H25113   3.158   1.911   7.966  0.4528 -0.3448 -0.5548
  182MOL0     H25114   3.197   2.082   7.792 -0.2372 -0.5924 -1.2256
  182MOL0     H25115   3.357   2.108   7.732 -3.1072  0.4497 -2.7648
  182MOL0     H25116   3.292   1.948   7.753 -1.1140  0.0326  0.1105
  183MOL0     O25117  11.060  11.579   1.723  0.4224  0.2583 -0.5047
  183MOL0     C25118  11.145  11.558   1.810  0.6541  0.5307 -0.6116
  183MOL0     O25119  11.123  11.472   1.908 -0.6691  0.0241  0.1387
  183MOL0     C25120  11.090  11.341   1.871 -0.4075 -1.2104 -0.1036
  183MOL0     C25121  10.987  11.271   1.934  0.0167  0.0142  0.4805
  183MOL0     C25122  10.954  11.145   1.897 -0.5440  0.9333  0.7079
  183MOL0     C25123  11.029  11.070   1.804 -0.1729  0.7035 -0.6989
  183MOL0     O25124  11.006  10.932   1.783 -0.5048  0.0243 -0.3996
  183MOL0     C25125  10.947  10.861   1.892  0.3513  0.1473 -0.0746
  183MOL0     C25126  10.976  10.717   1.873  0.5460  0.8669 -0.4253
  183MOL0     C25127  10.891  10.628   1.978 -0.4248  0.7184  1.6480
  183MOL0     C25128  10.881  10.472   1.938  0.4174  0.6304 -0.3477
  183MOL0     C25129  10.808  10.387   2.049  0.1430 -0.6764  0.2841
  183MOL0     C25130  10.889  10.302   2.144  1.2107  0.1887 -0.1765
  183MOL0     C25131  10.989  10.206   2.082  0.2704 -0.5197  0.3345
  183MOL0     C25132  11.087  10.162   2.189  0.7274  0.3603 -0.2148
  183MOL0     N25133  11.029  10.053   2.268  0.4174 -0.1303 -0.1213
  183MOL0     C25134  10.960  10.075   2.382  0.5171  0.4071 -0.0314
  183MOL0     C25135  10.939   9.952   2.441 -0.5286 -0.9687 -0.2500
  183MOL0     C25136  10.871   9.907   2.571  0.4605  0.0152  0.8924
  183MOL0     C25137  10.803   9.777   2.568 -0.6726  0.8594 -0.0887
  183MOL0     C25138  10.676   9.791   2.485  1.2612  0.2522  0.1114
  183MOL0     C25139  10.584   9.669   2.469  0.1447  0.5509  0.0009
  183MOL0     O25140  10.520   9.622   2.588 -0.1881 -0.3616 -0.1417
  183MOL0     C25141  10.452   9.505   2.581  0.1560 -0.9296 -0.7272
  183MOL0     C25142  10.428   9.430   2.467 -0.4250 -0.9035  1.0996
  183MOL0     C25143  10.382   9.296   2.474  0.9368  0.2942  0.4876
  183MOL0     C25144  10.375   9.223   2.341 -0.0398 -0.2735  0.2363
  183MOL0     C25145  10.355   9.240   2.606  0.2523  0.7399 -0.0062
  183MOL0     C25146  10.318   9.094   2.624  0.4207 -1.0667  0.2538
  183MOL0     O25147  10.335   9.049   2.746 -0.5039  0.5336  0.1855
  183MOL0     C25148  10.363   8.919   2.791  0.7972 -0.7329  0.8133
  183MOL0     C25149  10.328   8.798   2.722 -0.4502  0.9232 -1.1624
  183MOL0     C25150  10.368   8.677   2.775 -0.9641 -0.0498 -0.6661
  183MOL0     C25151  10.439   8.671   2.900 -0.3341  0.2569 -0.2838
  183MOL0     O25152  10.473   8.546   2.948 -0.9821 -0.3105 -0.1326
  183MOL0     C25153  10.470   8.524   3.094  0.4193  0.0478  0.4077
  183MOL0     C25154  10.508   8.386   3.119 -0.2675  0.3865  0.5006
  183MOL0     C25155  10.493   8.355   3.263 -0.2726 -0.2651  0.3882
  183MOL0     C25156  10.472   8.204   3.265  0.6873 -0.1203 -0.3364
  183MOL0     C25157  10.414   8.164   3.407 -0.0942  0.6130 -0.3263
  183MOL0     C25158  10.476   8.033   3.458 -1.1084  0.3957 -0.2205
  183MOL0     C25159  10.606   8.042   3.538 -0.2957 -1.0746 -0.3916
  183MOL0     C25160  10.739   8.071   3.450  0.5837  0.2037 -0.0514
  183MOL0    Cl25161  10.882   8.060   3.568 -0.0835 -0.4208  0.1118
  183MOL0     C25162  10.470   8.789   2.966  0.2499  1.3087  0.0611
  183MOL0     C25163  10.435   8.912   2.908  0.1003 -0.2960 -0.0419
  183MOL0     O25164  10.272   9.021   2.539  0.4419 -0.3633  0.8649
  183MOL0     C25165  10.382   9.322   2.718  0.0995  0.0117  0.8987
  183MOL0     C25166  10.422   9.453   2.704 -0.5430 -1.2720 -0.0647
  183MOL0     N25167  11.003   9.866   2.361 -1.0858  0.3635  0.1905
  183MOL0     N25168  11.057   9.923   2.258 -0.9589  1.2474  0.3422
  183MOL0     C25169  11.146  11.131   1.759 -1.2263  0.4382  0.0204
  183MOL0     C25170  11.168  11.269   1.780 -0.8619  0.4560  0.1498
  183MOL0     C25171  11.274  11.640   1.816  0.8795  0.2892  0.6528
  183MOL0     C25172  11.340  11.656   1.933  0.3868 -0.6524 -0.6145
  183MOL0     C25173  11.469  11.714   1.936 -0.2400  0.2754 -0.2383
  183MOL0     C25174  11.519  11.771   1.816  1.3127 -1.2848 -0.0027
  183MOL0     O25175  11.644  11.838   1.803  0.0328  0.6488  0.5445
  183MOL0     C25176  11.712  11.896   1.904  0.3965 -0.3612 -0.8119
  183MOL0     C25177  11.813  11.988   1.841 -0.2674 -0.1498 -1.1175
  183MOL0     C25178  11.812  12.130   1.901  0.3654 -0.0114 -1.0799
  183MOL0     C25179  11.678  12.201   1.908  0.2968 -0.0987 -0.2875
  183MOL0     C25180  11.695  12.346   1.880  0.1286 -0.9663 -0.3383
  183MOL0     C25181  11.703  12.466   1.863  0.6711 -0.3371 -0.4428
  183MOL0     C25182  11.454  11.752   1.694 -0.2880  0.7444 -0.1206
  183MOL0     C25183  11.337  11.676   1.689 -0.7675  0.1256 -0.4485
  183MOL0     C25184  11.274  11.644   1.560  1.1323  0.0785  0.6491
  183MOL0     H25185  10.912  11.326   1.991 -1.5982 -1.7274  0.1180
  183MOL0     H25186  10.857  11.111   1.932 -2.1261  1.5776 -2.6254
  183MOL0     H25187  10.839  10.877   1.892  0.0222 -1.0382 -4.0086
  183MOL0     H25188  10.983  10.900   1.987  1.2052 -0.5178 -0.1152
  183MOL0     H25189  10.934  10.688   1.777  1.7358  0.7150 -0.9126
  183MOL0     H25190  11.084  10.703   1.876  0.4923  0.5661  0.4054
  183MOL0     H25191  10.917  10.648   2.082 -2.6114  0.5114  2.2829
  183MOL0     H25192  10.790  10.670   1.970  0.1478  2.3284  2.4017
  183MOL0     H25193  10.815  10.465   1.851  0.8525  0.4856 -0.6713
  183MOL0     H25194  10.973  10.423   1.906  2.9020  2.2558  3.6399
  183MOL0     H25195  10.736  10.319   2.002 -1.0524 -0.8520  2.2584
  183MOL0     H25196  10.752  10.457   2.111 -1.2424 -1.6229  0.1424
  183MOL0     H25197  10.924  10.367   2.225 -0.2037  2.5428 -1.3266
  183MOL0     H25198  10.820  10.243   2.205  1.1978  0.2675 -0.1148
  183MOL0     H25199  11.048  10.262   2.010 -1.2827  2.7125  1.3584
  183MOL0     H25200  10.932  10.122   2.041 -1.7684 -1.5359  4.6146
  183MOL0     H25201  11.163  10.112   2.128 -1.1555 -2.8806 -0.1877
  183MOL0     H25202  11.135  10.238   2.250 -0.9616  0.9497  0.4235
  183MOL0     H25203  10.935  10.170   2.430 -0.8569 -0.0626  0.2328
  183MOL0     H25204  10.807   9.988   2.608 -0.6727 -0.6552  0.4739
  183MOL0     H25205  10.955   9.904   2.641 -1.3912 -0.3643  3.2238
  183MOL0     H25206  10.865   9.707   2.513  3.5784  2.3770  2.3023
  183MOL0     H25207  10.773   9.743   2.668 -0.1782 -0.1290 -0.2711
  183MOL0     H25208  10.620   9.873   2.533 -0.2747 -1.6411  1.7726
  183MOL0     H25209  10.706   9.811   2.382  0.0063  1.7076 -0.0152
  183MOL0     H25210  10.516   9.683   2.384  0.4280 -1.7936 -0.6684
  183MOL0     H25211  10.650   9.586   2.442 -2.3019 -1.3869 -0.3229
  183MOL0     H25212  10.457   9.473   2.372 -3.3220 -1.3134 -0.0884
  183MOL0     H25213  10.272   9.228   2.303  0.0186  2.4281  0.2911
  183MOL0     H25214  10.414   9.121   2.351  1.7515  0.5571  2.7949
  183MOL0     H25215  10.432   9.292   2.278  2.2378 -0.7809  1.6469
  183MOL0     H25216  10.274   8.806   2.628  0.1056 -0.9608 -1.6835
  183MOL0     H25217  10.352   8.601   2.700 -2.5095 -0.2747 -0.1393
  183MOL0     H25218  10.529   8.595   3.153  0.0764  1.4775 -0.9251
  183MOL0     H25219  10.364   8.526   3.120 -0.0395 -0.9170 -1.2563
  183MOL0     H25220  10.439   8.324   3.060  1.1887  2.0621 -3.3124
  183MOL0     H25221  10.603   8.351   3.078  0.0919 -2.4621  3.3846
  183MOL0     H25222  10.404   8.398   3.310  1.0383  1.3667  1.5294
  183MOL0     H25223  10.579   8.383   3.324  1.3530 -2.6209 -0.6907
  183MOL0     H25224  10.572   8.164   3.246  0.2681 -2.1124  1.2368
  183MOL0     H25225  10.406   8.162   3.189 -1.9210  2.7849  0.1418
  183MOL0     H25226  10.455   8.247   3.465  1.2971 -0.3249  0.1110
  183MOL0     H25227  10.305   8.160   3.399  0.0070  1.0284 -2.2546
  183MOL0     H25228  10.486   7.955   3.382 -0.4989 -0.7006  0.9428
  183MOL0     H25229  10.400   7.989   3.523 -0.9360  0.6901  0.1851
  183MOL0     H25230  10.624   7.955   3.601  1.9288 -1.9773 -2.1228
  183MOL0     H25231  10.596   8.126   3.608  2.4535  0.6366 -1.8500
  183MOL0     H25232  10.730   8.170   3.403 -0.2679 -0.5391 -1.5185
  183MOL0     H25233  10.750   7.993   3.374 -0.5787 -1.0513  1.0312
  183MOL0     H25234  10.519   8.794   3.063 -0.1846  1.8375  0.2582
  183MOL0     H25235  10.463   9.006   2.955 -2.2014  0.2944  0.2369
  183MOL0     H25236  10.361   9.280   2.816 -0.6440  0.4196  0.9230
  183MOL0     H25237  10.427   9.528   2.783 -1.4611 -0.4164 -0.7930
  183MOL0     H25238  11.205  11.078   1.685 -2.7573  0.7878 -1.5346
  183MOL0     H25239  11.250  11.309   1.721 -0.1075  0.2476  1.0229
  183MOL0     H25240  11.284  11.618   2.018  0.2674 -0.6283 -0.6833
  183MOL0     H25241  11.522  11.741   2.028 -1.1583  0.0289  0.3725
  183MOL0     H25242  11.648  11.949   1.975 -0.6197 -3.9096  1.1637
  183MOL0     H25243  11.761  11.821   1.966  1.4824  0.3812 -0.7470
  183MOL0     H25244  11.785  12.012   1.738 -3.4179  0.8203 -0.1642
  183MOL0     H25245  11.916  11.954   1.857 -0.7836 -2.3710 -2.1356
  183MOL0     H25246  11.854  12.123   2.002 -2.7942  0.3554  0.3636
  183MOL0     H25247  11.884  12.193   1.848  0.1749  1.3359  0.2100
  183MOL0     H25248  11.636  12.183   2.007 -1.6442 -1.9404 -1.3659
  183MOL0     H25249  11.608  12.165   1.832  2.2738 -0.2076 -2.1712
  183MOL0     H25250  11.695  12.573   1.852  0.9645 -0.3459 -0.7562
  183MOL0     H25251  11.512  11.771   1.604  1.5513  0.5430  0.9703
  183MOL0     H25252  11.190  11.714   1.557 -2.2369 -3.5992 -2.4361
  183MOL0     H25253  11.344  11.664   1.478  0.4138 -1.1811 -0.3032
  183MOL0     H25254  11.249  11.539   1.546  1.2927  0.0129  0.8522
  184MOL0     O25255   8.012   3.445   7.521 -0.3230  0.2345  0.2732
  184MOL0     C25256   7.957   3.479   7.414 -1.1184  1.5197 -0.7390
  184MOL0     O25257   7.870   3.395   7.346  0.9219  0.0087  0.4730
  184MOL0     C25258   7.834   3.285   7.424  0.1035 -0.8545 -0.0326
  184MOL0     C25259   7.909   3.172   7.424 -0.0937  0.1125  0.1505
  184MOL0     C25260   7.851   3.044   7.457  0.0239  0.0930 -0.1804
  184MOL0     C25261   7.723   3.029   7.501  0.1593 -0.0169  0.3993
  184MOL0     O25262   7.688   2.903   7.535  0.1888  0.4847 -0.6817
  184MOL0     C25263   7.702   2.891   7.680 -0.0635 -1.4647 -0.1816
  184MOL0     C25264   7.663   2.739   7.713  0.4229 -0.8735  0.0685
  184MOL0     C25265   7.515   2.703   7.700  0.0085 -0.6654 -0.6247
  184MOL0     C25266   7.427   2.787   7.795  0.7791 -0.5092 -0.0115
  184MOL0     C25267   7.279   2.732   7.793 -0.7686 -0.6716  0.0149
  184MOL0     C25268   7.179   2.831   7.843 -0.5611  0.3792  0.3922
  184MOL0     C25269   7.034   2.793   7.833  0.7093 -0.0675 -0.2455
  184MOL0     C25270   6.988   2.714   7.712  0.3444  0.8600  1.0361
  184MOL0     N25271   6.838   2.693   7.715  0.2857 -0.4437  0.5277
  184MOL0     C25272   6.788   2.570   7.678 -0.1062  0.0213 -0.1629
  184MOL0     C25273   6.654   2.589   7.670 -0.7752  0.2202 -0.4818
  184MOL0     C25274   6.557   2.467   7.636  0.2214 -0.4798 -0.1697
  184MOL0     C25275   6.444   2.552   7.561 -0.7453 -0.5815  1.2824
  184MOL0     C25276   6.333   2.448   7.516  0.3348 -0.0888  0.5734
  184MOL0     C25277   6.228   2.505   7.426 -1.1303  0.1765 -0.2596
  184MOL0     O25278   6.281   2.602   7.325  0.2744 -0.1653  0.0494
  184MOL0     C25279   6.184   2.641   7.225  0.4800  0.2924  0.1707
  184MOL0     C25280   6.235   2.689   7.105 -0.3445 -0.0139  0.7367
  184MOL0     C25281   6.149   2.719   6.996 -0.7704 -0.4525 -0.0297
  184MOL0     C25282   6.219   2.771   6.871 -0.3000 -0.4544 -0.2732
  184MOL0     C25283   6.010   2.708   7.011 -0.7683  0.0570  0.6784
  184MOL0     C25284   5.912   2.727   6.900  0.6402  0.2700 -0.8517
  184MOL0     O25285   5.776   2.709   6.925  0.2117  0.5125 -0.8761
  184MOL0     C25286   5.683   2.733   6.829  0.5257 -0.0151  0.5343
  184MOL0     C25287   5.562   2.792   6.867 -0.4349  0.2953  0.2982
  184MOL0     C25288   5.452   2.813   6.781 -1.1916 -0.4003  1.2467
  184MOL0     C25289   5.464   2.768   6.642 -0.5561  0.7855  0.1041
  184MOL0     O25290   5.355   2.806   6.559 -0.9261 -0.4912 -0.1929
  184MOL0     C25291   5.351   2.780   6.420 -0.2174  0.0684 -0.1759
  184MOL0     C25292   5.400   2.898   6.339 -1.2095 -0.1710 -0.4491
  184MOL0     C25293   5.320   3.021   6.354  0.0204  0.3444  0.4641
  184MOL0     C25294   5.206   3.009   6.251 -0.1927 -0.4350 -0.9104
  184MOL0     C25295   5.149   3.145   6.226  0.7378 -0.0424 -0.1399
  184MOL0     C25296   5.061   3.144   6.102  1.3587 -1.3684 -0.3907
  184MOL0     C25297   5.002   3.283   6.056 -0.4881  0.7729  0.1233
  184MOL0     C25298   4.914   3.262   5.931 -0.7181  0.7957  0.5796
  184MOL0    Cl25299   5.019   3.272   5.791  0.6394 -0.5229  0.6061
  184MOL0     C25300   5.582   2.702   6.602 -0.2609  0.7397 -0.1089
  184MOL0     C25301   5.690   2.689   6.694  0.3630 -0.5700  0.6320
  184MOL0     O25302   5.957   2.761   6.788 -0.2605  0.0144  0.1876
  184MOL0     C25303   5.964   2.662   7.130 -0.6116 -1.2609  0.2632
  184MOL0     C25304   6.049   2.627   7.237  0.5867 -0.0458 -0.9591
  184MOL0     N25305   6.630   2.718   7.716 -0.1289 -0.3433  0.5154
  184MOL0     N25306   6.744   2.784   7.738 -0.1395  0.6097  0.2494
  184MOL0     C25307   7.649   3.151   7.514  0.1888 -0.3364 -0.2903
  184MOL0     C25308   7.700   3.278   7.474  0.1616  0.2827 -0.7673
  184MOL0     C25309   7.984   3.615   7.363 -0.3217 -0.1926  0.7372
  184MOL0     C25310   7.907   3.671   7.259 -0.1558 -0.5990 -0.1687
  184MOL0     C25311   7.925   3.808   7.216  0.5464 -0.0412  0.1697
  184MOL0     C25312   8.037   3.878   7.270 -0.5552 -0.4357 -0.3743
  184MOL0     O25313   8.082   3.998   7.221 -0.1077 -0.8080  0.1690
  184MOL0     C25314   7.992   4.084   7.145  0.5029  0.0882  0.9274
  184MOL0     C25315   8.047   4.222   7.137 -0.6600 -0.2400 -0.5439
  184MOL0     C25316   8.125   4.259   7.020 -0.3046 -0.0522 -0.1817
  184MOL0     C25317   8.280   4.278   7.065 -0.5968  0.2196 -0.1143
  184MOL0     C25318   8.353   4.325   6.948  0.2984 -0.4461 -0.3375
  184MOL0     C25319   8.417   4.361   6.855  0.6430  0.6672  0.1004
  184MOL0     C25320   8.114   3.814   7.367 -0.4864  1.2215  0.8414
  184MOL0     C25321   8.088   3.690   7.423 -0.7124 -0.1452 -0.4952
  184MOL0     C25322   8.191   3.663   7.536  0.6220  0.5818  0.7893
  184MOL0     H25323   8.014   3.169   7.395  0.4749 -4.1517  1.9120
  184MOL0     H25324   7.925   2.966   7.440 -0.1064  0.4046 -2.5288
  184MOL0     H25325   7.634   2.958   7.733  1.9522  0.2802  0.3513
  184MOL0     H25326   7.807   2.918   7.698 -0.1365  1.7217 -3.3894
  184MOL0     H25327   7.722   2.682   7.640 -2.9398 -0.9683 -2.8449
  184MOL0     H25328   7.699   2.712   7.813  0.9297 -1.1746 -0.1947
  184MOL0     H25329   7.475   2.719   7.599 -0.8029 -1.1043 -0.3791
  184MOL0     H25330   7.495   2.597   7.717 -1.3076 -0.8638 -2.9977
  184MOL0     H25331   7.460   2.779   7.899  1.0461  0.1937 -0.0359
  184MOL0     H25332   7.416   2.891   7.762  3.3929  0.3049  1.4226
  184MOL0     H25333   7.267   2.643   7.856  1.1692 -1.2711 -0.3872
  184MOL0     H25334   7.251   2.706   7.691 -1.7129  0.7818 -0.1159
  184MOL0     H25335   7.201   2.850   7.949  2.0095 -0.5619  0.0890
  184MOL0     H25336   7.200   2.928   7.796  3.9139  0.0124  1.1974
  184MOL0     H25337   6.972   2.881   7.852 -0.5938 -1.1757  0.8527
  184MOL0     H25338   7.005   2.730   7.918 -1.3109  1.8914  0.6034
  184MOL0     H25339   7.024   2.769   7.625  0.2411 -0.6480 -0.0027
  184MOL0     H25340   7.042   2.619   7.708  0.8306  1.1634 -0.6143
  184MOL0     H25341   6.832   2.473   7.655 -0.4390 -0.7236  2.0873
  184MOL0     H25342   6.523   2.406   7.720 -2.4672  1.2957  0.1433
  184MOL0     H25343   6.591   2.400   7.557 -0.3763 -1.5962  0.4887
  184MOL0     H25344   6.388   2.635   7.607  1.0412  1.7068 -0.4675
  184MOL0     H25345   6.491   2.592   7.472 -1.4181 -2.4203  0.0437
  184MOL0     H25346   6.371   2.366   7.455 -2.0192 -0.7571 -0.1032
  184MOL0     H25347   6.294   2.396   7.604 -0.5235  0.0892  0.3008
  184MOL0     H25348   6.167   2.427   7.381 -3.8553  1.7430  0.4649
  184MOL0     H25349   6.166   2.573   7.487  0.3111  1.4081 -0.1178
  184MOL0     H25350   6.340   2.707   7.084 -0.8391  0.3289 -1.7387
  184MOL0     H25351   6.197   2.873   6.837  0.1466 -0.4042 -0.4311
  184MOL0     H25352   6.219   2.703   6.785 -1.0124 -0.1404 -0.5280
  184MOL0     H25353   6.327   2.779   6.889 -0.4369  3.3440 -0.3904
  184MOL0     H25354   5.554   2.841   6.964  3.0964 -2.1287  2.0225
  184MOL0     H25355   5.363   2.861   6.821 -0.0868  2.2390  0.7253
  184MOL0     H25356   5.411   2.689   6.410  0.4278  0.7700 -4.2844
  184MOL0     H25357   5.246   2.761   6.395 -0.4144  1.3097 -0.3427
  184MOL0     H25358   5.505   2.921   6.360 -1.1070  2.9573 -3.4303
  184MOL0     H25359   5.394   2.862   6.236 -2.3348 -2.2512  0.2892
  184MOL0     H25360   5.370   3.117   6.338 -0.9444  0.3490 -3.6456
  184MOL0     H25361   5.270   3.025   6.451  3.0817 -0.8855  2.2241
  184MOL0     H25362   5.131   2.937   6.287  0.5774  0.2768  2.4714
  184MOL0     H25363   5.248   2.973   6.157 -0.6539  1.7718 -2.0311
  184MOL0     H25364   5.089   3.170   6.314  1.5574  4.1586 -0.5683
  184MOL0     H25365   5.222   3.226   6.214 -0.0776  0.5143 -1.5864
  184MOL0     H25366   4.978   3.076   6.120 -1.3242  0.7910 -3.4591
  184MOL0     H25367   5.117   3.110   6.014  0.0018  0.4373 -2.0395
  184MOL0     H25368   5.082   3.355   6.033  0.5293 -0.6370 -0.9470
  184MOL0     H25369   4.947   3.316   6.144 -2.2890 -0.7091 -0.3932
  184MOL0     H25370   4.838   3.338   5.911 -3.5150 -1.3816  2.1914
  184MOL0     H25371   4.850   3.173   5.929  2.2887 -1.5733  1.7307
  184MOL0     H25372   5.605   2.677   6.499 -0.5059 -4.4379  0.8091
  184MOL0     H25373   5.776   2.634   6.658  2.8261  1.7464  2.6065
  184MOL0     H25374   5.856   2.659   7.141 -0.5060 -2.7344  1.2751
  184MOL0     H25375   6.006   2.585   7.327 -0.5608 -1.8434 -2.2901
  184MOL0     H25376   7.546   3.135   7.544  0.3650 -1.1650 -0.1172
  184MOL0     H25377   7.635   3.365   7.466 -0.6312 -0.2777 -0.5095
  184MOL0     H25378   7.824   3.622   7.208  0.9463 -0.6662 -1.9722
  184MOL0     H25379   7.862   3.848   7.137 -0.5471 -1.4062  0.3006
  184MOL0     H25380   7.975   4.046   7.045 -1.5503  2.5906  0.2130
  184MOL0     H25381   7.892   4.091   7.189  0.3907 -3.1001  1.4076
  184MOL0     H25382   8.099   4.239   7.232  1.7520  0.8664 -1.9645
  184MOL0     H25383   7.956   4.282   7.145 -0.4116 -0.0761  2.0705
  184MOL0     H25384   8.114   4.185   6.940 -0.6007 -1.4149  1.0684
  184MOL0     H25385   8.088   4.349   6.971  0.7789  0.8972  0.6973
  184MOL0     H25386   8.324   4.181   7.092  0.8237  0.9758  0.3508
  184MOL0     H25387   8.298   4.345   7.149  1.1790  0.1128 -0.3726
  184MOL0     H25388   8.485   4.382   6.775  1.9267 -1.0508  0.6669
  184MOL0     H25389   8.197   3.881   7.390  0.8220 -0.0667  0.0592
  184MOL0     H25390   8.270   3.612   7.481  0.0789  0.3245  0.2282
  184MOL0     H25391   8.240   3.751   7.577  1.2795  1.5447 -1.8884
  184MOL0     H25392   8.147   3.594   7.610  0.8151 -4.4090 -3.1698
  185MOL0     O25393   0.907   9.785   0.050  0.2652  0.7295 -0.1682
  185MOL0     C25394   1.027   9.774   0.061  0.5873 -0.8049  0.3278
  185MOL0     O25395   1.099   9.662   0.042  0.5067 -0.2080 -0.1851
  185MOL0     C25396   1.023   9.551   0.016  0.1780  0.6208 -0.3139
  185MOL0     C25397   0.995   9.464   0.124 -0.4761  0.7424 -0.2583
  185MOL0     C25398   0.919   9.345   0.106 -0.5377  1.1706 -0.6200
  185MOL0     C25399   0.871   9.304  -0.016 -1.0533  0.4494  0.7313
  185MOL0     O25400   0.806   9.185  -0.030 -0.3864  1.3813  0.6726
  185MOL0     C25401   0.659   9.201  -0.041 -1.2160  0.9022  0.4926
  185MOL0     C25402   0.602   9.084  -0.126  0.4910 -0.1783  0.1744
  185MOL0     C25403   0.628   8.941  -0.065 -0.6759 -0.2492 -0.1292
  185MOL0     C25404   0.554   8.835  -0.155  0.3225  0.7010  0.2727
  185MOL0     C25405   0.551   8.685  -0.122  0.5347 -0.1956 -0.2733
  185MOL0     C25406   0.475   8.603  -0.230  0.2066 -0.5024  0.0806
  185MOL0     C25407   0.503   8.453  -0.209 -0.2024 -0.1899 -0.0108
  185MOL0     C25408   0.447   8.363  -0.311 -0.6777  0.5750 -0.3070
  185MOL0     N25409   0.301   8.360  -0.301 -0.6544  0.6444 -0.1047
  185MOL0     C25410   0.219   8.275  -0.230 -1.2461  0.0309  0.0751
  185MOL0     C25411   0.100   8.283  -0.293  0.0098 -0.1923 -0.6317
  185MOL0     C25412  -0.033   8.208  -0.258 -1.1170  0.2370  0.6679
  185MOL0     C25413  -0.052   8.059  -0.285  0.5513  0.1246  0.3072
  185MOL0     C25414   0.065   7.976  -0.333 -0.6905  0.7202  0.0892
  185MOL0     C25415   0.020   7.857  -0.416  1.1897  0.7310  0.4711
  185MOL0     O25416  -0.005   7.749  -0.322  0.2293 -0.4428  0.4329
  185MOL0     C25417  -0.023   7.615  -0.358  0.5097  0.8319  0.6700
  185MOL0     C25418  -0.036   7.522  -0.254  0.0675 -0.3733 -1.0934
  185MOL0     C25419  -0.082   7.382  -0.284 -0.1948 -0.3771 -0.5167
  185MOL0     C25420  -0.099   7.282  -0.160 -0.9275  0.3924  1.2636
  185MOL0     C25421  -0.093   7.334  -0.416 -0.1424  0.0960  0.0825
  185MOL0     C25422  -0.135   7.190  -0.442  0.3394 -0.2843 -0.9194
  185MOL0     O25423  -0.042   7.108  -0.520  0.2466  0.6961  0.3928
  185MOL0     C25424  -0.082   6.976  -0.512 -0.7514  0.0631 -0.6313
  185MOL0     C25425  -0.187   6.936  -0.597 -0.5191  0.2020 -0.0282
  185MOL0     C25426  -0.229   6.799  -0.604 -0.0023 -0.2300  0.0404
  185MOL0     C25427  -0.167   6.702  -0.526  0.0389  1.1224  1.4784
  185MOL0     O25428  -0.193   6.566  -0.521  0.1765  0.4652  0.2562
  185MOL0     C25429  -0.318   6.526  -0.579 -0.9088 -0.3076 -0.4117
  185MOL0     C25430  -0.436   6.537  -0.497  0.3080 -0.4877 -0.4237
  185MOL0     C25431  -0.438   6.438  -0.387 -0.5964 -0.5865  0.7174
  185MOL0     C25432  -0.585   6.423  -0.331 -0.1192 -0.3714  1.2685
  185MOL0     C25433  -0.593   6.310  -0.219 -0.0158  0.1729  0.6839
  185MOL0     C25434  -0.734   6.298  -0.171  0.2791 -0.1134 -0.0397
  185MOL0     C25435  -0.736   6.194  -0.053 -0.5535 -0.5453 -0.8548
  185MOL0     C25436  -0.880   6.162  -0.018 -0.7466 -0.4424  0.4516
  185MOL0    Cl25437  -0.896   6.017   0.096  0.6271 -0.6106 -0.1922
  185MOL0     C25438  -0.049   6.737  -0.458  0.7076 -0.1567 -0.1550
  185MOL0     C25439  -0.005   6.870  -0.458 -0.0656 -0.2143  0.9580
  185MOL0     O25440  -0.238   7.149  -0.393 -0.2696 -0.3611 -0.4103
  185MOL0     C25441  -0.061   7.428  -0.518 -0.9558 -0.4756 -0.5245
  185MOL0     C25442  -0.037   7.565  -0.489 -0.9997 -0.5902  0.1905
  185MOL0     N25443   0.101   8.392  -0.387 -0.5443 -0.2491 -0.8069
  185MOL0     N25444   0.221   8.437  -0.381  0.3014 -0.3365  0.6184
  185MOL0     C25445   0.902   9.391  -0.123 -0.0614  0.5102 -0.2060
  185MOL0     C25446   0.975   9.512  -0.107  0.0541  0.7308 -0.6625
  185MOL0     C25447   1.101   9.892   0.099 -0.8838 -0.7533 -0.0782
  185MOL0     C25448   1.041   9.995   0.172  0.6377 -0.2495  0.3674
  185MOL0     C25449   1.102  10.113   0.211  0.2398 -1.1061  0.5138
  185MOL0     C25450   1.234  10.137   0.184 -0.7235 -0.0087 -0.1326
  185MOL0     O25451   1.294  10.253   0.221 -0.3609 -0.4913  0.1170
  185MOL0     C25452   1.215  10.368   0.248  0.0424 -0.3758  0.0813
  185MOL0     C25453   1.130  10.407   0.126  1.2174 -0.3803  0.0962
  185MOL0     C25454   1.224  10.429   0.004 -0.3328 -0.3836  0.5211
  185MOL0     C25455   1.146  10.468  -0.123  0.7935  0.5629  0.0800
  185MOL0     C25456   1.223  10.491  -0.245 -0.0582  0.2676  0.1410
  185MOL0     C25457   1.279  10.478  -0.350 -0.7951 -0.4341  0.0988
  185MOL0     C25458   1.307  10.032   0.121  1.1384 -0.3887  0.2526
  185MOL0     C25459   1.248   9.907   0.084  0.1088 -0.0751 -0.9988
  185MOL0     C25460   1.335   9.817   0.015  0.9800 -0.1560 -0.6020
  185MOL0     H25461   1.033   9.481   0.224 -1.7935  0.6884  0.2699
  185MOL0     H25462   0.899   9.277   0.188 -0.4335 -1.0592 -2.3396
  185MOL0     H25463   0.639   9.293  -0.096  0.2666  0.1094 -1.4996
  185MOL0     H25464   0.618   9.201   0.061 -0.9187 -1.0657  0.6556
  185MOL0     H25465   0.494   9.103  -0.130  0.3909  0.1279  2.4844
  185MOL0     H25466   0.634   9.084  -0.230  1.8110  0.4057  0.5647
  185MOL0     H25467   0.736   8.926  -0.063 -0.5143  0.9824  1.0422
  185MOL0     H25468   0.583   8.941   0.035 -0.5707 -1.0548 -0.0734
  185MOL0     H25469   0.452   8.871  -0.173  0.1284  0.4996  0.9471
  185MOL0     H25470   0.594   8.847  -0.256 -3.0386 -3.1639 -1.8319
  185MOL0     H25471   0.497   8.664  -0.029  1.4320 -2.4122 -0.1889
  185MOL0     H25472   0.655   8.651  -0.113  0.9390  1.3951  1.7763
  185MOL0     H25473   0.368   8.622  -0.219  0.3603 -0.5087  1.9699
  185MOL0     H25474   0.505   8.640  -0.329 -1.6215 -2.3738 -1.2552
  185MOL0     H25475   0.468   8.431  -0.107  3.0141  0.4910  1.3534
  185MOL0     H25476   0.612   8.453  -0.206 -0.1781  1.9205  1.0598
  185MOL0     H25477   0.479   8.387  -0.412 -0.8760  1.0649 -0.2553
  185MOL0     H25478   0.479   8.261  -0.288  0.5652  0.9748 -0.1983
  185MOL0     H25479   0.241   8.192  -0.164  0.7962  2.2154  2.2881
  185MOL0     H25480  -0.113   8.258  -0.314  0.2759  1.5394 -0.2282
  185MOL0     H25481  -0.050   8.229  -0.152 -3.2047  2.0673  0.0314
  185MOL0     H25482  -0.078   8.008  -0.191 -1.2685  0.9357  0.2774
  185MOL0     H25483  -0.138   8.051  -0.352  1.5159  0.9290 -1.0668
  185MOL0     H25484   0.122   8.036  -0.405 -1.9049  0.0723 -1.4828
  185MOL0     H25485   0.129   7.955  -0.248 -2.1199  1.4970  1.4120
  185MOL0     H25486  -0.076   7.883  -0.463 -0.3534  1.2008  3.6197
  185MOL0     H25487   0.092   7.823  -0.491  0.0781 -1.5727  0.3558
  185MOL0     H25488  -0.009   7.532  -0.149 -1.0835 -0.9084 -0.7271
  185MOL0     H25489  -0.028   7.203  -0.188 -2.5431 -0.1485 -1.8106
  185MOL0     H25490  -0.204   7.251  -0.157 -0.8832  0.1997  0.9234
  185MOL0     H25491  -0.062   7.329  -0.069  1.5056 -2.6461  2.0101
  185MOL0     H25492  -0.246   7.006  -0.656 -1.8445 -0.7445  0.1257
  185MOL0     H25493  -0.321   6.795  -0.661 -2.0448 -3.6517  3.1388
  185MOL0     H25494  -0.334   6.565  -0.679 -1.2968 -1.6344 -0.8827
  185MOL0     H25495  -0.320   6.421  -0.609  0.3558  0.0856 -1.9925
  185MOL0     H25496  -0.419   6.631  -0.444  1.6351 -0.9891  0.0767
  185MOL0     H25497  -0.529   6.552  -0.553  0.5705  1.0473 -0.4910
  185MOL0     H25498  -0.371   6.467  -0.307  2.8144  0.7294 -2.3491
  185MOL0     H25499  -0.393   6.342  -0.414 -0.7465 -0.2524 -0.8145
  185MOL0     H25500  -0.647   6.396  -0.417  0.0530  0.3909  0.8944
  185MOL0     H25501  -0.625   6.514  -0.285  2.7572  0.6386  2.0337
  185MOL0     H25502  -0.571   6.214  -0.266  1.0535  0.5175  0.4649
  185MOL0     H25503  -0.516   6.325  -0.143  0.1064  0.9624  0.4128
  185MOL0     H25504  -0.791   6.272  -0.261  1.1359  3.4027 -1.7658
  185MOL0     H25505  -0.783   6.392  -0.145 -1.1312 -1.2412  1.6442
  185MOL0     H25506  -0.683   6.228   0.037 -4.3187 -1.7985  2.0876
  185MOL0     H25507  -0.695   6.096  -0.082 -3.9698 -2.9345  1.6361
  185MOL0     H25508  -0.932   6.131  -0.108  0.0042 -0.3765 -0.0160
  185MOL0     H25509  -0.931   6.242   0.037  0.3050 -0.1527  1.0354
  185MOL0     H25510  -0.002   6.664  -0.393 -0.5386 -0.2912  0.6124
  185MOL0     H25511   0.084   6.900  -0.403 -0.6171 -0.9945  2.3324
  185MOL0     H25512  -0.074   7.383  -0.616  0.5842  0.5375 -1.2449
  185MOL0     H25513  -0.024   7.627  -0.577 -2.2853  1.0882  1.1196
  185MOL0     H25514   0.881   9.339  -0.216  0.3948 -3.4430  1.6654
  185MOL0     H25515   1.001   9.568  -0.196  1.4475  4.4402  1.8412
  185MOL0     H25516   0.940   9.978   0.208  0.8456  0.7469  1.4783
  185MOL0     H25517   1.054  10.188   0.274  2.6018  2.3171 -1.4276
  185MOL0     H25518   1.141  10.359   0.329 -1.3730  2.1202 -0.8078
  185MOL0     H25519   1.279  10.451   0.281  0.4541  0.5509 -2.7725
  185MOL0     H25520   1.066  10.494   0.147  0.4576 -1.4096  2.3288
  185MOL0     H25521   1.052  10.333   0.104  0.9393 -1.1764  3.2443
  185MOL0     H25522   1.301  10.503   0.027  3.8310 -3.1186 -2.8995
  185MOL0     H25523   1.280  10.337  -0.014  1.6438  0.6830  0.8988
  185MOL0     H25524   1.084  10.558  -0.119  0.9416  0.7397 -1.0967
  185MOL0     H25525   1.079  10.391  -0.162  1.1089  0.3943 -0.1380
  185MOL0     H25526   1.332  10.496  -0.441  0.1813  2.0905  1.0726
  185MOL0     H25527   1.410  10.041   0.088  0.9150 -2.2028 -1.0987
  185MOL0     H25528   1.442   9.830   0.033  1.2780 -1.4112 -1.3498
  185MOL0     H25529   1.325   9.711   0.039 -1.5598  0.1225 -0.1186
  185MOL0     H25530   1.315   9.834  -0.091  0.5245  0.1680 -0.4692
  186MOL0     O25531   3.564   4.815   5.810 -0.6044 -0.3943 -1.1650
  186MOL0     C25532   3.457   4.833   5.865 -0.3872 -0.0424 -0.2317
  186MOL0     O25533   3.370   4.944   5.839 -0.1865 -0.1488  0.1234
  186MOL0     C25534   3.426   5.047   5.772 -0.6394  0.3582 -0.0776
  186MOL0     C25535   3.390   5.078   5.642 -0.2672  0.0264 -0.4334
  186MOL0     C25536   3.450   5.172   5.560 -0.7819 -0.0423 -0.1184
  186MOL0     C25537   3.550   5.256   5.611 -0.6268  0.4286 -0.7407
  186MOL0     O25538   3.600   5.356   5.529  0.3494 -0.7573 -0.8183
  186MOL0     C25539   3.625   5.477   5.600 -1.3158 -0.6148  0.8732
  186MOL0     C25540   3.623   5.595   5.495 -0.8921 -1.5013 -0.1628
  186MOL0     C25541   3.485   5.641   5.454  1.0330  0.2255 -0.8644
  186MOL0     C25542   3.467   5.675   5.304 -0.4238  0.0592 -0.5416
  186MOL0     C25543   3.318   5.662   5.266  0.3325 -1.4819  0.2117
  186MOL0     C25544   3.212   5.744   5.347  0.0121  0.0082 -0.4546
  186MOL0     C25545   3.077   5.705   5.303  1.7523 -0.7761 -0.7608
  186MOL0     C25546   2.954   5.773   5.380  0.2129  0.3624 -0.0614
  186MOL0     N25547   2.824   5.699   5.356  0.1825  0.4157  0.2189
  186MOL0     C25548   2.736   5.731   5.252 -1.1232 -0.6706  0.9294
  186MOL0     C25549   2.643   5.636   5.249  0.0436 -0.9855  0.6589
  186MOL0     C25550   2.527   5.617   5.151  0.5393 -0.0386 -0.1811
  186MOL0     C25551   2.564   5.517   5.042 -0.0003  0.5647  0.5407
  186MOL0     C25552   2.687   5.562   4.956 -0.0020 -0.1419 -0.0367
  186MOL0     C25553   2.819   5.496   5.003  0.2136 -0.4467  0.8584
  186MOL0     O25554   2.917   5.604   4.998 -0.3121 -0.8105 -0.5729
  186MOL0     C25555   2.985   5.623   4.876  0.2731 -1.0269  0.3957
  186MOL0     C25556   2.969   5.749   4.814  1.0110  0.9737 -0.5933
  186MOL0     C25557   3.037   5.774   4.698  0.3028 -0.2617 -0.0815
  186MOL0     C25558   2.991   5.902   4.635 -0.9434 -0.0747  1.3639
  186MOL0     C25559   3.133   5.679   4.649 -0.1636 -0.4448  0.8523
  186MOL0     C25560   3.208   5.714   4.520  0.0295  0.8251  0.3935
  186MOL0     O25561   3.173   5.821   4.437  0.7731  0.1085  0.8584
  186MOL0     C25562   3.208   5.803   4.304  0.8279  1.8373 -0.7380
  186MOL0     C25563   3.106   5.805   4.206 -0.4060 -0.2499 -0.9057
  186MOL0     C25564   3.140   5.812   4.068 -0.0495  0.0701 -1.2336
  186MOL0     C25565   3.273   5.807   4.025  0.1630 -0.2560 -0.8731
  186MOL0     O25566   3.277   5.811   3.892 -0.4361 -0.2185  0.3672
  186MOL0     C25567   3.403   5.853   3.848 -0.5075  1.6066 -0.3529
  186MOL0     C25568   3.403   5.828   3.699  0.4933 -0.6181  1.1960
  186MOL0     C25569   3.403   5.675   3.650 -1.4278 -1.3615  0.4624
  186MOL0     C25570   3.516   5.644   3.540 -0.0403 -0.5136  0.5030
  186MOL0     C25571   3.495   5.497   3.502  0.5523  0.5907 -0.0390
  186MOL0     C25572   3.365   5.460   3.423 -0.0228 -0.3720 -0.2720
  186MOL0     C25573   3.371   5.309   3.391 -0.3501 -0.4744  1.0947
  186MOL0     C25574   3.245   5.262   3.305 -0.4253 -0.1065 -0.4179
  186MOL0    Cl25575   3.101   5.346   3.346 -0.2661  0.3591  0.1617
  186MOL0     C25576   3.368   5.803   4.126  0.0940  0.1561  0.1257
  186MOL0     C25577   3.340   5.806   4.262 -0.8464 -0.1876  0.8841
  186MOL0     O25578   3.300   5.633   4.498 -0.1670 -0.5008 -0.4555
  186MOL0     C25579   3.166   5.569   4.720 -0.4322  0.3366 -0.8133
  186MOL0     C25580   3.090   5.535   4.832  0.0054  0.2116 -0.1305
  186MOL0     N25581   2.675   5.541   5.345 -0.7339 -0.1540 -1.2371
  186MOL0     N25582   2.786   5.583   5.408  0.6332  0.4462  0.3222
  186MOL0     C25583   3.593   5.232   5.743  0.1611  0.0002  0.6828
  186MOL0     C25584   3.532   5.129   5.822  0.2816 -0.6351 -0.5934
  186MOL0     C25585   3.404   4.721   5.934  0.2299 -0.4155  0.0212
  186MOL0     C25586   3.397   4.604   5.867  0.0661  0.7440  0.1419
  186MOL0     C25587   3.346   4.490   5.945  0.6557 -0.4915  0.4475
  186MOL0     C25588   3.312   4.493   6.075  0.4034  1.4612 -1.0805
  186MOL0     O25589   3.278   4.376   6.142  0.5791 -0.3830  0.0985
  186MOL0     C25590   3.256   4.388   6.281 -0.5884 -0.5415  0.4811
  186MOL0     C25591   3.265   4.249   6.346 -0.3123  0.0924  0.1004
  186MOL0     C25592   3.176   4.140   6.286 -0.0323  0.0833  0.5295
  186MOL0     C25593   3.059   4.111   6.385  0.9045  0.3696  0.8005
  186MOL0     C25594   3.003   3.979   6.348 -0.0906 -0.5010  0.3868
  186MOL0     C25595   2.947   3.871   6.341  0.3388 -0.6443 -0.6003
  186MOL0     C25596   3.319   4.618   6.133  0.0267  0.3226 -0.1834
  186MOL0     C25597   3.369   4.737   6.070 -0.6586 -0.3623  0.3372
  186MOL0     C25598   3.371   4.878   6.141 -0.4684 -0.0127  0.2034
  186MOL0     H25599   3.298   5.033   5.607 -2.3278  1.7164  2.3255
  186MOL0     H25600   3.413   5.177   5.458  0.9540 -1.6507 -0.8944
  186MOL0     H25601   3.725   5.478   5.643 -0.5023  2.5553 -0.7132
  186MOL0     H25602   3.560   5.497   5.686  1.2650  1.3643  2.5208
  186MOL0     H25603   3.679   5.681   5.532 -0.6114 -0.6392 -2.4409
  186MOL0     H25604   3.674   5.561   5.404  1.6658  2.1604 -0.3462
  186MOL0     H25605   3.422   5.553   5.468  0.1726  1.2585  3.0414
  186MOL0     H25606   3.451   5.733   5.501 -1.3602  0.9436 -3.7316
  186MOL0     H25607   3.503   5.775   5.276 -1.5865  0.7433  0.3108
  186MOL0     H25608   3.516   5.607   5.234  0.3277 -0.2628  0.2779
  186MOL0     H25609   3.292   5.557   5.277 -2.6656 -0.6681  2.7130
  186MOL0     H25610   3.295   5.692   5.163  3.2938 -1.6147 -0.5806
  186MOL0     H25611   3.221   5.730   5.456 -1.3248  2.4586  0.0282
  186MOL0     H25612   3.227   5.850   5.325  0.2488  0.7559  2.7028
  186MOL0     H25613   3.077   5.596   5.317  0.8393 -0.6701  0.2114
  186MOL0     H25614   3.064   5.723   5.196  0.6291  1.4456 -0.3095
  186MOL0     H25615   2.970   5.760   5.487 -2.2403 -0.3954  0.2833
  186MOL0     H25616   2.935   5.877   5.352 -0.4694  0.1011 -0.6006
  186MOL0     H25617   2.754   5.811   5.180  0.1609  0.5658  2.5429
  186MOL0     H25618   2.495   5.709   5.101 -1.5277  0.9077  2.5953
  186MOL0     H25619   2.440   5.583   5.207 -0.6653 -0.0436 -1.9544
  186MOL0     H25620   2.579   5.418   5.087  1.0074  1.6953  2.8524
  186MOL0     H25621   2.486   5.510   4.966  0.3865 -0.5182  0.2223
  186MOL0     H25622   2.679   5.513   4.858 -0.2673 -3.7002  1.5856
  186MOL0     H25623   2.702   5.670   4.950  4.8427 -0.5089  1.0021
  186MOL0     H25624   2.809   5.451   5.102 -0.9972 -0.5894  0.6822
  186MOL0     H25625   2.847   5.419   4.930  1.2804  0.9092 -0.2320
  186MOL0     H25626   2.901   5.818   4.864 -1.3057  1.2928 -3.8658
  186MOL0     H25627   2.896   5.936   4.675 -0.9318 -0.2620  1.5516
  186MOL0     H25628   2.978   5.888   4.527  1.7943  0.1796  0.9178
  186MOL0     H25629   3.060   5.987   4.639  0.2123 -0.9078  0.2695
  186MOL0     H25630   3.004   5.826   4.238  0.2985  2.5226 -0.2204
  186MOL0     H25631   3.063   5.850   4.001 -0.3505  3.0377  0.6094
  186MOL0     H25632   3.401   5.958   3.878  0.6385  0.7289  3.2847
  186MOL0     H25633   3.488   5.810   3.900  0.1933  0.6177 -2.2164
  186MOL0     H25634   3.321   5.879   3.648 -0.5439 -0.7383  2.6920
  186MOL0     H25635   3.490   5.881   3.660  0.3172 -1.9763 -1.2610
  186MOL0     H25636   3.303   5.667   3.606 -1.3096  1.8626 -0.6761
  186MOL0     H25637   3.427   5.612   3.736  2.0415 -0.2820  0.4168
  186MOL0     H25638   3.611   5.662   3.590 -0.0507 -2.5092  1.3527
  186MOL0     H25639   3.503   5.713   3.456  1.3507 -2.6467 -1.5984
  186MOL0     H25640   3.569   5.458   3.431 -3.0068 -4.2137 -1.5777
  186MOL0     H25641   3.493   5.440   3.595 -2.7469 -1.8609 -1.4053
  186MOL0     H25642   3.363   5.525   3.335 -1.9978 -0.0740 -0.0689
  186MOL0     H25643   3.281   5.481   3.490  1.5211 -0.2495  1.6953
  186MOL0     H25644   3.385   5.242   3.476  0.8225 -1.7005 -0.0304
  186MOL0     H25645   3.462   5.306   3.331 -0.4250  0.8767  0.8771
  186MOL0     H25646   3.230   5.154   3.310 -1.3452 -0.0919 -2.0272
  186MOL0     H25647   3.263   5.285   3.199 -3.7855  2.4881 -0.5948
  186MOL0     H25648   3.473   5.811   4.100 -0.3688  0.5712 -1.7802
  186MOL0     H25649   3.428   5.797   4.325 -1.4843 -0.6694  1.7302
  186MOL0     H25650   3.248   5.506   4.687  2.2582  3.8574 -1.4650
  186MOL0     H25651   3.106   5.443   4.887 -0.6519  0.2981  0.2143
  186MOL0     H25652   3.669   5.295   5.788  0.1989 -1.6414  3.1020
  186MOL0     H25653   3.566   5.116   5.925 -1.4106 -1.3765 -0.0959
  186MOL0     H25654   3.421   4.598   5.761  1.0066  1.3091  0.3154
  186MOL0     H25655   3.315   4.399   5.895 -6.0422  2.5067 -2.0764
  186MOL0     H25656   3.315   4.461   6.336 -0.0855 -1.0159  0.5755
  186MOL0     H25657   3.150   4.418   6.287 -1.1187 -1.3909 -2.5683
  186MOL0     H25658   3.254   4.257   6.454  0.5212 -1.6335  0.3456
  186MOL0     H25659   3.370   4.225   6.332  0.3892  0.2347  4.1167
  186MOL0     H25660   3.149   4.169   6.184  2.2595 -0.1879 -0.2004
  186MOL0     H25661   3.238   4.049   6.283  2.0832  1.4368  1.1368
  186MOL0     H25662   2.974   4.178   6.372 -1.2923 -2.4828 -0.8061
  186MOL0     H25663   3.095   4.120   6.488  0.6228  2.8885  0.7238
  186MOL0     H25664   2.880   3.788   6.353 -3.3680  2.2672  0.5082
  186MOL0     H25665   3.290   4.644   6.235  1.9274  1.0553  0.2169
  186MOL0     H25666   3.284   4.940   6.113  0.7478  0.5155 -2.7814
  186MOL0     H25667   3.370   4.878   6.250  0.7462  0.2719  0.2236
  186MOL0     H25668   3.458   4.932   6.104 -0.6386  1.9646  2.4337
  187MOL0     O25669   3.015  11.121   8.761 -0.7919 -0.3162  1.0598
  187MOL0     C25670   3.054  11.144   8.651 -0.3514  0.4714  0.9693
  187MOL0     O25671   3.114  11.049   8.568  0.9305  0.5967  0.4470
  187MOL0     C25672   3.109  10.920   8.599  0.2989 -1.0106 -0.0734
  187MOL0     C25673   3.233  10.848   8.591  0.7355 -0.4975  0.3363
  187MOL0     C25674   3.230  10.706   8.604  0.2577 -0.1274 -0.4204
  187MOL0     C25675   3.113  10.635   8.640  1.1769 -0.2475 -0.3939
  187MOL0     O25676   3.098  10.506   8.683  0.7700  0.0035  1.0319
  187MOL0     C25677   3.000  10.432   8.611  0.6289 -0.3160 -0.0596
  187MOL0     C25678   3.053  10.290   8.598  0.8360 -0.9830  0.8883
  187MOL0     C25679   2.965  10.215   8.491  0.1536 -0.7590  1.0222
  187MOL0     C25680   2.936  10.291   8.347  0.1739 -1.2265 -0.2275
  187MOL0     C25681   2.849  10.206   8.264  1.2006  1.0292  0.4907
  187MOL0     C25682   2.816  10.265   8.123  0.0986  0.7261 -1.1929
  187MOL0     C25683   2.925  10.244   8.023  0.1207  0.5997  0.5868
  187MOL0     C25684   2.910  10.109   7.958  1.1401 -0.9987 -0.7208
  187MOL0     N25685   2.818  10.104   7.842  1.1480 -0.4187 -0.1926
  187MOL0     C25686   2.682  10.080   7.831  0.3709 -0.1702  0.1703
  187MOL0     C25687   2.655  10.117   7.706 -0.4175  0.3333  0.5799
  187MOL0     C25688   2.514  10.117   7.641  0.1843 -0.1671 -0.7271
  187MOL0     C25689   2.405  10.156   7.752 -0.7010 -0.1586 -0.0894
  187MOL0     C25690   2.434  10.294   7.808 -0.2421  0.6844 -0.6010
  187MOL0     C25691   2.466  10.415   7.719 -0.7613  0.3898  0.3283
  187MOL0     O25692   2.450  10.539   7.797  0.3884  1.1567 -0.0556
  187MOL0     C25693   2.365  10.629   7.751  0.0900 -1.3472  0.3467
  187MOL0     C25694   2.351  10.663   7.615 -1.0145  0.8496  0.3133
  187MOL0     C25695   2.263  10.760   7.572  0.5377  0.2687 -0.7936
  187MOL0     C25696   2.255  10.809   7.429  0.9149 -0.4491 -0.0578
  187MOL0     C25697   2.179  10.827   7.682 -0.0197 -0.4476  0.0953
  187MOL0     C25698   2.070  10.920   7.648 -0.5384  0.5565  0.0615
  187MOL0     O25699   2.000  10.902   7.536 -0.5630  0.7608  0.6609
  187MOL0     C25700   1.898  10.982   7.511  0.6536  0.6317  0.8238
  187MOL0     C25701   1.924  11.113   7.471 -0.5578  0.3163 -0.5696
  187MOL0     C25702   1.823  11.204   7.444 -0.3273  0.5776 -0.2272
  187MOL0     C25703   1.693  11.161   7.448  0.7018 -0.1778  0.6426
  187MOL0     O25704   1.596  11.254   7.405  0.0766  0.4616 -0.0252
  187MOL0     C25705   1.456  11.225   7.427  0.8592  0.4750 -0.1649
  187MOL0     C25706   1.429  11.230   7.585 -0.3395  0.2336  0.3790
  187MOL0     C25707   1.287  11.214   7.611  0.4996 -0.3423  0.4151
  187MOL0     C25708   1.230  11.232   7.753 -0.2426 -0.6143  0.3897
  187MOL0     C25709   1.248  11.367   7.807  1.5898 -0.2086  0.1188
  187MOL0     C25710   1.135  11.453   7.766 -0.1657 -0.5703  0.0404
  187MOL0     C25711   1.010  11.466   7.862  1.2014 -0.5789 -0.3980
  187MOL0     C25712   1.022  11.557   7.982 -0.4786  0.2569 -1.2518
  187MOL0    Cl25713   0.866  11.644   8.010  0.2401  0.2907 -0.1217
  187MOL0     C25714   1.667  11.029   7.496 -0.5786 -0.5806 -0.3438
  187MOL0     C25715   1.763  10.941   7.538 -0.6306 -0.4762  0.1099
  187MOL0     O25716   2.045  10.999   7.733  0.1651 -0.4195  0.5420
  187MOL0     C25717   2.209  10.799   7.817  1.7202  1.1589  0.1801
  187MOL0     C25718   2.298  10.697   7.844 -0.2694 -0.1960  0.2585
  187MOL0     N25719   2.770  10.132   7.630  0.3002 -0.1234  0.3247
  187MOL0     N25720   2.865  10.129   7.719  0.1794 -0.5944 -0.2757
  187MOL0     C25721   2.993  10.712   8.654 -0.0615 -0.8365  0.8392
  187MOL0     C25722   2.997  10.855   8.637 -0.0206  0.8976 -0.4423
  187MOL0     C25723   3.025  11.274   8.587  0.1211  0.1555  0.4246
  187MOL0     C25724   3.001  11.283   8.450 -0.0594 -0.3782 -0.3557
  187MOL0     C25725   2.962  11.400   8.381 -0.4143 -0.0958 -0.5193
  187MOL0     C25726   2.945  11.518   8.452  0.0983  0.4203 -0.1680
  187MOL0     O25727   2.887  11.616   8.382 -0.3103 -0.3363  0.1380
  187MOL0     C25728   2.828  11.717   8.469  0.6726 -0.3778  0.9321
  187MOL0     C25729   2.752  11.822   8.377 -0.0085  0.4042 -0.5976
  187MOL0     C25730   2.630  11.766   8.303 -0.1670  0.1581  0.0022
  187MOL0     C25731   2.513  11.747   8.400 -0.2252 -0.3387  0.6892
  187MOL0     C25732   2.469  11.868   8.470  0.2159 -1.3268 -0.3421
  187MOL0     C25733   2.433  11.964   8.537 -0.0033  1.3843  0.2628
  187MOL0     C25734   2.982  11.517   8.591 -0.3550 -0.5662  0.1166
  187MOL0     C25735   3.022  11.399   8.656 -0.0187  0.2124 -0.2381
  187MOL0     C25736   3.052  11.425   8.804  0.1460 -0.5741 -0.0059
  187MOL0     H25737   3.327  10.896   8.564 -0.0585  0.0683 -1.5755
  187MOL0     H25738   3.323  10.653   8.582 -0.5009 -0.4474 -3.2771
  187MOL0     H25739   2.999  10.476   8.511  3.2761 -1.2542 -0.6047
  187MOL0     H25740   2.899  10.448   8.648  0.7490  2.5188 -0.7024
  187MOL0     H25741   3.157  10.287   8.564  0.7976  2.9033 -0.0143
  187MOL0     H25742   3.055  10.241   8.696  2.1492  0.3513  1.5617
  187MOL0     H25743   3.013  10.122   8.459  3.7270  1.6024 -1.1386
  187MOL0     H25744   2.869  10.193   8.539 -0.7083 -2.5744 -1.3394
  187MOL0     H25745   2.913  10.398   8.351 -0.7934 -1.3779 -1.1166
  187MOL0     H25746   3.033  10.300   8.298  0.4745 -0.1071  0.5296
  187MOL0     H25747   2.757  10.201   8.324  0.4479 -0.2871 -0.7098
  187MOL0     H25748   2.896  10.108   8.252  2.7049  1.6471  1.0444
  187MOL0     H25749   2.717  10.231   8.092 -0.4462 -1.1778  2.1418
  187MOL0     H25750   2.803  10.373   8.137  1.0111  0.4603  3.2779
  187MOL0     H25751   3.020  10.270   8.070  0.3688  3.6053 -1.3408
  187MOL0     H25752   2.901  10.325   7.954  0.5803 -0.2441 -0.6008
  187MOL0     H25753   3.005  10.059   7.934  1.1654 -1.5986  0.5602
  187MOL0     H25754   2.867  10.045   8.035  2.0153  3.0266  3.5828
  187MOL0     H25755   2.618  10.046   7.912 -0.6871 -0.9189 -0.9404
  187MOL0     H25756   2.501  10.012   7.613  1.2148 -0.0787 -1.6166
  187MOL0     H25757   2.518  10.178   7.550 -0.8394 -2.7193 -2.5810
  187MOL0     H25758   2.307  10.159   7.705 -0.6497  4.4811 -0.2668
  187MOL0     H25759   2.406  10.090   7.839 -2.7242  2.8479  2.4134
  187MOL0     H25760   2.346  10.322   7.866  1.2923 -1.2857  2.9743
  187MOL0     H25761   2.509  10.270   7.884 -1.2520 -1.5252 -0.2076
  187MOL0     H25762   2.569  10.401   7.687 -0.8210 -2.8987  1.2288
  187MOL0     H25763   2.401  10.411   7.631  1.5223  2.5925 -1.6077
  187MOL0     H25764   2.407  10.606   7.542  1.4984  2.8057  0.5978
  187MOL0     H25765   2.347  10.786   7.373 -0.5069  0.1971 -2.8296
  187MOL0     H25766   2.236  10.914   7.453  4.6569  0.4687 -0.4249
  187MOL0     H25767   2.171  10.765   7.375  0.6016 -0.1901  0.2127
  187MOL0     H25768   2.027  11.142   7.456 -0.9902  0.6808 -3.3782
  187MOL0     H25769   1.843  11.300   7.397 -1.4453  0.4728 -0.9455
  187MOL0     H25770   1.391  11.299   7.378  0.2864 -0.1805 -0.4076
  187MOL0     H25771   1.437  11.128   7.381 -0.5620 -0.2969  1.9439
  187MOL0     H25772   1.491  11.155   7.635 -1.9248 -0.7777  0.9201
  187MOL0     H25773   1.456  11.331   7.617 -2.9939  0.6335  1.6211
  187MOL0     H25774   1.260  11.110   7.590 -0.9551  0.2676 -0.9517
  187MOL0     H25775   1.237  11.276   7.535  0.4761  1.0690  1.5353
  187MOL0     H25776   1.282  11.172   7.829 -0.5209 -0.4530  0.7088
  187MOL0     H25777   1.125  11.201   7.757 -0.5287  0.1393 -0.7854
  187MOL0     H25778   1.253  11.375   7.916 -1.9257  1.6143  0.2937
  187MOL0     H25779   1.336  11.424   7.776 -0.6374  2.3872 -1.8310
  187MOL0     H25780   1.089  11.425   7.671 -1.4254 -2.6230  1.1805
  187MOL0     H25781   1.176  11.554   7.755 -1.6245  0.1103  0.5353
  187MOL0     H25782   0.985  11.368   7.904  1.1378 -0.7009 -0.7182
  187MOL0     H25783   0.931  11.499   7.794 -0.3925  0.5443  1.8844
  187MOL0     H25784   1.103  11.630   7.969 -2.0837  2.3930 -0.0607
  187MOL0     H25785   1.048  11.502   8.073 -0.9127 -1.9005 -2.3675
  187MOL0     H25786   1.562  11.008   7.511 -1.1392  3.0241  2.1183
  187MOL0     H25787   1.742  10.839   7.570 -0.5721 -1.0595 -1.6054
  187MOL0     H25788   2.150  10.841   7.898  0.3631 -0.4265  0.0925
  187MOL0     H25789   2.321  10.669   7.947 -2.9834  0.9185  1.2674
  187MOL0     H25790   2.896  10.666   8.663 -1.0299  0.4505 -1.8331
  187MOL0     H25791   2.904  10.908   8.655 -0.4400 -0.6530  2.4467
  187MOL0     H25792   3.001  11.194   8.389 -0.1758 -0.7306  0.1546
  187MOL0     H25793   2.923  11.395   8.280 -1.7095  3.6898 -0.3615
  187MOL0     H25794   2.764  11.668   8.542  2.0137 -3.1941  0.3373
  187MOL0     H25795   2.915  11.770   8.511  0.1616  0.2517  1.2166
  187MOL0     H25796   2.819  11.872   8.307  1.3585 -0.6940 -0.1244
  187MOL0     H25797   2.720  11.904   8.442 -4.3242 -1.2124 -0.3737
  187MOL0     H25798   2.598  11.849   8.239  0.9825  2.5790  2.3602
  187MOL0     H25799   2.650  11.679   8.239 -0.2647 -0.1387  0.3709
  187MOL0     H25800   2.557  11.684   8.478  1.1390 -0.6514 -0.3084
  187MOL0     H25801   2.431  11.709   8.338 -2.3994  2.7577  1.4362
  187MOL0     H25802   2.395  12.044   8.597 -3.3187  0.8552 -0.8980
  187MOL0     H25803   2.981  11.609   8.648 -0.6274 -1.2933  1.3271
  187MOL0     H25804   3.123  11.359   8.854  0.8037 -1.6814 -2.2914
  187MOL0     H25805   3.074  11.531   8.820 -0.7367 -0.3661 -0.1156
  187MOL0     H25806   2.955  11.401   8.849  0.4560 -0.0920  0.9605
  188MOL0     O25807  10.951   2.868   4.504 -0.1028 -0.6739  0.0832
  188MOL0     C25808  10.960   2.880   4.629 -0.2150  0.4291  0.0167
  188MOL0     O25809  10.971   3.003   4.701  1.0243  0.6526 -0.5542
  188MOL0     C25810  10.935   3.109   4.628 -0.5165  0.5279 -0.3961
  188MOL0     C25811  10.801   3.128   4.597  0.3868 -0.1377 -0.2727
  188MOL0     C25812  10.756   3.240   4.529 -0.7633  0.4187 -0.3717
  188MOL0     C25813  10.855   3.338   4.495  0.4298  0.7291 -0.3609
  188MOL0     O25814  10.830   3.440   4.403  0.0874  0.0007 -0.2157
  188MOL0     C25815  10.707   3.512   4.413 -0.4571 -0.0220 -0.1967
  188MOL0     C25816  10.707   3.658   4.353  0.0056 -0.1389 -0.4703
  188MOL0     C25817  10.826   3.735   4.419 -0.6994 -0.2188 -0.3894
  188MOL0     C25818  10.816   3.889   4.394  0.1266  0.3369 -0.3131
  188MOL0     C25819  10.924   3.977   4.455  0.0091 -0.4450  0.7252
  188MOL0     C25820  10.961   4.098   4.365  0.4609 -0.8557  0.0683
  188MOL0     C25821  10.860   4.204   4.339 -0.2412  0.0616  0.6967
  188MOL0     C25822  10.910   4.352   4.345  0.4974 -0.1996 -0.7430
  188MOL0     N25823  11.020   4.386   4.257  1.0751  0.2513  0.3849
  188MOL0     C25824  11.005   4.416   4.125  0.1608 -0.2336  0.5828
  188MOL0     C25825  11.128   4.420   4.079 -0.5244 -0.6882  0.2776
  188MOL0     C25826  11.174   4.475   3.945  0.1096  0.3166 -0.5755
  188MOL0     C25827  11.205   4.357   3.848  0.7005 -0.0601 -1.2809
  188MOL0     C25828  11.323   4.369   3.750  0.1874 -0.0617  0.0031
  188MOL0     C25829  11.329   4.252   3.648 -0.2126 -0.8247 -0.7992
  188MOL0     O25830  11.238   4.238   3.542  1.3731  0.0135 -1.0722
  188MOL0     C25831  11.219   4.122   3.464 -0.1685 -0.2301 -0.6668
  188MOL0     C25832  11.097   4.110   3.399 -0.8336 -1.0908 -0.4151
  188MOL0     C25833  11.073   3.998   3.317  0.5618 -0.1457  0.3870
  188MOL0     C25834  10.945   4.008   3.242  0.3379  0.4425  0.7135
  188MOL0     C25835  11.171   3.890   3.308  0.4745  0.3569 -0.1494
  188MOL0     C25836  11.145   3.762   3.240 -0.9252  0.3425 -0.2514
  188MOL0     O25837  11.248   3.712   3.176 -0.3333  0.1641 -0.3580
  188MOL0     C25838  11.260   3.577   3.143 -0.3753 -0.1856  0.1155
  188MOL0     C25839  11.384   3.547   3.079  0.1498  1.4032  0.1604
  188MOL0     C25840  11.408   3.405   3.045 -0.4119  0.0451 -0.4743
  188MOL0     C25841  11.317   3.309   3.086  0.3020 -0.3609  0.4184
  188MOL0     O25842  11.336   3.179   3.042 -0.3943 -0.0188 -0.0704
  188MOL0     C25843  11.288   3.160   2.907 -0.4552  0.2410 -0.5460
  188MOL0     C25844  11.139   3.096   2.923 -0.5937 -0.0798  0.6466
  188MOL0     C25845  11.148   2.954   2.980 -0.1673  0.9345  0.5459
  188MOL0     C25846  11.010   2.893   2.975 -0.2889  0.4556 -0.9164
  188MOL0     C25847  11.001   2.742   3.020 -1.2017  0.5061 -1.4739
  188MOL0     C25848  10.861   2.690   3.029 -0.1944 -0.0117  0.8076
  188MOL0     C25849  10.836   2.559   3.100 -0.2967 -0.0624 -0.0492
  188MOL0     C25850  10.712   2.483   3.063 -0.2784  0.9703 -0.1436
  188MOL0    Cl25851  10.749   2.430   2.903  0.0973  0.7929  0.0108
  188MOL0     C25852  11.195   3.342   3.147 -0.5919  0.2772 -0.9033
  188MOL0     C25853  11.181   3.476   3.186 -0.4226  0.8511 -0.1991
  188MOL0     O25854  11.038   3.717   3.243  0.0421 -0.7766 -0.9453
  188MOL0     C25855  11.288   3.904   3.381 -0.2687 -0.6022  0.1645
  188MOL0     C25856  11.313   4.019   3.462 -0.1849 -0.1372  0.8882
  188MOL0     N25857  11.220   4.404   4.183 -0.1363  1.0658  0.2129
  188MOL0     N25858  11.150   4.380   4.293  0.4475  0.4046 -0.7320
  188MOL0     C25859  10.989   3.312   4.522 -0.1231  1.0321  0.7253
  188MOL0     C25860  11.033   3.203   4.600 -0.2696  0.5479 -0.4279
  188MOL0     C25861  10.989   2.741   4.691  0.7875 -0.1412 -0.0663
  188MOL0     C25862  10.947   2.622   4.621  0.5870 -0.2085 -0.5436
  188MOL0     C25863  10.970   2.484   4.669 -0.7340 -0.3721 -0.0235
  188MOL0     C25864  11.020   2.467   4.801 -0.1636 -0.1688 -0.2825
  188MOL0     O25865  11.058   2.349   4.860  0.6601 -0.1547  0.3394
  188MOL0     C25866  11.193   2.328   4.852 -0.9237 -0.4706  0.6328
  188MOL0     C25867  11.229   2.256   4.719  0.1019  0.8794 -0.1401
  188MOL0     C25868  11.172   2.116   4.716 -0.1654 -0.8326 -0.0225
  188MOL0     C25869  11.250   2.030   4.612  0.6949  0.3617 -0.6258
  188MOL0     C25870  11.220   2.069   4.474 -0.1472 -0.6581  0.3976
  188MOL0     C25871  11.178   2.101   4.359 -1.1890 -0.3993  0.1123
  188MOL0     C25872  11.053   2.582   4.863  0.3591 -0.3482 -0.4440
  188MOL0     C25873  11.050   2.715   4.813 -0.3055 -0.4808 -0.3436
  188MOL0     C25874  11.103   2.816   4.902 -0.0427 -0.1826 -0.5805
  188MOL0     H25875  10.732   3.060   4.645  0.5059  0.5291  0.8688
  188MOL0     H25876  10.651   3.258   4.506 -1.4391  0.3663  2.3651
  188MOL0     H25877  10.691   3.513   4.521 -3.3165  1.0954 -0.5489
  188MOL0     H25878  10.630   3.446   4.373 -1.1866 -1.0557  2.7216
  188MOL0     H25879  10.726   3.650   4.246 -4.7868  0.6289 -1.5953
  188MOL0     H25880  10.613   3.711   4.370  0.0199 -0.9023  2.7530
  188MOL0     H25881  10.832   3.716   4.526 -0.9232 -0.3747 -0.4053
  188MOL0     H25882  10.919   3.700   4.371  0.2557  1.2618  0.2996
  188MOL0     H25883  10.816   3.909   4.286 -0.7890  2.6867  0.0510
  188MOL0     H25884  10.723   3.934   4.428  0.5748  0.7082  0.4507
  188MOL0     H25885  11.018   3.921   4.469  0.3927 -1.2596 -3.6152
  188MOL0     H25886  10.882   4.013   4.549 -1.4584  0.6349 -0.3143
  188MOL0     H25887  11.039   4.148   4.423 -0.3829  0.5594  0.0312
  188MOL0     H25888  11.000   4.066   4.268 -0.5289  0.7164 -0.8827
  188MOL0     H25889  10.786   4.187   4.419  1.4253 -2.9359  1.7662
  188MOL0     H25890  10.799   4.192   4.249 -0.3292 -2.2315  0.9990
  188MOL0     H25891  10.826   4.422   4.335  0.1126 -0.1537  2.1019
  188MOL0     H25892  10.946   4.371   4.446 -2.8323  1.0830  0.3258
  188MOL0     H25893  10.908   4.444   4.084  0.7320  0.7621 -0.1335
  188MOL0     H25894  11.239   4.560   3.963 -3.2163  3.5002 -2.2688
  188MOL0     H25895  11.083   4.523   3.908  0.6983  3.3426  1.5912
  188MOL0     H25896  11.220   4.266   3.906 -1.7797  0.0537 -0.3314
  188MOL0     H25897  11.119   4.352   3.780 -0.1881  1.6166 -0.3636
  188MOL0     H25898  11.322   4.459   3.688 -0.2574  0.9272  1.3977
  188MOL0     H25899  11.413   4.367   3.811  0.0174 -0.1438  0.2517
  188MOL0     H25900  11.426   4.262   3.600 -0.4338 -0.0298 -1.0945
  188MOL0     H25901  11.321   4.159   3.705 -0.7695 -0.6423 -0.5639
  188MOL0     H25902  11.027   4.193   3.408  0.0061 -0.5476  1.7748
  188MOL0     H25903  10.862   3.956   3.292 -1.0592  0.7493 -1.1836
  188MOL0     H25904  10.961   3.970   3.141 -2.5115 -2.8317  1.3086
  188MOL0     H25905  10.911   4.111   3.233  2.4565  0.9900 -3.7600
  188MOL0     H25906  11.442   3.630   3.038  1.2001 -0.0266 -1.4089
  188MOL0     H25907  11.502   3.383   2.996 -0.5275 -3.5423  0.6304
  188MOL0     H25908  11.297   3.257   2.859  1.7578  0.1838 -0.3055
  188MOL0     H25909  11.354   3.089   2.856  2.2622  0.7970  1.9333
  188MOL0     H25910  11.065   3.143   2.988 -1.2433 -1.9681  1.3365
  188MOL0     H25911  11.111   3.087   2.817 -0.2339  0.8193  0.4680
  188MOL0     H25912  11.189   2.967   3.080  0.5164  6.5966 -0.1366
  188MOL0     H25913  11.222   2.903   2.918  0.1001  0.4027  1.2925
  188MOL0     H25914  10.975   2.887   2.872  0.5019 -2.3529 -1.1043
  188MOL0     H25915  10.946   2.960   3.032  2.3512  3.4869 -1.2766
  188MOL0     H25916  11.072   2.674   2.972 -0.2074 -2.2782  3.3634
  188MOL0     H25917  11.021   2.749   3.127 -2.2550  0.9449 -1.2905
  188MOL0     H25918  10.827   2.685   2.925  1.1002  2.4147  0.2135
  188MOL0     H25919  10.796   2.761   3.081 -1.8752 -1.5505  0.9090
  188MOL0     H25920  10.833   2.582   3.207 -1.1923  1.1091 -0.3025
  188MOL0     H25921  10.922   2.496   3.075  1.4355  1.8346  0.8986
  188MOL0     H25922  10.624   2.545   3.047 -1.0739 -0.4060 -1.4362
  188MOL0     H25923  10.694   2.398   3.129  3.1961 -1.9861 -2.5966
  188MOL0     H25924  11.125   3.263   3.175 -1.3927  1.1456 -0.3984
  188MOL0     H25925  11.099   3.488   3.256 -0.4245 -0.1359 -0.0237
  188MOL0     H25926  11.356   3.820   3.395  1.7246  1.3793  4.1620
  188MOL0     H25927  11.407   4.022   3.516  2.4433 -0.5040 -3.1613
  188MOL0     H25928  11.056   3.385   4.480 -1.1090  1.1093 -0.7838
  188MOL0     H25929  11.135   3.197   4.636  0.0067 -3.1967 -1.4043
  188MOL0     H25930  10.890   2.613   4.529  0.0319 -3.5245  0.0024
  188MOL0     H25931  10.945   2.394   4.615  0.6138  0.3415 -1.9576
  188MOL0     H25932  11.248   2.422   4.847 -0.1890 -0.9642 -1.1645
  188MOL0     H25933  11.237   2.267   4.932 -1.4824 -2.3651 -0.4502
  188MOL0     H25934  11.338   2.263   4.714  0.2393 -1.3267 -2.5665
  188MOL0     H25935  11.195   2.320   4.637 -0.2527 -2.5231 -2.9081
  188MOL0     H25936  11.186   2.060   4.808 -0.1094 -1.6258 -0.5000
  188MOL0     H25937  11.066   2.102   4.692 -0.8437  0.9251  1.7395
  188MOL0     H25938  11.232   1.924   4.628  0.3562  0.3890 -0.7927
  188MOL0     H25939  11.358   2.036   4.621  0.4995  1.5370  1.7448
  188MOL0     H25940  11.136   2.103   4.261 -0.7758 -0.6181 -0.0745
  188MOL0     H25941  11.103   2.555   4.956 -1.1729  0.6288  0.7137
  188MOL0     H25942  11.207   2.845   4.892 -0.0958  0.3218  0.2392
  188MOL0     H25943  11.049   2.910   4.887  0.6526  0.4423  0.6635
  188MOL0     H25944  11.083   2.781   5.004  2.6532 -0.0176  0.0780
  189MOL0     O25945   2.173   7.527   3.951 -0.3071  0.7998  0.1383
  189MOL0     C25946   2.113   7.484   4.048  0.1974 -0.2022  0.3043
  189MOL0     O25947   2.005   7.398   4.054 -1.2258  0.7461  0.3134
  189MOL0     C25948   1.905   7.393   3.962 -0.1697  0.5507  0.3155
  189MOL0     C25949   1.812   7.282   3.958  0.1938 -0.1350 -0.2566
  189MOL0     C25950   1.710   7.272   3.872  0.6385 -0.2351 -0.5847
  189MOL0     C25951   1.694   7.360   3.768 -0.4952 -1.3222 -0.5250
  189MOL0     O25952   1.584   7.360   3.683  0.6820 -0.2182  0.6973
  189MOL0     C25953   1.567   7.458   3.565  0.6635  0.1488 -0.9345
  189MOL0     C25954   1.424   7.449   3.510  0.0016 -0.3783 -0.0102
  189MOL0     C25955   1.415   7.488   3.358  1.7023  0.5634 -0.3508
  189MOL0     C25956   1.483   7.627   3.327 -0.7985  1.6066 -0.3631
  189MOL0     C25957   1.428   7.676   3.190  0.5713  0.2531  0.3316
  189MOL0     C25958   1.433   7.588   3.073 -0.4756  0.5693  0.0404
  189MOL0     C25959   1.364   7.655   2.954  0.1100 -0.1101 -0.1243
  189MOL0     C25960   1.426   7.795   2.915 -0.8801  0.9187  1.0637
  189MOL0     N25961   1.560   7.788   2.853 -0.8089 -0.2248  0.0065
  189MOL0     C25962   1.680   7.762   2.924  0.0109 -1.1640 -0.2645
  189MOL0     C25963   1.782   7.743   2.827  0.4317  0.6200  0.3810
  189MOL0     C25964   1.926   7.708   2.843  0.4954  0.4244  0.3997
  189MOL0     C25965   2.009   7.711   2.725  0.9553  0.1239  1.2208
  189MOL0     C25966   2.161   7.720   2.758 -0.4521  0.0512 -1.2918
  189MOL0     C25967   2.227   7.585   2.814  0.9020  0.7333  0.8570
  189MOL0     O25968   2.181   7.552   2.949 -0.0590 -0.1465  0.0474
  189MOL0     C25969   2.201   7.427   3.001 -1.2845 -0.7502  0.2449
  189MOL0     C25970   2.259   7.326   2.925  0.0479  0.5449  0.1292
  189MOL0     C25971   2.292   7.203   2.974 -0.3659 -0.0961 -0.0505
  189MOL0     C25972   2.389   7.110   2.899  0.2210 -0.0604 -0.3669
  189MOL0     C25973   2.259   7.171   3.106 -0.6862 -0.1642 -0.8088
  189MOL0     C25974   2.299   7.041   3.181  0.3728  0.0512 -0.4250
  189MOL0     O25975   2.239   7.023   3.300  0.7891 -0.5278 -0.4176
  189MOL0     C25976   2.269   6.917   3.378  0.4661  0.9237  0.0092
  189MOL0     C25977   2.329   6.937   3.499  0.3106 -0.7112  0.1069
  189MOL0     C25978   2.352   6.834   3.587  0.7665  0.0729 -0.6332
  189MOL0     C25979   2.311   6.700   3.564 -0.7230  0.0302  0.2934
  189MOL0     O25980   2.326   6.595   3.651 -0.3615 -0.0965 -0.1349
  189MOL0     C25981   2.343   6.638   3.792  0.3779 -0.1988  0.5977
  189MOL0     C25982   2.338   6.517   3.891  0.8953  0.0675  0.1213
  189MOL0     C25983   2.217   6.427   3.870 -0.0261 -0.3336  0.3983
  189MOL0     C25984   2.080   6.501   3.899 -0.9093 -0.0476  0.2459
  189MOL0     C25985   2.043   6.534   4.048  0.3936  0.1375 -0.5855
  189MOL0     C25986   2.016   6.415   4.151  0.0751 -0.0990  0.5430
  189MOL0     C25987   1.901   6.334   4.093 -1.0229 -0.7107  0.7494
  189MOL0     C25988   1.858   6.211   4.160  0.6550 -0.1726  0.2101
  189MOL0    Cl25989   1.774   6.267   4.315  0.2419 -0.1754  0.0933
  189MOL0     C25990   2.242   6.682   3.443 -0.7548 -0.5049  0.1383
  189MOL0     C25991   2.214   6.792   3.357  0.6293 -0.5239  0.3873
  189MOL0     O25992   2.391   6.975   3.132  0.2197  0.5807  0.1010
  189MOL0     C25993   2.185   7.267   3.179 -0.3704 -1.0122 -0.4659
  189MOL0     C25994   2.165   7.396   3.131  0.4154 -0.5455 -0.8695
  189MOL0     N25995   1.727   7.755   2.704 -0.0155 -1.0218 -0.3089
  189MOL0     N25996   1.602   7.785   2.719  0.2221  0.6490  0.2618
  189MOL0     C25997   1.775   7.479   3.779  0.9153  0.1026 -0.3114
  189MOL0     C25998   1.875   7.495   3.873 -0.8242 -0.1609 -0.1989
  189MOL0     C25999   2.180   7.495   4.183 -0.0025 -0.4682  0.0268
  189MOL0     C26000   2.165   7.387   4.264  0.2092 -0.3977  0.6908
  189MOL0     C26001   2.221   7.391   4.386  0.0842 -1.1794 -1.0802
  189MOL0     C26002   2.300   7.495   4.430  0.3933  0.1281 -0.5540
  189MOL0     O26003   2.357   7.490   4.555  0.8981 -0.4505 -0.0890
  189MOL0     C26004   2.430   7.372   4.608  0.7344 -0.0427  0.1106
  189MOL0     C26005   2.351   7.324   4.724 -0.7616 -0.0627 -0.3984
  189MOL0     C26006   2.439   7.223   4.815  0.3732 -0.3244  0.8366
  189MOL0     C26007   2.360   7.135   4.911  0.4716  0.7232  0.0412
  189MOL0     C26008   2.469   7.075   4.979 -0.0463  0.5798  0.2142
  189MOL0     C26009   2.567   7.038   5.036  0.1040  0.0381  0.2621
  189MOL0     C26010   2.332   7.595   4.340  0.7837  0.2065  0.0661
  189MOL0     C26011   2.276   7.599   4.216 -0.3305 -0.2539  0.7760
  189MOL0     C26012   2.319   7.715   4.117  0.3950 -0.4905  0.1674
  189MOL0     H26013   1.811   7.205   4.034 -0.1986  0.6453  0.5532
  189MOL0     H26014   1.637   7.192   3.873  0.7484 -0.4287 -2.8932
  189MOL0     H26015   1.646   7.416   3.502  0.0064 -1.2403 -0.8759
  189MOL0     H26016   1.579   7.566   3.572 -0.5127  0.2371  0.1645
  189MOL0     H26017   1.373   7.355   3.532  0.2297 -0.8563 -1.4051
  189MOL0     H26018   1.357   7.508   3.573  0.8601 -0.0300  0.5962
  189MOL0     H26019   1.447   7.399   3.302 -5.0057 -1.9347 -1.1823
  189MOL0     H26020   1.308   7.503   3.340  1.7399  0.6622 -0.4873
  189MOL0     H26021   1.472   7.684   3.419  0.9405  0.8351  0.3663
  189MOL0     H26022   1.591   7.616   3.314 -0.9845  0.0329 -0.7349
  189MOL0     H26023   1.484   7.770   3.181 -2.6064  2.6753  2.9749
  189MOL0     H26024   1.321   7.696   3.189  0.1518 -1.8462  0.4658
  189MOL0     H26025   1.540   7.576   3.049 -0.3302  3.7862 -1.4488
  189MOL0     H26026   1.391   7.488   3.082 -0.3183  0.3137 -1.6808
  189MOL0     H26027   1.261   7.673   2.986 -0.5808 -1.0218 -1.6917
  189MOL0     H26028   1.359   7.593   2.863  2.2286 -0.0707 -0.2993
  189MOL0     H26029   1.348   7.840   2.852 -3.0603 -2.1013  1.3877
  189MOL0     H26030   1.444   7.854   3.006  1.1556 -1.4289  2.3019
  189MOL0     H26031   1.703   7.757   3.030  1.2795  0.8480 -0.3876
  189MOL0     H26032   1.910   7.604   2.869 -1.9259 -0.0664 -2.4756
  189MOL0     H26033   1.963   7.772   2.924 -1.0830  0.7840  0.8706
  189MOL0     H26034   1.973   7.629   2.663  0.0038 -0.3073  2.3015
  189MOL0     H26035   1.984   7.799   2.665 -1.5864 -2.8686 -2.5705
  189MOL0     H26036   2.213   7.743   2.664  2.2578 -0.9509 -0.1103
  189MOL0     H26037   2.178   7.803   2.827 -2.6549 -0.6811  0.2302
  189MOL0     H26038   2.204   7.507   2.741  5.6132  1.8729 -2.2785
  189MOL0     H26039   2.336   7.588   2.807  0.8191  0.0395 -2.2655
  189MOL0     H26040   2.300   7.355   2.829 -0.4729 -0.5014 -0.4307
  189MOL0     H26041   2.394   7.150   2.797 -2.1911  0.1051 -0.4748
  189MOL0     H26042   2.347   7.010   2.887  2.6407 -1.0213 -1.5307
  189MOL0     H26043   2.490   7.112   2.941 -0.0622  0.1581  0.3277
  189MOL0     H26044   2.352   7.041   3.523  0.3239 -0.8400  0.6784
  189MOL0     H26045   2.400   6.864   3.679  0.8411 -1.9708  0.0534
  189MOL0     H26046   2.439   6.688   3.812 -0.2482  1.4009 -0.1492
  189MOL0     H26047   2.267   6.715   3.808 -0.5538 -1.0466  0.3478
  189MOL0     H26048   2.427   6.457   3.872  1.3398  0.5862  0.5398
  189MOL0     H26049   2.338   6.560   3.991 -2.9304 -0.2162  0.3862
  189MOL0     H26050   2.215   6.343   3.940  1.6040 -2.2822 -1.7331
  189MOL0     H26051   2.232   6.395   3.767  2.4218  0.0436  0.5788
  189MOL0     H26052   2.004   6.438   3.852  0.3351 -1.3172 -0.1342
  189MOL0     H26053   2.090   6.600   3.853  2.4610  0.6663  2.1586
  189MOL0     H26054   2.121   6.594   4.094  0.9253 -0.7978 -0.2558
  189MOL0     H26055   1.949   6.590   4.041 -1.6369 -3.1674 -2.2996
  189MOL0     H26056   1.986   6.449   4.251  1.4288 -2.2194  1.7482
  189MOL0     H26057   2.111   6.363   4.152  1.1379  1.7473  0.3400
  189MOL0     H26058   1.923   6.308   3.989  2.8508  3.4158  0.2648
  189MOL0     H26059   1.818   6.404   4.099 -0.7230 -0.2553 -0.2321
  189MOL0     H26060   1.950   6.164   4.194  0.2820 -0.8849  0.2565
  189MOL0     H26061   1.788   6.150   4.102  0.2766  0.8215 -0.3912
  189MOL0     H26062   2.217   6.582   3.410  0.1839  0.5245 -4.3078
  189MOL0     H26063   2.167   6.795   3.260  5.1878  0.4167 -2.0953
  189MOL0     H26064   2.139   7.245   3.274 -1.1488  0.6918 -0.4303
  189MOL0     H26065   2.111   7.470   3.190 -2.2927 -0.3534 -3.3109
  189MOL0     H26066   1.752   7.561   3.712  0.2456 -1.5305 -2.1713
  189MOL0     H26067   1.930   7.587   3.890 -2.6293  1.2849 -1.7802
  189MOL0     H26068   2.127   7.289   4.237  0.0512 -0.1834  0.1141
  189MOL0     H26069   2.193   7.303   4.444 -0.0422 -0.3489  0.1433
  189MOL0     H26070   2.437   7.295   4.531  1.6432  3.5627 -3.7843
  189MOL0     H26071   2.534   7.398   4.627  1.4029 -2.4470  0.0595
  189MOL0     H26072   2.257   7.276   4.696 -1.3715  1.2211 -0.6159
  189MOL0     H26073   2.326   7.402   4.796  0.8020  0.8692 -0.8136
  189MOL0     H26074   2.481   7.152   4.743 -3.4781 -2.6315  0.6216
  189MOL0     H26075   2.517   7.278   4.870  0.7192 -1.1970  1.2429
  189MOL0     H26076   2.299   7.056   4.868  1.5628  1.1868 -2.5341
  189MOL0     H26077   2.306   7.201   4.980 -0.1537 -0.4734  0.7244
  189MOL0     H26078   2.660   6.993   5.064 -0.6582 -3.9810 -2.7377
  189MOL0     H26079   2.414   7.663   4.361 -0.1901  1.6037 -0.5208
  189MOL0     H26080   2.394   7.685   4.042 -2.0080 -0.6407 -2.3180
  189MOL0     H26081   2.242   7.771   4.064  0.4327 -0.3276  0.2847
  189MOL0     H26082   2.370   7.793   4.175  1.2117 -0.2218 -0.8751
  190MOL0     O26083   2.470  10.007   4.093  0.1286  0.3195  0.4367
  190MOL0     C26084   2.586  10.005   4.052 -0.3068 -0.3104  0.6614
  190MOL0     O26085   2.667  10.112   4.037 -0.1970  0.1641  0.2182
  190MOL0     C26086   2.627  10.243   4.053  0.4471 -0.0878  0.2556
  190MOL0     C26087   2.525  10.278   4.144  0.5387  0.6458  0.3482
  190MOL0     C26088   2.465  10.407   4.155 -0.2531  0.4189 -0.5562
  190MOL0     C26089   2.524  10.512   4.083  0.5664 -0.1872  0.1496
  190MOL0     O26090   2.481  10.639   4.077 -0.3636  0.1498  0.0289
  190MOL0     C26091   2.338  10.660   4.073 -0.4466  0.4528 -0.2744
  190MOL0     C26092   2.249  10.581   3.972  1.2561  0.6517 -0.8200
  190MOL0     C26093   2.113  10.539   4.028 -0.5749 -0.1566 -0.2273
  190MOL0     C26094   1.998  10.554   3.937  0.7891  0.1611  0.8189
  190MOL0     C26095   1.990  10.460   3.810  0.9006  0.9673 -0.1692
  190MOL0     C26096   2.007  10.312   3.840 -1.1115 -0.5097 -0.5674
  190MOL0     C26097   1.968  10.225   3.713  0.5086 -0.7488 -0.0508
  190MOL0     C26098   1.986  10.078   3.728  0.4332  0.2958  0.5554
  190MOL0     N26099   1.969  10.004   3.606  0.6014  0.4204  0.8870
  190MOL0     C26100   2.026  10.027   3.481 -0.2220 -1.0607 -0.1922
  190MOL0     C26101   1.941   9.970   3.386  0.2556  0.3175  0.2801
  190MOL0     C26102   1.963   9.968   3.233 -0.4170  0.0422 -0.5266
  190MOL0     C26103   2.081   9.886   3.178  0.3186 -0.7788 -0.7180
  190MOL0     C26104   2.137   9.780   3.276 -0.1641  0.0401  0.0324
  190MOL0     C26105   2.253   9.710   3.208 -1.1398 -0.3499 -0.2421
  190MOL0     O26106   2.249   9.569   3.249  0.2551  0.9183 -0.5545
  190MOL0     C26107   2.345   9.474   3.217 -0.7704  0.2946  0.6562
  190MOL0     C26108   2.479   9.497   3.185  0.1545 -0.0619  0.1290
  190MOL0     C26109   2.562   9.387   3.140 -0.1633  0.8630  1.0914
  190MOL0     C26110   2.721   9.416   3.130 -0.1503 -0.2031  0.4492
  190MOL0     C26111   2.512   9.261   3.113  0.2325  1.2185  0.1252
  190MOL0     C26112   2.594   9.149   3.067 -0.1566  0.2862 -0.3571
  190MOL0     O26113   2.668   9.156   2.951  0.8407  0.2041 -0.1662
  190MOL0     C26114   2.746   9.054   2.905  0.1913  0.6517  0.4512
  190MOL0     C26115   2.857   9.014   2.979  1.2326  0.2470 -0.0580
  190MOL0     C26116   2.951   8.931   2.906  0.9340 -1.0927  0.3779
  190MOL0     C26117   2.921   8.877   2.782 -0.5260 -0.6211 -0.0873
  190MOL0     O26118   3.013   8.785   2.737  0.6657  0.0101 -0.2788
  190MOL0     C26119   3.000   8.734   2.603  0.1727 -0.2375 -0.3326
  190MOL0     C26120   3.100   8.614   2.588  0.3564  0.3477 -0.7322
  190MOL0     C26121   3.126   8.577   2.442 -0.5146  0.4239 -0.2936
  190MOL0     C26122   2.995   8.545   2.365  0.4324 -0.8402 -1.5537
  190MOL0     C26123   3.004   8.425   2.279 -0.5545  0.5171 -0.6123
  190MOL0     C26124   2.871   8.384   2.225 -0.5720 -0.2489  0.1619
  190MOL0     C26125   2.857   8.249   2.167 -0.0219 -0.9849  0.2557
  190MOL0     C26126   2.793   8.155   2.256  0.2710 -0.7400  0.4723
  190MOL0    Cl26127   2.620   8.169   2.247 -0.2812 -0.0941  0.2796
  190MOL0     C26128   2.815   8.929   2.710  0.1151 -0.5785  0.0303
  190MOL0     C26129   2.716   9.012   2.778 -0.5667  0.2367 -0.0583
  190MOL0     O26130   2.595   9.050   3.141 -0.4873 -0.3379  0.1746
  190MOL0     C26131   2.382   9.242   3.172  0.5323  0.6285 -0.1066
  190MOL0     C26132   2.301   9.343   3.219 -0.2432 -0.3044  0.9464
  190MOL0     N26133   1.843   9.897   3.460  0.5178  0.3643  0.8176
  190MOL0     N26134   1.854   9.930   3.589  0.4340  0.0627  0.1595
  190MOL0     C26135   2.633  10.471   3.994 -0.1256 -0.5622 -0.8020
  190MOL0     C26136   2.693  10.345   3.989  0.2994 -0.9759 -0.0047
  190MOL0     C26137   2.656   9.877   4.028 -0.1503  0.2929 -0.2204
  190MOL0     C26138   2.767   9.868   3.942 -0.7530 -0.1506 -0.2012
  190MOL0     C26139   2.835   9.749   3.903 -0.5682  0.5557 -0.1454
  190MOL0     C26140   2.789   9.628   3.948 -0.3879  0.2931 -0.0205
  190MOL0     O26141   2.852   9.508   3.914  0.6496 -0.1113 -0.2950
  190MOL0     C26142   2.772   9.401   3.844  0.1046 -0.6530 -0.2125
  190MOL0     C26143   2.812   9.270   3.904 -0.6087 -1.0994 -0.2875
  190MOL0     C26144   2.751   9.249   4.043 -0.3104 -0.3403 -1.1106
  190MOL0     C26145   2.601   9.200   4.041  0.1537  0.3648  0.1073
  190MOL0     C26146   2.504   9.307   4.057 -0.3831 -0.1141 -0.5255
  190MOL0     C26147   2.424   9.408   4.084  0.2117  0.2642  0.7362
  190MOL0     C26148   2.679   9.631   4.035  0.2704 -0.1550  0.7394
  190MOL0     C26149   2.616   9.749   4.081 -0.4072  0.0296  0.1956
  190MOL0     C26150   2.505   9.743   4.184 -0.2041 -0.6178  0.1244
  190MOL0     H26151   2.487  10.198   4.206 -0.8526 -0.3764 -1.7176
  190MOL0     H26152   2.375  10.414   4.216 -1.6645 -0.8775 -2.3977
  190MOL0     H26153   2.331  10.768   4.063  2.5293  0.8676  1.0302
  190MOL0     H26154   2.305  10.640   4.175  1.3089 -2.3648 -0.1256
  190MOL0     H26155   2.229  10.647   3.887  1.1998 -1.8011 -2.8288
  190MOL0     H26156   2.302  10.489   3.947  2.3023  0.1152  2.7059
  190MOL0     H26157   2.118  10.439   4.072  0.1495 -0.1900 -0.3801
  190MOL0     H26158   2.098  10.616   4.105 -0.6191 -1.6250  1.3004
  190MOL0     H26159   1.900  10.549   3.986 -0.1458 -0.1527 -0.9760
  190MOL0     H26160   2.006  10.652   3.891 -0.0118 -0.4541 -0.7275
  190MOL0     H26161   2.075  10.483   3.744  3.5802 -0.6253  2.4669
  190MOL0     H26162   1.903  10.479   3.746  0.0283 -0.7338  0.4543
  190MOL0     H26163   2.105  10.287   3.881 -2.5332  1.2247  4.6535
  190MOL0     H26164   1.948  10.287   3.929  0.8654  1.6646  1.4771
  190MOL0     H26165   2.026  10.253   3.625 -2.1488 -2.5767 -2.6017
  190MOL0     H26166   1.864  10.250   3.690 -0.2734  0.0053  3.7027
  190MOL0     H26167   2.081  10.041   3.765 -0.0379 -0.6596  0.8480
  190MOL0     H26168   1.920  10.050   3.811  0.9697  0.9447  1.2116
  190MOL0     H26169   2.119  10.083   3.472 -1.5892  1.6417  1.2519
  190MOL0     H26170   1.974  10.070   3.195  0.4904  0.2551  0.2856
  190MOL0     H26171   1.869   9.935   3.186 -1.4751  4.0931 -1.6826
  190MOL0     H26172   2.028   9.824   3.106 -0.9203  1.9730 -2.3269
  190MOL0     H26173   2.161   9.948   3.136  1.8873 -2.4386 -0.3055
  190MOL0     H26174   2.172   9.827   3.368 -0.8418 -2.0929  1.4500
  190MOL0     H26175   2.051   9.717   3.301  0.9324 -1.4056  0.3151
  190MOL0     H26176   2.234   9.713   3.101  0.7425  0.8648 -0.5937
  190MOL0     H26177   2.347   9.766   3.222 -1.2147  0.6855 -3.2832
  190MOL0     H26178   2.516   9.599   3.183 -0.9734  0.4231  1.8963
  190MOL0     H26179   2.779   9.333   3.172  3.9435  3.7105  3.6280
  190MOL0     H26180   2.760   9.512   3.164  2.3274 -1.8733  2.8606
  190MOL0     H26181   2.735   9.417   3.022  1.7880 -2.9397  0.5489
  190MOL0     H26182   2.873   9.049   3.080 -4.0872 -2.9192  2.3181
  190MOL0     H26183   3.048   8.897   2.942  0.1849 -2.5175  1.1515
  190MOL0     H26184   2.900   8.693   2.588  1.4639 -3.1721 -1.8086
  190MOL0     H26185   3.014   8.808   2.524  0.7093  2.1330  1.8587
  190MOL0     H26186   3.188   8.644   2.645 -0.2863 -1.2017  1.1623
  190MOL0     H26187   3.053   8.536   2.649  2.6174  0.9450  1.9739
  190MOL0     H26188   3.187   8.485   2.441 -0.3371  0.5180 -2.1084
  190MOL0     H26189   3.183   8.655   2.391 -0.0109  2.0087  2.5420
  190MOL0     H26190   2.967   8.628   2.299 -0.7667  0.3312  0.3546
  190MOL0     H26191   2.911   8.535   2.434  1.2109  6.0393  1.2584
  190MOL0     H26192   3.083   8.440   2.206  2.0826  1.8210  2.2846
  190MOL0     H26193   3.043   8.349   2.347  1.9753 -0.8405 -3.3644
  190MOL0     H26194   2.838   8.461   2.155  0.5701  0.5412  0.4655
  190MOL0     H26195   2.802   8.371   2.309  1.4266 -0.3580  1.8622
  190MOL0     H26196   2.954   8.207   2.137  1.2247  0.8492  1.5445
  190MOL0     H26197   2.806   8.263   2.071 -1.0947  0.4121  0.9888
  190MOL0     H26198   2.831   8.160   2.358  1.9530 -0.6735 -0.1197
  190MOL0     H26199   2.826   8.057   2.222  3.7244  0.8707 -1.3919
  190MOL0     H26200   2.796   8.898   2.608  2.8691  5.9538 -3.0210
  190MOL0     H26201   2.635   9.047   2.715  2.4096  2.0725 -3.2821
  190MOL0     H26202   2.340   9.143   3.153  1.8324 -0.4240  2.1025
  190MOL0     H26203   2.201   9.316   3.252 -0.3846  1.4732  2.1333
  190MOL0     H26204   2.686  10.546   3.935 -1.5873  2.9554  1.9421
  190MOL0     H26205   2.775  10.328   3.920 -2.1102  0.0307 -3.3999
  190MOL0     H26206   2.816   9.961   3.912  1.5289 -0.8577  1.1075
  190MOL0     H26207   2.913   9.755   3.828  1.3804 -1.4660  1.5726
  190MOL0     H26208   2.666   9.420   3.862  0.1501  1.2435 -1.6578
  190MOL0     H26209   2.798   9.408   3.738 -1.1043 -0.0703 -0.4903
  190MOL0     H26210   2.920   9.280   3.915 -0.5636 -1.2536 -0.5688
  190MOL0     H26211   2.794   9.185   3.837 -2.6592 -0.3579 -0.7605
  190MOL0     H26212   2.796   9.161   4.089 -2.4498 -0.2749  1.2945
  190MOL0     H26213   2.755   9.336   4.109 -3.1311 -1.7264  1.0662
  190MOL0     H26214   2.600   9.143   4.135  0.6329  1.9946  1.1315
  190MOL0     H26215   2.585   9.149   3.945  2.5700  2.8693 -1.8037
  190MOL0     H26216   2.354   9.486   4.103  0.8336  1.0846 -0.2250
  190MOL0     H26217   2.651   9.530   4.062 -0.6467 -0.9608 -2.7674
  190MOL0     H26218   2.501   9.649   4.240 -0.9913  0.3514  1.7414
  190MOL0     H26219   2.527   9.816   4.261 -2.4491  1.3640 -0.9612
  190MOL0     H26220   2.412   9.765   4.129  1.7674 -0.2347 -3.3720
  191MOL0     O26221   3.171   2.531   0.249 -0.3290  0.6656  0.2315
  191MOL0     C26222   3.175   2.418   0.194  0.3563 -0.2247 -0.1679
  191MOL0     O26223   3.250   2.387   0.094 -0.4780 -0.1740 -0.4698
  191MOL0     C26224   3.327   2.479   0.027 -1.6010 -0.4409 -0.1528
  191MOL0     C26225   3.274   2.600  -0.027  0.5741 -0.2734 -0.5926
  191MOL0     C26226   3.364   2.700  -0.067 -0.1960 -0.4113 -0.2511
  191MOL0     C26227   3.505   2.686  -0.067  0.6571  0.2709 -0.1296
  191MOL0     O26228   3.588   2.786  -0.110  0.5073 -0.5733  0.1693
  191MOL0     C26229   3.698   2.757  -0.209  0.6066  0.7789 -0.1884
  191MOL0     C26230   3.743   2.879  -0.283 -0.6849  0.0806 -0.2695
  191MOL0     C26231   3.653   2.908  -0.404 -0.3530 -0.3055  0.4597
  191MOL0     C26232   3.694   3.031  -0.468  0.1161 -0.2797 -0.3447
  191MOL0     C26233   3.594   3.076  -0.571 -0.7290 -0.5104  0.0339
  191MOL0     C26234   3.668   3.192  -0.651 -0.3979 -0.8082 -1.3117
  191MOL0     C26235   3.592   3.244  -0.775  0.4349 -0.2798 -0.3524
  191MOL0     C26236   3.439   3.247  -0.759  0.3376 -0.3211  0.3330
  191MOL0     N26237   3.382   3.308  -0.876 -0.3182  0.0120  0.2748
  191MOL0     C26238   3.326   3.431  -0.887 -0.3141  1.3064 -0.8471
  191MOL0     C26239   3.285   3.429  -1.023  0.5575 -0.4531 -0.0125
  191MOL0     C26240   3.238   3.556  -1.094  0.8031  0.0135 -0.1322
  191MOL0     C26241   3.331   3.672  -1.100  0.0597 -0.4850 -0.9194
  191MOL0     C26242   3.247   3.802  -1.078  1.5340  0.2528  0.3966
  191MOL0     C26243   3.324   3.925  -1.123  0.4831 -0.3187 -0.3390
  191MOL0     O26244   3.453   3.911  -1.070 -0.2528 -0.5452 -0.3800
  191MOL0     C26245   3.533   3.993  -1.144 -0.7067 -0.1506  0.6121
  191MOL0     C26246   3.630   3.922  -1.215 -0.3273 -0.4436 -1.1722
  191MOL0     C26247   3.728   3.992  -1.287  0.5844  0.4330 -0.1285
  191MOL0     C26248   3.829   3.907  -1.363 -0.1969  0.2267 -0.1057
  191MOL0     C26249   3.721   4.136  -1.297 -0.7270  0.4524  0.4564
  191MOL0     C26250   3.797   4.216  -1.395 -0.4276 -0.0760  0.3145
  191MOL0     O26251   3.785   4.356  -1.377 -0.3073 -1.1604 -0.3520
  191MOL0     C26252   3.886   4.430  -1.437 -0.4269 -0.2071  0.4991
  191MOL0     C26253   3.852   4.506  -1.549 -0.0630 -0.1185 -0.2393
  191MOL0     C26254   3.930   4.615  -1.589 -0.4123  0.1283  0.0673
  191MOL0     C26255   4.045   4.644  -1.514  0.6455  0.1576 -0.5595
  191MOL0     O26256   4.131   4.738  -1.558 -0.6435  0.7138 -0.6202
  191MOL0     C26257   4.144   4.854  -1.475  0.0760  0.2771 -0.6814
  191MOL0     C26258   4.275   4.925  -1.504 -0.2181  0.1893  0.6140
  191MOL0     C26259   4.267   5.006  -1.634  0.3241  0.0120 -0.7515
  191MOL0     C26260   4.401   5.054  -1.705 -1.2532  0.1550 -0.1949
  191MOL0     C26261   4.390   5.116  -1.852 -0.1344  0.5179  1.1269
  191MOL0     C26262   4.407   4.996  -1.957 -0.8060 -0.2327 -0.6570
  191MOL0     C26263   4.410   5.042  -2.104  0.1143  1.0220 -0.2570
  191MOL0     C26264   4.276   5.122  -2.128 -0.5857 -0.1945  0.9399
  191MOL0    Cl26265   4.306   5.194  -2.284 -0.3460  0.1755 -0.0530
  191MOL0     C26266   4.089   4.554  -1.424 -0.3181 -0.0721 -0.6318
  191MOL0     C26267   4.005   4.447  -1.377  0.5011 -0.5558  0.3451
  191MOL0     O26268   3.863   4.164  -1.477 -0.1760  0.5304 -0.0700
  191MOL0     C26269   3.622   4.198  -1.224  1.9356  0.1496  0.0108
  191MOL0     C26270   3.529   4.128  -1.150  0.0174  0.4066  0.1011
  191MOL0     N26271   3.325   3.315  -1.081 -0.3165 -0.1427 -0.5344
  191MOL0     N26272   3.370   3.232  -0.995 -0.2039 -0.0686 -0.0140
  191MOL0     C26273   3.552   2.557  -0.017  0.1540 -0.4693  0.8045
  191MOL0     C26274   3.467   2.459   0.032 -0.0665  0.0556  0.0191
  191MOL0     C26275   3.084   2.316   0.241  0.1861  0.0504 -1.8211
  191MOL0     C26276   3.106   2.184   0.209 -0.1560  0.2264 -0.0225
  191MOL0     C26277   2.999   2.089   0.228  0.0725  0.0431  0.7021
  191MOL0     C26278   2.888   2.122   0.294 -0.3426  2.2480 -0.4979
  191MOL0     O26279   2.780   2.029   0.322 -0.6815 -1.4070  0.0371
  191MOL0     C26280   2.691   2.013   0.218  0.6107 -0.1031  0.7651
  191MOL0     C26281   2.730   1.910   0.111  0.4819  0.7754  0.2142
  191MOL0     C26282   2.757   1.773   0.168 -0.4854  0.5723 -1.0723
  191MOL0     C26283   2.880   1.687   0.115  0.1694  0.7039 -0.2780
  191MOL0     C26284   2.873   1.541   0.167  0.2288 -0.0025 -0.8692
  191MOL0     C26285   2.859   1.427   0.198 -0.3669 -0.0978 -0.7533
  191MOL0     C26286   2.879   2.250   0.347 -0.1641  1.1011  0.7771
  191MOL0     C26287   2.979   2.347   0.331  0.5420  0.4311 -0.2841
  191MOL0     C26288   2.944   2.484   0.375  0.3702 -0.5900 -0.6826
  191MOL0     H26289   3.167   2.618  -0.027  0.7941  1.3293  1.2630
  191MOL0     H26290   3.311   2.792  -0.089 -0.0490 -0.6096 -1.4947
  191MOL0     H26291   3.666   2.677  -0.277 -0.9108  0.6496  0.6337
  191MOL0     H26292   3.779   2.701  -0.159 -1.0417 -0.2844  1.4244
  191MOL0     H26293   3.729   2.960  -0.211 -1.2512 -0.5561  0.3375
  191MOL0     H26294   3.849   2.870  -0.311 -0.4003  1.1069  0.3901
  191MOL0     H26295   3.658   2.828  -0.478  2.6824  1.0101 -0.9475
  191MOL0     H26296   3.548   2.922  -0.378  0.0326  0.5681  1.6555
  191MOL0     H26297   3.706   3.113  -0.396  2.5397 -1.5329  0.8159
  191MOL0     H26298   3.796   3.021  -0.507 -0.1946 -2.2213 -0.7485
  191MOL0     H26299   3.516   3.109  -0.502  0.7769  1.5273  0.8808
  191MOL0     H26300   3.570   2.984  -0.626  3.1085 -0.0522 -2.8194
  191MOL0     H26301   3.704   3.279  -0.596  0.0277  0.0172 -2.8389
  191MOL0     H26302   3.758   3.146  -0.693 -0.6711  0.0055 -2.8419
  191MOL0     H26303   3.614   3.167  -0.850  2.7462 -2.5096  2.3810
  191MOL0     H26304   3.632   3.345  -0.795  1.6179 -0.3112  1.5865
  191MOL0     H26305   3.421   3.141  -0.743  4.2476 -0.8542  2.6762
  191MOL0     H26306   3.411   3.297  -0.665 -2.2846  0.4832 -0.7761
  191MOL0     H26307   3.308   3.508  -0.813  0.6085  0.3660  0.3991
  191MOL0     H26308   3.144   3.586  -1.046 -1.0526 -4.9894  0.0170
  191MOL0     H26309   3.210   3.525  -1.195 -1.4941 -2.1813  1.0604
  191MOL0     H26310   3.399   3.669  -1.014  0.3981  0.2663 -1.1486
  191MOL0     H26311   3.385   3.670  -1.195 -0.6346  1.0673 -1.3783
  191MOL0     H26312   3.160   3.799  -1.144  1.6213 -1.5642  0.3362
  191MOL0     H26313   3.224   3.809  -0.971  0.8631 -2.4814  0.4895
  191MOL0     H26314   3.312   3.946  -1.229  0.3233 -0.2596 -0.3103
  191MOL0     H26315   3.276   4.009  -1.072  0.6158  0.0964 -0.8948
  191MOL0     H26316   3.642   3.815  -1.198  3.5244  0.1240  0.8734
  191MOL0     H26317   3.803   3.801  -1.355  1.7680 -0.4175 -1.5864
  191MOL0     H26318   3.931   3.928  -1.329 -0.3354  0.1289  0.3780
  191MOL0     H26319   3.814   3.917  -1.471 -0.5129 -2.8429 -0.4287
  191MOL0     H26320   3.763   4.490  -1.609  1.2513  0.7246 -2.5622
  191MOL0     H26321   3.889   4.671  -1.673 -0.1571  0.1539 -0.0407
  191MOL0     H26322   4.055   4.918  -1.483 -0.2214 -0.3187 -2.6491
  191MOL0     H26323   4.143   4.817  -1.372  1.8135  4.2371  0.9715
  191MOL0     H26324   4.290   4.996  -1.422  0.3717  0.1149  0.5747
  191MOL0     H26325   4.357   4.854  -1.508 -1.5037 -1.3477  0.5864
  191MOL0     H26326   4.210   5.097  -1.615 -1.0314 -1.4859  3.2905
  191MOL0     H26327   4.213   4.944  -1.706 -0.3882  2.2766 -2.2804
  191MOL0     H26328   4.477   4.975  -1.691  0.8987  2.1107 -0.1758
  191MOL0     H26329   4.444   5.132  -1.641 -0.3274  0.9418 -1.7088
  191MOL0     H26330   4.294   5.167  -1.861  0.2576  0.8628 -2.6749
  191MOL0     H26331   4.469   5.187  -1.877  1.2427 -0.9570  1.1093
  191MOL0     H26332   4.328   4.921  -1.949  1.3174 -2.4122  0.9876
  191MOL0     H26333   4.505   4.950  -1.945  0.7265  2.0555 -3.2564
  191MOL0     H26334   4.412   4.957  -2.172  0.4439 -0.7229  1.8196
  191MOL0     H26335   4.488   5.113  -2.133  2.8833 -1.8178 -0.3369
  191MOL0     H26336   4.246   5.196  -2.054 -2.8902  0.5920 -0.6823
  191MOL0     H26337   4.200   5.044  -2.136 -0.3795 -0.5411  2.1745
  191MOL0     H26338   4.182   4.565  -1.370 -1.3255 -1.8237  1.6335
  191MOL0     H26339   4.034   4.373  -1.303  0.0582 -3.1478 -1.9165
  191MOL0     H26340   3.603   4.305  -1.218  0.3731 -0.1664  1.8256
  191MOL0     H26341   3.456   4.180  -1.090 -1.6528  1.0967 -2.3557
  191MOL0     H26342   3.660   2.542  -0.022  0.6817  2.7434  0.4978
  191MOL0     H26343   3.505   2.363   0.067 -1.7806  0.0277  2.0156
  191MOL0     H26344   3.189   2.147   0.148 -0.8182  0.4229 -1.0631
  191MOL0     H26345   3.018   1.995   0.176 -0.5248  0.2775  0.0355
  191MOL0     H26346   2.588   1.992   0.249  0.3946  0.9315  0.7660
  191MOL0     H26347   2.672   2.104   0.161  1.1447 -1.3992 -1.6109
  191MOL0     H26348   2.803   1.952   0.041  1.1612  0.8017  0.9214
  191MOL0     H26349   2.644   1.913   0.043  1.5172  4.7434 -1.1723
  191MOL0     H26350   2.758   1.787   0.276 -1.3626 -1.8845 -0.6802
  191MOL0     H26351   2.662   1.729   0.137 -1.4112  2.7869 -1.5544
  191MOL0     H26352   2.972   1.741   0.141  1.8478 -2.2733  0.3582
  191MOL0     H26353   2.878   1.689   0.006  2.1530 -2.0754 -0.4493
  191MOL0     H26354   2.859   1.324   0.227 -0.8402  0.4515  1.3503
  191MOL0     H26355   2.791   2.271   0.407 -0.6980 -0.5441  0.6167
  191MOL0     H26356   2.865   2.473   0.449  2.1885  0.4475  1.5253
  191MOL0     H26357   3.031   2.527   0.424 -0.7219 -0.6973  1.4498
  191MOL0     H26358   2.903   2.543   0.292  2.2016 -1.9361 -2.6509
  192MOL0     O26359   5.143  10.340   4.895  0.0340 -0.5589 -0.7878
  192MOL0     C26360   5.017  10.345   4.891  0.1542  0.4066 -0.2327
  192MOL0     O26361   4.935  10.436   4.956  0.7067 -0.5720 -0.7983
  192MOL0     C26362   4.997  10.537   5.036 -0.3536  0.1731  0.2563
  192MOL0     C26363   5.017  10.511   5.176  0.3449 -0.5250 -0.2429
  192MOL0     C26364   5.084  10.604   5.244  0.0969  0.1389 -0.8070
  192MOL0     C26365   5.132  10.720   5.193  1.3476  0.3709  0.3970
  192MOL0     O26366   5.195  10.813   5.269 -0.1993 -0.7902 -0.6381
  192MOL0     C26367   5.293  10.794   5.366  0.1896  0.8426  0.4929
  192MOL0     C26368   5.356  10.929   5.371  0.5047 -0.1237  0.1490
  192MOL0     C26369   5.495  10.935   5.443 -0.2683 -0.2396 -0.5750
  192MOL0     C26370   5.494  10.896   5.585 -0.6908  0.1757  0.5680
  192MOL0     C26371   5.632  10.924   5.646 -0.7937  0.0349 -0.6267
  192MOL0     C26372   5.731  10.817   5.604 -0.4960  0.1668 -0.8412
  192MOL0     C26373   5.856  10.870   5.526 -0.3352 -0.0646  0.6158
  192MOL0     C26374   5.975  10.776   5.521  0.0791  0.3801 -0.3748
  192MOL0     N26375   6.097  10.833   5.457  0.4607  0.2093  1.0234
  192MOL0     C26376   6.109  10.893   5.330  1.0659 -0.0066  0.0369
  192MOL0     C26377   6.240  10.931   5.311 -0.6643  0.2072  0.0977
  192MOL0     C26378   6.279  11.011   5.194 -0.5288  0.0231 -0.0666
  192MOL0     C26379   6.275  10.941   5.059  0.3065 -0.1421  0.8384
  192MOL0     C26380   6.401  10.862   5.021 -0.3771 -0.3724 -0.4968
  192MOL0     C26381   6.369  10.716   4.982 -0.4270  0.6271 -0.3225
  192MOL0     O26382   6.480  10.641   4.951 -0.1913 -0.9195 -0.0209
  192MOL0     C26383   6.517  10.637   4.821  0.1174 -0.3128 -0.9007
  192MOL0     C26384   6.651  10.664   4.779 -0.0973  0.4837  0.1889
  192MOL0     C26385   6.705  10.632   4.656 -0.1204  0.1900  0.2832
  192MOL0     C26386   6.842  10.676   4.637 -1.4323  0.3304  1.0487
  192MOL0     C26387   6.622  10.566   4.556  0.5513 -1.2484 -0.3383
  192MOL0     C26388   6.676  10.531   4.426  0.9405 -0.2340 -0.4624
  192MOL0     O26389   6.586  10.518   4.329 -0.1402  0.5594  0.2187
  192MOL0     C26390   6.620  10.457   4.212 -0.4037  0.2727  0.6795
  192MOL0     C26391   6.601  10.528   4.096 -0.3175  0.7467 -0.9712
  192MOL0     C26392   6.624  10.478   3.966 -0.6104  0.5934  0.0127
  192MOL0     C26393   6.685  10.349   3.957  0.2959 -0.2855 -1.1121
  192MOL0     O26394   6.732  10.293   3.845  0.2293 -0.0320  0.5692
  192MOL0     C26395   6.852  10.222   3.860 -0.8708 -0.4198  0.6241
  192MOL0     C26396   6.934  10.223   3.718 -0.7036  0.3090  0.2613
  192MOL0     C26397   7.015  10.094   3.695  0.5517  0.0545 -0.2006
  192MOL0     C26398   7.055  10.067   3.547 -0.3085 -0.1623 -0.1484
  192MOL0     C26399   7.079   9.917   3.510 -0.3822  0.1527  0.0865
  192MOL0     C26400   7.169   9.890   3.381 -0.8736 -0.6019  0.8499
  192MOL0     C26401   7.182   9.741   3.374  0.2863  0.2128  0.8584
  192MOL0     C26402   7.253   9.697   3.242  0.0505  0.1008  0.3986
  192MOL0    Cl26403   7.259   9.522   3.256 -0.1940 -0.5771  0.1842
  192MOL0     C26404   6.693  10.270   4.074 -0.2220  0.4626  0.7009
  192MOL0     C26405   6.674  10.329   4.198  0.5069 -0.6604  0.4445
  192MOL0     O26406   6.789  10.517   4.410 -0.2290 -0.4629 -0.0408
  192MOL0     C26407   6.494  10.533   4.602  0.4837 -0.0182  0.1722
  192MOL0     C26408   6.442  10.568   4.727 -0.7547  0.0250 -0.0622
  192MOL0     N26409   6.310  10.892   5.423  1.1209 -0.1806 -0.3858
  192MOL0     N26410   6.227  10.848   5.512  0.6399  0.5426  0.3521
  192MOL0     C26411   5.113  10.750   5.056  0.0407  0.6592  0.1367
  192MOL0     C26412   5.039  10.654   4.987  0.5120  0.2992  0.3897
  192MOL0     C26413   4.942  10.246   4.796 -0.2104  0.1694 -0.0767
  192MOL0     C26414   4.802  10.233   4.814 -0.3701  0.3073  0.1443
  192MOL0     C26415   4.725  10.154   4.734  0.2519  1.2250 -0.0722
  192MOL0     C26416   4.787  10.071   4.636  1.3478 -0.4473 -0.0603
  192MOL0     O26417   4.727  10.000   4.541  0.1001  0.6621 -0.0942
  192MOL0     C26418   4.715   9.854   4.567  0.6771  0.0318 -0.0131
  192MOL0     C26419   4.603   9.791   4.501 -0.1411 -0.7329  0.5038
  192MOL0     C26420   4.467   9.803   4.577 -0.0591  0.5628 -0.3671
  192MOL0     C26421   4.464   9.704   4.700  0.2546 -0.1697  0.1255
  192MOL0     C26422   4.410   9.575   4.668  0.2427  0.3227 -0.1365
  192MOL0     C26423   4.365   9.472   4.653  0.2329  0.6888 -0.1570
  192MOL0     C26424   4.920  10.090   4.616 -0.1744  0.0650 -0.4103
  192MOL0     C26425   4.998  10.183   4.697 -0.0018  1.0342  0.1779
  192MOL0     C26426   5.140  10.188   4.643  0.0588 -0.2969  0.6257
  192MOL0     H26427   4.976  10.424   5.227 -0.2178  0.4656  1.0304
  192MOL0     H26428   5.089  10.592   5.352 -2.1766  0.1329 -0.6660
  192MOL0     H26429   5.364  10.717   5.334 -4.0528 -2.2659 -2.4566
  192MOL0     H26430   5.254  10.761   5.462  0.4980  1.2168  0.7531
  192MOL0     H26431   5.381  10.958   5.268  1.3257  1.2832  0.7275
  192MOL0     H26432   5.302  11.005   5.427  1.9465  1.9203 -1.0875
  192MOL0     H26433   5.572  10.880   5.387  1.1748 -1.5546  2.4763
  192MOL0     H26434   5.520  11.041   5.430  0.6229 -0.6977 -3.1449
  192MOL0     H26435   5.420  10.956   5.639 -0.9279  4.3437 -3.7481
  192MOL0     H26436   5.465  10.791   5.597  3.4211 -1.3104 -0.6659
  192MOL0     H26437   5.622  10.917   5.755 -0.5492  0.7644 -0.5503
  192MOL0     H26438   5.666  11.027   5.628  0.5573  0.0163  1.4404
  192MOL0     H26439   5.770  10.770   5.695 -1.4709  0.7175 -0.1164
  192MOL0     H26440   5.672  10.746   5.546 -3.2497  1.0706  0.6880
  192MOL0     H26441   5.889  10.959   5.581 -1.4500 -0.6563  2.3240
  192MOL0     H26442   5.832  10.907   5.425  1.6118  1.7886  0.7543
  192MOL0     H26443   6.005  10.746   5.622  1.4588  1.1212 -0.5231
  192MOL0     H26444   5.949  10.691   5.458  1.3532  2.0039 -3.3545
  192MOL0     H26445   6.030  10.909   5.256 -1.2889  1.5452  2.6706
  192MOL0     H26446   6.371  11.059   5.228 -1.3722 -0.1182  2.6230
  192MOL0     H26447   6.211  11.096   5.185 -1.8534 -1.1350 -1.6275
  192MOL0     H26448   6.184  10.882   5.053  0.3735 -1.0882  5.5859
  192MOL0     H26449   6.267  11.021   4.984 -1.8885 -2.5863 -1.7525
  192MOL0     H26450   6.454  10.912   4.939  0.2822  0.1659  0.2549
  192MOL0     H26451   6.469  10.874   5.105  2.2464 -0.5507 -2.4563
  192MOL0     H26452   6.335  10.666   5.073 -0.8224  0.8491 -0.3416
  192MOL0     H26453   6.286  10.702   4.912  0.0638 -5.0015 -0.2014
  192MOL0     H26454   6.712  10.689   4.866 -2.4358  1.9588  1.4978
  192MOL0     H26455   6.925  10.607   4.655 -0.1090  1.0783 -1.6875
  192MOL0     H26456   6.857  10.767   4.696  1.6434 -0.6213  1.9541
  192MOL0     H26457   6.860  10.705   4.534 -1.4796  0.6207  1.1210
  192MOL0     H26458   6.570  10.632   4.099 -0.0313  0.8129 -0.1276
  192MOL0     H26459   6.605  10.543   3.881 -0.5371  0.6479  0.0379
  192MOL0     H26460   6.911  10.280   3.932  0.5903  0.2359 -1.0403
  192MOL0     H26461   6.847  10.120   3.899  3.4717 -0.8990  0.3557
  192MOL0     H26462   6.863  10.241   3.637 -1.2631  3.8197  1.3855
  192MOL0     H26463   7.001  10.309   3.721 -1.2386  0.7073  1.2712
  192MOL0     H26464   6.959  10.006   3.729  3.6052 -2.2334 -0.6189
  192MOL0     H26465   7.111  10.092   3.747  0.6169  0.5197 -0.3003
  192MOL0     H26466   7.152  10.116   3.533 -0.1455 -0.7842 -1.2347
  192MOL0     H26467   6.987  10.120   3.480 -0.4300  0.2510  0.2918
  192MOL0     H26468   7.125   9.866   3.595  0.8687 -2.0510 -1.7890
  192MOL0     H26469   6.978   9.876   3.494 -1.0074  1.4385  0.5854
  192MOL0     H26470   7.272   9.928   3.382 -0.7887 -0.2786 -3.5047
  192MOL0     H26471   7.129   9.934   3.290  0.5210 -2.0950 -0.5702
  192MOL0     H26472   7.078   9.707   3.372  1.0193 -2.1319  0.0700
  192MOL0     H26473   7.235   9.696   3.458 -1.9370 -0.5662  1.9409
  192MOL0     H26474   7.356   9.734   3.248  0.5742 -1.2416 -0.0187
  192MOL0     H26475   7.197   9.741   3.159 -0.6094  3.5781  2.4697
  192MOL0     H26476   6.732  10.169   4.074  0.3412  0.6619  1.7075
  192MOL0     H26477   6.704  10.283   4.292 -2.2917 -1.5419  1.0031
  192MOL0     H26478   6.426  10.478   4.538 -1.1698  0.0656  1.8013
  192MOL0     H26479   6.339  10.537   4.744 -0.4825 -2.5751 -2.4166
  192MOL0     H26480   5.139  10.850   5.022  0.9029 -0.1211 -1.6629
  192MOL0     H26481   5.006  10.666   4.884 -1.0097 -1.9399  0.5399
  192MOL0     H26482   4.749  10.292   4.888 -0.4046 -1.0930  1.2987
  192MOL0     H26483   4.617  10.152   4.738  0.2114 -3.3172  2.2966
  192MOL0     H26484   4.808   9.799   4.553  1.0337  0.1534  1.6230
  192MOL0     H26485   4.694   9.834   4.673  1.1673  0.7820  0.2321
  192MOL0     H26486   4.627   9.688   4.473  0.2103  0.4300 -4.5558
  192MOL0     H26487   4.593   9.845   4.406  0.9337 -0.6008  0.4571
  192MOL0     H26488   4.461   9.904   4.618 -1.7663  0.4666 -0.3191
  192MOL0     H26489   4.383   9.780   4.512  2.4221  0.1013 -3.6904
  192MOL0     H26490   4.403   9.752   4.777 -0.5418 -1.1136  0.1005
  192MOL0     H26491   4.564   9.695   4.743 -0.9258 -0.7201  3.0000
  192MOL0     H26492   4.299   9.388   4.644 -0.6045  1.3901 -0.7261
  192MOL0     H26493   4.957  10.045   4.524 -1.5754 -1.7126 -0.1687
  192MOL0     H26494   5.194  10.281   4.660  0.5650 -0.1602 -1.4364
  192MOL0     H26495   5.197  10.115   4.700  2.3459 -0.7159 -1.9862
  192MOL0     H26496   5.150  10.159   4.537  1.2163  0.5728  0.4815
  193MOL0     O26497   8.405   5.265   2.597 -0.1374 -0.3145 -0.1829
  193MOL0     C26498   8.413   5.222   2.717  0.9676  0.9316 -0.6929
  193MOL0     O26499   8.340   5.273   2.832  0.7752  0.3701 -0.0817
  193MOL0     C26500   8.244   5.364   2.804 -0.1341 -0.0698 -0.4540
  193MOL0     C26501   8.128   5.331   2.736  0.2641 -0.3186  1.0427
  193MOL0     C26502   8.022   5.424   2.724 -1.1378 -0.7395  1.1279
  193MOL0     C26503   8.045   5.556   2.771 -0.1177 -0.4719 -0.1590
  193MOL0     O26504   7.963   5.652   2.727 -0.4462 -0.6240  0.5371
  193MOL0     C26505   7.921   5.739   2.830 -0.4678 -0.2268 -0.5908
  193MOL0     C26506   7.806   5.828   2.778 -0.0845 -0.2390 -0.4688
  193MOL0     C26507   7.745   5.886   2.899  0.2148 -0.4575 -0.0722
  193MOL0     C26508   7.636   5.988   2.860  0.6436 -0.1679  0.2321
  193MOL0     C26509   7.570   6.054   2.975 -0.2553 -0.4774  0.1902
  193MOL0     C26510   7.651   6.170   3.023 -0.1848  0.8500 -0.2936
  193MOL0     C26511   7.607   6.237   3.148 -0.0940  0.2911  0.1858
  193MOL0     C26512   7.461   6.298   3.168  0.2358 -0.0391  0.4464
  193MOL0     N26513   7.430   6.403   3.067 -0.0164 -0.0438 -0.4277
  193MOL0     C26514   7.422   6.386   2.935  0.9469 -0.9113  0.6765
  193MOL0     C26515   7.390   6.509   2.893  0.5902 -0.0901  0.0839
  193MOL0     C26516   7.372   6.547   2.750 -0.6199  0.5029 -0.0780
  193MOL0     C26517   7.250   6.631   2.729  0.7934 -1.0458  0.3774
  193MOL0     C26518   7.264   6.772   2.676  0.5048 -1.0306  1.2532
  193MOL0     C26519   7.293   6.782   2.531  0.3879  0.0741  0.6223
  193MOL0     O26520   7.411   6.713   2.501  0.7713  0.6171  0.2719
  193MOL0     C26521   7.456   6.722   2.372  0.2015 -0.6691 -0.1008
  193MOL0     C26522   7.375   6.762   2.259  0.3436  0.3995 -0.3214
  193MOL0     C26523   7.418   6.750   2.125 -0.3400 -0.2885 -0.3072
  193MOL0     C26524   7.339   6.797   2.004  0.7968 -0.0758 -0.8075
  193MOL0     C26525   7.550   6.705   2.101 -0.9126 -0.0018  0.3381
  193MOL0     C26526   7.605   6.709   1.956  0.7326  0.2502 -0.9669
  193MOL0     O26527   7.621   6.826   1.894  0.7993  0.5100  0.4596
  193MOL0     C26528   7.654   6.829   1.758  0.2273 -0.3494 -0.4735
  193MOL0     C26529   7.606   6.952   1.712  0.1959  0.2452 -0.2540
  193MOL0     C26530   7.643   6.985   1.581 -0.2644 -0.7546 -0.4292
  193MOL0     C26531   7.720   6.911   1.497  0.8839  0.3968  0.7084
  193MOL0     O26532   7.754   6.971   1.376  0.2074 -0.6754 -0.2114
  193MOL0     C26533   7.856   6.906   1.301 -0.2824 -0.2387 -1.3171
  193MOL0     C26534   7.892   7.000   1.187 -0.4964 -0.6348  0.5839
  193MOL0     C26535   7.786   6.988   1.075  0.5786 -0.3447 -0.2577
  193MOL0     C26536   7.847   6.965   0.935 -0.3046 -0.7056  0.3133
  193MOL0     C26537   7.742   6.947   0.830  0.2509  0.2744  0.9193
  193MOL0     C26538   7.789   6.879   0.699 -0.1968  0.2202 -0.0097
  193MOL0     C26539   7.848   6.746   0.722 -0.1666  0.3728 -0.0327
  193MOL0     C26540   7.767   6.643   0.801 -0.3840  0.5349 -0.4614
  193MOL0    Cl26541   7.643   6.571   0.688  0.0358 -0.0459 -0.0416
  193MOL0     C26542   7.741   6.780   1.535 -0.1159 -0.3941 -1.0493
  193MOL0     C26543   7.728   6.757   1.676 -0.5439 -0.1698  0.5570
  193MOL0     O26544   7.648   6.600   1.912 -0.3322  0.0797 -0.4885
  193MOL0     C26545   7.629   6.667   2.208  0.2273 -0.4925 -0.0702
  193MOL0     C26546   7.581   6.670   2.335 -0.2197  1.5378  0.2416
  193MOL0     N26547   7.385   6.596   3.000  0.1482  0.4882  0.0125
  193MOL0     N26548   7.420   6.531   3.106 -1.0143  0.0143 -0.2327
  193MOL0     C26549   8.165   5.592   2.829 -0.2870 -0.2331 -0.0124
  193MOL0     C26550   8.263   5.487   2.855  0.0856  0.0057  0.2075
  193MOL0     C26551   8.498   5.107   2.745  0.1070  0.3483 -0.1397
  193MOL0     C26552   8.631   5.137   2.790  0.0297 -0.5845 -0.5108
  193MOL0     C26553   8.722   5.032   2.798 -0.1393  0.3229 -0.6278
  193MOL0     C26554   8.687   4.899   2.770  0.0018  0.5815 -0.1961
  193MOL0     O26555   8.790   4.808   2.778 -0.3030 -0.0680  0.1518
  193MOL0     C26556   8.867   4.783   2.662  0.0588 -0.0265  0.0964
  193MOL0     C26557   8.789   4.693   2.568  0.1956 -0.0556 -0.7754
  193MOL0     C26558   8.876   4.645   2.448  0.2553  0.2547  0.2836
  193MOL0     C26559   8.844   4.510   2.382 -0.2527  0.3490  0.3026
  193MOL0     C26560   8.962   4.460   2.309  0.7762  0.2527 -0.6818
  193MOL0     C26561   9.046   4.407   2.239  0.3515  0.3999  0.1268
  193MOL0     C26562   8.555   4.878   2.729 -0.2983  0.6108 -1.0108
  193MOL0     C26563   8.455   4.976   2.715 -0.1774  0.7637  0.1389
  193MOL0     C26564   8.310   4.937   2.691 -0.1463 -0.5436 -0.0640
  193MOL0     H26565   8.121   5.235   2.687  1.0854 -2.8760  5.4958
  193MOL0     H26566   7.942   5.380   2.665 -0.6000 -1.6306  1.0422
  193MOL0     H26567   7.993   5.813   2.866 -0.7860 -0.7088  1.1360
  193MOL0     H26568   7.895   5.680   2.918  0.2902 -0.6530 -0.6420
  193MOL0     H26569   7.840   5.903   2.706 -1.2246  3.4695  2.5680
  193MOL0     H26570   7.733   5.760   2.732  0.0777 -1.8734  1.5779
  193MOL0     H26571   7.691   5.809   2.954  0.6274 -1.5414 -1.1405
  193MOL0     H26572   7.813   5.942   2.963 -0.9485 -1.6369  2.3200
  193MOL0     H26573   7.678   6.056   2.785 -0.9442 -0.6067 -1.1189
  193MOL0     H26574   7.559   5.938   2.800  1.9136 -1.9971  0.0439
  193MOL0     H26575   7.561   5.981   3.056  1.7671  0.9842  1.8440
  193MOL0     H26576   7.466   6.071   2.943 -1.6088 -2.9186  2.8166
  193MOL0     H26577   7.756   6.141   3.020 -0.0233  1.1206  1.6525
  193MOL0     H26578   7.633   6.242   2.942  2.4061  0.2407 -1.5085
  193MOL0     H26579   7.677   6.320   3.157  1.1978 -0.6621 -0.6165
  193MOL0     H26580   7.623   6.165   3.228 -3.5182 -0.3778  0.4330
  193MOL0     H26581   7.400   6.218   3.126  2.7315  0.4098 -5.0139
  193MOL0     H26582   7.424   6.316   3.269  0.7833 -0.9604  0.8214
  193MOL0     H26583   7.421   6.295   2.876 -0.5817  0.0787 -0.9307
  193MOL0     H26584   7.365   6.457   2.688  0.3516 -0.8844  1.7015
  193MOL0     H26585   7.457   6.603   2.711 -0.2366  0.6148  0.8974
  193MOL0     H26586   7.172   6.574   2.676 -1.2714  0.8742  1.1761
  193MOL0     H26587   7.191   6.648   2.820 -0.1348 -1.2702 -0.1594
  193MOL0     H26588   7.162   6.809   2.687  1.0084  0.5745  0.8165
  193MOL0     H26589   7.330   6.836   2.734  0.4272  0.3664 -0.1177
  193MOL0     H26590   7.204   6.758   2.471  0.5557  0.8159  0.0536
  193MOL0     H26591   7.315   6.884   2.497  1.2564  0.0507  1.1064
  193MOL0     H26592   7.278   6.801   2.286  1.3320  1.6944  1.5321
  193MOL0     H26593   7.346   6.729   1.918 -2.4187  0.9414 -2.0252
  193MOL0     H26594   7.364   6.900   1.977  0.4298  0.3498  0.4155
  193MOL0     H26595   7.231   6.784   2.020  1.0428 -3.2738 -0.9555
  193MOL0     H26596   7.543   7.018   1.771  0.1858  1.7583 -1.8865
  193MOL0     H26597   7.615   7.086   1.554 -0.9784 -0.1380  2.2758
  193MOL0     H26598   7.935   6.879   1.372 -2.3311 -2.0667  0.3848
  193MOL0     H26599   7.815   6.814   1.260 -2.2443  1.0664 -2.4587
  193MOL0     H26600   7.894   7.104   1.221 -1.2822 -0.5243  0.2972
  193MOL0     H26601   7.993   6.975   1.155  0.1131  2.0405  0.1660
  193MOL0     H26602   7.719   7.075   1.082  0.4885 -0.3795 -0.6525
  193MOL0     H26603   7.729   6.902   1.108  0.1293  0.8191  2.2609
  193MOL0     H26604   7.914   6.878   0.936 -1.4106 -1.5788  0.4575
  193MOL0     H26605   7.901   7.056   0.907 -1.9781 -0.3128 -1.8733
  193MOL0     H26606   7.656   6.888   0.863 -1.0694  1.9383  0.5825
  193MOL0     H26607   7.705   7.047   0.804 -1.5333 -0.3671  0.9057
  193MOL0     H26608   7.864   6.942   0.650  1.2693 -1.0246  0.5741
  193MOL0     H26609   7.708   6.857   0.628  0.6639 -0.5385 -0.7801
  193MOL0     H26610   7.937   6.744   0.786 -0.1890 -2.0873  0.0233
  193MOL0     H26611   7.897   6.714   0.629  1.4287 -0.8600  1.1778
  193MOL0     H26612   7.717   6.694   0.885  3.7662  1.7850  1.5436
  193MOL0     H26613   7.845   6.575   0.836  3.4489  3.6720 -2.1614
  193MOL0     H26614   7.788   6.693   1.490 -0.8761 -0.1178 -2.4039
  193MOL0     H26615   7.770   6.661   1.703 -0.4971 -0.5268 -0.7670
  193MOL0     H26616   7.721   6.614   2.186  1.7803  1.0741  2.2599
  193MOL0     H26617   7.657   6.620   2.393  1.6367 -0.4946 -3.5631
  193MOL0     H26618   8.178   5.698   2.847 -0.2241 -0.3984  0.9764
  193MOL0     H26619   8.354   5.501   2.914  1.6481 -1.0883 -1.8033
  193MOL0     H26620   8.655   5.238   2.823 -0.8051 -1.3444  2.8077
  193MOL0     H26621   8.823   5.063   2.821 -0.8081  0.3581  2.7761
  193MOL0     H26622   8.890   4.878   2.613 -0.8142  0.8631  1.3504
  193MOL0     H26623   8.959   4.732   2.694 -1.0420 -3.7359 -2.0788
  193MOL0     H26624   8.707   4.753   2.530 -0.3705 -0.2163  0.1680
  193MOL0     H26625   8.741   4.609   2.618  1.3756 -1.6252 -2.1342
  193MOL0     H26626   8.855   4.722   2.373  0.8730  0.4828  0.3409
  193MOL0     H26627   8.983   4.652   2.471  1.4896 -0.5299 -4.2173
  193MOL0     H26628   8.764   4.530   2.309 -0.9539 -0.3498  0.8597
  193MOL0     H26629   8.814   4.432   2.452  3.0639 -0.7500  0.6592
  193MOL0     H26630   9.114   4.341   2.189  0.7124  1.0748 -0.2848
  193MOL0     H26631   8.525   4.776   2.710  1.4472 -0.6238  2.1226
  193MOL0     H26632   8.288   4.873   2.605 -1.5169 -1.9379  1.2395
  193MOL0     H26633   8.272   4.877   2.774 -3.1901 -0.1255 -1.0157
  193MOL0     H26634   8.247   5.025   2.671  0.5446 -0.1407 -0.5014
  194MOL0     O26635   4.571  10.105   6.113  0.2945  0.4423  0.3247
  194MOL0     C26636   4.542  10.194   6.025 -0.2728  0.6501  0.0575
  194MOL0     O26637   4.414  10.208   5.971 -0.6176 -0.0219  0.3959
  194MOL0     C26638   4.304  10.151   6.039 -0.8281 -0.3536 -0.5580
  194MOL0     C26639   4.232  10.223   6.137  0.0225  0.0164  0.7262
  194MOL0     C26640   4.116  10.163   6.206  0.4127  0.3611  0.5453
  194MOL0     C26641   4.068  10.034   6.175  0.5116 -0.2092  0.0697
  194MOL0     O26642   3.958   9.992   6.246  0.8695  0.3592  0.5414
  194MOL0     C26643   3.889   9.866   6.208  0.5302 -0.6138  0.8885
  194MOL0     C26644   3.957   9.755   6.287 -0.3102  0.1221 -0.2356
  194MOL0     C26645   3.868   9.623   6.296  1.1196  0.0805 -0.0117
  194MOL0     C26646   3.946   9.494   6.326 -0.2393 -0.0315  0.2674
  194MOL0     C26647   3.860   9.365   6.287 -0.5729 -0.2691 -0.2985
  194MOL0     C26648   3.953   9.237   6.301  0.5727 -0.2042  0.8481
  194MOL0     C26649   4.050   9.222   6.185  0.8140 -0.3272 -0.3206
  194MOL0     C26650   4.009   9.218   6.045  0.1934 -1.1981 -0.0024
  194MOL0     N26651   3.902   9.119   6.010 -0.9427 -0.0975  0.7154
  194MOL0     C26652   3.766   9.143   6.030  0.1281  0.0281  0.4539
  194MOL0     C26653   3.715   9.027   5.991 -0.5803  0.2202 -0.2940
  194MOL0     C26654   3.576   8.990   5.978  1.0423  0.2898  0.7844
  194MOL0     C26655   3.503   9.043   5.859  1.1106 -0.2455 -0.5525
  194MOL0     C26656   3.353   9.009   5.863  0.3935  0.0444 -0.9057
  194MOL0     C26657   3.272   9.097   5.955 -0.5441  0.6184 -0.0287
  194MOL0     O26658   3.280   9.234   5.915 -0.1499  0.2819  0.8762
  194MOL0     C26659   3.208   9.338   5.977 -0.0664  0.4106 -0.0211
  194MOL0     C26660   3.143   9.313   6.102 -0.3966 -0.6251 -0.2351
  194MOL0     C26661   3.061   9.418   6.166  0.1978  1.0595  1.0316
  194MOL0     C26662   2.984   9.387   6.290  1.0332 -0.2745  0.8222
  194MOL0     C26663   3.043   9.544   6.100  0.1666  0.1009  0.3619
  194MOL0     C26664   2.957   9.651   6.151  0.1192  0.8877 -0.3698
  194MOL0     O26665   2.890   9.729   6.058  0.9269  0.1118 -0.4836
  194MOL0     C26666   2.801   9.826   6.103  0.1400 -0.2477 -0.6497
  194MOL0     C26667   2.850   9.961   6.117  0.4106  0.0856 -0.0452
  194MOL0     C26668   2.763  10.056   6.153 -0.4905 -0.8985 -0.2113
  194MOL0     C26669   2.626  10.036   6.183 -1.1802 -0.1848  0.1893
  194MOL0     O26670   2.562  10.146   6.236  0.3148 -0.5765  0.1234
  194MOL0     C26671   2.422  10.141   6.247  0.2651 -0.4157 -0.2859
  194MOL0     C26672   2.373  10.270   6.325 -0.8087 -0.3068  0.5570
  194MOL0     C26673   2.401  10.397   6.260 -0.0527 -0.1140  0.0782
  194MOL0     C26674   2.390  10.509   6.368 -0.7291  0.7887 -0.0734
  194MOL0     C26675   2.511  10.609   6.335  0.1289 -0.0378 -0.2648
  194MOL0     C26676   2.651  10.561   6.394  0.0330  0.0342  0.6868
  194MOL0     C26677   2.761  10.673   6.368 -0.1272  0.1895 -0.6012
  194MOL0     C26678   2.736  10.777   6.258  0.0976 -0.1269  0.9554
  194MOL0    Cl26679   2.757  10.672   6.115 -0.5743 -0.4560  0.1307
  194MOL0     C26680   2.586   9.907   6.166 -0.2442  0.2997  0.8404
  194MOL0     C26681   2.668   9.797   6.139 -0.2176  0.9870  0.3523
  194MOL0     O26682   2.958   9.673   6.277 -0.0854  0.7710 -0.8127
  194MOL0     C26683   3.119   9.568   5.984  0.4370 -0.3012  1.2106
  194MOL0     C26684   3.199   9.466   5.928  0.7977 -0.4854  0.9088
  194MOL0     N26685   3.813   8.934   5.949  0.6180 -0.4347 -1.5635
  194MOL0     N26686   3.928   8.995   5.962  0.4427  0.1858  0.3748
  194MOL0     C26687   4.136   9.960   6.068 -0.4816  0.7517  0.4528
  194MOL0     C26688   4.250  10.023   6.007 -0.4475  0.6977  0.0249
  194MOL0     C26689   4.641  10.277   5.959  0.1139  0.3337  0.3679
  194MOL0     C26690   4.754  10.313   6.029 -0.4995  0.2579 -0.5533
  194MOL0     C26691   4.852  10.398   5.962  0.2235 -0.4027 -0.1164
  194MOL0     C26692   4.851  10.427   5.830  0.4002  0.0675 -0.0118
  194MOL0     O26693   4.924  10.535   5.773 -0.2088  0.8883 -1.0081
  194MOL0     C26694   5.010  10.504   5.663  0.4922  0.0397 -0.5952
  194MOL0     C26695   5.132  10.447   5.733 -0.1174  0.2396  0.4037
  194MOL0     C26696   5.200  10.547   5.827  0.0899  0.6332  0.6645
  194MOL0     C26697   5.258  10.664   5.746  0.8864  0.5419  0.1799
  194MOL0     C26698   5.321  10.748   5.846  0.1450 -1.0017  0.5989
  194MOL0     C26699   5.348  10.819   5.935 -0.6047 -0.1618  0.8146
  194MOL0     C26700   4.739  10.374   5.756 -0.1981 -0.4332 -0.1984
  194MOL0     C26701   4.637  10.304   5.815  0.9324 -0.4383  0.5443
  194MOL0     C26702   4.516  10.259   5.727 -1.0443  0.4564  0.3812
  194MOL0     H26703   4.249  10.324   6.171 -0.0822  1.3753 -2.8556
  194MOL0     H26704   4.079  10.223   6.289  0.3170 -1.2484  1.7118
  194MOL0     H26705   3.903   9.849   6.101  1.0340 -2.7751  1.2434
  194MOL0     H26706   3.782   9.859   6.225  0.3477 -1.1347 -0.3426
  194MOL0     H26707   4.052   9.718   6.247  0.9075  0.0740  2.4934
  194MOL0     H26708   3.973   9.791   6.389  3.8757  2.3222 -1.4567
  194MOL0     H26709   3.796   9.634   6.378  1.0032 -1.6337  0.1515
  194MOL0     H26710   3.801   9.610   6.211  0.7233 -0.6514  0.4050
  194MOL0     H26711   4.032   9.485   6.260 -2.6106  0.6676 -3.1710
  194MOL0     H26712   3.986   9.484   6.427  2.2259  0.9525 -0.5527
  194MOL0     H26713   3.816   9.363   6.187 -0.1016 -1.1381 -0.4922
  194MOL0     H26714   3.772   9.370   6.352 -0.7935  1.3681 -0.6774
  194MOL0     H26715   4.014   9.244   6.391  1.7573 -1.6290  0.1956
  194MOL0     H26716   3.881   9.155   6.308 -0.8230  0.4589 -2.9720
  194MOL0     H26717   4.100   9.127   6.206  1.5464  0.2990  0.8827
  194MOL0     H26718   4.134   9.287   6.210  0.2555  0.6391 -0.8639
  194MOL0     H26719   3.972   9.315   6.011 -1.8880 -1.1636  2.1347
  194MOL0     H26720   4.097   9.199   5.983  1.1129 -3.3463  1.8298
  194MOL0     H26721   3.710   9.232   6.058 -1.5722 -0.8278 -0.0742
  194MOL0     H26722   3.525   9.038   6.063 -2.2091 -0.7056 -0.4479
  194MOL0     H26723   3.567   8.882   5.969  1.4555  0.3443 -0.4764
  194MOL0     H26724   3.518   9.151   5.862  1.8887 -0.3216 -1.1517
  194MOL0     H26725   3.557   9.003   5.772 -1.0719 -0.2071 -1.9932
  194MOL0     H26726   3.319   9.036   5.763 -1.9474  0.6181 -0.0256
  194MOL0     H26727   3.343   8.902   5.883  1.1473 -0.0758 -1.1412
  194MOL0     H26728   3.167   9.067   5.949 -1.3859  2.6967  2.2768
  194MOL0     H26729   3.307   9.085   6.058 -3.5771 -1.8173  0.8771
  194MOL0     H26730   3.162   9.214   6.141  2.2170 -0.1744 -0.2394
  194MOL0     H26731   2.987   9.278   6.299  1.6600 -0.4542 -1.1000
  194MOL0     H26732   2.876   9.403   6.286  0.8975 -0.8866  1.9200
  194MOL0     H26733   3.015   9.445   6.377  0.5866  1.2131  0.0391
  194MOL0     H26734   2.955   9.981   6.096  0.6559  1.3925  2.0711
  194MOL0     H26735   2.808  10.154   6.165  4.2110 -2.5204 -1.9183
  194MOL0     H26736   2.376  10.145   6.148  0.3066  2.2604 -0.2840
  194MOL0     H26737   2.399  10.048   6.301 -2.4810  0.3219 -0.0111
  194MOL0     H26738   2.266  10.264   6.346 -1.3100  0.8320 -1.4189
  194MOL0     H26739   2.422  10.260   6.422 -2.2751  2.3321  1.6675
  194MOL0     H26740   2.321  10.422   6.190  2.8409  2.9069 -2.4783
  194MOL0     H26741   2.495  10.392   6.204  0.2637  1.0180  0.4758
  194MOL0     H26742   2.391  10.470   6.470 -1.2383 -0.7838 -0.6430
  194MOL0     H26743   2.290  10.553   6.353 -1.9571 -1.5630  0.6677
  194MOL0     H26744   2.529  10.617   6.227 -0.3646  0.1015 -0.3396
  194MOL0     H26745   2.491  10.713   6.361 -0.3882 -0.4949  1.2285
  194MOL0     H26746   2.672  10.462   6.352 -2.8674 -0.0496 -0.8144
  194MOL0     H26747   2.642  10.556   6.503 -0.8937  1.2397  0.6844
  194MOL0     H26748   2.858  10.622   6.366  0.8247  1.6823  2.0252
  194MOL0     H26749   2.772  10.738   6.455 -1.6420 -0.2508 -0.0546
  194MOL0     H26750   2.812  10.856   6.259 -0.9347  1.1453 -3.4977
  194MOL0     H26751   2.640  10.827   6.251 -0.2418 -1.0570 -2.5037
  194MOL0     H26752   2.482   9.888   6.189 -0.8256  0.2464 -1.5644
  194MOL0     H26753   2.623   9.700   6.120  0.9577  0.2420  1.2655
  194MOL0     H26754   3.124   9.666   5.937  0.9656 -1.3800 -1.0976
  194MOL0     H26755   3.246   9.497   5.835  2.6074 -0.8662  1.6634
  194MOL0     H26756   4.116   9.866   6.018 -3.6361  2.5087 -1.9751
  194MOL0     H26757   4.291   9.967   5.924 -3.3150 -1.5486 -0.0553
  194MOL0     H26758   4.758  10.296   6.136 -3.9104  0.6986 -0.2627
  194MOL0     H26759   4.936  10.444   6.014  0.2475 -0.3905 -0.1651
  194MOL0     H26760   4.967  10.443   5.582  1.5960 -0.5010 -0.7917
  194MOL0     H26761   5.051  10.589   5.607  0.1745 -0.2736 -1.3283
  194MOL0     H26762   5.194  10.412   5.650  1.1086  3.9606 -0.4497
  194MOL0     H26763   5.094  10.368   5.798 -3.2229  0.3311 -1.1468
  194MOL0     H26764   5.121  10.572   5.899  0.9004 -2.3408  2.8008
  194MOL0     H26765   5.270  10.487   5.887  1.3920  0.4490 -0.9750
  194MOL0     H26766   5.180  10.715   5.689  1.3056  1.2802  0.2461
  194MOL0     H26767   5.327  10.630   5.669 -0.3089  2.7867 -2.0070
  194MOL0     H26768   5.363  10.874   6.025  0.8634 -3.4438  2.7603
  194MOL0     H26769   4.743  10.395   5.650 -3.1572  0.2350 -0.2616
  194MOL0     H26770   4.483  10.155   5.730 -2.4559  0.6371 -3.5162
  194MOL0     H26771   4.434  10.328   5.751 -0.0160  1.8641  0.0166
  194MOL0     H26772   4.538  10.269   5.621 -2.6665 -0.6459 -0.0908
  195MOL0     O26773   6.799   8.476   6.871 -0.7932 -0.0378  0.1426
  195MOL0     C26774   6.682   8.517   6.846 -0.7895  1.2647  0.9015
  195MOL0     O26775   6.598   8.580   6.937  0.1972 -0.3579  0.9090
  195MOL0     C26776   6.647   8.634   7.051 -0.4024 -0.4374 -0.0886
  195MOL0     C26777   6.584   8.586   7.164  0.2943  0.8264  0.1546
  195MOL0     C26778   6.602   8.643   7.288 -0.2081  0.9333 -0.7902
  195MOL0     C26779   6.691   8.757   7.300 -0.5769  0.5904  0.1907
  195MOL0     O26780   6.718   8.812   7.422  0.4073 -0.4131 -0.9091
  195MOL0     C26781   6.673   8.749   7.550 -0.0519 -0.9037  0.5053
  195MOL0     C26782   6.741   8.615   7.581 -0.3289 -0.4783  0.5920
  195MOL0     C26783   6.877   8.636   7.620 -0.4211 -0.5845 -1.1985
  195MOL0     C26784   6.958   8.495   7.646 -0.0218  0.5087 -0.7398
  195MOL0     C26785   7.116   8.495   7.657 -0.2475 -0.2511 -0.6066
  195MOL0     C26786   7.146   8.347   7.645 -0.0539  0.7205  0.2294
  195MOL0     C26787   7.305   8.328   7.652  1.3056 -0.4717 -0.4448
  195MOL0     C26788   7.366   8.189   7.634 -1.1560  0.7209 -0.2832
  195MOL0     N26789   7.285   8.098   7.720  0.9481 -0.2543  1.0629
  195MOL0     C26790   7.261   8.120   7.854  0.2470  0.3740  0.2613
  195MOL0     C26791   7.185   8.015   7.900  0.2130 -0.3869  0.0728
  195MOL0     C26792   7.142   7.976   8.031  0.0754  0.3046  0.7890
  195MOL0     C26793   7.243   7.997   8.144  1.6250 -0.6240 -0.4003
  195MOL0     C26794   7.375   7.934   8.119  0.3061 -0.0506  0.5987
  195MOL0     C26795   7.376   7.788   8.079 -0.9899 -0.4910  0.4911
  195MOL0     O26796   7.314   7.715   8.185 -0.0249  0.0578  0.3293
  195MOL0     C26797   7.386   7.663   8.290  0.6073 -0.1008 -0.9389
  195MOL0     C26798   7.325   7.640   8.410  0.4228  0.1267  1.8242
  195MOL0     C26799   7.381   7.574   8.518  0.7831 -0.5526 -1.3159
  195MOL0     C26800   7.301   7.542   8.647  0.6204 -0.0030 -0.2746
  195MOL0     C26801   7.515   7.534   8.507  0.1251  0.2338  0.3301
  195MOL0     C26802   7.584   7.469   8.619  0.1574  0.1421 -0.9600
  195MOL0     O26803   7.664   7.359   8.573 -0.1135 -1.1316  0.2407
  195MOL0     C26804   7.758   7.313   8.665  0.6471  0.2187 -0.0037
  195MOL0     C26805   7.856   7.397   8.718  0.0857 -0.3965  0.2963
  195MOL0     C26806   7.954   7.358   8.811  0.1230  0.2788 -0.3919
  195MOL0     C26807   7.956   7.219   8.844  0.4482 -0.1038  1.3062
  195MOL0     O26808   8.046   7.193   8.945  0.8919  0.6001 -0.0901
  195MOL0     C26809   8.023   7.071   9.015 -0.3454 -0.4425 -0.0653
  195MOL0     C26810   8.100   7.073   9.138  0.5442  1.0297 -0.3707
  195MOL0     C26811   8.040   7.170   9.232  0.4053  0.6878 -0.0527
  195MOL0     C26812   8.128   7.180   9.357 -0.5354 -0.5221 -0.5324
  195MOL0     C26813   8.074   7.273   9.472  0.0478 -0.0354  0.0689
  195MOL0     C26814   8.198   7.320   9.541  0.4172 -0.4993  0.5388
  195MOL0     C26815   8.169   7.411   9.651 -1.4178  0.2784 -0.3812
  195MOL0     C26816   8.288   7.462   9.736  1.4183 -0.2082 -0.2159
  195MOL0    Cl26817   8.376   7.597   9.679  0.0149  0.4240  0.1498
  195MOL0     C26818   7.873   7.131   8.775  0.8885 -0.3301 -0.1316
  195MOL0     C26819   7.774   7.176   8.688 -0.0954  0.2029  0.5396
  195MOL0     O26820   7.552   7.486   8.740  0.1567  0.7884  0.4724
  195MOL0     C26821   7.584   7.543   8.380  0.2813 -0.1423  0.5733
  195MOL0     C26822   7.517   7.607   8.274 -0.3547  0.2005 -0.2642
  195MOL0     N26823   7.167   7.937   7.782  0.1756  0.1837  0.3324
  195MOL0     N26824   7.224   7.989   7.677  0.4479 -0.1782 -0.4467
  195MOL0     C26825   6.768   8.790   7.183  0.9417 -0.0670 -0.0443
  195MOL0     C26826   6.746   8.730   7.060  0.5959  0.2449  0.4845
  195MOL0     C26827   6.649   8.510   6.706 -0.0573 -0.5131 -0.3381
  195MOL0     C26828   6.685   8.397   6.637 -0.6878  0.1042  0.2683
  195MOL0     C26829   6.683   8.375   6.504  0.5123 -0.6186 -0.7142
  195MOL0     C26830   6.641   8.482   6.429  0.0756 -0.5386  0.9331
  195MOL0     O26831   6.618   8.496   6.290  0.0420  0.0988 -0.1976
  195MOL0     C26832   6.687   8.411   6.210 -0.3140  0.1537  0.7015
  195MOL0     C26833   6.600   8.281   6.196 -0.4927 -0.4809  0.3279
  195MOL0     C26834   6.474   8.310   6.113 -0.2702 -0.8356  0.2465
  195MOL0     C26835   6.495   8.315   5.960 -0.5364 -0.0306 -0.0351
  195MOL0     C26836   6.383   8.405   5.915 -0.0935  0.4747  0.3341
  195MOL0     C26837   6.288   8.478   5.919 -0.5082  0.7222 -0.0299
  195MOL0     C26838   6.590   8.596   6.494 -0.0795  0.2177 -0.2942
  195MOL0     C26839   6.606   8.622   6.628 -0.1565  0.5861 -0.7443
  195MOL0     C26840   6.585   8.760   6.679 -0.5437 -0.1478  0.5123
  195MOL0     H26841   6.512   8.506   7.152  1.6192  0.0400 -4.2587
  195MOL0     H26842   6.539   8.610   7.371 -1.9663  2.0788 -1.5976
  195MOL0     H26843   6.563   8.744   7.557 -0.2597  0.2974 -1.2188
  195MOL0     H26844   6.704   8.811   7.634  0.0873  0.6404 -0.6565
  195MOL0     H26845   6.683   8.570   7.662 -1.6875 -1.7413 -0.9953
  195MOL0     H26846   6.734   8.551   7.492  1.6981  2.6782 -2.0673
  195MOL0     H26847   6.916   8.697   7.538 -0.9483 -0.4470 -1.3505
  195MOL0     H26848   6.879   8.694   7.713  2.3408 -2.8614  0.3224
  195MOL0     H26849   6.918   8.433   7.727  1.0050  0.6335 -0.1151
  195MOL0     H26850   6.937   8.444   7.552 -1.6265 -3.7243  1.6486
  195MOL0     H26851   7.149   8.539   7.752 -1.2641 -0.6467 -0.0602
  195MOL0     H26852   7.156   8.548   7.570  2.4821 -1.9051 -0.4867
  195MOL0     H26853   7.105   8.293   7.731 -0.1679  0.6511  0.1315
  195MOL0     H26854   7.099   8.306   7.555  2.0338  2.6670 -1.8774
  195MOL0     H26855   7.318   8.351   7.758 -0.7392  0.7870 -0.4163
  195MOL0     H26856   7.362   8.404   7.598  1.1607  1.0105  1.3920
  195MOL0     H26857   7.373   8.148   7.533  1.3596  0.3871 -0.0353
  195MOL0     H26858   7.464   8.191   7.682 -0.2146  0.3744 -2.1263
  195MOL0     H26859   7.288   8.201   7.920 -0.3123  1.1092 -0.3914
  195MOL0     H26860   7.127   7.867   8.026  1.8761  0.0975 -1.9796
  195MOL0     H26861   7.044   8.012   8.065 -0.5879 -1.2451  0.6132
  195MOL0     H26862   7.251   8.102   8.172  2.8730 -0.9037  0.3779
  195MOL0     H26863   7.203   7.957   8.237 -2.7173  2.0114 -0.8789
  195MOL0     H26864   7.411   7.988   8.031 -1.6834  0.9736  0.3268
  195MOL0     H26865   7.451   7.959   8.193  2.0282 -4.1870  0.4377
  195MOL0     H26866   7.336   7.757   7.983  0.1177 -2.4722  0.6124
  195MOL0     H26867   7.482   7.761   8.083 -0.6878  0.7446  2.8859
  195MOL0     H26868   7.221   7.669   8.416  0.6515  2.4662 -2.1427
  195MOL0     H26869   7.198   7.575   8.633  1.4225  1.9572 -2.1706
  195MOL0     H26870   7.337   7.603   8.730  0.0695 -1.6594  1.2512
  195MOL0     H26871   7.301   7.439   8.683 -1.0259  0.2801  0.6682
  195MOL0     H26872   7.871   7.502   8.693 -0.8436 -0.1933  0.5766
  195MOL0     H26873   8.039   7.420   8.838  0.3934  0.4816 -1.6868
  195MOL0     H26874   7.924   7.057   9.059 -0.3542 -0.3753 -0.0654
  195MOL0     H26875   8.036   6.977   8.960  1.5660 -1.4891  2.0042
  195MOL0     H26876   8.077   6.978   9.186  2.1156  1.5900  1.5941
  195MOL0     H26877   8.207   7.088   9.121  1.0870 -1.3977  0.4888
  195MOL0     H26878   7.937   7.139   9.251  0.2480  3.2957  5.3805
  195MOL0     H26879   8.034   7.268   9.183  1.8682  1.1941  0.7093
  195MOL0     H26880   8.224   7.223   9.327 -0.2094 -1.1375 -0.4043
  195MOL0     H26881   8.140   7.082   9.405 -2.9100  0.2214  1.7992
  195MOL0     H26882   8.032   7.360   9.420  1.2321  0.5491  0.0566
  195MOL0     H26883   7.999   7.235   9.543 -2.9425  0.4510 -2.6031
  195MOL0     H26884   8.263   7.368   9.468  0.8697 -0.5983  0.8752
  195MOL0     H26885   8.243   7.229   9.580 -0.3501 -2.5317 -2.9311
  195MOL0     H26886   8.107   7.360   9.725  3.8472 -2.5365  2.7303
  195MOL0     H26887   8.114   7.499   9.619 -1.4163  0.3351 -0.2281
  195MOL0     H26888   8.359   7.380   9.752  1.5721 -0.0214  0.0662
  195MOL0     H26889   8.251   7.495   9.833  0.6601 -1.8933  0.0950
  195MOL0     H26890   7.886   7.024   8.789  1.2439 -0.3425 -0.5288
  195MOL0     H26891   7.697   7.113   8.644  0.5895 -1.9173  2.1901
  195MOL0     H26892   7.682   7.496   8.376 -0.0981 -1.3528  3.2462
  195MOL0     H26893   7.566   7.592   8.179  0.0650  2.9845 -0.5747
  195MOL0     H26894   6.836   8.875   7.183 -0.0670  0.8834 -3.2156
  195MOL0     H26895   6.796   8.760   6.968  2.3444 -2.6146  0.3849
  195MOL0     H26896   6.739   8.322   6.694  1.0501 -0.0768 -1.5244
  195MOL0     H26897   6.728   8.280   6.478  3.2891 -0.0558  1.5734
  195MOL0     H26898   6.688   8.439   6.104  1.8109 -2.5477 -0.1012
  195MOL0     H26899   6.788   8.387   6.244 -0.5699 -1.7409  0.2698
  195MOL0     H26900   6.556   8.237   6.286 -1.4964 -5.0955 -2.0976
  195MOL0     H26901   6.661   8.198   6.156 -1.4886 -0.6422 -0.9132
  195MOL0     H26902   6.391   8.241   6.134 -1.1394 -0.5784 -2.0944
  195MOL0     H26903   6.440   8.406   6.153 -0.7289 -0.1690 -1.6507
  195MOL0     H26904   6.482   8.220   5.907  0.3683 -0.2215  0.0719
  195MOL0     H26905   6.586   8.365   5.927  1.3120 -2.1895  1.4470
  195MOL0     H26906   6.201   8.540   5.905 -0.3655  0.4114 -2.9883
  195MOL0     H26907   6.528   8.669   6.444  0.8919  0.4284 -1.2265
  195MOL0     H26908   6.525   8.778   6.768 -2.7987 -1.7484 -0.5842
  195MOL0     H26909   6.682   8.807   6.696  1.4422 -4.3230  2.3098
  195MOL0     H26910   6.528   8.816   6.605  1.7521  0.3315 -0.9956
  196MOL0     O26911   0.275   0.712   2.660 -0.6974  0.0093  0.4343
  196MOL0     C26912   0.321   0.662   2.557  1.0391 -1.1908 -0.1429
  196MOL0     O26913   0.360   0.535   2.554  0.4358  0.2403  0.9227
  196MOL0     C26914   0.418   0.491   2.436  0.9456  0.0821  0.1574
  196MOL0     C26915   0.540   0.533   2.408 -0.8967  0.7182 -1.0597
  196MOL0     C26916   0.612   0.490   2.300 -0.7367  0.4786  0.2872
  196MOL0     C26917   0.562   0.385   2.220  0.2025  0.1888 -0.3755
  196MOL0     O26918   0.635   0.340   2.116 -0.4406  0.0906  0.5458
  196MOL0     C26919   0.692   0.201   2.137  0.4872 -1.0405 -1.5215
  196MOL0     C26920   0.646   0.099   2.033 -0.6706  0.5298  0.1360
  196MOL0     C26921   0.501   0.058   2.032  0.0996  0.5676  0.2093
  196MOL0     C26922   0.461  -0.027   2.164 -0.7489  0.7088  0.6715
  196MOL0     C26923   0.336  -0.115   2.118 -0.4576 -1.0187  0.6217
  196MOL0     C26924   0.257  -0.176   2.241  0.3492  0.5302 -0.6788
  196MOL0     C26925   0.174  -0.063   2.317 -0.4978 -0.1392  0.5856
  196MOL0     C26926   0.046  -0.036   2.239 -0.3923 -1.0039 -0.2561
  196MOL0     N26927  -0.040   0.078   2.288 -0.1677  0.5975  0.6856
  196MOL0     C26928  -0.165   0.071   2.339 -0.1442  0.5433  0.2214
  196MOL0     C26929  -0.190   0.206   2.350  0.7208 -0.2311  0.1607
  196MOL0     C26930  -0.331   0.269   2.391 -0.8942  0.5347  0.0795
  196MOL0     C26931  -0.392   0.351   2.273 -0.6731 -0.0028  0.7045
  196MOL0     C26932  -0.492   0.457   2.307  1.1292  0.1943 -0.2128
  196MOL0     C26933  -0.580   0.519   2.189 -0.1254  0.3138  1.0660
  196MOL0     O26934  -0.682   0.600   2.252 -0.4948  0.1270  0.5762
  196MOL0     C26935  -0.801   0.549   2.289  0.2096 -0.0392  0.1459
  196MOL0     C26936  -0.837   0.417   2.292  0.0796 -0.2594 -1.0969
  196MOL0     C26937  -0.966   0.369   2.330  0.0662 -0.2980  0.9114
  196MOL0     C26938  -0.997   0.226   2.320  0.1207 -0.5940 -0.2237
  196MOL0     C26939  -1.070   0.465   2.359 -0.5830 -0.2837  0.2167
  196MOL0     C26940  -1.217   0.430   2.370 -0.7596  0.1594  0.1696
  196MOL0     O26941  -1.272   0.329   2.298  0.0964 -0.4348  0.0620
  196MOL0     C26942  -1.390   0.281   2.342 -0.5912  0.1813  0.5177
  196MOL0     C26943  -1.484   0.276   2.246  0.2140  0.4397 -0.3020
  196MOL0     C26944  -1.606   0.216   2.266  0.8245  0.4523 -0.0017
  196MOL0     C26945  -1.645   0.175   2.392 -0.0292 -0.7898  0.1726
  196MOL0     O26946  -1.771   0.130   2.407  1.2203 -0.0068  0.4124
  196MOL0     C26947  -1.871   0.189   2.489  0.0712  1.0426  0.6266
  196MOL0     C26948  -1.978   0.079   2.493 -0.3513  1.2822  0.4315
  196MOL0     C26949  -2.059   0.094   2.619  0.4788  0.0218 -0.1624
  196MOL0     C26950  -2.196   0.156   2.588  0.0518 -0.7740 -1.0332
  196MOL0     C26951  -2.222   0.281   2.681  0.2307  0.6958  0.1866
  196MOL0     C26952  -2.245   0.232   2.824 -0.0684 -0.5629 -0.1311
  196MOL0     C26953  -2.308   0.353   2.898 -0.0871 -0.2586  0.1456
  196MOL0     C26954  -2.323   0.328   3.050 -1.2670  0.4648  0.0548
  196MOL0    Cl26955  -2.483   0.249   3.065  0.4236 -0.6825 -0.4718
  196MOL0     C26956  -1.554   0.184   2.490  0.0051 -0.5346 -0.5987
  196MOL0     C26957  -1.427   0.244   2.477  0.7719 -0.3882  0.3507
  196MOL0     O26958  -1.283   0.506   2.441  0.3656  0.0523  0.1711
  196MOL0     C26959  -1.037   0.611   2.351 -0.0929  0.1806 -1.0548
  196MOL0     C26960  -0.906   0.645   2.308  0.1563 -0.3496  0.0900
  196MOL0     N26961  -0.092   0.287   2.311 -0.3633  0.3788  0.4689
  196MOL0     N26962   0.004   0.204   2.282  0.3913  0.6119  0.6310
  196MOL0     C26963   0.443   0.337   2.260  0.1251  0.4563  0.0545
  196MOL0     C26964   0.368   0.385   2.365 -0.7632  0.1286 -1.4484
  196MOL0     C26965   0.321   0.764   2.446 -0.6342  0.2046 -0.3591
  196MOL0     C26966   0.398   0.876   2.449 -0.6654  0.0811 -0.2335
  196MOL0     C26967   0.408   0.969   2.351  0.4444 -1.4029 -0.7188
  196MOL0     C26968   0.327   0.943   2.243  0.3608 -0.2800  0.7364
  196MOL0     O26969   0.327   1.012   2.123  0.2232 -0.0355  0.5889
  196MOL0     C26970   0.440   1.011   2.034  0.4376  0.9322 -0.5486
  196MOL0     C26971   0.529   0.884   2.047  0.4479  0.2955 -0.8976
  196MOL0     C26972   0.501   0.782   1.931 -0.6868  1.0475 -0.0480
  196MOL0     C26973   0.560   0.652   1.985 -0.5006  0.4867 -0.2622
  196MOL0     C26974   0.591   0.551   1.879 -0.0153  0.5008 -0.8494
  196MOL0     C26975   0.632   0.460   1.804  0.0357 -1.1404 -0.0107
  196MOL0     C26976   0.228   0.838   2.245 -0.1156  0.2688  0.4404
  196MOL0     C26977   0.221   0.752   2.351 -0.3293  0.8885  0.0319
  196MOL0     C26978   0.123   0.642   2.335  0.1949  1.2572  0.0411
  196MOL0     H26979   0.589   0.617   2.457  2.1530 -1.7380  0.4286
  196MOL0     H26980   0.713   0.523   2.278  0.1824 -0.4329  2.7795
  196MOL0     H26981   0.664   0.164   2.236 -1.0322  0.8379 -1.1951
  196MOL0     H26982   0.800   0.212   2.134  0.5043 -0.1203  0.7799
  196MOL0     H26983   0.680   0.132   1.934 -0.4972  4.9167  1.4535
  196MOL0     H26984   0.720   0.021   2.054  0.8328  1.6738 -0.7349
  196MOL0     H26985   0.437   0.145   2.016  0.0296  0.6171  0.7342
  196MOL0     H26986   0.491  -0.018   1.954  2.9568  0.7847 -0.5034
  196MOL0     H26987   0.545  -0.094   2.184 -2.1518 -2.2019 -2.2350
  196MOL0     H26988   0.451   0.045   2.246  1.7013  2.3863 -0.4017
  196MOL0     H26989   0.376  -0.188   2.047 -1.2618 -1.5410  0.6998
  196MOL0     H26990   0.264  -0.045   2.075  1.0966 -0.3020 -0.9647
  196MOL0     H26991   0.192  -0.250   2.194 -1.0518 -0.1512  2.1167
  196MOL0     H26992   0.319  -0.219   2.320  2.6265  0.0786 -2.6109
  196MOL0     H26993   0.236   0.027   2.326  0.6227 -0.3956 -2.8457
  196MOL0     H26994   0.140  -0.106   2.412 -0.2338 -1.5942  0.0471
  196MOL0     H26995   0.063  -0.014   2.134 -2.3046  0.5128 -0.3004
  196MOL0     H26996  -0.007  -0.130   2.257 -3.4551  1.1068  3.3822
  196MOL0     H26997  -0.230  -0.014   2.356 -1.6896  1.6543  0.1710
  196MOL0     H26998  -0.337   0.334   2.478  0.6120 -1.4417  1.7398
  196MOL0     H26999  -0.394   0.182   2.413  1.5421 -1.8203 -1.6947
  196MOL0     H27000  -0.317   0.414   2.223 -3.0005  1.2790 -1.3714
  196MOL0     H27001  -0.417   0.288   2.187  0.7771 -0.9753  0.9552
  196MOL0     H27002  -0.559   0.418   2.384  1.3246  1.8496  0.8354
  196MOL0     H27003  -0.436   0.538   2.353 -1.9060  1.2375  1.9808
  196MOL0     H27004  -0.512   0.584   2.133  0.9562  1.1091  3.1839
  196MOL0     H27005  -0.622   0.448   2.117  3.2013  0.5053 -1.2814
  196MOL0     H27006  -0.755   0.346   2.278  0.6635  0.8670 -4.3950
  196MOL0     H27007  -1.088   0.196   2.373 -1.5750 -1.9265 -3.5568
  196MOL0     H27008  -0.921   0.164   2.367  0.3081 -0.3354 -0.1840
  196MOL0     H27009  -1.032   0.192   2.222 -1.0644 -3.6195  1.1013
  196MOL0     H27010  -1.446   0.308   2.150  1.3868  1.9503  0.6248
  196MOL0     H27011  -1.666   0.206   2.175  1.1253  5.4024 -1.0316
  196MOL0     H27012  -1.823   0.201   2.587  2.1828  1.4516 -0.3906
  196MOL0     H27013  -1.916   0.284   2.460 -3.1797  0.6994  3.7515
  196MOL0     H27014  -2.028   0.060   2.398  0.5635 -1.0855  0.3710
  196MOL0     H27015  -1.922  -0.013   2.510  0.4677  1.6374 -0.2429
  196MOL0     H27016  -2.007   0.166   2.683  1.5870  0.3365 -1.3679
  196MOL0     H27017  -2.087   0.001   2.669 -0.7194  1.1123  1.3094
  196MOL0     H27018  -2.269   0.079   2.615  1.0272 -1.3710 -0.0172
  196MOL0     H27019  -2.223   0.189   2.487 -4.4104  1.2169  0.5784
  196MOL0     H27020  -2.141   0.354   2.671 -1.8761  3.1441  0.0018
  196MOL0     H27021  -2.317   0.331   2.660 -0.8960 -1.1325  0.7250
  196MOL0     H27022  -2.144   0.224   2.865  0.0918 -2.9704 -0.8592
  196MOL0     H27023  -2.304   0.142   2.845 -2.1667  0.7781 -0.0027
  196MOL0     H27024  -2.410   0.364   2.862 -0.2137  4.6131  1.2584
  196MOL0     H27025  -2.258   0.447   2.874 -1.6666  0.7716  0.7649
  196MOL0     H27026  -2.309   0.418   3.111 -0.1753  0.0789  0.3835
  196MOL0     H27027  -2.249   0.251   3.070 -1.4305 -0.1627 -1.5984
  196MOL0     H27028  -1.591   0.133   2.578  0.3083 -0.0112 -0.1623
  196MOL0     H27029  -1.349   0.254   2.551  0.2850 -1.6542  1.0504
  196MOL0     H27030  -1.108   0.692   2.366  2.8140  2.8167 -0.5180
  196MOL0     H27031  -0.883   0.747   2.279 -2.2917 -0.6111 -3.3531
  196MOL0     H27032   0.407   0.250   2.204  1.5892 -1.0181  1.2944
  196MOL0     H27033   0.282   0.326   2.393  0.1596  0.0540  1.5990
  196MOL0     H27034   0.467   0.887   2.533  0.9973 -0.8469 -1.4257
  196MOL0     H27035   0.468   1.059   2.342 -2.2676  0.3662 -2.7639
  196MOL0     H27036   0.396   1.029   1.935 -4.7699  2.6161  1.6983
  196MOL0     H27037   0.498   1.097   2.069  1.0504  1.4186 -2.6404
  196MOL0     H27038   0.505   0.836   2.143 -1.1625  2.2730 -0.2453
  196MOL0     H27039   0.635   0.907   2.043  0.6153  0.3158  1.6886
  196MOL0     H27040   0.395   0.762   1.916 -0.7468  0.1032  1.4821
  196MOL0     H27041   0.547   0.816   1.838  0.2052 -1.4175 -0.5753
  196MOL0     H27042   0.485   0.601   2.046  1.5809 -2.4313  0.0302
  196MOL0     H27043   0.646   0.667   2.051 -0.9550 -0.1870  0.4951
  196MOL0     H27044   0.676   0.379   1.749 -0.1067 -2.2793  1.4646
  196MOL0     H27045   0.159   0.820   2.163  1.5418  1.0137 -1.2167
  196MOL0     H27046   0.134   0.602   2.234 -0.9441 -1.0643  0.7690
  196MOL0     H27047   0.150   0.563   2.406 -0.6209  0.5391 -0.4291
  196MOL0     H27048   0.022   0.683   2.341  0.3579  1.7037 -0.2212
  197MOL0     O27049  10.958   3.753  10.677 -0.0432 -0.1222  0.2275
  197MOL0     C27050  10.945   3.873  10.647 -0.1168  0.9048  0.3517
  197MOL0     O27051  11.047   3.967  10.621 -0.0330  0.5110  0.0397
  197MOL0     C27052  11.186   3.940  10.626  0.0612  0.6208  0.3020
  197MOL0     C27053  11.261   3.825  10.636 -0.6123  0.0301 -0.5890
  197MOL0     C27054  11.401   3.829  10.634  0.8623 -0.0883  0.3884
  197MOL0     C27055  11.468   3.953  10.627  0.3796 -0.5863 -0.4072
  197MOL0     O27056  11.609   3.967  10.620 -0.6391  0.5846  0.3978
  197MOL0     C27057  11.701   3.856  10.633  0.0483 -0.8473 -0.0047
  197MOL0     C27058  11.718   3.826  10.785  0.1574  0.9003 -0.2975
  197MOL0     C27059  11.748   3.958  10.864  0.0223 -0.3082 -1.1274
  197MOL0     C27060  11.787   3.923  11.010 -0.7735 -0.4856 -0.1559
  197MOL0     C27061  11.941   3.891  11.044 -0.5943 -0.7428 -0.5800
  197MOL0     C27062  11.992   3.741  11.022  0.8660 -0.2339 -0.7975
  197MOL0     C27063  11.931   3.654  11.132 -0.0319  0.2672  0.5633
  197MOL0     C27064  11.972   3.509  11.105 -0.6136  1.3055  1.9286
  197MOL0     N27065  11.900   3.396  11.167  0.3138  0.8506  0.3050
  197MOL0     C27066  11.903   3.376  11.305  0.0203 -0.5297  0.4004
  197MOL0     C27067  11.843   3.254  11.322  0.1950  0.0685 -0.3780
  197MOL0     C27068  11.829   3.176  11.447 -0.1674  0.9605 -0.3647
  197MOL0     C27069  11.704   3.214  11.523  0.6529 -0.3418 -0.5486
  197MOL0     C27070  11.674   3.116  11.637 -0.0419 -0.4179  0.1509
  197MOL0     C27071  11.645   3.186  11.772  0.2534  0.3300 -0.1678
  197MOL0     O27072  11.598   3.099  11.883  0.0417  0.0273 -0.4811
  197MOL0     C27073  11.685   3.033  11.974  0.3539  0.4662 -1.0947
  197MOL0     C27074  11.811   2.993  11.962  0.1493 -0.4531  0.5044
  197MOL0     C27075  11.882   2.930  12.069 -0.7929 -0.2235 -0.5953
  197MOL0     C27076  12.027   2.890  12.047 -0.1644  0.4788 -0.6835
  197MOL0     C27077  11.812   2.904  12.187 -1.2412 -0.3450  0.6034
  197MOL0     C27078  11.878   2.844  12.301 -0.3311  0.3785  0.6840
  197MOL0     O27079  11.862   2.909  12.424 -0.2664 -0.1118  0.1722
  197MOL0     C27080  11.949   2.883  12.526  0.8180  0.5267 -0.8969
  197MOL0     C27081  11.902   2.918  12.660 -0.2805  0.6544  0.1598
  197MOL0     C27082  11.998   2.909  12.764  0.1258 -0.0738  0.5364
  197MOL0     C27083  12.122   2.847  12.748  0.6721 -0.3402 -0.7994
  197MOL0     O27084  12.194   2.825  12.873 -0.0575  0.3904  0.6218
  197MOL0     C27085  12.322   2.753  12.864  0.5717 -0.5004  1.0697
  197MOL0     C27086  12.383   2.767  13.002  0.0032  0.3662 -0.4622
  197MOL0     C27087  12.527   2.691  12.999 -0.1956 -0.1061 -0.1141
  197MOL0     C27088  12.580   2.695  13.149  0.1286 -0.0291 -0.1401
  197MOL0     C27089  12.720   2.634  13.175 -0.7548  0.3829 -0.9813
  197MOL0     C27090  12.730   2.499  13.102 -0.3021  1.2520  0.2110
  197MOL0     C27091  12.612   2.395  13.130  0.9980  0.2453 -0.4723
  197MOL0     C27092  12.619   2.322  13.260  0.0787  0.0342  0.4807
  197MOL0    Cl27093  12.755   2.353  13.362 -0.6936 -0.1115 -0.1470
  197MOL0     C27094  12.159   2.804  12.619 -0.0535 -0.3809 -0.5012
  197MOL0     C27095  12.074   2.837  12.511 -0.3960 -0.0428 -0.2682
  197MOL0     O27096  11.934   2.742  12.277  0.0457  0.2412  0.3408
  197MOL0     C27097  11.677   2.934  12.198 -0.1628  0.4422  0.3661
  197MOL0     C27098  11.620   2.995  12.092  0.4853 -0.0529 -0.0741
  197MOL0     N27099  11.812   3.204  11.195 -0.0008 -0.4235 -0.2121
  197MOL0     N27100  11.836   3.294  11.108  0.0016  0.1075 -0.1552
  197MOL0     C27101  11.393   4.064  10.618  0.0331 -1.0535 -0.7797
  197MOL0     C27102  11.258   4.058  10.615  0.8346  0.5532  0.6822
  197MOL0     C27103  10.816   3.926  10.671 -0.0540  0.1604 -0.8229
  197MOL0     C27104  10.767   3.902  10.801 -0.3429  0.2782  0.1127
  197MOL0     C27105  10.640   3.951  10.828 -0.9862  0.5368 -0.6223
  197MOL0     C27106  10.556   4.016  10.740  0.1246 -0.3769  0.4243
  197MOL0     O27107  10.427   4.051  10.773  0.5174  0.6410  0.4039
  197MOL0     C27108  10.338   4.102  10.677  0.4283 -0.7766  0.0169
  197MOL0     C27109  10.288   3.997  10.577 -0.1878 -0.7519 -1.3042
  197MOL0     C27110  10.261   3.860  10.626 -0.4449 -0.5137  0.6101
  197MOL0     C27111  10.186   3.861  10.759 -0.2913 -1.0194  0.3189
  197MOL0     C27112  10.133   3.724  10.778  0.2062 -1.2797  1.1804
  197MOL0     C27113  10.083   3.615  10.798 -0.6148  0.3235  0.1998
  197MOL0     C27114  10.609   4.033  10.608  0.5079  1.1199 -0.0233
  197MOL0     C27115  10.744   3.998  10.567  0.6738 -0.2092 -0.9328
  197MOL0     C27116  10.806   4.039  10.441  0.2606 -0.2615  0.3419
  197MOL0     H27117  11.217   3.726  10.636 -2.0292  0.6462 -0.7850
  197MOL0     H27118  11.457   3.737  10.633  2.9271  0.9763 -3.5921
  197MOL0     H27119  11.800   3.893  10.605  0.3637 -0.0059  1.9854
  197MOL0     H27120  11.674   3.767  10.577  0.2392 -0.4610 -0.7144
  197MOL0     H27121  11.632   3.786  10.838  0.8772 -0.8973 -0.4087
  197MOL0     H27122  11.800   3.754  10.799 -1.7485 -1.5651 -0.9894
  197MOL0     H27123  11.836   4.007  10.821  0.1116  1.3109  0.7489
  197MOL0     H27124  11.656   4.018  10.870 -0.0379 -0.5134  0.7136
  197MOL0     H27125  11.749   4.007  11.070 -2.2174 -0.9155 -0.4261
  197MOL0     H27126  11.725   3.839  11.043 -1.4883 -0.6521 -1.8462
  197MOL0     H27127  11.973   3.928  11.142  0.3016 -0.6451 -0.8923
  197MOL0     H27128  12.007   3.948  10.976  2.5162 -0.1024  2.6541
  197MOL0     H27129  11.970   3.702  10.922 -0.9488  0.7907 -0.8539
  197MOL0     H27130  12.100   3.734  11.012  0.6261 -1.7977 -2.8079
  197MOL0     H27131  11.822   3.666  11.128  0.0475  0.7094 -0.7525
  197MOL0     H27132  11.971   3.674  11.232 -1.1837  2.2138  0.6990
  197MOL0     H27133  11.980   3.492  10.997  2.6426  0.0090  2.2594
  197MOL0     H27134  12.079   3.500  11.125  0.2095 -1.1695 -2.3348
  197MOL0     H27135  11.947   3.441  11.380  0.2571 -0.2364  0.0126
  197MOL0     H27136  11.917   3.190  11.511  0.6280  1.9890 -1.6299
  197MOL0     H27137  11.838   3.071  11.416 -4.3975 -0.3735  2.1191
  197MOL0     H27138  11.709   3.319  11.554  2.4380 -0.6451  0.3463
  197MOL0     H27139  11.622   3.211  11.451  0.7529  0.0384 -0.6771
  197MOL0     H27140  11.580   3.063  11.623 -0.0375 -0.2280 -0.6472
  197MOL0     H27141  11.751   3.043  11.664 -0.3705 -0.5084  0.8580
  197MOL0     H27142  11.739   3.225  11.811 -1.4969  2.9899  1.6713
  197MOL0     H27143  11.585   3.277  11.762  0.5132  0.7867  2.0502
  197MOL0     H27144  11.866   3.026  11.875  0.8396  1.0328  1.4665
  197MOL0     H27145  12.033   2.782  12.061 -1.5355  0.4158 -0.5277
  197MOL0     H27146  12.081   2.950  12.121 -1.5818 -1.2535  1.9127
  197MOL0     H27147  12.076   2.898  11.949 -2.2829  0.7881 -1.7711
  197MOL0     H27148  11.802   2.951  12.684 -2.3464 -4.6649  0.0763
  197MOL0     H27149  11.973   2.937  12.866 -1.8620 -1.4367  0.4738
  197MOL0     H27150  12.314   2.655  12.818  3.2833 -0.7236  0.9023
  197MOL0     H27151  12.379   2.814  12.793 -0.9741  1.6395  1.5443
  197MOL0     H27152  12.404   2.867  13.042 -0.0346 -0.6019  2.1772
  197MOL0     H27153  12.315   2.713  13.069  2.6963  1.5806  3.6233
  197MOL0     H27154  12.600   2.745  12.939  0.2699  1.3171  1.6437
  197MOL0     H27155  12.519   2.594  12.949 -1.5935 -0.4964  0.8045
  197MOL0     H27156  12.507   2.634  13.203  0.6534  1.7867  2.9112
  197MOL0     H27157  12.573   2.802  13.168  0.0715  0.3365 -2.0392
  197MOL0     H27158  12.807   2.691  13.143  3.4266 -4.3577  0.6660
  197MOL0     H27159  12.728   2.606  13.281  1.5027 -0.2254 -1.2626
  197MOL0     H27160  12.826   2.450  13.122 -0.2276  1.4041  0.2233
  197MOL0     H27161  12.733   2.530  12.997  0.4487  0.7208  0.0665
  197MOL0     H27162  12.615   2.316  13.055  3.2474 -0.0295 -0.1685
  197MOL0     H27163  12.509   2.428  13.120 -0.0677 -1.4296  3.1074
  197MOL0     H27164  12.628   2.213  13.253 -1.5183 -0.2259  1.7952
  197MOL0     H27165  12.522   2.342  13.307  0.9571  0.1691  2.3140
  197MOL0     H27166  12.255   2.767  12.583 -0.3949 -2.0604  0.2196
  197MOL0     H27167  12.103   2.805  12.412 -2.6291 -0.4539 -0.8410
  197MOL0     H27168  11.629   2.910  12.292 -0.9613 -0.4781 -0.2588
  197MOL0     H27169  11.514   3.015  12.102  0.7804  0.5088  2.5141
  197MOL0     H27170  11.451   4.155  10.618 -0.1642 -0.8786  1.1243
  197MOL0     H27171  11.206   4.153  10.606 -0.8934 -0.4580 -0.7826
  197MOL0     H27172  10.816   3.846  10.880  1.1753  1.7146  0.2413
  197MOL0     H27173  10.610   3.925  10.929  3.0455  1.6985  1.0713
  197MOL0     H27174  10.249   4.140  10.729 -0.3707 -1.4148 -0.8467
  197MOL0     H27175  10.374   4.192  10.625 -0.6356 -0.4529 -0.1887
  197MOL0     H27176  10.359   3.995  10.493  0.2451 -3.6153 -0.9639
  197MOL0     H27177  10.194   4.032  10.534 -0.0665  1.8036  0.2766
  197MOL0     H27178  10.204   3.817  10.544  2.2459  0.4047 -1.9176
  197MOL0     H27179  10.351   3.799  10.642 -0.5792 -1.8399 -2.9360
  197MOL0     H27180  10.107   3.937  10.753 -0.1811 -0.9567 -0.4754
  197MOL0     H27181  10.241   3.884  10.851  1.4581 -1.6970 -0.5096
  197MOL0     H27182  10.029   3.524  10.815 -0.1118 -0.7297 -3.2175
  197MOL0     H27183  10.549   4.062  10.522 -1.0641 -5.3000 -1.6383
  197MOL0     H27184  10.824   3.960  10.368 -0.2594  0.5061 -0.6452
  197MOL0     H27185  10.740   4.119  10.405 -1.0086 -2.2015 -1.9123
  197MOL0     H27186  10.902   4.089  10.462 -0.7822  0.8576  2.9435
  198MOL0     O27187  10.362   4.688   9.637 -0.4827  0.0064 -0.1082
  198MOL0     C27188  10.391   4.805   9.604 -1.1140  0.1705  0.4583
  198MOL0     O27189  10.490   4.844   9.520  0.5847  0.0216  0.5077
  198MOL0     C27190  10.555   4.742   9.455 -0.3711 -0.3115  0.8269
  198MOL0     C27191  10.678   4.691   9.504  0.5150  0.2382  0.2174
  198MOL0     C27192  10.745   4.586   9.436  0.7707 -0.9110  0.4577
  198MOL0     C27193  10.684   4.529   9.327  0.3703  0.0493  0.1111
  198MOL0     O27194  10.724   4.417   9.254 -0.8349  0.6917 -0.3716
  198MOL0     C27195  10.856   4.366   9.299  0.6697 -0.0385 -0.3499
  198MOL0     C27196  10.906   4.253   9.217 -0.9175  0.5582  0.8658
  198MOL0     C27197  11.052   4.209   9.257 -0.3361  0.5075 -0.1214
  198MOL0     C27198  11.167   4.304   9.209  0.0981 -0.2744 -0.2142
  198MOL0     C27199  11.307   4.258   9.244  0.2945 -0.1782  0.7936
  198MOL0     C27200  11.321   4.269   9.402  0.0490 -0.7888  0.8530
  198MOL0     C27201  11.473   4.235   9.439  0.2859  0.0620  0.5820
  198MOL0     C27202  11.514   4.224   9.594  0.2199  0.0180  0.2775
  198MOL0     N27203  11.513   4.350   9.677  0.4359  0.3892  0.2688
  198MOL0     C27204  11.402   4.408   9.740 -0.2404 -0.5830  0.8593
  198MOL0     C27205  11.438   4.532   9.772 -0.6651  0.1276 -0.1941
  198MOL0     C27206  11.338   4.636   9.825 -0.5444  0.5860  0.9575
  198MOL0     C27207  11.333   4.654   9.977  0.2495  0.1685 -0.3294
  198MOL0     C27208  11.271   4.786  10.014  0.5251  0.5587  0.3083
  198MOL0     C27209  11.157   4.791  10.114  0.6333  0.1509 -0.7047
  198MOL0     O27210  11.044   4.744  10.044  0.4705 -0.7388  0.1329
  198MOL0     C27211  10.932   4.696  10.113  1.1370  0.4693 -0.8678
  198MOL0     C27212  10.848   4.607  10.046 -0.3966  0.2505  0.4806
  198MOL0     C27213  10.718   4.584  10.097 -0.4107 -0.6361  0.1411
  198MOL0     C27214  10.620   4.507  10.004  0.4574 -0.7129  0.0709
  198MOL0     C27215  10.687   4.639  10.228 -0.1582 -0.1244  0.6774
  198MOL0     C27216  10.558   4.620  10.280  0.1948  0.7178 -0.6734
  198MOL0     O27217  10.532   4.653  10.415  0.3110  0.0645 -0.0954
  198MOL0     C27218  10.414   4.618  10.474 -0.2650  0.1261  0.5464
  198MOL0     C27219  10.303   4.706  10.465  0.5743 -0.6046 -0.8210
  198MOL0     C27220  10.185   4.683  10.539 -0.4107  0.2940 -0.3342
  198MOL0     C27221  10.189   4.582  10.644 -0.7805  0.6570 -0.9355
  198MOL0     O27222  10.071   4.563  10.714 -0.4074  0.3902  0.4638
  198MOL0     C27223  10.080   4.505  10.843  0.4624 -0.4286 -0.0191
  198MOL0     C27224   9.950   4.506  10.920 -0.1299 -0.8858 -0.0592
  198MOL0     C27225   9.926   4.367  10.991  0.0806 -0.2652  0.9645
  198MOL0     C27226  10.028   4.326  11.094  1.5044  0.8763 -0.6656
  198MOL0     C27227   9.979   4.215  11.190  1.2062  0.8932  0.6233
  198MOL0     C27228   9.930   4.085  11.117 -0.2095  0.8869  1.0544
  198MOL0     C27229   9.921   3.967  11.225  1.0509  0.4030  0.2160
  198MOL0     C27230   9.822   3.860  11.178  0.2551  0.1213 -0.6593
  198MOL0    Cl27231   9.835   3.698  11.258 -0.3992 -0.3390  0.0547
  198MOL0     C27232  10.305   4.501  10.652 -0.3611 -0.3644 -0.1189
  198MOL0     C27233  10.414   4.522  10.573  0.1482 -0.7184  0.3215
  198MOL0     O27234  10.467   4.583  10.206 -0.3200 -0.6491 -0.4937
  198MOL0     C27235  10.782   4.713  10.300  0.4775  0.5432  0.7157
  198MOL0     C27236  10.901   4.748  10.237 -1.1469  0.2217 -0.0892
  198MOL0     N27237  11.567   4.552   9.750 -0.4268 -0.5896 -0.6654
  198MOL0     N27238  11.607   4.449   9.691  0.0643  0.3373 -0.5536
  198MOL0     C27239  10.568   4.590   9.280 -0.4364  0.1244  0.1971
  198MOL0     C27240  10.506   4.695   9.342 -0.1143 -0.1538  0.1221
  198MOL0     C27241  10.287   4.913   9.643 -1.1322 -0.0152 -0.0728
  198MOL0     C27242  10.341   5.014   9.727  0.4537 -0.3112 -0.2900
  198MOL0     C27243  10.259   5.099   9.806  1.1318  0.4786 -0.1986
  198MOL0     C27244  10.125   5.081   9.802  0.1429  0.2247  0.7581
  198MOL0     O27245  10.064   5.171   9.882 -0.4242  0.0595  0.0139
  198MOL0     C27246   9.922   5.151   9.909 -0.6513  0.1172 -0.0798
  198MOL0     C27247   9.875   5.201  10.035 -0.1978  0.6369 -0.0718
  198MOL0     C27248   9.882   5.109  10.156 -0.4134  0.0022  0.4944
  198MOL0     C27249  10.030   5.084  10.196 -0.1948  0.5158 -0.0676
  198MOL0     C27250  10.036   5.127  10.333  0.0438 -0.0156 -0.9466
  198MOL0     C27251  10.025   5.168  10.453 -0.3505 -0.3111  0.1383
  198MOL0     C27252  10.062   4.985   9.711  0.3935 -0.2030 -0.0624
  198MOL0     C27253  10.147   4.896   9.637  0.5107  0.6260  0.1941
  198MOL0     C27254  10.091   4.784   9.556 -0.0344  0.1731 -0.4228
  198MOL0     H27255  10.719   4.728   9.598 -0.2483  0.3033  0.5347
  198MOL0     H27256  10.836   4.540   9.474  1.5148 -2.3708 -2.7558
  198MOL0     H27257  10.842   4.332   9.402 -3.5843 -1.7431 -1.2650
  198MOL0     H27258  10.938   4.438   9.298  1.1339 -0.5634 -0.8646
  198MOL0     H27259  10.833   4.173   9.234  0.6458 -1.3788 -0.9888
  198MOL0     H27260  10.891   4.287   9.113 -0.4345 -1.5065  0.0767
  198MOL0     H27261  11.065   4.190   9.364 -0.6372 -1.1821 -0.3457
  198MOL0     H27262  11.074   4.111   9.213  0.7187  0.0158  1.4264
  198MOL0     H27263  11.157   4.302   9.100  1.1376 -0.0550 -0.3279
  198MOL0     H27264  11.149   4.401   9.255  2.5179 -0.3891  1.1506
  198MOL0     H27265  11.376   4.324   9.190  2.0801 -3.3862 -1.1280
  198MOL0     H27266  11.331   4.160   9.203  2.5190  0.6200  0.0266
  198MOL0     H27267  11.306   4.370   9.439  1.6058 -0.3101  0.2627
  198MOL0     H27268  11.249   4.205   9.454 -0.5967 -1.0168 -0.2711
  198MOL0     H27269  11.540   4.298   9.381 -0.1680  1.7453  1.8052
  198MOL0     H27270  11.500   4.138   9.397  1.5638  0.0820  1.3021
  198MOL0     H27271  11.455   4.143   9.638 -0.5546 -0.1604 -1.0483
  198MOL0     H27272  11.616   4.184   9.588 -0.6878 -2.4390  0.3143
  198MOL0     H27273  11.299   4.375   9.730 -0.0604 -0.8707 -0.1783
  198MOL0     H27274  11.237   4.601   9.801 -1.7180  3.2033  1.8189
  198MOL0     H27275  11.351   4.731   9.773 -0.5927  1.5848  2.7238
  198MOL0     H27276  11.284   4.567  10.021 -2.3449  1.1658 -1.0798
  198MOL0     H27277  11.433   4.655  10.022  1.3031  1.0695 -2.5077
  198MOL0     H27278  11.347   4.841  10.070 -0.8944  0.7377  2.1456
  198MOL0     H27279  11.242   4.848   9.929  1.6599 -0.4356 -0.8413
  198MOL0     H27280  11.183   4.729  10.199 -2.7103 -1.0651 -0.4061
  198MOL0     H27281  11.134   4.892  10.150 -1.6836 -1.0364  1.4444
  198MOL0     H27282  10.883   4.558   9.956  0.2170  0.2928  0.6938
  198MOL0     H27283  10.533   4.567   9.975 -1.6837 -2.7717  1.7749
  198MOL0     H27284  10.581   4.416  10.050  0.5413 -0.0666  1.4491
  198MOL0     H27285  10.677   4.470   9.918 -0.7090 -1.1883 -0.5165
  198MOL0     H27286  10.315   4.785  10.391  2.6086  1.1247  1.2128
  198MOL0     H27287  10.095   4.741  10.519 -0.1092  0.4751 -1.1918
  198MOL0     H27288  10.108   4.401  10.820  1.8198 -0.2459  0.7219
  198MOL0     H27289  10.153   4.546  10.913  0.2399  1.2170 -0.7140
  198MOL0     H27290   9.956   4.584  10.996  0.2832 -0.4594 -0.5268
  198MOL0     H27291   9.873   4.527  10.845  1.1856  1.0884 -0.9440
  198MOL0     H27292   9.920   4.287  10.917  2.0919 -1.4234  1.9743
  198MOL0     H27293   9.822   4.381  11.020 -1.6483 -2.2593 -3.4038
  198MOL0     H27294  10.064   4.410  11.155  3.0255 -0.8303  0.9199
  198MOL0     H27295  10.117   4.288  11.044  2.3920  2.0764 -0.0653
  198MOL0     H27296  10.056   4.184  11.261  0.5248  0.6785  1.2720
  198MOL0     H27297   9.885   4.254  11.230 -0.7552 -3.8521  1.3973
  198MOL0     H27298  10.003   4.057  11.041 -1.5210  1.9122 -0.6500
  198MOL0     H27299   9.837   4.113  11.067  1.5459  0.9896 -2.5109
  198MOL0     H27300   9.888   4.001  11.323 -2.6324  1.4138 -1.1893
  198MOL0     H27301  10.017   3.918  11.241  0.5445 -0.0984  1.8676
  198MOL0     H27302   9.836   3.841  11.071 -0.9361  0.7115 -0.9339
  198MOL0     H27303   9.720   3.899  11.185  0.4921  0.7357 -0.5766
  198MOL0     H27304  10.314   4.425  10.729  1.7188  1.2497  1.3542
  198MOL0     H27305  10.509   4.468  10.569  1.7720  2.0152 -1.9089
  198MOL0     H27306  10.779   4.759  10.398  0.3568 -1.1989  1.5724
  198MOL0     H27307  10.974   4.811  10.287  0.1077  2.0966 -3.8763
  198MOL0     H27308  10.510   4.545   9.199 -1.4411  2.5219 -0.5085
  198MOL0     H27309  10.411   4.730   9.305 -0.2240 -1.6925 -1.1431
  198MOL0     H27310  10.449   5.012   9.744  0.4426 -1.4776 -0.3241
  198MOL0     H27311  10.301   5.178   9.867 -1.9288  2.4514 -0.4395
  198MOL0     H27312   9.869   5.183   9.819 -0.2763  2.5977  0.4895
  198MOL0     H27313   9.903   5.044   9.920 -1.4777  0.4597  2.6673
  198MOL0     H27314   9.771   5.228  10.013 -0.5717 -2.6405 -3.1770
  198MOL0     H27315   9.925   5.295  10.058 -1.8060  1.6825 -0.6974
  198MOL0     H27316   9.825   5.153  10.239  0.3185 -2.7986  2.6636
  198MOL0     H27317   9.827   5.017  10.132 -2.1172  1.1881 -0.3658
  198MOL0     H27318  10.089   5.142  10.125 -1.6401  0.5041 -1.3331
  198MOL0     H27319  10.047   4.976  10.187 -1.1630  0.3436  0.1244
  198MOL0     H27320  10.027   5.176  10.559 -2.0569 -2.2804  0.3800
  198MOL0     H27321   9.955   4.985   9.693  0.1256 -0.7584  1.4072
  198MOL0     H27322  10.142   4.781   9.459  3.3269 -2.4930  1.1687
  198MOL0     H27323  10.096   4.691   9.614 -0.6714  0.2681 -0.2043
  198MOL0     H27324   9.985   4.802   9.539 -0.1590  2.3091  2.0711
  199MOL0     O27325   3.065   8.484  10.415  0.5234 -0.4128 -0.2072
  199MOL0     C27326   3.051   8.569  10.331  0.4977 -0.7996 -0.6163
  199MOL0     O27327   3.151   8.607  10.238 -0.6660  0.5068 -0.5677
  199MOL0     C27328   3.277   8.550  10.239  1.0436 -0.7530 -0.4845
  199MOL0     C27329   3.377   8.645  10.251 -0.1544 -0.0539  0.7753
  199MOL0     C27330   3.505   8.594  10.263  0.3603 -0.1497  0.6420
  199MOL0     C27331   3.533   8.454  10.264 -0.4826 -0.2131  0.0443
  199MOL0     O27332   3.664   8.415  10.272  0.4355  0.0948 -0.5787
  199MOL0     C27333   3.683   8.279  10.325 -0.0783 -0.3373  0.8115
  199MOL0     C27334   3.816   8.273  10.397 -0.8466  0.5766  0.8216
  199MOL0     C27335   3.927   8.305  10.299  0.2343  0.2013  0.1318
  199MOL0     C27336   4.061   8.242  10.332  0.2592  0.3371  0.0228
  199MOL0     C27337   4.169   8.329  10.389  0.4363 -0.2439 -1.2399
  199MOL0     C27338   4.098   8.391  10.511  0.3647 -0.3671 -0.6921
  199MOL0     C27339   4.187   8.477  10.606  0.8572  0.2399 -0.9123
  199MOL0     C27340   4.126   8.504  10.750 -0.6826 -0.0991  0.6470
  199MOL0     N27341   4.011   8.590  10.742  0.4014 -0.2325  0.3902
  199MOL0     C27342   3.892   8.539  10.704  0.5622 -0.8183 -0.0987
  199MOL0     C27343   3.804   8.643  10.720  0.4917 -0.0028  0.5483
  199MOL0     C27344   3.658   8.643  10.680 -0.6440 -0.0922  0.6963
  199MOL0     C27345   3.575   8.552  10.770  0.0777 -0.1612 -0.5487
  199MOL0     C27346   3.547   8.415  10.698  0.3062  0.7221  0.8004
  199MOL0     C27347   3.443   8.333  10.766 -0.6415  0.1942  0.0224
  199MOL0     O27348   3.526   8.282  10.874 -0.2493  0.4399 -0.6248
  199MOL0     C27349   3.477   8.192  10.964  0.3193  1.0994 -0.6920
  199MOL0     C27350   3.367   8.115  10.947  0.4035  0.2006  0.8908
  199MOL0     C27351   3.326   8.005  11.038  0.8279 -0.6823  0.4769
  199MOL0     C27352   3.195   7.935  11.012  0.1111  0.5590 -0.4537
  199MOL0     C27353   3.407   7.981  11.150 -0.3672 -0.6007  0.4299
  199MOL0     C27354   3.383   7.865  11.239 -0.4103 -0.7088 -0.2051
  199MOL0     O27355   3.495   7.829  11.313  0.7915 -0.6839 -0.8695
  199MOL0     C27356   3.491   7.711  11.386 -0.1252 -0.4052 -0.4337
  199MOL0     C27357   3.569   7.707  11.505  0.3705 -0.6603 -0.6834
  199MOL0     C27358   3.580   7.588  11.586  0.3611  0.4826 -0.0201
  199MOL0     C27359   3.522   7.466  11.536 -0.2300  1.0029  0.8426
  199MOL0     O27360   3.490   7.348  11.601  0.5421 -0.1031  0.0729
  199MOL0     C27361   3.609   7.301  11.673 -0.7859 -0.2271 -0.6832
  199MOL0     C27362   3.594   7.169  11.751  0.7988 -0.8933 -0.8083
  199MOL0     C27363   3.471   7.178  11.835 -1.1684 -0.0766 -0.0624
  199MOL0     C27364   3.491   7.110  11.970  0.3819  0.4226  0.1775
  199MOL0     C27365   3.346   7.089  12.021 -0.4705 -0.4814  0.0641
  199MOL0     C27366   3.334   7.037  12.166 -0.7033  0.5589  0.5523
  199MOL0     C27367   3.253   6.906  12.167  0.0334  0.1884  0.0185
  199MOL0     C27368   3.115   6.940  12.136  0.3173  0.2371  1.2231
  199MOL0    Cl27369   3.029   6.790  12.117 -0.5216 -0.1213  0.5293
  199MOL0     C27370   3.455   7.472  11.410  0.3862 -0.3840  0.4518
  199MOL0     C27371   3.448   7.585  11.324  0.1211 -0.3735 -0.9162
  199MOL0     O27372   3.258   7.837  11.256 -0.2308 -0.8877  0.5953
  199MOL0     C27373   3.522   8.058  11.163  0.1922 -0.3482 -0.4798
  199MOL0     C27374   3.552   8.167  11.075 -0.0454 -0.4351 -0.2869
  199MOL0     N27375   3.879   8.763  10.738 -0.2347 -1.1707 -0.3020
  199MOL0     N27376   4.003   8.727  10.759 -0.4598 -1.0749 -0.5583
  199MOL0     C27377   3.424   8.367  10.266 -0.0461 -0.4144 -0.3262
  199MOL0     C27378   3.297   8.412  10.249  0.3395 -0.1039  0.1019
  199MOL0     C27379   2.923   8.644  10.331 -0.0518  0.1504  0.9955
  199MOL0     C27380   2.930   8.780  10.346  0.8175 -0.4510 -0.2012
  199MOL0     C27381   2.805   8.844  10.383 -0.3342 -1.2206 -0.1950
  199MOL0     C27382   2.679   8.773  10.393 -0.4752 -0.8650 -0.1587
  199MOL0     O27383   2.559   8.831  10.435 -0.4275 -0.4480 -0.4457
  199MOL0     C27384   2.520   8.967  10.413 -0.2982 -0.6867  0.2372
  199MOL0     C27385   2.392   8.978  10.327  0.0095  0.8298  0.3076
  199MOL0     C27386   2.417   8.945  10.178  0.1415 -0.4357 -0.4241
  199MOL0     C27387   2.553   8.994  10.114  0.5973  0.8281  1.0910
  199MOL0     C27388   2.575   9.136  10.140 -0.5653  0.3448 -1.1753
  199MOL0     C27389   2.601   9.254  10.157 -1.3007  0.8955 -0.0942
  199MOL0     C27390   2.677   8.634  10.386  0.2502 -0.2129 -0.2307
  199MOL0     C27391   2.803   8.572  10.350  0.4826  0.4518 -0.0969
  199MOL0     C27392   2.800   8.425  10.322 -0.3376 -0.7830 -0.0095
  199MOL0     H27393   3.364   8.753  10.260  0.7496  0.2317 -0.9300
  199MOL0     H27394   3.587   8.663  10.278  0.0922  0.6367 -1.2679
  199MOL0     H27395   3.679   8.213  10.238  0.4217  1.2270 -0.4451
  199MOL0     H27396   3.601   8.253  10.393 -1.4524  1.9141  0.1248
  199MOL0     H27397   3.810   8.344  10.480  0.4023  0.5154  0.9824
  199MOL0     H27398   3.828   8.172  10.437  1.1589  1.3683  2.3448
  199MOL0     H27399   3.892   8.250  10.211  0.2125 -3.6129  2.2786
  199MOL0     H27400   3.932   8.412  10.280 -0.8054  0.2469  0.0195
  199MOL0     H27401   4.044   8.161  10.403 -0.1845  0.1137 -0.3361
  199MOL0     H27402   4.096   8.189  10.243  1.1663 -3.2661  2.3258
  199MOL0     H27403   4.208   8.410  10.326  2.7025 -1.4103 -1.4310
  199MOL0     H27404   4.246   8.266  10.433 -2.0905 -0.7827  2.9064
  199MOL0     H27405   4.009   8.449  10.488  0.6463  1.3190  2.0705
  199MOL0     H27406   4.049   8.311  10.567  0.1890 -2.0414 -3.0904
  199MOL0     H27407   4.210   8.571  10.555 -0.0797  1.0422  0.0799
  199MOL0     H27408   4.282   8.426  10.628  0.1567 -1.3833 -1.4908
  199MOL0     H27409   4.102   8.420  10.816 -0.7637 -0.4319  0.1982
  199MOL0     H27410   4.207   8.558  10.800 -1.1762  1.4401 -0.1525
  199MOL0     H27411   3.867   8.441  10.665 -0.5150  0.0896 -1.7906
  199MOL0     H27412   3.644   8.619  10.575  1.2397  2.0608 -0.1289
  199MOL0     H27413   3.616   8.742  10.700  4.0434  2.5144 -0.7821
  199MOL0     H27414   3.640   8.552  10.858  2.2512  2.5885 -1.9898
  199MOL0     H27415   3.480   8.592  10.808  1.1850  2.1101  0.0156
  199MOL0     H27416   3.503   8.443  10.602 -1.2419 -0.6546  1.0568
  199MOL0     H27417   3.637   8.356  10.679 -0.9945 -0.9244 -0.4853
  199MOL0     H27418   3.360   8.389  10.810 -0.8412  1.0157 -1.3606
  199MOL0     H27419   3.412   8.240  10.717 -0.2859 -2.9827  5.0801
  199MOL0     H27420   3.302   8.124  10.860  2.0721 -0.4618 -0.5019
  199MOL0     H27421   3.212   7.827  11.012 -4.0076 -0.3001 -2.2894
  199MOL0     H27422   3.158   7.955  10.911  1.6639  2.2372 -0.7359
  199MOL0     H27423   3.124   7.975  11.085 -0.7858 -3.2386  0.9865
  199MOL0     H27424   3.631   7.794  11.527 -0.7648 -0.2714  1.1655
  199MOL0     H27425   3.643   7.583  11.674  3.3375 -3.2786 -2.0747
  199MOL0     H27426   3.680   7.286  11.592  2.4560 -1.7783  2.1859
  199MOL0     H27427   3.645   7.382  11.737  3.7012 -2.5086  0.1030
  199MOL0     H27428   3.574   7.090  11.678  4.0782 -3.1020  0.4634
  199MOL0     H27429   3.685   7.139  11.803 -0.5042 -3.1478  0.3552
  199MOL0     H27430   3.389   7.129  11.783 -0.0839 -1.6032 -0.4070
  199MOL0     H27431   3.431   7.276  11.860 -0.8632 -0.4025  1.9398
  199MOL0     H27432   3.554   7.165  12.040  1.2926 -3.2459  2.5029
  199MOL0     H27433   3.542   7.014  11.962 -1.2564 -0.6932  2.2210
  199MOL0     H27434   3.294   7.185  12.014 -1.1312 -0.9768 -3.3104
  199MOL0     H27435   3.291   7.021  11.956 -1.4327  0.4348 -0.1090
  199MOL0     H27436   3.300   7.112  12.237  0.2153  1.5520 -0.0168
  199MOL0     H27437   3.437   7.006  12.190 -0.0665  0.5659 -1.8774
  199MOL0     H27438   3.262   6.864  12.267  0.8462 -0.6592 -0.4014
  199MOL0     H27439   3.290   6.830  12.098 -1.3391 -2.9813  2.5096
  199MOL0     H27440   3.114   6.995  12.041  1.4303 -1.1039  0.3926
  199MOL0     H27441   3.071   6.999  12.217 -0.7353  1.3833 -0.1203
  199MOL0     H27442   3.405   7.382  11.377  1.3528 -0.4183 -0.9897
  199MOL0     H27443   3.409   7.583  11.223  3.0203  1.6818 -2.2144
  199MOL0     H27444   3.592   8.043  11.244  1.0701 -0.7083 -1.2824
  199MOL0     H27445   3.644   8.223  11.072 -0.8103  0.8907 -3.6278
  199MOL0     H27446   3.437   8.259  10.276  0.9920 -0.0442  5.1390
  199MOL0     H27447   3.203   8.360  10.239 -0.2563  1.3347 -3.3535
  199MOL0     H27448   3.026   8.832  10.349  2.1350 -2.7331 -0.8183
  199MOL0     H27449   2.799   8.951  10.395 -3.3000 -1.0489 -2.1204
  199MOL0     H27450   2.490   9.009  10.510 -3.6683  1.3130 -1.4978
  199MOL0     H27451   2.596   9.029  10.365 -3.2208  0.8083 -2.8838
  199MOL0     H27452   2.358   9.082  10.328  0.4667  1.0119 -1.0053
  199MOL0     H27453   2.305   8.923  10.364  1.7976 -1.9609  0.6611
  199MOL0     H27454   2.416   8.837  10.164 -3.1470 -0.9063  1.9473
  199MOL0     H27455   2.333   8.988  10.123  1.4931  0.6453 -1.7258
  199MOL0     H27456   2.564   8.967  10.009 -1.5860  0.9678  0.7856
  199MOL0     H27457   2.632   8.936  10.163  0.4133 -0.7710 -0.4187
  199MOL0     H27458   2.628   9.350  10.195  0.3095  1.3312 -2.1250
  199MOL0     H27459   2.586   8.578  10.403 -0.7845  2.2970  4.1948
  199MOL0     H27460   2.855   8.356  10.386 -0.3632 -2.4657 -1.6896
  199MOL0     H27461   2.696   8.394  10.326 -0.0618 -1.6637  0.6481
  199MOL0     H27462   2.844   8.403  10.224 -0.1916  2.5592 -0.8372
  200MOL0     O27463   8.471   7.391   3.656  0.1083 -0.3799  0.0379
  200MOL0     C27464   8.402   7.331   3.744  0.1339  0.8766 -0.1166
  200MOL0     O27465   8.266   7.326   3.750 -0.0226 -0.0397  0.1660
  200MOL0     C27466   8.199   7.404   3.660  0.7484  0.8041 -0.4366
  200MOL0     C27467   8.095   7.338   3.587 -0.3639  0.6507  0.3287
  200MOL0     C27468   8.028   7.400   3.475 -0.1538  0.0477 -0.3271
  200MOL0     C27469   8.057   7.533   3.448 -0.0876  0.8104 -0.4936
  200MOL0     O27470   7.986   7.592   3.347 -0.1094 -0.3300 -0.4177
  200MOL0     C27471   8.065   7.638   3.241 -0.5950 -0.1134  0.0104
  200MOL0     C27472   7.973   7.655   3.111  0.2074 -0.7884 -0.1359
  200MOL0     C27473   8.041   7.712   2.992 -0.7755 -0.4210 -0.1037
  200MOL0     C27474   7.941   7.760   2.885 -0.6910 -0.7823  0.7170
  200MOL0     C27475   7.866   7.641   2.816  0.4678 -0.5685  0.0491
  200MOL0     C27476   7.772   7.695   2.707  1.1615 -0.4966  0.3103
  200MOL0     C27477   7.664   7.585   2.660  0.7297 -0.7240  0.7032
  200MOL0     C27478   7.615   7.623   2.520 -0.6161 -0.9541  0.1460
  200MOL0     N27479   7.568   7.511   2.435 -0.7570 -0.3267 -0.1142
  200MOL0     C27480   7.537   7.381   2.483  0.6069 -0.2492  0.1726
  200MOL0     C27481   7.506   7.323   2.371  0.2693  0.7309 -0.2694
  200MOL0     C27482   7.461   7.179   2.360 -0.4465  0.6878 -0.2823
  200MOL0     C27483   7.557   7.083   2.434  0.6116 -0.2284  0.1414
  200MOL0     C27484   7.694   7.084   2.370 -1.4194  0.8596 -0.4542
  200MOL0     C27485   7.790   6.972   2.434  0.1374 -0.1234 -0.8371
  200MOL0     O27486   7.774   6.986   2.576  0.6512  0.5530 -0.5985
  200MOL0     C27487   7.850   7.086   2.632  0.0045 -0.3271  0.0168
  200MOL0     C27488   7.807   7.124   2.762  0.4343 -0.8970 -0.0664
  200MOL0     C27489   7.887   7.212   2.845  0.0421 -0.1015 -0.0088
  200MOL0     C27490   7.834   7.236   2.986  0.1025  1.1397 -0.4073
  200MOL0     C27491   8.008   7.262   2.793 -0.4085  0.2962  0.9195
  200MOL0     C27492   8.099   7.355   2.869  0.7637 -0.1919 -0.1404
  200MOL0     O27493   8.185   7.424   2.792 -0.5419 -0.1431  0.6627
  200MOL0     C27494   8.294   7.474   2.862  0.0857  0.4446  0.3249
  200MOL0     C27495   8.346   7.446   2.993  0.3258 -0.5277  0.3216
  200MOL0     C27496   8.430   7.537   3.051 -0.6144 -0.4698 -0.1351
  200MOL0     C27497   8.497   7.636   2.980 -1.2796 -0.4646 -0.2921
  200MOL0     O27498   8.580   7.726   3.042 -0.2283  0.2943 -0.5994
  200MOL0     C27499   8.540   7.871   3.036  0.6184  1.1646 -0.0517
  200MOL0     C27500   8.629   7.962   3.123  0.4046 -0.6820  0.6809
  200MOL0     C27501   8.707   7.879   3.231 -0.6184  0.3692 -0.4727
  200MOL0     C27502   8.603   7.826   3.333 -0.4612 -0.2350 -0.1385
  200MOL0     C27503   8.660   7.828   3.476 -1.3583  0.1904  0.0069
  200MOL0     C27504   8.767   7.715   3.487  0.7685 -0.4538  0.0393
  200MOL0     C27505   8.832   7.725   3.617 -0.5858  0.4020 -0.3809
  200MOL0     C27506   8.961   7.645   3.617  0.2267  0.2067 -0.7784
  200MOL0    Cl27507   9.082   7.740   3.547 -0.0698 -0.2572  0.1989
  200MOL0     C27508   8.461   7.645   2.842 -1.1596  0.4718  0.0069
  200MOL0     C27509   8.358   7.563   2.791 -0.8346 -0.4450 -0.8774
  200MOL0     O27510   8.072   7.370   2.989 -0.1475  0.0231  0.9837
  200MOL0     C27511   8.041   7.238   2.658  0.2845  0.2867  0.0434
  200MOL0     C27512   7.960   7.151   2.579 -0.1516  0.4378  0.4583
  200MOL0     N27513   7.510   7.409   2.262  0.0632 -0.2465 -0.3599
  200MOL0     N27514   7.550   7.522   2.302  0.6735  0.2914  0.1430
  200MOL0     C27515   8.151   7.600   3.529  0.3399  0.1391  0.4844
  200MOL0     C27516   8.223   7.542   3.631 -0.0351 -0.0550 -1.0989
  200MOL0     C27517   8.488   7.264   3.847 -0.9656  0.2608  1.4529
  200MOL0     C27518   8.418   7.199   3.953 -0.3855  0.8032 -0.5930
  200MOL0     C27519   8.478   7.114   4.054 -0.0087 -0.2937  0.7660
  200MOL0     C27520   8.612   7.099   4.047  0.4829  1.3147 -0.3003
  200MOL0     O27521   8.651   7.021   4.153  0.2236 -0.8462 -0.0984
  200MOL0     C27522   8.774   7.049   4.205 -0.5723 -1.1501 -0.1986
  200MOL0     C27523   8.798   6.974   4.344  0.4440 -1.8659  0.0484
  200MOL0     C27524   8.797   6.822   4.329 -0.1130  0.1978 -1.1181
  200MOL0     C27525   8.654   6.755   4.316  0.7153  0.4072  0.1578
  200MOL0     C27526   8.636   6.637   4.405 -0.5528  0.0607  0.6995
  200MOL0     C27527   8.609   6.554   4.494 -0.2849 -0.1159  0.7470
  200MOL0     C27528   8.687   7.166   3.951 -0.4669  0.4646 -0.4193
  200MOL0     C27529   8.629   7.241   3.846  0.5513 -0.1239  1.4549
  200MOL0     C27530   8.725   7.289   3.729  0.7236 -0.4040 -1.1103
  200MOL0     H27531   8.080   7.233   3.606 -1.3476  1.1486  2.6797
  200MOL0     H27532   7.957   7.339   3.421  0.4758 -0.1455 -0.9545
  200MOL0     H27533   8.142   7.565   3.217 -1.4732 -0.7090 -1.1207
  200MOL0     H27534   8.111   7.733   3.269  2.0615 -1.3330  0.0342
  200MOL0     H27535   7.937   7.556   3.082  2.6484 -1.6737 -0.4144
  200MOL0     H27536   7.888   7.714   3.146  0.7927 -1.0589  1.8804
  200MOL0     H27537   8.109   7.795   3.013 -1.3322 -0.0520  0.2851
  200MOL0     H27538   8.107   7.630   2.964  0.4345 -0.6768  3.0552
  200MOL0     H27539   7.869   7.828   2.931  1.4083  1.6877  0.5734
  200MOL0     H27540   7.995   7.811   2.804 -2.5002  0.2605  0.1227
  200MOL0     H27541   7.799   7.598   2.892 -0.3642 -1.8902 -1.3747
  200MOL0     H27542   7.932   7.559   2.788  1.3586  0.1182  0.0920
  200MOL0     H27543   7.711   7.778   2.744  0.5024 -1.3266  1.1515
  200MOL0     H27544   7.823   7.732   2.619 -2.2879 -2.5339 -2.8463
  200MOL0     H27545   7.582   7.584   2.732 -0.3954 -0.3901 -0.5427
  200MOL0     H27546   7.716   7.489   2.654  1.2370 -0.4886  1.1762
  200MOL0     H27547   7.526   7.686   2.518 -0.0111  0.2028 -5.0986
  200MOL0     H27548   7.691   7.679   2.465 -0.9811 -0.9546 -0.3700
  200MOL0     H27549   7.530   7.341   2.583  0.4602  0.6588  0.5330
  200MOL0     H27550   7.447   7.136   2.261  0.0135 -1.5466  0.5490
  200MOL0     H27551   7.364   7.155   2.406  0.3670  0.2744  1.2795
  200MOL0     H27552   7.573   7.106   2.540 -2.1896  2.8385  0.0611
  200MOL0     H27553   7.517   6.982   2.432 -3.3298  0.9770  3.9255
  200MOL0     H27554   7.702   7.085   2.261  0.5221  1.7719 -0.3531
  200MOL0     H27555   7.746   7.175   2.401  0.2352 -0.2488  0.1268
  200MOL0     H27556   7.760   6.871   2.405 -2.7157 -0.1434  1.7449
  200MOL0     H27557   7.896   6.979   2.406 -0.3135  3.0322 -2.2562
  200MOL0     H27558   7.718   7.072   2.796 -0.3443  1.6617  2.2127
  200MOL0     H27559   7.740   7.180   2.988  0.7464 -0.1397 -2.5054
  200MOL0     H27560   7.799   7.337   3.007 -0.2525  1.3673 -1.9493
  200MOL0     H27561   7.888   7.188   3.068 -4.3839 -0.8465  1.7034
  200MOL0     H27562   8.314   7.366   3.059  2.6316 -0.7819  1.2034
  200MOL0     H27563   8.452   7.530   3.157  1.1335 -1.8428 -0.5380
  200MOL0     H27564   8.534   7.901   2.931  1.6594  2.1030  0.1280
  200MOL0     H27565   8.441   7.869   3.083  1.6368 -0.6775  2.2162
  200MOL0     H27566   8.699   8.006   3.051 -0.8486  1.8461  0.8951
  200MOL0     H27567   8.574   8.048   3.162 -1.0207 -0.8506 -0.8454
  200MOL0     H27568   8.771   7.954   3.279 -2.0265  1.1536  0.2386
  200MOL0     H27569   8.751   7.793   3.179 -0.5711  1.9657 -3.2817
  200MOL0     H27570   8.553   7.734   3.301 -3.1019  0.8618  0.6037
  200MOL0     H27571   8.521   7.898   3.327 -2.4319 -2.2847  0.7668
  200MOL0     H27572   8.699   7.923   3.511 -2.8360  0.1361  1.9770
  200MOL0     H27573   8.577   7.803   3.543 -1.8799 -3.0056 -1.6256
  200MOL0     H27574   8.829   7.723   3.397 -0.8839 -1.5072 -1.2720
  200MOL0     H27575   8.726   7.614   3.480  2.5254 -1.1434 -0.7461
  200MOL0     H27576   8.759   7.700   3.694  1.5307  0.1203  1.6703
  200MOL0     H27577   8.860   7.830   3.635  1.2471 -0.4869  2.7852
  200MOL0     H27578   8.943   7.547   3.572  0.3162  0.0538 -0.4808
  200MOL0     H27579   8.993   7.619   3.718  0.3103 -2.7630 -1.4848
  200MOL0     H27580   8.491   7.721   2.770 -1.2677  0.2406 -0.2844
  200MOL0     H27581   8.311   7.581   2.695 -3.8627 -3.3444 -0.1154
  200MOL0     H27582   8.125   7.289   2.612  1.0052 -1.0721 -0.1910
  200MOL0     H27583   7.992   7.146   2.475 -0.7724 -2.8224  0.3264
  200MOL0     H27584   8.185   7.698   3.497 -0.2221  0.4715  0.8726
  200MOL0     H27585   8.310   7.583   3.681  0.1277 -3.0110  1.3362
  200MOL0     H27586   8.310   7.205   3.947 -0.5723 -2.4371 -2.7944
  200MOL0     H27587   8.425   7.065   4.134 -2.0222 -1.0103 -0.9159
  200MOL0     H27588   8.844   6.999   4.138  3.4366  2.0038  1.2448
  200MOL0     H27589   8.790   7.157   4.215 -1.0928 -0.9386 -1.4042
  200MOL0     H27590   8.721   7.000   4.417 -1.2617 -4.4314 -0.7063
  200MOL0     H27591   8.900   7.003   4.370  1.4111 -0.0506 -4.7153
  200MOL0     H27592   8.858   6.792   4.243  0.6444 -0.9827 -0.2038
  200MOL0     H27593   8.855   6.779   4.411 -0.6241 -1.9653 -1.8333
  200MOL0     H27594   8.639   6.723   4.212  0.4163  0.2093  0.2643
  200MOL0     H27595   8.581   6.834   4.332 -0.4473 -0.8965  1.4946
  200MOL0     H27596   8.597   6.494   4.582 -1.4502  1.7521  1.9487
  200MOL0     H27597   8.793   7.152   3.970 -0.8946 -1.2296  1.0172
  200MOL0     H27598   8.832   7.293   3.751  0.5515 -1.8762  0.1946
  200MOL0     H27599   8.715   7.215   3.649  0.7135  1.1101 -2.5812
  200MOL0     H27600   8.705   7.387   3.683 -2.7090  0.7254  2.2716
  201MOL0     O27601   8.466   9.118   9.647 -0.8241  0.0685  0.9266
  201MOL0     C27602   8.539   9.061   9.731  0.1653  0.2704  1.2001
  201MOL0     O27603   8.601   9.121   9.835  0.2148 -0.7016  0.4495
  201MOL0     C27604   8.563   9.241   9.882 -0.0102  0.4130  0.7144
  201MOL0     C27605   8.657   9.345   9.902 -0.2225 -0.2943  0.3035
  201MOL0     C27606   8.619   9.476   9.929  0.5303 -0.6051  0.9215
  201MOL0     C27607   8.487   9.512   9.921 -0.3445 -0.3885 -0.2513
  201MOL0     O27608   8.456   9.645   9.904  0.1065 -0.4948 -0.0077
  201MOL0     C27609   8.369   9.694  10.009 -0.5203  0.1135  0.1512
  201MOL0     C27610   8.352   9.841   9.992 -0.0796 -0.6690 -0.8889
  201MOL0     C27611   8.484   9.917   9.963 -0.5449 -0.1857 -0.1445
  201MOL0     C27612   8.467  10.067   9.972 -0.6689  0.4957 -0.6921
  201MOL0     C27613   8.388  10.137   9.860 -0.3998  0.0916  0.6103
  201MOL0     C27614   8.485  10.220   9.769 -0.8334  0.3803  1.3259
  201MOL0     C27615   8.410  10.330   9.684 -0.1907  0.6657 -0.1254
  201MOL0     C27616   8.315  10.256   9.578 -0.0713  1.1464  0.9604
  201MOL0     N27617   8.245  10.343   9.487  0.3963 -0.3296  1.2750
  201MOL0     C27618   8.171  10.448   9.535  0.4103  0.0550 -0.2894
  201MOL0     C27619   8.093  10.472   9.432 -0.0419 -0.8251  0.3069
  201MOL0     C27620   8.011  10.603   9.409  0.2558  0.3612 -0.4070
  201MOL0     C27621   8.082  10.710   9.312 -0.1311  0.8581 -0.1640
  201MOL0     C27622   8.100  10.639   9.166 -0.0358 -0.9220 -0.4990
  201MOL0     C27623   8.103  10.746   9.048 -1.0535  0.8050 -0.5947
  201MOL0     O27624   8.202  10.846   9.075  0.2112  0.1612 -0.2105
  201MOL0     C27625   8.337  10.820   9.051  0.0128 -0.0348 -0.4660
  201MOL0     C27626   8.426  10.921   9.096 -0.2172  0.0491  0.0255
  201MOL0     C27627   8.560  10.919   9.073 -1.2861  0.6552  0.3781
  201MOL0     C27628   8.637  11.014   9.148 -0.5737 -1.6964 -0.2669
  201MOL0     C27629   8.624  10.817   8.995 -0.0367  0.3690 -0.3024
  201MOL0     C27630   8.765  10.802   8.953  0.6015 -0.2683  0.3500
  201MOL0     O27631   8.789  10.705   8.859  0.5550  0.7635 -0.3626
  201MOL0     C27632   8.923  10.678   8.817  0.5933 -0.4327  0.8100
  201MOL0     C27633   9.040  10.697   8.896 -0.9695  0.1169  0.7508
  201MOL0     C27634   9.168  10.687   8.842  0.1787  0.0822 -0.7504
  201MOL0     C27635   9.189  10.633   8.725 -1.1721 -0.6639 -0.2949
  201MOL0     O27636   9.313  10.604   8.679  0.8763  0.6182  0.1473
  201MOL0     C27637   9.427  10.607   8.773 -0.9219 -0.4084 -0.1763
  201MOL0     C27638   9.566  10.575   8.710 -0.7405 -0.1783  0.3627
  201MOL0     C27639   9.573  10.425   8.662  1.0800 -0.6723 -0.4056
  201MOL0     C27640   9.718  10.398   8.608  0.0889 -1.1360 -0.0132
  201MOL0     C27641   9.753  10.254   8.573 -0.1786 -0.0311  0.0987
  201MOL0     C27642   9.755  10.170   8.705 -0.7929 -0.1767  0.4407
  201MOL0     C27643   9.790  10.025   8.679  0.2258 -0.0244 -0.1349
  201MOL0     C27644   9.692   9.951   8.599  0.4694  0.1232  0.0659
  201MOL0    Cl27645   9.774   9.813   8.535  0.5297 -0.5825 -0.2889
  201MOL0     C27646   9.076  10.600   8.644 -0.6055 -1.3147 -1.0720
  201MOL0     C27647   8.948  10.608   8.694 -0.0535  0.1039 -0.4933
  201MOL0     O27648   8.843  10.896   8.980  0.7629 -0.8261  0.6021
  201MOL0     C27649   8.537  10.717   8.945 -0.7807  0.6872  0.9919
  201MOL0     C27650   8.398  10.717   8.984 -0.4630  0.0414 -0.8820
  201MOL0     N27651   8.107  10.378   9.334 -0.9892  1.2391  0.4431
  201MOL0     N27652   8.213  10.307   9.361  1.6416 -0.0229  0.6355
  201MOL0     C27653   8.390   9.415   9.902 -0.5613 -0.0166 -0.1496
  201MOL0     C27654   8.429   9.281   9.894  0.5033  0.4832 -0.5518
  201MOL0     C27655   8.554   8.914   9.730 -0.2068 -0.1409 -0.1294
  201MOL0     C27656   8.680   8.852   9.754 -0.0380 -0.3368  0.0882
  201MOL0     C27657   8.701   8.711   9.767  1.5124  0.0137  1.2162
  201MOL0     C27658   8.581   8.628   9.749  0.7850 -0.2761  0.9461
  201MOL0     O27659   8.563   8.492   9.768 -0.8954 -0.6258 -0.7755
  201MOL0     C27660   8.666   8.412   9.712 -0.1111 -0.3283  0.1644
  201MOL0     C27661   8.661   8.400   9.561 -0.3117 -0.2687 -0.4272
  201MOL0     C27662   8.530   8.326   9.514  0.0535 -0.1839  0.3325
  201MOL0     C27663   8.530   8.283   9.368 -0.7609  0.2053 -0.1618
  201MOL0     C27664   8.642   8.186   9.327 -0.6080 -0.6254 -0.0182
  201MOL0     C27665   8.724   8.112   9.278 -0.0807  0.2763  0.5291
  201MOL0     C27666   8.458   8.689   9.717  0.1524 -0.2535 -0.2203
  201MOL0     C27667   8.445   8.828   9.700  0.4734  0.4960 -0.8793
  201MOL0     C27668   8.304   8.886   9.679 -0.6802  0.4401 -0.1653
  201MOL0     H27669   8.764   9.327   9.897 -0.4180 -2.4825  2.1652
  201MOL0     H27670   8.688   9.557   9.953 -0.2434 -0.2507  2.0177
  201MOL0     H27671   8.418   9.674  10.104 -1.9295  1.0618  1.1124
  201MOL0     H27672   8.272   9.643  10.015 -1.2264  1.4609  0.3594
  201MOL0     H27673   8.275   9.862   9.918 -1.1882 -0.3872  0.3085
  201MOL0     H27674   8.315   9.871  10.091  0.6136  3.7401 -1.7632
  201MOL0     H27675   8.561   9.883  10.033  1.5942  2.1938 -1.1847
  201MOL0     H27676   8.505   9.888   9.859 -0.0656 -1.1979  0.2288
  201MOL0     H27677   8.423  10.099  10.067 -1.2565 -1.3459 -0.3020
  201MOL0     H27678   8.568  10.108   9.975  1.1135 -3.5129  0.7256
  201MOL0     H27679   8.317  10.202   9.913 -0.4408 -0.6682  1.5256
  201MOL0     H27680   8.337  10.068   9.791  0.9296  1.3158 -1.7032
  201MOL0     H27681   8.566  10.271   9.822  1.1488 -0.1793 -0.9739
  201MOL0     H27682   8.537  10.152   9.700 -2.2986 -0.9955  1.5231
  201MOL0     H27683   8.483  10.400   9.642  0.0806  0.7422  0.4718
  201MOL0     H27684   8.348  10.388   9.753 -3.1002 -1.6791 -0.5693
  201MOL0     H27685   8.375  10.193   9.512 -1.9472  1.0924 -0.7964
  201MOL0     H27686   8.242  10.197   9.634  0.6265 -1.6793 -0.8863
  201MOL0     H27687   8.193  10.498   9.629 -1.1853 -0.0889  0.1798
  201MOL0     H27688   8.014  10.651   9.507  0.9944  1.4013 -0.9082
  201MOL0     H27689   7.907  10.579   9.389 -0.0268 -2.4231  3.4960
  201MOL0     H27690   8.019  10.799   9.308 -1.6303 -0.1019  1.0805
  201MOL0     H27691   8.182  10.737   9.346 -0.3167  0.0648  1.0585
  201MOL0     H27692   8.195  10.586   9.167 -1.3172 -3.3481 -0.0139
  201MOL0     H27693   8.015  10.571   9.154 -0.6016 -1.4810  4.3942
  201MOL0     H27694   8.130  10.681   8.964 -1.5328 -0.0180 -0.1334
  201MOL0     H27695   8.001  10.784   9.044 -3.3541 -3.4774  4.6062
  201MOL0     H27696   8.387  11.000   9.159 -0.0163 -0.4614  0.7950
  201MOL0     H27697   8.674  11.097   9.086 -3.1268 -0.5896 -0.4425
  201MOL0     H27698   8.731  10.975   9.187  1.1983 -0.0270 -2.5315
  201MOL0     H27699   8.575  11.060   9.225 -0.3929 -1.7707 -0.0777
  201MOL0     H27700   9.030  10.725   9.000 -2.8663  0.0196  0.6374
  201MOL0     H27701   9.247  10.705   8.914 -0.5493  1.0372 -0.1697
  201MOL0     H27702   9.425  10.707   8.817 -1.0393 -1.1638  1.6352
  201MOL0     H27703   9.402  10.532   8.849 -1.1498  0.7060  0.8816
  201MOL0     H27704   9.594  10.645   8.630  1.0899 -0.4962  0.6789
  201MOL0     H27705   9.654  10.584   8.774 -1.5377  0.9323  1.3504
  201MOL0     H27706   9.502  10.421   8.580 -4.8896 -2.3659  4.0983
  201MOL0     H27707   9.547  10.359   8.746 -4.3879  1.2800 -0.1894
  201MOL0     H27708   9.787  10.430   8.687 -0.0305 -5.6246  2.1773
  201MOL0     H27709   9.728  10.458   8.517 -0.1582 -1.8601 -0.5163
  201MOL0     H27710   9.689  10.223   8.490 -1.5899  2.7642  0.0181
  201MOL0     H27711   9.854  10.255   8.531  1.1932  0.5758  3.1564
  201MOL0     H27712   9.660  10.176   8.759 -2.2518 -0.3950 -1.9688
  201MOL0     H27713   9.826  10.213   8.777 -0.0340  1.0739 -0.9862
  201MOL0     H27714   9.800   9.976   8.777 -4.4446 -0.3319  0.4056
  201MOL0     H27715   9.889  10.012   8.634 -0.7238 -2.5007 -1.7070
  201MOL0     H27716   9.639   9.993   8.512 -0.6610 -0.9219  0.2203
  201MOL0     H27717   9.615   9.915   8.669 -0.1709  4.2620  1.8143
  201MOL0     H27718   9.083  10.564   8.542 -0.1540  0.4874 -1.7128
  201MOL0     H27719   8.857  10.587   8.638 -2.7180  2.2591  2.6486
  201MOL0     H27720   8.572  10.636   8.883 -0.7080  0.9108  0.7386
  201MOL0     H27721   8.344  10.637   8.933  1.7170 -0.8514 -1.9293
  201MOL0     H27722   8.286   9.443   9.889 -0.3835  0.3353 -0.8705
  201MOL0     H27723   8.347   9.210   9.885  0.8135 -0.1272  1.1065
  201MOL0     H27724   8.771   8.910   9.750  0.0762 -0.5410 -0.4221
  201MOL0     H27725   8.801   8.680   9.793  1.8674 -1.0537 -1.2268
  201MOL0     H27726   8.766   8.438   9.746  1.2615 -1.9822 -2.3646
  201MOL0     H27727   8.656   8.316   9.762  2.5319 -2.0367 -2.3197
  201MOL0     H27728   8.739   8.334   9.522 -2.1491 -1.1790 -2.8451
  201MOL0     H27729   8.668   8.501   9.519 -1.1117  0.1239  0.3398
  201MOL0     H27730   8.509   8.242   9.581 -3.9227 -1.9466 -2.7797
  201MOL0     H27731   8.443   8.391   9.524  0.7422  0.5672  2.0402
  201MOL0     H27732   8.559   8.366   9.302  1.6714 -0.8808 -0.5618
  201MOL0     H27733   8.430   8.257   9.331 -0.1336 -1.7050 -0.6079
  201MOL0     H27734   8.795   8.053   9.223  0.7015  0.1612  1.6298
  201MOL0     H27735   8.373   8.623   9.702 -0.3367  0.2133  0.4695
  201MOL0     H27736   8.236   8.806   9.650 -1.5122  1.0896 -0.0623
  201MOL0     H27737   8.259   8.936   9.765 -0.2435 -0.5628  0.6641
  201MOL0     H27738   8.301   8.957   9.595 -1.1239 -2.1835 -2.5028
  202MOL0     O27739   7.984   1.933   9.055  0.0757 -0.4734 -0.1437
  202MOL0     C27740   8.027   1.859   9.147  0.3657 -0.7708 -0.4209
  202MOL0     O27741   7.956   1.760   9.194  0.0986 -0.2013  0.5158
  202MOL0     C27742   7.840   1.724   9.136  0.3688  0.3650 -0.2237
  202MOL0     C27743   7.844   1.615   9.038 -0.9796  0.3029 -1.0473
  202MOL0     C27744   7.730   1.578   8.972  0.1609  0.0810 -0.0508
  202MOL0     C27745   7.604   1.640   8.988 -0.5992 -0.8995  1.0404
  202MOL0     O27746   7.489   1.611   8.918 -0.3976 -0.0049  0.3233
  202MOL0     C27747   7.494   1.515   8.810 -1.4438 -0.4035  0.5392
  202MOL0     C27748   7.370   1.505   8.731  0.3551  0.5796  0.3168
  202MOL0     C27749   7.330   1.359   8.695 -0.1161 -0.3219 -0.4846
  202MOL0     C27750   7.454   1.286   8.633 -0.6108  0.2242  0.3302
  202MOL0     C27751   7.395   1.170   8.547  0.3914 -0.8218 -0.1739
  202MOL0     C27752   7.314   1.079   8.652  0.2738  0.0372  0.2828
  202MOL0     C27753   7.317   0.936   8.596 -0.3555 -0.4845  0.0053
  202MOL0     C27754   7.242   0.834   8.689  0.1422 -0.5312 -0.0313
  202MOL0     N27755   7.243   0.711   8.607 -1.4299  0.2790  0.3965
  202MOL0     C27756   7.357   0.626   8.592  0.8122  0.0576  1.0502
  202MOL0     C27757   7.315   0.550   8.481  0.5309 -0.0233 -0.4426
  202MOL0     C27758   7.410   0.446   8.424  0.3775  1.0772 -0.7242
  202MOL0     C27759   7.383   0.315   8.493  0.6038  0.7861  0.4559
  202MOL0     C27760   7.243   0.253   8.475  0.1840  0.0054 -0.1493
  202MOL0     C27761   7.219   0.231   8.317 -0.7405 -0.2256 -0.3541
  202MOL0     O27762   7.100   0.148   8.294 -0.2759  0.7550 -0.5435
  202MOL0     C27763   7.078   0.032   8.363 -0.6053 -0.3644  0.8861
  202MOL0     C27764   6.949  -0.015   8.386  0.1194 -0.5682  0.2432
  202MOL0     C27765   6.926  -0.143   8.441 -0.4804 -0.8924 -0.3181
  202MOL0     C27766   6.780  -0.186   8.460 -0.8092  0.5059  1.3716
  202MOL0     C27767   7.045  -0.225   8.473  0.3390  1.0548 -0.1016
  202MOL0     C27768   7.026  -0.359   8.523 -0.4426  0.5080 -0.6685
  202MOL0     O27769   7.084  -0.384   8.644  0.0789  0.6369 -0.0439
  202MOL0     C27770   7.089  -0.512   8.689 -0.6362 -0.1423  0.1294
  202MOL0     C27771   7.158  -0.617   8.611  0.0068 -0.8314 -0.2067
  202MOL0     C27772   7.167  -0.749   8.664  0.4474 -0.1849  0.2917
  202MOL0     C27773   7.095  -0.787   8.781 -0.8856  0.6540  0.0988
  202MOL0     O27774   7.084  -0.923   8.827 -0.1588 -0.9955 -0.0693
  202MOL0     C27775   7.181  -1.021   8.781 -0.2197 -0.1736  0.1025
  202MOL0     C27776   7.325  -0.975   8.809 -1.1229  0.2948 -0.0969
  202MOL0     C27777   7.433  -1.091   8.802 -0.3881 -0.8307 -0.5190
  202MOL0     C27778   7.564  -1.049   8.877 -0.5566  0.6098  1.2949
  202MOL0     C27779   7.654  -1.176   8.881  0.4537  0.5681  0.1887
  202MOL0     C27780   7.796  -1.138   8.910 -0.7583 -0.1607 -1.4118
  202MOL0     C27781   7.879  -1.270   8.915 -0.6567 -0.3871  0.5174
  202MOL0     C27782   7.845  -1.350   9.038 -0.6301  0.1486 -0.8821
  202MOL0    Cl27783   7.951  -1.481   9.021  0.2149 -0.0244 -0.4574
  202MOL0     C27784   7.016  -0.691   8.854 -0.5538  0.0642  0.0830
  202MOL0     C27785   7.027  -0.552   8.815  0.8209 -0.4053  0.1484
  202MOL0     O27786   6.990  -0.442   8.444  0.4245 -0.3669  0.2753
  202MOL0     C27787   7.172  -0.176   8.440  0.3770  0.3950  0.7109
  202MOL0     C27788   7.189  -0.054   8.390 -0.3871  0.2867 -0.2192
  202MOL0     N27789   7.186   0.584   8.447 -0.6441  0.1159 -0.2166
  202MOL0     N27790   7.136   0.676   8.526 -0.1265 -0.0754 -0.2495
  202MOL0     C27791   7.594   1.734   9.082 -0.2922  0.6177  0.0540
  202MOL0     C27792   7.710   1.775   9.161 -1.3935 -0.1731  0.1835
  202MOL0     C27793   8.167   1.884   9.199 -0.0484 -0.2906 -0.2561
  202MOL0     C27794   8.218   1.794   9.289  0.1830  1.2038 -0.1468
  202MOL0     C27795   8.341   1.814   9.360  0.0662  0.2294 -1.1332
  202MOL0     C27796   8.408   1.930   9.342 -0.1755 -0.0009 -1.2670
  202MOL0     O27797   8.524   1.942   9.411 -0.9667  0.1278 -0.3154
  202MOL0     C27798   8.638   1.909   9.323  0.6378 -0.5479 -0.6994
  202MOL0     C27799   8.761   1.918   9.414  0.3244  0.3996 -0.3174
  202MOL0     C27800   8.767   2.061   9.487  0.3734 -0.3073  0.7102
  202MOL0     C27801   8.907   2.058   9.560  0.6154  0.0523 -0.6471
  202MOL0     C27802   9.018   2.095   9.464 -0.2710  0.2319 -0.7021
  202MOL0     C27803   9.089   2.118   9.369 -0.2519 -1.0506  1.1607
  202MOL0     C27804   8.354   2.031   9.257  0.4972  0.2577  0.0982
  202MOL0     C27805   8.244   2.004   9.173  1.5891 -0.2193 -0.9413
  202MOL0     C27806   8.207   2.099   9.063 -0.3654 -0.5840  0.2636
  202MOL0     H27807   7.936   1.558   9.029 -1.3635 -0.4356 -0.4517
  202MOL0     H27808   7.738   1.490   8.909  0.7408 -0.3953  0.6762
  202MOL0     H27809   7.523   1.419   8.855 -0.1052 -1.0828 -1.6091
  202MOL0     H27810   7.573   1.548   8.741 -2.3383 -3.0880 -1.9769
  202MOL0     H27811   7.287   1.550   8.787 -1.0349 -0.4486 -0.8459
  202MOL0     H27812   7.375   1.563   8.638 -0.5468 -2.3401 -1.6786
  202MOL0     H27813   7.294   1.294   8.775  0.0791 -0.0619 -0.1856
  202MOL0     H27814   7.246   1.365   8.625 -1.8807 -2.4534  1.2778
  202MOL0     H27815   7.509   1.354   8.566  0.0888 -1.0518 -0.4449
  202MOL0     H27816   7.529   1.242   8.699 -0.9662 -2.3756 -0.8329
  202MOL0     H27817   7.475   1.113   8.501  1.0297 -0.8341  0.9216
  202MOL0     H27818   7.318   1.206   8.478 -2.1126 -1.6223  1.9820
  202MOL0     H27819   7.361   1.070   8.751  2.4352 -0.9972 -0.7757
  202MOL0     H27820   7.207   1.101   8.653  0.1404 -0.5600 -0.3756
  202MOL0     H27821   7.419   0.908   8.567  0.6166  1.4330  1.3453
  202MOL0     H27822   7.258   0.958   8.506 -1.8653  0.1393  1.1217
  202MOL0     H27823   7.278   0.819   8.791 -1.1072  0.9166  0.6444
  202MOL0     H27824   7.137   0.861   8.696  0.0814 -0.7106 -0.2214
  202MOL0     H27825   7.457   0.635   8.633  1.7153  1.2650 -1.2774
  202MOL0     H27826   7.510   0.487   8.435  0.3321  0.9542  0.2647
  202MOL0     H27827   7.399   0.436   8.316 -1.7406  1.4808 -0.5854
  202MOL0     H27828   7.459   0.245   8.457 -0.2356 -0.5559  1.2238
  202MOL0     H27829   7.396   0.323   8.601  0.2921 -1.0444  0.6523
  202MOL0     H27830   7.244   0.159   8.532 -4.6374 -1.9010 -2.5766
  202MOL0     H27831   7.169   0.302   8.538  1.4325 -0.9950  2.2231
  202MOL0     H27832   7.210   0.329   8.269  1.5334  0.5991  0.7496
  202MOL0     H27833   7.302   0.175   8.274 -0.3028  1.4589 -1.8148
  202MOL0     H27834   6.861   0.042   8.358 -0.9543 -1.7425  1.1423
  202MOL0     H27835   6.723  -0.114   8.518 -0.5665  0.8659  1.1684
  202MOL0     H27836   6.776  -0.280   8.516  0.2998  0.6951  1.8021
  202MOL0     H27837   6.740  -0.215   8.362  1.9020  0.2724  0.2438
  202MOL0     H27838   7.186  -0.589   8.510 -0.0769 -2.6921 -0.7885
  202MOL0     H27839   7.222  -0.816   8.598  2.1908 -1.7678  3.1308
  202MOL0     H27840   7.163  -1.118   8.829 -2.2686  0.8733  1.6449
  202MOL0     H27841   7.165  -1.033   8.673 -1.0611  1.0361  0.0632
  202MOL0     H27842   7.368  -0.896   8.747  0.9177 -0.8370 -0.2190
  202MOL0     H27843   7.333  -0.932   8.909  6.5872 -0.0592  0.0400
  202MOL0     H27844   7.455  -1.118   8.698 -0.1119 -0.0398 -0.6684
  202MOL0     H27845   7.387  -1.161   8.873  2.5123  0.8199  3.3729
  202MOL0     H27846   7.536  -1.014   8.977 -2.5366  0.6258  0.7833
  202MOL0     H27847   7.628  -0.981   8.820  1.4069 -2.4566 -0.3909
  202MOL0     H27848   7.611  -1.230   8.966 -1.6571  2.1071  0.1835
  202MOL0     H27849   7.648  -1.231   8.787 -4.4352  0.5969  0.2098
  202MOL0     H27850   7.794  -1.079   9.002  0.5433 -0.5384 -1.1316
  202MOL0     H27851   7.838  -1.072   8.834  1.3829  1.1251  0.7398
  202MOL0     H27852   7.974  -1.217   8.916 -0.6521 -0.4003  0.8425
  202MOL0     H27853   7.873  -1.348   8.838 -3.0923  0.0169  0.2023
  202MOL0     H27854   7.740  -1.382   9.041 -1.0016  1.1299 -2.3764
  202MOL0     H27855   7.873  -1.283   9.121  1.4861 -1.1733 -0.4467
  202MOL0     H27856   6.961  -0.719   8.943 -0.5009 -1.2192 -0.2669
  202MOL0     H27857   6.962  -0.484   8.870  1.8880  0.6560  0.1214
  202MOL0     H27858   7.256  -0.236   8.474  1.5282 -0.1381 -2.7361
  202MOL0     H27859   7.293  -0.025   8.380 -0.1424 -0.4391  0.0968
  202MOL0     H27860   7.500   1.785   9.099 -1.1421  0.4759 -3.4886
  202MOL0     H27861   7.714   1.855   9.235  1.8311 -0.3024  0.2879
  202MOL0     H27862   8.163   1.706   9.320  2.0259 -0.1352 -0.5174
  202MOL0     H27863   8.364   1.733   9.429  3.1168 -0.6823 -3.0118
  202MOL0     H27864   8.629   1.809   9.280  3.0256 -0.4054 -1.6830
  202MOL0     H27865   8.631   1.976   9.237 -4.7485  1.7876  1.1280
  202MOL0     H27866   8.840   1.902   9.339 -0.8656  0.7716 -1.6958
  202MOL0     H27867   8.760   1.835   9.485  1.2958 -2.2407 -3.1765
  202MOL0     H27868   8.763   2.143   9.415 -1.2459  0.9163  2.1122
  202MOL0     H27869   8.678   2.062   9.550 -1.7798  1.6588 -2.1172
  202MOL0     H27870   8.915   1.973   9.628  0.4689 -0.2245 -0.9716
  202MOL0     H27871   8.896   2.136   9.636  3.0957 -1.5802  1.5117
  202MOL0     H27872   9.144   2.151   9.283 -1.5091  2.7183  1.5930
  202MOL0     H27873   8.406   2.126   9.251 -0.1215  0.5963 -0.0749
  202MOL0     H27874   8.283   2.178   9.060 -0.5282 -0.3798  1.2185
  202MOL0     H27875   8.210   2.049   8.966 -1.1048  0.6760 -0.4287
  202MOL0     H27876   8.111   2.149   9.079 -1.0016 -1.6349 -0.1471
  203MOL0     O27877   5.896   6.691  10.790 -0.7554 -0.1117  0.4927
  203MOL0     C27878   6.015   6.727  10.815  0.5287  0.3054 -0.2873
  203MOL0     O27879   6.054   6.838  10.891  1.2063  0.3963  0.3991
  203MOL0     C27880   5.977   6.889  10.991  0.2766 -1.0982  0.1816
  203MOL0     C27881   5.879   6.820  11.059  0.2961 -0.4313  0.9416
  203MOL0     C27882   5.833   6.860  11.180 -0.0162  0.7964 -0.4478
  203MOL0     C27883   5.851   6.987  11.224  0.2752 -0.5048  0.8883
  203MOL0     O27884   5.807   7.022  11.351  0.7973 -0.5641  0.1180
  203MOL0     C27885   5.886   7.128  11.416 -0.4586 -0.8228 -0.0263
  203MOL0     C27886   5.848   7.145  11.572 -0.3719  0.2136 -0.0764
  203MOL0     C27887   5.691   7.155  11.585  0.5191  0.0974  0.1145
  203MOL0     C27888   5.647   7.181  11.725  0.7205 -0.5896 -0.2160
  203MOL0     C27889   5.498   7.216  11.723  0.6725 -0.4491 -0.1924
  203MOL0     C27890   5.444   7.237  11.864  0.8107  0.5019 -0.6451
  203MOL0     C27891   5.522   7.324  11.961 -0.1299 -0.0861  0.1803
  203MOL0     C27892   5.510   7.477  11.940  0.9583  0.4762  1.0737
  203MOL0     N27893   5.589   7.532  11.831 -0.3937 -0.3500  0.3608
  203MOL0     C27894   5.724   7.521  11.820  0.5057  0.2767  0.0900
  203MOL0     C27895   5.747   7.569  11.698  0.7896 -0.2582 -0.2784
  203MOL0     C27896   5.897   7.573  11.660 -0.0430  0.7449 -0.5852
  203MOL0     C27897   5.936   7.512  11.524 -0.4500  0.2198  1.1188
  203MOL0     C27898   6.091   7.491  11.520  0.0503  0.1749  0.2024
  203MOL0     C27899   6.129   7.437  11.384  0.8827 -0.1573  0.4132
  203MOL0     O27900   6.229   7.339  11.380 -0.1636 -0.2144 -0.1913
  203MOL0     C27901   6.257   7.278  11.259 -0.5017  0.4618  0.5148
  203MOL0     C27902   6.280   7.352  11.150 -0.5172 -0.0383 -0.3961
  203MOL0     C27903   6.318   7.287  11.031  0.3029 -0.6703 -0.4934
  203MOL0     C27904   6.326   7.369  10.911 -0.0912 -0.0040 -0.7168
  203MOL0     C27905   6.331   7.141  11.031 -0.2553  1.0117 -0.9463
  203MOL0     C27906   6.377   7.052  10.912 -0.3526 -0.8281 -0.5195
  203MOL0     O27907   6.460   6.959  10.948  0.0325  0.1109  0.2447
  203MOL0     C27908   6.525   6.881  10.858 -0.2100 -0.3084 -0.1144
  203MOL0     C27909   6.459   6.806  10.759 -0.0849  0.0349  0.3023
  203MOL0     C27910   6.541   6.721  10.679  1.1535 -0.2340  1.1535
  203MOL0     C27911   6.670   6.689  10.708  1.4785 -0.4441  0.1323
  203MOL0     O27912   6.748   6.601  10.631  0.3127 -0.2460 -1.1148
  203MOL0     C27913   6.668   6.492  10.584  0.7096  0.2042  1.0558
  203MOL0     C27914   6.756   6.401  10.496  0.7190  0.3527 -0.5172
  203MOL0     C27915   6.811   6.280  10.579  0.5036  0.3965 -0.1809
  203MOL0     C27916   6.899   6.189  10.499  0.2640 -0.6283 -0.5506
  203MOL0     C27917   6.995   6.117  10.601 -0.1068  0.8873  0.3560
  203MOL0     C27918   7.092   6.204  10.676  0.4384 -0.3773 -0.1830
  203MOL0     C27919   7.195   6.249  10.585 -0.0797  0.7106  0.0079
  203MOL0     C27920   7.309   6.292  10.666 -0.3714  0.8775 -0.3243
  203MOL0    Cl27921   7.457   6.327  10.567  0.1586 -0.1649 -0.1354
  203MOL0     C27922   6.728   6.758  10.823 -0.6364  0.9353  0.1394
  203MOL0     C27923   6.654   6.844  10.901 -0.6458  0.6527 -0.1018
  203MOL0     O27924   6.342   7.084  10.797 -1.0177 -0.1869  0.0449
  203MOL0     C27925   6.313   7.070  11.151 -0.0769  0.2532 -0.3352
  203MOL0     C27926   6.268   7.143  11.259 -0.8113 -0.2168  0.3614
  203MOL0     N27927   5.632   7.620  11.638 -0.2681  0.7689 -0.4570
  203MOL0     N27928   5.531   7.590  11.722 -0.4557 -1.2366 -0.0703
  203MOL0     C27929   5.942   7.070  11.152  0.3824 -0.5289  0.1822
  203MOL0     C27930   6.013   7.016  11.037  0.1716 -0.4864 -0.6051
  203MOL0     C27931   6.117   6.626  10.801  0.8626 -0.3641  0.4463
  203MOL0     C27932   6.212   6.618  10.904 -0.3153  1.5870 -0.6795
  203MOL0     C27933   6.301   6.519  10.894 -1.3633 -0.1522  0.1267
  203MOL0     C27934   6.311   6.430  10.786 -0.3613  0.1499  0.6731
  203MOL0     O27935   6.409   6.332  10.793 -0.8514 -0.5014  0.1558
  203MOL0     C27936   6.406   6.229  10.697  0.1016  0.8666  1.3789
  203MOL0     C27937   6.484   6.106  10.735  1.3835 -0.0939  0.3663
  203MOL0     C27938   6.407   6.023  10.835  0.7960  0.2701  0.2523
  203MOL0     C27939   6.504   5.968  10.949  0.2310 -0.2940  0.1074
  203MOL0     C27940   6.464   5.832  10.978 -0.2887  1.0121 -0.3838
  203MOL0     C27941   6.411   5.723  10.998  0.3249  0.8528  0.0153
  203MOL0     C27942   6.218   6.439  10.675  0.8979 -0.6426 -0.3904
  203MOL0     C27943   6.130   6.548  10.679  0.4616  0.4481  0.4299
  203MOL0     C27944   6.043   6.577  10.554  0.5166  0.0153 -0.1221
  203MOL0     H27945   5.851   6.720  11.027 -1.5203  0.9583 -2.3154
  203MOL0     H27946   5.759   6.797  11.229  0.8418 -1.3170 -1.7243
  203MOL0     H27947   5.865   7.227  11.375  2.2197  1.2644  3.1536
  203MOL0     H27948   5.993   7.111  11.402  0.0325  0.7513  1.4105
  203MOL0     H27949   5.872   7.049  11.619 -1.5688  0.9176  2.1360
  203MOL0     H27950   5.914   7.220  11.616  2.9433 -0.1586 -3.7827
  203MOL0     H27951   5.649   7.235  11.523 -1.3644  1.7050  3.2038
  203MOL0     H27952   5.648   7.058  11.559 -1.6450  1.1091 -0.3322
  203MOL0     H27953   5.663   7.092  11.787  1.9698  0.5541  1.1819
  203MOL0     H27954   5.711   7.256  11.771  3.5883 -3.1604  0.3361
  203MOL0     H27955   5.434   7.144  11.671 -3.0750  1.6627  1.0871
  203MOL0     H27956   5.473   7.309  11.671 -0.2864 -1.9406 -2.5988
  203MOL0     H27957   5.341   7.274  11.863  1.0285  1.3731 -4.0648
  203MOL0     H27958   5.431   7.137  11.907  0.6516  1.0837  0.7104
  203MOL0     H27959   5.629   7.300  11.970  0.6382  2.3235 -1.5284
  203MOL0     H27960   5.468   7.310  12.055 -0.5567 -0.0581 -0.0578
  203MOL0     H27961   5.407   7.509  11.921  0.9251 -0.9884 -1.6400
  203MOL0     H27962   5.546   7.539  12.023 -0.6996  3.1911 -0.0978
  203MOL0     H27963   5.790   7.483  11.897  1.2558  2.2277  0.4628
  203MOL0     H27964   5.950   7.510  11.731 -0.2372 -1.2083 -2.0876
  203MOL0     H27965   5.934   7.676  11.671 -1.2216  1.2126 -0.8080
  203MOL0     H27966   5.896   7.413  11.500 -1.8908  1.5799 -3.0359
  203MOL0     H27967   5.914   7.588  11.448  1.5122 -0.2918 -0.0425
  203MOL0     H27968   6.134   7.589  11.545  1.0231  0.4397 -2.2816
  203MOL0     H27969   6.108   7.415  11.598 -3.4974  2.1233  3.1870
  203MOL0     H27970   6.037   7.397  11.340  0.3727  2.9270 -1.5846
  203MOL0     H27971   6.148   7.530  11.329 -1.5070  0.9532  1.3496
  203MOL0     H27972   6.271   7.460  11.159 -3.2272 -0.2217  0.0180
  203MOL0     H27973   6.265   7.460  10.912  0.3522  0.3091 -1.3023
  203MOL0     H27974   6.294   7.315  10.821 -1.0610 -0.6934  0.0184
  203MOL0     H27975   6.433   7.391  10.898 -0.0361 -0.8277 -1.8103
  203MOL0     H27976   6.354   6.824  10.741  0.0370 -0.0092 -0.4902
  203MOL0     H27977   6.486   6.675  10.598  1.4111  0.1902  0.7287
  203MOL0     H27978   6.616   6.436  10.663  1.1227  3.1174  3.5974
  203MOL0     H27979   6.588   6.530  10.519  1.4517  0.0788  0.0473
  203MOL0     H27980   6.689   6.363  10.419 -0.1144 -3.0220  1.6707
  203MOL0     H27981   6.837   6.453  10.443  0.3450  0.2001 -1.2452
  203MOL0     H27982   6.728   6.216  10.610 -0.2721  1.8653  0.9340
  203MOL0     H27983   6.846   6.321  10.674 -0.4793 -0.1370  0.4246
  203MOL0     H27984   6.949   6.250  10.423 -1.0511  0.9037 -0.2430
  203MOL0     H27985   6.845   6.117  10.437  1.1810  0.1653 -2.3455
  203MOL0     H27986   6.933   6.061  10.672 -1.1426 -0.1686 -1.2884
  203MOL0     H27987   7.044   6.037  10.545 -1.8715 -1.7234  2.2997
  203MOL0     H27988   7.130   6.148  10.761  0.1222 -1.7563 -0.9298
  203MOL0     H27989   7.042   6.297  10.708  1.2805 -0.3097  0.9768
  203MOL0     H27990   7.171   6.336  10.523  1.8362 -1.5964 -4.3605
  203MOL0     H27991   7.227   6.170  10.517 -3.4801  0.7368 -1.8440
  203MOL0     H27992   7.335   6.218  10.742 -2.1939  0.4588 -0.0423
  203MOL0     H27993   7.290   6.380  10.729  0.6258 -0.0709  1.3859
  203MOL0     H27994   6.829   6.722  10.842 -0.8945 -0.1762 -0.5240
  203MOL0     H27995   6.689   6.902  10.985 -1.7064  1.4646 -0.2035
  203MOL0     H27996   6.326   6.963  11.165 -0.4559 -0.5264 -4.7252
  203MOL0     H27997   6.233   7.087  11.345 -2.9979 -1.4878 -1.2603
  203MOL0     H27998   5.978   7.167  11.185 -2.0444  0.5587 -0.1446
  203MOL0     H27999   6.080   7.081  10.982  0.4063 -3.5510 -4.4753
  203MOL0     H28000   6.230   6.687  10.986  2.6484 -0.9044  0.9682
  203MOL0     H28001   6.385   6.520  10.964 -2.7014  2.2516  1.8235
  203MOL0     H28002   6.302   6.196  10.685 -0.2599  2.1492  0.8156
  203MOL0     H28003   6.427   6.271  10.598 -2.8204 -2.5745 -0.9864
  203MOL0     H28004   6.583   6.138  10.769  1.2096  0.9399 -0.0647
  203MOL0     H28005   6.496   6.040  10.649 -3.2913  1.7561 -2.0204
  203MOL0     H28006   6.319   6.071  10.880  1.9347  1.4873  1.2475
  203MOL0     H28007   6.372   5.941  10.771 -2.0862  0.1026  1.8630
  203MOL0     H28008   6.482   6.034  11.033 -0.6138  1.6895 -1.5863
  203MOL0     H28009   6.606   5.976  10.912 -0.5006  2.7181 -1.6104
  203MOL0     H28010   6.366   5.627  11.014 -1.9405  1.7754 -0.4122
  203MOL0     H28011   6.208   6.366  10.595  1.0896 -0.9738 -0.1159
  203MOL0     H28012   6.073   6.517  10.468  2.0773  1.2669 -0.5135
  203MOL0     H28013   5.937   6.568  10.580  0.3644  1.4975 -0.1034
  203MOL0     H28014   6.060   6.681  10.525  2.8477 -0.3316 -0.1620
  204MOL0     O28015  11.303  10.187  11.375  0.3190 -0.5464 -0.1813
  204MOL0     C28016  11.305  10.218  11.493  0.0161  0.1388 -0.3078
  204MOL0     O28017  11.268  10.129  11.589 -0.0793  0.1101 -0.7692
  204MOL0     C28018  11.196  10.022  11.552  0.5200 -0.1073 -0.7166
  204MOL0     C28019  11.057  10.019  11.565  0.7024  0.3090 -0.3357
  204MOL0     C28020  10.987   9.901  11.547 -0.2150 -0.6371  0.9651
  204MOL0     C28021  11.054   9.783  11.519  1.7246 -0.4572  0.5095
  204MOL0     O28022  10.978   9.672  11.489  0.2440 -0.5708  0.4979
  204MOL0     C28023  11.038   9.538  11.467 -0.2066  0.4181  0.0330
  204MOL0     C28024  10.954   9.444  11.381  0.1708 -0.2011  0.6936
  204MOL0     C28025  10.991   9.440  11.230  0.3187 -1.3257  0.0820
  204MOL0     C28026  10.888   9.503  11.131 -0.1786  0.0220  0.0017
  204MOL0     C28027  10.831   9.639  11.171  0.0296  0.5810  1.0590
  204MOL0     C28028  10.867   9.754  11.073  0.3994 -1.0660  0.9146
  204MOL0     C28029  11.015   9.765  11.046 -0.8618 -0.1260  0.6295
  204MOL0     C28030  11.091   9.813  11.176 -0.0609 -0.2031  0.8150
  204MOL0     N28031  11.242   9.792  11.177  0.7311 -1.1841  0.3401
  204MOL0     C28032  11.336   9.889  11.166  1.4504 -0.3745 -0.1787
  204MOL0     C28033  11.448   9.822  11.186  0.0519 -1.6182 -0.2976
  204MOL0     C28034  11.575   9.908  11.185 -0.8667  0.2610  0.4761
  204MOL0     C28035  11.692   9.833  11.268 -1.1573 -0.6946 -0.5718
  204MOL0     C28036  11.651   9.818  11.416  0.0438  0.4887 -0.1143
  204MOL0     C28037  11.672   9.953  11.477  0.5325 -0.3656  0.0149
  204MOL0     O28038  11.609   9.946  11.601  0.4193  0.2748 -0.3863
  204MOL0     C28039  11.608  10.058  11.682 -0.3466 -0.1084  0.6303
  204MOL0     C28040  11.520  10.057  11.792  0.2543  0.0505 -0.3284
  204MOL0     C28041  11.516  10.152  11.896 -0.8403 -0.0812  0.4439
  204MOL0     C28042  11.429  10.114  12.010  0.3053 -0.4416 -0.3652
  204MOL0     C28043  11.605  10.265  11.890  0.7750  0.7059 -0.1787
  204MOL0     C28044  11.608  10.373  11.993 -0.1477 -0.0063  0.1567
  204MOL0     O28045  11.720  10.449  12.003  0.6613 -0.2732  0.5778
  204MOL0     C28046  11.715  10.559  12.077  1.0785  0.7409 -0.1957
  204MOL0     C28047  11.766  10.554  12.208 -1.2619 -0.0258 -0.5761
  204MOL0     C28048  11.769  10.666  12.293 -0.5794 -1.1668 -0.7093
  204MOL0     C28049  11.724  10.786  12.236 -0.1889  0.5450 -0.2180
  204MOL0     O28050  11.715  10.894  12.313 -0.1485 -0.7783 -0.1511
  204MOL0     C28051  11.834  10.945  12.372 -0.7828 -0.4473  0.4987
  204MOL0     C28052  11.863  11.088  12.333  0.5232 -0.9118 -0.8084
  204MOL0     C28053  11.968  11.160  12.414  0.2873  0.3641 -0.3586
  204MOL0     C28054  12.079  11.064  12.475 -0.9820 -0.7522 -0.3143
  204MOL0     C28055  12.199  11.129  12.520  0.1787 -0.0869 -0.1542
  204MOL0     C28056  12.293  11.178  12.393  1.2912  0.1677 -0.1291
  204MOL0     C28057  12.367  11.054  12.341 -0.0567 -0.0760  0.3218
  204MOL0     C28058  12.481  11.075  12.234  0.0798  0.5816 -0.0145
  204MOL0    Cl28059  12.605  11.206  12.252  0.1575 -0.2821  0.5139
  204MOL0     C28060  11.682  10.789  12.112 -0.3153 -0.0772 -0.9995
  204MOL0     C28061  11.673  10.678  12.031  0.4219 -0.5213  0.0550
  204MOL0     O28062  11.502  10.382  12.062 -0.3647 -0.1801 -0.5748
  204MOL0     C28063  11.691  10.269  11.776  0.4336 -0.0424  0.9945
  204MOL0     C28064  11.702  10.164  11.683 -0.2434 -0.7080 -0.3401
  204MOL0     N28065  11.430   9.687  11.216  0.6466  0.1311  0.1412
  204MOL0     N28066  11.302   9.680  11.214 -0.9546 -0.9215  1.0765
  204MOL0     C28067  11.190   9.789  11.503  0.4215 -0.7885 -0.1718
  204MOL0     C28068  11.264   9.907  11.528  0.6537  0.5179  0.3359
  204MOL0     C28069  11.382  10.342  11.524 -0.4594 -0.1936 -0.0717
  204MOL0     C28070  11.479  10.386  11.428  0.5749 -0.1899 -0.1082
  204MOL0     C28071  11.554  10.498  11.452 -1.1798 -0.1120  0.2332
  204MOL0     C28072  11.523  10.584  11.558 -0.3144 -0.2777 -0.2336
  204MOL0     O28073  11.596  10.697  11.560 -0.3161 -0.2058 -0.4599
  204MOL0     C28074  11.544  10.818  11.490 -0.2860  0.3789 -0.0285
  204MOL0     C28075  11.596  10.941  11.558 -0.2479 -1.0623  0.2255
  204MOL0     C28076  11.747  10.967  11.522  0.9188  0.5341  0.2283
  204MOL0     C28077  11.772  11.120  11.525  0.8164  0.7032  0.0489
  204MOL0     C28078  11.911  11.143  11.578  0.2589  0.2400  0.0791
  204MOL0     C28079  12.028  11.169  11.616  0.4299  0.7973 -0.4633
  204MOL0     C28080  11.428  10.546  11.659 -0.1021  0.3274  1.4208
  204MOL0     C28081  11.359  10.426  11.639 -0.0711  0.1217  0.1491
  204MOL0     C28082  11.260  10.387  11.747 -1.1426  0.0028  0.1780
  204MOL0     H28083  10.993  10.105  11.585 -1.2280 -1.4111  1.5310
  204MOL0     H28084  10.878   9.905  11.543 -0.2091 -0.0590  1.1895
  204MOL0     H28085  11.064   9.488  11.560  2.7188  0.9272 -0.3911
  204MOL0     H28086  11.141   9.547  11.430  0.4722  1.0220  1.9786
  204MOL0     H28087  10.971   9.342  11.417  2.0345 -0.1096  0.1773
  204MOL0     H28088  10.846   9.455  11.392  0.0090 -1.0564  0.0504
  204MOL0     H28089  11.081   9.501  11.213 -1.5974  1.0489 -2.3699
  204MOL0     H28090  11.009   9.334  11.211  1.0473 -1.3299  0.7452
  204MOL0     H28091  10.936   9.503  11.033  0.3293 -0.8954  0.2375
  204MOL0     H28092  10.810   9.427  11.122 -1.0561  1.1345 -3.3895
  204MOL0     H28093  10.843   9.672  11.275  0.1600  1.1758  0.8589
  204MOL0     H28094  10.723   9.621  11.169 -0.0095  0.6606  1.8561
  204MOL0     H28095  10.820   9.731  10.977  3.7862  0.4704 -1.2884
  204MOL0     H28096  10.824   9.847  11.109  1.7930 -0.1030  0.1649
  204MOL0     H28097  11.038   9.835  10.964  2.4056  2.8245  3.7007
  204MOL0     H28098  11.052   9.665  11.021  2.5125  0.0574  4.0578
  204MOL0     H28099  11.062   9.917  11.195  1.2751  0.0814  1.4304
  204MOL0     H28100  11.056   9.757  11.264 -2.8425 -1.0803 -0.7231
  204MOL0     H28101  11.314   9.994  11.153  1.8757  0.1984  2.8455
  204MOL0     H28102  11.553  10.012  11.212  1.1326  1.6083 -2.5385
  204MOL0     H28103  11.601   9.908  11.079 -1.1817  2.3387  0.3579
  204MOL0     H28104  11.721   9.733  11.233  0.8396 -0.3268 -0.0605
  204MOL0     H28105  11.779   9.897  11.252 -1.9948  0.6183 -0.0248
  204MOL0     H28106  11.552   9.775  11.433  1.3555 -1.1432  5.0413
  204MOL0     H28107  11.720   9.748  11.465  0.9075  3.0676  2.6158
  204MOL0     H28108  11.778   9.981  11.474  0.8547 -1.5876 -0.2245
  204MOL0     H28109  11.612  10.027  11.423  0.0272 -1.5456 -1.0831
  204MOL0     H28110  11.454   9.971  11.800  0.5822 -0.0006  4.1500
  204MOL0     H28111  11.423  10.005  12.014 -1.2412 -0.3814 -0.3001
  204MOL0     H28112  11.327  10.146  11.986 -0.2725 -1.7704  0.2406
  204MOL0     H28113  11.463  10.157  12.104  1.8426  3.5746 -2.4836
  204MOL0     H28114  11.795  10.455  12.244 -0.2300 -1.3675 -4.5967
  204MOL0     H28115  11.808  10.661  12.394  0.9575  0.5924 -1.1540
  204MOL0     H28116  11.825  10.940  12.481 -2.1017  0.0574  0.4319
  204MOL0     H28117  11.916  10.878  12.345 -0.5658  0.7503 -2.1275
  204MOL0     H28118  11.878  11.094  12.224 -3.1621 -1.3925 -1.4553
  204MOL0     H28119  11.764  11.134  12.343  0.8215 -0.6310  1.3851
  204MOL0     H28120  11.916  11.205  12.499  0.8750  0.2742  0.0638
  204MOL0     H28121  12.014  11.240  12.355  3.8012 -2.5785 -2.0311
  204MOL0     H28122  12.098  10.981  12.408 -1.5696 -0.0099 -1.4260
  204MOL0     H28123  12.036  11.014  12.563 -1.4249  0.5032  0.2136
  204MOL0     H28124  12.167  11.211  12.584  0.3755 -0.3218  0.2489
  204MOL0     H28125  12.247  11.049  12.577  0.1356 -0.0513 -0.0676
  204MOL0     H28126  12.371  11.249  12.421  0.1623  0.6714  1.9684
  204MOL0     H28127  12.224  11.223  12.321  0.3921  1.5376  1.5150
  204MOL0     H28128  12.296  10.986  12.293  1.9132 -3.3255  1.6570
  204MOL0     H28129  12.419  11.001  12.422 -0.6726 -0.4869  0.4608
  204MOL0     H28130  12.429  11.089  12.138 -0.6176 -1.7312 -0.0418
  204MOL0     H28131  12.529  10.979  12.214 -1.5598 -0.1332 -0.6942
  204MOL0     H28132  11.641  10.878  12.067  0.6212  0.6121 -0.5363
  204MOL0     H28133  11.638  10.683  11.928  2.1108  0.4023 -0.5182
  204MOL0     H28134  11.753  10.356  11.757  0.7984  0.1106  2.7542
  204MOL0     H28135  11.776  10.184  11.606  1.4528 -2.8260  0.6312
  204MOL0     H28136  11.249   9.699  11.491  2.5197  0.4011  0.6075
  204MOL0     H28137  11.373   9.898  11.526  0.5521 -2.7081  2.6111
  204MOL0     H28138  11.495  10.339  11.332 -1.2467 -2.1513  0.4541
  204MOL0     H28139  11.624  10.526  11.374 -0.3541  3.3622  1.9629
  204MOL0     H28140  11.573  10.812  11.384  1.4920 -0.3446  0.4674
  204MOL0     H28141  11.435  10.810  11.493 -0.2568  0.3178  2.0491
  204MOL0     H28142  11.581  10.940  11.666 -1.0845  0.8498  0.1724
  204MOL0     H28143  11.537  11.027  11.526 -0.7372 -0.6059  2.2397
  204MOL0     H28144  11.805  10.908  11.593 -3.0259 -0.0236  3.3550
  204MOL0     H28145  11.776  10.933  11.422  0.6471  1.3326 -0.1331
  204MOL0     H28146  11.710  11.165  11.602 -0.5029 -0.4696 -0.2984
  204MOL0     H28147  11.744  11.175  11.434 -2.2962  0.5877  0.8422
  204MOL0     H28148  12.129  11.199  11.636  0.2967  1.4182 -0.6774
  204MOL0     H28149  11.415  10.619  11.738  1.9397 -0.1899  2.2855
  204MOL0     H28150  11.318  10.367  11.838  2.5330  0.3260 -1.8881
  204MOL0     H28151  11.206  10.480  11.768  0.9459  1.6999 -1.4679
  204MOL0     H28152  11.181  10.315  11.724 -1.7762  1.0572 -1.0383
  205MOL0     O28153   1.559  11.046   7.082  0.1614  0.4920 -0.4737
  205MOL0     C28154   1.669  11.093   7.100  0.7521 -0.3955 -0.0508
  205MOL0     O28155   1.696  11.221   7.086  0.0919 -0.4206 -0.8736
  205MOL0     C28156   1.614  11.332   7.053 -0.5896  0.1169  0.7062
  205MOL0     C28157   1.480  11.329   7.029 -0.7527  0.5163 -0.7966
  205MOL0     C28158   1.412  11.450   6.999  0.2129 -0.2922  0.0140
  205MOL0     C28159   1.479  11.571   6.997 -0.2811 -1.1390 -0.8249
  205MOL0     O28160   1.410  11.684   6.972  0.0766 -0.2497 -0.9729
  205MOL0     C28161   1.483  11.795   6.910  0.2403 -0.2148 -1.3385
  205MOL0     C28162   1.393  11.910   6.858  1.1105  0.4341 -0.0793
  205MOL0     C28163   1.465  12.035   6.812  0.6580 -0.0932 -0.7121
  205MOL0     C28164   1.606  11.996   6.776 -0.1109 -0.3180  0.4493
  205MOL0     C28165   1.676  12.095   6.683  0.2151  0.1252  0.0037
  205MOL0     C28166   1.602  12.102   6.546 -0.1206  0.3014  0.3605
  205MOL0     C28167   1.711  12.132   6.446  0.1686  0.9980  0.3658
  205MOL0     C28168   1.743  12.283   6.444 -0.7347  0.2376 -0.0027
  205MOL0     N28169   1.819  12.313   6.320  0.1926 -0.9342 -0.2886
  205MOL0     C28170   1.775  12.352   6.192  0.4659  0.7643  0.2122
  205MOL0     C28171   1.882  12.385   6.118 -0.1708  0.8131  0.3345
  205MOL0     C28172   1.891  12.440   5.978  0.1223 -0.1637  0.2885
  205MOL0     C28173   1.927  12.326   5.873 -0.5207  0.1660  0.3554
  205MOL0     C28174   1.959  12.391   5.739 -0.2095 -0.2799 -0.5698
  205MOL0     C28175   2.109  12.422   5.739 -0.9144  0.2079 -0.8861
  205MOL0     O28176   2.124  12.567   5.762 -0.1018  0.2486 -0.4446
  205MOL0     C28177   2.253  12.625   5.762 -0.6619 -0.2209  0.1002
  205MOL0     C28178   2.373  12.557   5.781 -0.2167 -0.3579 -0.4334
  205MOL0     C28179   2.498  12.630   5.784  0.3068  0.4680  0.6940
  205MOL0     C28180   2.623  12.539   5.793  0.1166  0.7762  0.3330
  205MOL0     C28181   2.503  12.767   5.774  0.1744  0.6699  0.7093
  205MOL0     C28182   2.629  12.840   5.801  0.3494 -0.0598 -0.1152
  205MOL0     O28183   2.632  12.952   5.727  0.7063 -0.0494 -0.0841
  205MOL0     C28184   2.747  13.005   5.686  0.6650 -0.9407  0.6194
  205MOL0     C28185   2.734  13.142   5.644  0.5183  0.6274  0.2901
  205MOL0     C28186   2.839  13.193   5.574  0.1537 -0.0236  0.9447
  205MOL0     C28187   2.952  13.131   5.531  0.3439 -0.6577 -0.5385
  205MOL0     O28188   3.049  13.209   5.463 -0.0406 -0.2317  0.0252
  205MOL0     C28189   3.159  13.135   5.411  0.1674 -0.4827 -0.0006
  205MOL0     C28190   3.232  13.226   5.314  0.1982 -0.6855 -0.0884
  205MOL0     C28191   3.356  13.167   5.257 -0.8629 -0.0021 -0.7560
  205MOL0     C28192   3.431  13.279   5.175 -0.0261  0.5906 -0.0313
  205MOL0     C28193   3.485  13.217   5.041 -0.5300 -1.2305 -0.4016
  205MOL0     C28194   3.591  13.307   4.982 -1.0174  0.2404 -0.5434
  205MOL0     C28195   3.646  13.252   4.845 -0.0637  0.5658 -0.1695
  205MOL0     C28196   3.767  13.326   4.805 -0.3472  0.3500  1.0569
  205MOL0    Cl28197   3.726  13.499   4.767 -0.0300 -0.5670  0.0683
  205MOL0     C28198   2.970  12.997   5.578  0.2140 -0.5249  0.7306
  205MOL0     C28199   2.869  12.933   5.662 -0.2411 -0.4929 -0.4252
  205MOL0     O28200   2.699  12.816   5.902 -0.7469  0.5741  0.3652
  205MOL0     C28201   2.379  12.836   5.766 -0.9224  0.1438 -0.0079
  205MOL0     C28202   2.262  12.767   5.751 -0.1669 -0.5485  0.5107
  205MOL0     N28203   1.992  12.368   6.207  0.9277  0.5022  0.3172
  205MOL0     N28204   1.953  12.318   6.319 -1.2687 -0.2956 -0.2650
  205MOL0     C28205   1.620  11.567   7.010  0.3719  0.9170 -0.0522
  205MOL0     C28206   1.686  11.454   7.033 -0.6963 -0.1355 -0.9348
  205MOL0     C28207   1.785  10.996   7.105  0.2263  0.1951  0.5455
  205MOL0     C28208   1.913  11.060   7.112  0.5723  0.0514 -0.4207
  205MOL0     C28209   2.035  10.990   7.103  0.3616  0.3682  0.7084
  205MOL0     C28210   2.035  10.852   7.108  0.3104  0.1605  0.3170
  205MOL0     O28211   2.163  10.794   7.117 -0.2943  0.4664  0.7432
  205MOL0     C28212   2.172  10.653   7.091 -0.3447  0.5800  0.5093
  205MOL0     C28213   2.309  10.603   7.112  0.2611 -0.4161  0.7805
  205MOL0     C28214   2.312  10.452   7.083 -0.2406 -1.2605 -0.2612
  205MOL0     C28215   2.455  10.398   7.083 -0.2892 -0.3438 -0.0785
  205MOL0     C28216   2.520  10.382   7.217  0.6343 -0.1699  0.1109
  205MOL0     C28217   2.571  10.358   7.321 -0.2226 -0.1317 -0.3728
  205MOL0     C28218   1.903  10.786   7.114  0.4691 -0.8998 -1.0401
  205MOL0     C28219   1.779  10.855   7.112 -0.7489 -0.4649  0.3805
  205MOL0     C28220   1.663  10.758   7.125 -0.8444 -0.3667 -0.4240
  205MOL0     H28221   1.435  11.230   7.033  1.6575 -0.6569 -1.0798
  205MOL0     H28222   1.305  11.442   6.982 -0.2233 -2.6841  2.9602
  205MOL0     H28223   1.544  11.751   6.830  1.0632 -3.5593  0.9519
  205MOL0     H28224   1.552  11.831   6.987 -0.3890  0.4342 -1.0688
  205MOL0     H28225   1.326  11.867   6.783 -1.1357  0.9650  1.4935
  205MOL0     H28226   1.318  11.933   6.935 -2.7008 -3.4089 -2.2257
  205MOL0     H28227   1.428  12.108   6.739  3.3810  1.5872 -0.5842
  205MOL0     H28228   1.467  12.094   6.904 -3.7853 -0.7685  0.0244
  205MOL0     H28229   1.663  11.980   6.868  1.8008 -3.4214 -1.0901
  205MOL0     H28230   1.600  11.902   6.719  2.6735  0.1303 -0.7110
  205MOL0     H28231   1.778  12.058   6.674  0.4026 -0.5502  3.5322
  205MOL0     H28232   1.690  12.189   6.738  0.6321  0.6663 -0.9923
  205MOL0     H28233   1.551  12.008   6.520 -1.2772  1.5839 -2.4303
  205MOL0     H28234   1.518  12.171   6.535  0.4871  0.7424 -1.9511
  205MOL0     H28235   1.662  12.103   6.353 -4.0379 -0.8148  2.8162
  205MOL0     H28236   1.805  12.077   6.457  0.5749  1.8590  1.4040
  205MOL0     H28237   1.649  12.339   6.454 -0.6526  1.0030 -2.6188
  205MOL0     H28238   1.799  12.303   6.535 -2.1663 -3.6864  1.9888
  205MOL0     H28239   1.674  12.370   6.157  0.7108  0.8486 -0.4748
  205MOL0     H28240   1.967  12.518   5.971 -0.2662  0.0736 -3.2525
  205MOL0     H28241   1.800  12.493   5.945  1.2565 -0.1887 -3.3256
  205MOL0     H28242   2.011  12.266   5.909 -1.6240 -0.3274  2.2541
  205MOL0     H28243   1.838  12.264   5.882 -2.5505  2.4598 -2.1185
  205MOL0     H28244   1.940  12.313   5.665 -1.1442 -1.5804  0.9784
  205MOL0     H28245   1.903  12.480   5.712 -0.3689 -0.2027  0.0049
  205MOL0     H28246   2.165  12.371   5.819  1.3204  1.5865 -1.4928
  205MOL0     H28247   2.165  12.410   5.646  3.0061  2.0315  1.0099
  205MOL0     H28248   2.378  12.451   5.802 -0.2382 -0.4278 -0.7852
  205MOL0     H28249   2.617  12.467   5.876 -0.2324 -2.9036 -2.6325
  205MOL0     H28250   2.720  12.584   5.817 -1.4817  4.9737 -0.1202
  205MOL0     H28251   2.624  12.499   5.692 -2.2634  0.3482  0.4122
  205MOL0     H28252   2.649  13.205   5.667  0.3734 -0.1338  2.0186
  205MOL0     H28253   2.836  13.297   5.543  2.2336 -0.3081 -0.4026
  205MOL0     H28254   3.221  13.107   5.497  0.6813  0.5622 -0.0156
  205MOL0     H28255   3.126  13.048   5.353 -1.7317  0.2667 -0.1171
  205MOL0     H28256   3.169  13.263   5.233 -1.6219 -0.1587  1.4965
  205MOL0     H28257   3.254  13.315   5.375 -2.7603 -0.4687  0.8233
  205MOL0     H28258   3.331  13.079   5.198  2.3807 -0.1349 -2.1756
  205MOL0     H28259   3.426  13.140   5.338  0.7820  3.0227 -1.0128
  205MOL0     H28260   3.506  13.328   5.237  0.3855 -0.3441  0.2120
  205MOL0     H28261   3.360  13.359   5.152 -1.9113 -1.4940 -2.0149
  205MOL0     H28262   3.507  13.110   5.039 -0.8669 -1.4642  2.8686
  205MOL0     H28263   3.402  13.222   4.970 -0.3852 -0.6120 -0.5337
  205MOL0     H28264   3.668  13.294   5.059 -1.4607  0.5429 -0.0415
  205MOL0     H28265   3.565  13.413   4.974  0.3780  0.5245 -1.8470
  205MOL0     H28266   3.565  13.263   4.773 -0.1341 -3.9289 -1.0944
  205MOL0     H28267   3.660  13.144   4.853 -0.7745  0.5871  1.8603
  205MOL0     H28268   3.786  13.283   4.706 -2.9321 -2.0112  1.4411
  205MOL0     H28269   3.861  13.303   4.854  0.7546 -0.3850 -1.2650
  205MOL0     H28270   3.038  12.925   5.534 -1.8316 -1.8680 -0.4123
  205MOL0     H28271   2.870  12.828   5.689  0.4975 -0.5748 -0.7508
  205MOL0     H28272   2.374  12.944   5.777  2.1993  0.5430 -1.5721
  205MOL0     H28273   2.166  12.817   5.749  1.2343  2.3894 -1.8462
  205MOL0     H28274   1.678  11.658   7.011  1.1545  0.4371  1.2963
  205MOL0     H28275   1.794  11.453   7.033 -0.2708  5.0760  3.0962
  205MOL0     H28276   1.916  11.167   7.132  1.0084  0.3442 -1.9919
  205MOL0     H28277   2.128  11.042   7.085  0.6520 -0.3718  0.0267
  205MOL0     H28278   2.112  10.602   7.167 -0.9018  0.5667  0.0691
  205MOL0     H28279   2.130  10.617   6.996 -0.1638  2.2838 -0.2586
  205MOL0     H28280   2.357  10.640   7.203 -0.3078  3.9703 -0.4593
  205MOL0     H28281   2.367  10.653   7.034 -1.6572  2.8425  1.2128
  205MOL0     H28282   2.243  10.405   7.154 -1.9691  0.6629 -0.5818
  205MOL0     H28283   2.267  10.442   6.984  2.6533 -0.6762 -1.7582
  205MOL0     H28284   2.518  10.456   7.015 -1.6288  1.8093  0.4209
  205MOL0     H28285   2.452  10.297   7.040  0.5613 -0.8352  0.9648
  205MOL0     H28286   2.629  10.339   7.409 -2.3882  1.9210  1.6515
  205MOL0     H28287   1.899  10.678   7.113 -0.9265 -0.8715 -0.5239
  205MOL0     H28288   1.569  10.799   7.085 -0.3219  1.0911 -0.2231
  205MOL0     H28289   1.683  10.665   7.071 -0.1004 -1.1178  1.1013
  205MOL0     H28290   1.660  10.734   7.231  0.2726 -0.1462 -0.3247
  206MOL0     O28291   1.882   6.157   8.793 -0.0118 -0.3000 -0.1142
  206MOL0     C28292   1.957   6.060   8.770  0.6302  1.3826 -0.1650
  206MOL0     O28293   1.957   5.946   8.845  0.1024  0.2008 -0.7416
  206MOL0     C28294   1.858   5.923   8.937 -0.4976  0.8576  0.6222
  206MOL0     C28295   1.756   5.844   8.891  0.0961 -0.8092 -0.5561
  206MOL0     C28296   1.661   5.798   8.976  0.2111 -0.3891 -0.7880
  206MOL0     C28297   1.661   5.836   9.111 -0.4778 -0.3528  0.3913
  206MOL0     O28298   1.551   5.799   9.176  0.6101 -0.6278 -1.0499
  206MOL0     C28299   1.552   5.786   9.323 -0.3311  0.3258  0.3142
  206MOL0     C28300   1.505   5.914   9.388 -0.1484 -0.3020 -0.6233
  206MOL0     C28301   1.513   5.903   9.536  0.2635 -0.0131 -0.9794
  206MOL0     C28302   1.371   5.865   9.595 -1.1991  0.1784  0.7833
  206MOL0     C28303   1.362   5.840   9.747  0.0548 -0.3053  0.2322
  206MOL0     C28304   1.459   5.728   9.799  0.2909  0.4806 -0.1832
  206MOL0     C28305   1.449   5.718   9.955  0.0633 -0.2256 -0.3111
  206MOL0     C28306   1.557   5.617  10.015  0.3071  0.0012 -0.0650
  206MOL0     N28307   1.510   5.478   9.995 -0.6866  0.0357 -0.5690
  206MOL0     C28308   1.505   5.378  10.087  0.1015 -1.3840 -0.3900
  206MOL0     C28309   1.484   5.264  10.019 -0.3784 -0.5616 -0.2030
  206MOL0     C28310   1.457   5.123  10.057 -0.2395 -0.4344 -0.1329
  206MOL0     C28311   1.589   5.056  10.106  0.1319 -0.3434  1.2979
  206MOL0     C28312   1.681   5.025   9.986 -0.1779 -0.1901 -0.5189
  206MOL0     C28313   1.620   4.937   9.874 -0.4333 -0.0126  0.2676
  206MOL0     O28314   1.573   4.817   9.935 -0.3076 -0.9406  0.4551
  206MOL0     C28315   1.512   4.717   9.859 -0.1910 -1.3478  0.9656
  206MOL0     C28316   1.535   4.697   9.719 -1.3284 -0.5450  0.4660
  206MOL0     C28317   1.461   4.603   9.648  0.8694 -0.4317  0.9981
  206MOL0     C28318   1.506   4.587   9.502 -0.1247 -0.7339 -0.0426
  206MOL0     C28319   1.356   4.525   9.710 -0.0903  0.6576  0.7741
  206MOL0     C28320   1.266   4.416   9.634 -0.9857  0.1138 -0.2564
  206MOL0     O28321   1.286   4.403   9.501  0.0310  0.3625 -0.5602
  206MOL0     C28322   1.183   4.347   9.432 -0.1002  0.6649  0.8237
  206MOL0     C28323   1.048   4.369   9.439 -0.0883  0.9340  0.2601
  206MOL0     C28324   0.961   4.321   9.345 -0.6432 -0.7690  0.6464
  206MOL0     C28325   0.996   4.224   9.248 -1.0644  0.1410  0.2939
  206MOL0     O28326   0.920   4.162   9.152  0.3396 -0.4052 -0.2689
  206MOL0     C28327   0.803   4.226   9.095 -0.8271 -0.0179 -0.0547
  206MOL0     C28328   0.740   4.134   8.980 -0.3459 -0.6210 -0.4383
  206MOL0     C28329   0.844   4.107   8.874 -0.0866 -0.2910 -0.1702
  206MOL0     C28330   0.936   3.978   8.906 -0.3435 -0.0409 -0.6905
  206MOL0     C28331   1.042   3.962   8.802  0.3254  0.6963  0.8302
  206MOL0     C28332   1.165   4.055   8.840  0.0594  0.9427  0.7096
  206MOL0     C28333   1.275   4.043   8.738  0.4325  0.4577 -0.1807
  206MOL0     C28334   1.226   4.120   8.609  0.4298  0.1030 -0.0953
  206MOL0    Cl28335   1.362   4.179   8.517 -0.3827 -0.9609  0.0714
  206MOL0     C28336   1.131   4.191   9.240 -0.3468 -0.5504  0.2807
  206MOL0     C28337   1.227   4.261   9.326  0.1538  0.3902 -0.4572
  206MOL0     O28338   1.203   4.338   9.707 -0.2407  0.5381  0.7893
  206MOL0     C28339   1.338   4.544   9.851 -0.5385 -0.4228 -0.2587
  206MOL0     C28340   1.416   4.636   9.921  1.2572 -0.9900 -0.0034
  206MOL0     N28341   1.487   5.300   9.886  0.0572  0.8341 -0.2105
  206MOL0     N28342   1.500   5.425   9.873 -0.1688 -0.1364 -0.3141
  206MOL0     C28343   1.778   5.907   9.158  1.1260 -0.0828 -0.6530
  206MOL0     C28344   1.874   5.958   9.069  0.5640  0.1018 -0.4987
  206MOL0     C28345   2.067   6.079   8.673  0.0614  1.2363 -0.3373
  206MOL0     C28346   2.189   6.023   8.706 -0.3816 -0.0747 -0.3675
  206MOL0     C28347   2.306   6.047   8.629 -0.4064 -0.5770 -0.2175
  206MOL0     C28348   2.291   6.115   8.506  0.8660 -0.9191  1.2731
  206MOL0     O28349   2.381   6.145   8.412 -0.4931 -0.1751  0.5035
  206MOL0     C28350   2.513   6.078   8.415 -0.3312  0.0834 -0.5699
  206MOL0     C28351   2.633   6.175   8.451  0.4369 -0.0005 -0.9206
  206MOL0     C28352   2.600   6.246   8.585  0.5161  0.7084 -0.0449
  206MOL0     C28353   2.704   6.353   8.629  0.3357  0.8586 -0.4242
  206MOL0     C28354   2.706   6.478   8.559  0.3602 -0.5293 -0.8382
  206MOL0     C28355   2.700   6.582   8.499  0.8955  0.4200  0.0441
  206MOL0     C28356   2.165   6.155   8.463 -0.3766  0.7618 -0.2060
  206MOL0     C28357   2.057   6.149   8.551 -0.4914 -0.2197  0.0270
  206MOL0     C28358   1.938   6.235   8.503  0.6951  0.0950  0.3454
  206MOL0     H28359   1.744   5.822   8.785 -3.9094 -0.3491 -0.3318
  206MOL0     H28360   1.569   5.751   8.945  1.2479 -1.9957 -1.6004
  206MOL0     H28361   1.654   5.770   9.359 -0.9069 -0.2189  1.8177
  206MOL0     H28362   1.494   5.703   9.365  1.6413 -2.1876 -1.5873
  206MOL0     H28363   1.567   5.997   9.354  1.7979 -2.0483 -1.5379
  206MOL0     H28364   1.399   5.933   9.366 -0.1820 -0.0622 -0.2750
  206MOL0     H28365   1.589   5.832   9.568 -0.0347 -0.9179 -2.2210
  206MOL0     H28366   1.530   6.003   9.578  2.7366 -1.2737  1.3390
  206MOL0     H28367   1.305   5.945   9.560  0.1608 -0.1084 -2.9272
  206MOL0     H28368   1.332   5.773   9.550  0.9921 -0.6050  0.3127
  206MOL0     H28369   1.257   5.814   9.758 -0.9533  3.2804  0.3213
  206MOL0     H28370   1.387   5.934   9.797  1.0252  0.4870 -1.6329
  206MOL0     H28371   1.427   5.632   9.756 -1.4190  2.8690 -5.0502
  206MOL0     H28372   1.561   5.753   9.768  0.2554 -2.8403 -3.8103
  206MOL0     H28373   1.352   5.680   9.987  0.7579 -1.3339  0.5660
  206MOL0     H28374   1.462   5.817   9.998  2.9152 -2.0434  3.5612
  206MOL0     H28375   1.650   5.617   9.957 -1.2401 -4.0046 -3.1219
  206MOL0     H28376   1.572   5.647  10.118  0.6927  3.6960 -1.0752
  206MOL0     H28377   1.534   5.379  10.191 -3.6063  0.0698  0.7893
  206MOL0     H28378   1.410   5.057   9.983  1.2960 -0.4772 -1.1292
  206MOL0     H28379   1.389   5.121  10.143 -1.2155  1.0550 -0.8168
  206MOL0     H28380   1.647   5.118  10.175  0.4648 -2.2546  2.8291
  206MOL0     H28381   1.573   4.972  10.174 -1.0499  0.0904  1.5872
  206MOL0     H28382   1.720   5.116   9.939  4.1710 -1.9474 -0.7611
  206MOL0     H28383   1.776   4.994  10.030  0.4904  3.3647  0.8754
  206MOL0     H28384   1.547   4.995   9.817  0.9147  0.7174 -0.7617
  206MOL0     H28385   1.700   4.922   9.801 -2.5929 -1.9232 -1.8816
  206MOL0     H28386   1.619   4.755   9.682  0.4938 -1.2745  3.1193
  206MOL0     H28387   1.591   4.654   9.480  0.5895 -1.6859 -0.2541
  206MOL0     H28388   1.410   4.611   9.456 -0.3474  1.7353  1.5104
  206MOL0     H28389   1.540   4.484   9.488  2.2709  0.1207 -1.2246
  206MOL0     H28390   1.018   4.449   9.506  0.5617 -0.1298  1.8683
  206MOL0     H28391   0.856   4.347   9.345  0.0120  2.2011  1.4738
  206MOL0     H28392   0.727   4.254   9.168  0.6926  2.0090  0.8072
  206MOL0     H28393   0.841   4.323   9.063  2.7384 -0.2693  2.9168
  206MOL0     H28394   0.718   4.039   9.029 -2.5759 -1.1207 -2.2401
  206MOL0     H28395   0.645   4.165   8.938 -0.5163  2.1789  1.7586
  206MOL0     H28396   0.906   4.196   8.856  0.0423  0.6981  4.0614
  206MOL0     H28397   0.795   4.072   8.783 -0.1257 -2.5058  0.6459
  206MOL0     H28398   0.866   3.894   8.899 -0.4796  0.1075 -1.2311
  206MOL0     H28399   0.970   3.976   9.009 -0.4811  0.7561 -0.6232
  206MOL0     H28400   1.078   3.858   8.799 -0.9742  0.2448 -0.8376
  206MOL0     H28401   1.005   3.981   8.701  2.4482 -2.5607 -0.7411
  206MOL0     H28402   1.203   4.034   8.940  0.8614 -0.6896  0.0975
  206MOL0     H28403   1.135   4.160   8.844  0.2230  1.1184 -1.4544
  206MOL0     H28404   1.276   3.935   8.720  0.1992 -0.1639  3.0722
  206MOL0     H28405   1.370   4.083   8.772  0.0142  2.2668 -1.0121
  206MOL0     H28406   1.152   4.199   8.624 -3.2971 -3.1335  0.2114
  206MOL0     H28407   1.170   4.043   8.555  0.5467  0.6237 -0.9758
  206MOL0     H28408   1.166   4.125   9.161 -0.8291  1.1646 -1.4223
  206MOL0     H28409   1.334   4.247   9.312  0.3966  0.2343  1.3407
  206MOL0     H28410   1.266   4.477   9.898 -3.5514  1.5538 -1.7311
  206MOL0     H28411   1.397   4.642  10.027 -1.7214 -3.0902 -0.2736
  206MOL0     H28412   1.785   5.931   9.264  1.2791 -0.1363 -0.6499
  206MOL0     H28413   1.962   6.011   9.104  1.8024 -1.7400 -0.7048
  206MOL0     H28414   2.190   5.975   8.803 -0.8956  3.2487  1.4479
  206MOL0     H28415   2.400   6.008   8.666  0.0442 -2.5653 -3.1494
  206MOL0     H28416   2.501   5.996   8.486 -4.0847  0.8277 -0.1530
  206MOL0     H28417   2.531   6.034   8.316 -0.4468 -1.7350  0.1911
  206MOL0     H28418   2.645   6.241   8.365 -0.4838 -0.5310 -1.4767
  206MOL0     H28419   2.727   6.124   8.475  0.7772  0.7683 -0.6038
  206MOL0     H28420   2.500   6.287   8.571 -0.2571 -1.4263 -1.2844
  206MOL0     H28421   2.596   6.163   8.657 -1.6652 -0.0378 -0.9326
  206MOL0     H28422   2.807   6.318   8.625 -0.1373 -0.5358 -3.1040
  206MOL0     H28423   2.670   6.377   8.730 -0.4067  0.4881 -0.5768
  206MOL0     H28424   2.727   6.674   8.451  1.2596  1.0051  1.3366
  206MOL0     H28425   2.159   6.216   8.373 -2.9062 -0.4551 -0.9777
  206MOL0     H28426   1.962   6.308   8.427  2.4458  0.9957  1.7063
  206MOL0     H28427   1.853   6.170   8.479 -0.7309  2.0464 -0.1375
  206MOL0     H28428   1.912   6.300   8.587  2.7697 -1.5616  2.4116
  207MOL0     O28429   1.397   5.600   7.364  0.1129 -0.9461  0.0829
  207MOL0     C28430   1.341   5.587   7.476 -0.0892  0.0108  0.5221
  207MOL0     O28431   1.228   5.659   7.518  0.0518 -0.3584  0.5733
  207MOL0     C28432   1.168   5.741   7.418 -0.0014  0.2496 -1.1547
  207MOL0     C28433   1.211   5.865   7.382 -0.4377 -0.3060 -0.1121
  207MOL0     C28434   1.151   5.941   7.279 -1.5099 -1.1232 -0.7615
  207MOL0     C28435   1.037   5.896   7.223 -0.4890  0.5786  0.3293
  207MOL0     O28436   0.959   5.983   7.140 -0.5134  0.6311  0.0181
  207MOL0     C28437   0.952   5.936   7.008  0.2357 -0.6086  0.4431
  207MOL0     C28438   0.888   6.047   6.922 -0.4373 -0.8174 -0.4730
  207MOL0     C28439   0.743   6.085   6.939 -0.7055  0.1403  0.1545
  207MOL0     C28440   0.696   6.210   6.860 -0.3000 -1.1962  0.0070
  207MOL0     C28441   0.546   6.242   6.853 -0.2513  0.1027 -0.0919
  207MOL0     C28442   0.519   6.387   6.824 -0.1438  1.1076 -0.6777
  207MOL0     C28443   0.568   6.487   6.930 -0.5728 -1.6523 -0.5189
  207MOL0     C28444   0.561   6.638   6.868 -0.2495  0.3288 -0.6024
  207MOL0     N28445   0.658   6.720   6.933 -0.1317 -0.7734  0.2031
  207MOL0     C28446   0.652   6.856   6.926 -0.0651 -0.5739 -0.9542
  207MOL0     C28447   0.746   6.900   7.021  0.2607 -0.1524 -0.0211
  207MOL0     C28448   0.786   7.039   7.076 -0.9155 -0.5028  0.1679
  207MOL0     C28449   0.732   7.157   6.982 -0.4422  0.3420 -0.7019
  207MOL0     C28450   0.744   7.300   7.034  0.1020  0.0522  0.3617
  207MOL0     C28451   0.886   7.357   7.022 -0.8622  0.7384 -0.7478
  207MOL0     O28452   0.921   7.389   6.890 -0.0491  0.3071 -0.5728
  207MOL0     C28453   1.043   7.449   6.873  0.6758 -0.1327 -0.7545
  207MOL0     C28454   1.049   7.564   6.805  0.3542 -0.7809 -1.2891
  207MOL0     C28455   1.182   7.616   6.776  0.0771  1.0516 -0.9346
  207MOL0     C28456   1.171   7.735   6.699  0.9816  0.4800  0.3779
  207MOL0     C28457   1.302   7.556   6.821 -0.0429  0.1925 -0.0620
  207MOL0     C28458   1.432   7.609   6.785 -0.0097  0.5987 -0.6609
  207MOL0     O28459   1.541   7.516   6.805  0.0217 -0.3553  0.7668
  207MOL0     C28460   1.670   7.534   6.753 -0.0040 -0.5708 -0.4925
  207MOL0     C28461   1.780   7.466   6.806  0.2706 -0.0442 -0.9961
  207MOL0     C28462   1.913   7.477   6.767 -0.3266  0.0011 -0.3073
  207MOL0     C28463   1.940   7.559   6.655 -0.3535 -0.5643 -0.6169
  207MOL0     O28464   2.061   7.582   6.605  0.0604 -0.0293 -0.3623
  207MOL0     C28465   2.162   7.498   6.652 -1.2925 -0.2158  0.0646
  207MOL0     C28466   2.302   7.522   6.591  0.1527 -0.3760  0.9820
  207MOL0     C28467   2.343   7.668   6.584  0.4071 -0.2470 -1.1113
  207MOL0     C28468   2.497   7.682   6.553  0.2626 -0.5469 -0.1676
  207MOL0     C28469   2.533   7.670   6.406 -1.0100  0.7662 -1.0353
  207MOL0     C28470   2.683   7.706   6.382  0.6351  0.1154  0.0523
  207MOL0     C28471   2.772   7.595   6.439 -0.1554 -1.0255  0.5991
  207MOL0     C28472   2.915   7.627   6.400 -0.4055 -0.3233 -0.4053
  207MOL0    Cl28473   2.958   7.602   6.227  0.2321  0.4968  0.5279
  207MOL0     C28474   1.834   7.623   6.591 -0.2652 -0.9993 -0.4583
  207MOL0     C28475   1.702   7.617   6.641 -0.0172  0.3569 -0.1574
  207MOL0     O28476   1.446   7.725   6.746 -0.6459  0.0607  0.2718
  207MOL0     C28477   1.289   7.429   6.891 -0.7389  0.0179  0.1268
  207MOL0     C28478   1.160   7.389   6.924 -0.1688  0.5941  0.1435
  207MOL0     N28479   0.808   6.786   7.068  0.3603 -1.1704 -0.3751
  207MOL0     N28480   0.767   6.686   7.005 -0.3607 -0.0842 -0.6719
  207MOL0     C28481   0.981   5.773   7.261 -1.5222 -0.2766  0.1066
  207MOL0     C28482   1.055   5.685   7.350  0.6958 -1.3730 -0.0253
  207MOL0     C28483   1.402   5.481   7.572  0.5716  0.4440  0.7286
  207MOL0     C28484   1.528   5.433   7.548  0.2345  0.0750  0.3661
  207MOL0     C28485   1.595   5.333   7.619  0.2219 -0.6192  0.2589
  207MOL0     C28486   1.527   5.285   7.731 -0.3431  0.1285 -0.1537
  207MOL0     O28487   1.595   5.200   7.816 -0.3423 -0.8321  0.3558
  207MOL0     C28488   1.555   5.180   7.957 -0.4273  1.1357  0.8778
  207MOL0     C28489   1.663   5.188   8.060  1.0218 -0.0817 -0.5425
  207MOL0     C28490   1.772   5.084   8.044 -0.7737  0.0291 -0.0641
  207MOL0     C28491   1.888   5.098   8.133 -0.9041  0.7789  0.0051
  207MOL0     C28492   1.873   5.049   8.270 -0.0891  0.0346  0.4533
  207MOL0     C28493   1.858   4.995   8.375 -0.3583 -0.8308  0.2696
  207MOL0     C28494   1.393   5.317   7.748  0.6076 -0.8701 -0.2495
  207MOL0     C28495   1.324   5.415   7.673 -0.4769  0.2418  0.0349
  207MOL0     C28496   1.176   5.446   7.710 -1.4498  0.5270  0.0005
  207MOL0     H28497   1.295   5.894   7.445  1.2476 -0.7801 -2.0163
  207MOL0     H28498   1.180   6.043   7.255  0.6302 -0.9962  1.7862
  207MOL0     H28499   0.896   5.842   7.003 -0.1389 -0.4411  1.2924
  207MOL0     H28500   1.042   5.915   6.949 -0.3523 -0.3125 -0.5767
  207MOL0     H28501   0.943   6.141   6.925 -1.5207 -0.1743  0.5694
  207MOL0     H28502   0.898   6.002   6.823 -0.6868 -1.0320 -0.4046
  207MOL0     H28503   0.686   6.000   6.901  0.4327 -0.4196 -0.3561
  207MOL0     H28504   0.723   6.113   7.043  3.6390  1.3791  0.8330
  207MOL0     H28505   0.746   6.291   6.912 -1.1042 -0.4320 -0.3835
  207MOL0     H28506   0.725   6.202   6.754 -0.6668  0.7678 -0.2663
  207MOL0     H28507   0.504   6.214   6.950 -1.2746  0.5496 -0.3982
  207MOL0     H28508   0.494   6.177   6.782 -4.5751  1.1124  1.8830
  207MOL0     H28509   0.571   6.399   6.728  0.3265 -0.5815 -0.6683
  207MOL0     H28510   0.413   6.403   6.806 -0.2202 -0.2088 -1.4891
  207MOL0     H28511   0.671   6.467   6.959 -0.9615 -1.6204  0.9414
  207MOL0     H28512   0.513   6.486   7.025  0.0174  1.0968 -0.0375
  207MOL0     H28513   0.574   6.655   6.761  0.8344  1.6870 -0.2900
  207MOL0     H28514   0.463   6.676   6.896 -0.9313 -2.4076  1.1460
  207MOL0     H28515   0.586   6.919   6.867  1.2606  2.4858  0.6067
  207MOL0     H28516   0.895   7.046   7.084 -0.7274  0.3753 -2.3656
  207MOL0     H28517   0.739   7.036   7.175 -1.7770  0.3401 -0.2007
  207MOL0     H28518   0.793   7.149   6.891  3.8836  0.4646  1.9132
  207MOL0     H28519   0.626   7.137   6.961 -0.5247  0.5200 -0.4613
  207MOL0     H28520   0.684   7.370   6.976 -1.4392 -1.3062  0.2603
  207MOL0     H28521   0.693   7.307   7.130  0.6427  0.9112  0.6015
  207MOL0     H28522   0.876   7.453   7.075 -0.8119  0.1604  0.3484
  207MOL0     H28523   0.965   7.297   7.068 -2.6556  0.3696  2.0849
  207MOL0     H28524   0.953   7.605   6.775 -2.1086 -2.3294  3.4726
  207MOL0     H28525   1.066   7.763   6.685  0.6170  0.9014  3.3566
  207MOL0     H28526   1.223   7.723   6.603 -2.7404  2.1939 -2.1004
  207MOL0     H28527   1.195   7.825   6.757 -2.4974  1.8167 -0.0102
  207MOL0     H28528   1.774   7.398   6.891  0.3073  1.8826  0.6497
  207MOL0     H28529   1.987   7.418   6.819  1.1118 -2.3365 -4.4890
  207MOL0     H28530   2.168   7.525   6.758 -3.1905  0.5712  0.0054
  207MOL0     H28531   2.128   7.397   6.628 -2.0754 -0.5542  2.3939
  207MOL0     H28532   2.380   7.472   6.650 -0.4025 -1.3252  0.9392
  207MOL0     H28533   2.293   7.475   6.493  1.8752  0.4804  0.3774
  207MOL0     H28534   2.315   7.715   6.679 -0.7615 -1.5338 -0.8024
  207MOL0     H28535   2.277   7.717   6.511 -2.0220 -0.9593  0.5044
  207MOL0     H28536   2.552   7.612   6.617 -1.7537 -0.4711  1.7896
  207MOL0     H28537   2.525   7.782   6.586 -3.0258  0.2782  0.5235
  207MOL0     H28538   2.519   7.571   6.363  0.8465 -1.0601  2.1694
  207MOL0     H28539   2.462   7.733   6.351 -0.3389  1.8852 -0.6732
  207MOL0     H28540   2.688   7.800   6.437 -0.7774 -1.1772  2.5464
  207MOL0     H28541   2.705   7.728   6.277  1.1058  1.5985  0.4462
  207MOL0     H28542   2.735   7.496   6.409  1.8139 -2.1280  1.5676
  207MOL0     H28543   2.751   7.592   6.546 -1.5846  2.9382  0.5901
  207MOL0     H28544   2.981   7.566   6.462 -0.9094 -0.4276  0.0295
  207MOL0     H28545   2.941   7.731   6.422  3.7783 -0.6576 -2.6397
  207MOL0     H28546   1.856   7.699   6.517 -3.0803  0.1007 -0.3258
  207MOL0     H28547   1.629   7.659   6.573  0.3050  1.3051  0.0656
  207MOL0     H28548   1.373   7.369   6.924 -1.1648 -1.3586 -1.1802
  207MOL0     H28549   1.142   7.302   6.986  1.0801  0.6908  0.6611
  207MOL0     H28550   0.888   5.735   7.221 -4.1041  1.6242  3.6828
  207MOL0     H28551   1.014   5.587   7.370 -1.2494 -0.2965  1.6537
  207MOL0     H28552   1.580   5.479   7.465  1.9032  0.6193  1.6426
  207MOL0     H28553   1.686   5.280   7.591 -0.8595 -3.0716  1.1479
  207MOL0     H28554   1.478   5.253   7.980 -3.3487 -1.4883  0.1675
  207MOL0     H28555   1.524   5.076   7.971 -5.0751  2.0155 -0.9256
  207MOL0     H28556   1.618   5.172   8.158  0.1172  1.5448 -0.6492
  207MOL0     H28557   1.718   5.283   8.056 -0.3501  0.7333 -0.6802
  207MOL0     H28558   1.715   4.994   8.072  0.1946 -1.3191 -2.1554
  207MOL0     H28559   1.807   5.063   7.943  1.5579 -0.0268  0.7043
  207MOL0     H28560   1.919   5.202   8.143 -1.2026  0.7803  0.9820
  207MOL0     H28561   1.973   5.044   8.091 -0.5429 -1.6483  3.4559
  207MOL0     H28562   1.854   4.950   8.472  0.9117 -2.1659 -0.2716
  207MOL0     H28563   1.336   5.277   7.831  0.5079  0.7264  0.4924
  207MOL0     H28564   1.137   5.380   7.788 -0.2587 -0.0024  0.1620
  207MOL0     H28565   1.173   5.548   7.749 -2.0349 -0.0157  1.4677
  207MOL0     H28566   1.126   5.449   7.613  1.1991  0.4134 -1.4547
  208MOL0     O28567   6.828   7.997   9.765  0.1950 -0.2270 -0.8945
  208MOL0     C28568   6.761   8.097   9.791 -0.5153  0.7176 -0.3444
  208MOL0     O28569   6.698   8.117   9.917  0.0464 -0.0600  0.1225
  208MOL0     C28570   6.679   8.010  10.000  0.4077 -0.6427  0.5031
  208MOL0     C28571   6.704   8.016  10.138 -0.0002 -0.4436 -0.6640
  208MOL0     C28572   6.681   7.908  10.219  0.6356 -0.0470 -0.6022
  208MOL0     C28573   6.611   7.795  10.180 -1.3413 -0.3679  1.2851
  208MOL0     O28574   6.591   7.694  10.272  0.5778  0.0251  0.0414
  208MOL0     C28575   6.542   7.722  10.401 -0.2238 -0.5805  0.2234
  208MOL0     C28576   6.461   7.608  10.454  0.4694 -1.0231  0.6977
  208MOL0     C28577   6.375   7.630  10.587  0.5877  0.3048 -0.3149
  208MOL0     C28578   6.328   7.774  10.621  0.1921  0.6227 -0.7470
  208MOL0     C28579   6.261   7.770  10.765 -0.2101 -0.3051  0.5694
  208MOL0     C28580   6.234   7.913  10.810 -0.1899  0.2350  0.2566
  208MOL0     C28581   6.176   7.928  10.952 -0.4755  0.8176  0.4031
  208MOL0     C28582   6.235   7.834  11.068 -0.3241  0.5484  0.5364
  208MOL0     N28583   6.379   7.842  11.084  0.4987  0.3651  1.0971
  208MOL0     C28584   6.482   7.753  11.063  0.3356  0.8164 -0.5645
  208MOL0     C28585   6.601   7.817  11.086 -1.0400 -0.5369  0.2593
  208MOL0     C28586   6.745   7.771  11.067 -0.8332 -0.7024 -0.0252
  208MOL0     C28587   6.843   7.874  11.004  0.1132 -1.0491  0.0142
  208MOL0     C28588   6.921   7.953  11.103  0.0580  0.9127  0.1172
  208MOL0     C28589   7.022   8.037  11.034  0.1147  0.2094 -0.1431
  208MOL0     O28590   7.058   8.136  11.135 -0.7286  0.1900 -0.3253
  208MOL0     C28591   7.125   8.244  11.085 -0.3585  0.0980 -0.3150
  208MOL0     C28592   7.208   8.244  10.975 -0.4664  0.4508  0.4653
  208MOL0     C28593   7.284   8.357  10.941  0.2824 -0.8742 -0.6107
  208MOL0     C28594   7.368   8.325  10.823 -0.2121  0.2314  0.0587
  208MOL0     C28595   7.255   8.484  10.997  0.8159 -0.3836  0.4220
  208MOL0     C28596   7.305   8.617  10.953  0.6667  0.1285 -0.4073
  208MOL0     O28597   7.277   8.710  11.041  0.4684 -0.0982  0.4960
  208MOL0     C28598   7.295   8.839  11.009  0.6237  0.2727 -0.3556
  208MOL0     C28599   7.209   8.897  10.911  0.7209  1.0145  0.7342
  208MOL0     C28600   7.218   9.036  10.886 -0.0468  0.0675  0.8567
  208MOL0     C28601   7.297   9.118  10.953 -0.2020 -0.1018  0.1738
  208MOL0     O28602   7.299   9.248  10.926 -0.4015  0.1312  0.3709
  208MOL0     C28603   7.253   9.325  11.036 -0.3928  0.1396  0.2494
  208MOL0     C28604   7.118   9.388  11.013  0.2668 -0.3900  0.2995
  208MOL0     C28605   7.088   9.497  11.105  0.2587  0.1741 -0.6070
  208MOL0     C28606   6.963   9.577  11.065 -0.2061 -0.1971 -0.3287
  208MOL0     C28607   6.933   9.697  11.158 -0.2107  0.0211 -0.2265
  208MOL0     C28608   7.026   9.808  11.105 -0.1077 -0.1226  0.1265
  208MOL0     C28609   7.002   9.923  11.202 -0.0795  0.0686  0.0398
  208MOL0     C28610   7.081  10.040  11.153  0.3196 -0.2774  0.0586
  208MOL0    Cl28611   7.099  10.167  11.279 -0.1314 -0.0568 -0.1854
  208MOL0     C28612   7.379   9.071  11.049  0.4940  0.0225  0.5986
  208MOL0     C28613   7.370   8.928  11.083 -0.8858 -0.1602  0.2248
  208MOL0     O28614   7.342   8.634  10.841  0.4951 -0.2250 -0.5143
  208MOL0     C28615   7.158   8.480  11.100  0.7734  0.2612 -0.1765
  208MOL0     C28616   7.095   8.368  11.145  0.1446  0.1217  0.7153
  208MOL0     N28617   6.569   7.946  11.123 -0.1954 -1.0292  0.2453
  208MOL0     N28618   6.444   7.959  11.118  0.6307 -0.1234 -0.3415
  208MOL0     C28619   6.561   7.794  10.044  0.5269 -0.2942 -0.6031
  208MOL0     C28620   6.598   7.905   9.958  1.0455  0.5378 -0.6096
  208MOL0     C28621   6.787   8.209   9.705 -0.7415 -1.1402 -0.2345
  208MOL0     C28622   6.759   8.202   9.571  0.5691  0.4354 -0.0751
  208MOL0     C28623   6.778   8.306   9.483  0.4158 -1.1254  0.2148
  208MOL0     C28624   6.825   8.425   9.538 -0.1120  0.2874  0.0453
  208MOL0     O28625   6.824   8.538   9.462 -0.1888  0.0812 -0.2474
  208MOL0     C28626   6.887   8.527   9.340 -0.9332 -1.1084 -0.3238
  208MOL0     C28627   6.927   8.678   9.302  0.8440  0.5659  1.2033
  208MOL0     C28628   7.017   8.685   9.177 -0.0614 -0.0520 -0.4764
  208MOL0     C28629   7.073   8.824   9.154 -0.3683  0.9863  0.3154
  208MOL0     C28630   6.972   8.917   9.106 -1.3698 -0.1078  0.4023
  208MOL0     C28631   6.876   8.984   9.066  0.0486 -0.6452  0.5212
  208MOL0     C28632   6.854   8.437   9.678  0.2797 -0.3897  0.5534
  208MOL0     C28633   6.828   8.335   9.761 -0.4668  0.5186  0.2819
  208MOL0     C28634   6.872   8.329   9.906 -0.2394 -0.2262  0.4861
  208MOL0     H28635   6.757   8.106  10.169 -3.9312  1.9057  0.0491
  208MOL0     H28636   6.709   7.926  10.323 -0.7139  0.5331 -0.3226
  208MOL0     H28637   6.477   7.810  10.396 -0.3177 -0.6576  0.0891
  208MOL0     H28638   6.619   7.746  10.475 -1.6079 -0.0436  1.5507
  208MOL0     H28639   6.380   7.594  10.382  0.8711  2.8529 -0.7259
  208MOL0     H28640   6.519   7.515  10.460  3.1715  0.5464  0.7341
  208MOL0     H28641   6.289   7.563  10.588 -1.0712  2.3026  2.0604
  208MOL0     H28642   6.438   7.603  10.673 -0.1891  2.3968  0.9745
  208MOL0     H28643   6.411   7.844  10.632 -2.3815  3.6039  1.8579
  208MOL0     H28644   6.248   7.805  10.554 -2.3654 -2.0501  0.8266
  208MOL0     H28645   6.339   7.724  10.827  1.8954 -0.7693 -2.2095
  208MOL0     H28646   6.169   7.710  10.757  0.0797 -0.5547 -1.4992
  208MOL0     H28647   6.323   7.978  10.809  0.4280 -0.5804 -1.0078
  208MOL0     H28648   6.156   7.944  10.740 -0.2010 -0.2896  0.0339
  208MOL0     H28649   6.074   7.891  10.935  1.0312 -2.8187 -1.9527
  208MOL0     H28650   6.191   8.031  10.988  1.4283  0.2629  1.3470
  208MOL0     H28651   6.186   7.858  11.164 -2.7469 -3.2303  0.4572
  208MOL0     H28652   6.211   7.729  11.046  0.3201  0.0135  2.2415
  208MOL0     H28653   6.462   7.657  11.016 -4.2153  1.8907 -1.2955
  208MOL0     H28654   6.755   7.670  11.027 -1.8854 -1.4033  1.3770
  208MOL0     H28655   6.771   7.755  11.172 -0.7820 -1.0613 -0.0917
  208MOL0     H28656   6.911   7.809  10.947  0.0675  1.4975 -3.2826
  208MOL0     H28657   6.786   7.932  10.930 -3.6883  1.8352  4.6169
  208MOL0     H28658   6.853   8.013  11.164  2.2365  1.9142  1.6958
  208MOL0     H28659   6.975   7.892  11.176  0.6228  1.0608 -0.1678
  208MOL0     H28660   7.102   7.966  11.008  0.7732 -0.1559  2.5593
  208MOL0     H28661   6.981   8.095  10.951  0.9249  2.8987  1.2329
  208MOL0     H28662   7.224   8.157  10.912 -0.9861 -0.4982  1.5974
  208MOL0     H28663   7.437   8.405  10.794  1.1072  0.2725  3.0173
  208MOL0     H28664   7.317   8.314  10.726 -0.3965 -1.9341  0.3650
  208MOL0     H28665   7.418   8.228  10.823 -2.9124 -1.2791 -0.1966
  208MOL0     H28666   7.156   8.835  10.839  2.2081  0.5594 -0.0227
  208MOL0     H28667   7.158   9.066  10.801  2.0916  0.0339 -0.7474
  208MOL0     H28668   7.242   9.270  11.130 -1.5879 -1.5326 -0.8227
  208MOL0     H28669   7.327   9.405  11.038 -3.7339  3.5476 -0.4874
  208MOL0     H28670   7.115   9.430  10.912 -0.5317  1.7950  1.1698
  208MOL0     H28671   7.051   9.303  11.024 -0.3901  0.1312  0.3822
  208MOL0     H28672   7.172   9.567  11.105  0.2095  0.4451 -4.4624
  208MOL0     H28673   7.065   9.465  11.207  0.2997  4.3130  0.9210
  208MOL0     H28674   6.876   9.513  11.077 -3.3552  4.0271  2.0626
  208MOL0     H28675   6.970   9.608  10.961 -1.3705  3.1788  0.4785
  208MOL0     H28676   6.827   9.725  11.160 -0.6032 -1.4083  1.0265
  208MOL0     H28677   6.959   9.680  11.263  1.9844  0.5039 -0.6459
  208MOL0     H28678   7.004   9.835  11.002  0.2636 -0.5920 -0.0800
  208MOL0     H28679   7.126   9.764  11.112  0.0447  0.3294  1.0577
  208MOL0     H28680   7.026   9.887  11.302 -4.8017 -0.9777  1.0664
  208MOL0     H28681   6.900   9.961  11.215 -0.2202  0.7267 -2.4468
  208MOL0     H28682   7.037  10.084  11.063 -1.4825  2.0045  1.9216
  208MOL0     H28683   7.182  10.016  11.119  1.0918  0.0967  1.9438
  208MOL0     H28684   7.441   9.137  11.110 -1.2887  1.1545  1.2662
  208MOL0     H28685   7.439   8.882  11.153  0.7351  0.2875 -1.0226
  208MOL0     H28686   7.127   8.566  11.160  2.1505  2.4875 -2.4311
  208MOL0     H28687   7.022   8.361  11.225  0.9471  0.1429  1.4631
  208MOL0     H28688   6.507   7.711   9.998  1.6981 -0.7923 -1.1098
  208MOL0     H28689   6.558   7.924   9.859  1.6911  0.0912 -0.9662
  208MOL0     H28690   6.722   8.107   9.533  1.1451 -0.3564  1.2713
  208MOL0     H28691   6.756   8.303   9.376  0.4980  0.1709  0.1441
  208MOL0     H28692   6.967   8.453   9.349 -2.2336 -3.0402 -3.2396
  208MOL0     H28693   6.822   8.483   9.264  0.8074 -0.0948 -2.5019
  208MOL0     H28694   6.971   8.735   9.385  2.8317  0.1532  0.4679
  208MOL0     H28695   6.830   8.721   9.273  0.1767 -1.5814  0.0646
  208MOL0     H28696   7.100   8.616   9.198 -2.8218 -2.9385  2.1182
  208MOL0     H28697   6.964   8.639   9.093  2.9765 -3.3836 -0.8266
  208MOL0     H28698   7.149   8.826   9.074 -4.7015  2.2447 -4.2991
  208MOL0     H28699   7.119   8.875   9.239 -2.8606  1.7067  1.3333
  208MOL0     H28700   6.799   9.051   9.033  3.2753  3.1856 -0.0501
  208MOL0     H28701   6.886   8.531   9.721  1.0102  0.5670 -1.9153
  208MOL0     H28702   6.909   8.230   9.934  1.3040  0.1947  0.0153
  208MOL0     H28703   6.955   8.398   9.923  0.8990 -0.9429 -1.6744
  208MOL0     H28704   6.792   8.363   9.972  1.1134 -0.0638  2.0907
  209MOL0     O28705   1.418   2.077   6.449  0.0056 -0.0926  0.4828
  209MOL0     C28706   1.339   2.017   6.385 -0.7881 -0.1294  0.6151
  209MOL0     O28707   1.357   1.889   6.339 -0.0230 -0.6205 -0.0201
  209MOL0     C28708   1.468   1.812   6.378  1.2939  1.1663 -0.2595
  209MOL0     C28709   1.588   1.794   6.294 -0.0228  1.3528 -0.3088
  209MOL0     C28710   1.698   1.742   6.367 -0.1346  0.2399  1.0436
  209MOL0     C28711   1.696   1.691   6.497  0.2864 -0.0166 -0.3070
  209MOL0     O28712   1.815   1.650   6.550  0.1707  0.4092  1.0084
  209MOL0     C28713   1.830   1.529   6.626 -0.0524  0.0256 -0.1480
  209MOL0     C28714   1.976   1.516   6.675  0.4032  0.4795 -0.2140
  209MOL0     C28715   2.069   1.522   6.550  0.2221 -1.5695 -0.1060
  209MOL0     C28716   2.214   1.503   6.579 -0.1608  0.5684 -0.4611
  209MOL0     C28717   2.262   1.610   6.677 -0.4759  0.1856 -0.1747
  209MOL0     C28718   2.240   1.757   6.630  0.6235  0.1473 -0.6454
  209MOL0     C28719   2.268   1.794   6.483  0.2718 -0.2658  0.5539
  209MOL0     C28720   2.206   1.928   6.433 -0.6836  0.2498 -0.1066
  209MOL0     N28721   2.266   2.044   6.503 -0.9098 -0.0856  0.2413
  209MOL0     C28722   2.224   2.092   6.631 -0.5403 -0.0196  1.2800
  209MOL0     C28723   2.282   2.217   6.636  0.9654 -0.5628  0.2713
  209MOL0     C28724   2.291   2.315   6.749  0.0350 -0.5326  0.1724
  209MOL0     C28725   2.162   2.323   6.828 -0.1306 -0.1950 -0.0188
  209MOL0     C28726   2.046   2.369   6.729 -0.5610  0.4326 -0.5104
  209MOL0     C28727   1.936   2.425   6.815 -0.1601 -0.8462  0.2110
  209MOL0     O28728   1.972   2.554   6.876 -0.3827 -0.3832  0.0730
  209MOL0     C28729   1.874   2.616   6.944 -0.6786 -0.3778  0.4630
  209MOL0     C28730   1.756   2.639   6.890  0.8582  0.3441 -0.1666
  209MOL0     C28731   1.655   2.724   6.960 -0.2921 -0.2700  0.4148
  209MOL0     C28732   1.526   2.762   6.887  0.2589  0.6872  0.8491
  209MOL0     C28733   1.696   2.787   7.085 -0.5330  1.1279 -0.1173
  209MOL0     C28734   1.607   2.862   7.179 -0.5563  0.3494  0.6769
  209MOL0     O28735   1.653   2.867   7.314  0.8438 -0.2165  0.6602
  209MOL0     C28736   1.585   2.935   7.402  0.5091 -0.4590  0.7242
  209MOL0     C28737   1.479   2.885   7.477 -0.8111  0.2271  0.2582
  209MOL0     C28738   1.419   2.965   7.578  0.0733  0.7178 -0.4424
  209MOL0     C28739   1.436   3.100   7.582  0.1296 -0.0741  0.1871
  209MOL0     O28740   1.361   3.191   7.651  0.3004  0.3505 -0.6582
  209MOL0     C28741   1.300   3.151   7.780 -0.1265  0.6915 -0.1401
  209MOL0     C28742   1.257   3.272   7.866  1.0893  0.2540 -0.2727
  209MOL0     C28743   1.385   3.335   7.913  0.3582  0.5022 -0.6853
  209MOL0     C28744   1.355   3.448   8.011 -0.4571  0.2076 -0.1777
  209MOL0     C28745   1.491   3.507   8.057  0.2909  0.6931  0.1938
  209MOL0     C28746   1.463   3.577   8.192 -0.9995 -0.4785  0.0620
  209MOL0     C28747   1.575   3.558   8.299 -1.0347 -0.6923  0.5381
  209MOL0     C28748   1.687   3.661   8.263  0.2212  0.3625 -0.3603
  209MOL0    Cl28749   1.626   3.812   8.308 -0.5330  0.1850  0.2276
  209MOL0     C28750   1.526   3.157   7.491 -0.4289  0.2123 -0.8784
  209MOL0     C28751   1.608   3.074   7.409 -0.2719 -0.2430  0.5910
  209MOL0     O28752   1.507   2.927   7.141 -0.4063 -0.1066  0.0961
  209MOL0     C28753   1.835   2.778   7.118  0.1862 -0.0034 -1.1472
  209MOL0     C28754   1.917   2.683   7.058 -0.5833  0.6931 -0.2012
  209MOL0     N28755   2.368   2.233   6.518 -0.6892  0.1826  0.2329
  209MOL0     N28756   2.363   2.123   6.440  0.3611 -0.1673  0.7649
  209MOL0     C28757   1.573   1.684   6.557 -0.1694  0.1739 -0.9817
  209MOL0     C28758   1.462   1.749   6.504 -1.2060 -0.5146  0.5002
  209MOL0     C28759   1.210   2.092   6.358 -0.4047 -0.1579  1.6282
  209MOL0     C28760   1.135   2.135   6.467  0.3240 -0.9900 -0.4146
  209MOL0     C28761   1.005   2.179   6.456  0.7197  0.8791 -0.5847
  209MOL0     C28762   0.949   2.187   6.325 -0.8217  0.0986  0.0532
  209MOL0     O28763   0.817   2.215   6.320  0.8204  0.1119  0.2696
  209MOL0     C28764   0.756   2.236   6.176 -1.0837  1.1423 -0.3065
  209MOL0     C28765   0.609   2.244   6.172 -0.2466  0.2581  0.8241
  209MOL0     C28766   0.554   2.255   6.034 -0.5041 -0.3765 -0.1500
  209MOL0     C28767   0.429   2.160   6.013  0.0145  0.5613 -0.7240
  209MOL0     C28768   0.374   2.185   5.878  0.3343 -1.2248  0.2648
  209MOL0     C28769   0.322   2.179   5.764 -0.0012  0.2621  0.5255
  209MOL0     C28770   1.030   2.160   6.209 -0.1625  0.0725 -0.4829
  209MOL0     C28771   1.153   2.097   6.227 -0.1200  0.0232  0.7899
  209MOL0     C28772   1.215   2.034   6.102 -0.6452  0.9889 -0.2081
  209MOL0     H28773   1.605   1.827   6.192  4.1518  1.4227  0.2448
  209MOL0     H28774   1.799   1.756   6.330 -0.6535  1.3828  0.0139
  209MOL0     H28775   1.810   1.445   6.558 -2.9868  1.5828 -1.3567
  209MOL0     H28776   1.759   1.521   6.709  1.0594  2.1056  1.0810
  209MOL0     H28777   1.998   1.577   6.763 -0.6762 -0.7371  0.9494
  209MOL0     H28778   1.969   1.415   6.718  3.5752 -0.8553 -2.4919
  209MOL0     H28779   2.049   1.436   6.487 -1.1490 -0.4710 -1.2423
  209MOL0     H28780   2.043   1.611   6.492 -1.9237 -2.3046 -0.3623
  209MOL0     H28781   2.229   1.401   6.617  1.0769  1.1567  0.7597
  209MOL0     H28782   2.275   1.498   6.489  2.0690  0.1174  0.9803
  209MOL0     H28783   2.371   1.604   6.687 -0.3124  0.0464 -1.7341
  209MOL0     H28784   2.221   1.594   6.777  0.5214  1.4216  0.4635
  209MOL0     H28785   2.137   1.787   6.651  0.0146 -2.5579  0.5517
  209MOL0     H28786   2.294   1.818   6.703 -1.9132  0.5655  0.9859
  209MOL0     H28787   2.232   1.711   6.421  0.6385 -0.7558  0.9806
  209MOL0     H28788   2.376   1.790   6.466  0.1122 -1.5657 -0.2819
  209MOL0     H28789   2.248   1.940   6.332 -0.7659  0.5570 -0.1048
  209MOL0     H28790   2.097   1.940   6.435 -0.5174  2.6649 -1.1839
  209MOL0     H28791   2.175   2.039   6.713  2.1122  0.0521  3.0406
  209MOL0     H28792   2.300   2.411   6.696  0.6386 -0.2360  0.8085
  209MOL0     H28793   2.385   2.320   6.804 -0.3171  1.6424  0.6705
  209MOL0     H28794   2.141   2.229   6.879 -1.5039  0.8607  1.5143
  209MOL0     H28795   2.177   2.397   6.908 -1.3124 -0.0905  0.1343
  209MOL0     H28796   2.079   2.453   6.667 -0.0985 -0.2791 -1.2516
  209MOL0     H28797   2.015   2.290   6.660 -0.2593 -1.4849  1.4363
  209MOL0     H28798   1.843   2.428   6.758 -0.0411 -0.1520  0.0445
  209MOL0     H28799   1.923   2.357   6.900 -2.2450 -2.1688 -1.0705
  209MOL0     H28800   1.741   2.596   6.792  3.1677 -2.4324  0.5784
  209MOL0     H28801   1.532   2.872   6.888  4.4909  0.6809 -1.6044
  209MOL0     H28802   1.436   2.744   6.947  0.2042  0.7554  0.7894
  209MOL0     H28803   1.522   2.715   6.788 -0.4132 -0.5856  1.4607
  209MOL0     H28804   1.470   2.777   7.482  3.6571 -0.3355  0.5012
  209MOL0     H28805   1.337   2.926   7.637  0.4295 -2.8778 -2.0198
  209MOL0     H28806   1.212   3.090   7.758  0.9684 -0.1601 -2.5831
  209MOL0     H28807   1.367   3.078   7.826 -2.1693 -1.5010 -0.4344
  209MOL0     H28808   1.203   3.341   7.800 -0.5759  0.9192  1.6789
  209MOL0     H28809   1.191   3.243   7.949  1.5280  4.5307  1.7942
  209MOL0     H28810   1.429   3.377   7.822  1.4724 -0.5838 -0.6585
  209MOL0     H28811   1.434   3.249   7.958 -2.4412 -1.7244 -1.5739
  209MOL0     H28812   1.295   3.399   8.088  0.4022  0.5599  0.7327
  209MOL0     H28813   1.282   3.515   7.966 -1.4715 -0.0377  1.0629
  209MOL0     H28814   1.572   3.435   8.049  0.9061  1.3455  0.4464
  209MOL0     H28815   1.521   3.580   7.981  0.6023  1.1997  0.7921
  209MOL0     H28816   1.378   3.518   8.229 -0.4652 -0.4842  1.3255
  209MOL0     H28817   1.431   3.681   8.184 -0.3322  0.0814  3.4091
  209MOL0     H28818   1.619   3.458   8.299 -0.5072 -0.4621  1.2043
  209MOL0     H28819   1.540   3.573   8.401  1.0103  0.1204  1.1669
  209MOL0     H28820   1.707   3.675   8.156  1.8681 -0.2348 -0.1601
  209MOL0     H28821   1.782   3.639   8.312 -0.3031  0.8980  0.9239
  209MOL0     H28822   1.528   3.264   7.475 -1.5462  0.5294  0.8352
  209MOL0     H28823   1.660   3.120   7.326  0.4238 -0.4335  0.9119
  209MOL0     H28824   1.860   2.837   7.206 -0.6262 -0.0684 -0.8580
  209MOL0     H28825   2.017   2.665   7.095  0.2214  3.6062 -0.6588
  209MOL0     H28826   1.561   1.645   6.658 -2.9649  3.6785  0.2775
  209MOL0     H28827   1.373   1.744   6.566 -3.6360 -1.5384 -2.7927
  209MOL0     H28828   1.184   2.130   6.563  2.9589  1.4306 -1.4813
  209MOL0     H28829   0.931   2.195   6.534  0.6154  0.6230 -0.6300
  209MOL0     H28830   0.807   2.325   6.138 -1.0775  1.7766  1.1119
  209MOL0     H28831   0.788   2.152   6.114 -1.8089  2.9763 -3.3967
  209MOL0     H28832   0.554   2.314   6.236 -1.7938  1.2381 -1.4727
  209MOL0     H28833   0.578   2.145   6.208  1.5020 -1.3957 -1.8976
  209MOL0     H28834   0.530   2.361   6.026  0.6726 -0.0057  0.9893
  209MOL0     H28835   0.630   2.235   5.958  0.0024 -0.3334  0.3363
  209MOL0     H28836   0.346   2.200   6.072 -2.5930  0.2120 -3.8463
  209MOL0     H28837   0.451   2.053   6.022 -1.7488  0.3449  2.4852
  209MOL0     H28838   0.273   2.165   5.669 -1.1013  0.6299  1.0138
  209MOL0     H28839   0.997   2.156   6.105  1.4381 -6.2192 -1.1517
  209MOL0     H28840   1.181   2.086   6.012 -0.1911  1.7399  0.0487
  209MOL0     H28841   1.324   2.040   6.104 -0.4553 -0.0236 -2.9077
  209MOL0     H28842   1.182   1.932   6.081  1.7109  0.3384 -1.1159
  210MOL0     O28843   3.897   3.950   0.521  0.5649  0.4344 -0.2248
  210MOL0     C28844   3.802   3.954   0.595  0.1208  0.1863  0.1749
  210MOL0     O28845   3.686   4.016   0.567 -0.2683  0.4586  0.5963
  210MOL0     C28846   3.690   4.089   0.448 -0.1950 -1.4402 -1.0181
  210MOL0     C28847   3.753   4.219   0.453 -0.0566 -0.3197  0.0843
  210MOL0     C28848   3.762   4.297   0.335 -0.0414  0.6444 -1.0189
  210MOL0     C28849   3.688   4.255   0.225  0.1329 -0.1752 -0.1703
  210MOL0     O28850   3.686   4.329   0.116  0.6349  0.9454 -0.1146
  210MOL0     C28851   3.657   4.473   0.113  0.0795  0.4635 -0.6718
  210MOL0     C28852   3.520   4.502   0.161 -0.0506  0.7444 -0.6825
  210MOL0     C28853   3.409   4.436   0.081  0.3123  0.0050 -0.5474
  210MOL0     C28854   3.391   4.511  -0.054 -0.8380 -0.6866  0.1255
  210MOL0     C28855   3.289   4.430  -0.140  0.6087 -0.3793 -0.6154
  210MOL0     C28856   3.243   4.515  -0.260  0.1429  0.3569  0.9271
  210MOL0     C28857   3.122   4.458  -0.343  0.5802 -0.1999  1.1731
  210MOL0     C28858   3.103   4.310  -0.374  0.3156  0.9152 -1.0202
  210MOL0     N28859   3.175   4.243  -0.484 -0.2883 -1.4954  0.4738
  210MOL0     C28860   3.302   4.290  -0.528 -0.3211 -0.4244  0.6231
  210MOL0     C28861   3.341   4.194  -0.618 -0.2013 -0.1880 -0.2609
  210MOL0     C28862   3.475   4.216  -0.691 -0.1658 -0.7330  0.2078
  210MOL0     C28863   3.510   4.088  -0.760  0.3022  0.7201 -0.2673
  210MOL0     C28864   3.657   4.078  -0.797  0.6147 -0.4477  0.1707
  210MOL0     C28865   3.749   4.039  -0.683 -0.2848 -0.2911  0.1893
  210MOL0     O28866   3.691   3.920  -0.620 -0.5149  1.3132 -0.4161
  210MOL0     C28867   3.749   3.809  -0.672 -1.1681  0.1384 -0.7216
  210MOL0     C28868   3.710   3.736  -0.779  0.0871  0.3877 -0.2445
  210MOL0     C28869   3.785   3.624  -0.830  0.5130  0.7087  0.3687
  210MOL0     C28870   3.738   3.572  -0.969 -0.1501  0.3869  0.0958
  210MOL0     C28871   3.891   3.568  -0.748  0.1729  0.6126  0.7749
  210MOL0     C28872   3.986   3.468  -0.801  0.2772 -0.1554 -0.1627
  210MOL0     O28873   4.046   3.390  -0.709 -0.4039  0.0554 -0.3114
  210MOL0     C28874   4.111   3.272  -0.746  0.2962  0.1031  0.4263
  210MOL0     C28875   4.031   3.180  -0.824  0.0675  1.2176 -0.6069
  210MOL0     C28876   4.096   3.059  -0.859 -1.3308  0.2243  0.4469
  210MOL0     C28877   4.222   3.019  -0.815  0.2904 -0.4174  0.2341
  210MOL0     O28878   4.272   2.894  -0.855 -0.2739  0.0914 -0.4336
  210MOL0     C28879   4.413   2.862  -0.836  0.9134 -0.4712  0.7358
  210MOL0     C28880   4.435   2.724  -0.912 -0.5894 -0.9487 -0.4009
  210MOL0     C28881   4.586   2.675  -0.897  0.6492 -0.3051 -0.1645
  210MOL0     C28882   4.632   2.562  -0.992  0.3707 -0.3981 -0.5180
  210MOL0     C28883   4.533   2.447  -1.023 -1.1312 -0.9870  0.6720
  210MOL0     C28884   4.594   2.308  -0.986 -0.7931  1.3004  0.5178
  210MOL0     C28885   4.490   2.202  -0.955  0.2028  1.0357  0.1528
  210MOL0     C28886   4.545   2.060  -0.960  0.4286  0.8495  0.2397
  210MOL0    Cl28887   4.585   2.022  -1.130 -0.1552  0.5029  0.0079
  210MOL0     C28888   4.299   3.112  -0.736 -0.2354 -0.3421 -0.0742
  210MOL0     C28889   4.233   3.237  -0.702 -0.5202  0.8481  0.0239
  210MOL0     O28890   3.994   3.459  -0.923  0.0218 -0.2563  0.0941
  210MOL0     C28891   3.919   3.632  -0.631  0.1884  0.1446 -0.1134
  210MOL0     C28892   3.849   3.746  -0.589  0.6395 -0.1751 -0.6117
  210MOL0     N28893   3.259   4.079  -0.613  1.1643 -0.6114 -0.9454
  210MOL0     N28894   3.163   4.113  -0.533  0.2109 -0.4186 -0.1397
  210MOL0     C28895   3.634   4.133   0.220 -0.5866  0.3471 -0.1442
  210MOL0     C28896   3.635   4.049   0.334  0.7071 -0.4944  0.2539
  210MOL0     C28897   3.817   3.920   0.741  0.9142  0.4419  1.2993
  210MOL0     C28898   3.737   3.993   0.829 -0.5807 -0.1182  0.6277
  210MOL0     C28899   3.748   3.975   0.967  0.8832 -0.3641  0.7437
  210MOL0     C28900   3.830   3.880   1.018 -0.0830 -0.2285  0.2308
  210MOL0     O28901   3.845   3.840   1.146  0.4155  0.1156 -1.3438
  210MOL0     C28902   3.982   3.809   1.195 -0.2526  0.6276  0.1375
  210MOL0     C28903   4.008   3.867   1.339 -1.1570  0.1335 -0.2972
  210MOL0     C28904   4.094   3.780   1.430  0.8338  0.0148 -0.0644
  210MOL0     C28905   4.127   3.856   1.566 -0.2836  0.5068 -0.7563
  210MOL0     C28906   4.195   3.770   1.645 -0.1798 -0.7079 -0.2348
  210MOL0     C28907   4.277   3.712   1.725  0.2105  0.3226 -0.3420
  210MOL0     C28908   3.908   3.802   0.926 -0.5887 -0.8245 -0.1731
  210MOL0     C28909   3.904   3.820   0.790 -1.4552 -0.1265 -0.0751
  210MOL0     C28910   3.991   3.727   0.698 -0.1248  0.3546  1.2839
  210MOL0     H28911   3.790   4.258   0.548  1.2147 -2.4357  0.5192
  210MOL0     H28912   3.804   4.397   0.338 -1.4253  1.2240 -0.1876
  210MOL0     H28913   3.670   4.522   0.016 -0.3277  0.7500 -0.5855
  210MOL0     H28914   3.720   4.531   0.181 -1.8683 -0.5354  2.1937
  210MOL0     H28915   3.508   4.474   0.266  2.6045  1.1152 -0.1972
  210MOL0     H28916   3.519   4.611   0.153  1.5942  0.9648  1.1368
  210MOL0     H28917   3.416   4.329   0.063 -1.8209  0.1084 -2.4660
  210MOL0     H28918   3.318   4.453   0.140  2.0331  0.5421  2.1361
  210MOL0     H28919   3.350   4.610  -0.032  3.2775  1.0255  1.0404
  210MOL0     H28920   3.482   4.507  -0.114 -0.5441 -0.2246  0.5320
  210MOL0     H28921   3.198   4.408  -0.084 -0.7819  5.9018  0.2740
  210MOL0     H28922   3.328   4.339  -0.187 -1.3380 -0.8607 -1.3789
  210MOL0     H28923   3.213   4.608  -0.210 -1.1432  0.0023  0.8547
  210MOL0     H28924   3.328   4.532  -0.327  1.3567  0.4140  2.4517
  210MOL0     H28925   3.113   4.508  -0.440  1.7341 -2.7343 -0.3625
  210MOL0     H28926   3.037   4.499  -0.289 -0.5658  3.2925 -2.7125
  210MOL0     H28927   3.120   4.264  -0.276 -2.6338  4.5162  1.4885
  210MOL0     H28928   2.996   4.296  -0.392  0.4060 -0.7210 -0.4026
  210MOL0     H28929   3.344   4.387  -0.502 -1.6210  0.7176 -1.2490
  210MOL0     H28930   3.544   4.242  -0.611  0.7586 -2.0478 -0.1236
  210MOL0     H28931   3.483   4.292  -0.769 -0.8364 -1.5302 -0.6638
  210MOL0     H28932   3.489   4.001  -0.696 -0.7455  1.1280 -0.0339
  210MOL0     H28933   3.449   4.068  -0.848  1.1855 -0.4140 -0.6555
  210MOL0     H28934   3.652   4.008  -0.880  2.1953 -1.7537  1.1247
  210MOL0     H28935   3.687   4.178  -0.830 -0.1144 -0.6101 -1.0248
  210MOL0     H28936   3.849   4.018  -0.720 -0.1503  1.1241 -0.2991
  210MOL0     H28937   3.752   4.119  -0.609 -0.0064 -0.3701  0.2626
  210MOL0     H28938   3.628   3.785  -0.831 -0.1022  0.9154  0.5452
  210MOL0     H28939   3.632   3.599  -0.982 -0.6423 -2.0889 -2.0682
  210MOL0     H28940   3.749   3.463  -0.971 -0.7433  0.3284 -0.2204
  210MOL0     H28941   3.809   3.613  -1.041  2.0986 -2.4816  0.5042
  210MOL0     H28942   3.929   3.208  -0.849 -1.6171 -1.9583  1.9447
  210MOL0     H28943   4.045   2.992  -0.927 -1.2319  1.4306 -0.8442
  210MOL0     H28944   4.482   2.934  -0.881 -0.0720  0.2134  0.2935
  210MOL0     H28945   4.432   2.846  -0.729  2.7975 -2.4457  0.1889
  210MOL0     H28946   4.363   2.656  -0.866  0.8145 -1.6595  0.8304
  210MOL0     H28947   4.409   2.732  -1.018  0.1383 -0.3449 -0.5391
  210MOL0     H28948   4.596   2.642  -0.793 -2.4213 -0.7271  0.0910
  210MOL0     H28949   4.647   2.764  -0.915  1.9734 -1.3787 -1.2451
  210MOL0     H28950   4.716   2.516  -0.940 -0.6257 -0.7611  0.8306
  210MOL0     H28951   4.670   2.608  -1.084  2.7378  2.4381  1.6775
  210MOL0     H28952   4.453   2.452  -0.949  1.0471 -0.9362  3.1807
  210MOL0     H28953   4.507   2.449  -1.129 -2.1149 -1.2656  0.8988
  210MOL0     H28954   4.660   2.317  -0.899 -0.2720 -1.8345  0.5384
  210MOL0     H28955   4.655   2.274  -1.069  0.4448  3.4534  0.4744
  210MOL0     H28956   4.403   2.209  -1.021  0.0143  2.5141  0.5255
  210MOL0     H28957   4.460   2.210  -0.850 -1.4278 -0.2724 -0.1733
  210MOL0     H28958   4.465   1.991  -0.930 -0.7350  1.7958 -0.5743
  210MOL0     H28959   4.636   2.033  -0.906 -0.4323 -0.4687  1.0924
  210MOL0     H28960   4.399   3.097  -0.695 -0.7866  2.6989  2.8338
  210MOL0     H28961   4.298   3.306  -0.649  0.0160 -0.3801  1.0235
  210MOL0     H28962   4.010   3.607  -0.578 -0.3547 -0.3576  0.5868
  210MOL0     H28963   3.883   3.800  -0.501 -1.9796  0.2952  0.2208
  210MOL0     H28964   3.587   4.089   0.133  0.7561  0.2129 -0.8335
  210MOL0     H28965   3.601   3.946   0.341 -1.6651  0.3476  3.8266
  210MOL0     H28966   3.654   4.057   0.802  0.4709  0.3327 -1.7942
  210MOL0     H28967   3.679   4.024   1.034 -0.5867 -0.9771 -0.2780
  210MOL0     H28968   3.982   3.699   1.196  0.2939  0.6156 -0.9078
  210MOL0     H28969   4.067   3.833   1.132 -0.2620 -5.1425 -2.7596
  210MOL0     H28970   3.912   3.885   1.389 -1.2459  0.6763 -0.6633
  210MOL0     H28971   4.070   3.956   1.332  2.9634 -1.8865  4.4552
  210MOL0     H28972   4.040   3.689   1.457  1.0502  0.2812  1.3480
  210MOL0     H28973   4.181   3.730   1.385 -0.2768 -1.5324 -0.5463
  210MOL0     H28974   4.044   3.884   1.631  0.9099 -0.3885  1.2361
  210MOL0     H28975   4.201   3.934   1.544  0.4812  0.0943  0.2606
  210MOL0     H28976   4.325   3.684   1.816 -3.6199  2.9524  2.8176
  210MOL0     H28977   3.988   3.731   0.942  1.3519  1.1827 -0.5027
  210MOL0     H28978   4.039   3.650   0.759  0.8835 -0.8606 -0.9327
  210MOL0     H28979   3.919   3.689   0.625  0.0883  0.7540  0.8631
  210MOL0     H28980   4.073   3.780   0.648 -0.3906 -0.5058 -0.1247
  211MOL0     O28981   2.465   0.118   1.328 -0.2083  0.4407  0.7804
  211MOL0     C28982   2.453   0.235   1.297  1.2082  0.2402 -0.3185
  211MOL0     O28983   2.408   0.274   1.171  0.0296  0.1425 -0.0864
  211MOL0     C28984   2.427   0.179   1.066 -0.0678 -0.2663  0.2191
  211MOL0     C28985   2.319   0.131   0.995  0.3764  0.5069  0.2663
  211MOL0     C28986   2.329   0.057   0.879 -0.2014  0.2197 -0.5547
  211MOL0     C28987   2.459   0.020   0.825 -0.6094  0.3689 -0.8030
  211MOL0     O28988   2.470  -0.043   0.703 -0.0953 -0.6461 -0.1651
  211MOL0     C28989   2.398   0.012   0.593 -0.5599  0.6942 -0.3317
  211MOL0     C28990   2.474  -0.023   0.456  0.6033  0.8161 -0.0448
  211MOL0     C28991   2.518  -0.173   0.427 -0.9140  0.5591 -0.4545
  211MOL0     C28992   2.399  -0.261   0.461 -1.5520  0.9913 -0.9833
  211MOL0     C28993   2.409  -0.382   0.382 -0.0659  0.7372 -1.0420
  211MOL0     C28994   2.314  -0.488   0.441 -0.4988  0.3210  0.2427
  211MOL0     C28995   2.343  -0.627   0.381  0.7798 -0.4255 -0.4983
  211MOL0     C28996   2.234  -0.731   0.402  0.2304 -0.4743  0.5263
  211MOL0     N28997   2.211  -0.766   0.540  1.0038  0.2020  0.8272
  211MOL0     C28998   2.210  -0.892   0.585 -0.3015  0.4367 -0.8420
  211MOL0     C28999   2.157  -0.883   0.715  0.7006 -0.2578 -0.4226
  211MOL0     C29000   2.134  -0.982   0.829 -1.5000 -0.0928  0.0833
  211MOL0     C29001   2.198  -1.125   0.801 -0.6539 -0.3064  0.8185
  211MOL0     C29002   2.211  -1.206   0.934  0.1234  0.2609  0.3733
  211MOL0     C29003   2.084  -1.284   0.980  0.4808  0.5101 -0.2052
  211MOL0     O29004   1.972  -1.210   0.998  0.1073  0.1767 -0.3847
  211MOL0     C29005   1.850  -1.273   0.997  0.1615 -0.5004 -0.5384
  211MOL0     C29006   1.831  -1.401   1.025 -0.1135  0.0394  0.8802
  211MOL0     C29007   1.705  -1.461   1.043 -0.5288 -0.1777  0.8325
  211MOL0     C29008   1.715  -1.610   1.064  0.3530 -0.3780 -0.5689
  211MOL0     C29009   1.586  -1.383   1.032 -1.0822 -0.7883 -0.6853
  211MOL0     C29010   1.454  -1.435   1.045  0.8068  0.5690 -0.4474
  211MOL0     O29011   1.355  -1.347   1.041  0.2651  0.4051  0.1073
  211MOL0     C29012   1.250  -1.372   1.130 -0.7426  0.0529 -0.7312
  211MOL0     C29013   1.137  -1.456   1.103 -0.0352  0.1238 -0.4208
  211MOL0     C29014   1.026  -1.435   1.185 -0.1737  1.1450 -0.1108
  211MOL0     C29015   1.037  -1.351   1.302  1.0037  0.8541 -0.5619
  211MOL0     O29016   0.924  -1.355   1.375  0.0621 -0.3970 -0.0385
  211MOL0     C29017   0.936  -1.308   1.511  0.0206 -0.4090  0.9435
  211MOL0     C29018   0.825  -1.369   1.602 -0.3544  0.4632 -0.3657
  211MOL0     C29019   0.707  -1.263   1.599  1.3304 -0.6138 -0.6751
  211MOL0     C29020   0.586  -1.322   1.652 -0.5068  0.0574  0.6165
  211MOL0     C29021   0.482  -1.217   1.710 -0.6203 -0.8023  0.3155
  211MOL0     C29022   0.380  -1.291   1.806  0.0853  0.5864 -1.3118
  211MOL0     C29023   0.299  -1.389   1.726 -0.3452  0.0152  0.6904
  211MOL0     C29024   0.161  -1.426   1.789  0.0157  0.5699  0.0332
  211MOL0    Cl29025   0.112  -1.574   1.689  0.0152  0.2632 -0.2466
  211MOL0     C29026   1.153  -1.285   1.328 -0.0970 -0.7137  0.3267
  211MOL0     C29027   1.258  -1.281   1.240  0.7369  0.4159  1.2149
  211MOL0     O29028   1.446  -1.549   1.085 -0.6734  0.2761  0.1149
  211MOL0     C29029   1.606  -1.247   1.003 -0.2390  0.1595 -0.6691
  211MOL0     C29030   1.734  -1.194   0.987 -0.6178 -0.3454  0.1359
  211MOL0     N29031   2.122  -0.752   0.740  0.0048 -0.4086 -0.7118
  211MOL0     N29032   2.156  -0.682   0.631 -0.4319  1.1083 -0.2186
  211MOL0     C29033   2.573   0.055   0.906  0.0785  0.1753 -0.1877
  211MOL0     C29034   2.551   0.128   1.027 -0.8326  0.5507  0.1233
  211MOL0     C29035   2.482   0.350   1.394 -0.0454  0.0838  0.3383
  211MOL0     C29036   2.390   0.452   1.413 -0.6155 -0.1210  0.2346
  211MOL0     C29037   2.401   0.541   1.523 -0.2838 -0.2436  0.2687
  211MOL0     C29038   2.508   0.533   1.604 -0.0695  0.4940  0.5730
  211MOL0     O29039   2.520   0.626   1.707 -0.6374  0.1315  0.3382
  211MOL0     C29040   2.508   0.561   1.836 -0.9358 -0.5132 -0.0607
  211MOL0     C29041   2.413   0.653   1.917 -0.6831  0.7014 -1.2426
  211MOL0     C29042   2.460   0.798   1.953 -0.1544  0.1466 -0.1442
  211MOL0     C29043   2.389   0.877   2.065 -0.1782  0.1309  0.6642
  211MOL0     C29044   2.251   0.906   2.040  0.1442 -0.1865 -0.1363
  211MOL0     C29045   2.136   0.925   2.010 -0.4382  0.1321 -0.2215
  211MOL0     C29046   2.619   0.443   1.582  0.3382 -0.5619  0.6949
  211MOL0     C29047   2.592   0.343   1.480  0.6163  0.7511 -0.0964
  211MOL0     C29048   2.700   0.243   1.458 -0.4027 -0.6268 -0.3862
  211MOL0     H29049   2.216   0.162   1.008 -0.5195 -2.3900  1.0105
  211MOL0     H29050   2.247   0.033   0.813  2.2943 -3.7685 -2.5996
  211MOL0     H29051   2.406   0.121   0.588 -1.9658  0.8573  0.3784
  211MOL0     H29052   2.293  -0.018   0.604  0.5850 -3.0969  2.0190
  211MOL0     H29053   2.414   0.004   0.368  0.6253 -3.2388 -1.5044
  211MOL0     H29054   2.561   0.043   0.453  1.6702 -0.5139  0.7134
  211MOL0     H29055   2.539  -0.174   0.320 -2.8068 -1.5111 -0.8749
  211MOL0     H29056   2.606  -0.198   0.486 -1.4845 -0.9179 -0.1965
  211MOL0     H29057   2.418  -0.279   0.567 -0.2380  1.5917 -1.0986
  211MOL0     H29058   2.307  -0.208   0.436 -2.8394 -1.4559 -1.7108
  211MOL0     H29059   2.510  -0.421   0.397 -1.0530 -1.5302  0.0961
  211MOL0     H29060   2.396  -0.372   0.274  1.6661 -1.7009 -1.5776
  211MOL0     H29061   2.319  -0.495   0.550 -0.7592  0.9594  0.2960
  211MOL0     H29062   2.213  -0.459   0.411 -0.5527  0.8949  0.9515
  211MOL0     H29063   2.445  -0.660   0.404  0.9958 -0.8988 -2.0006
  211MOL0     H29064   2.361  -0.605   0.275 -2.9255  0.0060 -1.1622
  211MOL0     H29065   2.137  -0.699   0.364 -0.0149  0.5570  1.9287
  211MOL0     H29066   2.253  -0.824   0.349 -0.0107 -0.8375  1.0690
  211MOL0     H29067   2.238  -0.979   0.526  2.7775  0.3506  0.5501
  211MOL0     H29068   2.028  -1.011   0.828 -1.0964 -1.7740 -2.0596
  211MOL0     H29069   2.172  -0.949   0.926  0.8153 -3.4738  0.5317
  211MOL0     H29070   2.133  -1.163   0.722  0.4869  2.3174 -1.5841
  211MOL0     H29071   2.300  -1.116   0.761 -2.1172  1.4773 -3.0883
  211MOL0     H29072   2.287  -1.283   0.916  0.3238  1.1359 -3.2545
  211MOL0     H29073   2.243  -1.140   1.014 -2.0185  0.6671  0.9413
  211MOL0     H29074   2.061  -1.358   0.903 -3.3811  0.0697  1.1535
  211MOL0     H29075   2.112  -1.346   1.066  0.9317 -2.7825 -2.5316
  211MOL0     H29076   1.919  -1.463   1.043  0.4430 -0.3104 -2.3169
  211MOL0     H29077   1.649  -1.653   0.988  1.3005  2.2939 -3.0790
  211MOL0     H29078   1.685  -1.627   1.168 -0.4765  1.5840 -0.4476
  211MOL0     H29079   1.819  -1.642   1.057  0.7043  0.1515  1.6020
  211MOL0     H29080   1.146  -1.532   1.026 -1.1417 -2.0099  1.4160
  211MOL0     H29081   0.941  -1.501   1.170  1.6494 -1.5587  0.6768
  211MOL0     H29082   1.032  -1.329   1.560 -0.0163  3.4991  3.0409
  211MOL0     H29083   0.929  -1.200   1.496 -0.5919 -0.5441  0.2427
  211MOL0     H29084   0.796  -1.469   1.568  0.5158 -0.8205  2.3517
  211MOL0     H29085   0.858  -1.378   1.706 -2.1045  2.3189  0.4042
  211MOL0     H29086   0.676  -1.225   1.501 -4.3769  0.7669  1.3101
  211MOL0     H29087   0.742  -1.177   1.657 -0.7352 -0.6629  0.7069
  211MOL0     H29088   0.622  -1.383   1.735  1.3087 -1.4159 -1.1857
  211MOL0     H29089   0.551  -1.373   1.562 -0.7701  0.2503  0.6072
  211MOL0     H29090   0.531  -1.142   1.772 -0.8548  0.0958 -0.5600
  211MOL0     H29091   0.422  -1.166   1.635 -0.8171 -0.8350  0.4505
  211MOL0     H29092   0.322  -1.213   1.856 -2.6059 -1.8864 -0.2061
  211MOL0     H29093   0.449  -1.343   1.874  1.0696 -4.9550 -5.8055
  211MOL0     H29094   0.362  -1.475   1.701 -1.1670 -0.2196 -0.6776
  211MOL0     H29095   0.279  -1.351   1.626 -3.1423 -1.1169  0.7329
  211MOL0     H29096   0.086  -1.346   1.792  2.1024  2.7192 -1.2179
  211MOL0     H29097   0.172  -1.446   1.896 -0.4080 -1.4002 -0.2656
  211MOL0     H29098   1.167  -1.223   1.416  1.0367  0.8295 -0.8898
  211MOL0     H29099   1.353  -1.228   1.245  3.0943 -2.9802 -2.2083
  211MOL0     H29100   1.518  -1.191   0.974 -1.9784 -0.7337  2.4701
  211MOL0     H29101   1.744  -1.087   0.971  0.5101 -0.7012 -1.8710
  211MOL0     H29102   2.666   0.011   0.872  0.3100  1.8148 -1.8277
  211MOL0     H29103   2.633   0.153   1.094 -0.2765 -2.5138  0.7478
  211MOL0     H29104   2.305   0.455   1.345 -2.0748  0.0565  2.0002
  211MOL0     H29105   2.326   0.618   1.538 -1.9833 -2.2291  2.7707
  211MOL0     H29106   2.465   0.460   1.833  1.1993 -1.4623 -0.8049
  211MOL0     H29107   2.607   0.546   1.881  0.0968  1.6702 -1.4001
  211MOL0     H29108   2.400   0.598   2.010 -3.7832  2.4509 -0.4731
  211MOL0     H29109   2.315   0.665   1.870 -1.1641 -3.0586 -1.4861
  211MOL0     H29110   2.568   0.804   1.965 -0.4624  4.5992  2.9940
  211MOL0     H29111   2.444   0.846   1.857  1.0888 -3.4828 -2.3827
  211MOL0     H29112   2.438   0.975   2.074 -0.2557  0.6499 -3.1801
  211MOL0     H29113   2.399   0.821   2.159 -1.0054  0.6286  1.0623
  211MOL0     H29114   2.035   0.949   1.984 -0.7469 -0.0292  0.7828
  211MOL0     H29115   2.706   0.437   1.646 -0.0648 -1.1990  1.1964
  211MOL0     H29116   2.666   0.151   1.507 -0.4234 -1.2024 -1.4678
  211MOL0     H29117   2.711   0.221   1.352 -1.2945 -0.7157 -0.4652
  211MOL0     H29118   2.797   0.272   1.500 -0.2787 -1.2622 -0.2244
  212MOL0     O29119   4.536   6.833   4.327  0.2775  0.3243 -0.1601
  212MOL0     C29120   4.619   6.922   4.351 -0.5983 -0.6827  1.6840
  212MOL0     O29121   4.586   7.051   4.376  0.0167 -0.6587 -0.1284
  212MOL0     C29122   4.463   7.097   4.340 -0.2122  1.0618 -0.7375
  212MOL0     C29123   4.366   7.078   4.434  1.2702 -0.3179 -0.4123
  212MOL0     C29124   4.228   7.102   4.404 -0.1309  0.0833 -0.5131
  212MOL0     C29125   4.197   7.167   4.289  0.4771 -0.6198 -0.2657
  212MOL0     O29126   4.070   7.214   4.249  0.4231  0.4588  0.0107
  212MOL0     C29127   3.949   7.155   4.308 -0.3889 -0.8054 -0.7800
  212MOL0     C29128   3.824   7.190   4.218 -0.2493  0.6735  0.8636
  212MOL0     C29129   3.838   7.133   4.072 -0.0411 -0.9173 -0.0240
  212MOL0     C29130   3.728   7.202   3.986  0.1063  0.9944 -0.8074
  212MOL0     C29131   3.753   7.351   3.946 -0.1142 -0.0056  0.8365
  212MOL0     C29132   3.896   7.394   3.901 -0.0676  0.3443  0.2633
  212MOL0     C29133   3.887   7.524   3.819  0.1526 -0.4831 -0.0504
  212MOL0     C29134   4.022   7.585   3.814  0.1085  0.3037  0.8670
  212MOL0     N29135   4.056   7.644   3.943 -0.7322 -0.2901 -1.0782
  212MOL0     C29136   4.171   7.594   4.005  0.9746  0.0078  0.9811
  212MOL0     C29137   4.161   7.635   4.129 -0.5145 -0.5617 -0.0566
  212MOL0     C29138   4.268   7.598   4.235 -0.3527  0.4990  0.2850
  212MOL0     C29139   4.239   7.505   4.353  0.5656 -0.1168 -0.4116
  212MOL0     C29140   4.194   7.590   4.476 -0.6943  0.3358  0.6660
  212MOL0     C29141   4.106   7.527   4.585  0.0502  0.5826 -0.1620
  212MOL0     O29142   4.169   7.431   4.663  0.3203  0.1456  0.4225
  212MOL0     C29143   4.294   7.450   4.706 -0.1205  0.8022 -0.0167
  212MOL0     C29144   4.396   7.357   4.688 -0.4200 -0.8234 -0.2114
  212MOL0     C29145   4.523   7.378   4.745 -0.1970 -0.6840  1.2198
  212MOL0     C29146   4.632   7.279   4.720  0.5096  0.4497 -0.2668
  212MOL0     C29147   4.551   7.493   4.824  1.0078 -0.6126 -0.5023
  212MOL0     C29148   4.682   7.523   4.887  0.8678 -0.8630 -0.2592
  212MOL0     O29149   4.758   7.417   4.921 -0.0867  0.1197 -1.0024
  212MOL0     C29150   4.877   7.437   4.988 -0.0255  0.0632 -0.5348
  212MOL0     C29151   4.890   7.490   5.114 -0.0457 -0.5580  0.3176
  212MOL0     C29152   5.010   7.491   5.181 -0.2359 -0.8004  0.0782
  212MOL0     C29153   5.121   7.431   5.126 -0.3743  0.1989 -0.8309
  212MOL0     O29154   5.243   7.446   5.188 -0.8184 -0.5265 -0.0781
  212MOL0     C29155   5.338   7.537   5.123  0.5710  0.3138  0.9226
  212MOL0     C29156   5.477   7.509   5.189  0.4929  0.2390 -0.4729
  212MOL0     C29157   5.592   7.611   5.143 -0.3762 -0.4847  0.3449
  212MOL0     C29158   5.590   7.720   5.243 -0.0557  0.6042  0.1925
  212MOL0     C29159   5.696   7.830   5.218  0.2956  0.0492 -1.0111
  212MOL0     C29160   5.660   7.969   5.267 -0.2965 -0.5097  0.6875
  212MOL0     C29161   5.779   8.068   5.277 -0.4736 -0.8522  0.0678
  212MOL0     C29162   5.747   8.196   5.353 -0.1312  0.2592 -0.2619
  212MOL0    Cl29163   5.885   8.301   5.317 -0.3434 -0.4614  1.2035
  212MOL0     C29164   5.101   7.360   5.008 -0.3302 -0.3770 -0.5630
  212MOL0     C29165   4.984   7.359   4.940  0.5327 -0.2015 -0.2240
  212MOL0     O29166   4.701   7.643   4.907 -0.7195  0.0820  0.0919
  212MOL0     C29167   4.438   7.582   4.848 -0.1920 -0.1115  0.1747
  212MOL0     C29168   4.317   7.554   4.791  0.7424  0.1972 -0.2846
  212MOL0     N29169   4.056   7.721   4.145  0.3756 -0.5910  0.1999
  212MOL0     N29170   3.999   7.734   4.026 -0.5575 -0.7090  0.1066
  212MOL0     C29171   4.298   7.202   4.202  0.7323  0.2213  0.3087
  212MOL0     C29172   4.425   7.154   4.217 -0.3071  0.6989  0.4673
  212MOL0     C29173   4.756   6.896   4.338 -0.6516  0.7221 -0.5107
  212MOL0     C29174   4.844   6.977   4.254  0.1086 -0.7002  0.4209
  212MOL0     C29175   4.980   6.957   4.228  0.0650  0.9028  0.7983
  212MOL0     C29176   5.037   6.835   4.270  0.9524 -0.6937 -0.7050
  212MOL0     O29177   5.167   6.806   4.230  0.1024 -0.4118  0.4008
  212MOL0     C29178   5.205   6.672   4.207 -1.2218 -0.1917 -0.2266
  212MOL0     C29179   5.332   6.682   4.118 -0.2680  0.1718 -0.1132
  212MOL0     C29180   5.451   6.746   4.192  0.3032  0.0614 -0.4944
  212MOL0     C29181   5.555   6.774   4.088  0.0707 -0.7765  0.6061
  212MOL0     C29182   5.531   6.905   4.030  0.5743 -0.6635  0.2039
  212MOL0     C29183   5.493   7.001   3.963 -0.2255  0.2380 -0.2821
  212MOL0     C29184   4.957   6.763   4.360 -0.7839  1.5198  0.1867
  212MOL0     C29185   4.823   6.777   4.389  0.9025  0.0459 -0.6027
  212MOL0     C29186   4.771   6.676   4.488 -0.0955  0.0643  0.4122
  212MOL0     H29187   4.389   7.035   4.531  0.2653 -0.5041 -0.2408
  212MOL0     H29188   4.154   7.083   4.481 -1.3589  0.9227 -1.4507
  212MOL0     H29189   3.951   7.185   4.413  0.0248  0.3932 -1.1093
  212MOL0     H29190   3.963   7.047   4.307 -3.0416 -1.2386  0.1528
  212MOL0     H29191   3.733   7.143   4.257  1.0931 -0.5486  2.6879
  212MOL0     H29192   3.806   7.298   4.217  0.3457  0.7919  1.7109
  212MOL0     H29193   3.934   7.155   4.025 -0.3690  1.7710  0.4099
  212MOL0     H29194   3.821   7.025   4.069 -4.2677 -0.5418  2.4069
  212MOL0     H29195   3.720   7.142   3.895 -0.8336 -3.1152  1.7621
  212MOL0     H29196   3.634   7.196   4.041  0.8524  0.7447  0.4774
  212MOL0     H29197   3.739   7.412   4.036  1.8483  0.5340  0.8087
  212MOL0     H29198   3.682   7.362   3.864 -0.5099  2.7872  1.4488
  212MOL0     H29199   3.968   7.414   3.980  0.2381  2.0132 -0.3873
  212MOL0     H29200   3.925   7.316   3.830  1.0030  1.1764 -0.2438
  212MOL0     H29201   3.818   7.597   3.861  0.9927 -0.0832  0.6693
  212MOL0     H29202   3.835   7.499   3.726 -4.6881  0.0987  2.1684
  212MOL0     H29203   4.102   7.516   3.785 -1.6509 -0.9538 -1.2731
  212MOL0     H29204   4.026   7.663   3.737  0.6517  0.7784  1.3613
  212MOL0     H29205   4.249   7.529   3.967  1.5641  1.0290  0.3897
  212MOL0     H29206   4.310   7.687   4.283  0.4844  1.1505 -1.5611
  212MOL0     H29207   4.353   7.555   4.181 -1.9788 -2.3461 -0.2137
  212MOL0     H29208   4.159   7.433   4.335 -0.9490  0.9141  1.7363
  212MOL0     H29209   4.320   7.449   4.402 -2.7585 -4.5821  0.5340
  212MOL0     H29210   4.289   7.618   4.522 -0.3841 -0.1040  0.2866
  212MOL0     H29211   4.127   7.671   4.444 -0.7082  0.1435  0.2122
  212MOL0     H29212   4.065   7.597   4.659  0.2093 -0.0409  0.5285
  212MOL0     H29213   4.022   7.478   4.535  2.1253 -2.6266 -0.8192
  212MOL0     H29214   4.369   7.278   4.618 -3.1577  1.5533 -2.0715
  212MOL0     H29215   4.590   7.205   4.650 -0.1041  2.2678 -1.9071
  212MOL0     H29216   4.649   7.219   4.810 -0.3542 -0.6900 -0.8263
  212MOL0     H29217   4.715   7.328   4.669  0.8950 -0.0342 -0.1071
  212MOL0     H29218   4.800   7.533   5.159  2.3701  2.2946  2.8764
  212MOL0     H29219   5.016   7.537   5.279 -1.6139 -0.2123 -0.0894
  212MOL0     H29220   5.329   7.507   5.018  3.3897 -2.1862  1.2579
  212MOL0     H29221   5.324   7.646   5.129  5.3614  1.3949 -2.0681
  212MOL0     H29222   5.452   7.499   5.295 -2.1929 -2.5802 -1.2219
  212MOL0     H29223   5.515   7.412   5.155  0.1292  1.1587 -3.8615
  212MOL0     H29224   5.562   7.643   5.043 -1.3123 -3.9154 -0.6135
  212MOL0     H29225   5.690   7.563   5.138 -0.6548 -1.1236  0.7605
  212MOL0     H29226   5.621   7.673   5.336  1.0098 -1.3376 -1.0844
  212MOL0     H29227   5.491   7.765   5.255  0.3583  1.4720  0.4658
  212MOL0     H29228   5.789   7.793   5.261 -0.6910 -2.4639 -0.8543
  212MOL0     H29229   5.724   7.837   5.113  3.0651 -0.1661 -0.3539
  212MOL0     H29230   5.611   7.956   5.364  0.0405 -3.0161  0.6023
  212MOL0     H29231   5.569   7.996   5.214  0.7493 -1.4951 -1.7789
  212MOL0     H29232   5.825   8.081   5.179 -1.2367 -1.5635 -0.4038
  212MOL0     H29233   5.859   8.023   5.336 -0.5891  0.2876  1.1136
  212MOL0     H29234   5.744   8.178   5.461  0.9556 -1.4793 -0.4747
  212MOL0     H29235   5.651   8.239   5.323 -0.4803 -2.6581 -4.0155
  212MOL0     H29236   5.186   7.301   4.973  0.3022  0.3535 -0.2998
  212MOL0     H29237   4.972   7.300   4.850  0.5399 -0.9928  0.2737
  212MOL0     H29238   4.441   7.677   4.899  1.5064  0.3701 -0.7354
  212MOL0     H29239   4.237   7.624   4.812 -0.2376 -0.9348 -0.0957
  212MOL0     H29240   4.270   7.278   4.130  1.3326  2.5265  2.3399
  212MOL0     H29241   4.491   7.173   4.133 -4.5129  0.5098 -3.1720
  212MOL0     H29242   4.806   7.070   4.213  1.5115  0.4319  1.5657
  212MOL0     H29243   5.036   7.022   4.162 -0.6344  3.0357  2.2187
  212MOL0     H29244   5.223   6.612   4.296 -0.1009 -0.6301 -0.7358
  212MOL0     H29245   5.120   6.634   4.149 -2.4050  0.7957  0.7840
  212MOL0     H29246   5.308   6.730   4.022  1.7900  1.5656  0.0084
  212MOL0     H29247   5.364   6.580   4.093 -0.4264 -0.2975  1.5266
  212MOL0     H29248   5.434   6.833   4.256  2.0258 -0.3529  0.5700
  212MOL0     H29249   5.489   6.673   4.263 -0.3688 -1.3193 -1.5233
  212MOL0     H29250   5.553   6.710   3.999 -0.6191  0.3055 -0.1977
  212MOL0     H29251   5.651   6.778   4.138 -0.3390  0.4483  1.3354
  212MOL0     H29252   5.446   7.076   3.902 -4.1213 -0.0126  2.1445
  212MOL0     H29253   5.007   6.675   4.401  0.1688 -0.3623 -4.3755
  212MOL0     H29254   4.830   6.659   4.579  4.5660  0.2404 -2.2501
  212MOL0     H29255   4.675   6.714   4.525 -0.7726 -1.5154  0.3271
  212MOL0     H29256   4.761   6.580   4.437 -1.8855  0.4944 -0.1304
  213MOL0     O29257   4.020   9.312   0.553 -0.7178 -0.8666 -0.5599
  213MOL0     C29258   3.904   9.291   0.578  0.3062  0.4876 -0.7710
  213MOL0     O29259   3.797   9.334   0.503  0.2138 -0.2905 -0.1541
  213MOL0     C29260   3.830   9.361   0.374 -0.7814  0.4109  0.2784
  213MOL0     C29261   3.814   9.492   0.328  0.6553  0.0544  0.4307
  213MOL0     C29262   3.864   9.541   0.202  0.5033 -0.1885 -1.1580
  213MOL0     C29263   3.910   9.445   0.109  0.7882  0.3999 -0.4703
  213MOL0     O29264   3.946   9.487  -0.017  0.2148 -0.8983  0.0990
  213MOL0     C29265   3.962   9.395  -0.123  0.7546  0.1871  0.7892
  213MOL0     C29266   4.012   9.476  -0.241 -0.2033 -0.1798  0.3297
  213MOL0     C29267   3.909   9.582  -0.293  0.3536  0.2018 -0.8368
  213MOL0     C29268   3.933   9.606  -0.441 -0.6684 -0.0005 -0.2733
  213MOL0     C29269   3.841   9.709  -0.509  0.7287 -0.7760 -0.9948
  213MOL0     C29270   3.869   9.721  -0.660  1.2348 -0.3724 -0.1184
  213MOL0     C29271   3.796   9.845  -0.732 -0.4113  0.7638  0.6601
  213MOL0     C29272   3.844   9.980  -0.693 -0.6861 -0.1292  1.2521
  213MOL0     N29273   3.986  10.015  -0.740  0.5659  0.0440  0.4444
  213MOL0     C29274   4.023  10.133  -0.801  0.3191  0.1392  0.4443
  213MOL0     C29275   4.162  10.117  -0.813 -0.8609 -0.1480 -0.4411
  213MOL0     C29276   4.259  10.214  -0.879  0.8868  0.3831 -0.9823
  213MOL0     C29277   4.377  10.152  -0.951 -1.3134  0.1111  0.6372
  213MOL0     C29278   4.340  10.063  -1.071  0.3245  0.6738  0.3062
  213MOL0     C29279   4.450   9.970  -1.123  1.2262 -1.1383 -0.5647
  213MOL0     O29280   4.462   9.863  -1.028  0.4534 -0.0816  0.6478
  213MOL0     C29281   4.567   9.779  -1.045  0.1453 -0.2333 -0.2758
  213MOL0     C29282   4.625   9.740  -1.165  0.3108 -0.2657 -0.0185
  213MOL0     C29283   4.730   9.642  -1.182 -0.2133  0.2388  0.2834
  213MOL0     C29284   4.790   9.623  -1.318 -0.8383 -0.5838  0.1280
  213MOL0     C29285   4.783   9.591  -1.065 -0.8099 -0.1025  0.1269
  213MOL0     C29286   4.895   9.491  -1.081  0.7642 -1.2971 -0.1498
  213MOL0     O29287   4.850   9.369  -1.104 -0.3469 -0.0836 -0.0262
  213MOL0     C29288   4.920   9.261  -1.152  1.2360  0.0681  0.4649
  213MOL0     C29289   4.854   9.141  -1.145 -0.0059 -0.2401  1.4599
  213MOL0     C29290   4.904   9.024  -1.212 -1.0621 -0.8320  0.5988
  213MOL0     C29291   5.017   9.027  -1.294 -0.5570  0.3975  1.4761
  213MOL0     O29292   5.064   8.907  -1.342 -0.1696 -0.2999  0.6033
  213MOL0     C29293   5.155   8.900  -1.450  0.6120 -0.2790 -0.2177
  213MOL0     C29294   5.133   8.766  -1.519 -0.6115 -0.2265 -0.4832
  213MOL0     C29295   5.231   8.752  -1.638  0.1946 -0.2253  0.9192
  213MOL0     C29296   5.239   8.861  -1.738 -0.9829 -0.7608  0.8839
  213MOL0     C29297   5.331   8.811  -1.852  0.4873  0.6950 -0.3458
  213MOL0     C29298   5.310   8.900  -1.972 -0.0839  0.8323 -0.1230
  213MOL0     C29299   5.422   8.905  -2.070 -0.5361  0.1059 -0.3847
  213MOL0     C29300   5.542   8.988  -2.025 -0.2103 -0.3881 -0.8686
  213MOL0    Cl29301   5.507   9.158  -1.953 -0.6562 -0.1423  0.1804
  213MOL0     C29302   5.085   9.153  -1.294 -0.3509 -1.3363  0.9763
  213MOL0     C29303   5.030   9.268  -1.231  0.1543 -0.6966  0.9318
  213MOL0     O29304   5.006   9.525  -1.057 -0.4514  0.2091 -0.3466
  213MOL0     C29305   4.736   9.637  -0.940  0.4059  0.3875  0.4493
  213MOL0     C29306   4.623   9.720  -0.927 -0.4147 -0.0516  0.6181
  213MOL0     N29307   4.197   9.994  -0.767 -0.1382 -0.1382 -0.1828
  213MOL0     N29308   4.099   9.940  -0.715  0.5228  0.0537 -0.0822
  213MOL0     C29309   3.917   9.315   0.152 -0.5873 -0.4063 -0.2324
  213MOL0     C29310   3.891   9.276   0.281 -0.5567 -0.5907 -0.5787
  213MOL0     C29311   3.891   9.234   0.715  0.1314 -0.7194  0.4869
  213MOL0     C29312   3.752   9.237   0.764 -0.7723  0.2290  0.3590
  213MOL0     C29313   3.736   9.195   0.894  0.2054 -0.5018 -0.7445
  213MOL0     C29314   3.832   9.148   0.983 -0.0477  0.1412 -0.7278
  213MOL0     O29315   3.803   9.098   1.108 -0.5134  0.0316  0.7150
  213MOL0     C29316   3.897   9.112   1.207  0.6920  0.5292  0.1025
  213MOL0     C29317   3.825   9.117   1.342  0.2160 -0.2758 -0.1321
  213MOL0     C29318   3.924   9.066   1.458  0.6639 -1.2833 -0.5340
  213MOL0     C29319   3.863   9.109   1.596  0.6147  0.2789 -0.4603
  213MOL0     C29320   3.832   9.250   1.606 -0.3025 -0.4050 -0.2054
  213MOL0     C29321   3.805   9.368   1.608 -0.6445 -0.4747  0.3926
  213MOL0     C29322   3.958   9.151   0.929 -0.5637  0.3014  0.7921
  213MOL0     C29323   3.995   9.187   0.796  0.4103  1.2154 -1.1975
  213MOL0     C29324   4.139   9.166   0.769 -0.4494  0.0687  0.3754
  213MOL0     H29325   3.773   9.566   0.396 -1.5619  0.2843 -1.0409
  213MOL0     H29326   3.853   9.646   0.177  1.0876 -0.6551 -3.6882
  213MOL0     H29327   3.867   9.346  -0.146 -0.0764  1.7277  0.8012
  213MOL0     H29328   4.022   9.309  -0.091 -2.5315 -1.3084  3.5637
  213MOL0     H29329   4.109   9.523  -0.217 -0.7331  0.3903  1.4698
  213MOL0     H29330   4.035   9.406  -0.321 -1.4374 -0.7534  0.4647
  213MOL0     H29331   3.812   9.535  -0.274  1.1417 -1.4484 -0.7831
  213MOL0     H29332   3.917   9.684  -0.253 -0.0092 -0.1712  0.2269
  213MOL0     H29333   4.031   9.650  -0.458 -0.9577  1.0085  0.5624
  213MOL0     H29334   3.919   9.506  -0.484 -1.5262  0.1244 -0.3021
  213MOL0     H29335   3.864   9.800  -0.454  0.4318 -1.2642 -0.0435
  213MOL0     H29336   3.738   9.674  -0.492  0.2213  0.4650 -1.3850
  213MOL0     H29337   3.974   9.713  -0.687  0.4637  0.8427 -4.1910
  213MOL0     H29338   3.828   9.627  -0.699 -3.0370  0.2873  2.1837
  213MOL0     H29339   3.687   9.842  -0.716 -0.4939 -1.5999  0.1183
  213MOL0     H29340   3.805   9.824  -0.839  0.4333  1.2228  0.6365
  213MOL0     H29341   3.778  10.059  -0.729  0.3972  0.5163  0.6314
  213MOL0     H29342   3.845   9.979  -0.583 -0.0263  0.0649  1.2504
  213MOL0     H29343   3.957  10.216  -0.826 -2.9145 -1.8546  1.7363
  213MOL0     H29344   4.297  10.289  -0.809 -0.9229 -0.8559  1.4884
  213MOL0     H29345   4.199  10.270  -0.952 -0.6135  1.5503  1.0438
  213MOL0     H29346   4.454  10.222  -0.986 -0.4130 -0.7231  0.8828
  213MOL0     H29347   4.436  10.091  -0.882  4.5713  2.2885 -1.7939
  213MOL0     H29348   4.258   9.996  -1.044  1.1187  0.1997  1.6418
  213MOL0     H29349   4.318  10.127  -1.157  3.6428 -1.6176 -2.5684
  213MOL0     H29350   4.412   9.929  -1.218 -2.6115 -0.1713  0.3673
  213MOL0     H29351   4.546  10.013  -1.153  0.0777  1.9653 -0.1666
  213MOL0     H29352   4.586   9.791  -1.253  1.6138  0.6433 -0.0888
  213MOL0     H29353   4.815   9.519  -1.343  1.2192 -0.4250  1.2497
  213MOL0     H29354   4.886   9.674  -1.329  1.1686 -4.1183 -0.4681
  213MOL0     H29355   4.713   9.659  -1.387 -2.3900 -0.3724  1.8921
  213MOL0     H29356   4.766   9.111  -1.089  1.2962 -4.0557  1.7949
  213MOL0     H29357   4.862   8.929  -1.180  0.7451 -1.5645  0.8949
  213MOL0     H29358   5.135   8.983  -1.518 -0.9584  0.5400  1.1608
  213MOL0     H29359   5.259   8.899  -1.415  0.7621 -0.7710 -0.6721
  213MOL0     H29360   5.167   8.694  -1.444  1.1828  0.1342 -0.9111
  213MOL0     H29361   5.025   8.751  -1.532 -1.2527 -3.1433  5.1413
  213MOL0     H29362   5.190   8.665  -1.690  1.0323  1.6758 -3.3564
  213MOL0     H29363   5.328   8.739  -1.590  0.2195 -0.1617  0.8847
  213MOL0     H29364   5.281   8.952  -1.695 -2.2362  0.4915 -0.3909
  213MOL0     H29365   5.136   8.875  -1.773 -0.1858 -0.4889 -1.5964
  213MOL0     H29366   5.431   8.790  -1.813  0.1774  0.1140  0.1434
  213MOL0     H29367   5.292   8.710  -1.867  1.2357 -0.4491  4.0449
  213MOL0     H29368   5.290   9.006  -1.950 -0.6972  0.6225  0.3585
  213MOL0     H29369   5.217   8.869  -2.019 -1.1432  0.6322  1.9962
  213MOL0     H29370   5.385   8.941  -2.166 -2.1791 -0.3245  0.0675
  213MOL0     H29371   5.465   8.806  -2.087  0.4342  0.8053 -2.3735
  213MOL0     H29372   5.617   8.990  -2.104  2.3467 -2.8439  1.2870
  213MOL0     H29373   5.583   8.921  -1.949 -1.1380  0.5711  0.5211
  213MOL0     H29374   5.181   9.158  -1.346 -0.6178 -0.8432  0.5232
  213MOL0     H29375   5.085   9.360  -1.249 -1.6259 -0.3592 -4.3581
  213MOL0     H29376   4.786   9.606  -0.850 -0.3254 -1.4739  0.2556
  213MOL0     H29377   4.589   9.748  -0.828  1.0245  3.1971  0.3280
  213MOL0     H29378   3.954   9.237   0.086  3.3511  0.8126  0.2820
  213MOL0     H29379   3.909   9.171   0.302  0.8883  0.2159  2.9181
  213MOL0     H29380   3.685   9.285   0.693  1.2906 -0.0473 -1.9135
  213MOL0     H29381   3.634   9.203   0.931  0.3754 -0.4153 -0.2870
  213MOL0     H29382   3.959   9.022   1.205 -0.9583 -0.6728  0.7627
  213MOL0     H29383   3.957   9.203   1.196  1.3419 -0.0243 -1.2329
  213MOL0     H29384   3.734   9.057   1.344  0.2943 -0.3884  0.2583
  213MOL0     H29385   3.801   9.222   1.357 -2.8196 -0.7148 -1.2938
  213MOL0     H29386   3.921   8.956   1.464 -1.8333 -1.2208  0.5251
  213MOL0     H29387   4.023   9.110   1.448  0.8699 -1.7285 -0.4907
  213MOL0     H29388   3.933   9.079   1.675  1.0324 -0.9216 -1.2521
  213MOL0     H29389   3.772   9.051   1.615  0.4477  0.1167 -1.6803
  213MOL0     H29390   3.773   9.470   1.615 -2.1337 -0.6297 -2.7346
  213MOL0     H29391   4.033   9.105   0.993  1.2443  1.6957 -0.2308
  213MOL0     H29392   4.141   9.121   0.669  0.6522 -1.4388  1.0436
  213MOL0     H29393   4.191   9.262   0.778  0.0037 -0.3622  3.5914
  213MOL0     H29394   4.195   9.094   0.828 -4.1083 -4.7357 -1.3604
  214MOL0     O29395   7.361   1.564   4.721  0.4386 -1.1328  0.1316
  214MOL0     C29396   7.317   1.450   4.735  0.7195  0.0450  1.0813
  214MOL0     O29397   7.395   1.348   4.782  0.6922 -0.1172 -0.4788
  214MOL0     C29398   7.513   1.376   4.836 -0.4214  0.1742  0.7044
  214MOL0     C29399   7.625   1.392   4.755 -0.6484 -0.8004  0.4666
  214MOL0     C29400   7.745   1.423   4.811  0.1551  0.7960  1.2013
  214MOL0     C29401   7.766   1.416   4.949  0.5607  0.1151  0.1679
  214MOL0     O29402   7.894   1.440   4.985 -0.1674  0.2123 -0.4371
  214MOL0     C29403   7.916   1.468   5.127  0.2354  0.2002  0.2442
  214MOL0     C29404   7.915   1.622   5.153 -1.1002 -0.2487  0.0272
  214MOL0     C29405   7.938   1.663   5.297 -0.4415 -0.1770  0.3242
  214MOL0     C29406   8.090   1.684   5.328 -0.2847  0.3897  0.0553
  214MOL0     C29407   8.113   1.637   5.475 -0.0789  0.3392  0.3939
  214MOL0     C29408   8.257   1.681   5.519  0.0591 -0.0328 -0.6045
  214MOL0     C29409   8.307   1.617   5.645  0.5252  0.0227  0.4457
  214MOL0     C29410   8.435   1.681   5.690  1.0238 -0.1206 -0.6739
  214MOL0     N29411   8.542   1.664   5.591 -0.0855 -0.0435  0.0017
  214MOL0     C29412   8.589   1.548   5.531 -0.4313 -0.2000 -1.0977
  214MOL0     C29413   8.686   1.587   5.451 -0.4545 -0.5681 -0.0798
  214MOL0     C29414   8.767   1.500   5.368 -1.2997  0.9640  1.1287
  214MOL0     C29415   8.711   1.484   5.223 -0.2814 -0.5327 -1.1252
  214MOL0     C29416   8.716   1.621   5.155  0.0086  0.2338  0.8111
  214MOL0     C29417   8.652   1.602   5.017  0.4870 -0.0637  0.0656
  214MOL0     O29418   8.507   1.584   5.045  0.8207  0.1399 -0.0916
  214MOL0     C29419   8.423   1.500   4.974  0.5387  0.6483 -0.1602
  214MOL0     C29420   8.463   1.464   4.843  0.9302 -0.0755  0.4948
  214MOL0     C29421   8.382   1.383   4.754  0.2652 -0.1248  0.0904
  214MOL0     C29422   8.436   1.363   4.618  0.2936 -0.2125 -0.4475
  214MOL0     C29423   8.248   1.345   4.795 -0.1111  1.2672  1.1187
  214MOL0     C29424   8.153   1.249   4.719 -0.0183 -1.0934 -0.8238
  214MOL0     O29425   8.030   1.230   4.764 -0.0218 -0.4004  0.2290
  214MOL0     C29426   7.949   1.146   4.680 -0.5189 -0.1255 -0.2781
  214MOL0     C29427   7.925   1.016   4.714 -0.1499  0.0193 -0.1651
  214MOL0     C29428   7.835   0.933   4.633  0.0044  0.9277 -0.0508
  214MOL0     C29429   7.769   0.993   4.527 -0.2056  0.3633 -0.4454
  214MOL0     O29430   7.681   0.930   4.449  0.9164  0.4957  0.0975
  214MOL0     C29431   7.698   0.796   4.431  0.2674 -0.3269 -0.1494
  214MOL0     C29432   7.570   0.770   4.365 -0.0223 -0.8601  0.0328
  214MOL0     C29433   7.551   0.829   4.227 -0.7973  0.2009 -0.6684
  214MOL0     C29434   7.661   0.794   4.133  0.0903 -0.4547 -0.2882
  214MOL0     C29435   7.620   0.824   3.993  0.1905  0.2618 -0.7094
  214MOL0     C29436   7.720   0.770   3.887  0.3257 -0.8164 -1.2515
  214MOL0     C29437   7.642   0.761   3.760  1.1057 -0.4478  0.9411
  214MOL0     C29438   7.711   0.681   3.644 -0.0530  0.4739  0.4292
  214MOL0    Cl29439   7.674   0.510   3.681 -0.3129  0.4122 -0.3052
  214MOL0     C29440   7.798   1.125   4.499  0.1979 -0.2729  0.1021
  214MOL0     C29441   7.886   1.204   4.578 -0.7232 -0.3206 -0.0518
  214MOL0     O29442   8.196   1.190   4.626  1.0449 -0.3680 -0.4913
  214MOL0     C29443   8.210   1.393   4.915 -0.4521  0.1235 -1.3400
  214MOL0     C29444   8.292   1.470   5.002  0.7904 -0.3355 -0.9250
  214MOL0     N29445   8.697   1.727   5.451  0.0234  0.0928  0.1661
  214MOL0     N29446   8.613   1.767   5.543 -0.0401 -0.5413 -0.0171
  214MOL0     C29447   7.661   1.377   5.030 -0.7146  0.9258  0.4222
  214MOL0     C29448   7.534   1.357   4.971  0.8955 -0.6249 -0.3819
  214MOL0     C29449   7.183   1.427   4.674  0.0271 -0.2428 -0.8484
  214MOL0     C29450   7.118   1.295   4.692 -0.5558 -0.3934 -0.1268
  214MOL0     C29451   6.991   1.257   4.638  0.0260 -1.0445 -0.2751
  214MOL0     C29452   6.937   1.356   4.549 -0.1654 -0.1059  0.0012
  214MOL0     O29453   6.821   1.354   4.478 -0.4170  0.4388  0.3530
  214MOL0     C29454   6.748   1.230   4.475  0.3752  0.1242  0.4650
  214MOL0     C29455   6.642   1.244   4.371  0.3904  1.4963 -0.1911
  214MOL0     C29456   6.590   1.117   4.309  0.4651 -0.1758 -0.1729
  214MOL0     C29457   6.441   1.130   4.265  0.3638 -0.1415  0.0185
  214MOL0     C29458   6.439   1.229   4.153 -0.3293 -0.2523 -0.1326
  214MOL0     C29459   6.436   1.304   4.057 -0.5074  0.1104  0.1790
  214MOL0     C29460   6.988   1.483   4.536  0.8461 -0.4410 -0.2331
  214MOL0     C29461   7.109   1.527   4.593 -0.0332  0.4351 -0.3556
  214MOL0     C29462   7.159   1.665   4.560  0.3390  0.5043 -1.4366
  214MOL0     H29463   7.611   1.389   4.648 -1.2444 -1.3063  0.5519
  214MOL0     H29464   7.828   1.437   4.742  0.1635  0.8386  1.2198
  214MOL0     H29465   8.021   1.444   5.147 -0.7043 -2.0506  3.2150
  214MOL0     H29466   7.860   1.414   5.204  0.5450 -1.6740 -0.7823
  214MOL0     H29467   7.985   1.665   5.081  1.3387  0.3218  2.5524
  214MOL0     H29468   7.818   1.672   5.141 -0.3731  1.3789  0.6270
  214MOL0     H29469   7.881   1.752   5.325 -0.4317 -0.3534  0.9112
  214MOL0     H29470   7.904   1.577   5.354 -0.4533  0.1657  0.8394
  214MOL0     H29471   8.163   1.652   5.253  0.6580  1.2470  0.5789
  214MOL0     H29472   8.113   1.791   5.328  0.2955  0.3841  3.6912
  214MOL0     H29473   8.115   1.528   5.484  1.6453  0.3323  0.3404
  214MOL0     H29474   8.040   1.678   5.546 -0.5835  0.1369 -0.0001
  214MOL0     H29475   8.330   1.649   5.444 -0.8958  1.8773 -2.4741
  214MOL0     H29476   8.266   1.790   5.523  3.6614 -0.2170  0.2220
  214MOL0     H29477   8.331   1.511   5.631  3.6407  0.5250  1.1294
  214MOL0     H29478   8.237   1.628   5.728  0.8157  4.8552  0.3416
  214MOL0     H29479   8.430   1.786   5.720  0.5418 -0.2790 -0.1730
  214MOL0     H29480   8.468   1.639   5.785 -0.1544 -0.4834 -0.3989
  214MOL0     H29481   8.556   1.446   5.546  0.7317 -0.5648 -0.9933
  214MOL0     H29482   8.784   1.402   5.415  3.1679  0.8255 -0.3661
  214MOL0     H29483   8.865   1.537   5.338 -2.6814  3.4143 -0.7140
  214MOL0     H29484   8.778   1.414   5.173  3.9642  3.7243 -2.0846
  214MOL0     H29485   8.611   1.441   5.239 -1.1475  0.9341 -2.2235
  214MOL0     H29486   8.665   1.700   5.212 -4.2189 -1.8828  0.3724
  214MOL0     H29487   8.819   1.649   5.133 -0.0605 -0.5710 -0.6860
  214MOL0     H29488   8.666   1.679   4.941 -1.3334 -2.2040 -2.6451
  214MOL0     H29489   8.697   1.508   4.983 -2.3344 -3.1566  4.0095
  214MOL0     H29490   8.560   1.494   4.804  0.5731 -0.6302 -0.8723
  214MOL0     H29491   8.531   1.416   4.602 -0.7389  2.1279  0.6764
  214MOL0     H29492   8.370   1.405   4.542  0.8069 -0.3794 -0.9998
  214MOL0     H29493   8.455   1.256   4.602  2.6396 -0.1725  1.4740
  214MOL0     H29494   7.967   0.978   4.807 -0.2479 -2.4754 -1.0818
  214MOL0     H29495   7.821   0.832   4.671 -1.1223  1.1169  0.0724
  214MOL0     H29496   7.784   0.761   4.374 -0.4946 -1.2520 -0.7610
  214MOL0     H29497   7.694   0.748   4.530  0.8747  1.0968  0.6016
  214MOL0     H29498   7.547   0.664   4.347 -0.7492 -0.5091 -1.2995
  214MOL0     H29499   7.494   0.815   4.430  1.5456  0.1473  1.2156
  214MOL0     H29500   7.523   0.935   4.223 -0.7876  0.3562  1.6974
  214MOL0     H29501   7.463   0.786   4.178 -0.5688  0.4191 -1.2753
  214MOL0     H29502   7.690   0.691   4.155  1.3919  0.1451  1.0329
  214MOL0     H29503   7.747   0.852   4.169  0.2123 -1.3477  0.9332
  214MOL0     H29504   7.522   0.782   3.968 -0.2237  1.6426 -1.5803
  214MOL0     H29505   7.621   0.934   3.991  0.7631  0.5145  3.7800
  214MOL0     H29506   7.757   0.669   3.907  1.3117 -0.0903  0.9932
  214MOL0     H29507   7.808   0.834   3.877  1.1415 -1.4435  1.2535
  214MOL0     H29508   7.641   0.863   3.721  3.5763 -1.6456 -2.8384
  214MOL0     H29509   7.541   0.723   3.777  0.6437  0.4697  0.3213
  214MOL0     H29510   7.818   0.701   3.637 -0.4285  1.8995 -2.5486
  214MOL0     H29511   7.675   0.709   3.545  1.3636  1.9213  0.2713
  214MOL0     H29512   7.731   1.145   4.416  2.3491 -0.4726 -1.7813
  214MOL0     H29513   7.913   1.306   4.554  2.2352 -1.0965 -0.4766
  214MOL0     H29514   8.106   1.370   4.937 -1.2433 -0.5716 -5.0887
  214MOL0     H29515   8.259   1.497   5.102  2.0529 -1.2096 -0.2337
  214MOL0     H29516   7.670   1.376   5.138  0.3503  1.3050  0.3475
  214MOL0     H29517   7.448   1.345   5.037  1.0106 -1.3488 -0.3552
  214MOL0     H29518   7.161   1.213   4.749  1.5926  0.2521 -0.7117
  214MOL0     H29519   6.958   1.154   4.639 -0.3254 -1.0038  3.0132
  214MOL0     H29520   6.816   1.147   4.452 -1.4220 -0.7367 -2.2186
  214MOL0     H29521   6.704   1.211   4.573  0.2645 -2.4223 -0.0087
  214MOL0     H29522   6.675   1.310   4.290 -1.4206  3.1399  0.3421
  214MOL0     H29523   6.562   1.302   4.418  1.3679  0.4868  2.9927
  214MOL0     H29524   6.654   1.085   4.227 -0.9332 -0.0432 -1.3492
  214MOL0     H29525   6.583   1.037   4.384  2.0969 -1.4026 -1.2418
  214MOL0     H29526   6.377   1.173   4.342 -2.9073  0.5142 -2.8263
  214MOL0     H29527   6.402   1.031   4.237 -0.2891  0.3216 -0.7610
  214MOL0     H29528   6.449   1.389   3.994  1.6415 -0.7196 -0.5846
  214MOL0     H29529   6.928   1.545   4.470 -2.5441 -2.5657  0.5894
  214MOL0     H29530   7.108   1.709   4.473 -3.5488 -1.3168 -0.3061
  214MOL0     H29531   7.136   1.734   4.642  0.6426  0.6455 -1.4706
  214MOL0     H29532   7.260   1.663   4.519  1.0497  0.4829  0.2484
  215MOL0     O29533   4.562  11.403   6.061 -1.0139 -0.3560 -0.1760
  215MOL0     C29534   4.497  11.466   5.977 -1.0278  0.2625 -0.2948
  215MOL0     O29535   4.447  11.594   6.010 -0.3590  0.0446  0.3361
  215MOL0     C29536   4.492  11.669   6.121  0.2184 -0.0032  0.3154
  215MOL0     C29537   4.629  11.712   6.125 -0.1170 -0.1299 -0.8060
  215MOL0     C29538   4.681  11.770   6.236  0.0238 -0.5463  0.7832
  215MOL0     C29539   4.602  11.811   6.342  0.7430 -0.0454 -0.4014
  215MOL0     O29540   4.631  11.895   6.453  0.7405 -0.0327 -0.2349
  215MOL0     C29541   4.772  11.917   6.487 -0.2150 -0.7784  0.2849
  215MOL0     C29542   4.782  12.037   6.578 -0.2536 -0.2858 -0.2482
  215MOL0     C29543   4.925  12.075   6.608 -0.2991  1.4707 -0.0448
  215MOL0     C29544   4.987  12.171   6.509  0.1332  0.2740  1.1482
  215MOL0     C29545   5.135  12.208   6.541 -0.2504  1.7268  0.2092
  215MOL0     C29546   5.230  12.256   6.429 -0.3273  0.3357  1.5156
  215MOL0     C29547   5.257  12.140   6.330 -0.1615  1.3612 -0.0180
  215MOL0     C29548   5.361  12.180   6.222 -0.5135 -0.7876  0.0864
  215MOL0     N29549   5.376  12.070   6.121 -0.0956 -0.7039 -0.5462
  215MOL0     C29550   5.466  11.963   6.125  0.8427 -0.3844 -0.5295
  215MOL0     C29551   5.437  11.887   6.015 -0.4432  0.0910 -0.7697
  215MOL0     C29552   5.506  11.758   5.976 -1.3896  0.2218  0.6030
  215MOL0     C29553   5.588  11.751   5.837  0.2878 -1.1215 -0.6271
  215MOL0     C29554   5.684  11.872   5.831 -0.4800  0.0111 -0.1173
  215MOL0     C29555   5.748  11.893   5.690  0.4779  0.1630 -0.8245
  215MOL0     O29556   5.654  11.879   5.580 -0.0638  0.3272  0.4739
  215MOL0     C29557   5.697  11.810   5.470  0.1871  0.1401 -0.1806
  215MOL0     C29558   5.637  11.852   5.357 -0.6908 -0.0418 -0.8127
  215MOL0     C29559   5.664  11.790   5.231 -0.5736 -0.5415 -0.1331
  215MOL0     C29560   5.589  11.855   5.115  0.0576 -0.5779 -0.3849
  215MOL0     C29561   5.755  11.684   5.216  0.4547  1.0577 -0.7447
  215MOL0     C29562   5.773  11.620   5.085 -0.4728 -0.2279  0.7666
  215MOL0     O29563   5.896  11.613   5.034  0.4684 -0.4085 -1.0529
  215MOL0     C29564   5.924  11.539   4.915 -0.1018  0.5004  0.3794
  215MOL0     C29565   5.849  11.567   4.795 -0.1273 -0.5317  0.0252
  215MOL0     C29566   5.897  11.495   4.681 -0.3061  0.6393 -0.0110
  215MOL0     C29567   5.991  11.394   4.690  1.3705 -0.0891 -0.9596
  215MOL0     O29568   6.012  11.307   4.582  0.2986  0.6158 -0.5516
  215MOL0     C29569   6.143  11.281   4.529  0.7411 -0.8290 -1.7044
  215MOL0     C29570   6.196  11.395   4.447  0.1848 -0.3063 -0.1974
  215MOL0     C29571   6.105  11.427   4.326  0.0088  0.0768 -1.4832
  215MOL0     C29572   6.105  11.339   4.195 -0.3677  0.6247 -0.7814
  215MOL0     C29573   6.046  11.434   4.081 -0.5117  0.2491 -0.2425
  215MOL0     C29574   6.004  11.351   3.964 -0.2676 -0.4384 -0.1767
  215MOL0     C29575   5.929  11.430   3.865  0.1947  0.6082  0.8056
  215MOL0     C29576   5.868  11.354   3.745  0.1008  0.1208 -0.9097
  215MOL0    Cl29577   5.746  11.234   3.808 -0.1739 -0.2420  0.2847
  215MOL0     C29578   6.060  11.371   4.807 -0.8259  0.8886 -1.3827
  215MOL0     C29579   6.033  11.450   4.920  0.5703 -0.1060  0.8050
  215MOL0     O29580   5.676  11.566   5.038 -1.1091 -0.3930 -0.0344
  215MOL0     C29581   5.804  11.625   5.336  0.1869 -0.4265  0.2158
  215MOL0     C29582   5.781  11.688   5.462  0.7080  0.2375 -0.0842
  215MOL0     N29583   5.343  11.950   5.941 -0.4795  0.7713 -0.5615
  215MOL0     N29584   5.305  12.060   6.011 -0.2799 -0.3288  0.4069
  215MOL0     C29585   4.464  11.782   6.336 -0.1252  0.6336  0.2508
  215MOL0     C29586   4.407  11.708   6.229  0.8898  0.8471  0.9233
  215MOL0     C29587   4.467  11.392   5.862 -0.6453  1.0784 -0.0783
  215MOL0     C29588   4.557  11.296   5.813  0.0531 -0.4002 -0.7562
  215MOL0     C29589   4.534  11.224   5.698  0.0677 -0.1041  0.2934
  215MOL0     C29590   4.412  11.240   5.626  0.0033 -0.7943 -0.4134
  215MOL0     O29591   4.396  11.190   5.506  0.1139 -0.2399 -0.0502
  215MOL0     C29592   4.513  11.137   5.428  0.2311 -0.0360  0.3150
  215MOL0     C29593   4.551  10.987   5.463  0.9169  0.8698 -0.2063
  215MOL0     C29594   4.441  10.900   5.395 -0.0628 -0.2715  0.5401
  215MOL0     C29595   4.416  10.910   5.239 -0.1840  0.1062  1.2928
  215MOL0     C29596   4.305  10.815   5.210  0.0315  0.1721 -0.4271
  215MOL0     C29597   4.218  10.738   5.170 -0.0256 -0.5896 -0.3775
  215MOL0     C29598   4.309  11.325   5.688 -0.8434 -0.6014  0.3824
  215MOL0     C29599   4.337  11.394   5.808 -0.8021 -0.1266 -0.3795
  215MOL0     C29600   4.224  11.476   5.862 -0.3469 -0.3849  0.2251
  215MOL0     H29601   4.693  11.668   6.049 -0.9169 -0.4761 -1.3034
  215MOL0     H29602   4.789  11.782   6.234 -0.1741  1.9105 -0.9098
  215MOL0     H29603   4.829  11.939   6.396  3.0695  0.3674  2.4280
  215MOL0     H29604   4.806  11.833   6.549 -1.4287 -1.1178  0.5251
  215MOL0     H29605   4.752  12.131   6.529  2.0254  0.3197 -0.6042
  215MOL0     H29606   4.725  12.019   6.669 -0.5342 -2.2219 -0.7636
  215MOL0     H29607   4.941  12.113   6.710  0.6025 -2.2838  1.4050
  215MOL0     H29608   4.978  11.979   6.612  0.8230  2.1014  1.9166
  215MOL0     H29609   4.977  12.142   6.404 -2.2343  4.0433  0.1110
  215MOL0     H29610   4.925  12.261   6.500  1.7531  1.2395 -2.1924
  215MOL0     H29611   5.184  12.120   6.583 -1.8686  0.6968  0.0322
  215MOL0     H29612   5.132  12.282   6.622  0.7075  2.7388 -0.6535
  215MOL0     H29613   5.184  12.342   6.380  0.2943  0.7294  1.6129
  215MOL0     H29614   5.330  12.288   6.462 -0.7040  2.3498  0.8493
  215MOL0     H29615   5.172  12.102   6.273  1.2373 -0.6556 -0.8747
  215MOL0     H29616   5.292  12.057   6.392  1.0864  1.1468 -0.9631
  215MOL0     H29617   5.311  12.261   6.169  1.8487 -1.4227 -3.4919
  215MOL0     H29618   5.462  12.203   6.258  0.7682 -4.2181 -0.8356
  215MOL0     H29619   5.535  11.944   6.207 -0.1105  1.1885  0.6869
  215MOL0     H29620   5.443  11.669   5.981 -1.8182  0.4610 -0.2585
  215MOL0     H29621   5.573  11.734   6.059 -0.5641  1.6461  0.3859
  215MOL0     H29622   5.634  11.652   5.829 -0.7830 -1.7721  0.8176
  215MOL0     H29623   5.518  11.762   5.754  0.7067  1.7163 -0.6818
  215MOL0     H29624   5.634  11.966   5.855 -1.8729 -1.0682  1.3642
  215MOL0     H29625   5.763  11.850   5.903 -0.6978 -3.1408 -0.6951
  215MOL0     H29626   5.795  11.992   5.679  0.5345  0.2143 -0.1477
  215MOL0     H29627   5.836  11.828   5.684  0.7466 -0.1503  3.4004
  215MOL0     H29628   5.576  11.942   5.363  0.9815  1.4294 -3.6961
  215MOL0     H29629   5.661  11.888   5.039  1.0064 -0.1559  0.6714
  215MOL0     H29630   5.532  11.943   5.145 -0.3870  0.1210 -3.0089
  215MOL0     H29631   5.531  11.775   5.069  0.8471 -2.9722  2.5073
  215MOL0     H29632   5.775  11.647   4.790  2.3071  1.9859  1.2053
  215MOL0     H29633   5.855  11.509   4.582  3.3123 -0.7668 -1.9360
  215MOL0     H29634   6.210  11.265   4.614 -0.2041 -1.3100 -1.0257
  215MOL0     H29635   6.131  11.189   4.470 -0.7563 -0.4081 -2.0967
  215MOL0     H29636   6.201  11.478   4.518 -4.5993  0.2230 -0.1135
  215MOL0     H29637   6.287  11.356   4.401  1.0521  0.8969  0.4609
  215MOL0     H29638   6.119  11.533   4.300 -3.2164  0.8776 -0.4481
  215MOL0     H29639   6.001  11.425   4.359  0.4763  1.2333  0.2294
  215MOL0     H29640   6.042  11.253   4.223 -0.9119  1.1261 -0.4143
  215MOL0     H29641   6.205  11.301   4.175 -0.9186 -0.9931 -0.6445
  215MOL0     H29642   5.959  11.488   4.121  0.2950  0.6287  1.0474
  215MOL0     H29643   6.127  11.504   4.058 -0.6977  0.9638  1.1425
  215MOL0     H29644   5.943  11.265   3.993 -0.9363  0.2759  0.6125
  215MOL0     H29645   6.100  11.325   3.920  0.4252  3.6775 -1.5682
  215MOL0     H29646   5.986  11.511   3.819  2.4180 -0.6653  1.1835
  215MOL0     H29647   5.850  11.469   3.929 -0.4971 -2.5003  2.0549
  215MOL0     H29648   5.944  11.311   3.679 -1.2575 -0.6522 -2.0239
  215MOL0     H29649   5.811  11.422   3.681 -0.4659  1.1689  0.6333
  215MOL0     H29650   6.118  11.281   4.823 -2.6769  0.2531  4.0965
  215MOL0     H29651   6.087  11.449   5.014  0.0892  0.3569  1.0906
  215MOL0     H29652   5.861  11.533   5.324 -1.7965 -1.3502 -3.5646
  215MOL0     H29653   5.830  11.630   5.540  2.2455 -0.6266 -1.6132
  215MOL0     H29654   4.402  11.829   6.411 -1.8161  0.5639 -1.0264
  215MOL0     H29655   4.298  11.706   6.226  0.8905  1.4038 -1.8676
  215MOL0     H29656   4.655  11.295   5.858 -1.1858  0.7836  2.2889
  215MOL0     H29657   4.621  11.170   5.664  0.2238 -1.1133  2.1529
  215MOL0     H29658   4.480  11.147   5.324 -0.7687  1.4546  0.7367
  215MOL0     H29659   4.599  11.203   5.443 -0.1530  0.1591  1.8090
  215MOL0     H29660   4.560  10.977   5.571 -3.1242  1.5650  0.3794
  215MOL0     H29661   4.649  10.964   5.420  0.5620 -1.7597  0.2074
  215MOL0     H29662   4.469  10.794   5.406 -5.7984 -2.7349 -3.5559
  215MOL0     H29663   4.353  10.927   5.453 -2.2898 -1.7526 -1.9529
  215MOL0     H29664   4.512  10.884   5.193  0.3672  1.4756  1.6349
  215MOL0     H29665   4.392  11.008   5.198  0.9288 -1.6811 -4.7778
  215MOL0     H29666   4.138  10.686   5.122 -2.0674  1.2426  0.8291
  215MOL0     H29667   4.214  11.341   5.639  0.6211  5.0057 -1.3724
  215MOL0     H29668   4.257  11.581   5.861  0.4471 -0.5604  2.3188
  215MOL0     H29669   4.144  11.479   5.788  0.7606  0.1698 -0.9881
  215MOL0     H29670   4.187  11.439   5.958 -0.8742 -1.8658 -0.5211
  216MOL0     O29671   1.602   8.836   0.310 -0.4221 -0.0502  0.0031
  216MOL0     C29672   1.501   8.775   0.309 -0.0106  0.6776 -0.0827
  216MOL0     O29673   1.382   8.825   0.276 -0.0445 -0.1726 -0.3128
  216MOL0     C29674   1.389   8.931   0.186 -0.3293 -0.7186  0.3217
  216MOL0     C29675   1.323   9.045   0.208 -0.2040 -0.7315 -0.2188
  216MOL0     C29676   1.317   9.153   0.113  0.3212 -0.8799  0.1782
  216MOL0     C29677   1.385   9.139  -0.008 -0.3436 -0.2956 -0.4948
  216MOL0     O29678   1.373   9.240  -0.103 -0.3299 -0.2644  0.1122
  216MOL0     C29679   1.266   9.340  -0.115  0.8277  0.0315 -0.3987
  216MOL0     C29680   1.267   9.404  -0.253 -0.2711 -0.6448  0.1498
  216MOL0     C29681   1.339   9.547  -0.259 -0.9093  0.3665 -0.0502
  216MOL0     C29682   1.479   9.529  -0.321  0.6624 -0.2543 -0.5585
  216MOL0     C29683   1.539   9.670  -0.347 -0.2389  0.2724 -0.6546
  216MOL0     C29684   1.680   9.641  -0.401  0.1956 -0.6515  0.5927
  216MOL0     C29685   1.750   9.776  -0.429  0.2999  0.4181  0.8090
  216MOL0     C29686   1.859   9.776  -0.539 -0.2832  0.1992  0.1962
  216MOL0     N29687   1.802   9.762  -0.682  0.0636 -0.0211 -1.4124
  216MOL0     C29688   1.751   9.872  -0.737  1.0159 -0.0687 -0.0830
  216MOL0     C29689   1.739   9.834  -0.872  1.4691  0.8201  0.2463
  216MOL0     C29690   1.678   9.901  -0.990  0.3189  0.0665  0.4952
  216MOL0     C29691   1.779   9.974  -1.074 -0.0646 -0.1018 -0.7514
  216MOL0     C29692   1.902   9.894  -1.113  0.5847  0.8378  0.8108
  216MOL0     C29693   1.863   9.799  -1.234 -0.2848 -1.1581  0.0539
  216MOL0     O29694   1.993   9.742  -1.265  0.0061 -0.5208  0.5026
  216MOL0     C29695   2.038   9.619  -1.217  0.2484 -1.9570 -0.4339
  216MOL0     C29696   2.147   9.561  -1.287 -0.9776 -0.1803 -0.8951
  216MOL0     C29697   2.210   9.445  -1.232  0.4389 -0.1293  0.6885
  216MOL0     C29698   2.331   9.405  -1.306 -0.0564 -0.1049  0.5795
  216MOL0     C29699   2.145   9.373  -1.136  0.0384 -0.7275  0.4471
  216MOL0     C29700   2.185   9.238  -1.086 -0.3935  0.1743  0.0590
  216MOL0     O29701   2.079   9.155  -1.066  0.2814  0.0868  0.0534
  216MOL0     C29702   2.086   9.048  -0.981  0.4028  0.6778 -0.0133
  216MOL0     C29703   1.962   9.001  -0.944 -0.0279 -0.0354 -0.5535
  216MOL0     C29704   1.939   8.916  -0.836 -0.0405  0.2004 -0.1937
  216MOL0     C29705   2.050   8.870  -0.765 -0.2670 -0.5859 -0.3665
  216MOL0     O29706   2.037   8.785  -0.660 -0.0354 -0.0888 -0.2110
  216MOL0     C29707   2.085   8.835  -0.532 -0.8125  0.2198 -0.4758
  216MOL0     C29708   1.995   8.782  -0.420  0.1208  0.4289  0.0052
  216MOL0     C29709   2.062   8.769  -0.280  0.3958  0.7768  0.2460
  216MOL0     C29710   1.948   8.718  -0.178 -0.2052  0.2994 -1.0403
  216MOL0     C29711   2.020   8.694  -0.050  0.1037  0.0080  0.0789
  216MOL0     C29712   2.058   8.820   0.021  0.8000 -0.7862 -0.2969
  216MOL0     C29713   2.091   8.800   0.166  0.7006  0.2456  0.2613
  216MOL0     C29714   2.160   8.914   0.249 -0.3708 -0.3314  0.4715
  216MOL0    Cl29715   2.082   9.070   0.222  0.6467  0.3015 -0.0761
  216MOL0     C29716   2.179   8.903  -0.810 -0.2267 -0.0054  1.1937
  216MOL0     C29717   2.198   8.985  -0.920 -0.1494  0.1902  0.1378
  216MOL0     O29718   2.307   9.213  -1.073  0.1776  0.0505  0.1845
  216MOL0     C29719   2.028   9.428  -1.078  0.1284  0.4385 -0.1420
  216MOL0     C29720   1.978   9.548  -1.115  0.3017  0.9308 -0.7661
  216MOL0     N29721   1.785   9.697  -0.875 -0.3305 -1.0002  0.8725
  216MOL0     N29722   1.798   9.652  -0.760 -0.3423 -0.6764 -0.4005
  216MOL0     C29723   1.456   9.017  -0.037 -0.0851 -0.1747 -0.2018
  216MOL0     C29724   1.452   8.923   0.056 -0.5508  0.0742  0.4424
  216MOL0     C29725   1.500   8.634   0.370  0.4753 -0.4148 -0.4725
  216MOL0     C29726   1.374   8.561   0.400  1.0399 -0.3321 -0.0699
  216MOL0     C29727   1.363   8.449   0.469 -0.6030  0.9565 -0.6574
  216MOL0     C29728   1.479   8.369   0.478 -0.0274 -0.5267 -0.4004
  216MOL0     O29729   1.470   8.242   0.513 -0.4425 -0.3665  0.2315
  216MOL0     C29730   1.464   8.158   0.394  0.1186  0.1490 -0.1401
  216MOL0     C29731   1.320   8.127   0.352 -0.1495 -1.1723  0.4555
  216MOL0     C29732   1.237   8.031   0.441  0.4853 -0.9888  0.3355
  216MOL0     C29733   1.092   8.038   0.402 -0.2988 -0.4865  0.3737
  216MOL0     C29734   1.012   8.149   0.468 -0.8965  0.3477  0.3520
  216MOL0     C29735   0.936   8.234   0.507 -0.3657 -0.8386  0.3903
  216MOL0     C29736   1.597   8.426   0.436  0.0894 -0.5173 -0.7916
  216MOL0     C29737   1.616   8.557   0.390  0.6951  0.1061 -0.2216
  216MOL0     C29738   1.755   8.596   0.351  0.5857 -0.5101  1.0970
  216MOL0     H29739   1.264   9.057   0.298 -0.2082  0.9077 -0.4035
  216MOL0     H29740   1.270   9.248   0.136 -0.8368 -0.0702 -4.5085
  216MOL0     H29741   1.277   9.416  -0.037 -0.9856 -1.2199  1.1561
  216MOL0     H29742   1.167   9.297  -0.098  1.6696 -1.9969 -0.2317
  216MOL0     H29743   1.319   9.336  -0.321  0.7578 -0.4107  0.6868
  216MOL0     H29744   1.168   9.417  -0.297  0.6695 -0.4913 -2.0550
  216MOL0     H29745   1.287   9.620  -0.322 -1.2022 -0.2642 -0.5492
  216MOL0     H29746   1.344   9.594  -0.160 -0.5169 -1.8002  1.0208
  216MOL0     H29747   1.529   9.470  -0.243 -0.9843 -1.9827 -0.7443
  216MOL0     H29748   1.466   9.476  -0.416 -2.9068  1.8634 -1.4238
  216MOL0     H29749   1.548   9.730  -0.256 -1.0149 -1.0697  0.3391
  216MOL0     H29750   1.474   9.716  -0.421  2.2971 -0.0887 -3.2699
  216MOL0     H29751   1.747   9.581  -0.338  0.5004  0.5667  1.4576
  216MOL0     H29752   1.659   9.582  -0.491 -1.1619  0.5526  0.0844
  216MOL0     H29753   1.770   9.816  -0.329 -1.9666 -1.3891  2.0903
  216MOL0     H29754   1.670   9.844  -0.462  0.6944  2.4151  3.6098
  216MOL0     H29755   1.913   9.869  -0.520 -4.0844  2.5730  0.4517
  216MOL0     H29756   1.941   9.704  -0.529 -0.0989  0.4432  0.4253
  216MOL0     H29757   1.735   9.972  -0.701 -1.9771 -0.6915  0.5776
  216MOL0     H29758   1.607   9.976  -0.954  0.1683  0.4569 -0.5576
  216MOL0     H29759   1.627   9.823  -1.047 -0.6186 -0.6953  2.3010
  216MOL0     H29760   1.730  10.025  -1.157 -0.1526  0.5305 -0.3189
  216MOL0     H29761   1.822  10.052  -1.011  0.0746  0.8572 -2.0227
  216MOL0     H29762   1.978   9.964  -1.150 -2.2312  2.4263 -2.6346
  216MOL0     H29763   1.938   9.835  -1.029  0.9399 -0.9909 -0.5660
  216MOL0     H29764   1.785   9.723  -1.225 -2.0324  0.7267  2.4452
  216MOL0     H29765   1.826   9.867  -1.312 -0.3976  0.7206  1.6764
  216MOL0     H29766   2.178   9.622  -1.372  1.2486 -0.4262 -0.3024
  216MOL0     H29767   2.419   9.443  -1.253  2.0257 -0.2965 -2.5038
  216MOL0     H29768   2.331   9.452  -1.405  2.7495 -1.9892 -0.4334
  216MOL0     H29769   2.341   9.297  -1.320  0.4327 -0.0918  0.7743
  216MOL0     H29770   1.884   9.030  -1.013  0.2358  2.3683  0.0610
  216MOL0     H29771   1.844   8.879  -0.799  0.7009 -0.5120  1.0596
  216MOL0     H29772   2.190   8.808  -0.517 -1.4098 -1.1830  1.6135
  216MOL0     H29773   2.085   8.944  -0.538  0.2425  0.1880 -1.4381
  216MOL0     H29774   1.911   8.851  -0.405 -1.0094 -1.0001  0.5227
  216MOL0     H29775   1.952   8.688  -0.456  0.2649 -0.3091  1.6608
  216MOL0     H29776   2.095   8.868  -0.246 -2.7246  1.4369  1.7570
  216MOL0     H29777   2.149   8.703  -0.273  0.6489  0.9040 -1.3240
  216MOL0     H29778   1.901   8.622  -0.202 -0.4497 -0.5184  2.1955
  216MOL0     H29779   1.876   8.794  -0.149  1.3870  1.7445 -0.7011
  216MOL0     H29780   1.938   8.650   0.007 -2.2013  1.6090 -1.7766
  216MOL0     H29781   2.107   8.630  -0.064 -1.0321 -1.4785 -0.4736
  216MOL0     H29782   1.978   8.895   0.021 -0.8882 -2.5189 -0.5516
  216MOL0     H29783   2.145   8.867  -0.025 -2.0744  2.4074 -3.0245
  216MOL0     H29784   2.146   8.708   0.190 -0.7448 -1.0022 -0.9161
  216MOL0     H29785   1.998   8.772   0.217  0.1634 -1.3816 -1.4773
  216MOL0     H29786   2.264   8.916   0.214  1.4832  2.0922  5.2177
  216MOL0     H29787   2.164   8.893   0.356  1.1637  1.6156  0.8402
  216MOL0     H29788   2.263   8.866  -0.752  0.7613 -3.1934 -1.9204
  216MOL0     H29789   2.298   9.012  -0.954  0.5587 -1.5628  0.7467
  216MOL0     H29790   1.986   9.366  -0.999  2.9193 -1.3523  0.0952
  216MOL0     H29791   1.888   9.586  -1.069 -1.3894 -0.2027 -2.9022
  216MOL0     H29792   1.515   9.005  -0.127 -1.1430  2.1641 -1.3147
  216MOL0     H29793   1.509   8.835   0.029  3.1627  3.4766 -4.7962
  216MOL0     H29794   1.279   8.608   0.377 -0.5231 -2.0713  2.3203
  216MOL0     H29795   1.274   8.399   0.507  0.9060 -1.4964 -0.0861
  216MOL0     H29796   1.529   8.187   0.311  0.3721 -5.9872 -2.5859
  216MOL0     H29797   1.516   8.070   0.432  1.8129  0.7105 -1.0408
  216MOL0     H29798   1.327   8.082   0.252  0.8152 -0.8158  0.3574
  216MOL0     H29799   1.269   8.222   0.330  2.3326 -0.0090 -0.5984
  216MOL0     H29800   1.264   7.925   0.439  0.2239 -1.0990 -2.9606
  216MOL0     H29801   1.241   8.066   0.544  0.4585 -2.0024  0.6913
  216MOL0     H29802   1.051   7.943   0.434 -2.2401 -0.2503 -1.2003
  216MOL0     H29803   1.078   8.052   0.294  0.0724 -0.0146  0.3832
  216MOL0     H29804   0.872   8.310   0.546  0.6245  1.7508 -2.5561
  216MOL0     H29805   1.676   8.352   0.431  0.6368 -0.1265  1.2529
  216MOL0     H29806   1.760   8.666   0.267  0.7391 -1.1827  0.5411
  216MOL0     H29807   1.812   8.652   0.426  0.3210  4.1663 -1.7884
  216MOL0     H29808   1.806   8.510   0.308 -0.4946 -0.6066 -0.0624
  217MOL0     O29809   9.074   1.912   0.758  0.5808 -0.2118 -0.1462
  217MOL0     C29810   9.168   1.887   0.689  0.1882  0.2718 -0.5021
  217MOL0     O29811   9.296   1.895   0.727  0.1224  0.2028 -0.5996
  217MOL0     C29812   9.330   1.947   0.850 -0.8793  0.6245  0.0641
  217MOL0     C29813   9.361   2.084   0.863 -0.6493 -0.7827 -0.3166
  217MOL0     C29814   9.425   2.123   0.982  0.9247  0.2905 -0.9425
  217MOL0     C29815   9.430   2.049   1.102  0.8295  0.7569  0.3823
  217MOL0     O29816   9.494   2.093   1.221  0.3494 -0.3074  0.8610
  217MOL0     C29817   9.446   2.050   1.342 -0.3020 -0.0947  0.6077
  217MOL0     C29818   9.457   2.152   1.459  0.6660 -0.2468  0.2568
  217MOL0     C29819   9.423   2.088   1.592 -0.5706  0.1409  0.0512
  217MOL0     C29820   9.411   2.193   1.703 -1.0261  0.7776  0.1332
  217MOL0     C29821   9.351   2.126   1.823 -0.5200 -1.0327 -0.4918
  217MOL0     C29822   9.414   2.192   1.941  0.1468 -0.0986  0.0498
  217MOL0     C29823   9.550   2.135   1.986  0.5862 -0.1895  0.7550
  217MOL0     C29824   9.644   2.221   2.074  1.4329  1.0136 -0.3935
  217MOL0     N29825   9.590   2.235   2.218 -0.3903 -0.8058  0.1114
  217MOL0     C29826   9.636   2.202   2.343 -0.0836  0.5984  0.0272
  217MOL0     C29827   9.573   2.277   2.438  0.4087  0.0789  0.1607
  217MOL0     C29828   9.586   2.263   2.584 -0.3469  0.2225 -0.2270
  217MOL0     C29829   9.722   2.218   2.641  0.6107  0.1376  0.6686
  217MOL0     C29830   9.718   2.219   2.788  0.0537  0.5442 -1.3208
  217MOL0     C29831   9.860   2.234   2.831  0.2230 -0.1514 -0.4411
  217MOL0     O29832   9.917   2.365   2.805  0.5979  0.0968  0.2326
  217MOL0     C29833  10.030   2.387   2.882 -0.0444 -1.2601 -0.1302
  217MOL0     C29834  10.148   2.311   2.878 -0.2916 -0.1797  0.7363
  217MOL0     C29835  10.258   2.343   2.958  0.3426  1.3916 -0.4670
  217MOL0     C29836  10.366   2.246   2.954 -1.1219  0.6642 -0.2774
  217MOL0     C29837  10.250   2.451   3.049 -0.6843 -0.1529  0.4484
  217MOL0     C29838  10.362   2.474   3.144 -0.3723  0.6737  0.0823
  217MOL0     O29839  10.401   2.372   3.234  0.3895  0.6505 -0.8691
  217MOL0     C29840  10.468   2.380   3.356 -0.3974 -0.1510  0.5101
  217MOL0     C29841  10.550   2.491   3.399  0.4642  0.1301  0.1129
  217MOL0     C29842  10.621   2.487   3.518 -0.0742  0.0873  0.2284
  217MOL0     C29843  10.613   2.386   3.606 -0.8360 -0.5300 -0.0259
  217MOL0     O29844  10.682   2.377   3.729  0.3258  0.2680  0.8849
  217MOL0     C29845  10.820   2.439   3.725 -0.3169  0.0446  0.0455
  217MOL0     C29846  10.865   2.431   3.867  0.4725 -0.6923  0.7059
  217MOL0     C29847  10.768   2.495   3.965  0.4581  0.3680 -1.7442
  217MOL0     C29848  10.812   2.477   4.118 -0.0000 -1.0204  0.7441
  217MOL0     C29849  10.722   2.544   4.217  0.3392 -0.4595  0.8582
  217MOL0     C29850  10.693   2.694   4.198  0.9289 -0.6412 -0.0437
  217MOL0     C29851  10.823   2.782   4.206 -0.6608 -0.1033 -0.2056
  217MOL0     C29852  10.795   2.931   4.229  0.4826  0.0916  0.6618
  217MOL0    Cl29853  10.657   2.996   4.134 -0.2636 -0.0151 -0.3007
  217MOL0     C29854  10.540   2.271   3.575 -1.0966 -0.2300 -0.5917
  217MOL0     C29855  10.480   2.267   3.447 -0.4411 -0.6271 -0.3986
  217MOL0     O29856  10.393   2.598   3.154 -0.0036  1.1431 -0.8530
  217MOL0     C29857  10.140   2.537   3.047 -0.0553 -0.0280 -0.7916
  217MOL0     C29858  10.030   2.501   2.963  0.8464 -0.8631 -0.2394
  217MOL0     N29859   9.489   2.360   2.363 -1.2506 -0.6674 -0.0652
  217MOL0     N29860   9.506   2.347   2.236  0.3705 -0.3590  0.5641
  217MOL0     C29861   9.393   1.913   1.087  0.2722  0.8773  0.7668
  217MOL0     C29862   9.344   1.859   0.966 -0.2743  0.3593  0.1168
  217MOL0     C29863   9.149   1.819   0.552 -0.7253  0.8345 -0.2415
  217MOL0     C29864   9.220   1.866   0.444 -0.3357 -0.2963  0.5304
  217MOL0     C29865   9.207   1.805   0.323  0.4357 -0.4288  0.1087
  217MOL0     C29866   9.111   1.707   0.301 -0.0406  0.6032 -0.0447
  217MOL0     O29867   9.111   1.642   0.179  0.6825 -0.0973 -0.3979
  217MOL0     C29868   9.203   1.547   0.156  0.1382 -0.5601  0.6250
  217MOL0     C29869   9.315   1.603   0.072 -0.8928 -0.3617  0.1487
  217MOL0     C29870   9.272   1.664  -0.055 -0.2404 -0.0041 -0.2850
  217MOL0     C29871   9.371   1.744  -0.138 -0.1422 -0.6176  0.0853
  217MOL0     C29872   9.320   1.762  -0.277 -0.2051 -0.4437 -1.0973
  217MOL0     C29873   9.278   1.779  -0.386  0.6560 -0.9752  0.2763
  217MOL0     C29874   9.044   1.654   0.409  0.6315 -0.0325 -0.2761
  217MOL0     C29875   9.053   1.721   0.531 -0.3693 -0.2859 -0.0906
  217MOL0     C29876   8.971   1.660   0.645  0.7251 -0.2516  1.2676
  217MOL0     H29877   9.356   2.145   0.774 -2.8900  0.3829  0.5191
  217MOL0     H29878   9.459   2.226   0.975  0.8533  0.2661 -1.7465
  217MOL0     H29879   9.507   1.964   1.370  1.8002  1.7522  2.0471
  217MOL0     H29880   9.341   2.022   1.322  0.7203 -2.8043 -1.7091
  217MOL0     H29881   9.554   2.203   1.462  0.2974  0.5325 -0.6660
  217MOL0     H29882   9.393   2.238   1.437 -0.1208 -1.0174 -0.5011
  217MOL0     H29883   9.326   2.043   1.568 -1.8099  2.5690  0.1960
  217MOL0     H29884   9.492   2.010   1.626  1.1560  2.3576  1.9118
  217MOL0     H29885   9.514   2.227   1.717 -0.9587  0.3296  0.7759
  217MOL0     H29886   9.360   2.283   1.669 -1.4864 -0.1469 -1.7681
  217MOL0     H29887   9.368   2.018   1.824 -1.1568 -1.1342 -0.5327
  217MOL0     H29888   9.247   2.157   1.808 -0.1124  0.3056 -0.7294
  217MOL0     H29889   9.426   2.300   1.926  1.2446 -0.5059 -2.4997
  217MOL0     H29890   9.347   2.179   2.027  0.7377  0.5562  0.6157
  217MOL0     H29891   9.608   2.122   1.894 -0.9102 -2.4187  0.0148
  217MOL0     H29892   9.533   2.035   2.027  0.5662  0.0070  1.2317
  217MOL0     H29893   9.734   2.158   2.081  0.1313 -0.8734  0.1989
  217MOL0     H29894   9.673   2.316   2.028  2.1783  1.9770  1.8943
  217MOL0     H29895   9.709   2.122   2.354 -2.5690 -1.6148  1.9019
  217MOL0     H29896   9.515   2.183   2.609  1.8758 -1.5340  0.7688
  217MOL0     H29897   9.543   2.351   2.633  0.4957  0.3423  0.3170
  217MOL0     H29898   9.748   2.121   2.598  0.6132  0.6323 -0.4805
  217MOL0     H29899   9.804   2.273   2.594 -0.2635  1.5125  0.6963
  217MOL0     H29900   9.666   2.305   2.830  3.5002  1.7760  0.8354
  217MOL0     H29901   9.674   2.126   2.826  2.9074  0.6144  2.8564
  217MOL0     H29902   9.871   2.219   2.939  1.3690  2.6604 -0.0647
  217MOL0     H29903   9.931   2.159   2.796  4.5735  2.0210  2.6204
  217MOL0     H29904  10.140   2.219   2.820  2.0367  0.0417 -0.0665
  217MOL0     H29905  10.349   2.172   3.032  0.8248 -0.7515 -1.1035
  217MOL0     H29906  10.463   2.296   2.965  0.4640 -2.0618 -0.9115
  217MOL0     H29907  10.376   2.200   2.856 -0.8350  1.9849 -0.8953
  217MOL0     H29908  10.565   2.582   3.342  0.1169 -1.0776 -2.0308
  217MOL0     H29909  10.684   2.570   3.551 -1.7966  2.2578 -1.6066
  217MOL0     H29910  10.887   2.387   3.656 -0.2105  4.3151 -3.5669
  217MOL0     H29911  10.821   2.542   3.686  2.4972  0.1847  0.3114
  217MOL0     H29912  10.880   2.324   3.882 -1.0238 -1.5215 -2.7509
  217MOL0     H29913  10.964   2.477   3.862 -1.1550  3.1198 -0.6951
  217MOL0     H29914  10.667   2.457   3.945  0.9636 -2.1138 -0.0398
  217MOL0     H29915  10.745   2.599   3.937  3.6942  0.9321 -2.7667
  217MOL0     H29916  10.911   2.523   4.132 -1.8371  2.8364  2.5767
  217MOL0     H29917  10.826   2.371   4.142  1.3792 -0.6933  1.5465
  217MOL0     H29918  10.624   2.494   4.211  1.0234 -1.6965 -0.6721
  217MOL0     H29919  10.767   2.531   4.316 -1.7150  4.6763  2.8158
  217MOL0     H29920  10.617   2.719   4.272  1.2291  0.7582 -0.1788
  217MOL0     H29921  10.645   2.713   4.101  0.2919  0.2344  0.4363
  217MOL0     H29922  10.876   2.764   4.112  3.7612  1.8361  1.6402
  217MOL0     H29923  10.871   2.744   4.297 -0.6192 -0.0876 -0.2215
  217MOL0     H29924  10.885   2.993   4.228 -0.4901  1.5576 -0.0299
  217MOL0     H29925  10.763   2.935   4.333 -0.4159  3.0837  0.3690
  217MOL0     H29926  10.540   2.183   3.638 -0.7462 -0.4529 -0.8982
  217MOL0     H29927  10.440   2.171   3.414 -0.9747 -0.0319 -1.5558
  217MOL0     H29928  10.143   2.622   3.114  0.1958 -0.9172  0.3561
  217MOL0     H29929   9.943   2.566   2.960  1.6622  0.2210 -1.2891
  217MOL0     H29930   9.399   1.847   1.173  0.4368  1.3690  1.1406
  217MOL0     H29931   9.323   1.753   0.959 -2.4054  0.7774 -0.8411
  217MOL0     H29932   9.294   1.945   0.454 -1.4211  0.4434  4.2639
  217MOL0     H29933   9.272   1.830   0.239 -0.3018 -2.5186 -1.1566
  217MOL0     H29934   9.237   1.482   0.237  0.7737  0.5437  1.2749
  217MOL0     H29935   9.144   1.473   0.100 -0.7435 -0.1136  0.9319
  217MOL0     H29936   9.377   1.517   0.047  0.0701  0.5567 -0.7426
  217MOL0     H29937   9.379   1.669   0.131  0.1622 -0.8649 -0.4130
  217MOL0     H29938   9.240   1.576  -0.110 -0.4497 -0.1941  0.1362
  217MOL0     H29939   9.181   1.724  -0.049  0.3008  0.8112 -0.1288
  217MOL0     H29940   9.468   1.693  -0.138  1.9201  2.8587  2.4412
  217MOL0     H29941   9.392   1.836  -0.082  2.0129  0.4893 -2.3237
  217MOL0     H29942   9.249   1.801  -0.487  1.4148 -2.8602 -0.4010
  217MOL0     H29943   8.972   1.575   0.392  0.5563  0.1327 -0.7613
  217MOL0     H29944   8.933   1.564   0.609  0.4155  0.5209 -0.5638
  217MOL0     H29945   9.049   1.643   0.720  3.9015 -1.5476 -2.0270
  217MOL0     H29946   8.885   1.721   0.675 -1.3034  0.3057 -4.4885
  218MOL0     O29947   7.413  10.974   8.159 -0.2939  0.3077  1.0128
  218MOL0     C29948   7.461  10.863   8.143 -0.2008  0.7024  0.5349
  218MOL0     O29949   7.528  10.819   8.033  0.5939 -0.8922 -0.1976
  218MOL0     C29950   7.546  10.903   7.934  0.3565  0.9145 -0.1238
  218MOL0     C29951   7.673  10.946   7.914  0.3631  0.3522 -0.0996
  218MOL0     C29952   7.703  11.043   7.816  0.1372 -0.0930 -0.6826
  218MOL0     C29953   7.608  11.093   7.735 -0.3305 -0.1015 -0.2118
  218MOL0     O29954   7.633  11.170   7.624  0.5265 -0.7554 -0.0366
  218MOL0     C29955   7.762  11.218   7.593  0.4919  0.2488 -0.4968
  218MOL0     C29956   7.781  11.338   7.494  0.9988 -0.4959 -0.6231
  218MOL0     C29957   7.781  11.468   7.573  0.1874 -0.1157 -0.5125
  218MOL0     C29958   7.655  11.496   7.658 -1.0006 -0.9508 -0.2040
  218MOL0     C29959   7.672  11.630   7.741 -0.6520  0.6639 -0.4567
  218MOL0     C29960   7.536  11.706   7.772  0.0851 -0.9818  0.5552
  218MOL0     C29961   7.573  11.831   7.846  0.0534  0.8150  0.1243
  218MOL0     C29962   7.456  11.932   7.883  1.7379  0.7187  0.0147
  218MOL0     N29963   7.422  12.015   7.772 -0.0930 -1.0729  0.4982
  218MOL0     C29964   7.349  11.973   7.667 -0.1432  0.0438 -0.1593
  218MOL0     C29965   7.317  12.080   7.594  0.7698  0.4659 -0.4080
  218MOL0     C29966   7.246  12.081   7.463  0.0507 -1.1492  0.5307
  218MOL0     C29967   7.336  12.111   7.337  0.6453  0.9261 -0.0570
  218MOL0     C29968   7.447  11.991   7.333  0.4544 -0.8686 -0.9934
  218MOL0     C29969   7.485  11.984   7.189  0.8715  0.4078 -0.9375
  218MOL0     O29970   7.369  11.946   7.117 -0.4251  0.2845 -0.1690
  218MOL0     C29971   7.382  11.915   6.981  0.9210 -0.2779 -0.8254
  218MOL0     C29972   7.512  11.932   6.921  0.2923  0.0765  0.1645
  218MOL0     C29973   7.528  11.904   6.786  0.4973  0.8989  0.3793
  218MOL0     C29974   7.663  11.935   6.710 -1.1454  0.0412  0.4989
  218MOL0     C29975   7.413  11.868   6.711 -0.0817  0.4934 -0.1524
  218MOL0     C29976   7.428  11.815   6.575  1.3370 -0.0244 -0.7020
  218MOL0     O29977   7.480  11.892   6.483 -0.4220 -0.0900  0.1290
  218MOL0     C29978   7.460  11.876   6.348  0.1819 -0.5474 -0.6937
  218MOL0     C29979   7.488  11.990   6.268 -0.3120  0.2471 -0.6780
  218MOL0     C29980   7.483  11.980   6.127  1.2583 -0.1141  0.8148
  218MOL0     C29981   7.418  11.867   6.060  0.1547 -0.5832 -1.2653
  218MOL0     O29982   7.409  11.861   5.927 -0.3908  0.4367 -0.3137
  218MOL0     C29983   7.391  11.981   5.856 -0.9606 -0.1957  0.2543
  218MOL0     C29984   7.288  11.967   5.746 -0.6348 -0.5304 -0.3000
  218MOL0     C29985   7.291  11.835   5.669  0.7074  0.1316  0.0038
  218MOL0     C29986   7.410  11.835   5.578 -0.2036  0.6302  0.5901
  218MOL0     C29987   7.450  11.698   5.524  0.5145 -0.6067 -0.5937
  218MOL0     C29988   7.462  11.575   5.610  0.5425  0.5737 -0.2657
  218MOL0     C29989   7.548  11.610   5.743  0.5722  0.0487 -0.4749
  218MOL0     C29990   7.577  11.480   5.826 -1.1230  1.1356 -0.0210
  218MOL0    Cl29991   7.670  11.373   5.724 -0.7670  0.0232  0.1110
  218MOL0     C29992   7.391  11.761   6.136  0.1609  0.0157  0.8060
  218MOL0     C29993   7.416  11.759   6.278 -0.7895  0.2946 -0.0411
  218MOL0     O29994   7.379  11.700   6.559 -0.5623 -0.3019 -0.1160
  218MOL0     C29995   7.295  11.849   6.780  0.2260 -0.7832  0.9738
  218MOL0     C29996   7.278  11.866   6.915  1.0643  0.2449 -0.0859
  218MOL0     N29997   7.369  12.188   7.669  0.8285 -0.7804  0.8001
  218MOL0     N29998   7.435  12.147   7.767  0.0408 -0.2087  0.0734
  218MOL0     C29999   7.479  11.037   7.751  0.0776 -0.1384 -0.3325
  218MOL0     C30000   7.447  10.938   7.846  0.1380 -0.1637  0.8630
  218MOL0     C30001   7.423  10.753   8.235  0.3094  0.6256 -0.4213
  218MOL0     C30002   7.519  10.661   8.287  0.0877  0.2787  0.6588
  218MOL0     C30003   7.475  10.560   8.373  0.2136 -0.5551 -0.5656
  218MOL0     C30004   7.345  10.555   8.437 -0.5330 -0.0329  0.5922
  218MOL0     O30005   7.314  10.460   8.520  0.4346  0.2554 -0.9564
  218MOL0     C30006   7.226  10.354   8.471 -0.2575 -0.8476  0.2685
  218MOL0     C30007   7.176  10.250   8.573  0.3190  0.7113 -0.1711
  218MOL0     C30008   7.289  10.174   8.661 -0.0098 -0.4698  0.1794
  218MOL0     C30009   7.434  10.170   8.606 -0.2651  0.3141 -0.6889
  218MOL0     C30010   7.508  10.079   8.690 -0.9604 -0.4506 -0.3378
  218MOL0     C30011   7.574   9.997   8.751 -0.5061  0.4705  1.0917
  218MOL0     C30012   7.248  10.636   8.377  0.4603 -0.0003  0.4537
  218MOL0     C30013   7.283  10.731   8.285  0.1479 -1.1994  0.5416
  218MOL0     C30014   7.175  10.798   8.224 -0.3396 -0.1535  0.4335
  218MOL0     H30015   7.752  10.903   7.974 -1.4411 -0.1484  2.0312
  218MOL0     H30016   7.808  11.066   7.808  0.1417  0.5370  0.8335
  218MOL0     H30017   7.822  11.131   7.563  0.3562 -0.9374  2.3314
  218MOL0     H30018   7.809  11.248   7.687  3.6971  1.6655 -2.3693
  218MOL0     H30019   7.870  11.329   7.430  1.0401 -0.3041 -0.5936
  218MOL0     H30020   7.701  11.350   7.420  1.8121  2.5275 -1.1481
  218MOL0     H30021   7.872  11.471   7.633  1.1852 -0.5253 -1.9479
  218MOL0     H30022   7.785  11.556   7.508 -1.2995  2.2765  2.3912
  218MOL0     H30023   7.571  11.522   7.592 -2.2068  2.1420  2.2860
  218MOL0     H30024   7.623  11.418   7.728  0.4749  0.7379  2.5048
  218MOL0     H30025   7.723  11.704   7.678 -2.0888  2.1542  0.0580
  218MOL0     H30026   7.736  11.613   7.827 -1.2276 -2.8489 -0.5719
  218MOL0     H30027   7.497  11.731   7.673  3.1889 -2.1330 -1.1200
  218MOL0     H30028   7.470  11.641   7.830  1.2026 -2.4939  0.2282
  218MOL0     H30029   7.656  11.887   7.800 -0.6939  1.5885 -0.3085
  218MOL0     H30030   7.610  11.790   7.941 -0.5737  0.7225  0.3295
  218MOL0     H30031   7.379  11.861   7.916  1.0249 -0.0766 -3.0651
  218MOL0     H30032   7.482  11.999   7.965  2.0150  3.6126 -2.2567
  218MOL0     H30033   7.316  11.873   7.641  0.3532 -0.2923  0.4806
  218MOL0     H30034   7.174  12.161   7.481  1.0000 -0.4729  1.4302
  218MOL0     H30035   7.201  11.983   7.449  1.1805 -2.1133  3.1179
  218MOL0     H30036   7.270  12.124   7.252 -1.6919  6.3816  2.0868
  218MOL0     H30037   7.376  12.213   7.343 -2.1076  2.0683  4.5197
  218MOL0     H30038   7.533  12.007   7.399 -0.1572 -0.4215 -0.2854
  218MOL0     H30039   7.401  11.896   7.360  0.6998 -0.8604 -0.5203
  218MOL0     H30040   7.512  12.082   7.150 -1.9492  1.0998 -1.4340
  218MOL0     H30041   7.564  11.909   7.185  1.0595  0.4959  0.5532
  218MOL0     H30042   7.605  11.964   6.967  0.6547 -1.0631  0.2484
  218MOL0     H30043   7.650  12.012   6.634 -1.2096 -0.9800 -0.5563
  218MOL0     H30044   7.718  11.850   6.667 -0.6689 -0.3761  1.8685
  218MOL0     H30045   7.730  11.973   6.788 -2.9260  1.0225  1.6149
  218MOL0     H30046   7.511  12.076   6.330 -0.7449  0.3015 -0.5931
  218MOL0     H30047   7.521  12.062   6.068  2.3125 -1.9637 -1.2161
  218MOL0     H30048   7.361  12.069   5.914  0.4916 -0.9345  2.2274
  218MOL0     H30049   7.490  12.006   5.816 -0.2644 -0.0916  1.9246
  218MOL0     H30050   7.193  11.961   5.800  0.1876 -3.3442  1.0368
  218MOL0     H30051   7.276  12.038   5.664 -1.1207  1.6301  1.5656
  218MOL0     H30052   7.207  11.820   5.600  1.7147 -1.4024 -0.9726
  218MOL0     H30053   7.288  11.747   5.734  2.0625  1.7512  2.4264
  218MOL0     H30054   7.499  11.865   5.632  0.8143 -0.3821 -0.4467
  218MOL0     H30055   7.398  11.908   5.497  4.0301  1.0758  0.1496
  218MOL0     H30056   7.366  11.670   5.460 -1.7064 -1.1849  2.3094
  218MOL0     H30057   7.539  11.699   5.461  0.6698 -1.1462 -0.3862
  218MOL0     H30058   7.503  11.498   5.544 -1.1763 -1.6911  1.1985
  218MOL0     H30059   7.370  11.531   5.648  2.0869 -1.3609  1.4728
  218MOL0     H30060   7.497  11.685   5.804  0.7001 -1.7977  2.0830
  218MOL0     H30061   7.644  11.645   5.705  0.0773 -0.1676 -2.0200
  218MOL0     H30062   7.484  11.429   5.854  0.2485 -0.3495  2.0658
  218MOL0     H30063   7.625  11.497   5.923  0.3009  1.2809 -0.7226
  218MOL0     H30064   7.358  11.671   6.084  0.3683  1.0912 -1.2874
  218MOL0     H30065   7.397  11.668   6.335 -2.7326 -0.3663 -1.6151
  218MOL0     H30066   7.223  11.799   6.716  0.9730 -4.4698  2.7300
  218MOL0     H30067   7.181  11.857   6.964  0.8313  1.8977 -0.2083
  218MOL0     H30068   7.407  11.083   7.685  2.1575  0.4707 -2.3147
  218MOL0     H30069   7.348  10.893   7.856  0.9687 -3.5949 -2.9809
  218MOL0     H30070   7.624  10.673   8.260 -0.1655  1.2987  0.1000
  218MOL0     H30071   7.539  10.482   8.412  0.5096 -1.3540 -2.5699
  218MOL0     H30072   7.149  10.402   8.409  0.7773  2.9421  1.6233
  218MOL0     H30073   7.288  10.295   8.403  0.9869  0.6285  0.0751
  218MOL0     H30074   7.120  10.173   8.519  0.2139  1.4096 -1.0707
  218MOL0     H30075   7.106  10.293   8.644  1.8735  0.0504  1.8677
  218MOL0     H30076   7.284  10.218   8.761 -0.6884 -0.9253  0.3590
  218MOL0     H30077   7.247  10.073   8.669 -0.3530 -0.2123  2.5758
  218MOL0     H30078   7.481  10.267   8.589  3.6008 -0.7395  2.4506
  218MOL0     H30079   7.426  10.130   8.504 -1.7198  3.0659 -1.7743
  218MOL0     H30080   7.641   9.928   8.799 -1.8201 -2.1329 -0.6015
  218MOL0     H30081   7.146  10.647   8.412  1.3812  3.1625  2.5525
  218MOL0     H30082   7.166  10.900   8.263  0.9618  1.3229 -2.7717
  218MOL0     H30083   7.192  10.799   8.116 -0.6967  0.7854  0.3740
  218MOL0     H30084   7.084  10.739   8.235  0.6307 -1.7286  0.3526
  219MOL0     O30085   9.049   7.725   9.529  0.7113  0.2270 -0.1060
  219MOL0     C30086   8.954   7.796   9.511  0.1591  0.0464  0.2799
  219MOL0     O30087   8.827   7.759   9.473 -0.1104  0.5720 -0.1353
  219MOL0     C30088   8.780   7.629   9.465 -0.1490 -0.0181  0.8385
  219MOL0     C30089   8.636   7.625   9.458  0.5257 -0.5697 -0.5163
  219MOL0     C30090   8.577   7.505   9.424  0.8552  0.4950 -0.9749
  219MOL0     C30091   8.646   7.388   9.400 -0.9337 -1.0424  0.5618
  219MOL0     O30092   8.569   7.280   9.353 -1.1614 -0.6440 -0.0058
  219MOL0     C30093   8.617   7.149   9.360 -0.1631  0.8098 -1.0009
  219MOL0     C30094   8.494   7.066   9.370  0.1986 -0.2699  0.0620
  219MOL0     C30095   8.530   6.923   9.422 -0.4957  0.4215  0.1677
  219MOL0     C30096   8.413   6.824   9.393  0.1198 -0.1743  0.6711
  219MOL0     C30097   8.463   6.681   9.459  1.4542 -0.8438  0.0123
  219MOL0     C30098   8.460   6.680   9.616 -0.1803 -0.2714  0.9347
  219MOL0     C30099   8.499   6.552   9.678 -0.2675  0.5206  0.0714
  219MOL0     C30100   8.412   6.427   9.667 -0.4764 -0.1122 -0.0597
  219MOL0     N30101   8.278   6.432   9.721 -0.1161 -0.2526 -0.0802
  219MOL0     C30102   8.163   6.406   9.653  0.7045  0.3732  0.4279
  219MOL0     C30103   8.071   6.386   9.749  0.4209  0.4542  0.2056
  219MOL0     C30104   7.932   6.339   9.731 -0.3169 -0.2028  0.5807
  219MOL0     C30105   7.825   6.448   9.714  0.3581  1.6149 -1.0991
  219MOL0     C30106   7.786   6.521   9.843  0.2802  0.2434 -0.8674
  219MOL0     C30107   7.758   6.434   9.970 -0.1302 -0.4075  0.7374
  219MOL0     O30108   7.654   6.337   9.961  0.1989 -0.0871 -0.1781
  219MOL0     C30109   7.621   6.255  10.065 -0.1553  0.8867  0.0658
  219MOL0     C30110   7.509   6.174  10.049 -0.2878 -0.5899  0.2068
  219MOL0     C30111   7.467   6.092  10.153 -0.1641  0.3347  0.3773
  219MOL0     C30112   7.361   5.988  10.117  0.3172  0.1954  0.4647
  219MOL0     C30113   7.537   6.099  10.277  0.4148 -0.5181 -0.2562
  219MOL0     C30114   7.491   6.011  10.386  0.2218 -0.1034  0.1003
  219MOL0     O30115   7.359   5.964  10.384 -0.4426  0.0289 -0.6876
  219MOL0     C30116   7.340   5.850  10.470 -0.2829  0.1332 -0.1488
  219MOL0     C30117   7.311   5.859  10.609 -0.5699 -0.5776  0.2346
  219MOL0     C30118   7.276   5.749  10.676 -0.0960 -0.4172 -0.6047
  219MOL0     C30119   7.275   5.624  10.626  0.0352  0.8488 -0.4738
  219MOL0     O30120   7.246   5.527  10.710 -0.4828  0.1420 -0.6130
  219MOL0     C30121   7.178   5.410  10.660 -0.0136 -0.9352  0.0847
  219MOL0     C30122   7.117   5.329  10.783  0.2494 -1.1405  1.4978
  219MOL0     C30123   7.082   5.179  10.756  1.1116 -0.0865  0.0174
  219MOL0     C30124   7.002   5.110  10.861 -0.2700 -0.8817  0.5177
  219MOL0     C30125   6.861   5.171  10.855 -0.3952  0.4140  0.4654
  219MOL0     C30126   6.754   5.107  10.952 -0.5264 -0.8968  0.4686
  219MOL0     C30127   6.712   4.960  10.914  0.3452  0.6592 -0.1128
  219MOL0     C30128   6.598   4.917  11.007 -0.4769  0.1380 -0.3563
  219MOL0    Cl30129   6.571   4.733  10.999  0.2550 -0.3669 -0.0548
  219MOL0     C30130   7.302   5.607  10.488 -0.0135 -0.3772 -0.7642
  219MOL0     C30131   7.338   5.720  10.415 -0.2580  0.1386 -0.1179
  219MOL0     O30132   7.578   5.984  10.468 -0.1973 -0.0334 -0.3914
  219MOL0     C30133   7.655   6.176  10.287  0.6050  0.3044  0.4199
  219MOL0     C30134   7.701   6.252  10.179  0.4551 -0.1222  0.7334
  219MOL0     N30135   8.122   6.412   9.875 -0.6060 -0.6711  0.5487
  219MOL0     N30136   8.246   6.449   9.853  0.7283  0.4915  0.4040
  219MOL0     C30137   8.782   7.397   9.413  0.4502 -0.8565  0.7363
  219MOL0     C30138   8.845   7.511   9.443 -0.0391 -0.2478 -0.1275
  219MOL0     C30139   8.972   7.942   9.493 -0.6479  0.3027  0.3437
  219MOL0     C30140   8.971   8.021   9.609 -0.2027 -1.0040 -0.3290
  219MOL0     C30141   9.004   8.159   9.601 -0.3929  0.0475  0.4005
  219MOL0     C30142   9.049   8.218   9.486  1.0712 -0.4363  0.8010
  219MOL0     O30143   9.084   8.345   9.468 -0.0665 -0.2318  0.4833
  219MOL0     C30144   9.049   8.435   9.576  0.2588 -0.7024  0.6544
  219MOL0     C30145   9.040   8.577   9.526  0.4072 -0.0449 -0.5158
  219MOL0     C30146   8.941   8.602   9.410  0.1031  0.2323  0.4010
  219MOL0     C30147   8.857   8.727   9.426  0.4256 -0.0192  0.0467
  219MOL0     C30148   8.736   8.730   9.346 -0.2917  0.1960  0.8337
  219MOL0     C30149   8.620   8.740   9.299 -0.0083 -0.4519  0.1985
  219MOL0     C30150   9.058   8.133   9.372 -0.0428 -0.1552  0.7368
  219MOL0     C30151   9.028   8.000   9.380  0.4265  0.4623  0.3913
  219MOL0     C30152   9.054   7.920   9.251 -0.5163 -0.6273  0.7502
  219MOL0     H30153   8.593   7.723   9.473  1.2569  0.1672 -2.8934
  219MOL0     H30154   8.471   7.492   9.402  0.1351 -1.0635  2.7022
  219MOL0     H30155   8.681   7.139   9.448  0.3267  1.8299 -1.2283
  219MOL0     H30156   8.666   7.139   9.262  1.0686  0.3906 -0.3667
  219MOL0     H30157   8.429   7.113   9.444  0.5913  1.5570 -0.7014
  219MOL0     H30158   8.455   7.055   9.268  0.5191 -2.5489  0.1376
  219MOL0     H30159   8.620   6.890   9.371  0.5360  0.8308  1.6497
  219MOL0     H30160   8.549   6.930   9.530 -2.6028  0.2440  0.5918
  219MOL0     H30161   8.317   6.852   9.436 -0.3245 -0.6419  0.0016
  219MOL0     H30162   8.394   6.822   9.286  0.0532 -1.2712  0.6949
  219MOL0     H30163   8.565   6.662   9.424  0.3907 -2.5184 -2.4287
  219MOL0     H30164   8.399   6.607   9.411  0.8535  0.0522 -0.6036
  219MOL0     H30165   8.545   6.747   9.636 -0.9951  1.7421 -1.8108
  219MOL0     H30166   8.369   6.724   9.658  0.0008  0.2593  0.7799
  219MOL0     H30167   8.534   6.562   9.781 -0.9072  1.6585  0.1992
  219MOL0     H30168   8.595   6.536   9.628  0.7035  1.4158  1.5917
  219MOL0     H30169   8.411   6.404   9.560  0.0429 -2.2163  0.3468
  219MOL0     H30170   8.472   6.353   9.720  1.4260  1.9411  0.8302
  219MOL0     H30171   8.151   6.382   9.548 -1.3152  1.8057  0.2683
  219MOL0     H30172   7.917   6.262   9.807  2.0449 -0.1662  1.1660
  219MOL0     H30173   7.953   6.292   9.634 -0.8005 -0.9886  0.8477
  219MOL0     H30174   7.833   6.513   9.626 -3.3468  2.8845 -0.7000
  219MOL0     H30175   7.738   6.386   9.690  0.2113  2.6991 -3.7013
  219MOL0     H30176   7.862   6.598   9.861 -2.0256  2.6890 -0.7611
  219MOL0     H30177   7.698   6.586   9.834 -0.8569 -0.7097  1.9681
  219MOL0     H30178   7.851   6.380   9.991  0.5922  0.3214 -0.5047
  219MOL0     H30179   7.734   6.512  10.043 -1.8806  0.2597 -0.4950
  219MOL0     H30180   7.465   6.170   9.950  3.6313 -0.9308 -1.7076
  219MOL0     H30181   7.339   5.997  10.010  0.5190 -0.5779  0.3540
  219MOL0     H30182   7.265   5.995  10.169  0.7370  0.2346  1.2470
  219MOL0     H30183   7.403   5.888  10.127  0.4636  0.2915  0.8363
  219MOL0     H30184   7.324   5.954  10.661 -2.8019  3.2184 -5.2950
  219MOL0     H30185   7.259   5.743  10.783  1.3356 -3.0356 -0.4295
  219MOL0     H30186   7.086   5.426  10.601 -1.8087 -3.9394  1.8108
  219MOL0     H30187   7.250   5.346  10.609 -4.1172 -3.7149 -2.9752
  219MOL0     H30188   7.178   5.346  10.873 -0.8282  2.7019  1.7059
  219MOL0     H30189   7.026   5.377  10.820 -1.3705 -4.2447  1.8827
  219MOL0     H30190   7.184   5.138  10.747  1.9692  1.2660  2.6640
  219MOL0     H30191   7.034   5.174  10.658  2.3452  1.1639 -0.6887
  219MOL0     H30192   7.060   5.119  10.953  1.7414 -1.7439 -0.5715
  219MOL0     H30193   7.006   5.006  10.828  1.0143  0.0695 -2.7952
  219MOL0     H30194   6.867   5.273  10.895  1.8139  0.5083  0.0098
  219MOL0     H30195   6.831   5.183  10.751  2.9721  2.3856 -0.4566
  219MOL0     H30196   6.664   5.170  10.951  1.6940  2.5218 -0.3899
  219MOL0     H30197   6.802   5.109  11.050  0.1212 -1.1058  0.1585
  219MOL0     H30198   6.786   4.883  10.937 -1.4896 -1.0771  0.2549
  219MOL0     H30199   6.671   4.952  10.812  0.3165 -1.8615  0.0417
  219MOL0     H30200   6.503   4.968  10.987 -1.9957 -2.7095 -0.8938
  219MOL0     H30201   6.620   4.945  11.110  1.4966  0.2831 -0.7781
  219MOL0     H30202   7.300   5.513  10.434 -0.1328 -1.0517  0.3753
  219MOL0     H30203   7.368   5.715  10.311 -0.7263 -0.8010 -0.2149
  219MOL0     H30204   7.705   6.186  10.383 -3.0111  2.8587  2.2534
  219MOL0     H30205   7.783   6.323  10.175  0.6374 -0.3761 -0.1104
  219MOL0     H30206   8.840   7.309   9.385 -1.3217 -1.9919  0.5320
  219MOL0     H30207   8.953   7.507   9.455 -0.0251  3.4648  2.6860
  219MOL0     H30208   8.952   7.978   9.706  1.6531  0.3065  0.6812
  219MOL0     H30209   9.006   8.223   9.688  1.1532 -0.5279  0.8063
  219MOL0     H30210   8.950   8.409   9.615  0.3812 -0.5607  1.0746
  219MOL0     H30211   9.116   8.435   9.663  0.4425  2.0959  0.6306
  219MOL0     H30212   9.135   8.622   9.497 -1.4399  3.7785 -1.1307
  219MOL0     H30213   8.999   8.628   9.614 -2.3339 -4.3818  1.0733
  219MOL0     H30214   8.997   8.602   9.315  0.4855 -0.3056  0.6177
  219MOL0     H30215   8.870   8.521   9.393 -0.5142  1.0403 -1.1353
  219MOL0     H30216   8.914   8.819   9.410 -1.2714  1.1294  0.4043
  219MOL0     H30217   8.824   8.715   9.529  0.4489 -2.0730 -0.1394
  219MOL0     H30218   8.518   8.766   9.279  0.0636  0.2239  0.6739
  219MOL0     H30219   9.101   8.180   9.284  0.4017 -0.6877  0.6611
  219MOL0     H30220   9.160   7.926   9.225 -1.1475 -2.7324 -2.9750
  219MOL0     H30221   9.034   7.813   9.255  0.6242 -0.8535  0.9300
  219MOL0     H30222   9.002   7.962   9.165  0.7807 -0.1087  0.1891
  220MOL0     O30223   2.053   7.570   0.197  0.8925 -0.2633  0.4646
  220MOL0     C30224   1.983   7.523   0.290  0.4286 -0.2069 -0.7268
  220MOL0     O30225   1.846   7.542   0.312 -0.1335  0.4317  0.1847
  220MOL0     C30226   1.796   7.659   0.258 -0.0773  0.9009 -0.6282
  220MOL0     C30227   1.763   7.666   0.119 -0.9544  0.3444 -0.9044
  220MOL0     C30228   1.700   7.789   0.082  0.5561  0.0674  0.0036
  220MOL0     C30229   1.673   7.906   0.162  0.4231  0.2061  0.3421
  220MOL0     O30230   1.616   8.019   0.118  0.0459 -0.0549 -0.1146
  220MOL0     C30231   1.596   8.037  -0.018  0.1695  0.2325  1.2689
  220MOL0     C30232   1.532   8.171  -0.034 -1.0577  0.1095  0.5518
  220MOL0     C30233   1.546   8.211  -0.187 -0.6531  0.6768 -0.6075
  220MOL0     C30234   1.488   8.352  -0.209 -0.6516 -0.4899 -0.5358
  220MOL0     C30235   1.580   8.460  -0.148 -0.0544  0.3050  0.1571
  220MOL0     C30236   1.552   8.599  -0.217 -0.6057  0.5298  1.1265
  220MOL0     C30237   1.414   8.650  -0.204 -0.8076 -0.2013  0.1748
  220MOL0     C30238   1.375   8.767  -0.289  0.5274  1.0808 -0.7336
  220MOL0     N30239   1.237   8.818  -0.286 -0.5630  0.2780 -0.1152
  220MOL0     C30240   1.196   8.945  -0.274 -0.3361 -0.5367  0.3485
  220MOL0     C30241   1.062   8.948  -0.315  0.1968  0.3547 -0.6117
  220MOL0     C30242   0.962   9.064  -0.345 -0.2529 -0.7197  0.1518
  220MOL0     C30243   1.013   9.136  -0.467  0.1559  0.2282 -0.5414
  220MOL0     C30244   0.926   9.263  -0.498  0.1929  0.0718 -0.3289
  220MOL0     C30245   0.945   9.319  -0.632  0.6119  0.7796  0.3224
  220MOL0     O30246   1.083   9.344  -0.651 -0.2933 -0.2537 -0.6158
  220MOL0     C30247   1.121   9.456  -0.730 -0.8838  0.1873 -0.2827
  220MOL0     C30248   1.243   9.500  -0.700 -0.4207  0.8078 -0.2163
  220MOL0     C30249   1.311   9.594  -0.770  0.0171 -0.2352 -0.1204
  220MOL0     C30250   1.441   9.634  -0.715 -0.8395  0.0592  0.0826
  220MOL0     C30251   1.250   9.656  -0.880  0.8001  0.8774 -1.1084
  220MOL0     C30252   1.297   9.772  -0.959 -0.5174  0.5191  0.2710
  220MOL0     O30253   1.275   9.773  -1.094 -0.3254 -0.6567 -1.2056
  220MOL0     C30254   1.347   9.868  -1.164 -0.4075 -0.0604  0.0373
  220MOL0     C30255   1.433   9.824  -1.285  1.0727  0.5184 -0.0661
  220MOL0     C30256   1.508   9.920  -1.360 -0.3822  0.3530  0.4675
  220MOL0     C30257   1.487  10.056  -1.344 -0.4936  0.6117 -0.5687
  220MOL0     O30258   1.565  10.137  -1.424  0.5559 -0.1716 -0.3414
  220MOL0     C30259   1.583  10.268  -1.373 -0.3002 -0.3816  0.2511
  220MOL0     C30260   1.710  10.332  -1.435 -0.7843  0.8701 -0.0394
  220MOL0     C30261   1.751  10.449  -1.348  0.3431 -0.6141 -0.0573
  220MOL0     C30262   1.662  10.570  -1.359  0.5730  0.4063  0.4015
  220MOL0     C30263   1.693  10.651  -1.229  0.0545 -0.2438 -0.7200
  220MOL0     C30264   1.837  10.686  -1.190  0.6009  0.1620 -0.3638
  220MOL0     C30265   1.842  10.771  -1.073  0.1676 -0.0806 -0.5615
  220MOL0     C30266   1.776  10.913  -1.079 -0.2419  0.3911  0.0643
  220MOL0    Cl30267   1.803  10.987  -1.243  0.3302 -0.3732 -0.4584
  220MOL0     C30268   1.390  10.088  -1.242 -0.6614  0.0536  0.5978
  220MOL0     C30269   1.343  10.006  -1.145  0.1068  0.5342 -0.4847
  220MOL0     O30270   1.366   9.853  -0.898 -0.2002  0.1689  0.1613
  220MOL0     C30271   1.123   9.611  -0.914 -0.3976  1.6317  0.1120
  220MOL0     C30272   1.055   9.510  -0.844  0.2874  0.3779 -0.1646
  220MOL0     N30273   1.027   8.813  -0.332 -0.9272 -0.1827  0.4661
  220MOL0     N30274   1.134   8.734  -0.321 -0.4761 -0.4083 -0.9977
  220MOL0     C30275   1.712   7.894   0.298  0.8127  0.3891  0.6576
  220MOL0     C30276   1.773   7.770   0.342  0.2959  0.1501  0.1790
  220MOL0     C30277   2.066   7.471   0.405  0.1455 -0.4375  0.0379
  220MOL0     C30278   2.011   7.499   0.529 -0.4936  0.7770  0.4559
  220MOL0     C30279   2.067   7.458   0.650 -0.1818  0.1179 -0.3994
  220MOL0     C30280   2.190   7.393   0.647 -0.0130  0.1040  0.1948
  220MOL0     O30281   2.268   7.348   0.761 -0.2663  0.8414 -0.1574
  220MOL0     C30282   2.200   7.355   0.889 -0.0300 -0.0606 -0.4039
  220MOL0     C30283   2.277   7.287   1.004  0.8458  0.1489  0.6622
  220MOL0     C30284   2.336   7.156   0.959 -0.5770 -0.2546 -1.4708
  220MOL0     C30285   2.364   7.052   1.066  0.0636 -0.5220 -0.7122
  220MOL0     C30286   2.441   7.107   1.176 -0.1117 -0.6500  0.5603
  220MOL0     C30287   2.476   7.166   1.272 -0.2890  0.9358  0.3145
  220MOL0     C30288   2.247   7.366   0.523 -0.5119  0.0203 -0.3499
  220MOL0     C30289   2.187   7.404   0.403 -0.5915 -0.0746  0.9336
  220MOL0     C30290   2.256   7.375   0.271 -0.5318 -0.1401  0.1382
  220MOL0     H30291   1.765   7.579   0.055 -1.4821 -1.6150  1.5705
  220MOL0     H30292   1.677   7.803  -0.024  0.6056 -1.1997 -0.1937
  220MOL0     H30293   1.521   7.964  -0.052  0.8929 -1.1436  2.5236
  220MOL0     H30294   1.690   8.030  -0.075  0.6917  2.5107  1.7673
  220MOL0     H30295   1.429   8.175   0.004 -0.4051  0.3224  2.3605
  220MOL0     H30296   1.598   8.232   0.027 -0.0024  1.7796 -2.1025
  220MOL0     H30297   1.650   8.207  -0.220 -0.9558 -1.2364 -1.4444
  220MOL0     H30298   1.493   8.131  -0.240  2.3759 -0.7109 -1.7755
  220MOL0     H30299   1.483   8.370  -0.317  2.4039  0.2044 -0.6387
  220MOL0     H30300   1.384   8.359  -0.175 -0.6946 -0.0017 -0.7623
  220MOL0     H30301   1.686   8.440  -0.165 -0.3974 -0.9342 -0.6537
  220MOL0     H30302   1.553   8.474  -0.042 -2.4219 -1.6839 -0.0896
  220MOL0     H30303   1.618   8.670  -0.168 -0.0931  1.6971 -1.1037
  220MOL0     H30304   1.585   8.589  -0.321  1.2116  0.2003  1.6909
  220MOL0     H30305   1.397   8.677  -0.099  1.3429 -1.2132  0.8475
  220MOL0     H30306   1.352   8.569  -0.242  0.2662  0.0478 -2.3499
  220MOL0     H30307   1.439   8.844  -0.244  1.7074 -0.4735  0.3931
  220MOL0     H30308   1.420   8.743  -0.385 -0.4948 -0.4292 -0.8765
  220MOL0     H30309   1.257   9.029  -0.241 -0.1098 -0.8293  0.6818
  220MOL0     H30310   0.961   9.138  -0.265  1.3030 -2.6783  2.1225
  220MOL0     H30311   0.865   9.016  -0.364 -0.1625 -0.5128 -0.9327
  220MOL0     H30312   1.113   9.175  -0.446 -0.3072  1.2587 -0.1538
  220MOL0     H30313   1.015   9.069  -0.553 -0.8181  1.7556 -1.8163
  220MOL0     H30314   0.829   9.234  -0.457 -1.1616  3.4520 -0.8266
  220MOL0     H30315   0.962   9.341  -0.430  1.0116  0.1956 -0.8962
  220MOL0     H30316   0.912   9.235  -0.693 -1.9871  2.4344 -0.7364
  220MOL0     H30317   0.884   9.408  -0.653 -0.3424 -0.6696 -4.1983
  220MOL0     H30318   1.298   9.450  -0.621 -6.0147 -1.3254  2.9172
  220MOL0     H30319   1.520   9.647  -0.788  1.4014 -2.1705  1.9171
  220MOL0     H30320   1.483   9.563  -0.643 -0.5552 -1.0603 -1.1397
  220MOL0     H30321   1.413   9.723  -0.657 -0.7968  1.5255 -2.0516
  220MOL0     H30322   1.437   9.718  -1.306 -0.9444 -0.5766  3.9247
  220MOL0     H30323   1.582   9.903  -1.438 -0.7939 -1.1780  0.3742
  220MOL0     H30324   1.506  10.340  -1.403  1.2742  0.8929 -0.9297
  220MOL0     H30325   1.582  10.264  -1.264 -0.0725  1.6646  0.3723
  220MOL0     H30326   1.793  10.262  -1.442  0.1741  1.9754 -0.0851
  220MOL0     H30327   1.685  10.358  -1.538  4.1209  0.4981 -1.5630
  220MOL0     H30328   1.839  10.494  -1.394 -0.5532 -0.6054 -1.8452
  220MOL0     H30329   1.783  10.421  -1.247  4.0049 -1.7614 -1.3687
  220MOL0     H30330   1.555  10.547  -1.361  0.9426 -1.7713  2.0955
  220MOL0     H30331   1.676  10.630  -1.450 -0.4880  2.0531  1.2783
  220MOL0     H30332   1.633  10.742  -1.240 -1.5374 -1.4828 -3.0976
  220MOL0     H30333   1.664  10.594  -1.140  5.7062 -0.3564  1.4909
  220MOL0     H30334   1.886  10.748  -1.266  1.1070  0.9660  0.5995
  220MOL0     H30335   1.898  10.596  -1.181 -0.3535 -0.5026 -0.3782
  220MOL0     H30336   1.948  10.789  -1.055  0.5275  0.6794 -3.0862
  220MOL0     H30337   1.819  10.714  -0.983  2.8266 -1.4295 -0.6526
  220MOL0     H30338   1.799  10.985  -0.999 -1.1226  1.3768 -0.5462
  220MOL0     H30339   1.667  10.902  -1.078 -0.2775  0.7162 -0.2178
  220MOL0     H30340   1.377  10.195  -1.225  0.2739  0.5108 -1.2363
  220MOL0     H30341   1.292  10.043  -1.056 -0.6747  0.4041 -0.8661
  220MOL0     H30342   1.077   9.660  -0.999  1.6363  3.0225 -0.2675
  220MOL0     H30343   0.957   9.470  -0.865 -0.2486  0.5154  1.8515
  220MOL0     H30344   1.695   7.980   0.362  2.9674  1.2230  0.1751
  220MOL0     H30345   1.815   7.760   0.442  1.1582 -1.8157 -0.3306
  220MOL0     H30346   1.934   7.572   0.550  0.2067  2.9748 -3.5072
  220MOL0     H30347   2.031   7.497   0.744  0.7360  0.4165 -0.1540
  220MOL0     H30348   2.178   7.458   0.919  0.7590  0.1391 -0.4783
  220MOL0     H30349   2.105   7.301   0.890  0.3704 -0.7746 -0.5289
  220MOL0     H30350   2.216   7.269   1.093 -0.0567 -1.1149 -0.1742
  220MOL0     H30351   2.353   7.359   1.035  2.4316 -0.9742 -0.4036
  220MOL0     H30352   2.269   7.104   0.890 -0.4791 -0.1112 -1.6729
  220MOL0     H30353   2.425   7.180   0.901 -0.8098 -2.1815 -2.7326
  220MOL0     H30354   2.434   6.977   1.026  2.4049 -1.5358  4.4336
  220MOL0     H30355   2.269   7.006   1.095  1.5427 -1.8950  2.5831
  220MOL0     H30356   2.500   7.217   1.363  2.9984  2.9460 -1.4991
  220MOL0     H30357   2.332   7.299   0.518 -1.5801 -1.4250  0.0728
  220MOL0     H30358   2.192   7.316   0.204  1.5958 -1.8184 -0.5034
  220MOL0     H30359   2.286   7.471   0.228  0.3022 -0.7738 -0.7332
  220MOL0     H30360   2.350   7.325   0.295  0.2662  2.2168  2.4235
  221MOL0     O30361   5.685   5.635   8.930 -0.2405  0.4927  0.5003
  221MOL0     C30362   5.600   5.553   8.889 -0.0082 -0.1649 -0.1636
  221MOL0     O30363   5.511   5.491   8.969 -0.4213 -0.0107  0.3553
  221MOL0     C30364   5.509   5.525   9.104 -0.2705  0.1014 -0.0563
  221MOL0     C30365   5.601   5.458   9.186  1.1551 -0.6291 -0.0362
  221MOL0     C30366   5.631   5.495   9.327  0.5627 -0.0288  1.1514
  221MOL0     C30367   5.544   5.594   9.377  0.6238  0.1180 -1.4159
  221MOL0     O30368   5.592   5.660   9.491  0.5538 -0.6203  0.8271
  221MOL0     C30369   5.517   5.767   9.558 -0.2913  0.6095  0.3948
  221MOL0     C30370   5.608   5.807   9.674 -0.1153  0.7027 -0.2541
  221MOL0     C30371   5.588   5.710   9.796 -0.3536  1.2120 -0.1438
  221MOL0     C30372   5.623   5.775   9.929  0.1045 -0.3026  0.1809
  221MOL0     C30373   5.595   5.685  10.050 -0.1140  0.1381 -0.8848
  221MOL0     C30374   5.636   5.733  10.188  0.3900  1.4123  0.4998
  221MOL0     C30375   5.784   5.714  10.225 -1.0728 -0.1768 -0.6046
  221MOL0     C30376   5.800   5.707  10.376 -0.5418  1.0927 -0.4488
  221MOL0     N30377   5.942   5.690  10.408 -0.0131  0.7458  0.6311
  221MOL0     C30378   6.017   5.769  10.493  0.9422  0.0873 -0.0581
  221MOL0     C30379   6.145   5.724  10.487  1.0452  1.0443 -0.2735
  221MOL0     C30380   6.263   5.774  10.575  0.2392 -0.2317 -0.5081
  221MOL0     C30381   6.303   5.675  10.683  0.4499 -0.3181  0.3528
  221MOL0     C30382   6.331   5.529  10.636 -0.5285  0.2575 -0.5925
  221MOL0     C30383   6.369   5.433  10.755 -0.2309  0.9144  0.4560
  221MOL0     O30384   6.303   5.442  10.883 -0.0814 -0.7901  0.5466
  221MOL0     C30385   6.339   5.340  10.973  0.7576  0.7827  0.3416
  221MOL0     C30386   6.463   5.320  11.030  0.6679  0.1858 -0.1669
  221MOL0     C30387   6.477   5.243  11.149 -0.0842 -0.0673  0.4005
  221MOL0     C30388   6.611   5.268  11.220 -0.1459  0.0276 -0.8534
  221MOL0     C30389   6.372   5.159  11.189 -1.0757 -0.4227  0.0164
  221MOL0     C30390   6.396   5.051  11.303 -0.3146 -0.6375 -0.1304
  221MOL0     O30391   6.287   4.973  11.322  0.6533  0.3587  0.1828
  221MOL0     C30392   6.303   4.872  11.410 -0.5357 -0.7731  0.9538
  221MOL0     C30393   6.240   4.875  11.537  0.6838 -0.4205 -0.2911
  221MOL0     C30394   6.258   4.768  11.627  0.2939 -0.0549  0.6386
  221MOL0     C30395   6.336   4.655  11.594 -0.2613 -0.2175  0.7313
  221MOL0     O30396   6.351   4.558  11.683  0.4974  0.7072 -0.2749
  221MOL0     C30397   6.483   4.535  11.730 -0.7103 -0.2244  0.8273
  221MOL0     C30398   6.472   4.502  11.878  0.4219  0.2487 -0.0539
  221MOL0     C30399   6.598   4.523  11.968 -0.6976 -0.2908  0.2969
  221MOL0     C30400   6.646   4.666  11.961 -0.1665  0.2356 -0.0585
  221MOL0     C30401   6.737   4.718  12.077 -0.0556 -0.7889  0.2950
  221MOL0     C30402   6.654   4.726  12.209 -0.6519 -0.0059 -0.2054
  221MOL0     C30403   6.747   4.769  12.332  0.6695 -0.9517 -0.6599
  221MOL0     C30404   6.820   4.902  12.330  0.0968  0.7326  0.8352
  221MOL0    Cl30405   6.911   4.906  12.491 -0.2123  0.0272  0.1401
  221MOL0     C30406   6.376   4.641  11.462  0.1313 -0.6122 -0.1213
  221MOL0     C30407   6.366   4.757  11.374  0.0733 -0.9275  0.5142
  221MOL0     O30408   6.503   5.051  11.365 -1.2558  0.5919 -0.1636
  221MOL0     C30409   6.253   5.156  11.116  0.3114 -1.1393  0.4251
  221MOL0     C30410   6.232   5.255  11.015 -0.2243 -0.8195  0.6896
  221MOL0     N30411   6.145   5.603  10.421  0.0092  0.1601 -0.3263
  221MOL0     N30412   6.027   5.590  10.370  0.0411 -0.5371  1.0797
  221MOL0     C30413   5.427   5.634   9.303 -0.5375 -0.5710 -0.8046
  221MOL0     C30414   5.415   5.608   9.165  0.3224 -0.1341 -0.4325
  221MOL0     C30415   5.587   5.523   8.746 -0.2300  0.0314 -0.1350
  221MOL0     C30416   5.464   5.468   8.717  0.1042  0.4928  0.7253
  221MOL0     C30417   5.428   5.422   8.591 -0.3840 -0.3566 -1.4222
  221MOL0     C30418   5.507   5.442   8.481  0.1995  0.5356  0.5930
  221MOL0     O30419   5.470   5.403   8.354  0.2035  0.1137 -0.0128
  221MOL0     C30420   5.355   5.329   8.341 -0.9341  0.5108  0.3805
  221MOL0     C30421   5.329   5.347   8.190  0.3395  0.2975 -0.3125
  221MOL0     C30422   5.209   5.242   8.153 -1.0941  0.3836  1.2519
  221MOL0     C30423   5.165   5.271   8.006  1.0208  0.2755 -0.7282
  221MOL0     C30424   5.052   5.188   7.967 -0.2855 -0.8143  0.6372
  221MOL0     C30425   4.941   5.135   7.955 -0.4870  0.1876 -0.1222
  221MOL0     C30426   5.633   5.504   8.507  0.5939  0.5912  0.5234
  221MOL0     C30427   5.682   5.540   8.643  0.6957 -0.0789 -0.9773
  221MOL0     C30428   5.813   5.612   8.667  0.3282 -0.6873  0.6475
  221MOL0     H30429   5.658   5.386   9.127 -0.6387 -4.0067  2.0417
  221MOL0     H30430   5.710   5.474   9.399  0.9837  1.5867  1.2150
  221MOL0     H30431   5.422   5.726   9.593  0.3298 -0.2071  1.1595
  221MOL0     H30432   5.504   5.847   9.485  3.4079 -0.6023 -1.8816
  221MOL0     H30433   5.714   5.806   9.649 -0.3467 -0.9121 -1.3288
  221MOL0     H30434   5.582   5.909   9.703  0.3605  0.8033 -0.1676
  221MOL0     H30435   5.485   5.673   9.794 -0.2858  0.8441 -3.8596
  221MOL0     H30436   5.642   5.615   9.792 -1.1838  0.7643 -1.3337
  221MOL0     H30437   5.730   5.798   9.932  0.1011  0.1737 -2.1797
  221MOL0     H30438   5.560   5.864   9.936 -0.1118 -0.1780 -2.4558
  221MOL0     H30439   5.645   5.589  10.032  0.4979  0.9169 -3.7719
  221MOL0     H30440   5.488   5.665  10.057 -0.4098  2.1775  3.3778
  221MOL0     H30441   5.598   5.834  10.175 -1.7707  0.5694 -0.1710
  221MOL0     H30442   5.561   5.693  10.256 -2.4675 -0.6639 -3.4269
  221MOL0     H30443   5.847   5.795  10.186 -3.1972  1.5206 -0.7108
  221MOL0     H30444   5.810   5.616  10.183  1.9345 -1.4429  3.5779
  221MOL0     H30445   5.766   5.796  10.429  0.0757 -0.5889  3.0615
  221MOL0     H30446   5.749   5.614  10.403  0.0210  0.9768  0.2543
  221MOL0     H30447   5.983   5.859  10.544  2.2485  0.2575  0.5470
  221MOL0     H30448   6.238   5.866  10.630  4.2582 -0.6645  2.5082
  221MOL0     H30449   6.355   5.795  10.519  2.2490 -1.8801  1.9484
  221MOL0     H30450   6.403   5.708  10.712  0.1530  0.0456  0.9756
  221MOL0     H30451   6.249   5.688  10.777 -0.0189  0.4011 -0.0104
  221MOL0     H30452   6.242   5.477  10.602  1.1853 -2.1426 -1.6512
  221MOL0     H30453   6.405   5.525  10.555  0.7257 -1.2772  0.5756
  221MOL0     H30454   6.360   5.327  10.730  1.2355  0.6382  0.9995
  221MOL0     H30455   6.476   5.447  10.773 -0.5697  0.4594  3.4452
  221MOL0     H30456   6.536   5.396  11.004  1.3193 -0.3266  0.1384
  221MOL0     H30457   6.669   5.176  11.218 -0.5183 -0.2394  0.3055
  221MOL0     H30458   6.595   5.296  11.324  0.2609  1.9745 -1.2549
  221MOL0     H30459   6.680   5.344  11.180  0.5439 -0.4912 -0.6661
  221MOL0     H30460   6.184   4.964  11.566  0.2103 -0.2392 -1.7031
  221MOL0     H30461   6.223   4.781  11.728  0.5979 -0.1868  0.7605
  221MOL0     H30462   6.528   4.452  11.674  1.6405  0.1023  2.0988
  221MOL0     H30463   6.544   4.625  11.716 -1.0846 -0.2065 -0.9869
  221MOL0     H30464   6.400   4.572  11.922  1.2994  0.7729  0.5784
  221MOL0     H30465   6.430   4.402  11.886  0.1723  0.4592  1.6756
  221MOL0     H30466   6.678   4.451  11.948 -0.6990  0.0292 -0.9259
  221MOL0     H30467   6.560   4.509  12.070 -0.1673  0.4547  0.6022
  221MOL0     H30468   6.563   4.737  11.954  0.0081  0.5211  0.7089
  221MOL0     H30469   6.709   4.671  11.871  0.2951  0.8146  0.2912
  221MOL0     H30470   6.826   4.654  12.078  1.5828  1.3005 -1.4690
  221MOL0     H30471   6.783   4.812  12.045  0.3654 -1.5782 -1.5690
  221MOL0     H30472   6.615   4.625  12.222 -0.2111 -0.2234 -0.5645
  221MOL0     H30473   6.566   4.791  12.210  1.9840  3.9434 -0.6187
  221MOL0     H30474   6.825   4.692  12.339  4.2394  2.1295 -2.6696
  221MOL0     H30475   6.678   4.765  12.416 -1.2508  3.8899 -1.6542
  221MOL0     H30476   6.749   4.985  12.329  3.7511  4.1426  0.4308
  221MOL0     H30477   6.883   4.906  12.241 -2.7770  2.3701 -1.2920
  221MOL0     H30478   6.428   4.555  11.421  0.8192 -0.7778  1.0540
  221MOL0     H30479   6.420   4.755  11.280 -3.0790 -1.3363 -1.4611
  221MOL0     H30480   6.166   5.100  11.146  0.4381 -1.1208  0.8441
  221MOL0     H30481   6.135   5.270  10.969 -0.4896  0.9308  1.7062
  221MOL0     H30482   5.355   5.704   9.346  2.8078  1.7784  1.4903
  221MOL0     H30483   5.328   5.660   9.128 -1.4260  0.3837  3.8019
  221MOL0     H30484   5.394   5.455   8.799 -1.5323 -0.3058 -0.7279
  221MOL0     H30485   5.332   5.372   8.584 -0.8110  0.2438 -0.2190
  221MOL0     H30486   5.377   5.227   8.374 -0.4092  0.3283 -0.5157
  221MOL0     H30487   5.268   5.351   8.404  0.2313  1.9138  1.5858
  221MOL0     H30488   5.423   5.316   8.143  0.0140  0.2378 -0.9323
  221MOL0     H30489   5.299   5.451   8.171  0.2231 -0.0486 -2.2656
  221MOL0     H30490   5.242   5.137   8.146  1.2224  1.1414 -4.3879
  221MOL0     H30491   5.116   5.240   8.211 -1.3178 -0.9542  0.8953
  221MOL0     H30492   5.245   5.262   7.931 -0.7710 -1.6939 -2.5679
  221MOL0     H30493   5.133   5.375   8.005 -0.3768 -0.1328 -0.3342
  221MOL0     H30494   4.855   5.072   7.962 -1.0946  1.0361  0.2224
  221MOL0     H30495   5.701   5.519   8.423  2.4895  0.1258  1.9072
  221MOL0     H30496   5.897   5.575   8.608  2.2000  2.5991  1.0467
  221MOL0     H30497   5.800   5.719   8.648  5.2907  0.0024 -0.2487
  221MOL0     H30498   5.856   5.582   8.763 -0.9733  2.0523  2.1938
  222MOL0     O30499   0.590  11.249   9.520  0.1402 -0.4284 -0.2564
  222MOL0     C30500   0.536  11.336   9.576 -0.3859 -0.4511 -0.2433
  222MOL0     O30501   0.581  11.470   9.571 -0.1619  0.0594  0.0398
  222MOL0     C30502   0.690  11.513   9.488  0.3173  0.3134 -0.1347
  222MOL0     C30503   0.805  11.574   9.529 -0.1169  0.0870  0.0009
  222MOL0     C30504   0.903  11.616   9.442 -0.6270  0.1345  0.7677
  222MOL0     C30505   0.880  11.618   9.299  0.0879 -1.1945  0.2175
  222MOL0     O30506   0.960  11.673   9.203  0.6931  0.3154  0.4223
  222MOL0     C30507   1.083  11.710   9.254 -0.8339 -0.0520  0.4435
  222MOL0     C30508   1.158  11.767   9.126  0.0522  0.1041 -0.3314
  222MOL0     C30509   1.196  11.659   9.025  0.1794  0.0310  0.2686
  222MOL0     C30510   1.286  11.730   8.912 -0.0475  0.3464 -0.5049
  222MOL0     C30511   1.357  11.607   8.848  0.1116 -0.4263 -0.5467
  222MOL0     C30512   1.463  11.662   8.754  0.5732 -0.9753 -0.2105
  222MOL0     C30513   1.409  11.719   8.623  0.2605  0.0744 -0.3347
  222MOL0     C30514   1.519  11.795   8.552 -0.5024 -1.2919  0.1635
  222MOL0     N30515   1.470  11.868   8.434  0.1269  0.2692  0.0354
  222MOL0     C30516   1.371  11.959   8.424 -0.9067 -0.7921 -0.1353
  222MOL0     C30517   1.347  11.998   8.291  0.0872 -0.2142  0.0432
  222MOL0     C30518   1.269  12.106   8.219 -0.4307  0.8455 -0.3472
  222MOL0     C30519   1.127  12.081   8.238 -0.1078  0.0559 -0.0010
  222MOL0     C30520   1.047  12.193   8.173  0.9826  0.3985  0.9572
  222MOL0     C30521   0.896  12.183   8.203  0.4990  0.5665 -0.2358
  222MOL0     O30522   0.852  12.052   8.224 -0.0449 -0.4427 -1.1994
  222MOL0     C30523   0.720  12.023   8.210  0.4596 -0.0490 -1.0765
  222MOL0     C30524   0.620  12.112   8.228  0.1361  0.4816  0.5365
  222MOL0     C30525   0.486  12.072   8.221 -0.5323  0.0504  0.0708
  222MOL0     C30526   0.388  12.191   8.223 -0.1906  0.3652 -0.3370
  222MOL0     C30527   0.446  11.938   8.202 -1.0129  0.0775 -0.2040
  222MOL0     C30528   0.303  11.903   8.229  0.6776  0.9268  1.5114
  222MOL0     O30529   0.251  11.797   8.160 -0.1418  0.1528 -0.5401
  222MOL0     C30530   0.119  11.806   8.141  0.3790  0.3132  0.6736
  222MOL0     C30531   0.045  11.915   8.083  0.7671 -0.6321 -0.6970
  222MOL0     C30532  -0.090  11.916   8.067  0.8982  0.0484 -0.2914
  222MOL0     C30533  -0.164  11.809   8.098  0.2462  0.9720 -0.0452
  222MOL0     O30534  -0.298  11.824   8.089 -0.1399  0.5889 -0.1168
  222MOL0     C30535  -0.381  11.716   8.123  0.5657 -0.4220  0.4123
  222MOL0     C30536  -0.525  11.719   8.061 -0.2807 -0.2760  0.2420
  222MOL0     C30537  -0.603  11.839   8.112  0.2839 -0.3402  0.3932
  222MOL0     C30538  -0.717  11.890   8.027 -0.7109 -0.3953 -1.6286
  222MOL0     C30539  -0.751  12.027   8.076 -0.2964  0.2691  0.5964
  222MOL0     C30540  -0.844  12.030   8.200  0.7526  0.6854  1.3344
  222MOL0     C30541  -0.891  12.174   8.219 -1.0115  0.1472 -1.0156
  222MOL0     C30542  -1.030  12.182   8.291 -0.3508 -0.2738  0.4278
  222MOL0    Cl30543  -1.163  12.112   8.198  0.6198 -0.0592  0.1567
  222MOL0     C30544  -0.100  11.699   8.158 -0.4861  0.8317 -0.2336
  222MOL0     C30545   0.039  11.698   8.178 -0.7037  0.4964 -0.5794
  222MOL0     O30546   0.243  11.970   8.320 -0.5683 -0.4523  0.2327
  222MOL0     C30547   0.551  11.844   8.198  0.5338  0.0100 -1.3142
  222MOL0     C30548   0.685  11.885   8.202 -1.2807  0.0568 -0.3108
  222MOL0     N30549   1.431  11.921   8.224  0.3866  0.9131  0.3118
  222MOL0     N30550   1.509  11.855   8.304  0.2295 -0.2897 -0.1263
  222MOL0     C30551   0.748  11.580   9.257  0.1621  1.0680  0.6341
  222MOL0     C30552   0.661  11.515   9.348 -1.0408 -0.0818  0.0549
  222MOL0     C30553   0.388  11.303   9.620 -0.3815 -0.1303 -0.8971
  222MOL0     C30554   0.304  11.423   9.638  0.0138  0.4615  1.4182
  222MOL0     C30555   0.173  11.400   9.686  1.3040  0.0676  1.2739
  222MOL0     C30556   0.123  11.273   9.710  0.0223  0.2900 -0.2039
  222MOL0     O30557  -0.002  11.242   9.748 -0.3297 -0.5634  0.4338
  222MOL0     C30558  -0.006  11.257   9.892  0.5695 -0.0778 -0.2504
  222MOL0     C30559  -0.142  11.207   9.933 -0.9623  0.4872 -0.0046
  222MOL0     C30560  -0.259  11.275   9.874 -0.9253  0.9641  0.8655
  222MOL0     C30561  -0.388  11.217   9.942 -0.5812 -0.6967  0.2263
  222MOL0     C30562  -0.423  11.081   9.920 -0.4109  0.6498  0.6448
  222MOL0     C30563  -0.467  10.963   9.901 -0.2323 -0.1874 -0.3111
  222MOL0     C30564   0.208  11.165   9.692  0.0322  2.0635 -0.0917
  222MOL0     C30565   0.330  11.175   9.636 -0.3974  0.8086  0.6767
  222MOL0     C30566   0.410  11.051   9.628 -0.3799 -0.1197  0.3142
  222MOL0     H30567   0.833  11.583   9.633  0.5526  0.9846 -0.2365
  222MOL0     H30568   0.997  11.649   9.485 -1.1906 -0.0908  2.2472
  222MOL0     H30569   1.134  11.621   9.291  0.7943  0.7233  0.1661
  222MOL0     H30570   1.086  11.791   9.328  2.6353  3.2687 -2.8744
  222MOL0     H30571   1.101  11.840   9.068  1.5475 -0.3281 -2.4576
  222MOL0     H30572   1.242  11.824   9.169  0.9722 -2.4951  1.5759
  222MOL0     H30573   1.237  11.568   9.071 -0.8439 -3.2251 -4.4756
  222MOL0     H30574   1.104  11.621   8.979  1.3437 -1.8900 -0.5978
  222MOL0     H30575   1.220  11.794   8.852 -0.3913  1.4342  0.9932
  222MOL0     H30576   1.359  11.787   8.971 -0.2490 -1.8381  2.0414
  222MOL0     H30577   1.285  11.541   8.797 -0.9540 -0.9381  1.5258
  222MOL0     H30578   1.399  11.550   8.932 -2.3691  2.3701  2.8721
  222MOL0     H30579   1.527  11.735   8.804  0.9288 -0.3838 -1.4821
  222MOL0     H30580   1.518  11.568   8.741 -1.6184 -2.1937 -1.2766
  222MOL0     H30581   1.323  11.782   8.647  0.3915  0.0983  0.0915
  222MOL0     H30582   1.383  11.635   8.559  0.8737 -1.0199  0.8157
  222MOL0     H30583   1.559  11.871   8.620  2.5778 -2.0304 -0.6625
  222MOL0     H30584   1.600  11.724   8.534  1.3647  0.5523  0.8588
  222MOL0     H30585   1.321  12.009   8.506  1.7956  3.4939 -0.8299
  222MOL0     H30586   1.305  12.096   8.117  0.3372  2.0097 -0.2139
  222MOL0     H30587   1.294  12.206   8.255 -2.2624  0.6674  1.6366
  222MOL0     H30588   1.105  11.982   8.198  2.0012  1.1086 -4.3477
  222MOL0     H30589   1.101  12.078   8.345 -0.5747 -0.7991 -0.1255
  222MOL0     H30590   1.092  12.289   8.195  2.1940 -0.4623  2.4332
  222MOL0     H30591   1.064  12.195   8.065 -0.7284 -1.9402  0.5464
  222MOL0     H30592   0.872  12.244   8.291 -2.8992  0.8001 -1.2028
  222MOL0     H30593   0.835  12.228   8.125 -2.2276 -0.5039  1.1521
  222MOL0     H30594   0.640  12.219   8.219 -0.8672  0.6077 -0.3515
  222MOL0     H30595   0.305  12.173   8.153 -0.7778 -0.0198  0.4413
  222MOL0     H30596   0.437  12.280   8.184 -1.1542  0.1218 -2.2420
  222MOL0     H30597   0.351  12.195   8.326 -0.5079 -2.6109 -0.2415
  222MOL0     H30598   0.089  12.008   8.050 -1.0854  0.4075 -0.3671
  222MOL0     H30599  -0.149  12.006   8.056 -0.6559 -0.5418  2.3256
  222MOL0     H30600  -0.340  11.617   8.101 -2.0903 -1.5434  0.1300
  222MOL0     H30601  -0.388  11.715   8.232  1.2779 -2.2959  0.4789
  222MOL0     H30602  -0.526  11.705   7.953 -1.8521 -2.3157  0.4587
  222MOL0     H30603  -0.582  11.633   8.100 -0.5403 -1.0702 -1.7723
  222MOL0     H30604  -0.516  11.906   8.120  0.5763 -0.8544  1.6875
  222MOL0     H30605  -0.635  11.812   8.212  1.9180 -2.2271  0.4615
  222MOL0     H30606  -0.801  11.819   8.035 -0.8384 -0.2424 -1.6008
  222MOL0     H30607  -0.692  11.897   7.921 -1.6446 -0.6255 -1.8792
  222MOL0     H30608  -0.663  12.085   8.104 -0.6576  1.0196  0.2169
  222MOL0     H30609  -0.806  12.074   7.994  0.5008  1.8184  0.8977
  222MOL0     H30610  -0.793  11.998   8.292  1.3692  0.7868  1.0376
  222MOL0     H30611  -0.931  11.966   8.186 -0.3213  2.4958 -0.9146
  222MOL0     H30612  -0.882  12.221   8.121  2.1846  0.3261 -0.7746
  222MOL0     H30613  -0.827  12.215   8.298 -4.4178 -1.5395  2.9763
  222MOL0     H30614  -1.048  12.290   8.292 -4.9435 -0.5085 -4.9728
  222MOL0     H30615  -1.043  12.151   8.394  2.0968  1.9870  1.5519
  222MOL0     H30616  -0.150  11.605   8.178 -0.7946  0.6123 -1.8922
  222MOL0     H30617   0.094  11.614   8.219 -0.6848  0.3867 -0.8299
  222MOL0     H30618   0.528  11.738   8.199 -1.7974  0.3192  3.1249
  222MOL0     H30619   0.770  11.818   8.200 -0.9255  0.4808  0.4711
  222MOL0     H30620   0.706  11.594   9.157  1.1975 -1.6074 -0.2482
  222MOL0     H30621   0.568  11.469   9.317 -0.9372  0.1622 -0.6474
  222MOL0     H30622   0.348  11.521   9.623  4.0491 -1.1558  1.4929
  222MOL0     H30623   0.107  11.487   9.681  3.9258  2.1756  1.3421
  222MOL0     H30624   0.075  11.200   9.938  0.4281  0.1619  0.3015
  222MOL0     H30625   0.012  11.364   9.910 -1.2445  0.3406 -0.7465
  222MOL0     H30626  -0.151  11.200  10.042  1.2570  0.6869  0.2255
  222MOL0     H30627  -0.145  11.101   9.908  2.2016  0.1165  0.7718
  222MOL0     H30628  -0.245  11.383   9.886 -0.1511  0.8930  0.6750
  222MOL0     H30629  -0.260  11.266   9.765 -2.7966 -1.6833  1.0174
  222MOL0     H30630  -0.471  11.273   9.898 -0.2865 -2.4766 -2.8673
  222MOL0     H30631  -0.375  11.218  10.051  2.7643 -2.7089  0.0105
  222MOL0     H30632  -0.498  10.861   9.888 -1.0017  0.0991 -0.7866
  222MOL0     H30633   0.174  11.064   9.711  1.0478  1.3005 -2.0782
  222MOL0     H30634   0.502  11.066   9.684  1.3093 -1.1229 -2.0356
  222MOL0     H30635   0.358  10.963   9.667 -3.3387  1.3532 -0.0227
  222MOL0     H30636   0.443  11.025   9.527 -4.0657 -1.8527 -0.6249
  223MOL0     O30637   0.400   4.302   7.081 -0.3476  0.2340  0.5219
  223MOL0     C30638   0.368   4.382   6.985  0.3624  0.5185  0.0437
  223MOL0     O30639   0.239   4.412   6.943 -0.5026 -0.2373 -0.9993
  223MOL0     C30640   0.137   4.340   7.000  0.4622 -0.4657  0.3078
  223MOL0     C30641   0.104   4.221   6.951  0.4783 -0.1167 -0.3639
  223MOL0     C30642   0.000   4.146   7.013 -0.3511  0.4452 -0.7919
  223MOL0     C30643  -0.062   4.189   7.131 -1.0588  0.3639 -0.2470
  223MOL0     O30644  -0.155   4.101   7.186 -0.1926  0.6278 -0.1170
  223MOL0     C30645  -0.204   4.136   7.322 -0.3775 -0.0008  0.4548
  223MOL0     C30646  -0.315   4.042   7.351  0.6431  1.2752  0.4179
  223MOL0     C30647  -0.448   4.075   7.277 -0.3109  0.7696  0.6251
  223MOL0     C30648  -0.565   3.972   7.303  0.7672 -0.6465 -0.1324
  223MOL0     C30649  -0.625   3.968   7.441 -0.3983 -0.1052 -0.0751
  223MOL0     C30650  -0.750   3.888   7.441 -0.0086  0.3467 -0.2105
  223MOL0     C30651  -0.782   3.867   7.584 -0.0489 -0.0613 -0.4250
  223MOL0     C30652  -0.928   3.823   7.598  1.0619  0.4527  0.6442
  223MOL0     N30653  -0.942   3.692   7.537 -0.0451 -1.0640  0.5679
  223MOL0     C30654  -0.896   3.572   7.581 -0.1063 -0.1936  0.5275
  223MOL0     C30655  -0.937   3.481   7.490  0.5875 -0.1706 -0.3375
  223MOL0     C30656  -0.905   3.342   7.489  0.2524  1.2500 -0.1529
  223MOL0     C30657  -0.756   3.313   7.443  0.1035  0.2763 -0.2847
  223MOL0     C30658  -0.684   3.420   7.370 -0.3610 -0.2470  0.0948
  223MOL0     C30659  -0.592   3.521   7.434  0.2626 -1.0928  0.2354
  223MOL0     O30660  -0.475   3.466   7.484 -0.4875 -0.4497 -0.4116
  223MOL0     C30661  -0.383   3.552   7.543 -0.0112 -1.1601  1.1224
  223MOL0     C30662  -0.264   3.501   7.589  0.0457  0.0140 -0.1498
  223MOL0     C30663  -0.162   3.579   7.654  0.4508 -0.1524  0.9025
  223MOL0     C30664  -0.044   3.506   7.714  1.3829 -0.1121  0.3468
  223MOL0     C30665  -0.173   3.721   7.662 -0.4805  0.7528  0.0039
  223MOL0     C30666  -0.080   3.821   7.722  0.3380  1.6729 -0.8374
  223MOL0     O30667  -0.115   3.956   7.712  0.2028  0.3244 -0.1336
  223MOL0     C30668  -0.042   4.050   7.775 -0.8768  0.5471 -0.0610
  223MOL0     C30669  -0.095   4.129   7.875 -0.4716  0.0832  0.0393
  223MOL0     C30670  -0.022   4.229   7.931  0.2304  0.8893  0.7293
  223MOL0     C30671   0.103   4.267   7.894  0.3891 -0.1686  0.3308
  223MOL0     O30672   0.171   4.376   7.936 -0.0070  0.0509 -0.9066
  223MOL0     C30673   0.123   4.463   8.043  0.8022 -0.0808  0.1431
  223MOL0     C30674   0.199   4.600   8.054  0.0835  0.8117 -0.7046
  223MOL0     C30675   0.156   4.707   8.155  0.2956 -0.2334  0.4134
  223MOL0     C30676   0.032   4.771   8.112  1.0467  0.0011 -0.1455
  223MOL0     C30677  -0.023   4.877   8.219  0.5522  0.0772  0.3051
  223MOL0     C30678  -0.178   4.911   8.197 -0.1530  0.0648  0.5280
  223MOL0     C30679  -0.277   4.864   8.309 -0.6523  1.0548  0.1607
  223MOL0     C30680  -0.410   4.899   8.256 -0.9918 -0.0869 -0.1262
  223MOL0    Cl30681  -0.437   5.074   8.233  0.1843  0.1946 -0.0693
  223MOL0     C30682   0.148   4.202   7.780 -0.2972  0.6739 -0.9484
  223MOL0     C30683   0.087   4.079   7.727 -0.1392 -0.2495 -0.4587
  223MOL0     O30684   0.027   3.779   7.760 -0.5484  0.1167 -0.1164
  223MOL0     C30685  -0.294   3.769   7.614  0.5510  1.0950  0.0965
  223MOL0     C30686  -0.397   3.689   7.559  0.0050  0.6504  0.9357
  223MOL0     N30687  -1.016   3.541   7.392  0.0207  0.0265 -0.1170
  223MOL0     N30688  -1.018   3.670   7.430  0.0563 -0.4510  0.4637
  223MOL0     C30689  -0.030   4.317   7.176 -0.2543  0.1476  0.1260
  223MOL0     C30690   0.070   4.391   7.109 -0.2595  0.7429  0.8442
  223MOL0     C30691   0.477   4.406   6.884 -0.2114 -1.7258 -0.2933
  223MOL0     C30692   0.446   4.406   6.750 -0.1350 -0.8606  0.2331
  223MOL0     C30693   0.538   4.435   6.649 -0.5166 -0.0853 -0.7356
  223MOL0     C30694   0.676   4.464   6.679  0.6123 -0.4188  0.4290
  223MOL0     O30695   0.780   4.481   6.586  0.6727  0.1992 -0.0069
  223MOL0     C30696   0.755   4.487   6.445  0.1439 -0.1100  0.2117
  223MOL0     C30697   0.863   4.564   6.373  0.3158 -0.2409 -0.0167
  223MOL0     C30698   0.864   4.706   6.414  0.9256 -0.2044  0.1967
  223MOL0     C30699   0.983   4.794   6.367  0.0501  0.5695  0.2775
  223MOL0     C30700   0.992   4.790   6.219 -1.0448  0.5890  0.3280
  223MOL0     C30701   1.005   4.792   6.098  0.4754  0.3587  0.1627
  223MOL0     C30702   0.713   4.467   6.816 -0.8094  0.0035  0.0545
  223MOL0     C30703   0.614   4.437   6.914  0.0026 -0.8462  0.5065
  223MOL0     C30704   0.675   4.438   7.057  0.9884 -0.1794  0.0566
  223MOL0     H30705   0.139   4.180   6.856  1.6254 -1.1960  0.4833
  223MOL0     H30706  -0.022   4.045   6.979  0.0747 -0.4237  1.3111
  223MOL0     H30707  -0.245   4.237   7.331 -2.3731 -0.6004 -1.1521
  223MOL0     H30708  -0.125   4.107   7.392 -0.5072  1.1600  1.0955
  223MOL0     H30709  -0.293   3.935   7.342 -0.2503  0.9779  1.4600
  223MOL0     H30710  -0.338   4.052   7.458  0.8207 -0.2260  0.6282
  223MOL0     H30711  -0.469   4.175   7.315 -0.3903  1.7297 -1.7505
  223MOL0     H30712  -0.431   4.081   7.169 -0.9907  3.0145  0.6094
  223MOL0     H30713  -0.645   3.993   7.230  0.5482 -1.9681 -0.2975
  223MOL0     H30714  -0.527   3.871   7.289 -3.1915 -2.3445 -0.0944
  223MOL0     H30715  -0.663   4.070   7.450 -0.9627 -0.3497  0.3969
  223MOL0     H30716  -0.553   3.947   7.520  0.8630  0.6635 -0.9965
  223MOL0     H30717  -0.828   3.937   7.382  0.0329 -0.0419 -0.6016
  223MOL0     H30718  -0.748   3.794   7.385 -6.1529  0.3386 -1.1934
  223MOL0     H30719  -0.770   3.958   7.643 -3.2652  0.4460 -0.3711
  223MOL0     H30720  -0.711   3.793   7.622  0.6708  0.3472 -0.9474
  223MOL0     H30721  -0.963   3.826   7.702  3.9672  4.5137  1.7316
  223MOL0     H30722  -0.999   3.895   7.556 -1.4653 -0.0314  3.6529
  223MOL0     H30723  -0.827   3.560   7.663  0.5825  1.9597  0.3358
  223MOL0     H30724  -0.976   3.303   7.416  0.1062  0.7879  0.2329
  223MOL0     H30725  -0.918   3.299   7.588 -1.7102 -1.4950 -1.4686
  223MOL0     H30726  -0.694   3.296   7.531  1.6576  0.1201 -1.3766
  223MOL0     H30727  -0.767   3.220   7.387  0.7028 -0.2625  0.4762
  223MOL0     H30728  -0.621   3.361   7.303 -1.3307 -0.8512 -0.3095
  223MOL0     H30729  -0.753   3.479   7.310 -0.7373  0.8035  1.5039
  223MOL0     H30730  -0.569   3.591   7.352 -0.7590  2.3408  2.6471
  223MOL0     H30731  -0.651   3.577   7.508  0.1975  0.4945 -0.9660
  223MOL0     H30732  -0.242   3.396   7.572  1.5161  0.4282 -0.9545
  223MOL0     H30733  -0.041   3.400   7.688 -0.7447 -0.3399  0.8221
  223MOL0     H30734  -0.051   3.526   7.822  0.1314 -2.6169  0.8030
  223MOL0     H30735   0.051   3.549   7.681  0.5438  0.1006 -1.9600
  223MOL0     H30736  -0.192   4.106   7.915 -0.4832  0.1327  0.0393
  223MOL0     H30737  -0.066   4.270   8.022 -2.7703 -1.3096  0.4255
  223MOL0     H30738   0.016   4.476   8.026  0.4026  0.5536  2.7646
  223MOL0     H30739   0.139   4.407   8.135 -4.2349  0.2159  1.4962
  223MOL0     H30740   0.305   4.577   8.071 -0.5561 -2.2990 -0.2253
  223MOL0     H30741   0.193   4.653   7.959  5.3655 -0.4227 -2.0716
  223MOL0     H30742   0.232   4.786   8.146  0.2064 -0.2286 -0.4547
  223MOL0     H30743   0.159   4.665   8.256  1.8203 -4.8227 -1.2720
  223MOL0     H30744  -0.046   4.694   8.104  0.7966  0.3306 -0.9671
  223MOL0     H30745   0.051   4.814   8.013 -0.4890 -1.0605 -0.9447
  223MOL0     H30746  -0.014   4.841   8.322 -0.5892  1.6487  0.9832
  223MOL0     H30747   0.031   4.971   8.209 -0.2623  0.6445  1.0690
  223MOL0     H30748  -0.206   4.871   8.099  3.3145  1.5715 -1.2347
  223MOL0     H30749  -0.182   5.019   8.183 -1.2508  0.0873  0.9353
  223MOL0     H30750  -0.254   4.926   8.396  0.0954  2.0917 -0.7659
  223MOL0     H30751  -0.277   4.760   8.342  0.9463  2.1548  4.2056
  223MOL0     H30752  -0.492   4.843   8.303  0.2962 -2.4805 -0.5546
  223MOL0     H30753  -0.405   4.862   8.154  4.6667  0.4959 -0.4034
  223MOL0     H30754   0.247   4.237   7.752  0.6145 -1.4193 -0.5496
  223MOL0     H30755   0.129   4.032   7.638  2.6226  1.3734 -0.1313
  223MOL0     H30756  -0.322   3.874   7.618 -0.1126  0.9361 -0.2188
  223MOL0     H30757  -0.491   3.735   7.530  0.5840  0.1617 -1.9809
  223MOL0     H30758  -0.081   4.372   7.254 -4.1661 -0.8194 -1.5403
  223MOL0     H30759   0.105   4.485   7.151  2.6078 -1.5337  4.1757
  223MOL0     H30760   0.345   4.390   6.711 -0.0439  1.1880 -1.0230
  223MOL0     H30761   0.510   4.430   6.544 -1.8623 -0.2049 -0.3904
  223MOL0     H30762   0.749   4.385   6.407  1.8402 -1.8924  4.0856
  223MOL0     H30763   0.661   4.537   6.424 -1.0445 -2.7734 -1.2493
  223MOL0     H30764   0.843   4.553   6.265 -1.8677 -1.9365  0.4836
  223MOL0     H30765   0.960   4.514   6.379  0.7185  0.2486 -1.6680
  223MOL0     H30766   0.773   4.742   6.365 -0.4523 -2.4867  0.9576
  223MOL0     H30767   0.855   4.710   6.522  2.6819 -2.1223  0.4758
  223MOL0     H30768   1.076   4.769   6.418 -0.6770 -1.2455  0.7992
  223MOL0     H30769   0.952   4.894   6.400  2.6077  1.0072  1.6186
  223MOL0     H30770   1.021   4.809   5.993 -2.1309 -0.1677 -0.3968
  223MOL0     H30771   0.818   4.485   6.838 -0.8652  0.4105 -0.0007
  223MOL0     H30772   0.720   4.340   7.071 -0.2962 -0.9079 -0.7311
  223MOL0     H30773   0.740   4.526   7.062 -0.4922  0.9141  1.2759
  223MOL0     H30774   0.600   4.440   7.137  0.8697 -0.4075 -0.0471
  224MOL0     O30775   0.735   7.669   6.160 -0.1002 -0.4124  0.4209
  224MOL0     C30776   0.725   7.673   6.282  1.0583  0.4070 -1.0479
  224MOL0     O30777   0.828   7.660   6.371 -0.2154 -0.1437  1.1830
  224MOL0     C30778   0.959   7.648   6.345 -0.6563 -0.6666 -0.4237
  224MOL0     C30779   1.011   7.537   6.275  0.8111  0.4557  0.0096
  224MOL0     C30780   1.143   7.530   6.232  0.1737  1.4089 -0.4284
  224MOL0     C30781   1.239   7.618   6.269 -0.8196 -0.9925  0.0282
  224MOL0     O30782   1.359   7.607   6.209  1.2284 -0.2121  0.5154
  224MOL0     C30783   1.471   7.661   6.287  1.2615  0.8318 -0.2512
  224MOL0     C30784   1.608   7.639   6.217 -0.6950 -0.1657  0.3515
  224MOL0     C30785   1.623   7.495   6.152 -0.4831 -0.8351  0.3914
  224MOL0     C30786   1.746   7.515   6.053 -0.2659  0.3649  0.3906
  224MOL0     C30787   1.791   7.389   5.969  0.4562 -1.9732  1.6389
  224MOL0     C30788   1.932   7.400   5.900 -0.2344  0.2191 -0.8951
  224MOL0     C30789   1.960   7.530   5.838  0.1023 -0.4360 -0.0359
  224MOL0     C30790   2.088   7.505   5.752 -0.3302  0.0901 -0.9887
  224MOL0     N30791   2.123   7.622   5.684 -0.1048 -0.3396 -0.8318
  224MOL0     C30792   2.046   7.688   5.601 -0.5014 -0.2662  0.8219
  224MOL0     C30793   2.116   7.797   5.566  0.0552 -0.0798  0.4481
  224MOL0     C30794   2.076   7.921   5.480  0.0739 -0.3678 -0.5133
  224MOL0     C30795   2.023   7.887   5.335 -0.0997 -0.1782  0.0685
  224MOL0     C30796   1.870   7.847   5.333  0.5017 -0.4575  0.1562
  224MOL0     C30797   1.827   7.809   5.185  0.1557 -0.6741  0.1184
  224MOL0     O30798   1.755   7.916   5.119 -0.3455 -0.3048  0.3984
  224MOL0     C30799   1.633   7.954   5.169 -0.2630 -0.3720 -0.1718
  224MOL0     C30800   1.548   7.876   5.253  0.3358 -0.1369  0.7504
  224MOL0     C30801   1.416   7.929   5.290 -0.5688  0.0608 -0.7758
  224MOL0     C30802   1.327   7.859   5.397  0.0584  1.1268 -0.1837
  224MOL0     C30803   1.379   8.061   5.239 -0.0975  0.0384  0.5737
  224MOL0     C30804   1.257   8.143   5.281  0.6039  0.1729 -0.8511
  224MOL0     O30805   1.232   8.253   5.206 -1.0057 -0.2267  0.6103
  224MOL0     C30806   1.109   8.284   5.185  0.0333 -1.0660  0.1742
  224MOL0     C30807   1.040   8.362   5.279  0.4568  0.5879  0.6751
  224MOL0     C30808   0.911   8.401   5.250  0.5076  0.3356 -0.2808
  224MOL0     C30809   0.839   8.342   5.152  0.1726 -1.3004 -0.2692
  224MOL0     O30810   0.703   8.363   5.129 -0.5880  0.2589  0.4005
  224MOL0     C30811   0.628   8.461   5.195  0.7753 -0.3771  0.5280
  224MOL0     C30812   0.489   8.432   5.166 -0.3535  0.2107 -0.1050
  224MOL0     C30813   0.429   8.470   5.023 -0.1623  0.3312 -0.5080
  224MOL0     C30814   0.274   8.452   5.020 -0.1767 -0.0862 -0.0359
  224MOL0     C30815   0.232   8.484   4.875 -0.1112  0.0285 -1.1268
  224MOL0     C30816   0.251   8.372   4.770 -0.7571  0.2987 -0.5510
  224MOL0     C30817   0.193   8.391   4.624 -0.5353  0.5156 -0.7556
  224MOL0     C30818   0.203   8.261   4.544 -0.1440 -0.6927 -0.6259
  224MOL0    Cl30819   0.078   8.271   4.412  0.1199  0.0639 -0.1171
  224MOL0     C30820   0.904   8.260   5.061  0.1551 -0.5668  0.6542
  224MOL0     C30821   1.044   8.232   5.075  1.2940  0.4988  0.3602
  224MOL0     O30822   1.198   8.116   5.385 -0.4542  0.9233 -0.3767
  224MOL0     C30823   1.460   8.115   5.145 -0.0386 -0.2387 -0.0411
  224MOL0     C30824   1.584   8.065   5.110  0.0656 -0.9310  0.6568
  224MOL0     N30825   2.247   7.792   5.616  0.1060 -0.5036  0.2646
  224MOL0     N30826   2.239   7.683   5.686 -1.0380  0.3391 -0.3577
  224MOL0     C30827   1.189   7.731   6.341 -0.1876  1.1783 -0.3999
  224MOL0     C30828   1.055   7.740   6.381 -0.0235 -0.7400  0.9341
  224MOL0     C30829   0.591   7.696   6.346  0.0231 -0.6793  0.0363
  224MOL0     C30830   0.599   7.718   6.482  0.3153 -0.5374  0.5409
  224MOL0     C30831   0.477   7.760   6.542 -1.2664  0.8628 -0.2210
  224MOL0     C30832   0.344   7.741   6.486 -0.4883  0.3646 -0.2495
  224MOL0     O30833   0.230   7.765   6.554 -0.1041 -0.4829 -0.1803
  224MOL0     C30834   0.219   7.738   6.702 -0.1469  0.3845  0.3487
  224MOL0     C30835   0.067   7.733   6.735 -0.6984  0.0935  0.4717
  224MOL0     C30836  -0.013   7.599   6.686 -0.1592  0.2935  0.0593
  224MOL0     C30837  -0.153   7.593   6.750  0.0061 -0.0065 -0.6815
  224MOL0     C30838  -0.135   7.576   6.899 -0.3541  0.5261  0.3890
  224MOL0     C30839  -0.137   7.553   7.021  0.3997 -0.5340  0.0846
  224MOL0     C30840   0.342   7.704   6.354  0.3684  0.2310 -0.5673
  224MOL0     C30841   0.466   7.686   6.288  0.5499 -0.5633 -0.1924
  224MOL0     C30842   0.447   7.622   6.147 -0.0902  0.5791  0.3468
  224MOL0     H30843   0.936   7.462   6.252 -0.0796  1.8865 -2.0238
  224MOL0     H30844   1.175   7.439   6.184 -0.1360 -0.6822  2.9750
  224MOL0     H30845   1.474   7.609   6.383 -2.9278 -0.6712 -0.7463
  224MOL0     H30846   1.458   7.768   6.308 -1.3085  0.4272  0.4602
  224MOL0     H30847   1.618   7.704   6.130 -0.1786 -1.4150 -0.5542
  224MOL0     H30848   1.698   7.651   6.279  1.2034  1.4260 -2.5020
  224MOL0     H30849   1.640   7.419   6.228 -0.8446 -1.1358  0.1791
  224MOL0     H30850   1.532   7.472   6.096 -1.2361 -0.0648  1.2629
  224MOL0     H30851   1.712   7.597   5.989  2.2392 -1.3395 -3.5153
  224MOL0     H30852   1.829   7.568   6.101 -1.2465  2.5269 -0.1755
  224MOL0     H30853   1.716   7.392   5.889  1.5539  0.5598  0.6198
  224MOL0     H30854   1.781   7.295   6.025  0.8138 -3.3764 -0.5549
  224MOL0     H30855   2.007   7.371   5.974 -0.2915  0.0211 -0.9155
  224MOL0     H30856   1.936   7.323   5.823  1.0425 -3.0023  2.0831
  224MOL0     H30857   1.980   7.602   5.919  0.5644 -1.0948  0.4504
  224MOL0     H30858   1.883   7.569   5.771  0.8053  0.2218 -0.4799
  224MOL0     H30859   2.175   7.477   5.813 -1.7006 -0.8967  0.5980
  224MOL0     H30860   2.076   7.423   5.681  0.6113 -0.6049 -0.3761
  224MOL0     H30861   1.941   7.671   5.578 -0.1274 -1.6576  0.0460
  224MOL0     H30862   2.167   7.980   5.465 -0.4018  1.3089  2.3898
  224MOL0     H30863   2.012   7.997   5.526  0.1007  0.0562 -1.1680
  224MOL0     H30864   2.029   7.976   5.273 -2.3101 -2.0872 -3.2362
  224MOL0     H30865   2.077   7.807   5.284 -2.2228 -2.0494  0.5516
  224MOL0     H30866   1.852   7.757   5.394 -1.6386  1.2166  2.1838
  224MOL0     H30867   1.804   7.928   5.364 -2.1658 -2.3875 -0.1156
  224MOL0     H30868   1.919   7.804   5.126  1.6833 -3.9443  2.5025
  224MOL0     H30869   1.774   7.714   5.181 -0.6828 -0.5870 -7.7030
  224MOL0     H30870   1.567   7.780   5.299  1.9617  0.5131  1.5387
  224MOL0     H30871   1.349   7.752   5.408 -3.0954  0.4700  0.6080
  224MOL0     H30872   1.224   7.872   5.363  0.3198 -0.8826 -1.9813
  224MOL0     H30873   1.353   7.900   5.495 -0.2513  0.0639  0.3616
  224MOL0     H30874   1.077   8.388   5.377  1.8473 -0.6786  0.5257
  224MOL0     H30875   0.853   8.468   5.313  0.8824  1.9323 -1.5875
  224MOL0     H30876   0.637   8.473   5.303  3.2402 -3.1329  0.7426
  224MOL0     H30877   0.652   8.559   5.155 -1.1187  0.0396  0.2881
  224MOL0     H30878   0.461   8.328   5.186  4.3630 -1.8316 -2.3977
  224MOL0     H30879   0.419   8.497   5.218 -3.1732 -0.4072 -2.8018
  224MOL0     H30880   0.474   8.399   4.953  2.2891 -0.9868  2.2086
  224MOL0     H30881   0.465   8.569   4.995  1.7419 -0.4059 -0.7849
  224MOL0     H30882   0.221   8.520   5.087 -3.3312 -0.0763 -2.3444
  224MOL0     H30883   0.257   8.349   5.054  0.2133 -0.2200 -0.2329
  224MOL0     H30884   0.127   8.493   4.903  0.6097  0.9917  1.5970
  224MOL0     H30885   0.269   8.582   4.845 -0.0331  0.3103 -0.1400
  224MOL0     H30886   0.196   8.288   4.814 -1.2658  0.9914  0.1541
  224MOL0     H30887   0.358   8.352   4.780 -0.1610  3.8332  2.4206
  224MOL0     H30888   0.235   8.482   4.579  2.2787  1.0229  2.4659
  224MOL0     H30889   0.086   8.406   4.643 -1.0324 -1.0733 -2.1074
  224MOL0     H30890   0.181   8.173   4.605  0.4913 -1.3216 -1.2979
  224MOL0     H30891   0.302   8.253   4.498 -0.5095 -2.1914 -1.2017
  224MOL0     H30892   0.851   8.209   4.982  0.3275 -2.0749  1.4755
  224MOL0     H30893   1.102   8.159   5.019 -0.5049 -0.6343 -0.1088
  224MOL0     H30894   1.435   8.204   5.089  1.6975 -0.2895 -0.9644
  224MOL0     H30895   1.654   8.105   5.037 -0.6487  0.3798  0.6691
  224MOL0     H30896   1.263   7.803   6.374  2.1620 -0.7912 -1.0556
  224MOL0     H30897   1.022   7.825   6.440 -1.7542 -0.9980  0.4085
  224MOL0     H30898   0.694   7.727   6.535  0.9830  0.0980 -0.7078
  224MOL0     H30899   0.494   7.791   6.644 -1.7270 -1.4989  0.6349
  224MOL0     H30900   0.274   7.648   6.733  0.3920  0.2916 -0.8275
  224MOL0     H30901   0.260   7.827   6.750 -0.4451  2.3973 -2.8668
  224MOL0     H30902   0.017   7.824   6.703  2.2999  1.2712 -1.2625
  224MOL0     H30903   0.058   7.739   6.844  0.0939  1.1853  0.4911
  224MOL0     H30904  -0.021   7.610   6.577 -2.1865  3.6113  0.3849
  224MOL0     H30905   0.055   7.516   6.707  2.0263  1.9124 -0.2917
  224MOL0     H30906  -0.201   7.505   6.708  0.1257 -0.4583  0.0952
  224MOL0     H30907  -0.218   7.679   6.732  1.4848  1.0293 -1.3308
  224MOL0     H30908  -0.129   7.562   7.127  0.7976  1.5396 -0.0748
  224MOL0     H30909   0.241   7.685   6.318  0.1284  0.1045  0.1642
  224MOL0     H30910   0.344   7.590   6.127 -0.3509  0.7605  1.3483
  224MOL0     H30911   0.465   7.693   6.065 -0.3816 -0.6870 -0.8478
  224MOL0     H30912   0.503   7.530   6.128 -1.4365  0.1571 -2.0434
  225MOL0     O30913   9.861  11.505   3.775  1.0554  0.1685 -0.4096
  225MOL0     C30914   9.736  11.504   3.767 -0.2285 -0.0599 -1.5128
  225MOL0     O30915   9.663  11.476   3.656  0.1048 -0.1941  0.8571
  225MOL0     C30916   9.698  11.406   3.545 -0.4238  0.7565  0.6790
  225MOL0     C30917   9.596  11.410   3.451 -0.4120  0.3969  0.4566
  225MOL0     C30918   9.609  11.354   3.326  0.1274  0.1691 -0.0973
  225MOL0     C30919   9.727  11.289   3.296  0.0803 -0.2571  0.1768
  225MOL0     O30920   9.747  11.234   3.175 -0.4013  0.2540  0.4444
  225MOL0     C30921   9.627  11.188   3.101  0.4686  0.5875  0.3064
  225MOL0     C30922   9.674  11.105   2.976 -0.4800 -0.6411  0.5543
  225MOL0     C30923   9.734  10.971   3.001 -0.5265 -0.5280 -0.2882
  225MOL0     C30924   9.622  10.875   3.062  0.3066 -0.0038 -0.5004
  225MOL0     C30925   9.654  10.722   3.044  0.2172 -0.1074 -0.0791
  225MOL0     C30926   9.531  10.632   3.068 -0.4521  0.8317  0.2591
  225MOL0     C30927   9.584  10.483   3.050  0.4778  0.2389  0.3204
  225MOL0     C30928   9.462  10.384   3.065 -0.9711 -0.8005  0.4898
  225MOL0     N30929   9.353  10.402   2.963 -0.1640 -0.2819 -0.6186
  225MOL0     C30930   9.233  10.466   2.985 -0.4696  0.8612  0.4929
  225MOL0     C30931   9.153  10.437   2.875  0.0215 -0.3627 -0.6387
  225MOL0     C30932   9.018  10.465   2.831  0.9055 -1.2982 -0.6495
  225MOL0     C30933   8.919  10.374   2.905 -0.1051 -0.6914 -0.1855
  225MOL0     C30934   8.942  10.223   2.900  0.4597  0.1121  0.6249
  225MOL0     C30935   8.943  10.156   2.755 -0.5173 -0.1484  0.2553
  225MOL0     O30936   8.930  10.013   2.764  0.4363 -0.4148 -0.2328
  225MOL0     C30937   8.871   9.950   2.656  0.1241  0.0179 -0.5649
  225MOL0     C30938   8.949   9.888   2.555 -0.5803 -0.1498  0.4188
  225MOL0     C30939   8.883   9.821   2.452 -0.1053  0.1697 -0.6727
  225MOL0     C30940   8.968   9.770   2.337  0.4645 -0.0798 -0.2560
  225MOL0     C30941   8.738   9.829   2.449 -0.1023 -1.1349  0.0681
  225MOL0     C30942   8.660   9.750   2.346  1.3210 -0.7806 -0.2732
  225MOL0     O30943   8.710   9.644   2.287 -0.2280  1.0585  0.5752
  225MOL0     C30944   8.639   9.591   2.180 -1.5774 -0.5629  0.0276
  225MOL0     C30945   8.524   9.532   2.200 -0.3216 -0.6571 -0.9518
  225MOL0     C30946   8.458   9.469   2.097 -0.1113 -0.1863  0.7084
  225MOL0     C30947   8.508   9.476   1.968 -0.1621  0.0116  0.2068
  225MOL0     O30948   8.431   9.432   1.865  0.2773  0.1704 -0.0697
  225MOL0     C30949   8.339   9.313   1.873  0.5405 -0.4439 -0.2399
  225MOL0     C30950   8.424   9.186   1.887 -1.0652  0.7987 -1.0780
  225MOL0     C30951   8.430   9.120   2.023 -0.2210  0.0757  0.0176
  225MOL0     C30952   8.553   9.036   2.054  0.0310  0.3420  0.2470
  225MOL0     C30953   8.558   8.969   2.192  0.4072 -0.0502 -1.3540
  225MOL0     C30954   8.687   8.889   2.212  0.0461  0.1337  0.7450
  225MOL0     C30955   8.705   8.811   2.344 -0.0986 -0.4177 -0.3759
  225MOL0     C30956   8.653   8.886   2.470 -0.3921 -0.3311  0.4873
  225MOL0    Cl30957   8.726   8.830   2.612 -0.1456  0.0970  0.3377
  225MOL0     C30958   8.629   9.543   1.945 -0.0808  0.0174  0.4725
  225MOL0     C30959   8.705   9.587   2.053 -0.7720 -0.3019  0.7584
  225MOL0     O30960   8.542   9.803   2.320 -0.3956  0.5444 -0.0343
  225MOL0     C30961   8.664   9.894   2.555 -0.3207 -0.0656 -0.7734
  225MOL0     C30962   8.737   9.964   2.660 -0.5746  0.0673  0.3310
  225MOL0     N30963   9.225  10.348   2.802 -0.0856 -0.3064  0.3295
  225MOL0     N30964   9.340  10.336   2.845 -0.5012 -0.2024  0.2601
  225MOL0     C30965   9.837  11.295   3.382 -0.0124 -1.1656  0.4004
  225MOL0     C30966   9.818  11.338   3.516  0.2716 -0.1943  0.7485
  225MOL0     C30967   9.658  11.533   3.877 -0.0398  0.4724 -0.6433
  225MOL0     C30968   9.522  11.570   3.866  0.4434 -0.2070  0.4597
  225MOL0     C30969   9.443  11.617   3.963  0.2675  0.5502 -0.8376
  225MOL0     C30970   9.491  11.622   4.097  0.2991  0.8873  0.5679
  225MOL0     O30971   9.434  11.692   4.198  0.0561 -0.0829  0.0186
  225MOL0     C30972   9.449  11.835   4.190 -0.3463  0.5661 -0.3218
  225MOL0     C30973   9.319  11.913   4.210 -0.0728  1.0261  0.9675
  225MOL0     C30974   9.251  11.919   4.348 -0.9524 -0.3875  0.3765
  225MOL0     C30975   9.353  11.975   4.454  0.5524 -0.3294 -1.1771
  225MOL0     C30976   9.287  11.998   4.576  0.6620 -0.0572 -0.5443
  225MOL0     C30977   9.225  12.021   4.676 -0.5398 -0.7749 -0.9202
  225MOL0     C30978   9.618  11.579   4.118 -1.1981  0.0853  0.4769
  225MOL0     C30979   9.704  11.525   4.016  0.1502  0.3282  0.7860
  225MOL0     C30980   9.848  11.485   4.072  1.2617 -0.4064  0.4795
  225MOL0     H30981   9.504  11.461   3.478 -1.4946 -0.5823 -1.1653
  225MOL0     H30982   9.516  11.351   3.269 -0.0569 -1.7286  0.2569
  225MOL0     H30983   9.578  11.277   3.060 -1.2677 -0.9288 -1.0872
  225MOL0     H30984   9.552  11.123   3.146 -0.4261  1.7796  0.6143
  225MOL0     H30985   9.589  11.092   2.908 -0.7801  2.0762  0.2969
  225MOL0     H30986   9.751  11.158   2.919 -2.2140 -2.0124 -3.3773
  225MOL0     H30987   9.769  10.930   2.906  1.1258 -0.1583  0.1360
  225MOL0     H30988   9.817  10.973   3.072  0.8799 -5.1556 -1.4523
  225MOL0     H30989   9.622  10.890   3.170 -4.4919  2.2155 -0.5565
  225MOL0     H30990   9.529  10.899   3.009  1.5072  3.0654 -1.4391
  225MOL0     H30991   9.746  10.695   3.098  2.8031  0.9511 -3.5353
  225MOL0     H30992   9.691  10.712   2.941 -0.4299  1.4113 -0.4861
  225MOL0     H30993   9.494  10.649   3.170  2.2294 -0.6796  1.6069
  225MOL0     H30994   9.446  10.644   3.000 -1.8912 -3.3500  1.0378
  225MOL0     H30995   9.664  10.469   3.123  1.4855 -0.6342 -0.8962
  225MOL0     H30996   9.635  10.466   2.954  0.5214  0.8966  0.2220
  225MOL0     H30997   9.489  10.278   3.064  1.2357 -0.2909  1.2645
  225MOL0     H30998   9.422  10.400   3.165 -2.1561  0.3406 -0.1374
  225MOL0     H30999   9.210  10.535   3.066  0.9798  1.0227  0.7979
  225MOL0     H31000   9.015  10.467   2.722 -0.8500  1.6965 -0.6683
  225MOL0     H31001   9.000  10.567   2.866  0.2108 -1.9375  0.9834
  225MOL0     H31002   8.921  10.404   3.010 -2.0532 -1.0813 -0.0002
  225MOL0     H31003   8.824  10.389   2.853  1.8554 -1.7315 -4.5501
  225MOL0     H31004   9.023  10.189   2.964  2.2894 -0.9521 -2.0718
  225MOL0     H31005   8.852  10.180   2.944  0.8074 -1.8151 -0.4422
  225MOL0     H31006   8.855  10.188   2.699 -0.1630 -1.5894 -1.2115
  225MOL0     H31007   9.037  10.177   2.703  1.2624  2.4746  4.1108
  225MOL0     H31008   9.057   9.881   2.562  0.0143  3.3789 -2.2006
  225MOL0     H31009   9.072   9.803   2.340  1.0742 -1.4843 -2.7925
  225MOL0     H31010   8.924   9.797   2.240  2.0552  1.9230 -0.4922
  225MOL0     H31011   8.965   9.661   2.341 -0.0834 -0.3517 -4.0083
  225MOL0     H31012   8.481   9.526   2.300 -1.8898  1.1357 -1.4597
  225MOL0     H31013   8.367   9.420   2.129 -0.5993  1.8767  2.7788
  225MOL0     H31014   8.261   9.329   1.948 -0.7798  3.4979 -2.1591
  225MOL0     H31015   8.275   9.306   1.785  1.1384  5.6256 -1.6325
  225MOL0     H31016   8.394   9.118   1.807  0.1151  0.0611 -0.9299
  225MOL0     H31017   8.526   9.212   1.854 -0.6070  1.2645  0.6177
  225MOL0     H31018   8.346   9.051   2.036  0.8403 -1.2671  0.0479
  225MOL0     H31019   8.424   9.200   2.097 -0.2596  0.3900 -0.3243
  225MOL0     H31020   8.638   9.104   2.049  0.3005 -0.0084  0.0345
  225MOL0     H31021   8.569   8.954   1.983  0.8731 -0.4456  1.3110
  225MOL0     H31022   8.549   9.050   2.265  2.6159 -0.8829 -0.0810
  225MOL0     H31023   8.463   8.916   2.201  0.6314 -0.3212 -0.5228
  225MOL0     H31024   8.769   8.961   2.196 -1.1250  0.9196 -2.3025
  225MOL0     H31025   8.698   8.810   2.138 -2.4536  1.3505 -1.0970
  225MOL0     H31026   8.811   8.787   2.359 -0.4626 -4.4628 -2.7404
  225MOL0     H31027   8.658   8.712   2.342 -0.3133 -0.3050 -1.0477
  225MOL0     H31028   8.544   8.876   2.475 -0.2749 -1.3570  1.7460
  225MOL0     H31029   8.666   8.995   2.464  0.9021 -0.4890  0.2119
  225MOL0     H31030   8.670   9.546   1.844  1.7840  0.9256  1.2122
  225MOL0     H31031   8.800   9.638   2.045 -1.6843  1.9378  2.8332
  225MOL0     H31032   8.556   9.904   2.560 -0.4203 -1.5521  1.6027
  225MOL0     H31033   8.680  10.016   2.736 -1.9796  1.9944 -1.8947
  225MOL0     H31034   9.933  11.258   3.347  0.3695 -1.6909  1.9154
  225MOL0     H31035   9.903  11.343   3.583  0.3456 -0.7868  0.7040
  225MOL0     H31036   9.482  11.574   3.765 -1.1643 -3.9587  0.7896
  225MOL0     H31037   9.347  11.664   3.946 -0.7493 -0.7414  1.0234
  225MOL0     H31038   9.528  11.865   4.259  1.3602 -0.7242 -1.6294
  225MOL0     H31039   9.501  11.857   4.096 -1.3991  0.9551 -0.8313
  225MOL0     H31040   9.248  11.873   4.137 -0.3309  3.9968 -0.5902
  225MOL0     H31041   9.343  12.011   4.168  3.9161 -0.0580  0.3341
  225MOL0     H31042   9.171  11.993   4.335 -1.3242 -1.2249 -3.1201
  225MOL0     H31043   9.215  11.820   4.379 -0.6281 -0.8952 -0.8181
  225MOL0     H31044   9.396  12.069   4.419 -6.1117  3.1029 -1.8593
  225MOL0     H31045   9.430  11.897   4.463  2.6715  1.7091 -0.8047
  225MOL0     H31046   9.165  12.055   4.758 -2.0440 -1.6157 -1.6257
  225MOL0     H31047   9.650  11.543   4.216 -1.5378 -1.0315  0.1865
  225MOL0     H31048   9.881  11.392   4.026  0.8107  0.8588 -2.6417
  225MOL0     H31049   9.919  11.566   4.055  1.3065 -0.3108  1.0966
  225MOL0     H31050   9.855  11.466   4.180  1.4071 -1.6013  0.2781
  226MOL0     O31051   4.814  11.273   7.065 -0.2235 -0.9362 -0.1125
  226MOL0     C31052   4.911  11.309   7.010 -0.5557 -1.1624 -0.1709
  226MOL0     O31053   4.998  11.409   7.056 -0.3552  0.2178 -0.5140
  226MOL0     C31054   4.993  11.463   7.182  1.1113  1.0489 -0.4438
  226MOL0     C31055   5.023  11.379   7.289 -0.5608 -0.1896  0.0769
  226MOL0     C31056   5.014  11.421   7.419 -0.5460  0.0176 -0.1385
  226MOL0     C31057   5.006  11.551   7.451  1.3768 -0.4752  0.0776
  226MOL0     O31058   5.017  11.583   7.578  0.7368  0.4439  0.0369
  226MOL0     C31059   4.901  11.629   7.656  0.9573  0.6047  0.1569
  226MOL0     C31060   4.841  11.525   7.740  0.3310  0.5024 -1.1656
  226MOL0     C31061   4.732  11.605   7.840 -0.9070  0.5119  0.5667
  226MOL0     C31062   4.804  11.675   7.954 -0.4450  0.0667  0.3405
  226MOL0     C31063   4.699  11.741   8.048  0.3428 -0.0143  0.7334
  226MOL0     C31064   4.778  11.819   8.154  0.6235  0.0295 -0.2891
  226MOL0     C31065   4.693  11.853   8.287 -0.2131 -1.2656 -0.1411
  226MOL0     C31066   4.760  11.961   8.380 -0.7214  0.6044 -0.5044
  226MOL0     N31067   4.888  11.918   8.447  0.0962  0.0270 -0.0638
  226MOL0     C31068   5.014  11.934   8.389  0.5210 -0.7410 -0.4093
  226MOL0     C31069   5.094  11.862   8.470 -0.6024 -0.0338  0.0019
  226MOL0     C31070   5.244  11.850   8.435 -0.8066  0.1961 -0.2990
  226MOL0     C31071   5.332  11.841   8.563 -1.1158 -0.3588 -0.3849
  226MOL0     C31072   5.320  11.719   8.648 -0.0595  0.7457 -0.3167
  226MOL0     C31073   5.424  11.710   8.747 -0.6345  0.2629 -0.1272
  226MOL0     O31074   5.455  11.583   8.788  0.1833  1.1055  0.0723
  226MOL0     C31075   5.455  11.558   8.923  0.7125  0.9192 -0.8670
  226MOL0     C31076   5.562  11.479   8.979  0.2665  0.0322 -0.0372
  226MOL0     C31077   5.569  11.451   9.114 -1.1277  0.4825 -0.0578
  226MOL0     C31078   5.691  11.372   9.162 -1.3835  0.8919 -0.5650
  226MOL0     C31079   5.479  11.507   9.208 -0.5924  0.4228  0.1560
  226MOL0     C31080   5.482  11.489   9.349  0.1344  0.2095  0.7953
  226MOL0     O31081   5.354  11.476   9.398 -0.4685 -0.4948  0.0483
  226MOL0     C31082   5.367  11.460   9.536  0.1762 -0.3920  0.8116
  226MOL0     C31083   5.388  11.567   9.622  0.1369 -0.6236  0.2830
  226MOL0     C31084   5.367  11.549   9.762 -0.1611 -0.7597  0.2551
  226MOL0     C31085   5.329  11.422   9.814 -0.3130 -0.0021  1.3329
  226MOL0     O31086   5.294  11.405   9.948 -0.2332 -0.2812  0.4479
  226MOL0     C31087   5.273  11.509  10.038  0.0644 -0.2676 -1.1067
  226MOL0     C31088   5.218  11.466  10.174  1.2154 -0.0385  0.2431
  226MOL0     C31089   5.286  11.331  10.224  0.2824 -0.8038 -0.4864
  226MOL0     C31090   5.235  11.293  10.362 -0.0681  0.0695  0.6279
  226MOL0     C31091   5.301  11.164  10.415  0.2388 -0.6092  0.7921
  226MOL0     C31092   5.230  11.118  10.550 -0.6739 -0.0500  0.4366
  226MOL0     C31093   5.083  11.135  10.562  0.6353 -0.4143 -0.0133
  226MOL0     C31094   5.035  11.111  10.711 -0.2577 -0.8357  1.0254
  226MOL0    Cl31095   4.858  11.111  10.716  0.0603 -0.4000  0.2221
  226MOL0     C31096   5.320  11.314   9.723 -0.1630 -0.3085  0.0449
  226MOL0     C31097   5.341  11.332   9.585  0.5390  0.3731  0.5598
  226MOL0     O31098   5.586  11.500   9.414  0.7278  0.2293  1.3751
  226MOL0     C31099   5.366  11.573   9.150  0.1295 -0.8121 -0.4740
  226MOL0     C31100   5.356  11.599   9.020  0.1724  0.0854  1.2299
  226MOL0     N31101   5.020  11.805   8.567 -0.3157 -0.4377 -0.1308
  226MOL0     N31102   4.894  11.835   8.555  1.0573 -0.0302 -0.0620
  226MOL0     C31103   4.990  11.645   7.348  0.2469 -0.1073  0.3151
  226MOL0     C31104   4.971  11.599   7.209 -0.7373  0.6024 -0.2255
  226MOL0     C31105   4.965  11.226   6.899 -0.1317 -0.3322 -1.0062
  226MOL0     C31106   4.928  11.089   6.896 -0.5018  0.6175 -1.0939
  226MOL0     C31107   4.989  11.000   6.811 -0.4924  0.5987 -0.6252
  226MOL0     C31108   5.077  11.037   6.718 -0.3235 -0.0799  0.2637
  226MOL0     O31109   5.144  10.943   6.639  1.1905 -0.8613  0.2690
  226MOL0     C31110   5.146  10.974   6.498 -1.2125 -0.1876  0.1803
  226MOL0     C31111   5.024  10.917   6.428  0.2316 -0.4898  0.7583
  226MOL0     C31112   5.010  10.954   6.277 -0.2076  0.5442  0.4940
  226MOL0     C31113   4.868  10.922   6.228 -0.5872 -1.1342 -0.4734
  226MOL0     C31114   4.847  10.785   6.213  0.0456 -0.5413  0.1913
  226MOL0     C31115   4.815  10.664   6.202  0.5425  0.1560  0.7737
  226MOL0     C31116   5.087  11.174   6.698  0.2669  0.0619  0.9292
  226MOL0     C31117   5.033  11.270   6.788  0.0984  0.6034  1.0874
  226MOL0     C31118   5.064  11.412   6.768  0.6047  0.2725  0.6986
  226MOL0     H31119   5.039  11.272   7.279  0.8562  0.0546 -0.6732
  226MOL0     H31120   5.026  11.353   7.502  1.1350 -1.0263 -1.1755
  226MOL0     H31121   4.820  11.666   7.593  3.8755  0.3500 -4.2373
  226MOL0     H31122   4.933  11.715   7.714 -0.9689  1.0412  0.6245
  226MOL0     H31123   4.805  11.448   7.671  0.7726  1.7679 -2.8778
  226MOL0     H31124   4.920  11.476   7.797  0.0480  0.0273 -1.1752
  226MOL0     H31125   4.684  11.682   7.780 -1.2456 -1.2685 -1.5450
  226MOL0     H31126   4.667  11.522   7.869 -2.8647  1.2558 -1.4226
  226MOL0     H31127   4.874  11.609   8.006  3.8647  3.8142 -0.0115
  226MOL0     H31128   4.869  11.750   7.907 -2.9726  0.9209 -2.0640
  226MOL0     H31129   4.629  11.674   8.098 -1.5369  1.3130 -0.0357
  226MOL0     H31130   4.625  11.795   7.989  1.3873  0.0119 -0.5992
  226MOL0     H31131   4.854  11.751   8.192  0.3224  0.8792  1.9706
  226MOL0     H31132   4.830  11.903   8.108  0.5534 -0.3847 -1.1480
  226MOL0     H31133   4.669  11.758   8.335 -1.3099 -1.2863 -0.7178
  226MOL0     H31134   4.599  11.894   8.250  0.6175  1.3718  0.4401
  226MOL0     H31135   4.780  12.057   8.331  1.1123  1.3517  1.5263
  226MOL0     H31136   4.689  11.984   8.460 -2.5510  2.4135 -2.5273
  226MOL0     H31137   5.039  11.994   8.302  0.9466  1.0617  0.8969
  226MOL0     H31138   5.278  11.932   8.372 -3.5868  1.1986 -0.5882
  226MOL0     H31139   5.260  11.754   8.384  1.3120  0.7284 -0.7576
  226MOL0     H31140   5.432  11.838   8.518 -0.7475  0.6206  0.3476
  226MOL0     H31141   5.329  11.935   8.618  0.9209 -0.7318  0.4481
  226MOL0     H31142   5.221  11.715   8.695  0.2918  0.2011  0.3923
  226MOL0     H31143   5.329  11.623   8.596 -0.2537  0.3471  0.3731
  226MOL0     H31144   5.518  11.755   8.712 -1.8021  1.9997 -1.1556
  226MOL0     H31145   5.377  11.771   8.825  0.6417  2.4483 -0.9794
  226MOL0     H31146   5.634  11.434   8.912  1.1873 -1.9179  2.1147
  226MOL0     H31147   5.762  11.426   9.225 -0.1062 -1.2781 -0.0641
  226MOL0     H31148   5.743  11.322   9.081  1.8661 -3.5944  3.7309
  226MOL0     H31149   5.660  11.288   9.225 -1.3675 -0.3253 -2.1170
  226MOL0     H31150   5.422  11.666   9.593  0.7372  0.3976  4.0421
  226MOL0     H31151   5.368  11.623   9.841 -0.2322 -1.5141  0.9858
  226MOL0     H31152   5.371  11.554  10.053  0.0850 -0.3693 -0.9394
  226MOL0     H31153   5.215  11.595  10.002  1.2125  2.0270  2.0744
  226MOL0     H31154   5.230  11.544  10.250 -0.1122 -0.8276  1.2878
  226MOL0     H31155   5.113  11.449  10.150  1.5401 -2.3407  0.2411
  226MOL0     H31156   5.393  11.349  10.230 -0.0789  0.9866  4.0324
  226MOL0     H31157   5.252  11.263  10.145 -2.4527  0.4867 -0.5536
  226MOL0     H31158   5.127  11.277  10.348  0.2123 -1.3504 -0.1324
  226MOL0     H31159   5.260  11.373  10.431  2.3403  0.1410 -0.2436
  226MOL0     H31160   5.307  11.086  10.338  1.6182  0.7427 -0.5395
  226MOL0     H31161   5.404  11.190  10.442 -1.1033  2.0012  4.2043
  226MOL0     H31162   5.266  11.180  10.632 -0.3289  2.2796 -1.3816
  226MOL0     H31163   5.256  11.012  10.558 -1.9574 -0.9401 -4.0658
  226MOL0     H31164   5.025  11.067  10.500 -3.8955  2.1318  0.9858
  226MOL0     H31165   5.036  11.230  10.536 -1.2755 -1.5663 -1.0310
  226MOL0     H31166   5.076  11.181  10.785  2.3196  0.0014 -1.0503
  226MOL0     H31167   5.064  11.011  10.744 -1.9565 -1.7583 -0.0966
  226MOL0     H31168   5.268  11.222   9.751 -0.1233 -0.4756 -0.4231
  226MOL0     H31169   5.333  11.257   9.507  0.4334  1.3992 -0.4590
  226MOL0     H31170   5.292  11.609   9.220  0.3247 -1.9785  0.3542
  226MOL0     H31171   5.273  11.661   8.988 -1.3734 -1.9487  1.0219
  226MOL0     H31172   4.975  11.751   7.365 -1.0651  0.2710 -2.6156
  226MOL0     H31173   4.959  11.673   7.130  0.3145 -0.0558 -1.0259
  226MOL0     H31174   4.861  11.049   6.971  1.7871  1.0885  1.3471
  226MOL0     H31175   4.979  10.894   6.831 -3.9615  1.1974  1.8329
  226MOL0     H31176   5.156  11.080   6.472 -0.4388 -0.6699 -1.6535
  226MOL0     H31177   5.230  10.909   6.473 -2.4215 -2.1233  0.9791
  226MOL0     H31178   4.940  10.951   6.489  0.2825  0.8830  0.0964
  226MOL0     H31179   5.037  10.808   6.429 -0.4333 -0.5724  0.5758
  226MOL0     H31180   5.036  11.059   6.260 -0.9157  0.4246 -1.5991
  226MOL0     H31181   5.080  10.890   6.223 -1.7527 -1.1243  0.3796
  226MOL0     H31182   4.842  10.972   6.134 -0.1523 -2.0301 -1.0826
  226MOL0     H31183   4.791  10.949   6.300 -0.9629  3.1244 -2.1746
  226MOL0     H31184   4.793  10.563   6.174  1.3682  0.5075 -1.3685
  226MOL0     H31185   5.153  11.204   6.617  0.3187 -0.1531  0.8924
  226MOL0     H31186   5.135  11.436   6.849  1.3340 -1.3644  0.5782
  226MOL0     H31187   5.115  11.432   6.674 -1.0379  1.7788  0.0803
  226MOL0     H31188   4.978  11.479   6.775  1.9020  2.1573 -0.4428
  227MOL0     O31189   8.356   8.002   2.073 -0.0487 -0.0170 -0.9899
  227MOL0     C31190   8.300   7.953   1.973  0.3542 -0.2978 -1.1150
  227MOL0     O31191   8.211   8.021   1.902  0.6931 -0.2658 -0.1053
  227MOL0     C31192   8.171   8.148   1.934 -0.1254  0.2768 -0.8181
  227MOL0     C31193   8.175   8.244   1.835  0.6136 -0.0819  0.2903
  227MOL0     C31194   8.111   8.366   1.846  1.2575 -0.7451  0.2926
  227MOL0     C31195   8.046   8.402   1.966  0.1320 -0.0250 -0.2300
  227MOL0     O31196   7.959   8.506   1.986 -0.1884 -0.7140 -0.8172
  227MOL0     C31197   7.880   8.553   1.871  0.3986 -0.1042  0.3895
  227MOL0     C31198   7.815   8.689   1.888  0.3064  1.0169 -0.3617
  227MOL0     C31199   7.687   8.689   1.974 -0.2348  0.2660 -0.6109
  227MOL0     C31200   7.645   8.839   1.990 -1.2332 -0.4705 -0.7444
  227MOL0     C31201   7.524   8.870   2.077  0.3299 -0.4790 -0.4713
  227MOL0     C31202   7.396   8.815   2.031 -0.0795 -0.1950  0.7168
  227MOL0     C31203   7.278   8.819   2.127 -1.2762  0.3123 -0.6899
  227MOL0     C31204   7.147   8.761   2.055 -0.9869 -0.5881 -0.8051
  227MOL0     N31205   7.112   8.845   1.942 -0.4205  0.4825  0.0848
  227MOL0     C31206   7.095   8.980   1.955  0.6185 -0.4843  0.3456
  227MOL0     C31207   7.076   9.028   1.827 -0.3525 -0.1112  0.4696
  227MOL0     C31208   7.047   9.164   1.773 -0.6913 -0.9413  0.1501
  227MOL0     C31209   6.932   9.245   1.837  0.3552  0.0039  0.4443
  227MOL0     C31210   6.894   9.351   1.726 -0.2803 -1.2021 -0.6267
  227MOL0     C31211   6.811   9.468   1.769  0.6540  0.0149 -0.6385
  227MOL0     O31212   6.698   9.423   1.852  0.9869  0.5402 -0.2400
  227MOL0     C31213   6.670   9.507   1.959 -0.3716  0.1340  0.3797
  227MOL0     C31214   6.645   9.449   2.080  1.1036  0.0507  0.5249
  227MOL0     C31215   6.611   9.531   2.186 -1.0546 -0.5070  0.2587
  227MOL0     C31216   6.584   9.461   2.321 -0.7855 -0.8313  0.2243
  227MOL0     C31217   6.612   9.673   2.169 -0.5334  0.6362  0.4744
  227MOL0     C31218   6.568   9.769   2.269 -0.0823  0.9851  0.8671
  227MOL0     O31219   6.512   9.884   2.220 -0.1863  0.6418 -0.4058
  227MOL0     C31220   6.459   9.970   2.308  0.7642  1.0860 -0.9896
  227MOL0     C31221   6.322   9.966   2.351  0.6969 -0.5059 -0.0539
  227MOL0     C31222   6.279  10.074   2.433 -0.3185  0.0263 -0.1649
  227MOL0     C31223   6.361  10.175   2.471 -0.0817 -0.8124 -0.8533
  227MOL0     O31224   6.297  10.274   2.540  0.3584  0.7225  0.0695
  227MOL0     C31225   6.362  10.367   2.620 -0.4335  0.3297  0.3505
  227MOL0     C31226   6.399  10.499   2.543 -0.7173 -0.4929 -0.2998
  227MOL0     C31227   6.512  10.510   2.458 -0.6156  0.9986 -0.4860
  227MOL0     C31228   6.554  10.652   2.432 -0.0738 -1.1520  0.8122
  227MOL0     C31229   6.698  10.654   2.372 -0.6168  0.5628  0.8600
  227MOL0     C31230   6.721  10.773   2.274 -0.6395  1.0106 -0.1822
  227MOL0     C31231   6.718  10.916   2.324  0.6124 -0.1364 -0.4716
  227MOL0     C31232   6.782  11.018   2.234 -0.6901  0.2704 -0.1027
  227MOL0    Cl31233   6.711  11.011   2.072  0.0164 -0.1906  0.1858
  227MOL0     C31234   6.494  10.170   2.432 -0.7939 -0.0936 -0.3475
  227MOL0     C31235   6.541  10.069   2.346 -0.4896 -0.8446  0.3993
  227MOL0     O31236   6.599   9.750   2.390 -0.1713 -0.8032  0.5467
  227MOL0     C31237   6.638   9.729   2.039 -0.9085  0.5810 -1.0347
  227MOL0     C31238   6.660   9.642   1.937  0.5912 -0.2101 -0.9004
  227MOL0     N31239   7.094   8.922   1.746 -0.0575  0.8153  0.1448
  227MOL0     N31240   7.106   8.814   1.810  0.4676 -0.1947  0.4448
  227MOL0     C31241   8.049   8.300   2.070  1.3880  0.3237 -0.1497
  227MOL0     C31242   8.108   8.176   2.050  0.0359 -0.6542 -0.2384
  227MOL0     C31243   8.311   7.812   1.954  0.5833 -0.2999 -0.5459
  227MOL0     C31244   8.191   7.746   1.930  0.4474 -0.0893 -0.3726
  227MOL0     C31245   8.190   7.604   1.916  0.2386 -1.9932  0.0195
  227MOL0     C31246   8.308   7.527   1.920 -0.4378  0.8498 -0.4496
  227MOL0     O31247   8.294   7.382   1.911  0.2225  0.1739  0.0621
  227MOL0     C31248   8.404   7.299   1.890  0.1165 -0.4152  0.2064
  227MOL0     C31249   8.386   7.152   1.862 -0.1296 -0.0005 -0.3595
  227MOL0     C31250   8.507   7.058   1.858 -0.5709  0.3727  0.4216
  227MOL0     C31251   8.535   7.004   1.992 -0.1897 -0.5051 -0.2205
  227MOL0     C31252   8.634   6.899   1.987  0.1477  0.7796 -0.1438
  227MOL0     C31253   8.728   6.820   1.991  0.5792  0.0145  0.4955
  227MOL0     C31254   8.423   7.590   1.960  0.2659 -1.1629 -0.5811
  227MOL0     C31255   8.432   7.732   1.967 -0.5150  0.4530  0.3256
  227MOL0     C31256   8.569   7.788   2.003  0.2377 -0.5127  1.3574
  227MOL0     H31257   8.207   8.217   1.735 -2.4619 -1.0021 -0.5453
  227MOL0     H31258   8.110   8.420   1.752  2.6537 -1.1450  0.0201
  227MOL0     H31259   7.813   8.471   1.842  1.6656 -1.2152  0.4948
  227MOL0     H31260   7.951   8.562   1.789  1.8216  0.0633  1.6156
  227MOL0     H31261   7.891   8.751   1.936  1.3940  0.2638 -1.0677
  227MOL0     H31262   7.789   8.737   1.793 -0.6628  2.2920  0.5166
  227MOL0     H31263   7.610   8.627   1.928  1.4294 -1.6309 -1.0017
  227MOL0     H31264   7.699   8.644   2.073 -1.0567 -0.1164 -0.6761
  227MOL0     H31265   7.734   8.893   2.022 -0.6425 -0.1933 -2.7310
  227MOL0     H31266   7.633   8.892   1.895 -0.3916  2.5494  0.7263
  227MOL0     H31267   7.523   8.979   2.090 -0.5960 -0.7379  2.1123
  227MOL0     H31268   7.538   8.846   2.182  2.0772  2.9029  0.2310
  227MOL0     H31269   7.372   8.868   1.938 -1.9261  0.8769  1.7446
  227MOL0     H31270   7.407   8.710   2.001  1.3036 -0.0806  0.7853
  227MOL0     H31271   7.263   8.917   2.174 -2.5885 -0.4046  0.4732
  227MOL0     H31272   7.293   8.754   2.213  0.0336 -0.2752 -1.3453
  227MOL0     H31273   7.183   8.663   2.022 -0.6519 -0.8557  0.2894
  227MOL0     H31274   7.069   8.765   2.132  1.9128  3.1441  2.3561
  227MOL0     H31275   7.079   9.032   2.049 -1.9875 -2.6898  1.2606
  227MOL0     H31276   7.041   9.150   1.665  2.2198 -1.9091  0.0214
  227MOL0     H31277   7.138   9.222   1.793  0.0281 -2.3627  1.2049
  227MOL0     H31278   6.846   9.192   1.878  0.8572 -1.7168 -0.6282
  227MOL0     H31279   6.983   9.292   1.922 -1.1543  0.0065  1.3703
  227MOL0     H31280   6.984   9.385   1.673  0.0876 -0.3024  0.5363
  227MOL0     H31281   6.840   9.301   1.645  1.2967  1.4394 -3.5688
  227MOL0     H31282   6.872   9.540   1.823 -0.7552 -0.6391  1.9715
  227MOL0     H31283   6.771   9.523   1.684 -3.7367 -3.8898 -1.5446
  227MOL0     H31284   6.631   9.343   2.096 -2.1553  0.2332 -0.4432
  227MOL0     H31285   6.502   9.506   2.377 -0.3732  1.9985 -1.2703
  227MOL0     H31286   6.665   9.466   2.394  1.3100 -0.3560 -1.9955
  227MOL0     H31287   6.567   9.354   2.303 -2.3660 -0.7282  0.9799
  227MOL0     H31288   6.257   9.882   2.331  0.7828 -0.3892 -0.8849
  227MOL0     H31289   6.172  10.079   2.450 -0.2540  1.8660 -0.1810
  227MOL0     H31290   6.293  10.374   2.704 -3.0623  0.4403 -1.6889
  227MOL0     H31291   6.455  10.324   2.657 -1.3563 -1.7348  0.4265
  227MOL0     H31292   6.314  10.524   2.477 -0.9545 -0.4151  0.0339
  227MOL0     H31293   6.412  10.576   2.619  0.7335 -2.4218  1.4841
  227MOL0     H31294   6.483  10.454   2.369 -4.2673 -0.5226  1.4357
  227MOL0     H31295   6.600  10.470   2.509 -1.7548  0.1840  0.8906
  227MOL0     H31296   6.547  10.719   2.518 -0.1668 -1.0619  0.7337
  227MOL0     H31297   6.481  10.692   2.361  0.0574  1.6133  2.1230
  227MOL0     H31298   6.776  10.646   2.447 -0.6519 -3.0651  0.6740
  227MOL0     H31299   6.714  10.563   2.314  0.1370  0.1190  1.7585
  227MOL0     H31300   6.636  10.761   2.206  0.0105 -2.5811 -0.5522
  227MOL0     H31301   6.813  10.744   2.222  0.2684 -2.1400  2.7835
  227MOL0     H31302   6.759  10.926   2.425 -0.8316 -0.3724  0.1679
  227MOL0     H31303   6.614  10.945   2.343  1.1022  0.5503  1.3777
  227MOL0     H31304   6.889  10.997   2.220 -1.1898 -2.0552 -0.9629
  227MOL0     H31305   6.762  11.108   2.292 -1.2152  2.0358 -2.8238
  227MOL0     H31306   6.562  10.251   2.456 -0.3759 -0.4191 -0.4231
  227MOL0     H31307   6.644  10.056   2.317 -0.9481 -1.2628 -1.1574
  227MOL0     H31308   6.630   9.835   2.021 -0.2474  1.3512  2.5247
  227MOL0     H31309   6.686   9.683   1.840  0.7876 -0.9402 -1.1617
  227MOL0     H31310   8.015   8.316   2.172  1.7802  1.5406 -0.1995
  227MOL0     H31311   8.098   8.101   2.128  1.5051  0.2387  0.8612
  227MOL0     H31312   8.090   7.786   1.944 -0.6609 -3.2064  1.6143
  227MOL0     H31313   8.087   7.569   1.912  0.0742 -1.4249 -0.9745
  227MOL0     H31314   8.462   7.343   1.808 -2.2864  1.6280 -0.5162
  227MOL0     H31315   8.460   7.294   1.984 -0.0449 -2.5594  0.2281
  227MOL0     H31316   8.346   7.159   1.760  2.2450 -0.1378 -1.3614
  227MOL0     H31317   8.314   7.120   1.938  2.0029 -0.4506  1.5743
  227MOL0     H31318   8.491   6.976   1.786  0.9330  1.3571 -1.1097
  227MOL0     H31319   8.600   7.111   1.834  0.5990 -0.9897  1.7627
  227MOL0     H31320   8.440   6.960   2.026 -1.2315  1.2340 -0.7432
  227MOL0     H31321   8.558   7.083   2.064 -0.4390  1.1893 -1.9417
  227MOL0     H31322   8.817   6.761   1.997  1.1159  0.5997 -1.2673
  227MOL0     H31323   8.512   7.528   1.971  0.0338 -1.4969 -0.5798
  227MOL0     H31324   8.648   7.723   1.963 -2.5981 -2.3251 -1.9491
  227MOL0     H31325   8.594   7.877   1.945 -0.8724 -0.8339  0.3272
  227MOL0     H31326   8.582   7.819   2.107 -1.8024  1.1349  1.1852
  228MOL0     O31327   8.008   6.293  10.918  0.3224  0.3136 -0.5325
  228MOL0     C31328   7.886   6.282  10.938 -0.1329  0.5353  0.1227
  228MOL0     O31329   7.790   6.297  10.841 -0.8295 -0.1606 -0.2277
  228MOL0     C31330   7.812   6.361  10.719 -0.2851  0.5219  0.6899
  228MOL0     C31331   7.760   6.484  10.695 -0.7262  0.4068  0.2794
  228MOL0     C31332   7.783   6.545  10.570 -0.0751 -0.4331 -0.0734
  228MOL0     C31333   7.851   6.475  10.466 -1.1281 -0.1536 -0.5434
  228MOL0     O31334   7.880   6.538  10.348  0.0661 -0.1089 -0.7433
  228MOL0     C31335   7.985   6.632  10.329  1.5090  0.7303  1.2096
  228MOL0     C31336   8.093   6.553  10.239 -0.0071 -0.1576 -0.0044
  228MOL0     C31337   8.213   6.631  10.178 -0.4879  0.5366 -0.2880
  228MOL0     C31338   8.185   6.746  10.087  0.2188  0.1627 -0.0307
  228MOL0     C31339   8.317   6.821  10.065  0.2997  0.8059  0.3889
  228MOL0     C31340   8.303   6.906   9.931 -0.9924  0.7880 -0.8840
  228MOL0     C31341   8.423   6.996   9.924  0.0036  0.1433 -0.7183
  228MOL0     C31342   8.427   7.055   9.779 -0.2566 -0.1138  0.1522
  228MOL0     N31343   8.519   7.166   9.789 -0.7092  0.8685  0.4214
  228MOL0     C31344   8.539   7.253   9.885  0.3935 -0.5246  0.1480
  228MOL0     C31345   8.659   7.310   9.875  0.7449  0.8258 -0.7632
  228MOL0     C31346   8.720   7.416   9.959 -0.1016 -0.6201  0.3892
  228MOL0     C31347   8.794   7.512   9.874 -0.4076 -0.5235 -0.5482
  228MOL0     C31348   8.870   7.615   9.963 -0.1061  0.2946  0.5759
  228MOL0     C31349   8.947   7.713   9.873 -0.5088 -0.0595 -0.0825
  228MOL0     O31350   8.983   7.828   9.954 -0.0161 -0.7801  0.8228
  228MOL0     C31351   9.071   7.804  10.056  0.4073  0.7117 -0.2046
  228MOL0     C31352   9.160   7.699  10.081 -0.1079 -0.2387 -0.2086
  228MOL0     C31353   9.241   7.686  10.195  0.0238  1.0060 -0.9102
  228MOL0     C31354   9.302   7.547  10.207 -1.0239 -0.4980  0.5342
  228MOL0     C31355   9.240   7.789  10.293  0.0395  0.6163  0.2473
  228MOL0     C31356   9.331   7.786  10.413  0.5722  0.0312 -0.1006
  228MOL0     O31357   9.378   7.912  10.444 -0.0427  0.0809 -0.3562
  228MOL0     C31358   9.364   7.938  10.581  0.0212  0.0875  0.4590
  228MOL0     C31359   9.246   7.968  10.636  0.2868 -0.5833  0.6358
  228MOL0     C31360   9.247   7.977  10.771  0.5844  0.0297  1.0126
  228MOL0     C31361   9.357   7.960  10.848 -0.1592  0.2853 -0.1983
  228MOL0     O31362   9.332   7.957  10.984 -0.4992 -0.1223  0.1136
  228MOL0     C31363   9.438   7.942  11.079  0.6252  0.5782 -1.1279
  228MOL0     C31364   9.371   7.951  11.222 -0.4787 -0.2922 -0.9517
  228MOL0     C31365   9.271   8.065  11.242 -1.3603  0.8275 -0.0112
  228MOL0     C31366   9.230   8.092  11.389 -0.6066  0.0020 -0.6834
  228MOL0     C31367   9.155   7.979  11.463  0.4111  0.7053 -0.6667
  228MOL0     C31368   9.148   8.004  11.618 -0.5025  0.2192  0.3361
  228MOL0     C31369   9.027   7.932  11.681 -0.4883 -0.0317  0.8333
  228MOL0     C31370   9.046   7.910  11.832  0.0571  0.2012  0.1152
  228MOL0    Cl31371   9.066   8.055  11.943  0.2314 -0.0073  0.3279
  228MOL0     C31372   9.480   7.957  10.790  0.4051  0.3024 -0.3124
  228MOL0     C31373   9.484   7.935  10.654 -0.4925  0.9291 -0.1226
  228MOL0     O31374   9.373   7.685  10.468  1.1220  0.2920 -0.6202
  228MOL0     C31375   9.143   7.891  10.278  0.2761  0.4288  0.9977
  228MOL0     C31376   9.061   7.898  10.162  0.5963  0.5184 -0.7517
  228MOL0     N31377   8.717   7.242   9.770 -0.3723  0.4807 -0.1108
  228MOL0     N31378   8.635   7.154   9.718  0.3196 -0.1744  0.2615
  228MOL0     C31379   7.893   6.343  10.498 -0.2765 -0.1377 -0.3757
  228MOL0     C31380   7.882   6.283  10.621  0.4546 -0.5416  0.1473
  228MOL0     C31381   7.848   6.244  11.084  0.0766 -0.2158 -0.2127
  228MOL0     C31382   7.934   6.176  11.165 -0.0637 -0.4493 -0.1813
  228MOL0     C31383   7.898   6.142  11.301 -0.7902 -0.1285  0.2072
  228MOL0     C31384   7.773   6.182  11.345  0.0712 -0.5001  0.3901
  228MOL0     O31385   7.758   6.150  11.479 -0.8674  0.0476  0.4636
  228MOL0     C31386   7.644   6.082  11.520  0.4086 -0.0483 -0.1508
  228MOL0     C31387   7.691   5.957  11.599  0.3099  0.0969 -1.2646
  228MOL0     C31388   7.759   5.979  11.732  0.8636 -0.5757  0.4109
  228MOL0     C31389   7.682   6.067  11.833  0.1452 -0.2793 -0.2182
  228MOL0     C31390   7.542   6.019  11.862  0.1418 -0.3384 -0.3220
  228MOL0     C31391   7.436   5.972  11.907  0.5434  0.6100  1.0378
  228MOL0     C31392   7.685   6.252  11.266 -0.1214  0.2786  0.3274
  228MOL0     C31393   7.717   6.283  11.134 -0.5630 -0.7208  0.5001
  228MOL0     C31394   7.633   6.376  11.062  0.5559 -0.5187 -0.1017
  228MOL0     H31395   7.713   6.553  10.765 -1.9740  3.5868 -3.2946
  228MOL0     H31396   7.740   6.644  10.560  1.8848  0.2617 -2.5839
  228MOL0     H31397   8.025   6.677  10.420 -1.9148 -0.9456  3.7526
  228MOL0     H31398   7.953   6.712  10.261 -1.6202 -1.8700 -0.6400
  228MOL0     H31399   8.136   6.483  10.311 -2.1498 -0.0220  1.5291
  228MOL0     H31400   8.031   6.497  10.168 -2.1354  0.5457  1.1976
  228MOL0     H31401   8.268   6.675  10.262  0.0213  1.1997 -0.9661
  228MOL0     H31402   8.278   6.560  10.126 -0.7221 -0.5077  0.7928
  228MOL0     H31403   8.134   6.697  10.003  2.8718 -3.5107  0.2636
  228MOL0     H31404   8.111   6.806  10.141 -0.1773 -0.2031 -0.1556
  228MOL0     H31405   8.400   6.750  10.076 -0.0290  0.4355  0.4988
  228MOL0     H31406   8.330   6.897  10.142  0.6434 -0.2791  1.4399
  228MOL0     H31407   8.314   6.842   9.842  1.0272  1.4420 -1.1600
  228MOL0     H31408   8.214   6.970   9.931  0.2788  2.6894  1.3048
  228MOL0     H31409   8.516   6.943   9.942 -1.0354 -2.1977 -1.7574
  228MOL0     H31410   8.403   7.076   9.995 -2.4640 -0.4104 -0.6846
  228MOL0     H31411   8.462   6.976   9.713  2.0682  1.1008 -0.1592
  228MOL0     H31412   8.331   7.099   9.747  1.5225  1.6830 -3.2405
  228MOL0     H31413   8.476   7.274   9.972 -1.6579 -0.9562 -1.1549
  228MOL0     H31414   8.776   7.364  10.038 -0.2355 -1.7645 -0.2439
  228MOL0     H31415   8.639   7.474  10.006  1.6553  1.6182  0.8119
  228MOL0     H31416   8.863   7.453   9.813  0.0304 -0.4153 -0.1641
  228MOL0     H31417   8.724   7.568   9.811  1.5366  1.2300 -1.2809
  228MOL0     H31418   8.788   7.668  10.013  1.4061  0.7165  2.7627
  228MOL0     H31419   8.943   7.570  10.031  0.6238 -0.9080 -0.9356
  228MOL0     H31420   9.029   7.664   9.818 -2.2445 -3.5142  0.1434
  228MOL0     H31421   8.882   7.750   9.794  0.6936 -0.6140 -1.3847
  228MOL0     H31422   9.180   7.622  10.007  2.5804  0.0931  0.0494
  228MOL0     H31423   9.411   7.545  10.198 -1.0758 -1.7301 -0.1043
  228MOL0     H31424   9.263   7.480  10.130 -3.3861  0.9702  0.3764
  228MOL0     H31425   9.279   7.494  10.300  0.7737 -2.1420  0.1091
  228MOL0     H31426   9.154   7.980  10.579  0.2177 -2.9783  0.1397
  228MOL0     H31427   9.150   7.987  10.820  0.6910 -1.7887  1.6876
  228MOL0     H31428   9.496   7.854  11.052  0.1276  0.5298 -2.0603
  228MOL0     H31429   9.508   8.025  11.071  1.3062  0.4522  2.1482
  228MOL0     H31430   9.327   7.851  11.229 -1.6359  0.1738 -1.4323
  228MOL0     H31431   9.444   7.963  11.303 -0.2138  1.7186 -1.4511
  228MOL0     H31432   9.183   8.047  11.180 -0.9889 -1.6161  0.0707
  228MOL0     H31433   9.324   8.155  11.208  1.1664 -0.6181 -0.1841
  228MOL0     H31434   9.167   8.180  11.405 -1.2516 -0.8055  1.6299
  228MOL0     H31435   9.327   8.118  11.431  0.3957 -2.2217 -1.4359
  228MOL0     H31436   9.057   7.965  11.416 -0.5988  0.1375  1.5009
  228MOL0     H31437   9.208   7.887  11.437 -2.6736 -2.6952  3.6484
  228MOL0     H31438   9.131   8.109  11.642  0.3665  0.2994  0.6236
  228MOL0     H31439   9.242   7.967  11.661  0.0049 -0.1730 -1.0283
  228MOL0     H31440   9.006   7.839  11.627  2.4626  0.0060 -0.5913
  228MOL0     H31441   8.938   7.994  11.672 -0.4685 -0.2127 -0.9015
  228MOL0     H31442   9.134   7.847  11.850 -1.2678 -1.9339 -0.4376
  228MOL0     H31443   8.957   7.861  11.873  0.0646 -1.1754 -1.4282
  228MOL0     H31444   9.575   7.955  10.843  1.1283 -1.2430 -1.5667
  228MOL0     H31445   9.577   7.914  10.603 -1.8877  0.5281 -2.6758
  228MOL0     H31446   9.128   7.962  10.359  2.8098  0.0337  1.8940
  228MOL0     H31447   8.998   7.985  10.150  0.5132  1.0785  2.6909
  228MOL0     H31448   7.925   6.290  10.410  1.4555  0.2071  0.0007
  228MOL0     H31449   7.914   6.183  10.648  0.3887  0.1776  3.2960
  228MOL0     H31450   8.027   6.142  11.121  0.7613  1.1799  0.2082
  228MOL0     H31451   7.964   6.096  11.373 -0.0166 -2.6313 -1.9513
  228MOL0     H31452   7.573   6.142  11.578  0.9382  2.5116 -2.0063
  228MOL0     H31453   7.597   6.049  11.427  0.5820  0.6064 -0.4728
  228MOL0     H31454   7.777   5.920  11.543  0.7252  0.3668 -0.8229
  228MOL0     H31455   7.611   5.883  11.601  0.7732 -0.4073 -0.0240
  228MOL0     H31456   7.765   5.880  11.776  1.3939  0.4771  2.8469
  228MOL0     H31457   7.859   6.021  11.723  0.0590  1.4045 -0.0685
  228MOL0     H31458   7.679   6.166  11.787  3.1553 -0.1307 -0.3236
  228MOL0     H31459   7.728   6.068  11.932 -1.3490 -0.1658  0.4945
  228MOL0     H31460   7.353   5.922  11.952  1.1147 -2.2691 -0.7971
  228MOL0     H31461   7.590   6.270  11.315  1.3497  2.4183  2.6398
  228MOL0     H31462   7.691   6.441  10.996  1.2044  0.0832  1.0313
  228MOL0     H31463   7.560   6.328  10.996  0.1924 -0.9789  0.6232
  228MOL0     H31464   7.576   6.439  11.132  0.1952 -0.4155 -0.4874
  229MOL0     O31465   1.194   9.385  10.342 -0.1839  0.7815 -1.1723
  229MOL0     C31466   1.295   9.336  10.294  0.6464  0.3830  0.1099
  229MOL0     O31467   1.302   9.274  10.165 -0.8475  0.1957 -0.5194
  229MOL0     C31468   1.202   9.319  10.081 -0.5428  1.4062  0.8251
  229MOL0     C31469   1.153   9.217   9.994 -0.6167  0.0353 -0.6584
  229MOL0     C31470   1.056   9.240   9.897 -0.0588 -0.0702  0.2064
  229MOL0     C31471   0.997   9.364   9.892  0.1008 -0.3097 -1.0766
  229MOL0     O31472   0.895   9.393   9.809  0.7813  0.0655 -0.5809
  229MOL0     C31473   0.863   9.300   9.709  0.5385 -0.1199 -0.3842
  229MOL0     C31474   0.708   9.317   9.692 -0.9482  0.1014 -0.4814
  229MOL0     C31475   0.664   9.433   9.597 -0.2527 -0.3573 -0.0212
  229MOL0     C31476   0.508   9.449   9.597 -0.7222 -0.1793 -0.1580
  229MOL0     C31477   0.449   9.582   9.541  0.4771 -0.0895 -0.0159
  229MOL0     C31478   0.482   9.715   9.620 -0.7444 -0.3048  0.8258
  229MOL0     C31479   0.371   9.818   9.602  0.4916  0.6586 -0.4506
  229MOL0     C31480   0.245   9.787   9.695 -0.4270 -0.5468 -0.2473
  229MOL0     N31481   0.165   9.908   9.711  0.2239  0.5780 -0.4711
  229MOL0     C31482   0.186  10.007   9.809 -1.0499  0.6979  0.3897
  229MOL0     C31483   0.121  10.119   9.751  1.0192  0.7586  0.8099
  229MOL0     C31484   0.100  10.248   9.819 -0.6878  1.3053  0.3164
  229MOL0     C31485   0.134  10.360   9.727 -0.0428 -1.2370  0.2418
  229MOL0     C31486   0.121  10.504   9.780  0.6777 -0.5903 -0.7952
  229MOL0     C31487  -0.017  10.534   9.844 -0.0550  0.7334  0.1399
  229MOL0     O31488  -0.056  10.674   9.832 -0.1765  0.3039  0.2429
  229MOL0     C31489  -0.017  10.754   9.932  0.7291 -0.6965  0.0352
  229MOL0     C31490   0.107  10.813   9.932 -0.8810 -0.2143  0.3090
  229MOL0     C31491   0.143  10.911  10.026  0.2849  0.1075 -1.0337
  229MOL0     C31492   0.280  10.981  10.021 -0.7270  0.1261 -0.5373
  229MOL0     C31493   0.047  10.964  10.122  1.1635  0.6873  0.6079
  229MOL0     C31494   0.070  11.070  10.227 -0.0521 -0.2665  0.7798
  229MOL0     O31495   0.006  11.057  10.345  0.3546 -0.2526 -0.1062
  229MOL0     C31496  -0.015  11.164  10.424  0.4135  0.0475  0.3165
  229MOL0     C31497  -0.052  11.290  10.380  0.9566  0.0371 -0.2774
  229MOL0     C31498  -0.077  11.397  10.471 -0.5201  0.1557 -0.4665
  229MOL0     C31499  -0.049  11.379  10.608 -0.0279 -1.1253 -0.4543
  229MOL0     O31500  -0.030  11.482  10.708 -1.1694  0.3093  0.7085
  229MOL0     C31501  -0.061  11.614  10.658  0.3613  0.2665  0.3054
  229MOL0     C31502  -0.118  11.704  10.776  0.5680  0.2411  0.5039
  229MOL0     C31503  -0.246  11.652  10.830 -0.1575  0.8476  0.1579
  229MOL0     C31504  -0.230  11.573  10.959 -0.1234 -0.0462 -0.1942
  229MOL0     C31505  -0.369  11.532  11.008 -0.3148  0.2228 -0.2441
  229MOL0     C31506  -0.349  11.425  11.122  0.7928  0.3045  0.7289
  229MOL0     C31507  -0.292  11.499  11.233 -0.5893 -0.8622 -0.2848
  229MOL0     C31508  -0.263  11.419  11.354  0.0701  0.2952  1.1733
  229MOL0    Cl31509  -0.397  11.383  11.459  0.2660  0.0390  0.0480
  229MOL0     C31510  -0.012  11.250  10.651  0.2216 -0.7659 -0.6598
  229MOL0     C31511   0.003  11.146  10.560  0.5637 -0.1352 -0.2781
  229MOL0     O31512   0.125  11.174  10.185 -0.2174  0.2792  0.3887
  229MOL0     C31513  -0.083  10.901  10.115  1.1312  0.2265 -0.3764
  229MOL0     C31514  -0.114  10.806  10.013 -0.0787  0.2089 -0.0751
  229MOL0     N31515   0.068  10.084   9.625  0.8308 -0.4531 -0.6093
  229MOL0     N31516   0.084   9.963   9.606  0.4313  0.8250 -0.0714
  229MOL0     C31517   1.049   9.465   9.977 -0.2783  0.5149 -0.3871
  229MOL0     C31518   1.150   9.431  10.067 -0.2561 -0.5221  0.4683
  229MOL0     C31519   1.404   9.314  10.386  0.1560 -1.4362  0.4620
  229MOL0     C31520   1.417   9.401  10.493  0.6916 -0.1912  0.1699
  229MOL0     C31521   1.518   9.389  10.589  0.6394 -0.4181  0.5272
  229MOL0     C31522   1.609   9.286  10.576  0.3581 -0.3934  0.0867
  229MOL0     O31523   1.713   9.267  10.670 -0.8952  0.3088 -0.3117
  229MOL0     C31524   1.707   9.317  10.806  0.6200  0.1066  0.1168
  229MOL0     C31525   1.586   9.268  10.884  0.7085 -1.3448 -0.6316
  229MOL0     C31526   1.572   9.121  10.901 -0.1017 -1.1270 -0.8549
  229MOL0     C31527   1.440   9.073  10.956 -0.3056  0.5739  1.2644
  229MOL0     C31528   1.443   9.101  11.100 -0.1328  0.2787 -0.5645
  229MOL0     C31529   1.444   9.125  11.216 -0.9429  0.8043  1.2869
  229MOL0     C31530   1.600   9.199  10.475  0.4412  1.0771  0.5214
  229MOL0     C31531   1.504   9.208  10.375  0.0361  0.1218  0.2721
  229MOL0     C31532   1.507   9.091  10.270 -1.0657  0.5636  0.2839
  229MOL0     H31533   1.206   9.123  10.004 -3.3675 -1.4510  0.8421
  229MOL0     H31534   1.035   9.153   9.835  3.2223 -0.5658 -0.3610
  229MOL0     H31535   0.874   9.192   9.724 -0.2499  0.0285  1.5006
  229MOL0     H31536   0.910   9.340   9.619 -1.4659 -0.6330 -1.7078
  229MOL0     H31537   0.665   9.223   9.656 -2.2645 -0.2701  1.8627
  229MOL0     H31538   0.664   9.324   9.792 -2.0841  0.2673 -0.9733
  229MOL0     H31539   0.723   9.519   9.631  3.1561 -2.7493  0.6885
  229MOL0     H31540   0.676   9.427   9.489 -2.3822 -0.5654 -0.2786
  229MOL0     H31541   0.455   9.363   9.556 -0.7949 -0.2304  0.0391
  229MOL0     H31542   0.477   9.447   9.702 -0.8399 -2.4207 -0.1964
  229MOL0     H31543   0.343   9.556   9.550  1.2801 -3.2958  1.4559
  229MOL0     H31544   0.474   9.582   9.435  0.2356 -2.8064 -0.1382
  229MOL0     H31545   0.509   9.706   9.725  4.0320  0.7056 -0.0782
  229MOL0     H31546   0.579   9.758   9.594 -0.7971 -0.2492  0.7156
  229MOL0     H31547   0.339   9.811   9.497  1.8502 -1.1451 -0.8057
  229MOL0     H31548   0.415   9.917   9.616 -1.6307  1.4284  1.1601
  229MOL0     H31549   0.177   9.715   9.650 -1.2957 -1.1472  1.9044
  229MOL0     H31550   0.281   9.751   9.792 -2.5647 -0.5809  0.6001
  229MOL0     H31551   0.238  10.000   9.904  1.8871 -1.3016 -1.2293
  229MOL0     H31552   0.165  10.238   9.906  0.5802 -1.3744 -0.8135
  229MOL0     H31553  -0.007  10.253   9.840 -1.0321  2.3388 -1.4780
  229MOL0     H31554   0.241  10.348   9.706 -0.3095 -3.3551 -0.1621
  229MOL0     H31555   0.076  10.363   9.635  0.0164  0.0367  0.2258
  229MOL0     H31556   0.194  10.512   9.860 -1.5421 -1.9438  1.5290
  229MOL0     H31557   0.137  10.572   9.696 -2.0285  3.1935  1.4344
  229MOL0     H31558  -0.097  10.478   9.794  1.3656 -2.6157  1.3275
  229MOL0     H31559  -0.011  10.495   9.946 -1.0158 -0.6886 -0.3111
  229MOL0     H31560   0.187  10.785   9.864 -0.9394  1.3875 -0.4774
  229MOL0     H31561   0.332  10.995  10.117  0.5545  0.6216 -1.2782
  229MOL0     H31562   0.272  11.076   9.967 -0.5534 -0.0516 -0.8765
  229MOL0     H31563   0.351  10.925   9.960 -1.5863  0.3708 -1.7846
  229MOL0     H31564  -0.061  11.314  10.274 -2.3554 -0.9277 -0.3428
  229MOL0     H31565  -0.088  11.494  10.423 -2.6265  0.7171  1.0130
  229MOL0     H31566   0.034  11.656  10.624 -0.4611  1.1481 -1.0116
  229MOL0     H31567  -0.123  11.622  10.568 -0.1280  0.0641  0.6195
  229MOL0     H31568  -0.044  11.722  10.855 -0.0005 -0.4073  1.2023
  229MOL0     H31569  -0.132  11.804  10.733  0.8991  1.2968  2.7033
  229MOL0     H31570  -0.298  11.590  10.757  1.0096  0.7036 -0.5769
  229MOL0     H31571  -0.325  11.725  10.852 -1.6652 -1.7153  4.3895
  229MOL0     H31572  -0.188  11.639  11.036  0.9374  0.5951 -1.2791
  229MOL0     H31573  -0.169  11.484  10.940 -3.1301 -2.2318 -0.1949
  229MOL0     H31574  -0.412  11.628  11.038 -0.0310 -0.0655  1.1369
  229MOL0     H31575  -0.426  11.495  10.923  2.8041 -1.8783 -1.6312
  229MOL0     H31576  -0.275  11.346  11.103  0.6110  0.1515  0.6440
  229MOL0     H31577  -0.443  11.380  11.156  2.2931 -2.1986  1.8953
  229MOL0     H31578  -0.352  11.589  11.252 -1.1568 -0.8082 -2.1039
  229MOL0     H31579  -0.193  11.540  11.207 -1.1329  2.2165  1.9136
  229MOL0     H31580  -0.203  11.481  11.420  2.3790 -0.0320 -0.5065
  229MOL0     H31581  -0.221  11.319  11.346 -2.1819 -0.6465  0.0626
  229MOL0     H31582   0.007  11.229  10.755 -1.1012  2.2459  0.3131
  229MOL0     H31583   0.018  11.043  10.590 -2.6433 -0.5290  0.2943
  229MOL0     H31584  -0.152  10.939  10.189  0.8586 -3.5666  1.5468
  229MOL0     H31585  -0.217  10.774  10.002 -1.0056  2.7518  0.5612
  229MOL0     H31586   0.992   9.557   9.971  1.4520  1.6387 -0.4312
  229MOL0     H31587   1.200   9.516  10.113  3.3964 -0.6477 -2.7742
  229MOL0     H31588   1.341   9.474  10.520 -0.0100 -0.3359 -1.3495
  229MOL0     H31589   1.521   9.458  10.672 -3.4628 -0.3542  0.7867
  229MOL0     H31590   1.787   9.263  10.859  1.8913 -1.1407 -2.8514
  229MOL0     H31591   1.723   9.425  10.815  2.0812  0.1285 -2.0184
  229MOL0     H31592   1.490   9.304  10.845 -0.9827 -1.0681  3.3029
  229MOL0     H31593   1.591   9.308  10.986 -0.0502  1.3933 -1.5662
  229MOL0     H31594   1.577   9.072  10.803  2.2675 -0.5392 -1.0716
  229MOL0     H31595   1.652   9.070  10.955 -1.4992 -1.3124  1.1865
  229MOL0     H31596   1.429   8.967  10.931  2.8935  0.5139 -0.4258
  229MOL0     H31597   1.361   9.129  10.906  0.8395  0.8935 -0.2750
  229MOL0     H31598   1.475   9.164  11.311  4.9212 -1.1670  0.6268
  229MOL0     H31599   1.671   9.118  10.463 -0.4602  0.3591 -0.1212
  229MOL0     H31600   1.406   9.061  10.242  0.3598 -3.6635 -1.0997
  229MOL0     H31601   1.569   9.138  10.193 -1.8635  4.3493  1.7075
  229MOL0     H31602   1.558   9.007  10.317 -2.0408 -0.8612 -1.1285
  230MOL0     O31603   7.001   1.722   9.402  0.1769 -0.1944 -0.7450
  230MOL0     C31604   7.016   1.815   9.479 -1.7229  0.2313 -0.1338
  230MOL0     O31605   6.915   1.889   9.540  0.1477  0.6855 -0.1107
  230MOL0     C31606   6.808   1.910   9.453 -0.5520  0.1539 -0.8087
  230MOL0     C31607   6.694   1.830   9.473  0.2881 -0.7245 -0.2470
  230MOL0     C31608   6.571   1.854   9.401 -0.3784  0.0822 -0.2587
  230MOL0     C31609   6.578   1.957   9.304  0.5709  0.1387 -0.1093
  230MOL0     O31610   6.470   1.986   9.232 -0.7781 -0.2668  0.5320
  230MOL0     C31611   6.389   1.881   9.188 -0.5998 -0.0102  0.2520
  230MOL0     C31612   6.324   1.935   9.063  0.1567 -0.4337  1.0032
  230MOL0     C31613   6.418   1.964   8.941  0.4137 -1.1442 -0.1362
  230MOL0     C31614   6.326   2.018   8.822 -0.0796  0.0068  0.2717
  230MOL0     C31615   6.402   2.086   8.715  0.3505 -0.8327  0.6748
  230MOL0     C31616   6.312   2.121   8.592 -0.5677  0.6674  0.6631
  230MOL0     C31617   6.293   2.005   8.511 -0.5077  0.0710  0.3142
  230MOL0     C31618   6.224   2.036   8.377  0.9873 -0.0682  0.0499
  230MOL0     N31619   6.317   2.097   8.279  0.3638  0.3856  0.4429
  230MOL0     C31620   6.300   2.220   8.227 -0.6735 -0.0862 -0.0460
  230MOL0     C31621   6.388   2.236   8.130 -0.2750  1.5494  0.1481
  230MOL0     C31622   6.409   2.364   8.054 -0.4403 -0.7848  0.8870
  230MOL0     C31623   6.485   2.478   8.118  1.2413 -0.9148  0.6264
  230MOL0     C31624   6.475   2.608   8.035  0.3556 -0.2410 -0.7283
  230MOL0     C31625   6.612   2.678   8.030  1.0191 -0.4057 -0.4674
  230MOL0     O31626   6.653   2.696   8.168 -0.3741  0.3201 -0.8939
  230MOL0     C31627   6.743   2.792   8.191 -0.4883  0.7390 -0.0090
  230MOL0     C31628   6.781   2.892   8.104 -1.5322 -0.4977  0.2119
  230MOL0     C31629   6.897   2.973   8.132 -0.1376 -0.3750  0.4376
  230MOL0     C31630   6.930   3.083   8.035  0.3423 -0.1354  1.1030
  230MOL0     C31631   6.959   2.950   8.252 -0.1899 -0.5175  0.0754
  230MOL0     C31632   7.081   3.027   8.294  0.3612 -0.8689  0.0857
  230MOL0     O31633   7.161   3.085   8.195  0.0127  0.2080 -0.4178
  230MOL0     C31634   7.297   3.107   8.233 -1.2894 -0.0775 -0.4672
  230MOL0     C31635   7.389   3.029   8.171 -1.0053  0.9929  0.6870
  230MOL0     C31636   7.530   3.033   8.201  0.0142 -0.1196  0.2156
  230MOL0     C31637   7.569   3.111   8.306 -0.2708  0.2070 -1.0263
  230MOL0     O31638   7.707   3.117   8.343  0.5338  0.0530 -0.6652
  230MOL0     C31639   7.767   3.236   8.408  0.0232 -0.3092  0.8929
  230MOL0     C31640   7.803   3.357   8.310  0.6910 -0.1861 -0.4529
  230MOL0     C31641   7.687   3.445   8.274 -0.0065 -0.5424 -0.4866
  230MOL0     C31642   7.624   3.516   8.390  0.9252 -0.3141 -1.2161
  230MOL0     C31643   7.481   3.561   8.358 -0.0243  0.5635  0.4646
  230MOL0     C31644   7.464   3.673   8.258 -1.0684  0.4121  0.7901
  230MOL0     C31645   7.318   3.722   8.259 -0.2365  0.1155 -0.1618
  230MOL0     C31646   7.303   3.842   8.173 -1.5120 -0.6742  0.6543
  230MOL0    Cl31647   7.133   3.904   8.187 -0.2479  0.0241  0.2281
  230MOL0     C31648   7.475   3.195   8.375 -0.0614  0.2683  1.1266
  230MOL0     C31649   7.336   3.196   8.335 -0.2271 -0.2468 -1.1112
  230MOL0     O31650   7.097   3.043   8.412 -0.9952  0.2786  1.1024
  230MOL0     C31651   6.901   2.861   8.346  0.6974 -0.5832  0.4587
  230MOL0     C31652   6.797   2.786   8.320 -0.5435  0.2704  0.1101
  230MOL0     N31653   6.438   2.115   8.105 -0.0612  0.2122  1.1060
  230MOL0     N31654   6.397   2.031   8.190 -0.7948 -0.2686 -0.5285
  230MOL0     C31655   6.687   2.037   9.288 -0.7033 -0.1219  0.4442
  230MOL0     C31656   6.802   2.016   9.361 -0.2427 -0.0596  0.8256
  230MOL0     C31657   7.162   1.856   9.522  0.5108 -0.3776 -0.5022
  230MOL0     C31658   7.183   1.960   9.615  0.6505  0.1200 -0.5555
  230MOL0     C31659   7.312   2.011   9.656 -0.4490 -0.7176 -0.1625
  230MOL0     C31660   7.420   1.953   9.596  1.1300  0.5787  1.3000
  230MOL0     O31661   7.547   1.979   9.638  0.0468 -0.0848 -0.5462
  230MOL0     C31662   7.592   2.116   9.618 -0.3436 -0.7803 -0.2539
  230MOL0     C31663   7.711   2.115   9.524 -0.2608  0.1424  0.8347
  230MOL0     C31664   7.847   2.057   9.592  0.2591 -0.9960 -0.2434
  230MOL0     C31665   7.951   2.045   9.477  0.3213  0.2993  0.4287
  230MOL0     C31666   7.997   2.170   9.412  0.2413  0.2475  0.6917
  230MOL0     C31667   8.039   2.272   9.364  0.4912  0.2539  0.3463
  230MOL0     C31668   7.396   1.846   9.505  0.7043  0.2231  0.8352
  230MOL0     C31669   7.272   1.801   9.462 -0.3267 -1.5464  0.4096
  230MOL0     C31670   7.277   1.686   9.362  0.0856 -0.5524  0.3537
  230MOL0     H31671   6.680   1.767   9.561  0.2645 -2.3435 -1.3542
  230MOL0     H31672   6.472   1.811   9.408 -0.9619  1.0394 -2.0950
  230MOL0     H31673   6.307   1.859   9.257 -0.7817 -0.8940 -0.2246
  230MOL0     H31674   6.436   1.789   9.152 -0.9602  0.2315 -0.8825
  230MOL0     H31675   6.247   1.863   9.031  3.6800 -3.0339 -2.7782
  230MOL0     H31676   6.280   2.031   9.088  1.9655 -0.1669  3.5844
  230MOL0     H31677   6.501   2.030   8.968 -1.6396  0.5923  2.4649
  230MOL0     H31678   6.456   1.864   8.917  0.0876 -1.1620 -0.6010
  230MOL0     H31679   6.265   1.934   8.788  0.6713 -1.1597  1.6769
  230MOL0     H31680   6.259   2.079   8.883  1.0353  0.0277  1.5385
  230MOL0     H31681   6.478   2.013   8.687 -0.6080 -1.8275  0.5753
  230MOL0     H31682   6.450   2.180   8.745  0.1038 -0.5938  0.3364
  230MOL0     H31683   6.213   2.164   8.613 -1.4328 -0.5829 -0.6531
  230MOL0     H31684   6.365   2.198   8.535  0.0775  0.8569  1.4926
  230MOL0     H31685   6.218   1.944   8.561 -1.1784 -0.2698 -1.0684
  230MOL0     H31686   6.383   1.946   8.490 -0.8038 -0.5759  0.8499
  230MOL0     H31687   6.174   1.942   8.354  0.7253  0.4625 -1.6988
  230MOL0     H31688   6.140   2.106   8.380 -1.2814 -2.1142 -4.7415
  230MOL0     H31689   6.240   2.303   8.264 -1.3319 -0.5148 -0.1315
  230MOL0     H31690   6.307   2.393   8.030 -1.1492 -1.5938  2.7408
  230MOL0     H31691   6.458   2.352   7.956  1.3898 -2.4378  1.9316
  230MOL0     H31692   6.449   2.484   8.221 -2.4290 -2.5736 -0.3789
  230MOL0     H31693   6.590   2.449   8.126  2.4158  2.1485 -1.5569
  230MOL0     H31694   6.443   2.590   7.932 -2.7078 -0.2256  0.1256
  230MOL0     H31695   6.395   2.666   8.083  1.7628  1.4044 -0.2663
  230MOL0     H31696   6.683   2.615   7.975 -0.6790 -3.1933  0.3378
  230MOL0     H31697   6.586   2.773   7.984 -1.1250  0.4319  2.2871
  230MOL0     H31698   6.718   2.926   8.023  3.9671  0.2511 -4.4021
  230MOL0     H31699   6.846   3.101   7.967  2.9662  0.9838 -2.0754
  230MOL0     H31700   7.024   3.053   7.988 -0.1410 -0.4571  0.3138
  230MOL0     H31701   6.948   3.183   8.074  1.7959  0.5809 -1.1898
  230MOL0     H31702   7.369   2.957   8.093 -0.2349 -0.7950  2.0667
  230MOL0     H31703   7.605   2.971   8.153  0.0070  3.1478 -4.6750
  230MOL0     H31704   7.705   3.278   8.488  0.8561 -0.7474  1.7971
  230MOL0     H31705   7.863   3.191   8.436 -0.3830 -0.7462  1.6322
  230MOL0     H31706   7.874   3.426   8.357 -2.1994  1.7027  1.5368
  230MOL0     H31707   7.840   3.318   8.215  0.7753  0.3282 -0.6351
  230MOL0     H31708   7.606   3.382   8.237  0.4082 -0.8103 -0.9413
  230MOL0     H31709   7.719   3.512   8.194  1.9048 -0.4965  0.2436
  230MOL0     H31710   7.681   3.605   8.418 -2.2751  1.3913  0.3768
  230MOL0     H31711   7.604   3.455   8.479 -3.7666  0.2832 -1.5977
  230MOL0     H31712   7.407   3.483   8.338  1.6100 -1.7503  2.8319
  230MOL0     H31713   7.455   3.598   8.458  2.3779  2.8995  0.3356
  230MOL0     H31714   7.471   3.632   8.157 -0.4085 -2.4984  1.9207
  230MOL0     H31715   7.542   3.749   8.265 -1.7192  1.0734  1.0280
  230MOL0     H31716   7.289   3.726   8.364 -1.4687 -1.9171 -0.3621
  230MOL0     H31717   7.254   3.650   8.208 -0.5778  1.3766 -1.5833
  230MOL0     H31718   7.317   3.806   8.070 -2.9480 -0.7376  0.4647
  230MOL0     H31719   7.370   3.924   8.198  0.9776 -1.1828 -3.4017
  230MOL0     H31720   7.506   3.269   8.449 -0.8479  2.0769 -0.2699
  230MOL0     H31721   7.263   3.265   8.376  0.8923  2.3873 -3.2954
  230MOL0     H31722   6.942   2.847   8.446 -0.3483 -0.1008  0.9704
  230MOL0     H31723   6.771   2.709   8.391  3.4663 -0.8947  0.5745
  230MOL0     H31724   6.674   2.113   9.212  1.1668  0.6013  0.7837
  230MOL0     H31725   6.884   2.087   9.359 -0.6715  0.4780  1.8570
  230MOL0     H31726   7.094   1.998   9.665 -0.0044 -2.9155  0.8255
  230MOL0     H31727   7.307   2.096   9.724  2.7905  1.4926 -2.4360
  230MOL0     H31728   7.513   2.178   9.576  0.5248  0.2506 -0.3986
  230MOL0     H31729   7.619   2.166   9.712 -3.2093 -1.5781  1.1143
  230MOL0     H31730   7.728   2.213   9.478 -0.2189 -1.1178 -2.0313
  230MOL0     H31731   7.682   2.060   9.435 -3.9586  1.5651  0.9998
  230MOL0     H31732   7.883   2.120   9.673 -1.1930  0.6723 -0.8187
  230MOL0     H31733   7.811   1.961   9.629  0.1871 -1.1909 -0.8055
  230MOL0     H31734   7.902   1.979   9.405 -0.3813  1.7655 -0.4708
  230MOL0     H31735   8.045   2.001   9.514  0.6470  0.0723 -0.6336
  230MOL0     H31736   8.056   2.371   9.325 -1.8154  0.2380 -0.9415
  230MOL0     H31737   7.483   1.790   9.472 -1.5479 -2.4533 -1.0579
  230MOL0     H31738   7.223   1.712   9.271 -0.9011  1.8270  1.5147
  230MOL0     H31739   7.378   1.667   9.327  0.5672  2.5157 -0.2466
  230MOL0     H31740   7.243   1.590   9.401 -1.2673 -0.1101  0.3354
  231MOL0     O31741   5.381   6.075   4.533  0.2317  0.2708 -0.1511
  231MOL0     C31742   5.482   6.037   4.589  0.4433  0.4330 -0.3642
  231MOL0     O31743   5.595   5.974   4.525 -0.3538 -1.0418  0.0714
  231MOL0     C31744   5.598   5.938   4.398  0.4583  0.1300  0.2896
  231MOL0     C31745   5.574   6.031   4.301 -0.8115 -0.1529  0.2126
  231MOL0     C31746   5.588   5.999   4.166 -0.3582  0.3415 -0.1767
  231MOL0     C31747   5.629   5.870   4.133 -0.3569 -0.3879  0.5469
  231MOL0     O31748   5.653   5.816   4.008  0.4827 -0.7750 -0.3855
  231MOL0     C31749   5.715   5.902   3.910  1.0677 -0.2571  0.1394
  231MOL0     C31750   5.848   5.959   3.951 -0.6774 -0.0872 -0.4267
  231MOL0     C31751   5.943   5.841   3.961  0.4699 -0.4731  1.0928
  231MOL0     C31752   6.081   5.903   3.992  0.1374  0.4538 -0.0703
  231MOL0     C31753   6.193   5.793   3.993 -0.2783  0.3884 -0.2750
  231MOL0     C31754   6.220   5.743   3.846 -0.5258  0.6704  0.3252
  231MOL0     C31755   6.263   5.848   3.740  0.7352  0.0844 -0.0207
  231MOL0     C31756   6.392   5.915   3.775  0.3699  0.2751 -1.2186
  231MOL0     N31757   6.434   5.983   3.650 -0.4106 -0.6974  1.5840
  231MOL0     C31758   6.568   6.021   3.631 -0.2283  0.0543  0.7640
  231MOL0     C31759   6.570   6.068   3.509 -0.1161 -0.3338  0.3782
  231MOL0     C31760   6.709   6.120   3.441 -0.3570  0.7976  0.8313
  231MOL0     C31761   6.732   6.270   3.464  0.2877 -0.5019  1.0821
  231MOL0     C31762   6.737   6.307   3.614 -0.2036  0.2944  0.0923
  231MOL0     C31763   6.859   6.368   3.664 -0.4686  1.1893  0.3170
  231MOL0     O31764   6.842   6.353   3.809 -0.8117  0.5530  0.2858
  231MOL0     C31765   6.946   6.303   3.884 -0.1285 -0.2737  0.0361
  231MOL0     C31766   6.913   6.231   3.998 -0.1129  0.0482 -0.1593
  231MOL0     C31767   7.010   6.187   4.085 -0.0943 -0.0978  0.2561
  231MOL0     C31768   6.969   6.104   4.214 -0.2710  0.4758 -0.8942
  231MOL0     C31769   7.154   6.222   4.060  1.0584  0.0230 -0.2622
  231MOL0     C31770   7.256   6.178   4.159  0.1889  0.4519  0.1734
  231MOL0     O31771   7.239   6.053   4.203 -0.7387 -0.0146  0.8785
  231MOL0     C31772   7.315   6.016   4.307 -0.8091 -0.0198  0.1517
  231MOL0     C31773   7.349   5.880   4.302  0.1837  0.8420  0.1883
  231MOL0     C31774   7.413   5.823   4.415  0.8679  0.8170 -0.5769
  231MOL0     C31775   7.463   5.901   4.516  0.1447  0.5129 -0.2108
  231MOL0     O31776   7.527   5.849   4.629  0.3324 -1.0916  0.0500
  231MOL0     C31777   7.526   5.720   4.673  0.5167 -0.0061  0.8272
  231MOL0     C31778   7.613   5.704   4.792 -0.3523  0.4360  0.3395
  231MOL0     C31779   7.570   5.803   4.912 -0.4306  0.0630  0.0117
  231MOL0     C31780   7.679   5.825   5.009  0.2540 -0.6967 -0.0241
  231MOL0     C31781   7.627   5.916   5.125 -0.3845 -0.9129 -0.2072
  231MOL0     C31782   7.735   6.022   5.168 -1.3435 -0.3931 -0.2407
  231MOL0     C31783   7.761   6.122   5.062 -0.1158 -0.3306  0.8296
  231MOL0     C31784   7.643   6.201   5.012 -0.4768 -0.6239 -0.0585
  231MOL0    Cl31785   7.559   6.275   5.152  0.5165  0.9666 -0.3434
  231MOL0     C31786   7.436   6.035   4.514 -0.4682  0.6916  1.3548
  231MOL0     C31787   7.358   6.092   4.409 -0.6745 -0.2618  0.7407
  231MOL0     O31788   7.349   6.257   4.176  0.1765  0.5191 -0.7940
  231MOL0     C31789   7.190   6.298   3.950 -0.4549  0.0817  0.4348
  231MOL0     C31790   7.086   6.330   3.864 -0.1325 -0.4443  0.0574
  231MOL0     N31791   6.440   6.077   3.452 -0.3378  0.1483 -0.2127
  231MOL0     N31792   6.363   6.014   3.540  0.0105 -0.2258  0.8660
  231MOL0     C31793   5.663   5.781   4.235  0.4262  0.4244  0.8901
  231MOL0     C31794   5.652   5.812   4.367  0.2566 -0.5822  1.4658
  231MOL0     C31795   5.494   6.055   4.738 -0.7155  0.3507  0.1199
  231MOL0     C31796   5.631   6.038   4.791 -0.0379  0.3940 -0.5509
  231MOL0     C31797   5.652   6.062   4.930  1.1687 -0.7842  0.0513
  231MOL0     C31798   5.546   6.081   5.024 -0.1124 -0.6272  1.7208
  231MOL0     O31799   5.555   6.113   5.159  0.3633  0.6033  0.4389
  231MOL0     C31800   5.688   6.131   5.210  0.5301  0.2736  0.0160
  231MOL0     C31801   5.694   6.103   5.364  0.2817  0.5798 -0.2092
  231MOL0     C31802   5.604   6.209   5.436 -0.9061 -1.1271  0.2428
  231MOL0     C31803   5.560   6.181   5.576 -0.1682  0.8298 -0.0574
  231MOL0     C31804   5.479   6.054   5.597  0.7200  0.8486  1.1101
  231MOL0     C31805   5.430   5.954   5.624  0.4242 -0.1833  0.0374
  231MOL0     C31806   5.425   6.086   4.969  0.3091  0.3699 -0.0079
  231MOL0     C31807   5.394   6.077   4.833  0.3604  0.8231 -0.7142
  231MOL0     C31808   5.245   6.102   4.803  0.3354  0.7945  1.0296
  231MOL0     H31809   5.527   6.124   4.330 -1.9474  0.3656 -2.9114
  231MOL0     H31810   5.583   6.065   4.080  5.5551  0.0623 -1.1679
  231MOL0     H31811   5.634   5.970   3.881  0.6887 -1.0095 -0.6044
  231MOL0     H31812   5.718   5.842   3.819 -1.0430  3.2005 -2.4167
  231MOL0     H31813   5.880   6.033   3.877 -1.2353  1.9145  1.2493
  231MOL0     H31814   5.828   6.014   4.044 -2.9537  0.5717 -1.2606
  231MOL0     H31815   5.903   5.783   4.045 -0.1427  2.0378  2.6636
  231MOL0     H31816   5.933   5.788   3.866 -3.5325 -0.1517  1.1763
  231MOL0     H31817   6.106   5.987   3.926  1.4096  3.4508  3.8200
  231MOL0     H31818   6.083   5.958   4.087  1.2787 -1.1720  0.8956
  231MOL0     H31819   6.163   5.711   4.059  2.6385 -0.3870  0.2401
  231MOL0     H31820   6.280   5.844   4.035 -1.7547  2.4557  0.4644
  231MOL0     H31821   6.282   5.653   3.848 -1.4897  0.0151  1.5536
  231MOL0     H31822   6.126   5.698   3.814 -0.3450 -0.3048  1.1357
  231MOL0     H31823   6.183   5.919   3.720  2.1808  1.3500 -1.6901
  231MOL0     H31824   6.276   5.805   3.639  0.6490 -0.8527  0.3518
  231MOL0     H31825   6.371   5.997   3.844  1.3198  1.3358 -2.1438
  231MOL0     H31826   6.465   5.840   3.810 -0.2500 -0.2696 -1.0797
  231MOL0     H31827   6.649   5.999   3.701  0.0010  1.9694  1.1449
  231MOL0     H31828   6.725   6.096   3.335  3.2783 -0.1495  1.4573
  231MOL0     H31829   6.779   6.050   3.488 -1.4175 -1.0575 -0.2131
  231MOL0     H31830   6.831   6.304   3.432 -0.4656 -0.0622 -0.9025
  231MOL0     H31831   6.672   6.345   3.412  2.2550  1.0532  0.9118
  231MOL0     H31832   6.653   6.375   3.628  0.1687  1.7970 -3.8425
  231MOL0     H31833   6.725   6.213   3.669 -2.0083 -1.3203 -2.8198
  231MOL0     H31834   6.943   6.316   3.617 -1.2586  1.2496 -1.2302
  231MOL0     H31835   6.866   6.472   3.630  0.2229  1.1161  0.2261
  231MOL0     H31836   6.810   6.197   4.010 -0.8911  2.1849 -0.3941
  231MOL0     H31837   7.039   6.123   4.295 -0.6404 -0.2374 -0.3950
  231MOL0     H31838   6.972   5.996   4.195 -0.6980 -0.3452  2.9227
  231MOL0     H31839   6.870   6.133   4.250  0.2078  1.7714 -0.5853
  231MOL0     H31840   7.311   5.819   4.221  4.6369 -0.9949 -0.8039
  231MOL0     H31841   7.416   5.714   4.418 -2.2168  0.6665  1.9789
  231MOL0     H31842   7.422   5.694   4.694  0.0534 -1.3455 -2.4904
  231MOL0     H31843   7.541   5.651   4.590 -2.3588  0.6469 -0.3479
  231MOL0     H31844   7.605   5.605   4.838 -0.9591 -0.2520 -1.1698
  231MOL0     H31845   7.717   5.720   4.761 -0.3568 -2.5570 -1.6165
  231MOL0     H31846   7.485   5.748   4.953  0.9636 -1.7244  0.5975
  231MOL0     H31847   7.542   5.895   4.858  0.4839 -1.1619 -2.7668
  231MOL0     H31848   7.756   5.878   4.952  0.0787  0.0378  0.4058
  231MOL0     H31849   7.719   5.729   5.045  1.8706 -1.0075 -2.4049
  231MOL0     H31850   7.535   5.970   5.100 -1.3833 -2.8941 -1.1152
  231MOL0     H31851   7.606   5.863   5.218 -3.3401 -0.0216 -0.2533
  231MOL0     H31852   7.830   5.968   5.180 -0.0786  1.6429 -0.5690
  231MOL0     H31853   7.710   6.074   5.261 -0.9537 -3.4361  1.7171
  231MOL0     H31854   7.799   6.074   4.972 -1.1390  0.3060  0.0312
  231MOL0     H31855   7.831   6.201   5.089  0.4081  0.7049 -2.9755
  231MOL0     H31856   7.577   6.137   4.952 -0.4564  0.6043 -1.4667
  231MOL0     H31857   7.670   6.284   4.946  0.5868 -0.4722  0.5627
  231MOL0     H31858   7.469   6.098   4.596 -1.0573  2.6160  0.1695
  231MOL0     H31859   7.332   6.197   4.417  2.0492  0.8424 -2.4272
  231MOL0     H31860   7.293   6.327   3.934 -1.0632  1.1794 -2.1042
  231MOL0     H31861   7.133   6.396   3.793  0.9680 -1.5641 -0.2930
  231MOL0     H31862   5.693   5.682   4.203  0.0419  0.6138 -0.0980
  231MOL0     H31863   5.654   5.736   4.444 -2.0208 -0.0668  2.1246
  231MOL0     H31864   5.722   6.019   4.736  1.2873 -0.9960  1.9738
  231MOL0     H31865   5.752   6.044   4.969  1.1364  0.7837  0.9467
  231MOL0     H31866   5.747   6.053   5.161 -1.3615 -1.8055  0.8760
  231MOL0     H31867   5.726   6.232   5.191  3.1767 -0.5761  0.3382
  231MOL0     H31868   5.797   6.114   5.398 -0.0170  1.8006  0.3561
  231MOL0     H31869   5.662   6.001   5.389 -0.1743  0.3641 -1.5681
  231MOL0     H31870   5.646   6.309   5.429  6.7986 -3.7721 -0.8377
  231MOL0     H31871   5.514   6.223   5.375  0.6158  1.7462 -1.5329
  231MOL0     H31872   5.497   6.263   5.610 -2.2844 -1.0246  0.6663
  231MOL0     H31873   5.643   6.182   5.648 -1.0140  0.2711  0.9483
  231MOL0     H31874   5.391   5.862   5.663 -1.9391 -0.6558 -2.9820
  231MOL0     H31875   5.345   6.112   5.038  0.7382  1.2212  0.1749
  231MOL0     H31876   5.200   6.171   4.875  1.8929  0.3698  2.4695
  231MOL0     H31877   5.217   6.142   4.705  3.9488 -3.1033 -1.9787
  231MOL0     H31878   5.202   6.002   4.813  1.0721  0.2799 -0.6199
  232MOL0     O31879  10.819   7.919   1.314  0.3257 -0.5510 -0.3761
  232MOL0     C31880  10.863   7.993   1.228  0.2062 -0.1811 -0.5093
  232MOL0     O31881  10.834   8.128   1.222 -0.5298  0.5310 -0.3841
  232MOL0     C31882  10.803   8.189   1.338 -0.6283 -0.4685 -0.3304
  232MOL0     C31883  10.701   8.286   1.328 -0.0381  0.0884  0.0335
  232MOL0     C31884  10.675   8.368   1.446 -0.0007  0.3347  0.0308
  232MOL0     C31885  10.759   8.359   1.558 -0.4118  1.5288  0.3128
  232MOL0     O31886  10.744   8.437   1.671  1.2321  0.7575  0.6694
  232MOL0     C31887  10.809   8.409   1.794  0.8432 -0.0495  0.0889
  232MOL0     C31888  10.721   8.434   1.913 -0.2562  0.2324 -1.5353
  232MOL0     C31889  10.791   8.479   2.042  0.0857  0.6492  0.1002
  232MOL0     C31890  10.914   8.396   2.096  0.1434 -0.0638  0.2451
  232MOL0     C31891  11.012   8.504   2.144 -0.0582  0.7751  0.4609
  232MOL0     C31892  11.149   8.445   2.191 -0.7630 -1.1405 -0.0127
  232MOL0     C31893  11.228   8.570   2.231  0.3114 -0.1451  0.0944
  232MOL0     C31894  11.358   8.533   2.286  0.2701 -0.3187  0.1697
  232MOL0     N31895  11.450   8.481   2.185 -0.3146  0.1431 -0.2543
  232MOL0     C31896  11.479   8.346   2.165  0.7693  0.3545 -0.9727
  232MOL0     C31897  11.575   8.347   2.069  0.0032  0.4859 -0.0961
  232MOL0     C31898  11.639   8.225   2.003 -0.2172 -0.1510  0.7317
  232MOL0     C31899  11.566   8.189   1.875  0.2716 -0.1849 -0.0346
  232MOL0     C31900  11.628   8.265   1.758  0.5747  0.3023  0.7094
  232MOL0     C31901  11.595   8.204   1.619  0.7932 -0.0497 -1.1281
  232MOL0     O31902  11.643   8.297   1.520  0.1299  0.5537 -0.1747
  232MOL0     C31903  11.623   8.254   1.392 -0.5429 -0.8618  0.4079
  232MOL0     C31904  11.740   8.268   1.312  0.5991  0.2182  0.1252
  232MOL0     C31905  11.735   8.229   1.177  0.1967  0.5503 -0.0618
  232MOL0     C31906  11.868   8.239   1.100 -0.6401  0.5205  1.0325
  232MOL0     C31907  11.606   8.179   1.128  0.3869 -0.1572 -0.2352
  232MOL0     C31908  11.598   8.122   0.987  0.0671  0.1733  0.6747
  232MOL0     O31909  11.705   8.055   0.934 -0.1497 -0.3782  0.2973
  232MOL0     C31910  11.712   8.011   0.801  0.4096  0.2839  0.5586
  232MOL0     C31911  11.781   7.889   0.771 -0.1988 -0.0003  0.6257
  232MOL0     C31912  11.780   7.842   0.638  0.3598 -0.1957  0.6666
  232MOL0     C31913  11.710   7.917   0.536  0.1278  0.6346  0.7683
  232MOL0     O31914  11.719   7.873   0.403  0.5749 -1.0738  0.8490
  232MOL0     C31915  11.788   7.758   0.369  0.1023  0.7039  0.5044
  232MOL0     C31916  11.766   7.721   0.227  0.2343 -0.5528 -0.0507
  232MOL0     C31917  11.850   7.599   0.199 -0.9137 -0.7814 -0.0291
  232MOL0     C31918  11.821   7.560   0.062  0.0927  0.7690  0.0417
  232MOL0     C31919  11.898   7.435   0.016  0.5982 -0.4358 -0.7631
  232MOL0     C31920  11.835   7.295   0.064 -0.6096 -1.1737  0.3115
  232MOL0     C31921  11.935   7.181   0.019 -0.5079 -0.7868  0.2897
  232MOL0     C31922  11.861   7.043   0.037  0.4081 -0.2858 -0.0353
  232MOL0    Cl31923  11.849   7.004   0.210  0.4272  0.0366  0.2631
  232MOL0     C31924  11.647   8.031   0.567  0.1075 -0.4480 -0.0527
  232MOL0     C31925  11.644   8.077   0.703  0.1014  0.0484 -0.3329
  232MOL0     O31926  11.487   8.134   0.925 -0.7198  0.0676  0.2371
  232MOL0     C31927  11.491   8.180   1.207 -0.7561 -0.4278 -0.1660
  232MOL0     C31928  11.495   8.214   1.340  0.1379 -0.3409  0.0936
  232MOL0     N31929  11.616   8.477   2.053  0.2043 -0.2763 -0.4135
  232MOL0     N31930  11.542   8.551   2.117 -1.0234  0.9353  0.2108
  232MOL0     C31931  10.866   8.272   1.553  0.3942  0.8831 -0.2449
  232MOL0     C31932  10.891   8.191   1.444 -0.0310  0.1773  0.0606
  232MOL0     C31933  10.975   7.936   1.149  0.3144  0.9319 -0.0632
  232MOL0     C31934  11.062   8.024   1.089  0.2050 -0.4682  0.2161
  232MOL0     C31935  11.165   7.974   1.010  0.2222 -0.3530  0.4486
  232MOL0     C31936  11.181   7.835   0.984 -0.1174 -0.0834  0.1949
  232MOL0     O31937  11.272   7.782   0.894  0.1945  0.5313 -0.5942
  232MOL0     C31938  11.313   7.875   0.804  0.6618 -1.2639  0.7371
  232MOL0     C31939  11.333   7.816   0.665 -0.1149 -0.2206  0.9044
  232MOL0     C31940  11.218   7.721   0.623 -0.1087 -0.3549  0.4981
  232MOL0     C31941  11.284   7.609   0.538 -0.5377  0.0615  1.1304
  232MOL0     C31942  11.184   7.508   0.517  1.0438 -1.0798 -0.0782
  232MOL0     C31943  11.102   7.421   0.518  0.8498 -0.0481 -0.3880
  232MOL0     C31944  11.083   7.746   1.034 -0.7165  0.4146 -0.3483
  232MOL0     C31945  10.986   7.792   1.123 -0.7263 -0.1805  1.6066
  232MOL0     C31946  10.888   7.688   1.164  0.0691 -0.8764  0.1112
  232MOL0     H31947  10.653   8.297   1.231  2.0714  0.7286 -0.9925
  232MOL0     H31948  10.587   8.432   1.449  0.0674  0.4751 -0.6500
  232MOL0     H31949  10.903   8.464   1.798  0.7094  0.5014 -2.5254
  232MOL0     H31950  10.832   8.302   1.792 -0.7562 -0.4336 -2.2493
  232MOL0     H31951  10.642   8.505   1.888  0.3487  3.2517  3.6492
  232MOL0     H31952  10.676   8.335   1.930  3.0895 -2.1219 -4.9069
  232MOL0     H31953  10.834   8.574   2.011 -0.1845 -0.2091 -3.3354
  232MOL0     H31954  10.716   8.495   2.120 -0.6777 -3.1576  0.3815
  232MOL0     H31955  10.898   8.342   2.190  3.9996 -2.0634 -0.0467
  232MOL0     H31956  10.963   8.334   2.020  0.3022 -0.0772  0.3570
  232MOL0     H31957  10.968   8.574   2.216 -0.1579  1.3470 -0.1408
  232MOL0     H31958  11.034   8.570   2.059  0.5044 -1.3010 -1.0766
  232MOL0     H31959  11.135   8.375   2.274  0.9957 -0.3032  1.0387
  232MOL0     H31960  11.197   8.387   2.112 -0.4001  1.8531 -2.1250
  232MOL0     H31961  11.175   8.631   2.305 -0.0896  0.5950 -0.7810
  232MOL0     H31962  11.238   8.624   2.137  2.1821  1.4664  1.1507
  232MOL0     H31963  11.419   8.620   2.313  2.3346 -0.7052 -2.7765
  232MOL0     H31964  11.351   8.462   2.369 -3.3303  2.0777  2.1749
  232MOL0     H31965  11.442   8.254   2.211 -1.8118  0.4180 -2.6621
  232MOL0     H31966  11.635   8.137   2.067 -1.5741 -1.0313 -0.4976
  232MOL0     H31967  11.742   8.256   1.981 -0.3287  0.1043  0.5575
  232MOL0     H31968  11.563   8.081   1.858 -2.1740  0.2670 -3.4019
  232MOL0     H31969  11.460   8.210   1.892  0.5183 -0.9433  3.1105
  232MOL0     H31970  11.572   8.358   1.753 -0.4466 -0.3534 -0.6858
  232MOL0     H31971  11.731   8.301   1.766  0.9873 -0.6390 -0.0749
  232MOL0     H31972  11.635   8.106   1.594  0.8136 -0.4811  0.4575
  232MOL0     H31973  11.489   8.177   1.622  1.3156 -2.1900  1.3418
  232MOL0     H31974  11.826   8.314   1.360  0.8305 -0.6783  0.5869
  232MOL0     H31975  11.879   8.326   1.035  1.4079 -0.6447 -0.2865
  232MOL0     H31976  11.891   8.152   1.038  0.5593  1.1605  0.5511
  232MOL0     H31977  11.951   8.244   1.171  0.2833  0.8399 -0.0426
  232MOL0     H31978  11.822   7.833   0.855 -2.4377  0.6611  2.2824
  232MOL0     H31979  11.825   7.743   0.631  1.7012  0.3749  0.8868
  232MOL0     H31980  11.896   7.766   0.384  0.2669 -0.9965  0.4406
  232MOL0     H31981  11.745   7.672   0.421  2.3605 -2.7931 -2.8748
  232MOL0     H31982  11.658   7.708   0.210  0.3385 -1.3718 -0.1409
  232MOL0     H31983  11.792   7.818   0.184 -1.8193  0.1681  0.1801
  232MOL0     H31984  11.832   7.517   0.270 -0.0432 -2.4438 -1.6413
  232MOL0     H31985  11.956   7.621   0.213 -1.3653 -0.2301  3.2097
  232MOL0     H31986  11.847   7.642  -0.005 -0.3420  0.3775 -0.6295
  232MOL0     H31987  11.713   7.543   0.056  0.2366 -0.1142 -0.3069
  232MOL0     H31988  11.888   7.442  -0.093 -0.1386 -0.9070 -0.7350
  232MOL0     H31989  12.001   7.454   0.048  0.3546  0.2014 -0.3363
  232MOL0     H31990  11.747   7.276   0.002  1.3921 -0.7211 -2.8998
  232MOL0     H31991  11.844   7.294   0.173  7.1684  0.0613  0.2791
  232MOL0     H31992  12.027   7.190   0.077 -0.6824  2.3537  0.2463
  232MOL0     H31993  11.966   7.196  -0.085  1.2700 -3.0203  0.4154
  232MOL0     H31994  11.927   6.974  -0.018 -0.9149 -0.5075 -1.4022
  232MOL0     H31995  11.761   7.039  -0.007  0.1296  0.4523  0.5180
  232MOL0     H31996  11.600   8.087   0.487  0.7800 -0.0468 -0.1765
  232MOL0     H31997  11.597   8.175   0.713 -0.2461 -0.0519 -0.9193
  232MOL0     H31998  11.391   8.151   1.176 -0.6889 -0.0261 -0.7734
  232MOL0     H31999  11.410   8.219   1.406 -0.4795 -0.0433 -0.7062
  232MOL0     H32000  10.952   8.264   1.619  3.6900  1.4691 -4.0701
  232MOL0     H32001  10.989   8.156   1.414 -0.1422  0.5088 -0.7264
  232MOL0     H32002  11.045   8.129   1.107 -0.5869 -0.2644 -1.5269
  232MOL0     H32003  11.233   8.045   0.963  0.7694 -2.7508 -2.6982
  232MOL0     H32004  11.247   7.960   0.785  0.8956 -1.3598 -0.6581
  232MOL0     H32005  11.409   7.912   0.842 -0.4093  2.1266  0.4944
  232MOL0     H32006  11.429   7.764   0.657 -1.5871 -3.2874  1.7292
  232MOL0     H32007  11.333   7.898   0.592 -1.2237 -0.4874  0.5867
  232MOL0     H32008  11.163   7.679   0.707 -1.0350 -0.7217 -0.2683
  232MOL0     H32009  11.139   7.772   0.566 -0.8096 -1.7221  0.2051
  232MOL0     H32010  11.363   7.564   0.598 -1.2272  1.1798  2.9605
  232MOL0     H32011  11.328   7.654   0.448 -0.7397  0.1337  1.0671
  232MOL0     H32012  11.022   7.350   0.520  1.4501 -0.7678 -1.1800
  232MOL0     H32013  11.085   7.644   0.997  2.7270 -0.9662  2.9459
  232MOL0     H32014  10.915   7.589   1.125  1.8829 -0.0862 -0.7362
  232MOL0     H32015  10.881   7.674   1.272 -0.8804 -2.7127 -0.1459
  232MOL0     H32016  10.788   7.713   1.127 -0.2350 -1.3845  0.5664
  233MOL0     O32017   3.004   5.001   9.024 -0.2140  0.2885  0.6852
  233MOL0     C32018   3.124   4.977   9.001 -0.4701 -0.2150 -0.3636
  233MOL0     O32019   3.227   5.066   9.020 -0.1999 -0.2302 -0.4143
  233MOL0     C32020   3.210   5.207   8.994  0.3172 -0.8966  0.0201
  233MOL0     C32021   3.283   5.313   9.049  0.1086  0.0001 -0.5139
  233MOL0     C32022   3.277   5.448   9.017  0.2770  0.8881 -0.0731
  233MOL0     C32023   3.181   5.494   8.929 -0.0417 -0.7541 -0.4076
  233MOL0     O32024   3.154   5.619   8.885  0.4136  0.1927 -0.5554
  233MOL0     C32025   3.214   5.734   8.943 -0.3660  0.1548 -0.0494
  233MOL0     C32026   3.203   5.852   8.841  0.1126 -0.9378 -0.2599
  233MOL0     C32027   3.068   5.924   8.834 -0.8821  0.5834 -0.5449
  233MOL0     C32028   3.083   6.060   8.768 -0.2294  0.0749 -0.4380
  233MOL0     C32029   3.029   6.069   8.626 -1.3836 -0.1044  0.2589
  233MOL0     C32030   3.127   5.993   8.529  0.5811  0.3078  0.4062
  233MOL0     C32031   3.074   5.961   8.385 -0.2178  0.2704 -0.7561
  233MOL0     C32032   2.957   5.853   8.387 -0.8019  0.2440  0.0491
  233MOL0     N32033   2.990   5.710   8.420 -0.2915 -1.0107 -0.2958
  233MOL0     C32034   3.000   5.620   8.318 -0.0584 -0.4006  0.9341
  233MOL0     C32035   2.996   5.498   8.382  0.3182 -0.4749 -0.7528
  233MOL0     C32036   3.007   5.363   8.329 -0.1124 -0.2015  0.1058
  233MOL0     C32037   3.041   5.247   8.423  0.4538 -0.6042  0.0104
  233MOL0     C32038   3.179   5.251   8.476 -1.0180  0.6897 -0.2860
  233MOL0     C32039   3.234   5.121   8.519  0.2997  1.1219 -0.3535
  233MOL0     O32040   3.139   5.061   8.611  0.0882  0.5570  0.2711
  233MOL0     C32041   3.083   4.946   8.561  0.3605 -0.2706  0.2605
  233MOL0     C32042   3.147   4.825   8.515 -1.4406 -0.1211  0.4043
  233MOL0     C32043   3.065   4.716   8.481 -0.1820  0.4238 -0.5620
  233MOL0     C32044   3.133   4.596   8.417 -0.2485 -0.2697  0.0916
  233MOL0     C32045   2.920   4.714   8.506 -0.3062 -0.1686 -0.4314
  233MOL0     C32046   2.835   4.599   8.476  0.5657  0.8430 -1.2378
  233MOL0     O32047   2.699   4.620   8.499  0.4877  0.2011  0.0759
  233MOL0     C32048   2.595   4.547   8.443  0.5560 -0.2791  0.1161
  233MOL0     C32049   2.592   4.515   8.302  0.0495 -0.7022  0.1815
  233MOL0     C32050   2.480   4.459   8.240 -0.1289  0.9622 -1.2631
  233MOL0     C32051   2.370   4.413   8.314  0.2108 -1.0531  0.6689
  233MOL0     O32052   2.273   4.351   8.244  0.0256 -0.9092 -0.0772
  233MOL0     C32053   2.154   4.293   8.318 -0.0990  0.1071 -1.0860
  233MOL0     C32054   2.091   4.197   8.213  0.2095 -0.3356 -0.6009
  233MOL0     C32055   2.181   4.081   8.179 -0.8420 -0.3358  0.2548
  233MOL0     C32056   2.176   4.046   8.029 -1.3840  0.9441 -0.2728
  233MOL0     C32057   2.290   3.943   8.009 -0.0453  0.1846  0.2308
  233MOL0     C32058   2.289   3.885   7.865  0.2683 -0.1593  0.0960
  233MOL0     C32059   2.383   3.770   7.847 -0.9620 -0.1855  0.5874
  233MOL0     C32060   2.385   3.707   7.708  0.5040  0.3989 -0.0048
  233MOL0    Cl32061   2.215   3.638   7.683 -0.4125 -0.3549 -0.3481
  233MOL0     C32062   2.363   4.448   8.453 -1.1121  1.0069  0.4398
  233MOL0     C32063   2.476   4.512   8.514  0.3780  0.2391  0.1164
  233MOL0     O32064   2.878   4.499   8.427 -0.5447  0.8983 -1.0666
  233MOL0     C32065   2.861   4.821   8.565 -0.6238 -0.8432 -0.1839
  233MOL0     C32066   2.947   4.937   8.587  0.6628 -0.4210 -0.7403
  233MOL0     N32067   2.981   5.524   8.517  0.4369  0.0271  0.7603
  233MOL0     N32068   2.984   5.653   8.539  0.4135 -0.5443  0.2385
  233MOL0     C32069   3.106   5.395   8.863 -0.2287  0.1525  0.3366
  233MOL0     C32070   3.123   5.261   8.894 -0.3271  0.8504 -0.4719
  233MOL0     C32071   3.158   4.839   8.970 -1.0189 -0.2910 -0.0231
  233MOL0     C32072   3.274   4.813   8.891  0.1181  0.0815 -0.6259
  233MOL0     C32073   3.309   4.682   8.851  0.6409 -0.3989  0.6377
  233MOL0     C32074   3.219   4.570   8.873 -0.9102 -0.1893  0.3238
  233MOL0     O32075   3.251   4.443   8.839 -0.4839  0.0515 -0.4684
  233MOL0     C32076   3.291   4.420   8.705  0.4772 -0.3894 -0.1281
  233MOL0     C32077   3.337   4.275   8.682 -0.1400  0.2363 -0.3100
  233MOL0     C32078   3.473   4.248   8.761  0.0496  0.2686  0.5520
  233MOL0     C32079   3.530   4.108   8.742  0.0273 -0.2157  0.2157
  233MOL0     C32080   3.577   4.080   8.598  0.7212 -1.3059 -0.3011
  233MOL0     C32081   3.639   4.048   8.507 -1.1564 -0.1769 -0.3809
  233MOL0     C32082   3.121   4.594   8.967  0.5857 -0.0925 -1.1156
  233MOL0     C32083   3.087   4.723   9.016  1.4612  0.7390  0.9556
  233MOL0     C32084   2.972   4.741   9.117 -0.6210 -0.2843 -0.8003
  233MOL0     H32085   3.354   5.289   9.128  1.8713  0.3817 -1.9114
  233MOL0     H32086   3.337   5.511   9.082 -1.6309  2.0630  0.6306
  233MOL0     H32087   3.323   5.727   8.937 -0.0141  4.4248 -3.9864
  233MOL0     H32088   3.166   5.757   9.039  1.8232  1.0075  0.9156
  233MOL0     H32089   3.279   5.921   8.879 -1.0947  1.4115 -1.8376
  233MOL0     H32090   3.241   5.810   8.747 -2.0482 -3.5020 -0.0708
  233MOL0     H32091   3.003   5.852   8.783 -0.6929 -0.5760  0.7896
  233MOL0     H32092   3.027   5.955   8.931 -2.9281  2.9905 -2.0704
  233MOL0     H32093   3.027   6.127   8.834  3.3459  2.4271  0.5276
  233MOL0     H32094   3.183   6.104   8.783 -0.6387  0.1709  2.6573
  233MOL0     H32095   3.040   6.172   8.588  3.1454 -1.4717 -3.0587
  233MOL0     H32096   2.926   6.035   8.621 -2.0317  1.7129  0.3590
  233MOL0     H32097   3.215   6.058   8.520  0.3178  1.1406  2.9021
  233MOL0     H32098   3.151   5.896   8.573 -0.5892  0.9943  2.7159
  233MOL0     H32099   3.155   5.911   8.331  0.7536  1.4477 -0.4511
  233MOL0     H32100   3.045   6.052   8.331  2.6944  2.0775  0.4553
  233MOL0     H32101   2.878   5.884   8.456  1.4303 -0.6670  3.2788
  233MOL0     H32102   2.915   5.858   8.286 -3.4481 -2.8661  0.8156
  233MOL0     H32103   3.011   5.639   8.212  3.4243 -0.3621  1.1775
  233MOL0     H32104   3.080   5.372   8.248 -0.0003 -0.9198  0.1186
  233MOL0     H32105   2.915   5.343   8.272 -0.1002 -1.6456  0.5569
  233MOL0     H32106   2.967   5.253   8.504 -0.5730 -3.2367 -0.6184
  233MOL0     H32107   3.009   5.161   8.363  1.4751  0.4729 -2.1842
  233MOL0     H32108   3.254   5.297   8.411  0.6515 -0.1930  0.9338
  233MOL0     H32109   3.188   5.319   8.562  1.0117  3.1566 -2.2958
  233MOL0     H32110   3.257   5.076   8.422  0.8719 -1.0971  0.7241
  233MOL0     H32111   3.325   5.125   8.580 -0.4921  0.2337  0.9453
  233MOL0     H32112   3.255   4.830   8.504 -1.2838  1.6362  2.1344
  233MOL0     H32113   3.110   4.591   8.310  4.0871 -1.0455 -1.0052
  233MOL0     H32114   3.110   4.497   8.458  0.8756 -0.7131 -0.3072
  233MOL0     H32115   3.241   4.604   8.432  0.0070 -3.9870  1.2912
  233MOL0     H32116   2.674   4.564   8.252  0.8966  1.3049  3.2722
  233MOL0     H32117   2.485   4.422   8.139 -0.1698 -1.9576 -0.2892
  233MOL0     H32118   2.189   4.245   8.410  2.5540  1.4392 -1.2862
  233MOL0     H32119   2.084   4.371   8.351 -2.0091 -2.4051  1.1943
  233MOL0     H32120   1.998   4.162   8.258  0.7722 -1.2754 -0.1171
  233MOL0     H32121   2.071   4.246   8.118 -0.0683  1.1142  0.1882
  233MOL0     H32122   2.136   4.003   8.241  0.2519 -1.6326 -0.5246
  233MOL0     H32123   2.284   4.103   8.208 -0.3626 -2.6666  0.5704
  233MOL0     H32124   2.178   4.120   7.948 -2.5384  0.4403 -0.7928
  233MOL0     H32125   2.080   3.993   8.024  0.1196 -2.0644  0.5050
  233MOL0     H32126   2.384   3.998   8.021 -1.5665  3.0360 -0.0485
  233MOL0     H32127   2.277   3.858   8.077 -2.1297  0.1366 -0.1671
  233MOL0     H32128   2.303   3.953   7.781 -5.3654  0.5712 -0.6365
  233MOL0     H32129   2.189   3.843   7.847  1.2291 -1.7335 -2.1440
  233MOL0     H32130   2.340   3.698   7.918  2.4189 -1.4973  1.5131
  233MOL0     H32131   2.485   3.796   7.875 -1.6221  4.1180 -0.2139
  233MOL0     H32132   2.473   3.646   7.688  1.3812  1.6601 -0.1306
  233MOL0     H32133   2.390   3.797   7.644 -3.9149  1.0975  0.3086
  233MOL0     H32134   2.268   4.438   8.504 -3.3193  3.6257 -2.7905
  233MOL0     H32135   2.465   4.557   8.613 -3.7993 -1.6759  0.7220
  233MOL0     H32136   2.755   4.822   8.591 -0.9308 -1.4113 -1.3303
  233MOL0     H32137   2.908   5.023   8.640 -1.7249 -1.4233 -0.7457
  233MOL0     H32138   3.028   5.430   8.797  1.5309  2.0919 -0.8477
  233MOL0     H32139   3.072   5.186   8.834  1.6203  1.0728 -2.5349
  233MOL0     H32140   3.343   4.894   8.870  3.2941 -1.3904  3.0086
  233MOL0     H32141   3.393   4.667   8.784  0.1695 -0.8730  0.1428
  233MOL0     H32142   3.214   4.452   8.634  0.1914 -2.0243 -0.5969
  233MOL0     H32143   3.375   4.482   8.670  1.1661 -2.3310 -2.1488
  233MOL0     H32144   3.356   4.264   8.575 -0.4016 -1.2639 -0.2210
  233MOL0     H32145   3.268   4.196   8.714  2.1128 -2.4063 -1.5704
  233MOL0     H32146   3.545   4.330   8.750 -0.3873  0.4916 -0.8699
  233MOL0     H32147   3.436   4.246   8.864 -0.7814 -3.8635  0.3527
  233MOL0     H32148   3.460   4.026   8.759  2.0802 -1.7499  1.8165
  233MOL0     H32149   3.611   4.084   8.811  1.9123 -1.3889 -2.2500
  233MOL0     H32150   3.704   4.032   8.423 -0.1499 -2.1329  0.6837
  233MOL0     H32151   3.076   4.503   9.006  3.7649 -1.9173 -1.3176
  233MOL0     H32152   3.014   4.793   9.203  2.9471 -2.4743 -1.0113
  233MOL0     H32153   2.887   4.799   9.080 -0.7678  0.1977  0.2319
  233MOL0     H32154   2.924   4.651   9.156 -1.5677 -0.1329 -1.5983
  234MOL0     O32155   8.390   5.951   7.613  0.4036 -0.9929  0.4699
  234MOL0     C32156   8.479   5.996   7.541  0.3949  0.0969  0.2131
  234MOL0     O32157   8.591   5.931   7.501  0.4613  0.0227  0.5030
  234MOL0     C32158   8.628   5.802   7.526 -0.9779 -0.3632 -0.1015
  234MOL0     C32159   8.578   5.724   7.629  0.5482 -0.0388  0.2395
  234MOL0     C32160   8.600   5.590   7.634  0.3731  0.2910  0.6026
  234MOL0     C32161   8.687   5.524   7.547  0.8640  0.5139 -0.0224
  234MOL0     O32162   8.700   5.384   7.553 -0.0849  0.2447  0.3396
  234MOL0     C32163   8.753   5.315   7.441 -0.6203 -0.2596  0.2258
  234MOL0     C32164   8.671   5.187   7.424  1.0046 -0.7982 -0.4887
  234MOL0     C32165   8.692   5.099   7.295  0.1524 -0.3748  0.8942
  234MOL0     C32166   8.645   4.949   7.326  0.5821  1.6062 -0.7933
  234MOL0     C32167   8.693   4.861   7.201  0.3292 -0.1425 -0.3187
  234MOL0     C32168   8.607   4.891   7.084  0.3029  0.0833 -0.3339
  234MOL0     C32169   8.622   4.774   6.982  0.3402 -0.2456  0.4441
  234MOL0     C32170   8.774   4.774   6.934  0.5068  1.1632  0.0697
  234MOL0     N32171   8.833   4.902   6.898  0.0813  0.7200 -0.4172
  234MOL0     C32172   8.805   4.982   6.791 -1.4860  0.0219 -0.0677
  234MOL0     C32173   8.903   5.085   6.788  0.3173 -0.4551 -1.0881
  234MOL0     C32174   8.916   5.188   6.677 -0.7141  0.9161 -0.6050
  234MOL0     C32175   8.974   5.318   6.735 -0.4216 -0.6401  0.5272
  234MOL0     C32176   8.868   5.392   6.822  0.5860 -0.4315 -1.4947
  234MOL0     C32177   8.932   5.523   6.873  0.1653 -1.0382 -0.4689
  234MOL0     O32178   8.859   5.582   6.983  0.2939  0.0386 -0.4444
  234MOL0     C32179   8.888   5.715   7.025  0.1969  0.5086 -0.0067
  234MOL0     C32180   8.774   5.777   7.076 -0.7952 -0.2971  0.2968
  234MOL0     C32181   8.788   5.905   7.140  1.0936  0.2560 -0.2236
  234MOL0     C32182   8.659   5.969   7.179 -0.5052 -0.2480 -0.8062
  234MOL0     C32183   8.910   5.968   7.134  0.3671 -0.5135 -0.1951
  234MOL0     C32184   8.934   6.112   7.177  0.7153  0.2433  0.5522
  234MOL0     O32185   9.026   6.174   7.095 -0.2790  0.3374  0.5881
  234MOL0     C32186   9.018   6.310   7.062  0.5521 -0.1631  0.1463
  234MOL0     C32187   8.980   6.417   7.153 -0.0731 -0.7254  0.0766
  234MOL0     C32188   9.001   6.553   7.103  0.3353  0.0266  0.4316
  234MOL0     C32189   9.029   6.582   6.971 -0.2071 -0.4693 -0.4295
  234MOL0     O32190   9.033   6.715   6.924 -0.1941  0.1736 -0.0149
  234MOL0     C32191   9.109   6.742   6.802  0.0006 -0.0577  0.6030
  234MOL0     C32192   9.137   6.890   6.795 -0.7066 -0.0327 -0.2370
  234MOL0     C32193   9.137   6.944   6.659  0.2840  0.5656 -0.8127
  234MOL0     C32194   9.171   7.097   6.660  0.9530  0.3608 -1.1500
  234MOL0     C32195   9.189   7.155   6.516 -0.0792  1.4886  0.3203
  234MOL0     C32196   9.218   7.300   6.501 -1.0534 -0.4348  0.0404
  234MOL0     C32197   9.357   7.341   6.569  0.3061 -0.5639 -0.4141
  234MOL0     C32198   9.396   7.486   6.537 -0.3899  0.1071 -0.2349
  234MOL0    Cl32199   9.416   7.482   6.356 -0.0867 -0.3754  0.2331
  234MOL0     C32200   9.038   6.476   6.879 -0.2705  0.1998 -0.0948
  234MOL0     C32201   9.044   6.346   6.923 -0.5555  0.2521  0.7619
  234MOL0     O32202   8.861   6.163   7.258 -1.1010 -0.7760  0.1087
  234MOL0     C32203   9.027   5.905   7.076  0.6962  0.0806 -0.9975
  234MOL0     C32204   9.010   5.778   7.029 -0.2579 -0.4245 -0.2434
  234MOL0     N32205   8.984   5.059   6.900  0.1109  0.1433  0.4718
  234MOL0     N32206   8.944   4.951   6.954  0.5973 -1.4946 -0.0726
  234MOL0     C32207   8.750   5.602   7.453  0.3111  0.4560  0.4268
  234MOL0     C32208   8.733   5.745   7.441  0.5409  0.0481 -0.1542
  234MOL0     C32209   8.476   6.142   7.487  0.8279  0.3254  0.1684
  234MOL0     C32210   8.608   6.198   7.462  0.1483 -0.3315  0.8245
  234MOL0     C32211   8.616   6.323   7.413 -0.4510 -0.1363 -0.1023
  234MOL0     C32212   8.510   6.404   7.416 -0.0006 -0.1532 -0.0520
  234MOL0     O32213   8.533   6.540   7.377 -0.8962  0.8164  0.7774
  234MOL0     C32214   8.433   6.641   7.386 -0.1987 -0.2538  0.0013
  234MOL0     C32215   8.490   6.778   7.398 -0.4534  0.1621 -0.3825
  234MOL0     C32216   8.598   6.810   7.293 -0.1428 -0.5676 -0.2667
  234MOL0     C32217   8.620   6.961   7.300 -0.1112 -0.2022  0.6077
  234MOL0     C32218   8.646   7.001   7.437  0.0732  0.2555 -0.0650
  234MOL0     C32219   8.659   7.046   7.550 -0.4163  0.2576 -0.7280
  234MOL0     C32220   8.381   6.354   7.448 -0.3877 -0.7759  0.9868
  234MOL0     C32221   8.362   6.225   7.471 -0.5545 -0.1063  0.0528
  234MOL0     C32222   8.232   6.166   7.506 -0.3795 -0.0995 -0.0184
  234MOL0     H32223   8.505   5.769   7.695 -2.7489 -2.5624 -1.3895
  234MOL0     H32224   8.541   5.541   7.710  0.4177 -0.9115 -0.1059
  234MOL0     H32225   8.857   5.283   7.446 -0.4373 -0.0436 -1.4357
  234MOL0     H32226   8.750   5.365   7.344 -1.6894 -0.1234  0.3184
  234MOL0     H32227   8.680   5.119   7.509  0.6666 -4.2545 -2.9977
  234MOL0     H32228   8.572   5.233   7.421  0.6550 -1.4415 -3.9126
  234MOL0     H32229   8.632   5.136   7.211 -1.4171 -1.7944  1.3421
  234MOL0     H32230   8.796   5.106   7.261  0.9590  2.8318  3.4472
  234MOL0     H32231   8.700   4.930   7.418 -0.2566 -1.4969 -0.8418
  234MOL0     H32232   8.539   4.936   7.348  1.2649 -1.4160  1.1921
  234MOL0     H32233   8.682   4.753   7.212 -2.0737  0.0272 -0.6421
  234MOL0     H32234   8.800   4.882   7.187  1.4656 -1.9969  3.9446
  234MOL0     H32235   8.502   4.892   7.116  0.0294 -0.5684 -1.1604
  234MOL0     H32236   8.629   4.991   7.047 -1.3324  0.8089  0.5785
  234MOL0     H32237   8.572   4.808   6.891  1.7210  0.7239  0.0207
  234MOL0     H32238   8.594   4.671   7.008  0.8680 -0.4490  0.2198
  234MOL0     H32239   8.844   4.739   7.010  1.9118  0.3005 -1.5532
  234MOL0     H32240   8.796   4.706   6.851 -1.2861 -1.1207  1.3577
  234MOL0     H32241   8.722   4.968   6.723 -2.1780  0.8764  0.5764
  234MOL0     H32242   8.818   5.195   6.631 -0.8608  2.2465 -0.1548
  234MOL0     H32243   9.002   5.160   6.615  1.5009  2.9305  1.3310
  234MOL0     H32244   9.062   5.302   6.798 -0.4440  1.3992  1.1249
  234MOL0     H32245   9.003   5.374   6.645 -3.0653  1.1791  0.7016
  234MOL0     H32246   8.777   5.427   6.772 -1.9901  1.6121  3.8632
  234MOL0     H32247   8.836   5.322   6.900  4.8556 -0.4365  0.5273
  234MOL0     H32248   9.032   5.501   6.912  1.0363 -0.9049 -2.5191
  234MOL0     H32249   8.940   5.602   6.798  1.4742 -1.7406 -1.0802
  234MOL0     H32250   8.675   5.732   7.079 -2.0062  2.1416 -0.4195
  234MOL0     H32251   8.651   6.013   7.278 -0.5352 -1.9671  0.0009
  234MOL0     H32252   8.583   5.890   7.183 -1.8477  0.9909 -0.8270
  234MOL0     H32253   8.643   6.036   7.094 -0.8488 -2.4690 -2.6203
  234MOL0     H32254   8.957   6.392   7.256 -0.4220  1.2067  0.5092
  234MOL0     H32255   8.986   6.632   7.175  1.8161  0.9958 -0.2900
  234MOL0     H32256   9.209   6.697   6.807  0.6353  1.2792  0.2736
  234MOL0     H32257   9.048   6.706   6.718 -0.3824  2.8222 -0.4519
  234MOL0     H32258   9.059   6.938   6.854 -1.0997 -1.2179  0.2299
  234MOL0     H32259   9.236   6.921   6.832 -1.2050  0.4473  0.7385
  234MOL0     H32260   9.039   6.929   6.613 -0.7616  2.3568  0.6608
  234MOL0     H32261   9.213   6.887   6.604 -0.4404 -0.1644 -1.0680
  234MOL0     H32262   9.264   7.114   6.714  0.4049  1.3514 -0.4855
  234MOL0     H32263   9.097   7.147   6.723  2.2195 -0.1773  0.8594
  234MOL0     H32264   9.263   7.091   6.466 -1.0869  1.4854 -1.2495
  234MOL0     H32265   9.095   7.131   6.466 -1.4506  0.2657  3.2522
  234MOL0     H32266   9.135   7.359   6.542 -0.4373 -0.7802  1.9028
  234MOL0     H32267   9.214   7.327   6.395 -1.5860  0.6649  0.3163
  234MOL0     H32268   9.436   7.275   6.532  2.0791  1.0213  0.4229
  234MOL0     H32269   9.337   7.331   6.676 -0.6730 -1.4462 -0.6552
  234MOL0     H32270   9.487   7.513   6.592  0.1034  3.5780 -2.4129
  234MOL0     H32271   9.321   7.563   6.557  1.9287  1.6035  4.2346
  234MOL0     H32272   9.055   6.497   6.773  5.1507 -2.0691 -0.0145
  234MOL0     H32273   9.076   6.266   6.856 -1.8077 -0.7777  1.3603
  234MOL0     H32274   9.129   5.945   7.077  2.0227 -3.0355 -0.9502
  234MOL0     H32275   9.098   5.721   7.001  0.6622 -0.0058  1.6688
  234MOL0     H32276   8.820   5.562   7.381  0.1580  0.2571  0.3884
  234MOL0     H32277   8.790   5.800   7.367  2.8723 -0.3943  1.1917
  234MOL0     H32278   8.696   6.137   7.483 -0.3669 -2.3843 -2.3352
  234MOL0     H32279   8.708   6.373   7.384 -1.3774 -0.4199 -4.0123
  234MOL0     H32280   8.359   6.646   7.305  3.0819  1.6892 -3.1877
  234MOL0     H32281   8.386   6.622   7.483  0.0617 -0.0483  0.1676
  234MOL0     H32282   8.542   6.785   7.494 -0.7741  4.0620 -0.3319
  234MOL0     H32283   8.404   6.845   7.397 -0.9305 -0.4441 -1.7501
  234MOL0     H32284   8.696   6.769   7.318  0.9063  1.0010 -1.6581
  234MOL0     H32285   8.579   6.778   7.190  2.6206 -1.8088 -0.4766
  234MOL0     H32286   8.534   7.016   7.259  2.9855  4.0476 -0.8487
  234MOL0     H32287   8.702   6.979   7.230  0.2051 -2.5288  0.2795
  234MOL0     H32288   8.672   7.081   7.650  0.4686 -0.2753 -0.6422
  234MOL0     H32289   8.296   6.418   7.424 -1.6272 -2.8437 -0.5059
  234MOL0     H32290   8.159   6.235   7.464  1.7276  1.9305 -0.5568
  234MOL0     H32291   8.218   6.063   7.474  0.1303 -0.0252 -0.4964
  234MOL0     H32292   8.221   6.164   7.615 -1.2022 -1.5790 -0.1106
  235MOL0     O32293   2.108   8.141   3.236 -0.3347  0.2429 -0.8353
  235MOL0     C32294   2.115   8.055   3.156 -0.6718  0.3826  0.1892
  235MOL0     O32295   2.025   7.956   3.142  0.5785  0.4204 -0.1153
  235MOL0     C32296   1.969   7.909   3.258 -0.9918 -0.5502  0.0877
  235MOL0     C32297   2.031   7.853   3.376 -0.2124 -0.0952  0.3414
  235MOL0     C32298   1.958   7.809   3.481 -0.4145  0.0053  0.6094
  235MOL0     C32299   1.825   7.845   3.494 -0.1266 -0.6175  0.2622
  235MOL0     O32300   1.764   7.825   3.613 -0.0448  0.3040 -0.6178
  235MOL0     C32301   1.622   7.852   3.635  0.4370  1.0012 -0.1844
  235MOL0     C32302   1.562   7.786   3.763 -0.5723  0.8577 -0.6826
  235MOL0     C32303   1.620   7.849   3.888  1.1562  0.5442 -1.1474
  235MOL0     C32304   1.568   7.789   4.023  0.5261 -0.2192  0.1542
  235MOL0     C32305   1.646   7.840   4.142 -0.9312 -0.4576 -0.0741
  235MOL0     C32306   1.616   7.994   4.166  0.3363 -0.0422 -0.1075
  235MOL0     C32307   1.468   8.008   4.225 -0.5717 -0.9895  0.4574
  235MOL0     C32308   1.389   8.111   4.148 -0.1510  1.2212  0.2731
  235MOL0     N32309   1.245   8.078   4.158 -0.3043  0.1201  0.4380
  235MOL0     C32310   1.149   8.129   4.241 -0.1020  0.9322  0.9746
  235MOL0     C32311   1.023   8.104   4.176  0.3182  0.6610 -0.9686
  235MOL0     C32312   0.890   8.156   4.226  0.3328 -0.1298 -0.6439
  235MOL0     C32313   0.853   8.294   4.174  0.9926  0.4366 -0.2560
  235MOL0     C32314   0.905   8.399   4.270  0.0233  1.1215 -0.0314
  235MOL0     C32315   0.878   8.537   4.214  0.4088 -0.1615 -0.2920
  235MOL0     O32316   0.945   8.625   4.311 -1.0941  0.3764  0.0766
  235MOL0     C32317   0.953   8.758   4.299 -0.1460 -0.4228  0.9957
  235MOL0     C32318   0.866   8.823   4.209 -0.3919 -0.6627 -0.4639
  235MOL0     C32319   0.890   8.959   4.182 -0.0065  0.2285 -0.0250
  235MOL0     C32320   0.823   9.021   4.065  0.8985 -0.5008  0.6439
  235MOL0     C32321   0.985   9.035   4.262  0.6275 -0.7432 -0.1686
  235MOL0     C32322   1.007   9.182   4.247  0.4279  0.0092 -0.6280
  235MOL0     O32323   1.135   9.216   4.266 -0.1079  0.0980 -0.4984
  235MOL0     C32324   1.156   9.351   4.265 -1.1728  0.5657  0.3917
  235MOL0     C32325   1.206   9.399   4.140  0.2467 -0.3206  0.1074
  235MOL0     C32326   1.238   9.539   4.134 -0.0017  0.0744  0.4896
  235MOL0     C32327   1.219   9.620   4.249 -0.2446 -1.0484  0.7940
  235MOL0     O32328   1.244   9.756   4.259  0.0966  0.4483  0.3654
  235MOL0     C32329   1.261   9.834   4.139  0.7903 -1.3761  0.4294
  235MOL0     C32330   1.119   9.871   4.073 -1.4974 -0.9073  1.1341
  235MOL0     C32331   1.038   9.978   4.159 -0.0415 -0.4487  0.7539
  235MOL0     C32332   0.914  10.017   4.086 -0.5044  0.8912  0.5508
  235MOL0     C32333   0.819  10.090   4.187 -0.2520  0.3673  0.0905
  235MOL0     C32334   0.693  10.140   4.123  0.3396 -0.5936  0.2435
  235MOL0     C32335   0.607  10.236   4.198  0.1803 -0.6161  0.6095
  235MOL0     C32336   0.559  10.179   4.328  0.5363  0.2881 -0.4574
  235MOL0    Cl32337   0.419  10.078   4.280  0.2499 -0.4009 -0.1245
  235MOL0     C32338   1.190   9.568   4.372  0.3581  0.5636 -1.1430
  235MOL0     C32339   1.147   9.431   4.378 -0.9807  0.4684 -0.6631
  235MOL0     O32340   0.912   9.256   4.237  0.0461 -0.2916  0.0884
  235MOL0     C32341   1.069   8.965   4.354  0.8364  0.1454  0.3570
  235MOL0     C32342   1.036   8.838   4.388 -0.7016 -0.2016 -0.3472
  235MOL0     N32343   1.053   8.050   4.060 -0.9852 -0.1203  0.2380
  235MOL0     N32344   1.180   8.032   4.051  0.8320  0.6978  0.1377
  235MOL0     C32345   1.758   7.897   3.383  0.3534  0.0188  0.0518
  235MOL0     C32346   1.833   7.927   3.271  0.1517 -0.8867 -0.0012
  235MOL0     C32347   2.215   8.064   3.057 -0.3337  0.5503 -0.8425
  235MOL0     C32348   2.188   8.144   2.945  0.0082  0.1987  0.5005
  235MOL0     C32349   2.272   8.144   2.840 -0.7017  1.4942 -0.0753
  235MOL0     C32350   2.398   8.084   2.852 -0.0156 -0.1053 -0.5114
  235MOL0     O32351   2.488   8.083   2.748 -0.3348  0.2163 -0.2280
  235MOL0     C32352   2.443   8.044   2.616 -1.9390 -0.7401  0.3074
  235MOL0     C32353   2.523   7.918   2.569  0.7737  0.3554 -0.5899
  235MOL0     C32354   2.668   7.941   2.567 -0.0635  0.1067 -0.1971
  235MOL0     C32355   2.745   7.830   2.516 -0.0095 -0.0325 -0.0707
  235MOL0     C32356   2.792   7.734   2.617 -0.1069  0.8968 -0.2301
  235MOL0     C32357   2.840   7.659   2.699 -0.2665  1.1877  0.1643
  235MOL0     C32358   2.434   8.022   2.972  0.7257  0.1572 -0.4301
  235MOL0     C32359   2.341   8.000   3.074  0.1877 -0.5925 -0.2167
  235MOL0     C32360   2.378   7.920   3.198  0.4434  0.6954  0.0982
  235MOL0     H32361   2.138   7.838   3.367  0.0032  1.8234 -0.8107
  235MOL0     H32362   1.998   7.774   3.576 -0.7209 -2.0264  0.0406
  235MOL0     H32363   1.570   7.798   3.555  0.0360  3.5711 -1.7623
  235MOL0     H32364   1.603   7.960   3.638 -1.8975  0.6883 -1.4562
  235MOL0     H32365   1.453   7.797   3.757 -0.5349  0.5615 -2.8110
  235MOL0     H32366   1.586   7.679   3.768 -0.1897  0.8741 -1.8622
  235MOL0     H32367   1.722   7.809   3.884  0.6954 -1.2411  1.9045
  235MOL0     H32368   1.613   7.958   3.878  0.8748  0.4034 -2.8176
  235MOL0     H32369   1.462   7.816   4.025  0.6846  0.7601 -2.0453
  235MOL0     H32370   1.579   7.680   4.018  2.4008 -0.0245 -2.4844
  235MOL0     H32371   1.753   7.833   4.123 -0.4923 -0.4736  2.1254
  235MOL0     H32372   1.611   7.776   4.224  2.0561 -1.7311  0.3528
  235MOL0     H32373   1.685   8.030   4.243 -0.1392  1.5703 -0.3840
  235MOL0     H32374   1.612   8.044   4.069 -1.5795 -2.8739 -1.6018
  235MOL0     H32375   1.448   8.026   4.331  0.3551 -2.0958  0.8334
  235MOL0     H32376   1.419   7.912   4.208 -0.2288 -1.3286  1.3222
  235MOL0     H32377   1.403   8.212   4.187 -1.9897  1.2208  1.0729
  235MOL0     H32378   1.409   8.110   4.041  0.8302  1.3548  0.4439
  235MOL0     H32379   1.173   8.176   4.336  1.6202  5.0535 -1.2437
  235MOL0     H32380   0.886   8.164   4.335  3.5772 -0.4233 -0.4186
  235MOL0     H32381   0.819   8.081   4.190  0.4065 -1.0547  1.0581
  235MOL0     H32382   0.900   8.296   4.075 -0.1523 -1.0680 -0.8584
  235MOL0     H32383   0.745   8.303   4.166  0.9571  1.3369  0.9342
  235MOL0     H32384   0.857   8.384   4.367  0.2675  0.2500 -0.0295
  235MOL0     H32385   1.014   8.396   4.282  0.4752 -0.9590 -3.3315
  235MOL0     H32386   0.925   8.537   4.116  3.7230  2.6693  1.1121
  235MOL0     H32387   0.770   8.557   4.219  0.4253 -0.3246  1.4603
  235MOL0     H32388   0.794   8.765   4.152 -1.7682 -1.6032  2.0652
  235MOL0     H32389   0.799   9.127   4.068 -2.7421 -1.2175  1.0331
  235MOL0     H32390   0.725   8.973   4.062  1.3115 -1.7399  3.6492
  235MOL0     H32391   0.877   9.005   3.971  2.1744  1.4292  0.9798
  235MOL0     H32392   1.231   9.326   4.064  2.8748 -2.6650  2.9834
  235MOL0     H32393   1.278   9.566   4.036 -1.1430 -1.7876 -0.5560
  235MOL0     H32394   1.299   9.929   4.176 -1.8736  0.2855 -0.8597
  235MOL0     H32395   1.331   9.781   4.074 -1.3900 -1.4733 -2.0107
  235MOL0     H32396   1.139   9.905   3.971 -0.9330 -1.5138  1.0337
  235MOL0     H32397   1.056   9.783   4.055 -2.3444 -0.3682  1.4006
  235MOL0     H32398   1.101  10.062   4.192  1.6399  0.2960 -3.7088
  235MOL0     H32399   1.004   9.925   4.249 -1.4592 -0.0676  0.4614
  235MOL0     H32400   0.868   9.926   4.045 -0.0757  1.5435 -1.4976
  235MOL0     H32401   0.936  10.076   3.997 -0.6938 -2.0774 -1.6438
  235MOL0     H32402   0.787  10.023   4.268 -0.4739 -1.5532 -1.4927
  235MOL0     H32403   0.875  10.177   4.222  1.7827  0.0841 -2.1920
  235MOL0     H32404   0.634  10.049   4.105  1.1492 -1.2949  1.0749
  235MOL0     H32405   0.729  10.190   4.033 -2.5099 -2.7748 -2.3331
  235MOL0     H32406   0.520  10.289   4.158  0.0404  0.0642  1.7375
  235MOL0     H32407   0.673  10.319   4.228 -0.8026  1.0600 -1.5778
  235MOL0     H32408   0.532  10.247   4.409  3.9312 -1.4232  2.3982
  235MOL0     H32409   0.630  10.109   4.373 -0.7870 -0.9303 -0.1768
  235MOL0     H32410   1.193   9.628   4.462 -1.6141  2.1210 -2.0428
  235MOL0     H32411   1.108   9.384   4.468 -1.3822 -0.8929 -1.5221
  235MOL0     H32412   1.143   9.020   4.411 -0.9332  0.3708  2.5790
  235MOL0     H32413   1.090   8.788   4.468  0.6095  2.0529  0.2857
  235MOL0     H32414   1.657   7.930   3.404  1.7721  3.9250  1.7962
  235MOL0     H32415   1.783   7.978   3.189  3.6312 -3.5793 -4.2833
  235MOL0     H32416   2.090   8.187   2.925  0.9699  0.6505 -4.3291
  235MOL0     H32417   2.245   8.194   2.748  1.3274  0.7443 -1.1418
  235MOL0     H32418   2.338   8.013   2.609 -2.1249  0.1224 -1.1498
  235MOL0     H32419   2.445   8.133   2.553 -0.4351 -1.6216 -0.9581
  235MOL0     H32420   2.496   7.890   2.466 -3.0000 -1.6476  0.7388
  235MOL0     H32421   2.516   7.832   2.637  1.8100 -0.1874 -1.1447
  235MOL0     H32422   2.689   8.021   2.494 -2.5164  0.5417 -0.5201
  235MOL0     H32423   2.701   7.969   2.667 -1.2299  2.4487 -0.3979
  235MOL0     H32424   2.831   7.868   2.461 -0.0153 -0.2545 -0.2377
  235MOL0     H32425   2.697   7.768   2.439 -0.5456 -0.1626  0.3609
  235MOL0     H32426   2.865   7.589   2.777 -2.0180  1.5047  1.0666
  235MOL0     H32427   2.540   7.996   2.973  0.8364  0.5558 -1.0493
  235MOL0     H32428   2.389   7.983   3.286  0.0180  1.0698 -0.1126
  235MOL0     H32429   2.296   7.850   3.215  0.5161  0.2382 -1.3101
  235MOL0     H32430   2.468   7.861   3.179  0.3357  1.4223 -3.2159
  236MOL0     O32431   4.970   6.633   1.139 -0.3118  0.0878 -0.0547
  236MOL0     C32432   4.844   6.634   1.136 -0.6263 -0.9327 -0.2355
  236MOL0     O32433   4.761   6.531   1.169  0.3261  0.1903 -0.0656
  236MOL0     C32434   4.794   6.406   1.219  0.1242 -1.0945  0.2149
  236MOL0     C32435   4.917   6.361   1.237 -0.6037  0.4884  0.2389
  236MOL0     C32436   4.937   6.229   1.279 -1.0115 -0.5461  0.1477
  236MOL0     C32437   4.834   6.146   1.296  0.6201 -0.5440 -0.2076
  236MOL0     O32438   4.843   6.014   1.312 -0.1404  0.6274 -1.2512
  236MOL0     C32439   4.942   5.946   1.395 -0.5416  0.5429  0.4493
  236MOL0     C32440   4.927   5.789   1.403  0.9872 -0.8238  0.8644
  236MOL0     C32441   4.805   5.745   1.479  0.6722 -0.0880  0.0643
  236MOL0     C32442   4.676   5.753   1.406 -0.0268  0.6179 -0.0727
  236MOL0     C32443   4.580   5.637   1.418  0.0038  0.5102  0.7144
  236MOL0     C32444   4.518   5.607   1.550  0.4686  0.2259 -0.2413
  236MOL0     C32445   4.463   5.466   1.548  0.8459 -0.5447  0.0665
  236MOL0     C32446   4.325   5.453   1.490 -0.4091  1.5485  0.0197
  236MOL0     N32447   4.240   5.495   1.602  1.3511 -0.5703  0.0586
  236MOL0     C32448   4.231   5.423   1.719 -0.4985 -0.8214  0.2170
  236MOL0     C32449   4.116   5.472   1.771 -0.5190  0.1814 -0.3934
  236MOL0     C32450   4.042   5.433   1.895 -0.7420 -0.6633 -0.3700
  236MOL0     C32451   4.151   5.428   2.006  0.4884  0.6862 -0.7445
  236MOL0     C32452   4.097   5.451   2.146  0.7606 -0.1990  0.2456
  236MOL0     C32453   4.057   5.327   2.219  0.2419 -0.0404  0.2505
  236MOL0     O32454   3.965   5.251   2.150  0.3574  0.4206 -0.0550
  236MOL0     C32455   3.841   5.202   2.197 -0.6766  0.6590 -0.3612
  236MOL0     C32456   3.779   5.113   2.107 -0.2418  0.4918  0.8243
  236MOL0     C32457   3.667   5.038   2.141  0.6925  0.0167 -0.1606
  236MOL0     C32458   3.613   4.937   2.045  0.1956 -0.1772  0.3607
  236MOL0     C32459   3.595   5.072   2.261 -0.3445 -0.6138 -1.3001
  236MOL0     C32460   3.478   5.000   2.305  0.0986 -0.2759 -0.5031
  236MOL0     O32461   3.432   5.038   2.425 -0.9832  0.1714  0.3274
  236MOL0     C32462   3.307   5.007   2.463 -0.0920 -0.4032 -0.9682
  236MOL0     C32463   3.193   5.005   2.396  0.1559  0.2513  0.3914
  236MOL0     C32464   3.067   4.948   2.447  0.2213 -0.7667  0.8301
  236MOL0     C32465   3.068   4.898   2.580 -0.6699  0.1104 -0.7055
  236MOL0     O32466   2.963   4.826   2.637 -0.4309 -0.4360  0.4432
  236MOL0     C32467   2.832   4.839   2.574  0.4565  0.6370  0.6233
  236MOL0     C32468   2.727   4.773   2.657 -0.3514 -0.2439  0.0715
  236MOL0     C32469   2.726   4.839   2.796  0.2433  1.1553 -0.1067
  236MOL0     C32470   2.626   4.766   2.888  0.1847 -1.0340  0.7781
  236MOL0     C32471   2.673   4.625   2.924 -0.2612 -0.3918  0.9027
  236MOL0     C32472   2.573   4.558   3.010  0.4536 -1.0708  0.9546
  236MOL0     C32473   2.604   4.411   3.057  0.2962  0.7041  0.0026
  236MOL0     C32474   2.602   4.301   2.953  0.6797  0.0252 -0.4424
  236MOL0    Cl32475   2.435   4.257   2.886 -0.2626  0.0728 -0.6310
  236MOL0     C32476   3.173   4.906   2.653 -0.2077 -0.9722 -0.6151
  236MOL0     C32477   3.295   4.944   2.594 -0.5026 -0.8337  0.5270
  236MOL0     O32478   3.428   4.912   2.240  0.1482  0.2938  0.7408
  236MOL0     C32479   3.645   5.174   2.343 -0.6221  1.0743  0.4998
  236MOL0     C32480   3.767   5.227   2.315 -0.5684 -1.3167 -0.3545
  236MOL0     N32481   4.079   5.582   1.696 -0.1534 -0.5965  0.4144
  236MOL0     N32482   4.149   5.598   1.593 -0.7669 -0.9509  0.5788
  236MOL0     C32483   4.707   6.193   1.290 -0.2116 -0.4036  0.4764
  236MOL0     C32484   4.681   6.329   1.251 -0.7396 -0.4806 -0.1658
  236MOL0     C32485   4.775   6.762   1.099  0.1362  0.4094  0.7477
  236MOL0     C32486   4.665   6.801   1.188 -0.6137  0.2493 -0.7187
  236MOL0     C32487   4.593   6.915   1.181  0.5142  0.4981  0.8026
  236MOL0     C32488   4.621   7.004   1.082  0.6998  0.4798  0.6607
  236MOL0     O32489   4.557   7.122   1.075  0.4440  0.0517 -0.2462
  236MOL0     C32490   4.557   7.218   0.960 -0.7223  0.2194 -0.1562
  236MOL0     C32491   4.427   7.297   0.986 -0.2363 -0.8300  0.1953
  236MOL0     C32492   4.290   7.241   0.953 -1.0541  0.4241 -0.2279
  236MOL0     C32493   4.205   7.207   1.083 -0.3457  0.7914 -0.1123
  236MOL0     C32494   4.060   7.190   1.045 -0.8146  0.7660 -0.1629
  236MOL0     C32495   3.945   7.184   1.002 -1.0946  0.2015  0.0808
  236MOL0     C32496   4.722   6.971   0.987  0.0803 -0.1658  0.4777
  236MOL0     C32497   4.795   6.855   0.997 -0.5259  0.0024  1.0131
  236MOL0     C32498   4.899   6.819   0.886  0.4958 -0.0074 -0.9248
  236MOL0     H32499   5.005   6.422   1.220  0.0192 -0.9605 -2.3362
  236MOL0     H32500   5.036   6.183   1.272 -0.8334  0.0617 -3.3748
  236MOL0     H32501   4.942   5.988   1.496  1.8371  1.5873  0.0906
  236MOL0     H32502   5.039   5.974   1.354 -0.0670 -0.2911  0.9823
  236MOL0     H32503   4.931   5.734   1.308  2.2310 -1.0332  1.0268
  236MOL0     H32504   5.017   5.745   1.446  2.4716  1.7251  0.5628
  236MOL0     H32505   4.819   5.640   1.504  2.5733  0.7558  3.0928
  236MOL0     H32506   4.797   5.795   1.576 -0.6620  1.0508 -0.5990
  236MOL0     H32507   4.620   5.836   1.450  0.0116  0.8686 -0.4881
  236MOL0     H32508   4.682   5.779   1.300  0.1629 -0.2813 -0.2933
  236MOL0     H32509   4.627   5.553   1.367  1.8183  2.7121 -1.5278
  236MOL0     H32510   4.499   5.662   1.349  1.8662 -3.2227 -3.3158
  236MOL0     H32511   4.605   5.602   1.616  2.8244 -2.1971 -3.2428
  236MOL0     H32512   4.457   5.687   1.594 -1.3769 -1.0579 -0.3359
  236MOL0     H32513   4.461   5.423   1.648 -0.6615 -0.7165 -0.0145
  236MOL0     H32514   4.527   5.404   1.484  0.4176 -1.5903  0.6376
  236MOL0     H32515   4.315   5.501   1.393  0.7971  1.4200 -0.1877
  236MOL0     H32516   4.304   5.348   1.469  1.9730  1.2806 -1.3622
  236MOL0     H32517   4.293   5.342   1.757  4.1917  3.4250  2.7505
  236MOL0     H32518   4.010   5.329   1.879 -1.5840 -0.4180 -0.3614
  236MOL0     H32519   3.957   5.496   1.923 -0.0929 -0.7380  1.9085
  236MOL0     H32520   4.192   5.327   1.994 -4.2609 -1.3363 -2.6184
  236MOL0     H32521   4.236   5.494   1.988 -0.1137  2.4606  2.1953
  236MOL0     H32522   4.174   5.510   2.197 -1.1039  2.0769  0.5901
  236MOL0     H32523   4.017   5.526   2.140  0.9272 -0.0348  0.0592
  236MOL0     H32524   4.140   5.261   2.243  3.0234  3.5849  1.6010
  236MOL0     H32525   4.012   5.359   2.314  2.5078  0.8053  1.1274
  236MOL0     H32526   3.842   5.083   2.024  2.7663  3.2749  1.8982
  236MOL0     H32527   3.666   4.945   1.949 -0.3163 -2.9414 -0.2449
  236MOL0     H32528   3.511   4.956   2.009 -0.0722 -2.0181  0.0352
  236MOL0     H32529   3.612   4.831   2.072 -2.6024  0.0188  1.2884
  236MOL0     H32530   3.194   5.044   2.295  0.1551  1.2116  0.7605
  236MOL0     H32531   2.983   4.949   2.378 -0.9041 -1.4056  2.1495
  236MOL0     H32532   2.804   4.942   2.550 -2.9078 -0.2579  0.1215
  236MOL0     H32533   2.842   4.787   2.478  0.5136 -2.1318  2.0303
  236MOL0     H32534   2.630   4.778   2.607 -0.2065 -0.4528 -0.2301
  236MOL0     H32535   2.757   4.669   2.671  0.6319  0.0149 -0.0440
  236MOL0     H32536   2.697   4.944   2.785 -3.2357  0.5586  1.7500
  236MOL0     H32537   2.822   4.826   2.848  0.4110  0.1952 -0.6475
  236MOL0     H32538   2.525   4.765   2.845  1.0712 -0.0091 -1.4620
  236MOL0     H32539   2.624   4.830   2.977  0.8868  1.0013 -0.6152
  236MOL0     H32540   2.671   4.570   2.829  1.6153  3.1579 -1.3973
  236MOL0     H32541   2.769   4.619   2.976  0.0388 -0.0754  0.3803
  236MOL0     H32542   2.481   4.551   2.952  0.9363 -2.5952  0.3320
  236MOL0     H32543   2.558   4.614   3.103 -1.3189  0.3392 -0.1090
  236MOL0     H32544   2.519   4.379   3.117  0.5531 -1.0496 -0.5113
  236MOL0     H32545   2.695   4.398   3.116  2.0205 -2.7212 -3.0272
  236MOL0     H32546   2.619   4.214   3.016  0.4649  1.6998  2.0671
  236MOL0     H32547   2.679   4.326   2.879  2.1336  1.8682  1.5821
  236MOL0     H32548   3.165   4.860   2.751 -0.2786 -1.0438 -0.6549
  236MOL0     H32549   3.384   4.929   2.655 -1.3067  0.8000  2.2102
  236MOL0     H32550   3.602   5.214   2.434  1.8861  2.4803  1.1352
  236MOL0     H32551   3.818   5.295   2.382  0.6096 -0.9787 -1.5586
  236MOL0     H32552   4.624   6.124   1.303  0.6503 -1.5038  0.1937
  236MOL0     H32553   4.580   6.349   1.217 -0.5024  2.2520  0.5027
  236MOL0     H32554   4.632   6.744   1.274 -2.3446  4.1230  1.4698
  236MOL0     H32555   4.514   6.926   1.255  1.4424  1.2800  1.7083
  236MOL0     H32556   4.644   7.285   0.962  0.2367 -0.4277  7.0731
  236MOL0     H32557   4.561   7.158   0.868  0.0645  1.0923 -0.7048
  236MOL0     H32558   4.436   7.384   0.920  0.5075 -1.5510 -0.6663
  236MOL0     H32559   4.431   7.329   1.091 -1.5660  0.6371 -0.1563
  236MOL0     H32560   4.233   7.320   0.903 -1.5087  1.8428  2.3320
  236MOL0     H32561   4.305   7.152   0.892  0.3335  1.1241 -0.9614
  236MOL0     H32562   4.208   7.272   1.172 -2.6405  2.0708 -0.9053
  236MOL0     H32563   4.241   7.114   1.127 -2.6654 -0.0005  0.2289
  236MOL0     H32564   3.838   7.178   0.994 -1.0947  1.6461 -1.9871
  236MOL0     H32565   4.736   7.029   0.897 -0.3304 -0.1858  0.3967
  236MOL0     H32566   4.905   6.713   0.860  2.6435 -0.4650  1.0965
  236MOL0     H32567   4.854   6.870   0.800 -0.2849  0.9326  0.0149
  236MOL0     H32568   4.997   6.865   0.896  0.8536 -0.8643 -0.3805
  237MOL0     O32569   3.207   5.503  10.857  0.0355 -1.2929 -0.6918
  237MOL0     C32570   3.157   5.525  10.974 -0.7513  0.4118 -0.0372
  237MOL0     O32571   3.092   5.643  11.008 -0.0056  0.2454 -0.2575
  237MOL0     C32572   3.010   5.693  10.913 -0.4961  0.6137 -0.8760
  237MOL0     C32573   3.042   5.808  10.857 -0.1172  0.6143  0.6033
  237MOL0     C32574   2.957   5.875  10.771 -0.4532 -0.4634 -0.2439
  237MOL0     C32575   2.832   5.815  10.738 -0.0592  0.2817  0.0616
  237MOL0     O32576   2.739   5.859  10.646 -0.5168  0.7460 -0.5903
  237MOL0     C32577   2.730   5.999  10.642  0.0210 -0.6176  0.5151
  237MOL0     C32578   2.607   6.049  10.562 -0.6292  0.3531  0.7329
  237MOL0     C32579   2.509   6.108  10.654  0.3751  0.0275 -0.9072
  237MOL0     C32580   2.547   6.260  10.697  0.1457  0.1625 -0.2964
  237MOL0     C32581   2.494   6.326  10.817 -0.3359 -0.1230 -0.0292
  237MOL0     C32582   2.487   6.476  10.797 -0.8282  0.7485  0.1757
  237MOL0     C32583   2.475   6.557  10.931 -0.7091 -0.4067  0.4093
  237MOL0     C32584   2.336   6.591  10.967  0.9983 -0.2248 -0.5911
  237MOL0     N32585   2.336   6.658  11.096 -0.4579  0.1893 -0.6600
  237MOL0     C32586   2.211   6.697  11.155 -0.3814  0.2862 -0.6260
  237MOL0     C32587   2.251   6.763  11.267  0.6249  0.2724  0.2152
  237MOL0     C32588   2.160   6.862  11.356 -0.6806  0.0974  0.6065
  237MOL0     C32589   2.029   6.901  11.285  0.3079  0.9701  0.1939
  237MOL0     C32590   1.961   7.027  11.342 -0.3822  0.1661  0.0197
  237MOL0     C32591   1.921   7.025  11.499 -0.1755  0.3872  0.7053
  237MOL0     O32592   1.848   7.144  11.533 -0.0685 -0.6379 -0.3459
  237MOL0     C32593   1.905   7.265  11.527 -1.3306  0.1426 -0.4691
  237MOL0     C32594   1.854   7.370  11.456  0.7683  1.1395 -0.8852
  237MOL0     C32595   1.912   7.502  11.445 -0.2555  0.1778  0.0204
  237MOL0     C32596   1.815   7.604  11.384 -0.4618 -0.6596  0.1731
  237MOL0     C32597   2.038   7.521  11.497 -1.6333  0.4528  0.0186
  237MOL0     C32598   2.112   7.649  11.502 -0.5345  1.1347 -0.5702
  237MOL0     O32599   2.246   7.643  11.538  0.2785 -0.2628 -0.2397
  237MOL0     C32600   2.316   7.760  11.554  0.0636  0.1290  0.0448
  237MOL0     C32601   2.376   7.793  11.679  0.1518  1.0073 -0.2042
  237MOL0     C32602   2.456   7.904  11.697  0.3892  0.0620 -0.1566
  237MOL0     C32603   2.468   7.992  11.582 -0.5850 -0.2150 -0.6972
  237MOL0     O32604   2.543   8.111  11.579 -0.1054  0.0229 -0.2120
  237MOL0     C32605   2.477   8.241  11.569 -0.0430  0.1092  0.0289
  237MOL0     C32606   2.392   8.256  11.698  0.0621  0.9030  0.5951
  237MOL0     C32607   2.296   8.374  11.707  0.0396  0.5785 -0.4230
  237MOL0     C32608   2.223   8.402  11.834 -0.4950  0.3741  0.2821
  237MOL0     C32609   2.317   8.399  11.962  0.2482 -0.3516  0.3353
  237MOL0     C32610   2.231   8.435  12.077  0.1155 -0.3965  0.0316
  237MOL0     C32611   2.174   8.575  12.077 -0.1769 -0.0681 -0.1761
  237MOL0     C32612   2.171   8.623  12.226 -0.7486 -1.1845 -0.1036
  237MOL0    Cl32613   2.146   8.801  12.229 -0.0034  0.2827 -0.1550
  237MOL0     C32614   2.401   7.966  11.457 -0.0742  0.1064 -0.5404
  237MOL0     C32615   2.329   7.848  11.446 -0.2984 -0.7851 -0.6288
  237MOL0     O32616   2.054   7.754  11.470 -0.3053 -0.0590  0.1055
  237MOL0     C32617   2.102   7.408  11.553  0.3839  0.5504  0.4538
  237MOL0     C32618   2.037   7.282  11.577 -0.4697 -0.2431  0.3235
  237MOL0     N32619   2.381   6.744  11.283  0.2700 -0.2640  0.6925
  237MOL0     N32620   2.437   6.681  11.185 -0.7630 -0.3678  0.2055
  237MOL0     C32621   2.800   5.691  10.797  0.2856 -0.0778 -0.1587
  237MOL0     C32622   2.879   5.636  10.891 -1.5542 -0.6699  0.9567
  237MOL0     C32623   3.197   5.439  11.093  0.3013  0.3008 -0.6623
  237MOL0     C32624   3.163   5.470  11.232 -0.3662 -0.3695  0.2169
  237MOL0     C32625   3.175   5.388  11.341  0.4291 -0.6171 -0.1369
  237MOL0     C32626   3.228   5.265  11.325  0.3579  0.2170  0.6567
  237MOL0     O32627   3.242   5.184  11.434 -0.1404  0.7540  0.0726
  237MOL0     C32628   3.383   5.157  11.470  0.1565  0.0597 -0.4062
  237MOL0     C32629   3.397   5.169  11.631 -0.3009 -0.3274  0.0981
  237MOL0     C32630   3.544   5.137  11.660 -0.3857 -0.7097  0.4571
  237MOL0     C32631   3.558   5.075  11.795 -0.2529 -0.2136  0.1404
  237MOL0     C32632   3.516   5.160  11.910 -0.9908 -0.7369 -0.3216
  237MOL0     C32633   3.491   5.235  12.005  0.0328 -0.0472  0.6004
  237MOL0     C32634   3.275   5.228  11.198  0.1047  0.6574 -0.2463
  237MOL0     C32635   3.253   5.309  11.079  0.8454  0.8397  0.1706
  237MOL0     C32636   3.289   5.262  10.942  0.2982  0.6018  0.4229
  237MOL0     H32637   3.140   5.852  10.865  1.4230 -2.2581 -0.9897
  237MOL0     H32638   2.996   5.967  10.727  2.7522 -1.8991 -0.6657
  237MOL0     H32639   2.814   6.045  10.589 -0.9446 -0.3304 -0.8448
  237MOL0     H32640   2.733   6.050  10.738  2.2861  0.6499 -0.1587
  237MOL0     H32641   2.652   6.120  10.491 -1.5525  0.9858  0.7691
  237MOL0     H32642   2.556   5.963  10.518 -2.5933  0.8528  1.9296
  237MOL0     H32643   2.412   6.100  10.603 -1.5773 -0.0017  2.4625
  237MOL0     H32644   2.503   6.051  10.747  4.6182  1.2516  0.3387
  237MOL0     H32645   2.653   6.284  10.709 -0.4532  2.5021  0.9123
  237MOL0     H32646   2.510   6.316  10.611 -1.4978 -0.1058  0.2071
  237MOL0     H32647   2.573   6.304  10.889  1.1068 -1.7371 -1.9905
  237MOL0     H32648   2.391   6.295  10.838 -0.7785 -0.3225 -2.2167
  237MOL0     H32649   2.570   6.520  10.741  0.2191 -0.6995  0.5233
  237MOL0     H32650   2.395   6.507  10.747 -0.1211 -0.4532 -2.0105
  237MOL0     H32651   2.525   6.655  10.927 -0.0739 -0.7215  0.5538
  237MOL0     H32652   2.520   6.502  11.014 -0.7691  0.5830  1.1113
  237MOL0     H32653   2.275   6.639  10.890 -1.1214 -2.9850 -0.7924
  237MOL0     H32654   2.271   6.504  10.981 -0.1776  0.6543 -0.4205
  237MOL0     H32655   2.116   6.706  11.103 -0.4515  0.2294 -0.5068
  237MOL0     H32656   2.213   6.957  11.374  1.6321 -1.7497  5.5171
  237MOL0     H32657   2.138   6.829  11.458  0.9356  2.0462  1.6561
  237MOL0     H32658   2.033   6.908  11.176 -1.2963  1.7491  0.1537
  237MOL0     H32659   1.955   6.823  11.303  1.0874  1.1262  6.4903
  237MOL0     H32660   2.031   7.110  11.326  0.0683 -0.2376 -0.1249
  237MOL0     H32661   1.860   7.039  11.302 -1.1831  3.3488  2.5297
  237MOL0     H32662   1.865   6.933  11.521  0.2750  0.8231  4.2513
  237MOL0     H32663   2.010   7.022  11.562  0.7484  0.5048 -0.5660
  237MOL0     H32664   1.762   7.334  11.412 -1.4981  0.9238  3.4954
  237MOL0     H32665   1.717   7.587  11.430 -1.5911 -1.4054 -2.2960
  237MOL0     H32666   1.814   7.585  11.276  0.8349  0.7100 -0.1111
  237MOL0     H32667   1.839   7.710  11.394 -2.8843  0.4685 -3.6342
  237MOL0     H32668   2.376   7.727  11.766  2.5411 -0.7399 -1.4097
  237MOL0     H32669   2.499   7.930  11.793 -1.3263 -0.5844  0.8309
  237MOL0     H32670   2.555   8.317  11.572  1.0629 -0.7890 -2.5649
  237MOL0     H32671   2.405   8.249  11.486 -0.7776 -0.1805  0.6214
  237MOL0     H32672   2.318   8.178  11.717 -3.4332  3.3784 -1.6557
  237MOL0     H32673   2.476   8.248  11.768  1.4212  1.1228 -0.9479
  237MOL0     H32674   2.230   8.369  11.620  2.0875 -2.3865 -2.0051
  237MOL0     H32675   2.354   8.466  11.692 -0.4826  0.8409 -0.8765
  237MOL0     H32676   2.165   8.312  11.854  0.0719 -0.9403 -3.2473
  237MOL0     H32677   2.160   8.490  11.821  1.6608  1.7504 -1.6972
  237MOL0     H32678   2.348   8.298  11.986 -0.7381 -0.8897 -0.5306
  237MOL0     H32679   2.405   8.464  11.956 -0.7544  0.9507 -1.1950
  237MOL0     H32680   2.298   8.428  12.163 -0.5293  0.1419  0.5883
  237MOL0     H32681   2.140   8.375  12.089  0.0119 -0.1203  0.6568
  237MOL0     H32682   2.069   8.567  12.046 -0.7780 -3.9007  2.1629
  237MOL0     H32683   2.236   8.641  12.017 -2.4298  1.7791 -0.6260
  237MOL0     H32684   2.260   8.604  12.287 -1.1060 -1.7025  0.2662
  237MOL0     H32685   2.101   8.572  12.292 -1.1132 -0.4446  0.0963
  237MOL0     H32686   2.415   8.026  11.368  1.3333  1.7352  0.7058
  237MOL0     H32687   2.267   7.834  11.358 -0.6772 -0.8630 -0.3546
  237MOL0     H32688   2.201   7.423  11.593  0.1282  1.8293  0.6710
  237MOL0     H32689   2.089   7.206  11.633 -2.3692 -5.4741 -4.1395
  237MOL0     H32690   2.702   5.646  10.793 -1.2913  2.6654  2.6777
  237MOL0     H32691   2.846   5.552  10.951 -2.2331 -3.2869 -2.7507
  237MOL0     H32692   3.131   5.574  11.241 -2.6186 -0.9438 -0.3886
  237MOL0     H32693   3.158   5.440  11.435  1.2999  3.2352 -1.8972
  237MOL0     H32694   3.408   5.058  11.431 -1.7395 -0.0398 -1.4875
  237MOL0     H32695   3.451   5.231  11.428  3.1605 -2.2551 -0.0608
  237MOL0     H32696   3.333   5.101  11.688 -1.1929 -2.2073 -2.9247
  237MOL0     H32697   3.388   5.269  11.674  0.3209 -0.2027 -0.0496
  237MOL0     H32698   3.582   5.072  11.581 -0.3112 -0.5338  0.3490
  237MOL0     H32699   3.595   5.232  11.641  2.5723 -2.6588 -2.1368
  237MOL0     H32700   3.665   5.053  11.807 -0.2772 -3.1768 -3.4193
  237MOL0     H32701   3.509   4.977  11.793 -0.8895  0.1148 -1.1637
  237MOL0     H32702   3.463   5.300  12.086 -0.7303  0.1257  0.2066
  237MOL0     H32703   3.323   5.131  11.191  0.6476  0.7878  1.2847
  237MOL0     H32704   3.318   5.157  10.947  0.0682  0.5868  2.1739
  237MOL0     H32705   3.208   5.277  10.871 -0.3051  0.5374  1.0832
  237MOL0     H32706   3.374   5.311  10.894 -0.5620  2.0575  0.3136
  238MOL0     O32707  11.181   8.293  10.933  0.1115  0.0364  0.3938
  238MOL0     C32708  11.259   8.387  10.958 -0.0114 -0.6865  0.2769
  238MOL0     O32709  11.359   8.439  10.876  0.3897 -0.2987  0.0046
  238MOL0     C32710  11.368   8.408  10.738 -0.1760 -0.2517  0.9913
  238MOL0     C32711  11.273   8.450  10.648  0.2557 -0.7796  0.5293
  238MOL0     C32712  11.291   8.426  10.509 -0.1063 -0.3258  0.5487
  238MOL0     C32713  11.404   8.356  10.468  0.6313  0.0651 -0.2022
  238MOL0     O32714  11.439   8.336  10.333  0.3651  0.0665  0.0816
  238MOL0     C32715  11.383   8.431  10.239 -0.8788 -0.3669 -0.5214
  238MOL0     C32716  11.263   8.364  10.162 -0.5963  0.4465 -0.7335
  238MOL0     C32717  11.297   8.235  10.092 -0.7444 -0.9351 -0.2782
  238MOL0     C32718  11.174   8.205  10.005 -0.1625 -0.8140 -0.4724
  238MOL0     C32719  11.233   8.131   9.884  0.1758 -0.2063 -0.1881
  238MOL0     C32720  11.121   8.117   9.782  0.2933  0.0893  0.8042
  238MOL0     C32721  11.149   8.010   9.681 -0.4226  0.0471 -1.6192
  238MOL0     C32722  11.035   7.974   9.587 -0.3912  0.4333  0.1008
  238MOL0     N32723  11.025   8.072   9.477 -0.1783  0.0531  0.6675
  238MOL0     C32724  10.930   8.170   9.462  0.1424 -0.5324 -0.7884
  238MOL0     C32725  10.980   8.255   9.367  1.2372  0.3901 -0.7663
  238MOL0     C32726  10.908   8.386   9.338  1.3587 -0.0357 -0.5064
  238MOL0     C32727  10.761   8.352   9.290  0.2758  0.0612 -0.7498
  238MOL0     C32728  10.744   8.259   9.166  0.1398 -0.7360  0.3231
  238MOL0     C32729  10.591   8.217   9.159 -0.1914  0.1875  0.1358
  238MOL0     O32730  10.588   8.110   9.069  0.6963  0.1408  0.4295
  238MOL0     C32731  10.466   8.097   9.004  0.1144  0.3137 -0.1711
  238MOL0     C32732  10.343   8.139   9.046  1.0136 -1.0778  0.1195
  238MOL0     C32733  10.229   8.097   8.972 -0.5119  0.7809  0.0233
  238MOL0     C32734  10.096   8.153   9.017 -1.1117 -1.3494 -0.3877
  238MOL0     C32735  10.231   8.024   8.849  0.3549  0.3764 -0.0357
  238MOL0     C32736  10.107   7.980   8.777  0.4191 -0.2387  0.6624
  238MOL0     O32737   9.997   7.932   8.848  0.4640  0.7989 -0.7548
  238MOL0     C32738   9.901   7.880   8.774  0.0161 -0.0666 -0.1011
  238MOL0     C32739   9.912   7.763   8.702  0.2646  0.0910 -0.0739
  238MOL0     C32740   9.798   7.705   8.635 -0.2252 -0.2707  0.2379
  238MOL0     C32741   9.674   7.770   8.650 -0.0830 -0.1607  0.9442
  238MOL0     O32742   9.576   7.708   8.582 -0.0286  0.1490  0.5233
  238MOL0     C32743   9.442   7.756   8.587 -1.1054  0.0482 -0.0241
  238MOL0     C32744   9.358   7.658   8.505  0.5211  0.3448  0.2944
  238MOL0     C32745   9.312   7.538   8.590 -0.3218 -0.1060 -0.5903
  238MOL0     C32746   9.234   7.439   8.502  0.1735  0.5755  0.9076
  238MOL0     C32747   9.156   7.317   8.566  0.2261 -0.2806 -0.8731
  238MOL0     C32748   9.031   7.266   8.489  0.3368 -0.2067  0.3735
  238MOL0     C32749   9.063   7.234   8.352 -0.1003  0.1022  0.0735
  238MOL0     C32750   8.944   7.201   8.263 -0.3544  0.3169  0.2585
  238MOL0    Cl32751   8.868   7.039   8.292  0.5703 -0.0899  0.2361
  238MOL0     C32752   9.660   7.890   8.722 -0.9988  0.4513  0.5270
  238MOL0     C32753   9.774   7.941   8.781  0.4936  0.3467  1.5089
  238MOL0     O32754  10.109   7.999   8.655 -0.2813 -0.0681  0.0548
  238MOL0     C32755  10.357   7.996   8.808  1.3383 -0.3557 -0.1254
  238MOL0     C32756  10.472   8.029   8.881 -0.3466  0.2321 -0.2453
  238MOL0     N32757  11.097   8.207   9.318 -0.6025 -0.5767 -0.2757
  238MOL0     N32758  11.126   8.102   9.383  0.7694 -0.3849 -0.2171
  238MOL0     C32759  11.498   8.301  10.557  0.0268  0.3283  0.0871
  238MOL0     C32760  11.468   8.317  10.696  0.4952  0.0321 -0.4017
  238MOL0     C32761  11.247   8.441  11.099 -0.1274  0.3034 -0.8458
  238MOL0     C32762  11.133   8.398  11.173 -0.6326  0.1594  0.2879
  238MOL0     C32763  11.127   8.432  11.306 -0.5183  1.0348 -0.4849
  238MOL0     C32764  11.223   8.519  11.369  0.7157 -0.2078 -0.7397
  238MOL0     O32765  11.197   8.549  11.504 -0.0304 -0.5305 -0.3740
  238MOL0     C32766  11.306   8.585  11.587  0.1394  1.0777 -0.2186
  238MOL0     C32767  11.280   8.650  11.716  1.3021 -1.1300 -0.9883
  238MOL0     C32768  11.194   8.776  11.695 -0.3047 -0.3467 -0.6192
  238MOL0     C32769  11.219   8.873  11.820  0.5092 -0.5407  0.7924
  238MOL0     C32770  11.348   8.931  11.808  0.0191 -0.3600  0.4950
  238MOL0     C32771  11.459   8.978  11.817  0.2535  0.5607 -0.0193
  238MOL0     C32772  11.340   8.559  11.293  0.5544  0.5130 -1.9684
  238MOL0     C32773  11.350   8.517  11.167 -0.0240  0.3738  1.3527
  238MOL0     C32774  11.479   8.552  11.100 -0.3539  0.9027 -0.3774
  238MOL0     H32775  11.194   8.512  10.690  0.3735  0.1866 -0.6338
  238MOL0     H32776  11.213   8.478  10.453 -1.3821  1.1063  3.4387
  238MOL0     H32777  11.459   8.453  10.164 -0.2502  3.7353  1.0406
  238MOL0     H32778  11.354   8.523  10.290 -1.8812 -1.0582  0.2043
  238MOL0     H32779  11.201   8.336  10.248  0.6620  0.8382  0.3360
  238MOL0     H32780  11.207   8.439  10.106 -1.4741  1.6558  1.5925
  238MOL0     H32781  11.390   8.236  10.034 -0.7753  2.0806 -0.4394
  238MOL0     H32782  11.310   8.159  10.170 -2.2980 -0.4830  0.4727
  238MOL0     H32783  11.110   8.132  10.057  1.6829 -2.5671 -0.5358
  238MOL0     H32784  11.121   8.295   9.973 -0.2882 -1.1368 -1.1913
  238MOL0     H32785  11.257   8.032   9.923  0.7093 -0.3765 -0.9451
  238MOL0     H32786  11.320   8.181   9.841 -1.5245  1.5280 -1.7994
  238MOL0     H32787  11.020   8.113   9.823  0.4959  4.3627  2.2715
  238MOL0     H32788  11.118   8.216   9.735 -1.7152 -0.3386 -0.0791
  238MOL0     H32789  11.165   7.919   9.739  1.5025  2.7977  2.6705
  238MOL0     H32790  11.243   8.020   9.626  2.6431  0.8909  3.1786
  238MOL0     H32791  11.038   7.874   9.542  1.8439 -0.1938  1.4943
  238MOL0     H32792  10.943   7.990   9.643 -0.6156  1.9060 -0.6502
  238MOL0     H32793  10.849   8.189   9.532 -1.3336  0.5055 -2.6646
  238MOL0     H32794  10.961   8.452   9.268 -3.0464 -0.0207 -4.3372
  238MOL0     H32795  10.905   8.438   9.434  1.2106 -2.3573  0.8038
  238MOL0     H32796  10.694   8.320   9.370  3.4220 -3.8788  0.6457
  238MOL0     H32797  10.732   8.448   9.246 -0.5131 -0.0548 -0.4981
  238MOL0     H32798  10.777   8.295   9.068  4.5655 -2.2275  1.0666
  238MOL0     H32799  10.795   8.163   9.173 -0.2634 -0.9945 -0.1926
  238MOL0     H32800  10.572   8.183   9.261  1.8380 -1.8672 -0.0927
  238MOL0     H32801  10.526   8.295   9.119 -1.8101 -1.7888 -1.2932
  238MOL0     H32802  10.315   8.205   9.126  0.0393 -1.1056 -0.1827
  238MOL0     H32803  10.106   8.232   9.092 -1.1970 -1.3779 -0.3470
  238MOL0     H32804  10.035   8.071   9.055 -0.4298 -0.6369  2.4988
  238MOL0     H32805  10.055   8.209   8.932 -0.9174 -1.7675 -0.7625
  238MOL0     H32806  10.001   7.711   8.669 -0.9078 -2.4644  0.5466
  238MOL0     H32807   9.808   7.618   8.571 -0.3760  1.3805 -2.1583
  238MOL0     H32808   9.407   7.768   8.690 -3.6865 -2.7133 -0.4442
  238MOL0     H32809   9.447   7.850   8.532 -0.8856 -1.5153 -2.8513
  238MOL0     H32810   9.269   7.715   8.476  1.6499  2.2907  0.5133
  238MOL0     H32811   9.400   7.634   8.407  0.8188  0.4366  0.3989
  238MOL0     H32812   9.270   7.559   8.689 -0.4610  0.0543 -0.6821
  238MOL0     H32813   9.399   7.480   8.623  0.9464  1.2625 -1.3969
  238MOL0     H32814   9.301   7.383   8.435 -3.3474 -0.0384 -2.4781
  238MOL0     H32815   9.173   7.492   8.428  0.1714 -0.4746  0.1231
  238MOL0     H32816   9.227   7.237   8.588 -0.3773 -0.7344 -0.5478
  238MOL0     H32817   9.120   7.343   8.666 -1.2227 -2.3180 -0.7985
  238MOL0     H32818   8.959   7.347   8.475 -2.3332 -2.8015 -2.2467
  238MOL0     H32819   8.994   7.180   8.544 -1.4470 -0.3503 -0.9625
  238MOL0     H32820   9.137   7.153   8.357 -0.1683  0.0655  0.4840
  238MOL0     H32821   9.111   7.324   8.312 -2.3832  1.7167  0.7988
  238MOL0     H32822   8.982   7.209   8.161  0.3890 -2.5105  0.2364
  238MOL0     H32823   8.864   7.273   8.280 -2.3767 -1.3803 -1.5050
  238MOL0     H32824   9.563   7.932   8.748 -0.3156  0.5501  3.2375
  238MOL0     H32825   9.756   8.037   8.829 -0.3358  1.9313 -1.6722
  238MOL0     H32826  10.373   7.934   8.720  1.5308 -3.6589  2.0539
  238MOL0     H32827  10.564   7.992   8.837 -1.3693 -0.7039 -1.7315
  238MOL0     H32828  11.575   8.231  10.528 -1.5738 -2.3653  1.8545
  238MOL0     H32829  11.553   8.283  10.754  0.3217 -0.0802 -0.2154
  238MOL0     H32830  11.048   8.347  11.131 -0.8343 -0.2075  1.1039
  238MOL0     H32831  11.047   8.403  11.372 -1.3311 -0.1589 -1.9210
  238MOL0     H32832  11.353   8.487  11.595 -1.9676 -0.0487 -1.0056
  238MOL0     H32833  11.383   8.646  11.538  2.4994 -2.5144 -1.4193
  238MOL0     H32834  11.370   8.682  11.769  0.2871  2.6488 -1.2893
  238MOL0     H32835  11.217   8.582  11.775 -0.4971  0.8461 -0.5020
  238MOL0     H32836  11.214   8.827  11.600  0.8322 -1.1169 -0.8045
  238MOL0     H32837  11.091   8.745  11.676 -0.8987  2.2153 -2.0544
  238MOL0     H32838  11.208   8.828  11.919  2.0703 -0.6714  0.9232
  238MOL0     H32839  11.154   8.962  11.815  1.4178  0.0709 -2.0840
  238MOL0     H32840  11.556   9.015  11.842  0.8358  0.5210 -1.9971
  238MOL0     H32841  11.427   8.602  11.340 -0.9930  0.4355  1.2763
  238MOL0     H32842  11.469   8.619  11.014 -3.7054 -1.7058 -2.2465
  238MOL0     H32843  11.551   8.597  11.170  1.3322  0.1442 -1.5612
  238MOL0     H32844  11.538   8.466  11.068 -0.6754  0.9206 -1.0375
  239MOL0     O32845   7.171   5.871   8.411  0.4825  1.0355 -0.2478
  239MOL0     C32846   7.196   5.816   8.516  0.6139  0.3125 -1.1140
  239MOL0     O32847   7.161   5.685   8.543  0.7113 -0.2735  0.4362
  239MOL0     C32848   7.102   5.603   8.449 -0.5127  0.2735  0.0324
  239MOL0     C32849   7.006   5.511   8.498 -0.8610 -0.1192 -0.1356
  239MOL0     C32850   6.952   5.422   8.410  0.3674  0.5668  0.5897
  239MOL0     C32851   6.991   5.413   8.274 -0.2918  0.6869  0.4646
  239MOL0     O32852   6.946   5.302   8.195 -0.5086  0.3651 -0.4136
  239MOL0     C32853   6.960   5.305   8.056 -0.6943  0.8332  0.4763
  239MOL0     C32854   6.866   5.198   7.992 -0.3299 -0.1332  0.6512
  239MOL0     C32855   6.851   5.236   7.844  0.1909 -0.3953 -0.5922
  239MOL0     C32856   6.772   5.122   7.780 -0.3451 -0.0443 -0.3363
  239MOL0     C32857   6.768   5.140   7.633 -0.1388 -0.2273  0.6956
  239MOL0     C32858   6.669   5.045   7.579  0.3265  0.6995 -0.4459
  239MOL0     C32859   6.674   5.026   7.424  0.1923  0.1926 -0.6311
  239MOL0     C32860   6.641   5.141   7.334 -0.3610  0.0323  0.5510
  239MOL0     N32861   6.632   5.094   7.196  0.9230  0.3284  0.4305
  239MOL0     C32862   6.729   5.031   7.122  0.3325  0.4152  0.9815
  239MOL0     C32863   6.678   5.020   7.002 -0.1909  0.5136 -0.1812
  239MOL0     C32864   6.750   4.947   6.888  0.3840 -1.1208 -0.0194
  239MOL0     C32865   6.760   5.051   6.769 -0.6478  1.3856 -0.4415
  239MOL0     C32866   6.854   4.989   6.661  0.0173  0.5506  0.1482
  239MOL0     C32867   7.000   4.992   6.702  0.1398 -1.0410  0.1589
  239MOL0     O32868   7.069   4.946   6.585 -0.7690 -0.6221  0.0660
  239MOL0     C32869   7.187   5.014   6.559 -0.3146 -0.1596  0.2114
  239MOL0     C32870   7.253   4.958   6.449 -0.5980 -0.2472  0.6134
  239MOL0     C32871   7.374   4.998   6.407  0.1937 -1.2842  0.9997
  239MOL0     C32872   7.433   4.945   6.284  0.2914  0.3821 -0.1638
  239MOL0     C32873   7.444   5.096   6.471 -0.4986 -0.4484 -0.2041
  239MOL0     C32874   7.567   5.157   6.432 -0.3120 -0.1601 -0.5129
  239MOL0     O32875   7.677   5.091   6.468 -0.0033  0.0513 -0.3474
  239MOL0     C32876   7.786   5.169   6.476  0.4928 -1.0286  0.5941
  239MOL0     C32877   7.819   5.249   6.582  0.6802  0.0077  0.6465
  239MOL0     C32878   7.935   5.332   6.572 -0.2906  0.2961 -0.0586
  239MOL0     C32879   8.015   5.337   6.456 -0.2430 -0.2257 -0.0240
  239MOL0     O32880   8.133   5.413   6.465  0.5198  0.0963 -0.0070
  239MOL0     C32881   8.133   5.505   6.359 -0.5994 -0.2039 -0.1437
  239MOL0     C32882   8.047   5.621   6.388  1.3268 -0.8866 -0.3508
  239MOL0     C32883   7.968   5.649   6.262  0.0794 -0.3562  1.3679
  239MOL0     C32884   7.860   5.537   6.232  0.5881 -0.0366  1.2326
  239MOL0     C32885   7.803   5.570   6.088  0.6211  0.1358 -0.5756
  239MOL0     C32886   7.713   5.460   6.035  0.7786 -0.1394  0.1106
  239MOL0     C32887   7.772   5.327   5.994  0.0017 -0.4132 -0.2996
  239MOL0     C32888   7.662   5.217   5.994 -0.1720 -1.4079 -0.3023
  239MOL0    Cl32889   7.510   5.271   5.924  0.2181 -0.0379  0.3917
  239MOL0     C32890   7.995   5.233   6.365 -0.5746  0.2234  0.6842
  239MOL0     C32891   7.874   5.168   6.371  1.1546 -0.0796  0.2414
  239MOL0     O32892   7.556   5.267   6.376  0.5327  0.3853  0.0816
  239MOL0     C32893   7.388   5.154   6.588  0.1037 -0.0788  0.0460
  239MOL0     C32894   7.264   5.113   6.628  0.6320  1.6496 -0.8047
  239MOL0     N32895   6.544   5.070   7.005 -1.5738 -0.1345  0.4392
  239MOL0     N32896   6.523   5.115   7.125  0.6274  0.6142 -0.0211
  239MOL0     C32897   7.079   5.509   8.223  0.7096  0.1455 -0.0392
  239MOL0     C32898   7.132   5.603   8.311  0.4436  0.5387 -1.0724
  239MOL0     C32899   7.266   5.905   8.609  0.3143 -0.3778 -1.5263
  239MOL0     C32900   7.227   6.041   8.608 -0.7061 -0.5871 -0.5581
  239MOL0     C32901   7.290   6.129   8.691  0.6747 -0.8740  0.1843
  239MOL0     C32902   7.381   6.086   8.783 -0.1918  0.6136  0.1500
  239MOL0     O32903   7.453   6.175   8.862  0.3927  0.9116 -0.2345
  239MOL0     C32904   7.578   6.137   8.923 -0.5413  0.6551 -0.0833
  239MOL0     C32905   7.662   6.256   8.937 -0.8840 -0.7980  0.0099
  239MOL0     C32906   7.675   6.331   8.793 -0.2989 -0.3268 -0.2530
  239MOL0     C32907   7.779   6.270   8.692  0.6699  0.1769 -0.7195
  239MOL0     C32908   7.700   6.177   8.610 -0.4438  0.2543  0.2622
  239MOL0     C32909   7.646   6.098   8.550  0.0694 -1.5736 -0.1763
  239MOL0     C32910   7.410   5.948   8.804  0.7186 -0.6789 -0.0781
  239MOL0     C32911   7.356   5.856   8.710  0.0979  0.3048 -0.1098
  239MOL0     C32912   7.400   5.714   8.722 -0.1639 -0.2452  0.5560
  239MOL0     H32913   6.995   5.507   8.606  5.6835  0.1368  0.9419
  239MOL0     H32914   6.890   5.338   8.441  2.9822 -2.6827 -2.2367
  239MOL0     H32915   7.058   5.279   8.016 -1.6119 -1.4556 -0.4636
  239MOL0     H32916   6.938   5.409   8.027 -3.2515 -0.2212 -1.8828
  239MOL0     H32917   6.895   5.094   8.007 -2.6451 -1.0563 -0.7103
  239MOL0     H32918   6.771   5.192   8.046  0.3684 -2.3807  1.7379
  239MOL0     H32919   6.806   5.334   7.828  2.8403  0.5792 -2.8147
  239MOL0     H32920   6.949   5.259   7.803  0.5064 -0.1086  0.3084
  239MOL0     H32921   6.806   5.019   7.792  1.8859  0.3816 -2.2736
  239MOL0     H32922   6.667   5.120   7.812  0.1301 -2.8905  1.3888
  239MOL0     H32923   6.856   5.110   7.576 -0.3351 -0.6953  0.6379
  239MOL0     H32924   6.751   5.245   7.609  1.2494  0.6037  2.9606
  239MOL0     H32925   6.695   4.944   7.611 -0.8791  0.1713 -1.0671
  239MOL0     H32926   6.572   5.072   7.622  1.8955  0.0349  3.9750
  239MOL0     H32927   6.607   4.944   7.398 -2.6117  2.5974 -1.5234
  239MOL0     H32928   6.771   4.985   7.392 -1.7485 -4.2008 -1.6424
  239MOL0     H32929   6.556   5.198   7.373 -1.1350 -1.2742  0.8303
  239MOL0     H32930   6.720   5.216   7.336 -1.5446  1.3028  1.4497
  239MOL0     H32931   6.826   4.991   7.148  1.6039  0.0750 -3.5035
  239MOL0     H32932   6.694   4.859   6.855  0.0582 -0.3072 -1.7611
  239MOL0     H32933   6.848   4.924   6.931 -0.1424  0.3498  2.1276
  239MOL0     H32934   6.664   5.085   6.728 -0.4191  1.3290 -1.0455
  239MOL0     H32935   6.813   5.137   6.808  2.7185 -0.4798 -0.5274
  239MOL0     H32936   6.829   4.885   6.641  2.9017 -0.1310 -0.2972
  239MOL0     H32937   6.836   5.039   6.565 -0.0668  2.1312  0.9465
  239MOL0     H32938   7.008   5.095   6.739 -0.7319 -1.7321  2.5269
  239MOL0     H32939   7.019   4.926   6.787 -2.6551 -0.9201  0.9929
  239MOL0     H32940   7.208   4.880   6.388  2.0096 -0.0399 -1.7733
  239MOL0     H32941   7.507   4.869   6.310 -0.3283 -0.1470  0.0833
  239MOL0     H32942   7.471   5.034   6.233  2.2035  1.2402  2.5280
  239MOL0     H32943   7.358   4.887   6.228 -1.0244 -0.0360  1.9078
  239MOL0     H32944   7.764   5.243   6.675 -0.5442  0.1107 -0.0597
  239MOL0     H32945   7.959   5.393   6.658 -2.5920  1.7863 -0.3962
  239MOL0     H32946   8.238   5.535   6.354 -0.9719  1.0252 -1.1175
  239MOL0     H32947   8.105   5.455   6.265 -1.8133 -0.4665  0.3353
  239MOL0     H32948   7.974   5.589   6.463  0.1137 -0.5014 -1.3322
  239MOL0     H32949   8.117   5.699   6.418  3.2013 -3.2208  1.6999
  239MOL0     H32950   8.036   5.654   6.177 -0.5129 -0.5111  0.8771
  239MOL0     H32951   7.921   5.747   6.257 -0.1247 -0.5240 -0.3114
  239MOL0     H32952   7.774   5.533   6.299 -0.0267 -1.0065  0.4187
  239MOL0     H32953   7.899   5.436   6.226  0.3098 -0.0787 -0.5372
  239MOL0     H32954   7.743   5.662   6.091 -2.1589 -1.5030 -2.3044
  239MOL0     H32955   7.882   5.565   6.013 -0.7574  0.1011 -2.0615
  239MOL0     H32956   7.652   5.516   5.964  1.9318 -2.1913 -2.6882
  239MOL0     H32957   7.655   5.435   6.124 -0.8416 -1.3974 -1.2277
  239MOL0     H32958   7.845   5.289   6.066 -1.8155 -0.6270  1.5196
  239MOL0     H32959   7.813   5.326   5.893  1.5656  2.6725  0.1933
  239MOL0     H32960   7.653   5.160   6.087  1.8181 -0.3920  0.5781
  239MOL0     H32961   7.694   5.134   5.930  0.0933 -0.9503 -0.7734
  239MOL0     H32962   8.062   5.212   6.282 -1.0792  2.4992 -0.3679
  239MOL0     H32963   7.846   5.110   6.284  2.5087 -0.5326  0.0728
  239MOL0     H32964   7.439   5.230   6.646 -3.6298  2.4795  0.3459
  239MOL0     H32965   7.216   5.162   6.713  1.4609 -1.0931  1.4094
  239MOL0     H32966   7.112   5.527   8.121 -2.9254 -0.7393 -1.5240
  239MOL0     H32967   7.218   5.664   8.288 -0.5565  2.0616 -0.8891
  239MOL0     H32968   7.157   6.075   8.532 -1.3945 -2.9933 -1.1001
  239MOL0     H32969   7.259   6.233   8.691 -2.5428 -1.7252  1.2728
  239MOL0     H32970   7.582   6.080   9.016  1.7803 -1.9023 -1.6020
  239MOL0     H32971   7.627   6.062   8.860 -3.1691 -1.3774  0.1134
  239MOL0     H32972   7.762   6.232   8.975 -0.6307 -3.5038 -2.0653
  239MOL0     H32973   7.614   6.326   9.005 -1.7278  0.8742 -2.2174
  239MOL0     H32974   7.574   6.346   8.754 -0.2506  1.0961  0.0976
  239MOL0     H32975   7.704   6.435   8.809  1.1222 -0.7050 -0.2810
  239MOL0     H32976   7.857   6.220   8.750  0.0729 -0.0872 -0.1194
  239MOL0     H32977   7.830   6.342   8.627  0.6071 -0.4337 -1.4550
  239MOL0     H32978   7.599   6.032   8.479 -1.6404  0.0322 -0.6194
  239MOL0     H32979   7.473   5.918   8.887 -1.0032  0.8495  1.8745
  239MOL0     H32980   7.307   5.659   8.738 -1.3442  1.3255 -0.6274
  239MOL0     H32981   7.473   5.698   8.643  3.3869  1.7832  3.1469
  239MOL0     H32982   7.457   5.714   8.815  2.6976 -0.4506 -1.0976
  240MOL0     O32983   8.520   6.192   6.353 -0.9042 -0.5072  0.0890
  240MOL0     C32984   8.565   6.193   6.231 -0.4120  0.0872 -0.4089
  240MOL0     O32985   8.696   6.216   6.200  0.2653  0.0663  0.2328
  240MOL0     C32986   8.790   6.238   6.295  0.8895 -0.0101 -0.6413
  240MOL0     C32987   8.896   6.147   6.293 -0.3804  1.1315  1.2667
  240MOL0     C32988   9.004   6.151   6.381 -0.4621 -0.0689 -0.6334
  240MOL0     C32989   9.017   6.258   6.480  1.4379  0.1401 -0.9428
  240MOL0     O32990   9.113   6.269   6.577 -0.1666 -0.1238 -0.1970
  240MOL0     C32991   9.248   6.224   6.568  0.0594 -0.3728  0.8470
  240MOL0     C32992   9.316   6.283   6.442 -1.0579 -0.2704  0.7333
  240MOL0     C32993   9.445   6.208   6.406  0.9150  0.0012  0.1510
  240MOL0     C32994   9.528   6.285   6.294 -0.5168  0.0574  0.0934
  240MOL0     C32995   9.675   6.245   6.302  0.2793 -0.1268  0.6453
  240MOL0     C32996   9.743   6.349   6.223  0.5382  1.4225 -0.0581
  240MOL0     C32997   9.897   6.311   6.198 -0.3866 -0.1841 -0.2740
  240MOL0     C32998   9.993   6.394   6.301 -0.1665 -0.1135  0.1302
  240MOL0     N32999   9.976   6.536   6.289 -0.0697 -0.3116 -0.1170
  240MOL0     C33000   9.979   6.617   6.395 -0.4067 -0.0621  0.5976
  240MOL0     C33001   9.989   6.748   6.350 -0.1792 -0.3073 -0.4866
  240MOL0     C33002   9.984   6.855   6.452  0.0992 -0.1583 -0.8739
  240MOL0     C33003   9.991   7.004   6.405 -0.4542 -0.3216 -0.7177
  240MOL0     C33004   9.995   7.117   6.507  0.1111  0.4022 -0.6730
  240MOL0     C33005  10.022   7.262   6.457 -0.2997  0.0916  0.0835
  240MOL0     O33006   9.919   7.314   6.373  0.1048  1.3043  0.6693
  240MOL0     C33007   9.889   7.449   6.370  0.8166  0.0351  0.1248
  240MOL0     C33008   9.971   7.561   6.408  0.5512 -0.0013  0.4589
  240MOL0     C33009   9.926   7.694   6.412  0.0272  1.0370 -0.0008
  240MOL0     C33010  10.013   7.790   6.481  0.2540 -0.2621  0.0331
  240MOL0     C33011   9.794   7.726   6.372 -0.0268  0.6660 -0.8335
  240MOL0     C33012   9.758   7.873   6.362 -0.3652 -0.7603  0.2303
  240MOL0     O33013   9.780   7.965   6.464 -0.2025 -0.2306 -0.2418
  240MOL0     C33014   9.729   8.093   6.478 -0.9704 -0.3483  1.7372
  240MOL0     C33015   9.812   8.190   6.535 -0.7901 -0.0306  0.5871
  240MOL0     C33016   9.775   8.329   6.538 -0.7650 -0.4284  0.9414
  240MOL0     C33017   9.653   8.367   6.487  0.0227 -0.2696  0.0598
  240MOL0     O33018   9.623   8.500   6.486  0.2339 -0.7236  0.5002
  240MOL0     C33019   9.497   8.547   6.535  0.3534 -0.6799 -0.9274
  240MOL0     C33020   9.509   8.699   6.551 -0.8786 -0.0187  0.2907
  240MOL0     C33021   9.540   8.780   6.426 -0.1647 -1.2674 -0.2049
  240MOL0     C33022   9.535   8.923   6.455 -0.3935 -0.8089 -0.6518
  240MOL0     C33023   9.566   9.003   6.328  0.4034  0.3666 -0.3329
  240MOL0     C33024   9.591   9.149   6.352 -0.3010 -0.2815 -0.1584
  240MOL0     C33025   9.608   9.227   6.219 -1.0892 -0.6049  0.1543
  240MOL0     C33026   9.732   9.181   6.134  0.2019 -0.5977  0.2378
  240MOL0    Cl33027   9.871   9.149   6.237 -0.1895 -0.6470 -0.1577
  240MOL0     C33028   9.563   8.269   6.434 -0.4270  1.0779  0.9272
  240MOL0     C33029   9.605   8.135   6.424 -0.6770  1.5349 -0.2852
  240MOL0     O33030   9.713   7.899   6.250  0.3971 -0.7186  0.1902
  240MOL0     C33031   9.719   7.624   6.321 -0.0851  0.1573 -0.2284
  240MOL0     C33032   9.754   7.487   6.327 -0.0654  0.8807 -0.6714
  240MOL0     N33033  10.011   6.739   6.213 -0.5532  0.2923 -0.4297
  240MOL0     N33034   9.989   6.614   6.180 -0.4920 -0.2390  0.2244
  240MOL0     C33035   8.904   6.343   6.481  0.0034 -0.0264 -0.1432
  240MOL0     C33036   8.804   6.344   6.380  0.6387  0.9242 -0.2957
  240MOL0     C33037   8.476   6.192   6.113  0.5113  0.8342  0.4472
  240MOL0     C33038   8.512   6.236   5.981  0.1693 -0.5110  0.5614
  240MOL0     C33039   8.431   6.213   5.865 -0.5907 -0.0477 -0.1422
  240MOL0     C33040   8.317   6.139   5.882  0.3115  0.3273  0.2759
  240MOL0     O33041   8.257   6.118   5.762  0.1662  0.1323  0.4161
  240MOL0     C33042   8.112   6.104   5.757 -0.6026  0.1287  0.2421
  240MOL0     C33043   8.088   5.960   5.702  0.6397  0.6292 -0.0841
  240MOL0     C33044   8.125   5.944   5.556  0.4680  0.4495  0.0742
  240MOL0     C33045   8.096   5.798   5.508  0.6008 -0.4430 -0.8562
  240MOL0     C33046   8.101   5.800   5.363  0.5427  0.1372  0.1141
  240MOL0     C33047   8.111   5.817   5.243  0.7370 -0.1935 -0.3657
  240MOL0     C33048   8.265   6.104   6.006 -0.7788  0.9868 -0.4874
  240MOL0     C33049   8.340   6.129   6.123 -0.0417 -0.0798  0.5329
  240MOL0     C33050   8.292   6.064   6.246  0.2788 -0.6354  0.9132
  240MOL0     H33051   8.882   6.067   6.222  1.1973  1.7026  0.2577
  240MOL0     H33052   9.062   6.059   6.376 -2.7164 -1.6893  1.1415
  240MOL0     H33053   9.258   6.115   6.560 -1.1846 -0.4488  0.0082
  240MOL0     H33054   9.312   6.254   6.651 -1.8580  1.1967  1.8447
  240MOL0     H33055   9.245   6.278   6.359 -0.4222 -0.5845  0.1941
  240MOL0     H33056   9.330   6.391   6.452 -4.3965  0.5157 -1.5275
  240MOL0     H33057   9.517   6.208   6.488  0.2357 -0.9735  0.7773
  240MOL0     H33058   9.424   6.102   6.388 -0.0994  0.0731  0.8243
  240MOL0     H33059   9.497   6.264   6.191 -2.3652  1.2061  0.3724
  240MOL0     H33060   9.510   6.390   6.318  1.7492  0.4009  0.4760
  240MOL0     H33061   9.694   6.146   6.260  0.2208  0.4081 -0.6860
  240MOL0     H33062   9.718   6.246   6.402 -0.2682 -1.6985  0.9245
  240MOL0     H33063   9.701   6.336   6.122 -1.7646  0.5609  0.9537
  240MOL0     H33064   9.717   6.451   6.253  4.3334  2.3196  0.7157
  240MOL0     H33065   9.922   6.338   6.095 -2.8054 -1.3486 -1.2367
  240MOL0     H33066   9.921   6.204   6.198  2.2550  0.3087  1.2816
  240MOL0     H33067   9.964   6.370   6.404  0.6332  0.1394  0.4198
  240MOL0     H33068  10.094   6.359   6.279 -0.2420  0.1651 -0.6982
  240MOL0     H33069   9.962   6.585   6.497 -2.7333  2.5098  1.1504
  240MOL0     H33070  10.065   6.836   6.524  1.8503  3.0463 -1.8079
  240MOL0     H33071   9.881   6.842   6.487  0.3195  0.3784  0.0018
  240MOL0     H33072  10.086   7.012   6.352  0.0574  1.6586  0.4032
  240MOL0     H33073   9.917   7.044   6.335  2.5878  2.2433 -2.7845
  240MOL0     H33074   9.899   7.115   6.558 -1.2011  4.1142 -2.6082
  240MOL0     H33075  10.070   7.098   6.585  1.4040 -0.6568 -2.1116
  240MOL0     H33076  10.039   7.323   6.546 -0.4223 -0.2377  0.3380
  240MOL0     H33077  10.110   7.258   6.393 -0.8524 -0.8101 -0.6382
  240MOL0     H33078  10.076   7.537   6.421  0.5644 -0.3323 -0.2307
  240MOL0     H33079   9.959   7.848   6.557  1.4809  2.2069 -0.8586
  240MOL0     H33080  10.060   7.850   6.404 -0.5894 -1.4744 -1.4850
  240MOL0     H33081  10.092   7.739   6.538  3.6520  3.5324 -0.7980
  240MOL0     H33082   9.911   8.168   6.574 -1.3681 -2.6771  0.7329
  240MOL0     H33083   9.832   8.406   6.588 -1.4264 -2.4503  5.3589
  240MOL0     H33084   9.410   8.507   6.481 -0.5078 -0.3044  0.1418
  240MOL0     H33085   9.494   8.515   6.639  0.7217  0.2991 -0.6090
  240MOL0     H33086   9.423   8.749   6.596 -0.4797  1.3558 -0.4336
  240MOL0     H33087   9.592   8.725   6.618 -1.5726  0.8318  0.8521
  240MOL0     H33088   9.467   8.758   6.347  0.3214  2.0584 -1.7522
  240MOL0     H33089   9.640   8.757   6.387  0.0175 -0.4787 -0.2221
  240MOL0     H33090   9.600   8.967   6.532 -0.2354  1.0763 -1.7967
  240MOL0     H33091   9.433   8.949   6.484 -0.3051 -0.4031 -0.7074
  240MOL0     H33092   9.656   8.973   6.275 -0.4709 -2.1259 -0.5418
  240MOL0     H33093   9.492   8.997   6.247  0.1876  0.7862 -0.1730
  240MOL0     H33094   9.675   9.163   6.420 -1.0525  0.8304  0.5673
  240MOL0     H33095   9.505   9.188   6.408  0.6770 -1.0022  1.9461
  240MOL0     H33096   9.618   9.334   6.237  0.5332 -0.4017 -1.6333
  240MOL0     H33097   9.522   9.207   6.154  1.2044 -0.3590 -3.1961
  240MOL0     H33098   9.758   9.264   6.069  2.0161  1.1725  3.0421
  240MOL0     H33099   9.698   9.100   6.069  0.8105 -0.5512 -0.1352
  240MOL0     H33100   9.472   8.304   6.388  0.2554  2.1908  0.3874
  240MOL0     H33101   9.539   8.057   6.388 -0.1898  0.4556  1.0592
  240MOL0     H33102   9.627   7.656   6.274 -0.4528 -1.1124 -0.3965
  240MOL0     H33103   9.679   7.415   6.296 -2.1401 -0.2724  5.6490
  240MOL0     H33104   8.904   6.420   6.557 -2.5699 -0.3290  0.2604
  240MOL0     H33105   8.727   6.421   6.378  0.8572  1.1314 -0.9870
  240MOL0     H33106   8.605   6.290   5.973  3.2353 -5.3902 -2.2719
  240MOL0     H33107   8.461   6.244   5.766  1.1743  0.0133  0.3783
  240MOL0     H33108   8.069   6.121   5.856 -3.1601 -1.6680 -0.4235
  240MOL0     H33109   8.071   6.185   5.696 -3.6334  0.2499  2.2535
  240MOL0     H33110   7.985   5.923   5.709  1.5586 -1.8833  2.0120
  240MOL0     H33111   8.145   5.884   5.755  3.9928  3.7987  1.3007
  240MOL0     H33112   8.075   6.016   5.491  0.6820  1.1853  0.7207
  240MOL0     H33113   8.231   5.966   5.547  0.6647 -0.9153 -1.3798
  240MOL0     H33114   7.994   5.764   5.529  0.1604  0.4215 -1.5682
  240MOL0     H33115   8.155   5.719   5.556 -0.0898  0.6636  2.0715
  240MOL0     H33116   8.105   5.822   5.136 -1.7358 -1.8342 -0.4024
  240MOL0     H33117   8.169   6.055   6.017 -1.0131  1.7028  0.9570
  240MOL0     H33118   8.366   6.000   6.294  0.5025 -0.5801  0.6503
  240MOL0     H33119   8.259   6.141   6.316  4.1534  0.5168  1.7221
  240MOL0     H33120   8.212   5.993   6.223  0.7671 -0.6588 -0.9123
  241MOL0     O33121   9.316   7.512   7.740 -0.0121  1.0264 -0.5073
  241MOL0     C33122   9.331   7.630   7.706 -0.0118  0.0174  0.8394
  241MOL0     O33123   9.434   7.708   7.748 -0.4231  0.4023  0.0336
  241MOL0     C33124   9.555   7.657   7.789 -0.4469 -0.7873 -0.3351
  241MOL0     C33125   9.662   7.747   7.822  0.5368 -1.0064  0.7966
  241MOL0     C33126   9.790   7.703   7.867  0.3017 -0.0820 -0.0100
  241MOL0     C33127   9.814   7.564   7.890  0.3838  0.0124 -0.8775
  241MOL0     O33128   9.927   7.540   7.952  0.4710  0.3551  0.3869
  241MOL0     C33129   9.971   7.401   7.966  0.0451  0.1001  0.0381
  241MOL0     C33130  10.103   7.393   8.036  0.0793 -0.0718 -0.7452
  241MOL0     C33131  10.078   7.377   8.189  0.8101 -0.5783 -0.2883
  241MOL0     C33132  10.206   7.378   8.285 -0.2724 -1.0186  0.2743
  241MOL0     C33133  10.154   7.351   8.427 -0.3238  0.0164 -0.1114
  241MOL0     C33134  10.253   7.359   8.547  0.6486  0.5024 -0.1220
  241MOL0     C33135  10.295   7.501   8.571  0.0935  0.4847  0.7620
  241MOL0     C33136  10.407   7.536   8.677 -0.0990  0.6760 -0.0910
  241MOL0     N33137  10.541   7.491   8.646 -0.1108  0.0526  0.4084
  241MOL0     C33138  10.642   7.563   8.581  0.6031 -0.1627  0.3012
  241MOL0     C33139  10.760   7.505   8.611  0.5174  1.0202 -0.1681
  241MOL0     C33140  10.898   7.559   8.582  0.6624 -0.2185 -0.2941
  241MOL0     C33141  10.896   7.546   8.427 -0.5812 -1.2565  0.3389
  241MOL0     C33142  11.007   7.631   8.375  0.5204  0.3119  0.4586
  241MOL0     C33143  10.990   7.712   8.242 -0.1453  0.5894 -0.7634
  241MOL0     O33144  10.917   7.834   8.253 -0.5397  0.9331 -0.1473
  241MOL0     C33145  10.947   7.954   8.189  0.0225 -0.3128  0.3713
  241MOL0     C33146  11.029   7.963   8.072 -0.6039 -0.5589  0.1950
  241MOL0     C33147  11.047   8.088   8.001 -0.1490  0.3977 -0.2351
  241MOL0     C33148  11.134   8.084   7.879 -1.0025  0.5353  0.7378
  241MOL0     C33149  10.986   8.208   8.053 -0.1075  0.3095 -0.5497
  241MOL0     C33150  10.974   8.332   7.971  0.9279 -0.2643 -0.1870
  241MOL0     O33151  10.854   8.397   7.965 -0.2999  0.1099 -0.6483
  241MOL0     C33152  10.857   8.534   7.952 -0.2764 -0.0502  0.1711
  241MOL0     C33153  10.891   8.593   7.821  0.3585  1.1639  0.4764
  241MOL0     C33154  10.883   8.732   7.798  0.7169 -1.2374 -0.0065
  241MOL0     C33155  10.832   8.815   7.897  0.5867  0.7397 -0.4850
  241MOL0     O33156  10.823   8.950   7.862 -0.5377 -0.3162 -0.0582
  241MOL0     C33157  10.811   9.058   7.956  0.4995 -0.1169 -0.0652
  241MOL0     C33158  10.851   9.194   7.898 -0.1869  0.2069 -0.1297
  241MOL0     C33159  10.997   9.233   7.925 -1.5864 -1.0564  0.5397
  241MOL0     C33160  11.101   9.119   7.919 -0.5059 -0.0107 -0.5066
  241MOL0     C33161  11.247   9.158   7.965  0.2179  0.5142  0.5418
  241MOL0     C33162  11.355   9.089   7.880  0.4974  0.2672 -0.2868
  241MOL0     C33163  11.501   9.130   7.912 -0.5890  0.2624 -0.4447
  241MOL0     C33164  11.605   9.034   7.848  0.4357  0.2822  0.2371
  241MOL0    Cl33165  11.627   9.076   7.666  0.5081 -0.1294  0.2503
  241MOL0     C33166  10.797   8.763   8.027  0.8190  0.6193  0.4968
  241MOL0     C33167  10.809   8.619   8.052 -1.0637 -0.4198  0.4362
  241MOL0     O33168  11.079   8.369   7.922  0.2353 -0.8593  0.9640
  241MOL0     C33169  10.917   8.200   8.172  0.5236 -0.2513  0.0833
  241MOL0     C33170  10.894   8.077   8.233  1.0826 -0.2052  0.8445
  241MOL0     N33171  10.733   7.398   8.695  0.4919 -0.4943 -0.1166
  241MOL0     N33172  10.607   7.397   8.719  0.0014  0.8743  1.2912
  241MOL0     C33173   9.720   7.480   7.839 -0.9366 -0.1801  0.3158
  241MOL0     C33174   9.596   7.529   7.794 -0.8081  0.1100 -0.0163
  241MOL0     C33175   9.228   7.677   7.602 -1.2056  0.0616 -0.8124
  241MOL0     C33176   9.098   7.659   7.630 -0.2308  0.3511 -0.0758
  241MOL0     C33177   8.995   7.712   7.559 -0.7428 -0.5185  0.4575
  241MOL0     C33178   9.023   7.783   7.445  0.3050 -0.6119 -0.8598
  241MOL0     O33179   8.917   7.860   7.401 -0.4949 -0.1348  0.5547
  241MOL0     C33180   8.815   7.797   7.323  0.0518 -0.2987 -0.0901
  241MOL0     C33181   8.833   7.839   7.178 -0.6432  0.4443  0.1310
  241MOL0     C33182   8.914   7.748   7.094 -0.1053  0.0072 -0.3463
  241MOL0     C33183   8.830   7.628   7.051 -0.3079  0.2129 -0.2329
  241MOL0     C33184   8.930   7.534   6.991 -0.6648  0.4688  1.2518
  241MOL0     C33185   8.990   7.456   6.920  0.9094  0.6473 -0.1303
  241MOL0     C33186   9.153   7.803   7.401  0.5134  0.5005 -0.4281
  241MOL0     C33187   9.263   7.755   7.486 -0.1947 -0.0421 -0.7986
  241MOL0     C33188   9.400   7.784   7.455 -0.3196 -0.0596  0.4615
  241MOL0     H33189   9.630   7.850   7.813  1.0841 -0.6361  2.6828
  241MOL0     H33190   9.866   7.780   7.876  0.2295  0.0784 -0.7148
  241MOL0     H33191   9.967   7.367   7.862 -2.5953 -0.5180  0.2542
  241MOL0     H33192   9.896   7.344   8.022  0.0752 -0.7341 -0.7335
  241MOL0     H33193  10.146   7.301   7.994 -0.0599 -0.9655  0.9682
  241MOL0     H33194  10.172   7.477   8.024  0.1966 -0.3880 -2.5433
  241MOL0     H33195  10.016   7.462   8.218  0.1442  0.3862 -4.0154
  241MOL0     H33196  10.034   7.281   8.218  0.9520 -0.3412  0.7522
  241MOL0     H33197  10.281   7.307   8.251  0.0955 -0.3314 -0.3700
  241MOL0     H33198  10.249   7.479   8.278 -0.2095 -1.1226 -1.0104
  241MOL0     H33199  10.107   7.252   8.420  0.1338 -0.1155 -1.7280
  241MOL0     H33200  10.082   7.432   8.444 -0.1241  0.3956 -1.0198
  241MOL0     H33201  10.194   7.313   8.627  0.2095 -0.5354 -1.0152
  241MOL0     H33202  10.350   7.311   8.541  1.4094  2.1455 -3.4634
  241MOL0     H33203  10.205   7.552   8.606 -0.2138  2.2320 -2.2432
  241MOL0     H33204  10.327   7.536   8.472 -0.6909 -1.9777 -0.4567
  241MOL0     H33205  10.424   7.642   8.694  4.0688  0.2702 -0.7085
  241MOL0     H33206  10.377   7.494   8.774 -0.3109 -1.5283 -1.0511
  241MOL0     H33207  10.629   7.664   8.544  1.1298 -0.1096  0.2643
  241MOL0     H33208  10.969   7.497   8.637  0.0457 -1.0014 -0.3541
  241MOL0     H33209  10.904   7.665   8.611 -2.1269 -0.4246  1.4136
  241MOL0     H33210  10.899   7.445   8.385 -1.0190  0.1384 -3.4259
  241MOL0     H33211  10.799   7.578   8.389 -0.2886  0.2848  0.8025
  241MOL0     H33212  11.026   7.697   8.460 -1.1895  1.7607 -0.2032
  241MOL0     H33213  11.097   7.570   8.365 -0.4673 -0.9677 -1.2994
  241MOL0     H33214  11.095   7.733   8.220  0.4237 -1.4405 -0.2378
  241MOL0     H33215  10.954   7.651   8.158 -3.2063  1.0666  0.0984
  241MOL0     H33216  11.053   7.866   8.031 -4.2263 -1.7913  0.5677
  241MOL0     H33217  11.082   8.130   7.795 -0.7570 -1.4767 -0.5951
  241MOL0     H33218  11.154   7.984   7.838 -1.9265 -0.2906  2.2220
  241MOL0     H33219  11.223   8.145   7.895 -1.0475  0.4910  1.1636
  241MOL0     H33220  10.919   8.516   7.751  0.4184  1.4196  0.2158
  241MOL0     H33221  10.895   8.779   7.701  0.5653 -3.6474 -1.2667
  241MOL0     H33222  10.706   9.064   7.986  1.1187 -0.1031  2.3525
  241MOL0     H33223  10.876   9.040   8.042 -2.4328 -1.4125  2.0774
  241MOL0     H33224  10.829   9.207   7.791 -2.7920 -2.7124 -0.1003
  241MOL0     H33225  10.790   9.272   7.945  1.0028  0.5816  0.8372
  241MOL0     H33226  10.997   9.274   8.027 -0.3959 -3.6165  1.6403
  241MOL0     H33227  11.035   9.313   7.861  1.0421 -0.8814  2.1991
  241MOL0     H33228  11.109   9.093   7.813 -1.2603 -0.2579 -0.5094
  241MOL0     H33229  11.075   9.025   7.970  0.3614  1.2875  2.5434
  241MOL0     H33230  11.270   9.265   7.957 -0.2281  0.5417 -0.5293
  241MOL0     H33231  11.263   9.136   8.071  0.2674  3.3241  1.1918
  241MOL0     H33232  11.327   9.100   7.775  2.3820 -1.3000 -1.0218
  241MOL0     H33233  11.360   8.983   7.910 -0.8495  1.1258  3.5767
  241MOL0     H33234  11.515   9.131   8.021  3.1383 -0.3986 -0.7922
  241MOL0     H33235  11.519   9.230   7.871  0.8909  0.0641 -0.3078
  241MOL0     H33236  11.584   8.928   7.862 -0.0085  0.3738  0.2654
  241MOL0     H33237  11.701   9.041   7.901 -1.4870  1.8796  3.8770
  241MOL0     H33238  10.776   8.827   8.113  1.0649 -0.1439  1.1387
  241MOL0     H33239  10.782   8.578   8.149 -5.7264  0.4720 -0.2615
  241MOL0     H33240  10.861   8.288   8.203  4.2950  3.0126 -1.4082
  241MOL0     H33241  10.834   8.074   8.324 -1.8097  2.1200 -0.8477
  241MOL0     H33242   9.737   7.373   7.831  1.3635  0.2517 -2.2962
  241MOL0     H33243   9.533   7.447   7.763 -0.7601 -1.0636  2.6927
  241MOL0     H33244   9.072   7.612   7.724  1.6489  1.0274  0.8103
  241MOL0     H33245   8.897   7.704   7.604  1.1598 -7.1876  4.8043
  241MOL0     H33246   8.820   7.688   7.331  1.3401 -0.1751  1.3899
  241MOL0     H33247   8.719   7.828   7.365 -1.1732 -3.2679 -0.4712
  241MOL0     H33248   8.873   7.941   7.172  0.0843  0.0987 -1.2998
  241MOL0     H33249   8.735   7.837   7.129 -0.8313 -4.3227  0.2436
  241MOL0     H33250   8.945   7.817   7.015 -0.0367 -0.2826 -0.5754
  241MOL0     H33251   9.001   7.716   7.153  0.7851  1.5974 -0.7411
  241MOL0     H33252   8.761   7.663   6.973  1.2800 -0.6326 -2.1103
  241MOL0     H33253   8.772   7.588   7.135 -1.0707  2.3160  0.3050
  241MOL0     H33254   9.029   7.382   6.854  0.2789 -0.0058  0.2218
  241MOL0     H33255   9.175   7.867   7.316  4.6850  0.7924  0.6328
  241MOL0     H33256   9.447   7.700   7.403  0.9980  1.4842 -0.9578
  241MOL0     H33257   9.404   7.862   7.379  0.0557 -1.4923 -1.0573
  241MOL0     H33258   9.462   7.817   7.539  5.1569 -3.3263 -1.7418
  242MOL0     O33259  10.006   0.817   8.327  0.2586  0.0322  0.1096
  242MOL0     C33260  10.117   0.809   8.278 -0.6224  0.8623 -0.9910
  242MOL0     O33261  10.239   0.783   8.352 -0.1117  0.0051  0.1009
  242MOL0     C33262  10.232   0.760   8.488  1.1249 -1.5124 -0.1517
  242MOL0     C33263  10.180   0.852   8.578 -0.4325 -0.0686 -0.4753
  242MOL0     C33264  10.165   0.828   8.713  0.8151 -0.4973  0.0447
  242MOL0     C33265  10.214   0.712   8.768  0.3008  0.1045 -0.0872
  242MOL0     O33266  10.197   0.685   8.908  0.4031  0.1125 -0.2187
  242MOL0     C33267  10.257   0.566   8.955  1.1747 -1.0916  0.9695
  242MOL0     C33268  10.213   0.522   9.093 -0.4359  0.4418  0.3669
  242MOL0     C33269  10.273   0.389   9.143 -0.6391  0.4675  0.5767
  242MOL0     C33270  10.427   0.387   9.145 -0.6454  0.3976  1.0424
  242MOL0     C33271  10.494   0.307   9.252  0.2128  0.6226  0.0529
  242MOL0     C33272  10.448   0.165   9.247 -0.6598  1.3541  0.6684
  242MOL0     C33273  10.511   0.066   9.353  0.0857 -0.8916 -0.1888
  242MOL0     C33274  10.495   0.087   9.499  0.4119 -0.4473 -0.4466
  242MOL0     N33275  10.368   0.034   9.555  0.2031 -0.1565 -0.5254
  242MOL0     C33276  10.271   0.126   9.603 -0.0061 -0.3993 -0.2263
  242MOL0     C33277  10.168   0.041   9.639 -0.4544 -0.7525  0.4735
  242MOL0     C33278  10.041   0.083   9.708  0.7681 -0.0489 -0.9083
  242MOL0     C33279   9.999   0.231   9.682  0.3538  0.4262  0.2059
  242MOL0     C33280   9.880   0.252   9.769  0.5098  0.7780 -0.3151
  242MOL0     C33281   9.805   0.392   9.729 -0.2318 -0.3026 -0.2686
  242MOL0     O33282   9.906   0.503   9.731 -0.8568  0.2527 -0.1416
  242MOL0     C33283   9.922   0.579   9.845  0.1020  0.8890  0.2341
  242MOL0     C33284  10.006   0.683   9.834 -0.8580 -0.4512  0.4694
  242MOL0     C33285  10.030   0.784   9.932  0.0935 -0.1119  0.2240
  242MOL0     C33286  10.135   0.892   9.901  0.4594 -0.7263  0.5785
  242MOL0     C33287   9.955   0.771  10.051  0.6920  0.1054 -0.2918
  242MOL0     C33288   9.966   0.873  10.170 -0.2870 -0.4613  0.1480
  242MOL0     O33289   9.868   0.890  10.259  0.2071 -0.1195 -0.3335
  242MOL0     C33290   9.880   0.977  10.359 -0.3760 -0.1930  0.1320
  242MOL0     C33291   9.937   1.100  10.352  0.0356  0.2736  0.1318
  242MOL0     C33292   9.939   1.184  10.460 -0.7367  0.0315  1.4173
  242MOL0     C33293   9.870   1.149  10.580 -0.2436  0.2965 -0.0027
  242MOL0     O33294   9.850   1.233  10.685 -0.4882 -0.4985  0.4541
  242MOL0     C33295   9.915   1.188  10.805  0.1334 -0.1357 -0.2184
  242MOL0     C33296  10.030   1.280  10.845  0.8772  0.2432 -0.3576
  242MOL0     C33297   9.991   1.424  10.872  0.9292 -0.5826  0.2582
  242MOL0     C33298  10.083   1.489  10.961  0.5127 -0.4193  0.0482
  242MOL0     C33299  10.098   1.441  11.108 -0.8365 -0.6377 -0.0703
  242MOL0     C33300  10.151   1.549  11.198  0.0921 -0.3158 -0.7451
  242MOL0     C33301  10.295   1.535  11.214 -0.4651 -0.0975 -0.0724
  242MOL0     C33302  10.336   1.429  11.314 -0.9535  0.8343  0.1376
  242MOL0    Cl33303  10.511   1.443  11.354  0.1335  0.1164 -0.1173
  242MOL0     C33304   9.803   1.037  10.580 -0.6116  0.3808  0.9697
  242MOL0     C33305   9.806   0.947  10.473  1.0660  0.8149  1.2034
  242MOL0     O33306  10.073   0.931  10.166 -0.5868 -0.2825  0.4412
  242MOL0     C33307   9.866   0.656  10.070  0.0662 -0.6933  0.2246
  242MOL0     C33308   9.854   0.562   9.969 -0.3679  0.6467  0.8035
  242MOL0     N33309  10.209  -0.095   9.616 -0.0541  0.3118  0.0344
  242MOL0     N33310  10.320  -0.094   9.549  0.5515  0.6876  0.3282
  242MOL0     C33311  10.285   0.626   8.678  0.5751 -0.1389 -0.8385
  242MOL0     C33312  10.291   0.651   8.540 -0.1529  0.6061 -0.4086
  242MOL0     C33313  10.135   0.797   8.124 -0.5374 -0.4875  0.0443
  242MOL0     C33314  10.255   0.739   8.075 -0.3029 -0.2552 -0.3088
  242MOL0     C33315  10.280   0.720   7.943  0.3130  0.2145 -0.4775
  242MOL0     C33316  10.174   0.733   7.851  0.1545  0.2579  1.1312
  242MOL0     O33317  10.209   0.694   7.725 -0.3643  0.2910 -0.3066
  242MOL0     C33318  10.186   0.797   7.634 -0.5482 -0.0309  0.8713
  242MOL0     C33319  10.125   0.719   7.514  0.7807  1.0592 -0.2421
  242MOL0     C33320   9.968   0.696   7.532 -0.7604 -0.3758  0.0265
  242MOL0     C33321   9.903   0.592   7.432  0.7162 -0.6351 -0.4454
  242MOL0     C33322   9.900   0.646   7.302 -0.2910  0.1088  0.2652
  242MOL0     C33323   9.924   0.692   7.193 -0.1547  0.6700  0.9409
  242MOL0     C33324  10.048   0.790   7.895 -0.7831 -0.0289  0.4229
  242MOL0     C33325  10.028   0.829   8.031 -0.5142 -0.3012 -0.3126
  242MOL0     C33326   9.914   0.922   8.066  0.0936  0.5092  0.4182
  242MOL0     H33327  10.147   0.942   8.525 -2.5570 -2.1423 -2.9549
  242MOL0     H33328  10.104   0.895   8.773  2.5869 -1.0812  2.6703
  242MOL0     H33329  10.365   0.584   8.953  0.8666  1.2443 -1.9907
  242MOL0     H33330  10.231   0.483   8.890 -2.4574  0.6995 -0.1489
  242MOL0     H33331  10.223   0.597   9.171 -0.9518  0.3831  0.4931
  242MOL0     H33332  10.106   0.503   9.082  0.3547 -4.2417 -1.8759
  242MOL0     H33333  10.241   0.382   9.247  3.8636 -0.1836  2.1241
  242MOL0     H33334  10.242   0.301   9.084 -0.7501  0.2005  1.0308
  242MOL0     H33335  10.474   0.346   9.055  2.9427 -0.8931  3.2596
  242MOL0     H33336  10.465   0.489   9.163  2.6319 -0.2768 -1.1467
  242MOL0     H33337  10.475   0.345   9.353 -0.4959  1.1503 -0.2642
  242MOL0     H33338  10.603   0.309   9.249  0.3659 -1.8587 -4.0401
  242MOL0     H33339  10.339   0.159   9.256 -1.3200  2.7199 -4.0758
  242MOL0     H33340  10.462   0.131   9.144  2.2361 -0.4280  1.5285
  242MOL0     H33341  10.619   0.059   9.334 -0.4030  0.1260 -4.1373
  242MOL0     H33342  10.466  -0.028   9.320 -3.2992  1.2810 -2.3705
  242MOL0     H33343  10.581   0.044   9.553 -0.6431 -1.6833  0.3031
  242MOL0     H33344  10.488   0.195   9.518  0.1183 -0.8092  1.8385
  242MOL0     H33345  10.274   0.234   9.604 -0.4922 -0.3838  1.3493
  242MOL0     H33346  10.045   0.083   9.817 -1.4233  3.1294 -0.6894
  242MOL0     H33347   9.962   0.013   9.679  2.0778 -2.1463  0.2895
  242MOL0     H33348  10.084   0.289   9.720  1.7632 -1.5454  0.1998
  242MOL0     H33349   9.991   0.261   9.577  0.3238 -0.6360 -0.1048
  242MOL0     H33350   9.816   0.171   9.733 -0.0414  0.9937  0.1472
  242MOL0     H33351   9.896   0.248   9.878  2.0654  4.1000 -0.3009
  242MOL0     H33352   9.768   0.385   9.626  0.8902  3.2420 -1.0599
  242MOL0     H33353   9.724   0.404   9.802  0.4492 -2.5520  0.9573
  242MOL0     H33354  10.064   0.695   9.743 -0.4331  0.6924  0.8752
  242MOL0     H33355  10.181   0.899   9.802  2.3987  0.0479  1.4830
  242MOL0     H33356  10.219   0.886   9.971  0.1615  2.0882  1.3250
  242MOL0     H33357  10.091   0.992   9.909  2.5307  0.2410  0.4137
  242MOL0     H33358   9.966   1.134  10.253 -0.7134 -2.7997 -1.2419
  242MOL0     H33359   9.997   1.272  10.434  0.6440 -1.4322 -0.8816
  242MOL0     H33360   9.844   1.182  10.887  0.3927  4.2309  0.5804
  242MOL0     H33361   9.958   1.092  10.776 -0.5807 -0.4414 -0.2719
  242MOL0     H33362  10.077   1.234  10.933  0.2142  0.6723  0.2298
  242MOL0     H33363  10.104   1.286  10.766  0.0698  0.8065 -1.0896
  242MOL0     H33364   9.889   1.414  10.911  1.0185  0.5759  0.8197
  242MOL0     H33365   9.984   1.480  10.778 -2.8311 -3.2316 -1.3662
  242MOL0     H33366  10.055   1.595  10.967  0.7961 -0.3956  1.5161
  242MOL0     H33367  10.185   1.488  10.921  0.9069  1.5337  0.8384
  242MOL0     H33368  10.001   1.411  11.147 -1.2880  0.4454 -0.3425
  242MOL0     H33369  10.159   1.349  11.113 -1.2189 -0.8994 -0.1935
  242MOL0     H33370  10.106   1.557  11.297 -3.5000  1.1324 -2.3344
  242MOL0     H33371  10.137   1.645  11.148 -3.7805 -0.6497 -0.6026
  242MOL0     H33372  10.334   1.623  11.266  0.2409 -1.6463  2.1879
  242MOL0     H33373  10.346   1.528  11.117  1.7756  0.1805  1.0262
  242MOL0     H33374  10.314   1.329  11.276  3.2947  0.0283 -0.7185
  242MOL0     H33375  10.290   1.441  11.412  1.5201  0.0359  1.4984
  242MOL0     H33376   9.737   1.031  10.667 -3.0596  3.4462 -0.5088
  242MOL0     H33377   9.762   0.848  10.484  1.3719  0.0532 -2.8990
  242MOL0     H33378   9.802   0.638  10.156 -0.2293  0.6909  0.3220
  242MOL0     H33379   9.794   0.473   9.985 -0.1322 -0.0040 -1.5018
  242MOL0     H33380  10.340   0.546   8.727 -1.8320  0.7291  3.8999
  242MOL0     H33381  10.340   0.584   8.470 -1.0089 -0.9659  0.4307
  242MOL0     H33382  10.333   0.714   8.146  0.4313 -1.1240 -1.3907
  242MOL0     H33383  10.379   0.680   7.927 -0.0305 -0.3135 -1.3627
  242MOL0     H33384  10.129   0.885   7.663  1.3001  2.5923 -2.6871
  242MOL0     H33385  10.282   0.839   7.601 -1.5619  2.4864  0.9169
  242MOL0     H33386  10.170   0.620   7.509  1.5456  1.3341  0.6853
  242MOL0     H33387  10.136   0.779   7.424  1.2634 -1.5663 -2.0287
  242MOL0     H33388   9.961   0.651   7.632  3.0125  1.4327  1.2871
  242MOL0     H33389   9.909   0.788   7.531 -0.8609 -0.4297  0.5437
  242MOL0     H33390   9.798   0.576   7.457  0.9212  0.7525  1.5523
  242MOL0     H33391   9.959   0.497   7.428  0.6362 -0.6438 -2.9505
  242MOL0     H33392   9.932   0.724   7.091 -0.5235 -2.5056 -0.1976
  242MOL0     H33393   9.972   0.802   7.819  0.4026  2.0014 -0.5238
  242MOL0     H33394   9.841   0.862   8.120  0.3144 -0.3686 -0.2389
  242MOL0     H33395   9.967   0.991   8.133 -2.4975  0.6422  2.4957
  242MOL0     H33396   9.872   0.971   7.978 -4.0768 -1.6968  0.9679
  243MOL0     O33397   6.847  11.026   4.444  0.5880  0.4109 -0.4827
  243MOL0     C33398   6.913  11.082   4.355  0.4583  0.1280 -0.4607
  243MOL0     O33399   6.868  11.125   4.234  0.1548 -1.5784 -0.0763
  243MOL0     C33400   6.734  11.094   4.210  0.3735  0.1943 -0.1620
  243MOL0     C33401   6.674  10.966   4.199  0.4757  0.3402  0.4188
  243MOL0     C33402   6.535  10.952   4.147 -0.5239  0.3165  0.1442
  243MOL0     C33403   6.455  11.072   4.124 -0.9110 -0.1212 -1.0705
  243MOL0     O33404   6.323  11.078   4.079  0.1052 -0.0575 -0.1505
  243MOL0     C33405   6.248  10.964   4.089  0.7938 -0.3470  0.7307
  243MOL0     C33406   6.103  10.989   4.048  0.6394  1.2533 -0.1708
  243MOL0     C33407   6.012  10.864   4.090 -0.2351 -0.4922  0.1024
  243MOL0     C33408   5.871  10.905   4.045  0.2852  0.7677 -0.2862
  243MOL0     C33409   5.784  10.789   4.013  0.0737  0.8331 -0.0848
  243MOL0     C33410   5.650  10.828   3.954  0.6425 -0.2227  0.3634
  243MOL0     C33411   5.558  10.705   3.936 -0.0838 -0.4184 -1.3219
  243MOL0     C33412   5.437  10.732   3.846  0.8828 -0.1841  0.8083
  243MOL0     N33413   5.363  10.849   3.908  0.5176  0.1171  0.3543
  243MOL0     C33414   5.342  10.985   3.869 -1.1964 -0.4386  0.3100
  243MOL0     C33415   5.266  11.046   3.959 -0.1034  0.1748  0.4518
  243MOL0     C33416   5.213  11.198   3.965 -0.5354 -0.6706  0.7818
  243MOL0     C33417   5.313  11.278   4.056  0.5260  0.1768 -0.9680
  243MOL0     C33418   5.414  11.350   3.959  1.4923 -0.3435 -0.6118
  243MOL0     C33419   5.537  11.421   4.034  0.0280 -1.0014  0.5697
  243MOL0     O33420   5.497  11.498   4.142  0.0885  0.9949  0.6278
  243MOL0     C33421   5.458  11.628   4.122 -0.1792 -0.2741  0.0362
  243MOL0     C33422   5.471  11.705   4.228 -0.2506 -1.1768 -0.4660
  243MOL0     C33423   5.444  11.848   4.219 -0.0003  0.4258 -0.5435
  243MOL0     C33424   5.446  11.916   4.354  0.0950  0.9984 -0.7208
  243MOL0     C33425   5.428  11.907   4.089  0.1814 -0.0877 -0.5338
  243MOL0     C33426   5.406  12.054   4.062  0.9476 -0.1352  0.2816
  243MOL0     O33427   5.409  12.107   3.937 -0.4742  0.1838  0.2069
  243MOL0     C33428   5.430  12.241   3.913  0.3151  0.4357  0.2242
  243MOL0     C33429   5.347  12.297   3.815  0.6591  0.2137 -0.1073
  243MOL0     C33430   5.382  12.420   3.761 -0.1059 -1.3525 -0.0317
  243MOL0     C33431   5.506  12.486   3.802  0.4572 -0.6554  0.2213
  243MOL0     O33432   5.537  12.611   3.751 -0.5270 -0.6830  0.0171
  243MOL0     C33433   5.648  12.685   3.806 -0.4891 -0.5994  0.4861
  243MOL0     C33434   5.767  12.631   3.735  0.0333 -0.0845  0.3565
  243MOL0     C33435   5.899  12.706   3.762  0.1858  0.4379 -0.0150
  243MOL0     C33436   6.030  12.619   3.746  0.3434 -0.0796  0.0521
  243MOL0     C33437   6.147  12.705   3.735 -0.1433 -0.4112 -1.5145
  243MOL0     C33438   6.287  12.633   3.762  0.6401  0.0574  0.7938
  243MOL0     C33439   6.311  12.605   3.905 -0.1461  0.0849 -0.1011
  243MOL0     C33440   6.456  12.565   3.935 -0.1889  0.4499  0.0126
  243MOL0    Cl33441   6.495  12.419   3.855  0.2084 -0.2470  0.3933
  243MOL0     C33442   5.589  12.422   3.901  0.4412 -0.5115 -1.2005
  243MOL0     C33443   5.550  12.304   3.958 -0.0399 -0.2646 -0.5143
  243MOL0     O33444   5.386  12.125   4.157 -0.4825  0.4434 -0.6337
  243MOL0     C33445   5.438  11.821   3.983  0.5226  0.4271 -0.0376
  243MOL0     C33446   5.431  11.683   4.000  0.6537  0.6761  0.0122
  243MOL0     N33447   5.227  10.937   4.044 -0.2834 -0.2216  0.1249
  243MOL0     N33448   5.288  10.830   4.021  0.0086  0.9380  0.0634
  243MOL0     C33449   6.516  11.197   4.157 -0.8016 -0.1749 -0.2352
  243MOL0     C33450   6.650  11.206   4.192 -0.2099  0.7951  0.1906
  243MOL0     C33451   7.054  11.108   4.377  0.5235 -0.2043  0.7306
  243MOL0     C33452   7.135  11.181   4.294 -0.4816 -0.1241 -0.1763
  243MOL0     C33453   7.267  11.225   4.325 -0.2052  0.7752 -0.7387
  243MOL0     C33454   7.324  11.191   4.454 -0.3944 -0.6105  0.1842
  243MOL0     O33455   7.445  11.234   4.502 -0.7826  0.1925  0.1700
  243MOL0     C33456   7.503  11.354   4.452  0.1325  0.5453 -0.3721
  243MOL0     C33457   7.627  11.370   4.535 -0.2120 -0.1905  0.7706
  243MOL0     C33458   7.588  11.381   4.691  0.0681  0.9852  0.6349
  243MOL0     C33459   7.679  11.476   4.768  0.3566 -0.4433 -0.2713
  243MOL0     C33460   7.604  11.538   4.882  0.4555  0.7097  0.6491
  243MOL0     C33461   7.539  11.606   4.962  0.0491 -0.1545  0.0010
  243MOL0     C33462   7.238  11.117   4.543  0.2778 -0.2369  0.9403
  243MOL0     C33463   7.119  11.067   4.502  0.2331  0.1440  0.9293
  243MOL0     C33464   7.069  10.946   4.581  0.6078  0.5018 -0.6865
  243MOL0     H33465   6.736  10.879   4.221 -1.5346 -1.0534  0.9183
  243MOL0     H33466   6.486  10.858   4.122  0.5302 -0.9045  2.3351
  243MOL0     H33467   6.250  10.923   4.191  2.8151 -0.6425  0.6055
  243MOL0     H33468   6.290  10.886   4.026 -2.9451  0.9279 -3.9296
  243MOL0     H33469   6.067  11.080   4.097  0.0176  0.8744  0.0857
  243MOL0     H33470   6.108  11.002   3.940  1.9258 -1.4482 -0.5362
  243MOL0     H33471   6.062  10.780   4.043  0.3796  0.0886 -0.3008
  243MOL0     H33472   6.006  10.844   4.197  1.1015  2.1221  0.7540
  243MOL0     H33473   5.822  10.971   4.118  0.4571 -1.3305  1.8773
  243MOL0     H33474   5.881  10.962   3.953 -1.7267 -0.7621 -1.5429
  243MOL0     H33475   5.760  10.736   4.106  0.2815 -1.7019 -1.3924
  243MOL0     H33476   5.830  10.716   3.946 -1.5765  1.3767 -1.9307
  243MOL0     H33477   5.601  10.902   4.018 -1.3345  1.5135 -2.8764
  243MOL0     H33478   5.657  10.875   3.856 -0.0205  0.4617  0.6309
  243MOL0     H33479   5.537  10.665   4.036 -1.3039  0.5348 -1.1738
  243MOL0     H33480   5.624  10.631   3.889 -0.0855 -1.2894 -0.0092
  243MOL0     H33481   5.449  10.762   3.741 -3.2855 -1.1822 -0.1346
  243MOL0     H33482   5.375  10.645   3.827  1.7292 -0.4566 -0.9367
  243MOL0     H33483   5.395  11.023   3.782  0.4387 -2.3595  0.3845
  243MOL0     H33484   5.109  11.202   3.998 -2.4590  4.3240 -4.3075
  243MOL0     H33485   5.212  11.257   3.873  0.9074  1.4407  2.0433
  243MOL0     H33486   5.262  11.360   4.106  1.0870  1.6196 -2.6525
  243MOL0     H33487   5.358  11.210   4.129  0.5461  1.7065  0.5196
  243MOL0     H33488   5.436  11.287   3.873  1.1794  0.1329 -1.0489
  243MOL0     H33489   5.357  11.430   3.910  1.1719 -0.8485 -1.0662
  243MOL0     H33490   5.591  11.332   4.068  2.8021  1.1650  2.2806
  243MOL0     H33491   5.597  11.478   3.962 -0.7711 -0.7932  0.0531
  243MOL0     H33492   5.500  11.666   4.324  3.8806 -0.2420 -1.1697
  243MOL0     H33493   5.487  11.853   4.434 -0.5985  0.8823 -0.4455
  243MOL0     H33494   5.347  11.945   4.390 -0.9835  0.5419 -3.1577
  243MOL0     H33495   5.508  12.006   4.346 -0.8847  1.4572 -5.3409
  243MOL0     H33496   5.262  12.241   3.778  0.8880 -0.8715  0.9383
  243MOL0     H33497   5.315  12.459   3.685  2.5045 -0.8837 -2.2479
  243MOL0     H33498   5.638  12.788   3.769  1.0076 -0.2406  1.0050
  243MOL0     H33499   5.668  12.692   3.913  2.7873 -0.7415 -0.0196
  243MOL0     H33500   5.784  12.530   3.773 -1.3732 -0.2987  0.4745
  243MOL0     H33501   5.743  12.621   3.629  0.2803 -0.2897  0.3187
  243MOL0     H33502   5.889  12.745   3.863  0.7174  0.5102  0.0112
  243MOL0     H33503   5.907  12.798   3.702 -1.3280  0.6021 -0.0219
  243MOL0     H33504   6.024  12.563   3.652 -1.8302 -4.3598  2.4338
  243MOL0     H33505   6.049  12.542   3.821  1.2095 -0.6919 -0.7714
  243MOL0     H33506   6.148  12.761   3.641  2.7268  3.3230  0.4246
  243MOL0     H33507   6.127  12.778   3.814 -0.5677 -1.6683 -0.4431
  243MOL0     H33508   6.365  12.701   3.727  0.4924  1.0416  2.2847
  243MOL0     H33509   6.286  12.542   3.701 -2.6745 -1.4707  2.8098
  243MOL0     H33510   6.259  12.514   3.936 -2.1537  1.0592 -0.4422
  243MOL0     H33511   6.276  12.684   3.973 -0.6002 -1.5098  1.5884
  243MOL0     H33512   6.479  12.542   4.039  2.7714  0.8020 -0.4730
  243MOL0     H33513   6.523  12.645   3.902 -0.7122  2.5480  3.5116
  243MOL0     H33514   5.684  12.459   3.937  1.4749 -2.9064 -1.2968
  243MOL0     H33515   5.599  12.258   4.043  2.6051 -0.7113 -2.1753
  243MOL0     H33516   5.418  11.857   3.882 -0.2052  0.1990  0.0212
  243MOL0     H33517   5.397  11.638   3.907 -2.5147  0.6187  1.0509
  243MOL0     H33518   6.470  11.294   4.144  2.2191  1.0559 -3.2217
  243MOL0     H33519   6.692  11.303   4.214  0.9680  0.2814  0.3166
  243MOL0     H33520   7.100  11.194   4.192  0.2560  2.9016 -0.1108
  243MOL0     H33521   7.327  11.286   4.258  0.2330  2.7644  1.3592
  243MOL0     H33522   7.520  11.355   4.344  1.3814 -0.4789 -0.2175
  243MOL0     H33523   7.433  11.431   4.485  0.7284  0.2799  1.6319
  243MOL0     H33524   7.670  11.463   4.496 -0.6901  0.1343  1.0019
  243MOL0     H33525   7.697  11.290   4.512 -0.3207 -0.1858  0.4147
  243MOL0     H33526   7.485  11.414   4.703 -0.3991 -0.4486  0.8131
  243MOL0     H33527   7.588  11.279   4.732 -2.1114 -0.7012 -3.0923
  243MOL0     H33528   7.709  11.558   4.702 -3.2631  2.7915  1.6997
  243MOL0     H33529   7.763  11.423   4.813  1.4658  2.5812  1.4939
  243MOL0     H33530   7.499  11.675   5.034 -0.7181 -0.8587  0.2664
  243MOL0     H33531   7.270  11.081   4.640 -1.2884  0.1529  1.6429
  243MOL0     H33532   6.980  10.963   4.641 -0.8505 -0.3301 -2.5073
  243MOL0     H33533   7.050  10.851   4.530 -0.1587 -0.1889  0.8240
  243MOL0     H33534   7.139  10.921   4.662 -2.0654 -0.8866  1.3534
  244MOL0     O33535   4.100   3.076   8.548 -0.3881 -0.0306  0.0726
  244MOL0     C33536   4.150   2.996   8.627 -0.6521 -0.1382 -0.4073
  244MOL0     O33537   4.139   3.005   8.769  0.4008 -1.1390 -0.6033
  244MOL0     C33538   4.034   3.081   8.809  0.2329  0.7953  0.3852
  244MOL0     C33539   3.917   3.023   8.839  0.1432  0.9028  0.1746
  244MOL0     C33540   3.821   3.088   8.911 -0.3444  0.8246  0.0604
  244MOL0     C33541   3.837   3.223   8.952 -0.7216 -0.3068 -0.6078
  244MOL0     O33542   3.761   3.284   9.043 -0.3437 -0.0826 -0.2951
  244MOL0     C33543   3.752   3.205   9.164  0.0941 -0.1700 -0.8242
  244MOL0     C33544   3.885   3.196   9.248  0.6703  0.2779 -0.2273
  244MOL0     C33545   3.940   3.054   9.252 -0.5120  0.3183 -0.4646
  244MOL0     C33546   4.062   3.048   9.338  0.9798  0.8231  0.5732
  244MOL0     C33547   4.095   2.896   9.366 -0.8195  0.0720  0.4703
  244MOL0     C33548   3.996   2.832   9.469 -0.6671 -0.7216 -0.0077
  244MOL0     C33549   4.056   2.705   9.537 -1.0588 -1.0071 -0.1259
  244MOL0     C33550   3.954   2.638   9.636 -0.1428  0.4542 -0.1546
  244MOL0     N33551   3.828   2.605   9.575 -0.1047  0.7007  0.3477
  244MOL0     C33552   3.708   2.656   9.628 -0.1679  0.2480  0.2019
  244MOL0     C33553   3.613   2.582   9.564  0.5290  0.5071 -0.7157
  244MOL0     C33554   3.466   2.567   9.592 -0.7722  0.7121  0.2668
  244MOL0     C33555   3.415   2.455   9.690  0.3170 -0.2620 -0.5787
  244MOL0     C33556   3.524   2.344   9.697 -0.1557  0.7488 -0.6001
  244MOL0     C33557   3.463   2.223   9.765 -0.0271  0.1349  0.4242
  244MOL0     O33558   3.543   2.101   9.747 -0.0009 -0.7973  0.1337
  244MOL0     C33559   3.501   1.982   9.809  0.6780 -0.1608  0.2799
  244MOL0     C33560   3.572   1.872   9.778  0.3632  0.7552 -0.0493
  244MOL0     C33561   3.540   1.749   9.833 -0.5838  0.5086  0.1820
  244MOL0     C33562   3.636   1.636   9.813  1.1638  0.1784 -0.3214
  244MOL0     C33563   3.431   1.740   9.921  0.7381  1.1874  1.0043
  244MOL0     C33564   3.376   1.605   9.963 -0.5005 -0.1237  0.2316
  244MOL0     O33565   3.335   1.591  10.088  0.1693  0.4589  0.0518
  244MOL0     C33566   3.259   1.484  10.110  0.7591 -0.7169 -0.1566
  244MOL0     C33567   3.118   1.501  10.136 -0.1698  0.7725  0.1563
  244MOL0     C33568   3.044   1.400  10.193  0.8686  0.0088  0.5789
  244MOL0     C33569   3.100   1.272  10.201 -0.7768  0.0273 -0.0477
  244MOL0     O33570   3.026   1.165  10.252 -0.2964  0.3296  0.1026
  244MOL0     C33571   3.007   1.053  10.163  0.8599 -0.6839 -0.8593
  244MOL0     C33572   2.892   1.088  10.064  0.8533 -0.0908 -0.0290
  244MOL0     C33573   2.761   1.115  10.144 -0.1795  0.1719 -0.1118
  244MOL0     C33574   2.645   1.123  10.051  0.0779 -0.0537 -0.1572
  244MOL0     C33575   2.521   1.157  10.134  0.6738  0.4582  0.3614
  244MOL0     C33576   2.485   1.045  10.240  0.7619 -0.4795 -0.3472
  244MOL0     C33577   2.348   1.057  10.302  0.4115  0.1700  0.3185
  244MOL0     C33578   2.312   0.976  10.427 -0.4542 -0.0913  0.0475
  244MOL0    Cl33579   2.299   0.798  10.384 -0.0175 -0.0935  0.3873
  244MOL0     C33580   3.239   1.249  10.172 -0.2817 -0.2476  0.3758
  244MOL0     C33581   3.315   1.353  10.135 -0.2001 -0.5513  0.3332
  244MOL0     O33582   3.370   1.517   9.872  0.5726  0.1524 -0.1038
  244MOL0     C33583   3.358   1.858   9.962 -0.0272  0.4095  0.0944
  244MOL0     C33584   3.399   1.975   9.907  0.2986  0.9654 -1.2287
  244MOL0     N33585   3.671   2.508   9.465 -0.2303 -0.5097  0.6287
  244MOL0     N33586   3.801   2.517   9.476 -0.0186  0.3145  0.4639
  244MOL0     C33587   3.942   3.296   8.895  0.1737  0.3133 -0.8642
  244MOL0     C33588   4.051   3.224   8.827  0.1275 -1.1170 -0.4558
  244MOL0     C33589   4.244   2.889   8.569 -0.4579 -0.2497 -0.4777
  244MOL0     C33590   4.372   2.909   8.609  0.0418 -0.3123 -0.1918
  244MOL0     C33591   4.469   2.819   8.576  0.0009  0.1907 -0.0673
  244MOL0     C33592   4.436   2.699   8.509  0.4664 -1.0195 -1.0745
  244MOL0     O33593   4.540   2.607   8.480  0.3136 -0.2134  0.5033
  244MOL0     C33594   4.524   2.477   8.538 -0.3624 -0.3964 -0.3424
  244MOL0     C33595   4.663   2.446   8.606  0.3929  1.9150  0.5832
  244MOL0     C33596   4.700   2.542   8.720 -0.5592 -0.2792 -0.4109
  244MOL0     C33597   4.849   2.543   8.761 -0.0988 -0.5859 -0.6511
  244MOL0     C33598   4.926   2.619   8.657  0.5930  0.1312  1.3841
  244MOL0     C33599   4.986   2.678   8.568  0.8992 -0.3034 -0.4349
  244MOL0     C33600   4.305   2.672   8.476 -0.4031 -0.5374 -0.7164
  244MOL0     C33601   4.207   2.768   8.506 -0.4005  0.4498 -0.8958
  244MOL0     C33602   4.062   2.739   8.473 -1.0301  0.2131  0.3032
  244MOL0     H33603   3.899   2.917   8.821  0.6062  0.7897  0.3625
  244MOL0     H33604   3.736   3.037   8.953  1.2100 -0.5521  1.6537
  244MOL0     H33605   3.711   3.106   9.147 -3.8014  1.3727 -1.5022
  244MOL0     H33606   3.680   3.253   9.232  1.7691 -0.7660  1.5163
  244MOL0     H33607   3.959   3.260   9.198 -1.4723  2.8881 -0.3026
  244MOL0     H33608   3.855   3.241   9.343  1.5856  1.4565 -0.4774
  244MOL0     H33609   3.867   2.980   9.286  1.4260 -0.5394  2.1869
  244MOL0     H33610   3.959   3.028   9.147 -0.4873 -0.5311 -0.2574
  244MOL0     H33611   4.148   3.091   9.285  1.2812  0.6615  0.9288
  244MOL0     H33612   4.049   3.114   9.424  2.7949 -0.0361  1.5628
  244MOL0     H33613   4.198   2.906   9.402 -0.7625 -1.2585  0.7161
  244MOL0     H33614   4.100   2.838   9.273  0.4611 -0.7249  1.0073
  244MOL0     H33615   3.973   2.905   9.547 -2.1984 -1.8585  0.6732
  244MOL0     H33616   3.908   2.797   9.415  0.7023 -0.8846 -2.2681
  244MOL0     H33617   4.143   2.741   9.593 -1.4813  3.0874 -1.8009
  244MOL0     H33618   4.081   2.627   9.464 -3.9435 -1.8880 -0.3174
  244MOL0     H33619   4.005   2.552   9.681  2.1723  1.6571 -0.3034
  244MOL0     H33620   3.938   2.717   9.711  0.9471  3.5757 -2.9364
  244MOL0     H33621   3.696   2.708   9.722 -0.6075 -1.1000  0.9297
  244MOL0     H33622   3.422   2.561   9.492  2.2671  2.8571 -1.3810
  244MOL0     H33623   3.427   2.661   9.633  0.4782  0.6560  1.6852
  244MOL0     H33624   3.408   2.497   9.791  4.0972 -2.0811  0.6362
  244MOL0     H33625   3.324   2.406   9.655  0.5521 -0.8722 -0.3427
  244MOL0     H33626   3.561   2.314   9.599  1.6055 -0.3624  0.3580
  244MOL0     H33627   3.609   2.387   9.752  0.5163 -0.1384 -0.9282
  244MOL0     H33628   3.444   2.253   9.869  0.2804 -0.3862  0.6383
  244MOL0     H33629   3.360   2.208   9.731  0.2655  1.1579 -0.9851
  244MOL0     H33630   3.664   1.881   9.721  2.8848  3.8807  3.9833
  244MOL0     H33631   3.594   1.563   9.744 -1.9585  1.8935 -0.4587
  244MOL0     H33632   3.661   1.594   9.911  0.0356  0.2437  0.0142
  244MOL0     H33633   3.726   1.672   9.763  0.4010  0.9407 -1.1922
  244MOL0     H33634   3.068   1.597  10.136  0.7775  1.2704 -0.0315
  244MOL0     H33635   2.942   1.416  10.227 -1.0400 -0.1149 -4.2841
  244MOL0     H33636   3.089   1.027  10.095  1.2870  1.7878 -1.4056
  244MOL0     H33637   2.987   0.961  10.218 -0.0166  0.0188  0.0217
  244MOL0     H33638   2.910   1.180  10.008  2.7324 -0.5451 -0.2422
  244MOL0     H33639   2.872   1.009   9.992  0.7396  1.8752 -2.2538
  244MOL0     H33640   2.771   1.201  10.210  0.3867  1.0882 -1.3574
  244MOL0     H33641   2.757   1.027  10.209  2.1337  1.1866  1.5332
  244MOL0     H33642   2.630   1.025  10.004  0.0032 -0.3579  0.4937
  244MOL0     H33643   2.669   1.193   9.970 -0.3661 -1.4452 -1.5571
  244MOL0     H33644   2.532   1.251  10.189  2.0091  0.2507  0.4712
  244MOL0     H33645   2.436   1.162  10.066  1.2434 -2.9661 -0.7943
  244MOL0     H33646   2.566   1.041  10.313 -3.0498 -0.6574  4.3926
  244MOL0     H33647   2.485   0.949  10.188 -1.6851 -0.5131 -0.3990
  244MOL0     H33648   2.277   1.037  10.221  1.0640 -1.2921  0.0628
  244MOL0     H33649   2.314   1.158  10.326 -0.8160 -0.8823  3.4707
  244MOL0     H33650   2.211   1.002  10.462 -0.3586  1.6857 -0.8808
  244MOL0     H33651   2.387   1.002  10.502  0.1990 -0.8924 -0.3110
  244MOL0     H33652   3.280   1.150  10.186  0.6783  0.5583  5.1350
  244MOL0     H33653   3.419   1.341  10.108 -0.7352 -1.7835 -1.2553
  244MOL0     H33654   3.265   1.857  10.018 -0.1687 -0.4817 -0.1432
  244MOL0     H33655   3.344   2.060   9.945  0.6467  1.0351 -0.8736
  244MOL0     H33656   3.962   3.401   8.911 -0.3410  0.8157 -3.1499
  244MOL0     H33657   4.147   3.265   8.799 -0.1684 -0.2650 -0.2339
  244MOL0     H33658   4.390   3.003   8.662 -1.4116 -0.5424  0.7710
  244MOL0     H33659   4.575   2.839   8.586  0.9546 -1.5871 -4.2778
  244MOL0     H33660   4.438   2.475   8.605 -2.1578  3.0482 -2.2541
  244MOL0     H33661   4.501   2.407   8.458  0.7510 -1.5085  0.2861
  244MOL0     H33662   4.746   2.455   8.535  1.0200  0.9763  1.1794
  244MOL0     H33663   4.674   2.345   8.645  2.1028  1.0270 -1.9369
  244MOL0     H33664   4.670   2.645   8.699  2.1432  0.5860 -0.4106
  244MOL0     H33665   4.646   2.503   8.807  1.5090  2.0135  2.1114
  244MOL0     H33666   4.888   2.442   8.778 -3.9437 -1.9271  1.4968
  244MOL0     H33667   4.869   2.592   8.857 -0.5053 -0.9401 -0.3817
  244MOL0     H33668   5.037   2.712   8.480 -0.4039 -2.0420 -1.9180
  244MOL0     H33669   4.267   2.582   8.427 -6.1548  0.1603  1.6372
  244MOL0     H33670   4.032   2.766   8.371 -3.9281 -0.2163  0.9628
  244MOL0     H33671   4.027   2.636   8.479 -0.2254 -0.0133  1.5379
  244MOL0     H33672   4.007   2.796   8.548 -0.0629  1.2993  0.2265
  245MOL0     O33673   7.337   0.959   9.010 -0.0718 -0.4184  0.3048
  245MOL0     C33674   7.283   0.944   9.120 -0.9830  0.5103 -0.1668
  245MOL0     O33675   7.199   0.837   9.143  0.5984  0.4345 -0.1612
  245MOL0     C33676   7.132   0.761   9.037  0.1188 -0.7306 -0.7239
  245MOL0     C33677   7.176   0.643   8.963 -0.2950 -0.4858  0.2184
  245MOL0     C33678   7.096   0.590   8.864 -0.2175 -0.5690  0.5448
  245MOL0     C33679   6.972   0.641   8.829 -0.8929 -1.3339  0.8974
  245MOL0     O33680   6.883   0.584   8.745 -0.0616 -0.1139 -0.8536
  245MOL0     C33681   6.899   0.452   8.687  0.1047  0.2271  0.1454
  245MOL0     C33682   6.858   0.350   8.791 -0.0627 -0.1082  0.5472
  245MOL0     C33683   6.892   0.204   8.754 -1.1650  0.8361 -0.1531
  245MOL0     C33684   6.771   0.127   8.704 -0.3395  0.1185 -0.7650
  245MOL0     C33685   6.719   0.043   8.811  0.7303  0.7430 -0.2454
  245MOL0     C33686   6.597  -0.040   8.770 -0.7468  0.2182 -0.3579
  245MOL0     C33687   6.524  -0.101   8.886  0.3319 -0.4545 -0.2929
  245MOL0     C33688   6.602  -0.226   8.953  0.9241 -0.2086 -0.0087
  245MOL0     N33689   6.531  -0.282   9.077 -0.5156 -0.5184 -0.0257
  245MOL0     C33690   6.423  -0.230   9.147  0.1064  1.0398  0.4858
  245MOL0     C33691   6.420  -0.303   9.266  0.5534 -0.2567 -0.2739
  245MOL0     C33692   6.316  -0.280   9.381  0.4023 -0.6554 -0.0336
  245MOL0     C33693   6.374  -0.181   9.486 -0.3340 -1.2401  0.6297
  245MOL0     C33694   6.270  -0.091   9.550  0.1249 -0.4245  0.7448
  245MOL0     C33695   6.151  -0.145   9.622  0.4347 -0.4714 -0.1596
  245MOL0     O33696   6.194  -0.241   9.715  0.2036  0.1699 -0.8704
  245MOL0     C33697   6.192  -0.193   9.846 -0.0181 -0.2617 -0.0340
  245MOL0     C33698   6.190  -0.288   9.946 -0.7207  0.3532 -0.5449
  245MOL0     C33699   6.223  -0.257  10.074 -0.6695 -1.4037 -0.3334
  245MOL0     C33700   6.251  -0.376  10.167  1.1867  0.7066 -0.6223
  245MOL0     C33701   6.249  -0.125  10.113  0.4695 -1.1816 -0.1837
  245MOL0     C33702   6.270  -0.073  10.254  0.9137 -0.4974 -0.5922
  245MOL0     O33703   6.332   0.044  10.271 -0.0995 -0.3042  0.0330
  245MOL0     C33704   6.327   0.091  10.399  0.7477 -0.6210  0.2574
  245MOL0     C33705   6.208   0.097  10.487 -0.7205 -0.1831 -0.6331
  245MOL0     C33706   6.221   0.139  10.615 -0.1283 -0.7657 -0.9604
  245MOL0     C33707   6.333   0.217  10.650  0.2730 -0.1600  0.6440
  245MOL0     O33708   6.344   0.277  10.770  0.0888  0.0844 -0.6579
  245MOL0     C33709   6.402   0.184  10.872 -0.0580  0.6035 -0.2325
  245MOL0     C33710   6.476   0.249  10.986  1.0365 -0.2055  0.2724
  245MOL0     C33711   6.363   0.306  11.078 -0.2870 -0.0052 -0.5766
  245MOL0     C33712   6.426   0.413  11.165  0.3148 -0.3024 -0.9799
  245MOL0     C33713   6.325   0.487  11.261  1.2856  0.7163  0.3740
  245MOL0     C33714   6.259   0.388  11.350 -0.5789 -0.4157  0.2045
  245MOL0     C33715   6.162   0.444  11.453  0.4133  0.3428  0.6095
  245MOL0     C33716   6.136   0.366  11.583  0.4758 -0.8879 -0.5527
  245MOL0    Cl33717   6.047   0.473  11.712 -0.4961 -0.0704  0.4781
  245MOL0     C33718   6.440   0.223  10.566 -0.6405  1.1473  0.2972
  245MOL0     C33719   6.440   0.162  10.441 -0.3436 -0.4771  0.1144
  245MOL0     O33720   6.226  -0.149  10.346  0.0847  0.3391  0.2425
  245MOL0     C33721   6.259  -0.027  10.012 -0.7317 -0.5775  0.2145
  245MOL0     C33722   6.229  -0.068   9.881 -0.4123 -0.4976 -0.2372
  245MOL0     N33723   6.533  -0.378   9.262  0.4777 -0.2571  0.2098
  245MOL0     N33724   6.603  -0.365   9.157 -0.9625 -0.1026 -0.4872
  245MOL0     C33725   6.922   0.764   8.898 -0.9697  0.2326  0.0495
  245MOL0     C33726   7.008   0.816   8.996 -0.2817  0.5168 -0.7694
  245MOL0     C33727   7.331   1.034   9.237  1.1366  1.1248 -0.0849
  245MOL0     C33728   7.278   0.984   9.355  0.3700  0.2767 -1.4904
  245MOL0     C33729   7.278   1.069   9.473 -0.8364 -0.1546  0.6800
  245MOL0     C33730   7.333   1.196   9.463  1.0870 -0.0602 -0.0575
  245MOL0     O33731   7.315   1.296   9.555 -0.1543 -0.4675  0.5126
  245MOL0     C33732   7.217   1.281   9.655 -0.3912  0.8364  0.4081
  245MOL0     C33733   7.229   1.395   9.762  0.2648  1.6250 -0.0829
  245MOL0     C33734   7.190   1.530   9.706  0.5439  0.4097  0.6331
  245MOL0     C33735   7.163   1.627   9.817  1.0560 -0.5777 -0.0905
  245MOL0     C33736   7.023   1.608   9.850  0.5206  0.5356 -0.4239
  245MOL0     C33737   6.907   1.553   9.865 -0.3526 -0.2892  0.0032
  245MOL0     C33738   7.387   1.242   9.348  0.7151  0.4265 -0.5050
  245MOL0     C33739   7.386   1.163   9.232  0.6019 -0.5881 -0.3183
  245MOL0     C33740   7.444   1.214   9.115  1.1571 -0.3533  0.4886
  245MOL0     H33741   7.265   0.592   8.998 -1.4948 -0.3462  3.8389
  245MOL0     H33742   7.130   0.496   8.821  0.1160  0.1067 -0.7087
  245MOL0     H33743   7.001   0.435   8.650  0.0496 -1.2273  0.6152
  245MOL0     H33744   6.825   0.449   8.607 -2.7646  4.0036  2.3160
  245MOL0     H33745   6.908   0.373   8.886 -0.1485  0.3280  0.4865
  245MOL0     H33746   6.751   0.361   8.811 -0.0248 -1.4293  1.6840
  245MOL0     H33747   6.974   0.191   8.683 -1.6307  3.8015 -1.3937
  245MOL0     H33748   6.922   0.161   8.850 -3.6810  0.7041  0.6332
  245MOL0     H33749   6.690   0.199   8.683 -3.1182 -1.7228  2.6206
  245MOL0     H33750   6.791   0.072   8.612 -0.6262  1.1005 -1.4351
  245MOL0     H33751   6.685   0.117   8.885 -2.0129 -2.7953  2.3971
  245MOL0     H33752   6.792  -0.021   8.863  2.0511  0.8062 -1.9519
  245MOL0     H33753   6.531   0.021   8.708  0.3153  0.2462 -1.5010
  245MOL0     H33754   6.641  -0.110   8.698  2.7919  2.7088 -0.8812
  245MOL0     H33755   6.422  -0.126   8.857 -1.1195  1.3407  2.8046
  245MOL0     H33756   6.512  -0.026   8.965  3.0229 -1.7837  1.5644
  245MOL0     H33757   6.636  -0.309   8.890  0.6925 -0.2893 -0.0283
  245MOL0     H33758   6.700  -0.196   8.991  0.0057  1.2252  1.3703
  245MOL0     H33759   6.356  -0.151   9.116  2.2133  1.4225 -3.7132
  245MOL0     H33760   6.272  -0.368   9.429  0.8223 -0.8455  0.0048
  245MOL0     H33761   6.229  -0.233   9.334 -0.4458 -1.0086  1.1366
  245MOL0     H33762   6.428  -0.234   9.565 -0.6620 -1.4575  0.7085
  245MOL0     H33763   6.430  -0.111   9.423 -3.7718  0.2404 -1.0392
  245MOL0     H33764   6.324  -0.024   9.616  0.2263 -0.6351  0.8778
  245MOL0     H33765   6.246  -0.018   9.472  5.4631 -0.2755 -1.1351
  245MOL0     H33766   6.089  -0.064   9.661  0.6467  1.7856 -3.9531
  245MOL0     H33767   6.088  -0.197   9.549  2.6058 -1.1832 -1.6451
  245MOL0     H33768   6.168  -0.390   9.917 -2.0991  1.5411 -4.4008
  245MOL0     H33769   6.313  -0.453  10.120 -0.8435 -0.7837 -1.0099
  245MOL0     H33770   6.163  -0.413  10.221  2.8511  0.1389  1.8433
  245MOL0     H33771   6.305  -0.341  10.255  0.0760 -5.1149  2.9341
  245MOL0     H33772   6.112   0.048  10.474 -0.2211 -1.3442 -0.0540
  245MOL0     H33773   6.147   0.120  10.693  0.5596  0.3392 -0.0112
  245MOL0     H33774   6.323   0.117  10.907  0.9482 -0.6992 -0.3997
  245MOL0     H33775   6.477   0.119  10.826 -0.7117  0.4143 -1.0566
  245MOL0     H33776   6.539   0.193  11.056  1.2844  1.8144  1.7518
  245MOL0     H33777   6.535   0.319  10.926 -1.8013  1.4553 -0.7803
  245MOL0     H33778   6.314   0.221  11.125  3.6299 -2.9306 -1.2350
  245MOL0     H33779   6.288   0.357  11.016 -0.0511 -2.0759 -2.7252
  245MOL0     H33780   6.479   0.482  11.099  0.9902  3.4280  2.9919
  245MOL0     H33781   6.504   0.367  11.226  0.9464  1.9894  0.0954
  245MOL0     H33782   6.374   0.568  11.316  1.7947  0.9339 -0.3689
  245MOL0     H33783   6.254   0.535  11.193  3.0660  1.8009 -0.8168
  245MOL0     H33784   6.342   0.340  11.402  2.2348  2.8691 -0.8384
  245MOL0     H33785   6.203   0.319  11.286  1.2400  0.5441 -2.6614
  245MOL0     H33786   6.063   0.454  11.409 -1.7568 -6.6832  2.4371
  245MOL0     H33787   6.184   0.547  11.480 -0.3988  1.3139 -2.1168
  245MOL0     H33788   6.228   0.327  11.627  0.9159  0.8349  0.1537
  245MOL0     H33789   6.082   0.276  11.551 -1.8171  0.5390 -0.9363
  245MOL0     H33790   6.520   0.293  10.589 -1.1645  1.8154  0.1090
  245MOL0     H33791   6.520   0.184  10.372 -0.3534  0.5974  0.4270
  245MOL0     H33792   6.289   0.073  10.042  1.2028 -1.0800  0.1163
  245MOL0     H33793   6.238   0.004   9.800 -0.2658  0.1368  0.3376
  245MOL0     H33794   6.826   0.809   8.874 -2.5497 -1.7414  2.2058
  245MOL0     H33795   6.981   0.905   9.051 -0.4990  0.6708 -1.1169
  245MOL0     H33796   7.218   0.895   9.368  0.0141  0.2316 -3.2208
  245MOL0     H33797   7.226   1.026   9.558 -2.3902 -0.6241 -0.4611
  245MOL0     H33798   7.114   1.275   9.617  0.3968  0.2668 -1.7926
  245MOL0     H33799   7.258   1.189   9.699 -0.4985  0.2903 -0.6056
  245MOL0     H33800   7.328   1.402   9.810 -0.6872  3.3145  1.7887
  245MOL0     H33801   7.167   1.366   9.848  2.0182 -0.4607  0.5972
  245MOL0     H33802   7.276   1.569   9.651 -0.4337 -1.5162 -2.5383
  245MOL0     H33803   7.110   1.517   9.633  2.4262  1.5462 -1.7487
  245MOL0     H33804   7.177   1.731   9.787 -2.2626  1.1072  3.2350
  245MOL0     H33805   7.218   1.606   9.909 -0.3235 -0.6059  0.7625
  245MOL0     H33806   6.812   1.504   9.865 -1.4810  1.7772 -0.7934
  245MOL0     H33807   7.402   1.349   9.339  4.3938  0.2642  1.5899
  245MOL0     H33808   7.522   1.287   9.137  3.2275 -1.6164 -2.0427
  245MOL0     H33809   7.483   1.132   9.053 -2.4348 -1.2987 -0.7982
  245MOL0     H33810   7.363   1.259   9.056 -0.4162 -0.2320  2.6281
  246MOL0     O33811  11.328   0.943  11.302  0.2245  0.6977 -0.1589
  246MOL0     C33812  11.295   0.962  11.183 -0.5234 -0.7584  0.1058
  246MOL0     O33813  11.290   1.086  11.118 -0.2753 -0.2069  0.7604
  246MOL0     C33814  11.314   1.213  11.180  0.9273  0.0111  0.6626
  246MOL0     C33815  11.308   1.231  11.318  0.9663 -0.7590 -0.5773
  246MOL0     C33816  11.313   1.360  11.382 -0.1065 -0.7600  0.7335
  246MOL0     C33817  11.341   1.471  11.306  0.5710  0.2737  0.1319
  246MOL0     O33818  11.349   1.582  11.385  0.0590 -0.3842 -0.3911
  246MOL0     C33819  11.425   1.699  11.357 -0.9617 -0.1769  0.6259
  246MOL0     C33820  11.566   1.673  11.296 -0.2913 -0.0143  0.1091
  246MOL0     C33821  11.636   1.811  11.262  0.2568 -0.5842 -0.5282
  246MOL0     C33822  11.587   1.900  11.138  0.3423 -0.6140  0.4628
  246MOL0     C33823  11.700   2.007  11.122  0.0524  0.7703 -1.1042
  246MOL0     C33824  11.673   2.081  10.990 -0.0126 -0.1754  0.7096
  246MOL0     C33825  11.782   2.186  10.996  0.4784 -0.6610  0.1579
  246MOL0     C33826  11.798   2.279  10.872  0.4730 -0.3622 -0.4922
  246MOL0     N33827  11.859   2.211  10.762 -0.4568 -0.2921 -0.3259
  246MOL0     C33828  11.997   2.208  10.740 -0.1967 -0.6567 -0.1304
  246MOL0     C33829  12.022   2.168  10.615 -0.2118 -0.0404 -0.5163
  246MOL0     C33830  12.165   2.147  10.567  0.5195 -0.5750 -0.0007
  246MOL0     C33831  12.230   2.288  10.569  1.1788  0.0670  0.0866
  246MOL0     C33832  12.368   2.277  10.532  0.0151 -1.1839 -0.3406
  246MOL0     C33833  12.462   2.383  10.574 -0.5224 -0.7437 -0.4214
  246MOL0     O33834  12.463   2.407  10.721  0.2964  0.1608  1.0917
  246MOL0     C33835  12.569   2.358  10.796 -0.0330 -0.4355  0.6631
  246MOL0     C33836  12.599   2.389  10.932  0.2266 -0.0163  0.3494
  246MOL0     C33837  12.690   2.322  11.012  0.4350  0.4115 -0.0822
  246MOL0     C33838  12.658   2.332  11.168  0.8997  0.6777 -0.1297
  246MOL0     C33839  12.779   2.229  10.958  0.3592 -0.1237  0.1688
  246MOL0     C33840  12.866   2.129  11.037 -0.6546  1.2552 -0.1449
  246MOL0     O33841  12.848   2.111  11.172  0.1100  0.1289 -0.2259
  246MOL0     C33842  12.901   2.000  11.223 -0.2352  1.1731 -0.6311
  246MOL0     C33843  12.836   1.878  11.197  0.4449  0.4437 -0.0654
  246MOL0     C33844  12.882   1.755  11.247 -0.2787 -0.6969 -0.9566
  246MOL0     C33845  12.996   1.749  11.335  0.5901  0.3443  0.0051
  246MOL0     O33846  13.035   1.628  11.401 -0.1915 -0.5400  0.0900
  246MOL0     C33847  12.992   1.499  11.358  0.4832  0.2255  0.5408
  246MOL0     C33848  13.059   1.449  11.231 -0.3559  0.2587  0.2266
  246MOL0     C33849  13.207   1.449  11.234  0.4281 -0.8573 -0.4562
  246MOL0     C33850  13.262   1.390  11.100  0.2601 -0.1392 -1.4403
  246MOL0     C33851  13.218   1.453  10.973 -0.1654 -0.9329  0.6773
  246MOL0     C33852  13.258   1.595  10.961 -0.3761  0.0002  0.3604
  246MOL0     C33853  13.154   1.671  10.885  0.1590  1.0609  0.1813
  246MOL0     C33854  13.187   1.815  10.840 -0.3891  0.3552 -0.2384
  246MOL0    Cl33855  13.293   1.797  10.704 -0.0300 -0.0181  0.2308
  246MOL0     C33856  13.064   1.869  11.351 -0.2739  0.0413  0.3786
  246MOL0     C33857  13.022   1.992  11.289  0.2445 -0.7104  0.5486
  246MOL0     O33858  12.953   2.058  10.969 -0.1326 -0.3656 -0.5851
  246MOL0     C33859  12.767   2.216  10.822 -0.3909  0.5926  1.2087
  246MOL0     C33860  12.662   2.264  10.752 -0.0449  0.0175 -0.6571
  246MOL0     N33861  11.900   2.143  10.564 -0.0579 -1.0571  0.7316
  246MOL0     N33862  11.800   2.177  10.641 -0.1560 -0.0586 -0.6854
  246MOL0     C33863  11.360   1.450  11.170  0.1399 -0.1698  0.5291
  246MOL0     C33864  11.347   1.327  11.101 -0.8914  0.1365  0.5817
  246MOL0     C33865  11.268   0.839  11.120 -0.0716  1.0740  0.1423
  246MOL0     C33866  11.153   0.828  11.036  0.5484 -0.2643  0.3966
  246MOL0     C33867  11.132   0.715  10.950 -0.3813 -0.3380 -0.7979
  246MOL0     C33868  11.209   0.600  10.963 -0.3491  0.5466 -0.1593
  246MOL0     O33869  11.192   0.485  10.881  0.5331  0.0743 -1.2329
  246MOL0     C33870  11.148   0.512  10.756  0.3748  0.2455 -0.5836
  246MOL0     C33871  11.150   0.382  10.674 -0.3293  0.0691 -0.7149
  246MOL0     C33872  11.296   0.326  10.647  0.5737 -0.4113 -0.0367
  246MOL0     C33873  11.349   0.392  10.518 -1.3371 -0.4764  0.1985
  246MOL0     C33874  11.477   0.341  10.465  0.5721  1.2340  0.1353
  246MOL0     C33875  11.562   0.269  10.425  0.1920  0.1557 -0.5479
  246MOL0     C33876  11.307   0.593  11.056  0.4044  0.1556  0.6639
  246MOL0     C33877  11.341   0.704  11.136 -0.3658  0.5206  0.5934
  246MOL0     C33878  11.444   0.676  11.234 -0.6782 -0.0469  0.3930
  246MOL0     H33879  11.286   1.156  11.393  1.3850 -0.9580 -0.6518
  246MOL0     H33880  11.294   1.365  11.489  4.2563  1.3857  1.5981
  246MOL0     H33881  11.431   1.750  11.454 -1.1143 -0.0794  0.5861
  246MOL0     H33882  11.381   1.773  11.289  2.2318  2.4503  1.1886
  246MOL0     H33883  11.628   1.620  11.369  0.2898 -2.2036 -1.8647
  246MOL0     H33884  11.560   1.618  11.202 -1.2220  0.1560  0.0675
  246MOL0     H33885  11.634   1.870  11.354  2.2334 -1.7047  0.2949
  246MOL0     H33886  11.742   1.792  11.240  1.9199  4.2715  1.7307
  246MOL0     H33887  11.592   1.839  11.048  1.8462 -0.2078  0.2498
  246MOL0     H33888  11.485   1.941  11.137  1.0939  1.4740 -2.0378
  246MOL0     H33889  11.800   1.964  11.125  1.2914  3.4171  2.2494
  246MOL0     H33890  11.688   2.079  11.204  1.6899  0.0871 -0.2312
  246MOL0     H33891  11.708   2.021  10.906  0.6572  2.0105 -0.6536
  246MOL0     H33892  11.568   2.105  10.973  0.2088 -0.9100 -2.0777
  246MOL0     H33893  11.882   2.142  11.003  1.2447  0.6833 -1.3248
  246MOL0     H33894  11.759   2.258  11.075 -0.4156  0.0171 -0.6782
  246MOL0     H33895  11.704   2.302  10.821  1.1275 -0.9199 -2.0139
  246MOL0     H33896  11.855   2.368  10.900 -3.3966  1.2587  3.5391
  246MOL0     H33897  12.069   2.218  10.821  0.5143 -0.0675 -0.8176
  246MOL0     H33898  12.163   2.114  10.463 -0.1219 -0.3229 -0.0744
  246MOL0     H33899  12.220   2.086  10.640  0.3583  1.0242  1.5214
  246MOL0     H33900  12.180   2.357  10.500 -1.5412 -1.4553  0.3893
  246MOL0     H33901  12.212   2.321  10.671 -0.1049  2.7745 -0.9134
  246MOL0     H33902  12.416   2.184  10.562  2.2939  0.1165  0.2951
  246MOL0     H33903  12.365   2.257  10.424 -1.2755 -4.1323  0.1680
  246MOL0     H33904  12.563   2.363  10.535  0.2660 -0.8114  1.5339
  246MOL0     H33905  12.428   2.478  10.534  3.8517  0.8251 -0.9438
  246MOL0     H33906  12.537   2.464  10.981  0.9628 -0.1260  1.4853
  246MOL0     H33907  12.676   2.240  11.224 -3.3926 -0.0099  0.4439
  246MOL0     H33908  12.552   2.340  11.194  1.3991 -0.3820  2.5053
  246MOL0     H33909  12.715   2.416  11.210  2.6309 -0.1415 -0.7113
  246MOL0     H33910  12.742   1.891  11.145  0.9494  1.8727 -0.6741
  246MOL0     H33911  12.814   1.670  11.242 -0.6471 -0.9318  3.6946
  246MOL0     H33912  13.016   1.426  11.436 -0.6137  1.6298  2.2945
  246MOL0     H33913  12.886   1.483  11.340  0.3891  2.0545 -0.8124
  246MOL0     H33914  13.022   1.351  11.200  2.4946 -1.0990  0.7013
  246MOL0     H33915  13.031   1.522  11.154  0.6467 -1.3570 -1.7849
  246MOL0     H33916  13.251   1.408  11.326  1.4778  1.8311  0.3288
  246MOL0     H33917  13.243   1.552  11.245  1.2795 -0.6772 -3.7696
  246MOL0     H33918  13.229   1.287  11.109  1.6552 -0.4253  2.8346
  246MOL0     H33919  13.370   1.400  11.117  0.0884  0.4644 -0.6086
  246MOL0     H33920  13.257   1.398  10.887  2.5302 -2.1819  2.5787
  246MOL0     H33921  13.108   1.453  10.965 -0.1752  2.4226 -0.7851
  246MOL0     H33922  13.346   1.593  10.896  0.0175  0.1491  0.8847
  246MOL0     H33923  13.283   1.642  11.056 -0.1803  1.8941 -0.5998
  246MOL0     H33924  13.062   1.691  10.942  0.4420 -0.6863  1.3562
  246MOL0     H33925  13.126   1.616  10.795  0.3346  2.3878 -0.6983
  246MOL0     H33926  13.244   1.877  10.910  3.1805 -0.0628 -2.5031
  246MOL0     H33927  13.099   1.878  10.825  0.5140  2.1628  1.5848
  246MOL0     H33928  13.145   1.874  11.423 -1.6756  0.5302  1.9768
  246MOL0     H33929  13.084   2.078  11.313 -0.2808 -0.5250  1.2717
  246MOL0     H33930  12.821   2.135  10.774 -1.9943  0.6322 -0.7618
  246MOL0     H33931  12.656   2.215  10.656 -0.3612 -2.1854  0.4248
  246MOL0     H33932  11.379   1.529  11.097  0.5543  1.5653  2.4249
  246MOL0     H33933  11.347   1.327  10.993  4.9153  1.5393  0.2531
  246MOL0     H33934  11.084   0.911  11.029  1.8426  0.8028 -0.0701
  246MOL0     H33935  11.049   0.729  10.881 -2.1428  1.8031  1.6041
  246MOL0     H33936  11.043   0.541  10.755  0.5601  1.0338  0.5602
  246MOL0     H33937  11.204   0.594  10.711 -1.5718  1.4092 -0.9921
  246MOL0     H33938  11.096   0.397  10.580  1.0549  0.9620 -1.3864
  246MOL0     H33939  11.090   0.310  10.731  0.3439  0.8149  1.0138
  246MOL0     H33940  11.356   0.360  10.732 -0.9297  1.3255  0.3920
  246MOL0     H33941  11.299   0.217  10.638  1.7521 -0.2836 -1.6014
  246MOL0     H33942  11.357   0.501  10.520  0.1879 -0.5587  0.1806
  246MOL0     H33943  11.273   0.377  10.440 -0.7016  2.1549 -1.0248
  246MOL0     H33944  11.641   0.206  10.389  1.7385  2.3626 -1.2912
  246MOL0     H33945  11.371   0.507  11.068 -2.1222 -1.6200  2.2909
  246MOL0     H33946  11.524   0.750  11.224 -1.5260  0.7827 -0.5140
  246MOL0     H33947  11.395   0.667  11.331  0.3830  0.2796  0.9801
  246MOL0     H33948  11.485   0.577  11.210 -1.0610  0.2914 -1.9402
  247MOL0     O33949   7.882   2.695   3.857  0.1687  0.0049 -0.2588
  247MOL0     C33950   7.791   2.629   3.920 -0.5014 -0.6878  0.2505
  247MOL0     O33951   7.707   2.679   4.020 -0.3128  0.0306 -0.5992
  247MOL0     C33952   7.677   2.810   4.026 -0.3251  0.1613  0.3505
  247MOL0     C33953   7.670   2.893   3.910 -0.2161 -0.3416  0.3771
  247MOL0     C33954   7.654   3.033   3.927  0.3219 -1.1583 -0.5689
  247MOL0     C33955   7.647   3.084   4.056  0.0393  0.3189 -0.2349
  247MOL0     O33956   7.627   3.213   4.096 -0.4083 -0.1721  0.1458
  247MOL0     C33957   7.561   3.295   4.000  0.8861 -0.6213  0.9572
  247MOL0     C33958   7.655   3.379   3.924 -1.2000  0.2387  0.7037
  247MOL0     C33959   7.729   3.481   4.007 -0.9142  0.4850  0.6686
  247MOL0     C33960   7.823   3.579   3.930 -0.3326  0.8546  0.0008
  247MOL0     C33961   7.945   3.513   3.865 -0.0508  0.6017  0.5574
  247MOL0     C33962   7.931   3.507   3.709 -0.7633  0.6078 -0.2271
  247MOL0     C33963   8.049   3.438   3.632 -0.1129  0.1925 -0.0243
  247MOL0     C33964   8.079   3.294   3.688 -0.5155 -0.0004 -0.1665
  247MOL0     N33965   8.151   3.209   3.588  0.0172 -0.8750  0.3097
  247MOL0     C33966   8.229   3.247   3.491 -1.1649 -0.1737  0.5998
  247MOL0     C33967   8.230   3.151   3.401 -0.4654  0.5186 -0.2201
  247MOL0     C33968   8.328   3.144   3.276  0.8881 -0.0665  0.3337
  247MOL0     C33969   8.421   3.022   3.288  0.4437  0.1806 -0.0657
  247MOL0     C33970   8.533   3.024   3.185 -1.2193 -0.1784 -0.3506
  247MOL0     C33971   8.664   3.100   3.225 -0.4456  0.6793  0.2601
  247MOL0     O33972   8.716   3.061   3.347 -0.4820 -0.5672  0.4406
  247MOL0     C33973   8.762   2.930   3.355 -0.9105  0.6531  0.0445
  247MOL0     C33974   8.812   2.855   3.253  0.2421 -0.0565  0.0915
  247MOL0     C33975   8.833   2.709   3.278  0.6352  0.3907 -0.3269
  247MOL0     C33976   8.874   2.615   3.165  0.1689  0.3594 -0.3980
  247MOL0     C33977   8.813   2.657   3.410 -0.5857 -0.0919  0.2065
  247MOL0     C33978   8.816   2.514   3.451 -0.1802 -0.4618  0.1827
  247MOL0     O33979   8.796   2.405   3.356  0.1345  0.9394  0.3700
  247MOL0     C33980   8.739   2.288   3.405  1.6577  0.5931  1.2341
  247MOL0     C33981   8.621   2.238   3.355  0.0423  0.4089  0.5731
  247MOL0     C33982   8.569   2.124   3.401  0.6871 -0.8854 -0.7828
  247MOL0     C33983   8.629   2.041   3.500 -0.2089  0.2158 -0.3043
  247MOL0     O33984   8.562   1.931   3.531 -0.1911  0.2528  0.0761
  247MOL0     C33985   8.630   1.822   3.596 -0.3789  0.9334  0.7885
  247MOL0     C33986   8.517   1.714   3.607  0.7695  0.2006 -0.4208
  247MOL0     C33987   8.477   1.670   3.462  0.2222  0.2725 -0.8509
  247MOL0     C33988   8.384   1.554   3.490  0.1567 -0.4282 -0.7243
  247MOL0     C33989   8.381   1.452   3.370 -0.1530 -0.5804  0.4953
  247MOL0     C33990   8.303   1.329   3.402  0.4457  0.5221  0.0494
  247MOL0     C33991   8.323   1.246   3.280  0.1705  0.4840 -0.2465
  247MOL0     C33992   8.215   1.135   3.284  0.0892  1.3912  0.2422
  247MOL0    Cl33993   8.231   1.035   3.136  0.2054 -0.0735 -0.2005
  247MOL0     C33994   8.761   2.080   3.535  0.3253 -1.0110  1.1377
  247MOL0     C33995   8.803   2.202   3.502 -0.0621 -0.0172  0.0616
  247MOL0     O33996   8.865   2.495   3.568 -0.5910  0.1208  0.1233
  247MOL0     C33997   8.776   2.750   3.510  0.4282  0.5403  0.1874
  247MOL0     C33998   8.743   2.879   3.478 -0.3274  0.2723  0.6135
  247MOL0     N33999   8.161   3.043   3.448  0.1540  0.7042  0.9490
  247MOL0     N34000   8.123   3.077   3.568  0.4964 -0.3285 -0.1482
  247MOL0     C34001   7.645   3.004   4.167  0.4158 -0.4363 -0.2712
  247MOL0     C34002   7.664   2.872   4.153 -0.7662 -0.0365 -0.0555
  247MOL0     C34003   7.791   2.480   3.885  0.1707  0.2540 -0.0001
  247MOL0     C34004   7.864   2.433   3.768  0.0676 -0.6538 -0.6831
  247MOL0     C34005   7.859   2.299   3.727  0.4064  0.4386 -0.0972
  247MOL0     C34006   7.801   2.203   3.803 -0.6945 -0.7361  0.0823
  247MOL0     O34007   7.801   2.074   3.749  0.3630 -0.0057 -0.1840
  247MOL0     C34008   7.669   2.011   3.756 -0.4877  1.1041  0.1214
  247MOL0     C34009   7.703   1.864   3.758  0.7181  0.7698 -0.3711
  247MOL0     C34010   7.631   1.757   3.846 -0.2717  0.8241  0.8811
  247MOL0     C34011   7.634   1.781   4.001  0.3383  0.4887 -0.6629
  247MOL0     C34012   7.749   1.714   4.066 -0.6984  0.2588  1.1306
  247MOL0     C34013   7.844   1.676   4.125 -0.5522  0.2978 -0.0191
  247MOL0     C34014   7.745   2.247   3.922 -0.9860 -0.0484 -0.2126
  247MOL0     C34015   7.736   2.383   3.966  0.7656  0.8372 -0.8459
  247MOL0     C34016   7.674   2.396   4.107  0.7307  0.1845 -0.3254
  247MOL0     H34017   7.695   2.853   3.812 -6.6858 -0.4882 -1.6966
  247MOL0     H34018   7.659   3.103   3.845 -0.6858 -0.9898 -0.4973
  247MOL0     H34019   7.476   3.344   4.048 -0.8344 -5.0295  2.9995
  247MOL0     H34020   7.494   3.239   3.935  0.2194  1.3513 -0.1480
  247MOL0     H34021   7.732   3.319   3.876 -1.3182  2.4869 -2.6022
  247MOL0     H34022   7.603   3.426   3.840  0.3843  1.5459  0.4010
  247MOL0     H34023   7.655   3.550   4.049 -2.5718  0.9494 -2.7161
  247MOL0     H34024   7.789   3.431   4.084 -0.0425 -1.0144 -0.9369
  247MOL0     H34025   7.772   3.639   3.855  1.2399 -0.2464 -2.0671
  247MOL0     H34026   7.870   3.648   4.000  0.7769 -1.0786  1.2534
  247MOL0     H34027   7.947   3.410   3.904 -1.2699 -0.2481 -1.4625
  247MOL0     H34028   8.037   3.572   3.874  0.9947 -0.3278 -2.7557
  247MOL0     H34029   7.838   3.452   3.689 -0.0984 -0.5730 -0.1432
  247MOL0     H34030   7.924   3.613   3.684  2.4253  1.8439  3.1744
  247MOL0     H34031   8.141   3.495   3.649 -0.8157  2.0434 -1.9833
  247MOL0     H34032   8.026   3.411   3.528  0.3225  0.1686 -0.1171
  247MOL0     H34033   8.148   3.298   3.773  1.8103 -0.7690 -1.9408
  247MOL0     H34034   7.983   3.250   3.718 -1.5057  3.4122  2.4023
  247MOL0     H34035   8.284   3.340   3.492  0.9786 -1.3271 -1.4991
  247MOL0     H34036   8.375   3.242   3.269 -2.4671  1.6559 -0.0465
  247MOL0     H34037   8.275   3.134   3.180  0.9140  0.1746  0.2932
  247MOL0     H34038   8.460   3.025   3.391  1.3689  0.1589 -0.3994
  247MOL0     H34039   8.370   2.926   3.278 -2.4472  1.7163 -1.2261
  247MOL0     H34040   8.564   2.923   3.156  2.6840  1.5906 -3.2765
  247MOL0     H34041   8.499   3.081   3.098 -0.3797  0.6673 -0.1400
  247MOL0     H34042   8.730   3.079   3.140  1.6653 -0.7266  2.1276
  247MOL0     H34043   8.628   3.203   3.229 -1.4598  0.3363  0.1255
  247MOL0     H34044   8.838   2.903   3.160 -2.5354  1.0446 -0.1943
  247MOL0     H34045   8.783   2.558   3.147 -1.5277  1.8512  2.6383
  247MOL0     H34046   8.958   2.550   3.189  0.7170  1.3181  0.3617
  247MOL0     H34047   8.891   2.670   3.072  0.1782  0.6749 -0.2110
  247MOL0     H34048   8.564   2.281   3.273 -0.3344 -1.5452 -0.2492
  247MOL0     H34049   8.472   2.091   3.364 -1.4675  1.8008  1.9614
  247MOL0     H34050   8.709   1.775   3.538 -0.1687  1.2619  0.8038
  247MOL0     H34051   8.672   1.857   3.691  1.5497 -0.4088  0.4808
  247MOL0     H34052   8.559   1.628   3.659  0.6555 -2.9304 -4.9681
  247MOL0     H34053   8.436   1.751   3.670  0.9349  0.2810 -0.2529
  247MOL0     H34054   8.562   1.649   3.397  2.0143  0.2271  1.3669
  247MOL0     H34055   8.411   1.744   3.416 -2.7726 -1.9770 -0.5076
  247MOL0     H34056   8.284   1.594   3.511  1.3189  1.4291  1.6990
  247MOL0     H34057   8.421   1.506   3.582 -0.0308  3.5005  1.6126
  247MOL0     H34058   8.324   1.496   3.288 -0.6874  0.7266  1.5287
  247MOL0     H34059   8.478   1.435   3.322 -0.0507 -1.3814  0.9696
  247MOL0     H34060   8.199   1.359   3.415 -0.1733 -1.4218 -0.0295
  247MOL0     H34061   8.339   1.285   3.496  1.3131 -1.6507 -1.2200
  247MOL0     H34062   8.424   1.208   3.261 -0.4127 -2.3168  1.5057
  247MOL0     H34063   8.294   1.304   3.192 -2.2235 -0.0155  0.1447
  247MOL0     H34064   8.108   1.156   3.288 -0.7169 -1.6967 -1.6478
  247MOL0     H34065   8.223   1.082   3.379 -3.1787 -1.6533 -0.9603
  247MOL0     H34066   8.817   2.037   3.618 -0.0044 -0.7895  1.4820
  247MOL0     H34067   8.904   2.226   3.534  1.8713 -3.5165 -2.7199
  247MOL0     H34068   8.784   2.717   3.613 -1.6216 -2.2106 -0.3961
  247MOL0     H34069   8.709   2.959   3.545 -2.2423 -0.3436  0.4284
  247MOL0     H34070   7.638   3.049   4.265 -2.7956  0.0495 -0.5974
  247MOL0     H34071   7.692   2.811   4.238 -1.8429  1.3184  1.3300
  247MOL0     H34072   7.929   2.507   3.723  1.4053  1.1037  3.5694
  247MOL0     H34073   7.921   2.273   3.642  1.7335 -0.3238  1.0620
  247MOL0     H34074   7.626   2.042   3.852 -0.5351  1.3017  0.0368
  247MOL0     H34075   7.610   2.037   3.667  0.3078  2.3561 -0.0540
  247MOL0     H34076   7.809   1.855   3.786 -0.6596 -0.6416  5.8821
  247MOL0     H34077   7.678   1.839   3.655  0.5407 -0.3927 -0.0548
  247MOL0     H34078   7.530   1.737   3.809  0.4234 -1.8323  0.1782
  247MOL0     H34079   7.677   1.662   3.819 -0.6146  2.0249 -5.5400
  247MOL0     H34080   7.541   1.729   4.026  1.2515 -1.8301 -1.7757
  247MOL0     H34081   7.627   1.889   4.014 -2.9944  0.4283 -1.2276
  247MOL0     H34082   7.911   1.651   4.205 -1.5879 -0.9692  0.4998
  247MOL0     H34083   7.704   2.172   3.990  1.9195 -0.9591  0.6805
  247MOL0     H34084   7.684   2.298   4.154 -0.7515  1.1562  2.2084
  247MOL0     H34085   7.705   2.474   4.177 -1.1648  0.2767  0.4791
  247MOL0     H34086   7.565   2.388   4.099  0.9213 -0.6858 -5.5658
  248MOL0     O34087   6.811   7.107   0.919  0.3841  0.5028 -0.3020
  248MOL0     C34088   6.859   7.031   0.994  0.0488  0.9506 -0.6608
  248MOL0     O34089   6.950   6.934   0.957  0.0980  0.1319 -0.9001
  248MOL0     C34090   6.973   6.922   0.825 -0.6215 -0.0385 -0.5541
  248MOL0     C34091   6.916   6.824   0.742 -0.2245 -0.5068  0.0760
  248MOL0     C34092   6.934   6.816   0.609 -0.3027 -0.7208 -0.6902
  248MOL0     C34093   7.034   6.892   0.551  0.3346  0.9783 -0.7357
  248MOL0     O34094   7.048   6.865   0.413  0.0380  0.3979  0.3859
  248MOL0     C34095   7.158   6.929   0.346 -0.2488  0.0304 -0.2211
  248MOL0     C34096   7.289   6.861   0.399 -0.8929 -0.3075  0.0105
  248MOL0     C34097   7.326   6.729   0.322 -0.5494 -0.3888  0.2845
  248MOL0     C34098   7.449   6.657   0.371 -0.1570 -0.3702 -0.2986
  248MOL0     C34099   7.448   6.525   0.294 -0.2462 -0.3827  0.5442
  248MOL0     C34100   7.541   6.429   0.371 -0.3925 -0.7770 -1.1444
  248MOL0     C34101   7.685   6.477   0.341  1.1095 -0.0247  0.7724
  248MOL0     C34102   7.780   6.372   0.407  1.1151 -0.0811  0.1562
  248MOL0     N34103   7.910   6.382   0.339 -0.4088  0.5046 -1.0473
  248MOL0     C34104   7.961   6.299   0.242  0.0572 -0.2148 -0.8887
  248MOL0     C34105   8.086   6.352   0.225 -1.6681 -0.1976 -0.3261
  248MOL0     C34106   8.191   6.279   0.146  0.2690 -0.2161  0.1500
  248MOL0     C34107   8.220   6.137   0.217 -0.1447 -0.7796  0.0954
  248MOL0     C34108   8.312   6.056   0.123 -0.7963 -0.2585 -0.6519
  248MOL0     C34109   8.252   6.004  -0.015  0.8546 -0.1106 -0.3644
  248MOL0     O34110   8.140   5.911   0.013 -0.1426  0.4136  0.2074
  248MOL0     C34111   8.152   5.786  -0.039  0.8780  0.9015  0.1523
  248MOL0     C34112   8.040   5.696  -0.013 -0.2870 -0.2688  0.9742
  248MOL0     C34113   8.035   5.564  -0.045 -0.8355  0.6854  1.0672
  248MOL0     C34114   7.923   5.470  -0.004  0.6325 -0.4037 -0.0736
  248MOL0     C34115   8.156   5.508  -0.095 -1.4388  0.5073 -0.1244
  248MOL0     C34116   8.171   5.363  -0.147  0.2309  0.0157 -0.5262
  248MOL0     O34117   8.297   5.318  -0.181 -0.2804  0.0541 -0.0221
  248MOL0     C34118   8.301   5.202  -0.254  0.8530  0.2432  0.5572
  248MOL0     C34119   8.288   5.084  -0.180 -0.9777 -0.0588  0.2986
  248MOL0     C34120   8.297   4.959  -0.252  0.4760  0.6136  0.1284
  248MOL0     C34121   8.321   4.952  -0.385  0.7013  0.2838  0.0380
  248MOL0     O34122   8.325   4.840  -0.466  0.3167 -0.7695  0.9009
  248MOL0     C34123   8.320   4.715  -0.402 -0.2568  0.7219 -0.2524
  248MOL0     C34124   8.353   4.599  -0.500  0.2602 -0.6394  0.5601
  248MOL0     C34125   8.358   4.468  -0.424 -0.7510  1.0892 -0.6778
  248MOL0     C34126   8.483   4.383  -0.463  1.1126  1.1112  0.3186
  248MOL0     C34127   8.483   4.245  -0.407 -0.6169  0.5216  0.2999
  248MOL0     C34128   8.592   4.149  -0.468 -0.4831 -0.1093  0.7529
  248MOL0     C34129   8.570   4.001  -0.415  0.6289  0.7625 -0.1363
  248MOL0     C34130   8.523   3.978  -0.268 -0.6671 -0.6290  0.1297
  248MOL0    Cl34131   8.656   4.024  -0.161 -0.2783 -0.0683  0.2401
  248MOL0     C34132   8.329   5.067  -0.457 -0.4498 -0.2248 -0.7593
  248MOL0     C34133   8.317   5.195  -0.400  0.8718  0.4309 -0.7126
  248MOL0     O34134   8.070   5.295  -0.153  0.0580 -0.9717 -0.7481
  248MOL0     C34135   8.257   5.591  -0.133  0.6094  0.6043 -0.0300
  248MOL0     C34136   8.260   5.725  -0.100  0.6007 -0.4880 -0.4685
  248MOL0     N34137   8.112   6.462   0.301  0.2417  0.3529  1.0295
  248MOL0     N34138   8.006   6.467   0.382  0.0590  0.0249 -0.2519
  248MOL0     C34139   7.109   6.982   0.632  0.8754 -0.6726  0.1818
  248MOL0     C34140   7.065   7.006   0.771  0.3893  0.2597 -0.7660
  248MOL0     C34141   6.819   7.022   1.134  0.2098 -0.5482  0.1387
  248MOL0     C34142   6.874   6.922   1.217 -0.4609 -0.9857 -1.0531
  248MOL0     C34143   6.833   6.899   1.356  0.5865  0.0074  0.6104
  248MOL0     C34144   6.739   6.987   1.406 -0.1461  0.5766 -0.3766
  248MOL0     O34145   6.715   6.969   1.543  0.1128 -0.5085  0.3303
  248MOL0     C34146   6.629   7.065   1.614  0.3830 -0.2377 -0.8919
  248MOL0     C34147   6.477   7.033   1.592 -1.5013  0.1214 -0.8550
  248MOL0     C34148   6.404   7.085   1.719 -0.4020  0.4645  0.1889
  248MOL0     C34149   6.259   7.037   1.691 -0.4617 -0.0606 -0.2143
  248MOL0     C34150   6.189   7.061   1.820 -0.3329 -0.2371  0.1165
  248MOL0     C34151   6.117   7.080   1.925 -0.2620  0.1477  0.3606
  248MOL0     C34152   6.680   7.088   1.324 -0.1447 -0.0838  0.6872
  248MOL0     C34153   6.709   7.102   1.186 -0.2674  0.1171 -0.1661
  248MOL0     C34154   6.619   7.194   1.109 -0.0424  0.9894  0.0634
  248MOL0     H34155   6.835   6.769   0.788 -2.0044 -0.6298 -2.9619
  248MOL0     H34156   6.886   6.758   0.530  2.5096  0.5528 -3.5687
  248MOL0     H34157   7.155   7.038   0.358 -2.6031 -0.0228  0.1783
  248MOL0     H34158   7.151   6.915   0.237  2.9388 -2.5881 -0.2289
  248MOL0     H34159   7.369   6.936   0.395 -1.3818  0.5164  3.1561
  248MOL0     H34160   7.279   6.827   0.503 -3.2068 -2.2788 -0.7692
  248MOL0     H34161   7.243   6.662   0.347  2.4433 -4.3156  0.6692
  248MOL0     H34162   7.337   6.753   0.216 -1.4362 -1.4699 -0.0785
  248MOL0     H34163   7.541   6.708   0.339  0.4220  1.2334  3.4750
  248MOL0     H34164   7.450   6.647   0.480  0.8041  0.8392 -0.1753
  248MOL0     H34165   7.472   6.525   0.187  1.6208  0.7413  0.9135
  248MOL0     H34166   7.350   6.476   0.286  0.4556 -2.0525  1.6365
  248MOL0     H34167   7.509   6.424   0.476 -1.4115  1.0840 -1.3184
  248MOL0     H34168   7.536   6.326   0.335  0.3187 -1.2076 -0.0834
  248MOL0     H34169   7.706   6.569   0.396 -1.7446  0.5845  1.0290
  248MOL0     H34170   7.693   6.487   0.233 -2.9662  1.8682  0.4537
  248MOL0     H34171   7.785   6.395   0.514 -2.2725 -1.6016  0.7890
  248MOL0     H34172   7.737   6.271   0.401  0.5118  0.1994 -0.3170
  248MOL0     H34173   7.918   6.212   0.193  3.5093 -0.0874 -4.6901
  248MOL0     H34174   8.287   6.331   0.141  0.5073 -0.5515  0.9987
  248MOL0     H34175   8.145   6.265   0.048  2.2702  0.7950 -0.9970
  248MOL0     H34176   8.277   6.157   0.308  1.1123 -0.8557 -0.6427
  248MOL0     H34177   8.131   6.078   0.237 -0.2424 -1.3842 -1.8579
  248MOL0     H34178   8.384   6.129   0.086  0.9547 -0.5538  1.8858
  248MOL0     H34179   8.370   5.977   0.173  0.4559 -0.6817 -2.6496
  248MOL0     H34180   8.204   6.085  -0.071 -0.3071 -1.2887 -1.1296
  248MOL0     H34181   8.332   5.977  -0.085  0.8636 -3.0717  0.6437
  248MOL0     H34182   7.965   5.745   0.049  1.4357  3.5112  0.3880
  248MOL0     H34183   7.880   5.428  -0.096  0.2472 -1.8280  0.7245
  248MOL0     H34184   7.845   5.524   0.050  1.5259 -3.0805  4.3403
  248MOL0     H34185   7.966   5.395   0.062 -2.9983 -2.0947  0.6427
  248MOL0     H34186   8.291   5.096  -0.072 -2.2838 -3.0384  0.7492
  248MOL0     H34187   8.304   4.871  -0.189  1.1709  0.0479 -0.7130
  248MOL0     H34188   8.390   4.706  -0.318 -2.5869 -0.2818  1.7177
  248MOL0     H34189   8.222   4.697  -0.357 -0.7143 -1.2848 -1.9087
  248MOL0     H34190   8.285   4.597  -0.586 -1.0767  3.2015  1.3206
  248MOL0     H34191   8.454   4.628  -0.532 -1.2210  4.5006 -0.2747
  248MOL0     H34192   8.266   4.411  -0.446 -1.0642 -0.0065  2.7578
  248MOL0     H34193   8.364   4.494  -0.318  0.1976 -0.0828 -0.4299
  248MOL0     H34194   8.574   4.442  -0.445  1.5370  0.5224  0.1602
  248MOL0     H34195   8.483   4.370  -0.572 -0.6615 -2.5667  0.6023
  248MOL0     H34196   8.489   4.241  -0.298  2.4168 -0.8382  0.1651
  248MOL0     H34197   8.386   4.199  -0.428 -0.6173  0.8592 -0.4767
  248MOL0     H34198   8.687   4.199  -0.447 -0.0860 -1.2488  1.7943
  248MOL0     H34199   8.585   4.136  -0.577  0.7466 -1.8125  0.8349
  248MOL0     H34200   8.664   3.947  -0.423  0.1462  0.0767 -1.5949
  248MOL0     H34201   8.496   3.947  -0.475  0.5262  0.6379  0.1032
  248MOL0     H34202   8.500   3.871  -0.261 -2.7072 -0.3956 -1.7682
  248MOL0     H34203   8.432   4.033  -0.241 -1.4468 -0.2948 -2.8611
  248MOL0     H34204   8.354   5.070  -0.563 -2.0094  1.6619 -1.1173
  248MOL0     H34205   8.334   5.283  -0.461  0.9370  1.7989  1.1689
  248MOL0     H34206   8.350   5.561  -0.182 -0.2202  2.0541 -2.6613
  248MOL0     H34207   8.361   5.762  -0.107  1.4455 -2.2683  1.3449
  248MOL0     H34208   7.180   7.052   0.590 -0.6806  2.4656  2.3804
  248MOL0     H34209   7.115   7.077   0.836  0.9835 -1.6700  0.9844
  248MOL0     H34210   6.958   6.865   1.179  1.6857  1.0403  0.3893
  248MOL0     H34211   6.872   6.821   1.421 -0.1435  0.5867  1.7591
  248MOL0     H34212   6.656   7.058   1.720 -1.3287  0.2680 -0.3923
  248MOL0     H34213   6.653   7.165   1.578  3.0145 -0.1130  0.9205
  248MOL0     H34214   6.463   6.925   1.597  2.5977 -0.5357  2.6231
  248MOL0     H34215   6.438   7.088   1.506  1.4539  2.0097 -1.1277
  248MOL0     H34216   6.442   7.049   1.815 -0.4419  0.3121  0.1478
  248MOL0     H34217   6.402   7.194   1.720 -1.1192  0.4690 -0.9327
  248MOL0     H34218   6.250   6.928   1.681 -0.3333 -0.1697  0.7317
  248MOL0     H34219   6.226   7.102   1.609 -0.2269  0.1725 -0.1227
  248MOL0     H34220   6.058   7.096   2.013  1.1628 -0.0595  1.3808
  248MOL0     H34221   6.602   7.152   1.363  0.6539  0.3564  1.6061
  248MOL0     H34222   6.672   7.282   1.070  0.1879  0.2376 -1.3623
  248MOL0     H34223   6.583   7.128   1.030 -0.2010  2.1417 -0.8622
  248MOL0     H34224   6.532   7.222   1.169  0.0252 -0.2214  0.7513
  249MOL0     O34225   7.512   0.754  10.652 -0.0001  0.4654 -0.6979
  249MOL0     C34226   7.468   0.858  10.702 -0.0900  0.3716  0.5262
  249MOL0     O34227   7.384   0.861  10.817 -0.6535  0.5893  0.2756
  249MOL0     C34228   7.377   0.737  10.881 -1.1626  0.2886  0.5483
  249MOL0     C34229   7.249   0.680  10.900  0.0834  0.1611  0.7438
  249MOL0     C34230   7.225   0.555  10.960 -0.3721 -0.1162  0.1210
  249MOL0     C34231   7.328   0.497  11.027 -0.3121 -0.2680 -0.2924
  249MOL0     O34232   7.308   0.371  11.095  0.4140 -0.5905 -1.0224
  249MOL0     C34233   7.398   0.343  11.204  0.0566  0.3846  0.0342
  249MOL0     C34234   7.350   0.230  11.289 -0.6522 -0.2565  0.2678
  249MOL0     C34235   7.393   0.243  11.434 -0.2122  0.5596  0.1640
  249MOL0     C34236   7.281   0.291  11.525 -0.0025  0.8114  0.0321
  249MOL0     C34237   7.329   0.331  11.663 -1.2339  1.4367  0.3832
  249MOL0     C34238   7.357   0.480  11.679  0.3923 -0.8134 -0.3858
  249MOL0     C34239   7.463   0.533  11.577  0.8235  0.9325  0.0016
  249MOL0     C34240   7.453   0.684  11.599  0.3380 -0.5120  0.2144
  249MOL0     N34241   7.544   0.756  11.515 -0.2473 -1.0637 -0.3280
  249MOL0     C34242   7.574   0.726  11.384  0.6171  0.7944  0.2771
  249MOL0     C34243   7.689   0.782  11.350 -0.1458 -0.5863 -0.5126
  249MOL0     C34244   7.764   0.760  11.220 -0.3927 -0.7146 -0.7478
  249MOL0     C34245   7.746   0.881  11.124  0.0623 -0.0089 -0.7257
  249MOL0     C34246   7.879   0.889  11.036  0.0430 -0.0267  0.7621
  249MOL0     C34247   7.864   0.972  10.913 -0.3905 -0.0957 -0.1820
  249MOL0     O34248   7.825   0.885  10.807 -0.2877  0.7918 -0.7927
  249MOL0     C34249   7.850   0.915  10.674  1.0549 -0.6073  0.1893
  249MOL0     C34250   7.822   0.813  10.588  0.9343 -0.9082  1.3161
  249MOL0     C34251   7.835   0.830  10.448  0.8481  1.1899 -0.4653
  249MOL0     C34252   7.797   0.718  10.364  0.0365  0.5442 -0.7860
  249MOL0     C34253   7.880   0.957  10.397 -0.6737  0.5938  0.0573
  249MOL0     C34254   7.893   0.982  10.247  0.3554  0.6848  0.4113
  249MOL0     O34255   7.897   1.115  10.211  0.6320 -0.8122 -0.2555
  249MOL0     C34256   7.862   1.143  10.075  0.1777  0.6646 -0.2228
  249MOL0     C34257   7.757   1.229  10.052 -0.0247  0.9103  0.1915
  249MOL0     C34258   7.722   1.249   9.910  0.0606  0.8790 -0.5406
  249MOL0     C34259   7.794   1.193   9.805 -0.4905  0.8047 -0.0143
  249MOL0     O34260   7.744   1.216   9.680 -0.2453 -0.0183  0.2178
  249MOL0     C34261   7.842   1.251   9.571 -0.5466  0.0640 -0.3731
  249MOL0     C34262   7.791   1.218   9.432 -0.8185 -0.6564 -0.5444
  249MOL0     C34263   7.912   1.248   9.331  0.1230 -0.2083 -0.5751
  249MOL0     C34264   7.879   1.258   9.182  0.5987  0.7249  0.4826
  249MOL0     C34265   7.836   1.114   9.126  0.6410 -0.3494 -0.8044
  249MOL0     C34266   7.812   1.121   8.981  0.4024  0.1270 -0.2684
  249MOL0     C34267   7.798   0.988   8.926 -0.1135 -0.0937 -0.3061
  249MOL0     C34268   7.758   0.999   8.775 -0.2004 -0.5613  0.2880
  249MOL0    Cl34269   7.693   0.846   8.722 -0.0869 -0.0906 -0.0032
  249MOL0     C34270   7.909   1.118   9.835 -0.5002  1.2635 -1.2331
  249MOL0     C34271   7.950   1.102   9.969  1.1075  0.1531  0.5702
  249MOL0     O34272   7.935   0.891  10.173  0.3127  0.2192 -0.2659
  249MOL0     C34273   7.903   1.065  10.492 -0.0246  0.4389 -0.2801
  249MOL0     C34274   7.901   1.036  10.626 -0.4213 -0.5605 -0.1452
  249MOL0     N34275   7.737   0.849  11.456 -0.0567  0.3151  0.0602
  249MOL0     N34276   7.652   0.828  11.559 -0.1472 -0.7427  0.6362
  249MOL0     C34277   7.459   0.557  11.023  1.7289  0.5227 -1.0105
  249MOL0     C34278   7.481   0.664  10.942 -0.8445  0.0656 -0.1784
  249MOL0     C34279   7.493   0.984  10.628  0.5840 -0.5539  0.3199
  249MOL0     C34280   7.540   1.092  10.709  0.3627 -0.5123  0.9046
  249MOL0     C34281   7.571   1.221  10.658  0.2916  0.2793  0.9199
  249MOL0     C34282   7.548   1.247  10.520  0.4914 -0.2394  0.8600
  249MOL0     O34283   7.555   1.371  10.464 -0.0558 -0.4066 -1.0404
  249MOL0     C34284   7.691   1.414  10.451  0.0414  0.6767  0.5400
  249MOL0     C34285   7.708   1.560  10.400 -0.1180  0.2547  0.3655
  249MOL0     C34286   7.655   1.586  10.261 -0.4438  0.6102 -0.3246
  249MOL0     C34287   7.649   1.740  10.234 -0.4217  0.7594  0.0022
  249MOL0     C34288   7.560   1.766  10.124 -0.0367 -0.6444 -1.9415
  249MOL0     C34289   7.488   1.788  10.029  0.2530  0.0251 -0.2219
  249MOL0     C34290   7.502   1.143  10.447  0.2245 -0.1139  0.0752
  249MOL0     C34291   7.473   1.008  10.490  0.3848 -0.7886 -0.2192
  249MOL0     C34292   7.403   0.906  10.397  0.6113  0.1526  0.9525
  249MOL0     H34293   7.172   0.741  10.853 -0.0291 -0.7816 -0.3408
  249MOL0     H34294   7.130   0.502  10.963  0.0551 -1.4582 -3.8481
  249MOL0     H34295   7.414   0.432  11.265 -2.1082 -0.0482  1.3580
  249MOL0     H34296   7.484   0.310  11.145 -1.3730 -2.1342 -0.8239
  249MOL0     H34297   7.240   0.228  11.286 -0.6291 -0.6505 -0.7048
  249MOL0     H34298   7.395   0.140  11.245 -2.5026 -0.3821 -1.4925
  249MOL0     H34299   7.415   0.144  11.476 -0.4626  0.8967  1.1153
  249MOL0     H34300   7.493   0.287  11.442  1.1011 -2.1849  0.1116
  249MOL0     H34301   7.232   0.380  11.485  1.4782  1.0720 -1.3062
  249MOL0     H34302   7.209   0.209  11.535  2.8413 -1.8803 -0.0392
  249MOL0     H34303   7.424   0.288  11.695 -0.8832  1.8570 -0.0870
  249MOL0     H34304   7.252   0.296  11.733 -2.4079  1.8580 -0.6519
  249MOL0     H34305   7.275   0.552  11.684  1.7000  0.7957 -1.2340
  249MOL0     H34306   7.397   0.503  11.778  1.6614  0.4345 -1.1557
  249MOL0     H34307   7.438   0.495  11.478  0.7537 -1.9777  1.0116
  249MOL0     H34308   7.561   0.495  11.610 -0.1345 -2.7244 -0.8439
  249MOL0     H34309   7.357   0.728  11.572  0.9812  2.2400  2.0072
  249MOL0     H34310   7.455   0.715  11.704 -2.9517  0.5618  0.0718
  249MOL0     H34311   7.519   0.673  11.307  0.1259  3.5867 -1.4259
  249MOL0     H34312   7.729   0.680  11.155 -1.1572 -2.2196  1.4074
  249MOL0     H34313   7.867   0.738  11.248 -0.5737  0.1008  0.6830
  249MOL0     H34314   7.662   0.863  11.056  1.1754  0.8013 -2.3719
  249MOL0     H34315   7.720   0.971  11.181  1.7882 -0.6257  1.1535
  249MOL0     H34316   7.949   0.941  11.101 -2.6541  1.3992  2.7596
  249MOL0     H34317   7.906   0.786  11.012 -1.3110  0.1040 -1.5780
  249MOL0     H34318   7.784   1.045  10.925  0.3049  0.2348  3.5827
  249MOL0     H34319   7.959   1.025  10.901 -1.5350  1.6862 -1.9420
  249MOL0     H34320   7.777   0.721  10.623 -1.8117 -0.0283  0.3540
  249MOL0     H34321   7.731   0.758  10.287 -0.9376  1.2283  0.3692
  249MOL0     H34322   7.744   0.641  10.420  0.3681  1.7273  1.2358
  249MOL0     H34323   7.889   0.680  10.318  0.0286  0.4032 -0.6832
  249MOL0     H34324   7.701   1.274  10.134  2.4842 -1.4065  3.4382
  249MOL0     H34325   7.629   1.302   9.890 -1.3879 -1.5987 -0.8759
  249MOL0     H34326   7.857   1.358   9.586 -1.8056  0.7860 -3.6614
  249MOL0     H34327   7.938   1.199   9.577  1.1728  3.0421 -0.2569
  249MOL0     H34328   7.751   1.117   9.418  0.2362 -1.1278 -0.2987
  249MOL0     H34329   7.712   1.288   9.404  2.9677  4.4402 -0.0684
  249MOL0     H34330   7.984   1.167   9.337  0.4816 -0.0325 -1.9895
  249MOL0     H34331   7.969   1.338   9.355 -0.7938  1.0058 -2.6545
  249MOL0     H34332   7.958   1.305   9.123  0.8733  0.7859  0.8950
  249MOL0     H34333   7.792   1.322   9.166 -0.5568 -0.6028  1.1887
  249MOL0     H34334   7.919   1.044   9.144  0.1732 -1.4318 -2.6255
  249MOL0     H34335   7.755   1.073   9.188  0.6535 -2.1595 -1.9213
  249MOL0     H34336   7.905   1.159   8.938  2.3078 -1.2023  2.3933
  249MOL0     H34337   7.727   1.184   8.957 -0.8872 -1.0889  0.8806
  249MOL0     H34338   7.724   0.945   8.993 -0.2467  4.6719  3.1541
  249MOL0     H34339   7.896   0.941   8.938  0.6345  1.6300  0.7892
  249MOL0     H34340   7.841   1.033   8.712 -2.2105  1.9720 -1.1839
  249MOL0     H34341   7.684   1.079   8.768  1.7521  1.4830  1.7084
  249MOL0     H34342   7.971   1.070   9.760 -0.7144 -1.1337  0.0289
  249MOL0     H34343   8.037   1.045   9.998  0.3979 -1.2385  0.0667
  249MOL0     H34344   7.948   1.158  10.459  1.8968 -1.0602 -2.1919
  249MOL0     H34345   7.920   1.120  10.692  2.4278  0.7027 -2.3361
  249MOL0     H34346   7.538   0.502  11.073  0.4206 -1.8459 -1.3712
  249MOL0     H34347   7.584   0.696  10.936  0.5440 -2.8346  3.7037
  249MOL0     H34348   7.544   1.075  10.816 -3.2907 -0.7679  1.1272
  249MOL0     H34349   7.621   1.294  10.721  2.1131 -1.5698  1.7116
  249MOL0     H34350   7.746   1.398  10.544 -0.7273 -3.1613  0.4976
  249MOL0     H34351   7.748   1.361  10.374 -1.7382 -0.8751  0.2195
  249MOL0     H34352   7.814   1.588  10.392 -0.5755  2.1280  0.3935
  249MOL0     H34353   7.659   1.629  10.468  1.4953  0.3013  1.5444
  249MOL0     H34354   7.715   1.544  10.181  1.2021  2.8698 -0.3532
  249MOL0     H34355   7.561   1.529  10.255  0.1896 -0.4839 -0.1031
  249MOL0     H34356   7.749   1.780  10.215  0.9574 -1.7542  1.4423
  249MOL0     H34357   7.612   1.777  10.330  0.4286  0.1141  0.5926
  249MOL0     H34358   7.437   1.815   9.939  0.2333 -0.0645 -0.2379
  249MOL0     H34359   7.489   1.169  10.343 -1.0502  2.1590  0.7345
  249MOL0     H34360   7.365   0.819  10.451 -1.0899 -0.3967 -1.0321
  249MOL0     H34361   7.322   0.956  10.343  0.6498 -0.1396  0.6274
  249MOL0     H34362   7.478   0.875  10.324 -1.5400 -3.9047  0.1989
  250MOL0     O34363   2.308   6.279   2.248 -0.1875 -0.2827 -0.3949
  250MOL0     C34364   2.287   6.195   2.166 -0.3038 -0.3068  0.3335
  250MOL0     O34365   2.363   6.083   2.146  0.8099 -0.4049  0.0978
  250MOL0     C34366   2.452   6.051   2.243  0.3216 -0.3841 -0.0580
  250MOL0     C34367   2.580   6.007   2.195 -0.0206 -1.0992  0.6506
  250MOL0     C34368   2.670   5.971   2.283  0.5940 -0.4559  0.4304
  250MOL0     C34369   2.644   5.944   2.413  0.0382  0.5428 -1.0665
  250MOL0     O34370   2.739   5.895   2.499  0.1288  0.9100 -0.6477
  250MOL0     C34371   2.876   5.960   2.493  0.4534  0.1599 -0.7468
  250MOL0     C34372   2.942   5.928   2.622  0.2438  0.4187 -0.6420
  250MOL0     C34373   2.862   5.976   2.739 -1.1806 -0.2639  0.2506
  250MOL0     C34374   2.939   5.944   2.866 -0.5440  0.1245  0.1374
  250MOL0     C34375   2.893   6.027   2.989 -0.7016  0.3527  0.5773
  250MOL0     C34376   2.982   5.993   3.111  0.2359  0.0787 -0.1452
  250MOL0     C34377   2.938   5.855   3.171  0.3215  0.0292  0.9613
  250MOL0     C34378   2.968   5.829   3.320 -0.4068  0.4302  0.4726
  250MOL0     N34379   3.046   5.926   3.400  0.2471  0.0378  0.4416
  250MOL0     C34380   2.988   6.033   3.469 -1.1948 -0.2025  0.8178
  250MOL0     C34381   3.097   6.111   3.505  0.0835  0.1282  0.3658
  250MOL0     C34382   3.070   6.240   3.584  0.0516 -0.6075  0.3533
  250MOL0     C34383   3.024   6.204   3.725 -0.3543  0.1519 -0.1688
  250MOL0     C34384   3.142   6.196   3.823  0.8204 -0.0921  0.1258
  250MOL0     C34385   3.096   6.167   3.966 -0.0939 -0.9899  1.1088
  250MOL0     O34386   3.052   6.288   4.024 -0.3041 -0.4033  0.2967
  250MOL0     C34387   3.014   6.283   4.155 -0.6274  0.1547  0.7637
  250MOL0     C34388   2.949   6.402   4.207  0.5427  0.5879 -0.2606
  250MOL0     C34389   2.913   6.414   4.347  0.2563  0.1186 -0.6591
  250MOL0     C34390   2.856   6.551   4.394 -1.2387  0.0245  0.5432
  250MOL0     C34391   2.940   6.304   4.430  0.5269 -0.0232  0.4151
  250MOL0     C34392   2.898   6.309   4.576  1.1786  0.3543  0.1327
  250MOL0     O34393   2.841   6.197   4.632 -0.2641 -0.4854  0.2235
  250MOL0     C34394   2.808   6.203   4.763  0.1743  0.2510 -0.2032
  250MOL0     C34395   2.689   6.268   4.803 -0.2431  0.4929  1.5118
  250MOL0     C34396   2.639   6.258   4.926 -0.4301 -0.6729  0.0855
  250MOL0     C34397   2.707   6.181   5.028  0.1988  0.1076 -0.4780
  250MOL0     O34398   2.654   6.166   5.157  0.1515 -0.7686 -0.5027
  250MOL0     C34399   2.551   6.256   5.210  0.0882 -0.1589  0.0945
  250MOL0     C34400   2.444   6.175   5.289 -0.9004  0.3282 -0.2843
  250MOL0     C34401   2.508   6.102   5.411  0.1582 -0.8006 -0.1712
  250MOL0     C34402   2.418   6.012   5.491  0.7664  0.0557 -0.6434
  250MOL0     C34403   2.373   6.080   5.621 -0.3741 -0.9651 -0.4378
  250MOL0     C34404   2.309   5.980   5.709 -0.7040  0.1740 -0.2599
  250MOL0     C34405   2.262   6.044   5.835  0.2917 -0.5136 -1.4992
  250MOL0     C34406   2.213   5.936   5.931  0.8883 -0.5956 -0.0555
  250MOL0    Cl34407   2.140   6.008   6.069  0.2163 -0.1927 -0.4058
  250MOL0     C34408   2.828   6.124   4.992 -0.1008  0.6722 -0.0959
  250MOL0     C34409   2.877   6.131   4.861  0.1746 -0.4097  0.0333
  250MOL0     O34410   2.924   6.409   4.638  0.2126  0.3697 -0.5759
  250MOL0     C34411   2.976   6.177   4.374  0.2425  0.1947  0.1849
  250MOL0     C34412   3.013   6.169   4.240 -0.3900  0.5341  0.2257
  250MOL0     N34413   3.212   6.046   3.463  0.6781  0.2316 -0.4587
  250MOL0     N34414   3.172   5.928   3.415 -0.1541 -0.3960 -0.0096
  250MOL0     C34415   2.519   5.975   2.460 -0.5790  0.1611  0.0808
  250MOL0     C34416   2.416   6.027   2.377  0.3410  0.1380  0.6809
  250MOL0     C34417   2.201   6.240   2.061 -0.2003  0.2131 -0.3106
  250MOL0     C34418   2.217   6.186   1.932 -0.3802  0.0011  0.0326
  250MOL0     C34419   2.141   6.225   1.822  0.9852  1.0518  0.1058
  250MOL0     C34420   2.050   6.320   1.834  0.9290 -0.8988  0.2821
  250MOL0     O34421   1.969   6.384   1.743 -0.3246 -0.1620 -0.8037
  250MOL0     C34422   2.006   6.353   1.615 -0.4439 -0.3837  1.0856
  250MOL0     C34423   1.915   6.429   1.525  0.6760 -0.5115  0.1441
  250MOL0     C34424   1.952   6.574   1.500  0.2199  0.1887  0.0550
  250MOL0     C34425   1.836   6.649   1.426  0.0444 -0.2337  1.1124
  250MOL0     C34426   1.837   6.793   1.453  0.3141  0.0537 -0.0676
  250MOL0     C34427   1.831   6.915   1.453  0.2037  0.0962  0.1248
  250MOL0     C34428   2.022   6.374   1.960 -0.4132 -1.4261 -0.5124
  250MOL0     C34429   2.095   6.339   2.072  0.6916  0.2204  0.7612
  250MOL0     C34430   2.066   6.432   2.195  0.3807  0.8117  0.6419
  250MOL0     H34431   2.613   6.024   2.093 -1.1264  2.5392  0.7855
  250MOL0     H34432   2.771   5.951   2.250 -0.3729 -0.7575 -2.6471
  250MOL0     H34433   2.873   6.066   2.466  2.7127  0.4686  0.0367
  250MOL0     H34434   2.938   5.912   2.417 -1.5032 -3.0534 -0.5261
  250MOL0     H34435   2.970   5.822   2.626  0.3520  0.2585 -3.4734
  250MOL0     H34436   3.038   5.980   2.630 -0.7656  2.7180 -2.4591
  250MOL0     H34437   2.837   6.082   2.741  0.2204  0.0814  2.2941
  250MOL0     H34438   2.771   5.916   2.743 -1.0393 -0.8486 -2.8712
  250MOL0     H34439   2.929   5.836   2.881  2.3775 -0.7028 -2.7831
  250MOL0     H34440   3.046   5.955   2.846 -0.8404  0.2510 -1.5218
  250MOL0     H34441   2.789   6.000   3.010 -0.3201 -3.1120 -1.1912
  250MOL0     H34442   2.896   6.135   2.974  0.7983  0.6140  2.3961
  250MOL0     H34443   3.086   5.999   3.080  1.1337 -2.8333  1.8868
  250MOL0     H34444   2.961   6.079   3.176 -1.1643  0.3645 -0.9368
  250MOL0     H34445   2.984   5.782   3.103 -2.7392  1.0991 -2.6607
  250MOL0     H34446   2.835   5.832   3.142  1.1827 -0.3590 -2.1616
  250MOL0     H34447   2.881   5.825   3.386 -0.7506  2.1356  0.1639
  250MOL0     H34448   3.020   5.733   3.321  2.0341  1.6820  2.2101
  250MOL0     H34449   2.887   6.073   3.461 -0.8157  0.5524 -0.4582
  250MOL0     H34450   3.008   6.311   3.529  0.9804 -0.5552 -0.6609
  250MOL0     H34451   3.166   6.293   3.592 -2.3915  4.3052  1.3566
  250MOL0     H34452   2.965   6.290   3.758 -0.0011 -0.6019  2.7922
  250MOL0     H34453   2.961   6.115   3.730 -1.7404  1.1635  1.7842
  250MOL0     H34454   3.208   6.119   3.781  1.7145  1.4567 -1.4614
  250MOL0     H34455   3.192   6.294   3.819 -0.9915  0.8901  0.5744
  250MOL0     H34456   3.012   6.097   3.977 -0.1676 -0.7817  1.8863
  250MOL0     H34457   3.181   6.122   4.017  0.4708  0.4054  1.4264
  250MOL0     H34458   2.918   6.489   4.149 -0.1438  0.4313 -0.1450
  250MOL0     H34459   2.787   6.594   4.321 -0.9091  5.1176  2.7988
  250MOL0     H34460   2.933   6.628   4.407 -0.7440 -0.4290  0.2826
  250MOL0     H34461   2.812   6.550   4.494 -2.2238  3.6944  0.3267
  250MOL0     H34462   2.651   6.339   4.729  1.7837  2.4326  2.2344
  250MOL0     H34463   2.544   6.311   4.926  1.3204  2.8866 -2.5677
  250MOL0     H34464   2.612   6.321   5.272 -0.4776  1.1120 -0.6249
  250MOL0     H34465   2.496   6.312   5.133  0.7850 -0.7919 -0.8791
  250MOL0     H34466   2.381   6.254   5.330  0.4021  0.6874  1.1198
  250MOL0     H34467   2.385   6.108   5.226 -3.0947  1.2273  0.7156
  250MOL0     H34468   2.556   6.175   5.478 -1.5581  1.3780 -1.1698
  250MOL0     H34469   2.578   6.029   5.370  2.3015  1.3954 -0.6511
  250MOL0     H34470   2.480   5.928   5.525  1.7433  1.4284  1.0793
  250MOL0     H34471   2.329   5.986   5.433  0.3101 -2.2883  0.9527
  250MOL0     H34472   2.463   6.131   5.657 -1.2538 -1.1044  2.2015
  250MOL0     H34473   2.303   6.159   5.593  0.4247  0.4558  1.3514
  250MOL0     H34474   2.393   5.912   5.722  0.5107  1.6956  0.1649
  250MOL0     H34475   2.227   5.933   5.655  0.7968 -0.8292 -1.7430
  250MOL0     H34476   2.177   6.112   5.820  0.9895  1.5151  2.3935
  250MOL0     H34477   2.336   6.107   5.885 -0.7487  2.3563 -3.3342
  250MOL0     H34478   2.289   5.862   5.954  1.2583 -0.5805 -1.1508
  250MOL0     H34479   2.141   5.874   5.877 -0.3880  1.1322 -0.4503
  250MOL0     H34480   2.889   6.079   5.070  0.4438  1.2681 -0.1651
  250MOL0     H34481   2.966   6.080   4.823 -0.0631  1.0330 -2.7389
  250MOL0     H34482   2.974   6.090   4.439 -1.3745 -0.8343 -1.1376
  250MOL0     H34483   3.051   6.077   4.198 -1.5932  0.1666 -0.0901
  250MOL0     H34484   2.494   5.949   2.562 -0.3060  1.5521  0.5292
  250MOL0     H34485   2.312   6.039   2.407 -0.9171  0.2830 -3.2038
  250MOL0     H34486   2.302   6.119   1.918  0.7260  0.3706  3.7866
  250MOL0     H34487   2.158   6.182   1.724 -0.1021 -0.9518  0.7346
  250MOL0     H34488   2.103   6.395   1.587 -1.2930  1.8416  1.2438
  250MOL0     H34489   1.988   6.246   1.601  1.0774 -0.4107 -0.9346
  250MOL0     H34490   1.816   6.417   1.569 -0.0696 -1.6978 -1.6980
  250MOL0     H34491   1.902   6.386   1.425 -1.4605  2.0967 -0.8250
  250MOL0     H34492   1.968   6.614   1.601 -3.3819 -1.5995  1.5324
  250MOL0     H34493   2.044   6.588   1.443 -0.4803  3.5283 -0.4405
  250MOL0     H34494   1.742   6.600   1.451  0.2835 -0.8929  0.7440
  250MOL0     H34495   1.841   6.643   1.317 -1.7415  0.0932  0.9932
  250MOL0     H34496   1.823   7.022   1.452  1.5096  0.2697  2.0209
  250MOL0     H34497   1.940   6.445   1.967 -1.6136 -2.7917 -0.0271
  250MOL0     H34498   2.009   6.517   2.155  1.6768  0.0792 -3.1477
  250MOL0     H34499   2.003   6.383   2.270 -1.9180 -1.2328 -2.3928
  250MOL0     H34500   2.158   6.468   2.243  1.9402 -1.8967 -0.1401
  251MOL0     O34501  10.064   5.530  11.506 -0.6156 -0.3554 -0.2713
  251MOL0     C34502  10.125   5.419  11.490  0.0588 -0.0364 -0.0428
  251MOL0     O34503  10.120   5.310  11.582  0.1597 -0.5604  0.0735
  251MOL0     C34504  10.056   5.348  11.696 -0.1038  0.5762 -0.0379
  251MOL0     C34505  10.122   5.427  11.786 -0.8132  0.3512 -0.0830
  251MOL0     C34506  10.075   5.452  11.915  0.4113 -0.0077  0.3567
  251MOL0     C34507   9.957   5.405  11.955  0.0534  0.6830 -0.4149
  251MOL0     O34508   9.894   5.444  12.072  0.4283 -0.7121  0.3470
  251MOL0     C34509   9.804   5.337  12.123 -0.9743 -0.6557  0.3551
  251MOL0     C34510   9.750   5.369  12.268  0.1502  0.2967  0.1203
  251MOL0     C34511   9.855   5.389  12.369 -0.5850  0.2858 -0.3508
  251MOL0     C34512   9.942   5.266  12.425  0.1291  0.6815 -0.2210
  251MOL0     C34513  10.032   5.308  12.539 -0.4156  0.7238 -0.4105
  251MOL0     C34514   9.966   5.340  12.677 -0.3871 -0.4717 -0.1090
  251MOL0     C34515  10.059   5.361  12.798 -0.1380  0.0793  0.2520
  251MOL0     C34516  10.177   5.465  12.769  0.2976  0.5719  0.1320
  251MOL0     N34517  10.159   5.613  12.787  0.4465  1.1231  0.4753
  251MOL0     C34518  10.200   5.682  12.894 -0.2859 -0.6524  0.2011
  251MOL0     C34519  10.157   5.814  12.867  0.4219  0.8642 -0.2284
  251MOL0     C34520  10.200   5.922  12.963  0.0303 -0.1933 -1.1131
  251MOL0     C34521  10.308   6.032  12.917 -0.5736  0.4364 -0.0293
  251MOL0     C34522  10.236   6.123  12.813 -0.9966  0.0483  0.3388
  251MOL0     C34523  10.323   6.241  12.773  0.2697 -0.9881  0.3740
  251MOL0     O34524  10.349   6.311  12.890  0.7102 -0.5890 -0.5437
  251MOL0     C34525  10.450   6.406  12.885 -0.3385 -0.0543  0.3707
  251MOL0     C34526  10.544   6.422  12.769  0.9695 -0.3428 -0.8628
  251MOL0     C34527  10.664   6.494  12.779 -0.3205  0.7397 -0.5369
  251MOL0     C34528  10.756   6.493  12.671  0.4329  0.5162 -0.0700
  251MOL0     C34529  10.683   6.564  12.903 -0.2080 -0.7820 -0.4673
  251MOL0     C34530  10.801   6.648  12.917 -0.3681 -0.2678 -0.2306
  251MOL0     O34531  10.785   6.771  12.973  0.1132 -0.3370 -0.2622
  251MOL0     C34532  10.882   6.860  12.992 -0.7636  0.6955 -0.4310
  251MOL0     C34533  10.891   6.934  13.118 -0.3857  0.4404  0.0301
  251MOL0     C34534  11.015   7.004  13.135 -0.5847 -0.5520  0.2793
  251MOL0     C34535  11.104   7.017  13.033 -0.6529 -0.1426 -0.4127
  251MOL0     O34536  11.214   7.094  13.055  0.1585 -0.7811  0.4360
  251MOL0     C34537  11.260   7.199  12.961  0.2276  0.1562 -0.4400
  251MOL0     C34538  11.375   7.279  13.018  0.1613  0.6850  0.4022
  251MOL0     C34539  11.340   7.344  13.150  0.1042  0.0329 -0.9965
  251MOL0     C34540  11.265   7.476  13.139  0.9499  1.0797  0.8260
  251MOL0     C34541  11.228   7.535  13.274 -0.6366 -0.9920 -0.4678
  251MOL0     C34542  11.173   7.678  13.255  0.3167 -1.1372 -0.1146
  251MOL0     C34543  11.291   7.777  13.221  0.1267 -0.8924  1.0433
  251MOL0     C34544  11.252   7.923  13.210 -0.0668 -0.7429 -0.5646
  251MOL0    Cl34545  11.149   7.926  13.056  0.1814  0.2099 -0.8684
  251MOL0     C34546  11.095   6.958  12.912 -0.6128  0.0409 -0.0728
  251MOL0     C34547  10.986   6.875  12.892  0.1710  0.9624 -1.1185
  251MOL0     O34548  10.908   6.590  12.907  0.5744  0.3549  0.4702
  251MOL0     C34549  10.591   6.561  13.004  0.0877  0.0257 -1.4353
  251MOL0     C34550  10.481   6.468  13.000  0.2654 -0.4983  0.2152
  251MOL0     N34551  10.097   5.812  12.738  0.5254  0.1886  0.1924
  251MOL0     N34552  10.099   5.689  12.694 -0.8362  0.3080 -0.0935
  251MOL0     C34553   9.884   5.325  11.859 -0.2664  0.2738 -0.2492
  251MOL0     C34554   9.933   5.294  11.735  0.6154 -0.4739  0.1415
  251MOL0     C34555  10.203   5.403  11.362 -0.6533  0.5595 -0.0879
  251MOL0     C34556  10.282   5.512  11.320  0.2438 -1.5863 -0.3311
  251MOL0     C34557  10.359   5.503  11.211  0.2409  0.1245  0.1159
  251MOL0     C34558  10.353   5.384  11.138  0.0512  0.1949 -0.8366
  251MOL0     O34559  10.428   5.368  11.022 -0.2647 -0.3211  0.4014
  251MOL0     C34560  10.348   5.358  10.906  0.2015 -0.5447  0.2211
  251MOL0     C34561  10.410   5.447  10.793  0.3608 -0.1916  0.5172
  251MOL0     C34562  10.333   5.428  10.663  0.1507 -0.6990 -0.5671
  251MOL0     C34563  10.381   5.493  10.534  0.0088  0.3951  0.5173
  251MOL0     C34564  10.479   5.598  10.550  1.6658  0.8296  0.5004
  251MOL0     C34565  10.564   5.683  10.571  0.7830 -0.1819 -0.0785
  251MOL0     C34566  10.281   5.277  11.180  0.7373  0.3351  0.0846
  251MOL0     C34567  10.192   5.282  11.289 -0.5386 -0.5736 -0.0554
  251MOL0     C34568  10.115   5.167  11.340  0.6479  0.5438  0.6151
  251MOL0     H34569  10.224   5.456  11.762  0.4168  0.9016  4.7514
  251MOL0     H34570  10.133   5.510  11.985 -0.6594  0.7146  0.6621
  251MOL0     H34571   9.860   5.244  12.119  0.1222 -0.0382  0.7166
  251MOL0     H34572   9.717   5.324  12.059 -0.8678  2.9437 -0.7479
  251MOL0     H34573   9.668   5.440  12.283 -1.2988 -1.5984  1.8432
  251MOL0     H34574   9.699   5.274  12.288 -3.1256  1.3629 -2.2503
  251MOL0     H34575   9.934   5.458  12.341 -1.1970  1.0131 -0.3197
  251MOL0     H34576   9.815   5.433  12.461  0.8522 -1.3259  1.1371
  251MOL0     H34577   9.875   5.183  12.449 -0.1569 -0.2237 -3.5805
  251MOL0     H34578  10.003   5.236  12.339 -1.5643  5.5147 -3.5509
  251MOL0     H34579  10.086   5.398  12.507  2.5700 -0.4274  1.0194
  251MOL0     H34580  10.109   5.231  12.553 -0.5769  1.1237  4.4814
  251MOL0     H34581   9.915   5.437  12.675 -0.5541 -0.5603 -0.9266
  251MOL0     H34582   9.887   5.268  12.699 -0.1826 -0.6789 -0.0412
  251MOL0     H34583  10.104   5.263  12.819  2.0682  0.1026 -3.3692
  251MOL0     H34584   9.991   5.404  12.872 -2.7848 -0.6214 -1.6470
  251MOL0     H34585  10.256   5.431  12.835 -0.0024 -0.5062 -0.0411
  251MOL0     H34586  10.213   5.445  12.667 -2.1235 -1.4949 -0.4307
  251MOL0     H34587  10.257   5.646  12.980  1.7779  1.2432 -0.2809
  251MOL0     H34588  10.252   5.875  13.047  0.8594  2.0163 -0.3415
  251MOL0     H34589  10.111   5.969  13.004 -2.2513 -0.8755 -4.8067
  251MOL0     H34590  10.354   6.083  13.002  1.7772 -0.7631 -0.5083
  251MOL0     H34591  10.393   5.975  12.879  0.3110  0.9678  1.1215
  251MOL0     H34592  10.217   6.057  12.728  0.4867  0.7339 -0.5667
  251MOL0     H34593  10.144   6.161  12.860 -2.8262  2.9570 -4.7955
  251MOL0     H34594  10.407   6.199  12.717  0.1841  2.2735 -2.5615
  251MOL0     H34595  10.264   6.307  12.708 -0.9330 -0.9483  1.4605
  251MOL0     H34596  10.529   6.372  12.674  0.7264  1.7204 -1.9849
  251MOL0     H34597  10.838   6.420  12.678 -1.3477 -1.4255  2.7928
  251MOL0     H34598  10.784   6.595  12.642  1.6667  0.6963  1.5593
  251MOL0     H34599  10.696   6.455  12.588  1.7142 -1.6278 -0.0739
  251MOL0     H34600  10.817   6.925  13.197  1.0295  1.4676  1.5493
  251MOL0     H34601  11.037   7.054  13.229  0.4902  1.5024 -0.9973
  251MOL0     H34602  11.305   7.152  12.873  2.6942 -0.6650  1.1677
  251MOL0     H34603  11.172   7.260  12.935  1.1376  1.5097 -0.4606
  251MOL0     H34604  11.464   7.216  13.021 -0.7545 -0.9089 -2.3998
  251MOL0     H34605  11.397   7.353  12.940  2.0156 -0.2395 -0.0118
  251MOL0     H34606  11.432   7.367  13.205  0.8803 -3.0645 -0.8127
  251MOL0     H34607  11.274   7.283  13.213 -0.2093  0.6499 -0.7070
  251MOL0     H34608  11.177   7.458  13.077  1.5790  1.5436 -0.2325
  251MOL0     H34609  11.324   7.552  13.086  0.2300  1.7325  0.9419
  251MOL0     H34610  11.139   7.496  13.325 -1.5836 -0.0110 -1.2950
  251MOL0     H34611  11.324   7.528  13.326 -0.8281 -0.5137 -0.0389
  251MOL0     H34612  11.127   7.715  13.347 -1.2729 -2.0682 -0.5053
  251MOL0     H34613  11.099   7.678  13.174  0.5803 -0.8373 -0.3602
  251MOL0     H34614  11.330   7.745  13.124 -3.8778  0.1178 -1.1194
  251MOL0     H34615  11.370   7.774  13.297  1.3639  2.3043  0.0461
  251MOL0     H34616  11.340   7.985  13.188 -1.4568  1.1184 -1.1275
  251MOL0     H34617  11.205   7.955  13.303  2.7986  2.2174  0.0456
  251MOL0     H34618  11.168   6.954  12.831  1.0894 -1.1919  1.4481
  251MOL0     H34619  10.986   6.820  12.798  4.2616  1.7942 -1.7904
  251MOL0     H34620  10.589   6.625  13.092 -1.9481  0.9875 -2.1196
  251MOL0     H34621  10.422   6.471  13.091 -2.1538 -0.1576 -1.2854
  251MOL0     H34622   9.791   5.272  11.879 -0.7347  0.5098 -1.6349
  251MOL0     H34623   9.881   5.229  11.665 -0.7264  1.0676 -0.3468
  251MOL0     H34624  10.290   5.611  11.365  1.6793 -0.2542 -3.2134
  251MOL0     H34625  10.418   5.580  11.163  0.5528 -0.2013 -0.0311
  251MOL0     H34626  10.369   5.257  10.870  3.3773 -0.4827  1.5822
  251MOL0     H34627  10.243   5.378  10.930  0.9598  0.6310  2.9129
  251MOL0     H34628  10.517   5.429  10.779  0.0592 -2.7503  1.0034
  251MOL0     H34629  10.393   5.552  10.822 -3.7491 -0.2564 -1.0373
  251MOL0     H34630  10.320   5.321  10.644 -4.6371 -0.6289  1.0527
  251MOL0     H34631  10.237   5.470  10.696  0.1545 -1.8582  1.0347
  251MOL0     H34632  10.293   5.537  10.486 -0.5542 -2.4600 -1.2943
  251MOL0     H34633  10.429   5.415  10.474 -1.6145 -0.1007 -0.2059
  251MOL0     H34634  10.643   5.750  10.598  1.4514 -1.0451  0.1860
  251MOL0     H34635  10.290   5.186  11.122 -1.4484  0.9639 -1.4024
  251MOL0     H34636  10.015   5.185  11.379 -0.5272 -3.6708  0.0165
  251MOL0     H34637  10.095   5.087  11.268 -1.1219  1.2691  0.2441
  251MOL0     H34638  10.174   5.127  11.423 -0.1802 -0.3173  0.7979
  252MOL0     O34639   4.511   4.918   5.667 -0.1591 -0.2916  0.4821
  252MOL0     C34640   4.463   4.962   5.770  0.4349 -0.3760 -0.4393
  252MOL0     O34641   4.526   5.037   5.859  1.1505  0.2050  0.0555
  252MOL0     C34642   4.646   5.094   5.826 -0.5444 -0.0119 -0.4352
  252MOL0     C34643   4.646   5.233   5.847 -0.0250 -0.2148  0.0004
  252MOL0     C34644   4.765   5.302   5.824 -0.2707  0.1410  0.0524
  252MOL0     C34645   4.883   5.230   5.779 -0.0203 -0.5820  0.2894
  252MOL0     O34646   5.005   5.291   5.762 -0.4643 -0.4748  0.3914
  252MOL0     C34647   5.038   5.396   5.866  0.6689 -0.3385  0.2608
  252MOL0     C34648   5.174   5.461   5.849  0.3351  0.1715  0.7648
  252MOL0     C34649   5.202   5.546   5.977  0.0765  0.3150  0.2108
  252MOL0     C34650   5.310   5.652   5.963 -1.4634 -0.8277 -0.3729
  252MOL0     C34651   5.445   5.608   6.007 -0.3637  0.9554  0.4128
  252MOL0     C34652   5.551   5.693   5.947  0.2775  0.2373  1.1220
  252MOL0     C34653   5.569   5.822   6.024 -0.0966  0.3547  0.4978
  252MOL0     C34654   5.637   5.927   5.932 -0.7707  0.0618  0.0433
  252MOL0     N34655   5.760   5.879   5.869 -0.3326 -0.8674  0.2660
  252MOL0     C34656   5.767   5.819   5.737 -0.7048  0.6637  0.2253
  252MOL0     C34657   5.911   5.792   5.725  0.2236  0.8334 -0.3796
  252MOL0     C34658   5.983   5.732   5.599  0.7740 -0.6297 -0.0994
  252MOL0     C34659   6.082   5.838   5.530  0.5463 -0.4240  0.5436
  252MOL0     C34660   6.027   5.976   5.501  0.1826  0.1884 -0.0797
  252MOL0     C34661   6.132   6.074   5.456  0.0501  0.1682  0.3182
  252MOL0     O34662   6.091   6.187   5.382  0.4011 -0.4653  0.4825
  252MOL0     C34663   6.050   6.184   5.245  0.7204 -0.1328 -0.6181
  252MOL0     C34664   6.060   6.066   5.166 -0.2158  0.1458  0.6230
  252MOL0     C34665   6.038   6.063   5.029 -0.4473 -1.4794  0.0568
  252MOL0     C34666   6.068   5.929   4.971  0.6816 -0.4415 -0.5287
  252MOL0     C34667   5.998   6.183   4.962  0.2012  0.7996 -1.3007
  252MOL0     C34668   5.989   6.195   4.811 -0.2762 -0.6561  0.8155
  252MOL0     O34669   6.006   6.093   4.720 -0.6807 -0.1082  0.4578
  252MOL0     C34670   6.022   6.132   4.584  0.4174 -1.3140  0.2878
  252MOL0     C34671   5.923   6.110   4.482 -0.3269 -0.3121  0.3336
  252MOL0     C34672   5.954   6.152   4.344 -0.0496  0.2315  0.3388
  252MOL0     C34673   6.077   6.219   4.324 -0.3552 -0.2871  0.9507
  252MOL0     O34674   6.091   6.265   4.193  0.4779  0.2666  0.3778
  252MOL0     C34675   6.211   6.312   4.137 -0.0601 -1.2301 -0.2930
  252MOL0     C34676   6.194   6.347   3.987 -0.1539  0.7343  0.6674
  252MOL0     C34677   6.326   6.414   3.944  0.4629  1.0933 -0.3109
  252MOL0     C34678   6.374   6.387   3.797  0.5367 -0.7199 -0.2029
  252MOL0     C34679   6.316   6.488   3.706  0.3918  0.3017 -0.6897
  252MOL0     C34680   6.359   6.439   3.567 -0.4489 -0.1634  1.0892
  252MOL0     C34681   6.319   6.529   3.455  0.2577  0.9016 -0.6513
  252MOL0     C34682   6.400   6.520   3.324 -0.0397 -0.2209 -0.2258
  252MOL0    Cl34683   6.333   6.630   3.210  0.1517 -0.2761 -0.1012
  252MOL0     C34684   6.171   6.242   4.421 -0.0989  0.0703  0.1681
  252MOL0     C34685   6.143   6.194   4.543 -0.0889  0.4474 -0.3294
  252MOL0     O34686   5.964   6.311   4.776  0.3773  1.0231  0.4816
  252MOL0     C34687   5.996   6.301   5.043 -0.6531 -0.2405  0.4498
  252MOL0     C34688   6.018   6.302   5.184 -0.0326 -0.0440  0.3053
  252MOL0     N34689   5.977   5.837   5.834  0.9154 -0.6548  0.0155
  252MOL0     N34690   5.890   5.877   5.919  0.2216 -0.4096 -0.1574
  252MOL0     C34691   4.871   5.095   5.760  0.2777  0.1879  0.3813
  252MOL0     C34692   4.753   5.025   5.776 -0.5099 -0.3777 -0.8291
  252MOL0     C34693   4.330   4.931   5.810 -0.0632  0.8661  0.7285
  252MOL0     C34694   4.316   4.883   5.937  0.3583  0.6992  0.1150
  252MOL0     C34695   4.188   4.850   5.988 -1.0297  0.7910  0.4764
  252MOL0     C34696   4.078   4.865   5.907  0.2512 -0.6002 -0.5344
  252MOL0     O34697   3.954   4.855   5.967  0.4370  1.0013 -1.4414
  252MOL0     C34698   3.842   4.942   5.935  1.3545  0.0057  0.5367
  252MOL0     C34699   3.877   5.080   5.967  0.7730 -0.4719 -0.5006
  252MOL0     C34700   3.920   5.112   6.110 -0.5366  0.1133  0.0685
  252MOL0     C34701   3.824   5.064   6.223  1.0665 -0.3725 -0.4616
  252MOL0     C34702   3.685   5.131   6.227 -0.9377  0.9899  0.8276
  252MOL0     C34703   3.577   5.181   6.248 -0.5021 -0.2832 -0.5758
  252MOL0     C34704   4.090   4.901   5.768  1.0344  0.7445  0.5782
  252MOL0     C34705   4.218   4.934   5.725 -0.5537 -0.1968 -0.2089
  252MOL0     C34706   4.232   4.944   5.575  0.4437 -0.3723 -0.5408
  252MOL0     H34707   4.554   5.279   5.884  0.0346 -1.5815  1.9942
  252MOL0     H34708   4.769   5.410   5.833 -1.0394  0.1314  0.6929
  252MOL0     H34709   5.020   5.362   5.968 -2.7997  2.5064  0.7844
  252MOL0     H34710   4.965   5.477   5.854  0.2082 -0.2975  2.8280
  252MOL0     H34711   5.251   5.390   5.814 -2.2773 -0.9080 -3.5147
  252MOL0     H34712   5.171   5.525   5.760  1.4799 -3.4774 -2.1890
  252MOL0     H34713   5.108   5.601   5.988 -0.5932 -0.3853 -1.6806
  252MOL0     H34714   5.224   5.481   6.062 -0.8385 -1.1337 -0.6370
  252MOL0     H34715   5.308   5.672   5.856 -1.9351  2.2711  0.1318
  252MOL0     H34716   5.278   5.748   6.004 -3.4041 -0.5491 -2.3690
  252MOL0     H34717   5.475   5.507   5.977  3.2741  2.5713 -2.0558
  252MOL0     H34718   5.455   5.608   6.116  0.9293  2.5451  0.3228
  252MOL0     H34719   5.649   5.644   5.934  0.3203  0.5419  0.2032
  252MOL0     H34720   5.517   5.725   5.848  0.0465 -0.0198  1.1199
  252MOL0     H34721   5.627   5.820   6.116 -0.2424  0.0947  0.5862
  252MOL0     H34722   5.470   5.865   6.045  0.7900  2.3412  0.8998
  252MOL0     H34723   5.558   5.947   5.859 -2.5249 -3.9025  0.5908
  252MOL0     H34724   5.660   6.016   5.992  2.4532  0.0689 -0.9942
  252MOL0     H34725   5.679   5.813   5.674  0.9082  1.4736 -2.2851
  252MOL0     H34726   5.903   5.706   5.530 -1.9402  0.9952  2.2231
  252MOL0     H34727   6.043   5.641   5.611  0.9185 -0.6945 -1.1633
  252MOL0     H34728   6.169   5.846   5.597  0.5674  3.2256  0.3020
  252MOL0     H34729   6.101   5.803   5.428 -3.9230  0.9563 -1.0196
  252MOL0     H34730   5.950   5.958   5.425 -2.3301 -0.0658  2.3669
  252MOL0     H34731   5.974   6.018   5.587  0.2535 -0.0254  0.0695
  252MOL0     H34732   6.181   6.099   5.551 -1.5254 -2.4876  1.9315
  252MOL0     H34733   6.209   6.023   5.397  0.3615 -0.3828  1.1809
  252MOL0     H34734   6.104   5.976   5.207  0.8999  0.6538  0.5874
  252MOL0     H34735   6.125   5.869   5.042  1.7616  2.7844  1.5568
  252MOL0     H34736   6.120   5.933   4.874 -0.4708 -1.5190 -1.2273
  252MOL0     H34737   5.982   5.864   4.957  0.9645 -1.2679  1.3794
  252MOL0     H34738   5.830   6.065   4.514 -0.8328  1.3235  1.3032
  252MOL0     H34739   5.888   6.138   4.259  1.8296 -0.8004 -1.0272
  252MOL0     H34740   6.231   6.412   4.177  1.1194 -1.4098 -0.4006
  252MOL0     H34741   6.293   6.246   4.168 -1.9444 -4.3055 -1.3539
  252MOL0     H34742   6.189   6.251   3.934  3.2106  0.7351  0.1670
  252MOL0     H34743   6.106   6.408   3.965 -0.5411 -0.5636 -1.7111
  252MOL0     H34744   6.419   6.383   3.993  1.4512  1.3353 -1.9676
  252MOL0     H34745   6.318   6.520   3.968  1.9850  0.9044  1.3068
  252MOL0     H34746   6.352   6.285   3.766 -1.2765 -0.5885  0.5735
  252MOL0     H34747   6.483   6.387   3.786  0.4799 -1.2694 -0.8394
  252MOL0     H34748   6.208   6.495   3.717  0.2627 -1.2952 -0.6623
  252MOL0     H34749   6.355   6.588   3.724 -1.9883  2.0991 -4.2381
  252MOL0     H34750   6.314   6.341   3.551 -1.5219  0.4546  0.1571
  252MOL0     H34751   6.468   6.433   3.559 -0.4012 -0.2207  1.7774
  252MOL0     H34752   6.307   6.631   3.494 -3.5335  0.0296  0.8450
  252MOL0     H34753   6.217   6.504   3.424  1.8939 -2.6259 -4.0043
  252MOL0     H34754   6.401   6.416   3.291  2.8021 -0.8116  1.3121
  252MOL0     H34755   6.506   6.537   3.346  0.1345  0.5088 -1.5238
  252MOL0     H34756   6.271   6.285   4.413  1.3972 -2.8942  1.2374
  252MOL0     H34757   6.215   6.200   4.625  1.4656 -0.6897 -1.5514
  252MOL0     H34758   5.975   6.400   5.004  2.2057 -0.2354 -1.3607
  252MOL0     H34759   6.018   6.388   5.250 -0.6758  1.7781 -1.9181
  252MOL0     H34760   4.958   5.037   5.731  0.8521  0.5939  1.2621
  252MOL0     H34761   4.752   4.919   5.752  1.5929 -1.0097  1.4974
  252MOL0     H34762   4.403   4.864   5.999  1.0474 -0.1591 -1.0727
  252MOL0     H34763   4.188   4.839   6.096  0.3470  1.5740  0.5725
  252MOL0     H34764   3.809   4.929   5.831 -2.6960  0.0515  1.6244
  252MOL0     H34765   3.753   4.911   5.990 -0.3825  5.9557  1.8404
  252MOL0     H34766   3.795   5.150   5.947  1.6358  0.7599  0.1334
  252MOL0     H34767   3.958   5.109   5.899 -0.0999  0.9523 -0.9726
  252MOL0     H34768   4.026   5.092   6.129 -0.1206  0.7458 -1.4404
  252MOL0     H34769   3.916   5.221   6.119  0.1056  0.1942 -0.5696
  252MOL0     H34770   3.858   5.080   6.326  0.9835  0.6890 -0.5831
  252MOL0     H34771   3.827   4.955   6.214 -0.2222 -0.3355 -1.5854
  252MOL0     H34772   3.481   5.223   6.273  1.2004  3.5936  0.2668
  252MOL0     H34773   3.995   4.904   5.715  0.4805  0.3564  1.5208
  252MOL0     H34774   4.305   4.872   5.537  0.3851 -0.7892  0.1194
  252MOL0     H34775   4.141   4.933   5.517  1.4320 -0.0233 -2.2127
  252MOL0     H34776   4.276   5.042   5.553 -1.7588  1.4527  2.2872
  253MOL0     O34777   0.422   4.128   7.526 -0.2064 -1.0595  0.2083
  253MOL0     C34778   0.452   4.014   7.496 -0.6816  0.5055 -0.2164
  253MOL0     O34779   0.572   3.959   7.511 -0.2182  0.0549 -0.0636
  253MOL0     C34780   0.701   4.010   7.487 -0.0702  0.2069 -0.7271
  253MOL0     C34781   0.824   3.938   7.531 -0.3122  0.0308 -0.5502
  253MOL0     C34782   0.954   3.978   7.486 -0.1920 -0.6625 -0.1499
  253MOL0     C34783   0.960   4.075   7.391 -0.2487  0.3029  0.3640
  253MOL0     O34784   1.093   4.106   7.356  0.5364  0.3399 -0.3413
  253MOL0     C34785   1.130   4.237   7.312  0.4138  0.2552  0.7221
  253MOL0     C34786   1.280   4.274   7.328 -0.2443 -0.2058  0.7405
  253MOL0     C34787   1.330   4.249   7.472  1.1117  0.5621 -0.3393
  253MOL0     C34788   1.367   4.376   7.549  0.9796 -0.1176  0.6205
  253MOL0     C34789   1.513   4.421   7.540 -0.3970 -0.2508 -0.1870
  253MOL0     C34790   1.624   4.326   7.536  0.0709  0.3053 -0.1105
  253MOL0     C34791   1.772   4.390   7.561  0.5912 -0.1297 -0.1530
  253MOL0     C34792   1.822   4.447   7.424 -0.3781 -1.1408  0.0638
  253MOL0     N34793   1.946   4.529   7.438 -0.6481  0.0880  0.7212
  253MOL0     C34794   2.070   4.468   7.466 -0.3136 -0.7213 -0.1743
  253MOL0     C34795   2.150   4.578   7.488 -0.4047 -0.3103 -0.3755
  253MOL0     C34796   2.294   4.571   7.516  0.3881  0.3895 -0.2342
  253MOL0     C34797   2.361   4.469   7.422 -0.1825  0.4356  0.4647
  253MOL0     C34798   2.383   4.515   7.281  0.3196  0.0540  1.0488
  253MOL0     C34799   2.454   4.647   7.272  0.2607  0.2384 -0.0531
  253MOL0     O34800   2.582   4.675   7.343  0.6653  0.6917 -0.1991
  253MOL0     C34801   2.683   4.580   7.341  0.5480 -0.7796 -0.3546
  253MOL0     C34802   2.713   4.498   7.235 -0.0514  0.0730 -0.2033
  253MOL0     C34803   2.812   4.401   7.241 -0.0657  0.8028  0.2936
  253MOL0     C34804   2.856   4.324   7.125  0.3877 -0.0616  1.1972
  253MOL0     C34805   2.895   4.383   7.367 -0.3096  0.1288 -0.3797
  253MOL0     C34806   2.982   4.261   7.401 -0.3690  1.0657  1.0536
  253MOL0     O34807   3.061   4.258   7.515 -0.1458 -0.2035  0.2029
  253MOL0     C34808   3.145   4.153   7.551 -0.0532 -0.2756  0.1274
  253MOL0     C34809   3.280   4.147   7.517 -0.1254  0.9557 -0.4002
  253MOL0     C34810   3.356   4.023   7.523 -0.1767  0.1287  0.0282
  253MOL0     C34811   3.299   3.915   7.579  0.1153 -1.1620  0.3098
  253MOL0     O34812   3.369   3.801   7.607  0.2695 -0.2945  0.2672
  253MOL0     C34813   3.312   3.674   7.557 -0.1408  0.7092  0.1298
  253MOL0     C34814   3.280   3.577   7.675 -0.3850  0.5754 -0.1952
  253MOL0     C34815   3.411   3.523   7.733 -0.4907  0.3627  0.4383
  253MOL0     C34816   3.472   3.407   7.658 -0.3187 -0.6468 -0.2444
  253MOL0     C34817   3.598   3.366   7.728 -1.1252 -0.2163  0.4029
  253MOL0     C34818   3.656   3.242   7.658 -0.3217 -1.3754 -0.5861
  253MOL0     C34819   3.798   3.215   7.707  0.2231  0.1130 -0.6768
  253MOL0     C34820   3.788   3.119   7.831  0.4370  0.3327  0.2741
  253MOL0    Cl34821   3.736   2.959   7.774 -0.0314  0.1911 -0.4796
  253MOL0     C34822   3.165   3.926   7.626 -0.2721 -0.3621  0.6037
  253MOL0     C34823   3.097   4.047   7.616 -0.9368 -0.3377  0.8876
  253MOL0     O34824   2.952   4.155   7.335 -0.2890 -0.3603 -0.3292
  253MOL0     C34825   2.861   4.476   7.467 -0.7371 -0.4262  0.1406
  253MOL0     C34826   2.769   4.574   7.450  0.3236  0.6525 -0.0694
  253MOL0     N34827   2.076   4.693   7.457 -0.3049 -1.0053 -0.0700
  253MOL0     N34828   1.955   4.666   7.427  0.6586  0.2681  0.6492
  253MOL0     C34829   0.849   4.140   7.342  0.5388  0.2060  0.3426
  253MOL0     C34830   0.726   4.119   7.405 -0.1481 -0.7949  0.0764
  253MOL0     C34831   0.335   3.931   7.458 -0.0369  0.2456 -0.3663
  253MOL0     C34832   0.314   3.795   7.500  0.0641 -0.1128 -0.0312
  253MOL0     C34833   0.204   3.716   7.468 -0.2368  0.8417  0.0134
  253MOL0     C34834   0.103   3.769   7.390 -0.4690 -0.7157 -0.8975
  253MOL0     O34835   0.008   3.682   7.373  0.3124 -0.0925  0.4288
  253MOL0     C34836  -0.113   3.701   7.300 -0.7264  0.2434  0.0217
  253MOL0     C34837  -0.150   3.582   7.217  0.4653  0.0645  0.2953
  253MOL0     C34838  -0.300   3.576   7.170 -0.0147  1.0422 -0.7176
  253MOL0     C34839  -0.369   3.698   7.084 -1.8185 -0.7190  0.2432
  253MOL0     C34840  -0.516   3.673   7.081 -0.6162 -0.2633 -0.3004
  253MOL0     C34841  -0.630   3.630   7.075 -0.4703  0.5874  0.3158
  253MOL0     C34842   0.118   3.899   7.343 -0.1685 -0.6349  0.2048
  253MOL0     C34843   0.233   3.985   7.372 -0.3344 -0.0098  0.3816
  253MOL0     C34844   0.239   4.116   7.300 -0.8401  0.5724 -0.0423
  253MOL0     H34845   0.816   3.858   7.603  0.9302  0.5478  0.2035
  253MOL0     H34846   1.043   3.943   7.539  0.4623  0.4196 -0.4917
  253MOL0     H34847   1.073   4.315   7.365 -1.9891 -1.2610  0.5120
  253MOL0     H34848   1.102   4.247   7.206 -1.8989  2.2146  1.4273
  253MOL0     H34849   1.339   4.208   7.265 -2.4929 -1.1943 -0.4390
  253MOL0     H34850   1.294   4.377   7.292 -0.3013 -0.1852  0.7751
  253MOL0     H34851   1.242   4.205   7.520  1.3911  2.2025  1.8046
  253MOL0     H34852   1.404   4.169   7.474 -1.3438 -1.9610  3.3429
  253MOL0     H34853   1.299   4.451   7.507  0.0255 -1.8044 -0.9565
  253MOL0     H34854   1.358   4.366   7.658  1.4637  1.3647  0.8320
  253MOL0     H34855   1.528   4.481   7.630 -2.0654 -0.5678  0.3401
  253MOL0     H34856   1.528   4.482   7.451  0.5765  1.3997  1.0470
  253MOL0     H34857   1.604   4.256   7.617 -2.3147  0.8126 -0.1979
  253MOL0     H34858   1.617   4.276   7.439 -1.2288 -1.9077  1.0330
  253MOL0     H34859   1.844   4.316   7.599  1.7128  0.6053 -0.7635
  253MOL0     H34860   1.761   4.461   7.643 -0.4839 -0.5080  0.0428
  253MOL0     H34861   1.849   4.361   7.362  3.0022  0.6527 -1.2251
  253MOL0     H34862   1.741   4.513   7.392 -1.3455 -0.7884  2.9588
  253MOL0     H34863   2.117   4.374   7.437  2.8224  0.6032  0.2191
  253MOL0     H34864   2.300   4.542   7.622 -2.4426 -0.6596 -0.2763
  253MOL0     H34865   2.335   4.670   7.495 -1.3695  0.8168 -1.9988
  253MOL0     H34866   2.455   4.437   7.468 -0.8285  1.0310  2.2633
  253MOL0     H34867   2.311   4.372   7.422  1.4997 -0.4766  0.6949
  253MOL0     H34868   2.427   4.431   7.227 -1.7467 -0.8434  0.6698
  253MOL0     H34869   2.290   4.530   7.227  1.4474 -0.8021 -1.2392
  253MOL0     H34870   2.465   4.664   7.164 -4.5858  1.3273 -0.6140
  253MOL0     H34871   2.386   4.729   7.300 -2.0258 -1.2038 -1.0744
  253MOL0     H34872   2.656   4.509   7.143  0.0258 -3.0821 -0.7401
  253MOL0     H34873   2.957   4.359   7.100 -0.3652  1.8621  0.7423
  253MOL0     H34874   2.786   4.335   7.042  1.9203 -0.1955 -0.1747
  253MOL0     H34875   2.850   4.217   7.147  0.0023 -0.1996  0.4576
  253MOL0     H34876   3.308   4.249   7.490 -3.4850  1.8608 -0.9550
  253MOL0     H34877   3.456   4.018   7.482  0.4794  2.0779  1.2337
  253MOL0     H34878   3.220   3.690   7.501 -0.3292 -2.8562 -0.7635
  253MOL0     H34879   3.365   3.618   7.480  0.6665 -1.7534  2.3188
  253MOL0     H34880   3.216   3.620   7.752 -0.2442 -1.4947  1.1744
  253MOL0     H34881   3.221   3.493   7.636 -0.9744  0.6621  0.5048
  253MOL0     H34882   3.407   3.494   7.838  6.6642 -2.0550  0.5780
  253MOL0     H34883   3.487   3.602   7.739  0.5321 -0.6650  1.6960
  253MOL0     H34884   3.484   3.426   7.551 -0.4155 -3.5337 -0.8571
  253MOL0     H34885   3.402   3.324   7.668 -0.7783 -0.0578  2.1044
  253MOL0     H34886   3.679   3.440   7.729 -0.6384 -0.7449  1.0004
  253MOL0     H34887   3.576   3.337   7.831  1.5451 -1.2606  0.7653
  253MOL0     H34888   3.656   3.254   7.549 -1.5301  1.1896 -0.3835
  253MOL0     H34889   3.586   3.162   7.683 -0.8406 -0.2675  1.8330
  253MOL0     H34890   3.854   3.306   7.731 -1.0128  0.7578 -0.1120
  253MOL0     H34891   3.855   3.164   7.629 -1.5624 -2.1262 -0.5929
  253MOL0     H34892   3.717   3.156   7.905 -0.2307  1.4097 -0.8597
  253MOL0     H34893   3.883   3.116   7.885  1.7470 -0.4182 -1.9234
  253MOL0     H34894   3.111   3.844   7.674 -4.1560  1.2409 -0.6413
  253MOL0     H34895   3.000   4.037   7.663 -1.4181 -3.6169 -0.5277
  253MOL0     H34896   2.921   4.490   7.557 -0.8106 -0.4470  0.1928
  253MOL0     H34897   2.746   4.643   7.531 -0.1771  0.5844 -0.1510
  253MOL0     H34898   0.859   4.226   7.276 -0.8300  0.5594  0.5834
  253MOL0     H34899   0.645   4.183   7.374  0.5539  0.3972  0.6412
  253MOL0     H34900   0.390   3.752   7.565  1.2527 -0.7931 -1.7963
  253MOL0     H34901   0.192   3.620   7.519 -1.8933  2.6202  3.2595
  253MOL0     H34902  -0.191   3.720   7.374 -0.3174  4.2766 -0.3772
  253MOL0     H34903  -0.104   3.786   7.232 -3.3320  1.2258  0.8184
  253MOL0     H34904  -0.133   3.491   7.275  2.7818 -0.2856 -0.8309
  253MOL0     H34905  -0.077   3.582   7.135  1.3398 -0.4034  1.0604
  253MOL0     H34906  -0.316   3.482   7.116 -0.6871  0.4035  0.5492
  253MOL0     H34907  -0.355   3.563   7.264 -0.5068 -0.8101 -1.2121
  253MOL0     H34908  -0.337   3.700   6.980 -2.0782  1.0470  0.1616
  253MOL0     H34909  -0.353   3.796   7.130 -0.5444 -1.7339  2.0683
  253MOL0     H34910  -0.733   3.602   7.062 -0.3195 -0.6268  1.5531
  253MOL0     H34911   0.053   3.932   7.263  1.8503 -1.5167 -1.9176
  253MOL0     H34912   0.165   4.184   7.345 -0.8925  1.0425 -0.8110
  253MOL0     H34913   0.340   4.157   7.305  0.5719 -2.0533 -3.2377
  253MOL0     H34914   0.216   4.104   7.193 -0.8060  1.5640 -0.1705
  254MOL0     O34915  11.076   4.025   4.708  0.2495  0.0548 -0.1637
  254MOL0     C34916  11.176   4.048   4.777  0.0927  0.4725  0.0936
  254MOL0     O34917  11.283   3.966   4.790 -0.1183  0.2492  0.5861
  254MOL0     C34918  11.315   3.913   4.667 -0.0608  0.2953 -0.7608
  254MOL0     C34919  11.394   3.981   4.569  0.7132  0.8159 -0.3934
  254MOL0     C34920  11.395   3.922   4.438 -0.9137 -0.1930 -0.9901
  254MOL0     C34921  11.326   3.814   4.403  0.6147 -0.4122  0.2268
  254MOL0     O34922  11.316   3.792   4.266 -0.1250  0.7701 -0.5559
  254MOL0     C34923  11.202   3.721   4.226  0.0574 -0.2617 -0.2667
  254MOL0     C34924  11.200   3.706   4.067  0.2059 -0.3285  0.1035
  254MOL0     C34925  11.053   3.662   4.018 -0.4173 -0.2753 -0.2591
  254MOL0     C34926  10.942   3.767   4.034  0.2742 -0.1078 -0.6663
  254MOL0     C34927  10.971   3.890   3.934 -1.2601 -0.5854 -0.2917
  254MOL0     C34928  10.841   3.988   3.932 -1.1944  0.7179 -0.7757
  254MOL0     C34929  10.894   4.106   3.852  0.1045  0.0896  0.3125
  254MOL0     C34930  10.933   4.073   3.709  0.7967  0.3719  0.3959
  254MOL0     N34931  10.823   4.030   3.627 -0.3134  0.1092 -0.1756
  254MOL0     C34932  10.797   3.899   3.593  0.0941  0.6722 -0.5360
  254MOL0     C34933  10.667   3.889   3.562  0.3508 -0.9369 -0.8618
  254MOL0     C34934  10.606   3.755   3.545  0.7464 -0.5099 -0.4605
  254MOL0     C34935  10.596   3.677   3.677  0.6302  0.7484  0.1554
  254MOL0     C34936  10.483   3.725   3.781 -0.1731 -0.2394  0.3243
  254MOL0     C34937  10.499   3.672   3.925  0.2325  0.1733 -0.7788
  254MOL0     O34938  10.388   3.709   4.007  0.6712  0.1904  0.3406
  254MOL0     C34939  10.412   3.807   4.093  0.1663  0.1168 -0.0813
  254MOL0     C34940  10.313   3.808   4.197 -0.0894  0.6604 -0.7024
  254MOL0     C34941  10.303   3.898   4.305  0.4481 -1.2039  0.3110
  254MOL0     C34942  10.191   3.890   4.408 -0.4807  0.8047  1.1156
  254MOL0     C34943  10.404   3.992   4.315 -0.4540  0.1941 -0.3741
  254MOL0     C34944  10.415   4.083   4.425  0.7811 -0.5032 -0.4660
  254MOL0     O34945  10.507   4.051   4.522 -0.1813 -0.3735  0.7779
  254MOL0     C34946  10.565   4.143   4.607 -0.0029  0.4166 -0.3661
  254MOL0     C34947  10.562   4.280   4.600  0.0690  0.1981 -0.3614
  254MOL0     C34948  10.626   4.366   4.689 -0.2083 -0.9008 -0.2603
  254MOL0     C34949  10.700   4.317   4.794 -0.7119  0.0480  0.1534
  254MOL0     O34950  10.751   4.410   4.886  0.2157  0.0112  0.0742
  254MOL0     C34951  10.786   4.358   5.012 -0.1649  0.3336 -0.0473
  254MOL0     C34952  10.848   4.457   5.101  0.7214 -0.0646  0.6222
  254MOL0     C34953  10.743   4.525   5.195  0.2430 -0.0013 -0.1515
  254MOL0     C34954  10.788   4.537   5.339 -0.1662 -0.7751 -0.2257
  254MOL0     C34955  10.885   4.650   5.372 -0.6883 -0.4190 -0.5772
  254MOL0     C34956  10.887   4.689   5.523  0.1297 -0.2334 -0.1572
  254MOL0     C34957  10.971   4.804   5.566 -0.2416 -0.0939 -0.6357
  254MOL0     C34958  10.954   4.840   5.714 -0.2857 -0.0498 -0.0914
  254MOL0    Cl34959  10.972   4.700   5.814 -0.5957  0.0536  0.5709
  254MOL0     C34960  10.700   4.181   4.803  0.0484 -0.0499 -0.0591
  254MOL0     C34961  10.632   4.099   4.715  0.0173 -0.2670 -0.3169
  254MOL0     O34962  10.330   4.173   4.437  0.3746 -0.5430 -0.8460
  254MOL0     C34963  10.514   3.985   4.219 -0.3896  0.1403  0.1763
  254MOL0     C34964  10.520   3.891   4.117  0.4239 -0.7125 -0.1488
  254MOL0     N34965  10.613   4.012   3.567 -0.0174  0.6640 -0.2299
  254MOL0     N34966  10.704   4.095   3.614  0.5941  0.0054 -0.6193
  254MOL0     C34967  11.259   3.740   4.504 -0.9787  0.9043 -0.6024
  254MOL0     C34968  11.263   3.793   4.634  0.1236  1.3555 -0.1489
  254MOL0     C34969  11.172   4.172   4.859 -0.5546 -0.2325  0.0993
  254MOL0     C34970  11.255   4.171   4.972 -0.4916 -0.0149 -1.1517
  254MOL0     C34971  11.272   4.287   5.051  0.2941  0.0247 -0.7219
  254MOL0     C34972  11.208   4.408   5.018  0.1734 -0.7595  0.7544
  254MOL0     O34973  11.226   4.519   5.102  0.1889  0.5351 -0.5539
  254MOL0     C34974  11.189   4.649   5.053 -0.2022 -0.7531  1.0263
  254MOL0     C34975  11.273   4.705   4.944  0.4708  0.2420  0.0544
  254MOL0     C34976  11.270   4.863   4.943 -0.1449 -0.0998 -0.0345
  254MOL0     C34977  11.370   4.937   4.849  0.6628  0.0787  0.5394
  254MOL0     C34978  11.369   4.882   4.711 -0.5538  0.4969  0.3243
  254MOL0     C34979  11.404   4.829   4.605  0.6076 -0.7927 -0.0113
  254MOL0     C34980  11.135   4.411   4.900  1.3911 -0.1214  0.2110
  254MOL0     C34981  11.110   4.297   4.820 -0.2568  0.3525 -0.5325
  254MOL0     C34982  11.042   4.310   4.688 -0.1812  1.4023  0.2446
  254MOL0     H34983  11.449   4.069   4.598  2.1417  0.1156 -0.8446
  254MOL0     H34984  11.457   3.976   4.368 -2.4414  3.1647  0.0582
  254MOL0     H34985  11.112   3.768   4.265  0.6027 -0.9757  1.9664
  254MOL0     H34986  11.201   3.619   4.267 -1.9933  0.1471  0.8202
  254MOL0     H34987  11.228   3.792   4.006  1.7103 -0.7624  0.1454
  254MOL0     H34988  11.278   3.631   4.054  0.9489  0.0898  1.9134
  254MOL0     H34989  11.066   3.609   3.924  2.5037  1.3883 -0.9027
  254MOL0     H34990  11.022   3.580   4.084 -1.5979  0.7776  0.5433
  254MOL0     H34991  10.848   3.716   4.014  0.6675 -0.6146 -1.2446
  254MOL0     H34992  10.943   3.824   4.127  0.4857  1.5857 -1.6456
  254MOL0     H34993  10.990   3.843   3.837  0.7643 -0.6147  0.0685
  254MOL0     H34994  11.063   3.934   3.974  0.0283 -4.5377  1.6580
  254MOL0     H34995  10.756   3.953   3.874 -2.3495  1.5523  0.3445
  254MOL0     H34996  10.810   4.012   4.034 -1.6073  0.2740 -0.7933
  254MOL0     H34997  10.978   4.152   3.904  2.0430 -1.5624 -1.2018
  254MOL0     H34998  10.811   4.177   3.856  1.0730  1.2056  0.7787
  254MOL0     H34999  10.967   4.159   3.651  1.5647 -1.0377 -1.3231
  254MOL0     H35000  11.007   3.993   3.707 -2.5723 -3.0990 -3.0966
  254MOL0     H35001  10.868   3.817   3.595  0.4958  1.0225  0.7222
  254MOL0     H35002  10.646   3.684   3.471 -2.4347  0.6784 -3.5857
  254MOL0     H35003  10.505   3.778   3.511  0.0348 -0.0553  1.8218
  254MOL0     H35004  10.574   3.571   3.658 -0.1929  0.6170  1.6365
  254MOL0     H35005  10.698   3.678   3.717  0.6050  1.4911  0.2164
  254MOL0     H35006  10.488   3.834   3.776  2.8190 -0.2622  0.8142
  254MOL0     H35007  10.386   3.691   3.745 -1.4414  2.8148  0.6169
  254MOL0     H35008  10.508   3.564   3.910 -0.5686 -0.1484  0.8454
  254MOL0     H35009  10.594   3.712   3.962  0.9281 -1.1255 -1.1025
  254MOL0     H35010  10.237   3.730   4.199  1.2071 -0.6489  1.1902
  254MOL0     H35011  10.131   3.980   4.391 -1.3339  0.2930  1.4088
  254MOL0     H35012  10.237   3.875   4.506  2.8716 -0.8743 -0.5285
  254MOL0     H35013  10.129   3.801   4.394 -1.2515  1.8173 -7.5201
  254MOL0     H35014  10.519   4.335   4.517  0.1594  1.6658  0.5431
  254MOL0     H35015  10.624   4.473   4.671 -0.5544 -1.2233 -2.5916
  254MOL0     H35016  10.696   4.314   5.058  0.6599 -0.9550  0.3993
  254MOL0     H35017  10.855   4.274   5.018 -1.8363 -1.1439 -0.5091
  254MOL0     H35018  10.930   4.411   5.156 -0.8822 -3.3630  0.4483
  254MOL0     H35019  10.887   4.544   5.047 -3.2659  0.0709 -2.5837
  254MOL0     H35020  10.652   4.464   5.193  0.8698 -0.9548 -2.3482
  254MOL0     H35021  10.729   4.621   5.146 -1.9703 -1.2727 -2.2255
  254MOL0     H35022  10.832   4.443   5.374 -0.0368 -1.2623 -1.6536
  254MOL0     H35023  10.702   4.560   5.402 -0.5478 -0.1990 -0.9534
  254MOL0     H35024  10.984   4.625   5.333 -0.5003 -1.3590  0.4432
  254MOL0     H35025  10.854   4.738   5.315 -5.0410 -0.4546  1.3760
  254MOL0     H35026  10.917   4.600   5.578 -0.9448 -1.2282 -1.1372
  254MOL0     H35027  10.783   4.707   5.552 -1.4872 -4.1729 -2.6723
  254MOL0     H35028  10.933   4.891   5.512  2.3509  1.6222  0.0941
  254MOL0     H35029  11.079   4.791   5.550  0.1327  2.5193 -0.7842
  254MOL0     H35030  10.855   4.884   5.726  0.4234  1.4763  0.4196
  254MOL0     H35031  11.034   4.909   5.742 -1.1943  1.6847 -1.5543
  254MOL0     H35032  10.756   4.125   4.877  0.5243 -2.0188 -1.8013
  254MOL0     H35033  10.642   3.991   4.725 -0.4868 -0.4278 -1.3762
  254MOL0     H35034  10.596   4.054   4.237  0.6041 -1.0302  0.3380
  254MOL0     H35035  10.606   3.904   4.052  1.0675  1.3235  1.0120
  254MOL0     H35036  11.210   3.645   4.487 -0.1159 -0.2557  2.5639
  254MOL0     H35037  11.191   3.740   4.696 -1.2447  2.0244 -1.1168
  254MOL0     H35038  11.306   4.084   5.013  0.0550  0.5160 -0.6870
  254MOL0     H35039  11.333   4.300   5.140  0.8837 -0.7131 -1.0077
  254MOL0     H35040  11.083   4.653   5.027  0.3787  2.9050 -1.4971
  254MOL0     H35041  11.196   4.714   5.141  0.4684  0.3271  0.2016
  254MOL0     H35042  11.237   4.667   4.848 -2.2412  0.8514  0.7398
  254MOL0     H35043  11.374   4.663   4.953 -0.2847 -1.8109 -0.4602
  254MOL0     H35044  11.164   4.888   4.929 -0.4233 -1.4464 -0.4548
  254MOL0     H35045  11.304   4.891   5.043 -2.6702  3.8084 -0.0653
  254MOL0     H35046  11.466   4.934   4.901 -0.3970 -0.9647  2.5764
  254MOL0     H35047  11.326   5.037   4.843 -0.4794 -0.1367  3.4643
  254MOL0     H35048  11.422   4.795   4.505 -1.5582 -0.4103 -0.5841
  254MOL0     H35049  11.083   4.500   4.863 -1.1468 -2.1047 -1.3988
  254MOL0     H35050  10.971   4.393   4.685 -0.8020  1.0036  2.2687
  254MOL0     H35051  11.108   4.334   4.604 -0.5443 -0.9940 -0.8111
  254MOL0     H35052  10.990   4.217   4.663  1.0763  1.1457 -1.5606
  255MOL0     O35053   5.615   3.564   4.707  0.5619 -0.0316 -0.0988
  255MOL0     C35054   5.607   3.636   4.807 -0.0720  0.6665 -0.3753
  255MOL0     O35055   5.684   3.616   4.927  0.0851  0.2355  0.0768
  255MOL0     C35056   5.759   3.509   4.943  0.4698  0.0323  0.5614
  255MOL0     C35057   5.857   3.529   5.037  0.5744  0.0298  0.3948
  255MOL0     C35058   5.945   3.428   5.075  0.2501  0.2573  0.0358
  255MOL0     C35059   5.938   3.294   5.016  0.7609 -0.1227 -0.8604
  255MOL0     O35060   6.035   3.207   5.069 -0.2394  1.1166  0.2411
  255MOL0     C35061   6.048   3.078   5.011 -0.0758  0.9965  0.7824
  255MOL0     C35062   6.172   2.998   5.066  0.1015  0.7399 -0.4012
  255MOL0     C35063   6.305   3.024   4.990  0.4916  0.0457  0.5959
  255MOL0     C35064   6.333   2.887   4.928  0.9888  0.3364 -0.3584
  255MOL0     C35065   6.475   2.885   4.877  0.4040  0.5202 -0.7748
  255MOL0     C35066   6.505   2.750   4.820  0.1137  0.1298  0.1740
  255MOL0     C35067   6.505   2.638   4.928 -0.0060 -0.9932  0.2985
  255MOL0     C35068   6.533   2.498   4.871  0.5601 -0.4873 -0.3140
  255MOL0     N35069   6.411   2.428   4.822  0.3998 -0.5186  0.1483
  255MOL0     C35070   6.326   2.468   4.723 -0.2711  0.6288  0.0546
  255MOL0     C35071   6.219   2.380   4.730 -0.2660  0.8916  0.4822
  255MOL0     C35072   6.099   2.370   4.646 -0.1837 -0.2157 -0.1215
  255MOL0     C35073   6.000   2.471   4.700  0.6475 -0.1551 -0.1046
  255MOL0     C35074   5.859   2.482   4.628  0.5305 -0.2456  0.1165
  255MOL0     C35075   5.783   2.352   4.619  1.1663  0.1885  1.0400
  255MOL0     O35076   5.706   2.323   4.729  0.3170  0.8860 -0.6871
  255MOL0     C35077   5.632   2.197   4.714 -0.1959 -0.3847 -0.4744
  255MOL0     C35078   5.690   2.069   4.717 -0.5995 -1.2091  0.6086
  255MOL0     C35079   5.618   1.957   4.680 -0.3878 -0.3331 -0.3007
  255MOL0     C35080   5.703   1.834   4.655 -0.6407  0.7679  0.6472
  255MOL0     C35081   5.477   1.970   4.661 -0.2061 -0.7818  1.2380
  255MOL0     C35082   5.387   1.855   4.606 -1.0761  0.7253 -0.1005
  255MOL0     O35083   5.439   1.728   4.581  0.4272 -0.3257 -0.4158
  255MOL0     C35084   5.351   1.632   4.537  0.2966  0.1883  0.7793
  255MOL0     C35085   5.275   1.555   4.618  0.0517 -0.9664  0.1291
  255MOL0     C35086   5.189   1.459   4.572  0.7562  0.6326 -0.1759
  255MOL0     C35087   5.170   1.435   4.436  0.4513  0.2157  0.0503
  255MOL0     O35088   5.073   1.361   4.377 -0.1556 -0.0021 -0.0427
  255MOL0     C35089   4.974   1.289   4.462  1.0849 -0.5654  1.2028
  255MOL0     C35090   4.859   1.386   4.503  1.0812  0.6427 -0.0474
  255MOL0     C35091   4.762   1.433   4.403  0.2404 -0.4906  0.6743
  255MOL0     C35092   4.630   1.479   4.454 -0.5018 -0.5751 -0.4937
  255MOL0     C35093   4.538   1.374   4.513 -0.0190  0.4621 -0.6973
  255MOL0     C35094   4.444   1.443   4.613  0.3788 -0.1248 -0.1314
  255MOL0     C35095   4.339   1.347   4.667  1.0011  0.4399  1.3161
  255MOL0     C35096   4.266   1.421   4.778 -0.8850  0.8159  0.1274
  255MOL0    Cl35097   4.165   1.554   4.715 -0.3658 -0.0285  0.2668
  255MOL0     C35098   5.253   1.507   4.354 -0.4349  0.3408 -0.8566
  255MOL0     C35099   5.344   1.604   4.397 -1.2718 -0.2998 -0.7557
  255MOL0     O35100   5.269   1.876   4.613 -0.3148 -1.0381 -0.6068
  255MOL0     C35101   5.423   2.096   4.666 -0.0704  1.0261 -0.2936
  255MOL0     C35102   5.500   2.207   4.707  0.2344  0.2225  0.5040
  255MOL0     N35103   6.237   2.290   4.839  0.6138 -1.0443 -0.2154
  255MOL0     N35104   6.356   2.324   4.890  0.4423  0.0758  0.6687
  255MOL0     C35105   5.841   3.270   4.918 -0.3035  0.5374  0.3265
  255MOL0     C35106   5.745   3.379   4.877 -0.3328 -0.5460 -0.0621
  255MOL0     C35107   5.514   3.757   4.798 -0.9365  0.2696 -0.2624
  255MOL0     C35108   5.495   3.807   4.669 -1.3128 -0.5003  0.0313
  255MOL0     C35109   5.403   3.911   4.650 -0.1434  0.2261  1.2515
  255MOL0     C35110   5.335   3.962   4.756 -0.8489 -0.4695  1.1434
  255MOL0     O35111   5.235   4.058   4.756 -0.6892  0.4622  0.4700
  255MOL0     C35112   5.201   4.130   4.631  0.0006  1.3268 -0.1495
  255MOL0     C35113   5.084   4.230   4.646 -0.3875 -0.0640  0.1264
  255MOL0     C35114   4.957   4.168   4.710 -0.1777  0.1782  0.2395
  255MOL0     C35115   4.852   4.268   4.744  0.4325 -0.1210 -0.3818
  255MOL0     C35116   4.776   4.309   4.635  0.2629  0.5970  0.5507
  255MOL0     C35117   4.720   4.335   4.532 -0.3416 -0.3606 -0.5273
  255MOL0     C35118   5.359   3.919   4.882  0.4073 -0.2964  0.6276
  255MOL0     C35119   5.441   3.807   4.905  0.7998 -0.0249 -0.8963
  255MOL0     C35120   5.456   3.760   5.056  0.8313 -0.2435 -0.0951
  255MOL0     H35121   5.872   3.621   5.093 -0.4357 -1.4261  3.2732
  255MOL0     H35122   6.030   3.436   5.143  0.5741 -0.0184 -0.3303
  255MOL0     H35123   6.064   3.081   4.903  2.6746 -1.8429  0.9425
  255MOL0     H35124   5.955   3.021   5.014 -1.5898  2.8853 -3.6332
  255MOL0     H35125   6.182   3.027   5.171 -3.0116  1.4215 -0.1857
  255MOL0     H35126   6.143   2.892   5.062 -1.8800  1.2615 -1.2800
  255MOL0     H35127   6.280   3.103   4.919 -1.1424  0.1940  1.3006
  255MOL0     H35128   6.385   3.052   5.061  1.6768 -2.1282  0.1978
  255MOL0     H35129   6.322   2.821   5.015 -0.2713  3.3691  1.9316
  255MOL0     H35130   6.261   2.854   4.853 -0.9210  1.6921  0.7850
  255MOL0     H35131   6.538   2.893   4.965  1.5190 -4.0154 -0.9274
  255MOL0     H35132   6.499   2.954   4.795 -1.5106  3.7372  1.1658
  255MOL0     H35133   6.431   2.722   4.745 -1.0284  0.3548  1.1784
  255MOL0     H35134   6.605   2.761   4.778  0.7173  0.1818  1.5443
  255MOL0     H35135   6.405   2.643   4.971  1.5317 -0.9051  4.3339
  255MOL0     H35136   6.575   2.660   5.009  1.7091 -2.7575 -0.5904
  255MOL0     H35137   6.603   2.497   4.787  2.2052 -1.7845  0.9935
  255MOL0     H35138   6.581   2.442   4.952 -0.0830 -0.8283 -0.1682
  255MOL0     H35139   6.339   2.555   4.659  0.4706 -0.1121 -0.8364
  255MOL0     H35140   6.069   2.265   4.652  2.0817 -0.8733  0.4905
  255MOL0     H35141   6.119   2.401   4.543 -2.6891  3.8546  0.3951
  255MOL0     H35142   5.970   2.448   4.802  2.6150 -1.7377  0.1834
  255MOL0     H35143   6.049   2.569   4.701 -1.1982  0.8151  1.8524
  255MOL0     H35144   5.791   2.554   4.675 -0.0537  0.2659 -1.4414
  255MOL0     H35145   5.880   2.529   4.532 -1.3596 -0.2271 -0.3116
  255MOL0     H35146   5.714   2.362   4.534 -0.2184  0.0334  2.1189
  255MOL0     H35147   5.848   2.268   4.589  3.1136  0.5181  3.8934
  255MOL0     H35148   5.797   2.071   4.736 -1.1780 -0.5526  4.5274
  255MOL0     H35149   5.702   1.818   4.546  2.3830  3.6468  0.0442
  255MOL0     H35150   5.653   1.750   4.704  0.0550 -0.1380 -0.1542
  255MOL0     H35151   5.809   1.840   4.678 -0.0864 -0.7053 -1.2295
  255MOL0     H35152   5.286   1.559   4.726  0.3383 -2.4660  0.1829
  255MOL0     H35153   5.127   1.414   4.649 -0.4919  3.2126  0.4725
  255MOL0     H35154   4.941   1.206   4.399  0.4262  0.0748  0.6908
  255MOL0     H35155   5.007   1.246   4.557 -1.5128 -1.7895  1.6184
  255MOL0     H35156   4.805   1.323   4.574 -0.4055  2.7206  0.7289
  255MOL0     H35157   4.902   1.471   4.556  2.7304  0.4129 -0.9284
  255MOL0     H35158   4.744   1.365   4.319  0.5929  0.6349 -0.3342
  255MOL0     H35159   4.814   1.510   4.346  1.6518 -0.7406  1.5666
  255MOL0     H35160   4.581   1.521   4.365  2.2303  1.8004 -1.0141
  255MOL0     H35161   4.646   1.559   4.526  0.1629  2.1205 -3.4206
  255MOL0     H35162   4.496   1.327   4.424 -0.6226  0.1689 -0.2665
  255MOL0     H35163   4.594   1.297   4.566 -1.9136 -1.2771 -1.1237
  255MOL0     H35164   4.397   1.530   4.565  0.0160 -0.8029 -1.0277
  255MOL0     H35165   4.507   1.479   4.694 -2.0497  0.5419  1.5872
  255MOL0     H35166   4.386   1.255   4.703  1.7540 -0.2481 -1.2209
  255MOL0     H35167   4.266   1.325   4.589  2.0812  0.3011  0.3056
  255MOL0     H35168   4.331   1.448   4.862 -1.2100  0.1351  0.6106
  255MOL0     H35169   4.202   1.343   4.822  0.4434 -1.7297 -2.1418
  255MOL0     H35170   5.272   1.467   4.254  0.1130 -1.4796 -0.0609
  255MOL0     H35171   5.408   1.660   4.329 -1.2825 -0.0788 -0.5838
  255MOL0     H35172   5.316   2.114   4.658 -0.2661  0.7966  1.4737
  255MOL0     H35173   5.455   2.306   4.708  0.3398  0.2746  0.2322
  255MOL0     H35174   5.822   3.175   4.870 -2.0319  1.3797 -0.7973
  255MOL0     H35175   5.671   3.364   4.799  1.7153  2.1238 -2.7192
  255MOL0     H35176   5.541   3.766   4.579  1.5490 -0.7632  1.4762
  255MOL0     H35177   5.385   3.935   4.545  3.8698  0.1195  0.3886
  255MOL0     H35178   5.296   4.180   4.606  0.4239  1.3065  1.3234
  255MOL0     H35179   5.173   4.051   4.561  1.5652  1.1577 -0.6258
  255MOL0     H35180   5.053   4.271   4.549 -0.9168  0.7645  0.6342
  255MOL0     H35181   5.127   4.313   4.704  2.1399  1.6269 -3.7162
  255MOL0     H35182   4.913   4.103   4.634  2.0995 -0.0816 -0.9392
  255MOL0     H35183   4.988   4.112   4.798  1.0949  0.9511  0.2968
  255MOL0     H35184   4.904   4.353   4.790  2.2188 -0.9823 -0.7290
  255MOL0     H35185   4.788   4.212   4.813  2.5888 -2.6729 -0.2887
  255MOL0     H35186   4.664   4.356   4.444 -2.7012 -2.4568  0.3548
  255MOL0     H35187   5.292   3.964   4.955 -2.5097 -0.1261 -1.9416
  255MOL0     H35188   5.527   3.820   5.114  0.2422 -0.9488  1.3847
  255MOL0     H35189   5.358   3.767   5.103 -0.3720 -2.7757 -1.9861
  255MOL0     H35190   5.484   3.655   5.058  0.6454 -0.3085 -0.6661
  256MOL0     O35191   9.398   7.173   1.408 -0.2655  0.6831 -0.3775
  256MOL0     C35192   9.449   7.248   1.329  0.4446  0.2300  0.1861
  256MOL0     O35193   9.503   7.367   1.364 -0.0675 -0.4570  0.5552
  256MOL0     C35194   9.479   7.417   1.492 -0.2895 -0.1328  0.2953
  256MOL0     C35195   9.356   7.486   1.526 -0.3847  1.1873  0.5904
  256MOL0     C35196   9.336   7.534   1.660 -0.5268 -0.2467 -0.2941
  256MOL0     C35197   9.439   7.514   1.758  1.1214  0.2502  1.2893
  256MOL0     O35198   9.427   7.543   1.891 -0.9558 -0.1877 -1.2993
  256MOL0     C35199   9.330   7.641   1.935 -0.8280  0.6585  0.4014
  256MOL0     C35200   9.298   7.627   2.084 -0.1380 -0.4099  0.1023
  256MOL0     C35201   9.418   7.671   2.169 -0.9193  0.0498  0.0663
  256MOL0     C35202   9.429   7.826   2.179  0.3055  1.0866  0.8359
  256MOL0     C35203   9.572   7.850   2.247 -0.2347 -0.8860  0.2767
  256MOL0     C35204   9.558   7.871   2.396 -0.6134  0.8031 -0.7632
  256MOL0     C35205   9.706   7.876   2.460 -0.0715  0.4171  0.5535
  256MOL0     C35206   9.677   7.833   2.604  0.1640 -0.6314 -0.6152
  256MOL0     N35207   9.794   7.834   2.700 -0.3808  0.1899  0.6332
  256MOL0     C35208   9.867   7.725   2.724 -0.4206 -0.4326 -0.2374
  256MOL0     C35209   9.991   7.768   2.759  0.4564  0.9343 -0.3083
  256MOL0     C35210  10.098   7.673   2.821  0.2247 -0.8991  0.5138
  256MOL0     C35211  10.214   7.640   2.731  0.3565  0.4961  0.8209
  256MOL0     C35212  10.274   7.505   2.776 -0.6860 -0.0520 -0.8065
  256MOL0     C35213  10.406   7.495   2.708 -0.3732  0.4429  0.3290
  256MOL0     O35214  10.394   7.409   2.582 -0.1230  0.1710 -0.1944
  256MOL0     C35215  10.518   7.367   2.531  0.0454  1.1944  0.1523
  256MOL0     C35216  10.534   7.343   2.395 -0.2878 -0.0216 -0.2541
  256MOL0     C35217  10.659   7.287   2.341  0.0254  0.2593 -0.8252
  256MOL0     C35218  10.675   7.274   2.188 -0.2621 -0.0893  0.0007
  256MOL0     C35219  10.763   7.253   2.430  0.9831 -0.4652 -0.9485
  256MOL0     C35220  10.892   7.201   2.381 -0.1707 -0.7507  0.4157
  256MOL0     O35221  10.904   7.127   2.259  1.3837 -0.4899 -1.0139
  256MOL0     C35222  11.017   7.081   2.203  0.4127  0.7053 -0.8654
  256MOL0     C35223  11.128   7.031   2.271 -0.1589 -0.0372 -0.7785
  256MOL0     C35224  11.225   6.974   2.195 -0.3063  0.6690  0.1242
  256MOL0     C35225  11.217   6.957   2.051  0.3727 -0.2866 -0.4556
  256MOL0     O35226  11.322   6.915   1.976  0.5534  1.6631 -0.1600
  256MOL0     C35227  11.298   6.875   1.844  0.5627  0.3286  0.4186
  256MOL0     C35228  11.421   6.809   1.777 -0.0986  0.7217  0.5098
  256MOL0     C35229  11.554   6.890   1.770 -0.7984 -0.5731 -0.5627
  256MOL0     C35230  11.686   6.807   1.788  0.0150 -0.0845  0.1335
  256MOL0     C35231  11.804   6.907   1.774 -0.5274  0.1906  0.0827
  256MOL0     C35232  11.943   6.854   1.793 -0.5342 -0.5078  1.2742
  256MOL0     C35233  11.973   6.753   1.688  0.0153 -0.1875 -0.1730
  256MOL0     C35234  12.124   6.733   1.665 -0.1995 -0.4787 -0.4600
  256MOL0    Cl35235  12.188   6.843   1.549  0.0225  0.1739 -0.3165
  256MOL0     C35236  11.095   7.007   1.989  0.2555 -1.0243 -0.1691
  256MOL0     C35237  11.002   7.073   2.061  0.4946 -1.0763  0.1527
  256MOL0     O35238  10.978   7.209   2.464 -0.1299 -0.0846  0.6630
  256MOL0     C35239  10.743   7.280   2.569 -0.3549 -0.6218  1.3723
  256MOL0     C35240  10.623   7.341   2.619 -0.6297  0.0023 -0.2757
  256MOL0     N35241   9.997   7.905   2.739  1.2287  0.5459  0.5861
  256MOL0     N35242   9.872   7.944   2.708 -0.1394 -0.6415  0.1296
  256MOL0     C35243   9.550   7.445   1.720  0.3241  0.7862 -0.7736
  256MOL0     C35244   9.577   7.400   1.593  1.2475  0.2094 -0.1453
  256MOL0     C35245   9.475   7.204   1.186 -0.0402  0.9029  0.2247
  256MOL0     C35246   9.563   7.278   1.106 -0.5766  0.3843  0.2408
  256MOL0     C35247   9.597   7.225   0.982 -0.9671 -0.5044  0.3828
  256MOL0     C35248   9.552   7.102   0.929 -0.6531  0.2963  0.3136
  256MOL0     O35249   9.614   7.042   0.815  0.1990 -0.1216  0.5029
  256MOL0     C35250   9.593   6.898   0.787 -0.1372 -0.8675 -0.9513
  256MOL0     C35251   9.699   6.833   0.697  0.0184 -0.2060 -0.8673
  256MOL0     C35252   9.845   6.854   0.743  0.1521  0.3887  0.1644
  256MOL0     C35253   9.948   6.799   0.646 -0.7700 -0.3387 -1.5657
  256MOL0     C35254   9.940   6.854   0.517  1.0261  0.2204  0.3475
  256MOL0     C35255   9.893   6.908   0.413  0.1174 -0.2285  1.2918
  256MOL0     C35256   9.447   7.041   1.001 -0.1864  0.1653 -1.0166
  256MOL0     C35257   9.410   7.084   1.128  0.2650 -0.3028 -0.6301
  256MOL0     C35258   9.296   7.016   1.197 -1.1441 -0.4279 -0.2599
  256MOL0     H35259   9.273   7.502   1.458 -0.9600 -2.5159  0.2249
  256MOL0     H35260   9.244   7.589   1.677 -1.8561 -1.7728 -2.0787
  256MOL0     H35261   9.232   7.626   1.890 -0.5028  1.5178 -0.6219
  256MOL0     H35262   9.372   7.737   1.903 -0.7744 -0.2510 -2.4663
  256MOL0     H35263   9.209   7.683   2.114 -1.7870 -3.2186  0.8493
  256MOL0     H35264   9.265   7.523   2.099  1.7428 -0.7403  2.6819
  256MOL0     H35265   9.411   7.615   2.263 -1.1633  0.2056  0.1419
  256MOL0     H35266   9.504   7.625   2.120 -0.9665 -3.4889  2.8660
  256MOL0     H35267   9.438   7.871   2.079 -2.6307  2.2143  0.9693
  256MOL0     H35268   9.339   7.871   2.221 -0.5301  0.7536 -0.5231
  256MOL0     H35269   9.622   7.941   2.212 -0.4791  0.1989  2.6173
  256MOL0     H35270   9.648   7.775   2.224  1.8142  0.7842  1.3168
  256MOL0     H35271   9.502   7.963   2.418  0.8269  1.8620 -1.4042
  256MOL0     H35272   9.499   7.786   2.432 -0.6799  1.6881  1.4268
  256MOL0     H35273   9.760   7.969   2.439 -1.0159  0.4537 -1.9371
  256MOL0     H35274   9.772   7.793   2.434  2.2460  2.9509 -2.4949
  256MOL0     H35275   9.599   7.900   2.644  0.9457 -0.8316  1.3834
  256MOL0     H35276   9.645   7.729   2.604 -2.0013 -0.0329  0.7747
  256MOL0     H35277   9.850   7.618   2.728  0.5130 -0.5410  2.3040
  256MOL0     H35278  10.043   7.590   2.867 -2.6747  0.3511 -0.4547
  256MOL0     H35279  10.142   7.726   2.906 -1.6850  3.3745 -0.8651
  256MOL0     H35280  10.179   7.645   2.627  1.4155  1.9608  0.4978
  256MOL0     H35281  10.287   7.717   2.757  0.7501  0.1170  0.8444
  256MOL0     H35282  10.280   7.508   2.885 -2.9594 -1.1204 -0.5824
  256MOL0     H35283  10.211   7.416   2.766  0.8740 -1.8496  3.3986
  256MOL0     H35284  10.439   7.596   2.683  1.1295  0.4950  2.2782
  256MOL0     H35285  10.471   7.445   2.781  0.4451 -0.4759 -0.9763
  256MOL0     H35286  10.445   7.352   2.333 -0.1666 -1.6781 -0.7209
  256MOL0     H35287  10.581   7.301   2.140 -1.8580  3.6478  4.5357
  256MOL0     H35288  10.693   7.174   2.147 -3.3985 -0.9059  0.3793
  256MOL0     H35289  10.750   7.350   2.166  2.1375 -2.1050  0.6371
  256MOL0     H35290  11.145   7.058   2.375  0.3061  1.4426 -1.2208
  256MOL0     H35291  11.321   6.948   2.238 -1.2241 -0.3719  1.6298
  256MOL0     H35292  11.231   6.789   1.834  0.0259  0.7561  0.3246
  256MOL0     H35293  11.269   6.958   1.779 -0.1613  0.7035  1.2090
  256MOL0     H35294  11.449   6.719   1.832  0.0966  3.0342  4.6188
  256MOL0     H35295  11.387   6.791   1.675  1.4301 -0.1136  0.1192
  256MOL0     H35296  11.560   6.960   1.854  0.5347 -1.2893 -0.0302
  256MOL0     H35297  11.549   6.929   1.668 -0.8151 -0.8316 -0.6612
  256MOL0     H35298  11.689   6.728   1.712 -0.1074  0.6126 -0.6028
  256MOL0     H35299  11.691   6.758   1.886 -2.3112  2.3015  1.5785
  256MOL0     H35300  11.797   6.943   1.671  0.5546 -0.3063 -0.1845
  256MOL0     H35301  11.794   6.990   1.844  2.2078  0.9957 -0.3589
  256MOL0     H35302  11.950   6.821   1.897  3.2073 -1.2599  0.9205
  256MOL0     H35303  12.012   6.938   1.782  0.2118 -1.2824 -0.2380
  256MOL0     H35304  11.919   6.779   1.597 -2.1033 -0.2091  1.0106
  256MOL0     H35305  11.923   6.658   1.710 -1.5815 -0.1073 -2.9729
  256MOL0     H35306  12.130   6.635   1.615  1.2888 -1.3199  1.2440
  256MOL0     H35307  12.183   6.724   1.757  1.0705 -1.1361 -1.2992
  256MOL0     H35308  11.089   7.005   1.881 -0.1785  1.9986 -0.2862
  256MOL0     H35309  10.922   7.121   2.006  0.5518 -0.1888  0.8155
  256MOL0     H35310  10.816   7.252   2.644 -0.1711  4.5036  3.5633
  256MOL0     H35311  10.611   7.343   2.727 -0.3645  2.7756 -0.2292
  256MOL0     H35312   9.629   7.421   1.790  2.0309  2.0439 -2.2016
  256MOL0     H35313   9.648   7.318   1.587 -1.2813 -2.1476  0.0443
  256MOL0     H35314   9.604   7.375   1.130  2.3883 -0.7178  0.0732
  256MOL0     H35315   9.670   7.280   0.924 -2.2014  1.7863  0.8542
  256MOL0     H35316   9.588   6.850   0.885  2.1748  0.7377  0.0312
  256MOL0     H35317   9.490   6.891   0.752  0.0135 -1.4553 -1.2808
  256MOL0     H35318   9.676   6.876   0.599 -2.5587  0.7780  0.0731
  256MOL0     H35319   9.681   6.725   0.689  1.0419 -0.2916 -2.1815
  256MOL0     H35320   9.868   6.960   0.758 -4.0330  1.5252 -0.2760
  256MOL0     H35321   9.867   6.809   0.840  1.2389 -2.0032 -1.1233
  256MOL0     H35322   9.923   6.693   0.642 -2.8117  0.0951 -1.8270
  256MOL0     H35323  10.051   6.816   0.677 -1.2081 -0.1093 -0.1456
  256MOL0     H35324   9.864   6.952   0.320  4.2856  0.4181  0.1089
  256MOL0     H35325   9.397   6.959   0.951  1.9320 -0.2147 -2.6772
  256MOL0     H35326   9.232   6.955   1.132  1.8677 -4.4676  0.1316
  256MOL0     H35327   9.335   6.949   1.274 -0.5451  0.6763  0.4071
  256MOL0     H35328   9.238   7.097   1.240 -0.7266  0.4469 -1.3102
  257MOL0     O35329  11.612   8.863   3.972 -0.7074  0.5932 -0.2695
  257MOL0     C35330  11.666   8.863   3.859 -1.6939 -0.4725 -0.1093
  257MOL0     O35331  11.602   8.863   3.739 -0.1397  0.0807 -0.3001
  257MOL0     C35332  11.493   8.791   3.739  0.3724  0.8350  0.1338
  257MOL0     C35333  11.507   8.645   3.739 -0.1702 -0.0610  0.3899
  257MOL0     C35334  11.395   8.564   3.761  0.6719 -0.1888 -0.7765
  257MOL0     C35335  11.271   8.627   3.781  0.8303 -1.3562  1.0948
  257MOL0     O35336  11.152   8.566   3.784 -0.0914 -0.5029  0.1554
  257MOL0     C35337  11.127   8.481   3.675  0.9869 -0.5879  0.7497
  257MOL0     C35338  10.983   8.502   3.644 -0.1477 -0.6026 -0.0378
  257MOL0     C35339  10.869   8.472   3.746 -0.2526 -0.1430 -0.0414
  257MOL0     C35340  10.872   8.329   3.816  0.2351 -0.0917 -1.0943
  257MOL0     C35341  10.756   8.320   3.912  0.4531 -0.2901 -0.5203
  257MOL0     C35342  10.775   8.190   4.011 -0.6195  0.1853  0.3427
  257MOL0     C35343  10.758   8.058   3.932 -0.5715 -0.9309 -0.4316
  257MOL0     C35344  10.712   7.947   4.017 -0.1767 -0.2508  0.3565
  257MOL0     N35345  10.711   7.828   3.937  0.2077 -0.7948 -0.1740
  257MOL0     C35346  10.818   7.763   3.876  0.6150 -0.2279 -0.2100
  257MOL0     C35347  10.755   7.658   3.812 -0.3279 -0.2992 -0.0001
  257MOL0     C35348  10.819   7.559   3.727 -0.7187  0.4548  0.8815
  257MOL0     C35349  10.857   7.612   3.589  0.3251  0.3314 -0.1131
  257MOL0     C35350  10.737   7.659   3.507  0.2996  0.9268 -0.2650
  257MOL0     C35351  10.774   7.644   3.366  1.1190  0.2689 -0.6831
  257MOL0     O35352  10.883   7.728   3.344 -0.4677  0.2138 -0.0565
  257MOL0     C35353  10.974   7.687   3.245 -0.1126  0.5191 -0.2459
  257MOL0     C35354  11.068   7.787   3.212  0.6531 -0.0515  0.6635
  257MOL0     C35355  11.141   7.779   3.092 -1.0452  0.3662 -0.5180
  257MOL0     C35356  11.242   7.891   3.078  0.3243 -0.6714 -0.2416
  257MOL0     C35357  11.144   7.659   3.017  0.9788 -0.5505  1.2342
  257MOL0     C35358  11.231   7.630   2.898  0.4314  0.2879 -0.2827
  257MOL0     O35359  11.228   7.498   2.845  0.0789 -0.1643 -0.4203
  257MOL0     C35360  11.306   7.458   2.741  0.4465  0.6925 -0.1379
  257MOL0     C35361  11.443   7.497   2.726  0.4581 -0.2671  0.2671
  257MOL0     C35362  11.525   7.438   2.622 -0.7604 -0.6563  0.9890
  257MOL0     C35363  11.468   7.352   2.531  0.4547  0.2890  0.8744
  257MOL0     O35364  11.536   7.291   2.423  0.1401 -0.3990  0.5313
  257MOL0     C35365  11.680   7.307   2.406  0.0310  0.0049  0.2286
  257MOL0     C35366  11.733   7.208   2.295 -0.1596 -0.3171 -0.2466
  257MOL0     C35367  11.883   7.207   2.292 -0.4134 -0.2061  0.0136
  257MOL0     C35368  11.974   7.169   2.418 -1.6881  0.3600  0.3197
  257MOL0     C35369  12.006   7.018   2.409  0.3102 -0.5671  0.6314
  257MOL0     C35370  12.038   6.970   2.553 -1.4728 -0.0931 -0.0886
  257MOL0     C35371  12.160   7.023   2.634  0.2317 -0.5454  0.0423
  257MOL0     C35372  12.271   6.927   2.621  0.1961 -0.4424 -0.2416
  257MOL0    Cl35373  12.334   6.899   2.452 -0.4350  0.6312  0.1747
  257MOL0     C35374  11.332   7.310   2.553  0.6469 -0.3735  0.0311
  257MOL0     C35375  11.252   7.359   2.654  0.5964  0.3699  0.2380
  257MOL0     O35376  11.309   7.716   2.858 -0.0135  0.6146  0.3678
  257MOL0     C35377  11.065   7.554   3.060  0.3350 -0.0868  0.7430
  257MOL0     C35378  10.980   7.566   3.174 -0.1958 -0.3130 -0.3749
  257MOL0     N35379  10.625   7.647   3.844 -0.3641  0.4452 -0.4705
  257MOL0     N35380  10.593   7.756   3.917  0.3341 -0.0924  0.1561
  257MOL0     C35381  11.260   8.773   3.768 -0.3438 -0.8306 -0.1502
  257MOL0     C35382  11.370   8.852   3.749  0.5332 -0.7375  0.5794
  257MOL0     C35383  11.806   8.912   3.858  0.9923 -0.1705  0.2785
  257MOL0     C35384  11.879   8.909   3.739 -0.4457  0.6807 -0.0040
  257MOL0     C35385  12.007   8.966   3.728 -0.0714  0.8434  0.1211
  257MOL0     C35386  12.073   9.009   3.844 -0.4064  0.6117 -0.0827
  257MOL0     O35387  12.180   9.090   3.832  0.2210 -0.0766  0.7313
  257MOL0     C35388  12.281   9.064   3.724  1.0011  0.1061 -0.0441
  257MOL0     C35389  12.326   8.925   3.691 -0.5148  0.2221  0.0648
  257MOL0     C35390  12.477   8.932   3.645  0.6636  0.4402  0.6312
  257MOL0     C35391  12.565   8.809   3.654 -0.0295  1.3935 -0.0657
  257MOL0     C35392  12.614   8.767   3.779 -0.6928 -0.0719  0.0672
  257MOL0     C35393  12.642   8.746   3.893 -0.2698 -0.4427  0.1361
  257MOL0     C35394  12.013   8.993   3.963 -0.3385  1.4674 -0.7335
  257MOL0     C35395  11.879   8.949   3.976 -0.3245  0.7283 -0.6966
  257MOL0     C35396  11.815   8.961   4.115 -0.3330 -1.6847  0.6649
  257MOL0     H35397  11.597   8.586   3.727 -2.7023 -4.5946  1.4116
  257MOL0     H35398  11.412   8.458   3.753 -1.8620 -0.5705 -2.6235
  257MOL0     H35399  11.131   8.377   3.706  1.4747 -1.0860 -0.8960
  257MOL0     H35400  11.186   8.505   3.586 -1.5163 -0.1439 -0.8731
  257MOL0     H35401  10.954   8.602   3.610  1.7042 -0.8242 -2.4906
  257MOL0     H35402  10.957   8.446   3.554  2.2362 -0.4730 -0.8739
  257MOL0     H35403  10.877   8.551   3.822 -0.2852 -0.6266  0.4644
  257MOL0     H35404  10.772   8.492   3.698 -0.6829  1.1640  1.2834
  257MOL0     H35405  10.875   8.249   3.741  0.0885 -0.8630 -0.2862
  257MOL0     H35406  10.967   8.318   3.869  0.2579  1.8837 -0.6606
  257MOL0     H35407  10.657   8.308   3.867 -0.5394  0.0654  1.4507
  257MOL0     H35408  10.751   8.406   3.979  2.7027 -0.5863  0.1045
  257MOL0     H35409  10.870   8.183   4.065  0.2818  3.0542 -0.6963
  257MOL0     H35410  10.701   8.199   4.091 -1.1163  2.4914 -0.3231
  257MOL0     H35411  10.858   8.035   3.892 -0.2319 -1.7094  0.8216
  257MOL0     H35412  10.679   8.067   3.857 -1.3442  2.5136  0.6016
  257MOL0     H35413  10.776   7.941   4.106 -0.8818  1.5102  1.0232
  257MOL0     H35414  10.610   7.959   4.053  0.4755  0.7062  1.9887
  257MOL0     H35415  10.918   7.804   3.868  0.9986 -0.5244  2.2538
  257MOL0     H35416  10.750   7.475   3.711  0.7358 -0.3524 -1.8892
  257MOL0     H35417  10.912   7.516   3.766  1.1188  1.9079 -1.5929
  257MOL0     H35418  10.931   7.692   3.603 -0.0457  3.1217 -8.2767
  257MOL0     H35419  10.913   7.539   3.529 -0.5014  0.2821 -0.8383
  257MOL0     H35420  10.652   7.594   3.528  1.2293  0.2303  1.6113
  257MOL0     H35421  10.722   7.765   3.533  5.3782  1.7248  0.6967
  257MOL0     H35422  10.783   7.538   3.341 -1.6980 -0.7786  2.0682
  257MOL0     H35423  10.689   7.678   3.305  1.9318  0.1835 -1.9060
  257MOL0     H35424  11.075   7.879   3.269  0.1147  0.4865 -0.1175
  257MOL0     H35425  11.206   7.986   3.120  2.0113 -0.6008  1.1630
  257MOL0     H35426  11.262   7.901   2.971  0.5175 -0.0055 -0.1504
  257MOL0     H35427  11.336   7.856   3.120 -0.0311 -0.1794  1.0103
  257MOL0     H35428  11.485   7.573   2.791  2.4416 -1.0843 -0.0107
  257MOL0     H35429  11.629   7.468   2.609 -0.8281 -1.1452 -0.9376
  257MOL0     H35430  11.697   7.411   2.378 -0.1504 -0.3649 -1.3622
  257MOL0     H35431  11.725   7.295   2.505 -2.1628  0.9729  1.4097
  257MOL0     H35432  11.695   7.106   2.297 -0.5355 -0.2158 -1.3132
  257MOL0     H35433  11.693   7.245   2.200 -1.3514  1.2787  0.8192
  257MOL0     H35434  11.897   7.314   2.275 -1.7884 -0.0792 -0.4796
  257MOL0     H35435  11.908   7.159   2.197  1.7571  3.3042 -1.3858
  257MOL0     H35436  11.926   7.176   2.516  2.0446 -0.8615  2.3997
  257MOL0     H35437  12.068   7.224   2.424 -0.1264 -2.2593  1.8843
  257MOL0     H35438  11.915   6.966   2.379  0.1195 -0.0040  0.2319
  257MOL0     H35439  12.083   6.993   2.335  0.7201 -0.2297  0.9413
  257MOL0     H35440  12.047   6.863   2.533 -0.3914  0.2732 -1.8676
  257MOL0     H35441  11.949   6.966   2.616 -1.3678 -0.7670  0.0295
  257MOL0     H35442  12.135   7.031   2.740  2.2493 -0.2238  0.5358
  257MOL0     H35443  12.199   7.123   2.611  1.3749 -0.9978 -0.0467
  257MOL0     H35444  12.234   6.831   2.660 -2.6013  0.4812 -0.3715
  257MOL0     H35445  12.359   6.950   2.681 -1.0345 -0.2315  1.5740
  257MOL0     H35446  11.301   7.230   2.486  0.8880 -0.9692  0.6200
  257MOL0     H35447  11.149   7.326   2.656  0.9559 -0.8274 -0.2320
  257MOL0     H35448  11.071   7.452   3.023  0.7457  0.6845 -1.4095
  257MOL0     H35449  10.931   7.476   3.207  1.2606 -0.8168  0.4945
  257MOL0     H35450  11.167   8.830   3.770  0.4145  0.4076  1.5201
  257MOL0     H35451  11.343   8.956   3.739  4.2117  0.2432 -1.1543
  257MOL0     H35452  11.829   8.874   3.650  1.8168  2.1748 -2.0040
  257MOL0     H35453  12.056   8.998   3.637  4.2576  0.5043  2.0444
  257MOL0     H35454  12.247   9.122   3.638  0.9970 -0.5712 -0.5020
  257MOL0     H35455  12.369   9.121   3.756  1.1678 -1.6454  3.0221
  257MOL0     H35456  12.255   8.879   3.622  0.9659  0.1276 -1.4674
  257MOL0     H35457  12.332   8.873   3.787  0.2433  0.5670  0.2166
  257MOL0     H35458  12.470   8.963   3.541 -2.4161  1.2592  0.9836
  257MOL0     H35459  12.523   9.015   3.700 -0.6567  1.1064  0.7775
  257MOL0     H35460  12.656   8.836   3.600  0.1701  1.9190  0.5120
  257MOL0     H35461  12.508   8.731   3.603  1.8743  0.4747 -0.8784
  257MOL0     H35462  12.662   8.719   3.995  1.3784 -1.9661 -0.5412
  257MOL0     H35463  12.064   9.033   4.049  2.0850  1.7514 -2.2185
  257MOL0     H35464  11.883   9.008   4.187  3.3233 -2.0342 -2.2446
  257MOL0     H35465  11.733   9.032   4.100  2.2953  1.3779 -0.4007
  257MOL0     H35466  11.779   8.863   4.145 -4.4336 -1.5816 -2.9898
  258MOL0     O35467   3.330  11.597   8.493 -0.6407 -0.0145  0.0069
  258MOL0     C35468   3.328  11.637   8.611 -0.5539  0.2685  0.0303
  258MOL0     O35469   3.354  11.564   8.714 -1.0977 -0.2641 -0.2762
  258MOL0     C35470   3.430  11.454   8.693 -0.4304  0.0022 -0.7322
  258MOL0     C35471   3.563  11.460   8.665  0.2013  0.7525  0.0026
  258MOL0     C35472   3.638  11.343   8.639  0.4025 -0.1845 -0.4964
  258MOL0     C35473   3.566  11.224   8.625  0.2652  0.0369 -0.1668
  258MOL0     O35474   3.614  11.105   8.576  0.1299  0.5524  0.3391
  258MOL0     C35475   3.754  11.083   8.565  0.0042  0.0172  0.5686
  258MOL0     C35476   3.779  10.935   8.544 -0.4965 -1.0178 -0.5266
  258MOL0     C35477   3.699  10.852   8.651 -0.0750  0.0018  0.5129
  258MOL0     C35478   3.682  10.711   8.600 -0.5122  0.3149  0.2408
  258MOL0     C35479   3.618  10.632   8.714 -0.5808  0.3988 -0.1429
  258MOL0     C35480   3.588  10.492   8.669 -0.5706  0.8008 -0.1286
  258MOL0     C35481   3.497  10.412   8.772  0.3295 -0.2682 -0.5534
  258MOL0     C35482   3.502  10.260   8.736  0.3380  0.7019 -0.5201
  258MOL0     N35483   3.414  10.184   8.822 -0.1164  0.4058  0.9464
  258MOL0     C35484   3.428  10.144   8.949  0.9245  0.1723 -0.7711
  258MOL0     C35485   3.307  10.093   8.984 -0.2630  0.5270 -0.5671
  258MOL0     C35486   3.271  10.019   9.104 -0.3784  0.2507  0.0965
  258MOL0     C35487   3.267   9.864   9.084 -0.2411 -0.7902 -0.0155
  258MOL0     C35488   3.250   9.787   9.219  0.0430 -0.0876  0.0655
  258MOL0     C35489   3.222   9.646   9.210  0.3714  0.8627  0.0112
  258MOL0     O35490   3.323   9.592   9.127 -0.0416 -0.4340  0.0437
  258MOL0     C35491   3.401   9.491   9.189  0.4407 -0.5167  0.1649
  258MOL0     C35492   3.378   9.392   9.285  0.6710  0.1801  0.4054
  258MOL0     C35493   3.465   9.284   9.320 -0.1476 -0.0915 -0.0272
  258MOL0     C35494   3.431   9.177   9.421 -0.0087  0.7492 -0.7821
  258MOL0     C35495   3.585   9.283   9.250 -0.4194  0.4327  0.6499
  258MOL0     C35496   3.695   9.193   9.277 -0.5581 -0.3608 -0.0320
  258MOL0     O35497   3.791   9.202   9.188 -0.3752  0.5395 -0.1039
  258MOL0     C35498   3.883   9.102   9.192 -0.0316  0.1764  0.1592
  258MOL0     C35499   3.876   8.994   9.100 -0.5790  0.0763 -1.0328
  258MOL0     C35500   3.958   8.875   9.112  0.0397  0.1878  1.5182
  258MOL0     C35501   4.069   8.872   9.197 -0.6140 -0.1346  1.0720
  258MOL0     O35502   4.141   8.763   9.175  0.6617  0.5088  0.8477
  258MOL0     C35503   4.246   8.739   9.265  0.4698 -0.7176  0.1272
  258MOL0     C35504   4.218   8.685   9.397  0.1700 -0.4489 -1.6706
  258MOL0     C35505   4.340   8.634   9.470 -0.0871  0.9261  0.6565
  258MOL0     C35506   4.302   8.589   9.611 -0.0938 -0.1107 -0.3123
  258MOL0     C35507   4.430   8.543   9.680 -0.1920 -0.3880 -0.1913
  258MOL0     C35508   4.395   8.499   9.809  0.6230  0.7415 -0.4912
  258MOL0     C35509   4.519   8.437   9.885 -0.1531 -0.3248  0.0362
  258MOL0     C35510   4.504   8.421  10.046  0.2032  0.1197  0.0817
  258MOL0    Cl35511   4.347   8.348  10.084  0.3671  0.3991 -0.0836
  258MOL0     C35512   4.075   8.981   9.279  0.2775  0.3691 -0.3581
  258MOL0     C35513   3.985   9.095   9.284 -0.4611 -0.4081  0.2029
  258MOL0     O35514   3.688   9.115   9.363  0.1971 -0.4078 -0.3749
  258MOL0     C35515   3.602   9.374   9.147  0.9696 -0.1801  0.4462
  258MOL0     C35516   3.521   9.478   9.119  1.0625  0.3281 -1.3653
  258MOL0     N35517   3.217  10.117   8.877 -0.8992  0.3827 -1.4173
  258MOL0     N35518   3.287  10.164   8.779 -0.3385 -0.7089  0.2119
  258MOL0     C35519   3.435  11.210   8.648 -0.3294 -1.3080 -0.0588
  258MOL0     C35520   3.364  11.327   8.684 -0.4584  0.1685 -0.0745
  258MOL0     C35521   3.262  11.767   8.646  0.7930 -0.8141 -0.8613
  258MOL0     C35522   3.261  11.806   8.783  0.2551 -0.7333 -0.4650
  258MOL0     C35523   3.213  11.937   8.824 -0.9439  0.9422 -0.0826
  258MOL0     C35524   3.194  12.035   8.735  0.1820  0.1727 -0.6439
  258MOL0     O35525   3.172  12.162   8.788  0.4641 -0.1164  1.1308
  258MOL0     C35526   3.034  12.200   8.784 -0.8168  0.5889  0.0736
  258MOL0     C35527   2.999  12.286   8.903 -0.0033  0.9809  0.2583
  258MOL0     C35528   3.041  12.233   9.050  0.5909  0.1347 -0.9080
  258MOL0     C35529   2.975  12.107   9.086 -0.7631 -0.1935 -0.5879
  258MOL0     C35530   2.835  12.139   9.097 -0.1548 -0.1013  0.5404
  258MOL0     C35531   2.718  12.160   9.099  0.2011 -0.1976  1.2420
  258MOL0     C35532   3.177  11.997   8.601 -0.4056  0.2802 -1.1162
  258MOL0     C35533   3.202  11.870   8.556 -0.0447  0.0865  0.2524
  258MOL0     C35534   3.187  11.844   8.412 -0.4769 -0.1578 -0.8231
  258MOL0     H35535   3.613  11.555   8.648 -0.4897  2.0617  4.1391
  258MOL0     H35536   3.745  11.343   8.621  0.7574  1.3699  1.3164
  258MOL0     H35537   3.811  11.116   8.652 -0.7208 -0.6649  1.3065
  258MOL0     H35538   3.800  11.135   8.480  2.1389 -3.4615 -0.6177
  258MOL0     H35539   3.744  10.903   8.446  0.1395 -0.2389 -1.0243
  258MOL0     H35540   3.884  10.906   8.554 -0.6686 -1.1001  1.5588
  258MOL0     H35541   3.765  10.850   8.738  2.2091 -1.3504 -1.1326
  258MOL0     H35542   3.600  10.892   8.672 -1.6513 -4.3368  2.5465
  258MOL0     H35543   3.614  10.690   8.516  0.1982  1.2572 -0.5892
  258MOL0     H35544   3.786  10.677   8.597 -0.4469  0.0060  3.1837
  258MOL0     H35545   3.535  10.696   8.745  1.3335  3.0650 -0.1320
  258MOL0     H35546   3.687  10.618   8.798  0.1819  2.2114 -0.4173
  258MOL0     H35547   3.530  10.493   8.576 -2.7748  0.9126  1.1694
  258MOL0     H35548   3.685  10.442   8.666 -0.2608  1.2737  1.4078
  258MOL0     H35549   3.390  10.434   8.775  0.4121  0.1170 -0.3747
  258MOL0     H35550   3.533  10.428   8.874  1.7276  0.4499 -1.1257
  258MOL0     H35551   3.459  10.254   8.636 -1.4064  3.8088 -0.0806
  258MOL0     H35552   3.602  10.215   8.733 -0.4796 -1.4464  1.3346
  258MOL0     H35553   3.519  10.148   9.009  1.7072 -2.8275 -1.6027
  258MOL0     H35554   3.186  10.068   9.152 -1.3794 -0.2195 -1.1355
  258MOL0     H35555   3.353  10.039   9.173  1.2588 -2.7878 -0.8274
  258MOL0     H35556   3.191   9.847   9.007  0.4319  2.7212 -1.6673
  258MOL0     H35557   3.366   9.846   9.042  0.9365  1.5169  1.5673
  258MOL0     H35558   3.342   9.804   9.276  1.1068 -2.5528 -0.7645
  258MOL0     H35559   3.165   9.838   9.265  0.9110  0.7988  0.7348
  258MOL0     H35560   3.230   9.601   9.309  0.4396 -1.1401 -0.8562
  258MOL0     H35561   3.132   9.606   9.162  0.3331 -1.8311  2.0934
  258MOL0     H35562   3.281   9.396   9.334  0.0861 -0.7062 -0.6371
  258MOL0     H35563   3.329   9.184   9.459 -0.0913 -0.4687 -0.7407
  258MOL0     H35564   3.501   9.183   9.505 -0.2839 -2.9305 -0.0814
  258MOL0     H35565   3.439   9.076   9.378 -1.4050 -0.5251  1.6872
  258MOL0     H35566   3.794   9.008   9.029 -2.1438  4.6175  1.2716
  258MOL0     H35567   3.928   8.791   9.050 -2.2725  0.7740  1.7429
  258MOL0     H35568   4.299   8.655   9.220 -1.1241 -1.0155 -1.3133
  258MOL0     H35569   4.307   8.830   9.268 -3.3488  2.1640 -1.5242
  258MOL0     H35570   4.175   8.756   9.468  1.6901 -0.5621 -0.5814
  258MOL0     H35571   4.145   8.603   9.399 -0.8727  0.4462  1.0919
  258MOL0     H35572   4.426   8.701   9.472  2.1661 -1.6859 -1.0045
  258MOL0     H35573   4.382   8.549   9.416  0.5758  2.5205 -1.4516
  258MOL0     H35574   4.231   8.507   9.601 -1.1492  0.7986 -0.4731
  258MOL0     H35575   4.254   8.668   9.670  1.2740 -0.5643  1.4962
  258MOL0     H35576   4.485   8.464   9.628  2.4372  1.7546 -0.8838
  258MOL0     H35577   4.498   8.628   9.691  0.4699 -1.0265  0.7859
  258MOL0     H35578   4.313   8.428   9.817  0.6223  0.9634  2.9236
  258MOL0     H35579   4.365   8.588   9.865 -0.9423 -0.5406  0.7949
  258MOL0     H35580   4.611   8.494   9.873 -1.4695  2.5764  2.3556
  258MOL0     H35581   4.530   8.335   9.847 -2.3868 -2.3270  4.0879
  258MOL0     H35582   4.508   8.516  10.099 -0.0728 -1.0281  2.2743
  258MOL0     H35583   4.578   8.347  10.079  1.6596 -0.0261 -3.1186
  258MOL0     H35584   4.154   8.984   9.354 -0.4414  5.6690  0.6453
  258MOL0     H35585   3.995   9.158   9.372 -0.3279 -1.4011  0.9045
  258MOL0     H35586   3.691   9.368   9.086 -0.2323 -2.0358 -1.2409
  258MOL0     H35587   3.537   9.551   9.040 -1.3496  1.7871 -0.6019
  258MOL0     H35588   3.375  11.120   8.641 -1.1684 -0.7914  0.2563
  258MOL0     H35589   3.257  11.322   8.702 -0.9781  1.7348 -2.2436
  258MOL0     H35590   3.307  11.744   8.859  1.5943 -0.1498 -0.7663
  258MOL0     H35591   3.227  11.959   8.929  1.2738 -3.7379  0.8572
  258MOL0     H35592   3.005  12.252   8.693 -1.7405 -0.9946 -0.5887
  258MOL0     H35593   2.964  12.115   8.788 -1.6943  1.3376  2.2828
  258MOL0     H35594   2.893  12.311   8.897 -0.1261  0.1619 -1.3668
  258MOL0     H35595   3.045  12.385   8.905 -2.7553  2.4116  3.7788
  258MOL0     H35596   3.148  12.219   9.038  0.6762 -0.2393  0.2369
  258MOL0     H35597   3.014  12.313   9.119  1.4645 -0.0814 -0.3032
  258MOL0     H35598   3.018  12.069   9.179  1.2252 -0.4580 -1.5490
  258MOL0     H35599   2.980  12.025   9.014 -1.6459 -0.1651 -0.6929
  258MOL0     H35600   2.613  12.168   9.115  0.1698  2.4698  0.1858
  258MOL0     H35601   3.156  12.083   8.538  1.9074 -0.7357 -3.4477
  258MOL0     H35602   3.284  11.809   8.375 -0.0809  0.2734 -0.1972
  258MOL0     H35603   3.107  11.772   8.395 -2.3155  1.2450  1.3702
  258MOL0     H35604   3.174  11.942   8.364  1.0286  0.1475 -0.6792
  259MOL0     O35605   8.531   7.742   7.006 -0.1559 -0.2396 -0.0443
  259MOL0     C35606   8.411   7.747   7.005 -0.0710  0.0918 -0.5906
  259MOL0     O35607   8.340   7.824   7.093 -0.7683 -1.3318  0.7897
  259MOL0     C35608   8.398   7.879   7.209 -0.5906  1.3811 -0.1505
  259MOL0     C35609   8.369   7.832   7.337 -0.3539 -0.0576  0.6150
  259MOL0     C35610   8.420   7.888   7.450  0.3382  0.9220 -0.1178
  259MOL0     C35611   8.506   7.994   7.448  0.0247 -0.2874 -0.2407
  259MOL0     O35612   8.550   8.044   7.570  0.1795  0.6381  0.8111
  259MOL0     C35613   8.695   8.033   7.587  0.6425 -0.3839  0.0704
  259MOL0     C35614   8.730   8.101   7.719 -0.7779 -0.0645  0.6411
  259MOL0     C35615   8.882   8.116   7.726 -0.4767  0.1161  0.9353
  259MOL0     C35616   8.947   8.124   7.865 -0.5298 -0.8377 -1.1840
  259MOL0     C35617   9.102   8.137   7.862  0.3778 -0.6954  0.9414
  259MOL0     C35618   9.164   8.036   7.770 -0.4622  0.0262  0.0836
  259MOL0     C35619   9.322   8.041   7.793 -0.3825  0.2149 -0.6471
  259MOL0     C35620   9.393   8.165   7.732 -0.8483  0.0290 -0.6541
  259MOL0     N35621   9.532   8.139   7.748 -1.1037  0.1472  0.2582
  259MOL0     C35622   9.603   8.136   7.859 -0.6950  0.4915 -0.8342
  259MOL0     C35623   9.725   8.117   7.827  0.1375 -0.1915  0.0476
  259MOL0     C35624   9.846   8.119   7.914  0.0449 -0.2060 -0.8200
  259MOL0     C35625   9.881   8.264   7.959 -0.4622 -0.3973 -0.5438
  259MOL0     C35626   9.995   8.277   8.060  0.1496 -0.0726 -0.1220
  259MOL0     C35627  10.072   8.405   8.049  0.2140 -0.5630 -0.8251
  259MOL0     O35628  10.076   8.446   8.190 -0.2595  0.5228  0.0679
  259MOL0     C35629  10.184   8.394   8.256  0.4703 -0.3840 -0.0342
  259MOL0     C35630  10.306   8.461   8.256  0.0818 -0.5334  0.5328
  259MOL0     C35631  10.422   8.410   8.319  0.0869  0.6669  0.9484
  259MOL0     C35632  10.554   8.471   8.283  0.0953 -0.6677  0.1302
  259MOL0     C35633  10.406   8.301   8.408 -1.2709 -0.3326 -0.0935
  259MOL0     C35634  10.509   8.239   8.499 -0.6063 -0.0043 -0.5060
  259MOL0     O35635  10.637   8.273   8.473  0.2741  0.1480 -0.3967
  259MOL0     C35636  10.739   8.225   8.553 -0.3880  0.3708 -0.2124
  259MOL0     C35637  10.839   8.318   8.621 -0.0292 -0.1500  0.4932
  259MOL0     C35638  10.944   8.264   8.694  0.3400 -0.2733  0.0150
  259MOL0     C35639  10.958   8.129   8.715 -0.1073  0.7690 -0.6525
  259MOL0     O35640  11.061   8.089   8.790  0.6377  0.0449  0.1726
  259MOL0     C35641  11.050   7.975   8.869 -0.2634 -1.0186 -0.2030
  259MOL0     C35642  11.182   7.956   8.956  0.1391  0.4971  1.1128
  259MOL0     C35643  11.307   7.989   8.884 -0.5066 -1.3622  0.0663
  259MOL0     C35644  11.344   8.141   8.865 -0.0453 -0.6374 -0.1183
  259MOL0     C35645  11.296   8.225   8.979 -0.5614 -0.5748  0.2623
  259MOL0     C35646  11.346   8.372   8.960  0.5502 -0.3350 -0.0610
  259MOL0     C35647  11.277   8.446   9.077 -0.6291  0.6211 -0.1729
  259MOL0     C35648  11.320   8.596   9.079 -0.4193  0.0327 -0.0093
  259MOL0    Cl35649  11.170   8.692   9.136 -0.2481 -0.3683  0.0490
  259MOL0     C35650  10.866   8.043   8.665  0.3824  0.4137 -0.4123
  259MOL0     C35651  10.769   8.089   8.571 -0.5679 -0.5235 -0.0714
  259MOL0     O35652  10.472   8.163   8.586  0.7358 -0.2455 -0.0632
  259MOL0     C35653  10.277   8.243   8.409  0.7922  0.5602  0.7501
  259MOL0     C35654  10.167   8.282   8.328  0.7540 -0.8249 -0.4705
  259MOL0     N35655   9.741   8.094   7.694 -0.6086 -0.4276  0.3550
  259MOL0     N35656   9.620   8.124   7.647 -0.6836  0.2213 -0.0089
  259MOL0     C35657   8.537   8.044   7.316 -0.2282  0.2879 -0.4547
  259MOL0     C35658   8.488   7.987   7.203  0.3265 -0.2134 -0.6083
  259MOL0     C35659   8.333   7.693   6.897  0.0893  0.0878  0.2738
  259MOL0     C35660   8.194   7.734   6.878 -0.2486 -0.0916  0.5391
  259MOL0     C35661   8.111   7.679   6.780 -0.3779 -0.2139 -0.5134
  259MOL0     C35662   8.150   7.577   6.699 -0.5794  0.3878  0.2682
  259MOL0     O35663   8.049   7.531   6.619 -0.0286  0.8162  0.0234
  259MOL0     C35664   8.090   7.414   6.544  0.1037 -0.5271 -0.2371
  259MOL0     C35665   7.974   7.392   6.453 -0.3653  0.9467  0.1726
  259MOL0     C35666   7.985   7.270   6.364  0.8323  0.6054  0.4088
  259MOL0     C35667   8.118   7.266   6.292 -0.2534 -0.2466  0.9213
  259MOL0     C35668   8.147   7.376   6.193 -0.1944  0.3539  0.5945
  259MOL0     C35669   8.192   7.458   6.120 -0.3916 -0.9588  0.5765
  259MOL0     C35670   8.279   7.537   6.718  0.3939  0.6326  0.3601
  259MOL0     C35671   8.368   7.588   6.810 -0.4435 -0.6895  0.1385
  259MOL0     C35672   8.501   7.510   6.827  0.1480  0.5375  0.5602
  259MOL0     H35673   8.293   7.754   7.343 -0.0898 -0.2248  4.9732
  259MOL0     H35674   8.367   7.847   7.535 -3.0199 -1.6516 -3.1367
  259MOL0     H35675   8.735   8.078   7.495 -3.0377 -0.1474 -1.5836
  259MOL0     H35676   8.725   7.928   7.582 -1.7494 -1.1567  0.4017
  259MOL0     H35677   8.678   8.197   7.733  1.2761  1.3798 -0.9577
  259MOL0     H35678   8.688   8.032   7.792  0.3233  1.2503  2.6428
  259MOL0     H35679   8.923   8.031   7.671  0.3579  1.0642  0.0367
  259MOL0     H35680   8.899   8.211   7.674  0.3886 -0.1875  0.6453
  259MOL0     H35681   8.893   8.207   7.912 -2.8242 -3.5754  1.4007
  259MOL0     H35682   8.930   8.035   7.927  2.3049  0.2027  1.3730
  259MOL0     H35683   9.143   8.129   7.963 -2.3704  0.1315  2.2279
  259MOL0     H35684   9.122   8.238   7.826 -1.2962 -0.5110  0.4188
  259MOL0     H35685   9.120   7.940   7.797  0.4776  0.2194  2.6065
  259MOL0     H35686   9.144   8.060   7.665  1.5898  3.0163  0.2171
  259MOL0     H35687   9.364   7.954   7.741  0.4317 -0.5553  1.2164
  259MOL0     H35688   9.360   8.036   7.896  1.1409  0.5599 -1.1596
  259MOL0     H35689   9.367   8.177   7.627 -1.4137  0.0211 -0.5222
  259MOL0     H35690   9.370   8.259   7.784  2.0976  2.5698 -3.4642
  259MOL0     H35691   9.558   8.149   7.957  2.2498 -0.4139  0.7709
  259MOL0     H35692   9.926   8.084   7.848 -1.8424 -3.7730 -1.4547
  259MOL0     H35693   9.842   8.058   8.004  0.7484 -0.5635 -1.0274
  259MOL0     H35694   9.905   8.330   7.875  2.0305  0.8079  1.0047
  259MOL0     H35695   9.787   8.310   7.990 -0.3141  1.0697 -2.1315
  259MOL0     H35696   9.954   8.264   8.161 -3.1805  0.4620 -1.2740
  259MOL0     H35697  10.064   8.192   8.052  1.9379  1.2410  0.8273
  259MOL0     H35698  10.172   8.397   8.005  0.3973  1.5381 -0.9183
  259MOL0     H35699  10.012   8.475   7.991 -0.5928 -1.7634 -1.4835
  259MOL0     H35700  10.315   8.560   8.211 -5.6570  0.0154 -0.0721
  259MOL0     H35701  10.634   8.404   8.250  2.1171  1.7303 -0.1000
  259MOL0     H35702  10.605   8.516   8.369  2.6836  1.2816 -2.2246
  259MOL0     H35703  10.539   8.555   8.215 -2.6184  0.0702  1.4861
  259MOL0     H35704  10.841   8.425   8.607  2.1444  0.0888  2.1557
  259MOL0     H35705  11.020   8.328   8.738  0.7075 -0.5005 -0.2790
  259MOL0     H35706  10.959   7.986   8.929 -1.2430  1.2651 -1.9500
  259MOL0     H35707  11.047   7.884   8.807  1.4704 -1.4404  0.2587
  259MOL0     H35708  11.176   8.025   9.041  3.4797  0.1541  1.7716
  259MOL0     H35709  11.191   7.858   9.002  0.3007 -0.7606 -1.4212
  259MOL0     H35710  11.314   7.943   8.785  3.3358  0.8248 -0.8754
  259MOL0     H35711  11.384   7.946   8.948  0.3387 -1.4654 -0.9782
  259MOL0     H35712  11.303   8.178   8.770  1.2911 -3.0135 -1.7351
  259MOL0     H35713  11.454   8.141   8.868 -0.0621 -0.8373  0.6847
  259MOL0     H35714  11.188   8.219   8.989 -0.8091  1.7748 -0.4311
  259MOL0     H35715  11.330   8.176   9.071  0.7840 -1.5914 -0.7332
  259MOL0     H35716  11.300   8.405   8.866  0.9473  0.7206  0.1041
  259MOL0     H35717  11.454   8.387   8.954  0.5182  0.4198  0.9215
  259MOL0     H35718  11.297   8.399   9.174 -1.8314 -1.8870 -1.0486
  259MOL0     H35719  11.169   8.446   9.062 -0.6720  2.4553 -0.0386
  259MOL0     H35720  11.350   8.608   8.975 -3.4790 -1.8357 -1.2479
  259MOL0     H35721  11.403   8.604   9.149  1.4814 -1.2406 -2.0020
  259MOL0     H35722  10.876   7.935   8.673 -0.7916  0.3712  0.9164
  259MOL0     H35723  10.720   8.010   8.514  0.2758 -0.4293 -0.9414
  259MOL0     H35724  10.261   8.157   8.473 -1.4331  0.4563  0.1608
  259MOL0     H35725  10.081   8.215   8.326 -0.0496  0.1925 -2.4809
  259MOL0     H35726   8.613   8.121   7.308 -0.2623  0.1681 -2.4256
  259MOL0     H35727   8.510   8.027   7.104 -0.1332  2.5393  0.2971
  259MOL0     H35728   8.153   7.808   6.946  1.5869  1.1627  0.3531
  259MOL0     H35729   8.015   7.729   6.778 -0.4502 -0.3934 -1.7713
  259MOL0     H35730   8.173   7.444   6.479 -0.3723 -3.9529 -2.6756
  259MOL0     H35731   8.104   7.328   6.611  1.5883 -0.8441 -0.9149
  259MOL0     H35732   7.963   7.486   6.397  0.7847  1.4464  0.7300
  259MOL0     H35733   7.879   7.369   6.501  0.2931 -0.2294  0.9620
  259MOL0     H35734   7.966   7.180   6.422  0.7246  0.8390  0.7396
  259MOL0     H35735   7.905   7.281   6.290  1.2240 -1.9291 -0.5035
  259MOL0     H35736   8.113   7.171   6.238  0.5576  1.6209 -2.7428
  259MOL0     H35737   8.206   7.246   6.354  0.1744 -3.9561 -0.6241
  259MOL0     H35738   8.237   7.523   6.048  1.0264  0.4484  2.6121
  259MOL0     H35739   8.297   7.446   6.661 -2.3040 -0.9811  1.8492
  259MOL0     H35740   8.539   7.502   6.930 -0.0087  0.4772  0.6132
  259MOL0     H35741   8.480   7.407   6.796  1.6704 -0.0915  1.4791
  259MOL0     H35742   8.579   7.560   6.769  0.2739 -1.6213 -1.2773
  260MOL0     O35743   8.256  11.383   7.533  0.0048 -0.3937  0.3237
  260MOL0     C35744   8.177  11.330   7.610  0.4387 -0.4603 -0.5406
  260MOL0     O35745   8.134  11.386   7.730 -0.2004 -0.5501 -0.0246
  260MOL0     C35746   8.180  11.509   7.760 -1.0580 -0.6285 -0.1713
  260MOL0     C35747   8.093  11.623   7.786  0.1288  0.1137  0.0046
  260MOL0     C35748   8.126  11.733   7.863 -0.2070  0.3407  0.1387
  260MOL0     C35749   8.264  11.754   7.892  0.5434  0.4643  0.0582
  260MOL0     O35750   8.295  11.862   7.969 -0.4609 -0.2600 -1.2180
  260MOL0     C35751   8.418  11.931   7.934 -0.3985 -0.5483  0.0474
  260MOL0     C35752   8.421  12.062   8.006 -0.0392  0.2588  0.0164
  260MOL0     C35753   8.465  12.050   8.148 -0.3432 -0.3774  0.6661
  260MOL0     C35754   8.471  12.195   8.208 -0.0608  0.3191  0.2020
  260MOL0     C35755   8.525  12.206   8.353  0.5594 -0.8825 -0.7050
  260MOL0     C35756   8.422  12.155   8.454 -0.1452 -0.3803 -0.5577
  260MOL0     C35757   8.468  12.179   8.601 -0.3823 -0.5457 -0.0252
  260MOL0     C35758   8.591  12.080   8.637 -0.1510 -0.2698  0.3355
  260MOL0     N35759   8.646  12.109   8.767 -0.2634 -0.3067  0.8156
  260MOL0     C35760   8.779  12.141   8.798  0.4794 -0.2899  0.1535
  260MOL0     C35761   8.781  12.166   8.929  0.0936 -0.0644 -0.6091
  260MOL0     C35762   8.897  12.200   9.026 -0.3953 -0.4007  0.3346
  260MOL0     C35763   8.892  12.352   9.055  0.1379 -0.3159  0.1218
  260MOL0     C35764   8.935  12.435   8.933  0.4577  0.8394 -0.0507
  260MOL0     C35765   8.938  12.592   8.968 -0.0493 -0.7892 -0.3706
  260MOL0     O35766   8.821  12.652   9.039  0.3084 -0.0602 -0.1814
  260MOL0     C35767   8.692  12.667   8.982 -1.3065 -1.0766 -0.0731
  260MOL0     C35768   8.675  12.665   8.843  0.0481  0.2546 -0.4883
  260MOL0     C35769   8.537  12.694   8.792 -0.1544  0.0165  0.7742
  260MOL0     C35770   8.515  12.666   8.644  0.2593 -0.0008 -0.0567
  260MOL0     C35771   8.435  12.737   8.877  0.2430 -0.7561  0.1034
  260MOL0     C35772   8.304  12.775   8.827 -0.7007  0.5389  0.1818
  260MOL0     O35773   8.284  12.837   8.706  0.6323  0.1991  0.6965
  260MOL0     C35774   8.158  12.865   8.660 -0.5741 -0.1142  0.3195
  260MOL0     C35775   8.138  12.873   8.513 -0.8267 -1.1979 -0.3994
  260MOL0     C35776   8.009  12.904   8.457 -0.1420  0.1656  1.8935
  260MOL0     C35777   7.912  12.933   8.547  1.2032 -0.7764 -0.6782
  260MOL0     O35778   7.787  12.962   8.494  0.2028  0.4042 -0.7454
  260MOL0     C35779   7.759  13.100   8.500 -0.0577 -0.9888  0.2470
  260MOL0     C35780   7.716  13.152   8.361 -0.0912  0.2059 -0.3075
  260MOL0     C35781   7.572  13.116   8.324  0.5874 -1.4755  0.0615
  260MOL0     C35782   7.558  12.976   8.266  0.1570  0.2204  0.5318
  260MOL0     C35783   7.605  12.959   8.118  0.1571 -0.6802 -0.3505
  260MOL0     C35784   7.514  13.051   8.029 -0.5934  0.5729  0.4738
  260MOL0     C35785   7.576  13.032   7.885  1.7338 -0.9261 -0.2003
  260MOL0     C35786   7.542  13.149   7.803  0.1868 -0.2093  1.0060
  260MOL0    Cl35787   7.606  13.169   7.639  0.0298 -0.4510  0.3037
  260MOL0     C35788   7.924  12.930   8.684 -0.2422 -0.8561  0.1134
  260MOL0     C35789   8.047  12.900   8.737 -0.2831 -0.1687  0.7596
  260MOL0     O35790   8.210  12.740   8.904 -0.8799  0.3358 -0.6525
  260MOL0     C35791   8.463  12.755   9.015  0.0413 -0.1504 -0.1206
  260MOL0     C35792   8.592  12.719   9.063 -0.0979  0.4989  0.7057
  260MOL0     N35793   8.657  12.147   8.983 -0.0474  0.7733 -0.2595
  260MOL0     N35794   8.583  12.103   8.883  0.3593 -0.5597  0.2271
  260MOL0     C35795   8.364  11.653   7.857 -0.1545 -0.9047  0.7084
  260MOL0     C35796   8.317  11.533   7.785 -1.0207 -0.6305 -0.1147
  260MOL0     C35797   8.126  11.201   7.564 -0.1923 -0.4320 -1.0485
  260MOL0     C35798   8.092  11.191   7.438  0.0586 -0.4484 -0.1010
  260MOL0     C35799   8.044  11.072   7.381 -0.0052 -0.5056  0.5583
  260MOL0     C35800   8.021  10.960   7.462 -0.4641  0.0239  1.4511
  260MOL0     O35801   7.982  10.832   7.410  0.3333 -0.4908 -0.0231
  260MOL0     C35802   7.944  10.820   7.270  0.3916  0.0302 -0.3153
  260MOL0     C35803   7.896  10.671   7.263  0.3293  0.1656  0.5497
  260MOL0     C35804   7.910  10.616   7.119  0.4990 -0.4367  0.4589
  260MOL0     C35805   7.872  10.466   7.111  0.3741 -0.2502 -1.2318
  260MOL0     C35806   7.950  10.392   7.012  0.2080 -0.9417  0.5949
  260MOL0     C35807   7.997  10.333   6.915  0.4776  0.0109  0.2705
  260MOL0     C35808   8.043  10.974   7.593  0.2097  0.1289 -0.1005
  260MOL0     C35809   8.089  11.094   7.648  0.1578 -0.2826  0.4069
  260MOL0     C35810   8.132  11.069   7.791  0.8089 -0.5439 -0.6138
  260MOL0     H35811   7.989  11.625   7.754 -0.8045  1.7334  2.8249
  260MOL0     H35812   8.053  11.812   7.878  1.2450  2.7544 -3.9370
  260MOL0     H35813   8.422  11.955   7.827 -1.3057  1.4854  0.4429
  260MOL0     H35814   8.507  11.870   7.954 -1.8187 -2.9985 -0.6013
  260MOL0     H35815   8.478  12.133   7.946  0.3833 -0.6830 -0.7232
  260MOL0     H35816   8.322  12.106   7.988 -0.6732  0.0811  2.6692
  260MOL0     H35817   8.407  11.970   8.196  0.5003 -1.5698 -0.2533
  260MOL0     H35818   8.570  12.020   8.143  0.7787  3.1728  0.2959
  260MOL0     H35819   8.544  12.244   8.143 -0.3939  0.5886  0.0316
  260MOL0     H35820   8.373  12.243   8.212  0.0205  0.4052  2.6821
  260MOL0     H35821   8.541  12.313   8.370  0.2467 -1.2070  1.9781
  260MOL0     H35822   8.615  12.145   8.367  1.9861  1.4212  0.7042
  260MOL0     H35823   8.330  12.209   8.432 -1.5549 -2.3402  0.2766
  260MOL0     H35824   8.398  12.050   8.439  0.8363 -1.2470  3.0619
  260MOL0     H35825   8.382  12.155   8.663 -0.6701 -2.4139 -1.0687
  260MOL0     H35826   8.481  12.279   8.643 -0.5030 -1.0043  1.1253
  260MOL0     H35827   8.550  11.979   8.635  1.2256 -0.9343  2.3321
  260MOL0     H35828   8.676  12.099   8.571 -0.1742  1.7344  0.8082
  260MOL0     H35829   8.858  12.159   8.724 -0.1096  0.7491 -0.2482
  260MOL0     H35830   8.989  12.172   8.975 -0.2925  1.5939 -0.6934
  260MOL0     H35831   8.895  12.141   9.118  4.4960 -0.0102  0.9403
  260MOL0     H35832   8.794  12.383   9.093  0.0209 -1.0171  0.3939
  260MOL0     H35833   8.960  12.373   9.138  0.4276 -0.6290 -0.0369
  260MOL0     H35834   9.033  12.405   8.895 -1.0521 -1.1351 -2.7917
  260MOL0     H35835   8.856  12.415   8.860 -1.3214  2.8051  1.2382
  260MOL0     H35836   9.029  12.609   9.026 -0.6861  3.8630 -0.3370
  260MOL0     H35837   8.951  12.647   8.875 -3.2233 -0.4559 -0.7575
  260MOL0     H35838   8.753  12.626   8.778  1.3562 -1.2486  1.8199
  260MOL0     H35839   8.613  12.666   8.595  1.2911 -0.7162  1.8782
  260MOL0     H35840   8.450  12.732   8.587 -0.9539 -0.3695  0.8637
  260MOL0     H35841   8.487  12.560   8.644 -1.0830  0.3213  0.9158
  260MOL0     H35842   8.226  12.854   8.453  0.1873 -0.6477  0.8537
  260MOL0     H35843   7.997  12.911   8.349  2.0640 -2.2559  1.3901
  260MOL0     H35844   7.683  13.114   8.576  2.9670 -1.3221  3.5946
  260MOL0     H35845   7.842  13.169   8.520 -0.4806 -0.3818 -0.0469
  260MOL0     H35846   7.718  13.261   8.366 -1.0479  0.2090  0.3899
  260MOL0     H35847   7.786  13.136   8.278  0.2170  0.3266 -0.0716
  260MOL0     H35848   7.541  13.176   8.239  3.1394 -0.8358 -0.4929
  260MOL0     H35849   7.515  13.121   8.417  0.9211  0.9955  0.1785
  260MOL0     H35850   7.459  12.931   8.262  0.6036 -0.7129 -1.0926
  260MOL0     H35851   7.618  12.912   8.331  0.4125  0.9436  1.0316
  260MOL0     H35852   7.709  12.990   8.099  0.1382  0.8776  1.7223
  260MOL0     H35853   7.592  12.854   8.092 -1.8330 -0.3726 -0.6978
  260MOL0     H35854   7.509  13.156   8.057  1.3595  1.3004 -1.6230
  260MOL0     H35855   7.417  13.000   8.035 -0.1257 -0.4454 -0.3374
  260MOL0     H35856   7.517  12.948   7.849  0.7751 -1.0866  1.6133
  260MOL0     H35857   7.683  13.015   7.873  1.9868  0.2440  0.2206
  260MOL0     H35858   7.581  13.225   7.870  1.2715 -1.0510  1.3593
  260MOL0     H35859   7.433  13.157   7.794  0.4291  1.1260 -2.3853
  260MOL0     H35860   7.852  12.953   8.762  0.7928 -1.2933  1.2259
  260MOL0     H35861   8.051  12.903   8.846  0.2453  0.0656  0.7365
  260MOL0     H35862   8.382  12.786   9.081 -0.6955  1.0494 -1.5279
  260MOL0     H35863   8.618  12.746   9.165  1.4617  0.9760  0.2014
  260MOL0     H35864   8.460  11.667   7.905 -0.2795  1.0936  0.4283
  260MOL0     H35865   8.395  11.460   7.768 -1.1367 -0.7074 -0.3230
  260MOL0     H35866   8.123  11.278   7.381  2.6773 -0.9594  0.4048
  260MOL0     H35867   8.022  11.072   7.275 -2.4358  1.3357  0.9800
  260MOL0     H35868   7.876  10.895   7.228 -0.1800 -1.4493 -2.2210
  260MOL0     H35869   8.030  10.837   7.205  0.1964  3.1577  0.1050
  260MOL0     H35870   7.792  10.670   7.297  0.4351 -0.3954  0.8655
  260MOL0     H35871   7.951  10.610   7.335  0.5953  0.3371  0.4919
  260MOL0     H35872   7.844  10.672   7.053 -1.8054 -1.2707  1.9294
  260MOL0     H35873   8.015  10.626   7.089  0.6607  2.5303  1.6806
  260MOL0     H35874   7.764  10.471   7.094  0.1391  2.5095  0.4711
  260MOL0     H35875   7.894  10.437   7.214 -0.4934 -0.6767 -1.1575
  260MOL0     H35876   8.031  10.278   6.829  0.1789 -0.2082  0.2917
  260MOL0     H35877   8.006  10.893   7.656  0.9449 -1.6742 -1.9081
  260MOL0     H35878   8.065  11.009   7.854  4.1357 -3.2554  0.6623
  260MOL0     H35879   8.222  11.008   7.800  0.5968 -1.0636 -1.8742
  260MOL0     H35880   8.151  11.163   7.843 -1.7868 -0.0370 -0.4430
  261MOL0     O35881  10.145   1.845  10.909 -0.3657  0.6119  0.8312
  261MOL0     C35882  10.268   1.861  10.928  0.2698  0.9561  0.0237
  261MOL0     O35883  10.321   1.974  10.974 -0.0834  0.4137 -0.3686
  261MOL0     C35884  10.264   2.076  11.053  0.1263  0.9569  0.5435
  261MOL0     C35885  10.125   2.090  11.068  0.8395  0.4247 -0.4730
  261MOL0     C35886  10.066   2.151  11.186 -0.7043  0.3507  0.0750
  261MOL0     C35887  10.147   2.227  11.265 -1.3703  0.0619 -0.1819
  261MOL0     O35888  10.095   2.291  11.376  0.1370  0.6845 -0.3863
  261MOL0     C35889   9.995   2.215  11.457 -0.2011 -0.2966 -0.2019
  261MOL0     C35890  10.052   2.117  11.544 -0.7812  0.0095  0.0628
  261MOL0     C35891  10.165   2.174  11.633 -0.4605 -0.2255 -0.4920
  261MOL0     C35892  10.232   2.070  11.730 -0.0206  0.2712 -0.0765
  261MOL0     C35893  10.355   2.134  11.780 -0.1249 -0.4683 -0.5554
  261MOL0     C35894  10.338   2.218  11.903  0.0987 -0.2694  0.2076
  261MOL0     C35895  10.459   2.311  11.922 -0.4061  1.4550  0.0892
  261MOL0     C35896  10.590   2.229  11.956  0.6487 -0.4834  0.2903
  261MOL0     N35897  10.710   2.310  11.976 -0.4758 -0.5507  0.5064
  261MOL0     C35898  10.740   2.424  11.908  0.4169 -0.4624  0.0227
  261MOL0     C35899  10.839   2.477  11.990 -0.2947 -0.0653 -0.4890
  261MOL0     C35900  10.897   2.606  11.975 -0.7005 -0.4926  0.7587
  261MOL0     C35901  11.043   2.586  11.923 -0.4527  0.2280  0.4627
  261MOL0     C35902  11.149   2.528  12.016  0.3615  0.2598  0.4169
  261MOL0     C35903  11.269   2.494  11.934 -0.3297  0.6820 -0.4551
  261MOL0     O35904  11.340   2.611  11.895 -0.1263  0.3617  0.2866
  261MOL0     C35905  11.472   2.589  11.873  0.8074 -0.8021  0.2610
  261MOL0     C35906  11.522   2.505  11.771  0.8938 -0.3209 -0.2680
  261MOL0     C35907  11.658   2.477  11.745 -0.1214 -0.6097  0.4224
  261MOL0     C35908  11.688   2.369  11.636 -0.2301  0.5179 -0.3318
  261MOL0     C35909  11.751   2.531  11.836 -0.5324 -0.4292 -0.2578
  261MOL0     C35910  11.901   2.494  11.824 -1.3673  0.9461  0.6369
  261MOL0     O35911  11.976   2.488  11.942  0.5929  0.6161 -0.7040
  261MOL0     C35912  12.108   2.454  11.942  0.4633 -0.0723 -0.2122
  261MOL0     C35913  12.145   2.319  11.987 -0.4329 -0.3576 -0.4826
  261MOL0     C35914  12.281   2.281  11.965 -0.0762 -0.0682 -0.6797
  261MOL0     C35915  12.383   2.368  11.927  1.0482 -0.5512  0.0019
  261MOL0     O35916  12.513   2.343  11.915  0.3664  0.7612  0.6046
  261MOL0     C35917  12.578   2.268  12.013 -0.5988 -0.7622 -0.7355
  261MOL0     C35918  12.723   2.323  12.039 -0.7622 -0.5982  0.1937
  261MOL0     C35919  12.718   2.466  12.107  0.2464  0.0973 -1.2888
  261MOL0     C35920  12.859   2.530  12.085 -0.3388  0.8276  0.3043
  261MOL0     C35921  12.883   2.621  12.216  0.4390  0.1929  1.3720
  261MOL0     C35922  13.020   2.683  12.201  0.2716 -0.2802  0.1975
  261MOL0     C35923  13.123   2.582  12.244  0.7636  0.5803  0.2510
  261MOL0     C35924  13.252   2.656  12.252 -0.4626 -0.4786 -0.1544
  261MOL0    Cl35925  13.310   2.720  12.100 -0.1793  0.0440  0.4140
  261MOL0     C35926  12.346   2.495  11.884 -0.3497 -0.5602 -0.5346
  261MOL0     C35927  12.209   2.536  11.893  0.8637 -0.6618  0.2909
  261MOL0     O35928  11.947   2.482  11.713  0.1989  0.2655  0.2423
  261MOL0     C35929  11.701   2.620  11.937  0.4157  0.5997 -0.4328
  261MOL0     C35930  11.570   2.657  11.947  0.4896 -0.0253 -0.4188
  261MOL0     N35931  10.862   2.389  12.099  0.0812 -0.2945 -0.0236
  261MOL0     N35932  10.792   2.287  12.084  0.1787  0.9313  0.1301
  261MOL0     C35933  10.284   2.235  11.252 -0.1077  0.6472  0.7108
  261MOL0     C35934  10.344   2.154  11.144  0.0424 -0.9656 -0.3293
  261MOL0     C35935  10.358   1.758  10.885 -1.4301  0.2481  0.5393
  261MOL0     C35936  10.324   1.683  10.775  0.4695  0.4862  0.6312
  261MOL0     C35937  10.406   1.593  10.726 -0.2095 -0.6112 -0.5118
  261MOL0     C35938  10.532   1.565  10.780  0.1310 -0.9104  0.1716
  261MOL0     O35939  10.610   1.464  10.728  0.2144  1.0446  0.2420
  261MOL0     C35940  10.742   1.435  10.785  0.2986  0.3896  0.1881
  261MOL0     C35941  10.809   1.323  10.724 -0.6005 -0.0719  0.3076
  261MOL0     C35942  10.771   1.188  10.790 -0.2795 -1.0270  0.0160
  261MOL0     C35943  10.846   1.076  10.715 -0.8481 -0.6370 -0.6121
  261MOL0     C35944  10.801   1.067  10.576 -0.8647 -0.2010 -0.2046
  261MOL0     C35945  10.748   1.049  10.467 -0.1326 -0.1390  0.3992
  261MOL0     C35946  10.573   1.650  10.882  0.0405 -0.7759 -0.5302
  261MOL0     C35947  10.489   1.748  10.939 -0.3791  0.7452  0.5954
  261MOL0     C35948  10.538   1.817  11.064 -0.4711  1.2477 -0.1712
  261MOL0     H35949  10.068   2.034  10.995  0.7555 -2.9913  1.9663
  261MOL0     H35950   9.959   2.163  11.200 -0.6319 -1.5074  3.0058
  261MOL0     H35951   9.916   2.166  11.400  0.1202  0.2000 -1.0939
  261MOL0     H35952   9.944   2.286  11.523  0.9491  0.1534  0.2169
  261MOL0     H35953   9.979   2.074  11.614 -0.7282 -1.9756 -1.0010
  261MOL0     H35954  10.090   2.033  11.485  0.3463  0.1754  0.5460
  261MOL0     H35955  10.241   2.208  11.561  0.3745 -2.0524 -0.5197
  261MOL0     H35956  10.139   2.262  11.693 -0.3970 -3.3285  4.6534
  261MOL0     H35957  10.166   2.061  11.817  2.5059  0.1627  1.9973
  261MOL0     H35958  10.238   1.969  11.689 -2.2022  0.0552  0.0539
  261MOL0     H35959  10.400   2.191  11.699 -0.2259 -1.2085 -1.1406
  261MOL0     H35960  10.433   2.059  11.799 -0.4285 -0.2041  2.2463
  261MOL0     H35961  10.255   2.285  11.881 -0.5048 -0.5348  1.6050
  261MOL0     H35962  10.319   2.161  11.995  0.7983  1.0246  1.1801
  261MOL0     H35963  10.432   2.372  12.008  0.7610  0.4717  1.2058
  261MOL0     H35964  10.477   2.377  11.836 -1.1309 -1.4715 -2.4875
  261MOL0     H35965  10.571   2.176  12.050 -0.6109  3.1577  2.3232
  261MOL0     H35966  10.618   2.162  11.875 -1.8313  0.0180 -1.0842
  261MOL0     H35967  10.685   2.467  11.826  0.0366 -0.0105  0.5147
  261MOL0     H35968  10.904   2.647  12.076 -2.9797  1.1235  0.3638
  261MOL0     H35969  10.837   2.665  11.905 -3.7901 -1.8922  2.0124
  261MOL0     H35970  11.050   2.535  11.827 -2.6719  0.8039 -0.0796
  261MOL0     H35971  11.084   2.687  11.917 -1.8876  0.8871  1.1002
  261MOL0     H35972  11.173   2.580  12.108  1.4828  6.0599 -2.7019
  261MOL0     H35973  11.109   2.432  12.051 -1.4989  1.4066  1.5968
  261MOL0     H35974  11.335   2.434  11.996  0.0516  0.6922 -0.8451
  261MOL0     H35975  11.239   2.433  11.848 -0.8387  2.0478 -1.2777
  261MOL0     H35976  11.446   2.472  11.701  0.6564 -0.5698  0.1006
  261MOL0     H35977  11.606   2.339  11.571  0.1797 -2.1507  0.2551
  261MOL0     H35978  11.720   2.272  11.676  1.4194 -0.3039 -3.3277
  261MOL0     H35979  11.760   2.414  11.567 -0.6870  0.9752 -0.5113
  261MOL0     H35980  12.081   2.251  12.043 -1.7930  0.3618 -1.1320
  261MOL0     H35981  12.316   2.181  11.989 -2.1447 -1.3862 -2.7470
  261MOL0     H35982  12.516   2.260  12.102 -0.8769 -0.5278 -0.9085
  261MOL0     H35983  12.592   2.163  11.985 -2.4779 -2.2973  3.2189
  261MOL0     H35984  12.765   2.244  12.101 -0.6710 -1.7910 -1.3503
  261MOL0     H35985  12.774   2.329  11.942 -1.1306  0.7181  0.0507
  261MOL0     H35986  12.707   2.447  12.214  3.6207  1.5305 -0.5429
  261MOL0     H35987  12.639   2.530  12.067  0.8693  2.6587  1.2622
  261MOL0     H35988  12.868   2.586  11.991 -1.9887  0.7469  0.0619
  261MOL0     H35989  12.929   2.447  12.082 -0.7378  0.4702  0.7138
  261MOL0     H35990  12.802   2.694  12.229  0.3052  0.3145 -0.0427
  261MOL0     H35991  12.865   2.559  12.304 -0.4047 -2.1597 -0.3709
  261MOL0     H35992  13.010   2.767  12.269  0.6118  0.2801 -0.4352
  261MOL0     H35993  13.040   2.716  12.099 -1.4567 -1.1960 -0.4878
  261MOL0     H35994  13.130   2.492  12.182 -0.6493 -1.6196  3.0358
  261MOL0     H35995  13.100   2.547  12.345  2.3652 -0.4106  0.3082
  261MOL0     H35996  13.334   2.599  12.296  2.7966  1.9164 -2.6508
  261MOL0     H35997  13.243   2.747  12.312 -1.6223  0.7556 -2.0945
  261MOL0     H35998  12.428   2.560  11.852 -2.0530  0.8862 -2.2316
  261MOL0     H35999  12.178   2.633  11.854 -0.0696 -2.1660 -3.0527
  261MOL0     H36000  11.773   2.651  12.012  4.3166 -2.9451 -2.3508
  261MOL0     H36001  11.530   2.722  12.024 -0.2986 -3.8858  2.7552
  261MOL0     H36002  10.342   2.293  11.323  1.6790 -0.1640 -0.0313
  261MOL0     H36003  10.451   2.144  11.127  0.7407  2.5390  1.1609
  261MOL0     H36004  10.230   1.703  10.724  1.0408 -0.9563 -1.1182
  261MOL0     H36005  10.381   1.538  10.636 -0.1232  1.2421 -1.7023
  261MOL0     H36006  10.807   1.523  10.780  3.1323 -1.6404 -1.1829
  261MOL0     H36007  10.729   1.403  10.889  1.0527  0.2792  0.2488
  261MOL0     H36008  10.917   1.335  10.737 -1.1334  6.3288  2.4016
  261MOL0     H36009  10.802   1.324  10.615  2.4548  1.3572  0.0264
  261MOL0     H36010  10.793   1.190  10.897  1.8583  1.2991 -0.3899
  261MOL0     H36011  10.664   1.165  10.778  0.1765 -1.6882 -4.1261
  261MOL0     H36012  10.825   0.982  10.768  0.6158 -0.8452 -0.3631
  261MOL0     H36013  10.952   1.102  10.721 -0.6427 -1.7240  2.0393
  261MOL0     H36014  10.697   1.022  10.377  1.7706  3.6648 -2.0474
  261MOL0     H36015  10.668   1.642  10.934  1.3007  1.3562 -2.3646
  261MOL0     H36016  10.626   1.764  11.100  0.0650  2.1445 -0.1308
  261MOL0     H36017  10.565   1.919  11.036 -0.4160  1.0924 -0.6888
  261MOL0     H36018  10.460   1.814  11.141  1.1087 -2.4885  1.5433
  262MOL0     O36019   2.431   2.345   9.344  0.0972  0.2903 -0.0735
  262MOL0     C36020   2.522   2.260   9.356  0.7158  0.1989 -0.4653
  262MOL0     O36021   2.641   2.283   9.411 -0.4660  0.8269 -0.4177
  262MOL0     C36022   2.653   2.409   9.464 -0.5485  0.8936  0.4459
  262MOL0     C36023   2.632   2.425   9.592 -0.3388 -0.2373 -1.2638
  262MOL0     C36024   2.638   2.547   9.650  0.3482  0.3739  0.6953
  262MOL0     C36025   2.670   2.661   9.576 -0.5801  0.8771 -0.0365
  262MOL0     O36026   2.682   2.780   9.634  0.1563 -0.7769 -0.2440
  262MOL0     C36027   2.547   2.828   9.660  0.4110 -0.8055  0.4645
  262MOL0     C36028   2.551   2.954   9.743  0.3841  0.3312  0.2260
  262MOL0     C36029   2.620   3.083   9.686 -0.8264  0.6753  1.3854
  262MOL0     C36030   2.643   3.187   9.786 -0.0444 -0.6901 -0.0193
  262MOL0     C36031   2.752   3.280   9.738 -0.8681  0.0331 -0.6462
  262MOL0     C36032   2.772   3.399   9.837 -0.1975  0.4789 -0.2900
  262MOL0     C36033   2.859   3.510   9.791 -0.1095 -0.2500  0.2622
  262MOL0     C36034   2.989   3.469   9.729 -0.5771  0.1376 -1.0033
  262MOL0     N36035   3.073   3.413   9.844 -0.3536  0.6034 -0.3171
  262MOL0     C36036   3.074   3.277   9.883 -0.7431 -0.2384  0.3647
  262MOL0     C36037   3.153   3.276   9.990  1.2906 -0.5185  0.0160
  262MOL0     C36038   3.193   3.156  10.072 -0.7750 -0.6624  0.7675
  262MOL0     C36039   3.078   3.141  10.176 -0.0439  0.9946 -0.3276
  262MOL0     C36040   3.032   3.259  10.249 -0.0964 -1.6824 -0.0735
  262MOL0     C36041   2.923   3.238  10.347  0.9276 -0.3126 -0.7022
  262MOL0     O36042   2.826   3.145  10.286  0.1625  0.0526 -0.1322
  262MOL0     C36043   2.722   3.191  10.204  0.3794  0.0942 -0.5839
  262MOL0     C36044   2.693   3.326  10.189 -0.9364 -0.3413 -0.2111
  262MOL0     C36045   2.573   3.381  10.136 -0.2289  0.2532 -0.0494
  262MOL0     C36046   2.577   3.525  10.114  0.6015 -0.8858  1.0464
  262MOL0     C36047   2.480   3.295  10.076  0.3510  0.0760  0.5182
  262MOL0     C36048   2.350   3.340  10.023 -0.1747 -0.6419 -0.5074
  262MOL0     O36049   2.292   3.272   9.923  0.7672 -0.1827 -0.4072
  262MOL0     C36050   2.158   3.284   9.908 -0.1009  0.2025  0.4679
  262MOL0     C36051   2.101   3.327   9.792  0.2464 -0.0830  0.9421
  262MOL0     C36052   1.968   3.324   9.779  0.2269  1.0927 -0.7487
  262MOL0     C36053   1.880   3.277   9.887  0.2329  0.0553  0.2700
  262MOL0     O36054   1.745   3.280   9.883  0.3644 -0.8365  0.2811
  262MOL0     C36055   1.664   3.200   9.974 -0.1414 -0.1191 -0.2417
  262MOL0     C36056   1.513   3.236   9.958  0.9706 -0.6444 -0.2808
  262MOL0     C36057   1.424   3.152  10.061  0.5009 -0.0548 -0.6067
  262MOL0     C36058   1.447   3.209  10.204 -0.6176  0.6665  0.8114
  262MOL0     C36059   1.324   3.194  10.287 -0.4547 -0.1915 -1.0087
  262MOL0     C36060   1.353   3.262  10.428 -0.9292 -0.0443 -0.4193
  262MOL0     C36061   1.230   3.241  10.525 -0.0948  0.1463 -1.4168
  262MOL0     C36062   1.252   3.315  10.655  1.4613 -0.5592  0.1226
  262MOL0    Cl36063   1.100   3.357  10.733 -0.5925 -0.1669  0.7489
  262MOL0     C36064   1.942   3.237  10.003  0.5019 -0.1633 -0.1159
  262MOL0     C36065   2.076   3.254  10.015 -0.2472 -0.0606  0.3596
  262MOL0     O36066   2.307   3.438  10.076  0.7748  0.4740 -0.0742
  262MOL0     C36067   2.502   3.150  10.083 -0.0078 -0.1702  0.7950
  262MOL0     C36068   2.622   3.101  10.147  0.5012 -0.6252  0.7016
  262MOL0     N36069   3.204   3.399  10.003  0.3149 -0.5659 -0.1289
  262MOL0     N36070   3.151   3.483   9.927 -0.6177  0.8395  0.7938
  262MOL0     C36071   2.683   2.644   9.434 -0.7044 -0.5606 -0.8442
  262MOL0     C36072   2.696   2.514   9.381  0.3842  0.0384 -0.2658
  262MOL0     C36073   2.503   2.129   9.283 -0.7175 -0.7412 -0.2664
  262MOL0     C36074   2.385   2.114   9.208 -0.5235  0.2744  0.5964
  262MOL0     C36075   2.367   2.004   9.116  0.4845 -1.3746  0.1664
  262MOL0     C36076   2.467   1.910   9.118 -0.4296 -0.1812  0.8911
  262MOL0     O36077   2.459   1.787   9.057  0.0110 -0.5966 -0.0260
  262MOL0     C36078   2.543   1.776   8.942 -0.5538  0.3498  0.0313
  262MOL0     C36079   2.505   1.660   8.837 -0.4767  0.4720  0.4622
  262MOL0     C36080   2.478   1.534   8.924 -0.7278 -0.2360  0.1070
  262MOL0     C36081   2.444   1.420   8.842 -0.2129 -0.6085 -0.2518
  262MOL0     C36082   2.514   1.301   8.879 -0.9587  0.2875  0.2663
  262MOL0     C36083   2.583   1.208   8.913  0.4228 -0.4691 -0.6128
  262MOL0     C36084   2.582   1.923   9.194 -0.6644  0.6469 -1.3625
  262MOL0     C36085   2.609   2.035   9.274 -0.7925  0.7036 -0.0244
  262MOL0     C36086   2.739   2.032   9.344  0.5758  0.4137 -0.4301
  262MOL0     H36087   2.605   2.342   9.655 -1.3745  0.0318 -1.3370
  262MOL0     H36088   2.624   2.557   9.758  0.1776 -2.3964  0.9942
  262MOL0     H36089   2.473   2.755   9.692 -0.4031  0.3946  1.4311
  262MOL0     H36090   2.511   2.854   9.560  1.2261 -0.8321  0.1558
  262MOL0     H36091   2.446   2.983   9.751  0.3890  0.0942  1.2326
  262MOL0     H36092   2.592   2.929   9.841 -3.8666 -1.0762  1.8879
  262MOL0     H36093   2.712   3.052   9.635 -0.9305  0.1405  1.5171
  262MOL0     H36094   2.547   3.125   9.615  0.8392  1.4577  0.0692
  262MOL0     H36095   2.547   3.236   9.804  0.1905 -0.2335  0.0117
  262MOL0     H36096   2.676   3.138   9.878  0.9543  0.5330  0.3110
  262MOL0     H36097   2.736   3.322   9.638 -2.6926  0.4475 -0.2191
  262MOL0     H36098   2.839   3.215   9.750 -1.1315 -0.2734 -0.3973
  262MOL0     H36099   2.678   3.448   9.862  0.1464  1.0019  0.0147
  262MOL0     H36100   2.817   3.368   9.932 -0.1001  3.2945  0.6783
  262MOL0     H36101   2.874   3.588   9.865 -0.2334  1.3977 -1.3845
  262MOL0     H36102   2.813   3.559   9.705  0.1979  0.1936  0.3499
  262MOL0     H36103   2.983   3.398   9.646 -0.0092 -0.3228 -0.6614
  262MOL0     H36104   3.057   3.551   9.705  1.1512  0.6348  4.2526
  262MOL0     H36105   3.029   3.191   9.833 -2.7486  2.0727 -2.1628
  262MOL0     H36106   3.289   3.163  10.124 -0.8581 -1.5685  1.0586
  262MOL0     H36107   3.204   3.066  10.010  1.7523 -1.1561  1.7913
  262MOL0     H36108   2.996   3.095  10.120  0.1790 -0.7630  0.7120
  262MOL0     H36109   3.107   3.069  10.253 -4.0776 -0.1147  0.4227
  262MOL0     H36110   3.125   3.296  10.294  0.6172 -4.3229  0.8003
  262MOL0     H36111   2.994   3.333  10.177  2.4845 -1.1820 -1.0524
  262MOL0     H36112   2.972   3.196  10.436  0.9726 -0.0660 -0.6108
  262MOL0     H36113   2.871   3.326  10.386  4.4528  0.8317  2.0042
  262MOL0     H36114   2.776   3.393  10.214  0.5953 -2.3395  0.3201
  262MOL0     H36115   2.539   3.544  10.013 -0.9079  1.1034  1.9042
  262MOL0     H36116   2.676   3.567  10.133 -2.0925  6.2788  2.6628
  262MOL0     H36117   2.504   3.574  10.181  0.6366  1.7916 -0.7159
  262MOL0     H36118   2.162   3.355   9.707  0.7162  2.5848  2.0557
  262MOL0     H36119   1.915   3.358   9.690 -1.4212 -1.9723 -1.0885
  262MOL0     H36120   1.691   3.094   9.979 -1.0050 -0.3499 -0.2901
  262MOL0     H36121   1.690   3.226  10.078 -0.7940  0.7425 -0.2832
  262MOL0     H36122   1.502   3.344   9.947  0.6996 -0.5602  0.7089
  262MOL0     H36123   1.481   3.195   9.862 -0.5162  0.9282 -0.4957
  262MOL0     H36124   1.441   3.044  10.059 -0.6886 -0.2650 -3.2817
  262MOL0     H36125   1.319   3.169  10.035  0.7602 -0.9816 -2.3768
  262MOL0     H36126   1.477   3.314  10.201  2.0376  0.0027  1.6629
  262MOL0     H36127   1.528   3.154  10.252 -1.9811  0.3524  2.8701
  262MOL0     H36128   1.242   3.248  10.238 -0.0849 -0.2900 -1.7555
  262MOL0     H36129   1.288   3.091  10.289 -0.0524 -0.3230 -0.4001
  262MOL0     H36130   1.363   3.367  10.399 -1.1147 -0.2405 -1.1991
  262MOL0     H36131   1.445   3.220  10.470 -0.7781 -1.8197 -2.3669
  262MOL0     H36132   1.227   3.135  10.551  1.9283  0.3532 -0.1316
  262MOL0     H36133   1.140   3.280  10.476  0.3303  3.9216  0.4754
  262MOL0     H36134   1.296   3.410  10.624  0.8774 -0.7069 -1.1978
  262MOL0     H36135   1.315   3.257  10.723  3.3790  0.0798 -1.0159
  262MOL0     H36136   1.884   3.212  10.091  2.0269 -1.8087  0.4850
  262MOL0     H36137   2.119   3.226  10.111 -1.1092  0.8265  1.0216
  262MOL0     H36138   2.428   3.087  10.035  2.3166 -1.2077 -1.6476
  262MOL0     H36139   2.648   2.997  10.167  2.9213  0.1406  1.8661
  262MOL0     H36140   2.691   2.733   9.372 -2.6897 -0.8878 -1.6691
  262MOL0     H36141   2.725   2.484   9.280  2.8153  3.0754 -0.6122
  262MOL0     H36142   2.304   2.186   9.213  1.1806  2.2231  1.4814
  262MOL0     H36143   2.274   1.995   9.061  0.0898  5.1183 -1.0809
  262MOL0     H36144   2.549   1.864   8.878  2.6050 -0.8488 -1.5418
  262MOL0     H36145   2.645   1.758   8.978 -0.7323  0.4496  0.6016
  262MOL0     H36146   2.588   1.644   8.767  1.2370  3.6875  1.5668
  262MOL0     H36147   2.421   1.700   8.781 -0.9400 -1.2390 -0.1313
  262MOL0     H36148   2.575   1.518   8.972 -1.2229 -0.4859  1.0498
  262MOL0     H36149   2.397   1.543   8.997 -2.1364 -6.1228 -0.2606
  262MOL0     H36150   2.465   1.449   8.739  0.7856  0.1379  0.1431
  262MOL0     H36151   2.336   1.407   8.848 -0.4446  0.6776 -1.1112
  262MOL0     H36152   2.639   1.121   8.942 -1.2653 -1.3483  0.1405
  262MOL0     H36153   2.655   1.843   9.187 -0.4563  0.7432 -0.3592
  262MOL0     H36154   2.789   1.935   9.356  1.9883  1.1714  0.0175
  262MOL0     H36155   2.799   2.104   9.288 -0.8040  0.9371 -1.2737
  262MOL0     H36156   2.727   2.071   9.446 -3.8135  1.0444 -0.9723
  263MOL0     O36157   1.918   5.726  10.066 -0.1134 -0.3660 -0.1599
  263MOL0     C36158   1.951   5.695   9.952  0.2063 -0.4596 -0.1863
  263MOL0     O36159   2.005   5.578   9.926  0.2283  0.0487  0.4057
  263MOL0     C36160   2.032   5.493  10.031 -0.7156 -0.1160 -0.2854
  263MOL0     C36161   2.122   5.537  10.127 -0.8873  0.4548 -0.1557
  263MOL0     C36162   2.184   5.455  10.224  1.0666 -0.3364 -0.1176
  263MOL0     C36163   2.148   5.322  10.233 -0.2003  0.9925  0.3668
  263MOL0     O36164   2.199   5.244  10.328  0.3852  0.1420  0.3154
  263MOL0     C36165   2.159   5.286  10.460  0.0657 -0.4351 -0.6459
  263MOL0     C36166   2.184   5.173  10.559 -0.0009 -0.3866  0.1337
  263MOL0     C36167   2.270   5.210  10.672 -0.4767 -0.6106 -0.1026
  263MOL0     C36168   2.339   5.090  10.741  0.1873 -0.0776 -0.3559
  263MOL0     C36169   2.394   5.149  10.859 -0.2361 -0.2656 -1.1173
  263MOL0     C36170   2.480   5.047  10.928  0.2755  0.0735  0.0823
  263MOL0     C36171   2.397   4.924  10.989  0.0231  0.0656  0.8003
  263MOL0     C36172   2.304   4.958  11.106 -0.1855 -0.8293 -0.3672
  263MOL0     N36173   2.360   5.017  11.227  0.1797  0.3264 -0.3589
  263MOL0     C36174   2.413   4.943  11.334 -0.9990  0.5585  0.4525
  263MOL0     C36175   2.417   5.029  11.430 -0.0954 -0.8383 -0.0719
  263MOL0     C36176   2.462   4.983  11.557  0.1958  0.6240  0.8813
  263MOL0     C36177   2.517   5.108  11.642 -0.6932  0.2211  0.1915
  263MOL0     C36178   2.569   5.048  11.768 -0.2129  1.0305 -0.2844
  263MOL0     C36179   2.657   5.151  11.837  0.0990  0.5548 -0.2494
  263MOL0     O36180   2.792   5.118  11.787  0.6141 -0.9649 -0.1321
  263MOL0     C36181   2.884   5.218  11.822 -0.4469 -0.0497 -0.5884
  263MOL0     C36182   2.901   5.265  11.948 -0.0529  0.0710 -0.9423
  263MOL0     C36183   3.005   5.354  11.969 -0.0600 -0.1260 -0.6735
  263MOL0     C36184   3.042   5.375  12.121 -0.3777  0.5206 -0.9656
  263MOL0     C36185   3.079   5.410  11.864 -0.0545  1.3934 -0.1352
  263MOL0     C36186   3.193   5.500  11.890 -0.6435  1.0139  0.3645
  263MOL0     O36187   3.221   5.544  12.007  0.5328  0.6472 -0.4205
  263MOL0     C36188   3.317   5.641  12.028 -0.6539  0.5770 -0.1303
  263MOL0     C36189   3.393   5.625  12.146 -0.4690 -0.8590 -0.2637
  263MOL0     C36190   3.500   5.708  12.182 -0.0564  0.0963  0.3069
  263MOL0     C36191   3.541   5.805  12.085 -0.0943  0.3057 -0.4233
  263MOL0     O36192   3.645   5.890  12.100  0.4347  0.4547  0.4637
  263MOL0     C36193   3.732   5.858  12.220 -0.0035  0.0548 -0.1691
  263MOL0     C36194   3.844   5.960  12.234 -0.8760  0.5559  0.5795
  263MOL0     C36195   3.882   5.991  12.373 -0.1611  0.5173 -0.2806
  263MOL0     C36196   4.001   6.085  12.386  0.4784  0.4785  0.9988
  263MOL0     C36197   4.071   6.082  12.520  0.5103 -0.6909 -0.3824
  263MOL0     C36198   4.219   6.135  12.519 -0.1078  0.8489 -0.1591
  263MOL0     C36199   4.286   6.102  12.652  1.1912 -0.0051  0.5778
  263MOL0     C36200   4.407   6.195  12.664 -0.2828 -0.7004  0.8391
  263MOL0    Cl36201   4.512   6.131  12.539 -0.7377  0.0272 -0.2733
  263MOL0     C36202   3.460   5.824  11.977 -1.4969 -0.6529  1.2410
  263MOL0     C36203   3.350   5.746  11.941 -0.4764 -0.2420 -0.0253
  263MOL0     O36204   3.266   5.522  11.786  0.4215 -0.1841 -0.2516
  263MOL0     C36205   3.036   5.383  11.734  0.0578 -0.8990 -0.4533
  263MOL0     C36206   2.952   5.278  11.715 -0.1887 -0.2143 -1.1654
  263MOL0     N36207   2.376   5.154  11.393  0.2168 -0.0638 -1.0342
  263MOL0     N36208   2.332   5.148  11.271  0.5608 -0.5334 -0.5630
  263MOL0     C36209   2.046   5.275  10.144 -0.0898 -0.1750  0.4376
  263MOL0     C36210   1.997   5.357  10.039 -0.0052  0.6283  0.6918
  263MOL0     C36211   1.912   5.783   9.843  0.0388 -1.0379  0.1738
  263MOL0     C36212   1.958   5.763   9.708  0.3978 -0.0409  0.1199
  263MOL0     C36213   1.924   5.844   9.595  0.4932  0.6302 -0.0546
  263MOL0     C36214   1.845   5.953   9.616 -1.1536 -0.0847 -0.6235
  263MOL0     O36215   1.804   6.030   9.506  0.0357  0.4800 -0.0456
  263MOL0     C36216   1.791   6.165   9.534  0.9017  0.2344 -0.3918
  263MOL0     C36217   1.843   6.235   9.419 -0.5635 -0.4099  0.1241
  263MOL0     C36218   1.995   6.201   9.389 -0.4156 -0.4813 -1.2759
  263MOL0     C36219   2.036   6.254   9.252  0.8990  0.1670  0.6614
  263MOL0     C36220   2.081   6.397   9.245  0.1867  1.1275 -0.7425
  263MOL0     C36221   2.127   6.511   9.236 -0.6099  0.3374  0.4548
  263MOL0     C36222   1.791   5.972   9.748 -0.3359 -1.0875  0.5273
  263MOL0     C36223   1.820   5.894   9.859 -0.1367  0.1667 -0.3536
  263MOL0     C36224   1.768   5.942   9.992 -0.8582 -0.1796  0.3302
  263MOL0     H36225   2.155   5.640  10.134 -0.2598  0.2236  0.4440
  263MOL0     H36226   2.266   5.486  10.288  2.6221 -2.1815 -1.1193
  263MOL0     H36227   2.054   5.316  10.466 -0.0072 -0.7692 -0.1284
  263MOL0     H36228   2.215   5.374  10.493  2.8304 -1.5122 -2.1428
  263MOL0     H36229   2.087   5.143  10.600  0.2024 -1.8287 -0.3969
  263MOL0     H36230   2.233   5.086  10.514  2.6398  1.2513 -0.3201
  263MOL0     H36231   2.352   5.270  10.631 -0.1952 -1.2703 -0.5044
  263MOL0     H36232   2.214   5.265  10.749 -0.8742 -2.8321  1.2716
  263MOL0     H36233   2.251   5.028  10.763 -0.6840  0.8748 -1.0851
  263MOL0     H36234   2.416   5.043  10.679 -0.4556  1.1939 -2.1793
  263MOL0     H36235   2.309   5.183  10.919 -0.2540 -1.2879 -0.5445
  263MOL0     H36236   2.453   5.241  10.845 -1.1969  0.9493  1.9105
  263MOL0     H36237   2.550   5.007  10.855  0.3094 -2.3934  1.3265
  263MOL0     H36238   2.527   5.092  11.017 -0.7781  1.3146  0.0399
  263MOL0     H36239   2.471   4.853  11.029  0.9675 -0.0121 -0.9823
  263MOL0     H36240   2.325   4.879  10.920 -0.1928  0.0468  1.0395
  263MOL0     H36241   2.230   5.025  11.061 -0.7494 -0.8741  0.4612
  263MOL0     H36242   2.235   4.877  11.133 -1.3090  0.5696  1.1143
  263MOL0     H36243   2.452   4.843  11.327  0.3161  1.1000 -0.2821
  263MOL0     H36244   2.537   4.904  11.551 -1.0749 -0.5837 -0.0416
  263MOL0     H36245   2.371   4.946  11.607 -2.0425  0.8549 -2.6310
  263MOL0     H36246   2.599   5.165  11.596 -0.8379 -0.5843 -1.1116
  263MOL0     H36247   2.444   5.185  11.668  0.6167  0.8693  2.2061
  263MOL0     H36248   2.484   5.024  11.833 -0.0682  0.2219 -0.3903
  263MOL0     H36249   2.626   4.955  11.758 -0.5569  0.8875 -0.9646
  263MOL0     H36250   2.632   5.253  11.806  3.0361  2.1602  2.0651
  263MOL0     H36251   2.640   5.146  11.945 -3.7938  0.5284 -0.7401
  263MOL0     H36252   2.861   5.223  12.040 -1.8251  2.9175 -0.2564
  263MOL0     H36253   3.038   5.479  12.154  0.3584  0.1228  0.4322
  263MOL0     H36254   3.141   5.334  12.142 -0.0463  0.0736 -3.1136
  263MOL0     H36255   2.982   5.306  12.180 -0.1389 -1.6147 -3.0610
  263MOL0     H36256   3.359   5.546  12.213 -4.1227  1.7889  1.3787
  263MOL0     H36257   3.558   5.680  12.269  1.4689 -1.5310 -1.1531
  263MOL0     H36258   3.673   5.869  12.312  0.9366  3.3212  0.1661
  263MOL0     H36259   3.769   5.755  12.216  2.0665  0.5846  2.5805
  263MOL0     H36260   3.924   5.918  12.174  0.1558  1.0539  1.5688
  263MOL0     H36261   3.824   6.053  12.180 -0.5332  0.2594 -0.0601
  263MOL0     H36262   3.910   5.901  12.429 -2.2330  2.1690  3.8522
  263MOL0     H36263   3.795   6.029  12.428 -0.2564  0.5489 -0.4523
  263MOL0     H36264   3.969   6.186  12.355 -1.9980 -0.8961 -1.3444
  263MOL0     H36265   4.077   6.056  12.313  1.4023  0.2778  2.0126
  263MOL0     H36266   4.004   6.126  12.594  0.9786 -2.2572  1.0552
  263MOL0     H36267   4.074   5.978  12.553  2.5851 -0.3990  0.4948
  263MOL0     H36268   4.220   6.243  12.502  0.4705  1.3818  2.7087
  263MOL0     H36269   4.284   6.080  12.451  6.5969  0.1051  5.6119
  263MOL0     H36270   4.312   5.996  12.663 -1.0875 -0.7203 -0.3628
  263MOL0     H36271   4.217   6.106  12.737  0.3171  0.0039 -0.1174
  263MOL0     H36272   4.440   6.191  12.768 -0.4511 -3.4269  0.8433
  263MOL0     H36273   4.382   6.300  12.644  0.7958 -0.0497  2.6102
  263MOL0     H36274   3.494   5.903  11.911  1.3533 -4.3035 -2.1866
  263MOL0     H36275   3.310   5.755  11.841  0.9076 -1.6296 -0.7465
  263MOL0     H36276   3.074   5.444  11.653 -2.7940  0.7491 -0.6905
  263MOL0     H36277   2.936   5.267  11.608  2.1431 -0.3059 -1.5584
  263MOL0     H36278   2.018   5.170  10.135  2.2753 -0.9702  1.5623
  263MOL0     H36279   1.918   5.332   9.969 -0.2244  2.4373  0.2351
  263MOL0     H36280   2.009   5.671   9.679 -1.0018 -0.8880  0.2593
  263MOL0     H36281   1.974   5.827   9.501  0.7494 -1.5887  0.4298
  263MOL0     H36282   1.684   6.189   9.540  1.4069  2.3146  2.3713
  263MOL0     H36283   1.839   6.199   9.626  2.7597  0.6142 -1.4384
  263MOL0     H36284   1.838   6.344   9.425  0.0165 -0.1035 -3.0699
  263MOL0     H36285   1.794   6.192   9.330  1.6292 -2.3304 -0.2416
  263MOL0     H36286   2.062   6.252   9.459 -1.0956 -0.5134 -0.5829
  263MOL0     H36287   2.019   6.096   9.409  2.6886  0.2356 -0.6387
  263MOL0     H36288   1.964   6.250   9.169  2.4816  0.5708 -0.7722
  263MOL0     H36289   2.123   6.193   9.227  0.8055 -0.7656  2.4638
  263MOL0     H36290   2.174   6.607   9.240 -1.3590  0.7710 -0.8373
  263MOL0     H36291   1.722   6.054   9.767  1.9015  1.3497 -1.2530
  263MOL0     H36292   1.698   6.026   9.992 -2.4757 -1.4496  1.8023
  263MOL0     H36293   1.705   5.858  10.024 -1.4699 -0.6832 -2.0289
  263MOL0     H36294   1.842   5.958  10.071 -1.0523 -0.7530  0.6383
  264MOL0     O36295   6.585   9.861   3.855  0.9951 -0.5792 -0.0896
  264MOL0     C36296   6.520   9.953   3.810  0.1054 -0.4203 -0.4331
  264MOL0     O36297   6.435  10.030   3.887  0.1608  0.3640  0.2767
  264MOL0     C36298   6.424  10.014   4.022  0.5982 -1.1825  0.3400
  264MOL0     C36299   6.399  10.140   4.083  0.0528  0.1235  0.5869
  264MOL0     C36300   6.368  10.142   4.222 -0.7352  0.3596  0.5474
  264MOL0     C36301   6.346  10.024   4.291  0.5652 -0.7343 -0.8387
  264MOL0     O36302   6.340  10.048   4.429 -0.8942 -0.0342 -0.2967
  264MOL0     C36303   6.227   9.981   4.484  0.4168 -0.3353 -0.1526
  264MOL0     C36304   6.256   9.937   4.629  0.3312 -0.7125 -0.7882
  264MOL0     C36305   6.308   9.788   4.623 -0.7594  0.6433  0.0929
  264MOL0     C36306   6.351   9.757   4.770 -0.5449  0.0372  0.0366
  264MOL0     C36307   6.362   9.605   4.786  0.1952 -0.3705 -0.7804
  264MOL0     C36308   6.229   9.522   4.768  0.2339 -1.5752  0.3717
  264MOL0     C36309   6.256   9.377   4.750  0.5971 -0.3686  0.2702
  264MOL0     C36310   6.148   9.282   4.719  0.5549  0.1308 -0.9131
  264MOL0     N36311   6.189   9.155   4.659  0.0684 -0.1904  0.5071
  264MOL0     C36312   6.298   9.082   4.708  0.6123 -0.0091  0.3184
  264MOL0     C36313   6.333   8.990   4.617  0.7133 -0.1045 -0.0686
  264MOL0     C36314   6.445   8.895   4.618 -0.4283  0.3710 -0.3362
  264MOL0     C36315   6.444   8.821   4.749 -0.0874  0.2333  0.4069
  264MOL0     C36316   6.578   8.752   4.777 -1.0730  0.8265 -0.3432
  264MOL0     C36317   6.554   8.698   4.919  0.1091  0.2705 -0.8165
  264MOL0     O36318   6.676   8.645   4.966  0.4956  0.0590  0.0654
  264MOL0     C36319   6.706   8.670   5.094 -0.6921  0.1982 -0.2243
  264MOL0     C36320   6.842   8.670   5.114  0.4268 -0.1664 -0.9093
  264MOL0     C36321   6.894   8.714   5.242  0.2608  0.0399  0.5385
  264MOL0     C36322   7.040   8.750   5.251  0.2168  0.0522 -0.2235
  264MOL0     C36323   6.809   8.735   5.352 -0.0646  0.4321 -0.1285
  264MOL0     C36324   6.847   8.787   5.493  0.9184  0.4173  0.1775
  264MOL0     O36325   6.973   8.828   5.517  0.6174 -0.3751  0.2797
  264MOL0     C36326   7.030   8.852   5.639 -0.2364  0.7233  0.1071
  264MOL0     C36327   7.162   8.793   5.658 -0.3945  0.3774 -0.4884
  264MOL0     C36328   7.229   8.797   5.778 -1.2297 -0.6171  0.2772
  264MOL0     C36329   7.176   8.865   5.889 -0.0641 -0.6146  0.0937
  264MOL0     O36330   7.234   8.870   6.013 -0.1813 -0.0432 -0.4590
  264MOL0     C36331   7.234   8.735   6.067  0.2265  1.1700  0.5048
  264MOL0     C36332   7.263   8.743   6.214  0.5819 -0.9023 -0.4812
  264MOL0     C36333   7.164   8.831   6.301  0.1410 -0.4928  0.4070
  264MOL0     C36334   7.026   8.762   6.328 -1.4140  0.0196 -0.5446
  264MOL0     C36335   6.920   8.841   6.389 -0.3051 -0.9942 -0.0256
  264MOL0     C36336   6.866   8.939   6.284  0.4987  0.2778  0.5005
  264MOL0     C36337   6.710   8.954   6.280  0.0435  0.4876  0.9076
  264MOL0     C36338   6.623   8.847   6.201 -0.2021  0.7305  0.0317
  264MOL0    Cl36339   6.658   8.851   6.019  0.2430  0.0035 -0.1204
  264MOL0     C36340   7.050   8.929   5.871 -0.7666 -0.3398  1.4850
  264MOL0     C36341   6.979   8.917   5.745  0.0786 -0.0225 -0.6350
  264MOL0     O36342   6.762   8.782   5.577  0.5394 -1.0989 -0.0684
  264MOL0     C36343   6.674   8.735   5.323  0.5945  0.4257 -0.3744
  264MOL0     C36344   6.620   8.709   5.199 -0.0057 -0.0837  0.2376
  264MOL0     N36345   6.244   9.006   4.516 -0.5372 -0.1358 -0.2752
  264MOL0     N36346   6.162   9.103   4.537 -0.0777 -0.0518 -0.4197
  264MOL0     C36347   6.372   9.905   4.225  0.4343 -0.4177 -1.2762
  264MOL0     C36348   6.399   9.895   4.088  0.2268  0.0370 -0.1217
  264MOL0     C36349   6.544   9.975   3.674 -1.0189  0.0483  0.8453
  264MOL0     C36350   6.552  10.109   3.626 -0.8258  0.0776 -0.3589
  264MOL0     C36351   6.563  10.138   3.490  0.3232  0.2647  0.8880
  264MOL0     C36352   6.576  10.029   3.402 -0.8172  0.3053 -0.1374
  264MOL0     O36353   6.616  10.059   3.273 -0.3452  0.5300 -0.0880
  264MOL0     C36354   6.761  10.072   3.260 -0.9186  0.7061  0.1055
  264MOL0     C36355   6.826  10.000   3.154  0.3704 -0.4947  0.5097
  264MOL0     C36356   6.831   9.849   3.180 -0.6224 -0.0506  0.4518
  264MOL0     C36357   6.925   9.787   3.079 -0.2707 -0.6158 -0.0527
  264MOL0     C36358   6.940   9.641   3.084 -0.2271 -0.9073 -0.4181
  264MOL0     C36359   6.951   9.518   3.106  0.2321  0.1951  1.3997
  264MOL0     C36360   6.556   9.897   3.444  0.2369 -0.0884  0.2120
  264MOL0     C36361   6.537   9.866   3.585  0.2291  0.6324  1.0587
  264MOL0     C36362   6.512   9.723   3.625  0.0034 -0.2511  0.2828
  264MOL0     H36363   6.410  10.238   4.037 -2.5293  1.2728  2.1866
  264MOL0     H36364   6.360  10.238   4.272  3.8158  0.4026  1.6312
  264MOL0     H36365   6.183   9.909   4.414  4.0047 -3.3208  0.3221
  264MOL0     H36366   6.155  10.063   4.491 -0.0026 -0.2725 -3.4285
  264MOL0     H36367   6.326   9.999   4.685 -1.1140  1.5295 -1.3378
  264MOL0     H36368   6.158   9.939   4.677 -1.3311 -0.1714 -3.9313
  264MOL0     H36369   6.219   9.743   4.578  0.1430  1.7298 -2.9804
  264MOL0     H36370   6.403   9.777   4.570 -0.9440 -2.2108  0.1856
  264MOL0     H36371   6.443   9.810   4.795 -0.5300 -1.4695  3.7691
  264MOL0     H36372   6.279   9.801   4.840  0.1160  3.5264 -1.3113
  264MOL0     H36373   6.386   9.577   4.888 -1.4727 -0.9632 -0.5162
  264MOL0     H36374   6.441   9.565   4.721 -0.3558 -2.7179 -0.0774
  264MOL0     H36375   6.171   9.534   4.860 -2.8266  2.2315 -1.7488
  264MOL0     H36376   6.166   9.564   4.689  1.3911 -2.8575 -1.3235
  264MOL0     H36377   6.306   9.324   4.832 -1.2160 -4.2851 -0.8957
  264MOL0     H36378   6.322   9.387   4.663  1.3664  2.8158  1.0802
  264MOL0     H36379   6.088   9.261   4.809  0.6565  2.0603 -0.3499
  264MOL0     H36380   6.076   9.332   4.654  0.2441  1.3473  0.3161
  264MOL0     H36381   6.355   9.106   4.798  1.7373  1.8221 -0.8036
  264MOL0     H36382   6.538   8.951   4.602  0.3872 -0.5340  1.0121
  264MOL0     H36383   6.424   8.825   4.536 -0.8764 -2.4291  1.9787
  264MOL0     H36384   6.424   8.892   4.829 -1.1037  0.9572 -0.4561
  264MOL0     H36385   6.372   8.739   4.746 -1.7401  1.6539 -1.8120
  264MOL0     H36386   6.613   8.674   4.709  3.5472 -0.7986  3.3799
  264MOL0     H36387   6.661   8.823   4.786 -1.0872  0.9827 -1.2771
  264MOL0     H36388   6.528   8.789   4.974 -0.3097  0.3097 -1.0712
  264MOL0     H36389   6.481   8.617   4.913  0.5938 -0.3074  0.7175
  264MOL0     H36390   6.913   8.646   5.036  1.2194 -1.5989  0.2119
  264MOL0     H36391   7.072   8.723   5.352 -1.0243  1.6569  0.6289
  264MOL0     H36392   7.072   8.850   5.222  1.0803 -0.3359 -0.6558
  264MOL0     H36393   7.089   8.681   5.181 -0.0166  1.7787 -2.1825
  264MOL0     H36394   7.196   8.730   5.577 -0.9091 -2.8818  1.6334
  264MOL0     H36395   7.327   8.754   5.794  0.4641  1.1298 -4.0171
  264MOL0     H36396   7.136   8.693   6.047 -0.7108  3.3812  0.1236
  264MOL0     H36397   7.299   8.666   6.011 -1.8817  0.1188 -0.7716
  264MOL0     H36398   7.263   8.637   6.245  1.1212 -1.4124 -2.1245
  264MOL0     H36399   7.361   8.790   6.216 -0.9359  2.5122 -0.6274
  264MOL0     H36400   7.158   8.928   6.251  1.7579  0.1259  1.3544
  264MOL0     H36401   7.208   8.869   6.393  0.0316  1.2915 -0.2209
  264MOL0     H36402   7.047   8.678   6.395 -0.9302  0.0120 -0.6967
  264MOL0     H36403   6.997   8.720   6.231  0.5649 -1.7492 -0.4449
  264MOL0     H36404   6.850   8.769   6.433 -1.7993  0.7214  0.5324
  264MOL0     H36405   6.961   8.905   6.468  2.0770 -0.5383 -1.5521
  264MOL0     H36406   6.887   8.898   6.185  1.4965  1.7341  0.0886
  264MOL0     H36407   6.923   9.031   6.299 -2.2259  1.7429  3.0621
  264MOL0     H36408   6.688   9.048   6.228 -0.1818 -1.2663 -2.4093
  264MOL0     H36409   6.671   8.962   6.382  0.4214 -0.1419  1.1071
  264MOL0     H36410   6.515   8.864   6.203 -0.2031  0.8320 -0.7464
  264MOL0     H36411   6.651   8.753   6.248 -0.2164  0.4502 -0.5174
  264MOL0     H36412   6.988   8.953   5.956 -2.1402 -0.6904  0.6186
  264MOL0     H36413   6.885   8.970   5.737 -0.7481 -1.4562 -0.8961
  264MOL0     H36414   6.607   8.790   5.389  0.7620 -2.5158  2.4726
  264MOL0     H36415   6.513   8.717   5.182  0.2143 -2.2094 -3.2176
  264MOL0     H36416   6.360   9.816   4.286 -0.1324 -0.0141 -0.7838
  264MOL0     H36417   6.413   9.797   4.043 -0.7981  1.1068 -3.0145
  264MOL0     H36418   6.555  10.195   3.691 -1.8438  1.7372 -2.3893
  264MOL0     H36419   6.562  10.240   3.454 -0.2889 -0.8963 -2.7755
  264MOL0     H36420   6.787  10.178   3.251  2.1530 -0.1356 -2.7426
  264MOL0     H36421   6.808  10.038   3.353 -0.6153 -1.6816 -0.8466
  264MOL0     H36422   6.926  10.041   3.144  0.8348 -1.2179  1.9206
  264MOL0     H36423   6.759  10.026   3.071 -0.8110  0.9992  1.8801
  264MOL0     H36424   6.853   9.826   3.285 -2.8537 -0.0155  0.9744
  264MOL0     H36425   6.726   9.822   3.176 -0.9631  1.3589 -0.9427
  264MOL0     H36426   7.023   9.834   3.078 -0.5320 -0.0136  0.7976
  264MOL0     H36427   6.881   9.805   2.981  0.2734  0.1451 -0.1666
  264MOL0     H36428   6.932   9.413   3.115  2.1451 -0.2597  0.6455
  264MOL0     H36429   6.535   9.824   3.367 -0.6187  0.8931 -0.5242
  264MOL0     H36430   6.500   9.657   3.539 -2.2352 -1.2374  1.2551
  264MOL0     H36431   6.605   9.700   3.677  1.3685  1.7393 -1.1293
  264MOL0     H36432   6.430   9.706   3.696  0.5700  0.4924  1.1362
  265MOL0     O36433   5.439   1.063   8.540 -0.7124 -0.9741  0.2014
  265MOL0     C36434   5.352   1.075   8.460 -0.2581  0.4753 -0.1999
  265MOL0     O36435   5.228   1.125   8.489 -0.0320 -0.5323  0.3332
  265MOL0     C36436   5.194   1.153   8.620 -0.7261  0.2383 -0.1568
  265MOL0     C36437   5.091   1.081   8.674 -0.2933  0.7838  0.5174
  265MOL0     C36438   5.060   1.093   8.810 -0.3510  0.3489  0.7813
  265MOL0     C36439   5.131   1.177   8.896 -0.7322 -0.3683  0.7558
  265MOL0     O36440   5.085   1.166   9.022 -0.7352  0.6030 -0.0196
  265MOL0     C36441   5.050   1.291   9.083 -0.0816 -0.1907  0.5317
  265MOL0     C36442   4.944   1.283   9.188  1.0792  0.1763  0.4660
  265MOL0     C36443   4.834   1.170   9.158  0.0450  1.2116 -0.1603
  265MOL0     C36444   4.843   1.018   9.213 -1.5052 -0.4996  0.5121
  265MOL0     C36445   4.758   0.904   9.154 -1.0964 -0.0475 -0.5025
  265MOL0     C36446   4.795   0.780   9.236  0.1369  0.6518  0.5625
  265MOL0     C36447   4.756   0.640   9.175 -0.4763 -0.5650 -0.6864
  265MOL0     C36448   4.660   0.570   9.268 -0.2174  0.6078 -0.4049
  265MOL0     N36449   4.714   0.541   9.406 -0.1065 -0.6972  0.4206
  265MOL0     C36450   4.844   0.520   9.434 -0.3132  0.1905 -1.0194
  265MOL0     C36451   4.843   0.455   9.550 -0.4401  0.1099  0.1953
  265MOL0     C36452   4.949   0.406   9.642 -0.6726 -0.2266  0.8899
  265MOL0     C36453   4.951   0.257   9.657 -0.5579  0.7562  0.3704
  265MOL0     C36454   5.077   0.216   9.728 -0.1796  0.1402 -0.7174
  265MOL0     C36455   5.070   0.232   9.880 -0.3226 -0.5542 -0.4815
  265MOL0     O36456   4.978   0.139   9.942  0.5707 -0.1568  0.0895
  265MOL0     C36457   4.976   0.130  10.085 -0.2517 -0.4244  0.3155
  265MOL0     C36458   5.050   0.213  10.170  0.7349  0.6874 -0.1087
  265MOL0     C36459   5.059   0.186  10.311  0.2015 -0.8579  0.5244
  265MOL0     C36460   5.153   0.269  10.389  0.7271  0.1407  0.0073
  265MOL0     C36461   4.982   0.071  10.353  0.0290  0.6732 -0.9005
  265MOL0     C36462   4.983   0.024  10.494 -0.4750 -0.8841  0.4453
  265MOL0     O36463   4.973  -0.114  10.506  0.3056 -0.9588 -0.3563
  265MOL0     C36464   4.946  -0.146  10.641 -0.5401  0.1622 -1.3393
  265MOL0     C36465   4.811  -0.162  10.673  0.6173  0.0484 -0.6315
  265MOL0     C36466   4.778  -0.197  10.801 -0.1252 -0.3215  0.0599
  265MOL0     C36467   4.878  -0.214  10.907 -1.1877 -0.2369  0.8190
  265MOL0     O36468   4.862  -0.251  11.035  0.4121  0.2998 -0.4974
  265MOL0     C36469   4.741  -0.184  11.085 -0.7002  1.1683  0.1927
  265MOL0     C36470   4.733  -0.140  11.234  0.5147  0.4050  0.0008
  265MOL0     C36471   4.843  -0.045  11.274 -0.0512  0.4998 -0.2878
  265MOL0     C36472   4.845   0.071  11.183  0.6690 -0.2034  0.5183
  265MOL0     C36473   4.951   0.182  11.233 -0.1978 -0.0179  0.7304
  265MOL0     C36474   5.091   0.126  11.277  1.0619  0.4934  0.3033
  265MOL0     C36475   5.164   0.073  11.151  0.0876 -0.3967 -0.6794
  265MOL0     C36476   5.299   0.016  11.182 -0.4476  0.0065  0.2623
  265MOL0    Cl36477   5.272  -0.144  11.252 -0.0130  0.1861 -0.4055
  265MOL0     C36478   5.011  -0.205  10.870 -0.1312 -1.0317  0.9359
  265MOL0     C36479   5.048  -0.170  10.735 -0.3070 -0.2133  0.9456
  265MOL0     O36480   4.962   0.108  10.583 -0.4087  0.2372 -0.6508
  265MOL0     C36481   4.895  -0.000  10.266  0.6567 -0.2348  0.6612
  265MOL0     C36482   4.891   0.038  10.133  0.2651 -0.5382 -0.0705
  265MOL0     N36483   4.706   0.420   9.579  0.6139  0.6993  0.3882
  265MOL0     N36484   4.634   0.469   9.486  0.2216 -0.5843 -0.4029
  265MOL0     C36485   5.249   1.242   8.846  0.5515  0.3674 -0.1140
  265MOL0     C36486   5.277   1.232   8.714 -0.6440  0.4765 -0.0631
  265MOL0     C36487   5.376   1.036   8.318  1.5668  0.2276 -0.1951
  265MOL0     C36488   5.265   1.053   8.229  0.8883 -0.4642  0.4930
  265MOL0     C36489   5.275   1.028   8.098  0.1864 -0.6622 -0.0824
  265MOL0     C36490   5.399   0.982   8.047  0.4410 -0.0523  0.4174
  265MOL0     O36491   5.424   0.966   7.913  0.2917  0.6339 -0.1447
  265MOL0     C36492   5.380   1.070   7.826  0.1629  0.6387 -0.2223
  265MOL0     C36493   5.437   1.036   7.685 -1.1317 -0.6499 -0.0252
  265MOL0     C36494   5.476   1.167   7.594 -0.2831  0.2794 -0.3674
  265MOL0     C36495   5.373   1.287   7.615 -0.3919 -0.6754 -0.1670
  265MOL0     C36496   5.239   1.244   7.594  0.4690  0.0515  0.3538
  265MOL0     C36497   5.130   1.192   7.569  0.5413 -0.7977  1.8385
  265MOL0     C36498   5.493   0.954   8.134 -0.3575  0.0316 -0.5869
  265MOL0     C36499   5.490   0.971   8.271 -0.7449  0.8540 -0.0300
  265MOL0     C36500   5.609   0.933   8.353  0.2221 -0.1396  0.7175
  265MOL0     H36501   5.041   1.026   8.594  0.8468  1.6455 -0.8338
  265MOL0     H36502   4.987   1.029   8.859  1.0586 -1.0389  1.1567
  265MOL0     H36503   5.005   1.351   9.004 -0.3232  0.2066  0.9653
  265MOL0     H36504   5.148   1.333   9.111  2.3572 -4.2697 -1.0048
  265MOL0     H36505   5.007   1.273   9.277  5.4258  4.7265 -1.6050
  265MOL0     H36506   4.899   1.383   9.191  2.1305  0.6457  1.5647
  265MOL0     H36507   4.748   1.197   9.219  0.4533 -1.3252  1.6758
  265MOL0     H36508   4.818   1.161   9.050 -0.6019  2.5918 -0.2034
  265MOL0     H36509   4.947   0.986   9.201 -1.2175  0.7976 -0.8139
  265MOL0     H36510   4.819   1.027   9.320  1.9022  0.6856  1.3145
  265MOL0     H36511   4.798   0.890   9.053  0.2957  0.6171 -0.0646
  265MOL0     H36512   4.651   0.927   9.162 -0.7763  0.7675  3.1115
  265MOL0     H36513   4.903   0.775   9.253  0.4950  5.0862  0.7525
  265MOL0     H36514   4.740   0.779   9.330 -3.8305 -0.6082 -1.5285
  265MOL0     H36515   4.849   0.584   9.160 -0.8903 -1.4804  0.0369
  265MOL0     H36516   4.722   0.661   9.073  2.4654 -0.2931 -1.7022
  265MOL0     H36517   4.571   0.633   9.271 -0.6060  0.0863 -0.7025
  265MOL0     H36518   4.626   0.478   9.219 -0.3196  0.2089  0.4030
  265MOL0     H36519   4.922   0.560   9.369 -1.0342  1.0297 -1.4020
  265MOL0     H36520   4.934   0.461   9.735  3.3218  2.7414  0.0295
  265MOL0     H36521   5.034   0.449   9.588 -2.7088  1.2627 -1.3499
  265MOL0     H36522   4.862   0.222   9.711 -1.8922  0.3392 -1.9786
  265MOL0     H36523   4.941   0.210   9.559  3.4058 -1.8905  1.0287
  265MOL0     H36524   5.116   0.113   9.721  4.2499  1.3366  2.0987
  265MOL0     H36525   5.160   0.271   9.682 -0.0007 -0.6282 -1.3528
  265MOL0     H36526   5.165   0.214   9.931 -0.3508 -1.6753 -0.7987
  265MOL0     H36527   5.047   0.335   9.909 -1.6427 -0.4707 -1.7200
  265MOL0     H36528   5.114   0.289  10.127  2.7054  0.5189  2.3081
  265MOL0     H36529   5.209   0.196  10.449  0.6809 -0.3859 -0.5794
  265MOL0     H36530   5.103   0.345  10.449  1.0012 -1.1201  1.9366
  265MOL0     H36531   5.221   0.317  10.318  0.9250  1.3378  0.9727
  265MOL0     H36532   4.746  -0.162  10.586 -1.8112 -2.2506  1.0237
  265MOL0     H36533   4.681  -0.237  10.830  1.5907 -3.8188  1.4832
  265MOL0     H36534   4.706  -0.096  11.029 -0.3126  1.1017 -0.1560
  265MOL0     H36535   4.665  -0.261  11.069 -0.3056  1.1979 -2.2694
  265MOL0     H36536   4.640  -0.088  11.259  1.5797  2.3495  0.1288
  265MOL0     H36537   4.744  -0.232  11.293  2.0521  1.1311  0.9089
  265MOL0     H36538   4.943  -0.087  11.260  0.0157  0.7880 -0.7139
  265MOL0     H36539   4.841  -0.021  11.381  2.2401 -0.4338  0.0314
  265MOL0     H36540   4.744   0.109  11.169  0.5280 -1.1562 -1.2731
  265MOL0     H36541   4.872   0.041  11.081 -3.0065  1.3729 -1.0964
  265MOL0     H36542   4.965   0.263  11.161 -0.1016 -2.4020 -2.1363
  265MOL0     H36543   4.902   0.221  11.323  0.2506 -0.4033  1.1498
  265MOL0     H36544   5.074   0.045  11.350 -3.5720  1.1260  0.2148
  265MOL0     H36545   5.154   0.205  11.319  3.2213 -1.5560  1.1893
  265MOL0     H36546   5.182   0.167  11.096 -0.2975  2.8460  4.1752
  265MOL0     H36547   5.096   0.001  11.105 -0.7556  0.2408 -0.4404
  265MOL0     H36548   5.344   0.085  11.255 -1.2843 -1.3139  2.0891
  265MOL0     H36549   5.362   0.016  11.093  1.2230 -0.3518  1.3975
  265MOL0     H36550   5.083  -0.220  10.950 -0.0651 -1.7417  0.7504
  265MOL0     H36551   5.151  -0.150  10.708 -1.2593  4.8085  0.1085
  265MOL0     H36552   4.840  -0.083  10.308  1.1929 -0.7765  0.3145
  265MOL0     H36553   4.826  -0.020  10.068 -1.2554  0.0036  0.9001
  265MOL0     H36554   5.319   1.310   8.894  1.3282  0.1706 -0.9362
  265MOL0     H36555   5.361   1.282   8.667 -0.1683  0.7884  1.0949
  265MOL0     H36556   5.173   1.095   8.268  2.6198  2.3554  1.8812
  265MOL0     H36557   5.191   1.023   8.031 -0.9640 -2.7120  1.4017
  265MOL0     H36558   5.271   1.080   7.825  0.1606  0.5544 -0.8851
  265MOL0     H36559   5.429   1.163   7.856  0.6770  0.0288  0.9067
  265MOL0     H36560   5.366   0.966   7.640 -1.4243 -2.9533  3.6036
  265MOL0     H36561   5.527   0.977   7.701 -0.5058  0.0099 -0.9576
  265MOL0     H36562   5.577   1.200   7.618 -1.0226  3.2553 -0.9089
  265MOL0     H36563   5.478   1.136   7.489  2.6635  0.0134 -0.3145
  265MOL0     H36564   5.403   1.364   7.543 -2.4640 -0.8670 -1.3122
  265MOL0     H36565   5.377   1.332   7.715  0.7958  3.1676 -1.7336
  265MOL0     H36566   5.035   1.162   7.530  0.4447  1.7071 -0.1308
  265MOL0     H36567   5.587   0.916   8.095 -0.7370 -1.4225 -0.1688
  265MOL0     H36568   5.692   0.891   8.295  0.2263 -3.3571  2.8105
  265MOL0     H36569   5.640   1.028   8.396 -1.8947  1.5641 -1.2852
  265MOL0     H36570   5.584   0.853   8.424  1.3531 -1.5450 -0.3966
  266MOL0     O36571  10.666   0.504   3.175 -0.9085  0.0428 -0.2086
  266MOL0     C36572  10.780   0.467   3.205 -0.0675 -0.6612  0.2826
  266MOL0     O36573  10.812   0.339   3.228  0.1200  0.6572 -0.6184
  266MOL0     C36574  10.724   0.236   3.200  0.6556 -0.5847  0.7946
  266MOL0     C36575  10.755   0.135   3.111 -0.4354 -0.6783  0.5350
  266MOL0     C36576  10.667   0.030   3.075 -0.5154 -0.2677 -0.0103
  266MOL0     C36577  10.541   0.030   3.127 -0.6422 -0.4504  0.5744
  266MOL0     O36578  10.441  -0.064   3.103  0.2576  0.3710  0.4121
  266MOL0     C36579  10.458  -0.167   3.009 -0.1121  0.2812  0.4109
  266MOL0     C36580  10.328  -0.250   2.998 -0.2292  0.3283  0.9783
  266MOL0     C36581  10.333  -0.378   2.916  0.4596  0.0800 -0.9553
  266MOL0     C36582  10.194  -0.422   2.896 -0.7016  0.1557  0.1309
  266MOL0     C36583  10.202  -0.553   2.827 -0.2532 -0.3822 -0.1745
  266MOL0     C36584  10.163  -0.536   2.687 -1.1291 -0.7090 -0.3436
  266MOL0     C36585  10.135  -0.671   2.626 -0.0736 -0.4925  0.3644
  266MOL0     C36586  10.074  -0.652   2.493  0.3270 -0.0215  0.3382
  266MOL0     N36587  10.149  -0.711   2.378 -0.6525  0.2653  0.0669
  266MOL0     C36588  10.195  -0.842   2.360 -0.6561  0.4212  0.2609
  266MOL0     C36589  10.266  -0.842   2.247 -0.3290 -0.3647 -0.0734
  266MOL0     C36590  10.339  -0.956   2.178  0.3318 -0.0836 -0.1097
  266MOL0     C36591  10.256  -1.080   2.145  0.4753  0.4822  0.1347
  266MOL0     C36592  10.229  -1.184   2.264  0.2438  1.0360  0.4034
  266MOL0     C36593  10.130  -1.301   2.218 -0.2188  0.3250 -1.3659
  266MOL0     O36594   9.993  -1.249   2.187  0.7252 -0.2265  0.5844
  266MOL0     C36595   9.884  -1.327   2.157  0.3552 -0.3417 -0.6562
  266MOL0     C36596   9.788  -1.253   2.074 -0.1018  1.0634  0.6811
  266MOL0     C36597   9.659  -1.312   2.035 -0.3974  0.1997 -0.7078
  266MOL0     C36598   9.570  -1.231   1.936 -0.9291 -0.0563 -0.4364
  266MOL0     C36599   9.630  -1.446   2.080  0.0293 -0.3700 -0.1039
  266MOL0     C36600   9.506  -1.510   2.042  0.0314  0.8176  0.3989
  266MOL0     O36601   9.508  -1.643   2.020  0.0925  0.0281 -0.0960
  266MOL0     C36602   9.393  -1.727   2.034  0.0346  0.6438  0.0782
  266MOL0     C36603   9.373  -1.783   2.152 -0.4255  0.4934 -0.5653
  266MOL0     C36604   9.279  -1.879   2.179  0.2054  0.4525  0.3786
  266MOL0     C36605   9.184  -1.921   2.081 -0.1987 -0.5151  0.0549
  266MOL0     O36606   9.087  -2.019   2.095  0.8758  0.8916 -0.6195
  266MOL0     C36607   9.142  -2.143   2.087 -0.0670 -0.1166  0.0016
  266MOL0     C36608   9.121  -2.220   1.951  0.1842  0.1839 -1.4479
  266MOL0     C36609   9.003  -2.178   1.862 -0.4047  0.6782  0.4296
  266MOL0     C36610   8.966  -2.289   1.769 -0.0314 -1.1569  0.9232
  266MOL0     C36611   8.888  -2.229   1.645  0.8786 -0.1901 -0.4284
  266MOL0     C36612   8.835  -2.329   1.543 -0.1944  0.6229  1.2381
  266MOL0     C36613   8.706  -2.398   1.597  0.1241  0.4027 -0.4634
  266MOL0     C36614   8.666  -2.523   1.521  0.0950 -0.0559 -0.5606
  266MOL0    Cl36615   8.526  -2.586   1.598 -0.0651 -0.4478  0.1457
  266MOL0     C36616   9.202  -1.857   1.952 -0.2735 -2.1345  0.7776
  266MOL0     C36617   9.309  -1.769   1.923  0.1503 -0.9798  0.0135
  266MOL0     O36618   9.401  -1.440   2.035  0.9930  0.6091 -0.3052
  266MOL0     C36619   9.737  -1.514   2.143 -0.2747 -0.3557  0.0758
  266MOL0     C36620   9.865  -1.462   2.177 -0.0449 -0.8702  0.1490
  266MOL0     N36621  10.267  -0.717   2.196 -0.6524 -0.1153  0.0097
  266MOL0     N36622  10.200  -0.643   2.279 -0.4344  0.4697  1.0983
  266MOL0     C36623  10.518   0.119   3.235  1.1081 -0.9196 -0.1658
  266MOL0     C36624  10.607   0.224   3.270  0.7704 -0.2331  0.6174
  266MOL0     C36625  10.893   0.565   3.211  0.4755  0.1813  0.4112
  266MOL0     C36626  11.010   0.521   3.259 -0.1075  0.5791  0.0581
  266MOL0     C36627  11.123   0.603   3.276  0.1301 -0.2873 -0.5722
  266MOL0     C36628  11.115   0.734   3.237  0.9120  0.3596 -0.7712
  266MOL0     O36629  11.217   0.822   3.228 -0.0278  0.3098 -0.6968
  266MOL0     C36630  11.359   0.784   3.245  0.3145 -0.9068 -0.5391
  266MOL0     C36631  11.392   0.767   3.391  0.9325 -0.9857 -1.0314
  266MOL0     C36632  11.395   0.901   3.471  0.3774 -0.8587 -0.2643
  266MOL0     C36633  11.473   1.006   3.407 -0.4898 -0.3082  0.5043
  266MOL0     C36634  11.538   1.106   3.506 -0.4314  0.1340  0.4739
  266MOL0     C36635  11.600   1.183   3.569 -0.0730  0.5669  0.0556
  266MOL0     C36636  10.995   0.785   3.205 -0.0216 -0.1851 -1.3302
  266MOL0     C36637  10.882   0.708   3.189  0.0743  0.1053  0.0142
  266MOL0     C36638  10.768   0.784   3.129  0.1534 -0.3194 -0.2037
  266MOL0     H36639  10.852   0.138   3.062 -1.6995  2.5718 -2.1224
  266MOL0     H36640  10.702  -0.050   3.011 -2.0529 -0.1021 -1.0986
  266MOL0     H36641  10.541  -0.227   3.049  0.2544  1.1661  0.9954
  266MOL0     H36642  10.489  -0.126   2.913 -0.7790 -2.2762 -0.9829
  266MOL0     H36643  10.290  -0.276   3.097  1.9215 -2.0176  1.2821
  266MOL0     H36644  10.259  -0.175   2.957 -0.4979  0.0914  0.9868
  266MOL0     H36645  10.383  -0.362   2.820  1.4588 -1.6623 -0.7751
  266MOL0     H36646  10.392  -0.454   2.967  1.0632  1.1501 -0.0188
  266MOL0     H36647  10.147  -0.451   2.991 -3.4408  0.7540 -0.9549
  266MOL0     H36648  10.134  -0.346   2.843 -0.9812 -1.0368 -1.3242
  266MOL0     H36649  10.134  -0.617   2.884  0.2022 -1.2363 -0.5781
  266MOL0     H36650  10.300  -0.598   2.840  0.9476  2.3792  1.3267
  266MOL0     H36651  10.068  -0.483   2.676 -2.1155 -1.4758  3.2211
  266MOL0     H36652  10.244  -0.486   2.632 -1.1146  0.5102  0.7322
  266MOL0     H36653  10.055  -0.712   2.688  2.3339 -3.1349  1.9682
  266MOL0     H36654  10.224  -0.735   2.615  0.4027  0.4224 -1.4194
  266MOL0     H36655   9.970  -0.686   2.492  0.5770 -0.8352  0.9514
  266MOL0     H36656  10.074  -0.546   2.466 -1.3585 -0.5695 -2.2753
  266MOL0     H36657  10.195  -0.921   2.435  2.7785  1.1009  1.1605
  266MOL0     H36658  10.434  -0.980   2.225  1.2272 -0.4016 -1.9811
  266MOL0     H36659  10.376  -0.901   2.091  1.6847  0.1124  0.5661
  266MOL0     H36660  10.164  -1.048   2.095  0.9463 -0.8838 -1.7433
  266MOL0     H36661  10.314  -1.142   2.076 -1.8590 -0.9245 -0.6678
  266MOL0     H36662  10.321  -1.230   2.300  0.1420  1.1795  0.8468
  266MOL0     H36663  10.182  -1.132   2.348 -0.5210  0.7950  0.1314
  266MOL0     H36664  10.164  -1.367   2.138 -2.1944 -2.0942 -0.3140
  266MOL0     H36665  10.110  -1.367   2.303  3.3772 -0.8361 -1.2535
  266MOL0     H36666   9.810  -1.151   2.043  1.3721 -0.1064 -2.5388
  266MOL0     H36667   9.623  -1.156   1.877 -0.4094  1.2424  1.5759
  266MOL0     H36668   9.498  -1.176   1.997  0.5100 -0.5194  1.7874
  266MOL0     H36669   9.527  -1.304   1.867  4.3202 -2.3644 -1.7859
  266MOL0     H36670   9.438  -1.762   2.236 -1.3643 -3.4878  1.4121
  266MOL0     H36671   9.271  -1.932   2.273  0.9602  2.4237  1.6130
  266MOL0     H36672   9.250  -2.144   2.108  0.1763  0.1723 -1.1591
  266MOL0     H36673   9.099  -2.208   2.164  2.8979 -3.5790 -0.9806
  266MOL0     H36674   9.214  -2.219   1.893  1.0790  2.1294 -0.0903
  266MOL0     H36675   9.106  -2.325   1.978  1.2463  0.3469 -0.0692
  266MOL0     H36676   9.021  -2.085   1.808  1.2457 -1.6080 -3.3512
  266MOL0     H36677   8.911  -2.160   1.918 -1.5622  3.0274 -2.0221
  266MOL0     H36678   8.910  -2.364   1.826  2.1290 -1.7661  2.3676
  266MOL0     H36679   9.053  -2.336   1.724  1.1562 -0.3798  2.3390
  266MOL0     H36680   8.811  -2.162   1.683 -0.6352 -0.5463 -2.6728
  266MOL0     H36681   8.965  -2.187   1.579  2.2045 -3.4419 -1.1765
  266MOL0     H36682   8.910  -2.395   1.498 -1.8063  1.2931 -2.9635
  266MOL0     H36683   8.811  -2.285   1.445  3.1178 -2.8582 -1.4330
  266MOL0     H36684   8.624  -2.328   1.610 -1.1063 -1.0687  0.0109
  266MOL0     H36685   8.739  -2.433   1.695  1.9891  0.8092 -0.9064
  266MOL0     H36686   8.745  -2.598   1.517 -2.3394 -2.9339  0.8753
  266MOL0     H36687   8.641  -2.494   1.418  0.4411 -3.7575 -1.8285
  266MOL0     H36688   9.150  -1.887   1.862  2.2930 -1.6191 -0.9758
  266MOL0     H36689   9.320  -1.734   1.820 -0.1012 -0.2091  0.2393
  266MOL0     H36690   9.728  -1.621   2.157  2.1838 -0.4434  1.4126
  266MOL0     H36691   9.938  -1.527   2.224 -0.7451 -2.7318 -1.2568
  266MOL0     H36692  10.423   0.098   3.283  2.1889 -1.0567  2.0327
  266MOL0     H36693  10.581   0.294   3.349 -0.1152  0.5522 -0.3297
  266MOL0     H36694  11.039   0.419   3.285  1.9792  0.0352 -3.6494
  266MOL0     H36695  11.222   0.568   3.303  0.8294  0.0838 -2.4756
  266MOL0     H36696  11.375   0.688   3.195 -0.9911  0.3477 -3.6557
  266MOL0     H36697  11.431   0.852   3.200  0.7763 -1.6548 -0.9409
  266MOL0     H36698  11.490   0.718   3.399  1.2856 -0.2651 -0.8558
  266MOL0     H36699  11.329   0.692   3.440  1.0959  0.9808  2.5369
  266MOL0     H36700  11.293   0.940   3.463  1.3112  1.3094 -4.8342
  266MOL0     H36701  11.423   0.890   3.576 -3.8182  0.4986  1.2031
  266MOL0     H36702  11.411   1.054   3.330  1.3089 -1.1357 -1.5785
  266MOL0     H36703  11.562   0.956   3.369 -0.8512 -2.5613  2.4267
  266MOL0     H36704  11.643   1.262   3.627  0.1928  3.6524 -3.8873
  266MOL0     H36705  10.997   0.892   3.185 -0.2579 -0.1916 -1.3880
  266MOL0     H36706  10.788   0.891   3.137 -3.1065  0.2697  2.2297
  266MOL0     H36707  10.744   0.754   3.027 -2.8678  2.7192 -0.5887
  266MOL0     H36708  10.675   0.770   3.185  0.2183  0.0402 -0.0063
  267MOL0     O36709   5.463   9.577   0.207  0.0612 -0.6598 -1.0366
  267MOL0     C36710   5.448   9.665   0.297  0.2808 -0.1573 -0.6103
  267MOL0     O36711   5.459   9.652   0.432  0.1674  0.0606  0.3465
  267MOL0     C36712   5.500   9.541   0.501 -0.4304 -0.3602  0.6022
  267MOL0     C36713   5.533   9.565   0.636  0.6137 -0.0715  0.2359
  267MOL0     C36714   5.594   9.462   0.709  0.9996  0.6620  0.0660
  267MOL0     C36715   5.598   9.331   0.668  0.4863  0.0767  0.3088
  267MOL0     O36716   5.635   9.218   0.730 -0.7280 -0.5687 -0.0549
  267MOL0     C36717   5.697   9.232   0.860  0.3734 -0.1961  0.9475
  267MOL0     C36718   5.844   9.248   0.842  0.2706 -0.5847 -1.0467
  267MOL0     C36719   5.909   9.286   0.978  0.3216 -0.0963 -0.4888
  267MOL0     C36720   5.880   9.171   1.075  0.7885 -0.0089 -0.4850
  267MOL0     C36721   5.960   9.175   1.200 -0.0763 -0.6395 -0.0476
  267MOL0     C36722   5.928   9.056   1.299 -0.1566 -1.2312 -0.3325
  267MOL0     C36723   5.965   9.099   1.444  1.0220 -0.0664  1.0885
  267MOL0     C36724   6.002   8.983   1.531 -0.0399  0.1644 -0.6277
  267MOL0     N36725   6.117   8.912   1.477 -0.2699  0.3176  0.2267
  267MOL0     C36726   6.246   8.953   1.493  0.3309 -0.4880 -0.3648
  267MOL0     C36727   6.325   8.848   1.450 -0.5326  0.2437 -0.9227
  267MOL0     C36728   6.475   8.839   1.435 -0.9859  0.4048  0.1967
  267MOL0     C36729   6.543   8.796   1.573 -0.5565 -0.8126  0.4095
  267MOL0     C36730   6.561   8.909   1.687  0.3520  0.4889 -0.5132
  267MOL0     C36731   6.613   8.847   1.819  0.0237 -0.1564 -0.6222
  267MOL0     O36732   6.680   8.951   1.901 -0.5581 -0.0462 -0.1332
  267MOL0     C36733   6.725   8.927   2.036 -0.0789  1.3130  0.3165
  267MOL0     C36734   6.752   9.039   2.111  0.3689 -0.1700  0.2693
  267MOL0     C36735   6.818   9.021   2.231 -0.0663  0.4871 -0.2680
  267MOL0     C36736   6.850   9.148   2.306  0.5026 -0.7267  0.2401
  267MOL0     C36737   6.841   8.891   2.290 -0.4872  0.7884 -0.1053
  267MOL0     C36738   6.915   8.861   2.423 -0.0283  0.1513 -0.0294
  267MOL0     O36739   6.934   8.736   2.463  0.8695  0.5066 -0.0109
  267MOL0     C36740   6.967   8.717   2.594  1.1471  0.5278  0.2815
  267MOL0     C36741   7.073   8.626   2.623 -0.8225  0.2796  0.7018
  267MOL0     C36742   7.121   8.618   2.752  0.3975  1.3108  0.4945
  267MOL0     C36743   7.075   8.696   2.853  0.8471 -0.3951  0.0937
  267MOL0     O36744   7.112   8.693   2.977 -0.4498 -0.5403  0.1221
  267MOL0     C36745   7.095   8.570   3.047 -0.3809  0.1073  0.0248
  267MOL0     C36746   7.132   8.601   3.191 -0.4731  0.0802 -0.7405
  267MOL0     C36747   7.039   8.702   3.251  0.3240 -0.5120  0.0606
  267MOL0     C36748   7.108   8.819   3.310  0.9702 -0.8102  0.5232
  267MOL0     C36749   7.010   8.945   3.313  1.3368  0.0648 -0.0262
  267MOL0     C36750   7.070   9.051   3.402 -0.3833 -0.3081 -0.0289
  267MOL0     C36751   7.025   9.196   3.383  1.3060 -0.1997 -0.0749
  267MOL0     C36752   7.072   9.296   3.492 -0.0916  0.1067  0.4540
  267MOL0    Cl36753   6.999   9.457   3.486 -0.4545 -0.1010 -0.1591
  267MOL0     C36754   6.963   8.782   2.825 -0.5243 -0.3082  0.0987
  267MOL0     C36755   6.912   8.794   2.697 -0.2751  0.2455  0.8847
  267MOL0     O36756   6.969   8.957   2.476  0.5354  0.0894 -0.4768
  267MOL0     C36757   6.805   8.779   2.213  0.5332  1.1447  0.6558
  267MOL0     C36758   6.757   8.799   2.084  0.6047 -0.3957  0.0293
  267MOL0     N36759   6.242   8.740   1.424  0.1783  1.1417  0.3076
  267MOL0     N36760   6.118   8.784   1.432 -0.3253  0.9065  0.6512
  267MOL0     C36761   5.550   9.304   0.544  0.3541  0.7296  0.3264
  267MOL0     C36762   5.512   9.402   0.453 -0.3914 -1.0452 -0.3472
  267MOL0     C36763   5.442   9.800   0.258 -1.0705  0.1152  0.3672
  267MOL0     C36764   5.343   9.821   0.166 -0.0289 -0.6967  0.1553
  267MOL0     C36765   5.341   9.950   0.104 -0.3932  0.4300  0.5576
  267MOL0     C36766   5.438  10.049   0.135 -0.1909  0.6079  0.3791
  267MOL0     O36767   5.432  10.169   0.064  0.1237  0.5234  0.1545
  267MOL0     C36768   5.489  10.284   0.128 -0.0528 -1.0665 -0.9454
  267MOL0     C36769   5.400  10.398   0.075  0.8081  0.0277 -0.4110
  267MOL0     C36770   5.471  10.530   0.103 -0.4906 -0.6292 -0.0669
  267MOL0     C36771   5.400  10.652   0.042 -1.2620  0.0019 -0.3007
  267MOL0     C36772   5.477  10.771   0.062 -0.4240 -0.5827 -0.3924
  267MOL0     C36773   5.550  10.867   0.092 -0.1905  0.8259  0.3003
  267MOL0     C36774   5.537  10.019   0.228 -0.6338 -0.0951 -0.0110
  267MOL0     C36775   5.538   9.900   0.300  0.3079 -0.7129 -0.2093
  267MOL0     C36776   5.649   9.881   0.398  0.2572  0.2769  0.3818
  267MOL0     H36777   5.527   9.669   0.668  0.2060 -0.3479  1.0669
  267MOL0     H36778   5.629   9.493   0.806  0.6252  1.8182 -0.1590
  267MOL0     H36779   5.689   9.137   0.914  3.7621  0.3939  2.7937
  267MOL0     H36780   5.647   9.311   0.917 -0.8997  1.0506 -1.7502
  267MOL0     H36781   5.880   9.155   0.797 -1.5094 -1.7034 -0.2882
  267MOL0     H36782   5.870   9.332   0.777 -0.7035  1.3295  0.8993
  267MOL0     H36783   6.017   9.284   0.964  0.4466  1.2112  0.1658
  267MOL0     H36784   5.883   9.386   1.013 -2.2066 -0.4122 -1.2586
  267MOL0     H36785   5.775   9.179   1.105 -0.2481 -2.6143 -2.9756
  267MOL0     H36786   5.903   9.081   1.018  1.6306  0.5945 -1.1169
  267MOL0     H36787   5.945   9.274   1.244 -3.0036 -1.9220  2.1577
  267MOL0     H36788   6.064   9.158   1.171  0.6469  2.2162  0.4813
  267MOL0     H36789   5.822   9.033   1.289  0.2375 -3.1481 -0.5721
  267MOL0     H36790   5.978   8.965   1.264 -0.9722 -1.7060 -0.2917
  267MOL0     H36791   5.873   9.146   1.482 -0.9620 -0.4207 -2.7604
  267MOL0     H36792   6.047   9.171   1.436  0.3978  0.5461 -0.1761
  267MOL0     H36793   6.020   9.025   1.630  3.0815 -1.0981 -0.5320
  267MOL0     H36794   5.914   8.920   1.545 -1.0497  1.3609 -1.4020
  267MOL0     H36795   6.283   9.050   1.526 -0.1875  0.1519 -1.6070
  267MOL0     H36796   6.513   8.931   1.390  1.3633 -0.2931  0.6614
  267MOL0     H36797   6.487   8.760   1.360 -0.5607  0.5570  0.1071
  267MOL0     H36798   6.488   8.710   1.610 -1.2881 -0.4317  0.2334
  267MOL0     H36799   6.643   8.760   1.549 -0.3482  0.3404 -0.5646
  267MOL0     H36800   6.633   8.986   1.660  1.2098 -0.8147 -2.0880
  267MOL0     H36801   6.464   8.959   1.701  0.8106  1.2376  0.0590
  267MOL0     H36802   6.524   8.801   1.862 -3.3563  5.2745 -0.8691
  267MOL0     H36803   6.697   8.784   1.788  2.0038  1.6705  0.7043
  267MOL0     H36804   6.716   9.136   2.078  1.4672  0.4562  0.8518
  267MOL0     H36805   6.792   9.230   2.261  1.7304  0.2726  0.4203
  267MOL0     H36806   6.951   9.173   2.274 -0.1444  0.2282 -1.1746
  267MOL0     H36807   6.828   9.157   2.413 -1.8554 -1.8401 -0.0741
  267MOL0     H36808   7.119   8.583   2.535 -0.2174  0.7330  0.7888
  267MOL0     H36809   7.206   8.553   2.767 -0.4204  0.1709  0.3348
  267MOL0     H36810   6.995   8.526   3.052 -0.7218 -0.3436 -4.9138
  267MOL0     H36811   7.167   8.499   3.004  1.0235  0.9073  0.9930
  267MOL0     H36812   7.131   8.507   3.247 -2.5194  0.4540 -0.0592
  267MOL0     H36813   7.237   8.630   3.194  0.1785 -2.1548 -0.0755
  267MOL0     H36814   6.984   8.646   3.327 -3.2995  0.5613 -1.4927
  267MOL0     H36815   6.952   8.721   3.187 -0.6136 -3.8876  0.1465
  267MOL0     H36816   7.193   8.848   3.248  1.2840 -3.6030 -0.4879
  267MOL0     H36817   7.145   8.797   3.411 -1.8293 -0.9702  1.6212
  267MOL0     H36818   6.998   8.982   3.211  0.3077 -0.4674 -0.1068
  267MOL0     H36819   6.916   8.907   3.354  0.3334  1.7196 -0.6874
  267MOL0     H36820   7.178   9.037   3.396 -0.7235 -2.5879 -1.8934
  267MOL0     H36821   7.051   9.014   3.503  0.8583 -1.0350 -0.0407
  267MOL0     H36822   6.916   9.194   3.394  1.1511  1.0954 -1.1331
  267MOL0     H36823   7.058   9.239   3.288  1.1880  2.1539  0.8698
  267MOL0     H36824   7.179   9.299   3.470 -0.0254  0.3125  0.8108
  267MOL0     H36825   7.057   9.259   3.593 -2.0071 -0.0590  0.1469
  267MOL0     H36826   6.907   8.840   2.898 -1.0352  1.7606 -1.8245
  267MOL0     H36827   6.827   8.855   2.669 -2.8584 -3.0459  0.9134
  267MOL0     H36828   6.822   8.680   2.254  1.7149  1.2961  0.5711
  267MOL0     H36829   6.737   8.713   2.020  0.7839 -0.4336  0.0245
  267MOL0     H36830   5.559   9.205   0.500  0.7816  0.1289  1.7302
  267MOL0     H36831   5.491   9.369   0.351  0.1507 -2.3505 -0.0591
  267MOL0     H36832   5.266   9.751   0.138  0.9959 -1.4069 -0.9805
  267MOL0     H36833   5.261   9.985   0.039 -0.1343  1.9784  1.0237
  267MOL0     H36834   5.492  10.296   0.236  0.5334  1.6964 -1.1826
  267MOL0     H36835   5.595  10.291   0.101  0.1391  0.6666  0.1038
  267MOL0     H36836   5.303  10.395   0.124  1.0051  0.4516  0.0141
  267MOL0     H36837   5.385  10.379  -0.032 -0.0309 -2.0343  0.0337
  267MOL0     H36838   5.465  10.545   0.211 -1.1983  0.0529 -0.1944
  267MOL0     H36839   5.574  10.537   0.066 -0.8995  4.6776 -0.9777
  267MOL0     H36840   5.300  10.672   0.081 -2.0982 -1.3165 -1.6614
  267MOL0     H36841   5.396  10.634  -0.066  2.2680  2.8719 -1.1227
  267MOL0     H36842   5.598  10.958   0.121 -2.1560  1.5553  1.4964
  267MOL0     H36843   5.620  10.085   0.252 -0.4773 -0.3933  0.2863
  267MOL0     H36844   5.746   9.870   0.349  1.1532  1.3763  1.8348
  267MOL0     H36845   5.643   9.974   0.455  2.9177 -0.0230  1.2686
  267MOL0     H36846   5.641   9.795   0.465  1.0757 -1.1947 -1.3184
  268MOL0     O36847   4.005   0.962   7.320 -0.0888  0.3435  0.0907
  268MOL0     C36848   3.889   0.916   7.308  0.1709 -0.3792  0.4838
  268MOL0     O36849   3.857   0.824   7.210 -0.2700 -0.1063  0.0095
  268MOL0     C36850   3.958   0.766   7.136  0.4438 -1.4260 -0.0355
  268MOL0     C36851   3.923   0.760   7.002 -0.3169  0.2754  0.3394
  268MOL0     C36852   4.003   0.688   6.911  0.8137  0.4946  0.3044
  268MOL0     C36853   4.124   0.633   6.953 -0.5457 -0.3234 -0.7223
  268MOL0     O36854   4.192   0.570   6.856 -0.8313  0.2670  0.2933
  268MOL0     C36855   4.225   0.428   6.890 -0.9421 -0.0579 -0.3217
  268MOL0     C36856   4.289   0.367   6.762 -0.0127  0.2302  0.4370
  268MOL0     C36857   4.176   0.296   6.690 -0.0693 -0.1712  0.0131
  268MOL0     C36858   4.165   0.155   6.738  0.4189  1.0033  0.2583
  268MOL0     C36859   4.076   0.089   6.631  0.5064  0.1004 -1.2912
  268MOL0     C36860   4.078  -0.060   6.665  0.2278 -0.1382 -0.9620
  268MOL0     C36861   4.010  -0.155   6.570 -1.0470  1.0013  1.1061
  268MOL0     C36862   3.858  -0.139   6.550  0.0800  0.5602  0.8388
  268MOL0     N36863   3.790  -0.163   6.677  1.0619  0.3859  0.0246
  268MOL0     C36864   3.734  -0.285   6.713 -0.6651 -0.3809 -0.5387
  268MOL0     C36865   3.663  -0.257   6.828 -0.6910 -0.2008 -0.2139
  268MOL0     C36866   3.609  -0.364   6.909  1.2582 -0.3325 -0.5361
  268MOL0     C36867   3.461  -0.409   6.889  0.1446 -0.4619 -0.0528
  268MOL0     C36868   3.443  -0.473   6.751 -0.1301 -1.3444  0.3325
  268MOL0     C36869   3.329  -0.570   6.754 -0.0861 -0.8384 -0.5890
  268MOL0     O36870   3.210  -0.512   6.721  0.5309 -0.0612 -0.2116
  268MOL0     C36871   3.098  -0.591   6.711  0.8183  0.7689 -0.5515
  268MOL0     C36872   2.974  -0.529   6.724 -0.3348  0.1471  0.2177
  268MOL0     C36873   2.854  -0.598   6.721  0.6601 -0.0039 -0.4808
  268MOL0     C36874   2.724  -0.516   6.744 -0.6374 -1.1771 -0.1310
  268MOL0     C36875   2.855  -0.738   6.705  0.5604  0.3370 -0.3400
  268MOL0     C36876   2.734  -0.825   6.712 -0.4158  0.7458 -0.5580
  268MOL0     O36877   2.618  -0.762   6.676 -0.0930  0.5643  0.2784
  268MOL0     C36878   2.498  -0.818   6.687  0.3827 -0.6626  0.7167
  268MOL0     C36879   2.401  -0.737   6.624 -0.8186  0.7700  0.0273
  268MOL0     C36880   2.270  -0.779   6.616  0.8920  0.3804 -0.3510
  268MOL0     C36881   2.224  -0.894   6.675 -0.2595  0.0065  0.3746
  268MOL0     O36882   2.090  -0.927   6.690 -0.5549  0.4293 -0.7433
  268MOL0     C36883   1.976  -0.853   6.635  0.2345  0.8486 -0.4110
  268MOL0     C36884   1.935  -0.732   6.724  0.3045  0.0497  0.2592
  268MOL0     C36885   1.838  -0.642   6.642 -0.2237 -0.5676 -0.0632
  268MOL0     C36886   1.777  -0.519   6.720 -0.2149  0.4430 -0.5586
  268MOL0     C36887   1.870  -0.390   6.733  0.4485 -0.3697  1.0950
  268MOL0     C36888   1.914  -0.339   6.598  0.6588  0.3020  0.8879
  268MOL0     C36889   2.073  -0.339   6.592  0.3084  0.1968  0.2282
  268MOL0     C36890   2.140  -0.227   6.666 -0.6222  0.9576  0.0933
  268MOL0    Cl36891   2.306  -0.252   6.620  0.6154 -0.4996  0.0569
  268MOL0     C36892   2.319  -0.964   6.750  0.0610  0.0825  0.2414
  268MOL0     C36893   2.452  -0.928   6.766 -1.0979 -0.4946  0.6383
  268MOL0     O36894   2.753  -0.945   6.747 -0.3186  0.2587  0.9970
  268MOL0     C36895   2.978  -0.799   6.684 -0.1286  0.1285 -0.0658
  268MOL0     C36896   3.101  -0.731   6.677 -0.6591 -0.3568 -0.4105
  268MOL0     N36897   3.666  -0.120   6.856 -0.5394 -0.2433  0.3747
  268MOL0     N36898   3.746  -0.071   6.760  0.3072 -0.2382 -0.2321
  268MOL0     C36899   4.164   0.653   7.083  0.2865 -0.2366  0.2010
  268MOL0     C36900   4.085   0.720   7.179  0.7302 -0.1316  0.3120
  268MOL0     C36901   3.781   0.970   7.393 -0.3407  0.1283 -0.7783
  268MOL0     C36902   3.816   1.081   7.473 -0.3749 -0.9565 -0.2148
  268MOL0     C36903   3.729   1.148   7.550  0.3819 -1.1191 -0.4839
  268MOL0     C36904   3.606   1.095   7.559  0.4017 -0.1105 -0.3053
  268MOL0     O36905   3.505   1.145   7.636  0.7626 -0.2850 -0.3540
  268MOL0     C36906   3.537   1.153   7.779 -0.6134  1.0119  0.3060
  268MOL0     C36907   3.499   1.014   7.839 -0.7483 -0.1344  0.1167
  268MOL0     C36908   3.355   1.003   7.893  0.2466 -0.3322  0.6701
  268MOL0     C36909   3.351   1.041   8.042  0.5578  0.7577  0.1247
  268MOL0     C36910   3.219   1.011   8.103 -0.0725 -0.2770  1.0706
  268MOL0     C36911   3.106   0.984   8.137  1.3858 -0.2801 -0.5528
  268MOL0     C36912   3.557   0.982   7.486  0.5595 -0.0097  0.8070
  268MOL0     C36913   3.644   0.915   7.401  0.0183  1.0435  0.4015
  268MOL0     C36914   3.590   0.787   7.342  0.9518  0.1782 -0.0095
  268MOL0     H36915   3.834   0.809   6.964 -0.2474 -1.3913 -2.2018
  268MOL0     H36916   3.960   0.663   6.815  0.1608  0.7563  0.5237
  268MOL0     H36917   4.136   0.386   6.937  0.4677 -1.3312  1.3143
  268MOL0     H36918   4.308   0.416   6.960  0.4308  0.8684 -1.7183
  268MOL0     H36919   4.334   0.448   6.704 -1.7654  0.1997 -1.0778
  268MOL0     H36920   4.366   0.291   6.778 -0.5050 -1.2869 -3.3442
  268MOL0     H36921   4.085   0.356   6.695  0.4813  0.9808 -2.4932
  268MOL0     H36922   4.201   0.297   6.584 -1.2344 -0.4601 -0.2711
  268MOL0     H36923   4.261   0.102   6.744  0.0201  0.3699  1.3211
  268MOL0     H36924   4.117   0.144   6.835  1.6393 -3.5478  0.5695
  268MOL0     H36925   4.106   0.081   6.526  1.0631  0.2683 -1.1487
  268MOL0     H36926   3.972   0.123   6.636  1.2439  2.4183  3.0989
  268MOL0     H36927   4.175  -0.108   6.679 -0.6251 -1.8887 -0.7186
  268MOL0     H36928   4.030  -0.064   6.764  0.7434 -0.6252 -0.7276
  268MOL0     H36929   4.036  -0.255   6.606  0.3080  1.5091  1.5910
  268MOL0     H36930   4.069  -0.150   6.478  0.5496  1.0310  2.0917
  268MOL0     H36931   3.847  -0.034   6.521  1.7335  0.5383  0.0474
  268MOL0     H36932   3.818  -0.210   6.477  1.7201 -0.8589  1.2841
  268MOL0     H36933   3.742  -0.384   6.669 -0.3499 -2.0129  2.8188
  268MOL0     H36934   3.603  -0.327   7.012 -0.1135 -3.1886  0.5210
  268MOL0     H36935   3.676  -0.450   6.902 -0.5317 -2.0854  2.1261
  268MOL0     H36936   3.427  -0.484   6.961  0.4774  0.6714  1.3180
  268MOL0     H36937   3.396  -0.322   6.898  1.1398  0.1680  1.3469
  268MOL0     H36938   3.433  -0.399   6.670 -1.3413 -2.2739 -0.4109
  268MOL0     H36939   3.530  -0.539   6.741 -0.6059 -2.4989  3.0359
  268MOL0     H36940   3.343  -0.664   6.701 -2.4443 -0.3305 -2.2905
  268MOL0     H36941   3.321  -0.609   6.856 -1.6319  2.0151  0.5306
  268MOL0     H36942   2.976  -0.422   6.743  1.0700 -0.2614  2.8992
  268MOL0     H36943   2.748  -0.432   6.811 -1.6178  0.5655 -1.8735
  268MOL0     H36944   2.650  -0.573   6.800  1.8484 -1.2719  3.4327
  268MOL0     H36945   2.669  -0.471   6.661 -0.3944 -2.1788 -0.8423
  268MOL0     H36946   2.438  -0.648   6.575  0.5467 -0.2893 -0.9406
  268MOL0     H36947   2.206  -0.721   6.551 -0.0407  0.4937  0.6338
  268MOL0     H36948   2.011  -0.819   6.537  2.3149  1.6936  0.5687
  268MOL0     H36949   1.888  -0.913   6.608 -1.1219  2.6508 -0.1771
  268MOL0     H36950   1.891  -0.762   6.820  0.9480 -1.9428 -0.0276
  268MOL0     H36951   2.030  -0.687   6.752 -0.2016 -0.9501  4.2371
  268MOL0     H36952   1.757  -0.685   6.583 -2.0171  0.5894  1.4720
  268MOL0     H36953   1.915  -0.607   6.573  0.6723  1.2059  1.7359
  268MOL0     H36954   1.759  -0.549   6.823 -1.1101  0.2806 -0.7526
  268MOL0     H36955   1.684  -0.497   6.666  0.0337  1.4114 -0.6121
  268MOL0     H36956   1.807  -0.311   6.776  2.8262  1.4915  1.3685
  268MOL0     H36957   1.949  -0.414   6.805 -0.0190  0.7266  1.9994
  268MOL0     H36958   1.860  -0.247   6.576 -1.0190 -1.7003 -5.5185
  268MOL0     H36959   1.884  -0.402   6.515  0.7610  1.1297  0.2123
  268MOL0     H36960   2.100  -0.315   6.489  1.3462  1.1368  0.7005
  268MOL0     H36961   2.107  -0.440   6.613  1.4274  0.2657 -1.1135
  268MOL0     H36962   2.132  -0.251   6.772 -2.1022  1.8119  0.2003
  268MOL0     H36963   2.112  -0.125   6.639 -1.6434  1.2663  2.1617
  268MOL0     H36964   2.279  -1.047   6.808  1.2729  0.6676  1.9960
  268MOL0     H36965   2.529  -0.979   6.824 -1.9640  0.5041  2.7922
  268MOL0     H36966   2.986  -0.905   6.665 -2.0457 -0.0293 -0.1354
  268MOL0     H36967   3.192  -0.784   6.650  0.4817  1.6163 -0.6614
  268MOL0     H36968   4.258   0.611   7.116  1.9683  1.8027 -1.6636
  268MOL0     H36969   4.108   0.704   7.284  2.8760 -0.9756 -0.2458
  268MOL0     H36970   3.917   1.119   7.469 -0.1702 -1.5996 -1.7334
  268MOL0     H36971   3.734   1.238   7.610  1.8439 -1.8433  0.5400
  268MOL0     H36972   3.640   1.183   7.798 -0.8684  1.8280  0.4103
  268MOL0     H36973   3.477   1.234   7.821 -0.2656  2.0844 -1.2012
  268MOL0     H36974   3.571   0.994   7.919 -1.6363 -0.6636  0.8051
  268MOL0     H36975   3.517   0.935   7.766 -0.0334 -3.1355  3.2533
  268MOL0     H36976   3.286   1.067   7.838  1.4368  1.9582  1.7218
  268MOL0     H36977   3.317   0.900   7.887 -6.6656  1.6918  0.7482
  268MOL0     H36978   3.367   1.149   8.046 -0.8210  0.9654  1.5271
  268MOL0     H36979   3.416   0.981   8.107  0.9676  3.4069  2.3939
  268MOL0     H36980   3.002   0.976   8.162  1.3193  3.3187  0.8081
  268MOL0     H36981   3.457   0.945   7.504  2.0019 -4.6589  0.4718
  268MOL0     H36982   3.510   0.818   7.274  0.3367 -1.0851  0.0915
  268MOL0     H36983   3.654   0.725   7.279  1.2072 -2.8453  2.9145
  268MOL0     H36984   3.554   0.718   7.419  1.0782  0.8923  0.7002
  269MOL0     O36985   5.603   5.927   7.026  0.7773 -0.6355 -0.3040
  269MOL0     C36986   5.568   5.984   7.128 -0.7102 -0.2163  1.2922
  269MOL0     O36987   5.469   6.071   7.139  0.1551 -0.3679  0.0615
  269MOL0     C36988   5.385   6.092   7.033  0.1373 -0.2733  0.8743
  269MOL0     C36989   5.323   5.979   6.971 -0.3401  0.8340 -0.1347
  269MOL0     C36990   5.238   6.007   6.858 -1.5549  1.3441 -0.7656
  269MOL0     C36991   5.211   6.135   6.817  0.5902  0.6732  0.5718
  269MOL0     O36992   5.134   6.147   6.708  0.1968  0.1007 -1.1693
  269MOL0     C36993   5.192   6.207   6.595 -0.1760 -0.3786 -0.9298
  269MOL0     C36994   5.119   6.150   6.472 -0.7266 -0.1102 -0.3173
  269MOL0     C36995   4.970   6.161   6.483  0.0438  0.3172 -0.1975
  269MOL0     C36996   4.913   6.077   6.366  0.2544  0.1982  0.1680
  269MOL0     C36997   4.764   6.110   6.352  0.6964  0.7487 -0.2405
  269MOL0     C36998   4.705   6.002   6.277  0.9750  0.4367 -0.2474
  269MOL0     C36999   4.557   6.049   6.252  0.3715  0.8212 -0.6768
  269MOL0     C37000   4.470   6.059   6.377 -0.6020 -0.1880 -0.2422
  269MOL0     N37001   4.329   6.108   6.344  0.6141  0.4987  0.6061
  269MOL0     C37002   4.293   6.214   6.256  0.4613  0.2365 -0.1480
  269MOL0     C37003   4.158   6.233   6.279  0.2470  0.6226  0.0671
  269MOL0     C37004   4.072   6.309   6.182  0.3268  0.3032  0.0536
  269MOL0     C37005   3.962   6.383   6.265 -0.5382 -0.5172 -0.2926
  269MOL0     C37006   3.859   6.451   6.176 -0.1131  0.2389 -0.3202
  269MOL0     C37007   3.888   6.554   6.081 -1.0800 -0.6165  0.4458
  269MOL0     O37008   3.948   6.501   5.965 -0.1316  0.5360  0.2101
  269MOL0     C37009   3.937   6.573   5.854  0.0306 -0.0871  0.6607
  269MOL0     C37010   3.930   6.713   5.844 -0.1367  0.8723  0.0533
  269MOL0     C37011   3.905   6.786   5.723 -0.1630 -0.9451  0.8543
  269MOL0     C37012   3.897   6.933   5.751  0.6764  0.6950  0.3445
  269MOL0     C37013   3.896   6.730   5.598 -0.4846  0.5804  0.4373
  269MOL0     C37014   3.878   6.799   5.466  0.4491  0.1267  0.2938
  269MOL0     O37015   3.840   6.720   5.366  0.2795 -0.0452 -0.3237
  269MOL0     C37016   3.856   6.751   5.235  0.3400  0.3982  0.8765
  269MOL0     C37017   3.946   6.670   5.162 -0.3365  0.4883  0.4793
  269MOL0     C37018   3.945   6.683   5.020  0.3272 -0.0885  0.6256
  269MOL0     C37019   3.876   6.776   4.956  0.5599  0.3645  0.8544
  269MOL0     O37020   3.893   6.786   4.822 -0.5495  0.0728 -0.3840
  269MOL0     C37021   3.921   6.910   4.756 -0.6297 -1.1289  0.6402
  269MOL0     C37022   3.891   6.888   4.605 -0.0642  0.2139  0.2616
  269MOL0     C37023   3.746   6.868   4.580 -0.0979 -0.0969  0.5083
  269MOL0     C37024   3.718   6.866   4.419 -0.0788 -0.1767  0.3930
  269MOL0     C37025   3.572   6.860   4.381 -0.0621 -0.0220  0.0244
  269MOL0     C37026   3.552   6.786   4.249  0.5157  0.5791  1.0310
  269MOL0     C37027   3.429   6.830   4.168 -0.3042  0.8001 -0.2095
  269MOL0     C37028   3.438   6.963   4.106  0.1291  0.3837 -0.8174
  269MOL0    Cl37029   3.527   6.966   3.949 -0.1830  0.5306 -0.1600
  269MOL0     C37030   3.799   6.870   5.032  1.4713  0.7578  0.1477
  269MOL0     C37031   3.783   6.850   5.169  0.5066  0.2855 -0.4458
  269MOL0     O37032   3.896   6.917   5.460 -0.4349 -0.1901 -0.2846
  269MOL0     C37033   3.907   6.586   5.604 -0.2185 -0.7050  0.2080
  269MOL0     C37034   3.922   6.510   5.727 -0.8742 -0.1396  0.8936
  269MOL0     N37035   4.115   6.144   6.376  0.0632  0.2440 -0.4725
  269MOL0     N37036   4.211   6.073   6.408  0.6477  0.2745 -0.0954
  269MOL0     C37037   5.264   6.239   6.886  1.1314 -0.5615  0.1209
  269MOL0     C37038   5.348   6.220   6.999 -0.3084 -0.8605  0.5466
  269MOL0     C37039   5.658   5.983   7.254  0.2826  0.8491  0.4600
  269MOL0     C37040   5.624   6.055   7.370  0.0083 -0.2712  0.6783
  269MOL0     C37041   5.698   6.058   7.487 -0.6218  0.2784 -0.5112
  269MOL0     C37042   5.815   5.974   7.499 -0.4227  0.5006  0.2370
  269MOL0     O37043   5.897   5.950   7.599 -0.4009  0.6421 -0.1503
  269MOL0     C37044   5.879   6.042   7.709  0.7392  0.1955 -0.3555
  269MOL0     C37045   5.928   5.995   7.840  0.2440 -0.1438  0.4638
  269MOL0     C37046   6.085   5.971   7.818  0.2188  0.0651  0.4564
  269MOL0     C37047   6.159   5.943   7.953 -0.3984  0.1662  0.5211
  269MOL0     C37048   6.176   5.804   7.975  0.6596  0.1451 -0.6289
  269MOL0     C37049   6.194   5.691   7.999 -0.4432  0.8449  0.8034
  269MOL0     C37050   5.846   5.901   7.390  0.4909  0.4173 -0.2616
  269MOL0     C37051   5.776   5.902   7.265  0.2295  0.5489 -0.0675
  269MOL0     C37052   5.822   5.804   7.161 -0.3235 -0.6409 -0.0654
  269MOL0     H37053   5.344   5.878   7.005  1.4002  1.4013  0.6395
  269MOL0     H37054   5.198   5.920   6.806  0.5118 -0.8812  1.1553
  269MOL0     H37055   5.298   6.183   6.597  0.1376  0.9429 -0.3529
  269MOL0     H37056   5.165   6.312   6.608 -2.5837 -0.9114 -1.1295
  269MOL0     H37057   5.141   6.210   6.383  0.4108  0.1555  0.1233
  269MOL0     H37058   5.140   6.043   6.466 -0.2204 -0.1037  0.9233
  269MOL0     H37059   4.925   6.135   6.579 -1.6185 -0.6307 -1.2020
  269MOL0     H37060   4.938   6.264   6.466 -0.8426  0.3351  1.4493
  269MOL0     H37061   4.950   6.117   6.272  0.8746 -0.1317  0.2720
  269MOL0     H37062   4.940   5.972   6.377  0.5894  0.4265  1.7848
  269MOL0     H37063   4.749   6.207   6.303  1.4887  0.6941 -0.6077
  269MOL0     H37064   4.713   6.120   6.448  1.4620  1.9553  0.0523
  269MOL0     H37065   4.750   5.980   6.180 -2.3974  0.2395 -1.9156
  269MOL0     H37066   4.730   5.916   6.340 -1.4502 -1.2729 -1.4508
  269MOL0     H37067   4.504   5.978   6.187 -1.3484  0.2536  1.2465
  269MOL0     H37068   4.560   6.132   6.181  1.4312  0.2398 -1.3498
  269MOL0     H37069   4.471   5.978   6.451 -2.2351  1.1526  1.3544
  269MOL0     H37070   4.514   6.148   6.423  1.5555 -1.5157  0.4265
  269MOL0     H37071   4.344   6.251   6.168 -1.0455 -1.3599 -1.7798
  269MOL0     H37072   4.034   6.234   6.112  0.6328  0.5157 -0.3445
  269MOL0     H37073   4.131   6.371   6.114 -0.3902 -0.7775 -1.6392
  269MOL0     H37074   3.911   6.323   6.340 -1.1587  2.0954  1.5025
  269MOL0     H37075   4.015   6.459   6.324 -1.8055  2.3074 -2.5333
  269MOL0     H37076   3.814   6.368   6.122 -2.4626  0.4930  1.1115
  269MOL0     H37077   3.775   6.482   6.239  1.3618  0.5188  1.6347
  269MOL0     H37078   3.797   6.609   6.056 -1.5452 -1.1279  1.0087
  269MOL0     H37079   3.961   6.622   6.125 -0.0940 -0.2897 -1.5495
  269MOL0     H37080   3.957   6.776   5.928 -3.6278  2.0471  0.4606
  269MOL0     H37081   3.872   6.952   5.855 -1.3704  2.1327 -0.3367
  269MOL0     H37082   3.816   6.976   5.691  0.7416 -0.6348 -0.7404
  269MOL0     H37083   3.993   6.981   5.731  1.0149  0.0064  0.2980
  269MOL0     H37084   3.999   6.592   5.215  0.2399  2.1777  2.5364
  269MOL0     H37085   3.994   6.608   4.958  0.0622  1.4112 -1.5105
  269MOL0     H37086   3.874   7.000   4.797  1.8559  1.6238 -1.9790
  269MOL0     H37087   4.028   6.930   4.761 -0.2450 -1.7959 -2.4380
  269MOL0     H37088   3.931   6.967   4.541  0.4919 -0.1393  0.1744
  269MOL0     H37089   3.946   6.804   4.561  0.7103 -0.1901  1.9379
  269MOL0     H37090   3.703   6.954   4.632  0.7120  1.5852 -1.4361
  269MOL0     H37091   3.718   6.768   4.613  0.6725 -2.3833 -4.6767
  269MOL0     H37092   3.761   6.779   4.369 -0.7045  0.4321 -1.2659
  269MOL0     H37093   3.760   6.958   4.378 -1.6197  1.2521  1.8544
  269MOL0     H37094   3.526   6.801   4.461 -1.7922  1.8467  0.4697
  269MOL0     H37095   3.515   6.953   4.384 -0.2293 -0.0816 -1.1026
  269MOL0     H37096   3.546   6.678   4.262 -2.0143  0.6281  0.8379
  269MOL0     H37097   3.649   6.805   4.202 -0.4602 -0.2288 -1.4536
  269MOL0     H37098   3.352   6.818   4.244 -0.5149 -0.5975 -0.6080
  269MOL0     H37099   3.409   6.754   4.092  2.4664 -0.6873  0.3923
  269MOL0     H37100   3.485   7.033   4.177 -1.8389  0.5689  0.3782
  269MOL0     H37101   3.339   6.999   4.076  0.3427 -0.8627 -3.2769
  269MOL0     H37102   3.734   6.947   4.991 -1.3971 -2.9764 -3.0863
  269MOL0     H37103   3.719   6.920   5.221 -1.8787 -1.0611 -1.4013
  269MOL0     H37104   3.900   6.526   5.514  0.2892  0.1960 -0.4436
  269MOL0     H37105   3.923   6.401   5.729 -2.0318 -0.1673  0.8732
  269MOL0     H37106   5.254   6.346   6.868  2.7536 -0.0474  1.9782
  269MOL0     H37107   5.385   6.303   7.058 -3.1986  1.7678 -1.0345
  269MOL0     H37108   5.539   6.122   7.366  0.1653 -0.1225 -0.3182
  269MOL0     H37109   5.648   6.117   7.563  2.0308 -1.5448  2.9264
  269MOL0     H37110   5.939   6.129   7.680  1.0476  0.4337  0.9112
  269MOL0     H37111   5.777   6.081   7.720 -0.1552 -1.2923 -2.6377
  269MOL0     H37112   5.881   5.898   7.864 -2.5292  0.2206 -2.7358
  269MOL0     H37113   5.915   6.076   7.912  1.9182  1.6025 -1.0817
  269MOL0     H37114   6.106   5.900   7.738 -0.5692 -1.0371  1.2023
  269MOL0     H37115   6.128   6.061   7.773 -2.3921  0.6411 -1.1085
  269MOL0     H37116   6.104   5.989   8.035  1.3883  0.3930  1.6654
  269MOL0     H37117   6.260   5.984   7.946 -0.2563 -0.4257 -1.4558
  269MOL0     H37118   6.230   5.592   8.016 -1.9495  0.5475  2.4507
  269MOL0     H37119   5.928   5.830   7.393 -1.2591 -1.7022  0.1094
  269MOL0     H37120   5.736   5.755   7.115 -1.0119  2.0610 -1.9043
  269MOL0     H37121   5.859   5.870   7.083 -3.2555  1.9613  0.5285
  269MOL0     H37122   5.899   5.734   7.196  0.4289  0.9129  1.5938
  270MOL0     O37123   0.598  11.483   5.716  0.0987 -0.4030  0.0091
  270MOL0     C37124   0.608  11.385   5.783  0.7501 -0.8478  0.1190
  270MOL0     O37125   0.597  11.256   5.735  0.0657  0.2545  0.0058
  270MOL0     C37126   0.561  11.224   5.607  0.2940  0.5483  1.3242
  270MOL0     C37127   0.530  11.301   5.489  0.8073 -0.8716 -0.7182
  270MOL0     C37128   0.509  11.236   5.366 -0.1606 -0.4559  0.2052
  270MOL0     C37129   0.537  11.107   5.346  0.7887  0.3499  0.2953
  270MOL0     O37130   0.529  11.063   5.218 -0.3985 -1.4833  0.2704
  270MOL0     C37131   0.647  11.094   5.130  0.2934 -0.0059 -0.1701
  270MOL0     C37132   0.613  11.079   4.992  0.4644  0.0737 -0.5078
  270MOL0     C37133   0.540  10.938   4.958 -0.0119 -0.3028  0.2806
  270MOL0     C37134   0.554  10.898   4.808 -0.6648  0.4122  0.2857
  270MOL0     C37135   0.509  10.752   4.795 -0.1075  0.1363  0.6540
  270MOL0     C37136   0.355  10.739   4.814 -0.4216 -0.8773  1.2225
  270MOL0     C37137   0.283  10.608   4.772  0.7259  0.0600 -0.1109
  270MOL0     C37138   0.335  10.468   4.823  0.2105 -0.1186 -0.4485
  270MOL0     N37139   0.316  10.470   4.971  0.2860 -0.8124  1.1470
  270MOL0     C37140   0.404  10.518   5.059  0.0440  0.0950  1.2515
  270MOL0     C37141   0.344  10.538   5.177 -0.4728 -0.1612 -0.6926
  270MOL0     C37142   0.419  10.584   5.304  0.1381  0.1175  1.1665
  270MOL0     C37143   0.332  10.626   5.421  1.5783 -0.2197  0.3427
  270MOL0     C37144   0.239  10.756   5.409  0.0445  0.1780 -0.9617
  270MOL0     C37145   0.187  10.811   5.537  0.3474  0.7414  0.0768
  270MOL0     O37146   0.086  10.734   5.605 -0.2685 -0.0863  0.0424
  270MOL0     C37147   0.015  10.815   5.699  0.9730  0.1528 -0.8320
  270MOL0     C37148  -0.077  10.908   5.656  0.8679  0.0432  0.3898
  270MOL0     C37149  -0.145  10.986   5.755 -0.0410 -1.0214  0.6291
  270MOL0     C37150  -0.249  11.084   5.705 -0.1332 -0.1938 -0.4391
  270MOL0     C37151  -0.119  10.964   5.895 -0.0204  0.1809  0.9419
  270MOL0     C37152  -0.179  11.038   6.009  0.1363  0.7075 -0.0606
  270MOL0     O37153  -0.278  11.120   5.971 -0.2717 -0.0709  0.7124
  270MOL0     C37154  -0.356  11.182   6.062  0.6789  0.3916  0.1960
  270MOL0     C37155  -0.318  11.250   6.178 -0.2023  0.1554 -0.0365
  270MOL0     C37156  -0.404  11.320   6.259  0.3720  0.1006 -0.6661
  270MOL0     C37157  -0.541  11.318   6.223 -0.0837 -0.6208 -0.0421
  270MOL0     O37158  -0.642  11.379   6.298  0.0178  0.2734  0.1492
  270MOL0     C37159  -0.614  11.507   6.325 -0.4505  0.0899 -1.2766
  270MOL0     C37160  -0.610  11.529   6.478  0.1559 -0.1185  1.1723
  270MOL0     C37161  -0.746  11.493   6.543  0.6333 -0.6798 -0.1049
  270MOL0     C37162  -0.741  11.512   6.695  0.3641  0.7277  0.4322
  270MOL0     C37163  -0.875  11.475   6.750  0.0949  0.1874 -0.1588
  270MOL0     C37164  -0.905  11.327   6.764 -0.5243 -0.0812  0.0320
  270MOL0     C37165  -1.059  11.304   6.803  0.1139  0.3090 -0.3979
  270MOL0     C37166  -1.123  11.164   6.782  0.3369 -0.4844 -1.7374
  270MOL0    Cl37167  -1.012  11.021   6.827  0.0487  0.0800  0.1989
  270MOL0     C37168  -0.589  11.227   6.127 -0.2636 -0.0859 -0.2628
  270MOL0     C37169  -0.503  11.153   6.047 -0.8633 -0.6564  0.1180
  270MOL0     O37170  -0.140  11.015   6.122  0.7423 -0.3737 -0.1807
  270MOL0     C37171  -0.018  10.873   5.925 -0.0740 -0.6361 -0.2232
  270MOL0     C37172   0.046  10.793   5.827 -0.4155 -0.9243 -0.7203
  270MOL0     N37173   0.205  10.508   5.163 -0.0968  0.5465 -0.1148
  270MOL0     N37174   0.197  10.456   5.041 -0.4248 -0.9308  0.7002
  270MOL0     C37175   0.560  11.025   5.451 -1.0878 -0.4853 -0.3185
  270MOL0     C37176   0.572  11.081   5.576 -0.8315 -0.5922 -0.3128
  270MOL0     C37177   0.658  11.403   5.923 -0.1514 -0.3366  0.6259
  270MOL0     C37178   0.710  11.288   5.981 -0.0161 -0.1913 -0.0473
  270MOL0     C37179   0.779  11.301   6.092 -0.1306 -0.2387  0.1559
  270MOL0     C37180   0.792  11.415   6.169 -0.6455  0.8727  0.2928
  270MOL0     O37181   0.859  11.427   6.286 -0.5625  0.4884 -0.1737
  270MOL0     C37182   0.916  11.309   6.355 -1.1802 -0.4165  0.3140
  270MOL0     C37183   0.974  11.349   6.495  1.2061  0.1301  0.0828
  270MOL0     C37184   1.101  11.434   6.473  0.5758 -0.5033  0.1092
  270MOL0     C37185   1.108  11.558   6.566 -0.2024  0.9883  0.3576
  270MOL0     C37186   1.223  11.648   6.536  0.2764 -0.4768  0.2150
  270MOL0     C37187   1.320  11.723   6.500  1.7752  0.8902  0.5140
  270MOL0     C37188   0.716  11.521   6.126  0.2305  0.4382  1.0289
  270MOL0     C37189   0.648  11.520   5.998 -1.0839  0.0833  0.0081
  270MOL0     C37190   0.566  11.646   5.969 -0.5761  0.1951  0.1536
  270MOL0     H37191   0.484  11.399   5.488  0.3901 -1.0480  0.0173
  270MOL0     H37192   0.486  11.292   5.276 -0.8406  3.7544  2.7266
  270MOL0     H37193   0.728  11.022   5.145  2.3021  2.3647  1.0878
  270MOL0     H37194   0.681  11.197   5.147 -0.9233  1.1032 -3.5143
  270MOL0     H37195   0.553  11.156   4.941  0.4312  0.5189  0.1854
  270MOL0     H37196   0.708  11.102   4.943 -1.1561  3.2450 -2.5668
  270MOL0     H37197   0.588  10.862   5.020  0.6840 -0.5580 -0.5552
  270MOL0     H37198   0.431  10.947   4.970 -0.6563 -1.2588 -3.4724
  270MOL0     H37199   0.497  10.973   4.752  0.2944  0.5925 -0.4610
  270MOL0     H37200   0.659  10.906   4.781 -0.9057 -0.9620 -1.1532
  270MOL0     H37201   0.558  10.686   4.867  0.1269  1.0740  1.3619
  270MOL0     H37202   0.541  10.716   4.697  1.7775  2.3564  0.3951
  270MOL0     H37203   0.346  10.753   4.922 -1.3561 -1.5999  1.2497
  270MOL0     H37204   0.299  10.816   4.760 -0.3359 -2.3015 -1.0489
  270MOL0     H37205   0.296  10.615   4.663  1.6134  2.6095  0.0758
  270MOL0     H37206   0.181  10.600   4.811 -0.1216 -1.9746 -2.5115
  270MOL0     H37207   0.276  10.386   4.781  0.8323 -0.6748 -0.2610
  270MOL0     H37208   0.438  10.441   4.795  0.0262 -1.1188 -0.2208
  270MOL0     H37209   0.508  10.537   5.037 -0.6676 -0.3531 -3.6935
  270MOL0     H37210   0.474  10.673   5.272 -2.6515  0.9281 -1.9152
  270MOL0     H37211   0.481  10.496   5.323  1.6653  1.5294  3.2525
  270MOL0     H37212   0.262  10.548   5.452 -0.1530  0.7841 -0.8187
  270MOL0     H37213   0.398  10.644   5.506  0.5751 -0.1096  1.1125
  270MOL0     H37214   0.294  10.842   5.370  0.4794 -0.0527 -0.8705
  270MOL0     H37215   0.155  10.729   5.345 -1.0448  0.1052  0.4405
  270MOL0     H37216   0.267  10.831   5.609 -1.1027  1.6957  1.5064
  270MOL0     H37217   0.140  10.904   5.504 -1.3752 -0.4353 -0.9453
  270MOL0     H37218  -0.091  10.927   5.550 -0.7575  0.5742  0.6733
  270MOL0     H37219  -0.350  11.055   5.735  1.1747 -3.1107  1.5305
  270MOL0     H37220  -0.251  11.070   5.596 -3.4631  1.2246 -0.6984
  270MOL0     H37221  -0.236  11.189   5.733  0.7279 -0.6286  0.8235
  270MOL0     H37222  -0.211  11.256   6.194 -0.3060  2.1648  0.1806
  270MOL0     H37223  -0.369  11.376   6.345  1.8787 -0.1921 -1.0626
  270MOL0     H37224  -0.519  11.537   6.278  2.4336 -1.6174  2.8171
  270MOL0     H37225  -0.701  11.560   6.285 -1.4374  0.3161  1.0218
  270MOL0     H37226  -0.526  11.472   6.518 -0.9216 -3.1196 -0.5308
  270MOL0     H37227  -0.593  11.635   6.496  0.7692 -0.1471  0.7564
  270MOL0     H37228  -0.802  11.407   6.505 -0.5054  0.4747 -1.1165
  270MOL0     H37229  -0.817  11.570   6.514  0.9288 -1.2299 -2.5068
  270MOL0     H37230  -0.717  11.617   6.709  0.5057  1.0618 -1.9277
  270MOL0     H37231  -0.670  11.450   6.750  1.0193 -0.9357 -2.0895
  270MOL0     H37232  -0.879  11.522   6.848 -0.4786  0.9052 -0.5108
  270MOL0     H37233  -0.941  11.524   6.677  0.6728 -1.6544 -2.0289
  270MOL0     H37234  -0.839  11.290   6.843 -1.7848 -0.5298  0.9214
  270MOL0     H37235  -0.886  11.259   6.681  1.2577 -0.2012  0.4978
  270MOL0     H37236  -1.131  11.374   6.760 -1.5961 -0.6612  0.7216
  270MOL0     H37237  -1.073  11.315   6.911  1.4214 -3.9287  0.3977
  270MOL0     H37238  -1.142  11.153   6.675 -1.8717 -1.3341 -1.3169
  270MOL0     H37239  -1.222  11.156   6.829  0.8116  0.1832 -0.5785
  270MOL0     H37240  -0.697  11.216   6.124 -0.3931  1.0441 -0.1368
  270MOL0     H37241  -0.537  11.078   5.977 -1.1765 -0.6992  0.3170
  270MOL0     H37242   0.027  10.880   6.024  0.5621  0.4887 -0.5684
  270MOL0     H37243   0.129  10.729   5.855  1.0775  0.8594 -0.8344
  270MOL0     H37244   0.569  10.917   5.453 -0.7038 -0.4894 -1.4512
  270MOL0     H37245   0.592  11.020   5.664  1.2671  0.7950  0.2525
  270MOL0     H37246   0.712  11.191   5.932  1.4703 -0.3377  0.2683
  270MOL0     H37247   0.823  11.209   6.129  2.3945  1.1789  0.9051
  270MOL0     H37248   0.836  11.234   6.355 -2.8200  1.2755  0.2970
  270MOL0     H37249   1.001  11.257   6.310  1.1591  0.4021  3.4093
  270MOL0     H37250   0.997  11.259   6.551  2.5937  0.0084 -0.6151
  270MOL0     H37251   0.894  11.394   6.554  0.3676 -1.7956  0.4838
  270MOL0     H37252   1.192  11.375   6.490 -0.7493 -2.5942  0.3256
  270MOL0     H37253   1.101  11.466   6.369 -2.6751  0.1210  0.1950
  270MOL0     H37254   1.133  11.520   6.666  2.4105  0.2396 -0.5082
  270MOL0     H37255   1.011  11.605   6.549 -1.4608 -0.9440  1.6836
  270MOL0     H37256   1.405  11.784   6.476  1.8241  0.3880 -0.6288
  270MOL0     H37257   0.707  11.603   6.196 -0.9453  0.2339  1.1334
  270MOL0     H37258   0.595  11.685   5.871  0.4239  1.7908  1.0495
  270MOL0     H37259   0.460  11.623   5.979 -0.3323 -1.2929 -0.3327
  270MOL0     H37260   0.584  11.733   6.032 -1.7764  0.2384  0.4628
  271MOL0     O37261   4.371   4.788   7.491 -0.5334 -0.3378 -0.3779
  271MOL0     C37262   4.328   4.898   7.464  0.0937 -0.6304 -0.0224
  271MOL0     O37263   4.196   4.933   7.480 -0.0620 -0.2978  0.1872
  271MOL0     C37264   4.113   4.833   7.493  1.0090  0.8365 -1.0932
  271MOL0     C37265   4.047   4.783   7.378  0.1606 -0.1144 -0.4040
  271MOL0     C37266   3.952   4.683   7.404  0.0581  0.8966  0.5020
  271MOL0     C37267   3.907   4.639   7.526  0.5399 -0.1524 -0.8359
  271MOL0     O37268   3.802   4.552   7.542  0.1463 -0.3082  0.6235
  271MOL0     C37269   3.666   4.604   7.520 -0.2097 -0.2675 -0.5608
  271MOL0     C37270   3.641   4.714   7.627  0.2966 -0.8822 -0.6256
  271MOL0     C37271   3.528   4.817   7.583  0.1856 -0.8702 -0.5921
  271MOL0     C37272   3.382   4.758   7.577 -0.0277 -0.3551 -0.1593
  271MOL0     C37273   3.273   4.866   7.594  0.9707  0.8866 -0.0957
  271MOL0     C37274   3.135   4.797   7.623  0.4689 -0.1298 -1.0960
  271MOL0     C37275   3.021   4.897   7.629 -0.5416 -0.2631 -0.0078
  271MOL0     C37276   2.972   4.968   7.506  0.3786 -0.1723 -0.2784
  271MOL0     N37277   2.886   5.083   7.547  0.4193 -0.1323 -0.1192
  271MOL0     C37278   2.754   5.096   7.504  0.0367 -0.2107  0.3122
  271MOL0     C37279   2.713   5.218   7.535 -0.1280 -0.1253  0.1702
  271MOL0     C37280   2.571   5.271   7.506  0.2248  0.1766 -0.1369
  271MOL0     C37281   2.465   5.176   7.553  0.2745  0.6707  0.1030
  271MOL0     C37282   2.445   5.180   7.704  0.9756  0.4780 -0.7290
  271MOL0     C37283   2.324   5.094   7.740  0.1609  0.3910  0.7115
  271MOL0     O37284   2.290   5.074   7.879  0.6245 -0.0941 -0.2593
  271MOL0     C37285   2.269   5.187   7.949  0.8650 -0.7795 -0.8629
  271MOL0     C37286   2.270   5.157   8.086 -0.1825 -0.3260 -0.2393
  271MOL0     C37287   2.231   5.271   8.168 -0.0647  1.0473 -0.1596
  271MOL0     C37288   2.217   5.248   8.326 -0.1801  0.7936 -0.2660
  271MOL0     C37289   2.198   5.404   8.117 -0.1576  0.5874 -1.3542
  271MOL0     C37290   2.133   5.507   8.195 -0.7367  0.5828 -0.3525
  271MOL0     O37291   2.022   5.470   8.268  0.0457 -0.0485  0.7426
  271MOL0     C37292   1.951   5.565   8.351  0.1488  0.1166 -0.0039
  271MOL0     C37293   1.996   5.677   8.417 -0.5294  0.1391  0.4721
  271MOL0     C37294   1.908   5.758   8.490  0.1720  0.5440 -0.1946
  271MOL0     C37295   1.775   5.729   8.506  1.3920 -0.6135 -0.1674
  271MOL0     O37296   1.693   5.822   8.552  0.0934 -1.0713 -0.0954
  271MOL0     C37297   1.555   5.803   8.572 -1.3248  0.3557 -0.6568
  271MOL0     C37298   1.485   5.931   8.624 -0.0053 -0.3919  0.8743
  271MOL0     C37299   1.508   6.057   8.548 -0.1911 -1.6233 -0.0990
  271MOL0     C37300   1.449   6.173   8.635 -0.3897  0.9168 -0.8902
  271MOL0     C37301   1.499   6.308   8.577  0.2649 -0.1284  0.0502
  271MOL0     C37302   1.403   6.430   8.599  0.8750  1.3920 -0.4135
  271MOL0     C37303   1.369   6.477   8.739  0.4225 -0.5608  0.3290
  271MOL0     C37304   1.276   6.592   8.731  0.6271  0.3952  1.2575
  271MOL0    Cl37305   1.383   6.734   8.699  0.4614  0.0443  0.0391
  271MOL0     C37306   1.728   5.606   8.461  0.4296  0.7562  0.5562
  271MOL0     C37307   1.819   5.529   8.375  0.8006 -0.0939 -0.5650
  271MOL0     O37308   2.173   5.625   8.183 -0.5518  1.0423  0.2634
  271MOL0     C37309   2.208   5.431   7.982  0.4271 -0.6230 -0.2974
  271MOL0     C37310   2.231   5.320   7.901 -1.2021 -0.1258 -0.5940
  271MOL0     N37311   2.819   5.290   7.586 -0.1489 -0.3115  0.5187
  271MOL0     N37312   2.926   5.206   7.590  0.6142 -0.4487  0.1579
  271MOL0     C37313   3.966   4.700   7.643  0.5536  0.2226 -0.0372
  271MOL0     C37314   4.065   4.785   7.623 -0.3154 -0.2889  0.1460
  271MOL0     C37315   4.436   4.989   7.420 -0.1178  0.2880 -0.6995
  271MOL0     C37316   4.410   5.125   7.434 -0.8709 -0.5542  0.7527
  271MOL0     C37317   4.498   5.230   7.385  1.1168  0.3625  0.6211
  271MOL0     C37318   4.620   5.194   7.333  0.5908  0.3185 -1.0382
  271MOL0     O37319   4.722   5.273   7.293  0.2226  0.1407 -0.3709
  271MOL0     C37320   4.677   5.400   7.244 -0.8670  0.6296  0.8518
  271MOL0     C37321   4.790   5.476   7.169  0.9526 -0.1970  0.3519
  271MOL0     C37322   4.873   5.546   7.275 -0.1544  0.3106 -0.0225
  271MOL0     C37323   4.796   5.662   7.350  0.2997  0.2698 -0.0308
  271MOL0     C37324   4.873   5.759   7.428 -0.1155  0.1984  0.6882
  271MOL0     C37325   4.948   5.819   7.511 -0.1215 -0.1785 -0.2963
  271MOL0     C37326   4.647   5.057   7.327  0.3278  0.4949 -0.4470
  271MOL0     C37327   4.561   4.958   7.361 -1.0072  0.3460  0.4375
  271MOL0     C37328   4.599   4.814   7.326  0.0441  0.2751  0.1247
  271MOL0     H37329   4.082   4.812   7.279 -2.1577 -0.5317 -1.4162
  271MOL0     H37330   3.915   4.625   7.320 -2.2365  2.8675  0.0377
  271MOL0     H37331   3.590   4.529   7.541 -1.9288  1.9199  1.5661
  271MOL0     H37332   3.651   4.643   7.419  0.5475 -2.6885 -1.6911
  271MOL0     H37333   3.608   4.666   7.720 -0.7159 -1.5437 -1.3073
  271MOL0     H37334   3.737   4.765   7.639  0.5616 -1.4039 -0.4665
  271MOL0     H37335   3.517   4.892   7.661  1.4243  1.9624 -2.9349
  271MOL0     H37336   3.559   4.874   7.495  0.2864  1.7364  1.0552
  271MOL0     H37337   3.351   4.709   7.484 -1.0230  0.2861 -0.1759
  271MOL0     H37338   3.362   4.686   7.656  1.3823 -0.0752  0.4675
  271MOL0     H37339   3.264   4.932   7.507 -2.0288  0.9346  0.1576
  271MOL0     H37340   3.290   4.929   7.681 -1.2251  1.7016 -0.1928
  271MOL0     H37341   3.112   4.722   7.547  2.9558 -2.3909  0.1986
  271MOL0     H37342   3.146   4.748   7.720  0.8681  3.5925  0.9147
  271MOL0     H37343   3.053   4.975   7.699  0.9412  1.6571 -2.6365
  271MOL0     H37344   2.934   4.850   7.677  0.1689 -0.9577  0.6188
  271MOL0     H37345   3.053   4.996   7.438  0.1459 -1.8385 -1.2908
  271MOL0     H37346   2.906   4.896   7.456 -2.5585  0.8300  1.8611
  271MOL0     H37347   2.684   5.025   7.461 -0.1342 -1.1722  2.0755
  271MOL0     H37348   2.556   5.302   7.402 -0.9309 -2.2538 -0.7730
  271MOL0     H37349   2.556   5.361   7.566 -2.3369 -1.4846  1.9466
  271MOL0     H37350   2.372   5.218   7.513  1.3032  0.2005 -3.0881
  271MOL0     H37351   2.478   5.072   7.521  1.4268  0.5157  0.9998
  271MOL0     H37352   2.531   5.147   7.762  1.7530  3.7176  0.1530
  271MOL0     H37353   2.415   5.281   7.735  2.7137  1.3954 -1.8205
  271MOL0     H37354   2.237   5.132   7.686 -1.2454  1.5830  3.5814
  271MOL0     H37355   2.333   4.997   7.691 -0.1586  0.4531  0.5270
  271MOL0     H37356   2.297   5.058   8.123  0.9254 -0.2918 -0.9106
  271MOL0     H37357   2.217   5.140   8.337 -0.8490  0.6332 -1.6347
  271MOL0     H37358   2.121   5.277   8.371  1.3272  6.3635  0.1565
  271MOL0     H37359   2.303   5.288   8.380  1.4418 -0.5842 -1.7017
  271MOL0     H37360   2.102   5.700   8.413 -0.3910  2.4905  6.7175
  271MOL0     H37361   1.961   5.840   8.538  0.3158  0.8352 -0.8357
  271MOL0     H37362   1.508   5.768   8.479  1.2007 -0.9368 -1.5579
  271MOL0     H37363   1.541   5.728   8.650 -0.6949 -0.4739 -1.3186
  271MOL0     H37364   1.378   5.912   8.635 -0.4942  0.3395 -2.0107
  271MOL0     H37365   1.525   5.934   8.726  1.7737 -0.5693  0.2153
  271MOL0     H37366   1.461   6.062   8.449 -0.5801  0.9539  0.1314
  271MOL0     H37367   1.618   6.063   8.545 -0.2494 -0.7027 -1.9159
  271MOL0     H37368   1.468   6.171   8.742 -1.6079  2.9515 -0.5977
  271MOL0     H37369   1.342   6.190   8.627 -0.5810  2.2275  2.8013
  271MOL0     H37370   1.600   6.336   8.607 -0.1367  2.0930 -0.5313
  271MOL0     H37371   1.489   6.294   8.469 -1.1484 -0.4323  0.1986
  271MOL0     H37372   1.310   6.408   8.546 -0.2632 -3.3819  2.8845
  271MOL0     H37373   1.447   6.520   8.556  0.3242  1.5722 -0.5986
  271MOL0     H37374   1.459   6.515   8.790 -2.8319  2.5655  4.5775
  271MOL0     H37375   1.322   6.403   8.804  1.3987 -0.6263  0.9936
  271MOL0     H37376   1.224   6.592   8.827 -0.1748 -4.4271  1.0714
  271MOL0     H37377   1.198   6.572   8.657  0.5830  2.0340  0.8415
  271MOL0     H37378   1.629   5.566   8.480  0.9741 -0.8961  0.1032
  271MOL0     H37379   1.790   5.433   8.335  2.2014 -1.2247  0.9431
  271MOL0     H37380   2.189   5.530   7.941  2.3512  0.5143  1.3770
  271MOL0     H37381   2.225   5.328   7.793  0.1571 -2.7755 -0.9506
  271MOL0     H37382   3.950   4.662   7.743  3.7798 -1.0354  0.1425
  271MOL0     H37383   4.118   4.828   7.708  1.4333 -3.1546  0.6440
  271MOL0     H37384   4.313   5.158   7.469 -0.3172  1.3307  0.6316
  271MOL0     H37385   4.477   5.331   7.421  0.9936  0.8878 -0.8570
  271MOL0     H37386   4.597   5.386   7.171  0.8224 -3.4878 -0.4777
  271MOL0     H37387   4.631   5.452   7.329 -1.7900 -0.2187  0.8813
  271MOL0     H37388   4.743   5.550   7.104 -0.5999 -0.8572  0.6746
  271MOL0     H37389   4.843   5.403   7.107  0.0613  0.5086 -1.2977
  271MOL0     H37390   4.920   5.474   7.343  2.9772 -0.1830 -2.4683
  271MOL0     H37391   4.956   5.596   7.225 -2.1538  0.3228 -3.6769
  271MOL0     H37392   4.736   5.619   7.431  1.3073  0.3045  0.7571
  271MOL0     H37393   4.732   5.724   7.286  0.8685  0.2196 -0.6486
  271MOL0     H37394   5.024   5.857   7.577  0.7498 -0.6089 -1.0225
  271MOL0     H37395   4.743   5.027   7.285 -0.0959 -1.9491  0.1570
  271MOL0     H37396   4.522   4.782   7.256 -0.3978  0.5693  0.4747
  271MOL0     H37397   4.692   4.807   7.268  1.3347  3.9538  1.4679
  271MOL0     H37398   4.607   4.745   7.411  1.1636 -1.8489 -1.5798
  272MOL0     O37399   6.617   1.821  10.810  0.2125  0.5803  0.0287
  272MOL0     C37400   6.616   1.728  10.731  0.3407 -0.4088 -0.3140
  272MOL0     O37401   6.528   1.710  10.624 -0.6832 -0.2518 -0.1731
  272MOL0     C37402   6.463   1.816  10.557 -0.6699  0.2518  0.6144
  272MOL0     C37403   6.504   1.950  10.574 -0.2467 -0.7646  0.1066
  272MOL0     C37404   6.456   2.051  10.496  0.7460 -0.0424  1.0960
  272MOL0     C37405   6.351   2.036  10.406  0.2903  0.6385  0.0666
  272MOL0     O37406   6.320   2.147  10.327 -0.4099 -0.5061  0.6353
  272MOL0     C37407   6.198   2.134  10.250  1.0952  0.4745 -0.7047
  272MOL0     C37408   6.175   2.271  10.186 -0.2243 -0.5532  0.7122
  272MOL0     C37409   6.302   2.334  10.129  0.1202 -0.4608 -0.4279
  272MOL0     C37410   6.382   2.233  10.046  0.1583  0.1439  0.0199
  272MOL0     C37411   6.515   2.286   9.997  0.2891 -0.8056 -0.9875
  272MOL0     C37412   6.585   2.205   9.889 -0.1084 -0.3324  0.3254
  272MOL0     C37413   6.584   2.056   9.909  0.4646  0.6187 -0.6609
  272MOL0     C37414   6.682   1.986   9.816  0.3117  0.2095  0.8476
  272MOL0     N37415   6.816   2.008   9.854  0.2289 -0.0933  0.2866
  272MOL0     C37416   6.879   1.959   9.957  0.0535  0.3149  0.8947
  272MOL0     C37417   6.999   2.026   9.975 -0.4085  0.8760 -0.4116
  272MOL0     C37418   7.107   1.998  10.083 -0.4480 -0.1055  0.0829
  272MOL0     C37419   7.164   2.123  10.140  0.0882  0.2166 -1.5483
  272MOL0     C37420   7.247   2.213  10.052  0.2282 -0.5244 -0.2230
  272MOL0     C37421   7.200   2.355  10.035  0.0679  0.0917  0.4666
  272MOL0     O37422   7.282   2.453  10.103  0.3619  0.9490  0.2101
  272MOL0     C37423   7.371   2.529  10.032  0.1818  0.5725  0.0739
  272MOL0     C37424   7.383   2.649  10.086  0.6329  0.1984 -0.4391
  272MOL0     C37425   7.437   2.754  10.013  0.5966 -0.2153 -0.5520
  272MOL0     C37426   7.438   2.891  10.076 -0.1715 -0.3111  0.3180
  272MOL0     C37427   7.511   2.725   9.895  0.2415  0.4153  1.3818
  272MOL0     C37428   7.577   2.829   9.818 -0.1984  0.1049 -0.2863
  272MOL0     O37429   7.548   2.845   9.685  0.2162 -0.1201 -0.1266
  272MOL0     C37430   7.518   2.976   9.649  0.4849 -1.0305  0.2323
  272MOL0     C37431   7.471   3.081   9.721  0.2056  0.0523 -0.3044
  272MOL0     C37432   7.413   3.201   9.653  0.7907  0.4860  1.0718
  272MOL0     C37433   7.408   3.212   9.511  0.2968  0.7368 -0.1247
  272MOL0     O37434   7.360   3.329   9.462 -0.1492  0.5364  0.1363
  272MOL0     C37435   7.349   3.351   9.319  0.5596 -0.2273 -0.6025
  272MOL0     C37436   7.475   3.419   9.277  0.1604 -0.3653 -0.2269
  272MOL0     C37437   7.504   3.545   9.360 -0.2623  0.6058 -0.2227
  272MOL0     C37438   7.595   3.647   9.298  0.0470  0.1940 -0.0808
  272MOL0     C37439   7.615   3.751   9.407 -1.0978 -0.4929 -0.0279
  272MOL0     C37440   7.682   3.880   9.341  0.4455  0.1145  0.1396
  272MOL0     C37441   7.747   3.976   9.445 -0.9236  0.3692  0.8996
  272MOL0     C37442   7.646   4.056   9.532 -0.0121  1.1190  0.7242
  272MOL0    Cl37443   7.582   4.178   9.428 -0.1787  0.1077  0.3982
  272MOL0     C37444   7.455   3.093   9.435  0.4981 -0.1973  0.1749
  272MOL0     C37445   7.507   2.988   9.507  0.7099 -0.1220 -0.6070
  272MOL0     O37446   7.654   2.905   9.875 -0.6551  0.1961 -0.3767
  272MOL0     C37447   7.510   2.598   9.850  0.0875  0.2961  0.2571
  272MOL0     C37448   7.441   2.492   9.916  0.6223 -0.1879  0.0100
  272MOL0     N37449   7.002   2.128   9.881  0.4516 -1.3748  0.8924
  272MOL0     N37450   6.883   2.120   9.820 -0.2591 -0.4144  0.2418
  272MOL0     C37451   6.288   1.902  10.397 -0.7633  0.0534  0.3062
  272MOL0     C37452   6.351   1.792  10.473 -0.4917  0.3788 -0.1863
  272MOL0     C37453   6.699   1.604  10.767 -0.3758 -0.3037 -0.6828
  272MOL0     C37454   6.666   1.483  10.702 -0.6473  0.0349 -0.0855
  272MOL0     C37455   6.732   1.361  10.729 -0.0798  0.3904  0.0190
  272MOL0     C37456   6.831   1.354  10.834  0.3061  0.2501  0.9004
  272MOL0     O37457   6.906   1.240  10.861  0.7464  0.5175  0.8776
  272MOL0     C37458   6.859   1.111  10.825  0.5486  0.0709 -0.3103
  272MOL0     C37459   6.754   1.077  10.924  0.6876  0.2320  1.3223
  272MOL0     C37460   6.802   1.051  11.059  0.5038 -0.8818 -0.0308
  272MOL0     C37461   6.686   1.022  11.150  0.5345  0.5684  0.4751
  272MOL0     C37462   6.729   1.027  11.293  0.1662 -0.5886  1.3270
  272MOL0     C37463   6.765   1.044  11.403  0.3393  1.1370  0.8941
  272MOL0     C37464   6.865   1.474  10.893 -0.6302 -1.1850 -0.7520
  272MOL0     C37465   6.801   1.598  10.868 -0.5433 -0.3514 -0.3620
  272MOL0     C37466   6.852   1.720  10.942  0.2716 -0.8965 -0.6593
  272MOL0     H37467   6.579   1.976  10.648 -1.1218  3.4189 -0.1899
  272MOL0     H37468   6.497   2.150  10.514 -0.7587  0.2122  3.7759
  272MOL0     H37469   6.109   2.084  10.289  0.8137 -0.9875 -3.0291
  272MOL0     H37470   6.219   2.056  10.176  0.6887 -2.3954  2.0075
  272MOL0     H37471   6.103   2.266  10.104 -0.9667  0.3912  1.2806
  272MOL0     H37472   6.136   2.337  10.265 -1.2760  1.8798 -1.6702
  272MOL0     H37473   6.298   2.430  10.078  0.8137  2.1976  4.0360
  272MOL0     H37474   6.361   2.362  10.217  0.0979  0.7479 -0.7841
  272MOL0     H37475   6.387   2.132  10.088  0.3328  1.3509  3.1584
  272MOL0     H37476   6.328   2.205   9.955 -0.0044 -2.2186  0.7791
  272MOL0     H37477   6.588   2.290  10.078 -0.3991  1.2811 -0.3890
  272MOL0     H37478   6.508   2.389   9.960  1.2027 -1.1190 -2.0562
  272MOL0     H37479   6.536   2.225   9.793 -1.2796  0.3023  1.0326
  272MOL0     H37480   6.684   2.250   9.879 -0.0563 -0.9450 -3.1387
  272MOL0     H37481   6.485   2.012   9.899  0.4364  0.8064 -1.2502
  272MOL0     H37482   6.614   2.033  10.012 -1.0369  2.7766  0.3301
  272MOL0     H37483   6.666   1.881   9.788  0.2296  0.4458 -0.0042
  272MOL0     H37484   6.658   2.031   9.719  2.6462  3.0859  1.4686
  272MOL0     H37485   6.838   1.877  10.015 -2.7290  2.2944  1.9435
  272MOL0     H37486   7.195   1.947  10.043  1.1174  0.7940  2.1760
  272MOL0     H37487   7.080   1.922  10.157  0.6084 -2.8393 -2.1509
  272MOL0     H37488   7.086   2.179  10.192 -1.4383 -1.7624 -1.5494
  272MOL0     H37489   7.237   2.101  10.218  2.6792 -0.3140 -3.9785
  272MOL0     H37490   7.355   2.212  10.073  0.5230 -0.4104 -1.6180
  272MOL0     H37491   7.240   2.171   9.951 -0.0012 -3.8801  1.0363
  272MOL0     H37492   7.221   2.374   9.930  1.6980  2.1549  1.0974
  272MOL0     H37493   7.094   2.365  10.059 -1.1129 -2.2400 -2.9687
  272MOL0     H37494   7.340   2.672  10.183  2.3760 -0.3701  0.5173
  272MOL0     H37495   7.412   2.971  10.007  3.4979  1.7265  1.0372
  272MOL0     H37496   7.533   2.908  10.128  0.4280 -3.9044  0.6550
  272MOL0     H37497   7.356   2.883  10.148  0.5365 -1.8473  0.9974
  272MOL0     H37498   7.472   3.077   9.830 -0.3144  2.0394 -0.1841
  272MOL0     H37499   7.378   3.275   9.725  3.4261 -0.2011  3.2166
  272MOL0     H37500   7.316   3.264   9.262  0.6101  0.3143 -1.4700
  272MOL0     H37501   7.277   3.429   9.295 -0.5353 -1.0745 -0.1630
  272MOL0     H37502   7.556   3.347   9.291 -1.2365 -1.8449  0.7730
  272MOL0     H37503   7.477   3.428   9.168 -2.3882  2.0988 -0.1734
  272MOL0     H37504   7.557   3.521   9.453  2.5077  4.4969 -0.5784
  272MOL0     H37505   7.404   3.589   9.372 -0.5767  1.1234 -3.8107
  272MOL0     H37506   7.551   3.686   9.206  1.5619 -0.8114 -1.2654
  272MOL0     H37507   7.690   3.603   9.268  0.8866 -0.0591  2.6695
  272MOL0     H37508   7.529   3.775   9.470 -0.5402 -0.7711  0.8633
  272MOL0     H37509   7.680   3.707   9.484 -0.0491 -1.0965 -1.2259
  272MOL0     H37510   7.600   3.934   9.292  0.8492 -1.6955 -2.7825
  272MOL0     H37511   7.764   3.848   9.275  1.4501  1.1813  0.8324
  272MOL0     H37512   7.823   4.039   9.399 -0.5106 -0.2066  0.7856
  272MOL0     H37513   7.799   3.911   9.516 -1.6405  0.9327  1.9672
  272MOL0     H37514   7.702   4.099   9.616 -0.3835 -1.8301  2.6590
  272MOL0     H37515   7.564   3.993   9.567  0.5543 -0.8836 -1.3130
  272MOL0     H37516   7.467   3.104   9.327  0.3090 -1.4135  0.0222
  272MOL0     H37517   7.549   2.903   9.454 -1.5515 -1.0439 -1.0316
  272MOL0     H37518   7.566   2.577   9.759  0.1259 -0.6319  0.4882
  272MOL0     H37519   7.413   2.397   9.872  0.2151 -0.1791  0.2430
  272MOL0     H37520   6.205   1.889  10.328 -1.2850  3.1195  0.1987
  272MOL0     H37521   6.315   1.691  10.461 -1.6229  0.3546  2.7930
  272MOL0     H37522   6.589   1.481  10.625  1.2057 -1.3848 -1.9983
  272MOL0     H37523   6.704   1.273  10.672 -1.7356 -0.0256  1.3841
  272MOL0     H37524   6.811   1.111  10.726 -2.9450  1.0170  1.2405
  272MOL0     H37525   6.948   1.046  10.823  1.1123  0.7524 -3.1964
  272MOL0     H37526   6.701   0.997  10.870  1.9974  1.3973 -1.9115
  272MOL0     H37527   6.680   1.158  10.922 -1.1516 -1.3399  1.6022
  272MOL0     H37528   6.856   0.956  11.057 -1.2903 -1.9620  0.4299
  272MOL0     H37529   6.852   1.138  11.104 -2.2868  0.8593 -0.0495
  272MOL0     H37530   6.631   0.932  11.120 -1.5408  2.0326 -0.3817
  272MOL0     H37531   6.612   1.103  11.145 -0.6505 -0.4167  1.4086
  272MOL0     H37532   6.790   1.039  11.507  2.1972 -3.3642  0.4496
  272MOL0     H37533   6.942   1.481  10.969 -1.9074  2.5435  0.3700
  272MOL0     H37534   6.871   1.799  10.869  0.0332  0.7131  0.9445
  272MOL0     H37535   6.779   1.756  11.016 -0.0590 -5.3180  1.5049
  272MOL0     H37536   6.940   1.704  11.005  1.0200  0.0952 -1.4289
  273MOL0     O37537   0.459   5.922   6.608  0.1504  0.7550 -0.0967
  273MOL0     C37538   0.446   5.810   6.558  0.4171  0.6867  0.3808
  273MOL0     O37539   0.476   5.778   6.436  0.6697  0.3371 -0.5583
  273MOL0     C37540   0.433   5.859   6.335  0.0523 -0.1691 -0.0758
  273MOL0     C37541   0.297   5.899   6.331  0.2489  0.0005 -0.2325
  273MOL0     C37542   0.241   5.957   6.222  0.1903  0.9130 -0.4517
  273MOL0     C37543   0.315   5.989   6.110 -0.6157  0.1299 -0.2057
  273MOL0     O37544   0.260   6.067   6.007 -0.5057 -0.6120 -0.2645
  273MOL0     C37545   0.301   6.211   6.007  0.0902 -0.3969 -0.2715
  273MOL0     C37546   0.276   6.275   5.865 -0.1113  0.4490 -0.1351
  273MOL0     C37547   0.388   6.231   5.764 -0.6880 -1.0652  0.4606
  273MOL0     C37548   0.337   6.235   5.617 -1.2529 -0.7976 -0.4995
  273MOL0     C37549   0.455   6.205   5.518  0.4145 -0.0064 -0.3281
  273MOL0     C37550   0.434   6.237   5.371  0.6937  0.6839  1.1767
  273MOL0     C37551   0.432   6.391   5.353  0.0417 -0.0572 -0.1632
  273MOL0     C37552   0.342   6.445   5.237 -0.2360  0.5950 -0.1588
  273MOL0     N37553   0.387   6.401   5.104 -0.1687 -0.7262 -0.7811
  273MOL0     C37554   0.491   6.459   5.022 -0.3306  0.0302 -0.4108
  273MOL0     C37555   0.485   6.388   4.907  0.3972  0.1574 -0.0284
  273MOL0     C37556   0.583   6.383   4.798  0.2750 -0.6464  0.2416
  273MOL0     C37557   0.567   6.519   4.704  0.6566  1.1349 -1.1883
  273MOL0     C37558   0.419   6.525   4.639  0.2617  0.3564  1.5441
  273MOL0     C37559   0.384   6.424   4.528  0.9249  0.3998  0.8756
  273MOL0     O37560   0.483   6.438   4.421  0.5650 -0.3862  0.0298
  273MOL0     C37561   0.525   6.318   4.380 -0.1710 -0.9965 -0.0193
  273MOL0     C37562   0.446   6.242   4.296  0.6707 -0.3415  0.3517
  273MOL0     C37563   0.481   6.117   4.247  0.3978  0.0083  0.3941
  273MOL0     C37564   0.393   6.024   4.160 -0.8170  0.2746  0.2014
  273MOL0     C37565   0.607   6.062   4.292 -0.6596 -0.8844 -0.0915
  273MOL0     C37566   0.657   5.923   4.245 -0.1061 -0.4255  0.1611
  273MOL0     O37567   0.785   5.926   4.192 -1.1675 -0.3164 -0.4459
  273MOL0     C37568   0.833   5.844   4.099 -0.2107  0.0630  0.5999
  273MOL0     C37569   0.971   5.822   4.078 -0.7408 -0.7680  0.2031
  273MOL0     C37570   1.022   5.752   3.967  0.8202  0.0977  0.4508
  273MOL0     C37571   0.937   5.687   3.883 -0.7615 -0.2079 -0.7512
  273MOL0     O37572   0.997   5.618   3.780  0.0405  0.2242  0.1363
  273MOL0     C37573   0.937   5.633   3.641 -0.6131 -0.1332  0.5149
  273MOL0     C37574   1.029   5.710   3.547  0.8063 -0.1550 -0.9330
  273MOL0     C37575   1.047   5.851   3.598 -0.2022  0.5426 -0.8625
  273MOL0     C37576   1.137   5.926   3.495 -0.0043  0.1512 -0.3354
  273MOL0     C37577   1.164   6.079   3.515 -0.8413 -0.0450 -0.6436
  273MOL0     C37578   1.218   6.147   3.384  0.4105  0.1377 -0.9113
  273MOL0     C37579   1.233   6.297   3.391  0.0084  0.2033 -0.4032
  273MOL0     C37580   1.096   6.363   3.393 -0.5249  0.5108  1.0067
  273MOL0    Cl37581   1.117   6.539   3.379 -0.3401  0.4659 -0.1839
  273MOL0     C37582   0.797   5.707   3.895 -0.4498  0.1652 -0.1679
  273MOL0     C37583   0.745   5.778   4.003 -0.4051 -0.8286  0.2992
  273MOL0     O37584   0.588   5.819   4.247 -0.1824 -0.0102  0.0413
  273MOL0     C37585   0.691   6.137   4.378 -0.7388  0.5647 -0.5795
  273MOL0     C37586   0.652   6.264   4.419 -0.0584 -0.7780 -1.0627
  273MOL0     N37587   0.375   6.311   4.906  0.5177  0.6123  0.3155
  273MOL0     N37588   0.313   6.328   5.025 -0.5808  0.9793  0.3942
  273MOL0     C37589   0.455   5.971   6.117 -1.3040  0.9768  0.0542
  273MOL0     C37590   0.511   5.904   6.233  0.4093  0.7613 -0.8452
  273MOL0     C37591   0.403   5.705   6.649 -0.4223  0.8707 -0.6186
  273MOL0     C37592   0.314   5.607   6.598 -0.5352 -0.9818 -0.2973
  273MOL0     C37593   0.261   5.506   6.666 -0.2603 -1.4352  0.0564
  273MOL0     C37594   0.305   5.485   6.794 -0.2152 -0.4383 -0.7510
  273MOL0     O37595   0.258   5.363   6.856  0.4609  1.0794  1.4021
  273MOL0     C37596   0.294   5.335   6.992 -1.1657  0.1304  0.1434
  273MOL0     C37597   0.412   5.241   7.007 -0.7835 -0.0334  0.2650
  273MOL0     C37598   0.451   5.228   7.152 -0.1004  0.6189  0.1056
  273MOL0     C37599   0.559   5.120   7.163 -0.1309 -0.2582  0.2018
  273MOL0     C37600   0.569   5.080   7.302 -0.3244 -0.1107 -0.0380
  273MOL0     C37601   0.580   5.037   7.421  0.0147 -0.1101  0.5196
  273MOL0     C37602   0.383   5.587   6.848  0.1848 -0.1666  0.2195
  273MOL0     C37603   0.424   5.704   6.784 -0.1275 -0.7190  0.2599
  273MOL0     C37604   0.520   5.800   6.849  0.3842 -0.1813 -0.3624
  273MOL0     H37605   0.225   5.880   6.410 -1.2236 -0.4609 -1.6150
  273MOL0     H37606   0.136   5.983   6.224 -0.3207 -1.0187  0.2264
  273MOL0     H37607   0.408   6.225   6.026  0.3574 -1.9148 -0.5171
  273MOL0     H37608   0.248   6.271   6.081 -1.7643  0.6463 -2.3459
  273MOL0     H37609   0.175   6.255   5.830  0.1656  1.6448 -1.7265
  273MOL0     H37610   0.277   6.383   5.879 -0.1072  0.5077 -0.5779
  273MOL0     H37611   0.468   6.303   5.784  0.4362 -1.8940 -0.8516
  273MOL0     H37612   0.423   6.134   5.800 -1.4349  0.0050  4.6272
  273MOL0     H37613   0.259   6.160   5.602 -0.4911 -1.7740  0.2660
  273MOL0     H37614   0.294   6.330   5.583  3.3263  1.8418  0.0878
  273MOL0     H37615   0.476   6.098   5.524  2.3552  0.3983  1.7271
  273MOL0     H37616   0.548   6.256   5.547 -0.2314  2.1498 -1.7436
  273MOL0     H37617   0.511   6.189   5.310 -0.1581  1.4254 -0.5520
  273MOL0     H37618   0.334   6.208   5.338 -0.2869  5.2339 -0.6522
  273MOL0     H37619   0.533   6.432   5.340 -0.4456  0.8655 -1.2478
  273MOL0     H37620   0.386   6.444   5.437 -1.4536 -0.2581 -0.8219
  273MOL0     H37621   0.253   6.384   5.257  1.8833 -2.7565 -0.1206
  273MOL0     H37622   0.320   6.552   5.230  0.1336  0.9402  2.6448
  273MOL0     H37623   0.573   6.528   5.041  1.5796 -2.8090  2.8799
  273MOL0     H37624   0.560   6.292   4.741 -0.3742 -0.6872  0.5682
  273MOL0     H37625   0.678   6.361   4.849  0.1422  0.4970  1.0144
  273MOL0     H37626   0.595   6.605   4.765 -3.6750  0.0611  2.8744
  273MOL0     H37627   0.651   6.524   4.634  1.6650 -2.7806 -0.4908
  273MOL0     H37628   0.348   6.510   4.721 -1.6857 -1.1751 -0.3101
  273MOL0     H37629   0.407   6.624   4.595 -0.4893  0.2776  1.5721
  273MOL0     H37630   0.391   6.322   4.566 -0.1557  0.1181  0.3540
  273MOL0     H37631   0.286   6.431   4.479  0.5906 -0.5322  1.3953
  273MOL0     H37632   0.352   6.284   4.264  0.1767 -2.2206 -0.8294
  273MOL0     H37633   0.330   5.959   4.222  0.4863 -0.6459  0.6014
  273MOL0     H37634   0.450   5.970   4.084 -3.2175 -0.7476 -0.9856
  273MOL0     H37635   0.326   6.078   4.092 -0.5390  3.1625  2.0551
  273MOL0     H37636   1.056   5.875   4.121  1.2527 -3.0425 -0.7569
  273MOL0     H37637   1.127   5.738   3.944  0.7977 -1.0244  0.9278
  273MOL0     H37638   0.923   5.532   3.604  1.1863 -0.9939  1.9933
  273MOL0     H37639   0.841   5.686   3.642  0.2706  2.0953 -4.0795
  273MOL0     H37640   1.125   5.658   3.535 -1.3099 -4.1144 -2.2366
  273MOL0     H37641   0.966   5.714   3.458  0.7848  1.7636 -0.8818
  273MOL0     H37642   1.091   5.859   3.698 -2.2907  0.3462  0.1254
  273MOL0     H37643   0.955   5.909   3.607 -1.4266 -1.5016  0.6734
  273MOL0     H37644   1.088   5.923   3.398 -0.5701 -1.8162 -0.0304
  273MOL0     H37645   1.234   5.875   3.495  0.3074  0.6044  2.2210
  273MOL0     H37646   1.066   6.125   3.530 -0.4606  0.0067  2.3844
  273MOL0     H37647   1.224   6.102   3.604 -0.3188 -1.0701 -0.7093
  273MOL0     H37648   1.152   6.130   3.299 -0.7423  0.8317 -0.1842
  273MOL0     H37649   1.301   6.084   3.351  1.5777 -1.5810  4.3412
  273MOL0     H37650   1.279   6.328   3.296 -0.3328  0.9120 -0.3381
  273MOL0     H37651   1.284   6.332   3.480 -1.2774 -1.0425  0.8795
  273MOL0     H37652   1.056   6.354   3.494  1.6505  3.3441  2.2975
  273MOL0     H37653   1.037   6.309   3.318  0.3431 -2.2312  2.1761
  273MOL0     H37654   0.730   5.654   3.828  1.2885 -1.7303 -0.4879
  273MOL0     H37655   0.638   5.798   4.007 -0.2135  0.6856 -0.8470
  273MOL0     H37656   0.775   6.090   4.428 -0.9117  0.5374 -0.3137
  273MOL0     H37657   0.711   6.307   4.499 -1.8627  1.1561 -0.6894
  273MOL0     H37658   0.517   5.986   6.030  0.2398  2.8241  1.3897
  273MOL0     H37659   0.610   5.858   6.240  1.0352  2.3343  2.2073
  273MOL0     H37660   0.274   5.624   6.498 -0.6484 -0.3712 -0.1535
  273MOL0     H37661   0.194   5.448   6.602 -3.9167 -0.1292  2.4041
  273MOL0     H37662   0.314   5.429   7.045 -0.1449  1.2460 -2.0612
  273MOL0     H37663   0.204   5.290   7.034 -0.5551 -0.3999  0.9014
  273MOL0     H37664   0.501   5.278   6.955 -0.4263 -0.0579  0.8568
  273MOL0     H37665   0.383   5.144   6.965 -0.2228 -1.0648  2.1286
  273MOL0     H37666   0.484   5.324   7.191  1.4954  0.3911 -0.6172
  273MOL0     H37667   0.357   5.201   7.201 -0.2315  1.1966  0.1711
  273MOL0     H37668   0.650   5.156   7.114 -1.6130  3.3947 -0.1816
  273MOL0     H37669   0.520   5.025   7.125 -1.5693  0.2612  0.3203
  273MOL0     H37670   0.601   4.990   7.515  1.4541 -1.8086 -0.6072
  273MOL0     H37671   0.408   5.608   6.952  3.5988 -1.6204 -0.1672
  273MOL0     H37672   0.599   5.844   6.787  0.4181 -2.4533 -2.0429
  273MOL0     H37673   0.465   5.872   6.911 -1.9288 -0.9750 -1.3549
  273MOL0     H37674   0.575   5.744   6.924  0.4538 -0.0760 -0.3342
  274MOL0     O37675   0.386   7.173   9.623  0.1861  0.3957  0.0054
  274MOL0     C37676   0.389   7.235   9.513 -0.0207  0.4118 -1.1992
  274MOL0     O37677   0.367   7.176   9.389  0.1955 -0.6862  0.2378
  274MOL0     C37678   0.388   7.044   9.398  0.0392  0.3726  0.0353
  274MOL0     C37679   0.513   6.996   9.414 -0.0783  0.0410  0.6064
  274MOL0     C37680   0.535   6.861   9.397 -0.0706 -1.9965 -0.0792
  274MOL0     C37681   0.431   6.772   9.374 -0.1771 -0.7306 -1.1078
  274MOL0     O37682   0.471   6.641   9.362  0.5612 -0.4132  0.6313
  274MOL0     C37683   0.381   6.545   9.300  0.6764  0.9957  0.2783
  274MOL0     C37684   0.446   6.413   9.258  0.4450 -0.3691  0.2560
  274MOL0     C37685   0.352   6.339   9.162 -0.1381 -0.7893  0.6195
  274MOL0     C37686   0.228   6.275   9.229 -0.2310 -0.7628 -0.3753
  274MOL0     C37687   0.148   6.203   9.130  0.0133  0.7261 -0.4923
  274MOL0     C37688   0.017   6.146   9.187 -0.0014  0.0103 -0.9092
  274MOL0     C37689  -0.067   6.058   9.088  0.0236  0.7441 -0.1933
  274MOL0     C37690  -0.141   5.949   9.166 -1.3029 -1.0238  0.4246
  274MOL0     N37691  -0.241   5.893   9.065 -0.3411  0.3788  0.6759
  274MOL0     C37692  -0.217   5.792   8.976  0.0151  1.0036  0.0679
  274MOL0     C37693  -0.317   5.800   8.888 -0.0839 -0.6501 -0.6278
  274MOL0     C37694  -0.343   5.720   8.759  0.5515 -1.1269 -0.1280
  274MOL0     C37695  -0.383   5.799   8.638  1.7081  1.5344  0.0600
  274MOL0     C37696  -0.447   5.715   8.527  1.0299 -0.0302  0.9015
  274MOL0     C37697  -0.479   5.796   8.395  0.5598  0.1615 -0.0193
  274MOL0     O37698  -0.578   5.899   8.421  0.4678 -0.1501 -0.2531
  274MOL0     C37699  -0.539   6.028   8.380  0.0186  0.4783 -0.0171
  274MOL0     C37700  -0.566   6.145   8.455 -0.3634 -0.5740  0.8423
  274MOL0     C37701  -0.530   6.277   8.401  1.0309  0.6375 -1.2375
  274MOL0     C37702  -0.545   6.401   8.485  0.7037  0.3989 -1.1537
  274MOL0     C37703  -0.468   6.288   8.281  0.3256  0.3781 -0.3691
  274MOL0     C37704  -0.407   6.416   8.247  0.1527  0.4826 -0.2662
  274MOL0     O37705  -0.483   6.516   8.196 -0.2657  0.7064  0.2672
  274MOL0     C37706  -0.418   6.620   8.131 -0.8125 -0.1872 -0.4689
  274MOL0     C37707  -0.389   6.615   7.992 -0.2917 -0.5581  0.4015
  274MOL0     C37708  -0.326   6.736   7.939 -0.0512 -0.0955  0.2855
  274MOL0     C37709  -0.285   6.839   8.022 -0.3400 -0.4136  0.0489
  274MOL0     O37710  -0.241   6.957   7.967  0.3225 -0.5824  0.7556
  274MOL0     C37711  -0.107   6.944   7.913  0.0751 -0.7449  0.5976
  274MOL0     C37712  -0.092   6.979   7.765 -1.1323 -0.1460  0.5658
  274MOL0     C37713  -0.165   7.112   7.735 -0.0475 -0.5503 -0.9734
  274MOL0     C37714  -0.117   7.173   7.608 -0.2329  0.1563  0.3874
  274MOL0     C37715   0.025   7.239   7.618 -0.2966 -0.3160 -0.0006
  274MOL0     C37716   0.062   7.328   7.497  0.4268 -0.2850  0.8109
  274MOL0     C37717   0.087   7.242   7.372 -1.1171 -1.0655 -0.1600
  274MOL0     C37718   0.227   7.189   7.373  0.7161  0.2031 -0.2150
  274MOL0    Cl37719   0.348   7.304   7.348 -0.5761  0.3393 -0.0266
  274MOL0     C37720  -0.307   6.830   8.152  0.4415 -0.8007 -0.3127
  274MOL0     C37721  -0.378   6.723   8.202 -0.0909 -0.1434  0.0633
  274MOL0     O37722  -0.281   6.409   8.249 -0.0471 -0.3439  0.7632
  274MOL0     C37723  -0.435   6.175   8.202 -0.3273 -0.1570 -0.9172
  274MOL0     C37724  -0.468   6.048   8.262  1.0257 -0.0116  0.8767
  274MOL0     N37725  -0.399   5.904   8.929  0.0414  0.0699  0.9855
  274MOL0     N37726  -0.354   5.949   9.038  0.1467  0.0542 -0.2902
  274MOL0     C37727   0.301   6.817   9.372  0.0682  0.4728 -0.0885
  274MOL0     C37728   0.275   6.954   9.386 -0.2107 -0.0578  0.4927
  274MOL0     C37729   0.446   7.368   9.511  0.6837  0.8105  0.0409
  274MOL0     C37730   0.548   7.385   9.418 -0.8982  0.0121 -0.0871
  274MOL0     C37731   0.596   7.520   9.406  0.8354  0.7449  0.0229
  274MOL0     C37732   0.539   7.630   9.459  0.8618 -0.1685  0.0789
  274MOL0     O37733   0.576   7.761   9.447  0.2154  0.2671 -0.2807
  274MOL0     C37734   0.713   7.764   9.472 -0.5570  0.5666  0.1323
  274MOL0     C37735   0.742   7.898   9.534 -0.1113 -0.0986 -0.0015
  274MOL0     C37736   0.887   7.887   9.584  0.3904  0.4611  0.2156
  274MOL0     C37737   0.952   8.019   9.618  0.8759 -0.2935 -0.1229
  274MOL0     C37738   0.902   8.074   9.743  0.8348 -0.3534  0.3588
  274MOL0     C37739   0.863   8.099   9.862 -0.1771 -0.4242  0.2345
  274MOL0     C37740   0.440   7.601   9.555 -0.7652  0.0260  0.1666
  274MOL0     C37741   0.399   7.472   9.593 -0.1974 -0.0461  0.1749
  274MOL0     C37742   0.316   7.455   9.716  0.2155 -0.3000 -0.9375
  274MOL0     H37743   0.600   7.061   9.408  0.2102 -0.4520 -1.5474
  274MOL0     H37744   0.634   6.819   9.401  0.5767 -0.6050 -0.8627
  274MOL0     H37745   0.323   6.587   9.217  0.0799  3.1030  1.6764
  274MOL0     H37746   0.309   6.520   9.378 -0.0415 -0.5507 -0.8221
  274MOL0     H37747   0.527   6.444   9.192  0.2473  1.9846  1.0253
  274MOL0     H37748   0.484   6.351   9.340 -1.7467  1.0752  2.5280
  274MOL0     H37749   0.319   6.409   9.085 -1.2635 -2.7159 -0.7316
  274MOL0     H37750   0.413   6.260   9.117  0.0234 -0.6045  0.5117
  274MOL0     H37751   0.248   6.208   9.314 -1.4366  0.4892  0.9577
  274MOL0     H37752   0.161   6.348   9.273  0.1715 -1.2777  1.1715
  274MOL0     H37753   0.206   6.126   9.079  0.0932  0.1931  0.3819
  274MOL0     H37754   0.127   6.279   9.054  1.2078  0.7811 -0.7851
  274MOL0     H37755   0.050   6.081   9.268  0.9263  0.8597 -0.5991
  274MOL0     H37756  -0.051   6.219   9.232 -1.2255 -3.1574  2.9537
  274MOL0     H37757  -0.010   6.011   9.008 -3.5765 -1.9115 -1.4412
  274MOL0     H37758  -0.146   6.115   9.039 -1.3706  0.9649  2.1290
  274MOL0     H37759  -0.085   5.868   9.213  2.0482  1.6182  1.3522
  274MOL0     H37760  -0.207   5.981   9.248  0.2653 -3.1316  2.6636
  274MOL0     H37761  -0.126   5.732   8.975 -0.0199  0.8857 -2.4206
  274MOL0     H37762  -0.433   5.671   8.798 -0.9330  1.8444  0.4427
  274MOL0     H37763  -0.272   5.643   8.729  0.9722 -0.5615 -0.5972
  274MOL0     H37764  -0.450   5.883   8.658 -1.7217 -0.6657 -1.2984
  274MOL0     H37765  -0.293   5.846   8.597  2.0438  0.0502 -0.9781
  274MOL0     H37766  -0.376   5.638   8.495 -1.0377 -2.0778  0.9881
  274MOL0     H37767  -0.534   5.660   8.563 -2.3793  4.0776 -0.1323
  274MOL0     H37768  -0.382   5.837   8.366  1.4163 -1.6527  0.1788
  274MOL0     H37769  -0.521   5.726   8.322 -0.5534 -1.2470  1.8824
  274MOL0     H37770  -0.602   6.125   8.555 -1.3992  1.8263  1.0203
  274MOL0     H37771  -0.600   6.360   8.571  1.1214  0.1050 -1.0227
  274MOL0     H37772  -0.598   6.484   8.438  1.3961  1.0617 -0.7917
  274MOL0     H37773  -0.448   6.432   8.525 -1.1159  2.8811  1.8272
  274MOL0     H37774  -0.424   6.534   7.929  0.6364 -0.1792 -0.6286
  274MOL0     H37775  -0.311   6.748   7.832 -2.8554 -0.8980 -0.2921
  274MOL0     H37776  -0.064   7.020   7.979  1.4286  0.7419 -1.8383
  274MOL0     H37777  -0.064   6.844   7.928  1.3403 -0.6237 -1.7772
  274MOL0     H37778   0.015   6.994   7.745 -1.3861  3.0396  0.9811
  274MOL0     H37779  -0.136   6.899   7.705 -2.2264  1.4990 -0.9435
  274MOL0     H37780  -0.140   7.193   7.805 -0.1780 -2.3511  1.2752
  274MOL0     H37781  -0.271   7.084   7.733  0.5880 -3.1155 -2.0924
  274MOL0     H37782  -0.194   7.245   7.580 -2.6042 -2.0406  0.7990
  274MOL0     H37783  -0.121   7.108   7.520  3.7187  0.3905 -0.1657
  274MOL0     H37784   0.028   7.298   7.711  0.5835 -2.5863  1.4964
  274MOL0     H37785   0.100   7.163   7.644  2.0804  1.5921 -0.9720
  274MOL0     H37786   0.143   7.398   7.518 -0.4157  1.2013 -0.7000
  274MOL0     H37787  -0.024   7.389   7.470 -0.1371  0.5418  4.1575
  274MOL0     H37788   0.074   7.295   7.278  2.1332 -0.8704 -0.6158
  274MOL0     H37789   0.019   7.158   7.359 -0.4292 -1.1399 -5.0938
  274MOL0     H37790   0.232   7.106   7.302  1.3179 -1.2317  1.4452
  274MOL0     H37791   0.245   7.144   7.471 -0.7431  1.6707  0.7793
  274MOL0     H37792  -0.286   6.907   8.226 -0.6599 -0.1989 -0.5978
  274MOL0     H37793  -0.408   6.721   8.306  0.3728 -0.5057  0.1931
  274MOL0     H37794  -0.379   6.176   8.109 -1.9920  0.9718 -1.9675
  274MOL0     H37795  -0.442   5.967   8.195  1.4434 -0.0001  1.0197
  274MOL0     H37796   0.215   6.752   9.365  0.2974 -0.1254  2.1126
  274MOL0     H37797   0.179   7.005   9.382  1.2330  2.9048  0.6120
  274MOL0     H37798   0.584   7.317   9.341 -0.6607  2.2290 -2.0591
  274MOL0     H37799   0.670   7.538   9.328  1.6794 -0.7283  0.4508
  274MOL0     H37800   0.750   7.701   9.554  0.0753  2.5226  1.4535
  274MOL0     H37801   0.764   7.752   9.376 -1.6748 -3.1521 -0.1174
  274MOL0     H37802   0.669   7.909   9.615  2.0029 -2.0088  2.3421
  274MOL0     H37803   0.727   7.970   9.453 -4.5549  1.1645  1.6226
  274MOL0     H37804   0.901   7.820   9.669  0.4482 -0.1966 -0.3061
  274MOL0     H37805   0.938   7.837   9.502 -0.3348  1.3621 -0.8018
  274MOL0     H37806   0.935   8.092   9.539 -1.5713  0.1410  0.7103
  274MOL0     H37807   1.059   8.012   9.637  0.5756 -2.5642  1.0506
  274MOL0     H37808   0.817   8.111   9.958 -2.0315 -1.0390 -0.5442
  274MOL0     H37809   0.393   7.688   9.599  0.5183  1.1928 -0.6845
  274MOL0     H37810   0.376   7.455   9.807  2.5782  3.4738 -2.2342
  274MOL0     H37811   0.247   7.540   9.718 -0.5525 -0.9226 -0.6137
  274MOL0     H37812   0.255   7.366   9.696 -0.4407  0.3737 -2.0685
  275MOL0     O37813   5.918   9.021   1.941 -0.1513  0.2743 -0.1271
  275MOL0     C37814   5.909   9.010   2.064 -0.1694 -0.5599  0.2350
  275MOL0     O37815   5.897   8.896   2.131  0.3793  0.2530  0.1996
  275MOL0     C37816   5.938   8.777   2.072  0.1874  0.5568 -0.7060
  275MOL0     C37817   5.885   8.727   1.952  0.3235  0.5283 -0.1816
  275MOL0     C37818   5.928   8.603   1.902 -0.3402 -0.0984  0.5159
  275MOL0     C37819   6.014   8.514   1.982  0.2895 -0.3746  0.1048
  275MOL0     O37820   6.062   8.395   1.936  0.3830  0.0615  0.1772
  275MOL0     C37821   5.970   8.287   1.962 -0.1403 -0.3812  0.3528
  275MOL0     C37822   5.973   8.245   2.112  0.7410  0.2117  0.5541
  275MOL0     C37823   6.116   8.207   2.176 -0.2371  0.0684  0.8531
  275MOL0     C37824   6.106   8.203   2.322  0.2602  0.1514  0.0047
  275MOL0     C37825   6.239   8.169   2.395  0.8415  0.2305  0.0699
  275MOL0     C37826   6.265   8.177   2.544  0.4303  0.0187 -0.1967
  275MOL0     C37827   6.184   8.070   2.621  0.3572 -0.0741 -1.4363
  275MOL0     C37828   6.188   8.089   2.769 -0.3959  0.7501 -1.2598
  275MOL0     N37829   6.328   8.064   2.812  0.4503 -0.2737  0.6253
  275MOL0     C37830   6.424   8.161   2.814  0.2942 -0.9117  0.0996
  275MOL0     C37831   6.518   8.103   2.893  0.1539  0.1935 -0.1803
  275MOL0     C37832   6.643   8.168   2.943 -0.8110 -0.6682  0.6558
  275MOL0     C37833   6.753   8.159   2.840  0.7321  0.1868 -0.3274
  275MOL0     C37834   6.875   8.229   2.907 -0.1880 -0.2645 -0.0339
  275MOL0     C37835   6.988   8.235   2.810  0.0710  0.8379 -0.1894
  275MOL0     O37836   7.106   8.261   2.879 -0.1213  0.4618  0.0734
  275MOL0     C37837   7.191   8.156   2.913 -0.7108 -0.0230 -0.6389
  275MOL0     C37838   7.258   8.089   2.804 -0.3540 -0.4306 -0.5109
  275MOL0     C37839   7.335   7.972   2.839  0.5313 -0.6476  1.3591
  275MOL0     C37840   7.420   7.910   2.723  0.8479 -0.3526 -0.0979
  275MOL0     C37841   7.339   7.925   2.971  0.9100 -0.0568  0.9125
  275MOL0     C37842   7.392   7.794   3.011  1.0814  0.4640 -0.2567
  275MOL0     O37843   7.424   7.771   3.149  0.4583 -0.7012  0.1223
  275MOL0     C37844   7.472   7.635   3.164  0.9007  0.1743 -0.5596
  275MOL0     C37845   7.603   7.602   3.173 -0.2408 -0.4554  0.1228
  275MOL0     C37846   7.635   7.479   3.241 -0.5833 -0.0182 -0.2581
  275MOL0     C37847   7.540   7.386   3.279 -0.5886  0.9699 -1.5615
  275MOL0     O37848   7.582   7.273   3.347 -0.2263  0.1223 -0.4850
  275MOL0     C37849   7.496   7.195   3.433  0.7192  0.0789 -0.7498
  275MOL0     C37850   7.425   7.263   3.548  0.3915 -0.1520  0.5496
  275MOL0     C37851   7.522   7.304   3.661 -0.3842 -0.8282  0.3742
  275MOL0     C37852   7.457   7.387   3.769  0.8051 -0.3504  0.5850
  275MOL0     C37853   7.336   7.318   3.835  0.4027  0.0999  0.1625
  275MOL0     C37854   7.330   7.366   3.981  0.4020 -0.3268 -1.2341
  275MOL0     C37855   7.287   7.502   4.018 -0.0969 -0.0663 -0.2113
  275MOL0     C37856   7.389   7.622   4.031  0.4113  0.2236 -0.9379
  275MOL0    Cl37857   7.526   7.604   4.132 -0.4285  0.3004  0.0999
  275MOL0     C37858   7.410   7.421   3.264  0.3195  0.6435  0.0790
  275MOL0     C37859   7.375   7.542   3.210  0.2423 -0.1372  0.2564
  275MOL0     O37860   7.401   7.708   2.927  0.2418 -0.3636  0.4674
  275MOL0     C37861   7.285   8.007   3.075 -0.9775  0.9858 -0.1480
  275MOL0     C37862   7.202   8.118   3.051 -0.2300  0.2679 -1.1061
  275MOL0     N37863   6.478   7.979   2.942 -0.0456 -0.0465  0.3534
  275MOL0     N37864   6.362   7.963   2.892 -0.1227 -0.0159 -0.4685
  275MOL0     C37865   6.059   8.571   2.103 -0.4866 -0.1123  0.0151
  275MOL0     C37866   6.026   8.695   2.150 -0.2925 -0.4830 -0.0167
  275MOL0     C37867   5.931   9.138   2.130  0.2104 -0.1525 -0.7194
  275MOL0     C37868   5.988   9.246   2.056 -0.1596 -0.0580 -0.7221
  275MOL0     C37869   6.024   9.368   2.120 -0.1794  0.4980 -0.2256
  275MOL0     C37870   6.023   9.380   2.259  0.3018  0.0796  0.4555
  275MOL0     O37871   6.056   9.507   2.302 -0.8054 -0.8832 -0.2124
  275MOL0     C37872   6.034   9.537   2.439 -1.3448 -0.0913  0.0891
  275MOL0     C37873   6.073   9.685   2.464 -0.2142 -0.2516  0.2468
  275MOL0     C37874   5.952   9.771   2.450  0.3364  0.7778  0.6840
  275MOL0     C37875   5.934   9.792   2.294  0.0216 -0.0757 -0.0473
  275MOL0     C37876   5.818   9.875   2.261  0.8837  0.7986 -0.5655
  275MOL0     C37877   5.716   9.939   2.252 -0.3056  0.1340  0.9134
  275MOL0     C37878   5.971   9.276   2.331 -0.3883 -0.4674 -0.8532
  275MOL0     C37879   5.910   9.163   2.268  0.2356  0.2918 -0.4341
  275MOL0     C37880   5.843   9.070   2.359 -0.5659  0.3494 -0.2994
  275MOL0     H37881   5.812   8.788   1.901 -0.0450 -0.0936 -0.4163
  275MOL0     H37882   5.881   8.574   1.808  4.4106  2.1290 -2.9713
  275MOL0     H37883   6.014   8.204   1.906  1.8833 -1.1584  2.8774
  275MOL0     H37884   5.872   8.310   1.921 -0.0418  3.6743  1.8477
  275MOL0     H37885   5.942   8.337   2.162  0.3624  2.4853 -3.4218
  275MOL0     H37886   5.894   8.171   2.131 -0.3092 -0.4318 -4.6624
  275MOL0     H37887   6.149   8.107   2.147 -0.3202  1.5130 -5.7901
  275MOL0     H37888   6.191   8.272   2.132  0.3643 -2.7224 -2.7300
  275MOL0     H37889   6.078   8.299   2.366  1.5895 -0.6491  2.8361
  275MOL0     H37890   6.037   8.123   2.352  0.2111  0.0316 -0.4132
  275MOL0     H37891   6.313   8.244   2.365  1.4627 -0.3780  0.0665
  275MOL0     H37892   6.264   8.067   2.366 -1.2263 -0.9641  2.1323
  275MOL0     H37893   6.373   8.174   2.555  0.3509  1.9657  1.7676
  275MOL0     H37894   6.239   8.274   2.588 -2.6047 -0.5306 -0.5296
  275MOL0     H37895   6.216   7.970   2.589  1.9419  1.1565 -4.0382
  275MOL0     H37896   6.082   8.085   2.586 -0.0491  2.5448  0.6231
  275MOL0     H37897   6.172   8.194   2.795  1.5618  0.6636  0.5796
  275MOL0     H37898   6.119   8.019   2.818  2.6019 -3.4478 -2.4187
  275MOL0     H37899   6.448   8.256   2.766 -0.4927 -0.3011  0.8888
  275MOL0     H37900   6.680   8.121   3.035  1.5584  0.6240  0.4393
  275MOL0     H37901   6.612   8.272   2.955 -2.6069 -1.4824  4.6816
  275MOL0     H37902   6.772   8.055   2.812  0.0887  0.6108 -2.5292
  275MOL0     H37903   6.725   8.208   2.746 -1.6585  2.1851  1.2937
  275MOL0     H37904   6.851   8.326   2.950  3.9763  1.5056 -1.2323
  275MOL0     H37905   6.916   8.165   2.987 -2.6819 -0.2621  1.3686
  275MOL0     H37906   6.992   8.140   2.757  1.5078 -0.0485  1.4027
  275MOL0     H37907   6.961   8.312   2.737 -4.4320 -0.4858 -0.2195
  275MOL0     H37908   7.248   8.121   2.701  3.1005  0.9510 -0.5393
  275MOL0     H37909   7.491   7.832   2.753 -0.1386 -0.4831  2.0692
  275MOL0     H37910   7.464   7.988   2.660  0.7637 -0.6472 -0.5240
  275MOL0     H37911   7.341   7.867   2.662 -1.1424  5.0450 -1.9252
  275MOL0     H37912   7.672   7.662   3.115  0.1690 -0.6200  0.4300
  275MOL0     H37913   7.740   7.460   3.259 -0.3597 -0.0634 -1.5510
  275MOL0     H37914   7.420   7.154   3.365  1.2050 -0.6257 -0.8754
  275MOL0     H37915   7.555   7.116   3.479 -2.3388 -1.0261  1.5860
  275MOL0     H37916   7.363   7.350   3.527  0.5567 -0.4485 -1.3271
  275MOL0     H37917   7.355   7.189   3.589  0.5693 -2.1538 -2.4333
  275MOL0     H37918   7.603   7.360   3.613 -1.0385 -0.2213 -0.0234
  275MOL0     H37919   7.566   7.213   3.703  2.5069 -0.5454 -1.7309
  275MOL0     H37920   7.408   7.474   3.723 -0.4172 -1.2170  0.1896
  275MOL0     H37921   7.523   7.410   3.853  1.5020 -3.2326  0.9081
  275MOL0     H37922   7.247   7.335   3.774  1.2620 -1.5012 -1.6511
  275MOL0     H37923   7.361   7.212   3.832  0.4345  0.1006  0.3987
  275MOL0     H37924   7.431   7.359   4.025  0.4547  2.9937 -0.5749
  275MOL0     H37925   7.275   7.293   4.041  2.9913 -0.3595  1.3472
  275MOL0     H37926   7.235   7.491   4.113  2.0231  1.8913  1.2994
  275MOL0     H37927   7.221   7.524   3.933  1.9398 -1.7308 -2.3557
  275MOL0     H37928   7.331   7.708   4.065  0.5152 -1.0967  3.0995
  275MOL0     H37929   7.440   7.641   3.936  3.9548 -2.1348  0.2764
  275MOL0     H37930   7.322   7.366   3.296 -1.3909  2.4947 -1.2589
  275MOL0     H37931   7.269   7.554   3.188 -0.6386 -1.2956  3.3523
  275MOL0     H37932   7.297   7.974   3.178  2.2635 -0.3048 -0.8281
  275MOL0     H37933   7.157   8.180   3.128 -0.1286  1.3094 -1.8580
  275MOL0     H37934   6.117   8.506   2.167 -0.4421 -3.4908 -3.1192
  275MOL0     H37935   6.069   8.724   2.245 -1.1368 -0.7471  0.4575
  275MOL0     H37936   6.015   9.241   1.951  0.3483 -0.2498 -0.5894
  275MOL0     H37937   6.052   9.467   2.084 -0.8593  0.3126 -1.2973
  275MOL0     H37938   5.933   9.514   2.474 -1.3016  2.1883  1.9724
  275MOL0     H37939   6.103   9.480   2.501 -0.8424 -1.0715 -1.3163
  275MOL0     H37940   6.154   9.710   2.395 -0.4464 -1.2824 -0.4274
  275MOL0     H37941   6.113   9.705   2.563 -3.3059 -1.5530  1.8943
  275MOL0     H37942   5.872   9.722   2.506  0.5663 -0.7966 -0.2832
  275MOL0     H37943   5.967   9.871   2.490 -0.4226  0.3525  2.1008
  275MOL0     H37944   5.914   9.697   2.244 -1.9141  1.2119 -1.9419
  275MOL0     H37945   6.027   9.836   2.256  0.4011  0.3566  1.3117
  275MOL0     H37946   5.633  10.006   2.264 -1.2788 -1.1029  1.2210
  275MOL0     H37947   5.983   9.285   2.438 -0.0122 -4.0387 -0.4805
  275MOL0     H37948   5.746   9.034   2.323 -1.8474  0.6854  2.4869
  275MOL0     H37949   5.905   8.984   2.385 -1.0314  0.8181  2.7812
  275MOL0     H37950   5.837   9.135   2.447  1.0691  1.0173 -0.6541
  276MOL0     O37951   7.786   4.771   7.543 -0.4360 -0.0967  0.1440
  276MOL0     C37952   7.773   4.803   7.660  0.3291 -0.1584  0.7400
  276MOL0     O37953   7.840   4.911   7.714 -0.5489 -0.0257 -0.1847
  276MOL0     C37954   7.879   5.014   7.640 -0.0503 -0.1944 -0.0466
  276MOL0     C37955   7.802   5.075   7.536  0.9997 -1.3885 -0.6016
  276MOL0     C37956   7.861   5.175   7.450  0.5206  0.8818 -0.1137
  276MOL0     C37957   7.988   5.217   7.467 -0.2748 -0.0553 -0.0006
  276MOL0     O37958   8.041   5.323   7.392  0.3974 -0.2495 -0.2079
  276MOL0     C37959   8.184   5.319   7.359 -0.7744 -0.1587  0.4631
  276MOL0     C37960   8.202   5.386   7.215 -0.3391 -0.7840 -0.3227
  276MOL0     C37961   8.340   5.399   7.160 -0.9223 -1.0143 -0.2803
  276MOL0     C37962   8.352   5.484   7.029  0.3039  0.4495 -0.2643
  276MOL0     C37963   8.494   5.496   6.979 -0.0786  0.4975  0.3372
  276MOL0     C37964   8.503   5.585   6.859 -0.5376  0.4400  0.3744
  276MOL0     C37965   8.409   5.566   6.748 -0.9375 -0.5470 -0.5107
  276MOL0     C37966   8.432   5.444   6.659 -0.1570  0.4640 -0.3881
  276MOL0     N37967   8.403   5.324   6.740  0.6031  0.1204  1.0089
  276MOL0     C37968   8.283   5.248   6.719  0.7346 -1.1189 -0.7659
  276MOL0     C37969   8.301   5.126   6.771  1.0763 -0.2252 -0.5038
  276MOL0     C37970   8.195   5.015   6.782 -0.1804 -0.4463  0.0241
  276MOL0     C37971   8.174   4.953   6.919  0.9516  0.9792 -0.5788
  276MOL0     C37972   8.154   5.048   7.038  0.3524 -0.2344  0.4419
  276MOL0     C37973   8.120   4.969   7.167  0.5626 -0.3245  0.3387
  276MOL0     O37974   8.240   4.903   7.209 -0.9417 -0.0979  0.1685
  276MOL0     C37975   8.231   4.791   7.289  0.7047  0.3167 -0.5206
  276MOL0     C37976   8.326   4.696   7.299 -0.5776  0.0862  0.1645
  276MOL0     C37977   8.329   4.589   7.393  0.7512 -0.1324 -1.0272
  276MOL0     C37978   8.430   4.487   7.384  1.0742  1.0192 -0.0355
  276MOL0     C37979   8.220   4.573   7.480 -0.2016 -0.0841 -0.5373
  276MOL0     C37980   8.201   4.465   7.589 -0.2795  0.4014  0.5779
  276MOL0     O37981   8.068   4.453   7.633  0.1224  0.0237 -0.7991
  276MOL0     C37982   8.024   4.325   7.662 -0.2040 -0.4687  0.1706
  276MOL0     C37983   7.912   4.310   7.745 -0.2437 -0.2892  0.3683
  276MOL0     C37984   7.866   4.180   7.777 -0.3589 -0.3104 -0.2105
  276MOL0     C37985   7.912   4.070   7.718  0.2238 -0.0666 -0.9098
  276MOL0     O37986   7.859   3.958   7.764 -0.0285  0.0885 -0.8158
  276MOL0     C37987   7.927   3.835   7.740  0.9039 -0.5124  0.2959
  276MOL0     C37988   7.833   3.719   7.768 -0.8796 -0.1136  0.2895
  276MOL0     C37989   7.773   3.718   7.909 -0.4115 -0.5873 -0.0970
  276MOL0     C37990   7.872   3.695   8.025 -0.0766  0.0894  0.4436
  276MOL0     C37991   7.827   3.785   8.145 -0.7995  0.3250 -0.3929
  276MOL0     C37992   7.938   3.765   8.257 -0.6867 -0.4236  0.2620
  276MOL0     C37993   7.900   3.869   8.379 -1.0468  0.1570 -0.3043
  276MOL0     C37994   8.031   3.920   8.442 -0.3197  0.2301 -0.1014
  276MOL0    Cl37995   7.992   3.975   8.611 -0.1121  0.5684 -0.1324
  276MOL0     C37996   8.025   4.084   7.632 -0.1478 -0.3758  0.0967
  276MOL0     C37997   8.076   4.201   7.596  0.7783 -0.6421  0.8073
  276MOL0     O37998   8.296   4.404   7.635  0.5322 -0.1274  0.5990
  276MOL0     C37999   8.119   4.664   7.473 -0.7461  0.3504  0.2271
  276MOL0     C38000   8.116   4.771   7.384  0.6089 -0.0600  0.2803
  276MOL0     N38001   8.429   5.115   6.803 -0.0988 -0.6983 -1.4704
  276MOL0     N38002   8.489   5.222   6.776 -0.2979  0.3517 -0.4075
  276MOL0     C38003   8.064   5.162   7.569 -0.0904  0.1905  1.1930
  276MOL0     C38004   8.012   5.065   7.650 -0.6130  0.2779 -0.8902
  276MOL0     C38005   7.722   4.701   7.752 -0.3032  1.2927 -0.3610
  276MOL0     C38006   7.776   4.702   7.878 -0.3290  0.5280 -0.2020
  276MOL0     C38007   7.727   4.606   7.973  0.0068  0.0243 -0.7117
  276MOL0     C38008   7.618   4.528   7.938  0.5823  0.4534 -0.2465
  276MOL0     O38009   7.552   4.431   8.005  0.4582  0.0475 -0.2702
  276MOL0     C38010   7.612   4.374   8.127  0.9058  0.4488  0.7353
  276MOL0     C38011   7.530   4.265   8.203  0.0058 -0.8521  0.3000
  276MOL0     C38012   7.397   4.321   8.230 -1.0289 -0.3277  0.0285
  276MOL0     C38013   7.304   4.213   8.292 -0.1253 -1.2844 -0.2392
  276MOL0     C38014   7.202   4.294   8.356  0.6732  0.4140  0.7705
  276MOL0     C38015   7.100   4.336   8.415  0.0003  0.5886  0.1135
  276MOL0     C38016   7.563   4.544   7.817 -0.3142 -0.3366  0.0964
  276MOL0     C38017   7.608   4.631   7.723  0.4743 -1.0532  0.1713
  276MOL0     C38018   7.527   4.643   7.594 -0.2393  0.4752  0.8440
  276MOL0     H38019   7.698   5.044   7.531  0.2625  0.3114  1.9561
  276MOL0     H38020   7.811   5.222   7.366  1.5419  0.5681 -0.9232
  276MOL0     H38021   8.216   5.214   7.357  1.3433  0.4391  0.6292
  276MOL0     H38022   8.258   5.368   7.422 -2.3559  1.1302  1.3853
  276MOL0     H38023   8.139   5.347   7.135 -0.0948 -3.2503  0.6094
  276MOL0     H38024   8.174   5.490   7.235  0.5572 -0.9910  2.5369
  276MOL0     H38025   8.391   5.458   7.237 -1.9795  0.6234 -0.7648
  276MOL0     H38026   8.398   5.307   7.153  0.8949 -0.5671  4.5772
  276MOL0     H38027   8.280   5.447   6.956 -0.7789 -2.0256  1.8972
  276MOL0     H38028   8.315   5.585   7.049  0.5313  0.2676  1.2098
  276MOL0     H38029   8.538   5.397   6.965 -0.6534  0.2771  0.0575
  276MOL0     H38030   8.551   5.536   7.064 -0.3150  0.9856  0.2711
  276MOL0     H38031   8.486   5.684   6.902  0.0390 -0.5088  2.9713
  276MOL0     H38032   8.607   5.575   6.826 -0.0409  0.7395  1.7825
  276MOL0     H38033   8.421   5.652   6.681  0.5144 -1.9613 -2.1508
  276MOL0     H38034   8.305   5.548   6.779 -1.3923 -0.5996 -1.9772
  276MOL0     H38035   8.369   5.433   6.570  1.4572 -1.5845 -1.3591
  276MOL0     H38036   8.539   5.445   6.636  0.2751 -1.1082  1.2820
  276MOL0     H38037   8.186   5.280   6.682  0.4932  2.0934  2.1321
  276MOL0     H38038   8.218   4.941   6.706  0.0418 -0.4163  0.0623
  276MOL0     H38039   8.105   5.071   6.758  2.0987  3.0075 -1.2006
  276MOL0     H38040   8.084   4.890   6.925  1.6565 -0.0129  0.0923
  276MOL0     H38041   8.247   4.879   6.953  0.5509  2.7166  5.0983
  276MOL0     H38042   8.244   5.110   7.031  0.5247 -0.6593 -1.4811
  276MOL0     H38043   8.075   5.122   7.023 -2.0961 -1.9085  3.6859
  276MOL0     H38044   8.086   5.041   7.242 -0.3188  4.2505 -3.9589
  276MOL0     H38045   8.044   4.890   7.161  0.5999 -0.4590  1.4149
  276MOL0     H38046   8.399   4.690   7.219 -1.7235 -2.2397 -0.8222
  276MOL0     H38047   8.388   4.394   7.345  2.7511 -0.5257  1.6196
  276MOL0     H38048   8.470   4.458   7.482 -1.4681 -0.8695  0.5501
  276MOL0     H38049   8.515   4.507   7.317 -0.6004  4.3821 -1.3605
  276MOL0     H38050   7.867   4.398   7.789  0.5904 -0.5003  1.7101
  276MOL0     H38051   7.787   4.167   7.850 -1.1162  1.1901 -0.7234
  276MOL0     H38052   7.951   3.822   7.634  0.0871  2.7144 -0.4013
  276MOL0     H38053   8.016   3.832   7.803  2.1553  4.0168 -0.8938
  276MOL0     H38054   7.758   3.717   7.688  0.5064 -1.0372 -1.0485
  276MOL0     H38055   7.879   3.625   7.735  0.4541  0.8965 -0.8542
  276MOL0     H38056   7.712   3.627   7.905  2.9236 -3.1630  1.8265
  276MOL0     H38057   7.719   3.812   7.923  0.4435 -0.4484  3.0170
  276MOL0     H38058   7.975   3.711   7.994  0.3628  1.0792  2.2899
  276MOL0     H38059   7.872   3.593   8.066  0.0987  0.8489  2.4456
  276MOL0     H38060   7.830   3.890   8.113 -0.7224  0.8911  1.3885
  276MOL0     H38061   7.735   3.756   8.195  0.1593  1.5199  2.2255
  276MOL0     H38062   8.034   3.792   8.210 -0.8019  0.6466  0.6023
  276MOL0     H38063   7.948   3.659   8.282  0.9861 -0.4507 -0.3613
  276MOL0     H38064   7.843   3.828   8.462  1.1526  0.8035  1.6338
  276MOL0     H38065   7.849   3.956   8.337 -0.1188  1.4356  1.1357
  276MOL0     H38066   8.090   3.989   8.382 -1.1754 -0.9675 -2.4515
  276MOL0     H38067   8.095   3.831   8.450 -1.8182 -1.1916 -2.5131
  276MOL0     H38068   8.067   3.995   7.586 -0.4356 -0.7131  0.4737
  276MOL0     H38069   8.160   4.187   7.529  1.0287 -0.8695  1.1621
  276MOL0     H38070   8.028   4.656   7.532 -1.3378 -1.4672 -0.8387
  276MOL0     H38071   8.043   4.852   7.384  1.1676  0.4521  0.1039
  276MOL0     H38072   8.167   5.185   7.594 -0.7230  1.3479  3.0120
  276MOL0     H38073   8.080   5.016   7.720  0.3116 -2.7074 -3.6029
  276MOL0     H38074   7.856   4.770   7.907 -0.0958 -0.4772  1.6598
  276MOL0     H38075   7.767   4.616   8.073  1.5324  2.4626 -1.4917
  276MOL0     H38076   7.714   4.337   8.108  1.5871  3.4311 -2.4459
  276MOL0     H38077   7.615   4.462   8.192  0.6882  0.0478  1.2963
  276MOL0     H38078   7.592   4.239   8.289  0.7520  0.2055  0.0865
  276MOL0     H38079   7.528   4.170   8.147  0.7039 -1.5439  1.4147
  276MOL0     H38080   7.414   4.405   8.298  3.2740 -0.6225 -0.4170
  276MOL0     H38081   7.353   4.357   8.136  1.2341  3.9079  0.3573
  276MOL0     H38082   7.357   4.157   8.370 -0.3324 -0.8714  0.2060
  276MOL0     H38083   7.253   4.147   8.221 -1.2752 -0.2339 -0.4326
  276MOL0     H38084   7.002   4.368   8.446  0.0509  2.3254 -1.3366
  276MOL0     H38085   7.481   4.478   7.793 -0.5718 -0.0925  0.3070
  276MOL0     H38086   7.539   4.730   7.530  0.9146 -1.0840 -1.1739
  276MOL0     H38087   7.555   4.561   7.527 -1.5639  1.2005 -0.6563
  276MOL0     H38088   7.419   4.637   7.608 -0.7686  1.9203 -1.9464
  277MOL0     O38089   3.819   6.448   4.187 -0.5526  0.6507  0.1022
  277MOL0     C38090   3.924   6.507   4.196 -0.0962  0.1115 -0.0050
  277MOL0     O38091   3.993   6.516   4.311  0.5002  0.6970  0.3532
  277MOL0     C38092   3.943   6.472   4.435 -0.5165  0.7306 -0.7029
  277MOL0     C38093   4.041   6.455   4.536 -0.9743 -0.9103  0.4320
  277MOL0     C38094   4.012   6.440   4.670 -0.3164  0.6074  0.6627
  277MOL0     C38095   3.877   6.449   4.707 -0.4933  0.3829 -0.3244
  277MOL0     O38096   3.858   6.416   4.844 -0.1197  0.5230  0.7355
  277MOL0     C38097   3.722   6.383   4.877 -0.5303  0.1763 -0.3288
  277MOL0     C38098   3.730   6.317   5.017 -0.6801  0.1268  0.7317
  277MOL0     C38099   3.598   6.250   5.059 -0.5049 -0.6761  0.4363
  277MOL0     C38100   3.580   6.230   5.211  0.7325  0.0329 -0.0029
  277MOL0     C38101   3.699   6.167   5.283 -0.5198 -0.0602  1.1854
  277MOL0     C38102   3.707   6.019   5.238 -0.3495  0.0296 -0.2000
  277MOL0     C38103   3.811   5.942   5.310 -0.3324 -0.7482  0.2545
  277MOL0     C38104   3.947   5.969   5.242 -0.4046 -0.1411 -0.0558
  277MOL0     N38105   4.045   5.857   5.250  0.1626  0.1167 -0.1979
  277MOL0     C38106   4.041   5.745   5.177 -0.8416 -0.2173 -0.7464
  277MOL0     C38107   4.110   5.655   5.247  0.4913 -0.1093  0.2227
  277MOL0     C38108   4.134   5.512   5.213 -0.2048  0.0088 -0.5701
  277MOL0     C38109   4.059   5.394   5.276  0.7454  0.1603  0.4815
  277MOL0     C38110   3.916   5.392   5.251  0.4690  0.7191  0.2667
  277MOL0     C38111   3.833   5.280   5.325  0.3320 -0.3705  0.5392
  277MOL0     O38112   3.875   5.170   5.247  0.7472 -0.5524  0.2179
  277MOL0     C38113   3.852   5.046   5.306 -0.4204 -0.2852  0.3671
  277MOL0     C38114   3.935   4.938   5.271 -0.5972  1.2390  0.6888
  277MOL0     C38115   3.943   4.821   5.331  0.0182  0.5342  0.2005
  277MOL0     C38116   4.062   4.731   5.294 -0.5433 -0.3335 -0.5649
  277MOL0     C38117   3.855   4.800   5.442 -0.1437 -0.4335  1.0042
  277MOL0     C38118   3.850   4.668   5.495 -0.1280 -0.2231 -0.0542
  277MOL0     O38119   3.865   4.657   5.627 -0.3646  0.0146  0.0494
  277MOL0     C38120   3.847   4.536   5.684 -0.3897  0.9375 -0.2758
  277MOL0     C38121   3.766   4.526   5.794 -0.6139  0.1564  0.5832
  277MOL0     C38122   3.750   4.401   5.860 -0.8623  0.8771  0.1003
  277MOL0     C38123   3.815   4.284   5.812  0.0726 -1.2163 -1.0637
  277MOL0     O38124   3.821   4.164   5.870 -0.1644  0.0523  0.3946
  277MOL0     C38125   3.769   4.151   5.999 -0.6565  0.3301 -0.5739
  277MOL0     C38126   3.626   4.102   6.001 -0.6248  0.2760  0.3652
  277MOL0     C38127   3.603   4.037   6.130 -0.0687  0.1335  0.2360
  277MOL0     C38128   3.642   4.118   6.264  0.6513 -0.8454  0.6528
  277MOL0     C38129   3.570   4.053   6.384  0.4349  0.3321 -0.2317
  277MOL0     C38130   3.575   4.124   6.524 -0.5752 -0.3897  0.3300
  277MOL0     C38131   3.552   4.005   6.631  0.0088  0.9784 -0.6014
  277MOL0     C38132   3.400   3.985   6.661  0.2706 -1.1452 -0.2662
  277MOL0    Cl38133   3.347   4.124   6.760 -0.0213 -0.1239  0.2309
  277MOL0     C38134   3.905   4.302   5.710 -0.1351  0.0550 -0.6208
  277MOL0     C38135   3.918   4.424   5.642 -0.8346 -0.0831  0.7329
  277MOL0     O38136   3.804   4.579   5.423  0.1637  0.3764  0.6010
  277MOL0     C38137   3.749   4.897   5.466  0.5103 -0.1444 -0.8625
  277MOL0     C38138   3.752   5.021   5.409 -0.0891  0.3977 -0.1377
  277MOL0     N38139   4.153   5.717   5.361 -0.4404  1.5944  0.8331
  277MOL0     N38140   4.115   5.841   5.364 -0.2221  0.0354  0.2185
  277MOL0     C38141   3.772   6.483   4.617 -0.0430 -0.1215 -0.8597
  277MOL0     C38142   3.810   6.497   4.483  0.8641  0.3557  0.0647
  277MOL0     C38143   3.981   6.580   4.077  0.6557 -0.4363  0.0767
  277MOL0     C38144   3.921   6.554   3.954  0.2446  0.5649 -0.1427
  277MOL0     C38145   3.950   6.622   3.836  1.5421  0.0537 -0.2315
  277MOL0     C38146   4.057   6.718   3.843  0.6686  0.7623 -1.0708
  277MOL0     O38147   4.096   6.769   3.726 -0.0206  0.0626 -0.0920
  277MOL0     C38148   4.199   6.698   3.653  0.0098 -0.3656 -1.1945
  277MOL0     C38149   4.223   6.793   3.531  0.0322 -1.5305 -0.2919
  277MOL0     C38150   4.360   6.759   3.460  0.4257  0.2532 -0.2983
  277MOL0     C38151   4.325   6.665   3.349 -1.2507 -0.7866 -0.0351
  277MOL0     C38152   4.445   6.578   3.314  0.5486 -0.2038  0.6123
  277MOL0     C38153   4.545   6.512   3.289  0.3461  0.3655  0.6113
  277MOL0     C38154   4.128   6.733   3.966 -0.4538 -0.3994 -0.4906
  277MOL0     C38155   4.098   6.668   4.082 -0.7496 -0.1089  0.6364
  277MOL0     C38156   4.197   6.686   4.199  0.3370  1.3136  0.0907
  277MOL0     H38157   4.145   6.466   4.505 -1.5054  3.7288 -0.3720
  277MOL0     H38158   4.102   6.421   4.727  0.2374 -3.7770 -1.2231
  277MOL0     H38159   3.692   6.307   4.804  1.9481 -1.7617  0.5165
  277MOL0     H38160   3.654   6.469   4.873  0.5054  1.1355  1.3253
  277MOL0     H38161   3.810   6.242   5.012 -0.6464  0.2108 -0.2823
  277MOL0     H38162   3.749   6.392   5.094  0.8129 -1.6252  2.1660
  277MOL0     H38163   3.518   6.312   5.019  1.6487  0.8996 -1.6520
  277MOL0     H38164   3.587   6.146   5.028  1.2995 -1.1077  1.1201
  277MOL0     H38165   3.565   6.329   5.254 -0.4969 -0.9130  1.9289
  277MOL0     H38166   3.496   6.171   5.250  0.9562  0.7319  1.6177
  277MOL0     H38167   3.689   6.178   5.391 -3.1566  0.9635  0.9137
  277MOL0     H38168   3.793   6.217   5.259 -0.8362 -0.2359 -0.6095
  277MOL0     H38169   3.615   5.969   5.270 -0.9454 -0.1037 -1.9830
  277MOL0     H38170   3.725   6.020   5.130  1.8095  4.4888 -0.0002
  277MOL0     H38171   3.789   5.836   5.299  0.5825 -0.9085 -0.0867
  277MOL0     H38172   3.819   5.970   5.415  1.8042  1.6667 -0.4455
  277MOL0     H38173   3.936   5.985   5.134 -1.8388  0.7315  0.2058
  277MOL0     H38174   4.003   6.055   5.280  1.4255  0.5374 -3.8370
  277MOL0     H38175   3.990   5.726   5.083 -0.7716 -1.1050 -0.6083
  277MOL0     H38176   4.239   5.493   5.236  0.6621  2.4261 -2.1581
  277MOL0     H38177   4.122   5.518   5.105  2.0540 -0.2981 -0.8884
  277MOL0     H38178   4.093   5.301   5.231 -0.9102  1.8473 -5.1042
  277MOL0     H38179   4.085   5.407   5.381  2.5455 -0.5334  0.1469
  277MOL0     H38180   3.868   5.483   5.290 -1.7247 -1.0190  1.9132
  277MOL0     H38181   3.901   5.378   5.144 -1.4468 -2.0305  0.7826
  277MOL0     H38182   3.866   5.282   5.429  0.3133  1.4084  0.5465
  277MOL0     H38183   3.729   5.311   5.311  0.7627  0.4462 -1.0855
  277MOL0     H38184   3.998   4.956   5.185 -0.7766 -0.7158  0.1127
  277MOL0     H38185   4.044   4.624   5.282 -0.3298 -0.8033  2.4245
  277MOL0     H38186   4.133   4.746   5.376 -0.3124 -0.2981 -0.7707
  277MOL0     H38187   4.100   4.762   5.196 -3.3266  1.9295 -1.0337
  277MOL0     H38188   3.719   4.610   5.843 -1.3342 -0.4316  0.9114
  277MOL0     H38189   3.693   4.392   5.952  0.5669 -3.3041  0.7993
  277MOL0     H38190   3.824   4.075   6.055 -5.6947 -2.0897  1.6649
  277MOL0     H38191   3.779   4.244   6.057 -2.8325 -0.7701  1.7345
  277MOL0     H38192   3.570   4.196   6.008  2.1134  2.2015 -1.2285
  277MOL0     H38193   3.602   4.062   5.902  0.0192  4.9336 -1.9515
  277MOL0     H38194   3.650   3.941   6.153 -2.6275 -0.7231  2.3831
  277MOL0     H38195   3.498   4.008   6.118 -1.0796  3.3645  0.3233
  277MOL0     H38196   3.597   4.217   6.250  0.7973 -1.1367 -2.3743
  277MOL0     H38197   3.747   4.144   6.279  0.5826  1.7952 -2.5099
  277MOL0     H38198   3.466   4.047   6.350  0.5651  1.2606 -0.8653
  277MOL0     H38199   3.609   3.952   6.389  1.6609  0.8638  1.4796
  277MOL0     H38200   3.495   4.196   6.545 -1.2952 -1.8133  2.9343
  277MOL0     H38201   3.680   4.156   6.534  1.0300 -4.7748 -0.3408
  277MOL0     H38202   3.586   4.036   6.730 -0.6919  0.5794 -0.2315
  277MOL0     H38203   3.598   3.913   6.595  0.7409 -0.6420  3.9149
  277MOL0     H38204   3.373   3.887   6.701 -1.0169  0.1597  2.2751
  277MOL0     H38205   3.347   3.997   6.566 -2.0899  0.9800  1.2147
  277MOL0     H38206   3.960   4.217   5.670 -3.4189 -1.4445 -2.3891
  277MOL0     H38207   3.990   4.423   5.560  1.7839 -0.0915  2.8724
  277MOL0     H38208   3.686   4.869   5.550  0.3765  2.9601  0.1822
  277MOL0     H38209   3.693   5.109   5.433  1.6843  2.3803 -2.4315
  277MOL0     H38210   3.670   6.495   4.651  1.3105 -0.8346  4.3449
  277MOL0     H38211   3.729   6.526   4.417  1.0343  2.0995  0.5761
  277MOL0     H38212   3.835   6.488   3.962 -0.3707  1.6094  2.6801
  277MOL0     H38213   3.896   6.602   3.744  1.3203  1.3214 -0.3819
  277MOL0     H38214   4.295   6.698   3.704 -0.2554 -0.4093 -0.6931
  277MOL0     H38215   4.174   6.597   3.621  2.0035 -1.2561 -0.0970
  277MOL0     H38216   4.231   6.893   3.575  0.5494 -2.0024  0.7234
  277MOL0     H38217   4.140   6.792   3.460 -0.7999  2.6400  0.3709
  277MOL0     H38218   4.393   6.847   3.403  1.9269  0.6474  1.0756
  277MOL0     H38219   4.429   6.719   3.535 -1.4025 -0.0885  1.2840
  277MOL0     H38220   4.298   6.722   3.260  1.1322  0.0082 -0.3042
  277MOL0     H38221   4.234   6.608   3.370 -3.8878  2.3972 -1.8875
  277MOL0     H38222   4.625   6.446   3.262 -2.5345 -2.1511 -2.6553
  277MOL0     H38223   4.207   6.807   3.961 -1.3941  0.5460 -2.5559
  277MOL0     H38224   4.182   6.777   4.258 -1.9393  1.7326 -1.0139
  277MOL0     H38225   4.199   6.589   4.250  0.1424  1.8465  1.1453
  277MOL0     H38226   4.297   6.702   4.158  1.1985  0.3153  1.7183
  278MOL0     O38227   1.662   6.176   2.954 -1.3954 -0.1188 -0.2714
  278MOL0     C38228   1.624   6.265   3.035  0.7308  0.5554  0.1690
  278MOL0     O38229   1.563   6.239   3.162 -0.1582 -0.0540 -0.9787
  278MOL0     C38230   1.560   6.104   3.186  0.4425 -0.7807 -0.1454
  278MOL0     C38231   1.454   6.036   3.133 -0.2949  0.8841  1.3059
  278MOL0     C38232   1.450   5.894   3.142  0.4917 -0.8293  0.1048
  278MOL0     C38233   1.547   5.834   3.219 -0.2317  0.8481 -0.4277
  278MOL0     O38234   1.548   5.705   3.255 -0.5653 -0.4451 -0.3815
  278MOL0     C38235   1.624   5.621   3.164 -0.5905  0.2356  0.7496
  278MOL0     C38236   1.535   5.486   3.154 -0.4884  0.5109  1.7684
  278MOL0     C38237   1.515   5.405   3.279 -0.1695 -0.3794  0.1564
  278MOL0     C38238   1.425   5.296   3.242 -0.6882  0.3214  1.2060
  278MOL0     C38239   1.438   5.172   3.340  0.9248  0.6690 -0.2195
  278MOL0     C38240   1.324   5.075   3.287 -0.0657  0.1216  0.2051
  278MOL0     C38241   1.242   5.019   3.407 -0.2287  0.1784  0.3295
  278MOL0     C38242   1.319   4.923   3.492  0.5856  0.3198  0.6767
  278MOL0     N38243   1.238   4.889   3.619  0.2571 -0.9206 -0.2025
  278MOL0     C38244   1.102   4.872   3.631  0.6051 -0.2507 -0.8758
  278MOL0     C38245   1.070   4.856   3.760 -0.7819  0.5363  0.0255
  278MOL0     C38246   0.933   4.815   3.821 -0.7968  0.7366  0.2197
  278MOL0     C38247   0.935   4.839   3.975  0.1349 -0.0098 -0.5437
  278MOL0     C38248   0.796   4.816   4.041 -0.8475 -0.4321  0.2804
  278MOL0     C38249   0.732   4.696   3.979  0.3533  0.3252  0.6016
  278MOL0     O38250   0.609   4.654   4.038  0.1059 -0.2178  0.6199
  278MOL0     C38251   0.530   4.574   3.973 -0.1999 -0.1419  0.0611
  278MOL0     C38252   0.434   4.515   4.048 -0.5858  1.4062 -0.1743
  278MOL0     C38253   0.331   4.430   3.995  0.4571 -0.0922  0.0570
  278MOL0     C38254   0.222   4.377   4.090 -0.8834 -0.0452 -1.1347
  278MOL0     C38255   0.324   4.403   3.855  0.1130 -0.2683  0.3509
  278MOL0     C38256   0.222   4.326   3.783 -0.0053 -0.1796  0.2986
  278MOL0     O38257   0.277   4.222   3.710 -0.1692  0.2166  0.6115
  278MOL0     C38258   0.216   4.103   3.661  0.1414 -0.5803 -0.8563
  278MOL0     C38259   0.091   4.058   3.705  0.8501 -1.2512  0.2872
  278MOL0     C38260   0.047   3.936   3.645  0.4343 -0.6329 -0.7978
  278MOL0     C38261   0.116   3.862   3.556  0.4700  0.0117 -0.9987
  278MOL0     O38262   0.054   3.754   3.505 -0.1252  0.1567  0.3184
  278MOL0     C38263   0.118   3.659   3.420 -0.0891  0.3259  0.0376
  278MOL0     C38264  -0.001   3.583   3.364  0.8906  0.5481  0.2640
  278MOL0     C38265  -0.049   3.471   3.449 -0.0821 -0.2946  0.0075
  278MOL0     C38266  -0.207   3.446   3.442 -0.2526 -0.6828  0.1278
  278MOL0     C38267  -0.245   3.336   3.551  0.1464  0.4212 -0.1660
  278MOL0     C38268  -0.207   3.187   3.520 -0.6420  0.0973 -0.2147
  278MOL0     C38269  -0.276   3.138   3.390  0.3505 -1.1267  0.1222
  278MOL0     C38270  -0.266   2.980   3.391  0.0814  0.1354 -0.2420
  278MOL0    Cl38271  -0.106   2.910   3.415 -0.1834 -0.2229  0.0142
  278MOL0     C38272   0.240   3.913   3.516  0.3547  0.5283 -0.0284
  278MOL0     C38273   0.290   4.032   3.567  0.7131 -0.5602 -0.1100
  278MOL0     O38274   0.098   4.342   3.801 -0.6706  0.3086  0.1721
  278MOL0     C38275   0.426   4.472   3.780 -0.2510 -0.1876 -0.0988
  278MOL0     C38276   0.529   4.551   3.832  0.3779  0.1609  0.1542
  278MOL0     N38277   1.191   4.881   3.831  0.2601 -0.0951 -0.2389
  278MOL0     N38278   1.284   4.905   3.745  0.0051 -0.2400 -0.0429
  278MOL0     C38279   1.658   5.904   3.275 -0.4438 -0.4543 -0.6839
  278MOL0     C38280   1.663   6.042   3.256 -0.3362  0.6529 -0.5857
  278MOL0     C38281   1.617   6.402   2.988 -0.6108 -0.1277  0.4379
  278MOL0     C38282   1.527   6.489   3.049 -0.5467  0.0143 -0.0267
  278MOL0     C38283   1.518   6.623   3.004  0.2895 -0.9105 -0.1587
  278MOL0     C38284   1.608   6.667   2.903  0.5365 -0.1170  0.2392
  278MOL0     O38285   1.593   6.789   2.855 -0.6546  0.1876 -0.0656
  278MOL0     C38286   1.469   6.842   2.819 -1.0534  0.6862  0.7850
  278MOL0     C38287   1.427   6.785   2.682  1.0283  0.6798 -0.3527
  278MOL0     C38288   1.539   6.802   2.587 -0.2864  0.2245  0.7105
  278MOL0     C38289   1.608   6.941   2.588 -0.3668 -0.1526  1.6652
  278MOL0     C38290   1.514   7.045   2.533  0.0718 -0.3003  0.3610
  278MOL0     C38291   1.457   7.139   2.491 -0.0972 -1.0517  0.0733
  278MOL0     C38292   1.704   6.588   2.850 -0.7186  0.2437 -1.2263
  278MOL0     C38293   1.714   6.452   2.888 -0.6465 -0.0828 -0.5747
  278MOL0     C38294   1.839   6.377   2.836 -1.1866  1.4756 -0.2959
  278MOL0     H38295   1.374   6.094   3.089 -0.3252 -0.5698 -0.6626
  278MOL0     H38296   1.360   5.844   3.109 -0.9220  1.7372 -0.1728
  278MOL0     H38297   1.723   5.601   3.205  0.4167  2.6231 -0.3561
  278MOL0     H38298   1.643   5.650   3.061  2.2003 -1.1288  0.8080
  278MOL0     H38299   1.438   5.503   3.106 -0.7158  0.1366  2.0870
  278MOL0     H38300   1.589   5.427   3.080 -1.3750  0.1062  1.4374
  278MOL0     H38301   1.609   5.373   3.324 -0.1564 -1.9910 -0.9300
  278MOL0     H38302   1.458   5.467   3.350 -1.7851 -0.7951 -0.7181
  278MOL0     H38303   1.319   5.326   3.237 -0.4062  1.3670 -4.0329
  278MOL0     H38304   1.445   5.269   3.138 -2.8770  1.7217  0.3376
  278MOL0     H38305   1.440   5.194   3.447  1.6399  0.9505 -0.2890
  278MOL0     H38306   1.539   5.132   3.330  0.9772  0.5584  0.6946
  278MOL0     H38307   1.242   5.124   3.233  0.5967  2.3170  1.0759
  278MOL0     H38308   1.363   4.998   3.220 -0.6819  0.2500 -0.3040
  278MOL0     H38309   1.159   4.963   3.363 -0.2663 -0.1869  0.8462
  278MOL0     H38310   1.198   5.108   3.453 -0.5060  1.2529 -1.9039
  278MOL0     H38311   1.331   4.836   3.427 -2.7497  1.3031 -1.5377
  278MOL0     H38312   1.415   4.965   3.523  1.3603 -0.1457 -1.0188
  278MOL0     H38313   1.027   4.861   3.554 -2.2354  3.0900  1.1166
  278MOL0     H38314   0.927   4.707   3.807 -0.0573  1.0073 -2.9374
  278MOL0     H38315   0.844   4.859   3.774 -3.1250 -1.5415  2.1805
  278MOL0     H38316   1.005   4.771   4.025  1.2513  0.8035 -0.9857
  278MOL0     H38317   0.975   4.938   3.998  0.9835 -0.4777  0.0582
  278MOL0     H38318   0.804   4.812   4.150 -1.6889  2.1049  0.5200
  278MOL0     H38319   0.729   4.900   4.024 -0.9096 -0.7203 -0.9491
  278MOL0     H38320   0.700   4.722   3.878 -2.9316  4.8625  2.4526
  278MOL0     H38321   0.811   4.621   3.969  0.9981  0.9597  0.8872
  278MOL0     H38322   0.425   4.538   4.154 -2.7528  1.6809 -0.3808
  278MOL0     H38323   0.131   4.436   4.081 -2.1056 -1.6948 -0.0678
  278MOL0     H38324   0.262   4.381   4.192  2.9972 -1.0610 -2.4148
  278MOL0     H38325   0.202   4.273   4.060 -0.3284  0.1830 -2.3727
  278MOL0     H38326   0.043   4.109   3.788 -0.6451 -2.6122  0.2898
  278MOL0     H38327  -0.053   3.912   3.678  0.4246  3.2150  2.7380
  278MOL0     H38328   0.172   3.712   3.341  2.8416 -3.9982 -1.2741
  278MOL0     H38329   0.191   3.597   3.474 -0.6736  0.7779  1.3822
  278MOL0     H38330  -0.080   3.656   3.344  1.3062  1.1856  0.9279
  278MOL0     H38331   0.011   3.543   3.262 -0.7288  0.1085  0.2177
  278MOL0     H38332  -0.028   3.505   3.551 -0.1108 -0.9513  0.2310
  278MOL0     H38333   0.004   3.378   3.429  2.1201  1.2653 -1.9613
  278MOL0     H38334  -0.235   3.407   3.344 -0.8400 -0.7451  0.3208
  278MOL0     H38335  -0.254   3.542   3.466 -1.3347 -0.9052 -1.0074
  278MOL0     H38336  -0.204   3.363   3.649  0.6022  3.0301 -0.9922
  278MOL0     H38337  -0.352   3.328   3.573  0.7658  1.1107  3.9906
  278MOL0     H38338  -0.243   3.134   3.609  0.4238  0.4377  0.4427
  278MOL0     H38339  -0.100   3.170   3.506 -0.5749 -0.0687  0.4538
  278MOL0     H38340  -0.224   3.175   3.301  0.7809  0.3302  0.9349
  278MOL0     H38341  -0.382   3.162   3.382  0.9138  1.7211  0.0214
  278MOL0     H38342  -0.297   2.943   3.293  1.5488 -1.3745 -0.1643
  278MOL0     H38343  -0.338   2.945   3.466  0.3637 -1.9260 -0.8772
  278MOL0     H38344   0.298   3.859   3.442  1.1178 -1.2487  1.7747
  278MOL0     H38345   0.374   4.078   3.517  1.5357 -0.7447  1.0541
  278MOL0     H38346   0.431   4.449   3.674 -2.5934  1.3319 -0.6213
  278MOL0     H38347   0.598   4.584   3.754 -0.2043 -2.3457 -1.5441
  278MOL0     H38348   1.730   5.859   3.342  0.3056  5.8888  3.6205
  278MOL0     H38349   1.753   6.093   3.289 -0.2800 -0.8283  1.8227
  278MOL0     H38350   1.453   6.458   3.123 -2.9220 -0.5464 -2.4715
  278MOL0     H38351   1.443   6.692   3.040  2.3847  1.3075  0.2529
  278MOL0     H38352   1.396   6.807   2.893  1.1122 -1.3342  2.0766
  278MOL0     H38353   1.475   6.951   2.813  4.1325  0.5417 -1.9674
  278MOL0     H38354   1.340   6.842   2.648 -1.7150 -2.5002  0.8365
  278MOL0     H38355   1.398   6.680   2.679 -1.1017  1.2067  0.1829
  278MOL0     H38356   1.610   6.722   2.605 -2.9799 -2.3779  0.5276
  278MOL0     H38357   1.514   6.789   2.481  2.5471 -2.8608  0.2649
  278MOL0     H38358   1.698   6.943   2.525 -1.1524  2.0616  0.4833
  278MOL0     H38359   1.634   6.963   2.691 -0.5540  1.1897  1.4472
  278MOL0     H38360   1.396   7.217   2.449 -3.8463 -3.3390  0.8040
  278MOL0     H38361   1.774   6.628   2.777 -4.1247  2.1461 -3.7631
  278MOL0     H38362   1.856   6.283   2.889  1.2797  2.0591  0.0711
  278MOL0     H38363   1.835   6.365   2.727  0.9382 -0.5052 -0.2106
  278MOL0     H38364   1.929   6.436   2.855  1.5436 -1.7597 -2.2163
  279MOL0     O38365   1.243   6.623   9.690 -0.8234 -0.3382  0.7587
  279MOL0     C38366   1.241   6.587   9.574 -0.1973 -0.3027 -0.3119
  279MOL0     O38367   1.335   6.620   9.483 -0.7106  0.8611  0.0731
  279MOL0     C38368   1.425   6.718   9.506 -0.7379  0.2535 -0.1432
  279MOL0     C38369   1.554   6.678   9.460  0.0721 -0.1353  0.7202
  279MOL0     C38370   1.662   6.769   9.492 -0.1819  0.4777 -0.3386
  279MOL0     C38371   1.637   6.894   9.559 -0.6469 -0.5764 -0.4157
  279MOL0     O38372   1.725   6.995   9.562 -0.4791  0.3083  0.1360
  279MOL0     C38373   1.795   7.011   9.440  0.2392  0.5555 -0.6846
  279MOL0     C38374   1.795   7.156   9.388 -0.1199 -0.2155 -0.3001
  279MOL0     C38375   1.643   7.195   9.381 -1.1541 -0.6535 -0.0078
  279MOL0     C38376   1.626   7.340   9.345  0.2427 -0.5879  0.7494
  279MOL0     C38377   1.481   7.375   9.313  0.6960  0.5806  0.3298
  279MOL0     C38378   1.382   7.390   9.431  1.3993 -0.9495  0.7333
  279MOL0     C38379   1.355   7.256   9.495 -0.0400 -0.5221  0.1068
  279MOL0     C38380   1.211   7.243   9.550  0.0719  0.8802  0.7013
  279MOL0     N38381   1.223   7.200   9.686 -0.0010 -0.4242  0.1750
  279MOL0     C38382   1.190   7.081   9.732  1.0073  0.1998  0.6197
  279MOL0     C38383   1.235   7.077   9.854  0.2168  0.4861  0.3597
  279MOL0     C38384   1.211   6.959   9.946  1.5216  0.5173 -0.7560
  279MOL0     C38385   1.316   6.851   9.931  0.5425  0.6830 -0.0456
  279MOL0     C38386   1.279   6.712   9.993 -0.0209  0.3985  1.0426
  279MOL0     C38387   1.254   6.714  10.146 -0.5392 -0.0851  0.0394
  279MOL0     O38388   1.370   6.746  10.231  0.3149  1.2068  0.4428
  279MOL0     C38389   1.360   6.707  10.365 -0.7468  0.1654  0.5164
  279MOL0     C38390   1.272   6.774  10.449  0.3796 -0.3656 -0.1537
  279MOL0     C38391   1.247   6.734  10.581 -0.4103  1.0721  0.1623
  279MOL0     C38392   1.106   6.781  10.635  0.4434  0.8667  0.2752
  279MOL0     C38393   1.358   6.668  10.640  0.4221  0.2135 -0.5115
  279MOL0     C38394   1.370   6.655  10.796  0.2919  0.4948  0.5530
  279MOL0     O38395   1.455   6.560  10.831 -0.7747 -0.1685  0.2199
  279MOL0     C38396   1.451   6.517  10.961  0.2385 -0.1305  0.6010
  279MOL0     C38397   1.432   6.374  10.971  0.5524  0.0529 -0.8721
  279MOL0     C38398   1.406   6.328  11.096  0.3529 -0.0321  0.0749
  279MOL0     C38399   1.410   6.403  11.217 -0.4822  0.1571 -0.1532
  279MOL0     O38400   1.394   6.324  11.326  0.2583  0.6891 -0.5818
  279MOL0     C38401   1.439   6.376  11.450  0.6541  0.8110  0.3121
  279MOL0     C38402   1.483   6.257  11.533  0.1726 -0.0807  0.4408
  279MOL0     C38403   1.487   6.263  11.692 -0.8609  0.1750 -0.5835
  279MOL0     C38404   1.602   6.350  11.724 -0.5199  0.0133 -0.3718
  279MOL0     C38405   1.628   6.356  11.868  0.2566  0.2825  0.0004
  279MOL0     C38406   1.745   6.445  11.914  0.9026 -0.1252  0.0917
  279MOL0     C38407   1.753   6.593  11.846 -0.0305 -0.0874 -0.4633
  279MOL0     C38408   1.849   6.677  11.923 -0.4155  0.0511 -0.8935
  279MOL0    Cl38409   2.015   6.606  11.923  0.5276 -0.6473 -0.0832
  279MOL0     C38410   1.437   6.542  11.199 -0.7386 -0.1848 -0.1237
  279MOL0     C38411   1.454   6.603  11.070 -0.3592  0.1768 -0.3118
  279MOL0     O38412   1.301   6.733  10.863  0.1571 -0.5026  0.6147
  279MOL0     C38413   1.469   6.624  10.564  0.4925 -0.4931 -0.9235
  279MOL0     C38414   1.459   6.623  10.420 -0.4689  0.7189 -1.5918
  279MOL0     N38415   1.273   7.204   9.898  0.5411 -0.3500 -0.4710
  279MOL0     N38416   1.259   7.275   9.791  0.3813  0.6771  0.8671
  279MOL0     C38417   1.518   6.933   9.600  0.6062  0.2315 -0.0065
  279MOL0     C38418   1.415   6.843   9.567  1.2391  0.1675 -0.1336
  279MOL0     C38419   1.146   6.478   9.531 -0.6303  0.0714 -0.6152
  279MOL0     C38420   1.196   6.374   9.460 -0.9232 -0.1555 -0.9296
  279MOL0     C38421   1.120   6.263   9.434 -0.2170  0.2782 -0.0103
  279MOL0     C38422   0.992   6.256   9.484  0.4379  0.3859  0.1428
  279MOL0     O38423   0.899   6.151   9.493 -0.1168 -0.0010 -0.0818
  279MOL0     C38424   0.951   6.031   9.434  0.3464  1.1040  0.7145
  279MOL0     C38425   0.845   5.921   9.445 -0.1005  0.5564 -0.0749
  279MOL0     C38426   0.811   5.906   9.598  0.4790  0.5264  0.9924
  279MOL0     C38427   0.711   5.791   9.605 -0.6853  0.4814 -0.5251
  279MOL0     C38428   0.696   5.750   9.741 -0.1544  0.3836 -0.5195
  279MOL0     C38429   0.681   5.721   9.857 -1.3944 -0.1080  0.4077
  279MOL0     C38430   0.932   6.366   9.549 -0.5662 -0.6214  0.0896
  279MOL0     C38431   1.009   6.481   9.565 -0.5137  0.3216  1.6451
  279MOL0     C38432   0.937   6.610   9.611 -0.1122 -0.0792  0.6102
  279MOL0     H38433   1.579   6.585   9.409  0.4197  0.3955 -0.0824
  279MOL0     H38434   1.763   6.741   9.466 -0.4468 -1.5292  0.6288
  279MOL0     H38435   1.757   6.942   9.364  0.8155 -0.3322 -0.1797
  279MOL0     H38436   1.897   6.984   9.469  0.3109  1.7086  0.2323
  279MOL0     H38437   1.851   7.225   9.452 -1.7306  0.2782  0.6243
  279MOL0     H38438   1.841   7.170   9.290 -0.9063  0.5078 -0.5718
  279MOL0     H38439   1.580   7.135   9.315 -0.0288 -2.1342  0.2116
  279MOL0     H38440   1.597   7.191   9.480 -2.3219  2.0265 -0.3621
  279MOL0     H38441   1.673   7.404   9.421  3.1613  0.7829 -2.0151
  279MOL0     H38442   1.687   7.365   9.258  0.9671  0.3825  1.5166
  279MOL0     H38443   1.438   7.309   9.237  0.4906  2.4430 -1.2237
  279MOL0     H38444   1.475   7.473   9.267  2.6995  0.3476 -0.4958
  279MOL0     H38445   1.421   7.467   9.499 -1.3043  3.3249 -2.0318
  279MOL0     H38446   1.284   7.429   9.402  0.8029 -3.9677 -1.7624
  279MOL0     H38447   1.442   7.244   9.561  1.0660  2.1577 -0.7448
  279MOL0     H38448   1.372   7.173   9.426 -0.7978  0.3048 -1.0981
  279MOL0     H38449   1.157   7.337   9.536  1.4622  1.5699 -0.2492
  279MOL0     H38450   1.164   7.162   9.494  0.3102  1.4413 -0.3366
  279MOL0     H38451   1.151   6.999   9.672 -0.9915  0.4839  1.4673
  279MOL0     H38452   1.110   6.923   9.925  1.6489 -0.1798 -0.1892
  279MOL0     H38453   1.217   6.996  10.049  0.8835  1.9266 -1.1983
  279MOL0     H38454   1.339   6.843   9.824  0.9901  2.0544 -0.0794
  279MOL0     H38455   1.402   6.889   9.987 -1.9091  3.0471  2.4836
  279MOL0     H38456   1.191   6.672   9.941 -0.9340  1.2966  1.8726
  279MOL0     H38457   1.365   6.647   9.972 -1.0925 -0.4636 -0.9996
  279MOL0     H38458   1.172   6.784  10.167  0.5925  0.3917  3.3634
  279MOL0     H38459   1.222   6.615  10.180 -1.5169  0.9165  2.2428
  279MOL0     H38460   1.205   6.844  10.399 -0.5428 -2.5138 -2.1165
  279MOL0     H38461   1.088   6.721  10.725 -0.3038  1.0065  0.2216
  279MOL0     H38462   1.035   6.769  10.553  1.8963  0.2842 -0.9710
  279MOL0     H38463   1.105   6.889  10.652  0.7546  0.6265  1.9646
  279MOL0     H38464   1.426   6.323  10.876 -3.0934 -0.7620 -0.3508
  279MOL0     H38465   1.383   6.223  11.106  1.9729 -0.3414  0.8772
  279MOL0     H38466   1.519   6.451  11.448  1.1274  0.7175  5.1914
  279MOL0     H38467   1.352   6.423  11.496 -1.0910 -1.0193 -0.9029
  279MOL0     H38468   1.418   6.182  11.487 -0.1371  0.8402 -0.6659
  279MOL0     H38469   1.585   6.225  11.507  1.6093  3.1515  1.5723
  279MOL0     H38470   1.512   6.166  11.736 -0.1088  0.6462  0.0464
  279MOL0     H38471   1.388   6.296  11.723  0.3852  1.4544  2.3685
  279MOL0     H38472   1.580   6.450  11.686 -3.1680 -0.9062 -1.4645
  279MOL0     H38473   1.692   6.308  11.677 -0.1880 -0.2584  0.4926
  279MOL0     H38474   1.554   6.418  11.920  0.9513  1.9754 -0.9340
  279MOL0     H38475   1.625   6.256  11.912 -0.6283  0.1793 -0.2705
  279MOL0     H38476   1.840   6.395  11.895 -0.0311 -1.5023 -1.1266
  279MOL0     H38477   1.719   6.463  12.019 -3.0511 -1.7283 -0.4432
  279MOL0     H38478   1.663   6.654  11.836  0.2423  0.5205  0.6170
  279MOL0     H38479   1.805   6.593  11.750  0.8394  0.2329  0.0008
  279MOL0     H38480   1.815   6.683  12.027 -0.1303  0.7511 -0.8341
  279MOL0     H38481   1.864   6.778  11.884  0.4983  0.8283  1.2976
  279MOL0     H38482   1.444   6.607  11.286  0.1337 -1.1682  0.5734
  279MOL0     H38483   1.448   6.711  11.069 -1.5731  0.1241 -1.5565
  279MOL0     H38484   1.556   6.576  10.609 -0.0033 -0.6099 -0.0570
  279MOL0     H38485   1.535   6.564  10.369 -1.1932 -1.0998 -0.6432
  279MOL0     H38486   1.488   7.025   9.650 -0.1743  0.7643 -1.4107
  279MOL0     H38487   1.315   6.880   9.591  0.8131 -1.3614  0.5886
  279MOL0     H38488   1.300   6.369   9.428 -0.6860  0.9494 -0.3613
  279MOL0     H38489   1.168   6.176   9.392 -0.7500 -0.7282  1.4067
  279MOL0     H38490   0.976   6.040   9.328 -0.4767  0.6103  0.4697
  279MOL0     H38491   1.043   6.009   9.489  1.3559  1.6404 -0.6826
  279MOL0     H38492   0.896   5.830   9.411  1.2403  0.7597  1.3032
  279MOL0     H38493   0.757   5.941   9.384 -1.5330  0.7929  1.9670
  279MOL0     H38494   0.907   5.895   9.650  0.3957  1.8570  1.4734
  279MOL0     H38495   0.780   5.997   9.649  0.0626 -0.3446  2.3407
  279MOL0     H38496   0.753   5.697   9.568  2.6372  0.9933  1.4937
  279MOL0     H38497   0.611   5.820   9.573 -0.6046  0.1844 -1.0534
  279MOL0     H38498   0.678   5.693   9.961  2.2052 -0.7782  0.4652
  279MOL0     H38499   0.836   6.382   9.595  0.1991  1.3513  1.1521
  279MOL0     H38500   0.955   6.692   9.540  0.1731 -1.1831 -0.6403
  279MOL0     H38501   0.831   6.587   9.625  0.6384 -3.8034  1.2340
  279MOL0     H38502   0.975   6.651   9.705 -1.0031  0.7955  0.6059
  280MOL0     O38503  11.378   1.774   2.436 -0.1959 -0.7718  0.7253
  280MOL0     C38504  11.313   1.798   2.334 -0.4854  0.7413 -0.0889
  280MOL0     O38505  11.372   1.832   2.219 -0.5927  0.1650 -0.5489
  280MOL0     C38506  11.506   1.864   2.209 -0.3270 -0.0197 -0.0640
  280MOL0     C38507  11.584   1.917   2.311 -0.3756  0.6911  0.6481
  280MOL0     C38508  11.717   1.963   2.287 -0.4411 -0.3767  0.4683
  280MOL0     C38509  11.776   1.947   2.156 -0.1494 -0.5555  0.3375
  280MOL0     O38510  11.894   2.007   2.113 -0.1182  0.3069 -0.3586
  280MOL0     C38511  11.969   2.094   2.197  0.0684  0.9363 -0.7773
  280MOL0     C38512  12.087   2.033   2.265 -0.8549 -0.0016  0.2062
  280MOL0     C38513  12.056   1.911   2.351 -0.4254  1.1800  0.6263
  280MOL0     C38514  12.051   1.936   2.497 -0.0113 -0.3176 -0.2650
  280MOL0     C38515  11.998   1.806   2.563  0.3829  0.8131  0.5235
  280MOL0     C38516  11.957   1.819   2.713  0.2500  0.0277  0.0341
  280MOL0     C38517  12.059   1.885   2.815 -0.4496 -0.1425 -0.9043
  280MOL0     C38518  12.004   1.864   2.959 -1.5201 -0.2092  0.2105
  280MOL0     N38519  12.056   1.963   3.051 -0.2579 -0.2445 -0.5333
  280MOL0     C38520  12.178   1.972   3.115 -0.3681 -0.6181  0.1677
  280MOL0     C38521  12.163   2.084   3.201 -0.7324  0.6009  0.5694
  280MOL0     C38522  12.249   2.118   3.328  0.7192  0.2764 -0.2609
  280MOL0     C38523  12.150   2.098   3.447 -0.0568 -0.5144  0.7038
  280MOL0     C38524  12.192   2.158   3.576 -0.2896 -0.5228  0.1927
  280MOL0     C38525  12.082   2.130   3.686  0.4316  0.0729  0.7963
  280MOL0     O38526  12.147   2.158   3.814 -0.2946 -0.7798  0.7250
  280MOL0     C38527  12.106   2.258   3.895 -0.0052  0.3287  0.2231
  280MOL0     C38528  12.188   2.263   4.006 -0.1521 -0.9102 -0.3515
  280MOL0     C38529  12.168   2.363   4.103  0.4190  0.5007 -0.3888
  280MOL0     C38530  12.265   2.366   4.216 -0.0544 -0.8475  0.3366
  280MOL0     C38531  12.058   2.453   4.083 -0.4389 -0.0274 -0.8201
  280MOL0     C38532  12.017   2.562   4.179 -0.5859  0.0438 -0.8612
  280MOL0     O38533  11.905   2.638   4.142  0.2930 -0.1726 -0.3796
  280MOL0     C38534  11.885   2.752   4.215  0.9591 -0.7696 -0.3822
  280MOL0     C38535  11.781   2.764   4.314 -0.1073  0.1597  1.2193
  280MOL0     C38536  11.764   2.883   4.385 -1.0969 -1.1435  0.2844
  280MOL0     C38537  11.853   2.991   4.363  0.6590  0.6642 -0.0942
  280MOL0     O38538  11.839   3.109   4.430  1.0559 -0.4223  0.2541
  280MOL0     C38539  11.936   3.153   4.526  0.2655  0.2792 -1.3312
  280MOL0     C38540  11.883   3.254   4.626  0.2821  0.2153 -0.3113
  280MOL0     C38541  11.978   3.367   4.641 -0.6017 -0.8590 -0.1286
  280MOL0     C38542  11.936   3.440   4.778 -0.5141  1.7769  0.2798
  280MOL0     C38543  12.008   3.572   4.805  0.7964 -0.0343 -0.2121
  280MOL0     C38544  12.014   3.612   4.954 -0.1858 -0.3847  0.7966
  280MOL0     C38545  12.075   3.757   4.970 -0.5100  0.7701  1.1766
  280MOL0     C38546  12.211   3.769   4.890  0.2746 -0.1248 -0.4871
  280MOL0    Cl38547  12.276   3.929   4.941  0.0366  0.6417  0.4421
  280MOL0     C38548  11.950   2.979   4.259  0.5857 -0.5911  0.3983
  280MOL0     C38549  11.959   2.860   4.177 -0.0677  0.0813  0.0152
  280MOL0     O38550  12.066   2.567   4.287  0.0566 -0.0798 -0.4924
  280MOL0     C38551  11.975   2.433   3.974 -0.0105  0.2816 -0.0314
  280MOL0     C38552  11.999   2.343   3.874 -1.2357  0.2351 -0.5119
  280MOL0     N38553  12.060   2.156   3.144 -0.2076  0.7888 -1.1864
  280MOL0     N38554  11.988   2.082   3.072  0.0309  0.3583  0.6343
  280MOL0     C38555  11.693   1.887   2.058 -1.1454  0.6505 -0.2807
  280MOL0     C38556  11.559   1.858   2.079  1.1447  0.2603  1.0259
  280MOL0     C38557  11.164   1.773   2.336 -0.4208 -0.2568 -1.0664
  280MOL0     C38558  11.117   1.723   2.460  0.3852 -1.1055  0.2563
  280MOL0     C38559  10.982   1.684   2.484  1.0682  0.5123  0.6700
  280MOL0     C38560  10.898   1.704   2.383  1.3074  0.6425  1.1615
  280MOL0     O38561  10.766   1.674   2.402 -0.4234  0.2239 -0.0949
  280MOL0     C38562  10.685   1.792   2.416  0.3384 -1.0504 -0.0324
  280MOL0     C38563  10.558   1.753   2.487  0.7541 -0.8175 -0.4124
  280MOL0     C38564  10.456   1.862   2.531  0.5917  0.1494  0.6752
  280MOL0     C38565  10.514   1.951   2.643  0.0169 -0.5601 -0.8383
  280MOL0     C38566  10.497   1.882   2.775  0.2817  0.5576  0.1177
  280MOL0     C38567  10.498   1.839   2.892  0.6574 -0.3013 -1.2521
  280MOL0     C38568  10.941   1.753   2.254  0.5440  0.8690  1.0611
  280MOL0     C38569  11.076   1.792   2.233 -0.2609 -0.1265 -0.3270
  280MOL0     C38570  11.110   1.852   2.095  0.0258 -0.5608 -0.4549
  280MOL0     H38571  11.553   1.936   2.414  1.4852  0.0770  1.3748
  280MOL0     H38572  11.766   2.001   2.376  2.9221 -1.1049 -0.9238
  280MOL0     H38573  11.909   2.146   2.273 -0.3373  2.0910 -1.8466
  280MOL0     H38574  11.985   2.175   2.125  1.6094  0.0215 -1.5072
  280MOL0     H38575  12.159   2.003   2.190  1.0060 -1.3050  2.3828
  280MOL0     H38576  12.139   2.100   2.334 -3.4486 -1.0009  3.4241
  280MOL0     H38577  11.967   1.856   2.322 -0.1377  1.0341  0.0031
  280MOL0     H38578  12.139   1.842   2.333 -2.1195 -0.5829 -0.8838
  280MOL0     H38579  12.154   1.949   2.532  0.5895  0.4731 -2.2058
  280MOL0     H38580  11.992   2.027   2.516  2.1567  1.8852 -3.1402
  280MOL0     H38581  12.072   1.727   2.548  0.6921  1.5257 -2.5094
  280MOL0     H38582  11.906   1.779   2.510  0.1682  2.4550 -0.0206
  280MOL0     H38583  11.873   1.889   2.715  0.4106  0.2089  0.9403
  280MOL0     H38584  11.925   1.718   2.740  0.7136  0.0328  0.6065
  280MOL0     H38585  12.058   1.993   2.795  1.1289 -0.2662 -1.7736
  280MOL0     H38586  12.161   1.854   2.792 -0.3532  1.0485 -2.2063
  280MOL0     H38587  11.896   1.873   2.974 -1.1740  1.0564  2.1776
  280MOL0     H38588  12.032   1.762   2.989 -4.2372 -1.4814 -1.2083
  280MOL0     H38589  12.266   1.910   3.122  1.0485  1.4637  2.5432
  280MOL0     H38590  12.303   2.212   3.332  2.8698 -0.9134  2.5586
  280MOL0     H38591  12.322   2.037   3.341 -2.3956 -2.7273  0.1744
  280MOL0     H38592  12.060   2.152   3.415  0.6742 -0.7746 -2.0660
  280MOL0     H38593  12.140   1.991   3.466 -1.0581 -0.8470 -1.4353
  280MOL0     H38594  12.283   2.101   3.593  1.3876  1.6279 -1.0810
  280MOL0     H38595  12.209   2.263   3.550 -0.9656 -0.6132 -0.6574
  280MOL0     H38596  11.990   2.188   3.671  0.7364  0.0800 -1.4368
  280MOL0     H38597  12.063   2.022   3.693  2.6394 -0.2649  2.7000
  280MOL0     H38598  12.274   2.196   4.006  0.2977 -0.3517  0.4133
  280MOL0     H38599  12.218   2.333   4.309 -1.5355  0.4259  0.0872
  280MOL0     H38600  12.305   2.466   4.235 -0.1347 -1.1563  2.3031
  280MOL0     H38601  12.354   2.307   4.194  2.3001  2.6246 -0.1730
  280MOL0     H38602  11.710   2.682   4.324  1.3768 -1.2776  0.4260
  280MOL0     H38603  11.691   2.900   4.463  2.1196 -0.2714  3.3524
  280MOL0     H38604  11.971   3.065   4.581  1.0213 -0.4638 -2.9008
  280MOL0     H38605  12.033   3.185   4.486  3.1513 -1.4569  3.3834
  280MOL0     H38606  11.786   3.286   4.586  0.7670  0.9401 -0.9371
  280MOL0     H38607  11.865   3.198   4.718 -1.5348  1.9096  0.4335
  280MOL0     H38608  11.981   3.424   4.548 -0.4233 -1.0498 -0.2411
  280MOL0     H38609  12.077   3.325   4.663 -0.3084  0.2496  0.7205
  280MOL0     H38610  11.952   3.365   4.856  0.4772  3.5978  1.9240
  280MOL0     H38611  11.832   3.472   4.773 -1.0637  0.0154 -0.0175
  280MOL0     H38612  12.110   3.571   4.765  0.6917  1.9058 -0.6321
  280MOL0     H38613  11.955   3.655   4.758 -1.0993 -0.6228  0.7679
  280MOL0     H38614  12.070   3.534   5.007  1.5672  0.3913  0.1255
  280MOL0     H38615  11.912   3.614   4.993 -0.5077 -2.2541  0.1967
  280MOL0     H38616  12.091   3.787   5.074 -0.3147  1.2193  1.0173
  280MOL0     H38617  12.003   3.823   4.922  0.0126 -1.0239 -2.3723
  280MOL0     H38618  12.202   3.769   4.781  2.0134  1.9800 -0.7140
  280MOL0     H38619  12.284   3.692   4.917  2.4818  1.1034 -2.5466
  280MOL0     H38620  12.016   3.065   4.249  1.1160 -1.0108  0.2366
  280MOL0     H38621  12.035   2.839   4.103 -0.7053 -3.3982  0.1980
  280MOL0     H38622  11.883   2.488   3.957  1.5589  2.4419 -2.3559
  280MOL0     H38623  11.934   2.344   3.787 -1.2633 -4.9631 -0.8509
  280MOL0     H38624  11.731   1.889   1.956 -0.0663 -1.1116  0.0390
  280MOL0     H38625  11.497   1.801   2.011  1.5195 -1.2960  1.9254
  280MOL0     H38626  11.193   1.697   2.533  0.4084 -4.4196 -0.8132
  280MOL0     H38627  10.958   1.650   2.584  1.5912 -0.6140  0.4299
  280MOL0     H38628  10.746   1.862   2.475 -0.1327  0.1864 -0.9711
  280MOL0     H38629  10.682   1.840   2.318  2.4555 -2.2491 -0.7638
  280MOL0     H38630  10.590   1.698   2.576  1.2037  1.1687  0.6955
  280MOL0     H38631  10.511   1.668   2.436 -1.3379 -1.5556  2.5057
  280MOL0     H38632  10.428   1.930   2.450 -0.1006 -2.6460 -1.5695
  280MOL0     H38633  10.364   1.810   2.560  0.8289 -0.5717  0.1207
  280MOL0     H38634  10.448   2.037   2.656 -1.3970 -1.6035 -0.8029
  280MOL0     H38635  10.604   2.003   2.611 -0.3911  1.5317  1.1803
  280MOL0     H38636  10.500   1.813   2.996  2.6911  2.1598 -0.5963
  280MOL0     H38637  10.871   1.774   2.173 -2.5313 -0.5432  3.1610
  280MOL0     H38638  11.033   1.924   2.065  0.7636 -0.7051 -2.8976
  280MOL0     H38639  11.194   1.922   2.093 -2.1988  2.3841  0.8677
  280MOL0     H38640  11.130   1.775   2.021  1.0813 -1.1862  0.4524
  281MOL0     O38641   3.498   6.318   7.204  0.2649  0.3377  0.5280
  281MOL0     C38642   3.534   6.209   7.168 -0.8395  0.9922  0.7133
  281MOL0     O38643   3.597   6.112   7.245 -0.1878  0.5659  0.2360
  281MOL0     C38644   3.605   5.978   7.199  0.0505 -0.7831 -0.1914
  281MOL0     C38645   3.495   5.890   7.204  0.1739  0.0616  0.0327
  281MOL0     C38646   3.500   5.754   7.169  0.2105  0.1493 -0.1150
  281MOL0     C38647   3.626   5.700   7.150  0.0597  0.5091 -0.0561
  281MOL0     O38648   3.635   5.562   7.148 -0.1797 -0.5338 -0.1829
  281MOL0     C38649   3.760   5.497   7.191  0.6331  0.8270 -0.3854
  281MOL0     C38650   3.760   5.490   7.349  1.1020  0.3379 -1.6354
  281MOL0     C38651   3.872   5.593   7.403  0.1890  0.5512  0.3409
  281MOL0     C38652   3.897   5.580   7.554  0.6817  0.8902 -0.2149
  281MOL0     C38653   3.793   5.647   7.638 -1.1477 -0.2490  0.3775
  281MOL0     C38654   3.820   5.634   7.783 -0.2204 -0.3172  0.6480
  281MOL0     C38655   3.697   5.671   7.866  0.0857  0.4128  0.2945
  281MOL0     C38656   3.757   5.717   7.995  0.3558 -1.8546 -0.1114
  281MOL0     N38657   3.823   5.606   8.078  0.2878 -0.2290  0.4328
  281MOL0     C38658   3.754   5.527   8.171  0.0718 -0.2564  0.4326
  281MOL0     C38659   3.857   5.463   8.240 -0.8068 -0.2867 -0.3032
  281MOL0     C38660   3.841   5.396   8.374  0.6111  0.5940 -0.0756
  281MOL0     C38661   3.836   5.245   8.357  0.0905  0.3760 -0.2922
  281MOL0     C38662   3.972   5.174   8.323  0.3606 -0.1843 -0.0519
  281MOL0     C38663   4.082   5.167   8.430 -0.1261 -0.7404  0.0076
  281MOL0     O38664   4.042   5.162   8.575  0.1898  0.3653  0.1625
  281MOL0     C38665   4.079   5.046   8.642  1.1752  0.0137  1.3047
  281MOL0     C38666   4.142   5.070   8.757  1.0764 -0.1590 -0.1987
  281MOL0     C38667   4.173   4.964   8.852  0.2339 -0.0276  0.2611
  281MOL0     C38668   4.195   5.015   8.996 -0.2401  0.4620  0.3782
  281MOL0     C38669   4.150   4.831   8.814  0.2387  0.0688 -0.5207
  281MOL0     C38670   4.192   4.713   8.890  1.2753  0.3155  0.6754
  281MOL0     O38671   4.256   4.728   9.011  0.1094 -0.9596  0.4589
  281MOL0     C38672   4.292   4.611   9.086  0.2122  0.0909  0.4763
  281MOL0     C38673   4.359   4.496   9.039  0.4829 -0.6735  0.9787
  281MOL0     C38674   4.375   4.386   9.120 -0.2503 -0.0741  0.3547
  281MOL0     C38675   4.322   4.381   9.250  0.2014  0.4639  1.4844
  281MOL0     O38676   4.331   4.275   9.337  0.0267  1.0822 -0.1943
  281MOL0     C38677   4.467   4.240   9.378  0.4178  0.1361 -0.7077
  281MOL0     C38678   4.491   4.088   9.373  0.2935 -0.2045  0.7581
  281MOL0     C38679   4.641   4.056   9.409  0.4293 -0.9492 -0.3451
  281MOL0     C38680   4.665   3.903   9.414  0.2156 -1.1350 -0.1984
  281MOL0     C38681   4.805   3.852   9.454 -0.0370 -0.0781 -0.6330
  281MOL0     C38682   4.882   3.929   9.566  0.8293  0.2630  0.3161
  281MOL0     C38683   4.982   3.833   9.622 -0.8576 -0.1093  0.0605
  281MOL0     C38684   4.928   3.742   9.726 -0.5406 -0.0740 -0.7140
  281MOL0    Cl38685   4.925   3.829   9.891 -0.2125 -0.0057  0.2862
  281MOL0     C38686   4.260   4.504   9.289 -0.1007 -0.2874  0.4567
  281MOL0     C38687   4.257   4.617   9.215  0.1122 -0.4913 -0.4138
  281MOL0     O38688   4.151   4.607   8.843  0.4682  0.3630  0.2141
  281MOL0     C38689   4.087   4.808   8.686  0.4762 -0.0141  0.1680
  281MOL0     C38690   4.058   4.912   8.597  0.2962 -0.7418  0.6109
  281MOL0     N38691   3.981   5.501   8.188  0.1192 -0.1100 -0.1838
  281MOL0     N38692   3.953   5.581   8.096  0.5316  0.4828 -0.2449
  281MOL0     C38693   3.743   5.781   7.137 -0.1970 -0.8698 -0.7290
  281MOL0     C38694   3.729   5.926   7.162 -0.3545  0.0349  0.8863
  281MOL0     C38695   3.507   6.187   7.021  0.7688  0.0905 -0.0564
  281MOL0     C38696   3.614   6.159   6.931 -0.9645  0.0391  0.0140
  281MOL0     C38697   3.588   6.135   6.797 -0.5692 -1.4636  0.9225
  281MOL0     C38698   3.450   6.151   6.747  0.9259  0.4784  0.1432
  281MOL0     O38699   3.432   6.130   6.616  0.1205  0.5600  0.9414
  281MOL0     C38700   3.324   6.035   6.570 -0.3599 -0.6420  0.7911
  281MOL0     C38701   3.207   6.099   6.515  0.1542 -0.0133 -0.1745
  281MOL0     C38702   3.232   6.224   6.437  0.5896  0.2801  0.3595
  281MOL0     C38703   3.111   6.321   6.429  0.0854 -0.0897  0.4008
  281MOL0     C38704   3.001   6.255   6.361 -0.1626  0.7121 -0.6867
  281MOL0     C38705   2.912   6.188   6.311  0.1646 -0.1157 -0.0437
  281MOL0     C38706   3.351   6.183   6.837  0.3278  0.3498  0.5661
  281MOL0     C38707   3.379   6.208   6.970  0.7680  0.0927 -0.3147
  281MOL0     C38708   3.266   6.242   7.057 -0.4576  0.2566  0.4278
  281MOL0     H38709   3.403   5.939   7.236 -0.9517 -1.6949 -0.3913
  281MOL0     H38710   3.421   5.680   7.173  1.0791 -0.7751  0.3522
  281MOL0     H38711   3.850   5.542   7.149  1.2399  1.6224  1.6601
  281MOL0     H38712   3.744   5.392   7.163  2.0041 -1.2192  5.2510
  281MOL0     H38713   3.661   5.504   7.393  1.0799 -0.5485 -1.3711
  281MOL0     H38714   3.792   5.386   7.366  1.4895  0.7054  0.0976
  281MOL0     H38715   3.968   5.567   7.357  0.8801  0.5562  1.7359
  281MOL0     H38716   3.826   5.689   7.377  1.5454  0.5779 -2.2024
  281MOL0     H38717   3.893   5.473   7.577 -6.3128  0.4513 -1.2209
  281MOL0     H38718   3.992   5.623   7.585 -0.4780  3.2264  0.3356
  281MOL0     H38719   3.697   5.599   7.616  0.4460 -2.8641 -1.4506
  281MOL0     H38720   3.777   5.752   7.611 -1.8401 -0.5569 -0.4514
  281MOL0     H38721   3.862   5.536   7.807  0.0491 -0.4583 -0.3843
  281MOL0     H38722   3.897   5.710   7.798  1.1397 -1.5293  0.0429
  281MOL0     H38723   3.627   5.591   7.891  0.1416  0.6194  1.1277
  281MOL0     H38724   3.639   5.752   7.820  2.7401  1.0954 -2.1669
  281MOL0     H38725   3.819   5.807   7.983 -1.0641 -0.7704  0.3491
  281MOL0     H38726   3.669   5.748   8.051 -0.0712  0.5298 -1.8997
  281MOL0     H38727   3.647   5.526   8.190 -0.2843  1.2825 -1.2705
  281MOL0     H38728   3.743   5.419   8.416  0.7154 -0.7362  0.9590
  281MOL0     H38729   3.924   5.430   8.436 -0.3604 -1.0526  2.2280
  281MOL0     H38730   3.799   5.203   8.450  1.1986 -0.8357 -0.3591
  281MOL0     H38731   3.768   5.220   8.275 -1.7229  0.2786  1.1919
  281MOL0     H38732   3.936   5.072   8.307  0.3664 -0.0851 -0.7015
  281MOL0     H38733   4.007   5.220   8.230 -1.5516 -0.1898 -0.8288
  281MOL0     H38734   4.143   5.082   8.397  1.7096  0.5976 -0.1989
  281MOL0     H38735   4.151   5.252   8.424 -0.4116 -0.6460 -2.7498
  281MOL0     H38736   4.152   5.178   8.764 -4.4699  0.5767  1.3251
  281MOL0     H38737   4.296   4.994   9.031  0.2773  3.2182  0.7329
  281MOL0     H38738   4.125   4.957   9.056  0.8460 -0.3950  0.8440
  281MOL0     H38739   4.174   5.122   9.001 -0.3446  0.3840  2.3863
  281MOL0     H38740   4.391   4.490   8.936 -1.1188 -2.0157  0.5013
  281MOL0     H38741   4.419   4.292   9.086 -1.7081 -1.9383  3.1922
  281MOL0     H38742   4.542   4.303   9.328  2.6593 -1.4007  0.5532
  281MOL0     H38743   4.466   4.268   9.484 -1.0331 -1.0597 -0.3771
  281MOL0     H38744   4.417   4.045   9.441 -1.7209  2.6354  0.5544
  281MOL0     H38745   4.474   4.052   9.271  3.9747 -1.1053  0.3325
  281MOL0     H38746   4.661   4.109   9.502 -2.7684  3.1755 -1.7198
  281MOL0     H38747   4.701   4.108   9.334 -3.2186  3.9830 -0.3522
  281MOL0     H38748   4.636   3.866   9.315 -3.1550 -0.8962  0.5837
  281MOL0     H38749   4.589   3.865   9.483 -0.8237  0.6455 -0.3208
  281MOL0     H38750   4.788   3.748   9.482 -1.9423 -0.3290 -2.4530
  281MOL0     H38751   4.859   3.838   9.360 -0.1065 -3.1984 -0.2964
  281MOL0     H38752   4.808   3.953   9.644 -0.1648 -1.2835 -0.1115
  281MOL0     H38753   4.924   4.025   9.534  1.4845  0.1151  0.7273
  281MOL0     H38754   5.061   3.892   9.670 -0.7375  0.0897 -0.3764
  281MOL0     H38755   5.027   3.781   9.538  1.8640  0.2370  1.1953
  281MOL0     H38756   4.999   3.659   9.731  1.5095  1.4348 -2.8424
  281MOL0     H38757   4.828   3.707   9.697 -0.5308 -0.6974 -0.0159
  281MOL0     H38758   4.232   4.512   9.393 -0.0949 -0.0445  0.4403
  281MOL0     H38759   4.194   4.693   9.261 -2.9151 -2.6370 -0.7244
  281MOL0     H38760   4.065   4.712   8.640 -1.6330  0.7863 -0.6211
  281MOL0     H38761   4.012   4.903   8.500 -1.0827  3.9511  0.5932
  281MOL0     H38762   3.840   5.739   7.114  2.3771  2.7895  2.3220
  281MOL0     H38763   3.806   6.001   7.150 -0.6984  0.1867 -0.6750
  281MOL0     H38764   3.717   6.157   6.966 -1.0504  3.6585  0.8540
  281MOL0     H38765   3.673   6.135   6.730 -0.6298  3.0870  0.5143
  281MOL0     H38766   3.376   5.965   6.503  0.7886  0.4046  0.5610
  281MOL0     H38767   3.285   5.975   6.653  0.0871  1.0621  2.2776
  281MOL0     H38768   3.152   6.124   6.605  3.4779  0.4703  1.8975
  281MOL0     H38769   3.154   6.026   6.453 -3.0978  2.0241 -0.0159
  281MOL0     H38770   3.319   6.273   6.482  1.3116 -0.3620 -0.2939
  281MOL0     H38771   3.261   6.188   6.337 -0.8258  1.0596 -0.3572
  281MOL0     H38772   3.136   6.409   6.370 -1.9610 -1.3148 -2.5617
  281MOL0     H38773   3.095   6.349   6.533 -2.5760  0.4301 -0.0620
  281MOL0     H38774   2.845   6.116   6.268  0.0384 -0.1213  0.1578
  281MOL0     H38775   3.253   6.197   6.794  0.8117  1.9309 -0.0704
  281MOL0     H38776   3.172   6.226   7.003 -0.8679  2.3630  0.4382
  281MOL0     H38777   3.264   6.197   7.157  0.4583  0.3345  0.4931
  281MOL0     H38778   3.267   6.349   7.081 -0.2750 -0.2033  2.6651
  282MOL0     O38779   3.617   9.560   8.646  0.0993  0.1419 -0.1002
  282MOL0     C38780   3.510   9.523   8.686  0.0761 -0.4475 -0.2640
  282MOL0     O38781   3.401   9.608   8.696  0.2654  0.1831 -0.0581
  282MOL0     C38782   3.377   9.707   8.613  0.5025 -0.9494 -0.4223
  282MOL0     C38783   3.404   9.687   8.474 -0.1507  0.1113 -1.2871
  282MOL0     C38784   3.391   9.784   8.380 -0.1792  1.0554  1.5203
  282MOL0     C38785   3.335   9.907   8.422  0.2809 -0.6837 -0.5956
  282MOL0     O38786   3.321  10.005   8.327  0.4827 -0.3443  0.4628
  282MOL0     C38787   3.336  10.140   8.378 -0.5911  0.4442 -0.0706
  282MOL0     C38788   3.342  10.238   8.251  0.5220  0.2957 -0.1548
  282MOL0     C38789   3.317  10.379   8.295  0.4422  1.3405  0.6726
  282MOL0     C38790   3.326  10.483   8.178  0.3502  0.5151  0.6569
  282MOL0     C38791   3.315  10.619   8.218 -0.3896 -0.9662 -0.6394
  282MOL0     C38792   3.356  10.710   8.107 -0.1735 -0.1798  0.7312
  282MOL0     C38793   3.314  10.861   8.134 -0.9495 -0.8874  0.6995
  282MOL0     C38794   3.257  10.911   7.996 -0.2786 -0.6046 -0.2026
  282MOL0     N38795   3.350  10.928   7.872  0.1454  0.2600 -0.2993
  282MOL0     C38796   3.333  11.037   7.782  0.1747 -0.1261  0.3819
  282MOL0     C38797   3.432  11.018   7.690 -0.4790  0.2999 -1.3213
  282MOL0     C38798   3.488  11.119   7.593  0.5946  0.5604 -0.7028
  282MOL0     C38799   3.594  11.220   7.656 -0.1318  0.9228  0.5460
  282MOL0     C38800   3.530  11.302   7.769  0.2298 -0.8114  0.6182
  282MOL0     C38801   3.622  11.418   7.822  0.7640  0.1350  0.4999
  282MOL0     O38802   3.543  11.509   7.887 -0.8616  0.4633 -0.2961
  282MOL0     C38803   3.602  11.619   7.930 -1.1724 -0.6985 -0.0619
  282MOL0     C38804   3.702  11.682   7.860 -0.5237  0.1304  0.5045
  282MOL0     C38805   3.757  11.799   7.899 -0.7927  0.9732 -0.5332
  282MOL0     C38806   3.869  11.850   7.827 -0.7516  1.2062  0.2293
  282MOL0     C38807   3.724  11.859   8.024  0.7320 -0.1021 -0.2370
  282MOL0     C38808   3.801  11.969   8.091  0.1235  0.0935  0.3886
  282MOL0     O38809   3.792  11.969   8.231 -0.3016  0.0931  0.9292
  282MOL0     C38810   3.857  11.880   8.309 -0.3910  0.7636 -0.8749
  282MOL0     C38811   3.982  11.824   8.294 -0.1392 -0.8721  0.3011
  282MOL0     C38812   4.030  11.720   8.380 -0.9038  0.4639  0.4367
  282MOL0     C38813   3.954  11.683   8.487 -0.1642 -0.4701 -0.3191
  282MOL0     O38814   3.976  11.580   8.574  0.0662 -0.7718 -0.7008
  282MOL0     C38815   4.061  11.474   8.527 -0.2562 -0.6908 -0.0012
  282MOL0     C38816   4.070  11.349   8.623 -0.1912  0.3905  0.6508
  282MOL0     C38817   4.149  11.386   8.750 -0.0400 -0.7949  0.2799
  282MOL0     C38818   4.136  11.267   8.854 -0.3940  0.4581 -0.2872
  282MOL0     C38819   4.152  11.310   9.004 -0.1464 -0.5013  0.4165
  282MOL0     C38820   4.305  11.351   9.034  0.4053 -0.1170  0.3867
  282MOL0     C38821   4.340  11.319   9.180 -0.1145  0.2770  0.1869
  282MOL0     C38822   4.436  11.199   9.186 -0.2642  0.6017  0.9321
  282MOL0    Cl38823   4.580  11.211   9.072  0.1261  0.3344 -0.2549
  282MOL0     C38824   3.842  11.751   8.521  0.8523 -0.6547 -0.2181
  282MOL0     C38825   3.788  11.840   8.424 -0.8005  0.0353  2.0150
  282MOL0     O38826   3.848  12.063   8.027  1.3046  0.3497 -0.5819
  282MOL0     C38827   3.623  11.797   8.096 -0.1033 -0.4276  0.2212
  282MOL0     C38828   3.562  11.680   8.045  0.2075 -0.8544  0.6492
  282MOL0     N38829   3.500  10.901   7.727  0.1165 -0.0216  0.5419
  282MOL0     N38830   3.451  10.846   7.837 -0.2320 -0.6491 -0.3158
  282MOL0     C38831   3.291   9.928   8.558  0.3989 -0.4878  0.1659
  282MOL0     C38832   3.323   9.828   8.654 -0.2498 -0.0814  0.1574
  282MOL0     C38833   3.475   9.382   8.721 -1.1120  0.4751 -0.1245
  282MOL0     C38834   3.392   9.359   8.830 -1.1689 -1.1089  0.1929
  282MOL0     C38835   3.382   9.235   8.886  0.4333 -0.3791  0.1208
  282MOL0     C38836   3.430   9.118   8.820  0.3486 -0.4147 -0.1093
  282MOL0     O38837   3.415   8.991   8.873 -0.5980  0.2786 -0.0678
  282MOL0     C38838   3.466   8.981   9.009  0.0099 -0.4829  0.3022
  282MOL0     C38839   3.505   8.829   9.044  1.0434 -0.2893  0.1295
  282MOL0     C38840   3.387   8.725   8.993  0.4218 -0.3290 -0.0637
  282MOL0     C38841   3.403   8.585   9.044 -1.0852 -0.7346  0.3253
  282MOL0     C38842   3.360   8.588   9.178 -1.4166  0.1669 -0.4555
  282MOL0     C38843   3.331   8.594   9.292 -0.7877 -0.5015 -0.1013
  282MOL0     C38844   3.491   9.141   8.690 -0.1455  0.9144 -0.0119
  282MOL0     C38845   3.521   9.266   8.637 -0.3739  0.3855  0.2479
  282MOL0     C38846   3.596   9.271   8.501  0.0836  0.0884 -1.0460
  282MOL0     H38847   3.435   9.586   8.452  1.5821  0.0512  1.0491
  282MOL0     H38848   3.428   9.776   8.278 -0.4682  1.4073  1.3878
  282MOL0     H38849   3.431  10.145   8.431 -0.4109 -1.6157 -0.1049
  282MOL0     H38850   3.255  10.165   8.448 -2.2088 -0.9499 -1.3522
  282MOL0     H38851   3.433  10.222   8.193  0.3239 -1.1420 -0.1215
  282MOL0     H38852   3.258  10.206   8.188 -0.0679 -0.1839  0.8576
  282MOL0     H38853   3.216  10.381   8.336  0.2275 -2.1241  0.6612
  282MOL0     H38854   3.395  10.398   8.369 -0.6547  3.2866  1.3988
  282MOL0     H38855   3.416  10.459   8.121  0.6210 -0.4554  1.4656
  282MOL0     H38856   3.247  10.468   8.103  0.8856  3.2697 -0.5802
  282MOL0     H38857   3.375  10.639   8.307 -1.9021  1.0484 -0.0116
  282MOL0     H38858   3.210  10.636   8.245 -0.2695 -1.5167  0.2324
  282MOL0     H38859   3.463  10.698   8.085 -0.5562  0.4620 -1.8318
  282MOL0     H38860   3.307  10.676   8.015 -3.5890 -1.2732  2.8079
  282MOL0     H38861   3.397  10.924   8.168 -1.3853  2.2795 -3.2807
  282MOL0     H38862   3.230  10.868   8.205 -2.8525  0.3933 -1.5325
  282MOL0     H38863   3.171  10.853   7.962 -1.5663  0.6277  0.8312
  282MOL0     H38864   3.205  11.005   8.016  1.3148  0.5745 -1.3276
  282MOL0     H38865   3.273  11.127   7.786  0.4056  0.0138  0.8099
  282MOL0     H38866   3.401  11.167   7.546 -0.0695  1.0772  0.9819
  282MOL0     H38867   3.535  11.067   7.509 -1.7341 -3.7193  0.3626
  282MOL0     H38868   3.683  11.169   7.692  0.6586 -0.8396 -3.3586
  282MOL0     H38869   3.624  11.290   7.577  4.6781 -0.8661  0.4631
  282MOL0     H38870   3.434  11.337   7.730 -0.4696 -1.1984  1.9120
  282MOL0     H38871   3.504  11.244   7.859  5.4258 -2.9066  1.1622
  282MOL0     H38872   3.706  11.380   7.881  0.4026  0.3483  1.1706
  282MOL0     H38873   3.669  11.459   7.732  0.5333  2.3869  1.3365
  282MOL0     H38874   3.739  11.638   7.768  0.2847 -1.1930  1.4386
  282MOL0     H38875   3.896  11.789   7.740  1.1550  2.3218 -0.0117
  282MOL0     H38876   3.956  11.865   7.890 -1.3600  1.7665  0.9537
  282MOL0     H38877   3.832  11.945   7.788 -2.8886 -0.4765 -2.2399
  282MOL0     H38878   4.031  11.856   8.203 -1.8917 -3.1728 -1.5788
  282MOL0     H38879   4.129  11.678   8.367 -1.9829 -1.6171 -2.2864
  282MOL0     H38880   4.010  11.441   8.436 -0.6605 -1.3082  0.4413
  282MOL0     H38881   4.160  11.517   8.513 -2.0238  3.5655 -0.9049
  282MOL0     H38882   3.968  11.319   8.645 -0.3079 -0.6821 -1.1736
  282MOL0     H38883   4.116  11.268   8.567 -0.8671 -2.3651  3.7543
  282MOL0     H38884   4.110  11.480   8.790  0.9192 -0.4679  0.4881
  282MOL0     H38885   4.257  11.400   8.736  0.0922 -2.2875 -0.3626
  282MOL0     H38886   4.214  11.192   8.838  2.8090  2.6085  3.4471
  282MOL0     H38887   4.037  11.220   8.857  0.6053 -1.7028  1.9084
  282MOL0     H38888   4.085  11.385   9.048  1.2766  0.4761  0.9954
  282MOL0     H38889   4.117  11.223   9.060 -5.4357 -0.6956 -2.5506
  282MOL0     H38890   4.310  11.456   9.004 -2.5630 -0.1613 -0.6587
  282MOL0     H38891   4.360  11.293   8.960  0.5171  0.2236  0.1990
  282MOL0     H38892   4.250  11.316   9.242 -0.1087  1.3906  0.2713
  282MOL0     H38893   4.403  11.397   9.226 -0.6381 -0.1259  1.6358
  282MOL0     H38894   4.379  11.108   9.163 -0.9166  0.9701  1.0603
  282MOL0     H38895   4.463  11.186   9.291  1.6681  0.6040  0.4583
  282MOL0     H38896   3.779  11.741   8.609 -1.1708 -1.7547 -1.6990
  282MOL0     H38897   3.688  11.881   8.430 -1.3322 -0.0140 -2.9256
  282MOL0     H38898   3.594  11.837   8.193 -1.5051  1.6341 -0.9804
  282MOL0     H38899   3.474  11.639   8.092 -0.4049  0.0043  0.2882
  282MOL0     H38900   3.248  10.019   8.600 -4.1645 -1.8261 -1.0576
  282MOL0     H38901   3.285   9.843   8.755 -0.6456  0.4243 -0.0597
  282MOL0     H38902   3.333   9.442   8.869  0.6398 -0.8728  2.6282
  282MOL0     H38903   3.306   9.233   8.964  0.8439  2.9538  0.7633
  282MOL0     H38904   3.551   9.045   9.035 -0.6828  0.2091  0.9200
  282MOL0     H38905   3.393   9.022   9.079  1.5176  3.8203 -0.3464
  282MOL0     H38906   3.522   8.822   9.152  0.3415  0.0270  0.2674
  282MOL0     H38907   3.590   8.800   8.982 -1.3575 -2.1883 -2.5687
  282MOL0     H38908   3.289   8.758   9.029 -0.1790 -1.6392 -0.4613
  282MOL0     H38909   3.388   8.727   8.884  3.8653  0.0874 -0.1459
  282MOL0     H38910   3.507   8.561   9.022 -1.2819 -1.9267  0.6406
  282MOL0     H38911   3.341   8.516   8.987 -0.5418 -0.5506 -0.4997
  282MOL0     H38912   3.321   8.569   9.396 -0.4678  0.4370  0.1691
  282MOL0     H38913   3.530   9.051   8.643 -0.2052  1.3292 -0.8576
  282MOL0     H38914   3.681   9.203   8.516 -2.9467 -4.1146 -1.2437
  282MOL0     H38915   3.548   9.219   8.418  1.7765  0.2146 -2.1668
  282MOL0     H38916   3.625   9.376   8.488 -2.2381  1.8280  4.6270
  283MOL0     O38917   9.521   5.578   5.463 -0.1440  0.6666  0.7412
  283MOL0     C38918   9.491   5.505   5.559  0.3362  0.7674  0.0321
  283MOL0     O38919   9.412   5.541   5.667  0.2716 -0.1001 -0.1482
  283MOL0     C38920   9.392   5.676   5.672  0.0784 -0.4229  0.5981
  283MOL0     C38921   9.301   5.747   5.592 -0.3181 -0.4150 -0.4679
  283MOL0     C38922   9.300   5.891   5.594 -0.0508 -0.0171 -0.1230
  283MOL0     C38923   9.373   5.967   5.686  0.4501 -0.8492  0.5321
  283MOL0     O38924   9.366   6.102   5.696  0.2430  0.4118  0.0713
  283MOL0     C38925   9.306   6.178   5.592 -0.5372 -0.3938  0.0660
  283MOL0     C38926   9.329   6.327   5.624 -0.4162 -0.1639 -0.2588
  283MOL0     C38927   9.295   6.375   5.775 -0.5848  0.2672  0.2566
  283MOL0     C38928   9.156   6.360   5.808  0.8714 -0.3001  0.0502
  283MOL0     C38929   9.121   6.465   5.920 -0.3692  0.4038  0.1935
  283MOL0     C38930   9.011   6.426   6.016 -0.2943  0.8040 -0.2147
  283MOL0     C38931   8.871   6.420   5.953  0.4256 -0.6190  0.0761
  283MOL0     C38932   8.816   6.559   5.919  0.6092 -0.4626 -0.4863
  283MOL0     N38933   8.683   6.558   5.857 -0.4007  1.0428  0.6121
  283MOL0     C38934   8.666   6.535   5.718  0.3170 -0.0500  0.5405
  283MOL0     C38935   8.529   6.515   5.704 -0.2143  0.5062  0.0505
  283MOL0     C38936   8.445   6.467   5.584  0.8792  0.6755 -0.2116
  283MOL0     C38937   8.299   6.507   5.562 -0.6088 -0.8158  0.0383
  283MOL0     C38938   8.283   6.660   5.562  0.5688  0.3782 -1.1906
  283MOL0     C38939   8.370   6.727   5.460 -0.0001 -0.5557 -0.2048
  283MOL0     O38940   8.324   6.688   5.335  0.0221  0.5130  0.1753
  283MOL0     C38941   8.374   6.761   5.224  0.4943  0.1379  0.2792
  283MOL0     C38942   8.306   6.747   5.105  0.1119 -1.2111 -0.3652
  283MOL0     C38943   8.340   6.823   4.984  1.4596 -0.1941  0.0281
  283MOL0     C38944   8.246   6.795   4.864 -0.5915 -0.0730  0.2562
  283MOL0     C38945   8.445   6.912   4.990 -0.6840  0.2392 -0.0725
  283MOL0     C38946   8.478   7.002   4.875  0.3862 -0.2179 -0.3080
  283MOL0     O38947   8.587   7.079   4.882  0.1018 -0.3734  0.0452
  283MOL0     C38948   8.595   7.184   4.794 -0.5828  0.7224 -0.2804
  283MOL0     C38949   8.688   7.170   4.692 -0.1228  0.5805  0.1344
  283MOL0     C38950   8.714   7.279   4.606  0.0350 -0.3407  0.1879
  283MOL0     C38951   8.653   7.407   4.631  0.1771 -0.0613 -0.4643
  283MOL0     O38952   8.679   7.509   4.537  0.4872  0.3663 -0.0728
  283MOL0     C38953   8.583   7.614   4.519  0.6190  0.1799  1.0389
  283MOL0     C38954   8.635   7.742   4.586  0.8247  0.0345 -0.0442
  283MOL0     C38955   8.591   7.876   4.534 -0.4948  0.0945  0.2642
  283MOL0     C38956   8.642   8.003   4.586 -0.5177 -0.8049 -0.0531
  283MOL0     C38957   8.592   8.128   4.506  0.1890 -0.1899  0.7669
  283MOL0     C38958   8.619   8.265   4.582  0.0106  1.0674 -0.3215
  283MOL0     C38959   8.520   8.308   4.685 -0.1667 -0.5144 -0.5097
  283MOL0     C38960   8.532   8.454   4.738  0.1342  0.0792 -0.7051
  283MOL0    Cl38961   8.659   8.455   4.852  0.0193  0.1296 -0.2446
  283MOL0     C38962   8.563   7.416   4.733  0.5753  0.2276  0.5049
  283MOL0     C38963   8.526   7.301   4.809 -0.3650 -0.3704  0.1433
  283MOL0     O38964   8.403   7.003   4.778 -0.1233 -0.3539 -0.1273
  283MOL0     C38965   8.513   6.923   5.110 -0.2954 -1.4014  0.2554
  283MOL0     C38966   8.477   6.855   5.232 -0.8777 -0.3116 -0.3773
  283MOL0     N38967   8.473   6.546   5.828 -0.0512  0.2649 -0.5334
  283MOL0     N38968   8.565   6.557   5.923  0.0256  0.4598 -0.6525
  283MOL0     C38969   9.445   5.892   5.778  0.3836 -0.2120  0.5392
  283MOL0     C38970   9.457   5.755   5.764  0.0148 -0.4418 -0.7835
  283MOL0     C38971   9.524   5.354   5.548  0.6055 -0.0649  0.1005
  283MOL0     C38972   9.418   5.255   5.563  0.4128 -0.1106 -0.8053
  283MOL0     C38973   9.444   5.120   5.550 -0.1771  0.3355  0.4370
  283MOL0     C38974   9.580   5.074   5.524  0.3528 -0.1344  0.1249
  283MOL0     O38975   9.595   4.939   5.519 -0.4249 -0.5659 -0.2770
  283MOL0     C38976   9.713   4.884   5.570 -0.3416  0.4608 -0.0622
  283MOL0     C38977   9.698   4.730   5.600 -0.5419 -0.3002 -0.3958
  283MOL0     C38978   9.613   4.702   5.730 -0.1784 -0.8143  0.0098
  283MOL0     C38979   9.469   4.718   5.708  0.4248 -0.2593 -0.5037
  283MOL0     C38980   9.409   4.722   5.844 -0.8556  0.2731 -0.6111
  283MOL0     C38981   9.373   4.737   5.961 -0.1305 -0.2684 -0.0468
  283MOL0     C38982   9.683   5.173   5.516  0.2409 -0.2094 -1.4169
  283MOL0     C38983   9.657   5.310   5.528  0.9244  0.4087  0.2407
  283MOL0     C38984   9.769   5.408   5.526 -0.4342  0.3939  0.4910
  283MOL0     H38985   9.245   5.692   5.517 -0.1881 -3.8965  1.7665
  283MOL0     H38986   9.253   5.949   5.515  2.6227  2.0066 -0.3379
  283MOL0     H38987   9.197   6.163   5.586 -0.0771 -4.6607 -0.7983
  283MOL0     H38988   9.342   6.152   5.492 -3.8405 -0.3951 -1.2468
  283MOL0     H38989   9.431   6.347   5.591 -1.0010 -0.8841 -2.6919
  283MOL0     H38990   9.265   6.393   5.565  1.2013  0.9748 -0.8026
  283MOL0     H38991   9.351   6.323   5.854 -0.8280 -2.0387 -1.0249
  283MOL0     H38992   9.334   6.476   5.790 -1.0718  1.4742 -4.8358
  283MOL0     H38993   9.087   6.377   5.725 -1.4041 -0.4501  1.8102
  283MOL0     H38994   9.122   6.262   5.842  2.1632  0.2975  3.5247
  283MOL0     H38995   9.105   6.563   5.875  1.5808  2.3981  3.4499
  283MOL0     H38996   9.203   6.479   5.992  1.7088 -0.7171 -1.8293
  283MOL0     H38997   9.036   6.325   6.049 -1.5162  1.3354  2.6332
  283MOL0     H38998   9.018   6.478   6.112 -0.2085  0.1598  0.1360
  283MOL0     H38999   8.803   6.369   6.022 -3.4858  1.4694 -1.9014
  283MOL0     H39000   8.871   6.377   5.853 -1.5678 -0.4994 -0.0073
  283MOL0     H39001   8.812   6.637   5.995  2.0615  2.3312 -3.0541
  283MOL0     H39002   8.885   6.610   5.851  0.9224  0.1589  0.2859
  283MOL0     H39003   8.747   6.521   5.648 -0.9590 -1.3984 -0.7415
  283MOL0     H39004   8.430   6.360   5.604 -0.5275  1.0611  0.9712
  283MOL0     H39005   8.495   6.487   5.488  0.3751 -0.5732 -0.7570
  283MOL0     H39006   8.269   6.460   5.468 -1.4341 -0.1956 -0.0160
  283MOL0     H39007   8.238   6.469   5.645 -0.4256 -2.5778 -0.5790
  283MOL0     H39008   8.175   6.681   5.569  0.7954  1.3663 -0.2798
  283MOL0     H39009   8.310   6.704   5.659  1.6867 -2.1254 -0.3029
  283MOL0     H39010   8.357   6.834   5.476 -1.0522 -0.8109  0.7579
  283MOL0     H39011   8.476   6.701   5.473  0.5022  1.2225 -0.4010
  283MOL0     H39012   8.235   6.665   5.097 -1.8978  0.4182 -0.1266
  283MOL0     H39013   8.198   6.892   4.846  3.1975  2.1455  0.9587
  283MOL0     H39014   8.173   6.717   4.885  0.4109 -0.5813  2.0570
  283MOL0     H39015   8.306   6.754   4.783 -1.9052 -0.9935 -0.2912
  283MOL0     H39016   8.735   7.074   4.672  1.1564  1.1920  0.0780
  283MOL0     H39017   8.783   7.264   4.524 -0.2494  0.5742 -0.2298
  283MOL0     H39018   8.582   7.650   4.416 -2.9453  0.9160  1.2153
  283MOL0     H39019   8.481   7.597   4.556 -0.0051 -2.1841 -1.4811
  283MOL0     H39020   8.606   7.749   4.691 -1.7268  1.0983 -0.7650
  283MOL0     H39021   8.744   7.732   4.594  0.8000  0.0403  0.3217
  283MOL0     H39022   8.482   7.876   4.544 -1.0561  1.5322 -3.8872
  283MOL0     H39023   8.599   7.872   4.425  1.9263  2.0027  0.2978
  283MOL0     H39024   8.751   7.999   4.572 -0.5280 -1.9681  0.0208
  283MOL0     H39025   8.625   8.011   4.693 -0.8496 -2.0252  0.0081
  283MOL0     H39026   8.653   8.128   4.416  0.1284 -4.8338  0.5064
  283MOL0     H39027   8.485   8.122   4.483  0.4545 -1.2912 -0.2759
  283MOL0     H39028   8.617   8.350   4.513 -1.2691  1.0383 -0.3383
  283MOL0     H39029   8.717   8.248   4.628 -0.8497 -0.7803  0.9056
  283MOL0     H39030   8.542   8.234   4.763  1.6161  2.5073  2.0903
  283MOL0     H39031   8.421   8.297   4.639  0.0149  0.9972 -1.3276
  283MOL0     H39032   8.443   8.478   4.796  0.5311 -1.7181  0.7495
  283MOL0     H39033   8.552   8.523   4.655  2.1921  0.1950 -0.1835
  283MOL0     H39034   8.497   7.501   4.748  1.5101  1.0228  0.2233
  283MOL0     H39035   8.457   7.305   4.893 -1.1761  1.3314 -0.5423
  283MOL0     H39036   8.593   6.994   5.129 -2.0588  1.1339 -1.2123
  283MOL0     H39037   8.530   6.881   5.322  0.7466  2.3364 -1.9529
  283MOL0     H39038   9.501   5.941   5.857  3.1206 -0.1485 -1.3182
  283MOL0     H39039   9.535   5.709   5.824  0.0198 -1.6469 -1.6721
  283MOL0     H39040   9.318   5.296   5.576 -1.1141 -3.3129 -1.3818
  283MOL0     H39041   9.356   5.057   5.561 -0.7350  0.3694 -2.7455
  283MOL0     H39042   9.787   4.895   5.489 -3.4713  2.1371 -2.9459
  283MOL0     H39043   9.730   4.939   5.663 -1.7831  2.2500 -0.7956
  283MOL0     H39044   9.801   4.696   5.614  1.6893  4.8466 -1.6294
  283MOL0     H39045   9.640   4.680   5.522 -5.8591  2.3356  1.3604
  283MOL0     H39046   9.635   4.600   5.762  0.5311 -1.2868 -1.8555
  283MOL0     H39047   9.650   4.763   5.813  1.4215 -0.0998 -1.1802
  283MOL0     H39048   9.431   4.636   5.647 -0.5868  1.4588 -2.3113
  283MOL0     H39049   9.450   4.814   5.659  0.2829  1.1421  2.1139
  283MOL0     H39050   9.348   4.725   6.064  2.3911 -2.4095  0.4248
  283MOL0     H39051   9.789   5.154   5.504  0.5294  0.3060  0.0483
  283MOL0     H39052   9.853   5.350   5.563 -1.5924 -1.6583  0.0638
  283MOL0     H39053   9.786   5.438   5.422 -1.4060  0.3902  0.3143
  283MOL0     H39054   9.748   5.483   5.603 -1.1963  1.7844 -0.9988
  284MOL0     O39055   0.519   3.081   6.157 -0.7707  0.2705 -0.1096
  284MOL0     C39056   0.624   3.141   6.142 -0.4887 -0.3949 -0.4047
  284MOL0     O39057   0.648   3.258   6.203 -0.3607  0.0275 -0.9265
  284MOL0     C39058   0.542   3.314   6.259  0.2439 -0.3925  0.4476
  284MOL0     C39059   0.500   3.431   6.203  0.1653 -0.3211 -0.0007
  284MOL0     C39060   0.401   3.508   6.264  0.1172 -0.2907  0.4477
  284MOL0     C39061   0.338   3.460   6.380  0.7620  0.4331 -0.1969
  284MOL0     O39062   0.242   3.537   6.441  0.2517 -0.1359  0.1544
  284MOL0     C39063   0.126   3.571   6.369 -0.7386 -1.2035 -0.4445
  284MOL0     C39064  -0.004   3.573   6.443  0.9093  0.0422 -0.3460
  284MOL0     C39065  -0.081   3.441   6.449 -1.0559  0.0506 -0.1676
  284MOL0     C39066  -0.176   3.438   6.571 -0.2581  0.2900  0.3854
  284MOL0     C39067  -0.289   3.531   6.566  0.5296 -0.1798 -0.0211
  284MOL0     C39068  -0.396   3.495   6.676  0.3266  0.5171 -0.2144
  284MOL0     C39069  -0.501   3.590   6.712  0.1836 -0.0502  1.2967
  284MOL0     C39070  -0.602   3.619   6.604  1.0998 -0.2089 -0.0779
  284MOL0     N39071  -0.680   3.499   6.566 -0.9229 -0.0503  0.1219
  284MOL0     C39072  -0.632   3.392   6.490 -0.7436 -0.4146 -0.9620
  284MOL0     C39073  -0.719   3.293   6.514  0.3058  0.3388  0.6242
  284MOL0     C39074  -0.719   3.159   6.441  0.2881  0.5807  0.6509
  284MOL0     C39075  -0.755   3.034   6.539 -0.3490  0.1449  0.5928
  284MOL0     C39076  -0.748   2.897   6.458  0.4315 -0.0153 -0.4131
  284MOL0     C39077  -0.845   2.796   6.523  0.0525  0.7649  0.4745
  284MOL0     O39078  -0.983   2.812   6.499  0.6735 -0.2129  0.0317
  284MOL0     C39079  -1.055   2.691   6.503 -0.6729  0.4215  0.1195
  284MOL0     C39080  -1.034   2.579   6.585 -0.0805  0.5871  0.9777
  284MOL0     C39081  -1.109   2.462   6.571 -0.5646  0.3343  0.7436
  284MOL0     C39082  -1.066   2.342   6.660 -0.5518  0.3762  0.2736
  284MOL0     C39083  -1.227   2.455   6.489 -0.1338 -0.5510 -0.2342
  284MOL0     C39084  -1.319   2.339   6.478 -0.5233 -0.7772  1.1448
  284MOL0     O39085  -1.283   2.222   6.511 -0.6209  1.1999  0.0383
  284MOL0     C39086  -1.373   2.112   6.512 -0.1016  0.1627  0.0983
  284MOL0     C39087  -1.408   2.051   6.637  0.8687  1.0301  0.3267
  284MOL0     C39088  -1.492   1.932   6.626  0.4035 -0.5912 -1.1222
  284MOL0     C39089  -1.534   1.882   6.501 -0.5214  0.8444  0.2031
  284MOL0     O39090  -1.618   1.770   6.523  0.5832  0.5111  0.3510
  284MOL0     C39091  -1.739   1.777   6.456 -0.1288 -0.6145  0.2989
  284MOL0     C39092  -1.850   1.808   6.565 -0.7276  1.0970 -0.4966
  284MOL0     C39093  -1.982   1.753   6.518 -0.1159 -0.0609  0.0510
  284MOL0     C39094  -2.078   1.818   6.619 -0.0346  0.0913  0.0735
  284MOL0     C39095  -2.197   1.719   6.632 -0.9134  0.7064 -1.2595
  284MOL0     C39096  -2.278   1.749   6.760  0.6617 -0.9111 -0.1754
  284MOL0     C39097  -2.347   1.889   6.761 -0.1157 -1.0729 -0.3099
  284MOL0     C39098  -2.457   1.886   6.865 -0.2861  0.3077 -0.8970
  284MOL0    Cl39099  -2.560   2.025   6.859 -0.2703 -0.6796  0.0234
  284MOL0     C39100  -1.504   1.944   6.382 -0.4972 -0.0588  1.0012
  284MOL0     C39101  -1.426   2.065   6.388  0.4283  0.0916 -0.7427
  284MOL0     O39102  -1.438   2.361   6.439 -0.1221  0.0258 -0.6489
  284MOL0     C39103  -1.255   2.577   6.408  0.9401  0.4471 -0.1570
  284MOL0     C39104  -1.173   2.690   6.417 -0.4218 -0.6908 -0.5790
  284MOL0     N39105  -0.826   3.343   6.585  0.4866  0.4938 -0.9878
  284MOL0     N39106  -0.798   3.473   6.614  0.4367  0.1452 -0.5277
  284MOL0     C39107   0.380   3.343   6.437  0.6238 -0.7364  0.5698
  284MOL0     C39108   0.486   3.265   6.382  0.3865 -0.4028 -0.2543
  284MOL0     C39109   0.741   3.088   6.060  0.2935 -0.5301 -0.1190
  284MOL0     C39110   0.863   3.161   6.063 -0.6870 -1.6740 -0.1537
  284MOL0     C39111   0.973   3.125   5.990  0.3195 -0.1787  0.4228
  284MOL0     C39112   0.964   3.013   5.906 -0.4993 -0.1801  0.2585
  284MOL0     O39113   1.077   2.959   5.850  0.3459 -0.3110  0.1776
  284MOL0     C39114   1.107   3.019   5.725 -0.2148 -1.1061 -0.1845
  284MOL0     C39115   1.254   3.019   5.683  0.0402  0.1853 -0.9960
  284MOL0     C39116   1.320   2.890   5.715 -0.1491 -0.1269  0.8442
  284MOL0     C39117   1.434   2.863   5.621  0.0317  0.2460  0.6706
  284MOL0     C39118   1.461   2.722   5.614  1.1490  0.4355 -1.2097
  284MOL0     C39119   1.479   2.598   5.612  1.1486 -0.2478  0.1650
  284MOL0     C39120   0.847   2.939   5.906  0.2733 -0.6609  0.8913
  284MOL0     C39121   0.729   2.967   5.981 -0.6820 -1.2917 -0.5354
  284MOL0     C39122   0.622   2.871   5.984 -0.2666 -0.0198  0.4882
  284MOL0     H39123   0.550   3.466   6.112  0.8040 -1.8474 -0.2758
  284MOL0     H39124   0.365   3.604   6.229  1.3352 -0.0270 -0.1447
  284MOL0     H39125   0.110   3.505   6.283 -1.9771 -0.5153 -0.7561
  284MOL0     H39126   0.144   3.667   6.320 -2.5316 -1.0397 -0.8309
  284MOL0     H39127   0.018   3.617   6.541  0.5787  1.6048 -0.9425
  284MOL0     H39128  -0.061   3.656   6.400 -0.6836  0.1076  1.7249
  284MOL0     H39129  -0.134   3.416   6.357  0.6811  0.4030 -1.3217
  284MOL0     H39130  -0.002   3.365   6.457 -2.1550 -1.4521 -2.4312
  284MOL0     H39131  -0.217   3.336   6.567  0.1909  0.1068  0.4431
  284MOL0     H39132  -0.129   3.451   6.669 -0.0432 -1.7113  0.5813
  284MOL0     H39133  -0.340   3.535   6.469  1.7535  1.7904 -0.6336
  284MOL0     H39134  -0.263   3.636   6.581 -1.4148  0.8570 -3.0255
  284MOL0     H39135  -0.443   3.402   6.645  0.9460  0.5535 -1.2897
  284MOL0     H39136  -0.345   3.483   6.772 -0.9314  0.6818  0.4976
  284MOL0     H39137  -0.459   3.686   6.743  1.3336  0.1497 -0.7075
  284MOL0     H39138  -0.567   3.559   6.793  0.5532 -1.1718  1.1933
  284MOL0     H39139  -0.671   3.695   6.641 -2.0554 -1.9500 -1.8649
  284MOL0     H39140  -0.556   3.650   6.510  2.2815  0.7681  0.7866
  284MOL0     H39141  -0.542   3.386   6.429 -0.3148 -5.1333 -0.2303
  284MOL0     H39142  -0.618   3.147   6.401  0.2281  0.2362  0.5982
  284MOL0     H39143  -0.782   3.167   6.352  2.0009  0.7188 -0.6078
  284MOL0     H39144  -0.678   3.034   6.617 -1.7991  0.3199  2.0802
  284MOL0     H39145  -0.850   3.062   6.585 -1.2817 -0.0722 -1.1137
  284MOL0     H39146  -0.791   2.907   6.358 -1.1036 -3.1570 -0.1872
  284MOL0     H39147  -0.643   2.868   6.454 -0.4230 -3.4140 -1.8208
  284MOL0     H39148  -0.812   2.703   6.474  1.5888 -0.2132  3.1832
  284MOL0     H39149  -0.827   2.785   6.630  0.1828 -1.5452  0.2714
  284MOL0     H39150  -0.950   2.590   6.653  0.2229  2.4224  0.3701
  284MOL0     H39151  -1.155   2.300   6.709 -1.3804 -0.3535 -1.7412
  284MOL0     H39152  -0.977   2.366   6.719  1.6191 -2.4202 -1.6107
  284MOL0     H39153  -1.028   2.270   6.587  0.2611 -0.6322  1.6330
  284MOL0     H39154  -1.368   2.078   6.734 -0.1508  0.3881  0.9395
  284MOL0     H39155  -1.512   1.881   6.719 -1.8868  0.2532 -1.0740
  284MOL0     H39156  -1.746   1.866   6.393 -0.3816 -1.1365 -0.4214
  284MOL0     H39157  -1.753   1.694   6.387  0.1209 -1.6933  1.5110
  284MOL0     H39158  -1.828   1.747   6.654 -0.5835  1.5567 -0.2140
  284MOL0     H39159  -1.861   1.910   6.603 -6.2338  0.5741  0.1568
  284MOL0     H39160  -1.986   1.645   6.506 -1.7838 -0.0926  0.6461
  284MOL0     H39161  -1.993   1.793   6.416  1.9278 -0.8835 -0.5337
  284MOL0     H39162  -2.119   1.915   6.588  0.3998 -0.2636 -1.7510
  284MOL0     H39163  -2.033   1.829   6.718  1.4404  0.0526 -0.5582
  284MOL0     H39164  -2.263   1.721   6.544  1.6886  0.0531 -3.3645
  284MOL0     H39165  -2.156   1.618   6.633  0.6513  1.2717  1.0285
  284MOL0     H39166  -2.221   1.737   6.852 -2.4562 -2.5870  1.7076
  284MOL0     H39167  -2.352   1.669   6.770 -1.8055  1.1460 -0.6401
  284MOL0     H39168  -2.388   1.899   6.660  1.7992  0.1601 -1.0312
  284MOL0     H39169  -2.280   1.973   6.776 -1.0461 -0.4766  0.5761
  284MOL0     H39170  -2.422   1.881   6.968 -0.3938  1.8188 -0.7594
  284MOL0     H39171  -2.512   1.795   6.839 -0.5552 -0.2224  1.3430
  284MOL0     H39172  -1.533   1.901   6.287  1.3267  2.2855 -0.7356
  284MOL0     H39173  -1.413   2.129   6.301 -0.6723  1.2309 -0.1102
  284MOL0     H39174  -1.342   2.581   6.343  0.0064  0.7887  1.0879
  284MOL0     H39175  -1.184   2.780   6.356 -2.1267  0.9920  2.0205
  284MOL0     H39176   0.339   3.299   6.528 -1.1003 -1.4715 -0.5149
  284MOL0     H39177   0.516   3.176   6.436  3.9403 -0.2632 -1.7076
  284MOL0     H39178   0.855   3.244   6.133 -0.7053 -0.8071 -1.1572
  284MOL0     H39179   1.068   3.179   5.991  0.6665 -0.7206 -0.7866
  284MOL0     H39180   1.043   2.960   5.658 -2.5249  0.3322  0.6477
  284MOL0     H39181   1.068   3.120   5.711  1.9974 -0.0665  0.7524
  284MOL0     H39182   1.292   3.103   5.744  2.0140 -2.7108  2.1232
  284MOL0     H39183   1.257   3.033   5.575  0.8456  1.3790 -0.8397
  284MOL0     H39184   1.362   2.895   5.815 -2.1457  1.4638  1.6733
  284MOL0     H39185   1.250   2.806   5.712 -2.7726  1.8832  1.8649
  284MOL0     H39186   1.524   2.913   5.656  0.6540 -0.4305  0.0610
  284MOL0     H39187   1.417   2.886   5.515 -1.8155  0.0700  0.8891
  284MOL0     H39188   1.500   2.493   5.618 -0.3402 -0.6557 -0.8102
  284MOL0     H39189   0.847   2.843   5.855 -2.9306 -0.6460  0.6307
  284MOL0     H39190   0.630   2.789   5.911 -5.0423 -1.6810  1.4829
  284MOL0     H39191   0.629   2.837   6.088 -0.9970  3.8472  1.9614
  284MOL0     H39192   0.526   2.918   5.965 -1.4936 -1.8571  1.8012
  285MOL0     O39193   6.046   1.079   9.761  0.3408 -0.1586 -0.3340
  285MOL0     C39194   6.031   1.171   9.843 -0.2641  0.1037  0.6497
  285MOL0     O39195   5.911   1.243   9.868  0.2737  1.0028 -0.6592
  285MOL0     C39196   5.790   1.233   9.789  0.7278 -1.2482 -0.1549
  285MOL0     C39197   5.763   1.133   9.690  0.9019 -0.6256  0.6076
  285MOL0     C39198   5.642   1.142   9.615  0.2923 -0.5992 -0.4269
  285MOL0     C39199   5.565   1.252   9.634 -0.4135  0.0449  0.0625
  285MOL0     O39200   5.449   1.247   9.559 -0.2045  0.2725  0.7723
  285MOL0     C39201   5.339   1.335   9.607 -0.7486  0.6788 -0.2160
  285MOL0     C39202   5.216   1.316   9.523  0.4002  0.5313 -1.0622
  285MOL0     C39203   5.135   1.194   9.547  0.2428  0.4027  0.4593
  285MOL0     C39204   5.209   1.071   9.528 -0.2743 -0.7726  0.9900
  285MOL0     C39205   5.100   0.960   9.531 -0.0530  0.9396  0.8813
  285MOL0     C39206   5.165   0.827   9.545 -0.0029  0.0797 -0.2097
  285MOL0     C39207   5.129   0.738   9.671 -0.2680 -0.4038  0.3340
  285MOL0     C39208   5.166   0.797   9.804 -0.5342 -0.4261  0.0524
  285MOL0     N39209   5.112   0.706   9.903 -0.6524  0.1675 -1.3361
  285MOL0     C39210   4.986   0.667   9.922 -0.2089 -0.6881 -0.5655
  285MOL0     C39211   4.991   0.600  10.039 -0.7121  0.8256 -0.4713
  285MOL0     C39212   4.865   0.564  10.114  0.0052 -0.5598  0.5107
  285MOL0     C39213   4.750   0.530  10.017 -0.1784 -0.4499 -1.0638
  285MOL0     C39214   4.631   0.474  10.097 -0.2976 -0.3065  0.2373
  285MOL0     C39215   4.520   0.402  10.017 -0.0244 -0.1345  0.1044
  285MOL0     O39216   4.553   0.264  10.039 -0.7019  0.5810  0.8898
  285MOL0     C39217   4.464   0.162  10.022 -0.2003  0.7711 -0.1656
  285MOL0     C39218   4.499   0.044  10.083 -0.3775  0.4311 -0.6421
  285MOL0     C39219   4.426  -0.078  10.060 -0.2679  0.1213  0.6807
  285MOL0     C39220   4.468  -0.192  10.147  1.1562  0.0089  0.2078
  285MOL0     C39221   4.307  -0.073   9.983 -0.2346 -0.0737 -1.0145
  285MOL0     C39222   4.208  -0.187   9.985 -0.3583 -0.7643 -0.4937
  285MOL0     O39223   4.074  -0.167   9.964 -0.7494 -0.4219  0.1756
  285MOL0     C39224   3.973  -0.247  10.021 -0.0447 -0.8863  0.3206
  285MOL0     C39225   3.847  -0.271   9.958  1.1480 -0.5969  0.0498
  285MOL0     C39226   3.741  -0.337  10.017  1.3570  0.6916  1.5600
  285MOL0     C39227   3.755  -0.391  10.146  1.3311  0.0753 -0.1497
  285MOL0     O39228   3.659  -0.473  10.211 -1.1472 -0.7416 -0.0984
  285MOL0     C39229   3.545  -0.515  10.138  0.0526  0.9451 -0.3344
  285MOL0     C39230   3.453  -0.605  10.219 -0.6428  0.0867  0.5943
  285MOL0     C39231   3.523  -0.723  10.283 -0.8509  0.8390  0.2395
  285MOL0     C39232   3.426  -0.832  10.305  1.0487 -0.0249  0.2281
  285MOL0     C39233   3.474  -0.952  10.391 -0.0391  0.4102  0.5101
  285MOL0     C39234   3.563  -1.055  10.323  0.4645 -0.3672  0.3180
  285MOL0     C39235   3.512  -1.116  10.183  0.5994  0.5318 -0.2711
  285MOL0     C39236   3.372  -1.178  10.201  0.1719  0.3191 -0.1048
  285MOL0    Cl39237   3.414  -1.321  10.309  0.0171  0.4856  0.0220
  285MOL0     C39238   3.877  -0.368  10.208 -0.1355  0.2309  0.0359
  285MOL0     C39239   3.982  -0.294  10.154 -0.8643  0.7424 -0.7611
  285MOL0     O39240   4.263  -0.294  10.005  0.3427  0.3677  0.1372
  285MOL0     C39241   4.267   0.053   9.940 -0.8187 -0.1924 -1.3445
  285MOL0     C39242   4.345   0.166   9.961 -0.0665 -0.3616 -0.2914
  285MOL0     N39243   5.118   0.583  10.079  0.5944 -0.0898  0.1833
  285MOL0     N39244   5.189   0.646   9.993 -0.1022 -0.3622 -1.0201
  285MOL0     C39245   5.580   1.336   9.743 -0.0125 -1.1504 -0.6989
  285MOL0     C39246   5.687   1.321   9.830  0.3617 -0.4982  0.5070
  285MOL0     C39247   6.128   1.195   9.949 -0.6108 -0.9348 -0.0990
  285MOL0     C39248   6.106   1.298  10.055  1.2173  0.8930  0.6310
  285MOL0     C39249   6.201   1.301  10.154 -0.1617  0.4599  0.5005
  285MOL0     C39250   6.326   1.241  10.153  0.1213 -0.3060 -0.2934
  285MOL0     O39251   6.415   1.266  10.258  0.5518 -0.3174  0.3371
  285MOL0     C39252   6.552   1.230  10.257  0.2540  0.2735 -0.4312
  285MOL0     C39253   6.589   1.113  10.351 -0.7990  0.2859  0.2935
  285MOL0     C39254   6.559   1.154  10.496  0.1654 -0.0548 -1.3754
  285MOL0     C39255   6.417   1.116  10.541 -0.3312 -0.3275 -0.4188
  285MOL0     C39256   6.415   1.135  10.686  1.0619 -1.2606 -0.2254
  285MOL0     C39257   6.405   1.142  10.804 -0.2921  0.3951 -0.2757
  285MOL0     C39258   6.354   1.152  10.050 -1.1966 -0.6458  0.3006
  285MOL0     C39259   6.261   1.128   9.946  0.9026  0.2528 -0.3464
  285MOL0     C39260   6.315   1.025   9.848 -1.0343  0.1139  0.0371
  285MOL0     H39261   5.825   1.049   9.659 -0.9836 -0.6562 -3.7927
  285MOL0     H39262   5.616   1.081   9.529 -2.7656  2.7145 -2.1194
  285MOL0     H39263   5.368   1.441   9.605 -0.0635  0.5724  1.6836
  285MOL0     H39264   5.315   1.303   9.709  1.1830 -3.3905 -0.8251
  285MOL0     H39265   5.155   1.407   9.533  1.9384  1.4073  1.2614
  285MOL0     H39266   5.247   1.309   9.419  0.5995 -1.1676 -0.9140
  285MOL0     H39267   5.104   1.200   9.652  1.4043  1.4697  0.7758
  285MOL0     H39268   5.050   1.186   9.479  1.7847 -2.7582 -1.2858
  285MOL0     H39269   5.271   1.082   9.439 -0.2489 -1.9898  0.8292
  285MOL0     H39270   5.266   1.048   9.618 -0.9899  0.9055  1.9212
  285MOL0     H39271   5.035   0.976   9.444  3.2426 -1.1953 -2.2244
  285MOL0     H39272   5.037   0.976   9.619  0.8927  3.2418  1.2131
  285MOL0     H39273   5.149   0.772   9.451 -2.7057  4.7193 -2.8154
  285MOL0     H39274   5.273   0.842   9.555  0.1288  2.2532 -3.3716
  285MOL0     H39275   5.178   0.640   9.664 -0.9482 -0.6440 -2.4194
  285MOL0     H39276   5.023   0.719   9.653  0.0512  0.3072 -3.0155
  285MOL0     H39277   5.275   0.796   9.812 -0.2851  0.1948 -2.3238
  285MOL0     H39278   5.140   0.903   9.813 -0.5039 -0.4375  0.2724
  285MOL0     H39279   4.901   0.700   9.864  0.6852  0.2333 -1.3950
  285MOL0     H39280   4.835   0.650  10.174  0.7536  1.6353 -2.0794
  285MOL0     H39281   4.888   0.480  10.181  0.9472 -1.4033 -0.8181
  285MOL0     H39282   4.720   0.621   9.966  4.3026  2.1545  0.3458
  285MOL0     H39283   4.787   0.460   9.941 -0.8583 -1.0643 -0.8410
  285MOL0     H39284   4.662   0.400  10.171 -2.2137 -0.9388  0.4596
  285MOL0     H39285   4.585   0.562  10.143 -1.9913 -1.1772  0.2521
  285MOL0     H39286   4.421   0.418  10.060 -1.4416 -0.1640 -2.8913
  285MOL0     H39287   4.534   0.425   9.911  2.4161 -0.6476  0.2340
  285MOL0     H39288   4.579   0.034  10.156 -1.2001 -1.8295  0.0506
  285MOL0     H39289   4.385  -0.237  10.202 -0.7356  1.1589 -1.5832
  285MOL0     H39290   4.550  -0.170  10.216  1.5235 -1.9737  0.4451
  285MOL0     H39291   4.490  -0.264  10.068 -1.7935 -0.2056 -0.5200
  285MOL0     H39292   3.840  -0.219   9.863  0.6445 -2.1997 -0.8259
  285MOL0     H39293   3.647  -0.350   9.963  1.8323  0.0333  0.8612
  285MOL0     H39294   3.496  -0.426  10.098 -0.4208  2.3870  3.0816
  285MOL0     H39295   3.571  -0.573  10.049 -5.4993  0.8487 -2.3274
  285MOL0     H39296   3.408  -0.556  10.306  0.9629  0.9633  0.9821
  285MOL0     H39297   3.377  -0.638  10.148 -0.1169 -0.0177  0.0683
  285MOL0     H39298   3.563  -0.696  10.381  0.3848 -1.0000  0.2924
  285MOL0     H39299   3.608  -0.739  10.216 -1.0067  3.5266 -0.7218
  285MOL0     H39300   3.400  -0.870  10.206 -1.2532  0.6832  0.4822
  285MOL0     H39301   3.349  -0.782  10.365 -0.6006 -0.5606 -1.3385
  285MOL0     H39302   3.527  -0.906  10.474  0.4783  0.9315 -0.0929
  285MOL0     H39303   3.393  -1.003  10.444 -0.1267  0.6548  0.6100
  285MOL0     H39304   3.590  -1.141  10.384 -1.0014 -2.1960 -1.4784
  285MOL0     H39305   3.654  -1.000  10.297  0.5635 -0.7674 -0.2077
  285MOL0     H39306   3.586  -1.186  10.142  1.9441  0.7039  1.7217
  285MOL0     H39307   3.518  -1.038  10.106 -0.6261 -0.4270 -1.3814
  285MOL0     H39308   3.334  -1.210  10.103  2.1469 -1.6154 -0.3207
  285MOL0     H39309   3.308  -1.103  10.250  1.0580  1.7822 -1.1119
  285MOL0     H39310   3.885  -0.404  10.310 -1.8410  1.3936  0.6382
  285MOL0     H39311   4.067  -0.282  10.222  1.5973  0.3915 -3.5549
  285MOL0     H39312   4.167   0.067   9.900 -2.6583 -2.0811  2.0942
  285MOL0     H39313   4.304   0.258   9.921 -0.3233 -1.5206 -2.8325
  285MOL0     H39314   5.514   1.413   9.779  2.1379 -0.2173  1.5431
  285MOL0     H39315   5.682   1.387   9.916 -2.9002 -0.9819  0.8419
  285MOL0     H39316   6.018   1.360  10.061  2.5320  3.1980 -1.7993
  285MOL0     H39317   6.181   1.369  10.236 -2.9277  1.3130 -0.7877
  285MOL0     H39318   6.576   1.203  10.153 -1.4773  5.6517 -2.5811
  285MOL0     H39319   6.597   1.327  10.278 -3.4059  1.9062  0.5829
  285MOL0     H39320   6.694   1.090  10.330 -0.6413  0.2776  1.0752
  285MOL0     H39321   6.535   1.026  10.311  1.0837  0.1432 -2.2194
  285MOL0     H39322   6.638   1.108  10.556 -0.2447  0.5705 -0.3334
  285MOL0     H39323   6.564   1.262  10.514  2.8012 -0.5931  2.0647
  285MOL0     H39324   6.390   1.012  10.521 -0.9674 -0.2502 -0.0198
  285MOL0     H39325   6.338   1.176  10.496 -2.2740 -1.5297  1.1874
  285MOL0     H39326   6.403   1.138  10.911  0.8319 -1.4907 -0.2864
  285MOL0     H39327   6.453   1.108  10.039 -0.2236  1.5195 -0.2452
  285MOL0     H39328   6.424   1.023   9.846 -0.9024  1.4008  2.3780
  285MOL0     H39329   6.275   0.928   9.879  0.2736  0.5898  3.5943
  285MOL0     H39330   6.279   1.058   9.750 -0.0434  1.1440 -0.0034
  286MOL0     O39331   6.523   8.393  10.021 -0.0093  0.1610  0.1427
  286MOL0     C39332   6.422   8.358   9.965 -0.7136 -0.6898 -0.2690
  286MOL0     O39333   6.308   8.325  10.037 -0.7088 -0.4179  0.2260
  286MOL0     C39334   6.183   8.360   9.992  0.9855  0.1415 -0.8647
  286MOL0     C39335   6.135   8.491   9.970 -0.2573 -0.5212  0.8225
  286MOL0     C39336   6.015   8.520   9.909  0.1467  0.1806 -0.7859
  286MOL0     C39337   5.929   8.419   9.874 -0.2662  0.6426  0.4778
  286MOL0     O39338   5.813   8.462   9.814 -0.1875  0.2905 -0.0407
  286MOL0     C39339   5.751   8.398   9.702 -0.0564 -0.8645 -0.2006
  286MOL0     C39340   5.845   8.374   9.589 -0.4658  0.5352 -0.2071
  286MOL0     C39341   5.770   8.302   9.470 -0.2299 -0.5569  0.8601
  286MOL0     C39342   5.806   8.363   9.340 -0.0587 -0.0555  0.9047
  286MOL0     C39343   5.797   8.271   9.227 -0.0174  0.1723 -0.3612
  286MOL0     C39344   5.649   8.246   9.201  0.0360 -0.7118  0.3405
  286MOL0     C39345   5.616   8.132   9.102 -0.5508  1.0323  0.2874
  286MOL0     C39346   5.562   8.173   8.962 -0.8114 -0.2451  0.7300
  286MOL0     N39347   5.444   8.257   8.965 -0.0680 -0.3763  0.6087
  286MOL0     C39348   5.344   8.272   9.061 -0.5720 -0.1509 -0.9554
  286MOL0     C39349   5.236   8.327   8.996  0.0054 -0.0030 -0.5071
  286MOL0     C39350   5.095   8.333   9.044  0.1765 -0.6274  0.5385
  286MOL0     C39351   4.994   8.294   8.935 -0.5395 -1.2054  0.7116
  286MOL0     C39352   5.016   8.150   8.880 -0.5883  0.2204  0.1373
  286MOL0     C39353   5.001   8.142   8.734  0.1959  1.2472 -0.2903
  286MOL0     O39354   5.049   8.005   8.688  0.1691 -0.3810  0.3627
  286MOL0     C39355   4.972   7.887   8.710 -0.2173  0.3670 -0.1932
  286MOL0     C39356   5.038   7.768   8.679 -0.3789  0.2954  1.2715
  286MOL0     C39357   4.983   7.648   8.714  0.1954  0.1125 -0.7600
  286MOL0     C39358   5.077   7.526   8.701  0.0419  0.0498 -0.0849
  286MOL0     C39359   4.845   7.640   8.760  0.4426  0.6845 -0.3985
  286MOL0     C39360   4.770   7.514   8.784  0.1019  0.1844  0.2637
  286MOL0     O39361   4.651   7.523   8.844  0.2137 -0.6502 -0.0187
  286MOL0     C39362   4.569   7.405   8.851  0.9420 -0.2661  0.0843
  286MOL0     C39363   4.510   7.352   8.738 -0.1257 -0.4972 -0.5230
  286MOL0     C39364   4.440   7.233   8.733 -0.4505  0.1936  0.4967
  286MOL0     C39365   4.435   7.146   8.843  0.4103  0.4048 -0.7266
  286MOL0     O39366   4.383   7.019   8.848 -0.6047 -0.1906  0.2342
  286MOL0     C39367   4.307   6.961   8.739  0.3595  0.8118  0.4599
  286MOL0     C39368   4.170   7.038   8.721 -0.7700 -0.0777  0.4101
  286MOL0     C39369   4.069   6.942   8.645 -0.4283  0.2160  0.4509
  286MOL0     C39370   3.928   6.996   8.642 -0.4292  0.1811 -0.0125
  286MOL0     C39371   3.844   6.913   8.541 -0.3081  0.4477 -0.7569
  286MOL0     C39372   3.702   6.965   8.525 -0.7416  0.2036  0.3182
  286MOL0     C39373   3.619   6.893   8.408  0.4651  0.8896 -0.3101
  286MOL0     C39374   3.568   6.761   8.466 -0.4516  0.8557  0.4654
  286MOL0    Cl39375   3.482   6.786   8.614 -0.2549  0.0332  0.2731
  286MOL0     C39376   4.490   7.201   8.963  0.0743  0.5378 -0.2554
  286MOL0     C39377   4.563   7.329   8.967 -0.0339 -0.3410 -0.0330
  286MOL0     O39378   4.815   7.416   8.736 -0.8745  0.1918  0.1293
  286MOL0     C39379   4.783   7.764   8.782 -0.4335  0.8086  0.1397
  286MOL0     C39380   4.842   7.886   8.762 -0.2342 -0.8454  1.0177
  286MOL0     N39381   5.286   8.359   8.872  0.2209  0.4635 -0.0314
  286MOL0     N39382   5.404   8.320   8.851  0.5320  0.5185  0.4067
  286MOL0     C39383   5.971   8.286   9.891  0.6138  0.7799 -0.6917
  286MOL0     C39384   6.095   8.253   9.957  0.0299  0.2054  0.0899
  286MOL0     C39385   6.419   8.353   9.819  0.5753 -0.0277  0.1653
  286MOL0     C39386   6.361   8.242   9.749 -0.4661  0.7198 -0.9931
  286MOL0     C39387   6.354   8.228   9.616  0.4925  0.0628  0.4377
  286MOL0     C39388   6.407   8.323   9.528 -0.1277  0.2702 -0.2102
  286MOL0     O39389   6.399   8.305   9.388 -0.8704  0.4043  0.0823
  286MOL0     C39390   6.470   8.389   9.295  0.5270  0.5116 -0.3510
  286MOL0     C39391   6.384   8.515   9.285 -1.1602  0.9649  0.4474
  286MOL0     C39392   6.234   8.492   9.245  0.3242  0.6310  0.5878
  286MOL0     C39393   6.137   8.579   9.330 -0.6347 -0.1679  0.9113
  286MOL0     C39394   6.144   8.573   9.476  0.2086 -0.1337 -0.3001
  286MOL0     C39395   6.155   8.588   9.595 -0.3880  0.1342  0.0670
  286MOL0     C39396   6.478   8.428   9.595  1.0656 -0.2698  0.8500
  286MOL0     C39397   6.482   8.447   9.730 -0.8756  0.1376 -0.2394
  286MOL0     C39398   6.543   8.589   9.769 -0.2526  1.2642  1.3879
  286MOL0     H39399   6.194   8.580   9.988  0.2782 -0.8915  0.9271
  286MOL0     H39400   5.987   8.622   9.882  0.5578  0.8943  1.2933
  286MOL0     H39401   5.681   8.466   9.652  0.7815 -0.6589 -1.1319
  286MOL0     H39402   5.703   8.304   9.730  2.8776 -2.2167  0.7305
  286MOL0     H39403   5.881   8.474   9.564 -0.4050  0.5254 -0.1581
  286MOL0     H39404   5.936   8.320   9.618 -0.9154  0.3917  0.9844
  286MOL0     H39405   5.806   8.199   9.475 -1.5112 -0.9919  1.4957
  286MOL0     H39406   5.661   8.304   9.479 -0.5891 -3.6885 -1.2788
  286MOL0     H39407   5.733   8.441   9.317  2.4351  1.8606 -1.2645
  286MOL0     H39408   5.903   8.413   9.329 -0.2719 -0.1891 -3.0180
  286MOL0     H39409   5.846   8.175   9.248  2.0203  1.6701  2.3499
  286MOL0     H39410   5.846   8.312   9.138 -0.3548  0.4546 -0.4211
  286MOL0     H39411   5.591   8.241   9.294  0.5230 -2.1234  0.5918
  286MOL0     H39412   5.625   8.342   9.154  0.8159  0.1909  1.7155
  286MOL0     H39413   5.533   8.072   9.142 -1.4464  0.6597 -1.9709
  286MOL0     H39414   5.706   8.072   9.091 -2.9737 -3.3720  1.7792
  286MOL0     H39415   5.638   8.224   8.903 -0.8884 -1.6521 -0.6331
  286MOL0     H39416   5.544   8.081   8.907 -0.2720 -0.6392  1.2064
  286MOL0     H39417   5.353   8.222   9.157  1.4403 -0.2614 -1.1553
  286MOL0     H39418   5.069   8.431   9.084 -1.2591 -1.3770  1.5273
  286MOL0     H39419   5.093   8.257   9.123 -1.3842 -1.7863 -0.5590
  286MOL0     H39420   4.893   8.303   8.978  0.3115 -0.3718  2.6226
  286MOL0     H39421   5.009   8.365   8.853  2.3292 -0.5812  1.6896
  286MOL0     H39422   5.116   8.115   8.909  0.4112  2.5135 -0.3065
  286MOL0     H39423   4.940   8.083   8.922 -1.4992  0.9627 -0.2938
  286MOL0     H39424   4.895   8.159   8.715 -0.0988 -0.3071 -0.2266
  286MOL0     H39425   5.065   8.211   8.679  2.2520  2.0347  2.7804
  286MOL0     H39426   5.142   7.758   8.649 -0.5636 -1.3767  1.0525
  286MOL0     H39427   5.183   7.552   8.694 -0.3713  2.0725  0.3372
  286MOL0     H39428   5.047   7.482   8.605 -1.4103  3.0526 -1.1456
  286MOL0     H39429   5.058   7.457   8.783 -0.7914  2.6020  2.0275
  286MOL0     H39430   4.494   7.421   8.656 -1.9219 -1.2989 -0.8861
  286MOL0     H39431   4.381   7.199   8.648  0.9867  0.4958 -0.6463
  286MOL0     H39432   4.358   6.945   8.644 -0.3111 -0.8129  0.3386
  286MOL0     H39433   4.281   6.859   8.771 -1.7997  0.3215 -2.4979
  286MOL0     H39434   4.120   7.061   8.816  0.1017 -0.2281  0.9175
  286MOL0     H39435   4.185   7.132   8.669  1.2368 -0.6775 -0.1739
  286MOL0     H39436   4.068   6.847   8.699 -0.0970 -1.3633 -2.1441
  286MOL0     H39437   4.097   6.931   8.540 -1.8901  0.0267  0.0627
  286MOL0     H39438   3.938   7.099   8.607  0.6702 -0.1624 -0.7807
  286MOL0     H39439   3.901   6.999   8.748  3.5261  0.1469  1.1804
  286MOL0     H39440   3.887   6.903   8.440 -1.4683 -5.0649 -1.0022
  286MOL0     H39441   3.836   6.811   8.579 -5.0225  0.5820 -0.8174
  286MOL0     H39442   3.712   7.074   8.519  1.9966 -0.0633 -1.9939
  286MOL0     H39443   3.656   6.941   8.621 -0.4058 -4.1677 -0.4311
  286MOL0     H39444   3.681   6.873   8.320  1.1009  4.6250 -0.8556
  286MOL0     H39445   3.540   6.963   8.379 -0.4149 -1.2142 -3.6071
  286MOL0     H39446   3.649   6.696   8.500  0.1738  2.6513  2.6387
  286MOL0     H39447   3.509   6.700   8.396 -0.6397  1.2276  0.2922
  286MOL0     H39448   4.501   7.135   9.049  1.3346  0.1641 -0.6731
  286MOL0     H39449   4.603   7.353   9.065  1.3778 -1.5621 -0.2814
  286MOL0     H39450   4.677   7.763   8.806 -0.1144  1.2240  1.6528
  286MOL0     H39451   4.782   7.975   8.776  1.1036  0.0669  1.1041
  286MOL0     H39452   5.902   8.210   9.858  0.5087  1.2091 -1.4780
  286MOL0     H39453   6.126   8.150   9.970  2.2877  0.9377  0.8559
  286MOL0     H39454   6.327   8.155   9.804 -1.0839  0.7453 -1.3216
  286MOL0     H39455   6.330   8.128   9.579  0.7891  1.2535 -3.4864
  286MOL0     H39456   6.570   8.416   9.331 -0.2683  4.0591 -0.4955
  286MOL0     H39457   6.487   8.334   9.201  3.0063  0.9723 -0.2266
  286MOL0     H39458   6.430   8.595   9.225  2.5109  1.0186  2.9966
  286MOL0     H39459   6.378   8.563   9.384  0.8773  2.5456 -0.1106
  286MOL0     H39460   6.236   8.523   9.140  0.0574  1.3300  0.7857
  286MOL0     H39461   6.188   8.392   9.245 -2.0745  1.6445 -1.2457
  286MOL0     H39462   6.035   8.566   9.293  0.0696 -0.0065 -1.2296
  286MOL0     H39463   6.168   8.684   9.322  3.7344 -1.1557  2.4012
  286MOL0     H39464   6.171   8.605   9.699 -1.0807  2.5488 -0.1758
  286MOL0     H39465   6.541   8.500   9.545 -0.0325  0.1977  0.1149
  286MOL0     H39466   6.476   8.675   9.762 -0.4438  1.0634  0.6800
  286MOL0     H39467   6.596   8.586   9.865  1.3553  1.7335  0.5525
  286MOL0     H39468   6.621   8.603   9.694 -0.4412  0.5500  1.0475
  287MOL0     O39469   5.401   3.171   9.645 -0.5391 -0.5911 -0.4896
  287MOL0     C39470   5.353   3.087   9.726 -0.2800  0.0851  0.7741
  287MOL0     O39471   5.404   2.958   9.748 -0.6736 -0.2333 -0.4341
  287MOL0     C39472   5.498   2.904   9.665  0.1193  0.3329 -0.3284
  287MOL0     C39473   5.457   2.831   9.555  0.5338  0.5431  0.7662
  287MOL0     C39474   5.546   2.770   9.477  0.7203  1.3511  0.9944
  287MOL0     C39475   5.679   2.778   9.518  0.6114 -0.0725  1.2617
  287MOL0     O39476   5.781   2.756   9.429 -0.2954 -0.3930 -0.3012
  287MOL0     C39477   5.753   2.786   9.290 -1.2727 -0.5061  0.4290
  287MOL0     C39478   5.754   2.668   9.193  1.1238 -0.4068 -0.4516
  287MOL0     C39479   5.777   2.712   9.049 -0.3833  0.7711  0.7747
  287MOL0     C39480   5.840   2.603   8.954 -0.5874  0.1402 -0.5035
  287MOL0     C39481   5.849   2.659   8.804 -0.8352 -0.3535  0.1847
  287MOL0     C39482   5.938   2.564   8.724 -0.5017  0.1846  0.1895
  287MOL0     C39483   5.855   2.448   8.670  0.9066 -0.5633  0.3001
  287MOL0     C39484   5.928   2.368   8.561 -0.3705  0.1209  0.3673
  287MOL0     N39485   5.992   2.442   8.453  0.0212 -0.0629 -0.6273
  287MOL0     C39486   5.929   2.521   8.351 -0.4062  0.1148 -0.3415
  287MOL0     C39487   6.027   2.590   8.290  1.0746  0.1016  0.1451
  287MOL0     C39488   6.023   2.698   8.182 -0.0405 -0.2297  0.2258
  287MOL0     C39489   6.036   2.637   8.041 -1.1585  0.3994  0.3249
  287MOL0     C39490   6.035   2.746   7.929 -1.1953  0.3106  0.2128
  287MOL0     C39491   6.112   2.704   7.806  0.4243 -0.5014 -0.0641
  287MOL0     O39492   6.077   2.572   7.765  0.2967  0.6436  0.2103
  287MOL0     C39493   5.980   2.553   7.676  0.1957  1.2162 -0.3433
  287MOL0     C39494   5.985   2.428   7.626  0.3850  1.2322  0.3365
  287MOL0     C39495   5.899   2.387   7.521 -0.3935  0.4233  0.4675
  287MOL0     C39496   5.909   2.252   7.467  0.5516  0.2197  0.1452
  287MOL0     C39497   5.799   2.479   7.468  0.3404  0.9464 -0.1723
  287MOL0     C39498   5.714   2.458   7.347 -0.0720  0.4510  0.5116
  287MOL0     O39499   5.597   2.520   7.358  0.3136 -0.0801 -0.0163
  287MOL0     C39500   5.506   2.522   7.258 -0.9098 -0.1372  1.3625
  287MOL0     C39501   5.536   2.533   7.119  0.2128 -0.1580  0.8953
  287MOL0     C39502   5.432   2.516   7.024 -0.0785 -0.6622 -0.4716
  287MOL0     C39503   5.297   2.488   7.058  0.2059  1.0614  0.0125
  287MOL0     O39504   5.191   2.463   6.970  0.1149  0.6508 -0.3706
  287MOL0     C39505   5.211   2.518   6.838 -0.1406  0.3743 -0.4552
  287MOL0     C39506   5.096   2.532   6.742 -0.2459  0.7961  0.3753
  287MOL0     C39507   5.077   2.405   6.648  0.4137 -0.1574  0.5207
  287MOL0     C39508   4.940   2.426   6.575  0.3207 -0.3281 -0.1060
  287MOL0     C39509   4.897   2.307   6.486  0.8216 -0.0119 -0.3802
  287MOL0     C39510   4.893   2.183   6.583  0.1820 -1.4737  0.0863
  287MOL0     C39511   4.809   2.071   6.528  0.3989  1.5778 -0.5735
  287MOL0     C39512   4.801   1.955   6.632 -0.4810  0.8448  0.4447
  287MOL0    Cl39513   4.960   1.882   6.676 -0.0208 -0.8147  0.2487
  287MOL0     C39514   5.273   2.472   7.196 -0.7200 -0.3018  0.2812
  287MOL0     C39515   5.375   2.491   7.293  0.8221  0.2476  0.5171
  287MOL0     O39516   5.760   2.411   7.245  0.4130  0.3262 -0.1334
  287MOL0     C39517   5.788   2.600   7.530 -0.1841  0.2159  0.1019
  287MOL0     C39518   5.879   2.640   7.627 -0.4243  0.0824 -0.2804
  287MOL0     N39519   6.148   2.528   8.328 -0.1750 -0.4789  0.2165
  287MOL0     N39520   6.125   2.452   8.435 -0.8312 -0.2216 -0.0129
  287MOL0     C39521   5.723   2.843   9.628  0.2192 -0.3092 -0.4297
  287MOL0     C39522   5.632   2.907   9.705  1.1029  0.7071  0.1630
  287MOL0     C39523   5.232   3.124   9.818 -0.0767 -1.2237 -0.0975
  287MOL0     C39524   5.191   3.023   9.921 -0.6778  0.1258  0.1658
  287MOL0     C39525   5.094   3.045  10.013 -0.4210  0.4293 -1.1341
  287MOL0     C39526   5.031   3.169  10.022 -0.1313 -0.2396  0.9752
  287MOL0     O39527   4.939   3.201  10.124 -0.4707 -0.3983 -0.4097
  287MOL0     C39528   4.797   3.193  10.094  0.8092 -0.0439 -0.4930
  287MOL0     C39529   4.726   3.321  10.124  0.4199 -0.3798 -0.6143
  287MOL0     C39530   4.575   3.315  10.103  0.8602  1.3764  0.5129
  287MOL0     C39531   4.540   3.334   9.960  0.3718 -0.2620 -0.3534
  287MOL0     C39532   4.392   3.321   9.944 -0.3697 -0.3648  1.0686
  287MOL0     C39533   4.277   3.303   9.951  0.7284  0.4161 -1.8088
  287MOL0     C39534   5.051   3.264   9.921  0.3035  0.0322  0.3229
  287MOL0     C39535   5.154   3.252   9.822 -0.1934  0.6812 -0.9920
  287MOL0     C39536   5.177   3.357   9.720  0.5474 -0.5833 -0.8834
  287MOL0     H39537   5.351   2.849   9.534  0.6678  1.4874  0.8603
  287MOL0     H39538   5.509   2.725   9.386  2.0448 -0.9018  1.4898
  287MOL0     H39539   5.845   2.837   9.260 -0.3837 -0.0888  3.4957
  287MOL0     H39540   5.671   2.857   9.273 -0.3127  0.3390 -0.8385
  287MOL0     H39541   5.843   2.615   9.230 -1.6437 -3.7960  1.9599
  287MOL0     H39542   5.668   2.602   9.204 -4.1472  5.5593 -0.1212
  287MOL0     H39543   5.685   2.736   8.995 -0.5493 -2.0762 -0.4040
  287MOL0     H39544   5.850   2.793   9.053  2.4667 -1.6695  1.7584
  287MOL0     H39545   5.933   2.588   9.009 -1.5135  0.3682  1.1902
  287MOL0     H39546   5.778   2.512   8.951 -0.7336  0.1877  0.5480
  287MOL0     H39547   5.893   2.759   8.793 -2.0213  0.2193  0.4550
  287MOL0     H39548   5.748   2.666   8.763 -1.0292  2.3919  0.8835
  287MOL0     H39549   5.969   2.622   8.637  2.1596 -0.1572  0.8115
  287MOL0     H39550   6.024   2.528   8.782 -0.0443  1.2756  0.2148
  287MOL0     H39551   5.758   2.485   8.635  0.9095 -0.9040 -0.0779
  287MOL0     H39552   5.828   2.388   8.757 -2.5664 -1.0287 -0.9248
  287MOL0     H39553   5.996   2.299   8.610 -1.1571  0.2471  1.6935
  287MOL0     H39554   5.849   2.302   8.522 -2.2151  2.0718  0.6234
  287MOL0     H39555   5.822   2.539   8.341 -0.2223  1.7591  0.2776
  287MOL0     H39556   6.117   2.750   8.203  1.7514 -3.8340  2.1153
  287MOL0     H39557   5.955   2.782   8.198  1.3737  1.2630 -1.1579
  287MOL0     H39558   6.125   2.574   8.031 -1.4839  0.0712 -0.6995
  287MOL0     H39559   5.956   2.563   8.031  1.4061 -2.7863  1.5923
  287MOL0     H39560   5.930   2.758   7.900 -0.4766  1.9666 -1.9791
  287MOL0     H39561   6.077   2.843   7.959 -1.8621  0.3198  1.1721
  287MOL0     H39562   6.081   2.767   7.723 -0.1549 -5.6842 -4.3637
  287MOL0     H39563   6.219   2.715   7.826  1.0092  0.1955 -3.0671
  287MOL0     H39564   6.057   2.350   7.650 -0.3989 -0.6632 -2.8233
  287MOL0     H39565   6.010   2.214   7.488  0.9400  0.8764 -0.4924
  287MOL0     H39566   5.891   2.265   7.360 -2.5180  0.7270  0.6356
  287MOL0     H39567   5.838   2.181   7.510  1.7581 -0.3136  1.3343
  287MOL0     H39568   5.633   2.537   7.070 -0.7515 -4.1342 -1.8518
  287MOL0     H39569   5.445   2.525   6.917  1.1646  1.8997 -0.1728
  287MOL0     H39570   5.258   2.615   6.853  2.1140 -0.9103  1.2892
  287MOL0     H39571   5.278   2.448   6.787  0.1089 -0.8658  1.4632
  287MOL0     H39572   5.001   2.551   6.792  1.3976  1.4328  3.5052
  287MOL0     H39573   5.121   2.615   6.675 -1.7554  1.6657  0.8658
  287MOL0     H39574   5.079   2.318   6.714  0.9809 -0.3276  0.2813
  287MOL0     H39575   5.161   2.408   6.578  2.8421  1.4647  3.2774
  287MOL0     H39576   4.951   2.525   6.531  1.0048 -0.0121  0.7400
  287MOL0     H39577   4.857   2.440   6.645 -1.8460 -3.0223 -1.8957
  287MOL0     H39578   4.801   2.322   6.437  2.2946 -3.0242 -4.8553
  287MOL0     H39579   4.968   2.285   6.406  2.1208  0.5194  0.5900
  287MOL0     H39580   4.848   2.203   6.681 -0.3059 -1.4438 -0.1399
  287MOL0     H39581   4.997   2.148   6.582  0.4301 -0.7519 -0.1638
  287MOL0     H39582   4.849   2.038   6.431  0.3661 -2.3145  0.5706
  287MOL0     H39583   4.707   2.107   6.511  0.6190  1.5488 -2.1810
  287MOL0     H39584   4.745   1.877   6.580  3.0177 -2.1977  0.8669
  287MOL0     H39585   4.758   1.982   6.729  2.8802 -1.7596  2.8841
  287MOL0     H39586   5.175   2.440   7.231 -0.0263 -2.1252  0.7041
  287MOL0     H39587   5.347   2.485   7.398 -1.1029  6.0048  0.6901
  287MOL0     H39588   5.715   2.675   7.501  1.3844  1.8242  0.1286
  287MOL0     H39589   5.890   2.745   7.651 -1.2774  1.3120 -4.3688
  287MOL0     H39590   5.831   2.849   9.633  0.1294  0.3886  1.0224
  287MOL0     H39591   5.667   2.959   9.794  0.7523  1.4326 -0.1230
  287MOL0     H39592   5.241   2.927   9.924  0.8503  0.8555 -0.3933
  287MOL0     H39593   5.073   2.977  10.096  1.3265  2.0980  0.7949
  287MOL0     H39594   4.779   3.150   9.995  0.5994 -0.1474 -0.4112
  287MOL0     H39595   4.751   3.113  10.154  0.4098 -0.8237 -1.7918
  287MOL0     H39596   4.768   3.402  10.064 -0.1602 -0.6341 -1.3903
  287MOL0     H39597   4.741   3.349  10.228  1.1467  1.4518 -1.1670
  287MOL0     H39598   4.528   3.225  10.142  2.0213 -0.1538 -1.4519
  287MOL0     H39599   4.537   3.400  10.161  0.8339  1.6703  0.0711
  287MOL0     H39600   4.596   3.266   9.896  2.3322  0.1921  0.7685
  287MOL0     H39601   4.568   3.436   9.930  0.3969 -1.5608 -5.7070
  287MOL0     H39602   4.174   3.273   9.955  1.2308 -1.4624  2.1034
  287MOL0     H39603   4.998   3.359   9.919 -0.3688 -0.3035  1.2801
  287MOL0     H39604   5.116   3.445   9.746 -2.1255 -2.6998  0.4647
  287MOL0     H39605   5.280   3.390   9.700 -0.2954  0.7788 -3.5123
  287MOL0     H39606   5.148   3.312   9.625  2.4497 -0.6853 -1.4630
  288MOL0     O39607   6.358   6.172   0.845  0.5422  0.7562 -0.5293
  288MOL0     C39608   6.388   6.070   0.914  0.0047 -0.4876  0.4333
  288MOL0     O39609   6.324   5.946   0.908 -0.5946 -0.6535  0.2030
  288MOL0     C39610   6.220   5.946   0.822 -0.2115  0.2693 -0.0312
  288MOL0     C39611   6.253   5.910   0.694 -0.0470  0.1943  0.5341
  288MOL0     C39612   6.157   5.930   0.599 -0.7255 -1.2072  0.3079
  288MOL0     C39613   6.024   5.961   0.622 -0.5829 -0.9228  0.0812
  288MOL0     O39614   5.946   5.964   0.511 -0.1905 -0.0623  0.3337
  288MOL0     C39615   5.803   5.993   0.522 -0.0150  0.6279 -0.1328
  288MOL0     C39616   5.718   5.895   0.442 -0.3878  0.4236  0.1221
  288MOL0     C39617   5.744   5.910   0.290 -0.2502 -0.5620  0.2188
  288MOL0     C39618   5.603   5.887   0.216 -0.7321  0.3323 -0.0229
  288MOL0     C39619   5.550   5.750   0.252 -0.2273 -0.0108 -0.0254
  288MOL0     C39620   5.429   5.729   0.150 -0.4238 -0.4718 -0.1614
  288MOL0     C39621   5.333   5.608   0.186 -0.2679  1.0473 -0.1352
  288MOL0     C39622   5.251   5.587   0.051 -0.1024  0.3104 -0.4835
  288MOL0     N39623   5.178   5.469   0.031 -0.5513 -0.5077  0.6243
  288MOL0     C39624   5.225   5.340   0.046  0.1416  0.8842  1.1107
  288MOL0     C39625   5.113   5.267   0.026  0.6530 -0.0798 -0.3568
  288MOL0     C39626   5.121   5.110   0.013 -0.2532 -0.0528  0.2722
  288MOL0     C39627   4.987   5.043   0.007  0.1217 -0.1835 -0.2691
  288MOL0     C39628   4.916   5.055   0.146  0.3130  0.6244 -0.4249
  288MOL0     C39629   4.819   4.933   0.171 -0.2141 -0.6825  0.6508
  288MOL0     O39630   4.897   4.812   0.125 -0.9462  0.3389 -0.5299
  288MOL0     C39631   4.845   4.686   0.130 -0.8848  0.5210 -0.3613
  288MOL0     C39632   4.708   4.662   0.154  0.7070 -0.3602  0.7388
  288MOL0     C39633   4.658   4.526   0.171 -1.1174 -0.5592  0.1896
  288MOL0     C39634   4.513   4.519   0.203 -0.3602  0.2325  0.0460
  288MOL0     C39635   4.741   4.418   0.175 -0.6082 -0.2295 -0.1613
  288MOL0     C39636   4.715   4.276   0.181  0.1244 -0.2194  0.2072
  288MOL0     O39637   4.598   4.228   0.119 -0.5466  0.2792  0.1201
  288MOL0     C39638   4.588   4.089   0.090 -1.2106 -1.1521 -0.7484
  288MOL0     C39639   4.457   4.034   0.050 -0.4181 -1.0031  0.1971
  288MOL0     C39640   4.439   3.896   0.031 -0.5060  0.2294  0.2391
  288MOL0     C39641   4.560   3.813   0.013 -0.6400  0.2404  0.2317
  288MOL0     O39642   4.543   3.677  -0.019 -0.2939  0.3197 -0.4385
  288MOL0     C39643   4.517   3.653  -0.159  0.4758  0.3549 -0.0471
  288MOL0     C39644   4.630   3.599  -0.232 -0.4518  0.2439 -0.1545
  288MOL0     C39645   4.663   3.458  -0.188  0.5237 -0.5418 -0.0642
  288MOL0     C39646   4.594   3.355  -0.277 -0.2704  0.4817 -0.1409
  288MOL0     C39647   4.681   3.237  -0.319 -0.4768  0.1864 -1.2243
  288MOL0     C39648   4.594   3.119  -0.368 -0.2910  1.1716 -0.5415
  288MOL0     C39649   4.676   2.989  -0.418  0.5383  0.1799  0.0093
  288MOL0     C39650   4.737   3.036  -0.550 -0.2823  0.4224  0.4126
  288MOL0    Cl39651   4.810   2.897  -0.638 -0.1453  0.3153  0.1613
  288MOL0     C39652   4.686   3.864   0.041  0.4068 -0.1196  1.1110
  288MOL0     C39653   4.698   4.000   0.072  0.3001  0.5284  0.0722
  288MOL0     O39654   4.787   4.210   0.253 -0.1428  0.0481 -0.1889
  288MOL0     C39655   4.887   4.442   0.162 -0.6228 -0.0363 -0.0044
  288MOL0     C39656   4.936   4.575   0.135  0.0282 -0.0968 -0.7480
  288MOL0     N39657   5.002   5.345  -0.007 -1.2675 -1.0469  0.3829
  288MOL0     N39658   5.043   5.468  -0.003 -0.0418  0.2785 -0.2199
  288MOL0     C39659   5.998   6.003   0.751 -0.3809  0.2387 -0.4418
  288MOL0     C39660   6.096   5.998   0.849  1.0100  0.1568 -0.4398
  288MOL0     C39661   6.472   6.070   1.028 -0.6703 -1.0524 -0.3368
  288MOL0     C39662   6.593   6.010   1.013 -0.5468 -0.6179  0.7009
  288MOL0     C39663   6.678   6.008   1.120  0.2677 -0.7341 -1.0907
  288MOL0     C39664   6.632   6.051   1.247 -0.0980  0.0675  0.0432
  288MOL0     O39665   6.728   6.049   1.347 -0.2744 -0.6035  0.1815
  288MOL0     C39666   6.693   6.076   1.481  0.5970 -0.8643 -0.6397
  288MOL0     C39667   6.814   6.031   1.580  0.6684 -0.6959  0.0550
  288MOL0     C39668   6.839   5.883   1.555 -0.4465 -0.4961 -0.7734
  288MOL0     C39669   6.955   5.855   1.656  0.6181  0.3567  0.9253
  288MOL0     C39670   7.005   5.712   1.648  0.1787 -0.1102 -0.4749
  288MOL0     C39671   7.053   5.598   1.652 -1.7287  0.5430  1.1412
  288MOL0     C39672   6.508   6.093   1.262  0.9074  0.1354  0.5307
  288MOL0     C39673   6.420   6.106   1.153 -0.1837  0.6824 -0.8370
  288MOL0     C39674   6.276   6.153   1.175  0.6717 -1.0135 -0.3627
  288MOL0     H39675   6.354   5.874   0.675 -0.4336  0.1985 -1.7675
  288MOL0     H39676   6.187   5.896   0.500 -0.8258  0.2172 -0.2423
  288MOL0     H39677   5.789   6.098   0.491  1.2244  0.3235 -1.8970
  288MOL0     H39678   5.772   5.971   0.624  2.2224  5.0267  1.7451
  288MOL0     H39679   5.755   5.794   0.459 -0.9629  0.3418  0.9511
  288MOL0     H39680   5.612   5.912   0.465  0.1039  2.2317  1.2371
  288MOL0     H39681   5.774   6.011   0.259  1.8317 -1.6090 -1.3588
  288MOL0     H39682   5.806   5.830   0.250 -1.5836 -2.2034  1.2845
  288MOL0     H39683   5.540   5.976   0.223  1.6682  2.1680 -0.1903
  288MOL0     H39684   5.617   5.893   0.108 -2.6850  1.0289 -0.2637
  288MOL0     H39685   5.504   5.754   0.351 -2.2925 -0.0599 -0.9357
  288MOL0     H39686   5.629   5.675   0.241  1.6739  1.9500 -0.5036
  288MOL0     H39687   5.359   5.812   0.150  0.6482  0.6763 -4.7008
  288MOL0     H39688   5.473   5.728   0.050  3.8870  1.8166  1.4309
  288MOL0     H39689   5.266   5.612   0.272  0.8097  0.7540  0.7409
  288MOL0     H39690   5.409   5.532   0.205  2.3164  3.3379 -0.5985
  288MOL0     H39691   5.182   5.668   0.025 -0.3034  0.4495  0.4359
  288MOL0     H39692   5.325   5.595  -0.030  0.2463 -2.2413 -0.4779
  288MOL0     H39693   5.319   5.296   0.079  0.3158 -0.4628 -0.9795
  288MOL0     H39694   5.185   5.069   0.092  0.2819 -0.4136 -0.3420
  288MOL0     H39695   5.186   5.095  -0.074 -1.4399  1.4937 -0.9171
  288MOL0     H39696   4.922   5.094  -0.064 -3.5217  0.7419  3.3736
  288MOL0     H39697   5.007   4.939  -0.022 -0.8305  0.0725 -1.9652
  288MOL0     H39698   4.989   5.068   0.225  0.9031 -2.5561 -0.3302
  288MOL0     H39699   4.859   5.146   0.169 -1.0844 -0.0651 -1.0296
  288MOL0     H39700   4.783   4.923   0.273 -0.1703 -1.1866  0.6196
  288MOL0     H39701   4.727   4.948   0.113  1.7420  0.2601 -2.5122
  288MOL0     H39702   4.636   4.740   0.132  2.2265  0.1140 -3.2416
  288MOL0     H39703   4.499   4.566   0.301 -2.4074 -2.6282  1.2731
  288MOL0     H39704   4.474   4.417   0.210 -0.5600  0.4231  2.3531
  288MOL0     H39705   4.453   4.579   0.134 -2.8609  1.7830  3.2833
  288MOL0     H39706   4.377   4.106   0.036  1.0541  0.4779 -1.1132
  288MOL0     H39707   4.344   3.846   0.012  0.0239 -0.1505 -1.6423
  288MOL0     H39708   4.424   3.595  -0.153 -0.3847  1.6822 -0.2416
  288MOL0     H39709   4.485   3.744  -0.210 -0.0163 -0.1940 -0.7316
  288MOL0     H39710   4.620   3.585  -0.340  0.9968 -0.2355 -0.2471
  288MOL0     H39711   4.711   3.667  -0.205 -0.3201 -0.9587  2.9264
  288MOL0     H39712   4.649   3.441  -0.081 -0.7619  1.4241  0.1279
  288MOL0     H39713   4.769   3.442  -0.212  0.8386  1.3084 -0.0385
  288MOL0     H39714   4.558   3.391  -0.374 -0.3758  3.1271  0.8022
  288MOL0     H39715   4.509   3.320  -0.218  2.7252  1.0212  5.0894
  288MOL0     H39716   4.743   3.272  -0.402 -0.4727  2.8999 -0.1489
  288MOL0     H39717   4.754   3.214  -0.241 -1.2453 -1.2473 -0.8805
  288MOL0     H39718   4.527   3.146  -0.450 -3.3778 -0.5166  1.2228
  288MOL0     H39719   4.530   3.080  -0.288  1.3858  0.7809  0.6576
  288MOL0     H39720   4.597   2.920  -0.447  0.7060  0.2945 -0.7484
  288MOL0     H39721   4.750   2.950  -0.347 -3.0311 -0.3304  3.7833
  288MOL0     H39722   4.807   3.118  -0.528 -0.9046  0.4639  2.5053
  288MOL0     H39723   4.664   3.078  -0.620  2.3982  2.0599 -1.6140
  288MOL0     H39724   4.773   3.799   0.033  0.5946  0.1011  1.3486
  288MOL0     H39725   4.801   4.028   0.089  0.4492 -0.8653  1.8316
  288MOL0     H39726   4.964   4.366   0.153 -1.8410 -1.2325 -0.6796
  288MOL0     H39727   5.043   4.586   0.121 -0.3272  1.9060 -2.2906
  288MOL0     H39728   5.904   6.053   0.771 -0.3070 -0.2234  1.1688
  288MOL0     H39729   6.089   6.031   0.953 -4.1653 -0.7458 -0.2274
  288MOL0     H39730   6.624   5.991   0.910 -0.9702 -1.0918  0.6616
  288MOL0     H39731   6.782   5.980   1.111  0.2000 -1.0399 -0.9250
  288MOL0     H39732   6.684   6.184   1.494  1.1766 -0.8197 -0.6075
  288MOL0     H39733   6.601   6.026   1.514  0.3848  0.7925  1.5787
  288MOL0     H39734   6.776   6.040   1.682  0.1803 -4.4159  0.3519
  288MOL0     H39735   6.899   6.099   1.572 -0.7921  1.6529  2.6285
  288MOL0     H39736   6.757   5.814   1.574 -1.8685  1.5535  1.0212
  288MOL0     H39737   6.878   5.872   1.453 -1.3697  2.6351 -1.5976
  288MOL0     H39738   6.913   5.870   1.756 -0.6220  0.5170  0.4010
  288MOL0     H39739   7.030   5.933   1.639 -1.5348  1.8618 -3.0695
  288MOL0     H39740   7.095   5.503   1.678  1.3281  1.6858  0.8093
  288MOL0     H39741   6.463   6.123   1.356 -1.2313  2.3590 -1.0641
  288MOL0     H39742   6.203   6.088   1.127 -1.4546  2.4633 -2.2407
  288MOL0     H39743   6.258   6.160   1.283  0.2720  0.5760 -0.5082
  288MOL0     H39744   6.263   6.255   1.137  0.0304 -1.6368 -1.8859
  289MOL0     O39745   9.736   8.837   8.468  1.0052  0.2449  0.3546
  289MOL0     C39746   9.781   8.753   8.398  0.1976  0.3730  0.7536
  289MOL0     O39747   9.917   8.724   8.377 -0.1431 -0.4680  0.1469
  289MOL0     C39748  10.021   8.798   8.438  0.2023 -1.0573  0.5068
  289MOL0     C39749  10.128   8.734   8.486  0.5009 -0.2810 -0.3661
  289MOL0     C39750  10.236   8.808   8.550  0.3110 -0.6780  0.0484
  289MOL0     C39751  10.238   8.949   8.544  0.3831  0.6355 -0.0938
  289MOL0     O39752  10.340   9.024   8.591  0.6752 -0.2147 -0.3445
  289MOL0     C39753  10.414   8.977   8.703  0.0645 -0.3169 -0.0319
  289MOL0     C39754  10.483   9.094   8.769  0.4630 -0.9194 -0.8028
  289MOL0     C39755  10.465   9.101   8.917  0.2796  0.2074 -0.4617
  289MOL0     C39756  10.559   9.220   8.972  0.2788  0.5203 -0.3534
  289MOL0     C39757  10.554   9.225   9.119 -0.3189 -0.5969 -0.1938
  289MOL0     C39758  10.620   9.348   9.173 -0.2578 -0.7055  1.1988
  289MOL0     C39759  10.611   9.350   9.323  0.4667 -0.4884 -0.6898
  289MOL0     C39760  10.721   9.437   9.386  0.3112 -0.3193 -0.2247
  289MOL0     N39761  10.854   9.372   9.343  0.8988 -0.8083 -0.9926
  289MOL0     C39762  10.958   9.434   9.276 -0.2940  0.2035 -0.2183
  289MOL0     C39763  11.058   9.347   9.254  0.8724  0.0055 -0.4460
  289MOL0     C39764  11.192   9.365   9.189  1.2143  0.5623 -0.8540
  289MOL0     C39765  11.268   9.234   9.162  0.4462  0.5411  1.1782
  289MOL0     C39766  11.179   9.119   9.094 -0.5145 -0.2094 -0.6695
  289MOL0     C39767  11.252   9.047   8.978  0.6065  0.6689 -0.5456
  289MOL0     O39768  11.266   9.130   8.864  0.1974 -0.2133  0.4521
  289MOL0     C39769  11.302   9.095   8.740  0.0013  0.2982  0.5991
  289MOL0     C39770  11.290   9.190   8.638  0.4696  0.2886 -0.2713
  289MOL0     C39771  11.320   9.165   8.498  0.4915  0.5135  0.2290
  289MOL0     C39772  11.303   9.286   8.405  0.9828  0.2304 -0.3304
  289MOL0     C39773  11.357   9.033   8.468 -0.3984 -0.6350  0.9708
  289MOL0     C39774  11.390   8.975   8.337  0.2793  0.2432  0.4547
  289MOL0     O39775  11.359   8.835   8.312  0.2234 -0.7986  0.7942
  289MOL0     C39776  11.362   8.795   8.183  0.6401 -0.2595  0.2760
  289MOL0     C39777  11.484   8.778   8.109  0.5551 -0.5058 -0.0305
  289MOL0     C39778  11.467   8.730   7.982  0.3772 -0.5775 -0.8140
  289MOL0     C39779  11.339   8.700   7.920 -0.3742 -0.1913 -0.0404
  289MOL0     O39780  11.339   8.655   7.789 -0.7078  0.0610 -0.3061
  289MOL0     C39781  11.218   8.677   7.710  0.1213  0.1433  0.6206
  289MOL0     C39782  11.246   8.743   7.577  0.5863  0.0187 -0.5430
  289MOL0     C39783  11.294   8.893   7.586  1.0065 -0.5493  0.2854
  289MOL0     C39784  11.327   8.949   7.447 -0.1856 -0.3474  0.4975
  289MOL0     C39785  11.199   8.963   7.370  0.4742 -0.7168  0.2278
  289MOL0     C39786  11.114   9.086   7.416 -0.2684  0.9029 -0.5493
  289MOL0     C39787  10.967   9.067   7.472 -0.1044  0.0778 -0.4940
  289MOL0     C39788  10.876   9.006   7.372 -0.3010  0.0015  0.5593
  289MOL0    Cl39789  10.831   9.114   7.239 -0.3334  0.3199 -0.4230
  289MOL0     C39790  11.225   8.731   7.996  0.7077  0.0881  0.1887
  289MOL0     C39791  11.239   8.774   8.125 -0.0142 -0.0796 -0.4454
  289MOL0     O39792  11.434   9.055   8.258  0.7760  0.3908 -0.3749
  289MOL0     C39793  11.368   8.939   8.580  0.9710 -0.7293  0.6322
  289MOL0     C39794  11.345   8.977   8.707 -0.9244  0.2205 -0.2573
  289MOL0     N39795  11.021   9.229   9.321  0.4997 -0.1329 -0.0459
  289MOL0     N39796  10.899   9.244   9.372  0.2773 -0.5965 -0.5026
  289MOL0     C39797  10.118   9.008   8.491 -0.2037 -0.4727 -0.4334
  289MOL0     C39798  10.012   8.938   8.445 -0.1703  0.6089 -0.0506
  289MOL0     C39799   9.677   8.658   8.345 -0.0388 -0.5514  0.7627
  289MOL0     C39800   9.706   8.590   8.223 -0.1100 -0.1279  0.0677
  289MOL0     C39801   9.607   8.531   8.148  0.6497 -0.8583  0.4447
  289MOL0     C39802   9.476   8.529   8.198  0.2551  0.5880  0.7151
  289MOL0     O39803   9.382   8.461   8.119  0.1716 -0.4070 -0.5799
  289MOL0     C39804   9.363   8.320   8.134 -0.0195  0.4318  0.8631
  289MOL0     C39805   9.241   8.300   8.229  0.3510  0.3989 -0.6170
  289MOL0     C39806   9.114   8.370   8.204 -0.2927  0.1554 -0.8623
  289MOL0     C39807   9.057   8.440   8.322  0.2717  0.7539 -0.1769
  289MOL0     C39808   8.911   8.469   8.298 -0.4630  0.1961 -0.6218
  289MOL0     C39809   8.791   8.485   8.261  0.2010  0.3164 -0.1463
  289MOL0     C39810   9.438   8.597   8.315 -0.0067  0.3248 -0.4563
  289MOL0     C39811   9.540   8.653   8.389  1.3166  0.9792 -0.2779
  289MOL0     C39812   9.490   8.703   8.522  0.1502 -0.1279  0.0603
  289MOL0     H39813  10.121   8.626   8.495 -1.5888 -0.2541 -1.0731
  289MOL0     H39814  10.316   8.753   8.598 -0.0862 -1.7239 -0.4517
  289MOL0     H39815  10.490   8.904   8.672 -1.4991 -1.9669 -0.1838
  289MOL0     H39816  10.349   8.923   8.773  0.3687 -0.5551  0.0679
  289MOL0     H39817  10.588   9.092   8.739  0.8332 -6.0565 -0.1805
  289MOL0     H39818  10.448   9.191   8.734  1.8116  0.6711  1.9732
  289MOL0     H39819  10.359   9.112   8.943  0.7296  1.1232  1.1733
  289MOL0     H39820  10.493   9.006   8.964  1.3768  0.3237 -0.8704
  289MOL0     H39821  10.664   9.230   8.943  0.1483  1.5194 -0.5407
  289MOL0     H39822  10.515   9.307   8.923  1.3634 -0.6775 -3.7089
  289MOL0     H39823  10.598   9.135   9.162  1.4141  0.9160  1.4046
  289MOL0     H39824  10.447   9.225   9.144 -0.8077 -2.1910 -1.9979
  289MOL0     H39825  10.721   9.354   9.131 -1.5540 -0.5537 -2.2767
  289MOL0     H39826  10.558   9.425   9.128  1.2083  0.4333  1.0454
  289MOL0     H39827  10.618   9.246   9.355  1.4085 -0.0155  0.7527
  289MOL0     H39828  10.512   9.382   9.356 -0.5529 -2.2979 -1.8686
  289MOL0     H39829  10.700   9.540   9.357 -1.1703 -0.8460 -1.1378
  289MOL0     H39830  10.701   9.446   9.493 -2.2144  1.9047 -0.7794
  289MOL0     H39831  10.955   9.531   9.226 -2.9031 -0.1635 -0.9263
  289MOL0     H39832  11.249   9.438   9.248 -1.3709  0.9068  1.4307
  289MOL0     H39833  11.169   9.414   9.094 -0.0575  2.0947  0.1914
  289MOL0     H39834  11.359   9.252   9.104 -0.2985  0.9740  0.1041
  289MOL0     H39835  11.314   9.186   9.249 -0.2453  1.1665  1.9030
  289MOL0     H39836  11.156   9.035   9.161 -0.4904 -1.3032 -1.9878
  289MOL0     H39837  11.087   9.164   9.055  2.1983  2.3928 -4.9597
  289MOL0     H39838  11.347   9.012   9.019  0.0223  0.4623  0.6835
  289MOL0     H39839  11.192   8.958   8.954 -0.1954  0.7024  1.1551
  289MOL0     H39840  11.239   9.282   8.666  0.9537  0.4405  0.1343
  289MOL0     H39841  11.373   9.362   8.439 -2.6086  1.9719  4.2727
  289MOL0     H39842  11.213   9.344   8.430  0.6772  1.2869 -3.3906
  289MOL0     H39843  11.312   9.264   8.298  0.3743 -3.0517  0.1820
  289MOL0     H39844  11.583   8.795   8.149  1.0685 -0.5281 -1.2286
  289MOL0     H39845  11.562   8.710   7.935  1.8600  3.1204  0.3066
  289MOL0     H39846  11.159   8.585   7.704  2.7714 -1.6164  0.3594
  289MOL0     H39847  11.159   8.753   7.763  1.3473  0.7467  1.1545
  289MOL0     H39848  11.309   8.676   7.519 -0.2604  1.1414 -2.8930
  289MOL0     H39849  11.151   8.742   7.522  0.7431  0.7719 -0.8422
  289MOL0     H39850  11.382   8.896   7.651 -0.2624 -3.9771  2.4242
  289MOL0     H39851  11.216   8.954   7.632  1.4990 -1.5998  2.6742
  289MOL0     H39852  11.386   8.876   7.391 -0.3650  1.4381 -2.2065
  289MOL0     H39853  11.394   9.036   7.451 -1.6306  0.7953  0.7831
  289MOL0     H39854  11.229   8.984   7.267 -0.2317 -1.4368 -0.1387
  289MOL0     H39855  11.129   8.879   7.368  0.3373 -0.5812 -0.9056
  289MOL0     H39856  11.104   9.161   7.337 -0.6438  0.6046 -0.7837
  289MOL0     H39857  11.168   9.143   7.492 -1.0316  2.8941 -1.4327
  289MOL0     H39858  10.911   9.157   7.499 -3.9454 -1.9639 -0.8459
  289MOL0     H39859  10.972   8.998   7.556 -0.6260 -0.6947 -1.0855
  289MOL0     H39860  10.788   8.982   7.432  0.8751 -2.0201  1.6155
  289MOL0     H39861  10.901   8.906   7.333 -0.2134  0.7938 -1.5241
  289MOL0     H39862  11.120   8.723   7.969  0.6664  1.1761  0.0045
  289MOL0     H39863  11.157   8.787   8.195 -1.1005  0.3372 -1.7651
  289MOL0     H39864  11.418   8.844   8.565  2.2512  0.1696 -1.1732
  289MOL0     H39865  11.335   8.905   8.788 -2.9463 -1.3039 -1.7553
  289MOL0     H39866  10.107   9.115   8.499 -2.3232 -0.7034  6.5516
  289MOL0     H39867   9.923   8.989   8.409 -1.3238 -0.5014  1.0752
  289MOL0     H39868   9.812   8.584   8.200 -0.1467  0.0951 -0.1587
  289MOL0     H39869   9.634   8.477   8.058 -0.0739 -2.8481  1.3715
  289MOL0     H39870   9.346   8.274   8.037  1.6831 -0.4986  0.9650
  289MOL0     H39871   9.449   8.269   8.178 -0.9938 -2.1768 -0.0623
  289MOL0     H39872   9.287   8.331   8.323  2.2809 -1.0464 -1.0308
  289MOL0     H39873   9.221   8.193   8.231  0.2821  0.4170 -0.3356
  289MOL0     H39874   9.127   8.446   8.127 -0.9444  2.9816  1.6312
  289MOL0     H39875   9.038   8.296   8.175 -2.2909  2.9945 -3.5066
  289MOL0     H39876   9.112   8.534   8.330 -2.4324  2.4764 -0.4464
  289MOL0     H39877   9.067   8.369   8.405  2.1553  3.2040  1.8464
  289MOL0     H39878   8.691   8.507   8.229 -0.3454  2.3601  2.6887
  289MOL0     H39879   9.333   8.595   8.340 -0.0071 -2.5142 -0.3740
  289MOL0     H39880   9.481   8.812   8.519 -1.7025 -0.2294 -3.5228
  289MOL0     H39881   9.391   8.666   8.550 -1.0719  1.2592 -2.1437
  289MOL0     H39882   9.555   8.671   8.604 -1.2254 -1.7324  0.5844
  290MOL0     O39883   7.866   3.955  10.425 -0.1896  0.0174  0.7308
  290MOL0     C39884   7.757   3.938  10.373  0.3273 -0.3703 -0.2888
  290MOL0     O39885   7.719   3.844  10.285 -0.1539  0.2208  0.1630
  290MOL0     C39886   7.819   3.759  10.241  0.2896 -0.5000 -0.0128
  290MOL0     C39887   7.946   3.802  10.189 -0.1071 -0.5150  0.0626
  290MOL0     C39888   8.049   3.706  10.189  0.7253 -0.1553  1.1993
  290MOL0     C39889   8.037   3.578  10.228  0.4435  0.4247 -0.1311
  290MOL0     O39890   8.144   3.487  10.240 -0.7204  0.4572 -0.9817
  290MOL0     C39891   8.251   3.531  10.324 -0.2633 -0.0874 -0.3991
  290MOL0     C39892   8.385   3.526  10.236  0.1242  0.4399 -0.0685
  290MOL0     C39893   8.495   3.635  10.268  0.5459  1.0765  0.0551
  290MOL0     C39894   8.617   3.626  10.167 -0.2486 -0.1231  1.1959
  290MOL0     C39895   8.725   3.718  10.211  1.3678 -0.3742 -0.1595
  290MOL0     C39896   8.805   3.674  10.338 -1.2240 -0.3418 -0.4584
  290MOL0     C39897   8.918   3.785  10.350 -0.4933  0.0358 -0.9635
  290MOL0     C39898   8.964   3.783  10.496 -1.1343  1.2399 -0.1123
  290MOL0     N39899   9.036   3.655  10.517  0.1006 -0.0449  0.0227
  290MOL0     C39900   9.140   3.601  10.450 -0.8844 -0.0437  0.0658
  290MOL0     C39901   9.159   3.485  10.513 -0.4761  0.1040  0.0918
  290MOL0     C39902   9.254   3.364  10.489  0.0232  0.5693 -0.8900
  290MOL0     C39903   9.395   3.397  10.539  0.4088  0.6190 -0.5104
  290MOL0     C39904   9.483   3.279  10.557 -0.2194  0.1167 -0.5425
  290MOL0     C39905   9.512   3.194  10.426 -0.0487  0.9163 -0.8968
  290MOL0     O39906   9.633   3.116  10.441  0.9466  0.6530 -0.0188
  290MOL0     C39907   9.671   3.035  10.340 -0.1215  0.1734 -0.1045
  290MOL0     C39908   9.621   3.022  10.207  0.6731 -0.6854 -0.3313
  290MOL0     C39909   9.680   2.943  10.107 -0.7544 -0.5727  0.3616
  290MOL0     C39910   9.604   2.936   9.982  0.9316  0.1496  0.7168
  290MOL0     C39911   9.803   2.873  10.124 -0.3469  0.6023  0.0097
  290MOL0     C39912   9.872   2.786  10.026  0.1334 -0.5195  0.1106
  290MOL0     O39913   9.965   2.702  10.066  0.0546  0.0721  0.2269
  290MOL0     C39914  10.040   2.640   9.969 -0.7902  0.2930 -0.2926
  290MOL0     C39915  10.128   2.717   9.892 -0.9275  0.0986  1.2686
  290MOL0     C39916  10.195   2.644   9.780  0.2406 -1.3210 -0.3765
  290MOL0     C39917  10.177   2.508   9.763 -0.6459 -0.6597 -0.1297
  290MOL0     O39918  10.248   2.455   9.653  0.4359  0.7498  0.0478
  290MOL0     C39919  10.190   2.350   9.577 -0.4866  0.3978 -0.9397
  290MOL0     C39920  10.254   2.359   9.441 -0.9111 -0.2085  0.8694
  290MOL0     C39921  10.271   2.214   9.390  1.2732 -0.3212  1.3563
  290MOL0     C39922  10.258   2.221   9.236  0.2634 -0.4566 -0.3520
  290MOL0     C39923  10.344   2.111   9.163  0.9152  0.1057  1.1729
  290MOL0     C39924  10.301   2.095   9.017 -0.1733 -0.9098  0.0861
  290MOL0     C39925  10.404   2.168   8.928 -0.1447 -0.1839  0.5525
  290MOL0     C39926  10.414   2.320   8.951 -0.4312 -0.5851 -0.7356
  290MOL0    Cl39927  10.254   2.403   8.915 -1.0528  0.1129 -0.1573
  290MOL0     C39928  10.098   2.440   9.858 -0.5267  0.6464  1.1067
  290MOL0     C39929  10.026   2.499   9.957  0.3334 -0.0675 -0.0766
  290MOL0     O39930   9.840   2.795   9.908  0.1306  0.2960 -0.2222
  290MOL0     C39931   9.855   2.891  10.255  1.3109 -1.2089 -0.3125
  290MOL0     C39932   9.792   2.967  10.360  0.2022  0.4107 -0.1587
  290MOL0     N39933   9.062   3.461  10.607  0.6934 -0.3979 -0.0696
  290MOL0     N39934   8.991   3.565  10.615 -0.8204  0.8855 -0.1394
  290MOL0     C39935   7.908   3.535  10.277 -0.1866 -0.1207 -0.4413
  290MOL0     C39936   7.804   3.628  10.263 -0.4707  0.2111  0.6131
  290MOL0     C39937   7.651   4.041  10.397 -0.7288  0.0266  0.4234
  290MOL0     C39938   7.613   4.137  10.306 -0.8821  0.4518  0.0083
  290MOL0     C39939   7.508   4.224  10.329 -0.7665  0.7360  0.0942
  290MOL0     C39940   7.457   4.240  10.459  0.8723  0.1245 -0.5710
  290MOL0     O39941   7.367   4.332  10.503 -0.2781 -0.1338  0.4463
  290MOL0     C39942   7.353   4.451  10.425 -0.1495  0.9300  0.2046
  290MOL0     C39943   7.274   4.564  10.505  0.0311  0.0305 -0.5517
  290MOL0     C39944   7.360   4.661  10.591  0.8955 -0.7420 -0.6257
  290MOL0     C39945   7.288   4.793  10.617  0.7064 -0.7130 -0.2875
  290MOL0     C39946   7.288   4.891  10.508 -0.4071 -0.1226 -0.5479
  290MOL0     C39947   7.282   4.973  10.417 -0.2185  0.8163 -0.6427
  290MOL0     C39948   7.501   4.155  10.564 -0.9621 -0.4458 -0.4881
  290MOL0     C39949   7.600   4.065  10.537 -0.3433  1.0521 -0.1687
  290MOL0     C39950   7.642   3.969  10.655 -0.0959  0.4612 -0.0676
  290MOL0     H39951   7.966   3.906  10.167 -0.7852 -0.1338  1.1992
  290MOL0     H39952   8.141   3.753  10.156  0.5175  1.1061  2.3135
  290MOL0     H39953   8.255   3.464  10.410  1.2152 -1.3676 -1.4261
  290MOL0     H39954   8.227   3.628  10.370  1.5911  0.3317 -0.2555
  290MOL0     H39955   8.417   3.423  10.248 -1.2187  0.2730  2.7588
  290MOL0     H39956   8.350   3.531  10.132 -0.4306  1.0133  0.1389
  290MOL0     H39957   8.441   3.728  10.248 -2.6451 -0.6595 -0.0704
  290MOL0     H39958   8.523   3.625  10.373  1.3512 -0.8463 -0.2950
  290MOL0     H39959   8.652   3.523  10.176  1.1291 -0.0849 -2.3472
  290MOL0     H39960   8.584   3.636  10.063 -4.1386 -0.9196  2.1990
  290MOL0     H39961   8.682   3.817  10.229 -0.5993 -1.0846 -0.6824
  290MOL0     H39962   8.800   3.728  10.132  2.2754  0.0855  0.7321
  290MOL0     H39963   8.736   3.662  10.422 -3.7540 -4.8824 -2.8089
  290MOL0     H39964   8.840   3.571  10.327 -2.5589 -1.1231  1.8487
  290MOL0     H39965   8.865   3.880  10.339 -2.6893 -1.3050 -2.7054
  290MOL0     H39966   8.997   3.760  10.279  2.3388 -4.4108  3.0422
  290MOL0     H39967   9.038   3.862  10.515  1.1670 -1.3113  2.6244
  290MOL0     H39968   8.889   3.796  10.575 -1.9206 -2.6579 -0.0294
  290MOL0     H39969   9.204   3.626  10.366 -0.2512 -1.7567 -0.0090
  290MOL0     H39970   9.270   3.348  10.382 -0.4753 -2.5519 -0.6053
  290MOL0     H39971   9.216   3.267  10.523 -1.7106  1.2287 -0.8647
  290MOL0     H39972   9.442   3.469  10.472  0.3603 -0.4617 -1.7288
  290MOL0     H39973   9.376   3.435  10.640 -0.7440 -0.6546 -0.2212
  290MOL0     H39974   9.571   3.298  10.620 -1.1499 -1.4414  1.3263
  290MOL0     H39975   9.429   3.213  10.625  0.9332  1.7264  2.1215
  290MOL0     H39976   9.433   3.132  10.382 -0.9456  0.4391  1.2844
  290MOL0     H39977   9.542   3.261  10.345  1.9055 -1.2422 -2.0859
  290MOL0     H39978   9.532   3.080  10.185  2.0763  2.6783  2.0148
  290MOL0     H39979   9.563   2.834   9.973 -0.6623  0.9672 -3.8867
  290MOL0     H39980   9.662   2.953   9.891 -3.8683 -0.0738 -2.7545
  290MOL0     H39981   9.518   3.004   9.980  0.5164 -0.3812 -0.1354
  290MOL0     H39982  10.149   2.823   9.903  3.0560 -0.2956 -0.6382
  290MOL0     H39983  10.261   2.692   9.707  1.8271  0.7645  2.2114
  290MOL0     H39984  10.217   2.255   9.624  0.9105 -1.3248 -4.7408
  290MOL0     H39985  10.081   2.359   9.568 -0.4834  2.6852  0.6503
  290MOL0     H39986  10.182   2.418   9.384 -1.0115  1.2817  2.4291
  290MOL0     H39987  10.356   2.399   9.437 -1.5650  1.5321  0.3689
  290MOL0     H39988  10.186   2.155   9.424  2.1423 -2.9115 -0.6587
  290MOL0     H39989  10.360   2.165   9.430  1.4894  0.0239  1.3013
  290MOL0     H39990  10.294   2.320   9.207  1.2473 -1.2251 -1.9388
  290MOL0     H39991  10.153   2.213   9.206  0.5162  0.6399 -1.6087
  290MOL0     H39992  10.449   2.140   9.177  0.6053  1.0611  1.6324
  290MOL0     H39993  10.330   2.020   9.221 -0.7565  1.8907  3.8354
  290MOL0     H39994  10.194   2.113   9.007 -0.2298 -1.8801 -1.2857
  290MOL0     H39995  10.306   1.991   8.987  0.2034 -0.5165 -1.2755
  290MOL0     H39996  10.394   2.140   8.823 -0.3678 -2.0104  1.0232
  290MOL0     H39997  10.497   2.128   8.970  1.4956  4.1431  1.6349
  290MOL0     H39998  10.493   2.369   8.894 -1.3385 -1.0139 -2.4306
  290MOL0     H39999  10.439   2.334   9.056 -2.1750 -2.9980  0.0998
  290MOL0     H40000  10.099   2.333   9.839 -0.2533  0.6319  1.1940
  290MOL0     H40001   9.970   2.452  10.037  0.3919  1.4214  0.8856
  290MOL0     H40002   9.944   2.837  10.287  1.0723 -1.8610 -0.7192
  290MOL0     H40003   9.837   2.961  10.459 -1.3285 -1.8049  0.4710
  290MOL0     H40004   7.897   3.430  10.301  0.0853  0.0444  0.4094
  290MOL0     H40005   7.701   3.598  10.279 -0.6318 -0.3988 -1.2774
  290MOL0     H40006   7.648   4.138  10.203 -0.0706 -0.6691  0.2555
  290MOL0     H40007   7.471   4.279  10.243  0.8542  2.4783  0.4357
  290MOL0     H40008   7.452   4.491  10.400 -1.0301  2.7492 -0.4776
  290MOL0     H40009   7.297   4.426  10.335  1.0533  0.9468 -0.5757
  290MOL0     H40010   7.195   4.527  10.571  0.5237 -0.7493 -0.3860
  290MOL0     H40011   7.230   4.627  10.428 -0.8421  1.2997  0.9368
  290MOL0     H40012   7.362   4.615  10.690 -3.8939 -0.6616 -0.2513
  290MOL0     H40013   7.459   4.680  10.549  1.8341 -1.4524  1.1632
  290MOL0     H40014   7.338   4.848  10.697 -0.4234  0.3709 -0.2957
  290MOL0     H40015   7.185   4.768  10.645  0.6901  0.8885  1.2228
  290MOL0     H40016   7.264   5.046  10.341 -2.0132  0.6349 -0.4296
  290MOL0     H40017   7.469   4.180  10.665  0.1280 -0.8057 -0.0437
  290MOL0     H40018   7.559   3.901  10.674 -0.3969  0.9123  0.2361
  290MOL0     H40019   7.727   3.905  10.627 -1.3013 -1.4920  0.5391
  290MOL0     H40020   7.667   4.032  10.740  0.2413 -0.9924  0.9513
  291MOL0     O40021  11.538   5.439   5.105  0.0421  0.0199  0.0775
  291MOL0     C40022  11.477   5.544   5.090 -0.4085  0.1743  0.3517
  291MOL0     O40023  11.380   5.586   5.171  0.1180 -0.3658 -0.6447
  291MOL0     C40024  11.375   5.517   5.290 -0.3966 -0.0118  0.3704
  291MOL0     C40025  11.310   5.392   5.294  1.0032  0.4687  0.1215
  291MOL0     C40026  11.324   5.305   5.410  0.4283  0.7494 -0.2330
  291MOL0     C40027  11.387   5.355   5.523  0.9104  0.3265 -0.9078
  291MOL0     O40028  11.388   5.268   5.635  0.0120  0.2256 -0.6153
  291MOL0     C40029  11.259   5.263   5.717 -0.6407  0.7333 -0.4895
  291MOL0     C40030  11.224   5.390   5.792 -0.6403 -0.6766 -0.4038
  291MOL0     C40031  11.335   5.451   5.892 -0.4945  0.8619  0.7769
  291MOL0     C40032  11.305   5.592   5.924  0.9794 -1.5117  0.4605
  291MOL0     C40033  11.411   5.640   6.027 -0.2684 -1.0733  0.4552
  291MOL0     C40034  11.560   5.640   5.954  0.5009  0.0610 -0.2761
  291MOL0     C40035  11.659   5.692   6.056  0.6630 -0.4131 -0.8316
  291MOL0     C40036  11.809   5.652   6.029 -0.4700 -0.4503 -0.3290
  291MOL0     N40037  11.848   5.667   5.894  0.5837  0.1306  0.4792
  291MOL0     C40038  11.856   5.776   5.813 -0.2676  0.7281  0.3517
  291MOL0     C40039  11.873   5.727   5.688 -0.2594  0.2976  0.7823
  291MOL0     C40040  11.898   5.803   5.564 -0.8542  0.0098  0.0449
  291MOL0     C40041  11.813   5.756   5.442 -0.4106 -0.6057  1.2332
  291MOL0     C40042  11.818   5.876   5.336  0.6242 -0.6559  1.5948
  291MOL0     C40043  11.708   5.861   5.222  0.3809  0.0657  0.1321
  291MOL0     O40044  11.587   5.931   5.254  0.2705 -0.4036 -0.4665
  291MOL0     C40045  11.581   6.063   5.229  0.0153  0.7371 -0.0364
  291MOL0     C40046  11.580   6.155   5.333  0.2878 -0.2454  0.7658
  291MOL0     C40047  11.603   6.293   5.312  0.1579  0.3280  0.8892
  291MOL0     C40048  11.616   6.384   5.438  0.2291 -0.4437 -0.3743
  291MOL0     C40049  11.610   6.335   5.175 -0.4505  0.2314 -0.4397
  291MOL0     C40050  11.620   6.485   5.129 -0.7123  0.0847 -0.4835
  291MOL0     O40051  11.600   6.519   4.991  0.6228  0.1234 -0.5860
  291MOL0     C40052  11.613   6.644   4.939  0.3891  0.6464  0.1378
  291MOL0     C40053  11.517   6.691   4.845 -0.5639  0.3029 -0.1381
  291MOL0     C40054  11.537   6.806   4.777  0.6989 -0.3314  0.1592
  291MOL0     C40055  11.649   6.888   4.802  0.1207 -0.1801 -1.0137
  291MOL0     O40056  11.675   7.021   4.756  0.9056  0.0431  0.4623
  291MOL0     C40057  11.559   7.070   4.695  0.3392  0.2515  0.3079
  291MOL0     C40058  11.577   7.215   4.643  0.6207 -0.7033  0.0173
  291MOL0     C40059  11.646   7.307   4.747 -0.1890 -0.2041 -0.2304
  291MOL0     C40060  11.805   7.303   4.730  0.6723 -0.3913 -0.0140
  291MOL0     C40061  11.859   7.399   4.831 -0.2027 -0.3761  0.7360
  291MOL0     C40062  12.005   7.378   4.858 -0.0863  0.0314 -0.4302
  291MOL0     C40063  12.110   7.402   4.754 -0.7867 -0.4886 -0.3725
  291MOL0     C40064  12.107   7.543   4.692  0.3374 -0.5258 -0.2703
  291MOL0    Cl40065  11.973   7.572   4.578  0.4661  0.2219 -0.3398
  291MOL0     C40066  11.747   6.837   4.886 -0.4066  0.2199  0.7611
  291MOL0     C40067  11.735   6.712   4.950  0.4303  0.0370  0.6322
  291MOL0     O40068  11.655   6.564   5.210 -0.6295  0.3041 -0.9510
  291MOL0     C40069  11.593   6.244   5.071 -0.7810  0.1150 -0.4148
  291MOL0     C40070  11.574   6.110   5.098  0.2488  0.9755  0.6790
  291MOL0     N40071  11.861   5.590   5.693 -0.0281 -0.3684 -0.2599
  291MOL0     N40072  11.855   5.562   5.815  0.0465  1.0072 -0.1630
  291MOL0     C40073  11.436   5.483   5.521  0.7228  0.1260 -0.0657
  291MOL0     C40074  11.439   5.566   5.408  0.9700 -0.4135 -0.5720
  291MOL0     C40075  11.507   5.624   4.970  0.0821 -0.4814 -0.0290
  291MOL0     C40076  11.420   5.725   4.923  0.2983 -0.0306  0.1014
  291MOL0     C40077  11.455   5.817   4.832  0.3177 -0.3264  0.0555
  291MOL0     C40078  11.575   5.800   4.759  0.8593 -0.7998 -0.0220
  291MOL0     O40079  11.627   5.884   4.658 -0.6205  0.8470 -0.4592
  291MOL0     C40080  11.541   5.957   4.576 -0.0821 -0.2307 -0.4592
  291MOL0     C40081  11.522   6.102   4.620 -0.3405  0.0515  0.7798
  291MOL0     C40082  11.469   6.177   4.498  0.1463  0.3433  0.2340
  291MOL0     C40083  11.447   6.324   4.542  0.6942 -1.2588 -1.1701
  291MOL0     C40084  11.562   6.397   4.585  0.4384 -0.5688 -0.6756
  291MOL0     C40085  11.660   6.471   4.616  0.0461 -0.1042  0.5577
  291MOL0     C40086  11.663   5.706   4.806  0.2134  0.0903 -0.1261
  291MOL0     C40087  11.634   5.609   4.897 -0.0418  0.1570  0.3647
  291MOL0     C40088  11.735   5.505   4.914 -0.3056  0.8126  0.0271
  291MOL0     H40089  11.269   5.362   5.198  0.6863  0.2932  0.3077
  291MOL0     H40090  11.306   5.198   5.417  0.0932  0.8963  1.7433
  291MOL0     H40091  11.276   5.193   5.799 -0.8986  2.1490  0.8194
  291MOL0     H40092  11.190   5.222   5.643  1.6980  1.0275 -2.9964
  291MOL0     H40093  11.189   5.472   5.729 -1.7402 -1.8253 -1.3370
  291MOL0     H40094  11.133   5.361   5.844 -1.0017  0.3465 -0.4407
  291MOL0     H40095  11.335   5.393   5.985  2.0864  0.6054  0.6943
  291MOL0     H40096  11.425   5.433   5.833 -0.3892  2.1383  0.5121
  291MOL0     H40097  11.306   5.662   5.839  0.6939  0.1745  1.7804
  291MOL0     H40098  11.205   5.603   5.966  1.3969  5.1306  0.7424
  291MOL0     H40099  11.412   5.584   6.120  0.2408  1.7108  2.2282
  291MOL0     H40100  11.392   5.742   6.062  1.9324 -0.5280  0.1921
  291MOL0     H40101  11.594   5.541   5.920 -1.4138 -0.9150  0.4554
  291MOL0     H40102  11.566   5.704   5.865 -0.2292 -0.6178 -0.8353
  291MOL0     H40103  11.631   5.651   6.153 -3.1861  0.9596 -1.1933
  291MOL0     H40104  11.651   5.801   6.057 -0.5227 -0.4286 -2.7760
  291MOL0     H40105  11.885   5.698   6.093 -1.4087  0.7691 -0.0492
  291MOL0     H40106  11.825   5.548   6.056  0.5654 -0.5296 -1.2033
  291MOL0     H40107  11.861   5.882   5.833  3.0069  1.3253 -2.6910
  291MOL0     H40108  12.002   5.789   5.532 -0.4404 -1.2426  1.7646
  291MOL0     H40109  11.886   5.908   5.590  3.3180  0.7100 -0.1938
  291MOL0     H40110  11.855   5.664   5.401 -1.3973 -1.4447  2.0353
  291MOL0     H40111  11.708   5.736   5.465 -0.5146  1.0149  2.3323
  291MOL0     H40112  11.806   5.967   5.395 -0.1351 -0.8238  1.7113
  291MOL0     H40113  11.915   5.877   5.286 -0.8029 -0.9493 -1.3613
  291MOL0     H40114  11.746   5.868   5.119  0.9473 -1.3924  0.2176
  291MOL0     H40115  11.680   5.756   5.227  3.5854 -1.0945 -2.4553
  291MOL0     H40116  11.573   6.123   5.436  1.0763  1.0654  1.2502
  291MOL0     H40117  11.618   6.323   5.528 -2.6428  0.7756  0.6481
  291MOL0     H40118  11.537   6.460   5.443  0.0492 -0.7357  2.7536
  291MOL0     H40119  11.707   6.444   5.426  0.6082 -0.5112  1.7867
  291MOL0     H40120  11.434   6.624   4.829 -1.3955  1.5747 -1.4077
  291MOL0     H40121  11.455   6.826   4.709 -0.2224 -0.4138  1.2077
  291MOL0     H40122  11.547   7.018   4.600 -2.0376 -0.1781  0.7768
  291MOL0     H40123  11.472   7.066   4.761 -0.0351  2.9172  0.1011
  291MOL0     H40124  11.638   7.210   4.552 -0.7389 -3.3017 -0.8539
  291MOL0     H40125  11.479   7.243   4.603 -0.9626 -3.1588  1.8696
  291MOL0     H40126  11.611   7.276   4.846 -1.1716  0.2756 -0.4127
  291MOL0     H40127  11.611   7.410   4.743  0.9066  0.2091  0.2797
  291MOL0     H40128  11.821   7.343   4.629 -0.0567  0.3328  0.1485
  291MOL0     H40129  11.837   7.200   4.747  1.9539  0.0691  0.4760
  291MOL0     H40130  11.836   7.499   4.792 -0.9250 -1.0590 -0.6911
  291MOL0     H40131  11.790   7.392   4.915  0.6314 -0.1978  1.4484
  291MOL0     H40132  12.007   7.276   4.897 -3.6724  0.9113  2.6089
  291MOL0     H40133  12.029   7.441   4.945 -5.4006 -1.9744  2.9730
  291MOL0     H40134  12.081   7.333   4.675 -1.2002  1.9579 -2.4817
  291MOL0     H40135  12.204   7.381   4.807 -0.0054  2.1793 -0.5309
  291MOL0     H40136  12.194   7.572   4.633  1.8137  2.2375  2.8962
  291MOL0     H40137  12.107   7.617   4.772 -1.1078 -1.5206  0.7108
  291MOL0     H40138  11.847   6.880   4.893  0.8055 -2.0868 -1.0894
  291MOL0     H40139  11.822   6.680   5.006 -0.5744 -1.6081  1.3313
  291MOL0     H40140  11.591   6.273   4.966 -0.4904 -2.1803 -1.1187
  291MOL0     H40141  11.548   6.038   5.022 -0.4137  2.2285 -0.3168
  291MOL0     H40142  11.487   5.518   5.610 -0.9393 -0.4081  1.1490
  291MOL0     H40143  11.495   5.658   5.402  0.0116  0.0889 -2.5926
  291MOL0     H40144  11.318   5.736   4.957  0.6575  1.0609  0.8856
  291MOL0     H40145  11.383   5.895   4.808 -3.9281 -3.2303  2.1446
  291MOL0     H40146  11.585   5.939   4.478 -0.8079  0.0634 -0.8409
  291MOL0     H40147  11.451   5.895   4.576  1.3028 -2.4010  0.5271
  291MOL0     H40148  11.621   6.143   4.640 -0.9113  1.2057  1.2963
  291MOL0     H40149  11.463   6.116   4.711 -0.5768  2.4474  0.3163
  291MOL0     H40150  11.529   6.170   4.408 -1.5109 -1.4504 -0.7926
  291MOL0     H40151  11.374   6.131   4.471  0.5506 -0.3251 -0.0595
  291MOL0     H40152  11.381   6.313   4.629  1.0792 -2.2152 -0.9828
  291MOL0     H40153  11.399   6.385   4.465 -2.8284 -1.1341  0.8861
  291MOL0     H40154  11.738   6.538   4.646 -0.8100 -0.7055  4.6746
  291MOL0     H40155  11.759   5.695   4.756  1.4128  1.0008  1.8450
  291MOL0     H40156  11.786   5.477   4.822  1.0140 -0.7147  1.1758
  291MOL0     H40157  11.809   5.537   4.988 -1.6034 -1.5947  2.5050
  291MOL0     H40158  11.690   5.413   4.950 -3.9095  1.5506 -2.0760
  292MOL0     O40159   5.029   8.686   2.304 -0.3807  0.0220  0.5283
  292MOL0     C40160   4.971   8.750   2.377  0.9604  0.0731 -0.4044
  292MOL0     O40161   4.960   8.890   2.362  0.5025  1.0451  0.3882
  292MOL0     C40162   5.010   8.952   2.248  0.4269  0.1158 -0.3547
  292MOL0     C40163   5.083   9.070   2.259  0.8398 -0.1034  0.2580
  292MOL0     C40164   5.123   9.146   2.150  0.5615  0.4424  0.4393
  292MOL0     C40165   5.080   9.104   2.013  0.6598 -0.4798 -0.2731
  292MOL0     O40166   5.091   9.187   1.904  0.2437 -0.2928 -0.3278
  292MOL0     C40167   5.062   9.146   1.769  0.3326 -0.4972 -0.3223
  292MOL0     C40168   5.197   9.113   1.703  0.1217 -0.0197 -0.8738
  292MOL0     C40169   5.194   9.144   1.555 -0.0763 -0.8112  0.1115
  292MOL0     C40170   5.100   9.042   1.475 -0.3566  0.5515  0.6202
  292MOL0     C40171   5.120   9.034   1.321 -0.3657 -0.8885 -0.7107
  292MOL0     C40172   4.996   8.985   1.244 -0.6527 -0.1411  0.4548
  292MOL0     C40173   4.934   8.844   1.279 -0.3526  0.0603 -0.0010
  292MOL0     C40174   5.035   8.725   1.296  0.8881  1.0113 -0.4239
  292MOL0     N40175   5.110   8.703   1.163 -0.6818 -0.3483 -0.3785
  292MOL0     C40176   5.052   8.681   1.032 -0.6771 -0.3501  0.5028
  292MOL0     C40177   5.172   8.653   0.954 -0.0625 -0.7533  0.3707
  292MOL0     C40178   5.180   8.617   0.816  0.2771 -0.2205 -0.4099
  292MOL0     C40179   5.094   8.701   0.722 -0.3508 -0.1925  0.0674
  292MOL0     C40180   5.130   8.852   0.726 -0.6689 -0.6606 -0.4787
  292MOL0     C40181   5.265   8.884   0.662 -0.7764 -0.3417 -0.1927
  292MOL0     O40182   5.234   8.993   0.578 -0.8914  0.1555  0.5275
  292MOL0     C40183   5.312   9.026   0.469  0.0494  0.0002 -0.4888
  292MOL0     C40184   5.426   8.963   0.426  0.2902  0.6739 -1.0544
  292MOL0     C40185   5.491   8.999   0.309  0.3519  0.1595  0.8463
  292MOL0     C40186   5.609   8.918   0.263 -0.5883 -0.8516 -1.0739
  292MOL0     C40187   5.443   9.111   0.238  0.2781  0.1113  0.1635
  292MOL0     C40188   5.482   9.138   0.096 -1.0609  0.2422  0.6928
  292MOL0     O40189   5.452   9.054  -0.010  0.1437 -0.0870  0.2986
  292MOL0     C40190   5.452   9.098  -0.137 -1.2549  0.0810 -0.6770
  292MOL0     C40191   5.552   9.054  -0.226 -0.1878 -0.5200 -0.3230
  292MOL0     C40192   5.561   9.115  -0.350 -0.2073  0.0265  0.4839
  292MOL0     C40193   5.472   9.199  -0.397  0.9881 -0.1415  0.3011
  292MOL0     O40194   5.478   9.247  -0.521  0.0997 -0.4496  0.4339
  292MOL0     C40195   5.609   9.256  -0.581 -1.8384 -0.1175 -1.1334
  292MOL0     C40196   5.614   9.333  -0.708  0.7936 -1.2473 -0.0557
  292MOL0     C40197   5.756   9.403  -0.749  0.1751  0.1693 -0.6319
  292MOL0     C40198   5.777   9.372  -0.900 -0.2705  0.6487  0.0797
  292MOL0     C40199   5.909   9.435  -0.949  0.0592  0.9558  0.0384
  292MOL0     C40200   6.031   9.436  -0.851 -0.4674 -0.3995  0.3681
  292MOL0     C40201   6.168   9.456  -0.908  0.2085 -0.3598  0.8021
  292MOL0     C40202   6.182   9.580  -0.990  0.4969  0.1179  0.5541
  292MOL0    Cl40203   6.341   9.583  -1.052  0.1200  0.2637 -0.5911
  292MOL0     C40204   5.363   9.235  -0.315 -0.3845 -0.3725  0.1541
  292MOL0     C40205   5.346   9.176  -0.186  0.1080 -1.0901  0.5890
  292MOL0     O40206   5.542   9.243   0.083 -0.3810  0.0925 -0.3640
  292MOL0     C40207   5.327   9.176   0.279 -1.3576  1.0293  0.3200
  292MOL0     C40208   5.263   9.129   0.395  0.3443 -1.3610 -0.9125
  292MOL0     N40209   5.279   8.677   1.035 -1.1418 -0.8206 -0.5260
  292MOL0     N40210   5.244   8.717   1.152 -0.6630 -0.2550 -0.4912
  292MOL0     C40211   5.018   8.981   2.001  1.3859  0.7245 -0.2937
  292MOL0     C40212   4.976   8.911   2.113 -0.2933  0.0726  0.0673
  292MOL0     C40213   4.916   8.680   2.504  0.1505  0.5036 -0.4641
  292MOL0     C40214   4.937   8.539   2.539 -0.0040 -0.1413  0.1267
  292MOL0     C40215   4.897   8.487   2.663  0.1422  0.8413 -0.3177
  292MOL0     C40216   4.833   8.561   2.762  0.5177 -0.6458  0.3515
  292MOL0     O40217   4.815   8.522   2.885 -1.1921  0.7832 -0.9744
  292MOL0     C40218   4.939   8.538   2.962 -0.7273 -0.3056  0.1374
  292MOL0     C40219   4.969   8.413   3.033  0.0204  0.2619 -0.0484
  292MOL0     C40220   5.031   8.292   2.956 -0.1597  0.2309  0.0687
  292MOL0     C40221   5.039   8.166   3.042  0.0236 -0.1795 -0.1328
  292MOL0     C40222   4.919   8.090   3.006 -0.1487 -0.8231  0.0762
  292MOL0     C40223   4.822   8.029   2.970  0.5939 -0.3617  0.1314
  292MOL0     C40224   4.806   8.692   2.722 -0.0940 -0.1209  0.6847
  292MOL0     C40225   4.833   8.748   2.598  0.3686 -0.7530  0.1764
  292MOL0     C40226   4.782   8.895   2.581 -0.2207 -0.6108 -0.0429
  292MOL0     H40227   5.120   9.100   2.356  1.5682 -0.6022  0.1452
  292MOL0     H40228   5.180   9.236   2.171 -1.3892  2.0400 -0.7464
  292MOL0     H40229   5.015   9.227   1.713  2.8715  0.6752 -0.9420
  292MOL0     H40230   5.009   9.052   1.749 -0.9345  0.3579 -1.1077
  292MOL0     H40231   5.276   9.182   1.735  0.0662 -0.6382  0.6683
  292MOL0     H40232   5.218   9.011   1.736 -0.2920  0.4480  0.9547
  292MOL0     H40233   5.171   9.247   1.529  0.6958 -0.5887  0.2924
  292MOL0     H40234   5.295   9.123   1.517 -0.5283 -0.9428 -1.0569
  292MOL0     H40235   5.100   8.942   1.520  3.6043 -0.3430 -0.9286
  292MOL0     H40236   4.997   9.064   1.505 -0.4328 -1.4777  2.0474
  292MOL0     H40237   5.201   8.966   1.293  0.3246  0.1814 -1.4074
  292MOL0     H40238   5.141   9.134   1.283  3.9102 -0.7743  1.3164
  292MOL0     H40239   4.921   9.064   1.252 -0.6594  0.0213 -0.9540
  292MOL0     H40240   5.026   8.992   1.139 -0.4626  1.1862  0.5862
  292MOL0     H40241   4.848   8.811   1.221  0.2137 -2.1718  0.3046
  292MOL0     H40242   4.885   8.856   1.376  1.1913  1.6786  0.6379
  292MOL0     H40243   5.113   8.752   1.367  3.1654  0.1195 -2.4325
  292MOL0     H40244   4.993   8.636   1.344  2.4187 -0.5422 -1.8285
  292MOL0     H40245   4.947   8.669   1.008 -0.4804 -0.0037 -0.5983
  292MOL0     H40246   5.147   8.513   0.814 -0.0086 -0.1476  0.2855
  292MOL0     H40247   5.284   8.622   0.783  0.5578  1.4653  0.6509
  292MOL0     H40248   5.088   8.661   0.620  1.6440  0.1935 -0.2251
  292MOL0     H40249   4.990   8.705   0.758 -0.0929 -0.0831  0.8136
  292MOL0     H40250   5.049   8.896   0.667 -0.1220  0.0657 -0.7046
  292MOL0     H40251   5.127   8.898   0.825 -2.3273 -3.6638  1.0201
  292MOL0     H40252   5.341   8.926   0.728  1.0959 -1.3177 -1.6526
  292MOL0     H40253   5.297   8.793   0.610 -3.3022 -3.5048  3.2483
  292MOL0     H40254   5.457   8.866   0.462 -1.9774 -0.6394 -2.3889
  292MOL0     H40255   5.639   8.938   0.160 -2.3986 -2.8954 -2.0727
  292MOL0     H40256   5.610   8.809   0.277  2.6681 -0.8301 -0.3059
  292MOL0     H40257   5.685   8.948   0.335 -3.8185  0.5754  2.0600
  292MOL0     H40258   5.624   8.978  -0.197  0.5558  0.2280 -0.1197
  292MOL0     H40259   5.649   9.078  -0.402  1.1144  4.3279 -0.7101
  292MOL0     H40260   5.679   9.299  -0.508 -0.9016  0.6100 -2.4252
  292MOL0     H40261   5.647   9.154  -0.587  0.4698  0.3701  2.2695
  292MOL0     H40262   5.562   9.290  -0.794  0.2547  0.6740 -0.7497
  292MOL0     H40263   5.551   9.419  -0.682  1.8368 -0.4684 -0.0580
  292MOL0     H40264   5.838   9.359  -0.690  1.5273  1.4335 -1.4823
  292MOL0     H40265   5.745   9.508  -0.723  0.8928 -0.2825  1.7691
  292MOL0     H40266   5.692   9.404  -0.962 -1.7201 -0.8463  1.2119
  292MOL0     H40267   5.798   9.265  -0.909  0.1195  0.5365  1.9429
  292MOL0     H40268   5.931   9.372  -1.035 -0.4947  1.3367 -0.3850
  292MOL0     H40269   5.881   9.529  -0.997 -0.9125 -0.8214 -3.1841
  292MOL0     H40270   6.038   9.334  -0.812 -2.4941 -0.8068 -0.2123
  292MOL0     H40271   6.018   9.509  -0.771  2.8508 -2.0776  2.6558
  292MOL0     H40272   6.190   9.371  -0.974  1.4442  0.8627 -0.4122
  292MOL0     H40273   6.246   9.452  -0.832  0.3124 -1.9548  0.6441
  292MOL0     H40274   6.146   9.652  -0.916 -2.6215 -3.6262  3.1111
  292MOL0     H40275   6.106   9.583  -1.069 -0.2596  3.0463  1.2622
  292MOL0     H40276   5.280   9.296  -0.350  0.2040 -0.7385 -2.0362
  292MOL0     H40277   5.260   9.192  -0.123  2.4575  1.8758  3.3975
  292MOL0     H40278   5.292   9.260   0.220 -1.8940  1.0466  0.6546
  292MOL0     H40279   5.184   9.191   0.435  3.6043  3.0176 -0.4833
  292MOL0     H40280   4.990   8.943   1.904 -0.1591 -0.7913  0.6802
  292MOL0     H40281   4.909   8.828   2.092  2.0700 -2.6234  2.5018
  292MOL0     H40282   4.966   8.476   2.456 -3.1524 -0.6500 -0.7476
  292MOL0     H40283   4.926   8.383   2.675  3.0560  1.7910  2.0093
  292MOL0     H40284   5.024   8.562   2.896 -0.5535  1.7744  1.0310
  292MOL0     H40285   4.928   8.618   3.035  0.4860 -1.8977  2.1516
  292MOL0     H40286   4.878   8.372   3.076  1.3690 -1.8962  0.9209
  292MOL0     H40287   5.047   8.428   3.109 -0.0643 -0.8238  0.2646
  292MOL0     H40288   4.958   8.273   2.876  0.2256 -2.1490  0.2201
  292MOL0     H40289   5.134   8.317   2.929  0.0540 -1.5760 -0.9652
  292MOL0     H40290   5.035   8.195   3.147 -0.1691  1.0837 -0.4739
  292MOL0     H40291   5.141   8.127   3.034  1.7261  3.0107  3.2426
  292MOL0     H40292   4.735   7.973   2.944  1.4005  0.1470 -4.4840
  292MOL0     H40293   4.746   8.752   2.789 -0.5662  1.7565 -1.3130
  292MOL0     H40294   4.721   8.928   2.665 -1.4997  1.4232 -1.6802
  292MOL0     H40295   4.865   8.966   2.570 -1.1359  0.7179  1.3109
  292MOL0     H40296   4.726   8.908   2.488 -0.8307 -3.5650 -0.1790
  293MOL0     O40297  11.298  10.586   7.536  0.3061  0.1568  0.6928
  293MOL0     C40298  11.417  10.575   7.518  0.5657  0.5453  0.8404
  293MOL0     O40299  11.491  10.652   7.438  0.7737 -0.2704  0.0132
  293MOL0     C40300  11.471  10.785   7.444  0.2634  0.1713  0.0908
  293MOL0     C40301  11.360  10.856   7.382 -0.1751 -0.0148  0.3530
  293MOL0     C40302  11.344  10.993   7.384  0.6781 -0.1187 -1.2412
  293MOL0     C40303  11.434  11.073   7.452 -0.6477  0.2027 -0.4863
  293MOL0     O40304  11.425  11.210   7.477 -0.2865 -0.9058  0.2142
  293MOL0     C40305  11.318  11.280   7.412 -0.3452  0.1208  0.7533
  293MOL0     C40306  11.343  11.431   7.423  0.7614 -0.6016  0.0191
  293MOL0     C40307  11.450  11.480   7.316  0.1464 -0.1456  0.1462
  293MOL0     C40308  11.489  11.617   7.365 -0.5067 -0.2549 -0.4335
  293MOL0     C40309  11.580  11.692   7.262  0.2056  0.1687 -0.3280
  293MOL0     C40310  11.643  11.819   7.336  0.3864  0.3011  0.8945
  293MOL0     C40311  11.764  11.890   7.265 -0.1097  1.1766  0.2684
  293MOL0     C40312  11.887  11.794   7.260  0.6563  0.5945  0.3743
  293MOL0     N40313  11.990  11.854   7.176 -0.3195 -0.7537 -0.4559
  293MOL0     C40314  12.098  11.925   7.220  0.3326  0.2532  0.4383
  293MOL0     C40315  12.189  11.932   7.121 -0.8787  0.3119 -0.6191
  293MOL0     C40316  12.322  12.012   7.131 -0.0472 -1.2393 -1.3488
  293MOL0     C40317  12.320  12.142   7.054 -1.5103  0.6511 -0.4703
  293MOL0     C40318  12.212  12.243   7.090  0.6929 -0.0939 -0.6572
  293MOL0     C40319  12.251  12.384   7.047  0.5811 -0.8634 -0.4412
  293MOL0     O40320  12.263  12.393   6.907  0.4800 -0.6524  0.8717
  293MOL0     C40321  12.156  12.432   6.824  0.0016  0.5723 -0.6425
  293MOL0     C40322  12.086  12.334   6.752  0.6128  0.5623  0.6375
  293MOL0     C40323  11.965  12.363   6.688 -0.4488 -0.3179  0.4419
  293MOL0     C40324  11.903  12.270   6.595 -0.5351 -0.6313  0.8912
  293MOL0     C40325  11.900  12.489   6.704 -0.6941  0.4943 -0.1564
  293MOL0     C40326  11.768  12.527   6.654  0.9325 -0.2740  0.7209
  293MOL0     O40327  11.753  12.544   6.519  0.7832  0.0040  0.1757
  293MOL0     C40328  11.628  12.591   6.475  0.2179 -0.6778  0.0007
  293MOL0     C40329  11.577  12.725   6.513 -0.0814  1.2730  0.1839
  293MOL0     C40330  11.457  12.773   6.475 -0.4017  0.2828  0.4622
  293MOL0     C40331  11.378  12.697   6.377 -1.3916 -0.1719 -0.4732
  293MOL0     O40332  11.255  12.733   6.338  0.9989 -0.3205 -0.0039
  293MOL0     C40333  11.262  12.831   6.229 -1.2027  1.0015  0.8352
  293MOL0     C40334  11.251  12.974   6.289 -0.2795 -0.1148  0.7609
  293MOL0     C40335  11.155  13.059   6.193 -0.0236  0.1579 -0.7502
  293MOL0     C40336  11.216  13.102   6.061  0.1846  0.0792  0.0999
  293MOL0     C40337  11.117  13.188   5.970  0.1528  0.3315 -0.7616
  293MOL0     C40338  11.059  13.099   5.860 -0.0067  0.4727  1.5784
  293MOL0     C40339  10.984  13.183   5.746 -0.3441  0.7803 -0.3505
  293MOL0     C40340  10.927  13.094   5.640  1.6070 -0.7233 -0.4561
  293MOL0    Cl40341  10.859  13.185   5.489 -0.3595  0.1299  0.7307
  293MOL0     C40342  11.429  12.570   6.337  0.3707 -0.1475 -0.0749
  293MOL0     C40343  11.545  12.522   6.386 -0.6062 -0.0006 -0.1114
  293MOL0     O40344  11.684  12.504   6.739  0.4722  0.5949  0.1782
  293MOL0     C40345  11.977  12.584   6.770 -0.0115  0.1916 -0.5308
  293MOL0     C40346  12.098  12.555   6.842 -0.3812  0.1469  0.5235
  293MOL0     N40347  12.133  11.867   7.019  0.5602 -0.4109  0.9321
  293MOL0     N40348  12.020  11.822   7.044 -0.3461  1.4752 -0.2410
  293MOL0     C40349  11.541  11.007   7.525  0.2258  0.2721 -0.0512
  293MOL0     C40350  11.562  10.870   7.507  0.9732  0.1107  0.7653
  293MOL0     C40351  11.498  10.462   7.591 -0.1619 -0.0719 -0.3395
  293MOL0     C40352  11.635  10.444   7.560  0.4362  0.2863 -0.2830
  293MOL0     C40353  11.707  10.343   7.623 -0.2300  0.3163 -0.3343
  293MOL0     C40354  11.659  10.259   7.720  0.5046  0.5247 -0.1432
  293MOL0     O40355  11.750  10.171   7.773  0.2146 -0.3863 -0.0534
  293MOL0     C40356  11.691  10.068   7.863 -0.3907 -0.2147 -0.4269
  293MOL0     C40357  11.804   9.976   7.917  0.4181  0.1084  0.6961
  293MOL0     C40358  11.855   9.868   7.815  0.9150  0.1313 -0.4176
  293MOL0     C40359  11.957   9.929   7.716 -1.2504  1.0402  0.0465
  293MOL0     C40360  11.925   9.893   7.575 -0.3528  0.1557  0.4387
  293MOL0     C40361  11.890   9.876   7.460 -1.4673 -0.2069  0.2796
  293MOL0     C40362  11.524  10.274   7.749 -0.4716 -0.2886 -0.4057
  293MOL0     C40363  11.440  10.373   7.687  0.6284 -0.0445  0.2537
  293MOL0     C40364  11.297  10.379   7.738 -0.2689 -0.1206  0.2161
  293MOL0     H40365  11.274  10.801   7.344 -2.4582  4.2407 -1.3629
  293MOL0     H40366  11.249  11.023   7.340 -1.1600 -0.2030  2.2526
  293MOL0     H40367  11.228  11.239   7.459  1.5444 -4.1207  1.1308
  293MOL0     H40368  11.320  11.256   7.305 -0.8815 -0.0161  0.7712
  293MOL0     H40369  11.249  11.482   7.401 -0.1584 -2.2305  0.0701
  293MOL0     H40370  11.378  11.451   7.525  0.8933 -0.4661 -0.0517
  293MOL0     H40371  11.540  11.421   7.336 -0.5593 -0.4432  2.8015
  293MOL0     H40372  11.416  11.484   7.212  2.2170  0.5173 -0.5551
  293MOL0     H40373  11.399  11.679   7.373 -0.5755 -0.5889  2.1465
  293MOL0     H40374  11.526  11.612   7.467 -0.2586 -2.0702 -0.5876
  293MOL0     H40375  11.520  11.709   7.172 -0.8248  0.3320  0.3622
  293MOL0     H40376  11.662  11.633   7.221  0.7088  0.5122  0.1730
  293MOL0     H40377  11.565  11.895   7.326  0.1271 -0.1857 -1.0989
  293MOL0     H40378  11.648  11.795   7.442 -1.6991  0.2867  1.0122
  293MOL0     H40379  11.787  11.986   7.310 -0.7675  1.8195 -0.7347
  293MOL0     H40380  11.736  11.918   7.163  1.1208 -0.2034 -0.4875
  293MOL0     H40381  11.923  11.785   7.362  3.3795  2.7898 -0.2735
  293MOL0     H40382  11.870  11.699   7.209  1.5413  0.8931 -0.5186
  293MOL0     H40383  12.108  11.968   7.319  0.6603 -2.9743  1.9201
  293MOL0     H40384  12.404  11.946   7.098  2.0937  0.8173 -0.3931
  293MOL0     H40385  12.338  12.043   7.234 -0.1143 -1.5866 -1.2336
  293MOL0     H40386  12.424  12.176   7.064 -1.8118  1.3433  0.4125
  293MOL0     H40387  12.305  12.122   6.948  2.0030  1.1961 -1.2207
  293MOL0     H40388  12.126  12.211   7.030  0.7001 -0.4337 -0.4891
  293MOL0     H40389  12.190  12.239   7.197 -0.6117 -2.4545 -0.9535
  293MOL0     H40390  12.177  12.455   7.086  0.7965 -0.2624 -1.1028
  293MOL0     H40391  12.346  12.411   7.092 -0.1868  1.6280 -0.1565
  293MOL0     H40392  12.118  12.231   6.753 -3.6477 -0.9795 -0.5985
  293MOL0     H40393  11.837  12.319   6.523  0.4413 -2.0450 -1.0660
  293MOL0     H40394  11.847  12.193   6.649 -0.3936 -1.2871  0.1142
  293MOL0     H40395  11.967  12.213   6.528 -3.3075 -1.6055 -1.0931
  293MOL0     H40396  11.640  12.790   6.572  0.5637  3.1350 -2.3953
  293MOL0     H40397  11.429  12.871   6.512 -0.1409 -0.1163  1.7409
  293MOL0     H40398  11.356  12.821   6.175 -0.5200 -1.0632  2.2758
  293MOL0     H40399  11.178  12.800   6.166 -2.1673 -0.8154  2.8750
  293MOL0     H40400  11.202  12.964   6.386  1.4042 -0.0865  1.6667
  293MOL0     H40401  11.348  13.023   6.305 -0.7454  2.7021 -3.5417
  293MOL0     H40402  11.128  13.149   6.249 -3.3572 -1.8330  1.1625
  293MOL0     H40403  11.058  13.012   6.173 -0.2295 -0.4156  1.3500
  293MOL0     H40404  11.259  13.017   6.008 -3.2762 -3.2716  2.1707
  293MOL0     H40405  11.301  13.167   6.082  0.5131 -0.1652 -0.4480
  293MOL0     H40406  11.029  13.218   6.029  0.0151  2.9970 -2.1935
  293MOL0     H40407  11.164  13.274   5.922  1.6540  0.6970  1.2210
  293MOL0     H40408  10.993  13.015   5.885 -2.4447  1.2709 -1.5199
  293MOL0     H40409  11.149  13.060   5.811 -0.6234 -0.3229  1.0661
  293MOL0     H40410  11.054  13.247   5.692 -0.2926  0.3674 -0.7815
  293MOL0     H40411  10.914  13.256   5.789  0.5798  2.2439 -1.2642
  293MOL0     H40412  10.840  13.041   5.680  0.9941  0.7217  0.2201
  293MOL0     H40413  10.997  13.014   5.613  2.4916  0.4388 -1.7490
  293MOL0     H40414  11.370  12.507   6.271  0.3939 -1.0107  0.7121
  293MOL0     H40415  11.570  12.421   6.352  0.0433 -0.7067  2.2923
  293MOL0     H40416  11.939  12.684   6.788  0.3695  0.2753 -0.1772
  293MOL0     H40417  12.141  12.634   6.902  0.2054 -3.1568  4.9185
  293MOL0     H40418  11.605  11.061   7.593  1.8320 -0.8141 -0.6534
  293MOL0     H40419  11.645  10.824   7.559  1.6801  1.7480  1.1683
  293MOL0     H40420  11.682  10.508   7.486  2.2408  0.7986  1.2244
  293MOL0     H40421  11.813  10.362   7.613 -0.2050  3.9103  3.8127
  293MOL0     H40422  11.651  10.124   7.948 -0.2696 -1.0845  0.2157
  293MOL0     H40423  11.619  10.009   7.806  0.7450 -2.2720  0.1551
  293MOL0     H40424  11.754   9.922   7.998 -1.4969  0.2176 -0.3542
  293MOL0     H40425  11.878  10.042   7.964 -0.4520  0.8493  1.0446
  293MOL0     H40426  11.920   9.791   7.857  3.9556  3.1428  0.8959
  293MOL0     H40427  11.768   9.843   7.754 -1.3243  2.9346  1.3754
  293MOL0     H40428  12.059   9.893   7.730 -2.6633 -2.6115  2.8244
  293MOL0     H40429  11.953  10.038   7.721  0.4130  1.0833  2.1580
  293MOL0     H40430  11.863   9.848   7.360  0.6171 -1.1113 -0.0778
  293MOL0     H40431  11.486  10.208   7.827  0.8453  0.7905  1.2121
  293MOL0     H40432  11.279  10.480   7.777 -1.2595  1.0343 -2.9137
  293MOL0     H40433  11.227  10.368   7.654  1.5968 -2.2668 -1.1704
  293MOL0     H40434  11.280  10.290   7.799  2.4671 -1.2165 -0.5103
  294MOL0     O40435   0.028   2.184   7.003  0.5512 -0.5649  0.0921
  294MOL0     C40436   0.051   2.268   7.088  0.1968  0.4193  1.3012
  294MOL0     O40437  -0.025   2.381   7.108 -0.3981  0.8808  0.2604
  294MOL0     C40438  -0.138   2.391   7.031  0.1856  0.3466  0.8162
  294MOL0     C40439  -0.126   2.448   6.903  0.5015  0.4064  0.0844
  294MOL0     C40440  -0.237   2.459   6.819 -0.1864 -1.1331  0.5729
  294MOL0     C40441  -0.364   2.426   6.865  0.1571  0.5473  0.1399
  294MOL0     O40442  -0.462   2.430   6.771 -0.1298  0.2867  0.0663
  294MOL0     C40443  -0.594   2.459   6.814  1.0129  0.4561 -0.1191
  294MOL0     C40444  -0.684   2.476   6.689  0.5971  0.5882  0.0820
  294MOL0     C40445  -0.645   2.394   6.565 -0.5619  0.1339 -0.7276
  294MOL0     C40446  -0.757   2.343   6.480 -0.1623  0.8920  0.0779
  294MOL0     C40447  -0.724   2.310   6.338  0.2755 -0.0759 -0.7261
  294MOL0     C40448  -0.827   2.246   6.246  1.2430  0.4704  0.0773
  294MOL0     C40449  -0.949   2.328   6.186 -0.1148  0.0462  0.0557
  294MOL0     C40450  -0.917   2.463   6.106  0.2549 -0.0604 -0.1231
  294MOL0     N40451  -1.039   2.530   6.064  0.0943 -0.0165  0.4299
  294MOL0     C40452  -1.109   2.489   5.957 -0.2325 -0.6536  0.7502
  294MOL0     C40453  -1.213   2.576   5.966  0.0900  0.7061  1.3012
  294MOL0     C40454  -1.335   2.576   5.871  0.2628  0.2088  0.1077
  294MOL0     C40455  -1.465   2.561   5.950  1.2651 -1.0690 -0.0901
  294MOL0     C40456  -1.455   2.429   6.027  0.3788  0.4440  0.0460
  294MOL0     C40457  -1.567   2.419   6.133  0.4866 -0.4000  0.6667
  294MOL0     O40458  -1.690   2.446   6.056  0.2599  0.1985  0.4521
  294MOL0     C40459  -1.805   2.384   6.079 -1.0225  0.0224  0.5255
  294MOL0     C40460  -1.899   2.394   5.982 -0.4819  0.4072  0.9196
  294MOL0     C40461  -2.033   2.353   6.003 -1.5028 -0.0617  0.2461
  294MOL0     C40462  -2.125   2.368   5.884  0.2412 -0.5017  0.8197
  294MOL0     C40463  -2.064   2.297   6.130 -0.3525 -0.2307 -0.6617
  294MOL0     C40464  -2.196   2.253   6.164  0.2346 -0.2058  0.8755
  294MOL0     O40465  -2.208   2.134   6.232  0.0485  0.7101 -0.9170
  294MOL0     C40466  -2.336   2.089   6.254  0.0193 -0.5765  0.1824
  294MOL0     C40467  -2.439   2.096   6.156 -0.2903  0.0261  0.4276
  294MOL0     C40468  -2.565   2.059   6.193 -0.2016 -0.2171 -0.0385
  294MOL0     C40469  -2.606   2.031   6.329  0.1775 -0.1564 -0.2772
  294MOL0     O40470  -2.739   2.016   6.345 -0.3312  0.1195 -0.0398
  294MOL0     C40471  -2.804   1.992   6.474 -0.1833  0.6209  0.3056
  294MOL0     C40472  -2.819   2.126   6.548 -0.0654 -1.1091 -0.2286
  294MOL0     C40473  -2.884   2.109   6.687  0.1306 -0.7102 -0.0243
  294MOL0     C40474  -2.899   2.228   6.780  0.8686  0.5406 -1.1674
  294MOL0     C40475  -2.974   2.207   6.916  0.2890  0.3862  0.2256
  294MOL0     C40476  -2.990   2.342   6.984  0.6190  0.2288 -1.0234
  294MOL0     C40477  -3.084   2.435   6.922 -0.4125 -0.2902  0.4758
  294MOL0     C40478  -3.043   2.586   6.953  0.8222 -0.5799  0.0749
  294MOL0    Cl40479  -3.072   2.646   7.130  0.0597  0.0691 -0.1940
  294MOL0     C40480  -2.506   2.031   6.432  0.2053 -0.7648  0.6188
  294MOL0     C40481  -2.375   2.062   6.391 -0.5225 -0.7439  0.2041
  294MOL0     O40482  -2.289   2.337   6.130 -0.1676 -0.5244 -0.4024
  294MOL0     C40483  -1.962   2.276   6.221 -0.1540  0.0314  0.1804
  294MOL0     C40484  -1.830   2.325   6.199  0.3550  0.2921  0.4089
  294MOL0     N40485  -1.188   2.671   6.068 -0.4514 -0.5623  0.6614
  294MOL0     N40486  -1.073   2.651   6.115 -0.7140 -0.0509 -0.3556
  294MOL0     C40487  -0.385   2.369   6.997 -0.5978 -0.0946  1.1063
  294MOL0     C40488  -0.267   2.360   7.085  0.9589 -0.5235  0.7350
  294MOL0     C40489   0.188   2.275   7.148 -0.1009  0.1292  0.3479
  294MOL0     C40490   0.203   2.356   7.264 -0.0290 -0.4729  0.0534
  294MOL0     C40491   0.313   2.364   7.336 -0.5166  0.5628 -0.2534
  294MOL0     C40492   0.428   2.300   7.308 -0.0130 -0.3067  1.2022
  294MOL0     O40493   0.555   2.324   7.359 -0.0254  0.0951  0.3748
  294MOL0     C40494   0.577   2.441   7.440  1.0198 -0.4593  0.2286
  294MOL0     C40495   0.565   2.568   7.347 -0.0089  0.4347 -0.1811
  294MOL0     C40496   0.690   2.593   7.269  1.4326 -0.4880  0.1646
  294MOL0     C40497   0.659   2.683   7.143  0.6096 -0.1274 -0.1457
  294MOL0     C40498   0.640   2.820   7.197 -0.6241 -0.3220 -1.0949
  294MOL0     C40499   0.629   2.925   7.252  0.2796 -0.5347  0.2940
  294MOL0     C40500   0.420   2.222   7.189 -0.5199 -0.5095 -0.4768
  294MOL0     C40501   0.301   2.216   7.106  0.4889  0.1208  0.3418
  294MOL0     C40502   0.305   2.133   6.981  0.6361 -1.4339 -0.1841
  294MOL0     H40503  -0.028   2.479   6.871  0.1549  1.5571  0.1035
  294MOL0     H40504  -0.209   2.497   6.721  0.7139 -0.4028  1.0960
  294MOL0     H40505  -0.603   2.562   6.849  2.3992  1.2947 -2.1163
  294MOL0     H40506  -0.640   2.385   6.881  2.0770 -0.7492 -0.6671
  294MOL0     H40507  -0.783   2.442   6.719  1.2765 -0.2968  1.4612
  294MOL0     H40508  -0.690   2.581   6.659 -4.3256  1.2509  2.4107
  294MOL0     H40509  -0.584   2.455   6.498 -0.0347  0.7567  0.2921
  294MOL0     H40510  -0.594   2.302   6.598 -3.4134 -0.8852  1.1956
  294MOL0     H40511  -0.787   2.256   6.541  0.9160 -0.4130 -1.1921
  294MOL0     H40512  -0.841   2.413   6.471 -1.5926 -0.8427 -0.7045
  294MOL0     H40513  -0.646   2.234   6.330 -1.4454 -1.9707 -0.6189
  294MOL0     H40514  -0.700   2.408   6.296 -3.6811  1.4119  0.0079
  294MOL0     H40515  -0.781   2.196   6.161  1.9298  2.1483 -0.5942
  294MOL0     H40516  -0.865   2.164   6.308  1.0582 -0.0762 -0.7447
  294MOL0     H40517  -1.024   2.349   6.263 -3.7559  2.4771 -3.6875
  294MOL0     H40518  -1.004   2.252   6.129  1.4604 -2.5292  1.7756
  294MOL0     H40519  -0.852   2.527   6.167  1.0732  0.9292 -1.9391
  294MOL0     H40520  -0.858   2.448   6.015  0.4423  1.1473 -0.2212
  294MOL0     H40521  -1.094   2.397   5.902  0.0656 -1.0748  1.5244
  294MOL0     H40522  -1.329   2.505   5.788 -1.3647 -2.6126  2.2158
  294MOL0     H40523  -1.338   2.678   5.831 -0.3677  0.0879 -0.1699
  294MOL0     H40524  -1.479   2.645   6.019  1.0865 -1.4099  0.2926
  294MOL0     H40525  -1.548   2.561   5.879  0.7001  1.6795  0.4648
  294MOL0     H40526  -1.467   2.357   5.946  1.9694  1.9316 -1.6074
  294MOL0     H40527  -1.359   2.407   6.073 -1.2295 -0.0685  3.5100
  294MOL0     H40528  -1.564   2.321   6.182  0.1457 -0.9541 -0.3779
  294MOL0     H40529  -1.559   2.498   6.208 -0.6641 -2.1309  2.7162
  294MOL0     H40530  -1.874   2.445   5.889 -2.1097  1.0802  0.8030
  294MOL0     H40531  -2.195   2.449   5.902  0.4081 -0.1134 -0.2198
  294MOL0     H40532  -2.181   2.281   5.847  1.0852  0.6751 -3.8510
  294MOL0     H40533  -2.064   2.391   5.796 -1.9614 -0.5766 -0.8018
  294MOL0     H40534  -2.414   2.121   6.053 -0.0199  0.7670  0.6650
  294MOL0     H40535  -2.640   2.056   6.114  0.4812 -1.6750 -0.6802
  294MOL0     H40536  -2.905   1.951   6.476  0.4457 -0.9576  0.9265
  294MOL0     H40537  -2.743   1.927   6.537 -1.3813 -2.1438 -1.2285
  294MOL0     H40538  -2.719   2.171   6.557 -0.0684 -1.2699  0.7389
  294MOL0     H40539  -2.879   2.196   6.489  2.2816  0.9167 -0.4055
  294MOL0     H40540  -2.827   2.028   6.736  0.0751  0.1914  1.6073
  294MOL0     H40541  -2.988   2.086   6.664  0.5219  0.6734 -3.8561
  294MOL0     H40542  -2.952   2.308   6.727 -1.4315 -0.8700 -1.1542
  294MOL0     H40543  -2.799   2.263   6.809  0.6693 -0.1552  0.5018
  294MOL0     H40544  -3.076   2.169   6.905 -0.6432  2.7763  0.0345
  294MOL0     H40545  -2.914   2.139   6.977  0.9250 -0.0461 -0.8507
  294MOL0     H40546  -2.893   2.387   7.007  0.5921 -0.9519  1.8111
  294MOL0     H40547  -3.029   2.331   7.085 -0.0263  2.2769 -1.0093
  294MOL0     H40548  -3.189   2.424   6.950 -0.5258  1.1742  0.6945
  294MOL0     H40549  -3.092   2.413   6.815 -2.5186  2.2314  0.0100
  294MOL0     H40550  -3.103   2.649   6.887  0.4023  0.6744  1.6038
  294MOL0     H40551  -2.938   2.601   6.926  0.5353  1.5365 -0.0248
  294MOL0     H40552  -2.521   2.003   6.536 -0.1926  2.8541  1.6806
  294MOL0     H40553  -2.297   2.049   6.465  1.7977 -0.3785 -2.0160
  294MOL0     H40554  -1.988   2.241   6.321 -1.8925  0.0826 -0.2186
  294MOL0     H40555  -1.756   2.323   6.278 -0.4989 -1.4521  1.2218
  294MOL0     H40556  -0.480   2.347   7.044 -1.7640  0.0981 -1.0465
  294MOL0     H40557  -0.277   2.325   7.187 -3.2407  0.8481  0.9904
  294MOL0     H40558   0.119   2.405   7.311  0.4771 -0.8343  1.3783
  294MOL0     H40559   0.303   2.405   7.436 -1.1613 -5.1841  2.4130
  294MOL0     H40560   0.510   2.448   7.525  1.8051  1.3660  0.7493
  294MOL0     H40561   0.681   2.440   7.475  1.7673  1.8133 -1.6260
  294MOL0     H40562   0.536   2.655   7.407 -0.2068 -0.2342  0.7182
  294MOL0     H40563   0.479   2.550   7.282  0.2650 -0.8332 -0.2095
  294MOL0     H40564   0.774   2.633   7.327  2.3354 -0.2892 -1.2398
  294MOL0     H40565   0.735   2.500   7.233  1.5432 -1.8388  3.4152
  294MOL0     H40566   0.573   2.652   7.084 -2.5201  0.5075  3.6319
  294MOL0     H40567   0.737   2.684   7.066 -0.5054 -1.5389 -1.3473
  294MOL0     H40568   0.598   3.017   7.298 -0.7649 -1.7336  2.0992
  294MOL0     H40569   0.512   2.179   7.150 -0.2646 -0.1182 -0.3069
  294MOL0     H40570   0.401   2.104   6.937  0.1105 -2.2561 -0.8284
  294MOL0     H40571   0.258   2.037   7.005  2.7028 -2.7529 -1.0934
  294MOL0     H40572   0.246   2.185   6.905 -1.2944 -4.0094 -0.5839
  295MOL0     O40573  11.116   5.311   2.443  0.5214 -0.4122  0.0416
  295MOL0     C40574  11.050   5.360   2.346  0.9851  0.8505  0.3179
  295MOL0     O40575  11.047   5.316   2.218 -0.0799 -0.3197 -0.2787
  295MOL0     C40576  11.135   5.218   2.197  0.2384  0.3905  0.4921
  295MOL0     C40577  11.093   5.089   2.228 -0.4118 -0.0110 -0.0278
  295MOL0     C40578  11.181   4.984   2.208 -1.4107  1.2301  0.9600
  295MOL0     C40579  11.312   5.006   2.162  0.1473 -0.2446 -0.0944
  295MOL0     O40580  11.405   4.908   2.125  0.6836  0.1377  0.0932
  295MOL0     C40581  11.481   4.872   2.236 -0.8428  0.6500 -1.5498
  295MOL0     C40582  11.595   4.783   2.179 -0.4184 -1.0635  0.4959
  295MOL0     C40583  11.546   4.648   2.134  0.5071  0.0544 -0.2993
  295MOL0     C40584  11.653   4.577   2.054  0.2362 -0.2808  1.0631
  295MOL0     C40585  11.610   4.438   2.008 -0.3168  0.4664 -0.0615
  295MOL0     C40586  11.734   4.364   1.945  0.1985 -0.3843 -0.3897
  295MOL0     C40587  11.722   4.219   1.983  0.8845  0.8602  0.1606
  295MOL0     C40588  11.832   4.125   1.921 -0.0536  0.6780 -0.0562
  295MOL0     N40589  11.856   4.131   1.774  0.4207  0.6983  0.4744
  295MOL0     C40590  11.764   4.096   1.681  0.5085  0.0126  0.2510
  295MOL0     C40591  11.832   4.101   1.564 -0.8445  0.5358  0.6867
  295MOL0     C40592  11.796   4.068   1.417 -0.8483 -0.5371  0.4531
  295MOL0     C40593  11.851   3.935   1.371  0.0507  0.4923 -0.9430
  295MOL0     C40594  11.754   3.871   1.267  0.9727  0.8042 -0.2704
  295MOL0     C40595  11.765   3.938   1.130 -0.1510  0.5740  0.2388
  295MOL0     O40596  11.630   3.946   1.069 -0.3685 -1.0292  0.4084
  295MOL0     C40597  11.638   4.037   0.969  0.5077 -0.0191 -0.3271
  295MOL0     C40598  11.519   4.096   0.938  0.6231  0.8289  0.5855
  295MOL0     C40599  11.496   4.169   0.824 -0.0468 -0.3919  0.2800
  295MOL0     C40600  11.358   4.228   0.806 -0.9859 -0.7393  0.2695
  295MOL0     C40601  11.599   4.191   0.730 -0.9140  0.3650  0.3131
  295MOL0     C40602  11.592   4.272   0.607  0.3879 -0.5999  0.7439
  295MOL0     O40603  11.708   4.300   0.540  0.2598 -0.7875 -0.5824
  295MOL0     C40604  11.704   4.387   0.434  1.2368  0.3494 -0.2778
  295MOL0     C40605  11.649   4.519   0.440  0.0458  0.9442 -0.5630
  295MOL0     C40606  11.649   4.604   0.327 -0.5962 -0.2419  0.0638
  295MOL0     C40607  11.720   4.567   0.208  0.2087  0.3615 -0.9348
  295MOL0     O40608  11.727   4.639   0.088  0.3257 -0.5821  0.1384
  295MOL0     C40609  11.636   4.745   0.075  0.2317 -1.1693  0.2806
  295MOL0     C40610  11.639   4.814  -0.063  0.7170 -0.4065  0.1830
  295MOL0     C40611  11.768   4.907  -0.071  0.8139  0.3361  0.4546
  295MOL0     C40612  11.770   4.989  -0.200  0.7761  0.4594  0.9365
  295MOL0     C40613  11.894   5.086  -0.221  2.0226 -0.8348 -0.7183
  295MOL0     C40614  12.029   5.018  -0.197  0.2235  0.7181 -1.2527
  295MOL0     C40615  12.138   5.114  -0.236 -0.3292  0.2276 -0.4245
  295MOL0     C40616  12.189   5.190  -0.106 -0.1412 -0.9203  0.3770
  295MOL0    Cl40617  12.274   5.326  -0.181  0.1928 -0.0591  0.2023
  295MOL0     C40618  11.789   4.445   0.212  0.5918  0.0887  0.0857
  295MOL0     C40619  11.777   4.358   0.319  0.0769  0.3105 -0.4821
  295MOL0     O40620  11.480   4.310   0.559 -0.2027  0.2445 -0.2636
  295MOL0     C40621  11.723   4.143   0.764  0.5765 -0.2122  0.2848
  295MOL0     C40622  11.743   4.065   0.875 -0.3809  0.7603  0.6175
  295MOL0     N40623  11.960   4.139   1.588  0.2709  0.9931 -0.4983
  295MOL0     N40624  11.976   4.165   1.715  0.3742  0.4661  0.5907
  295MOL0     C40625  11.346   5.135   2.115  0.6931  0.8377 -0.4386
  295MOL0     C40626  11.257   5.245   2.137  0.3547 -0.8348  0.9681
  295MOL0     C40627  10.967   5.478   2.381 -0.6163  0.8476 -0.1147
  295MOL0     C40628  10.865   5.515   2.290 -0.4831 -1.1884  0.7522
  295MOL0     C40629  10.779   5.624   2.304  0.3063 -0.2875 -0.4475
  295MOL0     C40630  10.804   5.698   2.415 -0.1639  1.1901  0.3640
  295MOL0     O40631  10.710   5.793   2.429  0.2052  0.0386 -0.2632
  295MOL0     C40632  10.606   5.770   2.534  0.2018  0.6491  0.6706
  295MOL0     C40633  10.531   5.899   2.579  0.4216 -0.7380  0.5720
  295MOL0     C40634  10.492   5.928   2.725  0.1539 -0.5736  0.3283
  295MOL0     C40635  10.610   5.958   2.817  0.2570  0.4546  0.8396
  295MOL0     C40636  10.562   5.989   2.954 -0.0371 -0.9298  0.8097
  295MOL0     C40637  10.527   6.017   3.068  0.8574  0.7944  0.3740
  295MOL0     C40638  10.895   5.663   2.521  0.1624 -1.0012  0.1089
  295MOL0     C40639  10.979   5.551   2.504  0.6651 -0.8122  0.1919
  295MOL0     C40640  11.071   5.518   2.621  0.3459  0.6896  0.5594
  295MOL0     H40641  10.990   5.074   2.257  0.4387 -1.9327  2.3609
  295MOL0     H40642  11.149   4.884   2.235 -0.3658  0.6652  0.2023
  295MOL0     H40643  11.438   4.801   2.307  3.3995  2.2189  3.1917
  295MOL0     H40644  11.513   4.957   2.297 -1.6095 -1.8557  2.8248
  295MOL0     H40645  11.635   4.849   2.102  2.6197 -1.4484  1.5918
  295MOL0     H40646  11.661   4.782   2.266 -2.7790 -0.2154  2.3798
  295MOL0     H40647  11.515   4.600   2.227 -1.2429  0.8020 -0.4766
  295MOL0     H40648  11.461   4.670   2.069  0.4279  1.2949  0.2058
  295MOL0     H40649  11.686   4.632   1.966  0.5586  2.7448  2.9508
  295MOL0     H40650  11.746   4.576   2.111  1.8187  0.0332 -1.3605
  295MOL0     H40651  11.531   4.452   1.934 -1.0966 -3.0759 -0.0751
  295MOL0     H40652  11.583   4.374   2.092  2.3118 -1.7855 -0.7650
  295MOL0     H40653  11.749   4.391   1.840  0.2344  2.8597  0.3484
  295MOL0     H40654  11.826   4.394   1.997  1.3521 -0.2324 -2.4083
  295MOL0     H40655  11.623   4.183   1.954  0.9812 -0.2888  1.1945
  295MOL0     H40656  11.733   4.216   2.091 -3.6929 -0.7848  0.7785
  295MOL0     H40657  11.934   4.140   1.959  1.2761 -1.5806 -2.3964
  295MOL0     H40658  11.801   4.022   1.937 -1.9548  1.2711  0.3313
  295MOL0     H40659  11.659   4.079   1.698  0.6801  0.4585  1.9663
  295MOL0     H40660  11.827   4.147   1.348  2.7359 -2.1868 -0.0924
  295MOL0     H40661  11.687   4.073   1.413 -0.8081 -0.2946 -2.3901
  295MOL0     H40662  11.949   3.957   1.327  0.9556  1.8566  1.5566
  295MOL0     H40663  11.858   3.875   1.462  1.6415 -2.3614 -2.7724
  295MOL0     H40664  11.784   3.769   1.242 -0.0651  0.6381 -0.8862
  295MOL0     H40665  11.649   3.865   1.297  0.8635 -0.7447 -0.8556
  295MOL0     H40666  11.800   4.042   1.134  0.3924  0.3728  0.7847
  295MOL0     H40667  11.837   3.880   1.072 -0.5431  0.2953  0.0249
  295MOL0     H40668  11.435   4.081   1.006  1.3961  1.8143  1.8165
  295MOL0     H40669  11.298   4.203   0.894 -2.4272  4.1670  1.0081
  295MOL0     H40670  11.292   4.210   0.720  0.2801 -2.3692 -0.4120
  295MOL0     H40671  11.378   4.336   0.808  0.7936 -0.9131 -2.5447
  295MOL0     H40672  11.587   4.559   0.520 -2.9236 -0.2375 -2.1415
  295MOL0     H40673  11.606   4.703   0.337 -0.2387 -0.2319  2.1879
  295MOL0     H40674  11.538   4.698   0.077 -0.0587 -0.7900  4.3074
  295MOL0     H40675  11.647   4.819   0.155 -0.3854 -1.1502  0.3523
  295MOL0     H40676  11.632   4.742  -0.145  1.3617  1.4344 -1.5716
  295MOL0     H40677  11.536   4.851  -0.061  0.1937 -1.7345 -0.3876
  295MOL0     H40678  11.857   4.845  -0.062  1.3107  0.7330 -1.2632
  295MOL0     H40679  11.778   4.975   0.014  1.6055  1.4152 -0.4530
  295MOL0     H40680  11.677   5.046  -0.214 -0.7664 -2.0411  0.3993
  295MOL0     H40681  11.775   4.916  -0.281  4.8424  0.4972  0.9488
  295MOL0     H40682  11.883   5.124  -0.323  0.1257  0.1031 -0.2187
  295MOL0     H40683  11.867   5.162  -0.147 -3.8055 -0.9841 -2.2261
  295MOL0     H40684  12.029   4.924  -0.254  2.0161 -0.1269  0.0622
  295MOL0     H40685  12.049   4.979  -0.097  0.5773 -1.4363 -2.0958
  295MOL0     H40686  12.097   5.175  -0.317  3.0840 -1.8030 -4.0392
  295MOL0     H40687  12.221   5.057  -0.279 -1.2032 -1.9500  0.6273
  295MOL0     H40688  12.266   5.157  -0.035 -1.2156  1.9196  3.0911
  295MOL0     H40689  12.099   5.222  -0.052 -0.4732 -0.2019 -0.5936
  295MOL0     H40690  11.845   4.421   0.122  0.3343  1.2299 -0.3921
  295MOL0     H40691  11.841   4.270   0.316 -0.4221 -0.0377 -1.9442
  295MOL0     H40692  11.795   4.146   0.682 -1.1205 -0.3745 -1.2885
  295MOL0     H40693  11.838   4.011   0.881  1.9268  4.1037 -1.9428
  295MOL0     H40694  11.444   5.166   2.083  2.1509 -3.4451 -0.7116
  295MOL0     H40695  11.287   5.347   2.119 -0.5706 -0.9079 -1.4437
  295MOL0     H40696  10.827   5.445   2.217  0.6219  0.0732 -1.1122
  295MOL0     H40697  10.698   5.646   2.234  0.4096 -1.5975 -1.0231
  295MOL0     H40698  10.534   5.704   2.486  0.6807  1.5257 -1.3292
  295MOL0     H40699  10.651   5.712   2.615 -0.0231  0.0184  0.3474
  295MOL0     H40700  10.444   5.916   2.515 -0.3169 -2.3456  1.1200
  295MOL0     H40701  10.606   5.973   2.549 -2.0448  0.4393 -3.5394
  295MOL0     H40702  10.428   6.016   2.739 -0.3354 -0.3727 -2.6541
  295MOL0     H40703  10.429   5.849   2.767 -0.4325 -0.7299 -0.8055
  295MOL0     H40704  10.659   6.050   2.783 -0.5501 -0.0684 -1.9940
  295MOL0     H40705  10.690   5.883   2.814  1.3093  1.5492 -0.0652
  295MOL0     H40706  10.502   6.049   3.167 -1.7031  2.1702 -0.5957
  295MOL0     H40707  10.895   5.715   2.616  1.1514  0.8730 -0.8709
  295MOL0     H40708  11.174   5.510   2.584 -0.5390 -0.7540 -1.8411
  295MOL0     H40709  11.067   5.595   2.698 -1.6876  1.2110 -0.0204
  295MOL0     H40710  11.045   5.417   2.655 -0.8183 -0.3639 -2.9665
  296MOL0     O40711   8.613   7.589   7.526 -0.0514 -0.3810  0.1179
  296MOL0     C40712   8.686   7.488   7.521  0.2678  0.1939  1.3195
  296MOL0     O40713   8.771   7.432   7.618 -0.5416 -0.6441  0.1237
  296MOL0     C40714   8.790   7.481   7.746 -1.3420 -0.3202  0.1627
  296MOL0     C40715   8.879   7.406   7.822 -0.4295 -0.5937 -0.7322
  296MOL0     C40716   8.944   7.465   7.929  0.1968 -0.3248 -0.3107
  296MOL0     C40717   8.939   7.604   7.959  0.1021 -0.6281 -0.1077
  296MOL0     O40718   9.020   7.657   8.061  0.5022  0.3612  0.0951
  296MOL0     C40719   9.161   7.642   8.039 -0.6179  0.2334 -0.6943
  296MOL0     C40720   9.237   7.739   8.129 -0.8026 -0.6635  0.0501
  296MOL0     C40721   9.395   7.765   8.107 -0.5979  0.5175 -0.5842
  296MOL0     C40722   9.446   7.879   8.199 -0.8652 -0.0693  0.6440
  296MOL0     C40723   9.599   7.904   8.184  0.6000 -0.0002  0.2762
  296MOL0     C40724   9.696   7.800   8.233  0.4512  0.0804  0.3791
  296MOL0     C40725   9.838   7.856   8.235  0.0726 -0.2461 -0.6893
  296MOL0     C40726   9.945   7.746   8.249  0.3154 -0.1182  0.1676
  296MOL0     N40727  10.077   7.807   8.248  0.8445  0.0311 -0.0558
  296MOL0     C40728  10.177   7.803   8.343 -0.4191  0.3749 -0.3878
  296MOL0     C40729  10.286   7.852   8.270 -0.1696 -0.7736  0.1827
  296MOL0     C40730  10.417   7.896   8.333 -0.4708  1.5155 -0.5961
  296MOL0     C40731  10.528   7.793   8.320 -0.9800 -0.2692 -0.2439
  296MOL0     C40732  10.570   7.771   8.179 -0.4784 -0.0117  0.2261
  296MOL0     C40733  10.550   7.629   8.129  0.4485 -1.1873  0.4383
  296MOL0     O40734  10.631   7.538   8.208 -0.2198 -0.0908  0.7879
  296MOL0     C40735  10.603   7.402   8.192  0.3630 -0.5491 -0.7318
  296MOL0     C40736  10.593   7.339   8.075 -0.7592 -0.5835  0.3619
  296MOL0     C40737  10.547   7.208   8.056  0.2865 -0.5426  0.3132
  296MOL0     C40738  10.574   7.158   7.916  0.1304 -0.4398  0.3719
  296MOL0     C40739  10.518   7.134   8.175  0.1411  0.5809 -0.2927
  296MOL0     C40740  10.471   7.000   8.169  1.3111  0.0374  0.2949
  296MOL0     O40741  10.468   6.945   8.295  0.2715 -0.2073 -0.0707
  296MOL0     C40742  10.391   6.833   8.327 -0.8902 -1.6968  0.5775
  296MOL0     C40743  10.274   6.852   8.404 -0.0991 -0.2585 -0.3543
  296MOL0     C40744  10.188   6.741   8.445  0.4507  0.5698  0.1290
  296MOL0     C40745  10.216   6.616   8.390 -0.6698  1.1392  0.7914
  296MOL0     O40746  10.141   6.507   8.429 -0.6270 -0.1515 -1.0621
  296MOL0     C40747  10.020   6.534   8.493  0.3865  0.7477 -0.0358
  296MOL0     C40748   9.947   6.413   8.536 -0.4324  0.8748  0.1493
  296MOL0     C40749   9.844   6.357   8.438 -0.0082 -0.7346  1.0294
  296MOL0     C40750   9.741   6.270   8.502  0.9201  0.6654  0.7427
  296MOL0     C40751   9.659   6.181   8.401 -0.1969 -0.7902 -0.8577
  296MOL0     C40752   9.595   6.056   8.461 -0.8125 -0.6279  0.2920
  296MOL0     C40753   9.478   6.092   8.558 -0.8688 -0.4353  0.1298
  296MOL0     C40754   9.390   5.964   8.566  0.3200  0.1374 -0.2745
  296MOL0    Cl40755   9.233   6.016   8.634  0.8369 -0.1902  0.1242
  296MOL0     C40756  10.341   6.596   8.325 -0.8548  0.5691 -0.5268
  296MOL0     C40757  10.431   6.701   8.294 -0.9239  0.2309  0.1657
  296MOL0     O40758  10.424   6.947   8.072  0.3801 -0.5137  0.4955
  296MOL0     C40759  10.545   7.197   8.305 -0.7816  0.0780  0.0079
  296MOL0     C40760  10.589   7.333   8.313  0.7270 -0.3342  0.0992
  296MOL0     N40761  10.252   7.884   8.133 -0.2200 -0.2274 -0.1973
  296MOL0     N40762  10.129   7.862   8.129 -0.0165  0.3582  0.0517
  296MOL0     C40763   8.843   7.680   7.887  0.3426  0.1343  1.0608
  296MOL0     C40764   8.767   7.612   7.788 -0.4553 -0.5017 -0.3688
  296MOL0     C40765   8.689   7.418   7.394 -0.1914  0.6288  1.0520
  296MOL0     C40766   8.569   7.405   7.323  0.2072  0.5478 -1.7448
  296MOL0     C40767   8.564   7.332   7.210 -0.3939  0.0038  0.2224
  296MOL0     C40768   8.672   7.263   7.161 -0.2880 -0.0650  0.9655
  296MOL0     O40769   8.643   7.181   7.050 -0.1580  0.0040 -0.3862
  296MOL0     C40770   8.768   7.136   6.992  0.3839  0.0258 -0.8425
  296MOL0     C40771   8.723   7.032   6.885  0.4053  0.0172  1.0040
  296MOL0     C40772   8.656   7.114   6.769  0.8220  0.3732 -0.8678
  296MOL0     C40773   8.719   7.101   6.635  0.4190 -0.9397 -0.2042
  296MOL0     C40774   8.806   7.221   6.614 -0.2019  0.2736  0.6049
  296MOL0     C40775   8.873   7.325   6.610 -0.8154 -0.1522 -0.8364
  296MOL0     C40776   8.796   7.284   7.226 -0.7638  0.1614 -0.4161
  296MOL0     C40777   8.805   7.361   7.338  0.3302 -0.5154  0.3471
  296MOL0     C40778   8.948   7.366   7.404 -0.0955 -0.4463  0.4625
  296MOL0     H40779   8.914   7.305   7.805 -0.3394 -0.2501 -2.9972
  296MOL0     H40780   9.017   7.409   7.987  1.3997 -0.3581 -1.8042
  296MOL0     H40781   9.178   7.659   7.932 -3.6000 -0.6753 -1.3860
  296MOL0     H40782   9.199   7.547   8.080  1.3586  1.7506  1.2505
  296MOL0     H40783   9.191   7.836   8.110  0.5477 -0.6173 -3.6796
  296MOL0     H40784   9.229   7.725   8.238  2.0736 -2.0240  0.1889
  296MOL0     H40785   9.441   7.669   8.131  2.1944  1.0831 -2.9990
  296MOL0     H40786   9.421   7.797   8.005  2.2055  0.5835  0.0616
  296MOL0     H40787   9.390   7.970   8.174  1.3980  0.4721 -3.1865
  296MOL0     H40788   9.436   7.856   8.306  2.1305  0.5048  1.1284
  296MOL0     H40789   9.617   7.986   8.254 -1.2090 -0.9871  1.9997
  296MOL0     H40790   9.615   7.933   8.079  1.1557 -1.3557 -0.0370
  296MOL0     H40791   9.666   7.768   8.333 -2.1630  0.3005 -0.2467
  296MOL0     H40792   9.698   7.716   8.164  2.2808  0.3085  0.0960
  296MOL0     H40793   9.860   7.937   8.305  1.5289 -0.0614 -1.3288
  296MOL0     H40794   9.851   7.897   8.134  1.1744  0.1741 -0.3831
  296MOL0     H40795   9.920   7.689   8.339 -3.1797  2.2602  0.9056
  296MOL0     H40796   9.933   7.679   8.163 -0.6667  0.4700 -0.1654
  296MOL0     H40797  10.174   7.775   8.448  3.6616  1.2374  0.1327
  296MOL0     H40798  10.398   7.899   8.441 -1.5017 -2.2110 -0.5335
  296MOL0     H40799  10.444   7.994   8.292 -2.7872  1.6713 -1.8957
  296MOL0     H40800  10.609   7.835   8.381 -1.0331  1.4234 -1.2716
  296MOL0     H40801  10.498   7.703   8.374  0.1435 -0.2912  0.3963
  296MOL0     H40802  10.502   7.835   8.121 -4.5405 -1.7695  2.6346
  296MOL0     H40803  10.672   7.805   8.161 -0.6461 -0.2793 -1.4812
  296MOL0     H40804  10.446   7.596   8.140 -1.1880  2.7026 -1.4297
  296MOL0     H40805  10.570   7.634   8.022  0.0199  3.9510  0.3313
  296MOL0     H40806  10.613   7.396   7.985  3.0851  0.5099  1.7171
  296MOL0     H40807  10.587   7.049   7.912 -1.1585 -0.6030  0.4699
  296MOL0     H40808  10.663   7.198   7.865 -1.1548  0.4153 -1.2799
  296MOL0     H40809  10.489   7.180   7.851  0.7106 -0.1209 -0.3028
  296MOL0     H40810  10.243   6.948   8.444 -5.3664 -1.0931 -1.6922
  296MOL0     H40811  10.108   6.767   8.513 -2.1078  0.1834 -2.5589
  296MOL0     H40812  10.043   6.589   8.585  1.7294 -0.2578  0.2548
  296MOL0     H40813   9.954   6.600   8.435 -1.2079 -1.1457 -0.4869
  296MOL0     H40814  10.029   6.342   8.547 -2.0500 -0.7364  3.0272
  296MOL0     H40815   9.901   6.436   8.632  0.6347  0.8966  0.6727
  296MOL0     H40816   9.908   6.308   8.364  1.0829  4.6504 -2.1423
  296MOL0     H40817   9.803   6.439   8.379 -0.3297  1.4565  4.0573
  296MOL0     H40818   9.669   6.335   8.552 -0.3515 -1.3783  1.6833
  296MOL0     H40819   9.796   6.210   8.575  1.0618 -0.0484  0.0692
  296MOL0     H40820   9.585   6.243   8.350  0.0165 -0.5352 -0.8560
  296MOL0     H40821   9.734   6.145   8.329  1.4652 -2.2564  1.4575
  296MOL0     H40822   9.668   5.988   8.505  0.5692  1.2935  1.1474
  296MOL0     H40823   9.565   6.017   8.364  2.3690 -0.2361 -0.9698
  296MOL0     H40824   9.411   6.169   8.518 -3.0437 -2.4814 -0.3894
  296MOL0     H40825   9.519   6.122   8.655 -0.1458 -1.9762  0.3288
  296MOL0     H40826   9.427   5.878   8.624  1.0897  1.3614  1.1269
  296MOL0     H40827   9.369   5.924   8.466  0.1049 -1.1199  0.2476
  296MOL0     H40828  10.377   6.494   8.314  0.2371  1.0697 -2.0297
  296MOL0     H40829  10.526   6.673   8.252 -2.9576 -6.4799 -1.2217
  296MOL0     H40830  10.529   7.146   8.399  0.7292  0.3375  0.4341
  296MOL0     H40831  10.607   7.370   8.413 -2.7892  0.3816  0.5825
  296MOL0     H40832   8.822   7.786   7.894 -2.1338  0.0932 -2.7994
  296MOL0     H40833   8.693   7.680   7.746 -3.8446 -0.3035  5.0244
  296MOL0     H40834   8.483   7.451   7.372 -0.8525 -0.9382 -2.1263
  296MOL0     H40835   8.475   7.322   7.148  0.0043 -1.7904 -0.1073
  296MOL0     H40836   8.841   7.207   6.953  3.6716 -1.9678  1.2614
  296MOL0     H40837   8.821   7.061   7.050 -2.4120 -2.0326 -0.7034
  296MOL0     H40838   8.656   6.958   6.930  1.0459 -1.3396 -0.2111
  296MOL0     H40839   8.797   6.966   6.840 -2.3809 -1.1314 -2.4020
  296MOL0     H40840   8.550   7.087   6.767  0.7168  0.4409  1.2970
  296MOL0     H40841   8.664   7.220   6.795  1.0371  0.2388 -0.3696
  296MOL0     H40842   8.639   7.109   6.561 -0.2076  2.6336  0.6771
  296MOL0     H40843   8.776   7.008   6.632  2.4878  0.1656  1.3706
  296MOL0     H40844   8.932   7.414   6.613 -0.3727 -0.4669  0.1485
  296MOL0     H40845   8.892   7.241   7.197 -0.4376 -0.9506  2.0082
  296MOL0     H40846   8.944   7.311   7.499 -2.0904 -1.8628 -0.3595
  296MOL0     H40847   9.030   7.340   7.337 -1.6310 -1.1264 -1.2368
  296MOL0     H40848   8.987   7.458   7.448  1.9888 -0.4784 -1.1587
  297MOL0     O40849   1.651   3.224   4.742  0.4880 -0.2800  0.2011
  297MOL0     C40850   1.723   3.153   4.810 -1.2768  0.6588  0.1682
  297MOL0     O40851   1.701   3.027   4.841  0.1182  0.9738  1.0629
  297MOL0     C40852   1.593   2.947   4.802  0.8151 -0.0769 -0.0436
  297MOL0     C40853   1.606   2.806   4.830 -0.7229 -0.7065  0.3385
  297MOL0     C40854   1.509   2.718   4.791  0.7011 -0.9362 -0.0286
  297MOL0     C40855   1.395   2.753   4.721 -0.1376 -0.2690  0.3960
  297MOL0     O40856   1.296   2.670   4.682  0.9284 -0.1566 -0.7729
  297MOL0     C40857   1.319   2.529   4.677 -0.1265  0.0948  0.6534
  297MOL0     C40858   1.182   2.461   4.635  0.6248  0.4028 -0.1840
  297MOL0     C40859   1.144   2.486   4.487 -0.2836 -0.2213  0.1389
  297MOL0     C40860   1.005   2.525   4.470  0.0913  0.7314 -0.6753
  297MOL0     C40861   0.897   2.423   4.528  0.0144 -0.0860  0.1433
  297MOL0     C40862   0.764   2.497   4.526  0.7667 -0.3985 -0.6954
  297MOL0     C40863   0.644   2.415   4.562 -0.4024  0.1612 -0.8101
  297MOL0     C40864   0.635   2.375   4.709 -0.2881 -0.2164  0.0602
  297MOL0     N40865   0.635   2.494   4.798  0.2324 -0.0611 -0.7920
  297MOL0     C40866   0.560   2.609   4.778  0.0011 -0.4729  0.3962
  297MOL0     C40867   0.573   2.673   4.894 -1.0730  0.6354 -1.3555
  297MOL0     C40868   0.520   2.812   4.917  0.0343 -0.4654  0.5455
  297MOL0     C40869   0.629   2.908   4.868  0.1887 -0.7872  0.2714
  297MOL0     C40870   0.560   3.047   4.873 -0.2703 -0.0442  0.1924
  297MOL0     C40871   0.658   3.159   4.823  0.5399 -0.0150 -0.1160
  297MOL0     O40872   0.688   3.149   4.686  0.5767 -0.7986  0.0465
  297MOL0     C40873   0.792   3.226   4.639 -0.6395  0.0832  0.5888
  297MOL0     C40874   0.920   3.210   4.690  0.0755 -0.8160 -0.0413
  297MOL0     C40875   1.031   3.291   4.671 -1.0184 -0.0113  0.5150
  297MOL0     C40876   1.170   3.253   4.726  0.4532  0.2868 -0.3465
  297MOL0     C40877   1.012   3.393   4.568 -0.4421  0.8832  0.2326
  297MOL0     C40878   1.120   3.478   4.510 -0.4394 -0.9237  0.6193
  297MOL0     O40879   1.128   3.506   4.372 -0.2916 -0.1894  0.0283
  297MOL0     C40880   1.234   3.576   4.322 -1.0424  0.5586  0.0930
  297MOL0     C40881   1.368   3.564   4.360  0.2619 -1.0972  0.7765
  297MOL0     C40882   1.461   3.643   4.304  0.7686  0.0834 -0.4730
  297MOL0     C40883   1.418   3.756   4.230  0.4515  0.2932 -0.8121
  297MOL0     O40884   1.520   3.848   4.209 -0.2711  0.3215 -0.3295
  297MOL0     C40885   1.491   3.987   4.235 -0.4690 -0.3717  0.2683
  297MOL0     C40886   1.630   4.068   4.254  0.3857  1.1722 -0.8087
  297MOL0     C40887   1.631   4.207   4.313  0.0406 -0.8346 -0.0282
  297MOL0     C40888   1.579   4.305   4.202  0.3242 -0.1947 -0.0523
  297MOL0     C40889   1.684   4.374   4.121  0.7478 -0.4317 -0.1980
  297MOL0     C40890   1.761   4.279   4.018  0.5443 -0.4039 -0.6880
  297MOL0     C40891   1.869   4.341   3.929  1.6934  0.2397 -0.7788
  297MOL0     C40892   1.818   4.449   3.832  0.1351  1.1449  0.8038
  297MOL0    Cl40893   1.943   4.478   3.708  0.2679 -0.2124 -0.2123
  297MOL0     C40894   1.283   3.779   4.198  0.2807 -0.6318 -0.1357
  297MOL0     C40895   1.189   3.681   4.238 -1.1851 -0.4223  0.5203
  297MOL0     O40896   1.199   3.526   4.587 -0.7682  0.3764  0.4538
  297MOL0     C40897   0.887   3.402   4.505  0.2857  0.2223 -0.7759
  297MOL0     C40898   0.778   3.328   4.548 -0.2240  0.0871  1.0036
  297MOL0     N40899   0.667   2.612   4.978 -0.4902  0.1400  0.2019
  297MOL0     N40900   0.703   2.504   4.919 -0.7061 -0.4835  0.5998
  297MOL0     C40901   1.381   2.891   4.685 -1.0674  0.2672 -0.4500
  297MOL0     C40902   1.482   2.990   4.724  0.1459  0.5945  0.0319
  297MOL0     C40903   1.853   3.205   4.863 -0.0326  0.1053 -0.9074
  297MOL0     C40904   1.851   3.343   4.889  0.9378 -0.0914 -0.0932
  297MOL0     C40905   1.958   3.392   4.959 -0.4305 -0.1899 -0.1442
  297MOL0     C40906   2.065   3.321   5.008  0.2188 -0.4516  0.1249
  297MOL0     O40907   2.176   3.387   5.063  0.0457 -0.5267  0.2080
  297MOL0     C40908   2.305   3.325   5.101 -0.5638  0.4646 -0.0174
  297MOL0     C40909   2.407   3.431   5.087  1.0626  0.5437 -0.1530
  297MOL0     C40910   2.515   3.429   5.199  1.1397  0.2735  0.2736
  297MOL0     C40911   2.625   3.323   5.177 -0.3817 -0.3672 -0.1192
  297MOL0     C40912   2.718   3.338   5.299  0.2097  0.0966  0.3992
  297MOL0     C40913   2.776   3.357   5.402 -0.4416  0.0317 -0.0668
  297MOL0     C40914   2.068   3.188   4.974  0.1047 -0.4783 -0.2915
  297MOL0     C40915   1.967   3.126   4.894  0.6246  0.4879  0.2724
  297MOL0     C40916   1.984   2.984   4.849  0.6245 -0.7826  0.1368
  297MOL0     H40917   1.696   2.777   4.883 -1.1147 -2.8840 -0.0901
  297MOL0     H40918   1.525   2.615   4.820 -1.8826 -1.1995  0.7123
  297MOL0     H40919   1.343   2.492   4.777 -2.2506  2.7783  2.2942
  297MOL0     H40920   1.397   2.517   4.601 -0.3339 -0.1144  0.4698
  297MOL0     H40921   1.191   2.353   4.648  0.8701  0.3669 -0.6444
  297MOL0     H40922   1.096   2.495   4.693 -1.4882 -0.2412 -2.7501
  297MOL0     H40923   1.201   2.563   4.435 -1.3004  0.4136 -0.0708
  297MOL0     H40924   1.168   2.393   4.434  2.9923 -2.8775  5.4374
  297MOL0     H40925   0.996   2.623   4.518  2.8455 -0.1804  2.0090
  297MOL0     H40926   0.988   2.535   4.362 -1.0713  0.7085 -0.4965
  297MOL0     H40927   0.914   2.371   4.623 -3.7005  1.7648  2.0167
  297MOL0     H40928   0.899   2.352   4.444 -0.4708  1.0436 -0.8415
  297MOL0     H40929   0.783   2.579   4.595  1.8170 -0.1950 -1.2066
  297MOL0     H40930   0.746   2.549   4.431  1.4844  0.9852 -0.1002
  297MOL0     H40931   0.671   2.322   4.511  2.6709 -1.2351  2.8474
  297MOL0     H40932   0.550   2.458   4.527 -0.0586  0.5943 -1.2061
  297MOL0     H40933   0.540   2.328   4.736  0.6527 -1.3696  1.4470
  297MOL0     H40934   0.709   2.297   4.723 -0.2074 -0.8198 -3.0545
  297MOL0     H40935   0.507   2.640   4.689  1.6575 -1.4887 -0.9996
  297MOL0     H40936   0.496   2.822   5.024  3.1096  3.3437  1.1281
  297MOL0     H40937   0.428   2.815   4.857 -0.1478 -2.3898  0.6751
  297MOL0     H40938   0.713   2.905   4.937 -0.3790 -2.9534  0.9650
  297MOL0     H40939   0.664   2.883   4.767 -0.1592  0.2998 -0.1324
  297MOL0     H40940   0.473   3.045   4.807  0.0889  0.0889 -0.2903
  297MOL0     H40941   0.534   3.080   4.973 -0.4504  0.3770  0.0096
  297MOL0     H40942   0.609   3.255   4.840 -0.2882 -0.1322 -1.6780
  297MOL0     H40943   0.749   3.154   4.884  0.3215 -0.8443  0.1495
  297MOL0     H40944   0.937   3.131   4.763 -1.6444  1.7694  3.4244
  297MOL0     H40945   1.166   3.204   4.824  1.5023  1.5145  0.3486
  297MOL0     H40946   1.238   3.339   4.732 -0.2793  0.8560 -0.0283
  297MOL0     H40947   1.215   3.172   4.668 -4.1561 -2.9032  0.0208
  297MOL0     H40948   1.393   3.482   4.426 -0.2335  0.7073  3.3510
  297MOL0     H40949   1.561   3.608   4.327  0.1413 -3.5330 -2.4641
  297MOL0     H40950   1.439   4.046   4.159 -0.6804 -0.5742  0.2571
  297MOL0     H40951   1.434   3.998   4.327 -0.7796  1.2917 -0.0951
  297MOL0     H40952   1.691   4.012   4.326 -1.5438  0.5379  0.3909
  297MOL0     H40953   1.680   4.056   4.157 -1.3042 -2.9952 -1.3846
  297MOL0     H40954   1.732   4.247   4.326  1.3831 -3.5897 -1.2083
  297MOL0     H40955   1.576   4.231   4.404 -2.0375  1.9430 -1.8465
  297MOL0     H40956   1.518   4.386   4.243  1.6890  0.0915  1.4958
  297MOL0     H40957   1.507   4.256   4.135  2.7548 -0.4666 -2.6679
  297MOL0     H40958   1.623   4.442   4.062 -2.7151 -0.3071  3.1172
  297MOL0     H40959   1.761   4.428   4.178  1.0953 -0.5067 -0.5905
  297MOL0     H40960   1.679   4.230   3.964 -2.7462  0.3949  3.0846
  297MOL0     H40961   1.809   4.201   4.076 -1.8996 -1.3500  0.2091
  297MOL0     H40962   1.906   4.257   3.869 -3.7127 -2.3802 -1.0607
  297MOL0     H40963   1.956   4.377   3.984  0.6768  0.4213  0.7657
  297MOL0     H40964   1.793   4.540   3.888 -2.0096 -0.1602  2.1491
  297MOL0     H40965   1.734   4.408   3.776  2.0035 -1.7508 -0.0691
  297MOL0     H40966   1.249   3.866   4.142  3.5752  0.7320 -0.2401
  297MOL0     H40967   1.084   3.695   4.214 -0.7175  0.0077 -1.4244
  297MOL0     H40968   0.870   3.474   4.426 -2.9771 -0.6474 -0.9895
  297MOL0     H40969   0.679   3.346   4.506 -1.0065 -1.2358  2.2067
  297MOL0     H40970   1.284   2.923   4.647 -1.7324 -1.7366 -0.5491
  297MOL0     H40971   1.461   3.090   4.686 -0.2676  0.7557  0.6646
  297MOL0     H40972   1.770   3.407   4.857 -0.8785 -0.9374  2.4931
  297MOL0     H40973   1.969   3.500   4.968  0.8684 -0.1848 -1.3479
  297MOL0     H40974   2.287   3.296   5.205 -0.5681  1.0843  0.1568
  297MOL0     H40975   2.337   3.245   5.033  0.1793  2.3466 -2.0254
  297MOL0     H40976   2.361   3.531   5.084  0.5691  0.2930 -1.6828
  297MOL0     H40977   2.458   3.417   4.992  2.8111 -2.6246  1.1201
  297MOL0     H40978   2.546   3.533   5.208  1.4793  0.3933 -1.8194
  297MOL0     H40979   2.472   3.398   5.295 -0.0051 -2.6674 -1.0479
  297MOL0     H40980   2.681   3.346   5.086 -0.5683  0.8983  0.0651
  297MOL0     H40981   2.589   3.220   5.178  0.6509 -0.7576 -1.2761
  297MOL0     H40982   2.817   3.374   5.499  1.1568 -0.5293 -0.6091
  297MOL0     H40983   2.152   3.128   5.006 -0.9244 -2.3748 -1.0086
  297MOL0     H40984   1.957   2.928   4.939 -1.5175 -0.3567 -0.1994
  297MOL0     H40985   1.925   2.956   4.762  1.7272 -1.0569 -0.5368
  297MOL0     H40986   2.089   2.982   4.818  1.0076 -1.3930  1.3964
  298MOL0     O40987   3.837   7.987   9.104  0.2596 -0.2599  0.7215
  298MOL0     C40988   3.886   8.051   9.202 -0.2830 -0.0026  0.2473
  298MOL0     O40989   3.985   8.002   9.279 -0.1194 -1.0329  0.1879
  298MOL0     C40990   4.013   7.871   9.273  0.5287  0.4610 -1.0942
  298MOL0     C40991   4.130   7.820   9.210  0.7913  0.2451 -0.2611
  298MOL0     C40992   4.159   7.685   9.211 -0.1777  0.0264 -0.9527
  298MOL0     C40993   4.077   7.602   9.284  0.0507  0.8747 -0.1999
  298MOL0     O40994   4.123   7.472   9.294  0.9102 -0.3621 -0.8766
  298MOL0     C40995   4.093   7.384   9.181 -0.7675  0.8643  0.2088
  298MOL0     C40996   4.191   7.270   9.192  0.3693 -0.6492 -0.0916
  298MOL0     C40997   4.154   7.180   9.319 -0.0946  0.2114 -0.2880
  298MOL0     C40998   4.011   7.136   9.328  0.7571  0.8967 -0.0926
  298MOL0     C40999   3.995   7.000   9.401  0.3393  0.1784  0.1828
  298MOL0     C41000   3.851   6.961   9.396 -0.1846  0.7481 -0.8205
  298MOL0     C41001   3.827   6.845   9.491 -0.2081 -0.1106 -0.2304
  298MOL0     C41002   3.680   6.821   9.522  0.0963  0.0831  0.1226
  298MOL0     N41003   3.578   6.850   9.419 -0.4344  0.2019 -0.1533
  298MOL0     C41004   3.531   6.973   9.360 -0.4192 -0.0555 -0.7578
  298MOL0     C41005   3.424   6.937   9.290  1.2675  0.3666  0.3542
  298MOL0     C41006   3.338   7.026   9.190  0.6584  0.4506 -0.4933
  298MOL0     C41007   3.410   7.051   9.054  0.1982  0.3662  0.1465
  298MOL0     C41008   3.463   6.920   8.986  0.2806  0.0666 -0.1181
  298MOL0     C41009   3.603   6.893   9.009 -0.0452  0.3281 -1.3460
  298MOL0     O41010   3.634   6.779   8.936 -0.7385  0.0427  0.0023
  298MOL0     C41011   3.768   6.741   8.934  0.0951 -0.3262  0.8252
  298MOL0     C41012   3.870   6.802   9.008  0.6143 -0.6174  0.1785
  298MOL0     C41013   4.002   6.761   8.986 -0.0297 -0.5539 -0.2112
  298MOL0     C41014   4.089   6.869   9.042  0.8522  0.1138 -0.1091
  298MOL0     C41015   4.038   6.659   8.896 -0.6283  0.2054 -0.5452
  298MOL0     C41016   4.176   6.608   8.865  1.0900 -0.7749 -0.3630
  298MOL0     O41017   4.184   6.551   8.741 -0.2126  0.0603  0.0719
  298MOL0     C41018   4.295   6.493   8.688  0.7246  0.0993 -0.7568
  298MOL0     C41019   4.283   6.474   8.546 -0.3158 -1.3456  1.1625
  298MOL0     C41020   4.384   6.417   8.479 -0.3673  0.1761  0.7385
  298MOL0     C41021   4.496   6.362   8.545  0.0176 -0.5657  0.3801
  298MOL0     O41022   4.611   6.308   8.480  0.2222  0.1084  0.2368
  298MOL0     C41023   4.684   6.398   8.391  1.0388 -0.1528 -0.5805
  298MOL0     C41024   4.798   6.315   8.334  0.1574 -0.5590 -0.3506
  298MOL0     C41025   4.873   6.408   8.232  0.5356  0.1379 -0.3878
  298MOL0     C41026   4.977   6.490   8.306  0.2470 -0.2016 -0.3795
  298MOL0     C41027   5.057   6.590   8.222 -0.1951 -1.4060 -0.0858
  298MOL0     C41028   4.972   6.670   8.126 -0.0846  0.0184 -0.4303
  298MOL0     C41029   5.055   6.763   8.037  0.1544  0.5300  0.7376
  298MOL0     C41030   4.970   6.867   7.963 -0.3176  0.6179  0.2976
  298MOL0    Cl41031   5.065   6.992   7.869 -0.2176 -0.4815  0.1640
  298MOL0     C41032   4.507   6.395   8.677  0.4656 -0.3237  0.6485
  298MOL0     C41033   4.413   6.465   8.743 -1.1536 -0.0465  0.3193
  298MOL0     O41034   4.260   6.628   8.942 -0.5008 -0.2015 -0.5024
  298MOL0     C41035   3.931   6.600   8.832  0.7153 -0.0554  0.4637
  298MOL0     C41036   3.797   6.635   8.849  0.9588  0.0182 -0.6550
  298MOL0     N41037   3.403   6.797   9.299 -0.1778  0.4743 -1.1130
  298MOL0     N41038   3.501   6.747   9.373  0.3345  0.1521 -0.5405
  298MOL0     C41039   3.957   7.649   9.339 -0.6612 -0.1766  0.6232
  298MOL0     C41040   3.925   7.782   9.327 -0.1753  0.5514 -0.2345
  298MOL0     C41041   3.835   8.192   9.233 -1.0192  0.8967 -0.2527
  298MOL0     C41042   3.938   8.293   9.219 -0.7505 -0.6714 -0.2747
  298MOL0     C41043   3.901   8.424   9.238 -0.0518  0.3785 -0.1238
  298MOL0     C41044   3.770   8.460   9.276 -0.1849  0.1343  0.5570
  298MOL0     O41045   3.724   8.587   9.307  0.1119  0.5169  0.0497
  298MOL0     C41046   3.807   8.682   9.372 -0.6120  0.8258 -0.5969
  298MOL0     C41047   3.728   8.801   9.440 -0.6756  0.0644  0.5997
  298MOL0     C41048   3.670   8.746   9.575  0.4739  0.2248 -0.7213
  298MOL0     C41049   3.520   8.714   9.569  1.2990  0.4205 -0.2324
  298MOL0     C41050   3.477   8.664   9.700  0.5246  0.7551  0.4586
  298MOL0     C41051   3.433   8.619   9.801  0.6342  0.4558 -0.4897
  298MOL0     C41052   3.675   8.365   9.283  0.5849  0.5006 -0.0871
  298MOL0     C41053   3.705   8.230   9.267  0.9287  0.1723  0.0596
  298MOL0     C41054   3.594   8.132   9.278  0.3517 -0.1338  0.2362
  298MOL0     H41055   4.207   7.883   9.165  1.4756 -0.0415  0.4787
  298MOL0     H41056   4.250   7.653   9.160  0.6535  2.7268 -1.3669
  298MOL0     H41057   4.110   7.422   9.080 -0.5450 -0.7896 -0.4018
  298MOL0     H41058   3.992   7.346   9.172 -1.0770  1.8351 -0.6090
  298MOL0     H41059   4.179   7.207   9.103 -1.0227  0.0307 -0.4039
  298MOL0     H41060   4.294   7.303   9.213  0.5942 -2.9089  2.9934
  298MOL0     H41061   4.221   7.095   9.301 -0.8517 -0.2040 -1.2350
  298MOL0     H41062   4.189   7.212   9.418  0.2176  0.2558 -0.4129
  298MOL0     H41063   3.947   7.220   9.355 -2.7338 -0.9452 -1.9213
  298MOL0     H41064   3.974   7.114   9.227 -2.0579  2.0999  0.5866
  298MOL0     H41065   4.034   6.994   9.503  1.2266  2.7607  0.0643
  298MOL0     H41066   4.057   6.928   9.347  1.0730  1.4079 -0.6537
  298MOL0     H41067   3.789   7.048   9.416  0.5892  1.1432 -0.0792
  298MOL0     H41068   3.826   6.924   9.296 -0.2728  0.0331 -0.5460
  298MOL0     H41069   3.873   6.862   9.589 -0.3452  0.8274 -0.3152
  298MOL0     H41070   3.860   6.762   9.428 -0.0469  1.4871 -2.3808
  298MOL0     H41071   3.668   6.714   9.541  1.4348  0.1216  1.4000
  298MOL0     H41072   3.648   6.877   9.610  0.5108  0.4957  0.0160
  298MOL0     H41073   3.571   7.074   9.370  3.3115 -1.5576  2.0428
  298MOL0     H41074   3.317   7.123   9.236 -0.4787  0.0589 -0.1444
  298MOL0     H41075   3.242   6.975   9.176  1.3542 -0.4998 -2.1574
  298MOL0     H41076   3.334   7.106   8.998  1.4113  1.1495 -0.7790
  298MOL0     H41077   3.492   7.121   9.073  2.8572 -2.6018  0.3742
  298MOL0     H41078   3.399   6.834   9.008  2.2557 -0.9582  2.0603
  298MOL0     H41079   3.455   6.938   8.878 -2.5481  0.2655  0.0371
  298MOL0     H41080   3.678   6.970   8.984  2.9385 -2.6128 -2.2546
  298MOL0     H41081   3.613   6.868   9.115  0.6230 -0.3375 -1.5554
  298MOL0     H41082   3.845   6.884   9.074  3.2985  1.2883 -1.0018
  298MOL0     H41083   4.038   6.965   9.059 -1.8655 -1.6776  3.2719
  298MOL0     H41084   4.176   6.885   8.978  0.6656 -1.4224 -0.7804
  298MOL0     H41085   4.127   6.837   9.140  1.3695 -0.6300 -0.5477
  298MOL0     H41086   4.205   6.525   8.491  1.0981  1.6426  1.7198
  298MOL0     H41087   4.381   6.413   8.370  0.4233  0.8897  0.6799
  298MOL0     H41088   4.615   6.439   8.317  0.0778  1.0323  0.9018
  298MOL0     H41089   4.727   6.487   8.438  3.8589 -1.2303 -0.9161
  298MOL0     H41090   4.870   6.275   8.406  0.5954  0.3931 -0.2419
  298MOL0     H41091   4.764   6.222   8.289  0.7683 -2.0845  2.1782
  298MOL0     H41092   4.795   6.467   8.183 -0.3084 -1.4114 -0.9655
  298MOL0     H41093   4.926   6.335   8.171  2.0531  0.0500  0.9792
  298MOL0     H41094   5.045   6.417   8.353  1.6449  0.8919 -0.6557
  298MOL0     H41095   4.943   6.553   8.388 -0.5032 -0.7482 -0.2622
  298MOL0     H41096   5.121   6.659   8.277  1.6250  0.0822 -3.7250
  298MOL0     H41097   5.122   6.523   8.164 -2.7536 -5.6535  1.5576
  298MOL0     H41098   4.903   6.726   8.189  1.6101  0.2540  1.3235
  298MOL0     H41099   4.913   6.602   8.064 -1.5363  2.3930 -1.7756
  298MOL0     H41100   5.110   6.708   7.960 -0.8089  0.9421 -0.2737
  298MOL0     H41101   5.116   6.826   8.102  2.5906  0.2774 -1.1735
  298MOL0     H41102   4.914   6.921   8.041  0.8871  0.3596  1.3851
  298MOL0     H41103   4.901   6.820   7.894  1.5219 -0.0113 -1.1985
  298MOL0     H41104   4.599   6.357   8.720  0.2394 -0.8626  0.6733
  298MOL0     H41105   4.432   6.493   8.846  0.7364  0.3575 -0.1029
  298MOL0     H41106   3.947   6.514   8.768  1.1948 -0.8615  1.6272
  298MOL0     H41107   3.719   6.588   8.790 -0.0737 -0.5632  1.0868
  298MOL0     H41108   3.890   7.570   9.373  0.4434 -0.6952  1.6739
  298MOL0     H41109   3.841   7.817   9.386  0.7051 -0.3954  1.6461
  298MOL0     H41110   4.044   8.273   9.211 -0.1547  1.4016  1.3588
  298MOL0     H41111   3.967   8.510   9.233  0.7584 -0.2683 -0.8665
  298MOL0     H41112   3.861   8.622   9.446 -2.1301  2.2098  1.7683
  298MOL0     H41113   3.883   8.710   9.299  0.9338  1.9541  1.3516
  298MOL0     H41114   3.648   8.850   9.385 -1.5838 -0.6976  1.2002
  298MOL0     H41115   3.808   8.874   9.456 -1.1605  0.1746  2.7657
  298MOL0     H41116   3.723   8.655   9.606 -0.1291  0.6719  1.8202
  298MOL0     H41117   3.698   8.828   9.642 -0.0887 -0.1054 -0.0659
  298MOL0     H41118   3.500   8.637   9.494 -1.2416  0.1053  0.6644
  298MOL0     H41119   3.460   8.795   9.526 -0.9928 -0.9347  0.2261
  298MOL0     H41120   3.388   8.573   9.887  2.2814 -0.1216  0.1130
  298MOL0     H41121   3.580   8.389   9.330  1.4551 -1.6739  3.1051
  298MOL0     H41122   3.589   8.079   9.374  1.3190 -0.9489 -0.1450
  298MOL0     H41123   3.506   8.196   9.283  1.1708  0.9549  2.6971
  298MOL0     H41124   3.601   8.058   9.198 -0.0081 -2.4074  2.1840
  299MOL0     O41125   4.635   8.398   3.679 -1.3675  0.2876 -0.8122
  299MOL0     C41126   4.716   8.410   3.585 -0.1242  0.5762  0.4899
  299MOL0     O41127   4.724   8.326   3.473  0.1564 -0.6864  0.6224
  299MOL0     C41128   4.623   8.246   3.435 -0.2708 -0.4641 -0.0892
  299MOL0     C41129   4.507   8.203   3.511 -0.1687  0.1543  0.0127
  299MOL0     C41130   4.408   8.133   3.453 -0.5358  0.9894 -0.4092
  299MOL0     C41131   4.416   8.085   3.325 -0.1399  0.0726  0.1699
  299MOL0     O41132   4.317   8.003   3.278 -0.0200  0.0990 -0.1236
  299MOL0     C41133   4.347   7.921   3.162 -0.6425  0.2024  0.1605
  299MOL0     C41134   4.260   7.801   3.139  1.1861 -0.3019 -0.1084
  299MOL0     C41135   4.113   7.843   3.111 -0.1947  0.0845  0.3134
  299MOL0     C41136   4.082   7.949   3.000  0.3364 -0.5635 -0.1241
  299MOL0     C41137   4.113   7.898   2.850 -0.8284 -0.2159 -1.0720
  299MOL0     C41138   4.098   8.003   2.741 -1.2700 -0.9932  0.3908
  299MOL0     C41139   4.174   7.966   2.613  1.0339  0.4092  0.6329
  299MOL0     C41140   4.132   7.823   2.554  0.4182  0.7645  0.0953
  299MOL0     N41141   4.213   7.792   2.433  0.3863 -0.6084 -0.2631
  299MOL0     C41142   4.188   7.846   2.305 -0.5287 -0.2471 -0.4508
  299MOL0     C41143   4.302   7.810   2.238 -0.3754  0.5515  0.2259
  299MOL0     C41144   4.340   7.836   2.090 -1.1228  1.1653 -0.7175
  299MOL0     C41145   4.211   7.864   2.019 -0.6457 -0.1885 -0.7026
  299MOL0     C41146   4.223   7.865   1.869  0.1520  0.5180  0.1426
  299MOL0     C41147   4.083   7.896   1.803  0.3084  0.1558 -0.2455
  299MOL0     O41148   3.977   7.793   1.827 -0.4698 -0.2783 -0.2206
  299MOL0     C41149   3.863   7.820   1.757  0.0389  0.5358 -0.2605
  299MOL0     C41150   3.846   7.792   1.623 -0.8034 -1.7002  0.4583
  299MOL0     C41151   3.732   7.819   1.560  0.4441  0.2753  1.0467
  299MOL0     C41152   3.745   7.783   1.404  0.2039  0.8938 -0.2167
  299MOL0     C41153   3.617   7.857   1.635  0.0278  0.3104 -0.3267
  299MOL0     C41154   3.482   7.889   1.578  0.7544  0.7734 -0.4670
  299MOL0     O41155   3.464   7.861   1.444  0.1634  0.0208 -0.1469
  299MOL0     C41156   3.340   7.876   1.402  0.3944  0.4513  0.6087
  299MOL0     C41157   3.244   7.778   1.424  0.1382 -0.6629 -0.0250
  299MOL0     C41158   3.122   7.779   1.349 -0.9510 -0.7133  0.2358
  299MOL0     C41159   3.090   7.874   1.257  0.1341  0.5595  1.7169
  299MOL0     O41160   2.963   7.873   1.203 -0.3642 -0.5374 -0.3341
  299MOL0     C41161   2.924   7.983   1.116 -0.3351  0.6575 -0.8222
  299MOL0     C41162   2.795   7.946   1.044 -0.0041 -0.0343  0.9029
  299MOL0     C41163   2.741   8.048   0.942 -0.7389 -1.1063 -0.1117
  299MOL0     C41164   2.636   7.982   0.857 -0.2469  0.0499  0.4472
  299MOL0     C41165   2.556   8.100   0.792 -0.2632 -0.0567  0.1271
  299MOL0     C41166   2.632   8.158   0.682 -0.1428  0.1615  0.1980
  299MOL0     C41167   2.565   8.288   0.627  0.2201 -0.7906 -0.0285
  299MOL0     C41168   2.651   8.349   0.512  0.2458 -0.0904 -0.5225
  299MOL0    Cl41169   2.627   8.522   0.477  0.0494 -0.3956  0.2759
  299MOL0     C41170   3.188   7.980   1.239 -0.0293 -0.4119 -0.5086
  299MOL0     C41171   3.310   7.967   1.306 -0.1101 -0.3248 -0.8362
  299MOL0     O41172   3.404   7.948   1.659 -0.0468 -0.1427 -0.0163
  299MOL0     C41173   3.632   7.865   1.781 -0.5479  0.9346 -0.2325
  299MOL0     C41174   3.755   7.836   1.842 -0.4647 -0.7478 -0.2593
  299MOL0     N41175   4.388   7.735   2.325  0.5883  0.0008  0.0665
  299MOL0     N41176   4.335   7.738   2.441  0.4616  0.2384  0.0138
  299MOL0     C41177   4.528   8.127   3.246 -0.0095 -0.6986 -0.3748
  299MOL0     C41178   4.631   8.207   3.301 -0.2110  0.3759 -0.2374
  299MOL0     C41179   4.791   8.540   3.576  0.9434 -0.7745  0.5114
  299MOL0     C41180   4.783   8.599   3.441 -0.1631  0.9344 -0.4210
  299MOL0     C41181   4.847   8.722   3.424 -0.5497 -0.5472  0.1288
  299MOL0     C41182   4.910   8.787   3.525  0.0829  0.7594 -0.5058
  299MOL0     O41183   4.959   8.915   3.526  0.0577  0.3149 -0.6649
  299MOL0     C41184   4.962   8.993   3.406  0.6750 -0.4561 -0.8052
  299MOL0     C41185   5.016   9.132   3.435 -0.7998  0.4300 -0.6851
  299MOL0     C41186   5.172   9.135   3.430  0.5287  0.2793 -0.5484
  299MOL0     C41187   5.217   9.279   3.454 -0.1304 -0.2199  0.8670
  299MOL0     C41188   5.356   9.274   3.487 -0.4686 -0.2456  0.3230
  299MOL0     C41189   5.464   9.245   3.518 -0.1242 -0.2936 -0.3199
  299MOL0     C41190   4.912   8.730   3.657 -0.4013 -0.0357  0.2453
  299MOL0     C41191   4.866   8.602   3.679  0.1479 -0.6084  0.6061
  299MOL0     C41192   4.888   8.535   3.808 -0.1487  0.3081  0.5051
  299MOL0     H41193   4.518   8.225   3.617  2.2412  0.5747 -0.2670
  299MOL0     H41194   4.327   8.103   3.519  0.1051 -3.8266 -1.4771
  299MOL0     H41195   4.448   7.880   3.157  0.6061  3.1500 -3.0077
  299MOL0     H41196   4.328   7.976   3.070 -0.1796  0.2448  0.0890
  299MOL0     H41197   4.297   7.751   3.049 -0.1168 -2.8472  0.6499
  299MOL0     H41198   4.265   7.724   3.216  2.1792 -1.1954 -1.0396
  299MOL0     H41199   4.057   7.752   3.086  0.4370  0.0164 -0.9574
  299MOL0     H41200   4.078   7.883   3.206 -1.2541  2.2790 -0.9259
  299MOL0     H41201   3.978   7.984   3.008  0.7985  1.1019 -0.9787
  299MOL0     H41202   4.143   8.038   3.014 -0.0238 -0.3942  0.3639
  299MOL0     H41203   4.042   7.816   2.834 -0.1828 -1.7583  2.8493
  299MOL0     H41204   4.211   7.852   2.839 -0.0632  0.8167  0.8827
  299MOL0     H41205   3.990   8.023   2.740 -0.7601  2.4539  0.7064
  299MOL0     H41206   4.159   8.090   2.766 -2.0022 -0.9228  2.0306
  299MOL0     H41207   4.280   7.960   2.642  0.9263  0.6362  1.0813
  299MOL0     H41208   4.162   8.033   2.527 -1.0225 -0.6694  0.0151
  299MOL0     H41209   4.144   7.756   2.639 -2.7748  3.3933  2.8986
  299MOL0     H41210   4.024   7.814   2.536  0.3702 -0.7125  1.0095
  299MOL0     H41211   4.106   7.910   2.275  0.4845  1.9149  1.1108
  299MOL0     H41212   4.384   7.748   2.042 -0.9701  0.4795  0.6159
  299MOL0     H41213   4.398   7.928   2.089  0.5868  0.1312 -0.5768
  299MOL0     H41214   4.124   7.805   2.047  1.9978 -2.9246  2.6324
  299MOL0     H41215   4.195   7.969   2.044 -0.1086 -0.2665 -0.0137
  299MOL0     H41216   4.299   7.932   1.825  2.2236 -2.4663 -1.1761
  299MOL0     H41217   4.248   7.766   1.829  0.0117  0.5155  0.0602
  299MOL0     H41218   4.049   7.995   1.836 -2.2164 -0.3137 -1.2090
  299MOL0     H41219   4.108   7.894   1.697 -0.8975 -3.0951 -0.5664
  299MOL0     H41220   3.932   7.752   1.570  1.8021  2.1211  1.3745
  299MOL0     H41221   3.662   7.730   1.359  1.1158 -1.4499  0.7001
  299MOL0     H41222   3.835   7.722   1.393 -0.2489  0.5754 -2.6214
  299MOL0     H41223   3.761   7.873   1.345  1.6404  0.7991 -0.0220
  299MOL0     H41224   3.264   7.693   1.488 -0.1525  1.3276  2.9127
  299MOL0     H41225   3.052   7.697   1.358  0.1843 -1.8033 -0.4846
  299MOL0     H41226   2.888   8.067   1.174  4.6286  2.1338  0.6268
  299MOL0     H41227   3.011   8.021   1.061  0.5506 -0.6023 -0.3746
  299MOL0     H41228   2.824   7.848   1.005  0.6979  0.5366 -0.0623
  299MOL0     H41229   2.722   7.919   1.120  0.3326  1.9610  1.9997
  299MOL0     H41230   2.821   8.092   0.882 -1.6081  3.2722  1.5223
  299MOL0     H41231   2.706   8.136   0.997  4.7018  0.6111  1.3032
  299MOL0     H41232   2.561   7.926   0.913 -1.8705 -0.1481 -1.7865
  299MOL0     H41233   2.682   7.923   0.776  2.5054  1.0063  1.2091
  299MOL0     H41234   2.470   8.044   0.753 -0.5632  0.1191  0.5299
  299MOL0     H41235   2.534   8.175   0.869  0.2924  1.7650 -1.3828
  299MOL0     H41236   2.633   8.079   0.607 -3.4342 -1.9011  2.1101
  299MOL0     H41237   2.738   8.183   0.698  0.1969 -0.3513 -1.1179
  299MOL0     H41238   2.565   8.357   0.712  6.0480 -0.2126 -0.1088
  299MOL0     H41239   2.460   8.275   0.600 -0.9789  2.5874  2.2974
  299MOL0     H41240   2.627   8.292   0.422  0.0367 -4.4341  1.9910
  299MOL0     H41241   2.758   8.326   0.525  0.0939 -0.2020  0.6542
  299MOL0     H41242   3.175   8.066   1.175 -2.0748  0.0712  0.4658
  299MOL0     H41243   3.384   8.041   1.276 -0.8653  0.7806 -0.0819
  299MOL0     H41244   3.542   7.897   1.832 -0.3215  2.2844 -0.6347
  299MOL0     H41245   3.757   7.850   1.949 -2.9514 -0.2831 -0.2130
  299MOL0     H41246   4.537   8.089   3.145 -2.1692 -1.1797 -0.4425
  299MOL0     H41247   4.709   8.233   3.230  1.0395  1.4146  1.4567
  299MOL0     H41248   4.738   8.544   3.360  1.5527  0.9550 -1.4388
  299MOL0     H41249   4.838   8.774   3.328  0.6389 -1.9333 -0.7800
  299MOL0     H41250   5.024   8.937   3.335  0.9950  1.1031 -1.7978
  299MOL0     H41251   4.861   9.008   3.366  1.1338  2.1546 -1.1911
  299MOL0     H41252   4.980   9.159   3.534 -1.0101 -3.4481  0.4876
  299MOL0     H41253   4.973   9.206   3.368 -0.3586  1.5534  0.2466
  299MOL0     H41254   5.215   9.061   3.498  0.8551  0.1219 -0.9181
  299MOL0     H41255   5.210   9.098   3.334  1.1502  2.6038 -1.2819
  299MOL0     H41256   5.154   9.318   3.535  1.5323 -0.0245  2.1273
  299MOL0     H41257   5.191   9.337   3.365 -3.5881  0.1912  1.9717
  299MOL0     H41258   5.554   9.205   3.561 -1.1263  0.5603  2.7852
  299MOL0     H41259   4.955   8.791   3.736 -0.8635 -2.0740  2.1725
  299MOL0     H41260   4.934   8.436   3.797  1.3866  1.0479  0.1239
  299MOL0     H41261   4.953   8.597   3.870 -2.6302  0.9977  2.5785
  299MOL0     H41262   4.789   8.524   3.854 -2.1339 -2.6222 -3.7769
  300MOL0     O41263   7.529   9.190  10.367  1.0591 -0.5587 -0.4085
  300MOL0     C41264   7.472   9.118  10.295 -0.1370  0.9153  0.1496
  300MOL0     O41265   7.499   9.091  10.171  0.3220 -0.2958 -0.5139
  300MOL0     C41266   7.616   9.139  10.112 -0.4909  0.8531 -0.3874
  300MOL0     C41267   7.616   9.171   9.980  1.3586 -0.1587  0.6655
  300MOL0     C41268   7.707   9.241   9.921  0.1029 -0.6532 -0.1176
  300MOL0     C41269   7.827   9.274   9.983  0.4005  0.5307  0.0994
  300MOL0     O41270   7.926   9.312   9.904 -0.2776 -0.2938  0.3701
  300MOL0     C41271   7.941   9.456   9.919 -0.8152  1.0914 -0.0184
  300MOL0     C41272   7.909   9.514   9.778 -1.0652 -0.1217 -0.2614
  300MOL0     C41273   8.031   9.505   9.685 -0.9246  0.2652  0.3096
  300MOL0     C41274   8.023   9.364   9.608  0.2362 -0.1279 -0.3076
  300MOL0     C41275   8.133   9.345   9.514 -0.1205 -0.5294  0.4728
  300MOL0     C41276   8.140   9.207   9.461  0.1049  0.0967  0.9057
  300MOL0     C41277   8.238   9.220   9.345 -0.2766  0.8526  0.3874
  300MOL0     C41278   8.298   9.077   9.311 -0.5053 -0.0992 -0.0409
  300MOL0     N41279   8.381   9.084   9.188 -1.2093  0.4007  0.0916
  300MOL0     C41280   8.516   9.074   9.202 -1.0409  0.0534  0.0902
  300MOL0     C41281   8.563   9.049   9.073  0.7144 -0.7400 -0.3614
  300MOL0     C41282   8.706   9.049   9.018 -0.1179 -0.0156 -0.4233
  300MOL0     C41283   8.764   8.910   8.998 -0.1173  0.4484  0.0221
  300MOL0     C41284   8.925   8.926   8.981 -0.0537 -0.4588  0.5166
  300MOL0     C41285   8.990   8.781   8.975  0.1649 -0.0314 -0.4555
  300MOL0     O41286   9.136   8.782   8.952 -0.1132  0.0867 -0.0526
  300MOL0     C41287   9.223   8.775   9.059  0.5262 -0.7475 -0.9517
  300MOL0     C41288   9.269   8.889   9.131  0.0999 -0.5143 -0.0753
  300MOL0     C41289   9.345   8.873   9.244 -0.2831 -0.2262 -0.4574
  300MOL0     C41290   9.401   9.012   9.311  0.0180 -0.1842 -0.3248
  300MOL0     C41291   9.347   8.747   9.300 -0.4271 -0.0944  0.1473
  300MOL0     C41292   9.418   8.730   9.418  0.3658 -0.7026 -0.1502
  300MOL0     O41293   9.354   8.750   9.540  0.5255 -0.4154  0.4942
  300MOL0     C41294   9.443   8.717   9.641 -0.9592  0.1782 -0.2097
  300MOL0     C41295   9.493   8.813   9.726 -0.8023 -0.7580  0.2302
  300MOL0     C41296   9.568   8.773   9.848  0.5758 -0.0222  0.2319
  300MOL0     C41297   9.577   8.637   9.879 -0.4071 -0.1068  0.5667
  300MOL0     O41298   9.641   8.611   9.999  0.1300  0.5556  0.2012
  300MOL0     C41299   9.723   8.490   9.990  1.3087 -0.7808 -0.2616
  300MOL0     C41300   9.810   8.505  10.117  0.5786 -0.5671  0.1138
  300MOL0     C41301   9.844   8.361  10.172  0.5058  0.4047  0.4986
  300MOL0     C41302   9.924   8.370  10.310 -0.0483 -0.1475 -0.1981
  300MOL0     C41303   9.972   8.235  10.354 -1.0679 -0.4382 -0.1736
  300MOL0     C41304  10.076   8.160  10.270  0.4437  0.8105  0.7922
  300MOL0     C41305  10.227   8.206  10.297  0.5048  0.4717 -0.1758
  300MOL0     C41306  10.288   8.205  10.438 -0.0268 -0.4829 -0.4807
  300MOL0    Cl41307  10.219   8.063  10.522  0.3366 -0.2194 -0.4083
  300MOL0     C41308   9.530   8.545   9.781  0.7032 -0.0294 -0.4699
  300MOL0     C41309   9.475   8.582   9.663 -0.0331  0.1450 -0.0168
  300MOL0     O41310   9.529   8.688   9.400 -0.3874  0.2926  0.2394
  300MOL0     C41311   9.290   8.637   9.244 -2.0087 -0.0065 -0.3186
  300MOL0     C41312   9.241   8.647   9.118  0.4640  0.2662 -0.2035
  300MOL0     N41313   8.451   9.054   8.983  0.4801  0.0255 -1.4023
  300MOL0     N41314   8.349   9.083   9.058  0.2457 -0.4741 -0.0780
  300MOL0     C41315   7.850   9.226  10.117  0.3071  0.2307  1.1288
  300MOL0     C41316   7.744   9.160  10.181  0.0599 -0.4284  0.6639
  300MOL0     C41317   7.341   9.062  10.328 -0.3812  0.6027 -0.0641
  300MOL0     C41318   7.236   9.061  10.226  0.0291  0.1670  0.3113
  300MOL0     C41319   7.113   9.003  10.263  1.3050 -1.0072  0.2573
  300MOL0     C41320   7.087   8.948  10.389 -0.2221  1.2279  0.3225
  300MOL0     O41321   6.958   8.905  10.417 -1.1077  0.0543 -0.1702
  300MOL0     C41322   6.914   8.856  10.539 -0.4237  0.4911  0.0297
  300MOL0     C41323   6.768   8.849  10.541  0.4030 -0.3979 -0.3810
  300MOL0     C41324   6.716   8.800  10.675  0.2257 -0.3677  0.1857
  300MOL0     C41325   6.568   8.755  10.668 -0.4594 -0.5479  0.2400
  300MOL0     C41326   6.524   8.710  10.792  0.9536  0.8115 -0.4082
  300MOL0     C41327   6.486   8.676  10.908 -0.0571 -0.2122 -0.1648
  300MOL0     C41328   7.190   8.955  10.477  0.3983  1.2780 -0.8012
  300MOL0     C41329   7.315   9.011  10.457 -0.1283  0.9461 -0.6913
  300MOL0     C41330   7.408   9.019  10.582  0.0331 -0.0620  0.2758
  300MOL0     H41331   7.528   9.147   9.922  2.8967  2.2588 -3.0432
  300MOL0     H41332   7.702   9.256   9.813  4.0116 -1.7106 -0.6218
  300MOL0     H41333   8.039   9.487   9.956 -1.1716  2.3783 -0.1134
  300MOL0     H41334   7.871   9.494   9.994  0.3800 -1.6094  2.6633
  300MOL0     H41335   7.821   9.463   9.738 -0.5688 -2.1560  1.0837
  300MOL0     H41336   7.883   9.620   9.790 -0.0085  0.3478 -1.7597
  300MOL0     H41337   8.045   9.592   9.620 -0.5020  0.0023  0.0477
  300MOL0     H41338   8.119   9.521   9.748  0.2062  0.8358 -1.3549
  300MOL0     H41339   8.025   9.281   9.679 -0.3852  0.2737  0.2050
  300MOL0     H41340   7.926   9.356   9.557 -1.7189 -1.4064  3.2453
  300MOL0     H41341   8.228   9.386   9.550 -1.5563  1.8239  1.8432
  300MOL0     H41342   8.118   9.406   9.424 -0.6224 -4.8338 -2.6712
  300MOL0     H41343   8.178   9.140   9.539 -1.3007 -1.4660  0.3049
  300MOL0     H41344   8.043   9.174   9.423  0.0701  1.5903 -0.4207
  300MOL0     H41345   8.323   9.288   9.358  1.9571 -1.6788  0.1603
  300MOL0     H41346   8.176   9.275   9.275  0.8914  3.3414  1.1868
  300MOL0     H41347   8.355   9.031   9.392  0.7232  0.2776 -0.6620
  300MOL0     H41348   8.212   9.013   9.291 -0.5682  0.0237 -0.1682
  300MOL0     H41349   8.574   9.084   9.293  0.5497 -0.1358 -0.8504
  300MOL0     H41350   8.761   9.105   9.093 -0.0068  1.1816 -1.3610
  300MOL0     H41351   8.707   9.108   8.925 -1.3589  1.1268  0.2608
  300MOL0     H41352   8.743   8.847   9.085 -1.2765  4.3877  2.8804
  300MOL0     H41353   8.720   8.867   8.908 -0.3293  0.5182  0.0925
  300MOL0     H41354   8.932   8.983   8.888  0.1828  0.4345  1.0575
  300MOL0     H41355   8.963   8.994   9.059 -4.8105  1.1526  1.7692
  300MOL0     H41356   8.977   8.759   9.081  0.1491  2.3879  0.1083
  300MOL0     H41357   8.938   8.720   8.901 -4.3130  2.4621  0.2489
  300MOL0     H41358   9.258   8.991   9.094 -2.0044 -0.0027  1.7362
  300MOL0     H41359   9.471   8.987   9.392 -1.2349 -2.0521  0.2547
  300MOL0     H41360   9.319   9.077   9.344  0.9523  1.6075 -1.4407
  300MOL0     H41361   9.464   9.064   9.239  3.6522 -1.4443  1.6538
  300MOL0     H41362   9.489   8.916   9.693  1.4594  0.1771  2.5598
  300MOL0     H41363   9.616   8.859   9.894 -0.3125  1.4247 -1.4121
  300MOL0     H41364   9.653   8.407   9.996 -0.9411  1.1145  2.2262
  300MOL0     H41365   9.787   8.500   9.902 -0.4885  1.2354 -1.4327
  300MOL0     H41366   9.905   8.547  10.084  0.1691  2.2051  2.1041
  300MOL0     H41367   9.768   8.576  10.189  2.8207 -0.6647  1.6140
  300MOL0     H41368   9.910   8.322  10.094 -0.1103 -3.0981  1.5265
  300MOL0     H41369   9.754   8.298  10.173  0.0940  0.9847  0.3605
  300MOL0     H41370   9.866   8.420  10.387 -3.0475 -2.1978 -0.9404
  300MOL0     H41371  10.013   8.426  10.280 -1.2555  0.8042 -2.2223
  300MOL0     H41372  10.018   8.252  10.452  0.9929  0.5125 -1.2494
  300MOL0     H41373   9.886   8.176  10.390 -0.8714  1.3481  3.7226
  300MOL0     H41374  10.069   8.178  10.162  2.1767  1.8347  0.8070
  300MOL0     H41375  10.068   8.055  10.297 -1.9976  1.1340  1.6009
  300MOL0     H41376  10.235   8.308  10.258  1.7549  1.0127  1.3788
  300MOL0     H41377  10.278   8.138  10.229  0.9426  1.5650 -0.9725
  300MOL0     H41378  10.261   8.298  10.491  3.2711 -1.2380  2.9762
  300MOL0     H41379  10.395   8.193  10.422  0.6552 -0.6784  3.1676
  300MOL0     H41380   9.533   8.437   9.791  2.8698  0.0608  0.3845
  300MOL0     H41381   9.433   8.510   9.593 -1.0411  2.0398 -1.4634
  300MOL0     H41382   9.303   8.548   9.304  2.6517 -1.1599 -2.5686
  300MOL0     H41383   9.196   8.557   9.077  1.8466  0.0133 -1.2237
  300MOL0     H41384   7.950   9.240  10.155  0.9598 -0.5318 -0.2402
  300MOL0     H41385   7.763   9.124  10.282  3.6307  2.3703  1.1849
  300MOL0     H41386   7.248   9.089  10.122 -0.8297 -1.0479 -0.1404
  300MOL0     H41387   7.031   8.988  10.194  0.1659  1.1793  1.0440
  300MOL0     H41388   6.960   8.756  10.544 -0.3492  0.4843 -0.7497
  300MOL0     H41389   6.944   8.903  10.634 -1.2709  0.0797  0.5085
  300MOL0     H41390   6.731   8.775  10.470 -2.1807  1.3226 -0.9570
  300MOL0     H41391   6.744   8.955  10.527 -0.2839 -0.3799  0.7575
  300MOL0     H41392   6.784   8.717  10.699  2.5543  0.9594 -1.3657
  300MOL0     H41393   6.729   8.880  10.748 -0.5760 -0.1783  0.1244
  300MOL0     H41394   6.545   8.686  10.587  0.8195  1.7657 -2.2560
  300MOL0     H41395   6.506   8.843  10.646 -1.4064 -1.1476  0.4353
  300MOL0     H41396   6.459   8.670  11.012 -0.0363 -0.6719 -0.1861
  300MOL0     H41397   7.168   8.908  10.573  1.0758  3.2277  0.3768
  300MOL0     H41398   7.377   8.958  10.668  2.9687  0.3310  1.7581
  300MOL0     H41399   7.511   8.990  10.561 -0.4834 -0.2089 -2.2964
  300MOL0     H41400   7.406   9.117  10.630 -0.8514 -0.1294  0.3858
  301MOL0     O41401   7.833   8.306  11.518  0.0483  0.5942  0.1255
  301MOL0     C41402   7.741   8.359  11.560 -0.1018 -0.1753  0.3837
  301MOL0     O41403   7.678   8.464  11.501  0.2505  0.8158 -0.3906
  301MOL0     C41404   7.712   8.509  11.379 -0.1038 -0.7476  0.0914
  301MOL0     C41405   7.841   8.557  11.364 -0.5153 -0.7757  0.5260
  301MOL0     C41406   7.883   8.627  11.247 -0.0145 -0.8101 -0.0095
  301MOL0     C41407   7.780   8.651  11.155  0.0614  0.0425  0.4186
  301MOL0     O41408   7.818   8.727  11.046 -0.1146 -0.6649 -0.7208
  301MOL0     C41409   7.716   8.782  10.956 -0.1086  0.3350 -0.3655
  301MOL0     C41410   7.809   8.845  10.847 -0.5217  1.4266  0.4443
  301MOL0     C41411   7.745   8.962  10.770  0.0317 -0.5614 -0.7851
  301MOL0     C41412   7.849   9.031  10.681  0.2319 -0.5111 -0.2674
  301MOL0     C41413   7.805   9.151  10.605 -0.2005 -0.0678 -0.2585
  301MOL0     C41414   7.926   9.216  10.543 -0.4042  0.6108  0.2852
  301MOL0     C41415   7.884   9.340  10.463  0.4341  0.1757  0.0270
  301MOL0     C41416   8.001   9.443  10.481 -0.5104  0.1584  0.2838
  301MOL0     N41417   8.122   9.426  10.390 -0.1337 -0.4818 -0.6504
  301MOL0     C41418   8.235   9.352  10.429  0.1411 -0.7653  0.1323
  301MOL0     C41419   8.326   9.386  10.331 -0.2507 -0.3529 -0.0260
  301MOL0     C41420   8.463   9.342  10.329 -1.6762  0.3295 -0.2520
  301MOL0     C41421   8.568   9.458  10.324  0.0824 -0.1315 -0.0635
  301MOL0     C41422   8.544   9.568  10.421 -0.1500  0.1117  0.3317
  301MOL0     C41423   8.664   9.648  10.470  0.1209 -0.2383  0.5524
  301MOL0     O41424   8.721   9.713  10.360  0.0033 -0.5757  0.3164
  301MOL0     C41425   8.747   9.844  10.361 -0.8658 -0.7820 -0.2460
  301MOL0     C41426   8.810   9.885  10.251 -0.2957 -0.2122 -0.0706
  301MOL0     C41427   8.833  10.029  10.215 -0.2129 -0.0397 -0.3936
  301MOL0     C41428   8.883  10.049  10.079 -0.1541 -0.6827 -0.0597
  301MOL0     C41429   8.784  10.122  10.307  1.1386  0.1043  0.0272
  301MOL0     C41430   8.788  10.272  10.296  0.7647  1.6973  0.0570
  301MOL0     O41431   8.766  10.335  10.418 -0.0495 -0.0936  0.3842
  301MOL0     C41432   8.790  10.469  10.423  0.5395 -0.4071  0.9787
  301MOL0     C41433   8.848  10.515  10.538 -0.5167  0.2044  0.3163
  301MOL0     C41434   8.852  10.655  10.555  0.2198 -0.3872  0.6103
  301MOL0     C41435   8.802  10.751  10.462  0.3290  0.3572  0.4483
  301MOL0     O41436   8.823  10.884  10.471 -0.7598  0.0380 -0.0344
  301MOL0     C41437   8.947  10.955  10.510  0.4228  0.0434  0.3092
  301MOL0     C41438   9.050  10.936  10.397  0.9603  1.1141 -0.2223
  301MOL0     C41439   9.167  11.038  10.412 -0.4988 -0.3032 -0.2010
  301MOL0     C41440   9.276  11.032  10.303  0.4666 -0.6462  0.2407
  301MOL0     C41441   9.377  11.140  10.300  0.3743  0.2985 -0.0874
  301MOL0     C41442   9.458  11.131  10.430 -0.1435  0.3922 -0.4697
  301MOL0     C41443   9.567  11.238  10.448  0.2402  0.0452 -0.2183
  301MOL0     C41444   9.506  11.377  10.471 -0.5211  0.5109 -0.5374
  301MOL0    Cl41445   9.636  11.475  10.527  0.3566 -0.0026  0.5132
  301MOL0     C41446   8.731  10.695  10.352  0.5222 -1.1213  0.2025
  301MOL0     C41447   8.723  10.556  10.338 -0.3583  0.0038 -0.0556
  301MOL0     O41448   8.799  10.327  10.185  0.4377  0.5741  0.3486
  301MOL0     C41449   8.713  10.078  10.416  0.2874 -1.3992  0.6074
  301MOL0     C41450   8.697   9.943  10.439 -0.3310 -0.6793  0.5667
  301MOL0     N41451   8.273   9.491  10.257  0.9853  0.7136 -0.5822
  301MOL0     N41452   8.141   9.504  10.280 -0.1300  0.3101  0.2528
  301MOL0     C41453   7.650   8.591  11.162 -0.5233  0.2696 -0.2513
  301MOL0     C41454   7.615   8.526  11.280  1.0659 -0.3289 -1.4856
  301MOL0     C41455   7.670   8.300  11.681  0.2721  0.9302  0.5773
  301MOL0     C41456   7.587   8.379  11.760  1.0734 -0.7561 -0.8485
  301MOL0     C41457   7.522   8.329  11.876 -0.7446 -0.9634 -0.9176
  301MOL0     C41458   7.541   8.201  11.919  0.2926 -0.0489 -1.3682
  301MOL0     O41459   7.465   8.165  12.026 -0.7666  0.4342 -0.3847
  301MOL0     C41460   7.499   8.040  12.090  0.7722  1.0064  1.2944
  301MOL0     C41461   7.378   7.995  12.195 -0.0080  0.0701 -0.2896
  301MOL0     C41462   7.377   8.089  12.318 -0.0849 -0.3936 -0.9375
  301MOL0     C41463   7.256   8.066  12.409  0.4865  0.1147  0.0592
  301MOL0     C41464   7.261   7.937  12.472 -0.3048  0.3058 -0.5715
  301MOL0     C41465   7.253   7.818  12.515  0.5337 -0.8906 -0.3012
  301MOL0     C41466   7.634   8.121  11.851  0.5959 -0.4287 -1.1960
  301MOL0     C41467   7.693   8.160  11.730  0.0546  0.1888 -0.7060
  301MOL0     C41468   7.762   8.048  11.660 -0.4458 -0.6036 -0.5687
  301MOL0     H41469   7.911   8.541  11.445 -1.5360  1.3828  1.9351
  301MOL0     H41470   7.982   8.672  11.245 -1.1564  1.9105 -1.6009
  301MOL0     H41471   7.663   8.860  11.012 -1.9427 -1.7461  0.9887
  301MOL0     H41472   7.650   8.704  10.916  0.2667  1.6649 -3.9584
  301MOL0     H41473   7.901   8.884  10.891 -0.5555  1.7063  0.2776
  301MOL0     H41474   7.834   8.764  10.778  1.8939  0.6040  2.1669
  301MOL0     H41475   7.661   8.925  10.711  0.2271  2.4392 -3.1740
  301MOL0     H41476   7.712   9.036  10.842  2.1335 -0.8018  0.4951
  301MOL0     H41477   7.945   9.053  10.729  1.3176 -2.2466 -1.5046
  301MOL0     H41478   7.883   8.958  10.607  0.8717  0.8319 -1.3350
  301MOL0     H41479   7.773   9.229  10.674 -2.9952 -0.9479 -0.4256
  301MOL0     H41480   7.729   9.116  10.534  2.0431 -1.5098 -2.1079
  301MOL0     H41481   7.998   9.230  10.623  2.3064 -3.7647 -1.0468
  301MOL0     H41482   7.964   9.142  10.471 -4.4525 -0.4061 -1.0898
  301MOL0     H41483   7.795   9.388  10.504  0.6859  0.1437  0.6070
  301MOL0     H41484   7.856   9.322  10.358 -2.0209  3.7384 -0.1312
  301MOL0     H41485   7.967   9.546  10.465 -3.1647 -0.0457  3.5239
  301MOL0     H41486   8.024   9.449  10.588  1.7174 -0.2559 -0.1131
  301MOL0     H41487   8.242   9.281  10.511 -2.0615  0.6728  1.6582
  301MOL0     H41488   8.484   9.280  10.241 -0.6389  0.5144 -0.1494
  301MOL0     H41489   8.484   9.281  10.417 -1.8821  0.6637  0.0338
  301MOL0     H41490   8.667   9.419  10.349  0.0949 -0.7368 -1.0188
  301MOL0     H41491   8.579   9.490  10.220  0.6048 -2.4593 -0.7868
  301MOL0     H41492   8.480   9.641  10.371 -1.5964 -1.0725  0.3724
  301MOL0     H41493   8.484   9.528  10.504 -1.9188  1.8560 -0.0393
  301MOL0     H41494   8.621   9.701  10.556 -2.5451 -1.7866  0.2705
  301MOL0     H41495   8.745   9.583  10.504  1.5074  0.9230 -0.4222
  301MOL0     H41496   8.831   9.799  10.189 -1.9630 -1.2413  0.7171
  301MOL0     H41497   8.930   9.956  10.047  0.3607 -0.1170 -1.0099
  301MOL0     H41498   8.956  10.130  10.066 -0.2217 -0.3903  1.1930
  301MOL0     H41499   8.798  10.065  10.012 -0.5219 -1.4167  0.2253
  301MOL0     H41500   8.873  10.435  10.607 -3.2399 -0.3210  0.8013
  301MOL0     H41501   8.898  10.702  10.642 -2.2516  4.6745 -0.4592
  301MOL0     H41502   8.916  11.059  10.515  2.4987  0.7266 -0.0601
  301MOL0     H41503   8.981  10.935  10.612 -1.7158  1.1055  1.2978
  301MOL0     H41504   9.098  10.838  10.409 -0.8452  0.1842 -0.1412
  301MOL0     H41505   9.005  10.946  10.297  1.0003  1.8418 -0.1711
  301MOL0     H41506   9.224  11.023  10.505 -0.1778  0.0287 -0.3396
  301MOL0     H41507   9.123  11.138  10.420 -0.6605 -0.4719  1.4351
  301MOL0     H41508   9.227  11.024  10.206  2.2148 -3.9675 -0.5448
  301MOL0     H41509   9.332  10.939  10.314 -2.8298 -2.8885 -0.3917
  301MOL0     H41510   9.433  11.163  10.208 -1.8839  1.4894 -1.2425
  301MOL0     H41511   9.317  11.231  10.305 -5.6785 -2.9907 -2.6599
  301MOL0     H41512   9.505  11.033  10.442  1.1979  0.9344 -1.0763
  301MOL0     H41513   9.400  11.148  10.521 -1.0025 -2.1732 -0.4563
  301MOL0     H41514   9.615  11.245  10.350 -2.4509 -2.3882 -1.8914
  301MOL0     H41515   9.642  11.213  10.524 -0.5842  3.7104  2.0638
  301MOL0     H41516   9.424  11.375  10.544 -1.2024  3.5155 -1.0771
  301MOL0     H41517   9.471  11.422  10.378 -1.9201 -1.6513 -1.1275
  301MOL0     H41518   8.679  10.754  10.278 -1.4430 -0.3573  2.0800
  301MOL0     H41519   8.654  10.520  10.262 -1.0991 -3.3493  1.9806
  301MOL0     H41520   8.665  10.140  10.490  0.9833 -1.8150  1.4228
  301MOL0     H41521   8.632   9.922  10.523 -0.4830 -0.6858  0.4473
  301MOL0     H41522   7.577   8.610  11.084  1.1144 -1.3290 -2.2927
  301MOL0     H41523   7.510   8.502  11.298  1.6364 -0.3341  2.9082
  301MOL0     H41524   7.576   8.484  11.737  1.8759 -0.3771  0.3513
  301MOL0     H41525   7.462   8.383  11.948 -0.1102 -1.0068 -0.3514
  301MOL0     H41526   7.495   7.959  12.016 -5.7129  1.6079  0.3609
  301MOL0     H41527   7.599   8.047  12.133  2.2141  1.0681 -1.8261
  301MOL0     H41528   7.412   7.901  12.238 -0.2150  1.0004  2.0638
  301MOL0     H41529   7.285   7.993  12.136  0.4491 -1.9706 -1.0304
  301MOL0     H41530   7.465   8.071  12.380  0.2922 -2.2541 -1.9643
  301MOL0     H41531   7.377   8.192  12.280 -1.9130  0.3010  0.7292
  301MOL0     H41532   7.156   8.077  12.365  0.6027 -1.2867 -0.6246
  301MOL0     H41533   7.263   8.133  12.495 -1.5508 -1.2611  1.3788
  301MOL0     H41534   7.248   7.714  12.542  2.7955 -0.5784  1.5960
  301MOL0     H41535   7.645   8.018  11.884 -0.8177 -0.7448 -1.6514
  301MOL0     H41536   7.861   8.084  11.628  0.0080  0.6465  1.9897
  301MOL0     H41537   7.775   7.948  11.703  0.4809 -0.8290 -1.3392
  301MOL0     H41538   7.705   8.028  11.568  0.7238  2.4750 -2.0946
  302MOL0     O41539  10.422   4.419   1.136 -0.7469  0.0508 -0.3737
  302MOL0     C41540  10.475   4.498   1.207 -0.3322 -1.1373 -0.1933
  302MOL0     O41541  10.548   4.606   1.161  0.1191  0.7752  0.1636
  302MOL0     C41542  10.561   4.629   1.025  0.6934 -0.6259  0.1629
  302MOL0     C41543  10.682   4.593   0.955  0.9108  0.1753 -0.7508
  302MOL0     C41544  10.687   4.587   0.818  0.6366 -0.1304 -0.3197
  302MOL0     C41545  10.576   4.620   0.747  0.5280  0.4270  0.7558
  302MOL0     O41546  10.580   4.611   0.609 -0.1486 -0.8912 -0.5379
  302MOL0     C41547  10.670   4.702   0.547  0.8397  0.1774  0.9898
  302MOL0     C41548  10.646   4.702   0.402 -0.2212 -0.7566 -0.7530
  302MOL0     C41549  10.510   4.748   0.372  0.6297  0.1088  0.6576
  302MOL0     C41550  10.508   4.745   0.215 -0.8318  0.8401 -0.7276
  302MOL0     C41551  10.367   4.773   0.153 -0.8013  0.4717  0.0098
  302MOL0     C41552  10.302   4.896   0.210  0.5552  0.0066  0.0826
  302MOL0     C41553  10.159   4.911   0.169 -0.0792  0.4503 -0.6753
  302MOL0     C41554  10.160   4.962   0.022  0.4624 -0.1793 -0.8688
  302MOL0     N41555  10.037   4.915  -0.040  0.4785 -0.5547 -0.1686
  302MOL0     C41556  10.027   4.812  -0.128 -0.6780 -0.1413 -0.0718
  302MOL0     C41557   9.897   4.799  -0.148  0.0389  0.0801 -0.2568
  302MOL0     C41558   9.836   4.682  -0.218 -0.0072  0.5380 -0.9619
  302MOL0     C41559   9.780   4.582  -0.122  0.3765 -0.1343 -0.4097
  302MOL0     C41560   9.748   4.454  -0.182 -0.1516  0.4568  0.7648
  302MOL0     C41561   9.635   4.454  -0.281  0.5943  0.8504 -0.3781
  302MOL0     O41562   9.687   4.498  -0.405  0.1630 -0.3535  0.5690
  302MOL0     C41563   9.572   4.511  -0.485 -0.7147 -0.0270 -0.3371
  302MOL0     C41564   9.529   4.401  -0.552  0.0340  0.0226 -0.1533
  302MOL0     C41565   9.404   4.402  -0.611  0.0683 -0.8107  0.3299
  302MOL0     C41566   9.375   4.268  -0.682  0.4970 -0.6851 -1.0521
  302MOL0     C41567   9.322   4.515  -0.613 -0.0339 -0.0819 -0.1850
  302MOL0     C41568   9.193   4.530  -0.693  0.3409 -0.3481 -0.0739
  302MOL0     O41569   9.106   4.631  -0.653  0.0808 -0.8538  0.6680
  302MOL0     C41570   8.973   4.641  -0.681  0.0066  0.7988  0.4882
  302MOL0     C41571   8.935   4.764  -0.737 -0.1528  0.8130  1.0743
  302MOL0     C41572   8.804   4.777  -0.795 -1.5337 -0.5972 -0.1973
  302MOL0     C41573   8.710   4.679  -0.789 -0.6871  0.2628  0.2620
  302MOL0     O41574   8.586   4.685  -0.833 -0.4520 -0.1759  0.3717
  302MOL0     C41575   8.523   4.811  -0.833  0.1062 -0.4018 -0.3143
  302MOL0     C41576   8.382   4.784  -0.879  0.0495  0.5231  0.0986
  302MOL0     C41577   8.295   4.910  -0.867 -0.2134 -0.0026 -0.7095
  302MOL0     C41578   8.149   4.855  -0.879  0.1849 -0.5795  0.7836
  302MOL0     C41579   8.037   4.962  -0.880  0.2527  0.9628  0.3299
  302MOL0     C41580   7.992   4.997  -0.737  0.4549  0.4931 -0.4120
  302MOL0     C41581   7.897   5.123  -0.727 -0.6567  0.3589 -0.4031
  302MOL0     C41582   7.973   5.251  -0.769  0.0911 -0.5400 -0.1832
  302MOL0    Cl41583   8.072   5.282  -0.631 -0.3169 -0.8629  0.0242
  302MOL0     C41584   8.755   4.564  -0.737 -0.1144 -0.3777 -0.7538
  302MOL0     C41585   8.879   4.539  -0.689  0.3456 -0.4838  0.2860
  302MOL0     O41586   9.163   4.440  -0.773  0.1903 -0.7467  0.3301
  302MOL0     C41587   9.363   4.631  -0.551  0.2682  0.2360 -0.0175
  302MOL0     C41588   9.481   4.624  -0.485 -0.8606 -0.0148  0.2213
  302MOL0     N41589   9.824   4.892  -0.070 -0.0835 -0.5495  0.6374
  302MOL0     N41590   9.916   4.968  -0.011 -0.5060 -0.5424  0.2252
  302MOL0     C41591  10.452   4.650   0.810 -0.6517  0.9851  0.6753
  302MOL0     C41592  10.448   4.653   0.947  0.4567  0.0629  0.7607
  302MOL0     C41593  10.486   4.502   1.351 -0.4233 -0.1102 -0.5603
  302MOL0     C41594  10.522   4.623   1.414 -0.1902 -0.2751 -0.5995
  302MOL0     C41595  10.544   4.634   1.554  1.5602  0.1909  0.7207
  302MOL0     C41596  10.526   4.520   1.636 -0.2374  0.3903  0.0582
  302MOL0     O41597  10.558   4.511   1.773  0.1065 -0.3548  0.3424
  302MOL0     C41598  10.624   4.617   1.839  0.5374  0.4355  0.2622
  302MOL0     C41599  10.666   4.536   1.980 -1.2111 -0.2861  0.2554
  302MOL0     C41600  10.766   4.420   1.961  0.1766 -0.1829 -0.3398
  302MOL0     C41601  10.824   4.373   2.096 -0.7388  0.5490 -0.6378
  302MOL0     C41602  10.919   4.466   2.162 -0.3457 -0.1842  0.1061
  302MOL0     C41603  10.995   4.540   2.214 -0.2660 -1.2578  0.6641
  302MOL0     C41604  10.496   4.397   1.581  0.2816 -0.4364 -0.6836
  302MOL0     C41605  10.484   4.384   1.435  0.3457  0.3484 -0.9131
  302MOL0     C41606  10.478   4.247   1.383 -0.2838 -0.3945  0.0006
  302MOL0     H41607  10.767   4.571   1.018  0.4613  0.2215 -0.1172
  302MOL0     H41608  10.784   4.563   0.776  0.5594  1.4447 -1.4983
  302MOL0     H41609  10.772   4.673   0.574  0.3983 -0.2896  2.2203
  302MOL0     H41610  10.655   4.798   0.596 -0.3482 -0.3609  1.7537
  302MOL0     H41611  10.719   4.775   0.366 -1.5276  2.0092  1.7672
  302MOL0     H41612  10.664   4.604   0.359  0.3872 -1.6464  1.3885
  302MOL0     H41613  10.430   4.688   0.416 -0.7909  0.0728 -1.7845
  302MOL0     H41614  10.505   4.849   0.414 -1.8561  1.5910 -2.7377
  302MOL0     H41615  10.585   4.814   0.178  3.3784 -1.6500  2.3735
  302MOL0     H41616  10.542   4.646   0.182  0.0457  1.1058 -0.6456
  302MOL0     H41617  10.308   4.683   0.169  2.6223 -2.2451 -1.2782
  302MOL0     H41618  10.370   4.784   0.044  1.8027 -2.8161 -0.4047
  302MOL0     H41619  10.290   4.898   0.319 -2.3951 -1.2763 -0.1307
  302MOL0     H41620  10.365   4.980   0.177  1.2164  0.0932  1.4734
  302MOL0     H41621  10.108   4.975   0.241 -1.9518 -0.8375 -0.7882
  302MOL0     H41622  10.102   4.818   0.171 -0.0859  0.4633 -0.2774
  302MOL0     H41623  10.177   5.070   0.024  0.8347 -0.2263  1.9313
  302MOL0     H41624  10.244   4.930  -0.042  1.0219  1.8673 -1.2312
  302MOL0     H41625  10.107   4.755  -0.174 -1.5151 -0.7271 -0.8191
  302MOL0     H41626   9.909   4.637  -0.287  0.1949 -3.0153  1.3551
  302MOL0     H41627   9.756   4.727  -0.278  0.0609  1.6710 -0.2426
  302MOL0     H41628   9.854   4.564  -0.043  0.8891 -2.8846 -1.4380
  302MOL0     H41629   9.693   4.612  -0.064  0.9176 -2.2047  1.6138
  302MOL0     H41630   9.842   4.421  -0.228  0.6167  0.7390  2.0644
  302MOL0     H41631   9.723   4.375  -0.110  0.0556  0.8024  1.2204
  302MOL0     H41632   9.606   4.349  -0.286  0.0182  0.9943 -0.1243
  302MOL0     H41633   9.554   4.514  -0.241  0.3616  0.0343  0.4202
  302MOL0     H41634   9.600   4.319  -0.560  1.3081  1.0810  0.0077
  302MOL0     H41635   9.403   4.197  -0.603 -3.5446  0.1383  1.3941
  302MOL0     H41636   9.435   4.247  -0.771 -0.1162 -1.2373 -1.3448
  302MOL0     H41637   9.273   4.241  -0.710  0.3766  1.1024 -2.5130
  302MOL0     H41638   9.008   4.844  -0.735 -0.2056  0.8493  2.2344
  302MOL0     H41639   8.782   4.875  -0.835 -2.4752 -0.1974  1.2422
  302MOL0     H41640   8.532   4.866  -0.739 -2.6591  2.2893 -1.4430
  302MOL0     H41641   8.570   4.878  -0.906  2.0592  0.9911  2.0677
  302MOL0     H41642   8.391   4.749  -0.982  0.9423  3.1754 -0.8195
  302MOL0     H41643   8.345   4.702  -0.817  1.9084 -0.3246  0.1387
  302MOL0     H41644   8.313   4.979  -0.950  1.6905 -3.3924 -3.4077
  302MOL0     H41645   8.307   4.958  -0.770 -1.7689  2.7886 -1.7985
  302MOL0     H41646   8.134   4.784  -0.796 -0.4551 -0.7906  0.4950
  302MOL0     H41647   8.141   4.805  -0.976 -0.4655  4.0963 -1.8947
  302MOL0     H41648   8.086   5.042  -0.938  1.9313 -0.1333  0.1610
  302MOL0     H41649   7.957   4.914  -0.937  1.1277 -1.7126  1.2069
  302MOL0     H41650   8.079   5.005  -0.672  1.8114 -0.2043 -2.0552
  302MOL0     H41651   7.935   4.910  -0.704  1.2722 -0.1948 -0.7599
  302MOL0     H41652   7.864   5.130  -0.623 -0.7855 -1.5329 -0.2913
  302MOL0     H41653   7.801   5.102  -0.776 -1.6223 -0.4679  1.7090
  302MOL0     H41654   7.907   5.337  -0.782  0.1616 -0.7183 -2.0311
  302MOL0     H41655   8.028   5.241  -0.863  0.8278 -0.2101  0.2025
  302MOL0     H41656   8.687   4.479  -0.743 -2.8835  1.5609  0.6706
  302MOL0     H41657   8.899   4.443  -0.643 -2.5091 -1.6091 -0.5988
  302MOL0     H41658   9.308   4.725  -0.552 -1.8403 -0.9508 -0.4212
  302MOL0     H41659   9.504   4.707  -0.418  1.9920 -1.7402  1.6105
  302MOL0     H41660  10.356   4.663   0.762 -1.8942 -4.5143  0.9871
  302MOL0     H41661  10.359   4.669   1.007 -0.1964  0.9161 -0.3750
  302MOL0     H41662  10.544   4.714   1.359  0.3780 -1.0230 -1.6534
  302MOL0     H41663  10.547   4.737   1.589 -3.7626  1.9640 -2.8716
  302MOL0     H41664  10.704   4.669   1.785 -1.2507  0.5733 -2.4290
  302MOL0     H41665  10.550   4.689   1.876 -1.0928 -2.1068  2.2687
  302MOL0     H41666  10.574   4.499   2.027 -2.1188  1.3964 -0.1382
  302MOL0     H41667  10.713   4.609   2.046 -0.0929 -0.4406 -0.3473
  302MOL0     H41668  10.698   4.346   1.917  0.3905 -0.9728  0.6356
  302MOL0     H41669  10.846   4.452   1.894  2.8604 -1.8577  1.8643
  302MOL0     H41670  10.879   4.280   2.084  0.7502  1.3736 -0.4807
  302MOL0     H41671  10.749   4.361   2.175  1.6251  0.2233  1.7099
  302MOL0     H41672  11.070   4.600   2.261 -1.6574  1.1330  0.0339
  302MOL0     H41673  10.474   4.314   1.647  0.0625  2.0035  2.5620
  302MOL0     H41674  10.517   4.252   1.280 -1.2081 -1.9446 -0.4562
  302MOL0     H41675  10.533   4.187   1.456  0.8307 -0.2642 -0.6981
  302MOL0     H41676  10.375   4.211   1.378 -0.5101  0.3466 -0.9962
  303MOL0     O41677   8.902   1.214   7.527  0.2799 -0.3694 -0.0005
  303MOL0     C41678   8.822   1.294   7.486 -0.6727 -0.1838 -0.4415
  303MOL0     O41679   8.708   1.319   7.553  0.2351 -0.7164  0.4460
  303MOL0     C41680   8.690   1.259   7.675 -0.1060 -0.0798  0.1287
  303MOL0     C41681   8.768   1.283   7.784  0.8273  0.2255 -0.0662
  303MOL0     C41682   8.748   1.225   7.910 -0.7159 -0.5028 -1.1105
  303MOL0     C41683   8.634   1.145   7.932  1.4838 -0.3145 -0.2607
  303MOL0     O41684   8.618   1.076   8.053  0.3907 -0.1421 -0.4287
  303MOL0     C41685   8.487   1.081   8.115 -0.0671 -0.0845  0.5413
  303MOL0     C41686   8.473   0.997   8.249 -0.6206  0.2548  0.7621
  303MOL0     C41687   8.324   0.950   8.254  0.0514  0.4118  0.1420
  303MOL0     C41688   8.287   0.897   8.393 -0.3769 -0.2416  0.7389
  303MOL0     C41689   8.133   0.882   8.401 -0.2191 -0.5426  0.3202
  303MOL0     C41690   8.080   0.800   8.517 -0.3325  0.1824 -0.5840
  303MOL0     C41691   8.142   0.837   8.655  0.4217  0.1013 -0.0954
  303MOL0     C41692   8.061   0.785   8.774  0.3886 -0.2527  0.1488
  303MOL0     N41693   8.071   0.639   8.796  0.7913 -0.2626 -0.0141
  303MOL0     C41694   8.146   0.562   8.884  0.4937 -0.4360  0.2591
  303MOL0     C41695   8.095   0.438   8.891  0.5466  0.6122 -0.1251
  303MOL0     C41696   8.146   0.322   8.963 -0.3672 -0.1658  0.6867
  303MOL0     C41697   8.055   0.193   8.984  0.4835  0.5880  0.0424
  303MOL0     C41698   7.971   0.202   9.116  0.9252 -0.1534 -0.5339
  303MOL0     C41699   7.871   0.083   9.128 -0.0535 -0.0858 -0.5750
  303MOL0     O41700   7.794   0.087   9.248 -0.7150  0.2923 -0.5737
  303MOL0     C41701   7.699  -0.011   9.265  0.3720  0.3314 -0.2677
  303MOL0     C41702   7.672  -0.054   9.400  0.3228 -0.1494  0.4530
  303MOL0     C41703   7.573  -0.155   9.427  0.1487  0.4530  1.4391
  303MOL0     C41704   7.571  -0.219   9.568 -0.6088  0.3761  0.1952
  303MOL0     C41705   7.499  -0.216   9.322 -0.0272  0.0472 -0.2884
  303MOL0     C41706   7.389  -0.320   9.337  0.9234  0.2798 -0.0678
  303MOL0     O41707   7.341  -0.370   9.230  0.4214  0.6794  0.1951
  303MOL0     C41708   7.230  -0.451   9.239  0.5398  0.4372 -0.5020
  303MOL0     C41709   7.239  -0.593   9.197  0.5629 -0.2076 -0.7465
  303MOL0     C41710   7.126  -0.669   9.195  0.0976 -0.8728 -0.5095
  303MOL0     C41711   7.012  -0.618   9.253  0.7518  0.2534  1.1706
  303MOL0     O41712   6.912  -0.711   9.251  0.0976 -0.5292  0.2042
  303MOL0     C41713   6.776  -0.672   9.291  0.9281 -0.1485  0.0135
  303MOL0     C41714   6.686  -0.789   9.301  0.2414 -0.1244  0.5474
  303MOL0     C41715   6.742  -0.890   9.405 -0.4369 -0.3830 -0.1089
  303MOL0     C41716   6.635  -0.989   9.437 -0.1818  0.5755  0.1302
  303MOL0     C41717   6.627  -1.100   9.335 -0.1687 -0.6876 -0.1077
  303MOL0     C41718   6.520  -1.208   9.376  1.0488  0.6294  0.7579
  303MOL0     C41719   6.502  -1.300   9.258 -0.5281 -0.4953  0.7830
  303MOL0     C41720   6.454  -1.438   9.303  0.0740 -0.0074 -0.2644
  303MOL0    Cl41721   6.293  -1.424   9.382  0.5850 -0.3397 -0.3787
  303MOL0     C41722   7.005  -0.491   9.298 -1.2805  1.0664 -0.7287
  303MOL0     C41723   7.116  -0.405   9.289  0.1732 -0.2055  0.2803
  303MOL0     O41724   7.360  -0.353   9.452 -0.7102  0.3130 -0.6595
  303MOL0     C41725   7.520  -0.160   9.192  0.7800 -0.4022  0.3513
  303MOL0     C41726   7.617  -0.068   9.164  0.2551  1.7280  0.6452
  303MOL0     N41727   7.992   0.436   8.796 -0.2401 -0.7217  0.7199
  303MOL0     N41728   7.977   0.554   8.741 -0.0871 -0.2738 -0.2607
  303MOL0     C41729   8.544   1.138   7.827 -0.0944 -0.0691  0.4538
  303MOL0     C41730   8.582   1.182   7.703  0.5180  0.5691  0.6182
  303MOL0     C41731   8.847   1.358   7.360  0.2024 -0.2229  0.0318
  303MOL0     C41732   8.755   1.441   7.295 -1.0961  0.2891  0.0028
  303MOL0     C41733   8.788   1.491   7.168 -0.1629  0.2185  0.3953
  303MOL0     C41734   8.907   1.470   7.102 -0.2524  0.3726  0.0674
  303MOL0     O41735   8.937   1.533   6.985  0.2021 -0.8627  0.2862
  303MOL0     C41736   8.855   1.646   6.933 -0.2031  0.3615  0.4507
  303MOL0     C41737   8.758   1.610   6.817 -0.0801  0.0860  0.1342
  303MOL0     C41738   8.823   1.612   6.679 -0.2649 -0.8654  0.2652
  303MOL0     C41739   8.715   1.557   6.580  0.5401 -0.2085  0.2366
  303MOL0     C41740   8.745   1.610   6.453 -0.5016 -0.1420 -0.8165
  303MOL0     C41741   8.766   1.670   6.352 -0.5330  0.4443 -0.8023
  303MOL0     C41742   9.005   1.416   7.175 -0.5445 -0.7918 -0.5287
  303MOL0     C41743   8.984   1.360   7.304 -0.5079 -0.0644 -0.5763
  303MOL0     C41744   9.109   1.298   7.372 -0.3607  0.0215 -0.1590
  303MOL0     H41745   8.852   1.350   7.768 -2.0451  4.1322 -0.3149
  303MOL0     H41746   8.814   1.241   7.995 -0.6077 -0.2639 -1.2360
  303MOL0     H41747   8.413   1.046   8.043  1.5096 -0.1022 -1.1666
  303MOL0     H41748   8.467   1.186   8.138  0.9389  0.4757 -0.9254
  303MOL0     H41749   8.547   0.916   8.252  0.1115  0.9336  1.4889
  303MOL0     H41750   8.488   1.058   8.339 -1.7309  3.1700 -0.8881
  303MOL0     H41751   8.244   1.012   8.213 -0.0631  0.6241  0.6737
  303MOL0     H41752   8.322   0.858   8.195  0.6091  1.7153 -2.0505
  303MOL0     H41753   8.338   0.800   8.397  0.7116  0.1931 -1.4037
  303MOL0     H41754   8.336   0.961   8.468  1.4338  1.4181 -1.7125
  303MOL0     H41755   8.097   0.835   8.310 -4.1032  0.5934  1.0660
  303MOL0     H41756   8.087   0.981   8.388  0.7046 -0.2127 -0.5301
  303MOL0     H41757   7.970   0.801   8.519 -0.3731  2.2027 -1.4699
  303MOL0     H41758   8.110   0.696   8.499  3.8586  0.3275  3.5588
  303MOL0     H41759   8.152   0.946   8.665  2.2156  0.2767 -2.7225
  303MOL0     H41760   8.240   0.790   8.639 -0.3853 -1.9262  0.6000
  303MOL0     H41761   8.090   0.851   8.857  3.8135 -0.3779 -0.7716
  303MOL0     H41762   7.956   0.810   8.758  0.1154 -0.5414  1.3863
  303MOL0     H41763   8.228   0.596   8.947  0.0088  0.2294  0.5533
  303MOL0     H41764   8.195   0.369   9.049 -0.0959  1.5406 -0.3606
  303MOL0     H41765   8.226   0.292   8.895 -0.2803  0.0224  0.7084
  303MOL0     H41766   7.983   0.186   8.902 -0.1603 -0.4438  0.6609
  303MOL0     H41767   8.124   0.107   8.985 -1.3366 -0.9414  0.2563
  303MOL0     H41768   8.042   0.206   9.199 -2.0164 -0.6586  2.1644
  303MOL0     H41769   7.916   0.297   9.115  3.2616  1.3013 -0.3859
  303MOL0     H41770   7.795   0.091   9.049 -1.4507  0.3359  0.7487
  303MOL0     H41771   7.926  -0.011   9.126 -1.5803 -1.0991  1.3183
  303MOL0     H41772   7.748  -0.027   9.474  0.3205 -1.7543  1.0866
  303MOL0     H41773   7.484  -0.182   9.622 -2.6594 -2.8465 -0.6343
  303MOL0     H41774   7.665  -0.188   9.617 -0.4624 -2.0592  1.6070
  303MOL0     H41775   7.582  -0.328   9.573  0.9040  0.3060 -2.7960
  303MOL0     H41776   7.331  -0.626   9.148  0.8126  0.9174 -1.0731
  303MOL0     H41777   7.127  -0.769   9.154  0.2100 -0.6835 -0.9697
  303MOL0     H41778   6.778  -0.621   9.387 -0.4030  0.8561 -0.4694
  303MOL0     H41779   6.730  -0.595   9.229 -0.9218  1.1240  2.7773
  303MOL0     H41780   6.581  -0.759   9.316 -0.4989 -2.1694 -0.1925
  303MOL0     H41781   6.687  -0.831   9.200 -3.1302 -3.1173  1.5684
  303MOL0     H41782   6.774  -0.840   9.497  2.5744 -3.0269  0.4822
  303MOL0     H41783   6.834  -0.942   9.377 -1.1642 -1.5738 -0.3616
  303MOL0     H41784   6.537  -0.942   9.450 -1.7620 -2.5264  0.2633
  303MOL0     H41785   6.659  -1.047   9.526 -4.2525 -0.1777  0.8988
  303MOL0     H41786   6.621  -1.057   9.235 -1.8966  1.4932  0.8540
  303MOL0     H41787   6.723  -1.152   9.329  0.1932 -0.0167 -0.2141
  303MOL0     H41788   6.430  -1.156   9.411 -0.2887  0.1689 -1.8047
  303MOL0     H41789   6.555  -1.271   9.458  0.3920  1.1379  1.4462
  303MOL0     H41790   6.599  -1.298   9.207 -0.8411 -0.5375  0.1716
  303MOL0     H41791   6.424  -1.261   9.193  1.8124 -0.1862 -2.0727
  303MOL0     H41792   6.516  -1.488   9.379 -1.2550 -2.2951 -0.5951
  303MOL0     H41793   6.456  -1.499   9.212 -0.5461 -0.2245 -0.1363
  303MOL0     H41794   6.911  -0.453   9.336 -0.0474  2.4361  1.0913
  303MOL0     H41795   7.105  -0.302   9.322  1.3588  0.2487 -0.6693
  303MOL0     H41796   7.455  -0.188   9.110  0.7325  2.9259 -0.8781
  303MOL0     H41797   7.645  -0.038   9.063  0.8279 -0.6072  0.0506
  303MOL0     H41798   8.453   1.080   7.838  0.4996 -1.4041 -1.1380
  303MOL0     H41799   8.518   1.168   7.616  0.2191  3.0210  0.3528
  303MOL0     H41800   8.659   1.467   7.338 -0.9333 -1.0436  1.2468
  303MOL0     H41801   8.700   1.539   7.125 -2.0103 -0.3183  3.2877
  303MOL0     H41802   8.799   1.688   7.017  2.9669 -0.1303  3.0352
  303MOL0     H41803   8.917   1.728   6.896 -0.8618  0.8311  0.3780
  303MOL0     H41804   8.668   1.673   6.815 -0.0662  0.1455  1.0094
  303MOL0     H41805   8.735   1.503   6.825  1.6390 -0.2044  1.9174
  303MOL0     H41806   8.846   1.715   6.649 -1.9634 -0.2322  1.0453
  303MOL0     H41807   8.917   1.557   6.689  0.7973  0.2503 -2.6289
  303MOL0     H41808   8.613   1.578   6.613  0.4970 -0.5551  0.3306
  303MOL0     H41809   8.720   1.449   6.566 -2.3672 -0.4863  0.6592
  303MOL0     H41810   8.772   1.744   6.275 -1.7631  1.1187 -0.2834
  303MOL0     H41811   9.103   1.414   7.129 -1.1621 -1.7624 -1.8532
  303MOL0     H41812   9.203   1.323   7.322 -1.3776  0.9095 -1.7348
  303MOL0     H41813   9.117   1.320   7.479 -1.2286 -0.1387 -0.0514
  303MOL0     H41814   9.098   1.189   7.361  2.6449 -0.1562 -2.8147
  304MOL0     O41815  10.973  10.396  10.758  0.1459  0.1219  0.2472
  304MOL0     C41816  11.010  10.509  10.716  0.7313  0.2997  1.1038
  304MOL0     O41817  10.917  10.607  10.694  0.6922  0.3263  1.0881
  304MOL0     C41818  10.782  10.566  10.685  0.5668  0.2478 -0.4430
  304MOL0     C41819  10.692  10.578  10.790  0.4508 -0.1748 -0.6678
  304MOL0     C41820  10.555  10.562  10.771  0.1065  0.8939  0.0153
  304MOL0     C41821  10.512  10.551  10.636  0.6077  0.0673  0.5942
  304MOL0     O41822  10.372  10.558  10.616 -0.3062  0.3421 -0.3409
  304MOL0     C41823  10.334  10.572  10.483 -1.0281  0.1349 -0.3485
  304MOL0     C41824  10.187  10.561  10.483  0.4300  0.2801  0.3210
  304MOL0     C41825  10.144  10.422  10.530 -0.2300 -0.2005 -0.3723
  304MOL0     C41826  10.005  10.381  10.475  0.3300  0.9007 -0.1399
  304MOL0     C41827   9.975  10.243  10.536 -0.1771 -0.4266  0.3285
  304MOL0     C41828   9.835  10.182  10.489 -0.8166 -0.6036  0.0177
  304MOL0     C41829   9.850  10.023  10.512  0.2516  0.0566  0.2245
  304MOL0     C41830   9.890   9.994  10.653 -0.1456  0.1589  0.0583
  304MOL0     N41831   9.863   9.857  10.679 -0.5976  0.6411  0.5182
  304MOL0     C41832   9.915   9.793  10.791 -0.1013 -0.6211 -0.3558
  304MOL0     C41833   9.920   9.657  10.756  0.2648 -0.8736  0.8997
  304MOL0     C41834   9.979   9.549  10.829  0.3509  0.6648  1.3216
  304MOL0     C41835  10.131   9.555  10.826 -1.1970 -0.5377  0.5407
  304MOL0     C41836  10.188   9.435  10.897  0.0318 -0.4017 -0.2577
  304MOL0     C41837  10.338   9.447  10.915 -0.3318 -0.0048 -0.5241
  304MOL0     O41838  10.392   9.544  11.005  0.1566  0.2499  0.0328
  304MOL0     C41839  10.403   9.517  11.136 -0.4196 -0.0437 -0.2838
  304MOL0     C41840  10.452   9.612  11.226 -0.4006  0.2555 -0.4321
  304MOL0     C41841  10.463   9.587  11.364 -0.3879 -0.6101  0.1351
  304MOL0     C41842  10.501   9.715  11.451 -0.0556  1.2966 -0.4637
  304MOL0     C41843  10.427   9.457  11.419 -0.3475  0.4740 -0.6725
  304MOL0     C41844  10.434   9.416  11.564 -0.0532  0.1156  0.3853
  304MOL0     O41845  10.326   9.339  11.606  0.3821  0.5742  0.4357
  304MOL0     C41846  10.327   9.248  11.706 -0.0154  0.2743 -0.8887
  304MOL0     C41847  10.204   9.190  11.755 -0.3697 -0.2886  0.6154
  304MOL0     C41848  10.214   9.077  11.852  0.0563  0.1864  0.9276
  304MOL0     C41849  10.338   9.027  11.898 -0.0783  0.3362  0.9139
  304MOL0     O41850  10.334   8.935  11.994  0.9142  0.6802 -0.7181
  304MOL0     C41851  10.452   8.893  12.085  0.3753 -0.1838  1.2499
  304MOL0     C41852  10.492   9.013  12.177  0.4679  0.3358 -0.1082
  304MOL0     C41853  10.374   9.047  12.268  0.6390  0.4612 -0.8661
  304MOL0     C41854  10.361   8.925  12.364  1.2084 -0.2872  0.5546
  304MOL0     C41855  10.292   8.942  12.499  0.5076  0.0529 -0.4182
  304MOL0     C41856  10.168   9.033  12.491  0.1685 -0.9606 -0.1148
  304MOL0     C41857  10.097   9.058  12.624 -0.6080 -0.9238 -0.1627
  304MOL0     C41858   9.970   9.139  12.599  0.4035  0.0110 -1.1973
  304MOL0    Cl41859   9.843   9.019  12.528 -0.0263 -0.2344 -0.0974
  304MOL0     C41860  10.453   9.081  11.840  0.7509  0.2596  0.3555
  304MOL0     C41861  10.449   9.193  11.747 -0.6489  0.6371 -0.0131
  304MOL0     O41862  10.536   9.455  11.628  0.3458 -0.1804 -0.3132
  304MOL0     C41863  10.389   9.358  11.329 -0.4075  0.8540 -0.1663
  304MOL0     C41864  10.371   9.391  11.190 -0.5469  0.3984 -0.2132
  304MOL0     N41865   9.866   9.635  10.630 -0.0827  0.1347 -0.1220
  304MOL0     N41866   9.824   9.756  10.588  0.3106 -1.0911  0.5509
  304MOL0     C41867  10.612  10.536  10.530 -0.3958 -0.9903 -0.0272
  304MOL0     C41868  10.746  10.542  10.555 -0.2014  0.5132 -0.9411
  304MOL0     C41869  11.162  10.533  10.699  0.9285 -0.3387  0.0987
  304MOL0     C41870  11.211  10.653  10.747 -0.2459  0.0488 -0.4783
  304MOL0     C41871  11.352  10.671  10.757  0.7635 -0.7012  0.6803
  304MOL0     C41872  11.433  10.567  10.729  0.2239  0.7979 -0.4236
  304MOL0     O41873  11.568  10.584  10.755 -0.0882  0.6478  1.0395
  304MOL0     C41874  11.652  10.507  10.668 -0.5483  0.3586 -1.3345
  304MOL0     C41875  11.777  10.588  10.657  0.0175 -0.2360 -0.4306
  304MOL0     C41876  11.894  10.519  10.590  0.0007 -0.1120  0.6340
  304MOL0     C41877  12.015  10.617  10.589  0.6361 -0.1930  0.7308
  304MOL0     C41878  11.993  10.714  10.488  0.3259 -0.1550  0.4844
  304MOL0     C41879  11.968  10.808  10.409  0.1589 -0.5149 -0.6816
  304MOL0     C41880  11.376  10.450  10.662  0.0699 -0.0817  0.5327
  304MOL0     C41881  11.238  10.434  10.644 -1.0836 -0.1639 -0.5941
  304MOL0     C41882  11.196  10.320  10.547 -0.1533 -0.5367  0.3316
  304MOL0     H41883  10.723  10.611  10.888 -1.4996  2.1428 -0.7272
  304MOL0     H41884  10.492  10.560  10.859 -0.8524 -0.0982 -0.6558
  304MOL0     H41885  10.369  10.488  10.423 -1.2151 -0.5763  0.5162
  304MOL0     H41886  10.360  10.677  10.463 -1.3820  0.9438  2.7821
  304MOL0     H41887  10.151  10.630  10.560 -1.5071 -0.4682  0.1441
  304MOL0     H41888  10.138  10.594  10.391  1.4022 -0.5575 -0.5175
  304MOL0     H41889  10.215  10.340  10.522  1.0579  1.0259 -2.2661
  304MOL0     H41890  10.127  10.442  10.636 -2.2966 -0.1483 -0.6637
  304MOL0     H41891   9.933  10.451  10.518  1.2627  1.4759  0.5469
  304MOL0     H41892  10.005  10.377  10.366  0.7062 -0.8827 -0.1084
  304MOL0     H41893   9.972  10.248  10.645  1.2805 -2.1690  0.4802
  304MOL0     H41894  10.055  10.179  10.498 -2.4524 -2.4071 -1.4328
  304MOL0     H41895   9.754  10.220  10.553 -1.4872 -1.1978 -0.4564
  304MOL0     H41896   9.813  10.208  10.385  1.5492  1.4028 -0.0548
  304MOL0     H41897   9.930   9.991  10.445 -1.2593  0.0856 -1.6683
  304MOL0     H41898   9.757   9.979  10.476  1.1606  0.4429 -2.8850
  304MOL0     H41899   9.996  10.019  10.659 -0.4510  1.3882  0.7940
  304MOL0     H41900   9.842  10.050  10.734  0.3668  0.3801  0.2163
  304MOL0     H41901   9.972   9.842  10.869 -1.4141  1.5885 -0.6998
  304MOL0     H41902   9.937   9.459  10.785 -0.4578  0.5942  2.2050
  304MOL0     H41903   9.951   9.543  10.935  1.2387 -0.5691  1.5166
  304MOL0     H41904  10.172   9.557  10.725  2.7245 -1.9398  1.9155
  304MOL0     H41905  10.160   9.655  10.861  0.8278 -0.3484 -1.4707
  304MOL0     H41906  10.137   9.423  10.993 -0.4672  0.7983 -0.3667
  304MOL0     H41907  10.176   9.345  10.836  0.3749 -0.5862 -0.0600
  304MOL0     H41908  10.391   9.353  10.933 -0.1636  0.6432  3.1234
  304MOL0     H41909  10.380   9.498  10.827  1.7144  0.2966  0.5728
  304MOL0     H41910  10.485   9.711  11.193 -2.0398  1.3549  1.0695
  304MOL0     H41911  10.493   9.811  11.399  1.7322  2.9268  2.0310
  304MOL0     H41912  10.604   9.705  11.485 -0.2082 -1.5997 -0.5840
  304MOL0     H41913  10.440   9.721  11.542  1.8442 -2.5319  1.2839
  304MOL0     H41914  10.102   9.211  11.722 -0.4467 -3.7540 -1.9363
  304MOL0     H41915  10.130   9.025  11.898  1.6262 -1.5962  1.9403
  304MOL0     H41916  10.410   8.804  12.133  0.5956 -1.7852 -1.3578
  304MOL0     H41917  10.537   8.855  12.028 -0.4559  1.5740 -1.3097
  304MOL0     H41918  10.574   8.983  12.243  1.1725  1.2432 -0.5460
  304MOL0     H41919  10.521   9.098  12.115  1.9607  1.0206  1.4498
  304MOL0     H41920  10.284   9.071  12.211  0.8257  0.8025 -1.0189
  304MOL0     H41921  10.395   9.135  12.329 -2.7661  0.2435  0.8619
  304MOL0     H41922  10.455   8.873  12.387  0.4322 -1.1511  1.8536
  304MOL0     H41923  10.301   8.858  12.303  2.0778 -0.4151 -0.1731
  304MOL0     H41924  10.281   8.837  12.525  3.1093 -0.6944 -1.9888
  304MOL0     H41925  10.362   8.990  12.569  0.7863 -0.3530 -0.4193
  304MOL0     H41926  10.090   8.980  12.436  0.1617 -0.8177 -0.2444
  304MOL0     H41927  10.191   9.130  12.447  3.0430 -1.3912  0.2666
  304MOL0     H41928  10.164   9.108  12.694 -1.5272 -1.7841  1.3944
  304MOL0     H41929  10.064   8.962  12.666  1.8499 -0.8554  2.1822
  304MOL0     H41930   9.983   9.224  12.531  0.5506 -0.4914 -1.8055
  304MOL0     H41931   9.937   9.176  12.697  1.0783 -3.0013  0.3035
  304MOL0     H41932  10.548   9.037  11.868  1.4487  2.4091  1.6549
  304MOL0     H41933  10.543   9.230  11.707  0.8446 -1.4851  1.3016
  304MOL0     H41934  10.371   9.255  11.360  2.1774  0.0880 -0.9562
  304MOL0     H41935  10.327   9.326  11.116  0.2228  1.3766 -1.5787
  304MOL0     H41936  10.589  10.526  10.424  1.9943 -0.0157 -0.7087
  304MOL0     H41937  10.814  10.536  10.471  0.5941 -3.2667 -0.2297
  304MOL0     H41938  11.153  10.738  10.781  1.1497  1.6214 -1.8748
  304MOL0     H41939  11.409  10.758  10.789  1.3869  0.8762 -3.9347
  304MOL0     H41940  11.661  10.405  10.704 -1.7327  1.1170  1.3676
  304MOL0     H41941  11.605  10.511  10.569  0.4940 -2.7725 -2.0476
  304MOL0     H41942  11.800  10.614  10.761 -2.8989 -3.4489  1.2442
  304MOL0     H41943  11.744  10.679  10.605 -2.1634 -0.6918  0.0351
  304MOL0     H41944  11.920  10.438  10.659  1.9124  1.0798  1.3997
  304MOL0     H41945  11.871  10.476  10.493 -0.0677  3.2255 -0.9719
  304MOL0     H41946  12.113  10.569  10.581  0.3376 -0.7952  0.6892
  304MOL0     H41947  12.019  10.665  10.687 -0.8947  0.0752  0.6866
  304MOL0     H41948  11.952  10.897  10.351  3.8714 -1.9928 -4.4856
  304MOL0     H41949  11.436  10.373  10.614  1.2000  0.6059  0.8112
  304MOL0     H41950  11.097  10.286  10.576 -1.1716  0.5450 -1.7082
  304MOL0     H41951  11.188  10.354  10.443  1.6705 -0.2296  0.2511
  304MOL0     H41952  11.268  10.237  10.555  1.5238  0.9947  2.4857
  305MOL0     O41953   9.468  10.394   6.679  1.0834 -0.0302 -0.8614
  305MOL0     C41954   9.571  10.342   6.723  0.7162 -0.3008  1.0225
  305MOL0     O41955   9.661  10.280   6.640  0.2666 -0.1056 -0.0139
  305MOL0     C41956   9.610  10.199   6.538 -0.2775 -0.6738 -0.1260
  305MOL0     C41957   9.703  10.098   6.503  0.3851 -0.2185 -0.2265
  305MOL0     C41958   9.652   9.992   6.419 -0.4878  0.4589 -0.4852
  305MOL0     C41959   9.530   9.983   6.365 -0.2162  1.1437  0.4779
  305MOL0     O41960   9.499   9.864   6.292 -0.2117  0.1585 -1.4073
  305MOL0     C41961   9.369   9.847   6.246  0.1412 -0.1350  1.2981
  305MOL0     C41962   9.351   9.698   6.223  0.4878  0.3574 -0.1450
  305MOL0     C41963   9.441   9.638   6.109 -1.0500 -0.3059 -0.4998
  305MOL0     C41964   9.418   9.491   6.088 -0.7726 -0.1156 -0.1061
  305MOL0     C41965   9.297   9.434   6.026 -0.3277 -0.7508  0.8625
  305MOL0     C41966   9.302   9.278   5.998 -0.5736  0.2256 -0.3211
  305MOL0     C41967   9.193   9.210   5.905  0.2806  0.6853  0.4576
  305MOL0     C41968   9.251   9.116   5.793  0.0914  0.5652 -0.1521
  305MOL0     N41969   9.333   9.197   5.695 -0.5084 -0.3276 -0.6083
  305MOL0     C41970   9.470   9.219   5.697  0.0428 -0.2424  0.3255
  305MOL0     C41971   9.499   9.313   5.606  0.1957  0.0586  1.2128
  305MOL0     C41972   9.630   9.395   5.606 -0.5404 -0.1021  0.8363
  305MOL0     C41973   9.590   9.528   5.669 -0.0657 -0.9313  0.8868
  305MOL0     C41974   9.725   9.614   5.699  0.0423  0.3778 -0.4960
  305MOL0     C41975   9.676   9.725   5.794 -0.0139  0.4565 -0.1530
  305MOL0     O41976   9.782   9.816   5.840 -0.6351 -0.2810  0.2475
  305MOL0     C41977   9.873   9.772   5.940  0.3338  0.1042  0.7295
  305MOL0     C41978   9.841   9.668   6.025 -0.4376  0.2001 -0.1735
  305MOL0     C41979   9.930   9.631   6.127 -0.4669  0.1179 -0.0353
  305MOL0     C41980   9.898   9.513   6.220  0.2689 -0.5069  0.9209
  305MOL0     C41981  10.044   9.712   6.157  0.1079 -0.6902 -0.3774
  305MOL0     C41982  10.147   9.697   6.265 -1.6397 -0.6625  0.1091
  305MOL0     O41983  10.103   9.677   6.390  0.2181  0.1566  0.7982
  305MOL0     C41984  10.180   9.720   6.493  0.0410 -0.0360 -0.0988
  305MOL0     C41985  10.243   9.617   6.568 -0.8444 -0.6828  0.5840
  305MOL0     C41986  10.338   9.664   6.661  0.6215 -0.9113 -0.5092
  305MOL0     C41987  10.363   9.796   6.690  0.2990 -0.3817 -0.2418
  305MOL0     O41988  10.456   9.847   6.784 -0.3957 -0.2091  0.6928
  305MOL0     C41989  10.597   9.820   6.756 -0.9595 -0.3011 -0.5306
  305MOL0     C41990  10.670   9.882   6.641 -0.5912 -0.0122  0.3406
  305MOL0     C41991  10.641  10.028   6.616 -0.9632  0.2144  0.7039
  305MOL0     C41992  10.714  10.129   6.704  0.2032  0.0729 -0.3979
  305MOL0     C41993  10.627  10.254   6.714 -0.3840 -0.2909 -0.6965
  305MOL0     C41994  10.703  10.358   6.789  0.2939 -0.5431 -0.6215
  305MOL0     C41995  10.613  10.485   6.801  0.5309 -0.9955  0.4889
  305MOL0     C41996  10.677  10.604   6.870 -0.0192 -0.2363 -0.4230
  305MOL0    Cl41997  10.812  10.672   6.780  0.2340 -0.1919  0.1427
  305MOL0     C41998  10.285   9.891   6.624 -0.4996  0.0113  0.2778
  305MOL0     C41999  10.193   9.854   6.523  0.4776 -1.1426  0.3420
  305MOL0     O42000  10.265   9.719   6.240 -0.5213 -0.5504 -0.6173
  305MOL0     C42001  10.071   9.809   6.063 -1.0265 -0.1644  0.6854
  305MOL0     C42002   9.981   9.841   5.963  0.1004 -0.0116  0.2414
  305MOL0     N42003   9.378   9.334   5.538  0.1778 -0.2023 -0.4195
  305MOL0     N42004   9.279   9.272   5.598  0.0442  0.7253 -0.7454
  305MOL0     C42005   9.442  10.099   6.390 -0.3081  0.0264 -1.3048
  305MOL0     C42006   9.480  10.207   6.475 -0.5856  0.8591  1.1232
  305MOL0     C42007   9.607  10.364   6.865 -0.1745 -0.6863 -0.5727
  305MOL0     C42008   9.690  10.273   6.933 -0.3710 -0.1036  0.1998
  305MOL0     C42009   9.721  10.298   7.067  0.2574 -0.0562  0.4415
  305MOL0     C42010   9.682  10.410   7.137 -0.2874  0.4534 -0.4467
  305MOL0     O42011   9.725  10.438   7.260  0.2683  0.5929 -0.3622
  305MOL0     C42012   9.850  10.495   7.269  0.0391 -0.3374 -0.2765
  305MOL0     C42013   9.874  10.541   7.419  0.2410 -0.3954  0.2939
  305MOL0     C42014   9.837  10.439   7.533 -0.6087  0.2659  0.6640
  305MOL0     C42015   9.694  10.442   7.579 -0.2838  0.8425  0.0926
  305MOL0     C42016   9.681  10.466   7.718 -0.1060  0.0059 -0.1733
  305MOL0     C42017   9.648  10.495   7.827  0.5744  0.3086 -0.2751
  305MOL0     C42018   9.586  10.487   7.077 -0.3135  0.7309  0.8753
  305MOL0     C42019   9.546  10.473   6.939 -0.0803  0.2598 -0.9921
  305MOL0     C42020   9.447  10.578   6.886  0.7340  0.4013  0.4143
  305MOL0     H42021   9.801  10.088   6.549  0.2109  2.7504  0.9903
  305MOL0     H42022   9.723   9.913   6.396 -0.7282  0.4461 -1.2150
  305MOL0     H42023   9.357   9.903   6.153 -2.0050 -1.5886  0.6366
  305MOL0     H42024   9.296   9.880   6.321 -0.2929  4.9265 -0.9101
  305MOL0     H42025   9.369   9.636   6.312 -1.9075 -0.6484 -0.2789
  305MOL0     H42026   9.244   9.681   6.204  0.2373  0.3252  1.1756
  305MOL0     H42027   9.431   9.691   6.014  2.1177 -0.3398 -0.9669
  305MOL0     H42028   9.542   9.670   6.136 -0.6476 -3.0828  1.8271
  305MOL0     H42029   9.510   9.450   6.046  0.2773 -1.8964  3.4549
  305MOL0     H42030   9.411   9.458   6.192 -0.1067  1.3275  0.4226
  305MOL0     H42031   9.276   9.483   5.931  1.1968  0.8949  1.3013
  305MOL0     H42032   9.204   9.452   6.081 -1.7078  2.1068 -2.1049
  305MOL0     H42033   9.401   9.253   5.958  2.2667  4.6110  2.9262
  305MOL0     H42034   9.308   9.238   6.100  3.6395 -0.0080 -0.4928
  305MOL0     H42035   9.126   9.286   5.864  2.5983  1.2551 -2.6131
  305MOL0     H42036   9.137   9.141   5.969  0.4862 -2.3302 -2.3523
  305MOL0     H42037   9.290   9.026   5.840 -3.8943 -3.2455 -3.2222
  305MOL0     H42038   9.169   9.074   5.734  0.5327 -1.2544  0.4893
  305MOL0     H42039   9.540   9.194   5.776 -2.1788 -1.6778  1.9230
  305MOL0     H42040   9.659   9.404   5.501 -0.0510 -5.4160  0.2607
  305MOL0     H42041   9.702   9.350   5.675  1.2271 -1.8551 -1.9821
  305MOL0     H42042   9.521   9.572   5.597  1.6140 -2.4499 -1.8856
  305MOL0     H42043   9.523   9.506   5.752 -1.6519 -0.8987 -0.3429
  305MOL0     H42044   9.795   9.547   5.749 -1.9131 -2.0667 -0.8322
  305MOL0     H42045   9.772   9.665   5.615 -1.5950  1.4882 -0.8051
  305MOL0     H42046   9.603   9.774   5.729  0.0318 -1.6106 -1.8796
  305MOL0     H42047   9.621   9.673   5.873 -1.6415 -0.9477 -2.0826
  305MOL0     H42048   9.754   9.603   6.016 -0.3087 -0.8330  3.9364
  305MOL0     H42049   9.826   9.537   6.298 -1.6628 -4.3608  0.5427
  305MOL0     H42050   9.992   9.468   6.254  0.6496 -0.2346  0.2615
  305MOL0     H42051   9.848   9.446   6.150  1.0416  2.4506 -2.8051
  305MOL0     H42052  10.241   9.515   6.533 -1.1690 -0.5247  0.1268
  305MOL0     H42053  10.395   9.587   6.711 -1.8858 -3.2750 -1.0498
  305MOL0     H42054  10.654   9.853   6.844 -2.0557  1.9490 -0.6123
  305MOL0     H42055  10.605   9.711   6.747 -4.0841 -0.5831 -1.0109
  305MOL0     H42056  10.779   9.877   6.649 -0.6731 -1.8332  0.6486
  305MOL0     H42057  10.631   9.823   6.558 -2.7364  0.1926  1.1294
  305MOL0     H42058  10.532  10.042   6.622 -0.7731  3.4888 -1.0592
  305MOL0     H42059  10.665  10.045   6.511  0.1609  0.1726  0.9421
  305MOL0     H42060  10.807  10.150   6.650  1.4911 -2.4655  0.6673
  305MOL0     H42061  10.730  10.085   6.802 -1.3612  0.8665  0.2454
  305MOL0     H42062  10.595  10.289   6.616 -2.1584 -1.2494 -0.5099
  305MOL0     H42063  10.531  10.236   6.764 -0.5683  2.1636 -0.0238
  305MOL0     H42064  10.796  10.384   6.739  0.4278  0.2351  0.0110
  305MOL0     H42065  10.700  10.327   6.894 -2.9396  1.3097 -0.0199
  305MOL0     H42066  10.524  10.465   6.860  1.0887 -0.6403  1.4643
  305MOL0     H42067  10.589  10.506   6.696  3.8304 -6.6463 -1.9033
  305MOL0     H42068  10.711  10.581   6.971 -0.6974 -0.9578 -0.3488
  305MOL0     H42069  10.594  10.675   6.880  1.1563  0.8488  3.5285
  305MOL0     H42070  10.288   9.995   6.652 -0.6076 -0.1533  0.9159
  305MOL0     H42071  10.137   9.925   6.463  2.8405 -0.1283 -0.7974
  305MOL0     H42072  10.162   9.868   6.071 -1.9038  1.2840  0.2763
  305MOL0     H42073   9.991   9.919   5.888  1.6252 -2.0167 -1.7561
  305MOL0     H42074   9.339  10.108   6.360 -1.4997  1.4919  2.6030
  305MOL0     H42075   9.411  10.291   6.471  0.2823  1.5560 -1.7735
  305MOL0     H42076   9.725  10.181   6.886 -1.1136 -1.1670  1.6429
  305MOL0     H42077   9.792  10.226   7.107 -0.4222 -1.7911 -1.2560
  305MOL0     H42078   9.920  10.424   7.225  2.8794  2.9139 -1.3838
  305MOL0     H42079   9.864  10.584   7.208  1.2348 -0.4172 -0.1303
  305MOL0     H42080   9.818  10.633   7.441 -0.4587 -0.7889  0.1963
  305MOL0     H42081   9.979  10.568   7.428  0.8104 -2.3165 -0.2098
  305MOL0     H42082   9.866  10.336   7.510  1.3077  0.9336 -0.1118
  305MOL0     H42083   9.896  10.467   7.621 -1.7013  2.5517  0.7430
  305MOL0     H42084   9.653  10.349   7.538  4.8992 -1.6148 -0.2942
  305MOL0     H42085   9.645  10.525   7.526  0.0287  0.7522 -0.3507
  305MOL0     H42086   9.628  10.527   7.927 -0.7429  2.0488 -1.0403
  305MOL0     H42087   9.553  10.569   7.138 -0.7611  1.4543 -0.2971
  305MOL0     H42088   9.485  10.626   6.795 -1.0423 -0.4967 -0.8755
  305MOL0     H42089   9.350  10.528   6.875  0.5361  0.5132  1.5763
  305MOL0     H42090   9.426  10.656   6.959  3.0876 -0.5424  2.2369
  306MOL0     O42091   7.830   9.784   4.318  0.3727 -0.5571 -0.0533
  306MOL0     C42092   7.777   9.871   4.263 -0.1624 -0.7502  0.5153
  306MOL0     O42093   7.662   9.941   4.302  0.5375  0.4294 -0.7732
  306MOL0     C42094   7.586   9.912   4.408  0.5200 -0.0469  0.1685
  306MOL0     C42095   7.456   9.966   4.405 -0.2109 -0.2614  0.1828
  306MOL0     C42096   7.373   9.950   4.515 -0.4936 -0.0934  0.5944
  306MOL0     C42097   7.423   9.878   4.623 -0.5038 -0.3722  0.4403
  306MOL0     O42098   7.335   9.859   4.722 -0.7289  0.0153 -0.7475
  306MOL0     C42099   7.342   9.956   4.823  0.2648 -0.6719  0.0657
  306MOL0     C42100   7.242   9.956   4.938  0.1245 -0.3129 -0.1150
  306MOL0     C42101   7.103   9.995   4.891  0.3681 -0.4203 -0.0024
  306MOL0     C42102   7.015   9.883   4.830  0.6698 -0.4036  1.0979
  306MOL0     C42103   6.980   9.754   4.910  0.5099  0.9459 -0.1899
  306MOL0     C42104   6.896   9.654   4.827  0.0804  0.0162 -0.6235
  306MOL0     C42105   6.837   9.551   4.911  0.4265  0.2399 -0.7398
  306MOL0     C42106   6.747   9.459   4.842 -0.1299  0.4052  0.0290
  306MOL0     N42107   6.671   9.379   4.939 -0.0652 -0.0038  0.3797
  306MOL0     C42108   6.726   9.276   5.014  0.0009 -0.2242  0.2984
  306MOL0     C42109   6.629   9.215   5.078 -0.3710 -0.0905 -0.2456
  306MOL0     C42110   6.652   9.091   5.168  0.0959 -0.6410 -0.1774
  306MOL0     C42111   6.561   9.088   5.294  0.2188  0.2404 -0.1997
  306MOL0     C42112   6.636   9.117   5.421 -0.1487  1.3548  0.1375
  306MOL0     C42113   6.574   9.092   5.559  0.9619 -0.6869  0.1126
  306MOL0     O42114   6.672   9.144   5.647  0.2754  0.8190  0.0549
  306MOL0     C42115   6.632   9.144   5.775  0.2469  0.6103  0.1440
  306MOL0     C42116   6.521   9.070   5.831 -0.3802 -0.0510 -0.9071
  306MOL0     C42117   6.473   9.098   5.959 -0.5233 -0.1565 -0.0584
  306MOL0     C42118   6.342   9.014   5.992 -1.0472 -0.4315 -0.1060
  306MOL0     C42119   6.525   9.207   6.038  0.5750  0.1951 -0.6087
  306MOL0     C42120   6.463   9.247   6.166 -0.3475  0.0365 -0.2030
  306MOL0     O42121   6.406   9.158   6.247  0.1423  0.0660  0.2217
  306MOL0     C42122   6.384   9.183   6.378 -0.2358  1.0577 -0.6714
  306MOL0     C42123   6.283   9.108   6.440 -0.3404 -0.0601  0.2073
  306MOL0     C42124   6.257   9.121   6.575  0.2832  0.2229  0.2515
  306MOL0     C42125   6.338   9.205   6.656 -0.1495  0.1528  0.0336
  306MOL0     O42126   6.312   9.227   6.791  0.6435  0.1240  0.2313
  306MOL0     C42127   6.168   9.215   6.829  0.0268 -0.2529  0.2185
  306MOL0     C42128   6.174   9.249   6.973 -0.2766  0.1524  0.7062
  306MOL0     C42129   6.184   9.131   7.067  0.1692 -0.0696  1.2313
  306MOL0     C42130   6.164   9.182   7.210  0.0313  0.0262  0.1174
  306MOL0     C42131   6.208   9.083   7.324  0.0070 -0.2964  0.4368
  306MOL0     C42132   6.355   9.040   7.317  1.2067  0.2493  0.3005
  306MOL0     C42133   6.403   8.960   7.439 -0.0511  0.2727 -0.4103
  306MOL0     C42134   6.372   9.014   7.582 -0.4699 -0.1158  1.3336
  306MOL0    Cl42135   6.487   9.159   7.575  0.0503  0.1453  0.1903
  306MOL0     C42136   6.454   9.262   6.595 -0.0107 -1.0008  0.1858
  306MOL0     C42137   6.478   9.249   6.455  0.0106  0.7487 -1.4482
  306MOL0     O42138   6.488   9.361   6.188 -0.0285  0.4463  0.0312
  306MOL0     C42139   6.637   9.263   5.988 -0.0564 -0.7222 -0.1549
  306MOL0     C42140   6.695   9.227   5.858  0.7156 -0.3812 -0.1092
  306MOL0     N42141   6.511   9.281   5.038  0.5381 -0.9909  0.1291
  306MOL0     N42142   6.540   9.381   4.964  0.7953 -0.2363  0.4871
  306MOL0     C42143   7.547   9.818   4.629 -0.3500  0.0391 -0.4822
  306MOL0     C42144   7.627   9.848   4.523 -0.6843  0.0292  0.0156
  306MOL0     C42145   7.830   9.918   4.129 -1.0720 -0.0750  0.4387
  306MOL0     C42146   7.811  10.053   4.084  0.7287  0.1317  0.0136
  306MOL0     C42147   7.846  10.091   3.956  0.0775  0.3308 -0.2600
  306MOL0     C42148   7.902  10.003   3.876 -0.9996 -0.8882 -0.3255
  306MOL0     O42149   7.934  10.045   3.746  0.4936  1.1802 -0.5121
  306MOL0     C42150   8.080  10.072   3.746 -0.9606  0.2846  0.1640
  306MOL0     C42151   8.091  10.199   3.665 -0.4654  0.1391  0.9518
  306MOL0     C42152   8.234  10.254   3.667 -0.2688  0.4862 -0.0010
  306MOL0     C42153   8.289  10.298   3.813  0.8480 -0.8639 -0.1355
  306MOL0     C42154   8.179  10.380   3.887 -0.3161  0.3115 -0.1800
  306MOL0     C42155   8.087  10.460   3.912 -0.2317  0.1191 -0.7163
  306MOL0     C42156   7.937   9.878   3.918  0.4462 -0.1746  0.4245
  306MOL0     C42157   7.904   9.826   4.042 -0.6445 -0.6476  0.7555
  306MOL0     C42158   7.931   9.686   4.087 -0.5179  0.7233  0.1281
  306MOL0     H42159   7.416  10.025   4.323 -0.3392  1.2591  1.2905
  306MOL0     H42160   7.276   9.998   4.513  1.3259  4.1031  1.6624
  306MOL0     H42161   7.328  10.057   4.782 -0.6485 -0.8048  0.0336
  306MOL0     H42162   7.441   9.955   4.867  0.8141 -0.9590 -1.1280
  306MOL0     H42163   7.246   9.854   4.978  0.8181 -0.0927  0.4028
  306MOL0     H42164   7.276  10.030   5.011 -1.3895  0.4878 -0.1853
  306MOL0     H42165   7.046  10.042   4.972 -2.1353 -1.9577 -0.7628
  306MOL0     H42166   7.110  10.066   4.808  0.6936  0.7582  1.0119
  306MOL0     H42167   6.920   9.923   4.792 -0.0953 -2.1020  1.0916
  306MOL0     H42168   7.063   9.851   4.736 -3.4887  0.2794 -1.5404
  306MOL0     H42169   6.911   9.775   4.992 -3.8084 -4.3625 -1.8524
  306MOL0     H42170   7.068   9.695   4.940 -0.7364 -1.7583 -1.5343
  306MOL0     H42171   6.809   9.700   4.777  0.2011  0.7688 -0.1574
  306MOL0     H42172   6.955   9.617   4.742 -1.9560 -2.0087 -1.2686
  306MOL0     H42173   6.775   9.605   4.984 -1.9400 -1.6445 -1.2129
  306MOL0     H42174   6.920   9.501   4.961  2.2165  1.1451 -2.6884
  306MOL0     H42175   6.685   9.512   4.768  1.0671 -2.7544 -3.5688
  306MOL0     H42176   6.821   9.397   4.791  3.3833  2.8525  1.7721
  306MOL0     H42177   6.827   9.236   5.013  0.0716 -0.0470 -0.4947
  306MOL0     H42178   6.757   9.091   5.200  0.0270 -0.8633  0.0541
  306MOL0     H42179   6.628   9.000   5.112 -3.1017 -0.2241  0.3422
  306MOL0     H42180   6.478   9.159   5.288  0.0898 -0.0352 -1.8474
  306MOL0     H42181   6.518   8.988   5.298 -4.3025  1.9511 -0.1160
  306MOL0     H42182   6.730   9.060   5.421  1.0979  3.3033 -0.7112
  306MOL0     H42183   6.679   9.217   5.416  0.1483  1.1945 -2.8986
  306MOL0     H42184   6.475   9.138   5.564  0.8452 -0.4965 -2.3258
  306MOL0     H42185   6.561   8.984   5.572  0.1833 -0.7482 -0.9985
  306MOL0     H42186   6.479   8.992   5.768  1.6096 -1.1498 -0.9604
  306MOL0     H42187   6.350   8.944   6.076 -2.8848 -0.8465 -0.2346
  306MOL0     H42188   6.321   8.955   5.902  3.3241 -1.5808 -0.6125
  306MOL0     H42189   6.267   9.090   6.014  0.1956  1.3773 -1.7865
  306MOL0     H42190   6.221   9.043   6.378 -0.9608  0.4567  0.2763
  306MOL0     H42191   6.172   9.058   6.602 -0.9697  1.9177  0.3880
  306MOL0     H42192   6.111   9.286   6.769  1.3435  0.9697  0.3571
  306MOL0     H42193   6.122   9.120   6.801 -1.6489  1.5059 -3.7233
  306MOL0     H42194   6.259   9.312   7.004 -0.6620  1.9301 -1.5547
  306MOL0     H42195   6.086   9.313   6.986  0.3352  1.4829 -1.1895
  306MOL0     H42196   6.287   9.094   7.060 -0.3753 -1.5507  0.6767
  306MOL0     H42197   6.121   9.044   7.047 -0.0620  0.4765 -0.6473
  306MOL0     H42198   6.059   9.214   7.214  0.3543  1.4407 -1.4055
  306MOL0     H42199   6.220   9.274   7.226  1.3376 -0.7586  0.2241
  306MOL0     H42200   6.199   9.125   7.424  2.2873  1.0117  0.1529
  306MOL0     H42201   6.148   8.991   7.318 -0.7086  0.1675  0.3482
  306MOL0     H42202   6.415   9.130   7.298  2.5257 -0.8848 -1.2353
  306MOL0     H42203   6.369   8.982   7.225  1.0257 -0.6328  0.8210
  306MOL0     H42204   6.510   8.952   7.420 -0.0311  1.2039 -0.7349
  306MOL0     H42205   6.368   8.857   7.426  0.2985 -0.4609  3.3644
  306MOL0     H42206   6.416   8.962   7.669 -3.5718 -0.1328  3.0550
  306MOL0     H42207   6.265   9.029   7.598 -1.2863 -2.6598 -0.9262
  306MOL0     H42208   6.518   9.324   6.656 -0.6023 -0.1547 -0.0423
  306MOL0     H42209   6.571   9.278   6.408  1.2069  0.5016  0.6083
  306MOL0     H42210   6.680   9.346   6.044 -2.5854  2.1153 -2.0829
  306MOL0     H42211   6.788   9.275   5.827  0.4540 -0.8901 -1.8198
  306MOL0     H42212   7.566   9.764   4.722 -0.8334 -1.0966 -1.0159
  306MOL0     H42213   7.727   9.807   4.535  0.4232  2.3310 -0.7792
  306MOL0     H42214   7.747  10.120   4.141  1.5331  0.4743  0.5393
  306MOL0     H42215   7.824  10.185   3.907  0.7995 -0.5865 -2.4682
  306MOL0     H42216   8.112  10.086   3.850 -2.5806  2.0561  0.4901
  306MOL0     H42217   8.141   9.992   3.704  1.0387  1.3245  0.9496
  306MOL0     H42218   8.018  10.270   3.705 -0.9692  0.1119  0.1102
  306MOL0     H42219   8.065  10.167   3.563  2.4508 -1.3685  0.5727
  306MOL0     H42220   8.307  10.185   3.625 -2.8613 -2.2415 -0.3946
  306MOL0     H42221   8.246  10.344   3.607  0.8311  2.1838  2.5612
  306MOL0     H42222   8.372  10.368   3.794  1.2367 -1.1107  0.6237
  306MOL0     H42223   8.320  10.220   3.883 -1.6948 -0.4082  1.6182
  306MOL0     H42224   8.019  10.536   3.944  0.0016  0.3241 -0.7031
  306MOL0     H42225   7.979   9.811   3.842 -0.5462 -2.0537  1.4601
  306MOL0     H42226   7.998   9.700   4.173 -0.4477  3.1152 -0.2412
  306MOL0     H42227   7.834   9.648   4.120  0.1263 -0.6857  0.4625
  306MOL0     H42228   7.974   9.617   4.014  1.0964  0.9093  0.8648
  307MOL0     O42229   3.228   4.456  10.669  0.8190  0.4263  1.0277
  307MOL0     C42230   3.215   4.453  10.547  0.1529  0.4911  0.8343
  307MOL0     O42231   3.257   4.565  10.469 -0.4529  0.4354 -0.6626
  307MOL0     C42232   3.304   4.675  10.535 -0.7066 -0.1517  0.2228
  307MOL0     C42233   3.419   4.666  10.607 -0.6395  0.4408 -0.6253
  307MOL0     C42234   3.477   4.786  10.649 -0.4846 -0.0748 -0.5616
  307MOL0     C42235   3.426   4.913  10.609 -0.3144 -0.1430  1.3004
  307MOL0     O42236   3.478   5.026  10.660 -0.2817  0.0906 -0.1774
  307MOL0     C42237   3.468   5.155  10.594 -0.5774  0.4809 -0.1535
  307MOL0     C42238   3.601   5.231  10.605 -0.1946  0.5593  0.4571
  307MOL0     C42239   3.605   5.375  10.554  0.2555 -0.6193 -1.2357
  307MOL0     C42240   3.621   5.383  10.403 -0.3865  0.1619  0.2088
  307MOL0     C42241   3.590   5.529  10.364 -0.2646 -0.2975  0.2657
  307MOL0     C42242   3.636   5.563  10.221  0.4581 -0.6988  0.5383
  307MOL0     C42243   3.584   5.451  10.118  0.7473  0.0401 -0.0378
  307MOL0     C42244   3.590   5.495   9.966  0.3303 -0.2837 -0.0224
  307MOL0     N42245   3.525   5.421   9.854 -0.0426 -0.4599 -0.5499
  307MOL0     C42246   3.533   5.292   9.825 -0.4124  1.2531  0.7453
  307MOL0     C42247   3.428   5.269   9.743 -0.1062 -0.5021  0.1314
  307MOL0     C42248   3.384   5.131   9.710 -0.8796  0.9035  0.6770
  307MOL0     C42249   3.432   5.086   9.562  0.1121  0.5299 -0.3266
  307MOL0     C42250   3.368   5.146   9.433  0.8214  0.9683  0.7654
  307MOL0     C42251   3.213   5.158   9.412 -0.3026 -0.6194 -0.7746
  307MOL0     O42252   3.148   5.043   9.459  0.2015 -0.1060  0.7789
  307MOL0     C42253   3.172   4.917   9.411 -0.2072  0.2721 -0.4148
  307MOL0     C42254   3.109   4.814   9.477 -0.8118  0.2951 -0.1650
  307MOL0     C42255   3.135   4.678   9.452 -0.4814  0.6135  1.2902
  307MOL0     C42256   3.042   4.578   9.511  0.1213 -0.4561 -0.2072
  307MOL0     C42257   3.241   4.641   9.365 -0.0081 -0.1287 -1.2750
  307MOL0     C42258   3.295   4.505   9.345  0.1847  0.3890  0.0797
  307MOL0     O42259   3.375   4.483   9.240 -0.1412  0.0800 -0.3770
  307MOL0     C42260   3.472   4.396   9.238  0.0412  0.7657 -0.2707
  307MOL0     C42261   3.536   4.359   9.116 -0.4268 -0.6878 -0.7231
  307MOL0     C42262   3.614   4.242   9.107 -1.5083 -0.5803  0.5468
  307MOL0     C42263   3.652   4.162   9.215 -1.0583 -0.5965  0.6721
  307MOL0     O42264   3.739   4.059   9.188 -0.8833 -0.0984 -0.1498
  307MOL0     C42265   3.809   3.997   9.296 -0.3703  0.2830 -0.4746
  307MOL0     C42266   3.960   4.015   9.287  0.5428 -0.9465  0.1734
  307MOL0     C42267   4.041   3.894   9.327 -0.1630  0.7346  0.1067
  307MOL0     C42268   4.144   3.929   9.429  0.0071  0.3473 -0.0186
  307MOL0     C42269   4.219   3.802   9.479 -0.4265 -0.2772 -0.4077
  307MOL0     C42270   4.301   3.818   9.610 -0.3219  0.2921  0.2288
  307MOL0     C42271   4.354   3.687   9.667 -0.2979 -0.9571  0.3998
  307MOL0     C42272   4.432   3.709   9.799  0.7649 -0.2692 -0.0212
  307MOL0    Cl42273   4.552   3.835   9.773  0.0535 -0.0620  0.3078
  307MOL0     C42274   3.598   4.198   9.334  0.0138 -1.0813 -0.3541
  307MOL0     C42275   3.505   4.300   9.350 -0.4483  0.1276 -0.0575
  307MOL0     O42276   3.261   4.420   9.422 -0.1639  1.0139  0.3742
  307MOL0     C42277   3.292   4.750   9.285 -0.2332 -0.8063 -1.0632
  307MOL0     C42278   3.252   4.878   9.307 -0.0040 -0.0225  0.4414
  307MOL0     N42279   3.349   5.378   9.738 -0.0685  0.2668  0.4325
  307MOL0     N42280   3.403   5.468   9.808  0.0265 -0.3903  0.4109
  307MOL0     C42281   3.315   4.925  10.534 -0.1231 -0.8273  0.0143
  307MOL0     C42282   3.246   4.803  10.503 -0.7033  0.2695 -0.0329
  307MOL0     C42283   3.165   4.332  10.474  0.3100 -0.8489  0.6998
  307MOL0     C42284   3.181   4.333  10.339 -0.7192  0.7159  0.4976
  307MOL0     C42285   3.140   4.221  10.263 -0.2418 -0.4808 -0.8074
  307MOL0     C42286   3.079   4.109  10.316  0.2942 -0.0401 -0.1275
  307MOL0     O42287   3.040   4.005  10.237 -0.3178 -0.0214  0.0622
  307MOL0     C42288   3.114   3.993  10.113  0.3844 -0.2784 -0.3678
  307MOL0     C42289   3.061   3.860  10.056  0.4087  0.0852 -0.1922
  307MOL0     C42290   3.098   3.740  10.152  0.0521 -1.0223  0.5571
  307MOL0     C42291   2.984   3.636  10.171 -0.0845 -0.9060  1.4921
  307MOL0     C42292   2.913   3.650  10.294 -0.2220 -0.1684 -0.4985
  307MOL0     C42293   2.865   3.649  10.405  1.1965  0.1560  0.3005
  307MOL0     C42294   3.064   4.100  10.452  0.1379 -0.4103 -0.2396
  307MOL0     C42295   3.109   4.213  10.531  0.3841  0.2187  0.3564
  307MOL0     C42296   3.086   4.192  10.679  0.1301 -0.3536  0.9717
  307MOL0     H42297   3.450   4.570  10.649  0.5857  1.4519  0.9076
  307MOL0     H42298   3.573   4.794  10.699 -0.0912  2.0492 -1.5572
  307MOL0     H42299   3.392   5.217  10.642  2.2856  3.3493  1.0318
  307MOL0     H42300   3.442   5.134  10.490 -2.3473  0.2643  0.3090
  307MOL0     H42301   3.647   5.224  10.704  1.8732  0.7878 -0.4316
  307MOL0     H42302   3.678   5.181  10.545  1.7648  1.3006  2.2385
  307MOL0     H42303   3.525   5.442  10.587  1.9108  1.2487 -0.7744
  307MOL0     H42304   3.695   5.414  10.603 -0.7180 -0.9190  0.9285
  307MOL0     H42305   3.720   5.353  10.367 -0.1658 -1.4910  2.0356
  307MOL0     H42306   3.568   5.304  10.348 -0.5751  0.5379 -0.1535
  307MOL0     H42307   3.638   5.594  10.438 -0.1343  0.0359 -0.1073
  307MOL0     H42308   3.487   5.556  10.385 -1.0223 -3.0749  0.5629
  307MOL0     H42309   3.589   5.656  10.187 -0.6379 -0.4509  2.5623
  307MOL0     H42310   3.745   5.571  10.226  0.6330 -2.9632  1.4734
  307MOL0     H42311   3.477   5.438  10.140  0.6683  1.3004  0.4002
  307MOL0     H42312   3.651   5.365  10.116  0.0166 -0.5492 -1.8632
  307MOL0     H42313   3.550   5.596   9.958 -1.0596 -0.9114 -1.7073
  307MOL0     H42314   3.696   5.493   9.942 -0.0766  0.5219 -2.0591
  307MOL0     H42315   3.599   5.213   9.861 -1.2864 -1.7819 -3.5556
  307MOL0     H42316   3.276   5.121   9.721 -0.8224 -3.4891 -0.5771
  307MOL0     H42317   3.421   5.068   9.792 -0.8925 -1.7971 -1.2395
  307MOL0     H42318   3.539   5.106   9.549  0.5726 -0.8912  1.0094
  307MOL0     H42319   3.415   4.978   9.561  1.6602  0.2523  0.5431
  307MOL0     H42320   3.409   5.247   9.428  1.4860  0.6451 -1.5298
  307MOL0     H42321   3.408   5.102   9.342  0.2201  0.6078  0.6684
  307MOL0     H42322   3.167   5.243   9.462 -4.0935 -4.0300  2.2689
  307MOL0     H42323   3.186   5.171   9.307  0.3368 -0.1672 -0.8872
  307MOL0     H42324   3.042   4.853   9.553 -0.4465 -1.8136  1.3229
  307MOL0     H42325   2.980   4.629   9.584  4.4188  0.4145  3.2685
  307MOL0     H42326   3.091   4.518   9.588  0.4910 -1.3278 -1.0967
  307MOL0     H42327   2.982   4.511   9.449 -1.7134 -0.2632  1.2879
  307MOL0     H42328   3.513   4.419   9.028 -4.2140 -1.8636 -0.7014
  307MOL0     H42329   3.651   4.228   9.006  1.0257 -0.3934  1.3757
  307MOL0     H42330   3.774   4.016   9.398 -0.8406  1.8908 -0.9048
  307MOL0     H42331   3.794   3.889   9.283 -1.3081 -0.0526  2.5785
  307MOL0     H42332   3.976   4.042   9.183 -2.2479  0.8836  0.1183
  307MOL0     H42333   3.989   4.099   9.351  1.0957 -0.8324 -0.2177
  307MOL0     H42334   4.096   3.864   9.237  1.3514  4.5960 -0.4849
  307MOL0     H42335   3.982   3.814   9.371  1.7446 -0.8314 -0.0606
  307MOL0     H42336   4.095   3.977   9.514 -2.1917 -0.9173 -0.4877
  307MOL0     H42337   4.221   3.998   9.395 -1.1812  1.5710 -0.3336
  307MOL0     H42338   4.146   3.724   9.499 -1.1461  0.7523  1.2008
  307MOL0     H42339   4.279   3.758   9.399  1.1122  0.1081  0.4755
  307MOL0     H42340   4.246   3.857   9.696  2.5955 -1.2123  2.9489
  307MOL0     H42341   4.383   3.888   9.593  1.7228 -2.2030 -0.7412
  307MOL0     H42342   4.415   3.643   9.589 -1.2200  1.3708 -1.7601
  307MOL0     H42343   4.277   3.617   9.701 -2.1163  0.1536 -1.2505
  307MOL0     H42344   4.486   3.620   9.833  2.6070  2.0100  3.7297
  307MOL0     H42345   4.371   3.737   9.886 -0.4081  1.3467 -1.2903
  307MOL0     H42346   3.612   4.137   9.423 -2.9150 -1.1271  0.1826
  307MOL0     H42347   3.460   4.314   9.447 -1.2222 -2.8554  0.1292
  307MOL0     H42348   3.361   4.748   9.201  0.0996  1.0932 -0.8574
  307MOL0     H42349   3.309   4.949   9.248 -0.5527  1.6731  1.8585
  307MOL0     H42350   3.283   5.026  10.509  2.3718 -0.2253 -1.1046
  307MOL0     H42351   3.156   4.802  10.442 -1.0479 -0.7620  0.4558
  307MOL0     H42352   3.226   4.412  10.280  1.0469  0.3333  1.2672
  307MOL0     H42353   3.154   4.227  10.156 -0.0162  0.8768 -0.7221
  307MOL0     H42354   3.094   4.056  10.026  5.0739  0.5585 -1.0566
  307MOL0     H42355   3.220   3.993  10.138 -0.1101  0.1580  1.9871
  307MOL0     H42356   3.093   3.837   9.954  0.8143 -3.8786  0.6792
  307MOL0     H42357   2.954   3.880  10.044  0.7195  2.0511 -0.0769
  307MOL0     H42358   3.183   3.685  10.110  0.8963  0.8735 -0.2934
  307MOL0     H42359   3.131   3.775  10.250  2.0664  2.2596 -1.1557
  307MOL0     H42360   3.042   3.544  10.176  0.3368 -0.7559 -0.1813
  307MOL0     H42361   2.921   3.617  10.083 -0.9309 -0.1098  1.9010
  307MOL0     H42362   2.824   3.646  10.504  0.1168 -0.6540 -0.1481
  307MOL0     H42363   3.021   4.009  10.491 -1.0306 -0.0724 -0.6821
  307MOL0     H42364   3.179   4.156  10.726 -0.3184  0.5030  2.6034
  307MOL0     H42365   3.066   4.291  10.721 -2.2832  0.4733 -1.8248
  307MOL0     H42366   3.004   4.126  10.708  0.7471 -1.4190  0.3810
  308MOL0     O42367   3.592   6.535  11.370  0.2509 -0.1213 -0.0497
  308MOL0     C42368   3.555   6.622  11.450 -0.4853  0.0601  0.4199
  308MOL0     O42369   3.638   6.726  11.504 -0.7029  0.2651  0.6977
  308MOL0     C42370   3.770   6.748  11.464  0.9478 -1.1049  0.2703
  308MOL0     C42371   3.831   6.691  11.350 -0.5180  0.0479  0.3305
  308MOL0     C42372   3.970   6.713  11.323  0.4603  0.7361 -0.1474
  308MOL0     C42373   4.050   6.806  11.406 -0.3073 -0.1162  1.0051
  308MOL0     O42374   4.177   6.840  11.402 -0.1742 -0.5640  0.0526
  308MOL0     C42375   4.260   6.788  11.299 -0.6127  0.6365  0.6590
  308MOL0     C42376   4.405   6.827  11.324 -0.2255 -0.0488 -0.4083
  308MOL0     C42377   4.466   6.901  11.207 -0.0019 -1.3383 -0.5293
  308MOL0     C42378   4.610   6.954  11.232 -0.3420 -0.1706 -0.1034
  308MOL0     C42379   4.657   7.041  11.119 -0.5310  0.1070  0.3736
  308MOL0     C42380   4.705   6.947  11.004  0.4707  0.4219 -1.1497
  308MOL0     C42381   4.752   7.030  10.890  0.0625 -0.5246 -0.2914
  308MOL0     C42382   4.830   6.957  10.780  0.2608 -0.5314 -0.4524
  308MOL0     N42383   4.888   7.056  10.692 -0.1166 -0.2136 -0.1829
  308MOL0     C42384   4.813   7.137  10.614 -0.6530 -0.0193  0.4268
  308MOL0     C42385   4.902   7.193  10.528 -0.7709 -0.2267  0.0127
  308MOL0     C42386   4.867   7.284  10.415 -0.2380 -0.3631 -0.8932
  308MOL0     C42387   4.761   7.240  10.327 -0.5828  1.0698 -0.3165
  308MOL0     C42388   4.816   7.160  10.213  0.0073  0.4458  1.1289
  308MOL0     C42389   4.699   7.065  10.160 -0.1376 -0.4315  0.0892
  308MOL0     O42390   4.746   6.951  10.073 -0.6190 -0.0956 -0.3657
  308MOL0     C42391   4.827   6.993   9.969  0.4899  1.1723  0.0333
  308MOL0     C42392   4.962   6.958   9.987 -0.5862  0.4910 -0.0191
  308MOL0     C42393   5.054   6.970   9.888  0.4375 -0.5651 -0.4739
  308MOL0     C42394   5.193   6.930   9.918 -0.8152 -0.2327 -0.3351
  308MOL0     C42395   5.011   7.024   9.769  0.7336  0.0528 -0.6031
  308MOL0     C42396   5.101   7.052   9.664 -0.2690 -0.7405  0.3510
  308MOL0     O42397   5.223   7.102   9.707 -0.5137  0.7497  0.8889
  308MOL0     C42398   5.346   7.094   9.643  0.5987 -0.5671  1.6135
  308MOL0     C42399   5.463   7.135   9.716 -0.8739 -0.3261  0.0591
  308MOL0     C42400   5.588   7.132   9.659 -0.7433 -0.8471  1.0069
  308MOL0     C42401   5.614   7.085   9.527  0.5129 -0.4970  0.3570
  308MOL0     O42402   5.740   7.079   9.478  0.2611 -0.1946 -0.2600
  308MOL0     C42403   5.773   7.000   9.364 -0.3215 -0.3468  0.3833
  308MOL0     C42404   5.933   7.016   9.348  2.0521  0.5706 -0.0101
  308MOL0     C42405   5.982   6.911   9.238  0.0375 -0.4512 -0.1610
  308MOL0     C42406   5.916   6.932   9.097 -0.2454 -0.4352  0.1045
  308MOL0     C42407   5.970   6.842   8.977 -0.2573  0.3909  0.8035
  308MOL0     C42408   6.000   6.692   9.012 -1.2424 -0.2169 -0.4983
  308MOL0     C42409   6.021   6.603   8.897  0.0150  0.3843 -0.1069
  308MOL0     C42410   6.169   6.581   8.878  0.0816 -0.0975 -0.1318
  308MOL0    Cl42411   6.215   6.536   8.704  0.1275 -0.0675  0.1222
  308MOL0     C42412   5.507   7.033   9.455  0.9348 -0.6379  0.3952
  308MOL0     C42413   5.373   7.045   9.511  0.2165  0.0839  0.0282
  308MOL0     O42414   5.084   6.997   9.558  0.6719  0.6177 -0.9663
  308MOL0     C42415   4.884   7.078   9.758 -0.0327  0.0135 -0.0817
  308MOL0     C42416   4.787   7.061   9.861  0.3744 -0.1787  0.5340
  308MOL0     N42417   5.032   7.145  10.559  1.0303  0.2633 -0.1031
  308MOL0     N42418   5.023   7.048  10.644  0.4103  0.3592 -0.6297
  308MOL0     C42419   3.981   6.862  11.514 -0.0418  0.0613  0.8782
  308MOL0     C42420   3.847   6.840  11.534 -0.4220  0.5095 -0.7011
  308MOL0     C42421   3.420   6.627  11.498  0.7393 -0.2104  0.1684
  308MOL0     C42422   3.324   6.567  11.416  1.2041 -0.4958  0.7714
  308MOL0     C42423   3.182   6.579  11.447 -0.2826  0.4044 -0.3542
  308MOL0     C42424   3.137   6.650  11.559  0.6464  0.8869  0.6241
  308MOL0     O42425   3.000   6.665  11.559  0.2651  0.1042 -0.3344
  308MOL0     C42426   2.936   6.711  11.677 -0.0691 -0.5868 -1.4655
  308MOL0     C42427   2.808   6.772  11.638  0.3183 -0.3426  0.2283
  308MOL0     C42428   2.711   6.688  11.559  0.3363 -0.6340 -0.6907
  308MOL0     C42429   2.705   6.543  11.614  0.6272 -0.4613 -0.6277
  308MOL0     C42430   2.623   6.457  11.528  0.7148 -0.5331  0.5061
  308MOL0     C42431   2.549   6.390  11.459  0.7418 -0.6942  0.5219
  308MOL0     C42432   3.224   6.690  11.654  0.4839 -0.3420  0.4052
  308MOL0     C42433   3.365   6.685  11.616  0.4972 -0.5664  0.4665
  308MOL0     C42434   3.458   6.741  11.714  0.6483  0.3626 -0.1284
  308MOL0     H42435   3.774   6.621  11.291  1.3844 -0.3945 -1.0913
  308MOL0     H42436   4.000   6.666  11.230  2.1175  1.7481 -0.1585
  308MOL0     H42437   4.231   6.813  11.196  0.2023 -2.5780 -0.4941
  308MOL0     H42438   4.246   6.679  11.297  0.7252  0.3929  2.3997
  308MOL0     H42439   4.392   6.897  11.407 -1.9839  0.6670 -1.2316
  308MOL0     H42440   4.474   6.745  11.349  2.8927  1.2287 -3.9148
  308MOL0     H42441   4.481   6.833  11.123 -1.1791 -2.8127  0.4093
  308MOL0     H42442   4.405   6.988  11.177 -0.1563 -1.3893 -0.3663
  308MOL0     H42443   4.626   6.999  11.330 -1.6742 -0.6628  0.3612
  308MOL0     H42444   4.678   6.870  11.248  3.9958  3.1829  0.9810
  308MOL0     H42445   4.732   7.114  11.150 -0.8713  0.9195 -0.6510
  308MOL0     H42446   4.574   7.107  11.092 -1.5883 -1.4187 -0.2428
  308MOL0     H42447   4.786   6.881  11.036  1.1106  2.4286  1.7605
  308MOL0     H42448   4.614   6.891  10.980 -1.3015  1.3677  2.6734
  308MOL0     H42449   4.810   7.105  10.943 -1.3375  0.1808  0.3159
  308MOL0     H42450   4.664   7.082  10.851  0.3565  1.0857  1.0639
  308MOL0     H42451   4.909   6.901  10.830  1.5269 -1.9813 -3.7756
  308MOL0     H42452   4.773   6.886  10.720 -0.1128  0.7659 -1.6853
  308MOL0     H42453   4.707   7.161  10.615 -1.6925 -3.5427 -2.7747
  308MOL0     H42454   4.958   7.308  10.359  1.1730  0.2609  1.4702
  308MOL0     H42455   4.845   7.382  10.458  2.7765  0.5433 -1.1492
  308MOL0     H42456   4.697   7.176  10.387 -0.8005  1.3734 -0.2249
  308MOL0     H42457   4.709   7.327  10.285  1.2209  0.7860 -3.4815
  308MOL0     H42458   4.840   7.226  10.129 -0.6521  0.9946  1.3653
  308MOL0     H42459   4.895   7.086  10.231  0.3213 -0.1993 -2.2498
  308MOL0     H42460   4.637   7.031  10.243  1.2569  0.1034  1.3945
  308MOL0     H42461   4.637   7.126  10.093  1.2797  0.4498 -0.4752
  308MOL0     H42462   4.997   6.913  10.080  0.1244  0.2261 -0.4064
  308MOL0     H42463   5.203   6.865  10.005  2.2263 -0.3009 -0.6576
  308MOL0     H42464   5.256   7.019   9.926 -2.4408  0.8067  2.7275
  308MOL0     H42465   5.231   6.874   9.833  1.8191  1.0440 -0.0854
  308MOL0     H42466   5.450   7.175   9.816  1.7166 -1.4819  0.9407
  308MOL0     H42467   5.672   7.172   9.716 -0.0441 -0.8846  0.0414
  308MOL0     H42468   5.737   6.897   9.371 -0.9736  0.0064  3.4694
  308MOL0     H42469   5.735   7.051   9.275  3.1218  0.5861 -0.6962
  308MOL0     H42470   5.959   7.119   9.324 -1.4435  1.0732 -2.3391
  308MOL0     H42471   5.989   6.981   9.435 -2.5913 -1.9195  2.3355
  308MOL0     H42472   5.970   6.807   9.271  3.4125 -1.3988 -1.4508
  308MOL0     H42473   6.091   6.917   9.234  0.1545 -0.8721  1.7581
  308MOL0     H42474   5.925   7.036   9.065  0.3439 -0.3019  0.6701
  308MOL0     H42475   5.810   6.910   9.110 -0.6356  1.1933 -0.1193
  308MOL0     H42476   5.888   6.837   8.904 -0.4937  0.8239  1.0352
  308MOL0     H42477   6.052   6.888   8.922  1.1658 -3.1071 -0.3050
  308MOL0     H42478   5.922   6.663   9.083  1.0799 -3.0090  1.1288
  308MOL0     H42479   6.089   6.691   9.075 -2.5852  1.3247  1.5673
  308MOL0     H42480   5.969   6.633   8.805  1.0705 -2.3808 -1.7654
  308MOL0     H42481   5.959   6.516   8.919 -2.6217  3.0771  4.5894
  308MOL0     H42482   6.203   6.504   8.949  0.8134  0.3700  0.0312
  308MOL0     H42483   6.219   6.673   8.908  0.2325 -0.1906 -0.0949
  308MOL0     H42484   5.502   6.993   9.354 -3.4553 -1.0672  0.6145
  308MOL0     H42485   5.298   6.995   9.451  1.1094 -0.3912 -0.7083
  308MOL0     H42486   4.850   7.131   9.670  0.3432 -2.0205 -1.5325
  308MOL0     H42487   4.684   7.097   9.860 -0.0616 -1.0520  3.7724
  308MOL0     H42488   4.040   6.928  11.577  0.4362  0.1988  0.2864
  308MOL0     H42489   3.798   6.895  11.613  0.2290  0.2486 -0.1120
  308MOL0     H42490   3.358   6.511  11.330  0.5175 -1.5570  1.1728
  308MOL0     H42491   3.104   6.553  11.375  0.3262  0.8143 -1.1707
  308MOL0     H42492   2.941   6.635  11.755  2.5919  1.5584  0.6813
  308MOL0     H42493   2.995   6.796  11.714 -1.7601  0.6967 -1.6040
  308MOL0     H42494   2.828   6.855  11.570  1.5232 -1.6168 -1.0359
  308MOL0     H42495   2.759   6.803  11.731 -1.0290  1.0241 -0.9070
  308MOL0     H42496   2.607   6.717  11.573  0.1257 -0.1463 -2.9499
  308MOL0     H42497   2.751   6.700  11.458 -2.9729  1.3916 -1.8982
  308MOL0     H42498   2.656   6.536  11.712  1.9968 -1.7757 -0.0030
  308MOL0     H42499   2.803   6.497  11.621 -1.2580 -4.8527  0.2835
  308MOL0     H42500   2.468   6.340  11.410 -0.9009 -0.8299  3.1764
  308MOL0     H42501   3.184   6.746  11.738  0.0611 -0.6716  0.4246
  308MOL0     H42502   3.504   6.832  11.673  2.3885 -0.4054  0.0215
  308MOL0     H42503   3.411   6.770  11.809  0.3374 -0.9355  0.1270
  308MOL0     H42504   3.535   6.664  11.721  0.1791 -0.6321 -3.8991
  309MOL0     O42505   2.168   3.420   6.503  0.0628  0.4152 -0.2365
  309MOL0     C42506   2.076   3.350   6.461  0.1192  0.0778 -0.0778
  309MOL0     O42507   2.088   3.216   6.424  1.0829 -0.6201 -0.0591
  309MOL0     C42508   2.214   3.159   6.424 -0.0723  0.1933  0.7983
  309MOL0     C42509   2.295   3.171   6.540 -0.2406 -0.0585 -0.1987
  309MOL0     C42510   2.421   3.105   6.535  0.2051 -0.5191  0.6561
  309MOL0     C42511   2.469   3.044   6.421  0.6155  0.0133  0.0972
  309MOL0     O42512   2.590   2.972   6.401  0.5404 -0.4400 -0.1686
  309MOL0     C42513   2.704   3.013   6.485  0.6821  0.2160 -0.0556
  309MOL0     C42514   2.832   3.010   6.412  0.0611  0.2979  0.0309
  309MOL0     C42515   2.965   3.046   6.488 -0.1844  0.0441  0.4455
  309MOL0     C42516   3.073   3.095   6.396  0.3752 -0.8604 -0.1909
  309MOL0     C42517   3.139   2.985   6.316 -0.2082 -0.3971 -0.8557
  309MOL0     C42518   3.249   3.018   6.216 -0.3255 -0.1533 -0.1888
  309MOL0     C42519   3.361   3.111   6.274  0.6363  0.5450  0.8815
  309MOL0     C42520   3.452   3.035   6.375  0.8183 -0.6627  0.2011
  309MOL0     N42521   3.512   2.929   6.304 -0.1235  0.6660  0.0718
  309MOL0     C42522   3.511   2.799   6.347  0.7973  0.3113 -0.8688
  309MOL0     C42523   3.589   2.729   6.262  0.2170 -0.3459 -0.8806
  309MOL0     C42524   3.610   2.578   6.251 -0.7083  0.5526  1.0994
  309MOL0     C42525   3.733   2.535   6.175 -0.1697  0.1990  0.2987
  309MOL0     C42526   3.852   2.513   6.275 -1.4902  1.3502 -0.6283
  309MOL0     C42527   3.959   2.429   6.208  0.3923 -0.1219  0.0458
  309MOL0     O42528   4.073   2.413   6.288 -1.0519 -0.7054 -0.0116
  309MOL0     C42529   4.192   2.376   6.225  0.3117 -0.6479  0.1977
  309MOL0     C42530   4.296   2.338   6.314  0.5353  0.7845 -0.4709
  309MOL0     C42531   4.420   2.294   6.272 -0.2613 -0.9939  0.6860
  309MOL0     C42532   4.519   2.267   6.370 -1.0183  0.1818 -1.1190
  309MOL0     C42533   4.446   2.303   6.129 -0.2993  0.3602  0.4765
  309MOL0     C42534   4.576   2.288   6.067  0.0724  0.8983  0.6129
  309MOL0     O42535   4.566   2.254   5.931 -1.2631 -0.4074 -0.1610
  309MOL0     C42536   4.683   2.277   5.853  0.3877  0.2410  0.0762
  309MOL0     C42537   4.707   2.408   5.797 -0.2075  0.5715  0.4764
  309MOL0     C42538   4.818   2.413   5.712  0.6358 -0.5079  0.3007
  309MOL0     C42539   4.896   2.304   5.674 -0.0427 -0.8556 -0.4606
  309MOL0     O42540   5.011   2.311   5.595 -0.0968 -0.0112  1.0429
  309MOL0     C42541   5.043   2.447   5.542 -0.4179  0.4618  0.5124
  309MOL0     C42542   5.161   2.426   5.445  0.0453 -1.1777 -0.7768
  309MOL0     C42543   5.292   2.393   5.514 -0.1389 -0.2755  0.0931
  309MOL0     C42544   5.331   2.502   5.593 -0.8006 -0.6665 -0.3050
  309MOL0     C42545   5.452   2.475   5.673  0.3960 -0.4219  0.7943
  309MOL0     C42546   5.425   2.395   5.810 -1.2806  0.2940 -0.0706
  309MOL0     C42547   5.556   2.353   5.884  0.0762  0.1021  0.3128
  309MOL0     C42548   5.537   2.273   6.014 -0.0645 -0.1937 -0.0169
  309MOL0    Cl42549   5.476   2.379   6.140 -0.2647  0.3270  0.1902
  309MOL0     C42550   4.869   2.178   5.724  0.0836 -0.4447  0.1211
  309MOL0     C42551   4.766   2.171   5.819  0.3932  0.3135 -0.1889
  309MOL0     O42552   4.679   2.307   6.137 -0.0525  0.6422  0.1206
  309MOL0     C42553   4.337   2.344   6.044  0.0986 -0.3033 -0.2352
  309MOL0     C42554   4.214   2.374   6.095  1.0499 -0.8171  0.0286
  309MOL0     N42555   3.638   2.807   6.167  1.0418  0.0930 -0.8872
  309MOL0     N42556   3.593   2.931   6.194  0.1507  0.5625  0.5614
  309MOL0     C42557   2.377   3.023   6.322  1.0039  0.8349 -0.3787
  309MOL0     C42558   2.249   3.081   6.316 -0.3770 -0.7995  0.1353
  309MOL0     C42559   1.941   3.400   6.457  0.0166  0.3390  0.0190
  309MOL0     C42560   1.838   3.314   6.486  0.3916  0.1268 -0.5892
  309MOL0     C42561   1.709   3.361   6.510  0.7197 -0.4182  0.1064
  309MOL0     C42562   1.678   3.496   6.488  0.3507 -0.3737 -1.0486
  309MOL0     O42563   1.545   3.541   6.516 -0.1095 -0.0412 -0.5365
  309MOL0     C42564   1.513   3.675   6.480  0.0622  0.1711 -0.5075
  309MOL0     C42565   1.391   3.714   6.548  0.1201 -0.5309 -0.6935
  309MOL0     C42566   1.345   3.850   6.520 -0.0461 -0.3307  0.5929
  309MOL0     C42567   1.258   3.912   6.637 -0.2012 -0.2552  0.5886
  309MOL0     C42568   1.133   3.827   6.651 -0.1871  0.5288 -0.0469
  309MOL0     C42569   1.045   3.744   6.667 -1.2390 -0.5437 -0.0094
  309MOL0     C42570   1.776   3.578   6.428  0.3340  0.0951  0.3214
  309MOL0     C42571   1.906   3.537   6.419 -0.2234 -0.5953  0.2195
  309MOL0     C42572   2.008   3.623   6.348  0.2562 -0.3665  0.0803
  309MOL0     H42573   2.256   3.223   6.627 -2.5406 -2.7727  0.5349
  309MOL0     H42574   2.487   3.121   6.619  0.1709 -2.9318  1.2217
  309MOL0     H42575   2.705   2.946   6.571 -0.3483 -3.1400 -2.4750
  309MOL0     H42576   2.691   3.116   6.522 -1.5681 -0.1614  0.3627
  309MOL0     H42577   2.850   2.906   6.382 -0.1396 -0.3501  1.9763
  309MOL0     H42578   2.825   3.065   6.318 -1.3415  3.1426  1.6638
  309MOL0     H42579   2.946   3.132   6.553  0.9709  2.3267 -2.0370
  309MOL0     H42580   3.009   2.964   6.545  1.0761  0.9422  0.7891
  309MOL0     H42581   3.032   3.168   6.326  2.8607  2.5020  1.5468
  309MOL0     H42582   3.144   3.148   6.461  2.3855 -2.4786 -0.9526
  309MOL0     H42583   3.060   2.922   6.274  1.2263 -2.0068 -1.2877
  309MOL0     H42584   3.186   2.924   6.394 -2.7113  0.3632  1.3939
  309MOL0     H42585   3.279   2.923   6.172 -1.1685 -0.5587  0.0807
  309MOL0     H42586   3.201   3.073   6.135 -0.4172 -1.8287 -1.3149
  309MOL0     H42587   3.311   3.191   6.329 -0.4314 -1.0349  2.2702
  309MOL0     H42588   3.419   3.162   6.195  1.8715 -2.1842 -0.1048
  309MOL0     H42589   3.525   3.106   6.415  0.9233 -0.2240 -0.7431
  309MOL0     H42590   3.396   2.987   6.456  2.7471 -1.9384  0.8696
  309MOL0     H42591   3.454   2.761   6.431 -1.6829  0.9105 -2.2081
  309MOL0     H42592   3.520   2.555   6.193  0.2805 -1.3003  0.1932
  309MOL0     H42593   3.593   2.521   6.343  1.1888 -1.0586  0.5308
  309MOL0     H42594   3.717   2.441   6.122  2.2989 -0.3136  0.3448
  309MOL0     H42595   3.750   2.615   6.102  2.7180  1.7479  2.4660
  309MOL0     H42596   3.898   2.607   6.305 -3.1142  2.6653 -2.0358
  309MOL0     H42597   3.817   2.461   6.365 -0.5230  2.5770  0.5021
  309MOL0     H42598   3.911   2.333   6.184 -2.0095  0.3816  2.4885
  309MOL0     H42599   3.983   2.494   6.123  0.0007  3.3195  2.3859
  309MOL0     H42600   4.275   2.330   6.420  0.4059 -2.4769 -0.6412
  309MOL0     H42601   4.561   2.168   6.349  0.2746  0.1398  1.2565
  309MOL0     H42602   4.476   2.275   6.471  0.0782  0.7056 -0.6723
  309MOL0     H42603   4.596   2.345   6.371  0.4104 -1.0421  2.6873
  309MOL0     H42604   4.653   2.498   5.823 -3.6756 -0.5885 -1.9469
  309MOL0     H42605   4.837   2.504   5.656  3.1695 -1.8794 -1.2171
  309MOL0     H42606   4.965   2.490   5.480  2.6121  1.4704 -2.9177
  309MOL0     H42607   5.067   2.505   5.632 -2.3777 -0.6471  1.8428
  309MOL0     H42608   5.137   2.349   5.372  2.0878 -4.2791  1.5651
  309MOL0     H42609   5.184   2.519   5.392 -1.5830 -1.4444 -2.0282
  309MOL0     H42610   5.375   2.371   5.447 -0.6738 -1.2268 -0.2730
  309MOL0     H42611   5.285   2.305   5.579  2.5163  0.3033  1.2797
  309MOL0     H42612   5.253   2.550   5.653 -1.4029  1.7667 -2.8013
  309MOL0     H42613   5.366   2.574   5.519 -1.5788 -0.9834 -1.0020
  309MOL0     H42614   5.509   2.416   5.601 -1.5130  0.9321 -2.0100
  309MOL0     H42615   5.508   2.568   5.682 -0.9956  0.5644 -0.4452
  309MOL0     H42616   5.369   2.302   5.800 -0.6789 -0.1149  0.3049
  309MOL0     H42617   5.355   2.452   5.873 -2.0691 -1.4041  0.6334
  309MOL0     H42618   5.601   2.451   5.899  0.4513 -0.2936  1.9685
  309MOL0     H42619   5.622   2.297   5.817 -3.1238  0.7427 -3.7538
  309MOL0     H42620   5.633   2.225   6.037  1.7960  1.9205 -2.6441
  309MOL0     H42621   5.463   2.196   5.994 -1.4793  1.6225 -2.2169
  309MOL0     H42622   4.932   2.100   5.684  0.0679 -0.8888  0.9442
  309MOL0     H42623   4.752   2.073   5.864 -2.0701  0.5881 -0.1917
  309MOL0     H42624   4.352   2.346   5.937  1.5259 -2.1568 -0.1346
  309MOL0     H42625   4.136   2.389   6.021  0.6030 -2.6325  0.0792
  309MOL0     H42626   2.406   2.964   6.236 -0.6525  2.2263 -1.9845
  309MOL0     H42627   2.179   3.069   6.234 -0.2006  3.4414 -0.9040
  309MOL0     H42628   1.862   3.213   6.517 -0.1103  0.3772  0.6860
  309MOL0     H42629   1.618   3.305   6.525  1.0656 -0.1998  4.2088
  309MOL0     H42630   1.592   3.736   6.526  0.0521 -0.5381  0.4854
  309MOL0     H42631   1.513   3.687   6.371 -4.1813  0.9451 -0.5757
  309MOL0     H42632   1.396   3.690   6.654 -1.0186  2.3527  0.1142
  309MOL0     H42633   1.313   3.647   6.510 -0.5657 -0.2264  0.1237
  309MOL0     H42634   1.432   3.916   6.505  0.0618 -0.0794  2.1971
  309MOL0     H42635   1.278   3.853   6.433 -1.6914  1.8581  1.8334
  309MOL0     H42636   1.235   4.018   6.621 -1.6756 -0.8045 -1.5217
  309MOL0     H42637   1.322   3.908   6.725  0.6544 -0.5412 -0.0278
  309MOL0     H42638   0.963   3.683   6.698  0.5232 -1.7949  2.4861
  309MOL0     H42639   1.740   3.671   6.385 -2.7332 -0.4933  1.3665
  309MOL0     H42640   1.967   3.711   6.297  1.5714  0.5319  0.5075
  309MOL0     H42641   2.087   3.665   6.412 -1.2731 -2.9618  4.1190
  309MOL0     H42642   2.044   3.560   6.267  0.3893 -0.1000 -0.0709
  310MOL0     O42643   2.825   3.942   9.283 -0.0618  0.1268 -0.5186
  310MOL0     C42644   2.920   4.023   9.275  0.3240  0.0928  0.6173
  310MOL0     O42645   2.946   4.127   9.361  0.1728  0.0982 -0.6638
  310MOL0     C42646   2.893   4.139   9.486 -1.3358  0.7533 -0.4736
  310MOL0     C42647   2.974   4.207   9.577  0.0497 -0.1967 -0.4381
  310MOL0     C42648   2.925   4.263   9.698 -0.0353  0.1967 -1.3905
  310MOL0     C42649   2.797   4.220   9.741  0.3318 -0.6076  1.0581
  310MOL0     O42650   2.740   4.233   9.859  0.3693 -0.5762  0.3557
  310MOL0     C42651   2.765   4.361   9.926 -0.4826  0.3439 -0.2168
  310MOL0     C42652   2.667   4.387  10.037 -0.0463 -0.6527  0.0105
  310MOL0     C42653   2.713   4.515  10.113  0.6964 -0.8154 -0.2347
  310MOL0     C42654   2.841   4.491  10.203  0.3191 -0.5010  0.0205
  310MOL0     C42655   2.885   4.616  10.287  0.2693  0.1798 -0.7716
  310MOL0     C42656   2.769   4.636  10.391 -0.4026 -0.8078  0.3038
  310MOL0     C42657   2.806   4.767  10.467  0.5939  0.1322  0.2202
  310MOL0     C42658   2.712   4.800  10.583  0.5361  0.6424  0.0265
  310MOL0     N42659   2.700   4.683  10.672  0.7950 -0.7027  0.0018
  310MOL0     C42660   2.791   4.603  10.720  0.4947  0.7230  0.1205
  310MOL0     C42661   2.719   4.515  10.789 -0.0057 -0.4051 -0.6745
  310MOL0     C42662   2.777   4.415  10.889 -0.0462  0.8426 -0.0489
  310MOL0     C42663   2.822   4.471  11.025  0.0071 -0.7586 -0.6327
  310MOL0     C42664   2.732   4.575  11.088 -0.6190  0.2898  0.0411
  310MOL0     C42665   2.585   4.533  11.127  0.0750  0.5569 -0.5195
  310MOL0     O42666   2.583   4.438  11.236 -0.2189  0.1238  0.1417
  310MOL0     C42667   2.537   4.489  11.353 -0.0107 -0.3985  0.3387
  310MOL0     C42668   2.619   4.552  11.445 -0.9242 -0.6147 -0.0377
  310MOL0     C42669   2.581   4.596  11.568  1.0767 -0.7759  0.0753
  310MOL0     C42670   2.680   4.660  11.658 -0.6124  0.6324 -0.2431
  310MOL0     C42671   2.442   4.579  11.603 -0.1743  0.9035 -0.5609
  310MOL0     C42672   2.377   4.642  11.718  0.9242 -0.4395 -0.5857
  310MOL0     O42673   2.240   4.630  11.717  0.6029  0.8861 -0.0997
  310MOL0     C42674   2.163   4.722  11.784 -0.3415  0.5898 -0.5916
  310MOL0     C42675   2.160   4.726  11.923 -0.7094  0.0695  0.3018
  310MOL0     C42676   2.099   4.828  11.995 -0.2631 -0.0564  0.0323
  310MOL0     C42677   2.019   4.925  11.929  0.8567 -0.2174 -0.4410
  310MOL0     O42678   1.957   5.021  12.004 -0.0818  0.4718 -0.8040
  310MOL0     C42679   1.945   5.160  11.952  0.0469 -0.8010  0.1945
  310MOL0     C42680   1.831   5.246  11.992  0.3933 -1.0542 -0.1969
  310MOL0     C42681   1.705   5.174  12.031 -0.8218  1.1055  0.5655
  310MOL0     C42682   1.685   5.140  12.188  0.4373  0.2018  0.0840
  310MOL0     C42683   1.547   5.073  12.218  0.7034  0.3077 -0.6658
  310MOL0     C42684   1.428   5.171  12.196 -0.3517  0.3503  0.1486
  310MOL0     C42685   1.431   5.273  12.315 -0.5824  0.6429 -0.3631
  310MOL0     C42686   1.292   5.340  12.329 -0.1684  0.3441  0.3382
  310MOL0    Cl42687   1.236   5.417  12.176 -0.6169 -0.6121 -0.2168
  310MOL0     C42688   2.017   4.917  11.790  0.0318 -0.5136 -0.2520
  310MOL0     C42689   2.091   4.817  11.716 -0.3577 -0.2952  1.1752
  310MOL0     O42690   2.444   4.709  11.796 -0.1871  0.2831 -1.0494
  310MOL0     C42691   2.357   4.493  11.521  0.2860 -0.3583  0.4188
  310MOL0     C42692   2.405   4.458  11.389  0.1762 -0.2988 -0.4080
  310MOL0     N42693   2.585   4.542  10.797  0.2677 -0.2357 -0.0571
  310MOL0     N42694   2.581   4.645  10.713 -0.1255 -0.1452  0.1205
  310MOL0     C42695   2.716   4.155   9.651  0.5403  0.0241  0.3000
  310MOL0     C42696   2.759   4.115   9.525 -0.3137 -0.1205  0.4969
  310MOL0     C42697   3.017   4.004   9.170 -0.4930  0.7975  0.5323
  310MOL0     C42698   3.133   4.085   9.180 -0.2660 -0.3725 -0.2639
  310MOL0     C42699   3.248   4.057   9.113  0.3384  0.5577 -0.3782
  310MOL0     C42700   3.261   3.942   9.027 -0.4695 -0.1077  0.0659
  310MOL0     O42701   3.371   3.905   8.957  0.0791 -0.4411  0.4545
  310MOL0     C42702   3.496   3.887   9.038  0.1969  0.0676 -0.5504
  310MOL0     C42703   3.540   3.736   9.015  0.4256  0.3848  0.0494
  310MOL0     C42704   3.690   3.712   9.069 -0.3578  0.2538 -0.0720
  310MOL0     C42705   3.704   3.609   9.187 -0.3826 -0.9384  0.0147
  310MOL0     C42706   3.839   3.567   9.229 -0.6451  0.1414  0.1099
  310MOL0     C42707   3.954   3.523   9.233 -0.1902 -0.3748  0.8605
  310MOL0     C42708   3.148   3.866   9.006 -0.6038 -0.5251  0.0315
  310MOL0     C42709   3.023   3.895   9.074  0.4314 -0.0065  0.4947
  310MOL0     C42710   2.900   3.809   9.047  0.3236  0.1708  0.4068
  310MOL0     H42711   3.080   4.220   9.555 -0.0820  0.2270 -0.8450
  310MOL0     H42712   2.991   4.310   9.770 -1.9057 -1.2936  1.5255
  310MOL0     H42713   2.746   4.437   9.850 -2.3138  2.0342  1.7656
  310MOL0     H42714   2.870   4.365   9.955  0.1293  5.3337 -2.1045
  310MOL0     H42715   2.572   4.409   9.987  0.9149  2.2854 -0.7249
  310MOL0     H42716   2.646   4.307  10.108 -0.9061  0.3339  0.8982
  310MOL0     H42717   2.725   4.600  10.046  1.0339 -0.9515 -0.3491
  310MOL0     H42718   2.626   4.547  10.171 -1.3147 -0.1802 -3.3790
  310MOL0     H42719   2.812   4.408  10.268  0.0036  0.6319  1.3784
  310MOL0     H42720   2.932   4.463  10.150 -0.1821 -2.9441  0.3211
  310MOL0     H42721   2.896   4.711  10.233  0.0670 -0.3934 -1.8250
  310MOL0     H42722   2.981   4.588  10.333 -0.3478  1.4422  1.4854
  310MOL0     H42723   2.670   4.642  10.345 -0.7587 -2.1119  0.8437
  310MOL0     H42724   2.767   4.547  10.455 -0.5417 -0.8779  0.2029
  310MOL0     H42725   2.800   4.844  10.390  0.4023  0.3567  0.4584
  310MOL0     H42726   2.908   4.762  10.506  0.9640  1.1686 -0.5920
  310MOL0     H42727   2.762   4.881  10.638  1.8448 -1.3974  2.0198
  310MOL0     H42728   2.615   4.838  10.550  0.5537  1.1986  0.5928
  310MOL0     H42729   2.900   4.611  10.718  0.7794 -0.6547  3.4749
  310MOL0     H42730   2.865   4.385  10.832 -1.3966  0.7617 -2.2367
  310MOL0     H42731   2.720   4.324  10.907 -0.7354  1.6785  2.4302
  310MOL0     H42732   2.841   4.388  11.094 -3.2601 -0.5044  0.7399
  310MOL0     H42733   2.908   4.534  10.999 -0.9496  0.6362 -0.5097
  310MOL0     H42734   2.784   4.617  11.175  1.2357 -0.9642 -0.3968
  310MOL0     H42735   2.732   4.660  11.019  3.7184 -0.2056 -0.8754
  310MOL0     H42736   2.515   4.616  11.146 -1.3457 -0.0705 -2.6713
  310MOL0     H42737   2.534   4.476  11.050  0.4863 -2.9847  1.6176
  310MOL0     H42738   2.724   4.555  11.416 -1.1794 -1.3367 -1.1257
  310MOL0     H42739   2.773   4.638  11.604 -0.7773 -1.5560  0.2604
  310MOL0     H42740   2.700   4.608  11.752 -0.7096  3.1059  1.2102
  310MOL0     H42741   2.666   4.768  11.668 -4.4463  0.5435 -2.5936
  310MOL0     H42742   2.214   4.643  11.966  3.6101  1.4392 -1.8965
  310MOL0     H42743   2.104   4.829  12.103  0.4731  1.4930  0.0094
  310MOL0     H42744   2.042   5.209  11.963 -1.0134  1.6582 -0.7108
  310MOL0     H42745   1.945   5.164  11.843  3.5055 -2.4619  0.0015
  310MOL0     H42746   1.859   5.315  12.073 -0.5758 -0.4731 -0.3424
  310MOL0     H42747   1.798   5.310  11.910  1.7084  1.3870  1.0570
  310MOL0     H42748   1.712   5.083  11.970 -0.8690  0.9681  0.7655
  310MOL0     H42749   1.617   5.225  11.990  0.4980  2.1871 -1.0243
  310MOL0     H42750   1.675   5.230  12.249 -1.5237 -1.4329  2.3549
  310MOL0     H42751   1.762   5.070  12.223 -2.4621 -2.7376  1.0804
  310MOL0     H42752   1.532   4.989  12.150  0.3768 -0.4448  0.3073
  310MOL0     H42753   1.542   5.043  12.323  1.3709 -1.5131 -1.1126
  310MOL0     H42754   1.332   5.121  12.208 -1.9168  2.9790 -0.4489
  310MOL0     H42755   1.431   5.220  12.099  1.4378  0.2300  0.1069
  310MOL0     H42756   1.499   5.356  12.295 -1.8114  2.1137  1.3297
  310MOL0     H42757   1.447   5.237  12.417  0.0865  1.0653 -0.3115
  310MOL0     H42758   1.297   5.406  12.416 -0.9932 -1.3485  1.7304
  310MOL0     H42759   1.218   5.262  12.347  0.0390  0.2821  0.9579
  310MOL0     H42760   1.949   4.970  11.725 -0.8301 -1.7968 -0.4183
  310MOL0     H42761   2.085   4.825  11.608  0.3470  1.5341  1.2275
  310MOL0     H42762   2.262   4.453  11.557  1.0692 -0.9578  1.8733
  310MOL0     H42763   2.354   4.391  11.321 -0.7285 -0.1367  0.0895
  310MOL0     H42764   2.613   4.138   9.681  0.4199 -0.9746 -0.5937
  310MOL0     H42765   2.690   4.076   9.451  0.3122  0.4158 -0.3870
  310MOL0     H42766   3.139   4.153   9.264  0.7673 -0.2265 -0.4405
  310MOL0     H42767   3.333   4.123   9.127  0.3513  0.8815 -1.8136
  310MOL0     H42768   3.571   3.957   8.998 -0.6646  0.9863 -0.6146
  310MOL0     H42769   3.474   3.901   9.144 -2.4931 -0.6024 -0.9477
  310MOL0     H42770   3.531   3.707   8.910  2.0211 -2.2199  0.5423
  310MOL0     H42771   3.468   3.671   9.065 -2.1131  2.9941  0.0131
  310MOL0     H42772   3.744   3.666   8.985 -1.1085 -2.8198  0.9877
  310MOL0     H42773   3.724   3.815   9.084 -1.2868  0.3755  1.3597
  310MOL0     H42774   3.644   3.521   9.163 -0.6431 -0.3675 -1.5555
  310MOL0     H42775   3.660   3.665   9.270  0.5702 -0.4812  0.2247
  310MOL0     H42776   4.055   3.486   9.224  0.7228  1.9156  0.9501
  310MOL0     H42777   3.149   3.795   8.923  1.2610  0.4414 -0.8413
  310MOL0     H42778   2.894   3.719   9.108  1.4167 -1.1404 -1.3236
  310MOL0     H42779   2.808   3.868   9.044  0.3684  0.2430  0.4442
  310MOL0     H42780   2.914   3.769   8.946 -1.1989  0.4444  0.0681
  311MOL0     O42781   9.364   1.928   5.433 -0.5413  0.1515  0.2653
  311MOL0     C42782   9.262   2.001   5.410 -0.2627  0.2526 -0.0019
  311MOL0     O42783   9.138   1.950   5.391 -0.1154  0.0540  0.3772
  311MOL0     C42784   9.133   1.815   5.360  0.3913  0.3022 -0.6292
  311MOL0     C42785   9.101   1.714   5.457 -0.5335 -0.7432 -0.4714
  311MOL0     C42786   9.114   1.584   5.433 -0.5083 -0.7175 -0.4926
  311MOL0     C42787   9.139   1.537   5.304  0.4591  0.0674 -0.0111
  311MOL0     O42788   9.150   1.403   5.280  0.5584 -0.2804 -0.1683
  311MOL0     C42789   9.185   1.312   5.393  0.5044 -0.1245 -0.5163
  311MOL0     C42790   9.239   1.190   5.345 -0.8478 -0.1145 -0.1402
  311MOL0     C42791   9.307   1.098   5.443 -0.8110 -0.3830 -0.0280
  311MOL0     C42792   9.350   0.965   5.390 -0.0923 -0.0977  0.2237
  311MOL0     C42793   9.391   0.873   5.514  0.2772  0.3400  0.4507
  311MOL0     C42794   9.524   0.895   5.572  0.8636  0.6559  0.2906
  311MOL0     C42795   9.641   0.835   5.503  0.7760  0.0236  0.4089
  311MOL0     C42796   9.780   0.893   5.518  0.9332  0.2505 -0.9554
  311MOL0     N42797   9.825   0.862   5.657  0.1287 -0.0462 -0.4468
  311MOL0     C42798   9.868   0.739   5.692 -0.8568 -0.4494  0.6236
  311MOL0     C42799   9.888   0.748   5.827 -0.0414 -0.1714  0.2263
  311MOL0     C42800   9.961   0.663   5.924  0.3585  0.3736  0.8854
  311MOL0     C42801   9.895   0.630   6.062  0.1530 -0.6012  0.1054
  311MOL0     C42802   9.981   0.530   6.160 -0.0663 -0.5232 -0.4691
  311MOL0     C42803  10.136   0.545   6.184  0.2682 -0.5935  0.6361
  311MOL0     O42804  10.178   0.680   6.180  0.1791  1.2345  0.7702
  311MOL0     C42805  10.311   0.710   6.178  0.1242  0.1153  0.4819
  311MOL0     C42806  10.344   0.830   6.108  0.1234 -0.0712  0.0154
  311MOL0     C42807  10.479   0.870   6.088  0.9842 -2.1320  0.3749
  311MOL0     C42808  10.504   1.005   6.013  0.7631 -0.4135 -0.4641
  311MOL0     C42809  10.579   0.780   6.136 -0.0749 -0.4986  0.3341
  311MOL0     C42810  10.730   0.784   6.115 -0.1589  0.2476 -0.1454
  311MOL0     O42811  10.801   0.675   6.155 -0.0282  0.7882 -0.1049
  311MOL0     C42812  10.941   0.667   6.131 -0.2624 -0.0946 -0.1046
  311MOL0     C42813  10.987   0.620   6.004  0.0760  0.9033 -0.0708
  311MOL0     C42814  11.129   0.607   5.977  0.4326 -0.3109 -0.0354
  311MOL0     C42815  11.212   0.641   6.080 -0.8066 -0.2326 -0.3449
  311MOL0     O42816  11.347   0.641   6.076 -0.0881 -0.2848  0.7382
  311MOL0     C42817  11.415   0.539   5.998  0.1949  0.1746  0.1117
  311MOL0     C42818  11.566   0.567   6.021  1.1549 -0.0316  0.0814
  311MOL0     C42819  11.658   0.499   5.915  0.1004 -1.0371  0.6648
  311MOL0     C42820  11.657   0.568   5.775  0.5552  1.0222 -0.0883
  311MOL0     C42821  11.773   0.517   5.693 -0.6013 -0.9106  0.3519
  311MOL0     C42822  11.793   0.618   5.578  0.6451  0.1500  0.4729
  311MOL0     C42823  11.902   0.558   5.490 -0.1494 -0.8777  0.3230
  311MOL0     C42824  11.886   0.601   5.344  0.5075  0.5899  0.5131
  311MOL0    Cl42825  12.056   0.608   5.294 -0.6962 -0.5514  0.1012
  311MOL0     C42826  11.159   0.673   6.204 -0.1877 -0.5671 -0.2107
  311MOL0     C42827  11.027   0.682   6.240 -0.3245  0.2715  0.8043
  311MOL0     O42828  10.781   0.883   6.068  0.6013 -0.1846  0.6218
  311MOL0     C42829  10.537   0.659   6.204  0.5343 -0.4801 -0.7231
  311MOL0     C42830  10.409   0.625   6.228  0.6964 -0.6343  0.3353
  311MOL0     N42831   9.836   0.864   5.869 -0.6449  0.0478 -0.4470
  311MOL0     N42832   9.791   0.931   5.771 -0.2283 -0.1709  0.1161
  311MOL0     C42833   9.175   1.627   5.205  0.6583  0.0643 -0.5718
  311MOL0     C42834   9.171   1.769   5.231 -0.1200  0.3975 -0.1576
  311MOL0     C42835   9.289   2.145   5.399 -0.8388  0.2422  0.0890
  311MOL0     C42836   9.411   2.197   5.448 -1.0351 -0.1942  0.1977
  311MOL0     C42837   9.440   2.335   5.460  0.0258  1.5864  0.0404
  311MOL0     C42838   9.344   2.430   5.436  0.2157  0.6861  0.4303
  311MOL0     O42839   9.354   2.567   5.460  0.5690  0.3777  0.7572
  311MOL0     C42840   9.468   2.639   5.491  0.0366 -0.9958  0.6105
  311MOL0     C42841   9.438   2.766   5.573 -0.5318  0.7063  0.3016
  311MOL0     C42842   9.566   2.860   5.581 -0.8005 -0.0196  0.9369
  311MOL0     C42843   9.689   2.823   5.662 -0.4630  0.4112 -0.5085
  311MOL0     C42844   9.646   2.789   5.799 -0.8015  0.6025  0.2656
  311MOL0     C42845   9.610   2.779   5.919 -0.6435 -0.0714 -0.5158
  311MOL0     C42846   9.223   2.375   5.388  0.1515  0.4088  0.6570
  311MOL0     C42847   9.197   2.241   5.361 -1.0575  0.0845  0.5499
  311MOL0     C42848   9.053   2.224   5.320 -0.1445 -0.2752 -0.4131
  311MOL0     H42849   9.075   1.759   5.552  0.0340  1.1984 -1.1856
  311MOL0     H42850   9.094   1.519   5.517 -0.8359  0.1288  0.0937
  311MOL0     H42851   9.094   1.286   5.449 -0.3476 -0.4571 -1.9857
  311MOL0     H42852   9.256   1.349   5.467 -3.3751  2.2260  2.4209
  311MOL0     H42853   9.148   1.139   5.314 -1.7622  1.1488  0.3517
  311MOL0     H42854   9.301   1.209   5.257 -1.2479 -1.4062 -0.7131
  311MOL0     H42855   9.389   1.160   5.482 -4.7873  4.3293  1.9628
  311MOL0     H42856   9.221   1.096   5.511 -1.6639  0.2518 -1.0619
  311MOL0     H42857   9.272   0.920   5.327 -1.6016  1.5109  0.8666
  311MOL0     H42858   9.443   0.970   5.332 -1.6836  3.3167 -2.4064
  311MOL0     H42859   9.377   0.766   5.495  1.9214  0.1626  0.0709
  311MOL0     H42860   9.324   0.899   5.596 -0.9766 -0.6492 -0.2215
  311MOL0     H42861   9.540   1.001   5.592  2.6946  0.2278  1.3688
  311MOL0     H42862   9.514   0.863   5.676 -1.3615 -1.6958 -0.5235
  311MOL0     H42863   9.610   0.843   5.399 -2.2925  1.3531  1.2972
  311MOL0     H42864   9.645   0.727   5.525  3.2075  0.4968  2.7927
  311MOL0     H42865   9.854   0.869   5.442  1.5185 -1.5821  0.1244
  311MOL0     H42866   9.761   1.000   5.524 -1.5062 -0.1256 -0.6739
  311MOL0     H42867   9.910   0.662   5.628 -0.7627  0.8280 -0.9192
  311MOL0     H42868  10.064   0.695   5.942  0.4369  2.1836 -2.0533
  311MOL0     H42869   9.990   0.569   5.876 -0.4608  0.8416 -0.5871
  311MOL0     H42870   9.867   0.718   6.121  1.4697 -1.6126  2.4015
  311MOL0     H42871   9.800   0.583   6.037 -0.0934 -0.8296  1.4015
  311MOL0     H42872   9.929   0.558   6.253 -2.7023 -1.0941 -1.6647
  311MOL0     H42873   9.950   0.426   6.144 -0.3796 -0.5371  0.1720
  311MOL0     H42874  10.164   0.499   6.279  2.4362 -0.2547  0.2099
  311MOL0     H42875  10.181   0.493   6.099 -3.3135  0.1316 -1.9817
  311MOL0     H42876  10.260   0.888   6.071 -0.3837  0.9360  2.5577
  311MOL0     H42877  10.421   1.070   6.040 -1.8193 -3.2786 -1.0195
  311MOL0     H42878  10.503   1.001   5.903 -1.0072  1.2586 -0.5653
  311MOL0     H42879  10.593   1.060   6.046  0.8858 -1.5084  1.1135
  311MOL0     H42880  10.907   0.588   5.939  1.2227  1.1306 -1.6619
  311MOL0     H42881  11.167   0.568   5.884  0.4303  1.0772 -0.6394
  311MOL0     H42882  11.391   0.442   6.041  1.9442 -0.3249  0.0530
  311MOL0     H42883  11.390   0.540   5.892  0.6692 -3.3529 -0.1283
  311MOL0     H42884  11.571   0.676   6.020 -4.5934  0.5347  0.3063
  311MOL0     H42885  11.585   0.521   6.118  1.8529 -1.3108 -0.6376
  311MOL0     H42886  11.632   0.393   5.912 -4.7467 -0.0716 -1.0754
  311MOL0     H42887  11.761   0.521   5.945 -0.2387  1.6943  0.1654
  311MOL0     H42888  11.659   0.675   5.794 -0.3973  0.6917  2.2062
  311MOL0     H42889  11.567   0.541   5.718  0.6264 -1.5577  0.8969
  311MOL0     H42890  11.868   0.515   5.747 -0.7380  3.3816  1.0688
  311MOL0     H42891  11.758   0.418   5.648  2.2340 -0.4460 -1.9651
  311MOL0     H42892  11.821   0.719   5.610 -2.0741  1.5722 -1.2313
  311MOL0     H42893  11.710   0.628   5.507  0.4807  2.1468  0.8901
  311MOL0     H42894  11.909   0.450   5.506  1.2115 -0.7296  0.8175
  311MOL0     H42895  12.002   0.591   5.517  1.2831 -1.1398 -4.0361
  311MOL0     H42896  11.858   0.707   5.332  4.8909  1.9928  0.8083
  311MOL0     H42897  11.840   0.528   5.277  0.5428  2.2498 -1.4486
  311MOL0     H42898  11.233   0.709   6.276  0.3510 -3.3267  0.7521
  311MOL0     H42899  10.990   0.702   6.340  0.4820  3.1868  0.5909
  311MOL0     H42900  10.602   0.584   6.247  3.3894  1.7602 -0.7567
  311MOL0     H42901  10.396   0.529   6.277  2.2457 -1.5944 -1.0025
  311MOL0     H42902   9.222   1.578   5.120  1.8093 -0.6814  0.4536
  311MOL0     H42903   9.214   1.828   5.150 -1.8501  1.5753 -0.2712
  311MOL0     H42904   9.477   2.125   5.494  1.9575  1.5152 -1.1207
  311MOL0     H42905   9.533   2.380   5.493 -0.6445  3.1240 -0.0531
  311MOL0     H42906   9.537   2.576   5.546 -0.3287 -1.5494  0.4381
  311MOL0     H42907   9.499   2.683   5.395 -0.6772 -1.1251  0.3145
  311MOL0     H42908   9.403   2.738   5.673  0.8963  2.0397  1.2163
  311MOL0     H42909   9.357   2.822   5.526  1.6908  2.0206 -2.2522
  311MOL0     H42910   9.608   2.875   5.481  0.9430  0.9216  1.7684
  311MOL0     H42911   9.534   2.959   5.614  0.8391  0.0504  2.5060
  311MOL0     H42912   9.767   2.898   5.676  0.8515 -1.3652  2.5941
  311MOL0     H42913   9.741   2.742   5.610 -0.4098  0.0730  0.0638
  311MOL0     H42914   9.580   2.771   6.022 -1.1609  2.4286 -0.4080
  311MOL0     H42915   9.144   2.441   5.354 -0.3845 -0.4468  0.2103
  311MOL0     H42916   9.030   2.129   5.271 -0.4324 -0.1145 -0.5898
  311MOL0     H42917   8.984   2.231   5.406 -1.3129 -1.6483 -1.1917
  311MOL0     H42918   9.024   2.292   5.240  4.3859 -0.9343 -2.9208
  312MOL0     O42919   0.375   6.391   2.964  0.2790 -0.2861  0.4804
  312MOL0     C42920   0.394   6.313   2.882  0.2778  0.4337 -0.3042
  312MOL0     O42921   0.336   6.183   2.887  0.1358  0.2957 -0.4020
  312MOL0     C42922   0.305   6.141   3.015 -0.8066  0.5827  0.6589
  312MOL0     C42923   0.171   6.109   3.050 -0.6249 -0.7322  1.2062
  312MOL0     C42924   0.138   6.094   3.183  1.0603  0.9344  1.1367
  312MOL0     C42925   0.237   6.087   3.280  0.5244  0.2762  0.6301
  312MOL0     O42926   0.184   6.050   3.404 -0.0036  0.0121  0.1627
  312MOL0     C42927   0.233   6.122   3.521  0.3547 -0.0279 -0.7844
  312MOL0     C42928   0.183   6.067   3.658  0.7333 -0.1046 -0.2687
  312MOL0     C42929   0.291   5.956   3.680  0.5930  0.8293 -0.4855
  312MOL0     C42930   0.253   5.878   3.807 -0.1122 -0.0025  0.4632
  312MOL0     C42931   0.335   5.756   3.818  0.1947  0.1825  0.0365
  312MOL0     C42932   0.281   5.664   3.931 -0.3999  0.4842 -0.4186
  312MOL0     C42933   0.365   5.538   3.958 -0.1625  0.6588 -0.0706
  312MOL0     C42934   0.296   5.458   4.072  0.3908  0.0732 -0.7200
  312MOL0     N42935   0.300   5.521   4.205 -0.0021  0.2100  0.1396
  312MOL0     C42936   0.405   5.561   4.286 -0.4845 -0.5680 -0.5125
  312MOL0     C42937   0.349   5.634   4.390  0.5702 -0.5452 -0.1271
  312MOL0     C42938   0.417   5.697   4.502 -0.9285  1.1265 -0.3969
  312MOL0     C42939   0.345   5.811   4.558 -0.2311  0.2630 -0.4787
  312MOL0     C42940   0.430   5.895   4.652 -0.3480  0.1542 -0.4871
  312MOL0     C42941   0.457   5.820   4.782 -0.8022  0.3277  0.3013
  312MOL0     O42942   0.536   5.697   4.776 -0.3186 -0.2790 -0.4928
  312MOL0     C42943   0.540   5.634   4.905 -0.1279  0.0648  0.1221
  312MOL0     C42944   0.595   5.691   5.017  0.6885  0.1034  0.2903
  312MOL0     C42945   0.607   5.633   5.137 -0.5605  0.1833 -0.5397
  312MOL0     C42946   0.669   5.693   5.260 -0.2652  0.3090 -0.2256
  312MOL0     C42947   0.571   5.495   5.140 -0.1514  0.2473  0.1202
  312MOL0     C42948   0.610   5.410   5.252 -0.1713 -0.3635 -1.2680
  312MOL0     O42949   0.506   5.351   5.320  0.3176  0.5080  0.7277
  312MOL0     C42950   0.529   5.279   5.433  0.2883  0.7409 -0.0138
  312MOL0     C42951   0.527   5.141   5.414  1.1490 -0.0056  0.1280
  312MOL0     C42952   0.533   5.053   5.532 -0.9083  0.5017  0.1745
  312MOL0     C42953   0.545   5.111   5.661 -0.0635 -0.3771 -0.4192
  312MOL0     O42954   0.546   5.036   5.779  1.1905  0.5409  0.7919
  312MOL0     C42955   0.605   4.909   5.782 -0.2202  0.8050  0.1309
  312MOL0     C42956   0.621   4.869   5.928 -0.1223  0.0574 -0.0857
  312MOL0     C42957   0.492   4.827   5.994 -0.2304  0.1503 -0.8376
  312MOL0     C42958   0.538   4.806   6.145  0.2186 -0.3049 -0.5101
  312MOL0     C42959   0.421   4.788   6.238 -0.5483  0.2536 -0.6242
  312MOL0     C42960   0.398   4.643   6.259  0.8986  0.0699  0.5785
  312MOL0     C42961   0.314   4.630   6.387 -0.6187 -0.1719 -1.0605
  312MOL0     C42962   0.277   4.479   6.407  0.2028  0.0352  0.7734
  312MOL0    Cl42963   0.178   4.474   6.548  0.0596  0.3240  0.0042
  312MOL0     C42964   0.561   5.251   5.675 -0.2217 -0.2285 -0.9886
  312MOL0     C42965   0.551   5.331   5.567  0.4058  0.1083 -0.3025
  312MOL0     O42966   0.733   5.387   5.266 -0.3143 -0.3510  0.4200
  312MOL0     C42967   0.521   5.427   5.032 -0.4036 -0.5032  0.1718
  312MOL0     C42968   0.500   5.503   4.917 -1.2105  0.1084 -0.6406
  312MOL0     N42969   0.213   5.628   4.373  1.3425 -0.5835 -0.1616
  312MOL0     N42970   0.184   5.571   4.257 -0.5510  0.1958  0.2208
  312MOL0     C42971   0.372   6.106   3.249  0.3368 -0.0723  0.4634
  312MOL0     C42972   0.402   6.114   3.110  0.3572 -1.3450 -0.5466
  312MOL0     C42973   0.486   6.346   2.769 -0.0445 -0.1542  0.2887
  312MOL0     C42974   0.439   6.290   2.651  0.3121 -0.5677 -0.2021
  312MOL0     C42975   0.501   6.325   2.532 -0.2267 -0.2630  0.4167
  312MOL0     C42976   0.623   6.399   2.522  0.9107  0.5445  0.6278
  312MOL0     O42977   0.684   6.404   2.398 -0.1241  0.4400  0.7948
  312MOL0     C42978   0.777   6.506   2.374 -0.2663 -1.0780  0.1948
  312MOL0     C42979   0.919   6.442   2.393  0.2532 -0.3053 -0.6969
  312MOL0     C42980   1.023   6.544   2.381 -0.7037 -0.4638  0.2053
  312MOL0     C42981   1.160   6.483   2.430 -0.5246 -0.0882  0.6355
  312MOL0     C42982   1.272   6.528   2.340  1.1835  0.2519 -1.1503
  312MOL0     C42983   1.367   6.565   2.271 -1.3166  0.6060  0.3157
  312MOL0     C42984   0.674   6.450   2.640  0.8421 -1.1609  0.2235
  312MOL0     C42985   0.603   6.433   2.760 -0.3070  0.0490 -0.4969
  312MOL0     C42986   0.671   6.476   2.883  0.4909 -1.1254 -0.0163
  312MOL0     H42987   0.096   6.119   2.973  1.8675  2.3408 -1.1084
  312MOL0     H42988   0.034   6.075   3.207  0.0779  2.9244 -1.2194
  312MOL0     H42989   0.187   6.221   3.522 -0.5361 -0.1684 -5.1153
  312MOL0     H42990   0.341   6.134   3.526  0.7744 -3.0331  4.5317
  312MOL0     H42991   0.204   6.136   3.740 -0.7716  0.9852 -0.7655
  312MOL0     H42992   0.084   6.022   3.647  0.8774 -0.0010 -2.6375
  312MOL0     H42993   0.309   5.896   3.591 -0.0743 -1.3109  0.7317
  312MOL0     H42994   0.389   6.003   3.693  1.0827 -0.2098 -0.3063
  312MOL0     H42995   0.281   5.934   3.897 -3.4883 -1.3772  2.5695
  312MOL0     H42996   0.146   5.856   3.802  0.3921 -2.5785 -0.6208
  312MOL0     H42997   0.436   5.783   3.847 -0.8073  1.1396  3.0122
  312MOL0     H42998   0.319   5.699   3.726  2.4408  1.0127 -0.9375
  312MOL0     H42999   0.282   5.724   4.023  1.9287  3.0695 -1.9804
  312MOL0     H43000   0.177   5.645   3.904 -1.0152  2.1824  0.5550
  312MOL0     H43001   0.463   5.578   3.986  0.0975 -2.4304  4.6106
  312MOL0     H43002   0.370   5.482   3.865  3.7924  0.9095 -0.2012
  312MOL0     H43003   0.190   5.445   4.049 -0.4899  1.9932  1.7535
  312MOL0     H43004   0.344   5.362   4.093 -1.3260 -0.4529  1.1520
  312MOL0     H43005   0.510   5.553   4.259 -0.4898 -0.0272 -0.7045
  312MOL0     H43006   0.517   5.736   4.477 -0.9736  0.5568 -1.5167
  312MOL0     H43007   0.434   5.616   4.574 -2.5506  0.6720 -0.4856
  312MOL0     H43008   0.334   5.878   4.473  1.8856 -1.6024 -2.3455
  312MOL0     H43009   0.246   5.799   4.603  0.3169  1.1033  1.0329
  312MOL0     H43010   0.523   5.919   4.600 -0.1120  1.6849  0.5889
  312MOL0     H43011   0.364   5.980   4.675 -3.2633 -1.8779 -0.7124
  312MOL0     H43012   0.513   5.874   4.859  1.9966 -2.6792  0.6039
  312MOL0     H43013   0.363   5.787   4.829 -0.3643 -3.1905 -0.9890
  312MOL0     H43014   0.648   5.786   5.009  2.3518 -0.7117  1.1281
  312MOL0     H43015   0.628   5.636   5.344 -0.4542  1.2949  0.3521
  312MOL0     H43016   0.624   5.790   5.284  0.2182  0.1859  1.2900
  312MOL0     H43017   0.777   5.680   5.272 -0.5580 -4.3848 -0.5891
  312MOL0     H43018   0.509   5.100   5.315  1.5856 -0.2921  0.1660
  312MOL0     H43019   0.526   4.945   5.529  1.3486  0.3359 -3.2419
  312MOL0     H43020   0.553   4.830   5.726  2.0421  0.5701 -1.7672
  312MOL0     H43021   0.709   4.924   5.751  0.8860 -1.8171  2.1475
  312MOL0     H43022   0.687   4.782   5.938 -1.7814 -1.1789  0.5896
  312MOL0     H43023   0.671   4.950   5.980  5.3551 -2.1392 -1.2142
  312MOL0     H43024   0.448   4.735   5.955  0.9129 -0.7572 -0.0548
  312MOL0     H43025   0.426   4.914   5.991  0.5898  0.9598  1.9071
  312MOL0     H43026   0.606   4.885   6.176  1.7660 -0.0648 -4.0202
  312MOL0     H43027   0.589   4.710   6.149 -1.4234 -1.2403 -0.8089
  312MOL0     H43028   0.456   4.835   6.330  2.1088  1.6230 -2.2197
  312MOL0     H43029   0.331   4.838   6.201 -0.9850  0.0207  0.1065
  312MOL0     H43030   0.489   4.586   6.280 -0.0083 -2.9885 -2.7405
  312MOL0     H43031   0.353   4.601   6.169 -1.6673  0.2085  1.7258
  312MOL0     H43032   0.224   4.693   6.382 -0.9809 -0.5443  0.3578
  312MOL0     H43033   0.370   4.666   6.474 -0.9675 -0.1764 -0.8326
  312MOL0     H43034   0.356   4.403   6.406  0.9977  0.8459  0.4628
  312MOL0     H43035   0.212   4.454   6.322  0.2506 -2.0075  1.2681
  312MOL0     H43036   0.580   5.295   5.773 -2.2106 -1.5776  0.0668
  312MOL0     H43037   0.568   5.438   5.572  2.1808 -0.0451 -1.7147
  312MOL0     H43038   0.511   5.319   5.030  1.4336 -0.7124 -1.9729
  312MOL0     H43039   0.473   5.436   4.836  0.2747 -4.5767  2.3525
  312MOL0     H43040   0.458   6.098   3.314  2.1115  1.3508 -1.5522
  312MOL0     H43041   0.509   6.117   3.096  0.5927 -3.9934  0.1359
  312MOL0     H43042   0.353   6.223   2.656 -0.4789  0.4943  1.4487
  312MOL0     H43043   0.458   6.287   2.439 -0.1429 -1.4858  0.8618
  312MOL0     H43044   0.760   6.550   2.276 -0.9531 -1.1990  0.2594
  312MOL0     H43045   0.770   6.587   2.447 -1.5671  1.7556 -2.8332
  312MOL0     H43046   0.935   6.365   2.317 -3.9694 -0.0191 -2.1379
  312MOL0     H43047   0.919   6.400   2.494  0.3357 -1.0351 -0.9930
  312MOL0     H43048   1.038   6.563   2.275 -2.7812 -0.9946 -0.2243
  312MOL0     H43049   0.988   6.634   2.432 -0.7057  0.6260 -1.6582
  312MOL0     H43050   1.160   6.374   2.440 -1.2198 -0.1076  0.5040
  312MOL0     H43051   1.182   6.526   2.529 -3.7073  1.6850  0.7320
  312MOL0     H43052   1.441   6.588   2.197 -1.2663  1.5529  0.6393
  312MOL0     H43053   0.748   6.529   2.634  0.6803 -0.9823  0.5281
  312MOL0     H43054   0.719   6.389   2.929 -1.5416 -1.2294  2.1586
  312MOL0     H43055   0.738   6.560   2.861 -1.3517  0.0841 -1.2660
  312MOL0     H43056   0.588   6.521   2.939  1.1810  0.4084 -0.1586
  313MOL0     O43057   0.429   4.383   9.746  0.2567  0.6682 -0.0092
  313MOL0     C43058   0.477   4.352   9.637  0.3822 -0.1159 -0.1655
  313MOL0     O43059   0.470   4.433   9.529 -0.0349  0.3734  0.3306
  313MOL0     C43060   0.408   4.556   9.525  0.4508 -0.0877 -0.3119
  313MOL0     C43061   0.458   4.649   9.446  0.8111 -0.3960 -0.8086
  313MOL0     C43062   0.391   4.767   9.418 -0.8970  0.0765  0.0720
  313MOL0     C43063   0.288   4.812   9.498  0.7898 -0.0563 -0.7095
  313MOL0     O43064   0.254   4.944   9.491  0.3758  0.3831 -1.0090
  313MOL0     C43065   0.141   4.997   9.567  0.4699  0.5930 -0.2014
  313MOL0     C43066   0.178   5.145   9.584  0.2804 -0.1164 -0.0606
  313MOL0     C43067   0.287   5.162   9.694  0.0527 -0.4653 -0.4984
  313MOL0     C43068   0.337   5.309   9.703  0.3043  0.4409 -0.1329
  313MOL0     C43069   0.451   5.326   9.805 -0.0890 -0.0608 -0.2658
  313MOL0     C43070   0.415   5.315   9.960  0.2489 -0.7473 -0.5188
  313MOL0     C43071   0.528   5.366  10.055 -0.1206  0.1527  0.0786
  313MOL0     C43072   0.658   5.288  10.034  0.6648  0.6107 -0.7390
  313MOL0     N43073   0.646   5.147  10.061 -0.2491 -0.0878 -0.9135
  313MOL0     C43074   0.622   5.067   9.957  0.5169 -0.4676  0.0011
  313MOL0     C43075   0.616   4.946  10.012 -0.9552  0.1461  0.3899
  313MOL0     C43076   0.619   4.818   9.941  0.4056 -0.6202 -0.5367
  313MOL0     C43077   0.492   4.723   9.967 -0.9202  0.5144  0.0752
  313MOL0     C43078   0.372   4.777   9.896  0.3741 -0.1730  0.4608
  313MOL0     C43079   0.248   4.712   9.957  0.2293 -0.2264  0.6551
  313MOL0     O43080   0.133   4.802   9.934 -0.3849 -0.1971 -1.4647
  313MOL0     C43081   0.131   4.926  10.000 -0.8077  0.5755 -0.8369
  313MOL0     C43082   0.039   5.021   9.964  0.3547 -0.1980  0.3643
  313MOL0     C43083   0.045   5.156  10.005  0.6518  0.4612  0.0838
  313MOL0     C43084  -0.024   5.258   9.925  0.3917 -0.5159 -0.1419
  313MOL0     C43085   0.134   5.186  10.111 -0.9286 -0.0390  0.2001
  313MOL0     C43086   0.128   5.316  10.187 -0.9557  0.4337 -0.0627
  313MOL0     O43087   0.236   5.325  10.279 -0.0457 -0.4482  0.6205
  313MOL0     C43088   0.241   5.440  10.356  0.0624  1.3071 -0.3142
  313MOL0     C43089   0.350   5.522  10.357 -0.1938 -0.6955  0.0656
  313MOL0     C43090   0.360   5.624  10.455  0.9236  0.2408  0.9785
  313MOL0     C43091   0.257   5.641  10.546 -0.5943 -0.4371 -0.2779
  313MOL0     O43092   0.271   5.742  10.632 -0.6131  0.3165 -0.5217
  313MOL0     C43093   0.241   5.718  10.770 -0.5871  0.5549  0.1267
  313MOL0     C43094   0.175   5.835  10.835 -0.0165 -0.2885 -0.6033
  313MOL0     C43095   0.264   5.953  10.827  0.3967  0.4191  1.0825
  313MOL0     C43096   0.182   6.081  10.859  0.8870  0.3156  0.0196
  313MOL0     C43097   0.260   6.205  10.838 -0.5926  0.1355  1.2468
  313MOL0     C43098   0.200   6.323  10.896  0.3267  0.1903 -0.1868
  313MOL0     C43099   0.284   6.451  10.918  0.6570  0.5532  0.1978
  313MOL0     C43100   0.215   6.546  11.008 -0.1164  0.6392 -0.3762
  313MOL0    Cl43101   0.243   6.518  11.183  0.2792 -0.0617 -0.4403
  313MOL0     C43102   0.149   5.558  10.539  0.3980 -0.2407 -0.5646
  313MOL0     C43103   0.137   5.464  10.440 -0.1649 -0.1450 -0.3350
  313MOL0     O43104   0.030   5.391  10.176  0.6114  0.5186  0.0508
  313MOL0     C43105   0.216   5.082  10.165 -0.2861  0.3762  0.3552
  313MOL0     C43106   0.224   4.953  10.107  0.3933 -0.0607  0.6969
  313MOL0     N43107   0.621   4.962  10.148 -0.6129 -0.2719  0.6896
  313MOL0     N43108   0.655   5.080  10.187 -0.2692 -0.4055  0.2972
  313MOL0     C43109   0.236   4.722   9.594 -0.4979 -0.7857 -0.1250
  313MOL0     C43110   0.295   4.593   9.603 -0.2816  0.1666  0.0003
  313MOL0     C43111   0.513   4.211   9.611  0.3453  0.7566 -0.7988
  313MOL0     C43112   0.596   4.198   9.501  0.4457 -0.6109 -0.2002
  313MOL0     C43113   0.621   4.070   9.452 -0.0729  0.5706  0.3071
  313MOL0     C43114   0.584   3.950   9.527 -0.0788  0.7861 -0.4343
  313MOL0     O43115   0.630   3.835   9.470  0.3863  0.6593  0.1799
  313MOL0     C43116   0.595   3.702   9.523 -0.7117  0.4594  0.1317
  313MOL0     C43117   0.680   3.665   9.646  0.4498  0.5937 -0.2530
  313MOL0     C43118   0.665   3.528   9.711  0.1695 -0.2836 -0.8324
  313MOL0     C43119   0.806   3.487   9.756 -0.3642  0.1577  0.6014
  313MOL0     C43120   0.810   3.368   9.838 -0.3811 -1.5640 -0.1030
  313MOL0     C43121   0.823   3.273   9.899 -0.3063  0.0922 -0.2800
  313MOL0     C43122   0.505   3.972   9.638  0.0535  0.6340  0.4674
  313MOL0     C43123   0.476   4.098   9.686  0.2024 -0.7181 -0.4095
  313MOL0     C43124   0.402   4.106   9.819 -0.4371  0.4143  0.0098
  313MOL0     H43125   0.547   4.627   9.387  2.1066 -4.3344  2.1532
  313MOL0     H43126   0.436   4.833   9.343  0.1813  0.1988  0.7940
  313MOL0     H43127   0.127   4.957   9.668  2.6994 -1.3761 -0.5696
  313MOL0     H43128   0.052   4.968   9.511  1.6078 -1.4858 -1.0432
  313MOL0     H43129   0.218   5.195   9.495  1.4330 -0.7049  0.1078
  313MOL0     H43130   0.096   5.208   9.620  0.5603  0.0266  0.3333
  313MOL0     H43131   0.241   5.136   9.790  0.6920 -0.8191 -0.2752
  313MOL0     H43132   0.362   5.083   9.677  0.8874  0.5436 -1.6757
  313MOL0     H43133   0.374   5.334   9.604 -2.9929 -0.9551 -1.8926
  313MOL0     H43134   0.256   5.378   9.729  0.3668  0.3432  0.3337
  313MOL0     H43135   0.495   5.424   9.787  0.7277  0.0644  2.1333
  313MOL0     H43136   0.526   5.252   9.776  0.6117 -0.2631  1.9231
  313MOL0     H43137   0.324   5.371   9.985  1.9584  1.3384  1.5258
  313MOL0     H43138   0.393   5.215   9.999  0.9408 -0.8427 -0.3715
  313MOL0     H43139   0.498   5.366  10.160  0.8666 -0.3298  0.3786
  313MOL0     H43140   0.545   5.472  10.033  2.3263 -0.1083  0.3983
  313MOL0     H43141   0.689   5.302   9.929  2.3894  3.4667  0.0354
  313MOL0     H43142   0.731   5.344  10.093 -0.9881  2.0954 -0.0041
  313MOL0     H43143   0.634   5.082   9.850 -1.5305 -3.0572 -0.7110
  313MOL0     H43144   0.711   4.761   9.953  2.0482  2.1582  1.1175
  313MOL0     H43145   0.618   4.846   9.835  1.6652  0.9621 -0.1707
  313MOL0     H43146   0.507   4.622   9.929 -3.2081 -0.0253  0.4217
  313MOL0     H43147   0.484   4.714  10.075  3.5659 -1.0552  0.4747
  313MOL0     H43148   0.365   4.886   9.894 -1.2983 -0.2678 -1.1155
  313MOL0     H43149   0.399   4.745   9.795 -0.4147  0.4285  0.0445
  313MOL0     H43150   0.216   4.620   9.907 -3.1784  1.8939 -1.5316
  313MOL0     H43151   0.274   4.682  10.059  4.0808  1.8909  0.4551
  313MOL0     H43152  -0.035   5.000   9.888 -0.6996  3.5612  0.1570
  313MOL0     H43153  -0.060   5.220   9.828 -2.2588 -1.0058  0.9584
  313MOL0     H43154   0.046   5.342   9.924  2.1616 -1.8654  1.7102
  313MOL0     H43155  -0.117   5.287   9.973  0.9437 -0.1754  0.7370
  313MOL0     H43156   0.429   5.480  10.295  0.7519 -4.4000  3.3039
  313MOL0     H43157   0.445   5.691  10.463  2.9459 -2.0097 -0.4481
  313MOL0     H43158   0.174   5.632  10.781  1.3170 -0.7697  2.1768
  313MOL0     H43159   0.327   5.684  10.828 -1.7123 -1.0362  0.9278
  313MOL0     H43160   0.075   5.855  10.794 -0.5776 -1.7889 -0.0149
  313MOL0     H43161   0.144   5.812  10.937 -0.2689 -0.9831 -0.8344
  313MOL0     H43162   0.295   5.969  10.723  0.3024  2.9774  1.3899
  313MOL0     H43163   0.347   5.941  10.896 -0.3116 -0.8264  1.7510
  313MOL0     H43164   0.143   6.070  10.960 -3.5480  2.2588 -1.2622
  313MOL0     H43165   0.086   6.078  10.806 -0.0268 -2.0134  1.6695
  313MOL0     H43166   0.350   6.203  10.900 -0.7939  0.4924  1.5552
  313MOL0     H43167   0.268   6.223  10.731  0.6740 -1.0261  1.1097
  313MOL0     H43168   0.167   6.275  10.989 -0.7118 -1.7860 -1.4951
  313MOL0     H43169   0.105   6.351  10.849  0.9619  0.7803 -1.1249
  313MOL0     H43170   0.289   6.482  10.814 -1.8244 -0.2664 -0.2390
  313MOL0     H43171   0.388   6.431  10.945  0.9482  1.5476 -0.1388
  313MOL0     H43172   0.107   6.539  10.990 -0.1294  1.5757 -0.7283
  313MOL0     H43173   0.256   6.645  10.986  1.2914 -0.5836 -4.0000
  313MOL0     H43174   0.066   5.571  10.608 -3.0337 -4.4772 -3.3708
  313MOL0     H43175   0.058   5.392  10.455 -3.5655  3.3536  0.0059
  313MOL0     H43176   0.287   5.104  10.244 -1.3768  1.1686  1.1456
  313MOL0     H43177   0.292   4.879  10.149  1.5923  0.7061  0.1518
  313MOL0     H43178   0.148   4.735   9.657  0.7002 -0.1328  1.4870
  313MOL0     H43179   0.256   4.526   9.679  0.5861 -0.4827 -0.1164
  313MOL0     H43180   0.635   4.288   9.456  0.0828  1.2737  2.9601
  313MOL0     H43181   0.695   4.066   9.373 -0.5946 -3.8345 -0.1975
  313MOL0     H43182   0.486   3.703   9.537 -1.0929 -2.8815 -1.4660
  313MOL0     H43183   0.616   3.630   9.443  3.3733  3.8206 -2.2478
  313MOL0     H43184   0.659   3.733   9.729 -3.5213 -0.5508 -0.1320
  313MOL0     H43185   0.782   3.676   9.608 -0.3850  0.5575 -2.5987
  313MOL0     H43186   0.604   3.545   9.800  2.8062  2.4583  0.6358
  313MOL0     H43187   0.619   3.457   9.642 -0.2414 -1.0563  0.1992
  313MOL0     H43188   0.856   3.570   9.806 -1.1232  1.5267 -0.8282
  313MOL0     H43189   0.856   3.464   9.662  1.0727  1.7209  0.9361
  313MOL0     H43190   0.853   3.185   9.951  0.1083 -1.0961 -2.4058
  313MOL0     H43191   0.481   3.878   9.687  2.7546 -0.1960  0.3169
  313MOL0     H43192   0.311   4.166   9.809 -2.0280 -1.5300  1.8376
  313MOL0     H43193   0.373   4.006   9.853 -0.4561  0.7139  0.8920
  313MOL0     H43194   0.464   4.140   9.902 -0.9213 -0.5430  0.7793
  314MOL0     O43195   5.512   6.533  10.227 -0.2391  0.5805 -0.0752
  314MOL0     C43196   5.558   6.498  10.340 -0.1993  0.6504  0.5305
  314MOL0     O43197   5.691   6.488  10.364  0.2075 -0.1478  0.2153
  314MOL0     C43198   5.775   6.561  10.283 -0.5027 -0.2454  0.4868
  314MOL0     C43199   5.823   6.517  10.163 -0.2494 -0.0207 -0.5707
  314MOL0     C43200   5.937   6.580  10.103 -0.0598  0.4604  0.1025
  314MOL0     C43201   5.999   6.697  10.155 -0.0963 -1.6816  0.3241
  314MOL0     O43202   6.103   6.755  10.089 -0.3014  0.1126 -0.4530
  314MOL0     C43203   6.152   6.882  10.128 -0.4919  0.0905  1.1844
  314MOL0     C43204   6.214   6.949  10.004  0.4260 -1.0257  0.4319
  314MOL0     C43205   6.359   6.900   9.980  0.5465  0.6983 -0.0134
  314MOL0     C43206   6.408   6.944   9.842 -0.1093 -0.1208 -0.6557
  314MOL0     C43207   6.558   6.923   9.839 -0.3665  0.0756 -0.2699
  314MOL0     C43208   6.618   6.967   9.706 -1.2539 -1.2608 -0.2863
  314MOL0     C43209   6.767   6.961   9.716 -0.6846  1.2616 -0.5803
  314MOL0     C43210   6.813   6.816   9.693 -0.2372 -0.1754 -0.0210
  314MOL0     N43211   6.947   6.778   9.749  0.0330 -0.3893 -0.7469
  314MOL0     C43212   7.064   6.773   9.681 -0.5086  0.5784 -0.0693
  314MOL0     C43213   7.151   6.724   9.773 -0.1611 -1.0967  0.5542
  314MOL0     C43214   7.280   6.661   9.744 -1.0419 -0.0501 -0.8864
  314MOL0     C43215   7.264   6.517   9.701  0.2763 -0.5960 -0.1161
  314MOL0     C43216   7.404   6.464   9.716 -0.1517  0.4436  0.2272
  314MOL0     C43217   7.417   6.310   9.682  1.2215  0.0313 -0.7220
  314MOL0     O43218   7.290   6.239   9.692 -0.1018  0.0659  0.0344
  314MOL0     C43219   7.275   6.100   9.709  0.6443  0.0695 -0.5444
  314MOL0     C43220   7.147   6.045   9.738 -0.6002  0.6370 -0.3281
  314MOL0     C43221   7.125   5.904   9.743 -0.1806  0.5665 -0.2050
  314MOL0     C43222   6.987   5.849   9.785 -1.4320 -0.1548 -0.4452
  314MOL0     C43223   7.236   5.810   9.723  1.3406  0.3867  0.5200
  314MOL0     C43224   7.214   5.654   9.733  0.1465 -1.3734  0.6157
  314MOL0     O43225   7.093   5.599   9.701  0.2402  0.3863  0.3628
  314MOL0     C43226   7.110   5.470   9.661  0.6621  0.8046 -0.2248
  314MOL0     C43227   7.185   5.434   9.556  0.8523  0.4891 -0.3100
  314MOL0     C43228   7.214   5.307   9.530 -0.0739  0.7443  0.3888
  314MOL0     C43229   7.160   5.204   9.602  0.3120  0.0230 -0.1334
  314MOL0     O43230   7.189   5.070   9.586 -0.2778 -0.2448  0.1065
  314MOL0     C43231   7.321   5.040   9.533  0.3738  1.2393  0.4666
  314MOL0     C43232   7.305   5.003   9.380  0.1388 -0.1521  0.4526
  314MOL0     C43233   7.439   4.984   9.309 -0.3381 -0.4885  0.2267
  314MOL0     C43234   7.507   5.120   9.264  0.4677 -0.5325  0.3951
  314MOL0     C43235   7.648   5.081   9.196 -0.1432  0.5057 -0.2041
  314MOL0     C43236   7.719   5.201   9.149 -0.5675 -0.2188 -0.3985
  314MOL0     C43237   7.648   5.274   9.039 -0.2188  0.2409  0.3676
  314MOL0     C43238   7.702   5.407   9.000 -0.4838 -0.3800  0.0594
  314MOL0    Cl43239   7.872   5.392   8.938 -0.0892  0.0068 -0.1105
  314MOL0     C43240   7.079   5.236   9.710 -0.1497  0.9803  0.3623
  314MOL0     C43241   7.049   5.368   9.739 -0.0508  1.7138 -0.8912
  314MOL0     O43242   7.303   5.597   9.774  0.9171  1.1577 -0.0835
  314MOL0     C43243   7.362   5.867   9.700 -0.6591 -0.0721 -0.3035
  314MOL0     C43244   7.377   6.006   9.703  0.7006 -0.0618 -0.9217
  314MOL0     N43245   7.092   6.722   9.893  0.1302 -0.2140  0.1013
  314MOL0     N43246   6.975   6.767   9.887 -0.3589  0.4845 -0.6431
  314MOL0     C43247   5.941   6.747  10.279  0.3020 -0.1403  0.7677
  314MOL0     C43248   5.830   6.682  10.335 -0.1183 -0.3758  0.5600
  314MOL0     C43249   5.463   6.459  10.444  0.5195 -0.4717 -0.3993
  314MOL0     C43250   5.330   6.434  10.396  0.0260 -0.7085  0.5776
  314MOL0     C43251   5.226   6.399  10.487  0.0029  0.0807 -0.0352
  314MOL0     C43252   5.255   6.375  10.621  0.3417  0.2430  0.0841
  314MOL0     O43253   5.157   6.322  10.698 -0.8902 -0.5948  0.3867
  314MOL0     C43254   5.166   6.307  10.844 -0.2120 -0.2911  0.8511
  314MOL0     C43255   5.273   6.207  10.892 -0.2265 -0.3465 -0.2563
  314MOL0     C43256   5.228   6.152  11.029  0.3914  0.6520 -0.6129
  314MOL0     C43257   5.336   6.147  11.132 -0.6512 -0.1190 -0.3547
  314MOL0     C43258   5.424   6.029  11.103 -0.5597  0.7431 -0.6923
  314MOL0     C43259   5.513   5.943  11.079  1.0417 -0.0350 -0.2331
  314MOL0     C43260   5.387   6.412  10.675  0.4900 -0.4790  0.1035
  314MOL0     C43261   5.483   6.465  10.582  0.3424 -0.0897 -0.4895
  314MOL0     C43262   5.613   6.510  10.638  0.1256  0.0145  0.4370
  314MOL0     H43263   5.770   6.433  10.119  1.2442 -2.0185  1.2796
  314MOL0     H43264   5.970   6.548  10.004 -1.5561  0.5038 -0.4301
  314MOL0     H43265   6.231   6.879  10.204  0.6362 -1.1192  0.0288
  314MOL0     H43266   6.068   6.939  10.168 -2.5428 -1.9788  0.0923
  314MOL0     H43267   6.151   6.932   9.916  0.4459  2.7950 -0.4927
  314MOL0     H43268   6.221   7.057  10.018  2.2556 -1.1527  0.6823
  314MOL0     H43269   6.428   6.931  10.059 -0.0057  1.2355  0.2628
  314MOL0     H43270   6.356   6.792   9.997  1.5262  0.3723 -1.7287
  314MOL0     H43271   6.349   6.892   9.765  1.4940 -0.8440 -1.4428
  314MOL0     H43272   6.397   7.048   9.812  0.2044  0.1393  0.1276
  314MOL0     H43273   6.584   6.822   9.872  4.0110  0.3653 -2.2030
  314MOL0     H43274   6.588   6.993   9.917 -0.8928  0.8143 -0.7214
  314MOL0     H43275   6.571   6.907   9.627 -2.6331  1.1541 -1.4190
  314MOL0     H43276   6.590   7.070   9.681  0.2699 -0.6968  0.2244
  314MOL0     H43277   6.805   6.996   9.812 -1.0432 -3.5726  1.6240
  314MOL0     H43278   6.807   7.012   9.628  2.1519 -1.7338 -1.2081
  314MOL0     H43279   6.750   6.747   9.749 -2.3314  1.5696 -0.0974
  314MOL0     H43280   6.805   6.800   9.585  1.3145 -0.9120 -0.0622
  314MOL0     H43281   7.074   6.766   9.573  0.3477  1.0045 -0.0297
  314MOL0     H43282   7.343   6.657   9.833 -0.9649 -1.4188 -0.9812
  314MOL0     H43283   7.341   6.717   9.673  1.7486 -0.2532  1.2104
  314MOL0     H43284   7.199   6.464   9.771  0.9448 -3.2774 -1.3745
  314MOL0     H43285   7.233   6.524   9.596  1.2681 -0.3756 -0.4026
  314MOL0     H43286   7.475   6.528   9.664  0.4209 -0.5981 -0.3198
  314MOL0     H43287   7.434   6.467   9.821  3.9329 -0.3193 -0.7369
  314MOL0     H43288   7.459   6.298   9.582  1.9758  0.5073 -0.4710
  314MOL0     H43289   7.487   6.266   9.753  0.9226  0.7266  0.0221
  314MOL0     H43290   7.063   6.112   9.752 -1.8919 -0.8978 -0.4006
  314MOL0     H43291   6.981   5.768   9.858  3.4410  0.6896  1.2510
  314MOL0     H43292   6.945   5.815   9.690  0.0799 -1.7486 -0.5979
  314MOL0     H43293   6.942   5.941   9.823  0.1061  0.8534 -0.9663
  314MOL0     H43294   7.238   5.506   9.496  0.3183 -1.3126 -3.1108
  314MOL0     H43295   7.298   5.283   9.465 -0.4427  0.6676 -0.0641
  314MOL0     H43296   7.400   5.110   9.562 -0.6768  2.8565 -0.4129
  314MOL0     H43297   7.331   4.946   9.588  3.3250 -1.3835 -3.9503
  314MOL0     H43298   7.262   4.905   9.359  1.2648 -0.3026 -1.3122
  314MOL0     H43299   7.244   5.080   9.332 -1.2352 -1.1879  0.4795
  314MOL0     H43300   7.418   4.933   9.215  2.6778  1.0357 -1.4160
  314MOL0     H43301   7.510   4.932   9.375 -1.1987  0.1376  1.7149
  314MOL0     H43302   7.515   5.195   9.343 -0.4398 -0.0774  0.0649
  314MOL0     H43303   7.433   5.165   9.198 -2.8138 -0.8171  3.5850
  314MOL0     H43304   7.711   5.019   9.261 -1.9050 -0.2470  0.8598
  314MOL0     H43305   7.630   5.020   9.107 -2.0176  3.3863 -1.9730
  314MOL0     H43306   7.814   5.168   9.107  0.3307  2.2390 -0.4225
  314MOL0     H43307   7.731   5.273   9.230 -3.8344 -0.6471  0.6060
  314MOL0     H43308   7.543   5.291   9.062 -0.4463 -3.1424  2.5870
  314MOL0     H43309   7.660   5.208   8.953 -2.6114  1.1084 -0.7145
  314MOL0     H43310   7.696   5.478   9.083 -0.2156  1.3087 -1.3040
  314MOL0     H43311   7.628   5.444   8.928 -3.7020  3.0470  4.5633
  314MOL0     H43312   7.038   5.164   9.781 -2.8898  1.8293 -0.2192
  314MOL0     H43313   7.012   5.401   9.835 -1.1399  1.8744 -1.3503
  314MOL0     H43314   7.446   5.799   9.690 -1.1237 -0.3032 -3.3377
  314MOL0     H43315   7.477   6.047   9.693  0.7727  0.3814  1.2444
  314MOL0     H43316   5.996   6.823  10.334  0.2262 -0.9368  1.9764
  314MOL0     H43317   5.785   6.725  10.424  2.1033  1.8081  0.7340
  314MOL0     H43318   5.289   6.432  10.296 -0.8915  0.2315  0.9131
  314MOL0     H43319   5.122   6.389  10.458  0.0743 -3.3579  0.5552
  314MOL0     H43320   5.181   6.399  10.900  0.9227 -0.7445  1.3416
  314MOL0     H43321   5.071   6.265  10.877  1.7581 -3.3126  3.2346
  314MOL0     H43322   5.375   6.238  10.913 -0.6929  0.2859  1.2736
  314MOL0     H43323   5.277   6.128  10.817  1.7808  0.9723 -1.6207
  314MOL0     H43324   5.147   6.209  11.076  2.0580  0.8773  2.2211
  314MOL0     H43325   5.188   6.053  11.006 -1.1147  1.0596  0.1264
  314MOL0     H43326   5.293   6.130  11.232  2.0020  2.0559  1.2892
  314MOL0     H43327   5.389   6.239  11.156 -1.7136  0.0783  1.4979
  314MOL0     H43328   5.593   5.882  11.042  2.2471  0.6846  1.0797
  314MOL0     H43329   5.408   6.428  10.780  4.0558  0.4494 -0.6539
  314MOL0     H43330   5.682   6.428  10.617 -0.8422 -1.3651  2.2928
  314MOL0     H43331   5.648   6.601  10.589 -1.3120 -0.1696 -1.0101
  314MOL0     H43332   5.608   6.522  10.747  2.9196  3.4183  0.3862
  315MOL0     O43333   7.962   1.990   4.874 -0.5849 -0.0930 -0.3111
  315MOL0     C43334   8.055   1.910   4.908  0.1177 -0.1992 -0.6974
  315MOL0     O43335   8.065   1.785   4.859  0.1967  0.2943  0.3557
  315MOL0     C43336   7.979   1.743   4.760 -0.0005  0.0253  0.0029
  315MOL0     C43337   7.833   1.769   4.760 -0.7498 -0.6817 -0.3121
  315MOL0     C43338   7.764   1.725   4.647 -0.2084  0.5499 -0.1932
  315MOL0     C43339   7.824   1.657   4.535  0.5056 -0.3125 -0.4270
  315MOL0     O43340   7.733   1.624   4.444 -0.1599  0.4943  0.7157
  315MOL0     C43341   7.725   1.493   4.390  0.0952 -0.0612 -0.0558
  315MOL0     C43342   7.595   1.477   4.311 -0.5715 -0.2475  0.2662
  315MOL0     C43343   7.594   1.352   4.223 -0.3577  0.3065 -0.4283
  315MOL0     C43344   7.562   1.378   4.078  0.0345 -0.8080  0.0025
  315MOL0     C43345   7.600   1.253   3.999 -0.0318 -1.2641  0.1465
  315MOL0     C43346   7.597   1.295   3.855  0.1659  0.0033  0.1583
  315MOL0     C43347   7.649   1.189   3.754 -0.4052  0.5819 -0.6126
  315MOL0     C43348   7.584   1.169   3.615  0.1873  0.7291  0.6899
  315MOL0     N43349   7.444   1.161   3.603 -0.1559 -0.4061  0.1797
  315MOL0     C43350   7.373   1.226   3.510 -0.8941 -0.4401 -0.0576
  315MOL0     C43351   7.245   1.212   3.535  0.7363 -0.2271  0.3887
  315MOL0     C43352   7.134   1.295   3.472  0.2747  0.2070  0.2119
  315MOL0     C43353   7.056   1.371   3.585 -0.3437 -0.3027  0.6945
  315MOL0     C43354   7.112   1.514   3.621 -0.4875  1.4127  0.5464
  315MOL0     C43355   7.233   1.496   3.723 -0.2658  0.3555 -0.0815
  315MOL0     O43356   7.311   1.621   3.730  0.4400 -0.0922  0.1244
  315MOL0     C43357   7.380   1.645   3.617  0.0730  0.0727  0.4038
  315MOL0     C43358   7.361   1.777   3.560  0.3309  0.1716  0.0738
  315MOL0     C43359   7.413   1.814   3.440  0.6777 -0.2044 -0.2544
  315MOL0     C43360   7.391   1.959   3.407 -0.7792  0.2898  0.1404
  315MOL0     C43361   7.488   1.723   3.364 -1.0979  0.4650  0.3699
  315MOL0     C43362   7.555   1.767   3.241  0.1786  0.7564 -1.0450
  315MOL0     O43363   7.578   1.896   3.198  0.1132  0.0399 -0.5636
  315MOL0     C43364   7.625   1.904   3.074 -0.2535  0.0574 -0.3822
  315MOL0     C43365   7.756   1.891   3.046 -0.3910  0.6778 -0.2371
  315MOL0     C43366   7.799   1.921   2.918  0.6311 -0.3142 -0.1365
  315MOL0     C43367   7.711   1.958   2.814  0.1625  0.5288 -0.8551
  315MOL0     O43368   7.760   1.983   2.689 -0.0828  1.3335 -0.1956
  315MOL0     C43369   7.895   1.956   2.654 -0.3610 -0.7360 -0.1179
  315MOL0     C43370   7.899   2.011   2.511 -0.2309 -0.4201  0.4665
  315MOL0     C43371   8.045   2.028   2.452 -0.1111  0.1176  0.5037
  315MOL0     C43372   8.096   1.899   2.383 -0.5318 -0.2228 -0.7696
  315MOL0     C43373   8.246   1.905   2.352 -0.2275 -0.4874  0.0283
  315MOL0     C43374   8.303   1.778   2.296 -0.5344  0.4562  0.6831
  315MOL0     C43375   8.459   1.777   2.304  0.0991 -0.4528  0.1373
  315MOL0     C43376   8.519   1.640   2.297 -0.3099 -1.4671 -0.0062
  315MOL0    Cl43377   8.461   1.548   2.446  0.3394  0.4556 -0.4400
  315MOL0     C43378   7.574   1.975   2.848 -0.1141 -0.0583 -0.1110
  315MOL0     C43379   7.528   1.958   2.984  0.5342  1.5472  0.7232
  315MOL0     O43380   7.590   1.663   3.179  0.1174  0.1270  0.1426
  315MOL0     C43381   7.511   1.590   3.415  1.5450 -0.6165  0.0357
  315MOL0     C43382   7.452   1.555   3.537 -0.0086 -0.5135 -0.5665
  315MOL0     N43383   7.233   1.146   3.654  0.3900  0.1960  0.0355
  315MOL0     N43384   7.353   1.106   3.695 -0.5549 -0.4681  0.1897
  315MOL0     C43385   7.958   1.629   4.547  0.3353  1.0159  0.2362
  315MOL0     C43386   8.036   1.663   4.660  0.9393 -0.2840 -0.0324
  315MOL0     C43387   8.156   1.952   5.011 -0.4370  0.6204 -0.1409
  315MOL0     C43388   8.256   1.855   5.053  0.8946  0.1222 -0.2759
  315MOL0     C43389   8.354   1.890   5.142  0.6144  0.8327 -0.5145
  315MOL0     C43390   8.362   2.018   5.197  0.1309 -0.3214  0.2110
  315MOL0     O43391   8.476   2.070   5.272  1.0670  0.3802 -0.1429
  315MOL0     C43392   8.598   1.994   5.292  1.1239 -0.2519  0.4290
  315MOL0     C43393   8.731   2.065   5.255  0.3064  0.0330 -0.4551
  315MOL0     C43394   8.740   2.089   5.106 -0.8522  0.1772 -0.3020
  315MOL0     C43395   8.735   1.955   5.028 -0.2666  1.0247 -0.6626
  315MOL0     C43396   8.756   1.983   4.889 -0.1125  0.0746 -0.9184
  315MOL0     C43397   8.784   2.012   4.781 -0.1445 -0.4257  0.1489
  315MOL0     C43398   8.269   2.114   5.158 -0.1064 -0.3030  0.6198
  315MOL0     C43399   8.160   2.082   5.071 -0.2730 -0.3979  0.4925
  315MOL0     C43400   8.067   2.204   5.041 -0.3979  0.0691  0.9612
  315MOL0     H43401   7.787   1.821   4.843  1.3204  0.8476 -0.0519
  315MOL0     H43402   7.657   1.744   4.640  0.3577  3.9561 -1.0454
  315MOL0     H43403   7.720   1.417   4.468  1.3198  0.0324  0.1255
  315MOL0     H43404   7.814   1.471   4.330 -1.7321 -3.4632 -1.8887
  315MOL0     H43405   7.501   1.481   4.368 -1.3459  1.6022 -1.0507
  315MOL0     H43406   7.595   1.564   4.245 -3.2238  0.1208  0.6464
  315MOL0     H43407   7.684   1.293   4.244 -1.4575  0.0643  4.9161
  315MOL0     H43408   7.520   1.282   4.263 -0.3223  0.7178  0.3770
  315MOL0     H43409   7.454   1.394   4.065 -0.3807 -2.2347  1.3367
  315MOL0     H43410   7.616   1.468   4.048 -0.0848 -0.1441  1.6540
  315MOL0     H43411   7.525   1.178   4.026 -2.3738  0.4491 -1.1693
  315MOL0     H43412   7.701   1.215   4.017 -1.1179 -4.6469 -0.1750
  315MOL0     H43413   7.496   1.331   3.835  0.0071 -0.1443  0.6864
  315MOL0     H43414   7.671   1.373   3.834 -0.2847  0.0543 -1.4115
  315MOL0     H43415   7.655   1.089   3.799 -0.2036  0.2333 -1.3970
  315MOL0     H43416   7.755   1.203   3.734 -1.1521  2.1274 -4.3077
  315MOL0     H43417   7.620   1.241   3.541  3.0230 -2.2637 -1.1387
  315MOL0     H43418   7.617   1.069   3.585 -0.0602  1.2698 -1.5257
  315MOL0     H43419   7.409   1.287   3.428 -0.4495 -1.3531 -0.5567
  315MOL0     H43420   7.070   1.227   3.415 -1.4646  0.5692  1.6206
  315MOL0     H43421   7.188   1.363   3.406  3.6396 -1.4822  1.0363
  315MOL0     H43422   6.950   1.386   3.564  0.7153  4.1475 -3.0389
  315MOL0     H43423   7.052   1.308   3.675  0.6354 -0.5457  0.5804
  315MOL0     H43424   7.118   1.568   3.526 -0.7748 -0.7029 -0.7434
  315MOL0     H43425   7.034   1.567   3.675 -1.4888 -0.1648  0.6992
  315MOL0     H43426   7.188   1.479   3.821 -0.7873 -4.0302 -0.8840
  315MOL0     H43427   7.288   1.404   3.706  0.3234  0.2478  2.1197
  315MOL0     H43428   7.312   1.853   3.620  0.9726 -1.1017  2.3569
  315MOL0     H43429   7.306   1.998   3.465  0.0410  2.5060 -0.0517
  315MOL0     H43430   7.352   1.959   3.305 -0.6446  4.3698 -0.0569
  315MOL0     H43431   7.484   2.016   3.412 -1.4106  1.8637 -3.1905
  315MOL0     H43432   7.827   1.847   3.115  0.3398  0.3960 -1.1567
  315MOL0     H43433   7.904   1.904   2.895  0.9791  3.0216 -1.5770
  315MOL0     H43434   7.968   2.013   2.711  0.9546 -0.5637 -1.8746
  315MOL0     H43435   7.911   1.848   2.655 -0.3668 -0.7372  1.2484
  315MOL0     H43436   7.841   1.947   2.444  0.4074 -0.1520 -0.3520
  315MOL0     H43437   7.846   2.106   2.520  0.1137 -0.0797 -0.9249
  315MOL0     H43438   8.117   2.069   2.524  2.1005  2.7209 -2.8945
  315MOL0     H43439   8.058   2.098   2.369  1.9922 -3.0840 -2.1676
  315MOL0     H43440   8.039   1.892   2.290 -0.1905  0.0777 -1.0001
  315MOL0     H43441   8.060   1.820   2.450 -5.2798 -0.4427 -3.2071
  315MOL0     H43442   8.260   1.990   2.285  1.1877 -0.2136  0.6484
  315MOL0     H43443   8.300   1.942   2.439 -2.4470  1.5735  0.6439
  315MOL0     H43444   8.291   1.774   2.188  0.9277 -1.7245  0.5290
  315MOL0     H43445   8.257   1.692   2.346 -0.0323 -0.4678 -0.3946
  315MOL0     H43446   8.479   1.822   2.402 -2.5257 -0.6720  0.8717
  315MOL0     H43447   8.496   1.846   2.228 -2.6893  0.6051 -0.4132
  315MOL0     H43448   8.627   1.652   2.287 -0.3150  0.5327  1.7611
  315MOL0     H43449   8.486   1.579   2.212 -0.6125 -1.2226 -0.0649
  315MOL0     H43450   7.517   2.030   2.774 -0.9532  0.7086  1.0755
  315MOL0     H43451   7.429   1.977   3.023  0.3045  2.9404 -0.4308
  315MOL0     H43452   7.556   1.505   3.365  1.3665 -0.7622  0.1238
  315MOL0     H43453   7.476   1.459   3.583 -0.8629 -0.1863  0.6121
  315MOL0     H43454   8.014   1.583   4.466  4.2643  2.2499  1.9876
  315MOL0     H43455   8.138   1.628   4.662  0.4461 -1.7830  0.5629
  315MOL0     H43456   8.262   1.757   5.007 -0.7400  0.0871 -0.4711
  315MOL0     H43457   8.437   1.823   5.162 -0.0632 -0.3178 -1.4142
  315MOL0     H43458   8.596   1.968   5.398 -3.0586  0.2716  0.6341
  315MOL0     H43459   8.601   1.893   5.251  0.3483 -0.2063  0.2423
  315MOL0     H43460   8.819   2.017   5.298  1.2840 -1.9607 -4.2924
  315MOL0     H43461   8.730   2.161   5.307  1.6859  0.5020 -1.2634
  315MOL0     H43462   8.661   2.156   5.071 -1.0155  0.5110  0.6737
  315MOL0     H43463   8.842   2.125   5.091 -0.0573 -2.0029 -0.4841
  315MOL0     H43464   8.641   1.899   5.038  1.0941 -1.5213 -1.1565
  315MOL0     H43465   8.815   1.892   5.068 -2.0441 -1.4045 -0.6508
  315MOL0     H43466   8.807   2.055   4.686  0.4748 -3.0676 -0.9862
  315MOL0     H43467   8.282   2.215   5.198 -0.7491  0.2816 -0.5941
  315MOL0     H43468   8.072   2.275   5.124 -0.8227  0.1407  0.9256
  315MOL0     H43469   8.090   2.257   4.948  2.1677  2.6467  2.8752
  315MOL0     H43470   7.964   2.172   5.022 -1.3727  0.2010  5.0960
  316MOL0     O43471  10.436   1.927   1.192 -0.0851 -0.0714  0.3498
  316MOL0     C43472  10.329   1.950   1.243  0.1216 -0.0733 -0.3016
  316MOL0     O43473  10.218   1.865   1.239 -0.5334 -0.3264  0.2556
  316MOL0     C43474  10.224   1.755   1.157 -0.0672 -0.6677 -0.1699
  316MOL0     C43475  10.134   1.749   1.055 -0.6416 -0.6552  0.7591
  316MOL0     C43476  10.136   1.636   0.968 -0.4589 -0.0061  0.3175
  316MOL0     C43477  10.232   1.539   0.978 -0.8358 -1.3629  0.1134
  316MOL0     O43478  10.245   1.442   0.889 -0.4861  0.4729  1.0137
  316MOL0     C43479  10.258   1.486   0.757  0.3204  0.8932 -0.2603
  316MOL0     C43480  10.384   1.415   0.687  0.5098  0.7559 -0.3902
  316MOL0     C43481  10.380   1.440   0.540 -0.6437  0.4423  0.7827
  316MOL0     C43482  10.505   1.398   0.460 -0.0734  0.8637  0.7235
  316MOL0     C43483  10.629   1.480   0.503 -0.7007  0.1122 -0.7377
  316MOL0     C43484  10.733   1.448   0.402 -0.9956 -0.5942 -0.5239
  316MOL0     C43485  10.867   1.498   0.443  1.4236 -0.1858  0.6387
  316MOL0     C43486  10.895   1.643   0.392  0.0757  0.6379 -0.2526
  316MOL0     N43487  10.818   1.753   0.436 -0.7121 -0.4160 -0.4168
  316MOL0     C43488  10.819   1.798   0.568  0.9624 -0.1798  0.1991
  316MOL0     C43489  10.738   1.910   0.561 -0.5252 -0.5449 -0.3394
  316MOL0     C43490  10.708   2.012   0.668  0.3554 -0.2079  0.4940
  316MOL0     C43491  10.588   1.958   0.745 -0.2746 -0.1479 -0.2501
  316MOL0     C43492  10.449   1.984   0.668  0.6195  0.0182  0.1330
  316MOL0     C43493  10.330   1.935   0.744  0.3690 -0.1195 -0.1863
  316MOL0     O43494  10.212   1.994   0.683 -0.1277 -1.3414 -0.7175
  316MOL0     C43495  10.143   1.946   0.580 -0.3080 -0.1469  1.0635
  316MOL0     C43496  10.191   1.859   0.476  0.1936 -0.6386  0.2763
  316MOL0     C43497  10.107   1.823   0.369  1.1243  0.2632 -0.1872
  316MOL0     C43498  10.187   1.732   0.267  0.8022  0.8529  0.1393
  316MOL0     C43499   9.973   1.870   0.359  0.7221  0.5015  0.9090
  316MOL0     C43500   9.889   1.824   0.243  0.0089  0.3474 -0.2610
  316MOL0     O43501   9.881   1.684   0.226  0.0815  0.7808 -0.7185
  316MOL0     C43502   9.820   1.619   0.124  0.7830 -0.7871 -0.2820
  316MOL0     C43503   9.756   1.504   0.160  0.6554  0.5812  0.3299
  316MOL0     C43504   9.692   1.421   0.067  0.9736 -0.1660  0.0956
  316MOL0     C43505   9.687   1.449  -0.070  1.1331 -0.7323  0.6841
  316MOL0     O43506   9.611   1.369  -0.158  0.4069  0.3200  0.8143
  316MOL0     C43507   9.670   1.343  -0.286  0.0566 -0.1359 -0.2656
  316MOL0     C43508   9.586   1.402  -0.390 -0.8000 -1.1974 -0.1959
  316MOL0     C43509   9.658   1.373  -0.525 -0.7564 -0.9437  1.2504
  316MOL0     C43510   9.578   1.426  -0.652 -0.2255 -1.5208 -0.3275
  316MOL0     C43511   9.578   1.577  -0.666  0.5119  0.2619  0.0928
  316MOL0     C43512   9.714   1.637  -0.687 -0.3823 -1.4174 -0.1551
  316MOL0     C43513   9.696   1.788  -0.685 -0.3213  0.2202 -1.2363
  316MOL0     C43514   9.828   1.864  -0.684  0.1557 -0.3542 -0.8520
  316MOL0    Cl43515   9.899   1.836  -0.524 -0.2522  0.1034  0.2587
  316MOL0     C43516   9.750   1.569  -0.108  0.1620 -0.2848 -0.1877
  316MOL0     C43517   9.809   1.650  -0.015 -0.8848  0.4421 -1.0702
  316MOL0     O43518   9.837   1.912   0.175  0.1538 -0.4223  0.5762
  316MOL0     C43519   9.933   1.966   0.454 -0.5177 -0.2995  0.3436
  316MOL0     C43520  10.011   2.004   0.565 -0.2471  0.5044 -0.4119
  316MOL0     N43521  10.687   1.932   0.439 -1.4043 -0.2165  0.3111
  316MOL0     N43522  10.736   1.834   0.365 -0.1917  0.8594 -0.0902
  316MOL0     C43523  10.313   1.545   1.098 -0.2405  0.1730 -1.0094
  316MOL0     C43524  10.317   1.658   1.180 -0.5941  0.0679  0.2892
  316MOL0     C43525  10.332   2.074   1.322  0.6926  0.0732 -0.3127
  316MOL0     C43526  10.206   2.135   1.356  0.1567  0.4145 -0.2394
  316MOL0     C43527  10.201   2.239   1.442  0.2033  0.3167 -0.6657
  316MOL0     C43528  10.314   2.283   1.516  0.1804 -0.2753 -0.7837
  316MOL0     O43529  10.323   2.369   1.623  0.0594  0.6003 -0.2705
  316MOL0     C43530  10.201   2.433   1.673  0.1585 -1.0128  1.1015
  316MOL0     C43531  10.127   2.361   1.788  0.3985 -0.1014 -0.7465
  316MOL0     C43532  10.202   2.344   1.924 -0.9009  0.1554 -0.1322
  316MOL0     C43533  10.121   2.271   2.026 -0.5158 -0.4664 -0.1993
  316MOL0     C43534  10.007   2.358   2.069 -0.2863 -0.3071  0.2902
  316MOL0     C43535   9.911   2.429   2.099  0.4116  0.3582  0.9238
  316MOL0     C43536  10.429   2.223   1.493  0.6629 -0.4129  0.1022
  316MOL0     C43537  10.444   2.114   1.401  0.6546 -0.2752  0.2687
  316MOL0     C43538  10.587   2.070   1.379 -1.1883  0.1498  0.0435
  316MOL0     H43539  10.049   1.817   1.047  0.2187  0.4059  0.4154
  316MOL0     H43540  10.053   1.625   0.899 -0.5202  0.9284  0.2193
  316MOL0     H43541  10.268   1.593   0.739  0.0087  0.8324 -0.8231
  316MOL0     H43542  10.172   1.451   0.699  0.9467 -0.3778 -0.4747
  316MOL0     H43543  10.477   1.453   0.730  0.3513 -1.2896  2.0274
  316MOL0     H43544  10.367   1.311   0.718 -0.0500  2.0979  4.6656
  316MOL0     H43545  10.301   1.377   0.496 -0.1498  0.7519 -0.5933
  316MOL0     H43546  10.361   1.544   0.514  1.1462  0.4458 -0.7431
  316MOL0     H43547  10.517   1.290   0.474 -1.5047  0.2559 -1.9888
  316MOL0     H43548  10.483   1.413   0.354 -3.8771 -0.7839  1.1296
  316MOL0     H43549  10.656   1.462   0.607  1.5465  1.3433 -1.0451
  316MOL0     H43550  10.593   1.583   0.508 -3.6764 -0.8715  2.1551
  316MOL0     H43551  10.745   1.339   0.396  2.6319 -0.3814  0.6478
  316MOL0     H43552  10.715   1.492   0.303  2.3038  0.9649 -0.5545
  316MOL0     H43553  10.936   1.428   0.394  1.4285 -1.0596  1.8578
  316MOL0     H43554  10.867   1.499   0.552 -1.8428  0.8445  0.7362
  316MOL0     H43555  11.002   1.665   0.406  0.7305 -1.2478 -1.7999
  316MOL0     H43556  10.883   1.640   0.283 -2.6039  0.7713 -0.0299
  316MOL0     H43557  10.865   1.756   0.657  1.3120  0.9233  0.5477
  316MOL0     H43558  10.674   2.104   0.619  1.5593 -0.5471 -1.0681
  316MOL0     H43559  10.794   2.039   0.730  0.0427 -0.3336  0.9835
  316MOL0     H43560  10.592   1.855   0.780  0.8702  0.2702  0.9076
  316MOL0     H43561  10.582   2.019   0.835 -0.9564  0.9158 -0.9845
  316MOL0     H43562  10.425   2.086   0.635 -3.6803 -0.9696 -0.3788
  316MOL0     H43563  10.447   1.923   0.578 -1.2378  0.2433 -0.0245
  316MOL0     H43564  10.319   1.827   0.727 -0.9293  0.2505 -2.0753
  316MOL0     H43565  10.323   1.962   0.850 -2.7864  0.5109 -0.4300
  316MOL0     H43566  10.288   1.813   0.490  1.4641  2.1887  1.6686
  316MOL0     H43567  10.211   1.636   0.315  0.7567  1.5270  1.5666
  316MOL0     H43568  10.272   1.795   0.239  0.8579  1.6247  1.8642
  316MOL0     H43569  10.145   1.727   0.166  2.2253 -2.0487 -0.4062
  316MOL0     H43570   9.741   1.477   0.264  1.6263  2.1706  0.9012
  316MOL0     H43571   9.625   1.339   0.093 -0.7587  1.6146  1.4698
  316MOL0     H43572   9.773   1.378  -0.290  0.1383  0.4732  3.5773
  316MOL0     H43573   9.669   1.236  -0.305  0.6971  0.0163 -1.2252
  316MOL0     H43574   9.480   1.373  -0.386 -0.4669 -2.4141  0.3082
  316MOL0     H43575   9.585   1.508  -0.365 -0.8595 -1.4247  0.8324
  316MOL0     H43576   9.662   1.267  -0.551  0.6444 -0.1985 -2.1292
  316MOL0     H43577   9.757   1.419  -0.517 -0.5197 -1.5865  2.1287
  316MOL0     H43578   9.473   1.394  -0.646 -0.4872 -0.6455 -0.1459
  316MOL0     H43579   9.611   1.369  -0.739 -3.3658 -0.5119 -2.3557
  316MOL0     H43580   9.521   1.621  -0.748  2.3430  1.3491 -0.6558
  316MOL0     H43581   9.530   1.598  -0.570 -1.3295 -2.5149 -0.1230
  316MOL0     H43582   9.746   1.627  -0.792  2.1661  2.4323  0.0258
  316MOL0     H43583   9.797   1.604  -0.624  1.0530  0.6519 -0.8181
  316MOL0     H43584   9.631   1.820  -0.602 -0.0446 -0.4627 -0.7504
  316MOL0     H43585   9.646   1.813  -0.779  0.1102  2.0814 -1.0235
  316MOL0     H43586   9.812   1.970  -0.705  1.8966  0.0497 -0.2963
  316MOL0     H43587   9.901   1.832  -0.759  0.4447 -0.0817 -0.6917
  316MOL0     H43588   9.749   1.597  -0.213 -1.1715  1.7175  0.2915
  316MOL0     H43589   9.848   1.748  -0.039  0.5925  1.9162  5.3415
  316MOL0     H43590   9.840   2.017   0.431 -0.2796  0.7774  1.6086
  316MOL0     H43591   9.979   2.086   0.630  1.3050  1.0618 -0.3084
  316MOL0     H43592  10.385   1.465   1.115  0.7312  0.2551 -4.1097
  316MOL0     H43593  10.394   1.668   1.255 -1.4884  2.2885  1.0024
  316MOL0     H43594  10.110   2.101   1.318  0.0884 -0.1324  0.3876
  316MOL0     H43595  10.105   2.286   1.463 -0.5253 -0.3386 -2.3406
  316MOL0     H43596  10.222   2.532   1.716  3.2880 -0.5769 -1.0866
  316MOL0     H43597  10.131   2.451   1.592  2.2715  2.0290 -0.2404
  316MOL0     H43598  10.104   2.261   1.748  0.0864 -0.6147  0.6579
  316MOL0     H43599  10.029   2.410   1.796 -0.5297 -1.2329 -3.6534
  316MOL0     H43600  10.293   2.288   1.903  0.3690  1.6199  1.2192
  316MOL0     H43601  10.223   2.440   1.972 -3.8499  1.6250 -1.4656
  316MOL0     H43602  10.182   2.250   2.114 -2.3341 -1.7375  0.8174
  316MOL0     H43603  10.084   2.176   1.987  1.3095 -0.5663 -1.8513
  316MOL0     H43604   9.826   2.484   2.134 -0.3908  1.1105 -1.9448
  316MOL0     H43605  10.521   2.276   1.515  0.6450 -0.0015 -0.7474
  316MOL0     H43606  10.663   2.125   1.436 -2.5923  0.9886  1.1669
  316MOL0     H43607  10.594   1.962   1.397 -0.6740  0.0067 -0.9470
  316MOL0     H43608  10.612   2.089   1.275  0.6450  1.8144  0.7178
  317MOL0     O43609   2.526   9.797   3.021 -0.2905 -0.6633  0.2356
  317MOL0     C43610   2.557   9.756   2.909 -0.3019  0.2586  0.2532
  317MOL0     O43611   2.472   9.714   2.809 -0.2217 -0.5383  0.5279
  317MOL0     C43612   2.341   9.696   2.835  0.4584  0.5528 -0.1158
  317MOL0     C43613   2.302   9.568   2.883  0.0767 -0.2428 -0.2744
  317MOL0     C43614   2.164   9.553   2.904  0.0952  0.3755 -0.4484
  317MOL0     C43615   2.072   9.655   2.876  1.2749 -0.5135 -0.8283
  317MOL0     O43616   1.936   9.641   2.892 -0.5977  0.2120  0.5050
  317MOL0     C43617   1.880   9.532   2.960 -1.5669  1.4857 -0.7126
  317MOL0     C43618   1.740   9.573   2.999  0.3811  0.3184 -0.1549
  317MOL0     C43619   1.733   9.681   3.115  0.1218  1.0246  0.7467
  317MOL0     C43620   1.587   9.706   3.145  0.5492  0.3590 -0.7576
  317MOL0     C43621   1.546   9.812   3.249 -0.4985  0.4378 -0.0894
  317MOL0     C43622   1.520   9.936   3.173  0.5757 -0.3085  0.0629
  317MOL0     C43623   1.473  10.055   3.272  0.4954  0.2827  0.3393
  317MOL0     C43624   1.572  10.070   3.389  0.2414 -0.0872  0.0215
  317MOL0     N43625   1.551  10.179   3.482  0.4574 -0.4386 -0.0938
  317MOL0     C43626   1.597  10.174   3.600 -0.4357 -0.4278 -0.2768
  317MOL0     C43627   1.554  10.289   3.655  0.0716 -0.7951  0.1364
  317MOL0     C43628   1.555  10.348   3.796  0.7390  0.3898 -0.0611
  317MOL0     C43629   1.406  10.359   3.847 -0.3547 -0.2089 -0.2257
  317MOL0     C43630   1.366  10.287   3.969 -0.1384  0.2770  0.0584
  317MOL0     C43631   1.340  10.143   3.938 -0.0196 -0.3749  0.0092
  317MOL0     O43632   1.457  10.060   3.968 -0.5452 -0.1960 -0.4066
  317MOL0     C43633   1.471   9.953   3.873 -0.0278 -0.2587  0.4670
  317MOL0     C43634   1.368   9.893   3.795  0.6946  0.5633  0.1287
  317MOL0     C43635   1.390   9.789   3.704 -0.7683  0.6137  0.1600
  317MOL0     C43636   1.271   9.750   3.608  0.7187 -0.8602 -0.9575
  317MOL0     C43637   1.526   9.738   3.696 -0.7346 -0.4032  0.6176
  317MOL0     C43638   1.567   9.634   3.599  0.1484 -0.4276  0.3286
  317MOL0     O43639   1.694   9.585   3.599  0.6140 -0.4541 -0.3774
  317MOL0     C43640   1.730   9.471   3.528 -0.6033 -0.3851 -0.5440
  317MOL0     C43641   1.659   9.345   3.515 -0.4779  0.2695 -0.2219
  317MOL0     C43642   1.713   9.240   3.439  0.3492  0.0091 -0.7493
  317MOL0     C43643   1.840   9.264   3.372  1.4054 -0.0365 -0.1110
  317MOL0     O43644   1.901   9.188   3.281 -0.1337  0.6005  0.2472
  317MOL0     C43645   1.815   9.114   3.194  0.2343  0.3797  0.4546
  317MOL0     C43646   1.857   9.135   3.046 -0.0729  0.3728  0.6512
  317MOL0     C43647   1.998   9.075   3.021 -1.0590  0.8795  0.4498
  317MOL0     C43648   1.993   8.935   2.952  0.0600  0.2144 -0.3953
  317MOL0     C43649   2.117   8.908   2.869 -0.3771  0.0830 -0.6620
  317MOL0     C43650   2.131   8.755   2.837 -0.1800  0.0116  0.2476
  317MOL0     C43651   2.022   8.700   2.744  0.7489 -0.6954  1.0762
  317MOL0     C43652   2.053   8.573   2.665 -1.1069 -0.6140  0.0938
  317MOL0    Cl43653   2.087   8.442   2.786 -0.7057  0.1551  0.1813
  317MOL0     C43654   1.906   9.384   3.377  1.5979  0.6159 -0.5952
  317MOL0     C43655   1.851   9.480   3.461 -0.6549  0.5591  0.1508
  317MOL0     O43656   1.484   9.609   3.511  0.3898 -0.3548  1.0255
  317MOL0     C43657   1.627   9.797   3.786  0.7296  0.3888  0.3079
  317MOL0     C43658   1.592   9.899   3.872 -0.5999  0.2017 -0.3290
  317MOL0     N43659   1.484  10.366   3.559 -0.0740 -0.3896 -0.1817
  317MOL0     N43660   1.496  10.296   3.445 -0.6944  0.0557  0.0063
  317MOL0     C43661   2.117   9.782   2.829 -0.9106 -0.1263 -0.5749
  317MOL0     C43662   2.259   9.804   2.810 -0.8609  0.2576 -0.4328
  317MOL0     C43663   2.708   9.755   2.879  0.2718  0.3494 -1.0110
  317MOL0     C43664   2.740   9.710   2.751 -0.6222 -0.9399 -0.0584
  317MOL0     C43665   2.872   9.692   2.721 -0.7016  0.6742  0.6776
  317MOL0     C43666   2.975   9.728   2.810 -0.2394  0.1502 -0.0869
  317MOL0     O43667   3.105   9.705   2.768  0.6292 -0.2303 -0.1268
  317MOL0     C43668   3.211   9.764   2.846  0.5463  0.1854  0.2208
  317MOL0     C43669   3.338   9.723   2.773 -0.1921  1.3108 -0.4211
  317MOL0     C43670   3.468   9.719   2.849  0.8355  0.8308 -0.5588
  317MOL0     C43671   3.537   9.854   2.845  0.3076  0.6755 -0.5017
  317MOL0     C43672   3.659   9.841   2.930 -0.3229  0.7417  0.6823
  317MOL0     C43673   3.750   9.842   3.018 -0.2301 -0.0969 -0.2956
  317MOL0     C43674   2.936   9.790   2.923  0.2475 -0.6290  0.4174
  317MOL0     C43675   2.801   9.795   2.968 -0.7082  0.5132  0.0078
  317MOL0     C43676   2.775   9.864   3.097 -0.4952 -0.0215  0.0474
  317MOL0     H43677   2.361   9.478   2.897  2.5396  1.5952  2.2035
  317MOL0     H43678   2.129   9.461   2.949 -2.1783  1.2694 -0.2609
  317MOL0     H43679   1.940   9.515   3.050 -1.7805 -0.7021 -0.9181
  317MOL0     H43680   1.868   9.439   2.903  0.4152 -0.3457  1.6651
  317MOL0     H43681   1.694   9.607   2.906  4.8433 -0.8875 -3.0875
  317MOL0     H43682   1.697   9.482   3.041  3.8717 -1.5193 -0.2534
  317MOL0     H43683   1.775   9.641   3.207 -0.3969 -3.3405 -0.6794
  317MOL0     H43684   1.789   9.768   3.081  1.4256 -0.5235 -1.3513
  317MOL0     H43685   1.540   9.731   3.049  1.8106  0.7732 -1.2815
  317MOL0     H43686   1.550   9.614   3.191 -0.4516  1.7522  1.3567
  317MOL0     H43687   1.623   9.826   3.325 -0.6750 -1.3889  0.4743
  317MOL0     H43688   1.458   9.780   3.305 -0.5652  0.2265 -0.3145
  317MOL0     H43689   1.611   9.968   3.122 -0.6716  3.7198  0.0069
  317MOL0     H43690   1.444   9.920   3.095  0.0725 -3.2149  1.0206
  317MOL0     H43691   1.378  10.038   3.323  0.0106 -0.7409 -0.8181
  317MOL0     H43692   1.462  10.145   3.211 -1.0133  1.8240  2.7430
  317MOL0     H43693   1.570   9.974   3.441 -0.5597 -0.7365 -1.1366
  317MOL0     H43694   1.671  10.087   3.345  0.9548 -2.9854  0.2818
  317MOL0     H43695   1.648  10.095   3.654 -2.7852  0.1074  3.0872
  317MOL0     H43696   1.597  10.446   3.773 -0.6445  1.1487  0.4891
  317MOL0     H43697   1.629  10.303   3.862 -0.5656  2.2105  2.8380
  317MOL0     H43698   1.391  10.464   3.873 -1.8589 -1.0212  2.5553
  317MOL0     H43699   1.329  10.350   3.770 -1.1457  2.3726  0.1675
  317MOL0     H43700   1.434  10.303   4.053 -0.6525 -1.3510  0.8314
  317MOL0     H43701   1.271  10.331   3.999 -0.1397  0.6880 -0.5332
  317MOL0     H43702   1.251  10.109   3.993  0.0333 -1.1606 -0.3666
  317MOL0     H43703   1.294  10.133   3.839 -0.9039  1.6792  0.1701
  317MOL0     H43704   1.266   9.928   3.800  0.5051 -0.1923  2.5056
  317MOL0     H43705   1.251   9.642   3.609 -0.9974 -0.6709 -3.8291
  317MOL0     H43706   1.304   9.780   3.508 -1.1719  0.2264 -1.2974
  317MOL0     H43707   1.177   9.799   3.635 -0.3749 -3.1714 -0.2178
  317MOL0     H43708   1.562   9.345   3.562 -1.3559  2.2121 -1.8816
  317MOL0     H43709   1.654   9.149   3.430 -3.3575  2.0347  0.7010
  317MOL0     H43710   1.821   9.006   3.205  1.1506 -0.0345 -3.0514
  317MOL0     H43711   1.711   9.143   3.215  0.4639 -0.3067  2.8889
  317MOL0     H43712   1.780   9.092   2.981 -0.7284 -0.4020  1.8981
  317MOL0     H43713   1.847   9.243   3.035 -0.2106  0.2708 -0.3325
  317MOL0     H43714   2.056   9.067   3.113 -2.0996  0.7585  1.1247
  317MOL0     H43715   2.047   9.152   2.962 -3.5914  0.1940 -2.8190
  317MOL0     H43716   1.914   8.941   2.877  1.1902 -3.6460 -2.1454
  317MOL0     H43717   1.971   8.853   3.021  0.4142  0.3554 -0.1163
  317MOL0     H43718   2.108   8.975   2.783 -2.3294  1.3419  0.4500
  317MOL0     H43719   2.200   8.942   2.932 -1.2828  3.9249 -1.2955
  317MOL0     H43720   2.142   8.691   2.925  0.5127 -1.5506 -0.9298
  317MOL0     H43721   2.219   8.756   2.771 -0.8419  1.1639 -0.6701
  317MOL0     H43722   1.993   8.770   2.666  2.1585 -1.9037 -0.5982
  317MOL0     H43723   1.937   8.672   2.807 -0.3146  1.2813  0.6054
  317MOL0     H43724   2.141   8.583   2.601  0.1110  0.7501  1.8684
  317MOL0     H43725   1.977   8.545   2.592 -0.2176  4.7188 -3.4513
  317MOL0     H43726   2.002   9.409   3.332  0.7194 -0.0170 -2.9791
  317MOL0     H43727   1.912   9.570   3.461  1.3502 -0.7197 -1.1620
  317MOL0     H43728   1.728   9.757   3.779  2.0387  3.6021 -0.9686
  317MOL0     H43729   1.675   9.938   3.930 -0.8376  2.3031 -1.3122
  317MOL0     H43730   2.039   9.856   2.809 -1.0287  1.2572  3.8048
  317MOL0     H43731   2.300   9.890   2.759  1.9035 -0.5562  0.2873
  317MOL0     H43732   2.660   9.701   2.679 -0.9523  0.1122  0.1624
  317MOL0     H43733   2.900   9.657   2.622  1.4004 -1.7418  2.0101
  317MOL0     H43734   3.186   9.869   2.859 -3.3081 -0.1060 -2.8267
  317MOL0     H43735   3.224   9.718   2.945  0.6112 -1.0623 -0.3424
  317MOL0     H43736   3.354   9.797   2.694  0.3189  3.2369  1.3619
  317MOL0     H43737   3.315   9.621   2.742  2.1428  1.1263 -1.7467
  317MOL0     H43738   3.444   9.687   2.951  2.1512 -2.1315 -1.0925
  317MOL0     H43739   3.530   9.643   2.802 -0.6642 -1.1244  0.4517
  317MOL0     H43740   3.474   9.924   2.901  0.7290  0.7629 -0.1341
  317MOL0     H43741   3.568   9.901   2.751  1.7763 -0.4480 -0.6109
  317MOL0     H43742   3.821   9.841   3.098  1.2481  3.0366 -1.4389
  317MOL0     H43743   2.996   9.826   3.006 -3.0519  2.0259  1.9119
  317MOL0     H43744   2.727   9.800   3.171 -0.6625 -2.7283 -2.2264
  317MOL0     H43745   2.869   9.898   3.141  2.6493 -3.0301 -3.6800
  317MOL0     H43746   2.715   9.955   3.085 -2.6885 -1.4376 -0.2947
  318MOL0     O43747   3.683   7.757   8.689 -0.0431 -0.2602  0.4227
  318MOL0     C43748   3.641   7.721   8.584 -0.0830 -0.7022 -0.0707
  318MOL0     O43749   3.678   7.759   8.463  0.3710  0.2137  0.0746
  318MOL0     C43750   3.779   7.840   8.441 -0.1684  0.0916  0.1148
  318MOL0     C43751   3.911   7.785   8.443 -1.1132  0.0002 -0.7132
  318MOL0     C43752   4.020   7.862   8.450 -0.2211 -0.4975 -0.3663
  318MOL0     C43753   4.003   8.002   8.440 -0.4206  0.1928 -0.4579
  318MOL0     O43754   4.104   8.096   8.463 -0.4664 -0.7940  0.9424
  318MOL0     C43755   4.229   8.047   8.507 -1.0401 -0.2274 -0.3754
  318MOL0     C43756   4.333   8.156   8.550 -0.1891  0.5201  0.1206
  318MOL0     C43757   4.477   8.116   8.568 -0.9245  0.0092 -1.2376
  318MOL0     C43758   4.556   8.098   8.433  0.0365 -0.7536 -0.6660
  318MOL0     C43759   4.705   8.063   8.450  0.9093  0.8393  1.3241
  318MOL0     C43760   4.759   8.031   8.310  1.1909 -0.1850  1.0002
  318MOL0     C43761   4.859   7.916   8.318 -0.0440 -1.1292 -0.1733
  318MOL0     C43762   4.823   7.775   8.363 -1.0662 -0.2689  0.4201
  318MOL0     N43763   4.714   7.720   8.276  0.0794  0.4174 -0.0153
  318MOL0     C43764   4.710   7.697   8.144 -0.0067  1.7571 -0.2586
  318MOL0     C43765   4.596   7.640   8.119  0.9990 -0.0331 -0.3051
  318MOL0     C43766   4.549   7.581   7.983  0.4018  0.4275 -0.0970
  318MOL0     C43767   4.403   7.512   7.997  0.1284  0.0655 -0.4075
  318MOL0     C43768   4.341   7.513   7.860  1.0560  0.0724 -0.2532
  318MOL0     C43769   4.203   7.456   7.861 -0.4594 -0.7486  0.2304
  318MOL0     O43770   4.184   7.337   7.940 -0.0072 -0.8691  0.3560
  318MOL0     C43771   4.069   7.265   7.929 -0.4801  0.2094 -0.3011
  318MOL0     C43772   4.075   7.148   7.998 -0.0108 -0.5505 -0.0733
  318MOL0     C43773   3.971   7.060   8.017  0.6294  0.1215  0.8979
  318MOL0     C43774   4.004   6.940   8.098 -0.1011 -0.1403  0.5401
  318MOL0     C43775   3.843   7.092   7.958 -0.4811  0.0044 -0.2222
  318MOL0     C43776   3.717   7.012   7.971 -0.5944  0.0146  0.4984
  318MOL0     O43777   3.610   7.052   7.894  0.0535 -0.1445  0.5309
  318MOL0     C43778   3.493   6.976   7.876  0.6625  0.0996 -0.4583
  318MOL0     C43779   3.364   7.038   7.878  0.3330  0.3289  0.3932
  318MOL0     C43780   3.256   6.954   7.862  0.6629 -1.1995  0.0133
  318MOL0     C43781   3.262   6.822   7.838  0.5351  0.1238  0.3103
  318MOL0     O43782   3.144   6.756   7.817  0.1276 -0.9508  0.2377
  318MOL0     C43783   3.054   6.755   7.930  0.2729  0.2874 -0.4066
  318MOL0     C43784   2.932   6.657   7.909 -0.5710  1.3943  0.3995
  318MOL0     C43785   2.816   6.713   7.983 -0.1430 -0.1013 -0.3200
  318MOL0     C43786   2.739   6.809   7.885 -0.2891 -0.3301 -0.8594
  318MOL0     C43787   2.600   6.850   7.949  0.4591 -1.2359  0.7208
  318MOL0     C43788   2.600   6.921   8.086 -0.3819 -0.1532 -0.4219
  318MOL0     C43789   2.465   6.945   8.148 -0.8743 -0.0498 -0.5376
  318MOL0     C43790   2.424   7.091   8.130 -1.6658 -0.5622 -0.9064
  318MOL0    Cl43791   2.400   7.128   7.964 -0.1071  0.3755 -0.2807
  318MOL0     C43792   3.386   6.760   7.825  0.0535  0.7752 -0.3691
  318MOL0     C43793   3.503   6.831   7.851 -0.4606 -0.0483 -0.2715
  318MOL0     O43794   3.723   6.907   8.032  0.1853  0.3140 -0.3878
  318MOL0     C43795   3.836   7.217   7.890  0.9200  0.0086 -0.0646
  318MOL0     C43796   3.948   7.299   7.870 -0.2520  0.1538  0.6806
  318MOL0     N43797   4.517   7.660   8.231 -0.1941  0.0057 -0.4203
  318MOL0     N43798   4.590   7.702   8.330 -0.3734 -0.1652 -0.0118
  318MOL0     C43799   3.875   8.055   8.434  0.1076 -0.5401  0.8104
  318MOL0     C43800   3.758   7.976   8.439 -0.3436  0.9564 -0.0446
  318MOL0     C43801   3.546   7.618   8.601  0.8436  0.0048 -0.4619
  318MOL0     C43802   3.567   7.504   8.523 -1.0869 -0.1798 -0.6261
  318MOL0     C43803   3.492   7.385   8.538  1.0573  0.0657  0.0075
  318MOL0     C43804   3.401   7.378   8.645  0.2059 -0.3530 -0.1757
  318MOL0     O43805   3.329   7.271   8.676 -0.1065 -0.3257 -0.1784
  318MOL0     C43806   3.181   7.280   8.655 -0.0350 -0.0355  0.5841
  318MOL0     C43807   3.125   7.142   8.617  0.2538  0.7287  0.4782
  318MOL0     C43808   3.200   7.088   8.498  0.5179  0.0867 -0.6881
  318MOL0     C43809   3.127   6.983   8.411 -0.2242  0.7905  0.6112
  318MOL0     C43810   3.218   6.962   8.298  0.8684 -0.2462  0.3150
  318MOL0     C43811   3.289   6.941   8.208 -0.9029 -0.4236  0.7039
  318MOL0     C43812   3.367   7.503   8.709 -0.6116  0.6479  0.3703
  318MOL0     C43813   3.438   7.621   8.696  1.1904  0.6621 -0.7339
  318MOL0     C43814   3.388   7.733   8.782 -1.3681 -0.5462  0.5245
  318MOL0     H43815   3.927   7.680   8.466 -0.7328  0.3674  0.8755
  318MOL0     H43816   4.119   7.818   8.460 -0.4621 -0.8409  0.5508
  318MOL0     H43817   4.276   7.986   8.430 -0.8009  2.6725 -2.7293
  318MOL0     H43818   4.213   7.993   8.601 -2.1413  1.3764  0.4185
  318MOL0     H43819   4.337   8.236   8.476  0.4669 -0.2475 -0.6904
  318MOL0     H43820   4.302   8.198   8.646 -2.3304  0.9462 -0.7090
  318MOL0     H43821   4.538   8.188   8.622 -1.7585 -1.6116  2.1865
  318MOL0     H43822   4.489   8.026   8.630  4.1885  1.7022  0.7563
  318MOL0     H43823   4.501   8.017   8.386 -3.2547 -0.1081  1.7130
  318MOL0     H43824   4.540   8.185   8.369 -2.5324 -2.2398 -2.2104
  318MOL0     H43825   4.698   7.970   8.506  0.1094  1.6093  2.5391
  318MOL0     H43826   4.752   8.143   8.507  1.0522  1.0378  0.9337
  318MOL0     H43827   4.676   8.000   8.245  2.3300 -2.1428  0.3824
  318MOL0     H43828   4.789   8.119   8.252 -4.4249  1.1709 -0.5056
  318MOL0     H43829   4.932   7.952   8.391 -1.1856 -1.5350  1.1989
  318MOL0     H43830   4.910   7.914   8.221  0.8396  1.5445  0.1616
  318MOL0     H43831   4.919   7.723   8.351 -0.4120  1.2190 -1.2604
  318MOL0     H43832   4.799   7.774   8.470  2.2562  3.7886  1.4855
  318MOL0     H43833   4.791   7.702   8.071  0.4221 -2.5542 -0.3432
  318MOL0     H43834   4.619   7.501   7.955 -0.5897 -1.0083  1.3417
  318MOL0     H43835   4.555   7.665   7.913  5.3265  2.1018  1.8850
  318MOL0     H43836   4.400   7.409   8.034 -0.2680 -0.1588 -1.0641
  318MOL0     H43837   4.337   7.568   8.065 -0.7190 -0.8895 -0.4239
  318MOL0     H43838   4.333   7.619   7.835  3.7803  0.4970  0.3149
  318MOL0     H43839   4.411   7.455   7.799  1.4912  2.6301 -2.3747
  318MOL0     H43840   4.140   7.538   7.894  0.5244  0.3068 -0.4178
  318MOL0     H43841   4.171   7.430   7.759 -1.1025  2.9737 -0.6525
  318MOL0     H43842   4.173   7.137   8.043  0.5354  0.3676 -0.9967
  318MOL0     H43843   4.110   6.953   8.122  0.5754 -0.0717 -2.1875
  318MOL0     H43844   3.991   6.839   8.056  2.6653 -0.8252  1.1616
  318MOL0     H43845   3.955   6.955   8.195 -2.3068 -4.2131  0.3096
  318MOL0     H43846   3.350   7.145   7.886  1.6524  0.8313 -2.7156
  318MOL0     H43847   3.159   7.001   7.872  0.3947 -1.9213  0.9940
  318MOL0     H43848   3.108   6.715   8.016  1.9246  1.8727 -0.6453
  318MOL0     H43849   3.005   6.851   7.951 -2.9621 -1.6606  1.8307
  318MOL0     H43850   2.909   6.633   7.805  1.0392 -0.6187  0.4472
  318MOL0     H43851   2.964   6.566   7.962 -0.9889  1.4124  0.6854
  318MOL0     H43852   2.850   6.759   8.076 -0.9247 -3.7145  1.9086
  318MOL0     H43853   2.748   6.635   8.019  1.8931 -1.4218  0.8770
  318MOL0     H43854   2.724   6.751   7.793  0.5121 -1.8489 -0.0825
  318MOL0     H43855   2.793   6.902   7.866  0.1577 -0.5311 -0.5876
  318MOL0     H43856   2.553   6.908   7.869  2.9149  0.0656  0.1293
  318MOL0     H43857   2.538   6.760   7.954 -1.8187  0.1483 -0.7458
  318MOL0     H43858   2.656   7.013   8.068  2.0222 -1.6179 -0.9460
  318MOL0     H43859   2.652   6.868   8.167 -2.5250  0.3588  1.3601
  318MOL0     H43860   2.464   6.914   8.253 -0.2440  2.6065  0.3149
  318MOL0     H43861   2.396   6.882   8.091 -0.4974 -3.6402  2.5830
  318MOL0     H43862   2.500   7.153   8.177 -1.5279 -0.9551 -0.6063
  318MOL0     H43863   2.328   7.099   8.183 -0.2679 -0.0473  1.7179
  318MOL0     H43864   3.399   6.658   7.789  1.2449  0.9208 -0.3899
  318MOL0     H43865   3.602   6.786   7.854 -0.0530  0.8649  0.4080
  318MOL0     H43866   3.743   7.242   7.840  0.8644 -2.0031 -1.0654
  318MOL0     H43867   3.940   7.386   7.806  0.5732 -0.5675 -0.4297
  318MOL0     H43868   3.867   8.163   8.441  0.2967 -0.5161  0.6427
  318MOL0     H43869   3.655   8.010   8.445 -1.1328 -1.0441 -1.4095
  318MOL0     H43870   3.650   7.500   8.454 -0.8540  1.1566 -0.4423
  318MOL0     H43871   3.513   7.290   8.490  0.4258 -0.0512 -0.0411
  318MOL0     H43872   3.135   7.322   8.745 -0.3419  3.0676 -0.8851
  318MOL0     H43873   3.156   7.355   8.580  2.8494 -0.4405 -0.9465
  318MOL0     H43874   3.019   7.163   8.597  0.8975  3.3477 -0.7004
  318MOL0     H43875   3.132   7.066   8.696 -0.8606 -2.1529 -1.9863
  318MOL0     H43876   3.236   7.167   8.432  1.3543  0.3237  0.0268
  318MOL0     H43877   3.295   7.048   8.536  0.0561  0.3670  0.8562
  318MOL0     H43878   3.029   7.017   8.378  0.2785  0.7342 -1.0550
  318MOL0     H43879   3.108   6.887   8.460  1.3033  0.3185  0.3358
  318MOL0     H43880   3.370   6.915   8.143  1.4068  0.1716  3.1647
  318MOL0     H43881   3.287   7.513   8.781 -3.4181 -1.0455 -2.2914
  318MOL0     H43882   3.477   7.774   8.830 -0.3036  1.3701 -2.7691
  318MOL0     H43883   3.361   7.807   8.706  1.0490 -3.4882 -3.5808
  318MOL0     H43884   3.309   7.713   8.856 -2.8821 -0.4921 -1.0237
  319MOL0     O43885   6.376   9.504  10.215 -0.2790 -0.4644  0.1933
  319MOL0     C43886   6.294   9.593  10.222 -0.2291  0.0067  0.1397
  319MOL0     O43887   6.160   9.567  10.187 -0.4019  0.2289 -0.4349
  319MOL0     C43888   6.117   9.447  10.136  0.1280  0.3881 -0.3949
  319MOL0     C43889   6.154   9.316  10.183  0.1331 -0.5827  0.5885
  319MOL0     C43890   6.097   9.201  10.123 -0.2389 -0.2112 -0.4061
  319MOL0     C43891   5.971   9.226  10.046  0.0923  0.0486 -0.4294
  319MOL0     O43892   5.893   9.120  10.029  0.1350 -0.5119 -0.3370
  319MOL0     C43893   5.754   9.133   9.996 -0.1945 -0.1874 -0.1672
  319MOL0     C43894   5.692   8.987   9.966 -0.4866  0.5761 -0.5454
  319MOL0     C43895   5.744   8.884  10.071  0.3394 -1.1989  0.6891
  319MOL0     C43896   5.650   8.758  10.077  0.0272 -0.1708 -0.0078
  319MOL0     C43897   5.678   8.681  10.205 -0.2511  0.6066  0.3820
  319MOL0     C43898   5.572   8.582  10.261 -0.1807  0.6567 -0.9177
  319MOL0     C43899   5.523   8.473  10.157  0.4724  0.5163 -0.6316
  319MOL0     C43900   5.625   8.371  10.093  0.3810 -0.1268  0.7047
  319MOL0     N43901   5.700   8.275  10.176 -0.3689  0.2974  0.7118
  319MOL0     C43902   5.783   8.313  10.275 -0.4869  0.0270 -0.4343
  319MOL0     C43903   5.835   8.193  10.322 -0.0128  0.3350 -0.8257
  319MOL0     C43904   5.925   8.154  10.440 -0.4071  0.4556 -0.0946
  319MOL0     C43905   6.062   8.151  10.385 -0.0226 -0.0703 -0.3632
  319MOL0     C43906   6.176   8.110  10.477 -0.2802  0.1078 -0.2505
  319MOL0     C43907   6.303   8.160  10.407 -0.0660  0.0360  0.2550
  319MOL0     O43908   6.407   8.101  10.489 -0.1198 -0.7745 -0.2543
  319MOL0     C43909   6.537   8.131  10.469  0.0946  0.5828  0.7728
  319MOL0     C43910   6.586   8.231  10.387  0.9807 -0.3685  0.3196
  319MOL0     C43911   6.723   8.258  10.386  0.4155  0.5100 -1.1952
  319MOL0     C43912   6.767   8.376  10.295  0.3548  1.3005  0.5636
  319MOL0     C43913   6.816   8.183  10.461 -0.1016  0.4666 -0.1653
  319MOL0     C43914   6.969   8.203  10.461  0.9656  0.0997 -0.7364
  319MOL0     O43915   7.005   8.336  10.450 -0.3912 -0.1337 -0.3715
  319MOL0     C43916   7.133   8.376  10.462  0.8986  0.0047  0.0321
  319MOL0     C43917   7.242   8.307  10.403 -0.3225 -0.0181 -0.5355
  319MOL0     C43918   7.374   8.355  10.417 -0.5565  0.2581  0.0278
  319MOL0     C43919   7.389   8.481  10.491 -0.4577  1.1368 -0.0643
  319MOL0     O43920   7.516   8.523  10.496 -1.1652  0.3963  0.3862
  319MOL0     C43921   7.536   8.667  10.504 -0.1427  0.2909  0.3981
  319MOL0     C43922   7.678   8.713  10.481  0.6225 -0.3087 -0.9359
  319MOL0     C43923   7.749   8.683  10.362  0.8936  0.0514 -0.2805
  319MOL0     C43924   7.902   8.732  10.374  1.0360 -0.1132  1.1085
  319MOL0     C43925   7.989   8.710  10.260  0.1700  0.2827  0.2674
  319MOL0     C43926   8.129   8.771  10.271  0.2550 -0.2937 -1.0234
  319MOL0     C43927   8.201   8.746  10.148 -0.6749 -0.5578 -0.2475
  319MOL0     C43928   8.282   8.866  10.087  0.0234 -0.3163  0.1728
  319MOL0    Cl43929   8.175   9.013  10.079  0.0262  0.0261 -0.4030
  319MOL0     C43930   7.282   8.545  10.543 -0.5414 -0.0836  0.5328
  319MOL0     C43931   7.156   8.492  10.529  0.1630 -0.2254 -1.6025
  319MOL0     O43932   7.043   8.116  10.497  0.3678  0.3105  0.6028
  319MOL0     C43933   6.761   8.087  10.549  0.8096 -0.0958 -0.5404
  319MOL0     C43934   6.622   8.068  10.553  0.0858 -0.0699 -0.1166
  319MOL0     N43935   5.774   8.094  10.250  0.0810  0.0974 -0.3342
  319MOL0     N43936   5.687   8.145  10.169  0.3662  0.4389  0.0956
  319MOL0     C43937   5.939   9.356  10.002  0.4858  0.3102  0.4360
  319MOL0     C43938   6.014   9.461  10.041  0.5372  0.2417 -0.5094
  319MOL0     C43939   6.317   9.731  10.274 -0.0587 -0.6213  0.4312
  319MOL0     C43940   6.208   9.814  10.286 -0.9995  0.8297 -0.0771
  319MOL0     C43941   6.222   9.949  10.325  0.7543  0.6477  0.0604
  319MOL0     C43942   6.351  10.004  10.342  0.8933  0.9788  0.7834
  319MOL0     O43943   6.351  10.133  10.380 -0.0986  0.6459 -0.3945
  319MOL0     C43944   6.460  10.211  10.338 -0.1815 -0.0571  0.5089
  319MOL0     C43945   6.410  10.344  10.272  0.2117  0.2964 -0.4091
  319MOL0     C43946   6.347  10.442  10.384  0.1343 -0.1214  0.2041
  319MOL0     C43947   6.263  10.553  10.330 -0.2210 -0.5473  0.3043
  319MOL0     C43948   6.189  10.622  10.434 -0.7921  0.4101  0.1388
  319MOL0     C43949   6.142  10.685  10.525 -0.0787  0.0286 -0.5447
  319MOL0     C43950   6.464   9.914  10.337  0.2467 -0.1518  0.8062
  319MOL0     C43951   6.447   9.782  10.307 -0.6787 -1.9214  0.3174
  319MOL0     C43952   6.562   9.691  10.312 -0.2229 -0.4195  0.2153
  319MOL0     H43953   6.223   9.299  10.265 -1.6959  1.3024  2.6807
  319MOL0     H43954   6.120   9.099  10.152 -1.6962 -0.4546 -0.0177
  319MOL0     H43955   5.739   9.189   9.903  0.4052  2.3982  1.2054
  319MOL0     H43956   5.690   9.175  10.074 -1.4783  1.4993 -1.9973
  319MOL0     H43957   5.583   8.994   9.960 -0.6559  0.5831  1.7646
  319MOL0     H43958   5.721   8.954   9.866 -3.6267 -0.2397 -1.3091
  319MOL0     H43959   5.839   8.844  10.036  1.1119  0.6009  0.6445
  319MOL0     H43960   5.753   8.933  10.168  0.2802  1.3295 -0.5064
  319MOL0     H43961   5.545   8.787  10.086  0.4804  1.8991 -0.7706
  319MOL0     H43962   5.662   8.691   9.991 -0.1631 -0.1679 -0.0377
  319MOL0     H43963   5.690   8.752  10.288  0.7832 -0.6243  1.3240
  319MOL0     H43964   5.774   8.631  10.188  0.8512  1.4227  3.5670
  319MOL0     H43965   5.603   8.532  10.353  0.6471  1.3383 -0.8139
  319MOL0     H43966   5.488   8.643  10.294  1.8356  2.5908  0.9194
  319MOL0     H43967   5.471   8.517  10.071 -0.0932  1.7178  0.2964
  319MOL0     H43968   5.434   8.420  10.192  0.0949 -0.8474 -3.3907
  319MOL0     H43969   5.566   8.310  10.025 -0.8311 -0.7959  2.2813
  319MOL0     H43970   5.702   8.420  10.033  1.6689 -2.0917  0.6541
  319MOL0     H43971   5.808   8.415  10.299  2.3585 -0.6662 -0.0416
  319MOL0     H43972   5.898   8.050  10.461 -0.1726  0.1741 -1.0948
  319MOL0     H43973   5.921   8.213  10.532  0.2276  2.1279 -1.0914
  319MOL0     H43974   6.063   8.094  10.292  3.1421 -0.3565 -0.2776
  319MOL0     H43975   6.092   8.257  10.381 -2.5200  0.7838  1.2002
  319MOL0     H43976   6.149   8.145  10.577 -1.5639 -1.2690 -0.0612
  319MOL0     H43977   6.185   8.001  10.489 -1.7319  0.0890  1.0559
  319MOL0     H43978   6.314   8.123  10.305  1.8862 -0.1242  0.4973
  319MOL0     H43979   6.309   8.269  10.413 -1.8515  0.0785  3.0568
  319MOL0     H43980   6.523   8.290  10.321  3.3921  1.9116 -0.1148
  319MOL0     H43981   6.803   8.466  10.346  2.3943  0.9058 -0.0936
  319MOL0     H43982   6.679   8.409  10.239  0.3827  0.3866 -0.0309
  319MOL0     H43983   6.846   8.348  10.225  1.4376  0.2810  2.1110
  319MOL0     H43984   7.227   8.228  10.330 -2.5679 -1.2948  1.1883
  319MOL0     H43985   7.452   8.305  10.361  3.3562  3.2793  2.2813
  319MOL0     H43986   7.462   8.702  10.431 -1.6157 -0.6418  1.4012
  319MOL0     H43987   7.495   8.711  10.595 -0.6118 -1.1790  0.9181
  319MOL0     H43988   7.675   8.822  10.488 -1.5748 -0.3714  0.3496
  319MOL0     H43989   7.738   8.674  10.564  1.1887  1.9349 -0.2043
  319MOL0     H43990   7.692   8.733  10.283 -1.9193  1.0770  2.2258
  319MOL0     H43991   7.756   8.575  10.350 -1.0559 -0.1348 -0.0468
  319MOL0     H43992   7.946   8.703  10.469  0.0020 -1.9666  1.0520
  319MOL0     H43993   7.898   8.842  10.377  2.0540 -0.0189 -0.1114
  319MOL0     H43994   8.010   8.603  10.252  2.8771  0.6203  1.8323
  319MOL0     H43995   7.931   8.755  10.179 -1.0478  0.1722  1.0605
  319MOL0     H43996   8.174   8.724  10.359  1.8106 -1.7237 -2.5189
  319MOL0     H43997   8.120   8.877  10.300  2.5731  0.1156 -1.6472
  319MOL0     H43998   8.133   8.707  10.072 -0.9858  3.4343 -2.3200
  319MOL0     H43999   8.265   8.658  10.162 -2.8938 -2.0784  0.9072
  319MOL0     H44000   8.326   8.841   9.990  1.4428  1.3093  0.3491
  319MOL0     H44001   8.354   8.894  10.165 -0.5140  0.7951  0.2934
  319MOL0     H44002   7.287   8.639  10.598  1.6400  0.4993 -0.5757
  319MOL0     H44003   7.076   8.539  10.584  1.3444 -0.2775  0.2621
  319MOL0     H44004   6.828   8.038  10.620  0.8833 -0.1980 -0.6797
  319MOL0     H44005   6.568   8.001  10.619 -2.2400  1.4574 -0.3764
  319MOL0     H44006   5.850   9.369   9.942  1.2025 -0.4000 -0.8242
  319MOL0     H44007   5.995   9.565  10.016  1.2913 -0.5191 -5.1803
  319MOL0     H44008   6.110   9.777  10.259 -0.0405 -0.3779 -2.1588
  319MOL0     H44009   6.123   9.992  10.331 -1.7385 -4.0791 -1.6068
  319MOL0     H44010   6.520  10.251  10.420  0.7182  2.7353 -1.3941
  319MOL0     H44011   6.524  10.158  10.266  1.2054  2.0812  0.0949
  319MOL0     H44012   6.332  10.313  10.202  0.2457 -0.3168 -0.1834
  319MOL0     H44013   6.480  10.404  10.213 -0.8657  0.0660 -2.0035
  319MOL0     H44014   6.267  10.385  10.433 -1.5066  0.2905 -1.8232
  319MOL0     H44015   6.420  10.482  10.455  0.1969 -0.2513  0.2125
  319MOL0     H44016   6.181  10.512  10.271 -1.2348  0.0950  1.2236
  319MOL0     H44017   6.310  10.627  10.265 -1.0196 -0.5660 -0.3110
  319MOL0     H44018   6.110  10.738  10.612  0.7405 -2.2852  1.2585
  319MOL0     H44019   6.562   9.955  10.362  0.3672  0.0105  0.1117
  319MOL0     H44020   6.582   9.647  10.214  3.5216 -5.3270  2.7051
  319MOL0     H44021   6.652   9.742  10.347 -0.4149 -0.0900  0.2322
  319MOL0     H44022   6.518   9.618  10.381 -5.2504  0.6946 -1.3817
  320MOL0     O44023   5.598   2.762   0.323 -0.7277  0.3005 -0.0764
  320MOL0     C44024   5.519   2.791   0.410  0.0201  0.0067 -0.4057
  320MOL0     O44025   5.402   2.843   0.388  0.0225  0.3054 -0.3847
  320MOL0     C44026   5.349   2.863   0.266 -0.7441 -0.2401  0.5765
  320MOL0     C44027   5.323   2.747   0.185  0.2695  0.5235  0.3337
  320MOL0     C44028   5.270   2.758   0.054 -0.6503 -0.5548 -0.2815
  320MOL0     C44029   5.245   2.888   0.000 -1.1430  0.2379 -0.0652
  320MOL0     O44030   5.213   2.880  -0.135 -0.5892 -0.0806 -0.1452
  320MOL0     C44031   5.180   3.003  -0.192  0.7244 -0.8426  0.0288
  320MOL0     C44032   5.122   2.973  -0.338 -1.2820  0.4645  0.1342
  320MOL0     C44033   5.158   3.084  -0.444  1.0652 -0.3634  0.5024
  320MOL0     C44034   5.141   3.047  -0.592 -0.0305 -1.0419 -0.3371
  320MOL0     C44035   5.178   3.163  -0.681 -0.6917  0.0021 -0.4593
  320MOL0     C44036   5.153   3.134  -0.830 -0.8532  0.5148 -0.6013
  320MOL0     C44037   5.217   3.006  -0.877 -0.8483  0.4688 -0.2733
  320MOL0     C44038   5.227   3.000  -1.034 -0.7565  0.1710 -0.6316
  320MOL0     N44039   5.270   2.869  -1.069 -0.3261  0.7419  0.0475
  320MOL0     C44040   5.395   2.806  -1.054  0.8711  0.8082 -0.6723
  320MOL0     C44041   5.378   2.680  -1.098 -0.1620  0.9125 -0.2678
  320MOL0     C44042   5.487   2.577  -1.094  0.9195  1.2334 -0.5634
  320MOL0     C44043   5.436   2.464  -1.003 -0.6903  0.0636  0.4516
  320MOL0     C44044   5.530   2.340  -1.011  1.0026  1.2254 -0.2035
  320MOL0     C44045   5.453   2.227  -0.939 -0.5935 -0.0773 -0.2002
  320MOL0     O44046   5.411   2.278  -0.821  0.5868  0.1069  0.4895
  320MOL0     C44047   5.470   2.233  -0.710  0.2341  0.9493 -0.4983
  320MOL0     C44048   5.388   2.184  -0.610  0.8537 -0.4907 -0.4444
  320MOL0     C44049   5.439   2.113  -0.500  0.1159  0.7400 -0.0014
  320MOL0     C44050   5.334   2.067  -0.394  0.3679 -0.3316 -0.2014
  320MOL0     C44051   5.586   2.094  -0.477  0.0697  0.0886  0.6169
  320MOL0     C44052   5.643   2.021  -0.370  1.0404  0.2126  0.0769
  320MOL0     O44053   5.782   2.014  -0.369  0.3141 -0.4235  0.0869
  320MOL0     C44054   5.860   1.939  -0.282 -0.1021  0.3488 -0.5309
  320MOL0     C44055   5.990   1.988  -0.250  0.5569 -0.0016  0.1519
  320MOL0     C44056   6.058   1.934  -0.142 -0.0127  0.1551  0.6477
  320MOL0     C44057   5.991   1.834  -0.067 -0.5526 -0.1884  0.2835
  320MOL0     O44058   6.054   1.769   0.041  0.0740  0.0423 -0.7428
  320MOL0     C44059   6.184   1.705   0.015  0.0809 -0.4274 -0.7927
  320MOL0     C44060   6.180   1.566   0.084 -0.4803  0.0498  1.3415
  320MOL0     C44061   6.077   1.464   0.030  0.4005  0.5643  0.2925
  320MOL0     C44062   6.042   1.377   0.140  0.9591  0.3559 -0.0269
  320MOL0     C44063   6.013   1.239   0.067  0.7727 -0.5648 -0.4448
  320MOL0     C44064   5.962   1.151   0.185  0.6525  0.8012  0.3864
  320MOL0     C44065   5.929   1.010   0.132  0.3537  0.7170 -0.8554
  320MOL0     C44066   6.040   0.909   0.150 -0.6383  0.9340 -0.0733
  320MOL0    Cl44067   6.061   0.857   0.320  0.1094  0.2974 -0.5812
  320MOL0     C44068   5.867   1.787  -0.095  0.2853  0.4905  0.2537
  320MOL0     C44069   5.803   1.836  -0.202 -0.3377 -1.0089 -0.2886
  320MOL0     O44070   5.573   1.941  -0.307 -0.5835  0.8269 -0.9028
  320MOL0     C44071   5.668   2.152  -0.583  0.6346  0.7526  1.0224
  320MOL0     C44072   5.604   2.207  -0.700  0.6918 -0.5535  0.0072
  320MOL0     N44073   5.247   2.662  -1.134 -0.2409 -0.2200  0.4357
  320MOL0     N44074   5.187   2.773  -1.106  0.0749 -0.0633  0.2566
  320MOL0     C44075   5.262   3.007   0.087 -0.2079  1.2874  0.6663
  320MOL0     C44076   5.321   2.993   0.216  0.9764  0.0700 -0.2655
  320MOL0     C44077   5.551   2.766   0.559 -0.1311 -0.3409  0.1977
  320MOL0     C44078   5.450   2.818   0.649 -0.7230  0.1370  0.0662
  320MOL0     C44079   5.452   2.790   0.785  0.0797  0.1734 -0.7792
  320MOL0     C44080   5.551   2.712   0.842 -0.0184  0.4391  0.0235
  320MOL0     O44081   5.523   2.676   0.972 -0.2345 -0.1784  0.3874
  320MOL0     C44082   5.626   2.718   1.062 -0.6605  0.3840  1.1574
  320MOL0     C44083   5.641   2.641   1.190  0.1999 -1.3409  0.1037
  320MOL0     C44084   5.502   2.621   1.261  0.0487  0.0031  0.3347
  320MOL0     C44085   5.504   2.516   1.363 -0.4119  0.1090  1.6332
  320MOL0     C44086   5.417   2.557   1.466 -0.6161  0.0109 -0.3625
  320MOL0     C44087   5.352   2.597   1.555 -1.1163 -0.5626 -0.6178
  320MOL0     C44088   5.662   2.669   0.760  0.7879 -0.0313  0.1746
  320MOL0     C44089   5.654   2.688   0.613 -0.2749 -0.1962 -0.0895
  320MOL0     C44090   5.758   2.631   0.522 -0.3845  0.1620  0.4888
  320MOL0     H44091   5.338   2.648   0.228  1.2613 -0.4315 -2.0424
  320MOL0     H44092   5.270   2.665  -0.002  4.7254 -2.3336  1.9657
  320MOL0     H44093   5.265   3.072  -0.190  0.5184 -0.6036  0.6620
  320MOL0     H44094   5.100   3.050  -0.134  0.0960 -0.5017 -1.1012
  320MOL0     H44095   5.159   2.878  -0.379  1.6060  1.4153  0.2671
  320MOL0     H44096   5.014   2.965  -0.321 -0.8490 -1.8926  2.4580
  320MOL0     H44097   5.101   3.175  -0.423  2.0041  0.4389 -0.3550
  320MOL0     H44098   5.265   3.104  -0.432  0.6716  1.3094  1.5847
  320MOL0     H44099   5.194   2.954  -0.614  0.3030 -0.2731 -3.1899
  320MOL0     H44100   5.033   3.031  -0.604 -0.6052  2.5236 -1.1587
  320MOL0     H44101   5.284   3.185  -0.670 -0.7172  0.8816 -1.7179
  320MOL0     H44102   5.129   3.254  -0.646 -2.1391 -1.0063  0.2297
  320MOL0     H44103   5.048   3.144  -0.859 -0.5402  1.4150 -1.4727
  320MOL0     H44104   5.203   3.216  -0.883 -2.0342  2.4806  1.1359
  320MOL0     H44105   5.154   2.919  -0.853  1.5925 -1.3531 -0.1553
  320MOL0     H44106   5.321   3.002  -0.843 -1.3124 -3.1749  1.2176
  320MOL0     H44107   5.132   3.023  -1.084 -0.1112  1.1760 -1.4333
  320MOL0     H44108   5.300   3.073  -1.071 -0.9556  0.6177 -0.1660
  320MOL0     H44109   5.482   2.840  -1.000  2.1443 -0.1953 -2.0350
  320MOL0     H44110   5.577   2.621  -1.050  1.5884 -0.6132  0.0115
  320MOL0     H44111   5.501   2.530  -1.191 -0.0562 -1.8871  0.6767
  320MOL0     H44112   5.443   2.495  -0.898  1.3708 -0.6121  0.5637
  320MOL0     H44113   5.334   2.442  -1.037 -0.3573 -0.4029 -0.2612
  320MOL0     H44114   5.560   2.308  -1.110  1.1672 -1.7569  0.7007
  320MOL0     H44115   5.623   2.358  -0.957  1.0324  0.9846 -0.1711
  320MOL0     H44116   5.370   2.188  -0.997 -1.6213 -0.1038  1.2291
  320MOL0     H44117   5.509   2.134  -0.922 -1.7244 -0.7540 -0.0765
  320MOL0     H44118   5.283   2.214  -0.612  0.2411 -2.4946 -0.2272
  320MOL0     H44119   5.341   1.959  -0.383 -1.2758 -0.3537  1.0531
  320MOL0     H44120   5.237   2.105  -0.429  1.0501  0.3490 -1.4258
  320MOL0     H44121   5.356   2.111  -0.297 -0.1541 -0.5088  0.0032
  320MOL0     H44122   6.031   2.072  -0.304 -0.5515 -0.3645 -1.3262
  320MOL0     H44123   6.154   1.979  -0.117 -0.5888  2.6948 -1.3504
  320MOL0     H44124   6.181   1.682  -0.092  1.0720 -1.0550 -0.6945
  320MOL0     H44125   6.269   1.770   0.040 -1.1026  0.1206  2.4084
  320MOL0     H44126   6.282   1.529   0.074  0.4695  2.5694  1.0015
  320MOL0     H44127   6.151   1.587   0.188  1.0686 -0.5614  1.9246
  320MOL0     H44128   6.121   1.415  -0.058  1.4238  0.4806  0.8454
  320MOL0     H44129   5.983   1.517   0.008  0.4360  1.2919  1.7740
  320MOL0     H44130   5.946   1.407   0.183 -0.7105  0.4640 -3.4977
  320MOL0     H44131   6.128   1.366   0.208 -0.0067 -3.1632  0.8604
  320MOL0     H44132   5.942   1.246  -0.015 -0.0396  1.8825  0.3489
  320MOL0     H44133   6.109   1.203   0.029  1.7902  2.2800 -0.8665
  320MOL0     H44134   5.864   1.192   0.213 -0.2571  0.4269 -2.0209
  320MOL0     H44135   6.036   1.150   0.265 -2.1098  0.2741  3.1458
  320MOL0     H44136   5.898   1.011   0.028 -3.1056  0.3150  0.0640
  320MOL0     H44137   5.839   0.971   0.180  2.0728  0.2945  2.3254
  320MOL0     H44138   6.134   0.929   0.097 -0.4198 -0.1835 -0.1372
  320MOL0     H44139   6.000   0.824   0.094 -2.1360 -0.3772  2.7932
  320MOL0     H44140   5.822   1.714  -0.029  3.7074 -1.8448  0.2150
  320MOL0     H44141   5.715   1.778  -0.226 -0.3892  0.0573 -3.0151
  320MOL0     H44142   5.774   2.161  -0.564  0.9374  1.6100 -0.8034
  320MOL0     H44143   5.687   2.226  -0.768  1.6271 -1.7646  0.7746
  320MOL0     H44144   5.245   3.109   0.055 -0.5977  0.7171 -1.0454
  320MOL0     H44145   5.333   3.086   0.271 -0.9083  0.7875 -0.9654
  320MOL0     H44146   5.384   2.895   0.611 -1.7053 -1.8682 -2.7313
  320MOL0     H44147   5.381   2.825   0.859 -1.9153 -3.0135 -0.9715
  320MOL0     H44148   5.722   2.697   1.013 -1.8011  2.2390 -2.2571
  320MOL0     H44149   5.634   2.826   1.076  2.1244  1.1446 -3.7232
  320MOL0     H44150   5.695   2.708   1.258  0.7229 -3.4614  1.9006
  320MOL0     H44151   5.703   2.550   1.188  1.0396 -0.8726  1.9773
  320MOL0     H44152   5.477   2.713   1.314 -1.3236  0.4559 -1.0351
  320MOL0     H44153   5.429   2.601   1.182  0.3740  2.6599 -0.7542
  320MOL0     H44154   5.603   2.524   1.408 -1.0925  0.0181  3.2108
  320MOL0     H44155   5.471   2.422   1.319  1.3709 -0.4853  1.5034
  320MOL0     H44156   5.298   2.625   1.643  0.8250  1.7676 -0.0561
  320MOL0     H44157   5.740   2.598   0.786 -1.3215 -3.1096 -1.2392
  320MOL0     H44158   5.710   2.610   0.426  1.3644 -0.9270 -0.1975
  320MOL0     H44159   5.838   2.705   0.510 -1.2171  0.7967 -1.4894
  320MOL0     H44160   5.804   2.535   0.549 -0.1813  0.2979  0.6262
  321MOL0     O44161   4.941   9.066   7.725  0.0295 -0.3684 -0.5307
  321MOL0     C44162   5.055   9.054   7.684  0.6852  0.2383 -0.1248
  321MOL0     O44163   5.157   9.136   7.707 -0.0744  0.3009 -0.0928
  321MOL0     C44164   5.150   9.220   7.814 -0.6238 -0.2149 -0.2289
  321MOL0     C44165   5.130   9.170   7.942 -0.7558 -0.3660 -0.4555
  321MOL0     C44166   5.142   9.245   8.058  0.1647  0.0825 -0.4520
  321MOL0     C44167   5.191   9.372   8.049 -0.6135 -0.5481 -0.1448
  321MOL0     O44168   5.190   9.452   8.167  0.5307  0.4007 -0.6740
  321MOL0     C44169   5.099   9.563   8.170  0.4214  0.1851 -0.3257
  321MOL0     C44170   5.072   9.628   8.303  0.2717  0.4658  0.4873
  321MOL0     C44171   5.017   9.767   8.294  0.4812 -0.6903 -0.3862
  321MOL0     C44172   4.862   9.781   8.257  0.5009  0.6459 -0.5783
  321MOL0     C44173   4.816   9.926   8.276  0.0556  0.4047  0.8059
  321MOL0     C44174   4.760   9.949   8.417  0.2106 -0.8304 -0.0206
  321MOL0     C44175   4.724  10.102   8.425 -0.5371 -1.5310  0.5610
  321MOL0     C44176   4.691  10.134   8.572 -0.5666 -0.3625  0.1974
  321MOL0     N44177   4.645  10.272   8.593 -0.4987 -0.1190 -0.6740
  321MOL0     C44178   4.524  10.319   8.643 -0.1982  0.1413 -0.2448
  321MOL0     C44179   4.533  10.450   8.631  0.4232 -1.1617 -0.3065
  321MOL0     C44180   4.414  10.536   8.664  0.8976 -0.1087 -0.3445
  321MOL0     C44181   4.461  10.681   8.701  0.8936  0.1117 -0.4143
  321MOL0     C44182   4.353  10.789   8.713 -0.4344  0.2254  0.0407
  321MOL0     C44183   4.267  10.765   8.830 -0.4814  0.4392  0.7834
  321MOL0     O44184   4.185  10.885   8.856 -0.3317  0.6018 -0.3367
  321MOL0     C44185   4.115  10.863   8.967 -0.6569  0.2376 -0.0051
  321MOL0     C44186   4.164  10.914   9.086 -0.0293  0.0205  0.5099
  321MOL0     C44187   4.075  10.916   9.196 -0.9068  0.0461 -0.3125
  321MOL0     C44188   4.117  10.992   9.314 -0.7204 -0.1011 -1.0336
  321MOL0     C44189   3.947  10.855   9.199 -0.3406 -0.0535  1.2027
  321MOL0     C44190   3.847  10.846   9.310 -0.5569  0.1288  0.5927
  321MOL0     O44191   3.734  10.780   9.291 -0.3393 -0.8127 -0.8337
  321MOL0     C44192   3.618  10.821   9.342 -0.6003  0.5374  0.3472
  321MOL0     C44193   3.571  10.949   9.367  0.7026  1.8044  0.7474
  321MOL0     C44194   3.433  10.964   9.420  0.0496 -0.6982  0.2449
  321MOL0     C44195   3.354  10.855   9.447  0.1870  0.7782 -1.0534
  321MOL0     O44196   3.237  10.871   9.501  0.0976 -0.1893  0.3106
  321MOL0     C44197   3.205  10.954   9.611 -0.0364  0.0412 -1.1354
  321MOL0     C44198   3.245  10.894   9.743  1.0695 -0.0943  1.0420
  321MOL0     C44199   3.153  10.775   9.774  0.2083  0.7273  0.5769
  321MOL0     C44200   3.179  10.729   9.919 -0.1040 -0.2735 -0.1144
  321MOL0     C44201   3.080  10.622   9.971 -0.8402 -0.3687 -0.3258
  321MOL0     C44202   3.073  10.499   9.885 -0.0811 -0.3468  0.1453
  321MOL0     C44203   3.017  10.373   9.951  0.2975  0.1406  0.4740
  321MOL0     C44204   2.988  10.261   9.859  0.2912  0.0871 -0.2105
  321MOL0    Cl44205   2.995  10.120   9.960  0.3493  0.1800  1.0516
  321MOL0     C44206   3.413  10.728   9.445 -0.1596  0.4291 -0.5030
  321MOL0     C44207   3.537  10.715   9.390 -0.0956 -0.7216  0.0936
  321MOL0     O44208   3.862  10.916   9.407  0.4386  0.6474 -1.0516
  321MOL0     C44209   3.899  10.800   9.077  0.6914  0.3137  0.9022
  321MOL0     C44210   3.978  10.809   8.960 -0.6309 -0.4959 -0.8115
  321MOL0     N44211   4.660  10.493   8.582  1.0095  0.7571 -0.3510
  321MOL0     N44212   4.716  10.381   8.547 -0.3101  0.1436  0.0322
  321MOL0     C44213   5.208   9.424   7.924 -0.0319 -0.2466 -0.4226
  321MOL0     C44214   5.195   9.352   7.807 -0.7092  0.5295 -0.0958
  321MOL0     C44215   5.086   8.935   7.603  0.1203  0.3016 -0.5947
  321MOL0     C44216   4.982   8.890   7.513  0.1414  0.1840 -0.1891
  321MOL0     C44217   4.990   8.781   7.439 -0.7446  0.4859  0.0599
  321MOL0     C44218   5.109   8.703   7.446  0.6318  0.1006  0.0117
  321MOL0     O44219   5.152   8.606   7.356  0.6317 -0.1392  0.3084
  321MOL0     C44220   5.114   8.628   7.219  0.5005 -0.0469 -1.1664
  321MOL0     C44221   5.232   8.585   7.142 -0.1704  0.8243  0.5333
  321MOL0     C44222   5.261   8.680   7.027 -0.1793  0.0879 -0.1342
  321MOL0     C44223   5.187   8.642   6.895  0.5713 -0.3343 -0.6963
  321MOL0     C44224   5.055   8.698   6.925 -0.2429 -0.3436 -0.7362
  321MOL0     C44225   4.944   8.725   6.956 -0.1268  0.1603 -0.1676
  321MOL0     C44226   5.206   8.734   7.539 -0.2529 -0.1267 -0.0879
  321MOL0     C44227   5.202   8.855   7.616 -1.3347 -0.3630  0.4901
  321MOL0     C44228   5.326   8.892   7.691  0.1370  0.1916  0.6493
  321MOL0     H44229   5.090   9.069   7.952 -1.0217 -0.0916  1.8861
  321MOL0     H44230   5.112   9.206   8.155  0.4967  1.6363  0.3084
  321MOL0     H44231   5.004   9.532   8.125  1.1948 -0.0706 -1.8585
  321MOL0     H44232   5.124   9.646   8.104 -0.9326 -1.7335 -3.4593
  321MOL0     H44233   5.001   9.565   8.357 -1.0409  1.3628 -0.1389
  321MOL0     H44234   5.171   9.632   8.350  1.4424  1.5082 -1.8805
  321MOL0     H44235   5.022   9.808   8.395 -2.5061 -1.4172  0.1529
  321MOL0     H44236   5.083   9.822   8.226 -0.0460 -1.2809 -1.4005
  321MOL0     H44237   4.864   9.753   8.152  1.2581  0.9383 -0.6499
  321MOL0     H44238   4.801   9.708   8.311  0.0293 -0.2790 -2.2906
  321MOL0     H44239   4.745   9.943   8.194 -0.2568 -0.0138  0.9856
  321MOL0     H44240   4.894   9.999   8.250 -1.1933  1.2263 -0.8679
  321MOL0     H44241   4.663   9.899   8.430  0.3998 -0.5689  3.1855
  321MOL0     H44242   4.828   9.930   8.501 -1.0780  2.0180  1.8238
  321MOL0     H44243   4.645  10.130   8.354  0.9168  1.9553  0.1236
  321MOL0     H44244   4.817  10.147   8.391 -1.5514 -0.4833 -0.9481
  321MOL0     H44245   4.609  10.068   8.603 -3.2694  1.2198 -2.9312
  321MOL0     H44246   4.783  10.109   8.625  0.9183  1.7895 -1.2157
  321MOL0     H44247   4.443  10.257   8.681  1.2961 -1.3829  0.5927
  321MOL0     H44248   4.369  10.497   8.755 -1.2008  0.3267 -1.1385
  321MOL0     H44249   4.338  10.524   8.587  1.4994 -1.2528 -0.7823
  321MOL0     H44250   4.533  10.668   8.783  2.0889 -1.3472 -1.6335
  321MOL0     H44251   4.525  10.720   8.622 -0.2345  0.8577 -0.9858
  321MOL0     H44252   4.405  10.884   8.722  1.7305 -0.7401 -1.3505
  321MOL0     H44253   4.293  10.785   8.622  0.4232  1.2885 -0.5991
  321MOL0     H44254   4.203  10.677   8.820 -2.5137  1.9983 -0.6230
  321MOL0     H44255   4.333  10.747   8.916 -2.6779  0.3401  2.5196
  321MOL0     H44256   4.251  10.977   9.072 -0.4233  0.8703  1.7093
  321MOL0     H44257   4.052  11.078   9.334 -0.6751  0.3348 -2.6744
  321MOL0     H44258   4.216  11.036   9.297  0.1690  0.0255  3.3469
  321MOL0     H44259   4.117  10.937   9.409 -1.5652  1.6859  0.0638
  321MOL0     H44260   3.628  11.040   9.347  3.7426  0.8596  3.9977
  321MOL0     H44261   3.394  11.064   9.435 -2.1419 -1.4317 -0.3022
  321MOL0     H44262   3.236  11.059   9.599  0.0792 -0.1793 -3.1849
  321MOL0     H44263   3.096  10.954   9.611 -0.0456 -0.5902 -2.0278
  321MOL0     H44264   3.353  10.876   9.733  0.7875 -0.6672 -2.3247
  321MOL0     H44265   3.236  10.968   9.823 -2.0615 -0.0259  0.7615
  321MOL0     H44266   3.168  10.691   9.706 -1.6244 -0.6697  1.8315
  321MOL0     H44267   3.048  10.803   9.764  0.6224  1.6360 -2.5686
  321MOL0     H44268   3.193  10.802  10.000  1.9417  0.2297 -0.8546
  321MOL0     H44269   3.274  10.675   9.911  1.9122  2.9967 -0.5419
  321MOL0     H44270   3.119  10.590  10.068 -0.4344 -0.5813 -0.5580
  321MOL0     H44271   2.977  10.658   9.985 -0.3533  0.9594 -0.0608
  321MOL0     H44272   3.173  10.472   9.850 -1.2961 -4.0016 -0.9415
  321MOL0     H44273   3.022  10.518   9.790  0.9964 -2.5757 -0.9440
  321MOL0     H44274   2.930  10.404  10.009 -0.0897 -0.2730  0.1216
  321MOL0     H44275   3.103  10.333  10.004  1.7832  1.3623 -0.9092
  321MOL0     H44276   3.066  10.254   9.783  0.8361  0.7217  0.2794
  321MOL0     H44277   2.895  10.264   9.802  1.5593  0.9374 -2.3520
  321MOL0     H44278   3.361  10.643   9.487 -0.2825  1.0562  0.6655
  321MOL0     H44279   3.601  10.628   9.404  2.6181  1.2949  1.2126
  321MOL0     H44280   3.799  10.757   9.075 -0.0657  1.9145 -2.3967
  321MOL0     H44281   3.943  10.782   8.860  1.3942 -3.6690 -0.7935
  321MOL0     H44282   5.227   9.531   7.914 -2.1358  0.1082 -1.0629
  321MOL0     H44283   5.207   9.394   7.708 -0.1210 -2.4034 -1.3545
  321MOL0     H44284   4.884   8.937   7.516  0.0941  0.0408  2.0543
  321MOL0     H44285   4.906   8.757   7.374 -1.6820 -2.9095  2.2528
  321MOL0     H44286   5.023   8.571   7.195 -0.7216 -0.0929  2.7657
  321MOL0     H44287   5.096   8.731   7.189  0.0745  0.2648  0.1007
  321MOL0     H44288   5.222   8.483   7.104 -0.4420  1.7572 -2.1038
  321MOL0     H44289   5.332   8.598   7.185  2.8053  2.2827 -5.5801
  321MOL0     H44290   5.235   8.781   7.060 -0.4269 -0.7255  2.3300
  321MOL0     H44291   5.367   8.688   7.005 -0.2920  1.3412 -0.2954
  321MOL0     H44292   5.177   8.533   6.889 -1.1003 -0.3797  1.8457
  321MOL0     H44293   5.234   8.690   6.808  0.1909  2.1677  0.3972
  321MOL0     H44294   4.840   8.740   6.980 -0.0989  1.7429 -0.8877
  321MOL0     H44295   5.290   8.665   7.546 -1.9341 -2.6176 -2.4305
  321MOL0     H44296   5.401   8.932   7.623  0.8328  0.4971  1.5739
  321MOL0     H44297   5.311   8.964   7.772  1.1268  1.8559 -0.5804
  321MOL0     H44298   5.358   8.806   7.751  1.5585 -0.7276 -1.3085
  322MOL0     O44299  11.594   4.888   0.928  0.1056  0.1186  0.5638
  322MOL0     C44300  11.646   4.784   0.886  0.1297  0.5772  0.4997
  322MOL0     O44301  11.645   4.740   0.757 -0.1371 -0.8000  0.4316
  322MOL0     C44302  11.569   4.800   0.662  0.2347 -0.0843  0.8286
  322MOL0     C44303  11.617   4.902   0.577 -0.3047  0.2910 -0.9261
  322MOL0     C44304  11.533   4.963   0.481  0.0392  0.2616 -0.0249
  322MOL0     C44305  11.400   4.924   0.468 -0.2674 -0.3690 -0.4514
  322MOL0     O44306  11.293   4.976   0.395  0.1136 -0.2695 -0.2831
  322MOL0     C44307  11.324   5.091   0.312 -0.1136  0.4994 -0.1593
  322MOL0     C44308  11.390   5.043   0.183 -0.3823  0.7625 -0.8703
  322MOL0     C44309  11.458   5.161   0.101  0.6208 -0.4981 -0.3375
  322MOL0     C44310  11.579   5.220   0.175 -1.3093  1.2287 -0.4517
  322MOL0     C44311  11.662   5.290   0.075  0.7939  0.5862  1.0657
  322MOL0     C44312  11.781   5.352   0.158  1.0778 -0.3416  0.3808
  322MOL0     C44313  11.865   5.448   0.086 -0.3984  0.3310 -0.0197
  322MOL0     C44314  11.975   5.506   0.185  0.2825 -0.5546  0.1347
  322MOL0     N44315  12.088   5.412   0.206 -0.0085  0.1439  0.3966
  322MOL0     C44316  12.211   5.450   0.252 -0.4072 -0.4354 -0.3726
  322MOL0     C44317  12.250   5.331   0.313 -0.0583  0.2321 -0.3712
  322MOL0     C44318  12.375   5.325   0.394  0.0036  0.8483 -0.1308
  322MOL0     C44319  12.504   5.273   0.329  0.6461 -0.3373 -0.4888
  322MOL0     C44320  12.513   5.333   0.192 -0.8274 -0.7537  1.1186
  322MOL0     C44321  12.629   5.276   0.111  0.0758 -0.9661  0.0474
  322MOL0     O44322  12.741   5.290   0.202  0.5232 -0.4765 -0.2181
  322MOL0     C44323  12.838   5.201   0.198 -0.3859 -0.3244  0.2663
  322MOL0     C44324  12.962   5.242   0.136  0.6946  0.4573 -0.0662
  322MOL0     C44325  13.083   5.163   0.141  0.0340  0.3410  0.6873
  322MOL0     C44326  13.205   5.228   0.086  0.0339 -0.5787  0.1088
  322MOL0     C44327  13.071   5.027   0.170 -1.2125  1.1547  0.5775
  322MOL0     C44328  13.177   4.926   0.149 -0.4905  0.1595 -0.2150
  322MOL0     O44329  13.144   4.802   0.185 -0.2918  0.4941 -0.6286
  322MOL0     C44330  13.218   4.699   0.235 -0.3779  0.2485 -0.5284
  322MOL0     C44331  13.351   4.712   0.263 -0.5038  0.6393 -0.2313
  322MOL0     C44332  13.429   4.602   0.308  0.3347  0.2439  0.1728
  322MOL0     C44333  13.368   4.478   0.327  0.4056  0.2031 -1.0506
  322MOL0     O44334  13.421   4.358   0.369 -0.6725  0.9293 -0.1108
  322MOL0     C44335  13.561   4.355   0.392  0.3315  0.2934  0.4247
  322MOL0     C44336  13.640   4.323   0.271  0.9354 -0.0914 -0.0125
  322MOL0     C44337  13.777   4.275   0.309 -0.7897 -0.1352 -0.0816
  322MOL0     C44338  13.872   4.239   0.188  0.4508 -1.1040 -0.6377
  322MOL0     C44339  13.816   4.118   0.115 -0.5241  0.5755  0.9620
  322MOL0     C44340  13.895   4.079  -0.009  0.4853 -0.1913 -0.5569
  322MOL0     C44341  13.845   3.946  -0.052 -0.2376 -0.4850 -0.2226
  322MOL0     C44342  13.886   3.846   0.047  0.3235  0.3027 -0.5461
  322MOL0    Cl44343  13.859   3.681  -0.030  0.6687  0.3632  0.1222
  322MOL0     C44344  13.232   4.465   0.289 -0.2460 -0.3880  0.1226
  322MOL0     C44345  13.164   4.570   0.232  0.6729 -0.5987 -0.6941
  322MOL0     O44346  13.285   4.953   0.095  0.1315 -0.1443 -0.3252
  322MOL0     C44347  12.942   4.991   0.226 -0.0178  0.1925  0.3012
  322MOL0     C44348  12.837   5.079   0.255 -1.0401 -0.5594 -0.8386
  322MOL0     N44349  12.177   5.223   0.268 -0.3428  0.1917  0.1983
  322MOL0     N44350  12.082   5.276   0.209  0.5377  0.1376  0.0378
  322MOL0     C44351  11.362   4.811   0.529 -0.3811 -0.3307  0.9018
  322MOL0     C44352  11.437   4.750   0.634  0.0261  0.4717 -0.1682
  322MOL0     C44353  11.728   4.703   0.974 -0.4747  0.9191 -0.8023
  322MOL0     C44354  11.751   4.761   1.094  0.3031  1.0774 -0.0769
  322MOL0     C44355  11.796   4.689   1.202 -0.4290  0.2583 -0.6769
  322MOL0     C44356  11.846   4.558   1.192 -0.1897  0.3860 -0.0904
  322MOL0     O44357  11.918   4.504   1.296  0.1019 -0.1203 -0.4883
  322MOL0     C44358  11.850   4.418   1.384  0.7225  0.6273 -0.2788
  322MOL0     C44359  11.807   4.503   1.508  0.1873  0.2780 -0.8387
  322MOL0     C44360  11.910   4.589   1.574 -0.5968  0.5100  0.3908
  322MOL0     C44361  11.877   4.675   1.700 -0.4009 -1.0979  0.7606
  322MOL0     C44362  11.791   4.792   1.665 -0.5621 -0.6966  0.0203
  322MOL0     C44363  11.737   4.893   1.637  0.4124  0.2272 -0.3842
  322MOL0     C44364  11.835   4.498   1.063 -0.5072 -0.3829  0.2380
  322MOL0     C44365  11.777   4.568   0.954  0.5589  0.9144  0.7382
  322MOL0     C44366  11.769   4.498   0.821  1.1741  0.4907  0.3275
  322MOL0     H44367  11.719   4.936   0.589 -0.1060 -0.7693  0.5779
  322MOL0     H44368  11.579   5.050   0.436 -0.4664  1.0201  0.8932
  322MOL0     H44369  11.386   5.162   0.366 -2.5635  1.5324  1.4811
  322MOL0     H44370  11.235   5.150   0.286 -0.3557  0.6254  0.9219
  322MOL0     H44371  11.464   4.966   0.208 -1.1827 -0.2258 -1.4638
  322MOL0     H44372  11.323   4.985   0.119  0.2674  0.2399 -1.0977
  322MOL0     H44373  11.495   5.118   0.007  0.1999  0.5575 -1.0033
  322MOL0     H44374  11.378   5.236   0.099  0.2772 -0.6371  3.0763
  322MOL0     H44375  11.544   5.279   0.260 -1.5108 -0.5993  0.7902
  322MOL0     H44376  11.647   5.145   0.216 -1.7159 -0.9178 -3.3806
  322MOL0     H44377  11.601   5.358   0.016 -0.5563 -0.3031  1.3849
  322MOL0     H44378  11.706   5.223  -0.000 -1.2669 -0.4915  0.7342
  322MOL0     H44379  11.735   5.393   0.249 -1.8046 -1.9612 -0.2089
  322MOL0     H44380  11.840   5.264   0.187  2.1490  0.7888  1.7580
  322MOL0     H44381  11.798   5.523   0.042 -3.8679  0.2000  4.4003
  322MOL0     H44382  11.914   5.400   0.000  0.2178  0.9182 -0.0013
  322MOL0     H44383  12.010   5.597   0.136 -2.8511  0.6948 -0.0273
  322MOL0     H44384  11.934   5.549   0.276 -0.2556 -0.2670 -0.2399
  322MOL0     H44385  12.266   5.543   0.238  0.5694 -1.0844 -0.9519
  322MOL0     H44386  12.352   5.274   0.488 -3.3574 -0.2160 -1.3824
  322MOL0     H44387  12.390   5.429   0.424 -0.6306  0.3235  2.1468
  322MOL0     H44388  12.589   5.306   0.389  2.9628 -1.1096 -3.1673
  322MOL0     H44389  12.501   5.165   0.317  0.6389 -0.0845 -3.7084
  322MOL0     H44390  12.422   5.323   0.132  0.8195  1.5051 -2.0532
  322MOL0     H44391  12.546   5.434   0.215  1.7359 -1.6695  1.7919
  322MOL0     H44392  12.601   5.174   0.084  0.4000 -1.4053  1.2828
  322MOL0     H44393  12.635   5.326   0.014 -0.2208  1.3671  1.1569
  322MOL0     H44394  12.955   5.345   0.105  0.5774  0.0902 -1.3238
  322MOL0     H44395  13.209   5.211  -0.022  1.2665  1.0325 -0.1526
  322MOL0     H44396  13.302   5.192   0.124  0.1116 -1.5510 -0.9631
  322MOL0     H44397  13.198   5.337   0.096 -0.9471 -0.8071  2.3911
  322MOL0     H44398  13.396   4.809   0.280 -1.3900  0.8776  0.8688
  322MOL0     H44399  13.532   4.627   0.330 -0.2920  1.3908  2.0198
  322MOL0     H44400  13.599   4.446   0.440  0.7406  0.7915 -0.7767
  322MOL0     H44401  13.572   4.274   0.465 -0.7460  0.1003  0.3767
  322MOL0     H44402  13.580   4.250   0.215 -2.0133  2.0731  0.0908
  322MOL0     H44403  13.648   4.412   0.209 -1.4092  0.3568  0.2301
  322MOL0     H44404  13.768   4.186   0.372 -1.4224 -0.3013 -0.4011
  322MOL0     H44405  13.806   4.363   0.366 -1.6863 -1.2272  2.2008
  322MOL0     H44406  13.976   4.227   0.221 -0.0448 -0.6832  1.1644
  322MOL0     H44407  13.874   4.327   0.122  1.4192 -1.0979 -0.6160
  322MOL0     H44408  13.815   4.045   0.197  1.6433  1.4385  1.8556
  322MOL0     H44409  13.715   4.137   0.077  0.7618  2.7065 -1.7253
  322MOL0     H44410  13.998   4.069   0.025  0.1672 -1.6993  0.0261
  322MOL0     H44411  13.891   4.155  -0.088 -1.7108 -0.9734 -1.2729
  322MOL0     H44412  13.895   3.923  -0.147  2.3159 -3.5807  1.6290
  322MOL0     H44413  13.737   3.943  -0.066 -0.2758 -3.8827 -0.1969
  322MOL0     H44414  13.812   3.865   0.125 -2.0840 -0.5356 -2.4940
  322MOL0     H44415  13.992   3.842   0.075 -0.1702 -2.1770  1.3288
  322MOL0     H44416  13.185   4.368   0.283 -1.7206  0.3362 -0.8727
  322MOL0     H44417  13.060   4.569   0.201  0.6227 -2.1097 -0.5487
  322MOL0     H44418  12.933   4.891   0.267  1.2711 -0.4148 -0.8463
  322MOL0     H44419  12.745   5.062   0.310  0.1963  1.5814  2.1595
  322MOL0     H44420  11.267   4.769   0.499  0.2462 -0.2875 -1.2773
  322MOL0     H44421  11.395   4.659   0.675 -1.5370  1.9661  1.7314
  322MOL0     H44422  11.716   4.861   1.117 -3.8748  0.1541 -1.6253
  322MOL0     H44423  11.814   4.738   1.297 -0.5544 -0.4598 -0.2786
  322MOL0     H44424  11.755   4.388   1.339  1.3463 -0.6402 -0.7958
  322MOL0     H44425  11.913   4.333   1.409  1.0406  0.5654 -1.2516
  322MOL0     H44426  11.782   4.436   1.591 -0.5242 -1.9490 -2.7339
  322MOL0     H44427  11.719   4.563   1.485 -1.7000 -1.1117  2.2091
  322MOL0     H44428  11.994   4.524   1.597 -0.2692 -1.3901 -4.7375
  322MOL0     H44429  11.951   4.647   1.490  0.6649 -1.2701 -0.2892
  322MOL0     H44430  11.968   4.718   1.743  1.5961 -1.5814 -2.5885
  322MOL0     H44431  11.824   4.611   1.771 -2.4173 -0.5554 -0.1709
  322MOL0     H44432  11.673   4.976   1.618 -0.1970 -0.0555  0.4212
  322MOL0     H44433  11.873   4.397   1.050 -3.3464 -1.6844  1.1596
  322MOL0     H44434  11.790   4.391   0.828  1.5851  0.5749  0.3958
  322MOL0     H44435  11.669   4.512   0.780  0.2508 -0.7741  1.9944
  322MOL0     H44436  11.847   4.533   0.753  1.8659 -1.9001 -0.1755
  323MOL0     O44437  11.086   5.854   7.045  0.3808 -0.3292 -0.3133
  323MOL0     C44438  11.138   5.848   6.937  0.1891  0.5654  0.0700
  323MOL0     O44439  11.110   5.746   6.843 -0.5443 -0.0268  0.0755
  323MOL0     C44440  11.059   5.627   6.894  0.1943  0.0882  0.1555
  323MOL0     C44441  11.148   5.549   6.977 -0.2321 -0.7021  0.1673
  323MOL0     C44442  11.093   5.426   7.027 -0.3690  0.5265 -0.2598
  323MOL0     C44443  10.961   5.394   7.013  0.2217  0.2480 -0.3480
  323MOL0     O44444  10.897   5.287   7.083 -0.0586 -0.2450  0.6708
  323MOL0     C44445  10.986   5.217   7.167 -0.3273 -0.1178 -0.0069
  323MOL0     C44446  10.911   5.107   7.247  0.5478 -0.3202 -0.5912
  323MOL0     C44447  11.016   5.025   7.301  1.0958  0.0752  0.3239
  323MOL0     C44448  10.971   4.883   7.320 -0.6244 -0.4522  0.1335
  323MOL0     C44449  11.068   4.818   7.425 -0.9593  0.8301 -0.4112
  323MOL0     C44450  10.995   4.694   7.494 -0.1711  0.1724 -0.1075
  323MOL0     C44451  11.063   4.648   7.625 -1.1558  0.5918  0.6741
  323MOL0     C44452  10.998   4.523   7.672  0.1432  0.0802  0.6323
  323MOL0     N44453  11.077   4.475   7.796  0.6105 -0.1582  0.5581
  323MOL0     C44454  11.160   4.560   7.871 -0.4691 -0.1852 -0.8785
  323MOL0     C44455  11.234   4.483   7.951 -0.7607  0.5122 -0.3042
  323MOL0     C44456  11.313   4.521   8.075 -0.8620 -0.4021  0.8552
  323MOL0     C44457  11.223   4.530   8.197 -0.6089  0.2246  0.0691
  323MOL0     C44458  11.155   4.394   8.234  0.6600 -0.0035 -0.0057
  323MOL0     C44459  11.104   4.409   8.385 -0.0627 -0.2762  0.3783
  323MOL0     O44460  11.042   4.536   8.406  0.2869 -0.2710 -0.0538
  323MOL0     C44461  11.043   4.575   8.541  0.6389  0.1084 -0.3424
  323MOL0     C44462  11.110   4.688   8.584  1.0848 -0.0963  0.5989
  323MOL0     C44463  11.110   4.734   8.711 -0.1554 -0.0598 -0.0022
  323MOL0     C44464  11.201   4.856   8.741 -0.4068  0.1734 -0.4535
  323MOL0     C44465  11.029   4.673   8.809 -0.7569 -0.0157  0.2975
  323MOL0     C44466  11.028   4.720   8.947  0.0673  1.3311  0.2429
  323MOL0     O44467  10.905   4.784   8.973 -0.8830 -0.0290 -0.2507
  323MOL0     C44468  10.902   4.872   9.072  0.7852  0.0488  0.6664
  323MOL0     C44469  10.776   4.887   9.128 -1.1024  0.1146 -0.2673
  323MOL0     C44470  10.753   4.952   9.249  0.4806 -0.8191 -0.4364
  323MOL0     C44471  10.854   5.012   9.313 -0.0097  0.7602 -0.1084
  323MOL0     O44472  10.822   5.078   9.431  0.3967 -1.6721  0.6207
  323MOL0     C44473  10.925   5.131   9.524  0.2595  0.7592  0.2919
  323MOL0     C44474  10.877   5.189   9.658 -0.3847 -0.2687  0.5560
  323MOL0     C44475  10.767   5.112   9.731  0.1274 -0.3029  0.0791
  323MOL0     C44476  10.813   4.983   9.795 -0.7397  0.1786 -0.0677
  323MOL0     C44477  10.701   4.904   9.865 -0.6422  0.0698  0.3057
  323MOL0     C44478  10.656   4.979   9.990 -0.2623  0.0084  0.5219
  323MOL0     C44479  10.546   4.900  10.058  0.0616 -1.8414 -0.1776
  323MOL0     C44480  10.505   4.968  10.194 -0.0154 -0.3647 -0.4299
  323MOL0    Cl44481  10.434   5.123  10.170 -0.0188 -0.0581 -0.3335
  323MOL0     C44482  10.984   4.991   9.261 -0.2643  0.0115 -0.6515
  323MOL0     C44483  11.008   4.923   9.141  0.2978  0.6179 -1.0923
  323MOL0     O44484  11.128   4.708   9.017  0.5527  0.7107 -0.0872
  323MOL0     C44485  10.949   4.567   8.767  0.1545 -0.1233 -0.7687
  323MOL0     C44486  10.958   4.512   8.640  0.2287 -0.0951  0.7654
  323MOL0     N44487  11.212   4.355   7.901  0.3483  0.4561 -0.1044
  323MOL0     N44488  11.118   4.349   7.812  0.6102  0.7423 -0.4693
  323MOL0     C44489  10.883   5.476   6.934 -1.0526 -0.3451  0.1873
  323MOL0     C44490  10.929   5.588   6.865  0.6460  0.0789  0.4934
  323MOL0     C44491  11.214   5.966   6.900 -0.2842  0.0942 -0.1035
  323MOL0     C44492  11.260   6.047   7.004 -0.9619  0.6175 -0.3813
  323MOL0     C44493  11.301   6.175   6.972  0.2707  0.3569 -0.7007
  323MOL0     C44494  11.322   6.212   6.843  0.3810 -0.8166  0.1814
  323MOL0     O44495  11.361   6.345   6.824  0.3298  0.0645 -0.2994
  323MOL0     C44496  11.375   6.392   6.689 -0.1984 -0.5520  0.7622
  323MOL0     C44497  11.456   6.519   6.696 -0.9268  0.2920 -0.0906
  323MOL0     C44498  11.561   6.544   6.576  0.4397  0.3063  0.6247
  323MOL0     C44499  11.681   6.463   6.605  0.1699  0.1875  0.2928
  323MOL0     C44500  11.773   6.470   6.494  0.0123  0.3063 -0.1659
  323MOL0     C44501  11.846   6.481   6.396 -0.2416 -0.9754 -0.1670
  323MOL0     C44502  11.288   6.130   6.738  0.2045 -0.1165  0.3142
  323MOL0     C44503  11.237   6.005   6.760 -0.6199 -0.6439 -0.1235
  323MOL0     C44504  11.200   5.925   6.637  0.6704  0.1159 -0.3082
  323MOL0     H44505  11.233   5.592   7.029 -2.2785  1.7604  1.7306
  323MOL0     H44506  11.160   5.371   7.092 -2.4427  0.6791  2.1244
  323MOL0     H44507  11.022   5.282   7.247 -1.7051 -0.7087  1.1433
  323MOL0     H44508  11.072   5.181   7.110 -0.8368 -0.7386 -0.3983
  323MOL0     H44509  10.841   5.139   7.325  1.4610 -0.3158  0.2371
  323MOL0     H44510  10.861   5.051   7.167  0.8539 -0.2989 -0.7977
  323MOL0     H44511  11.107   5.030   7.241 -0.8150  5.0869 -2.7602
  323MOL0     H44512  11.039   5.060   7.402  1.2005 -3.3191  1.6337
  323MOL0     H44513  10.873   4.891   7.367 -0.0215  0.8602  1.2341
  323MOL0     H44514  10.980   4.827   7.226 -2.7268  0.2768 -0.5606
  323MOL0     H44515  11.118   4.876   7.503  0.5999 -1.0001  0.0241
  323MOL0     H44516  11.154   4.774   7.374 -2.7536 -5.1207  1.0147
  323MOL0     H44517  10.895   4.730   7.520  0.0625 -1.1498  3.1945
  323MOL0     H44518  10.986   4.607   7.428  0.3263 -0.2922  0.4217
  323MOL0     H44519  11.052   4.721   7.705  0.9238 -2.2410  3.8193
  323MOL0     H44520  11.165   4.627   7.594 -1.7027 -1.7562  0.2777
  323MOL0     H44521  10.894   4.529   7.706  0.0875  2.1667  0.1843
  323MOL0     H44522  10.997   4.460   7.583  1.5772 -0.5196  1.0052
  323MOL0     H44523  11.152   4.665   7.901  1.9755  0.2554 -1.5697
  323MOL0     H44524  11.367   4.615   8.060  1.8070 -1.5078  2.7273
  323MOL0     H44525  11.386   4.442   8.095  1.4234  1.4059  0.0785
  323MOL0     H44526  11.278   4.558   8.287 -0.7890 -1.2215  0.6543
  323MOL0     H44527  11.135   4.588   8.168 -0.4060  0.1201 -0.7751
  323MOL0     H44528  11.064   4.378   8.174 -0.2530  1.9626  0.7556
  323MOL0     H44529  11.220   4.308   8.217 -1.2903 -1.9141  1.5677
  323MOL0     H44530  11.026   4.333   8.394 -1.2343  0.5863 -1.7286
  323MOL0     H44531  11.180   4.382   8.459  1.0903  0.2004 -0.5982
  323MOL0     H44532  11.152   4.744   8.502 -1.1536 -1.0628 -1.3195
  323MOL0     H44533  11.258   4.846   8.834  2.3001 -1.0175 -2.1399
  323MOL0     H44534  11.130   4.939   8.748  1.2136  1.6829 -1.4907
  323MOL0     H44535  11.269   4.876   8.658  1.0564 -0.8703  0.4395
  323MOL0     H44536  10.691   4.834   9.087  0.7664 -0.0815 -4.4629
  323MOL0     H44537  10.653   4.943   9.291  0.9876 -0.0384  0.9982
  323MOL0     H44538  11.000   5.052   9.536 -2.8112 -3.0027 -2.6141
  323MOL0     H44539  10.980   5.211   9.474 -0.1488 -1.4472 -4.2337
  323MOL0     H44540  10.965   5.195   9.723 -0.4599  1.0095  0.5623
  323MOL0     H44541  10.835   5.288   9.638 -2.0837 -0.8593  1.0081
  323MOL0     H44542  10.686   5.097   9.660  0.1133 -2.8004  0.5215
  323MOL0     H44543  10.754   5.180   9.816  1.7582  0.3647 -0.1612
  323MOL0     H44544  10.899   5.012   9.856  2.2011  0.7577 -4.0809
  323MOL0     H44545  10.857   4.925   9.713  2.6077  0.6911  1.2066
  323MOL0     H44546  10.610   4.886   9.806  0.0056 -3.1798  0.1502
  323MOL0     H44547  10.740   4.804   9.885 -6.7883 -3.3564 -2.0728
  323MOL0     H44548  10.618   5.078   9.966 -0.4410  0.7504  3.4398
  323MOL0     H44549  10.734   4.981  10.068 -1.0709 -0.7703  1.3846
  323MOL0     H44550  10.602   4.807  10.075  1.1050 -0.8787  2.1541
  323MOL0     H44551  10.465   4.892   9.985  1.4304  0.5747 -2.1617
  323MOL0     H44552  10.593   4.986  10.257 -2.0394 -1.3164  2.9421
  323MOL0     H44553  10.444   4.904  10.258  0.0811 -0.7146 -0.6884
  323MOL0     H44554  11.061   5.046   9.315  0.9494  2.5666 -4.5380
  323MOL0     H44555  11.106   4.939   9.097  0.1648  0.0611 -1.5978
  323MOL0     H44556  10.881   4.528   8.842 -0.5309 -1.4703 -2.0445
  323MOL0     H44557  10.905   4.424   8.605  1.2059 -1.7480  3.1902
  323MOL0     H44558  10.777   5.455   6.937 -1.1983  0.4333  2.3916
  323MOL0     H44559  10.868   5.637   6.790 -1.7600 -0.1939  2.1461
  323MOL0     H44560  11.228   6.030   7.106 -1.6263 -0.5067 -0.7618
  323MOL0     H44561  11.304   6.252   7.049  2.3530 -1.5704  1.3066
  323MOL0     H44562  11.437   6.329   6.625 -0.6040 -0.5900  0.4055
  323MOL0     H44563  11.280   6.409   6.638  1.0930  2.1449 -1.0095
  323MOL0     H44564  11.514   6.516   6.788  0.1051 -2.2021 -0.7198
  323MOL0     H44565  11.392   6.605   6.716 -0.4622  0.8311 -0.8979
  323MOL0     H44566  11.505   6.515   6.487 -0.3451  3.1211  0.1237
  323MOL0     H44567  11.579   6.650   6.562 -1.5946  0.6082 -0.1283
  323MOL0     H44568  11.661   6.360   6.634  3.2377 -0.7658 -0.5686
  323MOL0     H44569  11.738   6.509   6.686 -0.1548  2.1559 -0.5411
  323MOL0     H44570  11.927   6.489   6.325  0.7466 -0.4237  0.9887
  323MOL0     H44571  11.311   6.150   6.634 -0.8469 -0.5170 -0.0019
  323MOL0     H44572  11.170   5.985   6.550 -2.2381  1.5864  1.5536
  323MOL0     H44573  11.271   5.847   6.609  2.2432  1.0512  0.8814
  323MOL0     H44574  11.100   5.886   6.658 -0.2756  2.1135 -0.7590
  324MOL0     O44575   0.636   4.202   5.600 -0.1630 -0.1784 -0.3453
  324MOL0     C44576   0.739   4.130   5.603  0.6714 -0.8730 -0.4917
  324MOL0     O44577   0.772   4.021   5.692  1.2595  0.7408  0.2260
  324MOL0     C44578   0.674   3.971   5.776 -0.0704  0.0246 -0.7634
  324MOL0     C44579   0.585   4.051   5.850  0.3360  0.3832  0.3445
  324MOL0     C44580   0.484   4.000   5.932  0.6418  0.9232 -0.0313
  324MOL0     C44581   0.470   3.865   5.939 -0.2916  2.0548 -0.5550
  324MOL0     O44582   0.371   3.800   6.005  0.8441 -0.1606  0.1374
  324MOL0     C44583   0.249   3.872   6.018  0.1901 -0.2406 -0.6493
  324MOL0     C44584   0.136   3.776   6.054 -0.9100 -0.4548 -0.3355
  324MOL0     C44585   0.047   3.736   5.934 -0.1645  0.2423  0.8217
  324MOL0     C44586  -0.057   3.646   5.998  0.3790  0.1690 -0.4780
  324MOL0     C44587  -0.177   3.604   5.915 -0.4320  0.0438 -0.2310
  324MOL0     C44588  -0.299   3.580   5.995 -0.5780 -1.7425  0.2152
  324MOL0     C44589  -0.291   3.460   6.083  0.5168  0.3651  1.0585
  324MOL0     C44590  -0.276   3.322   6.004  0.0023  0.0715 -0.5354
  324MOL0     N44591  -0.412   3.255   5.999  0.0478 -0.0643 -0.8013
  324MOL0     C44592  -0.469   3.207   5.883 -0.2892 -0.4797  0.4261
  324MOL0     C44593  -0.580   3.143   5.930 -0.5674  0.2756  0.1756
  324MOL0     C44594  -0.679   3.061   5.848 -0.0762 -0.8792 -0.7523
  324MOL0     C44595  -0.699   3.119   5.703  0.3058 -0.1390 -0.5320
  324MOL0     C44596  -0.759   3.266   5.706 -0.0249 -1.5663 -0.0000
  324MOL0     C44597  -0.900   3.276   5.777 -0.0134 -0.5984 -0.0517
  324MOL0     O44598  -0.944   3.417   5.785  1.3743 -0.8428  0.9692
  324MOL0     C44599  -0.873   3.505   5.856 -0.6054 -1.1834  0.2903
  324MOL0     C44600  -0.792   3.475   5.961  0.2071  0.0148 -0.3431
  324MOL0     C44601  -0.736   3.575   6.037  0.4123  0.5200 -0.0605
  324MOL0     C44602  -0.665   3.534   6.162  0.1818  1.1129 -0.0335
  324MOL0     C44603  -0.749   3.713   5.999 -0.7352  0.0565  0.0795
  324MOL0     C44604  -0.679   3.822   6.069 -1.3273 -1.2825  0.0006
  324MOL0     O44605  -0.755   3.934   6.066  0.3524  0.3116 -0.2068
  324MOL0     C44606  -0.727   4.030   6.155 -0.3497  0.1409  0.2883
  324MOL0     C44607  -0.672   4.156   6.112  0.2092  0.8173 -1.5550
  324MOL0     C44608  -0.652   4.256   6.214 -0.9809  0.6567  1.1095
  324MOL0     C44609  -0.693   4.238   6.341 -0.5694  0.0340 -0.4721
  324MOL0     O44610  -0.674   4.352   6.416  0.6852 -0.5212  0.4748
  324MOL0     C44611  -0.746   4.365   6.543 -0.2191 -0.4797 -0.3486
  324MOL0     C44612  -0.884   4.428   6.527  0.2673  0.5221 -0.4678
  324MOL0     C44613  -0.996   4.395   6.638  0.9472  0.7431  0.3674
  324MOL0     C44614  -0.995   4.491   6.759  0.0755 -0.4047  0.4966
  324MOL0     C44615  -1.008   4.644   6.735 -0.1281 -0.2440 -1.4759
  324MOL0     C44616  -1.127   4.694   6.669  0.8486  0.7093  0.1625
  324MOL0     C44617  -1.137   4.843   6.674  0.3701 -0.4172 -0.6961
  324MOL0     C44618  -1.035   4.905   6.580  0.0677 -0.5896  0.0312
  324MOL0    Cl44619  -1.132   5.002   6.443  0.2457  0.1722 -0.1439
  324MOL0     C44620  -0.741   4.106   6.383  0.2086  0.4663  0.0873
  324MOL0     C44621  -0.767   4.005   6.284  0.3158  0.0878 -0.7727
  324MOL0     O44622  -0.567   3.803   6.131  0.2389 -0.2839  0.2421
  324MOL0     C44623  -0.834   3.736   5.889 -0.2215 -1.3089 -0.2798
  324MOL0     C44624  -0.896   3.638   5.819  0.9777 -0.4465 -0.2336
  324MOL0     N44625  -0.594   3.154   6.066  0.5525 -0.2633 -0.9408
  324MOL0     N44626  -0.490   3.220   6.107 -0.0419  0.5213 -0.1098
  324MOL0     C44627   0.561   3.784   5.880  0.2553  0.5810 -0.4427
  324MOL0     C44628   0.664   3.834   5.804 -0.2720 -1.0531 -0.0922
  324MOL0     C44629   0.829   4.179   5.501 -0.3003  0.1289 -0.2267
  324MOL0     C44630   0.903   4.080   5.438 -0.0605  0.1050 -0.2091
  324MOL0     C44631   1.020   4.115   5.360  0.1744  0.2836 -0.1983
  324MOL0     C44632   1.049   4.256   5.347 -0.2985  0.4659  0.4143
  324MOL0     O44633   1.165   4.285   5.278  0.0403 -0.3498 -0.5010
  324MOL0     C44634   1.284   4.291   5.367  0.4237 -0.1310  0.3476
  324MOL0     C44635   1.391   4.363   5.291 -0.6331 -0.0468 -0.6525
  324MOL0     C44636   1.473   4.277   5.186 -0.3312  0.1879  0.3752
  324MOL0     C44637   1.576   4.173   5.242 -0.1487  0.2385 -0.5170
  324MOL0     C44638   1.515   4.046   5.281  0.0663  1.0173  0.1367
  324MOL0     C44639   1.471   3.944   5.332  1.5510 -0.1417 -0.0242
  324MOL0     C44640   0.966   4.356   5.403 -0.3608  0.2788  0.5745
  324MOL0     C44641   0.854   4.316   5.481  0.4720 -0.3935 -0.1493
  324MOL0     C44642   0.796   4.435   5.551 -0.1967  0.1723 -0.0349
  324MOL0     H44643   0.578   4.157   5.826  3.3749  0.1909 -2.0155
  324MOL0     H44644   0.406   4.064   5.971  0.0826  0.0947  0.2298
  324MOL0     H44645   0.215   3.922   5.928 -1.0048 -1.1371 -0.7202
  324MOL0     H44646   0.267   3.942   6.100  0.8440 -0.0880 -0.9152
  324MOL0     H44647   0.173   3.687   6.105 -1.9670 -2.0532 -2.2450
  324MOL0     H44648   0.072   3.831   6.124 -1.3350  0.1823 -1.2020
  324MOL0     H44649   0.005   3.830   5.897  0.3278 -0.0109 -0.4137
  324MOL0     H44650   0.099   3.686   5.852 -2.1151 -1.5293  0.5900
  324MOL0     H44651  -0.013   3.551   6.030 -3.2044 -0.4614  3.5129
  324MOL0     H44652  -0.089   3.696   6.090  2.6949  1.3908 -0.2678
  324MOL0     H44653  -0.144   3.523   5.850  0.1521 -1.0119  1.3305
  324MOL0     H44654  -0.192   3.691   5.850  2.1395  2.7919  2.4759
  324MOL0     H44655  -0.311   3.671   6.056  0.7609  0.2634 -2.2917
  324MOL0     H44656  -0.391   3.582   5.936  0.3618 -1.7443 -1.3119
  324MOL0     H44657  -0.375   3.455   6.153  1.9743 -1.5129  2.8176
  324MOL0     H44658  -0.208   3.457   6.155  1.8934 -0.5601 -0.4802
  324MOL0     H44659  -0.242   3.339   5.902 -1.0585 -0.5100 -1.0000
  324MOL0     H44660  -0.208   3.255   6.058  1.6804  2.0180 -0.0735
  324MOL0     H44661  -0.421   3.220   5.787  3.3124  2.7635  2.3875
  324MOL0     H44662  -0.769   3.047   5.908 -0.4635 -1.5967 -1.4873
  324MOL0     H44663  -0.634   2.962   5.833  1.2603 -1.1403  3.6531
  324MOL0     H44664  -0.605   3.129   5.649  2.2618  1.4354  2.8727
  324MOL0     H44665  -0.767   3.053   5.648 -0.1639  1.6722 -2.2432
  324MOL0     H44666  -0.697   3.343   5.753 -0.7752 -0.5693 -0.6062
  324MOL0     H44667  -0.764   3.296   5.601 -2.2032  0.3569  0.6019
  324MOL0     H44668  -0.971   3.210   5.727 -1.8410 -0.3579  2.0534
  324MOL0     H44669  -0.886   3.237   5.878  0.1182  4.2736  2.1121
  324MOL0     H44670  -0.775   3.372   5.988 -0.4318 -0.3281 -1.1936
  324MOL0     H44671  -0.694   3.431   6.186 -0.4202  1.6197  1.5601
  324MOL0     H44672  -0.691   3.599   6.246 -1.8807 -0.1429  0.3762
  324MOL0     H44673  -0.558   3.541   6.144  0.2891  1.8410  0.8018
  324MOL0     H44674  -0.646   4.164   6.007 -0.5790 -0.4308 -1.8727
  324MOL0     H44675  -0.621   4.353   6.177 -0.1963 -0.4970 -1.4158
  324MOL0     H44676  -0.749   4.270   6.599  0.7557  0.7914  2.0315
  324MOL0     H44677  -0.682   4.426   6.608  0.1889  0.7090 -1.8246
  324MOL0     H44678  -0.865   4.535   6.520  3.1734  0.2635  1.5676
  324MOL0     H44679  -0.936   4.400   6.435 -1.1629 -1.9473  0.9823
  324MOL0     H44680  -0.990   4.293   6.677 -0.0607  1.0792  1.4621
  324MOL0     H44681  -1.098   4.402   6.600  1.0116 -1.5152 -0.3853
  324MOL0     H44682  -0.920   4.465   6.834 -1.5571 -0.7415  2.0978
  324MOL0     H44683  -1.087   4.464   6.812  0.8771 -0.4632  1.9096
  324MOL0     H44684  -1.009   4.693   6.832  2.2892  2.4918 -2.6935
  324MOL0     H44685  -0.918   4.685   6.689  1.4877 -0.6861  1.0912
  324MOL0     H44686  -1.219   4.644   6.703 -0.3719  1.7089 -1.5379
  324MOL0     H44687  -1.132   4.668   6.563  2.1335 -0.6367  0.3942
  324MOL0     H44688  -1.105   4.871   6.774 -0.8807 -0.2153 -0.3405
  324MOL0     H44689  -1.236   4.878   6.645  0.7273 -0.0806 -1.5308
  324MOL0     H44690  -0.965   4.833   6.536 -1.8105 -0.7029 -3.0549
  324MOL0     H44691  -0.976   4.985   6.627 -0.7308  0.2140 -0.3119
  324MOL0     H44692  -0.753   4.073   6.485  0.2022 -2.5632 -0.8113
  324MOL0     H44693  -0.814   3.910   6.307 -1.5304  1.5160  1.8259
  324MOL0     H44694  -0.847   3.834   5.846 -2.7042  0.8722  4.6259
  324MOL0     H44695  -0.954   3.667   5.731  2.9267  4.5442 -0.2154
  324MOL0     H44696   0.555   3.676   5.875 -0.8605  0.6905 -2.1363
  324MOL0     H44697   0.721   3.771   5.736 -1.4332  0.1380 -2.2742
  324MOL0     H44698   0.873   3.976   5.439  1.6342 -0.4904 -2.6369
  324MOL0     H44699   1.089   4.044   5.315  0.4616 -0.0568  0.7625
  324MOL0     H44700   1.255   4.344   5.458 -0.2712 -3.8721  2.4838
  324MOL0     H44701   1.313   4.189   5.394 -1.1869 -0.5649  0.5406
  324MOL0     H44702   1.457   4.403   5.369 -0.8316  2.5142 -1.7151
  324MOL0     H44703   1.354   4.451   5.237 -0.5761 -1.0362 -2.3854
  324MOL0     H44704   1.405   4.222   5.121  1.6377 -1.4462 -0.4081
  324MOL0     H44705   1.522   4.348   5.119 -1.4278 -0.8416 -1.5833
  324MOL0     H44706   1.632   4.211   5.327  2.0128 -1.4472 -1.0711
  324MOL0     H44707   1.653   4.153   5.166 -0.8953 -2.5243 -0.6624
  324MOL0     H44708   1.427   3.850   5.360 -2.6322  1.9208  1.0933
  324MOL0     H44709   1.010   4.453   5.382  1.8842 -0.7229  0.4145
  324MOL0     H44710   0.817   4.428   5.658  1.1084  2.4921 -0.0775
  324MOL0     H44711   0.835   4.530   5.514 -1.2492  0.8077  0.4332
  324MOL0     H44712   0.689   4.435   5.530  0.5223 -1.9613 -4.9555
  325MOL0     O44713   2.868   9.384   4.541  0.7163  0.4892 -0.3127
  325MOL0     C44714   2.828   9.435   4.439 -0.6182  0.0426  0.3199
  325MOL0     O44715   2.693   9.425   4.388  0.3069  0.8129 -0.1539
  325MOL0     C44716   2.626   9.316   4.447  0.5353  0.8439  0.7289
  325MOL0     C44717   2.680   9.191   4.476 -0.1227 -0.2237 -0.5504
  325MOL0     C44718   2.597   9.093   4.537  0.0542 -0.1275  0.1232
  325MOL0     C44719   2.466   9.125   4.566  0.2735  0.9119 -0.5130
  325MOL0     O44720   2.383   9.022   4.602 -0.2809 -0.1322 -1.1694
  325MOL0     C44721   2.426   8.958   4.734 -0.2404 -0.3627  0.1828
  325MOL0     C44722   2.317   8.860   4.782 -1.1232 -0.7171  0.6334
  325MOL0     C44723   2.363   8.799   4.916 -0.2162  0.9226  0.8427
  325MOL0     C44724   2.337   8.872   5.047  0.2741 -0.7066 -0.3606
  325MOL0     C44725   2.458   8.915   5.132 -0.0478  0.0608  0.9095
  325MOL0     C44726   2.415   9.013   5.228  0.3625  0.4645  0.2868
  325MOL0     C44727   2.512   9.073   5.322  0.3324 -0.3531  0.5136
  325MOL0     C44728   2.580   9.203   5.272  0.1261  0.4811 -0.8319
  325MOL0     N44729   2.511   9.325   5.312 -0.2910  0.6389  0.7451
  325MOL0     C44730   2.378   9.356   5.286 -0.1724 -0.4227  0.2397
  325MOL0     C44731   2.370   9.482   5.330  0.0925  0.1698 -0.9940
  325MOL0     C44732   2.262   9.592   5.354  0.4336 -0.1090 -0.2217
  325MOL0     C44733   2.231   9.657   5.229 -0.1476 -0.2411 -0.1477
  325MOL0     C44734   2.339   9.759   5.174 -0.2529  1.1531  0.5040
  325MOL0     C44735   2.271   9.856   5.083  0.7814 -0.0995  0.5227
  325MOL0     O44736   2.170   9.780   5.003 -0.1449 -0.1703  0.3086
  325MOL0     C44737   2.121   9.848   4.891  0.8261  0.0426  0.6353
  325MOL0     C44738   2.040   9.764   4.814  0.4341 -0.0310  0.0759
  325MOL0     C44739   1.969   9.822   4.711 -0.1663 -0.3749  0.3089
  325MOL0     C44740   1.871   9.742   4.644 -0.6545  1.4327  0.1428
  325MOL0     C44741   1.985   9.957   4.677 -0.5515  0.4707  0.7007
  325MOL0     C44742   1.911  10.027   4.573 -0.1881  0.0795 -0.2844
  325MOL0     O44743   1.969  10.125   4.497  0.9709 -0.7311 -0.2881
  325MOL0     C44744   1.896  10.216   4.430  0.3086 -0.9428  0.8124
  325MOL0     C44745   1.892  10.348   4.474 -0.3442  0.2617  0.5665
  325MOL0     C44746   1.841  10.453   4.402  0.7899  0.5092  0.4220
  325MOL0     C44747   1.783  10.426   4.282 -0.5916  0.0658 -0.0525
  325MOL0     O44748   1.705  10.520   4.221 -0.2707  0.2488  0.2896
  325MOL0     C44749   1.577  10.543   4.294  0.3460  0.2502 -0.2138
  325MOL0     C44750   1.470  10.607   4.199 -0.2039  1.1188 -0.4045
  325MOL0     C44751   1.334  10.600   4.264  0.3901 -0.0984  0.3404
  325MOL0     C44752   1.219  10.618   4.152  0.0243 -0.2213 -0.5683
  325MOL0     C44753   1.143  10.756   4.159  0.4142 -0.1792 -0.0309
  325MOL0     C44754   1.052  10.786   4.285  0.8633  0.0824 -0.7972
  325MOL0     C44755   0.953  10.668   4.306 -0.0742 -1.5519  1.6478
  325MOL0     C44756   0.828  10.722   4.384 -0.0180  0.5082  0.3581
  325MOL0    Cl44757   0.862  10.767   4.544  0.4384  0.2754 -0.1915
  325MOL0     C44758   1.787  10.297   4.234  0.1516  0.2489 -0.4263
  325MOL0     C44759   1.845  10.192   4.303 -0.2870  0.2148 -1.0767
  325MOL0     O44760   1.789  10.003   4.584 -0.1252 -0.5667 -0.7163
  325MOL0     C44761   2.078  10.035   4.741 -0.2341 -0.2828  0.5298
  325MOL0     C44762   2.151   9.983   4.842  0.1215  0.7510 -0.6497
  325MOL0     N44763   2.487   9.517   5.392  0.4572 -0.2443 -0.8385
  325MOL0     N44764   2.572   9.423   5.381 -0.4410 -0.0571  0.1414
  325MOL0     C44765   2.410   9.249   4.543  0.6659  0.4161  0.0072
  325MOL0     C44766   2.494   9.341   4.478  0.3832 -0.7107 -0.3629
  325MOL0     C44767   2.904   9.547   4.368  0.3670  0.7503 -1.4170
  325MOL0     C44768   2.838   9.670   4.337 -0.0871  0.9657 -0.0830
  325MOL0     C44769   2.908   9.765   4.257  0.0649  0.0462 -0.3617
  325MOL0     C44770   3.036   9.744   4.209  0.7596  0.1477  0.5788
  325MOL0     O44771   3.102   9.840   4.145 -0.1871 -0.1885 -0.2070
  325MOL0     C44772   3.229   9.875   4.201 -0.0539  1.3009 -0.3021
  325MOL0     C44773   3.220  10.023   4.245  0.5538 -0.2462  0.5990
  325MOL0     C44774   3.171  10.112   4.130  0.3797 -0.5111  0.3870
  325MOL0     C44775   3.259  10.096   4.003 -0.2504  0.0784  0.4382
  325MOL0     C44776   3.211  10.001   3.897 -0.1851  0.1540 -0.5621
  325MOL0     C44777   3.173   9.913   3.830 -0.0576 -0.1708  0.3269
  325MOL0     C44778   3.093   9.626   4.236 -0.3939  0.4696  0.5700
  325MOL0     C44779   3.032   9.521   4.309  0.7388 -0.0484  0.1226
  325MOL0     C44780   3.105   9.385   4.322  0.4559  0.4935 -0.1169
  325MOL0     H44781   2.782   9.175   4.443 -0.4117  0.2740 -1.7156
  325MOL0     H44782   2.622   8.987   4.541  0.0298 -0.0953  1.8875
  325MOL0     H44783   2.426   9.030   4.817  1.9953  0.1178 -0.1473
  325MOL0     H44784   2.519   8.902   4.725  0.6572  1.0492  0.2987
  325MOL0     H44785   2.223   8.913   4.797 -1.2274 -0.2421 -1.4134
  325MOL0     H44786   2.303   8.779   4.710 -3.2956  0.1365  0.0090
  325MOL0     H44787   2.314   8.703   4.927 -3.2866  2.1009 -1.3136
  325MOL0     H44788   2.468   8.767   4.907  0.2726  2.5128  0.4671
  325MOL0     H44789   2.276   8.960   5.024  0.7734 -0.7093 -1.8344
  325MOL0     H44790   2.275   8.813   5.114  2.4666 -2.8711 -0.1157
  325MOL0     H44791   2.521   8.953   5.051 -1.0423 -0.8289 -0.3287
  325MOL0     H44792   2.503   8.825   5.174  0.7372  1.0978  2.3579
  325MOL0     H44793   2.358   9.084   5.167  1.3510 -0.5263 -1.9433
  325MOL0     H44794   2.343   8.961   5.291 -0.3259  0.0005 -0.8543
  325MOL0     H44795   2.595   9.007   5.346  0.6566  0.7046  2.4793
  325MOL0     H44796   2.456   9.101   5.411 -1.3787  1.6309 -1.0903
  325MOL0     H44797   2.675   9.204   5.326 -0.4005  2.3798  0.1452
  325MOL0     H44798   2.599   9.197   5.165 -0.8200 -2.3152 -0.9302
  325MOL0     H44799   2.306   9.289   5.241 -3.9814  2.2753  1.8068
  325MOL0     H44800   2.294   9.667   5.427  2.4411  0.1237 -1.2571
  325MOL0     H44801   2.167   9.550   5.389 -2.1009  2.4688 -3.2931
  325MOL0     H44802   2.191   9.585   5.157 -1.1624 -0.9187  1.0463
  325MOL0     H44803   2.144   9.722   5.244 -1.9227 -1.5334 -3.6870
  325MOL0     H44804   2.405   9.813   5.242  2.8043  1.2811 -2.2816
  325MOL0     H44805   2.407   9.691   5.121 -1.9770 -1.0821  1.0236
  325MOL0     H44806   2.229   9.930   5.151  0.5768  0.7626 -0.5006
  325MOL0     H44807   2.339   9.911   5.017 -1.6146 -0.9181 -2.9129
  325MOL0     H44808   2.013   9.663   4.845 -2.1257 -0.0385 -1.8884
  325MOL0     H44809   1.891   9.743   4.536 -0.8718  0.5249  0.0888
  325MOL0     H44810   1.766   9.770   4.642 -1.3469 -0.9368  0.6555
  325MOL0     H44811   1.869   9.637   4.675  0.2512  0.6648 -2.1137
  325MOL0     H44812   1.940  10.375   4.568  3.0639 -0.6259 -0.7685
  325MOL0     H44813   1.834  10.552   4.445 -2.5699 -0.1399  1.6590
  325MOL0     H44814   1.539  10.442   4.316 -0.0198  0.5711  0.6826
  325MOL0     H44815   1.597  10.580   4.395  1.9929 -1.2753  0.0642
  325MOL0     H44816   1.501  10.709   4.176  1.2644  0.5699 -0.9631
  325MOL0     H44817   1.484  10.565   4.099  2.0280 -0.5220  0.5218
  325MOL0     H44818   1.341  10.690   4.326  2.6410  0.0223 -0.0174
  325MOL0     H44819   1.315  10.510   4.323  2.3414 -0.7390  0.0535
  325MOL0     H44820   1.145  10.538   4.160  1.2036 -1.1508  3.2013
  325MOL0     H44821   1.264  10.616   4.052  1.2236 -2.5007 -0.0619
  325MOL0     H44822   1.206  10.845   4.149 -1.4673  0.9767 -2.5068
  325MOL0     H44823   1.084  10.756   4.067 -0.6275 -0.0429  0.6254
  325MOL0     H44824   0.998  10.879   4.269  0.4184  0.2585  1.4054
  325MOL0     H44825   1.114  10.790   4.375 -1.1280 -0.7117  0.7045
  325MOL0     H44826   1.004  10.604   4.378  0.7143 -1.8215  0.8744
  325MOL0     H44827   0.918  10.623   4.212  0.4222  2.0588 -0.4553
  325MOL0     H44828   0.745  10.651   4.381 -0.8930  1.3005  2.7806
  325MOL0     H44829   0.786  10.804   4.325 -1.6952 -2.1129 -2.3885
  325MOL0     H44830   1.741  10.276   4.137 -1.3057 -0.1726  0.3230
  325MOL0     H44831   1.848  10.088   4.270 -1.4744 -0.7301  1.5032
  325MOL0     H44832   2.099  10.136   4.707 -0.1050 -0.0433  1.3049
  325MOL0     H44833   2.219  10.050   4.894  0.3661 -0.8546  1.2536
  325MOL0     H44834   2.304   9.266   4.560  0.9249  2.8797 -0.4440
  325MOL0     H44835   2.462   9.441   4.448  0.9615 -1.0053 -2.0698
  325MOL0     H44836   2.735   9.681   4.366 -0.3104 -0.9473 -0.0840
  325MOL0     H44837   2.866   9.865   4.259  0.2269  0.1075  0.0717
  325MOL0     H44838   3.263   9.826   4.293 -0.1142  0.5718 -0.6594
  325MOL0     H44839   3.319   9.851   4.143  0.3961 -1.1272  1.2481
  325MOL0     H44840   3.325  10.041   4.272  1.0385  1.8177 -2.2241
  325MOL0     H44841   3.161  10.032   4.336 -0.2114 -0.7287  0.1571
  325MOL0     H44842   3.067  10.087   4.110  0.8314  0.1223 -3.6940
  325MOL0     H44843   3.181  10.215   4.164 -0.9028 -1.0203  2.4272
  325MOL0     H44844   3.360  10.061   4.024  0.2576 -0.8765 -3.0224
  325MOL0     H44845   3.256  10.193   3.952 -2.3389 -0.3648 -0.3866
  325MOL0     H44846   3.146   9.825   3.773  3.5109 -2.3368  1.6346
  325MOL0     H44847   3.187   9.599   4.189 -1.6826  0.3584 -2.1089
  325MOL0     H44848   3.072   9.333   4.232  1.5871 -0.7212  0.1440
  325MOL0     H44849   3.213   9.398   4.310  0.6270 -2.2487 -2.5814
  325MOL0     H44850   3.076   9.335   4.415  0.4612  0.9198  0.1178
  326MOL0     O44851   5.028   9.580   7.593  0.7444  0.5626  0.0162
  326MOL0     C44852   4.932   9.655   7.559  1.2551  0.4543 -0.3748
  326MOL0     O44853   4.805   9.655   7.616 -0.0045  0.4228  0.0589
  326MOL0     C44854   4.779   9.569   7.717  0.2259 -0.4817  0.3867
  326MOL0     C44855   4.794   9.428   7.716 -0.1824 -0.4449  0.7366
  326MOL0     C44856   4.743   9.348   7.818  0.2391 -0.5054  0.7491
  326MOL0     C44857   4.680   9.402   7.930  0.4690 -0.5934 -0.2899
  326MOL0     O44858   4.660   9.315   8.037 -0.2798  0.1351  0.0012
  326MOL0     C44859   4.678   9.377   8.160  0.1078 -1.5431  0.0549
  326MOL0     C44860   4.651   9.281   8.280  0.0943 -0.0324  0.1538
  326MOL0     C44861   4.555   9.342   8.385 -0.1659 -0.4261  0.4702
  326MOL0     C44862   4.638   9.438   8.472  0.2728 -0.0379  0.7602
  326MOL0     C44863   4.568   9.454   8.605  0.0307 -0.1209  0.1650
  326MOL0     C44864   4.663   9.497   8.717 -0.5836  0.0532  0.0685
  326MOL0     C44865   4.571   9.527   8.837 -0.9664  0.2862  0.1166
  326MOL0     C44866   4.532   9.669   8.845 -0.1079 -0.1025  0.1201
  326MOL0     N44867   4.642   9.759   8.878  0.3580  0.8486 -0.2322
  326MOL0     C44868   4.749   9.736   8.963  0.4002  0.2902  0.4084
  326MOL0     C44869   4.828   9.843   8.963 -0.0736 -0.8326  0.2653
  326MOL0     C44870   4.962   9.876   9.027  0.5239 -0.3144  0.1901
  326MOL0     C44871   4.957   9.908   9.176 -0.3485  0.3680 -0.2314
  326MOL0     C44872   4.889  10.048   9.203 -0.3533 -0.5843  0.0524
  326MOL0     C44873   4.967  10.095   9.328  0.1411 -1.1541 -0.6495
  326MOL0     O44874   4.937  10.238   9.359 -0.0787  0.1798 -0.4059
  326MOL0     C44875   5.029  10.346   9.334 -0.0199 -0.1607 -0.2300
  326MOL0     C44876   5.068  10.428   9.437  0.4227 -0.5906 -0.0999
  326MOL0     C44877   5.158  10.538   9.424  0.0367 -0.6086 -1.0390
  326MOL0     C44878   5.190  10.613   9.549  0.5110  0.5146  0.4762
  326MOL0     C44879   5.230  10.555   9.305  1.0052 -0.1767  0.6701
  326MOL0     C44880   5.343  10.650   9.280 -1.0065 -0.4702 -0.5436
  326MOL0     O44881   5.447  10.615   9.198 -0.1857  0.9429  1.1888
  326MOL0     C44882   5.508  10.710   9.111  0.3653 -0.3251  0.3585
  326MOL0     C44883   5.617  10.665   9.033  0.3157 -0.5853  0.1759
  326MOL0     C44884   5.679  10.745   8.943 -0.6908  0.0645 -0.0250
  326MOL0     C44885   5.649  10.882   8.932  1.1363 -0.2192  0.2127
  326MOL0     O44886   5.715  10.955   8.832 -0.4597  0.3984  0.6563
  326MOL0     C44887   5.672  11.088   8.818 -0.2328 -0.6906 -0.3924
  326MOL0     C44888   5.662  11.121   8.659 -0.2204 -0.9110  0.4730
  326MOL0     C44889   5.558  11.041   8.585 -0.2205  0.1232 -0.4205
  326MOL0     C44890   5.518  11.103   8.453 -0.2959  0.2715  0.3067
  326MOL0     C44891   5.396  11.035   8.382 -0.0251  0.2168  0.4248
  326MOL0     C44892   5.443  10.904   8.312  0.6828 -0.1786 -1.2983
  326MOL0     C44893   5.317  10.873   8.240  0.2758 -0.0184  0.0122
  326MOL0     C44894   5.329  10.736   8.178 -0.3726  0.4503  0.6902
  326MOL0    Cl44895   5.327  10.614   8.307 -0.0241 -0.1877 -0.2261
  326MOL0     C44896   5.545  10.928   9.013  0.3733  0.0549  0.8700
  326MOL0     C44897   5.468  10.845   9.095 -0.7486  0.7249  0.5655
  326MOL0     O44898   5.335  10.760   9.340 -0.6686 -0.6874 -0.1525
  326MOL0     C44899   5.187  10.472   9.195  0.8631 -0.1251 -0.6130
  326MOL0     C44900   5.093  10.364   9.210  0.4495  0.0095 -0.1679
  326MOL0     N44901   4.755   9.938   8.892  0.3453  0.2242  0.5135
  326MOL0     N44902   4.657   9.879   8.838  0.0104 -0.8963 -0.2692
  326MOL0     C44903   4.668   9.546   7.937 -0.0542  0.8425 -0.6146
  326MOL0     C44904   4.717   9.623   7.831 -0.2733 -0.3916  0.9915
  326MOL0     C44905   4.937   9.732   7.430 -0.3055 -0.2853  0.8250
  326MOL0     C44906   4.819   9.787   7.357  0.0178 -0.2707 -0.3350
  326MOL0     C44907   4.825   9.852   7.226 -0.3095  0.6480  0.0252
  326MOL0     C44908   4.946   9.882   7.175 -0.1696 -0.6828  0.4657
  326MOL0     O44909   4.950   9.932   7.042 -0.1353 -0.1860  0.3943
  326MOL0     C44910   5.064   9.907   6.950  0.0690  0.5411 -0.3452
  326MOL0     C44911   5.060   9.763   6.899  0.2931  0.0314  0.2587
  326MOL0     C44912   5.188   9.710   6.838  0.4091 -1.5588 -0.6687
  326MOL0     C44913   5.180   9.695   6.686  0.5591 -0.6138 -0.0430
  326MOL0     C44914   5.120   9.567   6.643  0.2772  0.1693 -0.1678
  326MOL0     C44915   5.055   9.473   6.623 -0.1407  1.1831  0.2969
  326MOL0     C44916   5.062   9.838   7.246  0.1294 -0.3292 -0.5399
  326MOL0     C44917   5.059   9.762   7.362  0.7008  0.2723 -0.8938
  326MOL0     C44918   5.191   9.753   7.439 -0.3068 -0.4777 -0.5323
  326MOL0     H44919   4.841   9.373   7.635 -0.6352  1.4252 -0.8935
  326MOL0     H44920   4.769   9.243   7.818  3.1641  0.1277  0.0964
  326MOL0     H44921   4.605   9.458   8.172  0.5073 -0.4684 -3.5958
  326MOL0     H44922   4.778   9.419   8.176 -1.4739  2.9474 -0.2539
  326MOL0     H44923   4.587   9.207   8.231  2.6759  0.7071 -5.0091
  326MOL0     H44924   4.740   9.244   8.331  1.6161  0.2228 -2.1654
  326MOL0     H44925   4.463   9.381   8.340 -1.8965 -2.4986  1.9671
  326MOL0     H44926   4.525   9.261   8.452 -0.2464  0.2427  1.2519
  326MOL0     H44927   4.740   9.401   8.485  0.3109 -0.3476 -0.3517
  326MOL0     H44928   4.638   9.540   8.432 -1.0661 -0.2394  0.1693
  326MOL0     H44929   4.516   9.363   8.633  1.1719 -1.0213 -0.5443
  326MOL0     H44930   4.489   9.526   8.584  2.3119  1.8877 -2.2926
  326MOL0     H44931   4.737   9.418   8.736  0.8696  1.3212 -0.0963
  326MOL0     H44932   4.728   9.576   8.678 -0.9728 -1.1828 -3.3877
  326MOL0     H44933   4.619   9.482   8.924  0.2804 -0.4498 -0.9143
  326MOL0     H44934   4.475   9.477   8.822 -0.8875  0.7248 -2.4856
  326MOL0     H44935   4.488   9.709   8.754  1.4403 -0.5008 -0.8348
  326MOL0     H44936   4.447   9.664   8.914 -0.5234 -1.1636 -0.4481
  326MOL0     H44937   4.755   9.654   9.034  1.0423 -0.2061 -0.2113
  326MOL0     H44938   5.003   9.968   8.984 -1.1747  0.0817 -0.6929
  326MOL0     H44939   5.026   9.795   8.994 -0.4535  0.0526 -2.9469
  326MOL0     H44940   4.906   9.823   9.223 -0.6192  1.1009  0.8266
  326MOL0     H44941   5.057   9.909   9.219 -1.0360  0.0518  1.4591
  326MOL0     H44942   4.894  10.114   9.116 -1.2205 -1.3884 -0.6430
  326MOL0     H44943   4.782  10.035   9.221 -1.3015  2.8140 -2.0529
  326MOL0     H44944   4.929  10.035   9.410  0.0678 -0.0164  0.1800
  326MOL0     H44945   5.074  10.082   9.309 -0.6653 -5.4605 -3.5821
  326MOL0     H44946   5.025  10.416   9.536  4.4788 -0.4477  1.8883
  326MOL0     H44947   5.175  10.721   9.537 -0.2309  0.2139 -1.8141
  326MOL0     H44948   5.292  10.586   9.576 -0.3120 -4.0871 -0.1257
  326MOL0     H44949   5.124  10.574   9.627 -2.6454 -2.3746 -3.1931
  326MOL0     H44950   5.640  10.559   9.044 -0.3659 -0.7693 -0.1120
  326MOL0     H44951   5.771  10.709   8.897  0.2161  1.0323  0.9807
  326MOL0     H44952   5.579  11.120   8.866  1.3603  3.8261  0.1683
  326MOL0     H44953   5.755  11.146   8.858  1.0085 -0.5306 -2.9878
  326MOL0     H44954   5.634  11.225   8.645 -3.9922 -1.9609 -1.0976
  326MOL0     H44955   5.764  11.103   8.622  0.4959  1.2665  1.2516
  326MOL0     H44956   5.463  11.042   8.639 -2.0584 -0.1761 -3.4031
  326MOL0     H44957   5.588  10.936   8.578 -0.5675  0.0441 -0.8002
  326MOL0     H44958   5.605  11.091   8.388  1.6670  2.0458  2.4169
  326MOL0     H44959   5.488  11.206   8.474 -0.8024 -0.3077  2.8079
  326MOL0     H44960   5.305  11.019   8.441 -0.6920 -3.8281 -1.3742
  326MOL0     H44961   5.358  11.111   8.313 -0.9628 -0.2378  0.4213
  326MOL0     H44962   5.471  10.827   8.384 -1.4781  0.1211 -0.0446
  326MOL0     H44963   5.522  10.917   8.238  1.8611  1.2222  0.1371
  326MOL0     H44964   5.305  10.944   8.157  0.5466  0.9899  0.8163
  326MOL0     H44965   5.230  10.868   8.305  0.5985  1.2522  0.5775
  326MOL0     H44966   5.421  10.727   8.119 -0.5614 -0.2972  0.4923
  326MOL0     H44967   5.245  10.712   8.113 -0.5281  0.2934  0.9471
  326MOL0     H44968   5.506  11.030   9.019 -2.0387 -0.8225  1.1474
  326MOL0     H44969   5.395  10.900   9.153 -1.5686  1.1528 -0.8131
  326MOL0     H44970   5.248  10.477   9.105 -0.0698 -2.6607 -1.4939
  326MOL0     H44971   5.074  10.299   9.126 -0.8077 -0.4054  0.4204
  326MOL0     H44972   4.622   9.591   8.024  1.6409 -0.7748  1.2055
  326MOL0     H44973   4.696   9.729   7.835 -0.3478 -0.3159 -0.6265
  326MOL0     H44974   4.721   9.769   7.401 -1.0686 -2.6209 -3.3448
  326MOL0     H44975   4.739   9.882   7.167 -3.4953 -1.8578  2.9102
  326MOL0     H44976   5.063   9.987   6.875 -2.0786  0.5246 -0.4125
  326MOL0     H44977   5.158   9.923   7.002  0.1881  1.0891 -0.7200
  326MOL0     H44978   4.973   9.769   6.833  2.0462 -0.4307 -2.2417
  326MOL0     H44979   5.052   9.694   6.983  0.5515  1.2761  1.3480
  326MOL0     H44980   5.278   9.757   6.876 -0.0288 -0.6745 -0.7071
  326MOL0     H44981   5.201   9.606   6.871 -1.4175 -0.3770  4.8354
  326MOL0     H44982   5.284   9.707   6.655  0.2735  0.7758 -0.5396
  326MOL0     H44983   5.130   9.784   6.646 -0.9671 -1.6314 -0.4855
  326MOL0     H44984   5.004   9.382   6.598  0.3510  0.5955  1.3314
  326MOL0     H44985   5.163   9.857   7.211  1.6204  0.7048  3.7505
  326MOL0     H44986   5.196   9.819   7.526 -4.5117 -3.0049  1.9353
  326MOL0     H44987   5.205   9.652   7.480  2.9313 -1.9053 -4.4557
  326MOL0     H44988   5.279   9.775   7.377  1.9727 -2.3103  1.7850
  327MOL0     O44989   2.949  10.101   1.389  0.7523  0.2606  0.6993
  327MOL0     C44990   2.977  10.039   1.284  0.1674 -0.0928 -0.5603
  327MOL0     O44991   2.977  10.095   1.164 -0.2734 -0.4813  0.6428
  327MOL0     C44992   2.878  10.193   1.142 -1.1994 -1.2553  0.5595
  327MOL0     C44993   2.925  10.323   1.104 -0.5758  0.3414  0.0206
  327MOL0     C44994   2.839  10.425   1.074  0.4419 -0.7387  0.3175
  327MOL0     C44995   2.700  10.408   1.090 -0.3404 -0.6250  0.0219
  327MOL0     O44996   2.610  10.500   1.043 -0.4627  0.3795  0.3675
  327MOL0     C44997   2.632  10.638   1.072  0.0470  0.5725 -0.0242
  327MOL0     C44998   2.566  10.727   0.964 -0.0396  0.9914 -0.4140
  327MOL0     C44999   2.580  10.881   0.995  0.5624 -1.3272 -0.0492
  327MOL0     C45000   2.484  10.971   0.907 -0.9739  0.1758  0.2091
  327MOL0     C45001   2.518  11.125   0.921  0.5722 -0.9004 -0.0763
  327MOL0     C45002   2.433  11.218   0.820 -0.0315  0.7281  0.4780
  327MOL0     C45003   2.280  11.218   0.830  0.3638 -0.4371  0.4888
  327MOL0     C45004   2.203  11.338   0.882  0.5569 -0.3002 -0.0352
  327MOL0     N45005   2.186  11.331   1.029 -0.1994 -0.0869  0.6353
  327MOL0     C45006   2.260  11.416   1.113  0.0380 -0.4865  0.0563
  327MOL0     C45007   2.244  11.363   1.239  0.6898 -0.5169  0.7379
  327MOL0     C45008   2.307  11.411   1.374  0.7847  0.1084 -0.0345
  327MOL0     C45009   2.313  11.286   1.470 -0.7510 -0.3249 -1.2876
  327MOL0     C45010   2.436  11.193   1.454 -0.2619 -0.2612  0.1267
  327MOL0     C45011   2.486  11.167   1.304 -0.9823  0.3580 -0.7861
  327MOL0     O45012   2.593  11.070   1.313  0.4848  1.1235  0.4304
  327MOL0     C45013   2.728  11.092   1.292  0.3233 -0.2498  0.3910
  327MOL0     C45014   2.812  10.980   1.277  1.1364 -0.1765 -0.1636
  327MOL0     C45015   2.951  10.981   1.270 -0.1025  0.2363  0.3281
  327MOL0     C45016   3.007  10.841   1.273 -0.5951 -0.6012 -0.7468
  327MOL0     C45017   3.008  11.112   1.275 -0.1746 -0.0166 -0.3156
  327MOL0     C45018   3.148  11.122   1.262  0.1831  1.0572 -0.0234
  327MOL0     O45019   3.205  11.227   1.327 -0.0952 -0.7503  0.4504
  327MOL0     C45020   3.325  11.264   1.271 -0.6821 -0.0991 -0.0675
  327MOL0     C45021   3.348  11.392   1.216  0.6586  0.6511  0.1339
  327MOL0     C45022   3.466  11.439   1.174 -1.0710  0.3269  0.2739
  327MOL0     C45023   3.582  11.364   1.197  0.4501  0.1414 -0.1599
  327MOL0     O45024   3.710  11.416   1.173  0.7130  0.0513  1.2320
  327MOL0     C45025   3.729  11.421   1.027  0.0792  0.7770 -0.6676
  327MOL0     C45026   3.694  11.300   0.946  0.1515 -0.0986  0.1180
  327MOL0     C45027   3.760  11.178   1.002 -0.8175  0.8047  0.1409
  327MOL0     C45028   3.802  11.085   0.885 -0.1406  0.1354 -0.5563
  327MOL0     C45029   3.840  10.949   0.948 -0.6245  0.5616  0.9415
  327MOL0     C45030   3.710  10.876   0.971  0.4409  0.1584  0.1784
  327MOL0     C45031   3.741  10.741   1.026  0.4776  0.0916 -0.5784
  327MOL0     C45032   3.649  10.700   1.138  0.5907 -0.4690 -0.9175
  327MOL0    Cl45033   3.736  10.784   1.285  0.0028  0.3300  0.2430
  327MOL0     C45034   3.564  11.237   1.259 -0.7829  0.7853  0.6117
  327MOL0     C45035   3.436  11.189   1.295  1.1405  0.4435 -0.8492
  327MOL0     O45036   3.204  11.060   1.176  0.1530 -0.4992  0.7426
  327MOL0     C45037   2.931  11.226   1.279  0.0066  0.8819 -0.6827
  327MOL0     C45038   2.791  11.210   1.295  0.0967  0.1678  0.3598
  327MOL0     N45039   2.146  11.257   1.229  0.3198  0.5768 -0.4954
  327MOL0     N45040   2.114  11.239   1.105  0.0409 -0.1215  0.1805
  327MOL0     C45041   2.650  10.287   1.125  0.0045 -0.3802 -0.5821
  327MOL0     C45042   2.740  10.181   1.162 -0.2784  0.2096  0.2192
  327MOL0     C45043   3.041   9.902   1.274  0.4209 -0.6647 -0.6604
  327MOL0     C45044   3.124   9.862   1.169 -0.0038 -0.6452 -0.1806
  327MOL0     C45045   3.186   9.741   1.171 -0.8661  0.5947 -0.2405
  327MOL0     C45046   3.173   9.650   1.271 -1.2261  0.4687 -0.6404
  327MOL0     O45047   3.241   9.531   1.266  0.7075 -0.3035 -0.3436
  327MOL0     C45048   3.179   9.427   1.194  0.3823  0.2396  0.0252
  327MOL0     C45049   3.245   9.299   1.243 -0.2929 -0.3005  0.0198
  327MOL0     C45050   3.390   9.301   1.226 -0.3997  0.2006  0.0529
  327MOL0     C45051   3.465   9.172   1.271  0.9218 -0.5299  0.2514
  327MOL0     C45052   3.439   9.140   1.407 -0.6693  0.2614  0.2882
  327MOL0     C45053   3.397   9.110   1.515  0.1486 -0.3188 -0.1001
  327MOL0     C45054   3.085   9.685   1.379 -0.5676 -1.0657 -0.4535
  327MOL0     C45055   3.031   9.816   1.387 -0.0458 -0.3079 -0.9411
  327MOL0     C45056   2.954   9.859   1.513 -0.7894 -0.2770  0.4808
  327MOL0     H45057   3.032  10.336   1.102 -0.6063  3.3443  4.0274
  327MOL0     H45058   2.879  10.522   1.046 -0.6759 -0.3014  0.1789
  327MOL0     H45059   2.735  10.669   1.090  0.2609  0.5950 -1.2431
  327MOL0     H45060   2.577  10.654   1.166  0.1166 -1.6484  0.4605
  327MOL0     H45061   2.596  10.714   0.860 -2.1428  2.2202 -1.2295
  327MOL0     H45062   2.458  10.714   0.963 -0.3467  3.0917 -2.5504
  327MOL0     H45063   2.543  10.896   1.096  0.0032  1.8423 -0.6071
  327MOL0     H45064   2.680  10.923   0.983  0.2246  0.3009  2.3055
  327MOL0     H45065   2.507  10.935   0.806 -0.1286 -0.0164  0.4617
  327MOL0     H45066   2.379  10.961   0.935 -0.8192  0.9146  1.0805
  327MOL0     H45067   2.617  11.135   0.877  1.1697  0.3652  1.4686
  327MOL0     H45068   2.505  11.151   1.027  3.2673 -3.7939  1.1241
  327MOL0     H45069   2.464  11.323   0.823 -2.9212  1.6258  2.0008
  327MOL0     H45070   2.452  11.162   0.727  0.8724 -2.2538  2.3204
  327MOL0     H45071   2.243  11.124   0.872  0.3176 -1.9512 -2.6608
  327MOL0     H45072   2.247  11.211   0.726 -0.1736 -0.7393  0.6791
  327MOL0     H45073   2.249  11.433   0.853  2.8739 -0.3500  2.9983
  327MOL0     H45074   2.102  11.329   0.841  0.1076  0.3446  0.8856
  327MOL0     H45075   2.308  11.509   1.087 -0.7954  0.2477  1.0450
  327MOL0     H45076   2.228  11.477   1.410 -0.4214 -0.8509 -0.8244
  327MOL0     H45077   2.402  11.463   1.360 -0.0582  1.8896  0.5938
  327MOL0     H45078   2.325  11.332   1.569  1.2832  0.8078 -1.9908
  327MOL0     H45079   2.221  11.227   1.466 -1.1364  0.2320 -0.8281
  327MOL0     H45080   2.520  11.234   1.511 -1.7074  1.5210  1.0854
  327MOL0     H45081   2.412  11.099   1.505  1.8032  0.0016  1.7232
  327MOL0     H45082   2.401  11.143   1.240 -1.3034  1.3816 -0.7522
  327MOL0     H45083   2.536  11.257   1.267  3.2158 -0.4709  2.0836
  327MOL0     H45084   2.761  10.885   1.287 -1.8432  1.4730  1.5840
  327MOL0     H45085   2.963  10.784   1.355 -1.0078  1.1547  0.2905
  327MOL0     H45086   3.114  10.856   1.288  0.1329 -1.3946 -4.2254
  327MOL0     H45087   2.987  10.797   1.174  0.5553 -0.5493 -1.0188
  327MOL0     H45088   3.252  11.437   1.193  0.2805 -0.7070 -1.1162
  327MOL0     H45089   3.462  11.533   1.119 -0.2255 -0.7512 -1.7540
  327MOL0     H45090   3.673  11.510   0.995 -2.7025 -0.1041  1.3937
  327MOL0     H45091   3.834  11.448   1.013  0.2780  1.9131  2.3205
  327MOL0     H45092   3.586  11.284   0.947  0.0978  0.2823  0.5733
  327MOL0     H45093   3.738  11.324   0.848 -0.5162 -1.0719 -0.4367
  327MOL0     H45094   3.675  11.129   1.050 -0.4692 -1.4901 -1.4241
  327MOL0     H45095   3.834  11.205   1.078  1.5907 -0.5391 -1.5841
  327MOL0     H45096   3.883  11.125   0.824  1.9358  0.3709  2.1713
  327MOL0     H45097   3.739  11.073   0.797  1.4004  1.4310 -1.8970
  327MOL0     H45098   3.903  10.895   0.877 -0.9118 -0.9551  1.7702
  327MOL0     H45099   3.890  10.951   1.046  0.7447  2.2565  0.2538
  327MOL0     H45100   3.651  10.873   0.879  1.1365 -3.7258 -0.3129
  327MOL0     H45101   3.645  10.926   1.043  1.3474  2.7901 -0.7069
  327MOL0     H45102   3.843  10.730   1.066 -0.3323 -0.6439  1.4060
  327MOL0     H45103   3.727  10.664   0.950 -0.2106 -0.3461 -0.0214
  327MOL0     H45104   3.662  10.592   1.147 -1.0649 -0.5633  1.0861
  327MOL0     H45105   3.547  10.735   1.116 -1.2107 -1.8007  3.9246
  327MOL0     H45106   3.657  11.185   1.279 -0.7727  1.7166  3.4598
  327MOL0     H45107   3.428  11.094   1.347 -0.9102  2.1050  2.1791
  327MOL0     H45108   2.980  11.323   1.273  0.7488  0.6505  1.1042
  327MOL0     H45109   2.738  11.305   1.303  0.4767  0.5950 -1.6718
  327MOL0     H45110   2.545  10.271   1.145 -0.2584  3.0342  1.5492
  327MOL0     H45111   2.703  10.082   1.187 -1.5387  1.2141  2.6148
  327MOL0     H45112   3.126   9.920   1.077  1.2080 -0.9267 -0.3464
  327MOL0     H45113   3.244   9.715   1.083  1.7957  2.5165  0.8181
  327MOL0     H45114   3.071   9.437   1.210  0.6082  2.0403  0.6965
  327MOL0     H45115   3.190   9.447   1.087 -0.1077 -0.1537 -0.1036
  327MOL0     H45116   3.201   9.211   1.192 -1.2618 -0.2435  0.7237
  327MOL0     H45117   3.227   9.298   1.350  1.2616  0.9114  0.3216
  327MOL0     H45118   3.405   9.309   1.117 -0.0024  0.2988  0.1113
  327MOL0     H45119   3.434   9.390   1.273  2.2158 -1.7454  1.5542
  327MOL0     H45120   3.566   9.186   1.233 -1.1743 -0.2220 -6.6459
  327MOL0     H45121   3.434   9.086   1.212 -0.5961 -1.0616  1.7192
  327MOL0     H45122   3.353   9.075   1.606 -1.1470  1.3968 -0.0179
  327MOL0     H45123   3.080   9.607   1.455  1.0555  0.0849  0.9124
  327MOL0     H45124   2.942   9.775   1.582 -1.6306  0.9121  1.8513
  327MOL0     H45125   3.004   9.937   1.571 -3.5663  3.2591 -1.4469
  327MOL0     H45126   2.849   9.878   1.485 -1.0249 -2.2543 -0.1475
  328MOL0     O45127   9.320   4.631  10.622 -0.0023 -0.5985  0.2348
  328MOL0     C45128   9.324   4.550  10.526 -0.8580 -0.2933 -0.6656
  328MOL0     O45129   9.243   4.546  10.409 -0.6222 -0.1365  0.3724
  328MOL0     C45130   9.126   4.604  10.409 -0.3463 -0.1145  0.3201
  328MOL0     C45131   9.080   4.640  10.285 -0.2350 -1.0459  0.0799
  328MOL0     C45132   8.956   4.707  10.268 -0.5252 -0.4401  0.0635
  328MOL0     C45133   8.869   4.723  10.369  0.2306  0.3390 -0.5968
  328MOL0     O45134   8.738   4.764  10.339  0.0340 -0.3239 -0.0440
  328MOL0     C45135   8.660   4.812  10.449  0.4539 -0.3329  0.0577
  328MOL0     C45136   8.543   4.905  10.406  0.4142 -0.7137  1.0255
  328MOL0     C45137   8.452   4.854  10.296  0.4478 -0.5348  0.2895
  328MOL0     C45138   8.299   4.864  10.317  0.7619  0.1913 -0.2140
  328MOL0     C45139   8.231   5.003  10.288  0.0018 -0.4418  0.4162
  328MOL0     C45140   8.223   5.018  10.140 -1.1993 -0.3602 -0.6521
  328MOL0     C45141   8.109   4.941  10.065  1.2079 -0.8340 -0.6305
  328MOL0     C45142   8.085   4.972   9.922  0.0695 -0.0192  0.2664
  328MOL0     N45143   7.993   4.880   9.860 -0.0633  0.7550 -0.9998
  328MOL0     C45144   7.993   4.853   9.725 -0.6228 -0.2214  0.5405
  328MOL0     C45145   7.879   4.787   9.699 -0.1020  0.1784  0.0494
  328MOL0     C45146   7.844   4.720   9.565  0.1099  0.2251 -1.1105
  328MOL0     C45147   7.821   4.818   9.454 -0.1316  0.2110 -0.0079
  328MOL0     C45148   7.873   4.754   9.325 -0.4893 -0.1947  0.4250
  328MOL0     C45149   7.961   4.839   9.234  0.1237 -1.4023 -0.2132
  328MOL0     O45150   8.044   4.917   9.323  0.1324  0.6791  0.5044
  328MOL0     C45151   8.125   5.025   9.281  0.5723  0.2871 -0.2699
  328MOL0     C45152   8.183   5.101   9.380  0.3239 -1.1912 -0.8336
  328MOL0     C45153   8.272   5.206   9.357  1.0442  0.9115 -0.1718
  328MOL0     C45154   8.358   5.249   9.472 -0.0478 -0.9157 -0.1941
  328MOL0     C45155   8.273   5.262   9.222  0.1772  0.1372  0.2487
  328MOL0     C45156   8.380   5.358   9.176  0.8347 -0.6138  0.3583
  328MOL0     O45157   8.459   5.438   9.261  0.0440  0.0198 -0.3843
  328MOL0     C45158   8.542   5.545   9.230  0.6520  0.3076  0.7229
  328MOL0     C45159   8.597   5.602   9.342 -0.5091  0.4011  0.1206
  328MOL0     C45160   8.657   5.731   9.321  1.1337 -0.0814 -0.2794
  328MOL0     C45161   8.697   5.774   9.199  0.0438 -0.6764  0.5871
  328MOL0     O45162   8.771   5.885   9.189  0.3952 -0.3943  0.4424
  328MOL0     C45163   8.894   5.873   9.118 -0.9440 -0.6167 -0.0366
  328MOL0     C45164   8.991   5.861   9.228 -0.4257  0.8799 -0.0943
  328MOL0     C45165   9.139   5.843   9.171 -0.3809  0.1853  0.5821
  328MOL0     C45166   9.245   5.770   9.254 -0.5353 -1.0848 -0.4609
  328MOL0     C45167   9.381   5.792   9.197 -0.3100 -0.3951  1.0752
  328MOL0     C45168   9.402   5.701   9.076 -1.2981  0.0985 -0.2802
  328MOL0     C45169   9.556   5.708   9.037 -0.0321 -0.0618  0.2675
  328MOL0     C45170   9.614   5.558   9.007  0.5238  0.3506  0.4881
  328MOL0    Cl45171   9.505   5.481   8.890  0.0108  0.1555  0.8916
  328MOL0     C45172   8.656   5.717   9.088  0.3361  0.4128 -0.9026
  328MOL0     C45173   8.574   5.601   9.105 -0.1246 -1.0483 -0.5609
  328MOL0     O45174   8.380   5.369   9.057 -0.5307 -0.7605  0.2822
  328MOL0     C45175   8.197   5.188   9.122 -0.2836 -0.1271 -0.1171
  328MOL0     C45176   8.130   5.066   9.147 -0.6822 -0.0469  0.0884
  328MOL0     N45177   7.813   4.778   9.815  0.3914 -0.5609  0.5684
  328MOL0     N45178   7.875   4.833   9.906  0.5875 -0.2575  0.7967
  328MOL0     C45179   8.907   4.666  10.494 -0.0396 -0.4361  0.3661
  328MOL0     C45180   9.034   4.608  10.510  0.7407  0.1357 -0.3699
  328MOL0     C45181   9.434   4.457  10.546 -0.3112 -0.2271 -0.8458
  328MOL0     C45182   9.513   4.465  10.667 -0.2030 -0.3760 -0.0931
  328MOL0     C45183   9.621   4.379  10.692 -0.3340  0.1860 -0.4501
  328MOL0     C45184   9.634   4.264  10.621 -0.2467 -0.0035  0.7857
  328MOL0     O45185   9.720   4.170  10.668 -0.5817  0.4628 -0.4688
  328MOL0     C45186   9.767   4.057  10.584 -0.1922  0.0092 -1.0819
  328MOL0     C45187   9.654   3.949  10.603 -1.3459 -0.2042 -0.5380
  328MOL0     C45188   9.711   3.805  10.606 -0.0331  0.3089 -0.1971
  328MOL0     C45189   9.591   3.711  10.579  0.4215  0.2675 -0.3339
  328MOL0     C45190   9.523   3.728  10.449  0.7522 -0.7269  0.7171
  328MOL0     C45191   9.460   3.748  10.347  0.3018  0.6216  1.0837
  328MOL0     C45192   9.568   4.258  10.496  0.0140  1.1188 -0.0259
  328MOL0     C45193   9.464   4.349  10.456 -0.2570 -0.4214 -1.0256
  328MOL0     C45194   9.393   4.318  10.328 -0.1040  1.0433  0.7535
  328MOL0     H45195   9.150   4.626  10.204  2.0288  2.7799  1.1258
  328MOL0     H45196   8.916   4.732  10.170  0.2517 -1.1854 -0.4472
  328MOL0     H45197   8.736   4.867  10.505 -1.6572 -0.5761  3.3873
  328MOL0     H45198   8.630   4.733  10.517 -0.3025  0.6195  0.8588
  328MOL0     H45199   8.477   4.927  10.490 -0.1370  2.5349 -0.1408
  328MOL0     H45200   8.582   4.999  10.366  1.7188 -2.5619 -2.5490
  328MOL0     H45201   8.482   4.907  10.205  0.1381  0.7484  0.9121
  328MOL0     H45202   8.478   4.749  10.281 -0.0376 -0.6325  0.1200
  328MOL0     H45203   8.261   4.793  10.243  0.6785 -1.0343  0.9751
  328MOL0     H45204   8.279   4.835  10.421 -3.1362  0.7590 -0.6401
  328MOL0     H45205   8.306   5.074  10.324  0.7165  0.0675 -1.9037
  328MOL0     H45206   8.130   5.004  10.329  0.6093 -2.0330  2.1124
  328MOL0     H45207   8.209   5.125  10.125  0.5742  0.4110  2.2972
  328MOL0     H45208   8.319   4.986  10.098  0.0063  2.5297 -0.3579
  328MOL0     H45209   8.015   4.959  10.117  0.0442 -0.9773 -2.5964
  328MOL0     H45210   8.125   4.833  10.067  1.3429 -0.9069 -3.0411
  328MOL0     H45211   8.033   5.068   9.915  0.7504  0.5418  2.2153
  328MOL0     H45212   8.179   4.978   9.865  0.6310 -2.6315  0.7857
  328MOL0     H45213   8.067   4.865   9.648 -0.5423 -2.4280  0.2136
  328MOL0     H45214   7.754   4.659   9.577  1.3085 -1.2911  0.7907
  328MOL0     H45215   7.938   4.665   9.549  0.6457  0.5827  0.5459
  328MOL0     H45216   7.713   4.832   9.442  0.3098  3.2928 -1.1432
  328MOL0     H45217   7.859   4.919   9.471  3.6931 -0.5508 -2.7576
  328MOL0     H45218   7.929   4.664   9.353 -0.0008 -0.4288 -1.1964
  328MOL0     H45219   7.783   4.720   9.271 -1.2242 -0.8150  1.9718
  328MOL0     H45220   8.020   4.767   9.177  0.7030 -1.0062 -0.1190
  328MOL0     H45221   7.898   4.899   9.168  0.2493 -0.2840  0.6610
  328MOL0     H45222   8.172   5.065   9.482 -2.4217 -0.1574 -0.6845
  328MOL0     H45223   8.380   5.162   9.534 -1.8175 -1.1983  0.1064
  328MOL0     H45224   8.305   5.319   9.537  0.7040 -0.3545 -0.1784
  328MOL0     H45225   8.453   5.297   9.446 -0.5116 -1.1446 -2.6316
  328MOL0     H45226   8.582   5.570   9.445  0.3790 -0.7566 -0.0787
  328MOL0     H45227   8.693   5.790   9.404  0.4921 -1.3965  0.9751
  328MOL0     H45228   8.894   5.786   9.052 -0.3438 -0.0029 -0.8779
  328MOL0     H45229   8.903   5.955   9.045 -2.7920 -0.1184  0.2470
  328MOL0     H45230   9.015   5.952   9.284  3.5356 -0.6839  1.1664
  328MOL0     H45231   8.952   5.778   9.288 -2.5281  1.5983 -0.4180
  328MOL0     H45232   9.169   5.947   9.154  0.1052  0.6033  3.4514
  328MOL0     H45233   9.138   5.782   9.081  0.1676 -1.8770  1.8998
  328MOL0     H45234   9.210   5.666   9.249  1.0580 -1.8071  1.6880
  328MOL0     H45235   9.239   5.811   9.355 -0.5558  0.6506 -1.1346
  328MOL0     H45236   9.381   5.898   9.172 -1.2650 -0.6257  0.0406
  328MOL0     H45237   9.464   5.759   9.261  0.1643  0.2279  0.7968
  328MOL0     H45238   9.345   5.730   8.987 -1.6877 -0.2628 -0.1497
  328MOL0     H45239   9.379   5.598   9.104 -1.5443  0.1167 -0.4067
  328MOL0     H45240   9.611   5.750   9.122 -1.7481  0.0753  1.3624
  328MOL0     H45241   9.571   5.765   8.945  3.9616 -0.9051  0.1858
  328MOL0     H45242   9.632   5.507   9.101  0.4572 -0.3827  0.1063
  328MOL0     H45243   9.712   5.567   8.960  1.2819  0.5943  2.0683
  328MOL0     H45244   8.666   5.758   8.988 -0.0199  0.3457 -0.9695
  328MOL0     H45245   8.543   5.546   9.016  2.5014 -3.1745 -0.2705
  328MOL0     H45246   8.199   5.219   9.018  2.8335  2.2138  0.4977
  328MOL0     H45247   8.084   5.022   9.059 -1.5943  0.2830  0.3970
  328MOL0     H45248   8.840   4.680  10.579 -1.2281 -0.6484 -0.5091
  328MOL0     H45249   9.044   4.558  10.606 -4.6793  2.0248  1.5926
  328MOL0     H45250   9.494   4.538  10.745  1.5026  2.3484 -2.0622
  328MOL0     H45251   9.677   4.391  10.784  0.1825  3.6798 -1.0842
  328MOL0     H45252   9.781   4.085  10.479 -2.4733 -2.4855 -2.1903
  328MOL0     H45253   9.865   4.025  10.622 -2.0308 -0.4717  3.9787
  328MOL0     H45254   9.595   3.955  10.511 -2.3193  0.0297  0.0867
  328MOL0     H45255   9.599   3.971  10.695 -2.2332 -0.6865 -0.9506
  328MOL0     H45256   9.789   3.785  10.532 -0.0173  1.6975 -0.5836
  328MOL0     H45257   9.739   3.785  10.709 -0.2087 -0.9799 -0.3864
  328MOL0     H45258   9.508   3.735  10.645 -1.0007 -0.2851 -1.8533
  328MOL0     H45259   9.620   3.606  10.592 -0.5725  0.1441  1.1150
  328MOL0     H45260   9.417   3.780  10.255  2.4244  0.7049  0.0442
  328MOL0     H45261   9.599   4.177  10.431  0.1258 -1.4444  3.0034
  328MOL0     H45262   9.417   4.395  10.254  0.0033 -0.5277 -0.9424
  328MOL0     H45263   9.434   4.224  10.289 -0.9682  0.8518  0.2767
  328MOL0     H45264   9.285   4.315  10.340  0.1172  0.3056  3.0556
  329MOL0     O45265   6.802   3.093   0.819  0.0328  0.2610 -0.2377
  329MOL0     C45266   6.695   3.144   0.797  0.4138  0.2613 -0.3668
  329MOL0     O45267   6.607   3.164   0.894  0.2733  0.5571 -0.5116
  329MOL0     C45268   6.655   3.137   1.017 -0.2294 -0.2687 -0.8686
  329MOL0     C45269   6.663   3.007   1.063  1.1016 -0.3836 -0.4148
  329MOL0     C45270   6.701   2.981   1.195  0.2382 -0.8018  0.3319
  329MOL0     C45271   6.744   3.092   1.281  0.2279 -0.0738 -0.8302
  329MOL0     O45272   6.782   3.069   1.411 -0.3610  0.2043  0.2203
  329MOL0     C45273   6.767   3.175   1.506  0.5667  0.2592 -0.1731
  329MOL0     C45274   6.800   3.119   1.645  0.3663  0.0265  0.3717
  329MOL0     C45275   6.684   3.023   1.701  0.2474 -0.1489 -0.4678
  329MOL0     C45276   6.757   2.903   1.763 -0.4248 -0.2517 -0.2177
  329MOL0     C45277   6.665   2.830   1.872 -0.0218  0.0910  1.1502
  329MOL0     C45278   6.751   2.750   1.970  0.3540 -0.1947  0.3675
  329MOL0     C45279   6.799   2.625   1.897 -0.3622 -0.1960 -0.2627
  329MOL0     C45280   6.690   2.527   1.850 -1.0314 -0.4646 -0.7251
  329MOL0     N45281   6.738   2.391   1.853  0.1571  0.0584 -0.8582
  329MOL0     C45282   6.743   2.302   1.957 -0.3317 -0.2427  0.2290
  329MOL0     C45283   6.833   2.206   1.918  0.0344  0.2785  0.6179
  329MOL0     C45284   6.875   2.104   1.999  0.5986  0.7841 -0.4515
  329MOL0     C45285   6.991   2.153   2.083  0.1843 -0.2604  0.6367
  329MOL0     C45286   6.966   2.147   2.228  0.1544 -0.3884  0.1836
  329MOL0     C45287   7.080   2.190   2.320  0.4561  0.6835  0.3639
  329MOL0     O45288   7.161   2.293   2.262 -0.6297 -0.1043  0.4519
  329MOL0     C45289   7.202   2.393   2.343 -0.2952 -0.0688  0.7129
  329MOL0     C45290   7.126   2.469   2.435  0.0679 -0.2905  0.7127
  329MOL0     C45291   7.178   2.570   2.516 -0.5916 -0.3595 -0.4669
  329MOL0     C45292   7.099   2.646   2.617  0.3334 -1.2068  0.3892
  329MOL0     C45293   7.315   2.613   2.486  0.1726  0.4326 -0.4680
  329MOL0     C45294   7.369   2.724   2.560  0.4712 -0.2127 -0.2456
  329MOL0     O45295   7.363   2.734   2.698  0.5676  0.1096 -0.0586
  329MOL0     C45296   7.434   2.841   2.747  0.7963  0.8475  0.0904
  329MOL0     C45297   7.573   2.850   2.723 -0.6183 -0.3020 -0.5065
  329MOL0     C45298   7.640   2.964   2.771 -0.7835 -0.8332 -0.6341
  329MOL0     C45299   7.578   3.061   2.850 -0.0418  0.5228 -0.9223
  329MOL0     O45300   7.634   3.169   2.894 -0.0868 -0.8076 -0.6692
  329MOL0     C45301   7.725   3.225   2.793  0.3729  0.9864 -0.3908
  329MOL0     C45302   7.704   3.367   2.779  0.7254 -0.6767 -0.3904
  329MOL0     C45303   7.554   3.393   2.738  0.5116 -0.3297 -0.1295
  329MOL0     C45304   7.533   3.529   2.663 -0.0987  0.1156  0.4387
  329MOL0     C45305   7.583   3.636   2.759  0.0074  0.8080  0.0746
  329MOL0     C45306   7.514   3.767   2.715 -0.0363  0.1831  1.0456
  329MOL0     C45307   7.548   3.884   2.803 -0.8284 -0.6530  0.4501
  329MOL0     C45308   7.443   3.992   2.795  0.5152  0.6966 -0.7291
  329MOL0    Cl45309   7.313   3.952   2.906 -0.0790  0.1729 -0.4404
  329MOL0     C45310   7.447   3.037   2.885  0.3379 -0.6140 -0.7355
  329MOL0     C45311   7.373   2.931   2.834  0.2709  0.1267  0.0415
  329MOL0     O45312   7.433   2.799   2.485 -0.5522  0.7252 -0.0578
  329MOL0     C45313   7.391   2.546   2.394 -1.1553  0.0585 -0.1812
  329MOL0     C45314   7.339   2.436   2.321 -0.5533 -0.3196 -0.7530
  329MOL0     N45315   6.878   2.236   1.783  0.2515  0.2555 -0.3382
  329MOL0     N45316   6.810   2.338   1.747 -0.3442  0.6885 -1.1606
  329MOL0     C45317   6.747   3.221   1.230 -0.4755  0.0999 -0.0081
  329MOL0     C45318   6.702   3.245   1.099 -0.3744 -0.1888  0.8506
  329MOL0     C45319   6.656   3.182   0.656  1.2267 -0.7168  0.6116
  329MOL0     C45320   6.696   3.095   0.559 -0.3473  1.1518  0.5408
  329MOL0     C45321   6.678   3.129   0.423  0.0938  0.1155  0.1483
  329MOL0     C45322   6.602   3.248   0.392  0.1567 -0.4160  1.2260
  329MOL0     O45323   6.602   3.270   0.254 -0.0042  0.8311  0.2361
  329MOL0     C45324   6.491   3.345   0.198 -0.5336  0.6723 -0.0691
  329MOL0     C45325   6.360   3.261   0.187 -0.6381 -0.2621 -0.4337
  329MOL0     C45326   6.284   3.295   0.062 -0.0687 -0.2001 -0.0558
  329MOL0     C45327   6.161   3.200   0.028 -0.1593 -0.5384 -0.4431
  329MOL0     C45328   6.056   3.211   0.132 -0.0454  0.2439  0.3734
  329MOL0     C45329   5.980   3.216   0.228  0.2097 -1.0546  0.0275
  329MOL0     C45330   6.555   3.331   0.492 -1.1344  0.5338 -0.5145
  329MOL0     C45331   6.594   3.307   0.615 -1.1674 -0.5175 -0.6396
  329MOL0     C45332   6.566   3.421   0.717 -1.0134  0.0251 -0.1194
  329MOL0     H45333   6.619   2.925   1.008 -0.8527 -0.0535  0.5563
  329MOL0     H45334   6.690   2.890   1.254  1.7095 -0.3270  1.3873
  329MOL0     H45335   6.663   3.208   1.497 -0.0797  0.8233  5.5195
  329MOL0     H45336   6.829   3.261   1.478  1.8091 -0.9723 -1.3678
  329MOL0     H45337   6.898   3.071   1.643  0.3285 -0.0382 -0.5130
  329MOL0     H45338   6.810   3.204   1.713 -3.5751  1.2398 -0.3220
  329MOL0     H45339   6.625   3.086   1.768  0.9081  0.4891 -0.4725
  329MOL0     H45340   6.627   2.983   1.617 -2.6693  0.4088  1.1033
  329MOL0     H45341   6.779   2.831   1.683 -2.1742 -0.9307 -0.1259
  329MOL0     H45342   6.856   2.932   1.800  0.4293  0.1389 -2.6252
  329MOL0     H45343   6.581   2.781   1.823  0.1250  0.2934  0.6943
  329MOL0     H45344   6.620   2.905   1.937 -2.0081  0.2070 -0.2915
  329MOL0     H45345   6.828   2.813   2.016  2.4209 -2.4452  0.2116
  329MOL0     H45346   6.691   2.721   2.057  2.2120  0.3619  1.9115
  329MOL0     H45347   6.862   2.572   1.969  3.0282  3.7524  0.0208
  329MOL0     H45348   6.866   2.653   1.815  2.4708 -1.7693  1.3389
  329MOL0     H45349   6.598   2.542   1.907 -1.2181 -1.2591 -0.7964
  329MOL0     H45350   6.667   2.542   1.744  0.6679 -1.7400 -1.3221
  329MOL0     H45351   6.688   2.319   2.049 -1.2951 -1.7364 -0.0389
  329MOL0     H45352   6.921   2.022   1.944  0.7878 -0.5444  1.5775
  329MOL0     H45353   6.786   2.073   2.055 -0.0258  1.9161 -0.7740
  329MOL0     H45354   7.065   2.077   2.057 -1.7037 -2.0086  0.1441
  329MOL0     H45355   7.030   2.246   2.041 -1.4001  0.5020  0.7500
  329MOL0     H45356   6.893   2.226   2.249 -0.5814 -1.2884  1.0909
  329MOL0     H45357   6.925   2.047   2.240 -1.4602 -0.0551 -1.9370
  329MOL0     H45358   7.037   2.219   2.416  0.2659 -1.8954  1.1564
  329MOL0     H45359   7.136   2.099   2.343 -3.7106 -1.5964  2.5348
  329MOL0     H45360   7.024   2.434   2.447  0.3198 -1.4589 -0.2618
  329MOL0     H45361   7.081   2.745   2.574  2.4956 -0.9755 -0.1261
  329MOL0     H45362   7.147   2.665   2.713  0.7164 -1.1940  0.1982
  329MOL0     H45363   7.000   2.602   2.629 -1.0480  1.2977 -0.9337
  329MOL0     H45364   7.626   2.773   2.668 -0.2203  0.8136 -1.7529
  329MOL0     H45365   7.742   2.982   2.740 -0.6899  0.3168  0.2480
  329MOL0     H45366   7.826   3.203   2.827 -0.4084 -0.8331  0.9236
  329MOL0     H45367   7.714   3.182   2.693  0.7459  2.1458 -0.9418
  329MOL0     H45368   7.734   3.428   2.864  0.9456 -0.4021 -0.6636
  329MOL0     H45369   7.758   3.393   2.687  1.8106 -0.5549  0.2735
  329MOL0     H45370   7.486   3.383   2.823 -0.1611  1.6907 -0.3854
  329MOL0     H45371   7.520   3.318   2.667 -2.6074 -0.8629  1.7410
  329MOL0     H45372   7.432   3.540   2.623  0.0458  1.3143  0.3720
  329MOL0     H45373   7.591   3.524   2.570 -2.2016 -2.7253 -0.8847
  329MOL0     H45374   7.546   3.616   2.860 -1.2414  1.4850 -0.2307
  329MOL0     H45375   7.692   3.647   2.758  0.4985 -2.5281 -2.4226
  329MOL0     H45376   7.407   3.755   2.695  0.6302 -2.4067 -1.6952
  329MOL0     H45377   7.567   3.796   2.624  1.1048  0.6765  1.8453
  329MOL0     H45378   7.641   3.927   2.765  0.3910 -1.5438  2.2910
  329MOL0     H45379   7.559   3.852   2.907  3.4103  1.8248  0.9735
  329MOL0     H45380   7.394   3.990   2.697  0.4277 -2.4596 -0.7379
  329MOL0     H45381   7.489   4.087   2.823  4.0774 -1.6535  2.3491
  329MOL0     H45382   7.384   3.107   2.940 -1.3111 -0.3491 -2.8189
  329MOL0     H45383   7.269   2.914   2.858  0.5580 -1.4545  0.2770
  329MOL0     H45384   7.496   2.573   2.388 -1.2973  0.4116 -1.2130
  329MOL0     H45385   7.403   2.382   2.252  1.9184  1.9910 -0.4692
  329MOL0     H45386   6.791   3.303   1.287  1.5558 -1.4339  0.7719
  329MOL0     H45387   6.689   3.346   1.060 -1.1424 -1.3228 -2.1495
  329MOL0     H45388   6.740   2.998   0.582  0.7940  1.5595  0.1108
  329MOL0     H45389   6.713   3.065   0.343  0.2700  0.5522 -0.1283
  329MOL0     H45390   6.470   3.443   0.243 -3.0308 -0.2736  0.9945
  329MOL0     H45391   6.538   3.362   0.101  1.2151  0.4521  0.6842
  329MOL0     H45392   6.295   3.271   0.274  1.2643  0.1091  1.0123
  329MOL0     H45393   6.391   3.157   0.182  0.4974 -0.0391  1.1201
  329MOL0     H45394   6.259   3.401   0.067  3.8555  0.9547 -0.8681
  329MOL0     H45395   6.354   3.303  -0.022 -0.7545 -0.4004 -0.6620
  329MOL0     H45396   6.201   3.098   0.035  0.1469 -0.4131 -0.3374
  329MOL0     H45397   6.120   3.226  -0.070 -0.0882  0.0165 -0.3314
  329MOL0     H45398   5.918   3.238   0.312  0.0576  1.2155 -0.6289
  329MOL0     H45399   6.494   3.413   0.456 -2.8390 -0.6827 -0.4992
  329MOL0     H45400   6.547   3.518   0.669 -4.5125 -0.2535  0.4162
  329MOL0     H45401   6.486   3.394   0.787  0.6869  0.0752  1.9578
  329MOL0     H45402   6.656   3.440   0.776  0.5838  0.8580 -2.6431
  330MOL0     O45403   9.039   0.128   6.846  0.0414 -0.9050  0.2029
  330MOL0     C45404   8.920   0.107   6.818 -0.9735  1.0664  0.1869
  330MOL0     O45405   8.876   0.086   6.693  0.0752  0.1093  1.0269
  330MOL0     C45406   8.965   0.042   6.599 -0.4295  0.0803  1.4698
  330MOL0     C45407   8.953   0.102   6.475 -0.3073  0.2783 -0.4117
  330MOL0     C45408   9.034   0.057   6.371  0.9372 -0.9373  0.3996
  330MOL0     C45409   9.130  -0.039   6.393  0.1771 -0.6182 -0.4994
  330MOL0     O45410   9.210  -0.050   6.284  0.4710  0.2157 -0.2745
  330MOL0     C45411   9.291  -0.168   6.271 -0.0180  0.2089  0.4481
  330MOL0     C45412   9.434  -0.108   6.296 -0.1141 -0.2666  0.0445
  330MOL0     C45413   9.518  -0.092   6.170 -0.3593  0.6258 -0.1130
  330MOL0     C45414   9.663  -0.066   6.200 -1.3526  0.6822  0.8916
  330MOL0     C45415   9.743  -0.059   6.074  0.4823 -0.0225 -0.2446
  330MOL0     C45416   9.891  -0.073   6.110  0.2173 -0.6909  0.1823
  330MOL0     C45417   9.953   0.069   6.149  0.4780 -0.3543 -0.2937
  330MOL0     C45418  10.103   0.088   6.104  0.2397  0.4071 -0.5086
  330MOL0     N45419  10.120   0.147   5.976  0.4815 -0.5124 -0.4976
  330MOL0     C45420  10.041   0.122   5.864 -0.2914  0.8652 -0.6253
  330MOL0     C45421  10.073   0.219   5.777  0.4226 -0.2083 -0.4360
  330MOL0     C45422   9.996   0.235   5.646 -1.2614 -0.2040 -1.0566
  330MOL0     C45423   9.978   0.378   5.607 -0.5041 -0.2385  0.7147
  330MOL0     C45424   9.904   0.382   5.469 -0.3429  0.1379  0.2319
  330MOL0     C45425   9.823   0.512   5.435 -0.8601 -0.6366 -0.4187
  330MOL0     O45426   9.758   0.502   5.306  0.2466 -1.0552  0.8336
  330MOL0     C45427   9.630   0.467   5.293  0.0019 -0.5598  0.7600
  330MOL0     C45428   9.600   0.388   5.180  0.2362  0.0982 -0.0803
  330MOL0     C45429   9.473   0.330   5.159  0.5606  0.2364 -0.5287
  330MOL0     C45430   9.443   0.239   5.038 -0.2121 -0.3605  0.1921
  330MOL0     C45431   9.369   0.354   5.265  0.1535  0.3473  0.0436
  330MOL0     C45432   9.233   0.294   5.257  1.1418 -0.6175 -0.0118
  330MOL0     O45433   9.153   0.316   5.374  0.5244 -0.1749 -0.0884
  330MOL0     C45434   9.028   0.260   5.393  0.0823  0.7454 -0.3640
  330MOL0     C45435   8.941   0.206   5.296 -0.2415  1.1002 -0.5846
  330MOL0     C45436   8.822   0.137   5.327 -0.9705  0.3086  0.3231
  330MOL0     C45437   8.790   0.092   5.449 -0.5174  0.1145 -0.0304
  330MOL0     O45438   8.670   0.025   5.485  0.6996 -0.2084 -0.4004
  330MOL0     C45439   8.555   0.057   5.398 -0.7967  1.1211 -0.9799
  330MOL0     C45440   8.435   0.009   5.481 -0.2619 -1.3286 -0.5726
  330MOL0     C45441   8.386  -0.127   5.481  0.2045  0.6732  0.6819
  330MOL0     C45442   8.270  -0.135   5.373 -0.2156  0.4191 -0.1605
  330MOL0     C45443   8.330  -0.144   5.230 -0.0789 -0.1797  0.2174
  330MOL0     C45444   8.219  -0.210   5.147  0.5243  1.0154  0.2966
  330MOL0     C45445   8.268  -0.233   5.001  1.8355  0.3911 -0.0581
  330MOL0     C45446   8.181  -0.338   4.934  0.0577  0.0058  0.0113
  330MOL0    Cl45447   8.211  -0.335   4.757 -0.1607 -0.2463 -0.1863
  330MOL0     C45448   8.874   0.137   5.555  0.3992 -0.3010 -0.3645
  330MOL0     C45449   8.991   0.217   5.527  0.3146 -1.1899  0.1208
  330MOL0     O45450   9.199   0.227   5.161  0.1022 -0.1078  0.9407
  330MOL0     C45451   9.404   0.428   5.385 -0.2914  0.3247 -0.1177
  330MOL0     C45452   9.531   0.490   5.392 -0.6575  0.7788 -0.5648
  330MOL0     N45453  10.152   0.311   5.839 -1.0907  0.1974  1.2453
  330MOL0     N45454  10.170   0.267   5.955 -0.8388 -0.3568 -0.0814
  330MOL0     C45455   9.159  -0.080   6.520 -0.4175 -0.3767  0.1374
  330MOL0     C45456   9.075  -0.045   6.624  0.0497  0.5993  0.6414
  330MOL0     C45457   8.825   0.117   6.931  0.1126 -0.1387  0.3845
  330MOL0     C45458   8.871   0.177   7.053 -0.0101  1.8812 -0.6440
  330MOL0     C45459   8.785   0.172   7.168  0.3519  0.4884  0.4498
  330MOL0     C45460   8.666   0.100   7.168 -0.2622 -0.1967  1.2980
  330MOL0     O45461   8.591   0.118   7.279 -0.3159  0.4881 -0.5912
  330MOL0     C45462   8.448   0.073   7.267 -0.2018 -0.0984 -0.5925
  330MOL0     C45463   8.368   0.081   7.388 -0.1489  0.3652  0.5132
  330MOL0     C45464   8.333   0.229   7.411  0.9065 -0.9291 -0.3044
  330MOL0     C45465   8.322   0.253   7.559  1.0845 -0.7341  0.2844
  330MOL0     C45466   8.262   0.374   7.604 -0.7648  0.5340 -0.3383
  330MOL0     C45467   8.201   0.468   7.659  0.1069  0.5627 -0.1090
  330MOL0     C45468   8.623   0.050   7.044  0.7300  1.0261 -0.4798
  330MOL0     C45469   8.695   0.050   6.927  0.1711 -0.6650  0.5694
  330MOL0     C45470   8.635  -0.007   6.806  0.3533  0.1183 -0.4368
  330MOL0     H45471   8.865   0.165   6.463 -1.2082 -0.9756 -0.5838
  330MOL0     H45472   9.021   0.090   6.269  0.5291  2.2377  1.3585
  330MOL0     H45473   9.299  -0.212   6.171  1.0362 -2.0920  1.4752
  330MOL0     H45474   9.247  -0.246   6.333 -2.8387 -0.5977 -2.2920
  330MOL0     H45475   9.426  -0.014   6.351  2.4585 -1.0127  1.8800
  330MOL0     H45476   9.482  -0.182   6.361 -0.1850 -2.2118 -2.0036
  330MOL0     H45477   9.514  -0.195   6.133 -0.5806  0.0811  1.3788
  330MOL0     H45478   9.473  -0.020   6.101  2.5358  1.7442 -0.9813
  330MOL0     H45479   9.686   0.029   6.248  1.5720  0.9020 -0.7237
  330MOL0     H45480   9.690  -0.152   6.262 -2.4458 -1.3498 -1.2879
  330MOL0     H45481   9.726   0.031   6.014 -1.3660  0.8329  1.4518
  330MOL0     H45482   9.728  -0.150   6.015 -0.2233 -1.8053  2.4919
  330MOL0     H45483   9.902  -0.128   6.204 -2.8483  0.3456  1.2721
  330MOL0     H45484   9.929  -0.131   6.024  1.6873 -2.6762  2.0546
  330MOL0     H45485   9.951   0.084   6.257  1.4430  1.3968 -0.4843
  330MOL0     H45486   9.896   0.150   6.103  2.5317  1.1941 -0.2218
  330MOL0     H45487  10.158   0.153   6.173  1.1697 -1.3439  0.4758
  330MOL0     H45488  10.147  -0.012   6.097 -1.1804 -0.6093  2.7284
  330MOL0     H45489   9.970   0.040   5.856  1.3335 -0.6548 -0.0515
  330MOL0     H45490   9.895   0.199   5.668 -0.6260 -0.1457  2.6306
  330MOL0     H45491  10.024   0.162   5.570  2.9988  0.8960 -0.7886
  330MOL0     H45492   9.920   0.425   5.687 -1.3499 -0.2945  0.1520
  330MOL0     H45493  10.072   0.430   5.590 -0.7769  0.3951  1.1275
  330MOL0     H45494   9.980   0.370   5.392  0.9086  1.2383  1.2611
  330MOL0     H45495   9.844   0.291   5.462  2.0142 -1.3980 -1.0408
  330MOL0     H45496   9.752   0.516   5.519  1.2422  1.7242  1.4092
  330MOL0     H45497   9.893   0.596   5.441 -3.7711  1.9083  1.6127
  330MOL0     H45498   9.683   0.358   5.117 -0.7323  1.1313 -1.9217
  330MOL0     H45499   9.526   0.234   4.967  0.0472 -1.0844  0.5387
  330MOL0     H45500   9.357   0.278   4.983  0.0154 -1.8130 -1.2696
  330MOL0     H45501   9.419   0.133   5.048  1.9852 -1.1959 -2.1987
  330MOL0     H45502   8.961   0.219   5.190 -0.1157  0.3779 -0.6571
  330MOL0     H45503   8.772   0.104   5.236  2.3435  0.7712 -1.8557
  330MOL0     H45504   8.542   0.160   5.363  0.3239  0.8213 -2.3608
  330MOL0     H45505   8.567   0.006   5.302  1.8645 -0.3165  0.0245
  330MOL0     H45506   8.462   0.034   5.584  1.2963 -0.0629 -1.2471
  330MOL0     H45507   8.350   0.075   5.458  0.5192 -0.0282  0.1209
  330MOL0     H45508   8.333  -0.154   5.573 -1.6380 -0.0660 -0.5244
  330MOL0     H45509   8.472  -0.194   5.472  0.5342  0.9817  1.4514
  330MOL0     H45510   8.202  -0.049   5.377  0.6970  1.1424  0.2730
  330MOL0     H45511   8.210  -0.223   5.399  0.1932 -0.5085 -2.1797
  330MOL0     H45512   8.352  -0.045   5.191 -1.9754 -0.5479 -2.0119
  330MOL0     H45513   8.421  -0.204   5.241 -1.2404 -1.7546  1.8441
  330MOL0     H45514   8.120  -0.165   5.154  0.0154 -0.3044  2.2117
  330MOL0     H45515   8.206  -0.310   5.190  2.3590  0.5056 -0.2107
  330MOL0     H45516   8.367  -0.279   4.997  0.7652 -2.6533  3.1285
  330MOL0     H45517   8.261  -0.138   4.947 -2.0875  0.1651 -0.2611
  330MOL0     H45518   8.075  -0.317   4.946  0.0487  0.1661 -0.3407
  330MOL0     H45519   8.193  -0.438   4.976 -0.1248 -0.6502 -1.4246
  330MOL0     H45520   8.863   0.106   5.658  3.5497  0.6835  0.3984
  330MOL0     H45521   9.055   0.243   5.610  0.2456 -3.4276  0.9388
  330MOL0     H45522   9.328   0.444   5.461 -0.3818  0.3460 -0.2118
  330MOL0     H45523   9.550   0.543   5.484  0.9122  0.1107 -0.4674
  330MOL0     H45524   9.258  -0.117   6.546  0.5709  0.9325 -1.5405
  330MOL0     H45525   9.082  -0.078   6.727 -0.2060  2.9526  1.4606
  330MOL0     H45526   8.956   0.241   7.071  1.5272 -0.0567 -0.6986
  330MOL0     H45527   8.831   0.187   7.265  0.5817 -1.2055  0.6360
  330MOL0     H45528   8.389   0.130   7.195 -0.7991  1.4925  1.0743
  330MOL0     H45529   8.451  -0.029   7.229 -0.2967  0.1054 -1.1529
  330MOL0     H45530   8.427   0.039   7.471  0.0593 -1.3860 -0.4826
  330MOL0     H45531   8.283   0.015   7.371 -2.1439  2.3154  2.3775
  330MOL0     H45532   8.411   0.301   7.388 -0.7943  3.0904  4.5550
  330MOL0     H45533   8.240   0.261   7.362  1.2666  3.9040  1.6341
  330MOL0     H45534   8.415   0.242   7.616  0.3783  2.2755  2.2347
  330MOL0     H45535   8.251   0.177   7.595  3.0177 -0.6239  5.0002
  330MOL0     H45536   8.155   0.558   7.694  0.7725  0.6953  0.4538
  330MOL0     H45537   8.524   0.005   7.041  2.4117 -3.3275  0.7155
  330MOL0     H45538   8.549  -0.071   6.826 -2.0357  2.2667 -2.9924
  330MOL0     H45539   8.604   0.064   6.728  3.4007  0.4224 -1.5225
  330MOL0     H45540   8.713  -0.068   6.760  2.3766  2.6792 -0.6153
  331MOL0     O45541   1.408   3.832   5.072 -0.5684 -0.4206  1.1573
  331MOL0     C45542   1.393   3.750   4.985  0.3942 -0.1491  0.7321
  331MOL0     O45543   1.305   3.643   4.990  0.4118 -0.3510 -0.0036
  331MOL0     C45544   1.201   3.648   5.077  0.4390  0.1713 -0.9678
  331MOL0     C45545   1.221   3.603   5.214  0.1559 -0.6584 -0.9505
  331MOL0     C45546   1.112   3.593   5.303 -0.0826 -0.2956  0.3192
  331MOL0     C45547   0.992   3.642   5.269 -1.2846 -0.2174  0.2565
  331MOL0     O45548   0.893   3.627   5.362  0.5035  0.1234 -0.1364
  331MOL0     C45549   0.757   3.659   5.332  0.5450  0.8658 -0.1933
  331MOL0     C45550   0.663   3.596   5.437  0.5707 -0.8019 -0.8000
  331MOL0     C45551   0.519   3.644   5.418 -0.5398 -0.8646  0.4530
  331MOL0     C45552   0.438   3.587   5.533  0.6518 -1.2789 -0.1425
  331MOL0     C45553   0.288   3.593   5.496 -0.5214  0.2617  0.3726
  331MOL0     C45554   0.206   3.513   5.602 -0.2581 -0.7308 -0.5962
  331MOL0     C45555   0.060   3.553   5.588  0.3740 -0.0730 -0.0243
  331MOL0     C45556  -0.011   3.452   5.498 -0.2942  0.0411 -0.2509
  331MOL0     N45557  -0.161   3.452   5.516  0.2338 -0.4912  0.7161
  331MOL0     C45558  -0.247   3.556   5.484 -0.7052 -0.3833  0.6101
  331MOL0     C45559  -0.365   3.507   5.519 -0.4086 -0.8498 -1.1906
  331MOL0     C45560  -0.499   3.569   5.519  0.0098 -0.3719 -0.6272
  331MOL0     C45561  -0.549   3.599   5.656 -0.2574 -0.2281  0.0715
  331MOL0     C45562  -0.468   3.718   5.717  1.2000  0.4072  0.5434
  331MOL0     C45563  -0.486   3.865   5.658 -0.8062  1.0321  0.8283
  331MOL0     O45564  -0.349   3.929   5.656  0.2442  0.3691 -0.2174
  331MOL0     C45565  -0.284   3.964   5.766  0.0652  0.9602  0.8846
  331MOL0     C45566  -0.159   4.022   5.748  1.4554 -0.0432  0.3222
  331MOL0     C45567  -0.095   4.082   5.856 -0.3345  0.0690 -0.2669
  331MOL0     C45568   0.033   4.153   5.818 -0.0190 -0.6425 -0.6081
  331MOL0     C45569  -0.150   4.073   5.977 -0.2590  0.5470 -0.0123
  331MOL0     C45570  -0.081   4.089   6.109 -0.3566 -0.7520  0.5251
  331MOL0     O45571  -0.149   4.074   6.226 -0.1436  0.2485  0.2973
  331MOL0     C45572  -0.088   4.055   6.340  0.3665 -0.8732 -0.4357
  331MOL0     C45573  -0.118   3.933   6.406  0.4678  0.5610  0.6107
  331MOL0     C45574  -0.064   3.903   6.528 -0.3098  0.2222 -0.3392
  331MOL0     C45575   0.041   3.986   6.582 -0.3575  0.6401  0.4525
  331MOL0     O45576   0.088   3.969   6.704 -0.3595 -0.3303 -0.3248
  331MOL0     C45577   0.228   3.961   6.714  0.0026  0.0111  0.7072
  331MOL0     C45578   0.265   3.897   6.847 -0.3794 -0.1882 -0.7487
  331MOL0     C45579   0.179   3.770   6.893 -0.1072 -0.1393 -0.8115
  331MOL0     C45580   0.227   3.640   6.826  0.2160 -0.6156 -0.4541
  331MOL0     C45581   0.141   3.521   6.878 -0.0502  0.1593 -0.6896
  331MOL0     C45582   0.226   3.408   6.931  0.5250  0.2582 -0.0870
  331MOL0     C45583   0.290   3.338   6.813  0.1322  0.4414 -0.3812
  331MOL0     C45584   0.397   3.250   6.857  0.2751  0.6277  0.9383
  331MOL0    Cl45585   0.481   3.175   6.710 -0.0520 -0.3803 -0.1291
  331MOL0     C45586   0.067   4.104   6.517 -0.2646 -0.8518 -0.3255
  331MOL0     C45587   0.000   4.146   6.397  0.3878  0.4873 -0.0023
  331MOL0     O45588   0.042   4.095   6.099  0.2965 -0.3013 -0.0190
  331MOL0     C45589  -0.283   4.025   5.996  0.4299 -0.1775  0.0937
  331MOL0     C45590  -0.344   3.972   5.894  1.3057 -0.7922  0.7831
  331MOL0     N45591  -0.356   3.381   5.577 -0.4916 -0.0800 -0.9113
  331MOL0     N45592  -0.236   3.348   5.571  0.6827 -0.0489 -0.3632
  331MOL0     C45593   0.976   3.706   5.149  0.8046  0.6172 -0.7078
  331MOL0     C45594   1.075   3.700   5.048 -0.7315  0.9578  0.1451
  331MOL0     C45595   1.491   3.739   4.870  0.2202 -0.3722  0.4510
  331MOL0     C45596   1.491   3.630   4.786  0.8791  0.6195 -0.3746
  331MOL0     C45597   1.593   3.601   4.695  1.0972 -0.3685  0.7120
  331MOL0     C45598   1.690   3.708   4.675  0.4019  0.4533  0.1173
  331MOL0     O45599   1.805   3.703   4.598  0.0259 -0.4457 -0.2850
  331MOL0     C45600   1.828   3.569   4.539  0.3664  1.0114  0.7587
  331MOL0     C45601   1.962   3.556   4.451  0.2241  0.0811 -0.1796
  331MOL0     C45602   1.948   3.670   4.342  0.1475  0.0567 -0.6598
  331MOL0     C45603   2.087   3.721   4.295 -0.3605  0.1976  0.3738
  331MOL0     C45604   2.150   3.607   4.225  0.6976 -0.0678  0.7348
  331MOL0     C45605   2.187   3.502   4.174  0.1838  0.8649 -1.0777
  331MOL0     C45606   1.675   3.823   4.740 -1.2072  0.1842 -0.2978
  331MOL0     C45607   1.575   3.838   4.839 -0.4163  0.3179  0.4222
  331MOL0     C45608   1.573   3.978   4.902 -0.2373  0.1101  0.6062
  331MOL0     H45609   1.322   3.563   5.221  1.5171  2.6296  0.0987
  331MOL0     H45610   1.113   3.556   5.406  0.1763  3.4624  1.8266
  331MOL0     H45611   0.736   3.614   5.235  1.8322  2.4426 -1.2586
  331MOL0     H45612   0.731   3.761   5.304  1.1601  1.0368 -0.1623
  331MOL0     H45613   0.671   3.488   5.423  0.8208 -0.8931 -0.0027
  331MOL0     H45614   0.697   3.622   5.538  0.6816 -2.4264 -0.4025
  331MOL0     H45615   0.518   3.753   5.416 -0.4636 -0.7434  3.2097
  331MOL0     H45616   0.481   3.618   5.319 -1.7345  1.3698  0.2777
  331MOL0     H45617   0.461   3.480   5.535  2.9705 -0.8097  1.0664
  331MOL0     H45618   0.463   3.625   5.633 -0.1807 -1.9176  0.3261
  331MOL0     H45619   0.263   3.539   5.404 -1.7177 -3.2031  2.5245
  331MOL0     H45620   0.252   3.696   5.505 -3.1069 -0.6976  2.6837
  331MOL0     H45621   0.228   3.409   5.576 -1.9447 -0.4882 -3.4676
  331MOL0     H45622   0.239   3.526   5.706  0.2127 -3.7149 -0.2772
  331MOL0     H45623   0.038   3.656   5.560 -0.9125  0.5249  2.7489
  331MOL0     H45624   0.017   3.542   5.689 -0.0396 -3.1875 -0.4341
  331MOL0     H45625  -0.002   3.478   5.392  0.1154  5.2295  0.7750
  331MOL0     H45626   0.012   3.346   5.510 -2.3624 -0.4258 -0.0148
  331MOL0     H45627  -0.222   3.642   5.423  4.3320 -0.4375  2.1687
  331MOL0     H45628  -0.559   3.488   5.475  0.3096 -0.6784 -0.4787
  331MOL0     H45629  -0.505   3.655   5.452 -0.2954 -0.4125 -0.6494
  331MOL0     H45630  -0.653   3.632   5.658 -0.4170  0.1826 -4.2804
  331MOL0     H45631  -0.544   3.505   5.710 -2.7669 -0.5361 -0.1192
  331MOL0     H45632  -0.509   3.719   5.819 -0.9442 -0.0604 -0.2518
  331MOL0     H45633  -0.364   3.693   5.738  0.6730  0.1582  3.2603
  331MOL0     H45634  -0.522   3.863   5.555 -1.4616 -0.4724  1.0542
  331MOL0     H45635  -0.560   3.932   5.702 -0.4453  1.8978  0.1345
  331MOL0     H45636  -0.121   4.006   5.648 -1.8025 -2.0048 -0.7895
  331MOL0     H45637   0.032   4.185   5.713 -2.7824 -2.3071 -1.2027
  331MOL0     H45638   0.110   4.078   5.832  0.8806  0.5750  1.4337
  331MOL0     H45639   0.055   4.238   5.883 -3.0044 -0.2761  0.0946
  331MOL0     H45640  -0.176   3.854   6.359  1.4613 -0.9527  1.8328
  331MOL0     H45641  -0.100   3.818   6.585 -4.0215 -1.0955 -4.1414
  331MOL0     H45642   0.247   3.904   6.623 -3.2203  0.2129 -0.1991
  331MOL0     H45643   0.278   4.059   6.711  2.5429 -1.2327 -1.2082
  331MOL0     H45644   0.364   3.853   6.837  0.0298  0.8979 -1.8065
  331MOL0     H45645   0.256   3.977   6.922 -0.1421  0.0546 -0.9757
  331MOL0     H45646   0.074   3.785   6.867  0.0636 -1.8760 -2.7663
  331MOL0     H45647   0.198   3.770   7.001  1.8092 -3.8154 -0.9875
  331MOL0     H45648   0.330   3.618   6.856 -0.7070 -0.5132  3.3120
  331MOL0     H45649   0.221   3.654   6.718  2.0648  2.8621 -0.2554
  331MOL0     H45650   0.075   3.560   6.956  0.6879  1.3584 -0.6376
  331MOL0     H45651   0.076   3.487   6.797 -0.2079 -1.1304 -0.0539
  331MOL0     H45652   0.158   3.341   6.985 -1.3193  1.3525 -0.9765
  331MOL0     H45653   0.296   3.449   7.005  0.5274  0.2599 -0.0901
  331MOL0     H45654   0.340   3.410   6.748 -2.3827  3.5786  0.9241
  331MOL0     H45655   0.223   3.269   6.760  2.3007 -1.8463 -0.3454
  331MOL0     H45656   0.362   3.180   6.933  1.4048  3.4535  4.2997
  331MOL0     H45657   0.470   3.305   6.916 -0.3620  0.7766  1.5916
  331MOL0     H45658   0.135   4.181   6.554 -0.7980 -0.3814 -0.3117
  331MOL0     H45659   0.033   4.233   6.341  0.9121 -0.6157 -1.4815
  331MOL0     H45660  -0.341   4.044   6.086  1.7582 -1.6059  1.3131
  331MOL0     H45661  -0.432   3.918   5.928  1.1406 -0.6668  0.5569
  331MOL0     H45662   0.883   3.757   5.125  1.8300  1.2484 -3.8171
  331MOL0     H45663   1.048   3.741   4.951 -2.4636  0.4217  0.3557
  331MOL0     H45664   1.420   3.548   4.793  1.7002 -0.0089  1.1634
  331MOL0     H45665   1.590   3.506   4.642 -0.5006  1.0966 -2.0523
  331MOL0     H45666   1.831   3.489   4.614 -0.2923  2.0079  1.8734
  331MOL0     H45667   1.746   3.556   4.468 -0.1881  2.5680  1.0889
  331MOL0     H45668   1.969   3.457   4.405 -0.9364  0.3465 -0.9866
  331MOL0     H45669   2.046   3.580   4.516 -0.4145 -1.2863  1.2023
  331MOL0     H45670   1.889   3.629   4.260  1.6181 -1.8433 -0.8296
  331MOL0     H45671   1.893   3.760   4.371 -1.7281 -0.1877 -3.1382
  331MOL0     H45672   2.152   3.750   4.379 -0.7037 -0.4275  0.8659
  331MOL0     H45673   2.085   3.814   4.237 -2.8339  2.4009  3.5951
  331MOL0     H45674   2.226   3.404   4.159 -1.9397 -1.0185  3.4840
  331MOL0     H45675   1.734   3.911   4.715 -0.7187  0.1313  0.6463
  331MOL0     H45676   1.471   4.011   4.926 -1.3361 -1.1258 -2.0314
  331MOL0     H45677   1.645   3.963   4.983  0.5286  2.7652  0.5206
  331MOL0     H45678   1.611   4.060   4.841 -2.0053 -0.2089 -0.9886
  332MOL0     O45679   1.267   2.257   3.227 -0.0200  0.1834  0.0061
  332MOL0     C45680   1.239   2.293   3.345 -0.1883 -0.1763 -0.1794
  332MOL0     O45681   1.304   2.402   3.404 -0.1111  0.3681 -0.9845
  332MOL0     C45682   1.428   2.431   3.349  1.2168 -0.4065  0.2704
  332MOL0     C45683   1.535   2.349   3.382  1.2378  0.1826  0.3283
  332MOL0     C45684   1.657   2.365   3.323 -0.2501  0.1279 -0.0944
  332MOL0     C45685   1.685   2.492   3.256  0.9905  0.6653  0.1350
  332MOL0     O45686   1.808   2.545   3.223 -0.0640  0.0803  0.4455
  332MOL0     C45687   1.927   2.455   3.239  0.2103  0.4713  0.4864
  332MOL0     C45688   2.053   2.508   3.170  0.5458  0.2359 -0.1114
  332MOL0     C45689   2.145   2.395   3.143  0.3254 -0.0384 -0.4981
  332MOL0     C45690   2.258   2.461   3.053 -0.2798  0.0954 -0.2559
  332MOL0     C45691   2.380   2.373   3.045 -0.0050 -0.1819 -0.1853
  332MOL0     C45692   2.354   2.226   2.999 -0.4999 -0.3647 -0.6448
  332MOL0     C45693   2.475   2.146   2.989 -0.0372  0.2564 -0.0115
  332MOL0     C45694   2.451   2.009   2.932  0.4761  1.5149  0.3109
  332MOL0     N45695   2.572   1.926   2.938 -0.1062 -0.4926  0.7656
  332MOL0     C45696   2.666   1.927   2.833  0.4857 -0.3395 -0.1711
  332MOL0     C45697   2.743   1.815   2.857  0.1247 -0.3314  0.0579
  332MOL0     C45698   2.866   1.759   2.797 -0.4922  0.4403  0.1299
  332MOL0     C45699   2.996   1.833   2.808 -1.0787 -0.2828 -0.3330
  332MOL0     C45700   3.054   1.825   2.953  0.4771 -0.4057  0.4509
  332MOL0     C45701   3.120   1.686   2.979  0.2129  1.2863  0.3185
  332MOL0     O45702   3.156   1.654   3.122  0.2326 -0.5069  0.6130
  332MOL0     C45703   3.065   1.584   3.199  0.7875  0.1276  0.1166
  332MOL0     C45704   2.927   1.597   3.183  0.1149  0.7047  0.4113
  332MOL0     C45705   2.847   1.530   3.274 -0.1236 -0.2510  0.5172
  332MOL0     C45706   2.702   1.544   3.239 -0.7446  0.4098  0.4021
  332MOL0     C45707   2.895   1.429   3.363  0.5033 -0.1490  0.3174
  332MOL0     C45708   2.808   1.357   3.470 -0.3906 -0.5797 -0.0114
  332MOL0     O45709   2.867   1.264   3.556  0.7558  0.0762 -0.1501
  332MOL0     C45710   2.782   1.213   3.647  0.3190  0.5242  0.0872
  332MOL0     C45711   2.661   1.150   3.615  0.5449 -0.2383 -0.3941
  332MOL0     C45712   2.588   1.089   3.707 -0.5929  0.9576  0.1236
  332MOL0     C45713   2.632   1.080   3.836  0.1281 -0.2768 -0.3654
  332MOL0     O45714   2.545   1.031   3.934 -0.4136 -0.6434 -0.6658
  332MOL0     C45715   2.569   1.079   4.071 -0.7053 -0.4613 -0.2773
  332MOL0     C45716   2.448   1.044   4.152 -0.1969  1.0501  0.7526
  332MOL0     C45717   2.444   1.088   4.295 -0.2957 -0.0513 -0.7124
  332MOL0     C45718   2.300   1.083   4.347 -0.3867 -1.0096 -1.1181
  332MOL0     C45719   2.276   1.116   4.497 -0.9093  0.2638 -0.3227
  332MOL0     C45720   2.134   1.116   4.540  0.6990  0.7190  0.3185
  332MOL0     C45721   2.068   0.984   4.510 -0.4600  0.2271 -0.1801
  332MOL0     C45722   1.934   0.978   4.581  0.2787  0.5705 -0.3592
  332MOL0    Cl45723   1.802   1.025   4.476  0.0136 -0.1852  0.0616
  332MOL0     C45724   2.759   1.137   3.876  0.2216  0.0359 -0.1297
  332MOL0     C45725   2.836   1.202   3.775  0.6662 -0.1832 -0.0602
  332MOL0     O45726   2.696   1.400   3.481  0.2786 -0.2394 -0.7550
  332MOL0     C45727   3.033   1.414   3.367  0.0640 -0.2688 -0.2752
  332MOL0     C45728   3.120   1.484   3.281  0.4507  0.6673  0.0794
  332MOL0     N45729   2.674   1.736   2.948 -0.2083 -0.2823 -0.0412
  332MOL0     N45730   2.579   1.808   3.006 -0.0371 -0.0643  0.7686
  332MOL0     C45731   1.576   2.573   3.228  0.0360  0.5740 -0.0609
  332MOL0     C45732   1.451   2.540   3.268  0.0952 -0.3774  0.5424
  332MOL0     C45733   1.147   2.209   3.423 -0.7178  0.3161  0.1333
  332MOL0     C45734   1.110   2.083   3.378 -0.0429  0.2377  0.2648
  332MOL0     C45735   1.030   1.994   3.452  0.2464  0.4781  0.1184
  332MOL0     C45736   0.969   2.036   3.571 -1.1551 -0.8290  0.3120
  332MOL0     O45737   0.873   1.972   3.648  0.4317  0.3159  0.2664
  332MOL0     C45738   0.858   1.830   3.624  0.0204  0.3628 -0.3867
  332MOL0     C45739   0.756   1.761   3.719 -0.1719 -1.0246  0.7813
  332MOL0     C45740   0.793   1.781   3.869  1.0937  0.0822  0.4036
  332MOL0     C45741   0.736   1.674   3.960  0.0850 -0.2467  0.7422
  332MOL0     C45742   0.595   1.681   3.962  0.1197 -1.2998  1.7377
  332MOL0     C45743   0.476   1.700   3.962 -0.1395 -1.1005  0.3378
  332MOL0     C45744   0.993   2.169   3.609 -0.4340  0.5335 -0.8746
  332MOL0     C45745   1.085   2.252   3.548 -0.2240 -0.0200  0.5179
  332MOL0     C45746   1.103   2.387   3.607 -0.2623  0.1813  0.3238
  332MOL0     H45747   1.519   2.271   3.456 -0.2317  1.0192  0.9523
  332MOL0     H45748   1.725   2.285   3.348  1.7593  2.3883  2.1863
  332MOL0     H45749   1.889   2.367   3.187 -0.4909  0.5465  0.8607
  332MOL0     H45750   1.950   2.427   3.343 -3.3974 -0.2858  1.2264
  332MOL0     H45751   2.015   2.549   3.076  0.8308 -1.7100 -1.1103
  332MOL0     H45752   2.087   2.590   3.234  0.1146  0.9700 -0.7925
  332MOL0     H45753   2.200   2.361   3.232  1.0200  1.0203 -0.4970
  332MOL0     H45754   2.102   2.302   3.106  1.9667 -0.9760 -0.1769
  332MOL0     H45755   2.218   2.458   2.952  0.3725 -2.3847 -0.5026
  332MOL0     H45756   2.292   2.553   3.102 -0.4342 -0.5722  1.1467
  332MOL0     H45757   2.422   2.385   3.145  0.6598  2.0981 -0.6883
  332MOL0     H45758   2.452   2.416   2.975 -0.3407  0.0373 -0.3958
  332MOL0     H45759   2.281   2.178   3.066  0.9060  0.1489  1.3503
  332MOL0     H45760   2.313   2.236   2.898  2.9220  3.1286 -1.9355
  332MOL0     H45761   2.517   2.123   3.087  1.1933 -0.2094 -0.6201
  332MOL0     H45762   2.558   2.192   2.935  0.8017 -2.0326 -0.8048
  332MOL0     H45763   2.373   1.959   2.990  0.4672 -1.6302 -2.1545
  332MOL0     H45764   2.416   2.019   2.829  0.5017 -0.0288  0.1400
  332MOL0     H45765   2.686   2.005   2.761 -1.2004  2.0227  1.7553
  332MOL0     H45766   2.849   1.744   2.690 -0.5289  0.4234  0.1377
  332MOL0     H45767   2.869   1.655   2.830 -0.5100 -0.8214 -3.3959
  332MOL0     H45768   3.066   1.781   2.742  0.7183 -3.0371  3.3620
  332MOL0     H45769   2.995   1.934   2.767  1.6539  1.4367  3.3023
  332MOL0     H45770   3.129   1.900   2.977 -2.5498  2.5217  1.5180
  332MOL0     H45771   2.970   1.841   3.021  2.0578  1.2138  2.1107
  332MOL0     H45772   3.057   1.603   2.946  0.8366  0.5449  0.9620
  332MOL0     H45773   3.211   1.691   2.919 -0.8266  1.0155 -1.3606
  332MOL0     H45774   2.884   1.672   3.118 -1.0646 -0.9844 -0.8477
  332MOL0     H45775   2.648   1.563   3.332  2.4054 -0.4272  2.5537
  332MOL0     H45776   2.651   1.454   3.204 -1.5970  0.9292  0.2523
  332MOL0     H45777   2.684   1.623   3.165 -0.6671 -2.2735 -2.7070
  332MOL0     H45778   2.623   1.157   3.513  1.1196 -1.4875 -0.7102
  332MOL0     H45779   2.489   1.057   3.675  0.4265 -1.8879 -0.4950
  332MOL0     H45780   2.653   1.032   4.124  0.7844  0.5158 -1.6660
  332MOL0     H45781   2.587   1.186   4.086 -3.4507  0.4355 -2.5516
  332MOL0     H45782   2.369   1.099   4.099 -1.5398  1.1726  2.7575
  332MOL0     H45783   2.446   0.935   4.142 -1.1953  1.1719 -0.6858
  332MOL0     H45784   2.497   1.184   4.299 -0.1591 -0.1739  1.5942
  332MOL0     H45785   2.499   1.021   4.362  1.6367  3.0489  1.0413
  332MOL0     H45786   2.253   0.991   4.312  1.0318 -1.7276 -1.1996
  332MOL0     H45787   2.247   1.162   4.293 -0.7666  0.5916  1.3925
  332MOL0     H45788   2.329   1.039   4.553 -0.7705  2.1919  2.3775
  332MOL0     H45789   2.319   1.214   4.520  1.4726 -0.2101 -2.3277
  332MOL0     H45790   2.083   1.199   4.491 -1.4829  0.4107  1.8857
  332MOL0     H45791   2.150   1.140   4.646 -3.7573 -2.7486  2.1267
  332MOL0     H45792   2.134   0.904   4.544 -1.6010 -0.7765 -0.2629
  332MOL0     H45793   2.039   0.962   4.406 -2.9160 -1.9898  0.8423
  332MOL0     H45794   1.930   1.042   4.670 -2.6597 -2.0061  1.6016
  332MOL0     H45795   1.913   0.881   4.628 -1.5184  1.5523  0.9914
  332MOL0     H45796   2.803   1.133   3.976  0.8694  1.9641 -0.3115
  332MOL0     H45797   2.932   1.241   3.810 -1.1860  0.7547  4.6845
  332MOL0     H45798   3.086   1.364   3.447  2.4357  0.3341 -1.3721
  332MOL0     H45799   3.226   1.460   3.282  0.2313 -0.4740 -1.1396
  332MOL0     H45800   1.599   2.671   3.187 -0.2067  0.4466 -0.5115
  332MOL0     H45801   1.360   2.592   3.240  2.1834  3.8011  0.8326
  332MOL0     H45802   1.159   2.044   3.290 -2.3798 -3.4373  0.3761
  332MOL0     H45803   1.034   1.896   3.406  4.6845  0.3424  0.2954
  332MOL0     H45804   0.835   1.816   3.518 -2.0450  1.0196 -0.0860
  332MOL0     H45805   0.954   1.780   3.634  1.0805  2.5956  1.4438
  332MOL0     H45806   0.750   1.653   3.703  0.3457 -1.1842  1.6006
  332MOL0     H45807   0.653   1.797   3.705  0.4046  0.0083 -1.1109
  332MOL0     H45808   0.901   1.774   3.884  1.1303 -2.3174 -0.4526
  332MOL0     H45809   0.764   1.881   3.900  1.4865  0.0689  0.8353
  332MOL0     H45810   0.778   1.680   4.061  1.1320 -1.8938  0.4434
  332MOL0     H45811   0.765   1.576   3.922 -1.1687 -0.4002  0.1294
  332MOL0     H45812   0.369   1.710   3.953  0.1891  2.5117 -1.4451
  332MOL0     H45813   0.942   2.188   3.703 -0.4191 -0.9389 -0.5487
  332MOL0     H45814   1.021   2.409   3.675  0.2057  4.1179 -0.1721
  332MOL0     H45815   1.195   2.397   3.665 -0.4800  1.3635  0.4897
  332MOL0     H45816   1.106   2.469   3.535  2.4761  2.4675  2.7882
  333MOL0     O45817   0.235  10.081   7.120  0.2798 -0.5950 -0.4566
  333MOL0     C45818   0.142  10.129   7.058  0.7011 -0.2039  0.8867
  333MOL0     O45819   0.012  10.158   7.108 -0.4515 -0.3236 -0.1104
  333MOL0     C45820  -0.042  10.120   7.219  0.0641  0.2966 -0.5574
  333MOL0     C45821  -0.176  10.090   7.208  0.6802  0.2081  0.3576
  333MOL0     C45822  -0.244  10.034   7.315 -0.1675 -0.1582  1.0462
  333MOL0     C45823  -0.181   9.997   7.441  0.4180  0.3913  0.2046
  333MOL0     O45824  -0.235   9.930   7.547  0.2075  0.1426 -0.4329
  333MOL0     C45825  -0.364   9.986   7.584  0.4194 -1.1975 -0.0982
  333MOL0     C45826  -0.373   9.976   7.732 -0.3032  0.3679  0.6583
  333MOL0     C45827  -0.492  10.034   7.794 -0.2903  0.2761 -0.0162
  333MOL0     C45828  -0.492  10.051   7.948  0.2262  0.5403 -0.4004
  333MOL0     C45829  -0.596  10.156   7.996  0.1168  0.6313 -0.6912
  333MOL0     C45830  -0.634  10.120   8.139  0.6028 -0.6975  0.7233
  333MOL0     C45831  -0.717  10.236   8.204 -0.3156  0.2235  0.1326
  333MOL0     C45832  -0.723  10.233   8.360  0.6233 -0.1825 -0.3883
  333MOL0     N45833  -0.822  10.133   8.398 -0.9067  0.2723 -0.5757
  333MOL0     C45834  -0.950  10.134   8.387 -0.1052 -0.5770 -0.8181
  333MOL0     C45835  -0.998  10.019   8.444 -1.2143  0.0624  0.3374
  333MOL0     C45836  -1.143   9.988   8.454  0.0858  0.4213 -0.8840
  333MOL0     C45837  -1.186   9.861   8.380 -0.2565 -0.2919  0.1921
  333MOL0     C45838  -1.343   9.850   8.378  0.6150 -1.2916 -0.1678
  333MOL0     C45839  -1.405   9.944   8.273  0.5891 -0.4262 -0.7139
  333MOL0     O45840  -1.434  10.070   8.335  0.6168 -0.1450 -0.3362
  333MOL0     C45841  -1.532  10.159   8.280 -0.4185  0.6504 -0.6680
  333MOL0     C45842  -1.622  10.118   8.178  0.1313  0.2461  0.2418
  333MOL0     C45843  -1.732  10.203   8.148  0.5392  0.1605  1.2466
  333MOL0     C45844  -1.830  10.160   8.043  0.3494  0.5307  1.0458
  333MOL0     C45845  -1.746  10.331   8.219 -0.5019  0.4651  0.7269
  333MOL0     C45846  -1.858  10.426   8.196 -0.8822  0.3837 -0.4779
  333MOL0     O45847  -1.854  10.554   8.230 -0.1699 -0.1197  0.0041
  333MOL0     C45848  -1.968  10.627   8.252  0.8862  0.4702 -0.6908
  333MOL0     C45849  -1.978  10.764   8.209 -0.4521 -0.5413  0.0717
  333MOL0     C45850  -2.085  10.844   8.245  0.2930 -0.1884  0.7597
  333MOL0     C45851  -2.191  10.794   8.306  0.1231 -0.9113 -1.2683
  333MOL0     O45852  -2.289  10.884   8.351  0.7632 -0.9868 -0.3077
  333MOL0     C45853  -2.367  10.863   8.479  0.2860 -0.2472  0.6318
  333MOL0     C45854  -2.494  10.956   8.455 -0.8299 -0.6911 -0.1207
  333MOL0     C45855  -2.611  10.947   8.559  0.3271  0.0936 -0.9427
  333MOL0     C45856  -2.715  11.052   8.531 -0.2074  0.2259 -0.3171
  333MOL0     C45857  -2.838  11.029   8.626  0.3220 -0.0144  0.2748
  333MOL0     C45858  -2.947  10.917   8.593  0.7476  0.4415 -0.0788
  333MOL0     C45859  -3.034  10.950   8.469  0.1778  1.0224 -0.1837
  333MOL0     C45860  -3.149  11.041   8.487 -0.1159  0.3896  0.5623
  333MOL0    Cl45861  -3.218  11.076   8.324 -0.1861  0.2668 -0.1580
  333MOL0     C45862  -2.187  10.661   8.346  0.0236  1.1440 -0.1074
  333MOL0     C45863  -2.075  10.580   8.328 -0.4624 -0.2624  0.0382
  333MOL0     O45864  -1.960  10.370   8.155  0.8452  0.8764  0.7068
  333MOL0     C45865  -1.652  10.369   8.310 -0.2847 -0.4036  0.0653
  333MOL0     C45866  -1.543  10.283   8.332  0.5729  0.0619  0.4853
  333MOL0     N45867  -0.885   9.944   8.474  1.0795 -0.0453  1.0060
  333MOL0     N45868  -0.781  10.006   8.435  0.1112  0.0334  0.0490
  333MOL0     C45869  -0.045  10.021   7.443  0.6159 -0.5381 -0.2813
  333MOL0     C45870   0.024  10.080   7.334 -1.1699  0.2969 -0.4780
  333MOL0     C45871   0.172  10.170   6.921  0.2598 -0.1600  1.0518
  333MOL0     C45872   0.054  10.176   6.844  0.6701  0.6233  0.3386
  333MOL0     C45873   0.074  10.208   6.705 -0.0420 -0.2991 -0.1820
  333MOL0     C45874   0.196  10.226   6.649 -0.2794  0.1405  0.2776
  333MOL0     O45875   0.193  10.247   6.513 -0.4326 -0.3447 -0.3274
  333MOL0     C45876   0.309  10.238   6.429  1.0439 -0.1275 -0.4278
  333MOL0     C45877   0.279  10.282   6.279 -0.5447  0.0261 -0.1567
  333MOL0     C45878   0.185  10.192   6.203 -0.9981 -0.2384 -0.5965
  333MOL0     C45879   0.190  10.239   6.057  0.9206  0.7642 -0.3952
  333MOL0     C45880   0.309  10.188   5.986 -0.1799  1.7631  0.6515
  333MOL0     C45881   0.401  10.138   5.930 -0.5617 -0.2995  0.9926
  333MOL0     C45882   0.309  10.221   6.732  0.1667  0.5311 -0.6882
  333MOL0     C45883   0.302  10.199   6.869  0.3021 -0.1627  0.2900
  333MOL0     C45884   0.428  10.205   6.942 -0.7735 -0.0795  1.5231
  333MOL0     H45885  -0.216  10.106   7.108  2.5784 -2.1058 -0.8793
  333MOL0     H45886  -0.349  10.032   7.288  0.0931  3.5338 -0.8208
  333MOL0     H45887  -0.438   9.919   7.540  1.3274 -2.1781 -0.1567
  333MOL0     H45888  -0.372  10.088   7.546  4.0045 -0.6647  0.2405
  333MOL0     H45889  -0.365   9.869   7.755  0.9641 -0.4647 -2.9285
  333MOL0     H45890  -0.283  10.014   7.780  1.3017 -2.7819  0.4431
  333MOL0     H45891  -0.502  10.135   7.753 -0.7091 -0.2393 -1.2376
  333MOL0     H45892  -0.584   9.984   7.761 -0.3922  0.0336  0.6143
  333MOL0     H45893  -0.508   9.958   8.004  2.6068 -0.1338 -0.7127
  333MOL0     H45894  -0.392  10.078   7.981  0.0638 -0.8525  1.3866
  333MOL0     H45895  -0.688  10.151   7.937  1.7495 -0.6033 -3.3302
  333MOL0     H45896  -0.550  10.255   7.986  1.1896  0.1994 -0.2681
  333MOL0     H45897  -0.690  10.026   8.137 -0.2875 -0.2415  2.2680
  333MOL0     H45898  -0.542  10.107   8.198 -0.3900 -2.5907  1.9562
  333MOL0     H45899  -0.818  10.231   8.164 -1.2083  3.1006  1.7741
  333MOL0     H45900  -0.680  10.334   8.175 -0.0314  0.1168  0.1233
  333MOL0     H45901  -0.629  10.206   8.408 -0.0367 -0.7125  0.6435
  333MOL0     H45902  -0.754  10.331   8.398  0.0185 -0.5177  0.0008
  333MOL0     H45903  -1.007  10.207   8.330  0.9818  0.5748 -0.4872
  333MOL0     H45904  -1.193  10.082   8.428  1.2844  1.4916  0.5053
  333MOL0     H45905  -1.160   9.973   8.561 -2.2752  2.9613 -0.7853
  333MOL0     H45906  -1.151   9.883   8.279 -2.6349  0.6064 -0.5121
  333MOL0     H45907  -1.144   9.777   8.436 -1.5235  0.8026  2.9513
  333MOL0     H45908  -1.361   9.747   8.348 -3.6228 -2.1108  3.9150
  333MOL0     H45909  -1.382   9.874   8.478  0.7491  3.9493 -1.1098
  333MOL0     H45910  -1.331   9.963   8.194  1.3683 -0.3135  0.0247
  333MOL0     H45911  -1.491   9.883   8.244  2.5679 -4.3730  0.9303
  333MOL0     H45912  -1.613  10.023   8.127 -1.7748  0.8111 -1.2871
  333MOL0     H45913  -1.852  10.253   7.990  0.6058  0.5285  0.9337
  333MOL0     H45914  -1.919  10.117   8.091 -0.2664  0.9088  0.2602
  333MOL0     H45915  -1.783  10.087   7.977  0.5184  1.2230  0.3885
  333MOL0     H45916  -1.899  10.815   8.156 -1.0062  0.8579  0.5483
  333MOL0     H45917  -2.064  10.949   8.226  3.3857 -0.1943  3.1892
  333MOL0     H45918  -2.401  10.759   8.489  0.3541 -0.1562  1.9652
  333MOL0     H45919  -2.316  10.893   8.570  1.1621  0.7043 -0.1456
  333MOL0     H45920  -2.456  11.059   8.456  1.6771 -1.5102  2.0419
  333MOL0     H45921  -2.544  10.929   8.361 -1.0559  1.0186 -0.5164
  333MOL0     H45922  -2.587  10.954   8.665 -1.0115  0.9361 -0.6778
  333MOL0     H45923  -2.665  10.852   8.549  1.4666 -1.1382  3.0033
  333MOL0     H45924  -2.748  11.044   8.427  0.9326 -0.7211 -0.6172
  333MOL0     H45925  -2.670  11.151   8.546 -2.7783  1.3446  0.8315
  333MOL0     H45926  -2.798  10.997   8.723 -0.7991  1.0831  1.1398
  333MOL0     H45927  -2.891  11.124   8.643 -0.4483  0.1294 -2.4100
  333MOL0     H45928  -2.998  10.916   8.690  2.4343  1.5841  0.8640
  333MOL0     H45929  -2.898  10.820   8.581  2.8274  1.2989  0.9731
  333MOL0     H45930  -3.075  10.851   8.443 -0.8319  1.7433 -1.4927
  333MOL0     H45931  -2.966  10.984   8.390  0.2899  2.6977  0.6019
  333MOL0     H45932  -3.119  11.126   8.549  0.1580  1.2313 -0.6870
  333MOL0     H45933  -3.230  10.991   8.541 -1.3440 -2.1497 -3.2184
  333MOL0     H45934  -2.266  10.607   8.399  2.7527 -3.0841  0.1233
  333MOL0     H45935  -2.065  10.483   8.376  3.2432  0.1810  0.4783
  333MOL0     H45936  -1.660  10.466   8.357 -3.6813  0.0378 -1.1529
  333MOL0     H45937  -1.476  10.316   8.411  1.0373  1.0802 -0.3052
  333MOL0     H45938   0.009   9.968   7.521 -1.0390 -3.1747 -0.8101
  333MOL0     H45939   0.129  10.108   7.325 -1.3099  0.8276 -0.4799
  333MOL0     H45940  -0.044  10.145   6.878  0.9985 -1.7245 -0.7133
  333MOL0     H45941  -0.007  10.218   6.633 -1.0854  2.0856  1.2085
  333MOL0     H45942   0.382  10.309   6.469 -1.3640  0.5022  3.3413
  333MOL0     H45943   0.343  10.135   6.440 -0.1673 -0.6550 -1.4065
  333MOL0     H45944   0.374  10.285   6.225 -1.2956 -1.3061 -1.6222
  333MOL0     H45945   0.235  10.382   6.270 -0.9116 -0.3046 -2.5041
  333MOL0     H45946   0.211  10.086   6.201  1.7611  0.3308  0.3935
  333MOL0     H45947   0.084  10.203   6.243 -0.6966  0.4626 -0.0020
  333MOL0     H45948   0.182  10.349   6.060  1.2367  0.8091  3.2760
  333MOL0     H45949   0.101  10.195   6.011  0.2806  2.4416 -0.8392
  333MOL0     H45950   0.476  10.097   5.866  0.9371  2.6424  0.6907
  333MOL0     H45951   0.406  10.239   6.686 -0.7672  2.7035 -1.9283
  333MOL0     H45952   0.440  10.116   7.004  2.1472 -2.8984 -2.6215
  333MOL0     H45953   0.516  10.207   6.877 -0.1479 -4.3093  1.9751
  333MOL0     H45954   0.430  10.298   7.000 -0.9950  0.7107  0.3103
  334MOL0     O45955   1.366   1.664   7.478 -0.2833  0.7769 -0.5749
  334MOL0     C45956   1.447   1.578   7.434  0.7913  0.1284 -0.1107
  334MOL0     O45957   1.524   1.595   7.323 -0.5875 -0.3007 -0.0430
  334MOL0     C45958   1.573   1.716   7.287  0.0485  0.4337  0.1731
  334MOL0     C45959   1.615   1.823   7.378 -0.9478  0.4840  0.2674
  334MOL0     C45960   1.677   1.942   7.325 -0.4488 -0.2144 -0.2215
  334MOL0     C45961   1.694   1.959   7.185  1.8346  0.7380  1.0198
  334MOL0     O45962   1.742   2.082   7.129  0.1872  0.2476  0.3730
  334MOL0     C45963   1.760   2.209   7.208 -0.4806  0.9085 -0.3777
  334MOL0     C45964   1.627   2.279   7.241 -0.1115  0.9486  0.4099
  334MOL0     C45965   1.645   2.409   7.311 -0.8336  0.0837 -0.0251
  334MOL0     C45966   1.520   2.474   7.365 -0.9102  0.1673 -0.2606
  334MOL0     C45967   1.427   2.517   7.247 -0.0309  0.4667 -0.4506
  334MOL0     C45968   1.315   2.599   7.303  0.0961 -0.3461  1.0408
  334MOL0     C45969   1.191   2.574   7.222 -0.9163  0.1723  0.6149
  334MOL0     C45970   1.075   2.633   7.295 -0.8408  0.2141 -0.0080
  334MOL0     N45971   1.103   2.761   7.354 -0.0743  0.6129  0.4743
  334MOL0     C45972   1.132   2.878   7.286  0.2384  0.4295 -0.3014
  334MOL0     C45973   1.121   2.977   7.379  0.3537  0.8204 -0.3813
  334MOL0     C45974   1.130   3.125   7.373 -0.5754  0.2305 -0.2547
  334MOL0     C45975   1.239   3.158   7.281 -0.4673 -0.3782 -0.1889
  334MOL0     C45976   1.227   3.306   7.263  0.1382  0.0914  1.0984
  334MOL0     C45977   1.319   3.377   7.156 -0.4770  0.5219 -0.2093
  334MOL0     O45978   1.452   3.387   7.211  0.8045  0.3603 -0.2231
  334MOL0     C45979   1.498   3.518   7.251  0.1814 -0.2219 -0.1776
  334MOL0     C45980   1.420   3.627   7.292 -0.5384  0.5957 -0.2034
  334MOL0     C45981   1.486   3.753   7.332  0.9268  0.7092 -1.0322
  334MOL0     C45982   1.391   3.859   7.396  0.2957  0.1788  0.3022
  334MOL0     C45983   1.628   3.768   7.348 -0.0250  0.2882 -0.3589
  334MOL0     C45984   1.698   3.900   7.368  0.1111  0.1050  0.2295
  334MOL0     O45985   1.834   3.890   7.372  0.4708 -0.6418  0.1020
  334MOL0     C45986   1.911   4.002   7.334  0.5995  1.2458  0.3125
  334MOL0     C45987   1.877   4.113   7.250 -1.4177  0.1575  1.2668
  334MOL0     C45988   1.976   4.187   7.197  0.1433  0.2522 -0.0949
  334MOL0     C45989   2.109   4.161   7.219  0.7286 -0.4947  0.4495
  334MOL0     O45990   2.212   4.244   7.170 -0.5347 -0.8256 -0.0557
  334MOL0     C45991   2.244   4.234   7.029  1.0569 -0.4133 -0.1188
  334MOL0     C45992   2.397   4.215   6.999  0.7665 -0.3711 -0.2515
  334MOL0     C45993   2.444   4.070   7.043 -0.0885 -0.3094 -0.9078
  334MOL0     C45994   2.580   4.049   6.988  0.1209  0.0096 -0.5903
  334MOL0     C45995   2.589   4.006   6.835 -0.0200  0.1217  0.5600
  334MOL0     C45996   2.725   3.934   6.819  0.4109  0.0657 -0.0838
  334MOL0     C45997   2.765   3.897   6.678  0.0119  0.1534  0.1607
  334MOL0     C45998   2.893   3.811   6.687  0.7930 -0.1988 -0.0212
  334MOL0    Cl45999   3.037   3.914   6.723 -0.0026 -0.1179  0.5661
  334MOL0     C46000   2.142   4.079   7.323 -0.5057  0.5566 -0.7623
  334MOL0     C46001   2.050   3.992   7.371 -0.4396  0.1057  0.6193
  334MOL0     O46002   1.636   4.008   7.356  0.2868 -0.5972 -0.3265
  334MOL0     C46003   1.698   3.650   7.303 -0.0871  0.4582  1.1928
  334MOL0     C46004   1.638   3.531   7.255 -0.4820 -0.5351 -0.2761
  334MOL0     N46005   1.076   2.923   7.495 -0.0055  0.2140 -0.4949
  334MOL0     N46006   1.067   2.791   7.484  0.1481  0.1752  0.3756
  334MOL0     C46007   1.652   1.853   7.103 -0.1757  0.4984 -0.3692
  334MOL0     C46008   1.592   1.739   7.159 -0.1904 -0.8009 -0.3388
  334MOL0     C46009   1.460   1.451   7.499 -0.3859  0.9031 -0.0103
  334MOL0     C46010   1.597   1.404   7.512  0.0428 -0.2999 -0.1774
  334MOL0     C46011   1.625   1.272   7.565 -0.1878 -0.3760  0.4959
  334MOL0     C46012   1.516   1.192   7.600  0.8702  0.5636  0.2030
  334MOL0     O46013   1.527   1.051   7.630 -0.4179  0.4152 -0.0707
  334MOL0     C46014   1.650   0.982   7.586 -0.2666  0.5421  0.1871
  334MOL0     C46015   1.658   0.831   7.646  0.2816 -0.7987  0.4018
  334MOL0     C46016   1.516   0.781   7.697  0.0388  0.6581 -0.2033
  334MOL0     C46017   1.512   0.632   7.737 -0.4696 -0.4375  0.2859
  334MOL0     C46018   1.619   0.547   7.678 -0.1530 -0.0837 -0.2766
  334MOL0     C46019   1.692   0.456   7.629 -0.0336 -0.1201 -0.6073
  334MOL0     C46020   1.387   1.242   7.593  0.5269 -0.3844  1.0467
  334MOL0     C46021   1.353   1.371   7.543 -0.2087  0.0403  0.5793
  334MOL0     C46022   1.208   1.408   7.530  0.1251  0.4596  0.4609
  334MOL0     H46023   1.599   1.816   7.485  2.0808 -0.8801  0.7488
  334MOL0     H46024   1.708   2.019   7.394 -2.5582 -0.5197  1.1464
  334MOL0     H46025   1.827   2.273   7.150  0.9080 -1.3689 -1.4270
  334MOL0     H46026   1.800   2.183   7.307  0.1905 -0.3020 -0.9491
  334MOL0     H46027   1.576   2.309   7.149  0.2705 -0.3280 -0.2402
  334MOL0     H46028   1.570   2.198   7.286  3.4549 -2.2037 -0.1960
  334MOL0     H46029   1.710   2.386   7.395  2.3862 -0.5433 -2.4909
  334MOL0     H46030   1.690   2.485   7.247  0.7395 -1.6893 -1.1189
  334MOL0     H46031   1.469   2.399   7.426  0.7599  1.0541  2.4258
  334MOL0     H46032   1.545   2.553   7.437  2.0967 -1.0420  0.1582
  334MOL0     H46033   1.388   2.423   7.205  1.4749  1.0663 -3.4624
  334MOL0     H46034   1.477   2.567   7.164  0.7604 -1.4424 -1.1816
  334MOL0     H46035   1.283   2.561   7.400 -0.8076 -2.5683 -0.0564
  334MOL0     H46036   1.348   2.703   7.298  0.2778 -0.3650  1.7540
  334MOL0     H46037   1.178   2.469   7.196  1.2937  0.3037 -1.3582
  334MOL0     H46038   1.199   2.609   7.119  0.9671 -1.9538 -0.0479
  334MOL0     H46039   0.987   2.634   7.231 -0.3869 -2.3467 -0.7908
  334MOL0     H46040   1.046   2.566   7.377 -0.0002 -0.6632 -0.4005
  334MOL0     H46041   1.144   2.883   7.178 -4.0230 -0.7433 -1.0098
  334MOL0     H46042   1.158   3.157   7.474 -2.0732 -1.3731  0.7392
  334MOL0     H46043   1.032   3.164   7.342  0.0838  0.2966 -2.3690
  334MOL0     H46044   1.340   3.140   7.319 -0.0195  0.8383 -0.7394
  334MOL0     H46045   1.233   3.098   7.189 -0.8829 -1.6708  0.6566
  334MOL0     H46046   1.128   3.326   7.221  1.1431 -0.4888 -1.8049
  334MOL0     H46047   1.246   3.358   7.357  2.0050  1.5164  0.0180
  334MOL0     H46048   1.330   3.322   7.062 -0.2372  0.0195  0.1126
  334MOL0     H46049   1.278   3.478   7.141 -3.0884 -0.3770  0.3999
  334MOL0     H46050   1.313   3.614   7.300 -0.5338  1.4839  2.0311
  334MOL0     H46051   1.293   3.820   7.423 -0.1755  0.6818 -0.6244
  334MOL0     H46052   1.370   3.949   7.336  3.0851  1.3267  0.9017
  334MOL0     H46053   1.430   3.889   7.493 -3.4851  0.3138  1.9638
  334MOL0     H46054   1.781   4.120   7.201  0.2946  0.7710 -2.3698
  334MOL0     H46055   1.947   4.271   7.134 -0.1578  3.2393  3.6392
  334MOL0     H46056   2.186   4.154   6.982 -1.8135  2.0402 -1.0754
  334MOL0     H46057   2.215   4.332   6.989  0.8251 -1.3733 -2.4515
  334MOL0     H46058   2.402   4.221   6.890  0.7237 -1.8566 -0.3662
  334MOL0     H46059   2.456   4.298   7.037 -1.3626  0.0730  2.4021
  334MOL0     H46060   2.370   3.997   7.009 -1.5009  0.9648 -0.6627
  334MOL0     H46061   2.448   4.060   7.152  0.5162 -0.6557 -0.9585
  334MOL0     H46062   2.618   3.973   7.057  4.2185  2.4650  0.2060
  334MOL0     H46063   2.642   4.134   7.017 -1.9048  1.8676 -1.4154
  334MOL0     H46064   2.526   3.921   6.805  0.5784 -0.5250  1.1171
  334MOL0     H46065   2.578   4.101   6.781 -0.0368  1.2012  2.3944
  334MOL0     H46066   2.722   3.854   6.893  2.8630  0.3717  0.4337
  334MOL0     H46067   2.797   4.005   6.860  1.9980 -2.3734  1.5997
  334MOL0     H46068   2.804   3.982   6.621  1.4868  0.1079  1.0332
  334MOL0     H46069   2.689   3.839   6.626  0.3681 -0.8123  0.6897
  334MOL0     H46070   2.905   3.778   6.584  1.0315  2.9687 -1.0914
  334MOL0     H46071   2.891   3.721   6.751 -2.7027 -0.8040 -0.8221
  334MOL0     H46072   2.241   4.069   7.365 -0.6770  0.4185 -0.3785
  334MOL0     H46073   2.069   3.915   7.445  2.8932  2.4885  2.5122
  334MOL0     H46074   1.806   3.648   7.315 -0.0393  0.5733  0.7896
  334MOL0     H46075   1.716   3.458   7.235  1.7972  1.2226  1.5383
  334MOL0     H46076   1.684   1.840   7.000  2.9839  0.5576  0.5211
  334MOL0     H46077   1.573   1.657   7.091  2.3095 -1.4224 -0.3805
  334MOL0     H46078   1.681   1.470   7.495 -1.2632  1.3851 -0.3818
  334MOL0     H46079   1.727   1.235   7.561 -0.0695  0.0588 -1.4456
  334MOL0     H46080   1.625   0.976   7.479 -1.4802 -5.5334  0.4482
  334MOL0     H46081   1.735   1.041   7.622  0.9816 -0.2693 -1.3259
  334MOL0     H46082   1.726   0.831   7.731 -0.1936  4.1006  1.0719
  334MOL0     H46083   1.696   0.766   7.567  0.7717 -2.7301  2.1446
  334MOL0     H46084   1.501   0.846   7.784  2.3763 -1.2399  1.7678
  334MOL0     H46085   1.429   0.791   7.631 -0.7109 -0.5365  0.5739
  334MOL0     H46086   1.416   0.592   7.702 -0.7884  1.3975 -1.1087
  334MOL0     H46087   1.502   0.614   7.845 -6.4376  0.8200  0.3212
  334MOL0     H46088   1.754   0.383   7.581 -0.8613 -3.1731  2.5414
  334MOL0     H46089   1.322   1.164   7.633 -2.1496  0.4717 -1.3962
  334MOL0     H46090   1.176   1.474   7.612  2.7054  1.1901  0.9785
  334MOL0     H46091   1.195   1.446   7.428 -0.7440  1.3392  0.8745
  334MOL0     H46092   1.151   1.315   7.536  2.4578 -0.9656  3.3415
  335MOL0     O46093   4.789  10.729   3.271  0.8029 -0.0736  0.6410
  335MOL0     C46094   4.750  10.832   3.205 -0.1480  0.0093 -0.5943
  335MOL0     O46095   4.835  10.929   3.170 -0.7291  0.1577 -0.1913
  335MOL0     C46096   4.969  10.908   3.168  0.3553 -1.0955  0.2435
  335MOL0     C46097   5.036  10.808   3.093 -0.5945 -0.3839  0.7796
  335MOL0     C46098   5.174  10.812   3.078 -0.1947 -1.0058  0.5778
  335MOL0     C46099   5.252  10.904   3.147  0.6392 -0.0719  0.3752
  335MOL0     O46100   5.388  10.926   3.135 -0.8136 -0.2431  0.7082
  335MOL0     C46101   5.418  11.050   3.065 -0.1495  0.1345  0.1662
  335MOL0     C46102   5.559  11.051   2.993  0.5530 -0.0724  0.2568
  335MOL0     C46103   5.577  11.188   2.922 -0.2493  0.6198 -0.3071
  335MOL0     C46104   5.709  11.207   2.863  0.2723 -0.0722  0.7815
  335MOL0     C46105   5.700  11.333   2.781 -0.2395  0.7273  0.5578
  335MOL0     C46106   5.841  11.362   2.730 -0.1336 -0.5979 -0.3160
  335MOL0     C46107   5.848  11.508   2.667  0.0335 -0.0588 -0.0200
  335MOL0     C46108   5.994  11.566   2.680  0.5972  0.3034  0.3443
  335MOL0     N46109   6.092  11.475   2.626 -0.8007  0.7522  0.0446
  335MOL0     C46110   6.163  11.496   2.509  0.4158 -0.3307 -0.1708
  335MOL0     C46111   6.254  11.386   2.504 -0.4037  0.0479  0.5607
  335MOL0     C46112   6.355  11.387   2.389  0.0415 -0.3475  0.1386
  335MOL0     C46113   6.289  11.331   2.260 -0.9918  1.0721 -0.3404
  335MOL0     C46114   6.336  11.179   2.248  0.0485  0.2102  0.5111
  335MOL0     C46115   6.283  11.114   2.119  0.4926 -0.5256 -0.9962
  335MOL0     O46116   6.337  11.193   2.011 -0.3951  0.2763 -0.0630
  335MOL0     C46117   6.391  11.123   1.901 -0.0812 -1.0917  0.4857
  335MOL0     C46118   6.443  10.992   1.886 -0.5067  0.0351  0.2183
  335MOL0     C46119   6.480  10.939   1.763 -0.8835 -0.5559  0.6715
  335MOL0     C46120   6.549  10.804   1.762 -0.3411 -0.8238 -0.7774
  335MOL0     C46121   6.467  11.020   1.648 -0.1795  0.0941 -0.3123
  335MOL0     C46122   6.510  10.980   1.512  0.4312 -0.7165  0.4065
  335MOL0     O46123   6.639  10.934   1.486  0.4965 -0.2214 -0.2689
  335MOL0     C46124   6.666  10.908   1.358 -0.8688 -1.5239  0.7664
  335MOL0     C46125   6.669  10.780   1.314  0.5282  0.5208  0.4427
  335MOL0     C46126   6.692  10.757   1.178  0.0192  0.0151 -0.4866
  335MOL0     C46127   6.726  10.867   1.096  0.2393 -0.6447  0.9024
  335MOL0     O46128   6.764  10.862   0.961 -0.1094  0.6251  0.4257
  335MOL0     C46129   6.860  10.763   0.924  0.1515 -0.2794 -0.0210
  335MOL0     C46130   6.975  10.845   0.863  0.1613  0.0970  0.4347
  335MOL0     C46131   7.092  10.770   0.810  0.5234 -0.2377 -0.5044
  335MOL0     C46132   7.154  10.668   0.914  0.6405 -0.1028  0.3678
  335MOL0     C46133   7.213  10.739   1.047 -0.1243 -1.1079  0.1901
  335MOL0     C46134   7.322  10.843   1.020  0.2138 -0.0103 -0.0462
  335MOL0     C46135   7.391  10.886   1.145 -0.0029  0.3945 -0.4047
  335MOL0     C46136   7.475  10.783   1.213 -0.0456 -1.4626  0.1936
  335MOL0    Cl46137   7.608  10.703   1.106  0.1015 -0.0329  0.0966
  335MOL0     C46138   6.727  10.996   1.140 -0.0469 -0.2908 -0.5628
  335MOL0     C46139   6.692  11.017   1.275 -0.2614  0.0153 -0.4694
  335MOL0     O46140   6.416  11.003   1.432 -0.1631  0.4867 -0.5778
  335MOL0     C46141   6.416  11.149   1.662 -0.0721  0.8802  1.0155
  335MOL0     C46142   6.375  11.198   1.781 -0.5206 -0.2804 -0.0756
  335MOL0     N46143   6.248  11.306   2.611  0.2518  0.4988 -0.8124
  335MOL0     N46144   6.162  11.371   2.689  0.0348  0.5662 -0.4541
  335MOL0     C46145   5.177  11.004   3.229 -1.6007  0.0804 -0.3363
  335MOL0     C46146   5.049  11.010   3.230 -0.3814  0.2742  0.3005
  335MOL0     C46147   4.618  10.841   3.140 -0.0170 -0.9034 -0.0339
  335MOL0     C46148   4.552  10.959   3.155 -0.3491 -0.6151  0.1399
  335MOL0     C46149   4.416  10.968   3.115 -0.0195 -0.0018  0.5731
  335MOL0     C46150   4.347  10.860   3.064 -0.1812 -0.0866 -0.4530
  335MOL0     O46151   4.214  10.850   3.056 -0.0652 -0.5313  0.1121
  335MOL0     C46152   4.140  10.951   2.973 -0.1933  0.8870 -0.0624
  335MOL0     C46153   3.991  10.951   2.991  0.2925 -0.8894  0.2854
  335MOL0     C46154   3.936  11.063   3.073 -0.4365  0.5311  0.7546
  335MOL0     C46155   3.782  11.066   3.056  0.4831 -0.4699  0.5901
  335MOL0     C46156   3.706  11.114   3.176  0.4775 -0.6669 -0.0304
  335MOL0     C46157   3.647  11.160   3.271 -0.7328  1.3559  0.5345
  335MOL0     C46158   4.413  10.746   3.032 -0.1628 -0.6043 -0.8764
  335MOL0     C46159   4.546  10.734   3.070  0.0721  0.1055 -0.2284
  335MOL0     C46160   4.608  10.601   3.085  0.1004  0.5594  0.2212
  335MOL0     H46161   4.976  10.736   3.040 -1.5687  2.0452 -1.6284
  335MOL0     H46162   5.211  10.745   3.002 -2.2265 -0.9262 -0.5500
  335MOL0     H46163   5.426  11.129   3.140  0.3280 -2.2200  2.7788
  335MOL0     H46164   5.332  11.077   3.003 -1.9095  2.1505  3.2040
  335MOL0     H46165   5.635  11.029   3.069  1.6788  0.8308 -0.5650
  335MOL0     H46166   5.563  10.974   2.915 -1.0417 -1.4653  1.4812
  335MOL0     H46167   5.504  11.192   2.840 -1.1458  2.1769  0.5192
  335MOL0     H46168   5.576  11.266   2.998  3.1254  0.5058  0.0084
  335MOL0     H46169   5.786  11.217   2.939  1.0707 -1.1182  0.1298
  335MOL0     H46170   5.741  11.125   2.798 -3.8236 -1.5705  0.3583
  335MOL0     H46171   5.672  11.413   2.851 -2.6072 -0.0769  0.6039
  335MOL0     H46172   5.624  11.324   2.704  1.7896  0.5627 -1.5209
  335MOL0     H46173   5.908  11.353   2.816 -0.5914 -1.4616 -0.0372
  335MOL0     H46174   5.880  11.288   2.660 -0.9445 -2.1887  0.8729
  335MOL0     H46175   5.790  11.575   2.731 -1.9262 -2.5257  0.9646
  335MOL0     H46176   5.802  11.505   2.568 -0.4763  0.1858  0.2073
  335MOL0     H46177   6.013  11.661   2.630  0.6065 -1.6676 -3.8498
  335MOL0     H46178   6.018  11.576   2.786  2.8314 -0.0559 -0.0801
  335MOL0     H46179   6.166  11.588   2.453 -0.8997 -0.0755  0.1554
  335MOL0     H46180   6.446  11.329   2.406  0.5829 -0.1196 -1.8386
  335MOL0     H46181   6.400  11.486   2.382 -0.7225  0.5296  4.4960
  335MOL0     H46182   6.181  11.331   2.274 -0.7469 -0.1838  2.2665
  335MOL0     H46183   6.321  11.395   2.177 -1.3196  0.8190 -0.6652
  335MOL0     H46184   6.446  11.178   2.244  0.0207  0.6365 -1.0253
  335MOL0     H46185   6.317  11.119   2.337  1.3802 -0.8082  0.1483
  335MOL0     H46186   6.309  11.009   2.108 -1.0939 -1.0879  0.1808
  335MOL0     H46187   6.174  11.129   2.116  0.6629  1.2343 -5.6910
  335MOL0     H46188   6.465  10.932   1.973  0.4542 -2.3146 -1.5316
  335MOL0     H46189   6.626  10.791   1.685 -0.2194 -2.7394 -0.3815
  335MOL0     H46190   6.477  10.729   1.727  0.5869 -1.0265 -2.3744
  335MOL0     H46191   6.591  10.788   1.861  0.4058 -3.1466 -1.4240
  335MOL0     H46192   6.644  10.692   1.373 -1.7685  1.0675  0.3697
  335MOL0     H46193   6.706  10.660   1.131 -1.2716  0.9402 -2.9478
  335MOL0     H46194   6.886  10.710   1.017 -2.0519  1.2463  1.5805
  335MOL0     H46195   6.816  10.691   0.855 -1.1320 -1.2371  1.7126
  335MOL0     H46196   6.941  10.909   0.781  1.9180 -1.0678 -1.2904
  335MOL0     H46197   7.021  10.909   0.940  1.4643  0.7554 -0.8311
  335MOL0     H46198   7.176  10.835   0.785  0.4532  0.3661  0.7182
  335MOL0     H46199   7.057  10.711   0.726 -0.5494  1.2924 -1.1790
  335MOL0     H46200   7.233  10.610   0.865  0.4218 -0.0828 -0.0171
  335MOL0     H46201   7.078  10.592   0.936  1.8506 -0.4576  3.9495
  335MOL0     H46202   7.137  10.787   1.109  1.3754 -1.0909  2.0949
  335MOL0     H46203   7.258  10.659   1.105  0.2377 -0.3662  0.9571
  335MOL0     H46204   7.284  10.938   0.981  6.0768  2.7857 -0.0101
  335MOL0     H46205   7.392  10.808   0.944 -0.8814  2.4300 -2.3547
  335MOL0     H46206   7.320  10.939   1.209  1.7813  1.1734  1.0260
  335MOL0     H46207   7.447  10.971   1.106 -0.6318  0.2616 -1.6619
  335MOL0     H46208   7.403  10.710   1.250 -1.6880  0.2915  0.6300
  335MOL0     H46209   7.512  10.837   1.301 -1.4923  2.0960 -1.1948
  335MOL0     H46210   6.747  11.085   1.082  0.2526  0.5534  0.7756
  335MOL0     H46211   6.680  11.121   1.306  0.2502 -0.0753  0.0358
  335MOL0     H46212   6.395  11.206   1.572  0.5391 -2.0946 -1.1848
  335MOL0     H46213   6.323  11.293   1.781  1.7618  1.0399  1.1291
  335MOL0     H46214   5.225  11.095   3.265  1.9417 -1.4949 -0.6678
  335MOL0     H46215   4.995  11.083   3.289 -3.1740 -0.5123 -1.1212
  335MOL0     H46216   4.598  11.046   3.201 -0.5774 -0.8508  0.8192
  335MOL0     H46217   4.367  11.058   3.151 -2.4875 -0.3164 -1.6445
  335MOL0     H46218   4.181  11.052   2.980 -1.4190  1.3678  0.5112
  335MOL0     H46219   4.143  10.933   2.865 -2.2986  0.8194 -0.1468
  335MOL0     H46220   3.974  10.853   3.037 -1.0241 -0.4458  0.8067
  335MOL0     H46221   3.941  10.939   2.895 -0.0354 -0.3297  0.3814
  335MOL0     H46222   3.957  11.036   3.176 -3.7193 -2.1280  0.9022
  335MOL0     H46223   3.978  11.157   3.036 -2.8232  0.7869 -1.6724
  335MOL0     H46224   3.755  10.963   3.034 -4.4199  0.8331 -0.7041
  335MOL0     H46225   3.740  11.110   2.965 -1.3981 -2.2722  0.5240
  335MOL0     H46226   3.596  11.226   3.339  0.8630  0.1115  3.0534
  335MOL0     H46227   4.357  10.660   2.996 -0.9685  0.7952 -3.1843
  335MOL0     H46228   4.597  10.547   3.179 -2.5731  0.3240 -0.1628
  335MOL0     H46229   4.561  10.532   3.014  3.9835 -1.7491 -0.4102
  335MOL0     H46230   4.713  10.610   3.054 -0.1266 -1.1357 -1.2047
  336MOL0     O46231   9.222  10.227   5.879  0.2883 -0.4334 -0.0028
  336MOL0     C46232   9.123  10.248   5.947 -0.3097  0.3592 -0.1688
  336MOL0     O46233   8.991  10.220   5.910 -0.3300  0.1626  0.1992
  336MOL0     C46234   8.967  10.157   5.796 -0.3467  1.0805  0.9404
  336MOL0     C46235   8.997  10.201   5.665  0.8333  0.2937  0.2737
  336MOL0     C46236   8.965  10.115   5.558 -0.4686  0.4506  0.4183
  336MOL0     C46237   8.879  10.007   5.567  0.2582  0.5836 -0.0313
  336MOL0     O46238   8.832   9.927   5.462  0.1470 -0.1272  0.3778
  336MOL0     C46239   8.845   9.979   5.325  0.4196  0.4355 -0.9013
  336MOL0     C46240   8.769   9.885   5.236 -0.4713  0.2298 -0.8191
  336MOL0     C46241   8.735   9.946   5.090 -0.0425  0.0304  0.3057
  336MOL0     C46242   8.644   9.858   5.003 -0.5303 -0.0921  0.2371
  336MOL0     C46243   8.632   9.910   4.860  0.1267  0.1542  0.5875
  336MOL0     C46244   8.557   9.818   4.766 -0.0888 -1.0449  0.2169
  336MOL0     C46245   8.565   9.869   4.629  0.1521 -0.9696  0.2967
  336MOL0     C46246   8.549   9.746   4.537  1.1502 -0.6989  0.2403
  336MOL0     N46247   8.515   9.777   4.393 -1.0729 -0.2461  0.2133
  336MOL0     C46248   8.399   9.826   4.343 -0.3096  0.8783  0.5302
  336MOL0     C46249   8.414   9.834   4.210 -0.1197  0.2740 -0.2836
  336MOL0     C46250   8.328   9.905   4.102 -0.4265 -0.4910  0.4388
  336MOL0     C46251   8.323  10.054   4.131  0.0226  0.6549 -0.5652
  336MOL0     C46252   8.458  10.135   4.116  0.6262  0.7083 -0.2799
  336MOL0     C46253   8.547  10.125   4.240 -0.7917  0.1809  0.3755
  336MOL0     O46254   8.457  10.165   4.348 -0.4152 -0.3948 -0.7701
  336MOL0     C46255   8.516  10.206   4.463 -0.8341 -0.5171 -0.1963
  336MOL0     C46256   8.654  10.198   4.500 -0.0353  0.3462  0.8585
  336MOL0     C46257   8.708  10.227   4.627 -0.5372 -0.2689 -0.2430
  336MOL0     C46258   8.858  10.202   4.651  0.1366  0.5300  0.3002
  336MOL0     C46259   8.620  10.285   4.725 -0.9291  0.6784  0.2778
  336MOL0     C46260   8.664  10.329   4.861  0.0448 -0.6446  0.4693
  336MOL0     O46261   8.784  10.397   4.863 -0.1661 -0.0542  0.4771
  336MOL0     C46262   8.820  10.455   4.976 -0.4689  1.4232 -0.2462
  336MOL0     C46263   8.919  10.400   5.056  1.2851 -1.0308  0.5491
  336MOL0     C46264   8.944  10.466   5.181  0.1510  0.2126 -0.3702
  336MOL0     C46265   8.866  10.574   5.232 -0.4154 -0.7898  0.7216
  336MOL0     O46266   8.868  10.639   5.355 -0.2478  0.6808 -0.0997
  336MOL0     C46267   8.986  10.628   5.425 -0.8654 -0.1949 -0.3877
  336MOL0     C46268   8.997  10.754   5.504  0.0361  0.0558 -0.8967
  336MOL0     C46269   9.003  10.882   5.419 -0.5062  0.2481  0.6719
  336MOL0     C46270   9.128  10.964   5.448 -0.1360 -0.2342 -0.5282
  336MOL0     C46271   9.259  10.911   5.380 -0.0797  0.1495  0.1030
  336MOL0     C46272   9.382  10.946   5.469  0.0717 -0.5138  0.9014
  336MOL0     C46273   9.411  11.096   5.482  0.0982  0.0480  0.1995
  336MOL0     C46274   9.515  11.129   5.595  1.5609 -0.6499  0.5356
  336MOL0    Cl46275   9.667  11.090   5.535 -0.4375 -0.0808  0.1970
  336MOL0     C46276   8.769  10.628   5.149  0.0181 -0.5264  0.6854
  336MOL0     C46277   8.751  10.563   5.028 -0.3872 -0.2599  0.5172
  336MOL0     O46278   8.580  10.327   4.954 -0.5607 -0.4588  0.3666
  336MOL0     C46279   8.480  10.282   4.697 -0.1375  0.5294 -0.2103
  336MOL0     C46280   8.436  10.245   4.564 -0.3758  1.1085 -0.3888
  336MOL0     N46281   8.541   9.791   4.182  0.5524  0.4598  0.3615
  336MOL0     N46282   8.602   9.770   4.293 -1.0312 -0.5381 -0.3985
  336MOL0     C46283   8.864   9.964   5.702 -0.6358  0.6935 -0.7335
  336MOL0     C46284   8.918  10.033   5.813 -0.1139 -0.0504  0.7237
  336MOL0     C46285   9.153  10.301   6.085  0.7567  0.5553  0.9951
  336MOL0     C46286   9.295  10.318   6.129 -0.4989  0.4011 -0.0372
  336MOL0     C46287   9.319  10.394   6.243  0.4296 -1.0677 -1.0534
  336MOL0     C46288   9.218  10.456   6.326 -0.0645  0.1956 -0.0525
  336MOL0     O46289   9.223  10.536   6.437  0.0479 -0.7988 -0.0341
  336MOL0     C46290   9.349  10.605   6.460 -0.3603  0.1191 -0.1770
  336MOL0     C46291   9.358  10.742   6.391  0.2351  0.3099 -0.1125
  336MOL0     C46292   9.505  10.801   6.387 -0.3611 -0.0552 -0.4916
  336MOL0     C46293   9.497  10.953   6.331  0.0571  0.0246 -0.3908
  336MOL0     C46294   9.452  11.037   6.439 -0.0181  0.3854  0.0005
  336MOL0     C46295   9.415  11.104   6.533  1.0470  0.0116  0.9012
  336MOL0     C46296   9.081  10.410   6.297  0.0373  0.6887  0.5250
  336MOL0     C46297   9.052  10.329   6.181  0.0751 -0.9463 -0.5584
  336MOL0     C46298   8.909  10.289   6.165  0.3416  0.0085  0.0923
  336MOL0     H46299   9.053  10.295   5.665 -3.5081  3.1504  0.9546
  336MOL0     H46300   8.990  10.142   5.456  2.2893  0.9753  1.1482
  336MOL0     H46301   8.951   9.981   5.296 -0.0463  2.2061 -2.7306
  336MOL0     H46302   8.797  10.077   5.326 -1.4976 -0.3975 -2.6253
  336MOL0     H46303   8.832   9.798   5.219 -1.2777 -0.5637  0.1321
  336MOL0     H46304   8.680   9.852   5.290 -0.4739 -0.8473 -1.4517
  336MOL0     H46305   8.673  10.036   5.103  0.0071 -0.0131  0.8884
  336MOL0     H46306   8.828   9.967   5.038 -0.2086 -3.9549 -1.9807
  336MOL0     H46307   8.692   9.759   5.009  1.2484  0.6057 -1.2916
  336MOL0     H46308   8.544   9.850   5.046 -0.9446 -0.8450 -0.8127
  336MOL0     H46309   8.735   9.934   4.832  0.3597 -1.5914 -0.1563
  336MOL0     H46310   8.577  10.004   4.866 -0.4744 -0.0958 -0.7275
  336MOL0     H46311   8.610   9.723   4.777  0.7398 -0.6580 -0.3033
  336MOL0     H46312   8.454   9.798   4.797  0.4714 -2.8915  1.0667
  336MOL0     H46313   8.659   9.923   4.612 -1.1091  0.8621 -1.2891
  336MOL0     H46314   8.479   9.935   4.613  1.1224  0.6460  1.3950
  336MOL0     H46315   8.643   9.690   4.533  0.9694 -0.9214 -1.9350
  336MOL0     H46316   8.465   9.690   4.579 -0.2426  0.4904 -0.8386
  336MOL0     H46317   8.314   9.848   4.408  1.1106  3.6005  1.6418
  336MOL0     H46318   8.226   9.868   4.094 -0.5214 -0.1625  0.0786
  336MOL0     H46319   8.370   9.891   4.002 -0.8481  0.2558  0.1481
  336MOL0     H46320   8.243  10.097   4.070 -0.5530  1.2004  0.5493
  336MOL0     H46321   8.284  10.067   4.232 -1.2248 -0.4580 -0.8848
  336MOL0     H46322   8.515  10.108   4.027 -2.5708 -2.4508 -1.5861
  336MOL0     H46323   8.429  10.239   4.102  0.9586  1.2311  2.2930
  336MOL0     H46324   8.595  10.027   4.238 -0.7314  0.2108 -0.8556
  336MOL0     H46325   8.628  10.198   4.224 -2.0090  1.2676 -1.1086
  336MOL0     H46326   8.727  10.166   4.428  1.3171  4.5085  0.0781
  336MOL0     H46327   8.898  10.301   4.628  0.6538 -0.0396 -1.3753
  336MOL0     H46328   8.901  10.123   4.589 -1.7322 -1.4064  1.3362
  336MOL0     H46329   8.875  10.179   4.757  1.2115  1.9122  0.4561
  336MOL0     H46330   8.986  10.318   5.033  0.1163 -1.2153 -2.7144
  336MOL0     H46331   9.022  10.421   5.241 -0.8832 -0.4935  0.4858
  336MOL0     H46332   8.980  10.537   5.485  0.3370  0.6139  1.0440
  336MOL0     H46333   9.078  10.621   5.367  2.4077  0.8679  4.0771
  336MOL0     H46334   8.904  10.769   5.561  0.8147  1.3726  0.0688
  336MOL0     H46335   9.081  10.743   5.573 -1.1913 -1.0170  0.5152
  336MOL0     H46336   8.921  10.954   5.433  2.2887  4.1134 -1.0642
  336MOL0     H46337   9.001  10.849   5.315 -4.2884  0.6565  0.4486
  336MOL0     H46338   9.149  10.978   5.555  0.8379 -0.3960 -0.6828
  336MOL0     H46339   9.111  11.068   5.416  1.3877  1.0689  2.4380
  336MOL0     H46340   9.257  10.803   5.361 -1.9811  0.4156 -1.5449
  336MOL0     H46341   9.280  10.946   5.279 -2.3569 -1.1136 -0.8829
  336MOL0     H46342   9.464  10.885   5.431 -0.4146 -0.2264 -0.6927
  336MOL0     H46343   9.362  10.903   5.568 -0.7608 -1.4136  0.3658
  336MOL0     H46344   9.309  11.135   5.494 -0.7204 -1.9484  0.0821
  336MOL0     H46345   9.448  11.106   5.379 -4.5307  0.4560 -1.6545
  336MOL0     H46346   9.501  11.081   5.692 -1.8782 -1.8378 -0.4013
  336MOL0     H46347   9.496  11.235   5.615 -2.0310 -0.6122 -1.9756
  336MOL0     H46348   8.723  10.721   5.181  1.3335  0.0303  1.0303
  336MOL0     H46349   8.673  10.613   4.972  0.2484 -0.3672 -0.5019
  336MOL0     H46350   8.410  10.305   4.777 -2.7106 -0.4757 -2.0790
  336MOL0     H46351   8.330  10.243   4.541 -0.5986 -2.1752  0.4346
  336MOL0     H46352   8.820   9.865   5.710 -0.2374  0.3693 -2.1720
  336MOL0     H46353   8.917   9.977   5.906  1.0691  0.6144  1.1677
  336MOL0     H46354   9.381  10.288   6.069 -0.7839  1.8639 -1.2334
  336MOL0     H46355   9.421  10.419   6.270 -0.6071 -0.7679  3.3059
  336MOL0     H46356   9.351  10.637   6.565  0.9269 -2.9131  0.8460
  336MOL0     H46357   9.439  10.556   6.422 -0.6458 -0.7433  0.2543
  336MOL0     H46358   9.295  10.801   6.458 -0.9802 -2.1132  1.0401
  336MOL0     H46359   9.302  10.738   6.298  0.5532  1.1886 -0.3476
  336MOL0     H46360   9.553  10.804   6.485  1.6760  2.1023 -1.4563
  336MOL0     H46361   9.573  10.751   6.318  0.5917  0.0650  0.3401
  336MOL0     H46362   9.431  10.963   6.244 -1.2316  1.5776  0.6966
  336MOL0     H46363   9.598  10.973   6.296  1.4730  1.1032  3.7391
  336MOL0     H46364   9.380  11.167   6.613 -0.3990 -0.4238  0.6377
  336MOL0     H46365   8.997  10.427   6.364 -0.0980  1.2442  0.2165
  336MOL0     H46366   8.846  10.341   6.092  0.4387 -1.5845 -1.1667
  336MOL0     H46367   8.900  10.186   6.129  0.8884 -0.0732  0.1855
  336MOL0     H46368   8.848  10.301   6.255 -1.0543  1.5912 -0.9973
  337MOL0     O46369   1.874   9.240   7.321 -0.8001  0.4116 -0.4604
  337MOL0     C46370   1.888   9.135   7.257 -0.0919 -0.4756 -0.3525
  337MOL0     O46371   1.974   9.022   7.291  0.0044 -0.7536  0.0872
  337MOL0     C46372   2.051   9.054   7.401 -0.2564  0.7258  0.2264
  337MOL0     C46373   1.999   9.060   7.538  0.3310 -0.3307  0.3815
  337MOL0     C46374   2.083   9.066   7.647 -0.1925 -0.0425 -0.8682
  337MOL0     C46375   2.219   9.084   7.627  0.2355 -1.0754 -0.6674
  337MOL0     O46376   2.306   9.132   7.716 -0.3184  0.5340  0.4401
  337MOL0     C46377   2.264   9.217   7.816  0.2762 -0.1148 -0.4239
  337MOL0     C46378   2.376   9.304   7.859  0.2279  0.7518  0.8079
  337MOL0     C46379   2.490   9.220   7.911  0.4617  0.2037  0.4810
  337MOL0     C46380   2.611   9.316   7.943 -0.2860  0.5115  0.0990
  337MOL0     C46381   2.695   9.358   7.823 -0.9633  1.1349  0.3424
  337MOL0     C46382   2.661   9.496   7.765 -0.1664 -0.7518 -0.1575
  337MOL0     C46383   2.713   9.604   7.859 -0.0510 -1.7714  0.0439
  337MOL0     C46384   2.652   9.736   7.823  0.3448  0.6906  0.5559
  337MOL0     N46385   2.506   9.758   7.871 -0.9264  0.2082 -0.0860
  337MOL0     C46386   2.397   9.686   7.837  0.2180  0.8478  0.7846
  337MOL0     C46387   2.290   9.732   7.907 -0.5418 -0.1791 -0.7994
  337MOL0     C46388   2.157   9.677   7.917 -1.1577  0.5057  0.4390
  337MOL0     C46389   2.107   9.632   8.056  0.1204  0.2320 -0.5830
  337MOL0     C46390   1.951   9.626   8.058  0.2285 -0.5618 -0.4770
  337MOL0     C46391   1.893   9.486   8.026  0.0652  0.1289 -0.2212
  337MOL0     O46392   1.891   9.475   7.880  0.9339 -0.6163 -0.3972
  337MOL0     C46393   1.819   9.376   7.818  0.9424  0.2534 -0.3083
  337MOL0     C46394   1.797   9.253   7.882  0.5283 -0.8723 -0.6755
  337MOL0     C46395   1.732   9.154   7.815  0.0182 -0.0509  0.7574
  337MOL0     C46396   1.691   9.024   7.873 -0.4824 -0.4936  0.5149
  337MOL0     C46397   1.690   9.175   7.678 -0.5428 -0.9875  0.5581
  337MOL0     C46398   1.608   9.079   7.600  0.0311 -0.2043  0.2406
  337MOL0     O46399   1.645   8.950   7.600 -0.3461  0.1617  0.2447
  337MOL0     C46400   1.589   8.858   7.508  0.8190 -0.0323  0.0328
  337MOL0     C46401   1.623   8.864   7.370 -0.1324  0.7624  0.1021
  337MOL0     C46402   1.554   8.780   7.274 -0.9387 -0.7177 -0.5571
  337MOL0     C46403   1.471   8.686   7.326  0.3564 -0.0496  0.1503
  337MOL0     O46404   1.415   8.597   7.242 -0.2947  0.2269  0.1333
  337MOL0     C46405   1.274   8.587   7.235  0.4453  0.0232  0.3348
  337MOL0     C46406   1.234   8.520   7.107  0.5582  0.3807  0.4090
  337MOL0     C46407   1.325   8.560   6.978  0.2309  0.3252  0.1419
  337MOL0     C46408   1.260   8.508   6.853  0.1500  1.5416  0.1502
  337MOL0     C46409   1.374   8.537   6.748  0.9771  0.0858  0.2916
  337MOL0     C46410   1.316   8.515   6.609  0.8080  0.1524 -0.6261
  337MOL0     C46411   1.415   8.519   6.501 -1.1069  0.0619  0.3976
  337MOL0     C46412   1.494   8.387   6.485 -0.5874  0.2620  0.2212
  337MOL0    Cl46413   1.639   8.407   6.401 -0.1270 -0.1542  0.1267
  337MOL0     C46414   1.427   8.687   7.456 -0.2514 -0.1248 -0.2531
  337MOL0     C46415   1.490   8.764   7.556 -0.8327 -0.5724  0.2629
  337MOL0     O46416   1.507   9.124   7.546 -0.7527 -0.2099 -0.3918
  337MOL0     C46417   1.717   9.294   7.616 -0.3218 -0.2255  0.6401
  337MOL0     C46418   1.772   9.392   7.690  0.0852  0.7748 -0.3269
  337MOL0     N46419   2.341   9.821   7.994 -0.3056  0.5147 -0.5551
  337MOL0     N46420   2.466   9.842   7.969 -0.1855 -1.1414 -0.1590
  337MOL0     C46421   2.271   9.072   7.502  0.1684 -0.2020  0.3320
  337MOL0     C46422   2.192   9.052   7.389 -0.0687 -0.0705  0.9031
  337MOL0     C46423   1.781   9.124   7.142 -0.4248  0.8841 -0.7938
  337MOL0     C46424   1.655   9.187   7.170 -0.0546  0.0521  0.3074
  337MOL0     C46425   1.553   9.188   7.073  0.5519 -0.2612 -0.0987
  337MOL0     C46426   1.563   9.123   6.947 -0.2561  0.8583  1.1107
  337MOL0     O46427   1.478   9.135   6.840 -0.9176 -0.4030  0.4891
  337MOL0     C46428   1.377   9.236   6.848 -0.2063 -0.6762  0.0546
  337MOL0     C46429   1.422   9.389   6.849  0.1323 -0.1892 -0.1650
  337MOL0     C46430   1.325   9.503   6.843  0.4705  0.3951  0.8037
  337MOL0     C46431   1.316   9.589   6.974 -0.4709  0.6074  0.3165
  337MOL0     C46432   1.239   9.709   6.936 -0.9837  0.0088  0.0757
  337MOL0     C46433   1.185   9.811   6.907  0.0720  0.1848  1.2713
  337MOL0     C46434   1.672   9.040   6.938  0.3580  0.1728  0.6689
  337MOL0     C46435   1.779   9.034   7.031 -0.3229  0.1256 -0.1620
  337MOL0     C46436   1.902   8.942   6.993  0.1634  0.8124 -0.0305
  337MOL0     H46437   1.891   9.057   7.549 -0.0891  1.3638 -2.3124
  337MOL0     H46438   2.042   9.078   7.746  0.9128  0.9657 -0.4993
  337MOL0     H46439   2.225   9.161   7.901  0.5111  1.3578  0.6983
  337MOL0     H46440   2.196   9.295   7.781  0.9478  1.0333  0.7461
  337MOL0     H46441   2.412   9.342   7.762  0.0708 -0.7736  0.1277
  337MOL0     H46442   2.348   9.397   7.910 -2.3073 -0.1008  1.1093
  337MOL0     H46443   2.468   9.171   8.006  2.4234  0.7874  1.2883
  337MOL0     H46444   2.521   9.152   7.831 -1.0683 -0.5496  0.5099
  337MOL0     H46445   2.582   9.407   7.995  1.0074 -0.1350  2.0506
  337MOL0     H46446   2.669   9.250   8.008 -1.6498 -1.8967 -0.9785
  337MOL0     H46447   2.687   9.277   7.750 -0.3123  1.2337  0.1556
  337MOL0     H46448   2.801   9.354   7.849 -1.2431 -2.4974  1.4887
  337MOL0     H46449   2.723   9.502   7.675  0.0801 -0.8214  0.0075
  337MOL0     H46450   2.556   9.511   7.737  0.4657  2.7934 -1.0689
  337MOL0     H46451   2.821   9.613   7.845 -0.3913  2.0225 -1.2616
  337MOL0     H46452   2.710   9.583   7.966 -2.4072 -1.5785  0.0746
  337MOL0     H46453   2.702   9.819   7.875 -4.4523  1.9251  3.9049
  337MOL0     H46454   2.650   9.750   7.715  1.2412  0.2026  0.4683
  337MOL0     H46455   2.387   9.616   7.754  0.6928  0.0757  1.3695
  337MOL0     H46456   2.143   9.596   7.845  1.7566  0.1196  0.1746
  337MOL0     H46457   2.102   9.766   7.887 -2.8807 -0.2154  1.3179
  337MOL0     H46458   2.150   9.533   8.076 -2.0124 -0.5899  0.2585
  337MOL0     H46459   2.145   9.701   8.132 -0.8748 -0.1274  0.2607
  337MOL0     H46460   1.933   9.669   8.157  3.1203  0.2501 -0.2035
  337MOL0     H46461   1.906   9.698   7.990 -1.6848 -0.5904  0.6799
  337MOL0     H46462   1.951   9.405   8.072  3.6198  1.8457 -1.2960
  337MOL0     H46463   1.793   9.468   8.065  1.4325 -2.3295  2.6190
  337MOL0     H46464   1.820   9.246   7.988 -3.7706 -2.1535  0.3853
  337MOL0     H46465   1.587   8.997   7.854 -0.8969 -0.2952  2.3057
  337MOL0     H46466   1.706   9.025   7.981  0.9542  2.0158  0.3778
  337MOL0     H46467   1.749   8.940   7.835  2.5549  1.3922  0.6367
  337MOL0     H46468   1.695   8.940   7.343  2.2088 -0.6304  2.0016
  337MOL0     H46469   1.570   8.805   7.170  1.5417  0.1361 -0.0471
  337MOL0     H46470   1.233   8.523   7.313 -0.6178 -2.2719 -1.9543
  337MOL0     H46471   1.233   8.688   7.238  1.7239  0.7434 -2.6134
  337MOL0     H46472   1.247   8.413   7.126 -1.5380 -0.2615 -1.3286
  337MOL0     H46473   1.130   8.554   7.097  0.2737 -0.8011 -0.8027
  337MOL0     H46474   1.426   8.518   6.982  0.7040  0.8209 -3.4601
  337MOL0     H46475   1.345   8.667   6.978 -0.0086  0.3714  0.7480
  337MOL0     H46476   1.170   8.566   6.833 -0.2006  1.4636  1.4381
  337MOL0     H46477   1.226   8.404   6.857 -5.5604  3.1080  3.0772
  337MOL0     H46478   1.406   8.641   6.753  0.4328  0.3181 -0.7081
  337MOL0     H46479   1.469   8.484   6.756  0.9569 -0.1526 -0.8042
  337MOL0     H46480   1.250   8.600   6.589  0.5358  0.3891  1.0878
  337MOL0     H46481   1.268   8.417   6.619 -0.1694  0.7975  2.0395
  337MOL0     H46482   1.494   8.594   6.509  1.6542 -2.4401 -1.1166
  337MOL0     H46483   1.369   8.530   6.403 -3.0355 -0.2226  1.2338
  337MOL0     H46484   1.432   8.311   6.436  1.1472 -2.0527  1.4335
  337MOL0     H46485   1.535   8.335   6.572  4.4771  0.2275 -1.8448
  337MOL0     H46486   1.355   8.612   7.487 -1.0847  1.9379  3.3862
  337MOL0     H46487   1.466   8.749   7.661  2.2015 -5.4852  0.5816
  337MOL0     H46488   1.710   9.328   7.514 -0.9922  0.6709  0.9724
  337MOL0     H46489   1.786   9.488   7.640  1.8803 -0.6089 -2.6565
  337MOL0     H46490   2.379   9.087   7.499 -0.1211  2.2934 -0.4933
  337MOL0     H46491   2.234   9.036   7.290 -0.2701 -2.5531  1.1479
  337MOL0     H46492   1.644   9.241   7.263  1.0648  4.8500 -2.0409
  337MOL0     H46493   1.465   9.245   7.103 -0.4821 -1.8449  0.0079
  337MOL0     H46494   1.311   9.218   6.762 -1.5996  0.0901  0.9195
  337MOL0     H46495   1.321   9.199   6.935 -0.6893 -3.5550 -1.3488
  337MOL0     H46496   1.485   9.402   6.760 -0.8875 -1.2934 -1.0790
  337MOL0     H46497   1.493   9.400   6.931  0.6125 -1.3560 -0.4158
  337MOL0     H46498   1.355   9.566   6.759 -1.5134 -0.5615 -0.7084
  337MOL0     H46499   1.228   9.459   6.817  0.3079 -0.6188  2.8996
  337MOL0     H46500   1.415   9.610   7.015 -0.6168 -2.3893  2.5894
  337MOL0     H46501   1.264   9.529   7.049 -2.0690  1.3839 -0.1322
  337MOL0     H46502   1.126   9.894   6.871  0.2893 -0.1797  0.0388
  337MOL0     H46503   1.679   8.976   6.851  3.0406  0.5358  0.5437
  337MOL0     H46504   1.957   8.895   7.075 -0.8312 -3.8340 -1.7217
  337MOL0     H46505   1.863   8.855   6.940  2.3289  1.0141 -2.1138
  337MOL0     H46506   1.967   8.995   6.923 -2.1301  2.5646 -0.9722
  338MOL0     O46507   9.463   6.236   1.275  0.2030  0.3210 -0.8748
  338MOL0     C46508   9.385   6.147   1.305 -0.1080  0.7486 -0.8762
  338MOL0     O46509   9.385   6.018   1.256  0.7730 -0.6871  0.3090
  338MOL0     C46510   9.449   5.968   1.151  0.6927 -0.0726  0.7542
  338MOL0     C46511   9.544   6.032   1.078 -1.0032 -0.3942 -1.3798
  338MOL0     C46512   9.596   5.980   0.967  0.3073  0.2518  0.0274
  338MOL0     C46513   9.536   5.869   0.906 -0.2769  0.2558  0.9165
  338MOL0     O46514   9.575   5.840   0.777 -0.1340  0.7668  0.3012
  338MOL0     C46515   9.492   5.780   0.678 -0.6226  0.6352  0.3204
  338MOL0     C46516   9.563   5.816   0.542  0.3303  0.3591 -0.7891
  338MOL0     C46517   9.719   5.769   0.543 -0.5813  0.4522  0.5467
  338MOL0     C46518   9.819   5.864   0.467 -0.2149  0.8726  0.9937
  338MOL0     C46519   9.960   5.820   0.481  0.0693 -0.0021  1.2260
  338MOL0     C46520  10.045   5.869   0.591 -0.0944 -0.0655 -1.1507
  338MOL0     C46521  10.051   6.027   0.592 -0.1406 -0.6848 -0.3400
  338MOL0     C46522  10.074   6.075   0.740  0.2864  0.1576  1.0948
  338MOL0     N46523  10.208   6.134   0.746 -0.6164  0.2439  0.3337
  338MOL0     C46524  10.325   6.080   0.691 -0.3552  0.7779 -0.5884
  338MOL0     C46525  10.422   6.161   0.728 -0.3359  0.1534 -0.2013
  338MOL0     C46526  10.555   6.152   0.677 -0.8541  1.3165  0.7088
  338MOL0     C46527  10.563   6.169   0.516  0.5680  0.4851  0.1360
  338MOL0     C46528  10.706   6.198   0.475 -0.7299 -0.2091 -0.3560
  338MOL0     C46529  10.736   6.274   0.339  0.1344 -0.6150  0.0487
  338MOL0     O46530  10.878   6.274   0.307  0.3485  0.3611 -0.1802
  338MOL0     C46531  10.968   6.333   0.384 -1.0239 -0.2962  0.4852
  338MOL0     C46532  11.099   6.279   0.408  0.4049  0.8824  0.0322
  338MOL0     C46533  11.170   6.323   0.513 -1.0396  0.7173 -0.1610
  338MOL0     C46534  11.303   6.256   0.540 -0.0997  0.8694 -0.4006
  338MOL0     C46535  11.132   6.435   0.590  0.2362  0.5072 -0.5613
  338MOL0     C46536  11.197   6.484   0.718  1.0064  0.2182  0.3386
  338MOL0     O46537  11.143   6.602   0.759 -0.3078 -0.5834  0.3176
  338MOL0     C46538  11.201   6.659   0.871 -0.8069  0.3208 -0.0577
  338MOL0     C46539  11.321   6.737   0.871  0.7578 -0.4499 -0.1275
  338MOL0     C46540  11.373   6.801   0.993  0.3901  0.3449 -0.0698
  338MOL0     C46541  11.314   6.762   1.121  0.5438  0.0260 -0.0947
  338MOL0     O46542  11.375   6.817   1.228  0.2374  0.2631 -0.1376
  338MOL0     C46543  11.397   6.736   1.344  0.2745  0.9082  0.6524
  338MOL0     C46544  11.540   6.709   1.381 -0.3331  0.0840 -0.1934
  338MOL0     C46545  11.642   6.660   1.273 -0.5741  0.0777 -0.6092
  338MOL0     C46546  11.595   6.515   1.216 -0.6131 -0.1948 -0.1048
  338MOL0     C46547  11.697   6.438   1.134  0.4941  0.5367  0.7307
  338MOL0     C46548  11.677   6.292   1.117  0.6329  0.7340 -0.0905
  338MOL0     C46549  11.552   6.264   1.032  0.4441 -0.7693  0.8802
  338MOL0     C46550  11.508   6.122   1.023 -0.7289 -1.1421 -0.2163
  338MOL0    Cl46551  11.645   6.025   0.962  0.0300 -0.0552 -0.0814
  338MOL0     C46552  11.193   6.683   1.113  0.9090 -0.3600 -0.3527
  338MOL0     C46553  11.140   6.624   0.997  0.7190 -1.0027  0.7653
  338MOL0     O46554  11.299   6.430   0.759  0.3038  0.3804 -0.4816
  338MOL0     C46555  11.008   6.504   0.560  0.5328  0.9284  0.0157
  338MOL0     C46556  10.933   6.450   0.448 -0.4384 -0.2808 -0.6191
  338MOL0     N46557  10.385   6.256   0.814  0.5141 -0.2327 -0.9775
  338MOL0     N46558  10.254   6.233   0.825 -0.3424 -0.5605 -0.9821
  338MOL0     C46559   9.433   5.803   0.970  0.7590 -0.3774 -0.2541
  338MOL0     C46560   9.388   5.850   1.094  0.3754  0.3178  0.2742
  338MOL0     C46561   9.271   6.161   1.410 -0.7579 -0.5656  0.1911
  338MOL0     C46562   9.154   6.078   1.400  0.0935 -0.0052  0.0348
  338MOL0     C46563   9.049   6.082   1.493 -0.1339 -0.1089  0.0906
  338MOL0     C46564   9.060   6.158   1.605  0.2952  0.5898  0.2746
  338MOL0     O46565   8.949   6.131   1.682 -0.0091  1.0096  0.3009
  338MOL0     C46566   8.959   6.194   1.811  0.3481  0.4600 -0.0482
  338MOL0     C46567   8.814   6.179   1.877 -0.3975  0.3303  0.2423
  338MOL0     C46568   8.794   6.041   1.945  0.3140  0.1205 -0.0318
  338MOL0     C46569   8.900   6.001   2.051  0.5846  0.0336 -0.5020
  338MOL0     C46570   8.918   6.107   2.153  1.1144 -0.0454  0.2108
  338MOL0     C46571   8.894   6.204   2.222 -0.5137  0.4368 -0.5304
  338MOL0     C46572   9.172   6.237   1.626 -0.0356 -0.7734  1.3235
  338MOL0     C46573   9.267   6.254   1.522 -0.5316  0.3110  0.0850
  338MOL0     C46574   9.384   6.356   1.562 -0.5966  0.3930  0.7351
  338MOL0     H46575   9.583   6.129   1.107 -3.6774  0.1174  1.0422
  338MOL0     H46576   9.677   6.024   0.910  0.1163  0.7696  0.1517
  338MOL0     H46577   9.385   5.803   0.683 -0.6044  0.5916  1.0005
  338MOL0     H46578   9.511   5.672   0.687 -0.2548  0.7051  0.3736
  338MOL0     H46579   9.515   5.770   0.455  1.6632 -2.1054 -0.3114
  338MOL0     H46580   9.568   5.924   0.526  2.0045  0.9807  2.9428
  338MOL0     H46581   9.743   5.765   0.650 -0.4259 -0.1451  0.4894
  338MOL0     H46582   9.733   5.671   0.497  0.3020  0.3182  1.0720
  338MOL0     H46583   9.779   5.874   0.366 -0.7960  1.5994  1.2827
  338MOL0     H46584   9.799   5.966   0.501  0.1090  2.1249 -2.2046
  338MOL0     H46585  10.011   5.849   0.388 -1.9091 -0.4863 -0.0778
  338MOL0     H46586   9.954   5.711   0.474  0.2280  0.0502  0.0390
  338MOL0     H46587  10.001   5.832   0.684 -0.3173 -1.7091 -1.8809
  338MOL0     H46588  10.146   5.830   0.582  0.1070  0.3053 -0.6026
  338MOL0     H46589   9.961   6.085   0.567  0.3030  1.3303  2.2939
  338MOL0     H46590  10.123   6.058   0.516 -3.3829  0.2642 -3.3100
  338MOL0     H46591  10.012   6.165   0.745 -0.9373 -0.7064  2.1664
  338MOL0     H46592  10.053   5.997   0.814 -0.2551  0.8095  1.6381
  338MOL0     H46593  10.324   5.986   0.636 -1.1065  0.8507 -0.7125
  338MOL0     H46594  10.599   6.055   0.704  0.6630  1.0633 -2.1878
  338MOL0     H46595  10.610   6.237   0.719 -1.9576  3.9315 -2.7275
  338MOL0     H46596  10.533   6.071   0.479  4.2003 -1.1100  1.0156
  338MOL0     H46597  10.500   6.249   0.476  3.9971  2.1610 -2.4480
  338MOL0     H46598  10.765   6.249   0.552  1.5118 -0.2025 -1.9685
  338MOL0     H46599  10.770   6.110   0.469  0.0112  0.3802 -1.4582
  338MOL0     H46600  10.677   6.229   0.259 -0.7345  0.3284  0.1248
  338MOL0     H46601  10.695   6.375   0.347 -0.1014 -0.8364  2.0993
  338MOL0     H46602  11.139   6.195   0.353 -1.4034  1.0087 -1.6040
  338MOL0     H46603  11.307   6.216   0.641 -3.3873 -0.4983 -0.6784
  338MOL0     H46604  11.377   6.336   0.533  0.5801  0.3483  0.6935
  338MOL0     H46605  11.324   6.173   0.472 -0.7363 -1.4282  2.0444
  338MOL0     H46606  11.376   6.742   0.777 -1.0638 -3.0751 -1.5078
  338MOL0     H46607  11.458   6.868   0.986  0.1467  0.7762  0.9159
  338MOL0     H46608  11.349   6.789   1.427  0.3545  4.1777 -1.2396
  338MOL0     H46609  11.363   6.634   1.324  2.8378  0.2791 -0.9824
  338MOL0     H46610  11.576   6.806   1.417 -2.1523 -0.1332  2.4613
  338MOL0     H46611  11.533   6.634   1.459 -1.6445  0.1273 -0.2405
  338MOL0     H46612  11.741   6.641   1.314 -0.0924  1.8419 -0.8506
  338MOL0     H46613  11.660   6.728   1.189  4.0089 -1.4601 -1.1104
  338MOL0     H46614  11.501   6.526   1.160  0.4684 -4.2751 -3.1593
  338MOL0     H46615  11.568   6.465   1.309  1.4412  2.1946  1.9242
  338MOL0     H46616  11.699   6.485   1.035 -1.3771  0.0764  0.4297
  338MOL0     H46617  11.791   6.452   1.187  0.7532  2.6131 -0.1863
  338MOL0     H46618  11.665   6.252   1.218 -3.6362  0.1748 -0.6333
  338MOL0     H46619  11.776   6.271   1.077  0.3107  0.7359 -0.9136
  338MOL0     H46620  11.582   6.292   0.931  0.0488  1.1160  1.2292
  338MOL0     H46621  11.469   6.329   1.062  0.0116 -0.0074 -1.7232
  338MOL0     H46622  11.417   6.109   0.964 -2.1221  1.1591  1.2771
  338MOL0     H46623  11.503   6.077   1.123  0.6195  3.5337  2.2523
  338MOL0     H46624  11.148   6.663   1.209  1.1932 -2.1465 -0.5524
  338MOL0     H46625  11.052   6.561   0.998  2.2470 -3.2734  2.6180
  338MOL0     H46626  10.962   6.584   0.618 -0.3037  0.1596  0.4268
  338MOL0     H46627  10.838   6.498   0.428 -0.9984  1.2786  4.2972
  338MOL0     H46628   9.385   5.718   0.923 -0.7119 -0.6345  1.5786
  338MOL0     H46629   9.297   5.816   1.142  1.5376  0.3539  2.6108
  338MOL0     H46630   9.156   6.014   1.313  2.4648  1.9879 -1.5024
  338MOL0     H46631   8.971   6.015   1.459  2.3021 -2.3186 -1.6250
  338MOL0     H46632   9.041   6.153   1.870 -0.7790 -2.3003 -0.2050
  338MOL0     H46633   8.970   6.301   1.793 -2.2626  0.7554 -0.4004
  338MOL0     H46634   8.737   6.184   1.800 -2.3720 -0.4611  2.0814
  338MOL0     H46635   8.797   6.260   1.949 -3.3188  0.3688 -0.3879
  338MOL0     H46636   8.701   6.052   2.001  0.3641  4.3060 -0.4522
  338MOL0     H46637   8.780   5.962   1.870 -1.3198  0.1627  0.1899
  338MOL0     H46638   8.995   5.969   2.007 -0.2838 -1.3764 -1.4593
  338MOL0     H46639   8.867   5.916   2.111  0.8279 -0.0111 -0.4311
  338MOL0     H46640   8.868   6.278   2.295  0.2956 -0.6060  0.8538
  338MOL0     H46641   9.167   6.282   1.725  1.3117 -0.9911  1.5121
  338MOL0     H46642   9.479   6.304   1.551 -0.3997  0.4335  2.0785
  338MOL0     H46643   9.377   6.450   1.506 -0.3555  0.3138  0.5724
  338MOL0     H46644   9.383   6.378   1.669 -0.3165 -2.6399  1.4439
  339MOL0     O46645   0.372   5.966   0.127  0.5168  0.5441  0.3998
  339MOL0     C46646   0.357   5.917   0.017  0.2039  0.1216  0.3473
  339MOL0     O46647   0.454   5.906  -0.074 -0.0406 -0.0143 -0.2611
  339MOL0     C46648   0.574   5.863  -0.027 -0.4530 -0.5473 -0.7908
  339MOL0     C46649   0.674   5.949   0.011  0.5386 -0.2842  0.5026
  339MOL0     C46650   0.797   5.894   0.052  0.7229 -0.1839  0.3789
  339MOL0     C46651   0.815   5.759   0.068  0.2627  0.4423  0.4591
  339MOL0     O46652   0.924   5.700   0.143  0.8201 -0.2273  0.0023
  339MOL0     C46653   0.975   5.779   0.256  0.8325  0.8470  0.0474
  339MOL0     C46654   1.047   5.680   0.347  0.4891  0.3832  0.4397
  339MOL0     C46655   1.172   5.623   0.271 -0.4743 -0.4716  0.5087
  339MOL0     C46656   1.287   5.711   0.256  1.2208 -0.3447 -0.3543
  339MOL0     C46657   1.399   5.644   0.178  0.7887 -0.0561 -0.1088
  339MOL0     C46658   1.516   5.736   0.153  0.5347 -0.9091 -0.1976
  339MOL0     C46659   1.627   5.646   0.088 -0.3941  0.0921  0.2714
  339MOL0     C46660   1.764   5.677   0.158  0.9289  1.1938 -0.2061
  339MOL0     N46661   1.878   5.589   0.125 -0.0355 -0.4837 -0.1613
  339MOL0     C46662   1.918   5.550  -0.001  0.5139  0.4727 -0.1397
  339MOL0     C46663   1.998   5.439   0.012  0.6250  0.4577 -0.1921
  339MOL0     C46664   2.064   5.360  -0.092 -0.0643 -0.1101  0.1289
  339MOL0     C46665   1.972   5.294  -0.195  0.5722 -0.5797  0.7375
  339MOL0     C46666   1.877   5.186  -0.131  0.6971  0.0028  0.3243
  339MOL0     C46667   1.804   5.096  -0.226  0.2800  0.4821  0.4108
  339MOL0     O46668   1.895   5.004  -0.288  0.4903 -0.0184 -0.1669
  339MOL0     C46669   1.898   4.866  -0.254 -0.0392  0.5205  0.5574
  339MOL0     C46670   1.999   4.805  -0.317  0.6484  0.2336 -1.0022
  339MOL0     C46671   2.020   4.668  -0.314  0.9331 -0.6248  0.4861
  339MOL0     C46672   2.131   4.614  -0.401  0.7602  0.2591  1.1764
  339MOL0     C46673   1.926   4.587  -0.238  0.3771 -1.2115  0.5748
  339MOL0     C46674   1.926   4.440  -0.228 -0.1940  0.1195 -0.2621
  339MOL0     O46675   1.809   4.376  -0.213  0.0933  0.5654 -0.7810
  339MOL0     C46676   1.817   4.241  -0.240  0.5904  0.2381  0.1224
  339MOL0     C46677   1.829   4.160  -0.133  0.3856  0.1263 -0.2913
  339MOL0     C46678   1.850   4.018  -0.145 -0.6833  0.5451 -0.0301
  339MOL0     C46679   1.844   3.956  -0.271  0.6883 -0.2199 -0.1817
  339MOL0     O46680   1.860   3.818  -0.272 -0.1985  0.3545 -0.0580
  339MOL0     C46681   1.941   3.774  -0.386 -0.3869  0.5166  0.1541
  339MOL0     C46682   2.009   3.631  -0.381 -0.5425 -0.4772 -1.1263
  339MOL0     C46683   1.926   3.532  -0.299  0.3682 -0.2366  0.1578
  339MOL0     C46684   1.974   3.384  -0.303  0.5684 -0.2562 -0.0901
  339MOL0     C46685   2.096   3.386  -0.211  0.1646 -0.8175 -1.2494
  339MOL0     C46686   2.161   3.245  -0.198  0.7770 -0.3638 -0.3159
  339MOL0     C46687   2.285   3.256  -0.114  0.0109 -0.3178  1.0990
  339MOL0     C46688   2.404   3.153  -0.115 -0.0349 -0.0563 -0.9626
  339MOL0    Cl46689   2.363   2.982  -0.074  0.1475  0.7437  0.1370
  339MOL0     C46690   1.824   4.046  -0.373 -0.9028  0.6324  0.1844
  339MOL0     C46691   1.804   4.190  -0.361  0.1309  1.2606 -0.1992
  339MOL0     O46692   2.041   4.394  -0.219 -0.5371 -0.4552  0.6167
  339MOL0     C46693   1.816   4.656  -0.180 -0.5013  0.2129  0.6593
  339MOL0     C46694   1.799   4.795  -0.184 -1.0210  0.6897  0.4463
  339MOL0     N46695   2.021   5.435   0.154  0.7159  0.4327  0.1381
  339MOL0     N46696   1.942   5.510   0.217 -0.0471 -0.7206 -0.5791
  339MOL0     C46697   0.712   5.675   0.028 -0.1080  0.1181 -0.0290
  339MOL0     C46698   0.597   5.727  -0.013  0.1217 -0.0328 -0.1632
  339MOL0     C46699   0.215   5.867  -0.026 -1.3241  0.1732  0.2735
  339MOL0     C46700   0.110   5.850   0.070 -0.0487 -0.5520 -0.4265
  339MOL0     C46701  -0.024   5.827   0.037  0.6176 -0.2429 -0.2239
  339MOL0     C46702  -0.051   5.791  -0.093 -0.4688 -0.9328 -0.5984
  339MOL0     O46703  -0.176   5.753  -0.135  0.3589  0.7584 -0.0104
  339MOL0     C46704  -0.285   5.763  -0.050 -0.4014 -1.0178 -1.3811
  339MOL0     C46705  -0.421   5.737  -0.113 -0.9143 -0.0452 -0.1441
  339MOL0     C46706  -0.411   5.604  -0.199 -1.1770  0.4347  0.0030
  339MOL0     C46707  -0.361   5.483  -0.121 -0.1861  0.0477  0.2168
  339MOL0     C46708  -0.446   5.433  -0.007 -0.3003 -0.3935 -0.3867
  339MOL0     C46709  -0.516   5.377   0.078  0.3907  0.6455 -1.2708
  339MOL0     C46710   0.050   5.795  -0.188  0.2708 -0.1953  0.5498
  339MOL0     C46711   0.182   5.825  -0.161 -0.1793 -0.9385 -0.2510
  339MOL0     C46712   0.268   5.831  -0.284  0.2272  1.2155  1.0565
  339MOL0     H46713   0.658   6.052  -0.017  0.5873 -0.3232  0.3331
  339MOL0     H46714   0.880   5.949   0.094  0.7208 -1.3891  2.0608
  339MOL0     H46715   0.881   5.815   0.299 -0.6690 -0.6685 -1.7829
  339MOL0     H46716   1.039   5.864   0.231  0.4335  1.1474  0.0310
  339MOL0     H46717   1.096   5.727   0.433 -1.8986  2.7388  0.6530
  339MOL0     H46718   0.989   5.598   0.388  1.4583 -0.2261  0.6372
  339MOL0     H46719   1.207   5.537   0.328  3.7854  1.9180  1.9277
  339MOL0     H46720   1.153   5.604   0.165  0.6054 -0.9989  0.3978
  339MOL0     H46721   1.265   5.809   0.214  0.4005 -0.0461  0.7379
  339MOL0     H46722   1.326   5.727   0.357  0.5297 -4.3684  0.7237
  339MOL0     H46723   1.361   5.621   0.078 -2.2683  0.9705  0.6990
  339MOL0     H46724   1.428   5.555   0.234 -3.4192 -3.4440 -2.6385
  339MOL0     H46725   1.471   5.811   0.087 -1.1752 -0.1664  1.6908
  339MOL0     H46726   1.548   5.784   0.245 -1.3988  0.2058 -0.0509
  339MOL0     H46727   1.634   5.680  -0.016  2.1564  0.7215  0.5963
  339MOL0     H46728   1.606   5.539   0.096  1.0213 -0.2588 -0.3888
  339MOL0     H46729   1.784   5.784   0.150  0.6707  1.4760  2.1258
  339MOL0     H46730   1.742   5.650   0.262 -1.0481 -3.0809 -1.4786
  339MOL0     H46731   1.882   5.595  -0.093 -1.9604 -0.7378  0.1566
  339MOL0     H46732   2.137   5.297  -0.041  0.1623  1.0983  1.3816
  339MOL0     H46733   2.126   5.430  -0.149 -0.9371  1.8589  1.4455
  339MOL0     H46734   1.917   5.376  -0.242  2.3903 -0.4948 -1.4145
  339MOL0     H46735   2.035   5.244  -0.269  1.1410  2.9107 -1.3381
  339MOL0     H46736   1.939   5.119  -0.071  1.1840 -0.5399 -0.7614
  339MOL0     H46737   1.800   5.241  -0.075  1.9378  2.3005 -0.1043
  339MOL0     H46738   1.717   5.050  -0.178  0.6937  0.6084  1.2981
  339MOL0     H46739   1.745   5.140  -0.307 -2.8635 -4.8551 -0.7152
  339MOL0     H46740   2.074   4.864  -0.369  0.3338  0.6542 -0.9787
  339MOL0     H46741   2.133   4.506  -0.419 -0.0504  0.4434 -0.1617
  339MOL0     H46742   2.232   4.647  -0.376  1.2843  1.0701 -1.6602
  339MOL0     H46743   2.114   4.662  -0.498 -0.1169 -1.3035  0.5261
  339MOL0     H46744   1.848   4.206  -0.036  1.2720 -2.8968  1.1297
  339MOL0     H46745   1.879   3.955  -0.061  1.2512  0.2951 -0.8319
  339MOL0     H46746   1.870   3.776  -0.469  0.9680 -1.1829 -1.1143
  339MOL0     H46747   2.022   3.845  -0.406 -0.0509 -0.5328 -2.6509
  339MOL0     H46748   2.025   3.600  -0.484 -1.5192  0.0346 -1.4380
  339MOL0     H46749   2.115   3.637  -0.352 -0.8633 -0.7468  0.1771
  339MOL0     H46750   1.821   3.530  -0.330  0.3931  0.8739 -0.0572
  339MOL0     H46751   1.926   3.568  -0.196 -2.8503  0.1924  0.0995
  339MOL0     H46752   1.987   3.353  -0.407 -0.0202 -4.6729  0.9541
  339MOL0     H46753   1.911   3.308  -0.255  1.7330 -0.2428  1.5392
  339MOL0     H46754   2.167   3.462  -0.245 -3.7052  3.6308 -0.2972
  339MOL0     H46755   2.067   3.437  -0.119 -2.9529  0.7086 -2.9372
  339MOL0     H46756   2.185   3.228  -0.304  3.5536  1.0437 -0.0080
  339MOL0     H46757   2.086   3.176  -0.159  1.2922  0.6485  2.6750
  339MOL0     H46758   2.258   3.282  -0.011  3.3325  0.7497  1.7990
  339MOL0     H46759   2.331   3.351  -0.143  0.0764 -0.0624  2.0159
  339MOL0     H46760   2.476   3.180  -0.036  0.5352  2.9001 -2.3540
  339MOL0     H46761   2.460   3.142  -0.209  0.5842 -1.5587 -0.4494
  339MOL0     H46762   1.835   4.007  -0.473 -1.3685 -1.6167  0.9442
  339MOL0     H46763   1.799   4.249  -0.452 -0.8987 -0.1773 -1.1125
  339MOL0     H46764   1.750   4.595  -0.119  0.3714  0.2409  1.6496
  339MOL0     H46765   1.717   4.836  -0.125 -1.5743 -2.8287  2.4183
  339MOL0     H46766   0.718   5.567   0.036 -1.5245 -0.0993 -1.3439
  339MOL0     H46767   0.513   5.665  -0.042 -0.9601  0.5269  1.5964
  339MOL0     H46768   0.134   5.862   0.176  1.6934 -4.0837 -0.2767
  339MOL0     H46769  -0.108   5.845   0.103 -0.1760  0.3461 -1.3491
  339MOL0     H46770  -0.263   5.703   0.039  0.4549 -0.8317 -1.4589
  339MOL0     H46771  -0.301   5.866  -0.016  2.9626 -0.3089 -1.6537
  339MOL0     H46772  -0.445   5.821  -0.179 -1.1500  0.0112  0.0128
  339MOL0     H46773  -0.491   5.713  -0.033  0.7275  0.3737  1.4698
  339MOL0     H46774  -0.510   5.581  -0.241 -0.5431  1.0457 -1.9749
  339MOL0     H46775  -0.345   5.604  -0.286  1.6663  1.2158  2.0315
  339MOL0     H46776  -0.263   5.499  -0.075  0.6001 -0.7780 -1.1075
  339MOL0     H46777  -0.333   5.408  -0.195 -1.4468  0.4196 -0.6730
  339MOL0     H46778  -0.572   5.314   0.144 -0.3948  3.3252  0.8302
  339MOL0     H46779   0.007   5.778  -0.286 -2.0851  0.0004  1.4696
  339MOL0     H46780   0.212   5.799  -0.373  1.6445  1.8544 -0.1110
  339MOL0     H46781   0.312   5.930  -0.295  1.4044  0.4626 -1.9033
  339MOL0     H46782   0.345   5.754  -0.280  0.9630  1.8575 -0.1867
  340MOL0     O46783   9.008   2.618   9.965  0.2323 -1.0498  0.0824
  340MOL0     C46784   8.949   2.729   9.980 -0.4497  0.2832 -0.1765
  340MOL0     O46785   8.968   2.840   9.896  0.5371 -0.0411  0.6825
  340MOL0     C46786   9.052   2.823   9.791  0.1516 -0.0699  0.5764
  340MOL0     C46787   9.186   2.859   9.811  0.3192 -0.1954  0.3032
  340MOL0     C46788   9.278   2.856   9.718  0.9302  0.5775  0.6150
  340MOL0     C46789   9.242   2.830   9.587 -0.2893  0.3419  0.6895
  340MOL0     O46790   9.337   2.841   9.492  0.8160 -0.4006  0.3619
  340MOL0     C46791   9.452   2.773   9.513 -0.6477  0.6626 -0.4032
  340MOL0     C46792   9.517   2.719   9.382  0.0391 -0.8123  0.6703
  340MOL0     C46793   9.427   2.610   9.323  0.2440  0.0021 -0.9569
  340MOL0     C46794   9.461   2.583   9.178 -0.6941  0.3346  1.4945
  340MOL0     C46795   9.342   2.498   9.122  0.6307 -0.9857  0.0701
  340MOL0     C46796   9.217   2.586   9.098  0.1372  0.7187  0.3448
  340MOL0     C46797   9.227   2.720   9.035  0.8562 -0.9009  0.2404
  340MOL0     C46798   9.091   2.789   9.011  0.0183  0.7881 -0.0724
  340MOL0     N46799   8.998   2.802   9.120  0.1910 -0.2169  0.7244
  340MOL0     C46800   8.998   2.899   9.216  0.3091  0.5715  0.3891
  340MOL0     C46801   8.880   2.890   9.276  0.4151  0.0204 -0.9547
  340MOL0     C46802   8.818   2.985   9.369  0.7382  0.0508  0.5352
  340MOL0     C46803   8.764   3.108   9.292 -0.0910 -0.1258 -0.4473
  340MOL0     C46804   8.644   3.184   9.354 -0.2278 -1.4231 -0.6078
  340MOL0     C46805   8.678   3.266   9.490 -0.1699 -0.1062  0.1115
  340MOL0     O46806   8.803   3.226   9.550  0.2148  0.4844 -0.1801
  340MOL0     C46807   8.923   3.284   9.543 -0.6723  0.0595 -0.4056
  340MOL0     C46808   9.026   3.210   9.609 -0.0032 -0.6152 -0.0869
  340MOL0     C46809   9.156   3.261   9.604  0.4700  0.7997 -1.3561
  340MOL0     C46810   9.250   3.192   9.702 -0.6723  0.2180 -0.0520
  340MOL0     C46811   9.188   3.377   9.531 -0.5100  0.6217 -0.1616
  340MOL0     C46812   9.329   3.432   9.519 -0.1639 -0.8681  0.0038
  340MOL0     O46813   9.349   3.507   9.401 -0.2812 -0.4358  0.7746
  340MOL0     C46814   9.452   3.598   9.377  0.1900 -0.3844 -0.4676
  340MOL0     C46815   9.560   3.624   9.462 -0.8408 -0.2167 -0.3956
  340MOL0     C46816   9.657   3.717   9.433 -0.2412 -0.2879 -0.1317
  340MOL0     C46817   9.644   3.780   9.312  1.4400  0.0639 -0.7153
  340MOL0     O46818   9.734   3.865   9.272 -0.8066 -1.0007 -0.0648
  340MOL0     C46819   9.874   3.855   9.307 -0.1738  0.7360 -0.2928
  340MOL0     C46820   9.948   3.975   9.255  0.4931  0.9870 -0.0106
  340MOL0     C46821  10.094   3.982   9.290 -0.0589  0.2368  0.4754
  340MOL0     C46822  10.165   4.083   9.217  1.1328  0.2470  0.5560
  340MOL0     C46823  10.292   4.119   9.292 -0.1082 -0.5550  0.5352
  340MOL0     C46824  10.269   4.224   9.397  0.0789  0.0010  0.5930
  340MOL0     C46825  10.412   4.287   9.415  0.4792 -0.7189  0.7995
  340MOL0     C46826  10.431   4.335   9.555 -0.1095  0.0295 -0.0158
  340MOL0    Cl46827  10.454   4.189   9.664 -0.3084 -0.2539 -0.4400
  340MOL0     C46828   9.542   3.757   9.224  0.0459 -1.0189 -0.0456
  340MOL0     C46829   9.443   3.663   9.256 -0.0883  0.6019 -0.7753
  340MOL0     O46830   9.423   3.400   9.594  0.2599 -0.3286  0.7229
  340MOL0     C46831   9.088   3.435   9.458  0.4703  0.7795  0.0646
  340MOL0     C46832   8.956   3.389   9.461  0.9560  0.1180 -0.2579
  340MOL0     N46833   8.804   2.794   9.217  0.0232 -0.1378 -0.9520
  340MOL0     N46834   8.876   2.736   9.131  0.1179  0.3547  1.3223
  340MOL0     C46835   9.107   2.794   9.558 -0.1035 -0.3239 -0.6360
  340MOL0     C46836   9.011   2.786   9.665 -0.5579  0.1987  0.4779
  340MOL0     C46837   8.843   2.726  10.093  0.5278  0.6468  0.0312
  340MOL0     C46838   8.866   2.635  10.191 -0.8080  0.4381 -0.1012
  340MOL0     C46839   8.781   2.619  10.310 -0.3489 -0.5061  0.7905
  340MOL0     C46840   8.673   2.707  10.327  0.5098  0.3374  0.7200
  340MOL0     O46841   8.578   2.682  10.425 -0.1861 -0.3400  0.0108
  340MOL0     C46842   8.510   2.806  10.466 -0.1869 -0.6975  0.4943
  340MOL0     C46843   8.452   2.783  10.606  0.4991 -0.7693 -0.6543
  340MOL0     C46844   8.328   2.688  10.597 -0.4513  0.5923  0.0171
  340MOL0     C46845   8.353   2.539  10.627 -0.0972  1.1387 -0.1034
  340MOL0     C46846   8.216   2.473  10.633 -0.0457 -0.2351  0.6161
  340MOL0     C46847   8.102   2.429  10.634 -0.4422 -0.7629  0.5594
  340MOL0     C46848   8.658   2.802  10.218 -0.3023 -0.1926  0.4418
  340MOL0     C46849   8.737   2.816  10.102  0.9956  0.7408 -0.3466
  340MOL0     C46850   8.700   2.906   9.987 -0.1599  0.2192  0.1601
  340MOL0     H46851   9.215   2.898   9.908  2.2365  2.3307 -1.1887
  340MOL0     H46852   9.374   2.903   9.740 -0.2433  3.9709 -0.8361
  340MOL0     H46853   9.445   2.698   9.592 -1.5244  0.2379 -0.8601
  340MOL0     H46854   9.534   2.843   9.531  2.4139 -2.6618 -0.2412
  340MOL0     H46855   9.532   2.800   9.309  2.7336  1.0441  3.0561
  340MOL0     H46856   9.619   2.692   9.409  0.5856  0.1948 -0.2725
  340MOL0     H46857   9.431   2.517   9.381 -0.3751  1.3101  1.3015
  340MOL0     H46858   9.327   2.654   9.332  0.7901  0.9606  0.7377
  340MOL0     H46859   9.454   2.670   9.113  3.3741 -1.2699 -1.5899
  340MOL0     H46860   9.558   2.534   9.163 -0.4353  1.4162 -0.7481
  340MOL0     H46861   9.310   2.407   9.174 -2.0666  0.4523  1.1622
  340MOL0     H46862   9.386   2.479   9.024  0.6400  2.1495 -0.6475
  340MOL0     H46863   9.154   2.532   9.027  0.3488  0.2186  0.5304
  340MOL0     H46864   9.171   2.598   9.196 -0.2085  2.7637 -0.0380
  340MOL0     H46865   9.281   2.717   8.940  2.7510  1.6766  1.0927
  340MOL0     H46866   9.288   2.788   9.096 -1.0601  0.6460  0.5469
  340MOL0     H46867   9.113   2.885   8.962 -0.8183 -0.0466 -2.2276
  340MOL0     H46868   9.039   2.740   8.928  3.5403 -2.4556 -0.6240
  340MOL0     H46869   9.075   2.974   9.234  0.6374 -0.0803  1.8641
  340MOL0     H46870   8.891   3.013   9.446  1.6462 -1.9300  0.4515
  340MOL0     H46871   8.734   2.943   9.424 -1.6102  1.2141 -1.9385
  340MOL0     H46872   8.853   3.170   9.278  2.0316 -3.4221 -3.1696
  340MOL0     H46873   8.729   3.077   9.193 -1.6791 -0.4016  0.1614
  340MOL0     H46874   8.586   3.250   9.288 -0.0676  0.4976  1.0846
  340MOL0     H46875   8.582   3.097   9.378  1.9365 -2.6343  0.8320
  340MOL0     H46876   8.659   3.374   9.483 -1.7161 -0.3015  0.8216
  340MOL0     H46877   8.597   3.245   9.561 -1.2812  0.6109 -0.9134
  340MOL0     H46878   9.005   3.120   9.667  1.6049 -1.6896 -1.0813
  340MOL0     H46879   9.192   3.146   9.783 -0.3454  1.9389  1.2265
  340MOL0     H46880   9.314   3.266   9.751  0.0104  0.6046 -1.4659
  340MOL0     H46881   9.317   3.118   9.657 -0.3288 -0.9016  2.1914
  340MOL0     H46882   9.597   3.570   9.549  0.4845  0.2820 -0.6336
  340MOL0     H46883   9.731   3.729   9.512 -2.0743 -2.1814  1.9878
  340MOL0     H46884   9.879   3.852   9.416  2.5866 -1.0727 -0.3878
  340MOL0     H46885   9.912   3.754   9.289  1.2450  0.5729  3.0837
  340MOL0     H46886   9.948   3.975   9.146  0.4106 -3.2281 -0.1854
  340MOL0     H46887   9.893   4.058   9.300  1.2486  2.9250 -2.4413
  340MOL0     H46888  10.142   3.884   9.276  0.6955  0.4868  1.2242
  340MOL0     H46889  10.110   4.005   9.396  2.6903 -0.1336  0.2098
  340MOL0     H46890  10.096   4.167   9.211 -1.0285 -1.3917  1.1127
  340MOL0     H46891  10.199   4.051   9.118  1.4752  1.2194  0.3498
  340MOL0     H46892  10.331   4.029   9.341  2.3993  0.8013  1.1700
  340MOL0     H46893  10.352   4.150   9.206  0.7368  0.1870  1.3810
  340MOL0     H46894  10.241   4.170   9.488 -0.7987  1.7304  1.4138
  340MOL0     H46895  10.196   4.302   9.371 -0.0230 -0.5171 -0.7778
  340MOL0     H46896  10.432   4.363   9.338 -0.3183 -3.5263 -2.4241
  340MOL0     H46897  10.496   4.217   9.417  1.2371  0.1080 -0.6508
  340MOL0     H46898  10.349   4.398   9.591  0.5583  0.1162  1.4495
  340MOL0     H46899  10.520   4.398   9.552  0.5324 -0.9053 -1.9674
  340MOL0     H46900   9.543   3.819   9.135  3.9116 -2.0418 -0.9277
  340MOL0     H46901   9.356   3.661   9.192 -2.6884  0.5291  2.4953
  340MOL0     H46902   9.113   3.506   9.381  2.4182 -2.1363 -2.2228
  340MOL0     H46903   8.888   3.447   9.400 -1.6717 -0.1097  2.2518
  340MOL0     H46904   9.079   2.772   9.456 -0.3248 -2.0544 -0.2417
  340MOL0     H46905   8.908   2.755   9.652 -0.3173 -1.4047  2.0370
  340MOL0     H46906   8.940   2.556  10.185 -2.9395 -1.6303 -0.7775
  340MOL0     H46907   8.797   2.554  10.396 -2.5979 -0.0142  1.6391
  340MOL0     H46908   8.579   2.890  10.462 -1.6454  0.5045 -2.8959
  340MOL0     H46909   8.429   2.834  10.398  0.0903  0.6286  0.6895
  340MOL0     H46910   8.423   2.885  10.632  1.8491 -0.8569  1.3969
  340MOL0     H46911   8.528   2.742  10.673  0.4038 -2.4617 -1.5227
  340MOL0     H46912   8.253   2.721  10.668 -1.8060 -1.8017 -0.2195
  340MOL0     H46913   8.287   2.692  10.495  2.9254 -1.9859 -1.6641
  340MOL0     H46914   8.410   2.528  10.720 -2.3023 -1.3655  1.0834
  340MOL0     H46915   8.405   2.477  10.553 -0.8171  0.0695  0.2736
  340MOL0     H46916   8.003   2.388  10.629 -0.2225 -1.1645 -2.0025
  340MOL0     H46917   8.581   2.877  10.224  0.8375  0.9934  0.8308
  340MOL0     H46918   8.667   2.858   9.895 -3.0707  0.9253  0.7297
  340MOL0     H46919   8.607   2.953  10.021 -1.5244  0.0886 -3.0816
  340MOL0     H46920   8.781   2.976   9.965 -0.2226  0.6166  1.1241
  341MOL0     O46921   2.427   8.334   4.986 -0.7372 -0.5717 -0.0125
  341MOL0     C46922   2.336   8.414   4.955 -0.4975  0.5722  0.0033
  341MOL0     O46923   2.231   8.444   5.040 -0.5504  0.1277  1.2694
  341MOL0     C46924   2.249   8.420   5.170 -0.3497 -0.3273 -1.0706
  341MOL0     C46925   2.279   8.294   5.225 -0.3827 -0.4155 -0.4423
  341MOL0     C46926   2.272   8.277   5.368 -0.6701  0.0822 -0.7476
  341MOL0     C46927   2.258   8.389   5.458  0.4681  0.2014 -0.1161
  341MOL0     O46928   2.257   8.391   5.598 -1.2045 -0.0403  0.0304
  341MOL0     C46929   2.266   8.263   5.666  0.2212 -0.4709  0.6219
  341MOL0     C46930   2.410   8.214   5.665  1.6225  0.3698  0.3005
  341MOL0     C46931   2.431   8.083   5.754  0.6627  0.6695 -0.5291
  341MOL0     C46932   2.573   8.056   5.780 -0.0026 -0.0828 -0.1914
  341MOL0     C46933   2.600   7.952   5.880 -0.1519  0.0738  0.4963
  341MOL0     C46934   2.585   7.806   5.826 -0.9330 -0.4010 -0.8673
  341MOL0     C46935   2.698   7.786   5.715  1.5257  0.3812  0.2655
  341MOL0     C46936   2.719   7.638   5.686 -0.5733  0.5643 -0.0158
  341MOL0     N46937   2.838   7.626   5.601  0.6308  0.9601 -0.7201
  341MOL0     C46938   2.844   7.543   5.484  0.0812 -0.6701  0.0740
  341MOL0     C46939   2.973   7.551   5.435 -0.3469 -0.3762  0.2116
  341MOL0     C46940   3.033   7.493   5.311  0.3512 -0.0169 -0.2117
  341MOL0     C46941   2.979   7.571   5.189 -1.0218  0.6189 -0.7993
  341MOL0     C46942   2.837   7.548   5.154 -0.3884  0.3118  0.0984
  341MOL0     C46943   2.777   7.651   5.070  0.0868 -0.1053 -1.1438
  341MOL0     O46944   2.809   7.639   4.929  0.2694 -0.0203 -0.0223
  341MOL0     C46945   2.736   7.708   4.832 -0.1301  0.2874  0.2423
  341MOL0     C46946   2.802   7.805   4.747 -0.4370 -0.0737 -0.1328
  341MOL0     C46947   2.731   7.877   4.648  0.9794  0.5228  0.4857
  341MOL0     C46948   2.810   7.981   4.569 -0.3521  0.2184  0.5003
  341MOL0     C46949   2.593   7.851   4.636  0.2359 -1.1530 -0.1567
  341MOL0     C46950   2.506   7.906   4.525 -0.3634  0.0447 -0.6733
  341MOL0     O46951   2.370   7.882   4.532 -0.3198 -0.3141  0.0842
  341MOL0     C46952   2.276   7.945   4.462 -0.7244  0.1396  0.1386
  341MOL0     C46953   2.290   8.066   4.389 -0.0374  0.1442 -0.3874
  341MOL0     C46954   2.196   8.100   4.298  1.0689  0.0326  0.6704
  341MOL0     C46955   2.071   8.042   4.282  0.0088  0.7363  0.0497
  341MOL0     O46956   1.961   8.099   4.232  0.3490  0.3910 -0.2882
  341MOL0     C46957   1.977   8.159   4.100  0.6157  0.0529 -0.0911
  341MOL0     C46958   1.979   8.039   3.996 -1.8887 -1.4997  0.5436
  341MOL0     C46959   2.106   8.049   3.901  0.4638 -0.5591 -0.3247
  341MOL0     C46960   2.097   7.945   3.786  0.1483  0.1900 -0.8565
  341MOL0     C46961   2.216   7.966   3.687  0.5082 -0.2831  0.2344
  341MOL0     C46962   2.350   7.911   3.756  0.1674 -0.8441  1.2798
  341MOL0     C46963   2.460   7.871   3.649 -0.0874  1.1680  0.9659
  341MOL0     C46964   2.457   7.721   3.613  0.9465 -0.0485 -1.0859
  341MOL0    Cl46965   2.572   7.699   3.481  0.1477 -0.1857  0.4074
  341MOL0     C46966   2.053   7.919   4.354  1.2977 -0.2333  0.6199
  341MOL0     C46967   2.158   7.871   4.435 -0.4121  0.8400  0.4006
  341MOL0     O46968   2.566   7.954   4.429  0.1618  0.2092 -0.2891
  341MOL0     C46969   2.531   7.757   4.717  0.2600 -0.3606 -0.1817
  341MOL0     C46970   2.600   7.689   4.811  0.4153 -0.8696 -0.4279
  341MOL0     N46971   3.042   7.633   5.522 -0.1487 -0.6437  0.4428
  341MOL0     N46972   2.965   7.674   5.617 -0.2831 -0.2040  0.4972
  341MOL0     C46973   2.223   8.510   5.395 -0.3235  0.1561 -0.6932
  341MOL0     C46974   2.217   8.527   5.252  0.5857 -0.2356  0.8623
  341MOL0     C46975   2.325   8.448   4.813 -0.1007  0.3432 -0.1510
  341MOL0     C46976   2.207   8.494   4.762  0.8490 -1.1846 -1.2020
  341MOL0     C46977   2.190   8.549   4.630 -0.0832 -0.7618 -1.1729
  341MOL0     C46978   2.297   8.542   4.541 -0.5558 -0.2847  0.0024
  341MOL0     O46979   2.275   8.571   4.406 -0.7720 -0.6358 -0.3201
  341MOL0     C46980   2.384   8.556   4.309 -0.2593 -0.1924 -0.1719
  341MOL0     C46981   2.452   8.693   4.292  0.7383 -0.2435  0.4147
  341MOL0     C46982   2.358   8.812   4.268  0.4971  0.1817 -0.1051
  341MOL0     C46983   2.409   8.929   4.180  0.3646 -0.1635 -0.0472
  341MOL0     C46984   2.434   8.905   4.041 -0.1394  0.1851  1.5244
  341MOL0     C46985   2.433   8.881   3.919  0.7482 -0.3256 -0.9371
  341MOL0     C46986   2.419   8.498   4.597 -0.9954  0.9981 -0.2205
  341MOL0     C46987   2.442   8.455   4.729 -0.4617 -0.2220 -1.0535
  341MOL0     C46988   2.577   8.400   4.758 -0.1694  0.6694  0.0609
  341MOL0     H46989   2.296   8.214   5.154 -1.4327 -0.4903 -0.6236
  341MOL0     H46990   2.297   8.179   5.408  4.5887  1.3201 -0.3315
  341MOL0     H46991   2.191   8.196   5.622 -2.3539  1.2450  2.1409
  341MOL0     H46992   2.236   8.296   5.766 -1.3626 -0.2111  0.0982
  341MOL0     H46993   2.435   8.190   5.561 -3.0706  0.2753 -1.0538
  341MOL0     H46994   2.478   8.291   5.703 -0.4926  2.5239 -0.0627
  341MOL0     H46995   2.380   8.106   5.848  0.4275 -0.8232 -0.2625
  341MOL0     H46996   2.387   7.996   5.704 -2.0104  1.4640  0.2790
  341MOL0     H46997   2.619   8.026   5.685  0.3380 -2.9128  0.7632
  341MOL0     H46998   2.627   8.142   5.821  1.1595 -2.3084  3.4139
  341MOL0     H46999   2.542   7.978   5.969 -0.6976  0.0591  0.1474
  341MOL0     H47000   2.706   7.967   5.904 -0.3579  1.6972  0.4925
  341MOL0     H47001   2.615   7.739   5.907  0.2305 -1.6493 -2.2696
  341MOL0     H47002   2.483   7.793   5.787 -1.7017  0.2602  0.8330
  341MOL0     H47003   2.791   7.832   5.748  2.6130 -1.7414  0.3728
  341MOL0     H47004   2.667   7.839   5.624  1.2489 -0.2032  0.0102
  341MOL0     H47005   2.724   7.579   5.778 -1.7578  0.5587  0.0548
  341MOL0     H47006   2.633   7.596   5.633 -0.3638  0.6516 -0.4293
  341MOL0     H47007   2.751   7.503   5.445  0.5231 -1.2747 -0.3667
  341MOL0     H47008   3.015   7.386   5.296 -3.4021  0.3599  0.8090
  341MOL0     H47009   3.142   7.506   5.319  0.6065 -1.7459 -0.5300
  341MOL0     H47010   3.003   7.678   5.193 -0.8652  0.5409  1.3940
  341MOL0     H47011   3.031   7.533   5.101  2.4655  2.0797  0.4461
  341MOL0     H47012   2.837   7.453   5.101  0.1978 -1.4756  3.0819
  341MOL0     H47013   2.780   7.528   5.245 -1.1152  2.8659  0.2959
  341MOL0     H47014   2.668   7.642   5.076 -0.2232  0.2646 -4.3677
  341MOL0     H47015   2.812   7.750   5.102  3.4644 -1.4723 -0.1406
  341MOL0     H47016   2.909   7.819   4.757  0.1652 -1.5503 -3.2583
  341MOL0     H47017   2.788   7.978   4.462  2.1749 -1.2516 -0.0799
  341MOL0     H47018   2.919   7.967   4.570 -0.3203  0.4545  0.2427
  341MOL0     H47019   2.778   8.077   4.611  0.8677  0.9584 -0.1966
  341MOL0     H47020   2.378   8.129   4.403  1.4105 -1.9860  0.7421
  341MOL0     H47021   2.213   8.195   4.248 -0.8162 -0.6333 -1.4417
  341MOL0     H47022   1.886   8.218   4.089 -0.7316 -1.6178  1.3822
  341MOL0     H47023   2.063   8.227   4.092  0.2377  0.3516 -2.0612
  341MOL0     H47024   1.993   7.944   4.048 -0.3133 -0.3628  2.3170
  341MOL0     H47025   1.890   8.057   3.936 -1.5506 -0.9377  0.1952
  341MOL0     H47026   2.200   8.061   3.955 -0.4759  3.3101  0.7687
  341MOL0     H47027   2.096   8.143   3.846 -0.2688 -0.1015  0.5574
  341MOL0     H47028   2.005   7.951   3.726 -0.4597  0.5512  0.0956
  341MOL0     H47029   2.111   7.847   3.831  2.0810  1.4473  1.5340
  341MOL0     H47030   2.212   7.910   3.593  3.3965  0.9993 -0.7666
  341MOL0     H47031   2.232   8.074   3.678  1.8399 -0.4122  0.9498
  341MOL0     H47032   2.326   7.820   3.811 -1.0770 -0.0198  2.1440
  341MOL0     H47033   2.393   7.991   3.817  0.3901  0.2495 -0.2191
  341MOL0     H47034   2.556   7.896   3.695  0.0102 -3.1308  3.6429
  341MOL0     H47035   2.442   7.933   3.560  1.6906  1.6045  0.8699
  341MOL0     H47036   2.355   7.690   3.589  0.5280  0.5543 -0.1434
  341MOL0     H47037   2.500   7.666   3.697 -0.4095  1.5545  0.7323
  341MOL0     H47038   1.952   7.878   4.349  1.0668  0.3521  0.4519
  341MOL0     H47039   2.139   7.788   4.502 -0.0879 -0.3502 -0.9463
  341MOL0     H47040   2.425   7.734   4.708  0.1087  0.3882 -0.4410
  341MOL0     H47041   2.558   7.611   4.873  1.7440 -1.9318 -0.7909
  341MOL0     H47042   2.218   8.596   5.461 -1.2747 -3.1862  4.1027
  341MOL0     H47043   2.204   8.620   5.197  1.2402 -1.4408 -1.4134
  341MOL0     H47044   2.122   8.488   4.829 -0.6828 -0.5241 -2.9965
  341MOL0     H47045   2.090   8.581   4.601 -1.3737 -0.4383  2.9975
  341MOL0     H47046   2.454   8.476   4.336  1.9053  1.0508 -1.7477
  341MOL0     H47047   2.337   8.529   4.214 -2.0406 -4.2086  1.6280
  341MOL0     H47048   2.529   8.686   4.215  1.2425  0.4379  0.8432
  341MOL0     H47049   2.508   8.722   4.382 -0.3360  2.3473  0.3456
  341MOL0     H47050   2.270   8.776   4.214 -1.1521  3.6039  0.0503
  341MOL0     H47051   2.336   8.848   4.369 -0.5842 -1.7591  0.3947
  341MOL0     H47052   2.503   8.971   4.217 -1.3841  2.0902  2.2087
  341MOL0     H47053   2.341   9.014   4.186 -2.0662 -1.9787 -0.2998
  341MOL0     H47054   2.436   8.863   3.813  3.4262 -0.6301 -0.8738
  341MOL0     H47055   2.510   8.504   4.538  0.0092 -0.1198  1.1771
  341MOL0     H47056   2.650   8.438   4.686 -0.6986  0.5074 -0.5678
  341MOL0     H47057   2.618   8.425   4.857 -0.2381 -0.4263  0.3770
  341MOL0     H47058   2.571   8.291   4.749 -3.4897  0.8727 -2.3085
  342MOL0     O47059   8.969   8.271   3.285 -0.3868 -0.1477  0.7796
  342MOL0     C47060   8.967   8.194   3.377 -0.1168  0.3559  0.3923
  342MOL0     O47061   9.074   8.119   3.417  0.5096  0.1431  0.2084
  342MOL0     C47062   9.174   8.093   3.320 -0.2171 -0.6514  0.1250
  342MOL0     C47063   9.200   7.959   3.284 -0.8705  0.2691 -0.2623
  342MOL0     C47064   9.285   7.931   3.179  0.3046  0.9341 -0.3344
  342MOL0     C47065   9.368   8.035   3.127  0.4348  0.4870  0.1349
  342MOL0     O47066   9.462   8.007   3.034 -0.2800 -0.7793  0.7272
  342MOL0     C47067   9.605   8.039   3.065  0.3909  0.2635 -0.7647
  342MOL0     C47068   9.662   8.169   3.005  0.2887  0.3516 -0.6009
  342MOL0     C47069   9.615   8.204   2.858 -0.3946  0.2593 -0.3325
  342MOL0     C47070   9.470   8.265   2.851  0.9780 -0.5262 -0.0463
  342MOL0     C47071   9.414   8.292   2.705  0.4587  0.0149  0.4693
  342MOL0     C47072   9.334   8.166   2.646  0.1424 -0.1616 -0.1295
  342MOL0     C47073   9.283   8.196   2.507 -0.5976 -0.6412 -0.0488
  342MOL0     C47074   9.143   8.262   2.499  0.1338  0.8458 -0.2057
  342MOL0     N47075   9.091   8.223   2.372 -0.4780 -0.5083  0.0587
  342MOL0     C47076   9.040   8.102   2.351  0.7009  0.4288  0.2787
  342MOL0     C47077   9.019   8.087   2.220  0.3822 -0.4201 -0.5211
  342MOL0     C47078   8.953   7.964   2.172 -0.1608 -0.5747  0.3372
  342MOL0     C47079   8.929   7.962   2.012 -0.2452 -0.8152 -0.7275
  342MOL0     C47080   9.060   7.925   1.938 -1.1427 -1.2011 -0.3295
  342MOL0     C47081   9.035   7.934   1.786  0.5233  0.4725 -0.0589
  342MOL0     O47082   9.159   7.901   1.722  0.0989 -0.5149 -0.3807
  342MOL0     C47083   9.261   8.000   1.711 -0.1449 -0.5377  0.5141
  342MOL0     C47084   9.395   7.958   1.682  0.8451 -0.2536  0.1876
  342MOL0     C47085   9.496   8.053   1.641  0.6135  0.3263  0.4471
  342MOL0     C47086   9.628   8.000   1.588 -0.3369 -0.3971  0.0734
  342MOL0     C47087   9.457   8.195   1.638 -0.1517 -1.2931 -0.4679
  342MOL0     C47088   9.548   8.309   1.606  0.5200  0.0749  0.0048
  342MOL0     O47089   9.517   8.398   1.500  0.4383 -0.5845 -0.2163
  342MOL0     C47090   9.414   8.363   1.415  1.2168  0.0178 -0.4690
  342MOL0     C47091   9.299   8.441   1.410 -0.1441  0.0255 -0.3712
  342MOL0     C47092   9.199   8.425   1.313 -0.3294  0.3878 -1.0836
  342MOL0     C47093   9.210   8.315   1.232 -0.5622  0.2258  0.2491
  342MOL0     O47094   9.125   8.276   1.132 -0.1170 -0.1596 -0.7876
  342MOL0     C47095   9.031   8.352   1.073 -0.5310 -0.0141 -0.1532
  342MOL0     C47096   8.897   8.370   1.142  0.3487  0.2513 -0.3046
  342MOL0     C47097   8.815   8.488   1.085 -0.1093 -0.6008 -0.2805
  342MOL0     C47098   8.660   8.473   1.116 -0.0070  0.2903  0.5387
  342MOL0     C47099   8.583   8.590   1.044  0.5417  0.6502 -0.7933
  342MOL0     C47100   8.556   8.549   0.903  0.1418 -0.5892 -0.2726
  342MOL0     C47101   8.485   8.670   0.809 -0.1570  0.9283 -0.9049
  342MOL0     C47102   8.417   8.618   0.688  1.4522 -0.4721  0.8296
  342MOL0    Cl47103   8.285   8.735   0.644 -0.0044 -0.3819 -0.0767
  342MOL0     C47104   9.321   8.232   1.234 -0.6548 -1.1891  0.2294
  342MOL0     C47105   9.421   8.259   1.321 -0.7065 -0.1112 -0.6751
  342MOL0     O47106   9.649   8.313   1.672  0.3669 -0.3784  0.5273
  342MOL0     C47107   9.330   8.234   1.684  0.1092  0.2330  0.6773
  342MOL0     C47108   9.238   8.139   1.724 -0.8914  0.7188 -0.2010
  342MOL0     N47109   9.078   8.193   2.161  0.0793 -0.4722  0.1183
  342MOL0     N47110   9.119   8.279   2.248 -0.7203 -0.1837 -0.5568
  342MOL0     C47111   9.344   8.166   3.174 -1.0126  0.1956 -0.0675
  342MOL0     C47112   9.240   8.196   3.262 -0.5933  0.0260 -0.0287
  342MOL0     C47113   8.853   8.198   3.470  0.0577 -1.0790  0.7906
  342MOL0     C47114   8.867   8.129   3.598  1.0173  1.2187  0.2243
  342MOL0     C47115   8.762   8.104   3.688 -1.1964 -0.2404  0.5600
  342MOL0     C47116   8.642   8.166   3.646 -0.1674  0.6322 -0.4977
  342MOL0     O47117   8.532   8.173   3.726 -0.1136  0.3544 -0.3673
  342MOL0     C47118   8.419   8.107   3.669  0.2394 -0.2888  0.6980
  342MOL0     C47119   8.315   8.064   3.782 -0.1404 -0.3467  0.5573
  342MOL0     C47120   8.238   8.181   3.823  0.8336 -0.2984  0.2658
  342MOL0     C47121   8.138   8.139   3.943  0.3818 -0.3469  0.0780
  342MOL0     C47122   8.019   8.224   3.968  0.1077  0.0902  0.6321
  342MOL0     C47123   7.923   8.297   3.977  0.2021 -0.2551 -0.7026
  342MOL0     C47124   8.633   8.237   3.528 -0.4403 -0.8193  0.2141
  342MOL0     C47125   8.734   8.262   3.447 -0.3512 -0.1906  0.0025
  342MOL0     C47126   8.704   8.361   3.327 -0.0965  1.5910  0.1513
  342MOL0     H47127   9.158   7.873   3.335  0.8929 -0.2411  0.4075
  342MOL0     H47128   9.305   7.832   3.141  0.8196  1.8079 -2.5368
  342MOL0     H47129   9.660   7.956   3.021  0.2777  0.0642 -0.5322
  342MOL0     H47130   9.624   8.047   3.172  1.7169 -0.3222 -0.9392
  342MOL0     H47131   9.655   8.259   3.067  2.1796  0.0509  0.1059
  342MOL0     H47132   9.770   8.173   2.985  0.6798  1.1124  1.4966
  342MOL0     H47133   9.679   8.283   2.817 -0.0398  1.4616  2.3486
  342MOL0     H47134   9.629   8.117   2.793 -1.5020 -1.7010  1.9071
  342MOL0     H47135   9.393   8.228   2.919 -0.9970  2.7591 -0.2988
  342MOL0     H47136   9.479   8.366   2.891 -2.7607 -0.5917  1.2904
  342MOL0     H47137   9.490   8.322   2.633  0.7003 -1.2516  0.1664
  342MOL0     H47138   9.342   8.374   2.714 -1.4528 -1.6877  1.7582
  342MOL0     H47139   9.385   8.070   2.650 -0.8832 -0.6727  1.8015
  342MOL0     H47140   9.260   8.145   2.724  1.3542 -2.0918  0.5644
  342MOL0     H47141   9.292   8.100   2.455 -1.7952  0.7904 -3.1121
  342MOL0     H47142   9.354   8.271   2.470  0.3560 -0.0559  2.7022
  342MOL0     H47143   9.079   8.217   2.575 -0.8171  1.9877 -0.3124
  342MOL0     H47144   9.160   8.369   2.512  1.1472  0.4097  2.7475
  342MOL0     H47145   9.029   8.027   2.429  2.1335 -3.3290 -2.7848
  342MOL0     H47146   8.852   7.975   2.212 -0.1012  1.8213 -0.0595
  342MOL0     H47147   9.000   7.869   2.201  0.6945 -1.2666 -2.9055
  342MOL0     H47148   8.844   7.899   1.984 -3.6828  3.4852 -1.0187
  342MOL0     H47149   8.895   8.063   1.988 -0.2213 -0.2238  1.4727
  342MOL0     H47150   9.141   7.994   1.964 -0.6057 -1.0760 -2.2283
  342MOL0     H47151   9.104   7.829   1.966  3.2222  0.6900  0.0741
  342MOL0     H47152   8.963   7.855   1.763 -0.8834  0.7695  2.9029
  342MOL0     H47153   8.989   8.025   1.746  0.4949  0.3168 -0.3866
  342MOL0     H47154   9.417   7.852   1.681  0.1719 -0.4256  1.6128
  342MOL0     H47155   9.625   8.004   1.479  0.2007 -4.7505 -0.2534
  342MOL0     H47156   9.662   7.901   1.619 -1.0995 -0.5183  0.5504
  342MOL0     H47157   9.711   8.069   1.610 -1.8469  0.4867  3.8577
  342MOL0     H47158   9.308   8.535   1.463  0.7268 -0.3006  0.0685
  342MOL0     H47159   9.120   8.500   1.307  1.3996  2.4552  0.4185
  342MOL0     H47160   9.073   8.450   1.049  0.4430 -0.5684 -0.7983
  342MOL0     H47161   9.018   8.306   0.974  1.4786  1.7928 -1.3392
  342MOL0     H47162   8.831   8.284   1.130 -1.2141  1.5902 -1.7986
  342MOL0     H47163   8.907   8.378   1.251  0.4292 -2.0397 -0.1025
  342MOL0     H47164   8.836   8.485   0.978 -0.5546 -1.0431 -0.3607
  342MOL0     H47165   8.854   8.582   1.125  3.9198 -2.0581 -0.2284
  342MOL0     H47166   8.650   8.473   1.225 -4.6844  2.5332  0.3426
  342MOL0     H47167   8.605   8.384   1.082 -1.3536  1.8138 -1.5096
  342MOL0     H47168   8.486   8.594   1.093 -0.3417 -1.0790 -2.2741
  342MOL0     H47169   8.630   8.688   1.055 -0.2564  0.9472  0.1013
  342MOL0     H47170   8.495   8.458   0.899 -1.1866  0.2699 -4.8150
  342MOL0     H47171   8.651   8.530   0.853  0.2891  0.9038 -0.5884
  342MOL0     H47172   8.559   8.744   0.777 -0.3941 -0.1432 -4.3464
  342MOL0     H47173   8.396   8.714   0.856 -1.5426 -2.4094 -0.1044
  342MOL0     H47174   8.364   8.527   0.717  2.1240 -1.3274 -0.4831
  342MOL0     H47175   8.484   8.586   0.607  0.9210 -2.0085  0.9608
  342MOL0     H47176   9.336   8.159   1.155  0.8182 -0.2201 -0.4228
  342MOL0     H47177   9.503   8.189   1.328 -3.0682 -2.9564  1.2753
  342MOL0     H47178   9.303   8.339   1.679  1.9218  0.6732 -2.3719
  342MOL0     H47179   9.148   8.166   1.778  0.3187 -2.3475  3.8115
  342MOL0     H47180   9.413   8.239   3.134 -0.1171  0.4401  1.8002
  342MOL0     H47181   9.221   8.291   3.312  1.5845  1.3264 -1.5203
  342MOL0     H47182   8.957   8.072   3.620  1.4305  1.3341 -1.1376
  342MOL0     H47183   8.773   8.047   3.779  2.7759 -1.9379 -0.7818
  342MOL0     H47184   8.373   8.170   3.592  2.6243 -0.5653 -1.0610
  342MOL0     H47185   8.444   8.027   3.600 -1.9868 -1.8254  1.5663
  342MOL0     H47186   8.368   8.012   3.862 -1.5244 -1.9154  0.5183
  342MOL0     H47187   8.246   7.987   3.746  2.2300 -1.3343 -2.3020
  342MOL0     H47188   8.291   8.273   3.850  0.6831 -0.1925  0.1985
  342MOL0     H47189   8.176   8.215   3.740 -2.1617  0.2713  2.5650
  342MOL0     H47190   8.181   8.134   4.043 -0.3998 -1.4615  0.3775
  342MOL0     H47191   8.102   8.037   3.925 -1.3791  0.4522 -1.2248
  342MOL0     H47192   7.840   8.361   3.997 -0.5358 -1.9719  2.4910
  342MOL0     H47193   8.539   8.273   3.488 -0.3200 -2.2616 -1.4958
  342MOL0     H47194   8.597   8.353   3.307  0.2418 -3.8937 -1.1198
  342MOL0     H47195   8.740   8.462   3.350 -0.6204  1.4872  1.4839
  342MOL0     H47196   8.750   8.333   3.231 -0.3064  0.3770  0.3935
  343MOL0     O47197   6.336   4.266   9.126 -0.1685  0.7203 -1.1984
  343MOL0     C47198   6.371   4.166   9.189 -0.0802 -0.2488  0.2843
  343MOL0     O47199   6.334   4.127   9.321 -0.6707 -0.0211 -0.0335
  343MOL0     C47200   6.258   4.210   9.403 -0.2128  0.3134 -0.1597
  343MOL0     C47201   6.281   4.177   9.537  0.1142  0.4327  0.5129
  343MOL0     C47202   6.229   4.261   9.635 -0.6643 -0.8839 -0.5705
  343MOL0     C47203   6.150   4.370   9.600 -0.7411  0.2801 -0.9782
  343MOL0     O47204   6.092   4.437   9.715  0.0781  0.1697  0.2794
  343MOL0     C47205   5.947   4.466   9.705  0.1567  1.5105 -0.5733
  343MOL0     C47206   5.912   4.518   9.849  0.0198  0.1388  0.2671
  343MOL0     C47207   5.978   4.445   9.965 -0.9440  0.6705 -0.6233
  343MOL0     C47208   5.925   4.304   9.977 -0.3941 -0.8479 -1.6574
  343MOL0     C47209   6.006   4.223  10.074 -0.1556  0.8962 -0.1505
  343MOL0     C47210   5.986   4.071  10.053  0.4553  0.5643 -0.2520
  343MOL0     C47211   6.039   3.997  10.187  0.5894 -0.1990  0.4577
  343MOL0     C47212   5.966   4.029  10.315 -0.3111 -0.1749  0.2946
  343MOL0     N47213   5.817   3.996  10.308 -0.7399 -0.0955 -0.1565
  343MOL0     C47214   5.717   4.062  10.239  0.3117  0.2548  1.0178
  343MOL0     C47215   5.602   4.004  10.273  0.3224  0.2554  0.8223
  343MOL0     C47216   5.468   4.049  10.223 -0.0586 -0.2603  0.7044
  343MOL0     C47217   5.356   3.943  10.258 -0.4242  0.0541 -0.4607
  343MOL0     C47218   5.229   3.960  10.165  0.0963  0.3050 -0.5458
  343MOL0     C47219   5.152   4.090  10.186 -0.3041 -0.3234 -0.1530
  343MOL0     O47220   5.010   4.064  10.144  0.0537 -1.0057  0.5732
  343MOL0     C47221   4.940   4.160  10.067  0.3738 -0.5010 -0.5630
  343MOL0     C47222   4.974   4.286  10.011 -0.7304 -0.7093 -1.3847
  343MOL0     C47223   4.888   4.369   9.939  0.4072  0.4912  0.0303
  343MOL0     C47224   4.922   4.506   9.895  1.1718 -0.1769 -0.3953
  343MOL0     C47225   4.763   4.313   9.904 -0.2312 -0.7304 -0.5092
  343MOL0     C47226   4.665   4.385   9.813 -0.7102 -0.8414 -0.4156
  343MOL0     O47227   4.633   4.520   9.823  0.2841  0.8732 -0.3744
  343MOL0     C47228   4.529   4.556   9.745 -0.6325  0.0611 -0.4275
  343MOL0     C47229   4.542   4.612   9.620 -0.3891  0.0382  0.4254
  343MOL0     C47230   4.434   4.671   9.555  0.0165  0.9655  0.4083
  343MOL0     C47231   4.305   4.659   9.601  0.5843 -0.2807 -0.9122
  343MOL0     O47232   4.199   4.715   9.529 -0.3291 -0.0374 -0.4820
  343MOL0     C47233   4.063   4.701   9.571 -0.2079 -0.7405 -0.1256
  343MOL0     C47234   4.002   4.838   9.542 -0.0744  0.0972  1.3037
  343MOL0     C47235   3.857   4.814   9.580 -0.6351 -0.0096  0.4417
  343MOL0     C47236   3.789   4.943   9.598 -0.3773  0.0390  0.3370
  343MOL0     C47237   3.740   4.962   9.740  0.1767 -0.8314 -0.2403
  343MOL0     C47238   3.854   5.002   9.846  0.6801 -0.4983 -0.3990
  343MOL0     C47239   3.894   5.152   9.836 -0.4582 -0.3362 -0.2972
  343MOL0     C47240   3.958   5.208   9.966 -0.4005  0.0943 -0.0684
  343MOL0    Cl47241   4.063   5.347   9.939  0.4346 -0.1042  0.0036
  343MOL0     C47242   4.287   4.581   9.715  1.0898 -0.3684 -0.7062
  343MOL0     C47243   4.401   4.534   9.790  0.4845 -0.7192  0.4444
  343MOL0     O47244   4.637   4.313   9.716  1.1965 -0.2137  0.1843
  343MOL0     C47245   4.728   4.191   9.940  0.6517  0.3118 -0.0765
  343MOL0     C47246   4.814   4.117  10.023 -0.5808  0.1208  0.9323
  343MOL0     N47247   5.629   3.923  10.389  0.6328 -0.4833  1.1305
  343MOL0     N47248   5.763   3.917  10.398 -0.4510 -0.1342 -0.3961
  343MOL0     C47249   6.134   4.409   9.469 -0.0336 -1.3243 -0.4083
  343MOL0     C47250   6.176   4.325   9.369 -0.0475 -0.4519 -0.3198
  343MOL0     C47251   6.435   4.053   9.114  0.4132 -0.5225  0.1765
  343MOL0     C47252   6.405   4.038   8.975 -0.6426  0.7229 -0.0554
  343MOL0     C47253   6.470   3.935   8.894  0.3363 -0.4128 -0.3689
  343MOL0     C47254   6.565   3.849   8.952  0.7050  1.1046 -0.1946
  343MOL0     O47255   6.632   3.763   8.861  0.5318 -0.0285  0.5423
  343MOL0     C47256   6.727   3.665   8.913 -0.0380  0.4147 -0.3177
  343MOL0     C47257   6.868   3.718   8.903 -0.5058  0.4940 -1.5043
  343MOL0     C47258   6.976   3.613   8.875 -0.0395  0.1057  0.2476
  343MOL0     C47259   7.051   3.587   9.009  0.7946  0.6257 -0.2482
  343MOL0     C47260   7.148   3.692   9.040  0.1776 -0.3631  0.8961
  343MOL0     C47261   7.220   3.767   9.097  0.4273  0.2524 -0.8282
  343MOL0     C47262   6.581   3.857   9.095 -0.2085 -1.0578  0.7210
  343MOL0     C47263   6.508   3.947   9.176 -0.9968 -0.4270  0.6031
  343MOL0     C47264   6.528   3.921   9.321  0.6641  0.3596  0.1048
  343MOL0     H47265   6.341   4.088   9.552  1.6063  0.4839 -3.7557
  343MOL0     H47266   6.250   4.229   9.736  1.4534  0.7467 -0.4150
  343MOL0     H47267   5.888   4.376   9.684 -2.2167  2.7027  0.5454
  343MOL0     H47268   5.938   4.541   9.626 -1.4725  1.4331 -0.5030
  343MOL0     H47269   5.949   4.621   9.850 -0.7717  0.4665  3.2262
  343MOL0     H47270   5.806   4.531   9.872  0.3066  2.0901  0.6964
  343MOL0     H47271   6.087   4.434   9.968 -1.1442 -2.0395  0.1124
  343MOL0     H47272   5.954   4.506  10.052  0.4699  2.0403 -1.1667
  343MOL0     H47273   5.817   4.304   9.990 -0.6076  1.9227 -2.7043
  343MOL0     H47274   5.939   4.258   9.878  0.0585 -0.2017 -1.9040
  343MOL0     H47275   5.961   4.260  10.167 -0.4578  1.6693 -0.5965
  343MOL0     H47276   6.110   4.254  10.071 -0.8493  3.6189  1.1863
  343MOL0     H47277   5.884   4.043  10.024  0.6789  0.3024 -0.7939
  343MOL0     H47278   6.051   4.057   9.967  2.6203  0.5111  1.3022
  343MOL0     H47279   6.140   4.036  10.202  1.9934 -2.1436 -2.7471
  343MOL0     H47280   6.039   3.889  10.170 -1.0659 -0.3454  1.1231
  343MOL0     H47281   5.999   3.958  10.392  0.0436 -1.0782 -0.6609
  343MOL0     H47282   5.987   4.130  10.350 -0.6024  0.2411 -0.7117
  343MOL0     H47283   5.731   4.142  10.166  0.0915  0.9226  1.6844
  343MOL0     H47284   5.463   4.058  10.115  1.4536 -2.8053  0.3348
  343MOL0     H47285   5.436   4.138  10.277 -3.9104 -1.2797  0.4480
  343MOL0     H47286   5.391   3.840  10.260 -0.1395  0.1278 -1.1441
  343MOL0     H47287   5.332   3.963  10.363  1.1574 -0.0554 -0.0556
  343MOL0     H47288   5.245   3.951  10.057 -0.3749  0.0157 -0.5909
  343MOL0     H47289   5.170   3.873  10.196  1.1679  0.3761  2.0009
  343MOL0     H47290   5.164   4.125  10.289  0.2224 -0.8524 -0.0331
  343MOL0     H47291   5.192   4.160  10.111  0.1810  1.3049  1.5392
  343MOL0     H47292   5.070   4.317  10.051  0.0640 -0.2720 -3.5042
  343MOL0     H47293   4.841   4.571   9.930  0.2246 -0.2335 -2.3416
  343MOL0     H47294   4.926   4.516   9.786 -0.0199  1.3874 -0.3320
  343MOL0     H47295   5.014   4.535   9.947  0.5416  0.8980  0.1462
  343MOL0     H47296   4.641   4.611   9.576 -1.6008  0.2291 -2.5160
  343MOL0     H47297   4.441   4.729   9.464  1.1665  0.3149  0.0653
  343MOL0     H47298   4.017   4.619   9.515  2.7661 -2.5238 -0.2164
  343MOL0     H47299   4.057   4.678   9.678  2.5333  1.1660  0.5525
  343MOL0     H47300   4.052   4.913   9.604  1.4617  1.4331 -1.3991
  343MOL0     H47301   4.000   4.857   9.435 -4.5549 -0.0557  1.1841
  343MOL0     H47302   3.861   4.751   9.669  0.0009  0.4067  0.7129
  343MOL0     H47303   3.818   4.767   9.489  0.9198 -0.3201 -0.1091
  343MOL0     H47304   3.698   4.950   9.538  1.0506  1.7419 -1.7862
  343MOL0     H47305   3.849   5.030   9.570 -1.6836  0.5713 -0.9160
  343MOL0     H47306   3.663   5.039   9.743 -3.1998 -3.8953 -1.3364
  343MOL0     H47307   3.694   4.867   9.766  0.6628 -1.1202 -0.4160
  343MOL0     H47308   3.936   4.932   9.830 -1.4392 -2.7164 -2.4464
  343MOL0     H47309   3.827   4.985   9.951  3.0568  0.7959  0.4808
  343MOL0     H47310   3.804   5.208   9.810  0.6365  0.5416 -2.4625
  343MOL0     H47311   3.968   5.167   9.757  2.1190 -1.1578  1.8193
  343MOL0     H47312   4.011   5.127  10.018 -2.7280 -0.9927  0.7273
  343MOL0     H47313   3.877   5.236  10.034  1.9605  2.9857  1.8060
  343MOL0     H47314   4.197   4.574   9.775  2.1938  1.7579  1.3689
  343MOL0     H47315   4.399   4.480   9.885 -2.0149  0.2282  1.0079
  343MOL0     H47316   4.637   4.137   9.916  1.0440 -1.8003  2.6036
  343MOL0     H47317   4.786   4.015  10.049 -0.0137 -0.2302  0.2139
  343MOL0     H47318   6.093   4.509   9.459 -0.0557 -1.3480 -0.5542
  343MOL0     H47319   6.147   4.347   9.266 -1.3862 -1.1765 -0.1200
  343MOL0     H47320   6.328   4.097   8.926 -3.0259 -1.3606  0.9584
  343MOL0     H47321   6.435   3.942   8.792 -0.4807  0.1429 -0.0653
  343MOL0     H47322   6.697   3.624   9.009 -1.7188 -0.7374 -1.2840
  343MOL0     H47323   6.727   3.583   8.841  1.1335 -2.6448  2.8907
  343MOL0     H47324   6.899   3.755   9.001  0.9184 -0.5272 -1.5293
  343MOL0     H47325   6.870   3.799   8.829 -2.0350  2.3787  0.3916
  343MOL0     H47326   6.934   3.522   8.831 -3.7355  2.6489 -2.0699
  343MOL0     H47327   7.044   3.637   8.792 -1.5304  1.2692 -0.6992
  343MOL0     H47328   7.098   3.490   8.996  0.1635  0.5038 -1.9920
  343MOL0     H47329   6.969   3.576   9.081  1.0284  0.5269  0.0027
  343MOL0     H47330   7.285   3.838   9.144 -1.0083  1.1904 -0.2125
  343MOL0     H47331   6.627   3.767   9.135  1.5314 -1.0922 -1.2180
  343MOL0     H47332   6.429   3.901   9.364 -0.6915 -0.6455 -3.1904
  343MOL0     H47333   6.601   3.841   9.341  0.4311  0.0755 -0.1795
  343MOL0     H47334   6.564   4.008   9.376 -0.1511  0.0876  1.0964
  344MOL0     O47335   7.138   6.271   7.102  0.3571 -0.8838  0.4844
  344MOL0     C47336   7.122   6.295   7.221 -0.1922 -0.0398  0.9387
  344MOL0     O47337   7.005   6.349   7.273 -0.1188 -0.7810  0.3266
  344MOL0     C47338   6.905   6.387   7.181 -0.3487  0.3075  0.5950
  344MOL0     C47339   6.869   6.308   7.076  0.3189 -1.5404 -0.2800
  344MOL0     C47340   6.763   6.333   6.991 -0.0380  0.6928  1.3435
  344MOL0     C47341   6.684   6.444   7.006  0.6642  0.3669  0.0996
  344MOL0     O47342   6.570   6.450   6.931  0.5936  0.4110 -0.5727
  344MOL0     C47343   6.491   6.334   6.928 -0.7456 -0.1091 -0.6115
  344MOL0     C47344   6.346   6.387   6.889 -0.0874 -0.7442 -0.2833
  344MOL0     C47345   6.332   6.438   6.745 -0.5558 -0.1310 -0.7000
  344MOL0     C47346   6.179   6.467   6.710 -0.2435 -0.1393  0.6707
  344MOL0     C47347   6.168   6.510   6.572  0.9522 -0.2156  0.2055
  344MOL0     C47348   6.030   6.482   6.536  0.4735 -0.4839 -0.5281
  344MOL0     C47349   5.971   6.551   6.416 -0.1194 -0.5565 -1.3396
  344MOL0     C47350   6.051   6.534   6.281  0.5362 -0.1704 -0.7872
  344MOL0     N47351   6.079   6.392   6.249  0.4646 -1.2546  0.3044
  344MOL0     C47352   6.002   6.282   6.277 -0.0671 -0.0399 -0.4377
  344MOL0     C47353   6.088   6.181   6.254  0.3037  0.4017  0.6177
  344MOL0     C47354   6.051   6.034   6.249 -0.1463 -0.6489  0.5348
  344MOL0     C47355   6.138   5.951   6.347 -0.2196  1.3369 -0.3512
  344MOL0     C47356   6.111   5.972   6.498 -0.0661 -0.1168  0.3070
  344MOL0     C47357   6.174   6.093   6.550  0.4756 -0.9272 -0.5364
  344MOL0     O47358   6.216   6.068   6.687  0.0512  0.2857 -0.2187
  344MOL0     C47359   6.333   6.000   6.716  0.0494  0.0458 -0.1048
  344MOL0     C47360   6.355   5.979   6.850 -0.8555 -0.5404  1.0933
  344MOL0     C47361   6.485   5.948   6.890 -1.0990  0.9337 -0.4743
  344MOL0     C47362   6.504   5.947   7.042 -0.1921  0.9088 -0.1309
  344MOL0     C47363   6.589   5.901   6.805  0.4406  0.1797 -0.9372
  344MOL0     C47364   6.722   5.858   6.846 -0.3202  0.3619  0.6689
  344MOL0     O47365   6.804   5.955   6.892 -0.1487 -0.5944 -0.3618
  344MOL0     C47366   6.916   5.908   6.961  0.0026  0.5799 -0.0656
  344MOL0     C47367   7.043   5.966   6.930 -0.2690 -0.0204 -0.8868
  344MOL0     C47368   7.153   5.938   7.018  1.0283 -0.5451 -0.2138
  344MOL0     C47369   7.134   5.846   7.133 -0.0681  0.5124 -0.3610
  344MOL0     O47370   7.226   5.817   7.229  1.2741  0.7047  0.1731
  344MOL0     C47371   7.362   5.861   7.206  0.7045  0.4731 -0.1105
  344MOL0     C47372   7.451   5.808   7.322  0.9705 -0.8316  0.6362
  344MOL0     C47373   7.522   5.677   7.286  1.5218 -1.1294 -0.6301
  344MOL0     C47374   7.642   5.641   7.376  0.0478 -0.4411 -1.5975
  344MOL0     C47375   7.701   5.494   7.350 -0.3214 -0.3399  0.1286
  344MOL0     C47376   7.784   5.502   7.221  1.1165 -0.4025  0.4085
  344MOL0     C47377   7.812   5.371   7.147 -0.4555  0.0907  0.3172
  344MOL0     C47378   7.809   5.386   6.996  0.1081 -0.3316  0.1043
  344MOL0    Cl47379   7.824   5.215   6.931 -0.3559  0.4321  0.0127
  344MOL0     C47380   7.010   5.798   7.166  1.4765 -1.2512  0.5403
  344MOL0     C47381   6.904   5.834   7.079 -0.1847  0.3626 -0.6084
  344MOL0     O47382   6.745   5.733   6.834  0.6655  0.7025  0.0794
  344MOL0     C47383   6.561   5.910   6.668 -0.8729  0.0293  0.8240
  344MOL0     C47384   6.433   5.956   6.619 -0.1936  0.1527 -0.3872
  344MOL0     N47385   6.215   6.228   6.232  0.2177 -0.4736 -0.7706
  344MOL0     N47386   6.206   6.353   6.222 -0.9524 -0.5210 -0.2445
  344MOL0     C47387   6.715   6.536   7.107 -0.7990  0.3530 -1.0865
  344MOL0     C47388   6.824   6.509   7.193 -0.8191  0.2503 -0.5364
  344MOL0     C47389   7.222   6.231   7.311 -0.5071 -0.0318 -0.3446
  344MOL0     C47390   7.183   6.207   7.447  0.5399  0.3282  0.9753
  344MOL0     C47391   7.273   6.155   7.536  0.3198  0.6128 -0.7014
  344MOL0     C47392   7.414   6.134   7.503 -0.0200 -0.7533 -0.2909
  344MOL0     O47393   7.495   6.080   7.594 -0.0747  0.8540  0.2017
  344MOL0     C47394   7.628   6.116   7.593  0.8601 -0.6188 -0.5063
  344MOL0     C47395   7.717   6.102   7.727 -0.0611  0.0528  0.7090
  344MOL0     C47396   7.757   5.953   7.765 -0.2076 -1.2025 -0.1609
  344MOL0     C47397   7.845   5.956   7.877  0.8950  0.1002  0.0360
  344MOL0     C47398   7.982   6.004   7.850  0.2973  0.0198 -0.5788
  344MOL0     C47399   8.092   6.026   7.827 -0.0884 -0.7727  0.1397
  344MOL0     C47400   7.454   6.164   7.373 -0.4102  0.1313  1.0271
  344MOL0     C47401   7.364   6.223   7.280 -0.0208  0.9721  0.4777
  344MOL0     C47402   7.421   6.264   7.148 -0.4019  0.2800 -0.8588
  344MOL0     H47403   6.922   6.214   7.061  0.0190 -2.0672  1.6902
  344MOL0     H47404   6.741   6.273   6.903  0.1627  0.0285  1.7397
  344MOL0     H47405   6.488   6.290   7.028 -2.0080  0.1506 -0.5187
  344MOL0     H47406   6.518   6.255   6.857 -1.9111 -0.7405 -0.3720
  344MOL0     H47407   6.288   6.294   6.894  1.5743 -2.0052 -2.3453
  344MOL0     H47408   6.317   6.461   6.964  0.1520  3.4088 -3.9061
  344MOL0     H47409   6.401   6.523   6.735  1.3144 -1.0629  2.8769
  344MOL0     H47410   6.357   6.367   6.666  0.0229  2.7036 -3.2723
  344MOL0     H47411   6.117   6.383   6.741  1.6344 -2.1590 -0.7618
  344MOL0     H47412   6.139   6.552   6.766 -4.0165 -1.2588 -0.0477
  344MOL0     H47413   6.238   6.462   6.503  1.7534 -0.4957  1.1818
  344MOL0     H47414   6.194   6.615   6.558 -5.1947  1.6946  0.1230
  344MOL0     H47415   6.008   6.376   6.519 -5.3464  0.9643 -6.5306
  344MOL0     H47416   5.961   6.510   6.616  2.3412  2.2697  0.2692
  344MOL0     H47417   5.975   6.659   6.433  1.5214 -0.3978 -2.5038
  344MOL0     H47418   5.868   6.519   6.398 -0.5324 -0.8513  1.1611
  344MOL0     H47419   5.995   6.576   6.197 -0.3361  0.2513 -0.0117
  344MOL0     H47420   6.143   6.593   6.284 -0.0453  0.7731 -1.1862
  344MOL0     H47421   5.897   6.281   6.306  0.2275  5.2153  2.0146
  344MOL0     H47422   6.062   6.000   6.146  0.6389 -1.5150  0.8925
  344MOL0     H47423   5.946   6.026   6.280 -1.1702 -0.0932 -2.4241
  344MOL0     H47424   6.127   5.845   6.322 -1.8260  1.6013 -0.8809
  344MOL0     H47425   6.245   5.969   6.332  0.3679 -0.3991  1.3220
  344MOL0     H47426   6.004   5.979   6.521  0.5076 -2.2206  4.4787
  344MOL0     H47427   6.143   5.882   6.552  1.0488  0.1823  0.1586
  344MOL0     H47428   6.254   6.131   6.486  0.6495  1.5786  1.0218
  344MOL0     H47429   6.102   6.175   6.553  1.1280 -0.2976 -1.5646
  344MOL0     H47430   6.270   6.012   6.910 -2.5195  0.8750 -1.8196
  344MOL0     H47431   6.540   6.044   7.079 -1.0459  1.1926 -0.0243
  344MOL0     H47432   6.580   5.872   7.066 -0.6717  0.7504  0.9728
  344MOL0     H47433   6.411   5.912   7.088  0.8354 -0.1775  1.2005
  344MOL0     H47434   7.062   6.029   6.844  0.9983 -1.4480 -1.7029
  344MOL0     H47435   7.249   5.987   7.007  0.6621  0.7777  1.9340
  344MOL0     H47436   7.392   5.823   7.108  1.4721 -2.0183  1.0199
  344MOL0     H47437   7.354   5.970   7.199  1.7013  0.6138  0.7208
  344MOL0     H47438   7.521   5.890   7.343 -0.5653  0.6609  0.2157
  344MOL0     H47439   7.389   5.801   7.412  0.0418  3.1896  0.4938
  344MOL0     H47440   7.544   5.675   7.179 -1.0924  0.2316 -1.2622
  344MOL0     H47441   7.439   5.606   7.298 -0.1025  0.9110  0.8817
  344MOL0     H47442   7.612   5.629   7.481  4.1178 -5.1130 -0.5774
  344MOL0     H47443   7.729   5.706   7.362  0.5147 -0.9184 -0.9264
  344MOL0     H47444   7.764   5.457   7.431  1.0100  0.8711 -0.2940
  344MOL0     H47445   7.609   5.437   7.339  1.7164 -3.6617 -1.3904
  344MOL0     H47446   7.875   5.553   7.253  0.3518  0.3213  1.5080
  344MOL0     H47447   7.732   5.570   7.153  1.6558 -2.1313 -1.8627
  344MOL0     H47448   7.746   5.291   7.183  1.8020 -1.1319  2.0275
  344MOL0     H47449   7.912   5.343   7.181 -0.7895  0.1639  1.3880
  344MOL0     H47450   7.890   5.446   6.953  1.1986  0.5327  3.1616
  344MOL0     H47451   7.713   5.427   6.960 -0.7402 -2.5094 -0.2730
  344MOL0     H47452   6.992   5.736   7.253 -4.1517  0.1530  0.7606
  344MOL0     H47453   6.803   5.801   7.102 -0.4915  1.1138 -0.8429
  344MOL0     H47454   6.647   5.880   6.609 -1.1657  3.0507 -1.4193
  344MOL0     H47455   6.423   5.966   6.511 -1.6977 -3.5014 -0.7247
  344MOL0     H47456   6.652   6.623   7.121  0.9499  1.4156  0.7411
  344MOL0     H47457   6.843   6.576   7.276 -2.1623 -3.2710  2.8616
  344MOL0     H47458   7.088   6.238   7.490  0.2056 -0.2689  0.6642
  344MOL0     H47459   7.225   6.140   7.632 -0.1939 -2.7682 -1.3543
  344MOL0     H47460   7.683   6.066   7.513  2.0418 -0.2391  0.0482
  344MOL0     H47461   7.629   6.222   7.564 -1.9757 -1.0135 -2.5001
  344MOL0     H47462   7.657   6.155   7.801  0.4396  3.5735 -1.1756
  344MOL0     H47463   7.817   6.144   7.711  0.4072 -1.2971 -0.0184
  344MOL0     H47464   7.669   5.892   7.789 -0.7306 -1.2580 -2.0741
  344MOL0     H47465   7.817   5.906   7.687 -0.7914 -4.2269  1.0618
  344MOL0     H47466   7.847   5.863   7.934 -1.2819  0.9786  1.6645
  344MOL0     H47467   7.801   6.024   7.949  3.4286  2.6813 -0.6706
  344MOL0     H47468   8.190   6.069   7.812 -0.3424 -0.5770 -1.1154
  344MOL0     H47469   7.554   6.141   7.338  0.1649 -1.0069  3.2635
  344MOL0     H47470   7.357   6.252   7.061 -0.8039 -2.5122 -0.2840
  344MOL0     H47471   7.462   6.365   7.139 -0.9882  0.5798 -0.2633
  344MOL0     H47472   7.507   6.200   7.126  1.2418  1.5830  1.2995
  345MOL0     O47473   9.899   7.011   4.177 -0.3861  0.2442  0.4252
  345MOL0     C47474   9.969   7.049   4.082  0.6612 -0.3907 -0.3912
  345MOL0     O47475   9.924   7.084   3.964 -0.2760  0.4461  0.0614
  345MOL0     C47476   9.798   7.060   3.924  0.6759 -0.3992  0.2465
  345MOL0     C47477   9.739   6.937   3.936  0.4012  0.1783 -0.1124
  345MOL0     C47478   9.622   6.891   3.871 -0.0464  0.2233 -0.2512
  345MOL0     C47479   9.551   6.994   3.805 -0.1778 -0.0378 -0.1344
  345MOL0     O47480   9.427   6.979   3.751 -0.0143 -0.3924 -0.1619
  345MOL0     C47481   9.375   6.844   3.737  0.4731  0.7161  0.4008
  345MOL0     C47482   9.240   6.830   3.675 -0.0538 -0.1884 -0.5617
  345MOL0     C47483   9.239   6.883   3.536 -0.5000  1.1582 -0.0508
  345MOL0     C47484   9.349   6.835   3.433  0.2354  0.4036  0.9464
  345MOL0     C47485   9.375   6.680   3.441  1.3453  0.5790 -0.2128
  345MOL0     C47486   9.510   6.639   3.383 -0.6793 -0.1164  0.4351
  345MOL0     C47487   9.536   6.492   3.425  0.2562  0.1429  0.4620
  345MOL0     C47488   9.637   6.421   3.326 -0.0069  0.4293 -0.3371
  345MOL0     N47489   9.763   6.489   3.326  0.3097  0.2071 -0.1078
  345MOL0     C47490   9.835   6.541   3.224  0.3148  0.3084  0.4429
  345MOL0     C47491   9.946   6.589   3.276 -0.5055  0.1501 -0.1251
  345MOL0     C47492  10.064   6.642   3.201 -0.3373  0.7844 -0.3097
  345MOL0     C47493  10.023   6.679   3.056 -0.0149 -0.2907  1.3134
  345MOL0     C47494  10.126   6.776   2.984 -0.5569  0.4540  0.2797
  345MOL0     C47495  10.084   6.776   2.831  0.1529 -0.1156 -0.4100
  345MOL0     O47496   9.950   6.833   2.817  0.0952  0.6404 -1.0573
  345MOL0     C47497   9.891   6.819   2.690  0.7345  0.0344  0.4889
  345MOL0     C47498   9.841   6.930   2.630  0.8572  1.1817 -0.0212
  345MOL0     C47499   9.786   6.935   2.506 -0.3264  0.4669  0.0724
  345MOL0     C47500   9.701   7.050   2.468 -0.1347  0.5810 -0.5123
  345MOL0     C47501   9.788   6.811   2.435 -0.2123 -0.0607  0.8616
  345MOL0     C47502   9.740   6.800   2.291 -0.2345 -0.3905 -0.0824
  345MOL0     O47503   9.710   6.672   2.254  0.4785 -0.9407  0.0607
  345MOL0     C47504   9.689   6.653   2.119  0.8531  0.6737  1.3140
  345MOL0     C47505   9.584   6.727   2.054  0.1805 -0.4589  0.2232
  345MOL0     C47506   9.550   6.703   1.924 -0.0999  1.1109 -0.0246
  345MOL0     C47507   9.630   6.627   1.842 -0.2072 -0.4613 -0.7424
  345MOL0     O47508   9.599   6.641   1.706  0.5286  0.0625  0.1437
  345MOL0     C47509   9.695   6.713   1.630 -0.3930  0.1384 -0.2069
  345MOL0     C47510   9.633   6.764   1.495  0.8881 -0.2012 -0.6507
  345MOL0     C47511   9.619   6.656   1.394  0.2436 -0.6919 -0.1140
  345MOL0     C47512   9.564   6.708   1.256 -0.6697  0.2500  0.4106
  345MOL0     C47513   9.496   6.591   1.179  0.6973 -0.7513  0.6379
  345MOL0     C47514   9.351   6.580   1.201  0.2982 -0.6051  0.1795
  345MOL0     C47515   9.282   6.488   1.104 -1.2502  0.1572 -0.1279
  345MOL0     C47516   9.133   6.481   1.112 -0.2763  0.6358 -0.2824
  345MOL0    Cl47517   9.081   6.430   1.275 -0.1890  0.2508 -0.0132
  345MOL0     C47518   9.735   6.561   1.902 -0.5298 -0.3364 -0.4856
  345MOL0     C47519   9.760   6.561   2.041  0.5603 -0.2174 -0.2204
  345MOL0     O47520   9.735   6.905   2.224  0.0240 -0.2076  0.6957
  345MOL0     C47521   9.847   6.694   2.491 -0.4656  0.6129  0.5578
  345MOL0     C47522   9.898   6.697   2.623 -0.1920 -0.2095 -1.3102
  345MOL0     N47523   9.946   6.566   3.412 -0.9443 -1.1992 -0.3330
  345MOL0     N47524   9.848   6.502   3.439  0.6854 -0.3318 -0.2197
  345MOL0     C47525   9.597   7.119   3.798 -0.4873  0.3591 -0.0718
  345MOL0     C47526   9.725   7.153   3.855  0.0926  0.3899  0.0943
  345MOL0     C47527  10.111   7.067   4.104  0.3350  0.5736 -0.3366
  345MOL0     C47528  10.205   7.000   4.024  2.1881  0.5244 -0.3981
  345MOL0     C47529  10.333   7.032   4.038  0.0672 -0.3691 -0.3613
  345MOL0     C47530  10.386   7.110   4.135  0.1832  0.0111  1.4664
  345MOL0     O47531  10.521   7.133   4.128  0.7148 -0.2006 -0.1300
  345MOL0     C47532  10.586   7.197   4.242  0.1652 -0.7287  0.3897
  345MOL0     C47533  10.653   7.329   4.210  0.1183 -0.1076  1.0277
  345MOL0     C47534  10.803   7.297   4.182  0.2018 -1.3588 -0.3714
  345MOL0     C47535  10.859   7.420   4.128 -0.8431  0.0563  0.3689
  345MOL0     C47536  11.003   7.413   4.165  0.6884  0.1763  0.5329
  345MOL0     C47537  11.121   7.412   4.194  0.3196 -0.2052  0.1947
  345MOL0     C47538  10.294   7.176   4.218  0.5464 -0.0448  0.2530
  345MOL0     C47539  10.159   7.160   4.201 -0.0802  0.8553 -0.5393
  345MOL0     C47540  10.060   7.248   4.286 -0.4762  0.7028 -0.0559
  345MOL0     H47541   9.794   6.859   3.988 -2.6998  1.0566  5.1649
  345MOL0     H47542   9.576   6.796   3.896  0.8873 -1.0742 -3.0600
  345MOL0     H47543   9.363   6.804   3.838 -3.9470  0.9042  0.1387
  345MOL0     H47544   9.458   6.791   3.690  0.4660 -1.6336  2.7985
  345MOL0     H47545   9.202   6.727   3.686 -2.5450  0.7887  0.8142
  345MOL0     H47546   9.178   6.886   3.745  3.1527  1.4844  1.1493
  345MOL0     H47547   9.142   6.859   3.491 -0.9553 -1.8965  2.2830
  345MOL0     H47548   9.254   6.991   3.526 -2.2900  1.3051 -1.8008
  345MOL0     H47549   9.313   6.857   3.333  0.9678 -2.7379 -0.1515
  345MOL0     H47550   9.437   6.894   3.461  0.7914 -0.8268  1.9193
  345MOL0     H47551   9.294   6.627   3.390  0.6279  2.1255 -0.7225
  345MOL0     H47552   9.384   6.646   3.545  2.0298 -0.6010 -0.6284
  345MOL0     H47553   9.509   6.643   3.274 -3.6269 -1.9108  0.2779
  345MOL0     H47554   9.597   6.692   3.423  2.5199 -2.4137 -2.8235
  345MOL0     H47555   9.440   6.445   3.445 -0.1740  0.6241 -0.4072
  345MOL0     H47556   9.580   6.503   3.524 -1.5274  3.4678  1.0193
  345MOL0     H47557   9.659   6.328   3.379 -2.2034  1.4490  2.5946
  345MOL0     H47558   9.599   6.392   3.227 -1.2451  0.6731  0.0518
  345MOL0     H47559   9.811   6.546   3.119 -1.3901  4.8677  0.8266
  345MOL0     H47560  10.145   6.568   3.205 -0.2516  0.7693 -1.8239
  345MOL0     H47561  10.099   6.733   3.251 -0.3295  0.4793  0.2531
  345MOL0     H47562  10.000   6.593   2.992 -1.4307  1.5894 -0.8779
  345MOL0     H47563   9.925   6.727   3.058  0.9060  1.6936  0.9728
  345MOL0     H47564  10.108   6.877   3.021  0.6677  0.1211  1.8878
  345MOL0     H47565  10.228   6.747   3.010 -1.9648 -1.2911  4.8687
  345MOL0     H47566  10.152   6.832   2.766  2.0233  0.3680  1.8442
  345MOL0     H47567  10.084   6.677   2.786  1.7482 -0.0457 -0.6375
  345MOL0     H47568   9.833   7.019   2.693 -3.6289  0.3739  0.8747
  345MOL0     H47569   9.749   7.101   2.384  2.3347 -1.2457 -0.3103
  345MOL0     H47570   9.691   7.121   2.550  3.3014 -0.3594  0.8794
  345MOL0     H47571   9.597   7.025   2.447 -1.2151  1.7161  2.9132
  345MOL0     H47572   9.528   6.814   2.086 -1.7676  0.4693 -4.7635
  345MOL0     H47573   9.474   6.766   1.879 -0.2159  0.6794 -0.4418
  345MOL0     H47574   9.720   6.802   1.689 -0.4544  0.2589 -0.3592
  345MOL0     H47575   9.785   6.654   1.610  0.8796  1.9083  0.0229
  345MOL0     H47576   9.542   6.823   1.507  1.9624  1.1031  1.9562
  345MOL0     H47577   9.691   6.852   1.465  1.4715 -0.5286 -0.5095
  345MOL0     H47578   9.545   6.586   1.433 -3.3292  1.2895 -2.7615
  345MOL0     H47579   9.715   6.605   1.383  0.1040 -1.8452  3.1259
  345MOL0     H47580   9.637   6.749   1.186 -2.1684  0.2564 -1.2372
  345MOL0     H47581   9.494   6.792   1.265 -1.7596 -0.7605  1.9041
  345MOL0     H47582   9.504   6.616   1.073  0.3771  2.7833  1.3318
  345MOL0     H47583   9.550   6.496   1.191  2.4669  0.1174 -0.1690
  345MOL0     H47584   9.292   6.672   1.200 -0.6898 -1.1853 -2.1268
  345MOL0     H47585   9.333   6.549   1.304 -0.1260  0.3430  0.4024
  345MOL0     H47586   9.330   6.393   1.129 -0.6725  0.3444 -0.4867
  345MOL0     H47587   9.305   6.516   1.000 -0.8755  0.0286 -0.0801
  345MOL0     H47588   9.097   6.411   1.036 -0.0653 -0.5753  0.7064
  345MOL0     H47589   9.089   6.581   1.103  0.7851  0.9755 -1.9662
  345MOL0     H47590   9.820   6.529   1.843  1.8446  4.3311 -0.0905
  345MOL0     H47591   9.845   6.511   2.086 -0.6610 -1.9687  0.2447
  345MOL0     H47592   9.855   6.603   2.432  2.5945  1.3313 -0.3344
  345MOL0     H47593   9.942   6.606   2.662  0.7751  0.6352 -0.3762
  345MOL0     H47594   9.526   7.193   3.761 -2.2895 -0.0776  2.2594
  345MOL0     H47595   9.759   7.256   3.842  1.7200  0.0605  1.4809
  345MOL0     H47596  10.167   6.936   3.945 -1.0386  1.4957  0.2182
  345MOL0     H47597  10.395   6.989   3.960 -2.2785 -2.7298 -1.0362
  345MOL0     H47598  10.514   7.233   4.316  3.7693  4.7289  1.8800
  345MOL0     H47599  10.651   7.120   4.285  0.1125  0.1659  2.1677
  345MOL0     H47600  10.635   7.397   4.293 -2.7492 -1.6298  1.7580
  345MOL0     H47601  10.611   7.377   4.121 -2.7999 -0.6580  2.0001
  345MOL0     H47602  10.836   7.261   4.280 -0.9538 -3.6263 -0.7481
  345MOL0     H47603  10.811   7.214   4.111  0.9840 -1.3690 -0.2820
  345MOL0     H47604  10.804   7.505   4.170 -3.3992 -1.3104 -0.0377
  345MOL0     H47605  10.848   7.414   4.020 -1.8942  1.3357  0.3734
  345MOL0     H47606  11.227   7.410   4.209  0.1860 -1.5897  1.1951
  345MOL0     H47607  10.321   7.257   4.284  2.1083 -0.0468 -0.3473
  345MOL0     H47608  10.036   7.338   4.229 -1.8759 -1.1594 -2.5903
  345MOL0     H47609   9.966   7.194   4.304  0.2123 -2.7695 -4.9320
  345MOL0     H47610  10.103   7.284   4.380 -3.8115  1.8819  1.1670
  346MOL0     O47611  10.572  11.221   1.624 -1.3261  0.3113  0.0452
  346MOL0     C47612  10.641  11.294   1.553  0.6201  0.8283  0.4704
  346MOL0     O47613  10.601  11.423   1.513 -0.1624  0.1199 -0.7903
  346MOL0     C47614  10.465  11.437   1.492  0.2068 -0.2154 -0.2708
  346MOL0     C47615  10.399  11.556   1.536 -0.1906  0.1912 -0.1164
  346MOL0     C47616  10.272  11.579   1.504  0.4403 -1.2676 -0.3897
  346MOL0     C47617  10.197  11.491   1.424 -0.3114  0.3104 -0.2885
  346MOL0     O47618  10.074  11.546   1.389 -0.0649 -0.5762 -0.3948
  346MOL0     C47619  10.051  11.565   1.250  0.4806 -0.0174  0.3620
  346MOL0     C47620  10.002  11.709   1.197  0.2784  0.0963 -0.2564
  346MOL0     C47621   9.938  11.718   1.062  1.0999 -0.2043  0.4092
  346MOL0     C47622  10.046  11.732   0.955 -0.1420 -0.4192 -0.3856
  346MOL0     C47623  10.000  11.735   0.813 -0.0355 -0.0774  0.4005
  346MOL0     C47624  10.107  11.777   0.714 -1.2341  0.2533 -0.6706
  346MOL0     C47625  10.062  11.800   0.568 -0.2217  0.1063  0.5414
  346MOL0     C47626   9.991  11.939   0.531 -0.1457  0.5184  0.6239
  346MOL0     N47627  10.073  12.063   0.565  0.9220  0.6564  0.6858
  346MOL0     C47628  10.065  12.131   0.682  0.3748 -0.1281 -0.2155
  346MOL0     C47629  10.185  12.183   0.709 -0.2380  0.4417  0.9372
  346MOL0     C47630  10.242  12.252   0.832  0.0735  0.6584 -0.1937
  346MOL0     C47631  10.373  12.193   0.890  0.1710  1.0189 -0.7627
  346MOL0     C47632  10.372  12.041   0.922 -0.0038 -0.0460  0.4350
  346MOL0     C47633  10.516  11.995   0.952 -0.5014  0.0499 -0.4100
  346MOL0     O47634  10.567  12.049   1.075  0.3303  0.2810 -0.1334
  346MOL0     C47635  10.695  12.020   1.111 -0.1509 -0.2916 -0.6086
  346MOL0     C47636  10.744  12.090   1.220 -0.0348  0.6128  0.6758
  346MOL0     C47637  10.873  12.062   1.276 -0.8755  0.5355  0.4697
  346MOL0     C47638  10.914  12.144   1.394 -0.4514 -0.9440 -0.6723
  346MOL0     C47639  10.962  11.969   1.208 -0.3900  0.1708  1.1224
  346MOL0     C47640  11.112  11.949   1.242 -0.3369  0.2036  0.0084
  346MOL0     O47641  11.159  11.992   1.366  0.0799 -1.7339 -0.2309
  346MOL0     C47642  11.295  11.987   1.400  0.3668  0.1353  0.4221
  346MOL0     C47643  11.329  12.041   1.522 -0.2198 -0.1718 -0.1069
  346MOL0     C47644  11.456  12.054   1.575  0.1058 -1.1757 -0.1853
  346MOL0     C47645  11.559  12.017   1.495 -0.5075 -0.5775 -1.3372
  346MOL0     O47646  11.688  12.042   1.541  0.6278  0.1013  0.1857
  346MOL0     C47647  11.783  12.075   1.443  0.0746 -0.3481  0.1465
  346MOL0     C47648  11.907  12.143   1.502  0.3713  1.0169 -0.5507
  346MOL0     C47649  11.989  12.185   1.384  0.0790 -1.5618 -0.4745
  346MOL0     C47650  12.097  12.294   1.429 -0.8545 -0.4668  0.9622
  346MOL0     C47651  12.150  12.368   1.304 -0.6941  0.6158 -0.0157
  346MOL0     C47652  12.248  12.294   1.207  0.1427 -0.2389 -0.5454
  346MOL0     C47653  12.358  12.371   1.134 -0.9868  0.3675  0.4042
  346MOL0     C47654  12.422  12.295   1.012 -0.7679 -0.8274 -0.3624
  346MOL0    Cl47655  12.480  12.138   1.059 -0.1364  0.2677 -0.2829
  346MOL0     C47656  11.541  11.952   1.376  0.3445  0.1792  0.4520
  346MOL0     C47657  11.408  11.938   1.328  0.4640  0.1757  0.2293
  346MOL0     O47658  11.180  11.902   1.157 -0.6896  0.0359  0.1165
  346MOL0     C47659  10.908  11.896   1.099 -1.2320 -0.8917 -1.0791
  346MOL0     C47660  10.776  11.922   1.056  1.0046  0.4799 -0.9338
  346MOL0     N47661  10.260  12.175   0.585 -0.4298 -0.9059 -0.4463
  346MOL0     N47662  10.188  12.111   0.502 -0.5291  0.2456 -0.1326
  346MOL0     C47663  10.251  11.372   1.387 -0.5144  0.8807  0.0666
  346MOL0     C47664  10.385  11.339   1.423  0.3537  0.1369  0.0076
  346MOL0     C47665  10.772  11.250   1.515 -0.7221  0.4584 -0.4207
  346MOL0     C47666  10.873  11.345   1.512 -0.2496 -1.0015 -0.2510
  346MOL0     C47667  10.999  11.317   1.469  0.3868 -0.3626 -1.3136
  346MOL0     C47668  11.042  11.194   1.424  0.2960  0.3955 -0.7071
  346MOL0     O47669  11.173  11.160   1.399  0.0578 -1.3688  0.4953
  346MOL0     C47670  11.214  11.065   1.304  0.0889 -0.5081  1.5312
  346MOL0     C47671  11.179  11.099   1.160  0.0472 -0.1668 -0.1996
  346MOL0     C47672  11.266  11.208   1.093  0.0671  0.3031 -0.7950
  346MOL0     C47673  11.227  11.246   0.953  0.1441 -0.2538  0.4457
  346MOL0     C47674  11.102  11.323   0.974  0.4120  0.4653 -0.0985
  346MOL0     C47675  10.996  11.377   0.972  0.2792  0.4782 -0.5706
  346MOL0     C47676  10.940  11.098   1.419 -0.5371  1.1009  0.9252
  346MOL0     C47677  10.810  11.117   1.467  0.3679  0.0772  0.6666
  346MOL0     C47678  10.715  11.001   1.461 -0.5469  0.1723  0.5091
  346MOL0     H47679  10.469  11.628   1.578  3.4548 -2.5072 -1.0790
  346MOL0     H47680  10.223  11.675   1.517  2.2163 -0.4714  0.8046
  346MOL0     H47681   9.975  11.487   1.238  1.8703 -1.5058  0.7948
  346MOL0     H47682  10.139  11.535   1.192  0.7965  0.4203  0.6125
  346MOL0     H47683   9.935  11.754   1.272  2.1647  1.3206  0.7876
  346MOL0     H47684  10.079  11.786   1.203 -1.1497  1.5065  1.0267
  346MOL0     H47685   9.885  11.623   1.048  4.0529 -1.8559 -0.5851
  346MOL0     H47686   9.865  11.799   1.070  2.7182  1.2887  0.7586
  346MOL0     H47687  10.090  11.829   0.979 -1.5000 -0.7420  4.5208
  346MOL0     H47688  10.127  11.661   0.972 -0.2757 -0.8926 -1.5995
  346MOL0     H47689   9.927  11.810   0.779  0.2431 -0.5547 -1.3838
  346MOL0     H47690   9.949  11.640   0.795 -0.6583 -0.6856  4.4992
  346MOL0     H47691  10.169  11.858   0.753 -3.3244  0.9591  1.4564
  346MOL0     H47692  10.175  11.691   0.708 -0.4666  0.4694  2.7265
  346MOL0     H47693   9.990  11.723   0.537 -0.5482  1.0082 -1.0584
  346MOL0     H47694  10.153  11.791   0.508 -1.5517 -3.4519 -1.2220
  346MOL0     H47695   9.985  11.947   0.422 -0.6173 -2.9981  0.2557
  346MOL0     H47696   9.888  11.952   0.567  0.7943  4.8545  2.3427
  346MOL0     H47697   9.980  12.123   0.749 -0.6292  1.4008 -1.2267
  346MOL0     H47698  10.173  12.240   0.916  1.5394 -0.4581  0.9229
  346MOL0     H47699  10.249  12.360   0.816 -0.7663  0.7795  0.2079
  346MOL0     H47700  10.445  12.212   0.810 -0.7874 -0.7766 -2.1458
  346MOL0     H47701  10.402  12.246   0.981 -0.3289 -1.4573  0.9586
  346MOL0     H47702  10.324  12.012   1.016 -0.5630 -1.8306 -0.3569
  346MOL0     H47703  10.316  11.980   0.851 -1.5034 -0.4736  1.9274
  346MOL0     H47704  10.507  11.886   0.960 -1.7622 -0.0822 -2.6317
  346MOL0     H47705  10.576  12.030   0.867  2.2582  1.6712  2.0275
  346MOL0     H47706  10.685  12.164   1.273 -1.0108  0.4421 -0.1594
  346MOL0     H47707  10.945  12.076   1.474 -0.5772  1.7803  1.8764
  346MOL0     H47708  10.848  12.212   1.448  1.3906  1.5696 -1.3953
  346MOL0     H47709  10.998  12.207   1.362  0.6233 -0.7653  2.1865
  346MOL0     H47710  11.244  12.078   1.579 -0.0240 -0.3659  0.3206
  346MOL0     H47711  11.470  12.103   1.671  2.5142  1.1975 -1.6310
  346MOL0     H47712  11.824  11.993   1.382 -0.5065 -0.8066  0.3602
  346MOL0     H47713  11.741  12.148   1.373  0.4962 -0.7331 -0.5232
  346MOL0     H47714  11.885  12.238   1.552  2.3573  1.3575 -0.2436
  346MOL0     H47715  11.954  12.071   1.569 -2.0141 -2.2134 -2.0511
  346MOL0     H47716  11.923  12.221   1.304 -1.3035  0.3171  1.3888
  346MOL0     H47717  12.057  12.103   1.360  2.4112  0.3708 -0.8218
  346MOL0     H47718  12.183  12.244   1.473  0.6510  0.3935 -0.8227
  346MOL0     H47719  12.044  12.365   1.493 -2.7918  1.6253 -2.6083
  346MOL0     H47720  12.068  12.394   1.236 -0.8324 -0.3583 -0.2339
  346MOL0     H47721  12.204  12.450   1.352  0.1477 -0.0597  0.2051
  346MOL0     H47722  12.194  12.233   1.134 -1.3158  0.3039  0.0311
  346MOL0     H47723  12.294  12.219   1.272 -3.0881  0.1523  2.5618
  346MOL0     H47724  12.441  12.391   1.202 -3.0193 -0.0551  3.2268
  346MOL0     H47725  12.321  12.473   1.119  1.3468  1.2962  0.4925
  346MOL0     H47726  12.498  12.356   0.962  1.8256 -3.5330  0.0363
  346MOL0     H47727  12.351  12.275   0.931 -1.6422  1.0477 -0.1183
  346MOL0     H47728  11.629  11.932   1.316 -0.3027  0.7929 -0.7359
  346MOL0     H47729  11.392  11.904   1.226  1.1173 -0.0955  0.2122
  346MOL0     H47730  10.973  11.830   1.043  3.0115  1.5347  0.5453
  346MOL0     H47731  10.750  11.852   0.977 -0.2656  1.0581 -1.0537
  346MOL0     H47732  10.187  11.304   1.331 -0.7466  0.6299  0.6271
  346MOL0     H47733  10.424  11.244   1.390  0.2758  0.2658 -0.4544
  346MOL0     H47734  10.864  11.451   1.532 -0.6249 -0.7501 -1.6614
  346MOL0     H47735  11.071  11.396   1.483 -1.3108  1.3428 -1.7734
  346MOL0     H47736  11.323  11.068   1.302  0.1599 -1.0815 -1.8378
  346MOL0     H47737  11.185  10.962   1.324 -0.7228 -0.7066 -0.4733
  346MOL0     H47738  11.072  11.123   1.150 -0.2672 -1.0238  0.8480
  346MOL0     H47739  11.203  11.016   1.093  2.8530  1.8011 -1.8220
  346MOL0     H47740  11.258  11.302   1.148 -0.2655  0.2745 -0.7941
  346MOL0     H47741  11.371  11.179   1.088  0.1640  0.3167  0.6491
  346MOL0     H47742  11.202  11.157   0.894 -0.4660 -0.0686  0.4177
  346MOL0     H47743  11.291  11.317   0.901  1.1970  0.4307  2.5742
  346MOL0     H47744  10.895  11.408   0.955  0.7884  2.3793 -0.3898
  346MOL0     H47745  10.975  10.999   1.391 -0.9588  1.9985 -3.6063
  346MOL0     H47746  10.756  10.920   1.401 -0.2249 -1.4499  2.7716
  346MOL0     H47747  10.717  10.959   1.562 -1.0260  2.9254  1.7818
  346MOL0     H47748  10.611  11.026   1.438 -0.9378  0.1577  2.0951
  347MOL0     O47749   3.929  11.273   3.885  0.6858 -0.1025  0.1722
  347MOL0     C47750   4.056  11.277   3.880  0.1189 -0.6994  0.5691
  347MOL0     O47751   4.132  11.380   3.840  0.0708  0.1327 -0.5014
  347MOL0     C47752   4.070  11.496   3.798  0.3238 -0.8106 -0.6522
  347MOL0     C47753   3.979  11.563   3.876 -0.3102 -0.2865  0.5693
  347MOL0     C47754   3.934  11.692   3.837 -0.3431 -0.0267  0.1703
  347MOL0     C47755   3.995  11.755   3.730  0.7641  0.0304 -0.3060
  347MOL0     O47756   3.967  11.889   3.694 -0.3640  0.4574 -0.6499
  347MOL0     C47757   3.852  11.915   3.611 -0.2747 -0.0295 -0.7090
  347MOL0     C47758   3.841  12.063   3.589 -0.6484 -1.3785  1.4826
  347MOL0     C47759   3.773  12.082   3.457 -0.0215 -0.5182 -0.3386
  347MOL0     C47760   3.868  12.053   3.341  0.0639 -0.7345 -0.4915
  347MOL0     C47761   3.804  12.096   3.210  1.3221  0.4962 -0.4817
  347MOL0     C47762   3.902  12.065   3.092  1.1046 -0.4458 -0.8279
  347MOL0     C47763   3.821  12.041   2.967  1.1208  0.1693 -0.1697
  347MOL0     C47764   3.766  11.887   2.961 -0.2538 -1.3702 -0.0922
  347MOL0     N47765   3.874  11.788   2.966  0.1922  0.2952  0.6302
  347MOL0     C47766   3.919  11.728   2.851  0.0505  0.8836 -0.0261
  347MOL0     C47767   3.979  11.609   2.890 -0.3407  0.7072  0.8722
  347MOL0     C47768   4.057  11.532   2.778 -0.0583 -0.5964  0.3624
  347MOL0     C47769   4.202  11.490   2.809 -0.8770 -0.2328  0.0241
  347MOL0     C47770   4.199  11.386   2.930  0.1810 -0.0293 -1.1828
  347MOL0     C47771   4.333  11.308   2.937 -0.6723  0.3787  0.4660
  347MOL0     O47772   4.368  11.234   2.818 -0.1517 -0.0851 -0.2077
  347MOL0     C47773   4.472  11.145   2.829 -0.2154 -0.6971 -0.2865
  347MOL0     C47774   4.602  11.186   2.881  0.3607 -0.0765  0.9638
  347MOL0     C47775   4.719  11.101   2.882 -0.1340 -0.6207 -0.0617
  347MOL0     C47776   4.848  11.150   2.939  0.5644  0.9419  0.7988
  347MOL0     C47777   4.704  10.966   2.837  0.1417  0.4241 -0.1644
  347MOL0     C47778   4.809  10.860   2.805 -0.9574 -0.3982  0.5893
  347MOL0     O47779   4.925  10.911   2.758 -0.1869 -0.1366 -0.1031
  347MOL0     C47780   5.020  10.825   2.707  0.2501 -0.1468 -0.7894
  347MOL0     C47781   5.097  10.878   2.602  1.2533  0.0706  0.1147
  347MOL0     C47782   5.202  10.808   2.553  0.3159 -0.5187 -0.5626
  347MOL0     C47783   5.245  10.686   2.609  0.0819 -0.3006  0.3496
  347MOL0     O47784   5.342  10.614   2.545 -0.1157  0.7866 -0.4216
  347MOL0     C47785   5.440  10.548   2.626 -0.3478  0.3803  0.1347
  347MOL0     C47786   5.556  10.640   2.668  0.1381 -0.9934  0.6013
  347MOL0     C47787   5.658  10.678   2.553  0.1609  0.0900 -0.7210
  347MOL0     C47788   5.763  10.768   2.617 -0.2343 -0.7733 -0.9452
  347MOL0     C47789   5.844  10.850   2.511  0.8031  0.6649  1.4693
  347MOL0     C47790   5.947  10.930   2.586  0.0458  0.8545  0.3248
  347MOL0     C47791   6.042  10.988   2.485 -0.5174 -0.0258  0.8300
  347MOL0     C47792   5.972  11.090   2.388 -1.0762 -0.9608 -0.4928
  347MOL0    Cl47793   5.910  10.998   2.243 -0.2614  0.0029  0.0437
  347MOL0     C47794   5.175  10.634   2.715 -0.3257  0.9636  0.2589
  347MOL0     C47795   5.056  10.702   2.762 -0.3633  0.3912 -0.3256
  347MOL0     O47796   4.781  10.746   2.838  0.3150 -0.0206 -0.3287
  347MOL0     C47797   4.566  10.920   2.798  0.3634 -0.4816  0.9991
  347MOL0     C47798   4.460  11.009   2.789  0.1301  0.0012  0.1855
  347MOL0     N47799   3.961  11.601   3.027 -0.2632  0.3188  0.2913
  347MOL0     N47800   3.890  11.700   3.063 -0.0800 -0.7049 -0.2525
  347MOL0     C47801   4.084  11.686   3.652 -0.3423  0.0291 -0.3074
  347MOL0     C47802   4.118  11.560   3.685 -1.0329 -0.6084  0.6786
  347MOL0     C47803   4.126  11.154   3.919  0.8170  0.4181  0.8269
  347MOL0     C47804   4.256  11.157   3.900 -0.6339 -0.8996  0.0824
  347MOL0     C47805   4.338  11.045   3.919  0.2396 -0.6529  0.6476
  347MOL0     C47806   4.282  10.920   3.957 -1.6690  0.1604  0.1442
  347MOL0     O47807   4.364  10.828   4.025  0.5109  0.2283 -0.5374
  347MOL0     C47808   4.506  10.847   4.029 -0.7546 -0.3378  0.7368
  347MOL0     C47809   4.583  10.772   4.131  0.4112 -0.4281  0.3059
  347MOL0     C47810   4.729  10.815   4.131  0.5374 -0.3709  0.5732
  347MOL0     C47811   4.802  10.743   4.237  0.4225 -1.2955 -0.1473
  347MOL0     C47812   4.929  10.815   4.270  0.4716  0.7043 -0.2786
  347MOL0     C47813   5.020  10.897   4.283 -0.8468  0.9702 -0.5724
  347MOL0     C47814   4.147  10.912   3.982  0.3440 -0.0276  0.1741
  347MOL0     C47815   4.066  11.026   3.958  0.0849 -0.6623 -0.5064
  347MOL0     C47816   3.924  11.027   4.009 -0.3582  0.0597  0.5284
  347MOL0     H47817   3.938  11.522   3.968 -1.3439  1.0133  0.7057
  347MOL0     H47818   3.873  11.761   3.895 -2.8700 -0.6887 -1.5105
  347MOL0     H47819   3.764  11.900   3.673  1.2322  0.5449  1.7104
  347MOL0     H47820   3.849  11.840   3.531 -3.1849  2.1155 -2.8295
  347MOL0     H47821   3.779  12.111   3.665 -1.0873  1.1720 -0.3620
  347MOL0     H47822   3.936  12.118   3.588 -1.6874  0.4579  0.5019
  347MOL0     H47823   3.678  12.028   3.455 -0.1449 -0.5864  2.7130
  347MOL0     H47824   3.734  12.184   3.452  0.5089 -0.1896  1.3067
  347MOL0     H47825   3.956  12.116   3.353  0.3880 -1.2019 -0.3605
  347MOL0     H47826   3.886  11.946   3.328  0.5216 -0.7402  0.1051
  347MOL0     H47827   3.761  12.196   3.204  0.3377  0.0158 -2.9466
  347MOL0     H47828   3.711  12.041   3.191  0.5096  1.4275  0.6519
  347MOL0     H47829   3.964  12.155   3.077 -1.8575  1.9050  0.0134
  347MOL0     H47830   3.964  11.978   3.114 -1.5457 -1.8625  1.5536
  347MOL0     H47831   3.890  12.052   2.883  2.5984 -2.1688  0.6211
  347MOL0     H47832   3.747  12.120   2.957  1.1694  0.0465 -1.8318
  347MOL0     H47833   3.700  11.871   3.046  1.5439 -1.2899  1.3856
  347MOL0     H47834   3.714  11.888   2.865  0.1147  0.7478 -0.3289
  347MOL0     H47835   3.920  11.759   2.747  0.6987 -0.7478 -0.5236
  347MOL0     H47836   4.040  11.595   2.691 -2.8361  1.4933  2.2426
  347MOL0     H47837   4.005  11.440   2.748 -0.7268 -0.0824 -0.0723
  347MOL0     H47838   4.237  11.431   2.723 -0.4116 -0.0007  0.0513
  347MOL0     H47839   4.263  11.577   2.834 -0.0281 -0.0217 -2.4328
  347MOL0     H47840   4.196  11.438   3.027 -1.0174  0.3972 -1.4326
  347MOL0     H47841   4.109  11.324   2.924 -0.5247  0.9273 -0.8000
  347MOL0     H47842   4.419  11.370   2.964  0.8005 -1.6729  0.7089
  347MOL0     H47843   4.333  11.243   3.025 -3.8830  3.3736  3.0108
  347MOL0     H47844   4.611  11.286   2.922 -2.2048 -0.4525  2.6563
  347MOL0     H47845   4.910  11.064   2.966 -0.9001 -0.7696 -1.0440
  347MOL0     H47846   4.839  11.217   3.025  2.6598  0.6525  1.3100
  347MOL0     H47847   4.910  11.191   2.859  1.0547 -4.3482 -1.9577
  347MOL0     H47848   5.062  10.975   2.566  3.6831  1.4637  1.2216
  347MOL0     H47849   5.260  10.848   2.471 -1.6211 -0.6124 -2.0551
  347MOL0     H47850   5.404  10.498   2.717 -1.4638  0.3645 -0.2939
  347MOL0     H47851   5.481  10.465   2.568 -1.7925 -1.7374  1.9442
  347MOL0     H47852   5.520  10.727   2.723 -3.7182 -1.7840 -0.3809
  347MOL0     H47853   5.621  10.592   2.743  1.1477 -1.5076 -0.5657
  347MOL0     H47854   5.600  10.717   2.469  0.4470 -1.1869 -1.5397
  347MOL0     H47855   5.701  10.594   2.497 -1.2486 -0.1874 -1.4210
  347MOL0     H47856   5.831  10.704   2.674 -1.3391 -0.3229  0.9828
  347MOL0     H47857   5.717  10.843   2.682  0.6023  0.7309 -2.0507
  347MOL0     H47858   5.892  10.777   2.445 -2.5196 -0.6162  0.2598
  347MOL0     H47859   5.780  10.906   2.443  0.6841 -2.2716 -1.0823
  347MOL0     H47860   6.006  10.862   2.647 -0.3117 -0.4952 -0.7877
  347MOL0     H47861   5.901  10.997   2.659 -2.3544 -3.9651  3.7718
  347MOL0     H47862   6.092  10.909   2.427 -1.1869  0.0022  0.2078
  347MOL0     H47863   6.121  11.038   2.542 -0.4917  0.1233  0.6622
  347MOL0     H47864   6.051  11.150   2.343  0.4381 -3.0084 -0.7361
  347MOL0     H47865   5.902  11.159   2.435  0.5533 -0.7278  1.7014
  347MOL0     H47866   5.200  10.537   2.757 -0.5298 -0.7201 -3.2165
  347MOL0     H47867   4.999  10.666   2.847 -1.8565  4.8819  0.8700
  347MOL0     H47868   4.540  10.817   2.774 -0.7387  0.0516 -0.2233
  347MOL0     H47869   4.366  10.962   2.760  0.0415  0.8335 -0.9277
  347MOL0     H47870   4.136  11.740   3.573  2.7420  0.1148  1.6258
  347MOL0     H47871   4.196  11.497   3.643 -1.3451 -0.5311 -0.0451
  347MOL0     H47872   4.309  11.245   3.864 -0.5834 -1.2440 -0.7103
  347MOL0     H47873   4.444  11.065   3.914  1.0302 -4.1038  1.1881
  347MOL0     H47874   4.562  10.825   3.937  0.4135 -1.4133  1.6712
  347MOL0     H47875   4.526  10.952   4.054 -2.3877  0.0555  0.5107
  347MOL0     H47876   4.585  10.668   4.097  0.1628 -0.5996  0.8127
  347MOL0     H47877   4.533  10.777   4.228 -3.6267 -0.0062 -1.5866
  347MOL0     H47878   4.769  10.786   4.034  0.2653  0.0773  0.3238
  347MOL0     H47879   4.730  10.924   4.147  1.0783 -0.0766 -1.2350
  347MOL0     H47880   4.826  10.639   4.213  0.3055 -1.9304  2.2402
  347MOL0     H47881   4.751  10.745   4.333  0.8851  2.8171  0.1950
  347MOL0     H47882   5.107  10.959   4.275 -1.6140  1.9170 -2.0585
  347MOL0     H47883   4.096  10.823   4.018  0.6178  0.3256  1.5002
  347MOL0     H47884   3.902  10.929   4.054 -2.3591  0.1150 -0.2405
  347MOL0     H47885   3.915  11.106   4.084  0.9155  0.2722  0.4836
  347MOL0     H47886   3.849  11.045   3.931  0.6638  1.2038 -0.2290
  348MOL0     O47887  10.926   2.690   5.864 -0.0648  0.0587  0.6996
  348MOL0     C47888  10.928   2.597   5.786  1.0083 -0.4380  0.2700
  348MOL0     O47889  11.026   2.504   5.781 -0.3986  0.2250  0.3323
  348MOL0     C47890  11.105   2.489   5.891 -0.7255 -0.4125  0.0698
  348MOL0     C47891  11.072   2.407   6.000 -0.2191  0.6659  0.2570
  348MOL0     C47892  11.169   2.384   6.096  0.1490 -0.3827 -0.5248
  348MOL0     C47893  11.286   2.461   6.098  0.3944 -0.2967 -0.1560
  348MOL0     O47894  11.379   2.443   6.200 -0.2253 -1.1196 -0.3793
  348MOL0     C47895  11.313   2.430   6.328  0.2307  0.1600 -0.1519
  348MOL0     C47896  11.396   2.465   6.449 -0.2001 -0.3613  0.0775
  348MOL0     C47897  11.541   2.401   6.449  0.1587 -0.7251 -0.6031
  348MOL0     C47898  11.541   2.247   6.477 -0.5277 -1.3572 -0.3881
  348MOL0     C47899  11.674   2.205   6.546 -0.3260  0.3101  0.0005
  348MOL0     C47900  11.690   2.058   6.585 -0.0564  0.2615 -0.4842
  348MOL0     C47901  11.600   2.010   6.697  0.8983  0.3590  0.4189
  348MOL0     C47902  11.652   1.873   6.734  0.6559 -0.2549  0.6482
  348MOL0     N47903  11.592   1.823   6.865  0.4126 -0.4122 -0.8915
  348MOL0     C47904  11.462   1.765   6.880  0.1060 -0.1784  0.0133
  348MOL0     C47905  11.463   1.746   7.014  0.4126 -0.8290 -0.0403
  348MOL0     C47906  11.357   1.674   7.080  0.0614  0.0677 -0.4984
  348MOL0     C47907  11.393   1.527   7.111 -0.9046  0.0983  0.9610
  348MOL0     C47908  11.501   1.516   7.209  1.0079  0.0323  0.4289
  348MOL0     C47909  11.539   1.371   7.232  0.4102  0.0178  0.4292
  348MOL0     O47910  11.424   1.309   7.272  0.3570  0.0393 -0.3504
  348MOL0     C47911  11.415   1.164   7.284 -0.4911 -1.1190  0.3172
  348MOL0     C47912  11.487   1.086   7.375  0.2738 -0.9548 -0.0495
  348MOL0     C47913  11.480   0.944   7.363 -0.5723  0.3339  0.2958
  348MOL0     C47914  11.553   0.860   7.472 -0.3995 -0.4918 -0.1654
  348MOL0     C47915  11.413   0.875   7.259  0.0113  0.1672  1.2968
  348MOL0     C47916  11.382   0.732   7.253 -0.0084 -0.4412  0.8329
  348MOL0     O47917  11.357   0.685   7.121 -0.6852  0.7405 -0.0245
  348MOL0     C47918  11.296   0.560   7.105  0.3321  0.6662 -0.1136
  348MOL0     C47919  11.170   0.562   7.044  0.5038  0.5520  0.2809
  348MOL0     C47920  11.117   0.434   7.012 -0.1561  0.5573 -0.1957
  348MOL0     C47921  11.162   0.318   7.064 -0.0224  0.1390 -0.1417
  348MOL0     O47922  11.073   0.220   7.040 -0.5395  0.5708  1.3926
  348MOL0     C47923  11.104   0.101   7.106 -0.0778  0.1899  1.0969
  348MOL0     C47924  11.009  -0.005   7.049  0.5874 -0.3537  1.0994
  348MOL0     C47925  11.038  -0.144   7.095 -0.3623 -0.1507 -0.7925
  348MOL0     C47926  11.174  -0.182   7.036 -0.2740  0.5588 -0.1273
  348MOL0     C47927  11.198  -0.337   7.044  0.7216 -0.6773  0.4474
  348MOL0     C47928  11.338  -0.378   7.015 -0.2557  0.3885  0.3855
  348MOL0     C47929  11.362  -0.525   7.015  0.3061  0.2873  0.0244
  348MOL0     C47930  11.510  -0.570   6.977  1.0611 -0.0841  0.0505
  348MOL0    Cl47931  11.630  -0.533   7.104 -0.4405  0.0320 -0.3228
  348MOL0     C47932  11.282   0.315   7.142 -0.3519 -0.0223  0.2183
  348MOL0     C47933  11.348   0.437   7.153  0.4125  0.0541 -0.9101
  348MOL0     O47934  11.372   0.672   7.357 -0.9087  0.5966 -0.0155
  348MOL0     C47935  11.368   0.959   7.155 -0.1974 -0.1864 -0.6354
  348MOL0     C47936  11.360   1.096   7.169 -1.4511  0.1173  0.0571
  348MOL0     N47937  11.581   1.784   7.072 -0.5412  0.0627 -0.0204
  348MOL0     N47938  11.662   1.830   6.987  0.6129 -0.1071  0.1261
  348MOL0     C47939  11.313   2.554   5.995  0.6051 -0.4361 -0.7508
  348MOL0     C47940  11.226   2.557   5.879  0.1389  0.1542 -1.0091
  348MOL0     C47941  10.807   2.567   5.704  0.2290  0.2959  0.1535
  348MOL0     C47942  10.806   2.456   5.615 -0.4724  0.4067 -0.2510
  348MOL0     C47943  10.698   2.419   5.544 -0.5567  0.4779 -0.0290
  348MOL0     C47944  10.578   2.488   5.560  0.1027 -0.1696  0.3700
  348MOL0     O47945  10.460   2.445   5.494 -0.6963 -0.2664  0.6639
  348MOL0     C47946  10.424   2.314   5.534 -0.9840  0.4708 -0.1568
  348MOL0     C47947  10.290   2.275   5.474 -0.9080 -0.3998  0.2607
  348MOL0     C47948  10.187   2.386   5.487  0.4586 -0.3211  0.8763
  348MOL0     C47949  10.058   2.312   5.506 -0.2047 -0.0538  0.4177
  348MOL0     C47950   9.952   2.402   5.549  0.1749  0.7099 -0.6045
  348MOL0     C47951   9.861   2.472   5.581  0.1682  0.1951 -0.1517
  348MOL0     C47952  10.572   2.604   5.629  0.2654  0.4575  1.1250
  348MOL0     C47953  10.687   2.642   5.700 -0.3339 -0.8681 -0.7306
  348MOL0     C47954  10.677   2.774   5.772 -0.1380 -0.0619 -0.5094
  348MOL0     H47955  10.979   2.351   6.008 -0.0938  0.1187 -1.6403
  348MOL0     H47956  11.147   2.318   6.179 -2.6843  2.3202  1.1300
  348MOL0     H47957  11.267   2.333   6.351 -0.5811  0.0972 -1.8620
  348MOL0     H47958  11.236   2.507   6.322  0.1105  0.3986  2.8916
  348MOL0     H47959  11.404   2.574   6.454 -2.2436 -0.2029  0.8551
  348MOL0     H47960  11.337   2.439   6.538  0.5354 -2.0234  0.1236
  348MOL0     H47961  11.597   2.430   6.360  2.4968 -1.0683  0.6865
  348MOL0     H47962  11.610   2.450   6.518  2.1912 -1.1763 -2.2244
  348MOL0     H47963  11.450   2.225   6.533 -0.6123  1.3476  0.7053
  348MOL0     H47964  11.532   2.204   6.377 -0.0191  0.3624 -1.2179
  348MOL0     H47965  11.691   2.261   6.638  2.3832 -2.6252  1.4812
  348MOL0     H47966  11.751   2.219   6.470  0.8244 -4.8384 -0.1464
  348MOL0     H47967  11.694   1.996   6.496 -0.5976  0.0696 -0.3770
  348MOL0     H47968  11.792   2.046   6.625  0.3945  0.8622 -1.4263
  348MOL0     H47969  11.492   2.021   6.682  1.2545  2.9945 -0.8368
  348MOL0     H47970  11.626   2.081   6.776 -1.7652  3.0582 -0.9084
  348MOL0     H47971  11.626   1.796   6.660  2.9530 -1.2117  0.7271
  348MOL0     H47972  11.758   1.885   6.757  1.4059 -1.5142 -1.7729
  348MOL0     H47973  11.389   1.734   6.806 -0.4968  0.1834  0.4493
  348MOL0     H47974  11.272   1.674   7.011 -0.2816  1.7280 -0.1058
  348MOL0     H47975  11.318   1.719   7.172 -1.2821  0.1907 -1.1139
  348MOL0     H47976  11.300   1.477   7.139 -0.4807 -1.2905  0.0057
  348MOL0     H47977  11.420   1.490   7.012  1.1786  0.7581  1.2320
  348MOL0     H47978  11.592   1.566   7.176  0.6143  0.0566 -0.6403
  348MOL0     H47979  11.447   1.554   7.297 -3.4879  0.1535 -2.0705
  348MOL0     H47980  11.594   1.335   7.144  0.9461 -1.0317  1.1788
  348MOL0     H47981  11.619   1.369   7.307 -0.4243 -0.8207  1.3120
  348MOL0     H47982  11.524   1.144   7.458 -3.5467 -0.8367  1.8113
  348MOL0     H47983  11.614   0.780   7.428  0.7800  0.7257 -0.8238
  348MOL0     H47984  11.487   0.803   7.537 -3.2840  1.0694 -1.5449
  348MOL0     H47985  11.626   0.919   7.528  0.6610 -0.6745 -1.3061
  348MOL0     H47986  11.129   0.656   7.010  1.6734  1.0449  0.1829
  348MOL0     H47987  11.030   0.426   6.948 -1.7286 -3.1054  2.1238
  348MOL0     H47988  11.207   0.077   7.078 -0.0221  1.4241  0.1777
  348MOL0     H47989  11.103   0.124   7.213 -2.3224  3.0506  0.5756
  348MOL0     H47990  10.904   0.012   7.074  0.9748 -0.2323  2.8070
  348MOL0     H47991  11.009   0.002   6.940 -0.3892  0.9594  1.1541
  348MOL0     H47992  10.961  -0.218   7.074 -0.3454 -0.9017  1.5075
  348MOL0     H47993  11.038  -0.129   7.203 -1.1033  1.3045 -0.9714
  348MOL0     H47994  11.245  -0.127   7.098 -1.0545  1.1657  0.2401
  348MOL0     H47995  11.183  -0.153   6.931 -1.4760  0.6473 -0.2186
  348MOL0     H47996  11.178  -0.379   7.143  3.2249  1.5739  2.0342
  348MOL0     H47997  11.133  -0.380   6.967  1.0050  0.2715 -0.3406
  348MOL0     H47998  11.413  -0.331   7.079  1.2083 -1.0779 -0.1848
  348MOL0     H47999  11.355  -0.336   6.915  1.5633 -0.3532  0.3531
  348MOL0     H48000  11.296  -0.569   6.940  3.5386 -2.1922 -1.6058
  348MOL0     H48001  11.339  -0.559   7.117  2.7568  1.7904  1.1577
  348MOL0     H48002  11.529  -0.521   6.881 -3.5136 -0.9939 -1.5841
  348MOL0     H48003  11.504  -0.678   6.961 -1.6069 -0.1319  0.7984
  348MOL0     H48004  11.319   0.233   7.203  1.5562  0.0389 -0.8025
  348MOL0     H48005  11.447   0.446   7.197  0.2381  2.7989 -0.8906
  348MOL0     H48006  11.323   0.935   7.060  0.4705 -1.5424 -0.6304
  348MOL0     H48007  11.311   1.164   7.100  0.2976  0.6249 -0.7295
  348MOL0     H48008  11.407   2.606   6.006 -1.0851  3.1985 -1.7919
  348MOL0     H48009  11.255   2.618   5.794  1.5081 -0.7481 -1.2178
  348MOL0     H48010  10.884   2.381   5.609  0.7488  1.6406 -0.3077
  348MOL0     H48011  10.714   2.326   5.490  0.6059 -0.3160  1.5784
  348MOL0     H48012  10.504   2.243   5.512  0.7491  2.4655 -0.6708
  348MOL0     H48013  10.406   2.312   5.641 -0.2329 -1.0879 -0.0421
  348MOL0     H48014  10.268   2.191   5.540 -1.4257  1.3483  2.4665
  348MOL0     H48015  10.307   2.261   5.367 -1.3489  1.0016 -0.0153
  348MOL0     H48016  10.215   2.450   5.572  0.3108 -0.1859  0.8251
  348MOL0     H48017  10.172   2.450   5.400 -1.1320  1.3540  2.2853
  348MOL0     H48018  10.061   2.237   5.586  0.0796 -0.0567  0.4053
  348MOL0     H48019  10.028   2.266   5.411 -2.5574  3.0689 -0.4865
  348MOL0     H48020   9.772   2.522   5.613  0.7089  0.0730  1.7008
  348MOL0     H48021  10.479   2.660   5.625 -0.1383 -0.2349  0.6267
  348MOL0     H48022  10.684   2.746   5.878  1.0595 -0.2528 -0.6328
  348MOL0     H48023  10.764   2.833   5.744  0.0464 -1.1836 -2.4390
  348MOL0     H48024  10.587   2.833   5.750 -2.0319 -2.3895  0.4721
  349MOL0     O48025   7.157   6.465   3.501 -0.3165  0.2020  0.0455
  349MOL0     C48026   7.196   6.578   3.530 -0.2674 -0.0856 -0.2925
  349MOL0     O48027   7.141   6.695   3.473 -1.0349 -0.0663 -0.9294
  349MOL0     C48028   7.065   6.697   3.361 -0.3970 -0.4745  0.2767
  349MOL0     C48029   7.122   6.681   3.231 -0.0348 -0.0950 -1.3474
  349MOL0     C48030   7.045   6.636   3.129  0.0287  0.1123  0.0516
  349MOL0     C48031   6.909   6.613   3.143  0.3728  0.5582  0.0191
  349MOL0     O48032   6.819   6.567   3.044  0.1265 -0.9998 -0.6003
  349MOL0     C48033   6.850   6.443   2.990  0.1922  0.6748 -0.4211
  349MOL0     C48034   6.723   6.370   2.929  0.3911 -0.6448 -0.1704
  349MOL0     C48035   6.601   6.334   3.011 -0.2254  0.1775 -0.2957
  349MOL0     C48036   6.626   6.220   3.115  0.1533 -0.5757  0.0952
  349MOL0     C48037   6.552   6.083   3.089 -0.0605 -0.2537  0.1780
  349MOL0     C48038   6.401   6.111   3.096  0.3909 -0.0163  0.6176
  349MOL0     C48039   6.326   5.993   3.048  0.9720 -0.9392  0.2254
  349MOL0     C48040   6.314   5.899   3.167  0.5082 -0.0636  0.2152
  349MOL0     N48041   6.213   5.797   3.138  0.4179  0.2866  1.2505
  349MOL0     C48042   6.247   5.666   3.150 -0.2694  0.3636  1.0553
  349MOL0     C48043   6.134   5.596   3.163 -0.6742  0.3741 -0.3139
  349MOL0     C48044   6.104   5.456   3.195  0.1692 -0.5111 -0.5220
  349MOL0     C48045   6.114   5.417   3.349 -0.0184 -0.1949 -0.0673
  349MOL0     C48046   6.038   5.524   3.432  1.3478  0.3080 -0.2362
  349MOL0     C48047   6.011   5.498   3.583 -0.1070  0.3844  0.8756
  349MOL0     O48048   6.126   5.456   3.646 -0.7644  0.3425  0.1122
  349MOL0     C48049   6.111   5.405   3.771 -0.4512 -0.6279 -0.1249
  349MOL0     C48050   6.000   5.409   3.843  0.9222  0.3426  0.7486
  349MOL0     C48051   5.978   5.348   3.972 -0.6223  1.0964  0.0522
  349MOL0     C48052   5.837   5.344   4.019  0.1763 -0.7691  0.0493
  349MOL0     C48053   6.084   5.282   4.032 -0.4490 -0.6310  0.1170
  349MOL0     C48054   6.087   5.215   4.170  1.3296 -1.1059 -0.4830
  349MOL0     O48055   5.970   5.178   4.225 -0.4498  0.1631  0.0239
  349MOL0     C48056   5.958   5.083   4.327 -0.3838 -0.8338  0.4725
  349MOL0     C48057   5.838   5.082   4.399  0.2757  0.0132  0.4191
  349MOL0     C48058   5.833   5.005   4.514 -0.0078  0.1313  0.6628
  349MOL0     C48059   5.933   4.917   4.549  0.0904 -1.5326 -0.1861
  349MOL0     O48060   5.908   4.848   4.659 -0.1247  0.4330  0.1250
  349MOL0     C48061   5.967   4.717   4.665 -0.4418 -0.0722 -0.4765
  349MOL0     C48062   5.991   4.702   4.818 -0.3972  0.4132 -0.2408
  349MOL0     C48063   6.042   4.558   4.842  0.6792  0.0078 -0.4238
  349MOL0     C48064   5.926   4.475   4.912 -0.0329  0.1128  0.4102
  349MOL0     C48065   5.965   4.328   4.961 -0.1839 -0.5771  1.0960
  349MOL0     C48066   6.094   4.312   5.040 -0.4110  0.4671  0.0184
  349MOL0     C48067   6.086   4.404   5.172  0.1852  0.4684  1.2816
  349MOL0     C48068   6.172   4.357   5.283 -0.3057 -0.2778  0.1172
  349MOL0    Cl48069   6.101   4.225   5.377 -0.5239  0.0085 -0.1626
  349MOL0     C48070   6.039   4.908   4.472 -1.2580  0.4237  0.7847
  349MOL0     C48071   6.062   5.001   4.368 -0.5449  0.7629 -0.1685
  349MOL0     O48072   6.198   5.194   4.215 -0.9128  0.4833  0.1159
  349MOL0     C48073   6.198   5.276   3.955 -0.3836  0.5028 -0.8560
  349MOL0     C48074   6.218   5.335   3.828  0.2173  1.0160  0.0265
  349MOL0     N48075   6.024   5.684   3.145 -0.1854  0.1315  0.3940
  349MOL0     N48076   6.074   5.809   3.147  0.6192  0.2220  0.6069
  349MOL0     C48077   6.845   6.639   3.270  0.7127 -0.1083  1.2649
  349MOL0     C48078   6.927   6.686   3.376 -0.7824 -0.2159 -0.5521
  349MOL0     C48079   7.297   6.581   3.632 -1.2345 -0.5049 -0.4907
  349MOL0     C48080   7.386   6.476   3.649 -0.5237 -0.1883 -0.3943
  349MOL0     C48081   7.480   6.474   3.758 -0.4582 -0.3738 -0.0970
  349MOL0     C48082   7.479   6.574   3.857  0.4353  0.0686 -0.9084
  349MOL0     O48083   7.545   6.572   3.975 -0.0738 -0.1924  0.3382
  349MOL0     C48084   7.646   6.475   4.011  0.0954  0.2925  0.5924
  349MOL0     C48085   7.704   6.539   4.135  0.9145 -0.3465 -0.5012
  349MOL0     C48086   7.611   6.624   4.232  0.1024  0.6775  0.8270
  349MOL0     C48087   7.528   6.537   4.317  0.3972  0.0046  0.3125
  349MOL0     C48088   7.457   6.635   4.411 -1.4455  0.7108  0.6965
  349MOL0     C48089   7.393   6.710   4.485  0.7247 -0.5275  0.2584
  349MOL0     C48090   7.395   6.677   3.837  0.9988  0.5491  0.1124
  349MOL0     C48091   7.308   6.686   3.722  0.2259  0.5255 -0.1381
  349MOL0     C48092   7.217   6.806   3.714 -0.3754  0.8631 -0.6784
  349MOL0     H48093   7.230   6.685   3.228  0.0240  0.8937  0.5845
  349MOL0     H48094   7.087   6.611   3.032 -0.0899 -2.3909  0.5938
  349MOL0     H48095   6.898   6.372   3.058  0.6689 -1.9185 -3.2523
  349MOL0     H48096   6.919   6.466   2.908 -0.4992  3.3953 -0.3283
  349MOL0     H48097   6.686   6.436   2.850 -3.9049  0.9648  2.7768
  349MOL0     H48098   6.752   6.279   2.877  0.5477 -0.2930 -0.7086
  349MOL0     H48099   6.573   6.426   3.062 -1.4480 -0.0663 -0.4989
  349MOL0     H48100   6.518   6.312   2.943  1.2686 -0.9803 -1.8650
  349MOL0     H48101   6.734   6.205   3.126  0.5650  1.3773 -0.9335
  349MOL0     H48102   6.604   6.255   3.216  0.7094  0.4217 -0.1145
  349MOL0     H48103   6.565   6.009   3.168  1.3998  0.2281  0.4211
  349MOL0     H48104   6.569   6.047   2.987  0.2526  0.5379 -0.0572
  349MOL0     H48105   6.377   6.141   3.198 -2.2245 -0.4097  0.1861
  349MOL0     H48106   6.382   6.201   3.037  0.6452  1.7337  3.0467
  349MOL0     H48107   6.366   5.944   2.959  1.2411 -1.3307  0.5554
  349MOL0     H48108   6.223   6.023   3.027  0.1656 -2.0536  2.3063
  349MOL0     H48109   6.411   5.848   3.178 -0.9175 -2.9714  0.0969
  349MOL0     H48110   6.287   5.949   3.260 -1.1977  0.7542 -0.6888
  349MOL0     H48111   6.349   5.635   3.169  0.0000 -0.0677 -0.9527
  349MOL0     H48112   6.186   5.403   3.145  0.4723 -0.6268  0.0949
  349MOL0     H48113   6.013   5.416   3.149  2.0524 -0.9622 -4.2839
  349MOL0     H48114   6.076   5.316   3.366  0.8441 -0.1434  2.4810
  349MOL0     H48115   6.219   5.427   3.379  0.6330 -1.6575 -1.6801
  349MOL0     H48116   6.096   5.617   3.424  0.7915  0.8015  1.1414
  349MOL0     H48117   5.943   5.562   3.393 -0.1189 -1.3180  1.5543
  349MOL0     H48118   5.975   5.593   3.624 -1.5328  1.6700 -2.8881
  349MOL0     H48119   5.945   5.411   3.579  3.6459 -2.7168  0.8427
  349MOL0     H48120   5.920   5.481   3.825  0.8126 -0.1373 -0.7854
  349MOL0     H48121   5.845   5.408   4.107 -0.0016  1.9753 -1.7846
  349MOL0     H48122   5.798   5.243   4.038 -2.5894  0.0276 -0.8958
  349MOL0     H48123   5.766   5.397   3.954 -0.9653 -0.5370  1.4286
  349MOL0     H48124   5.752   5.148   4.396 -0.4855 -0.9869 -2.3692
  349MOL0     H48125   5.741   5.015   4.571 -1.3992  2.4368 -1.7565
  349MOL0     H48126   5.899   4.644   4.619  0.1894  0.0973 -1.7171
  349MOL0     H48127   6.060   4.702   4.610 -0.1114  1.3578 -0.3469
  349MOL0     H48128   6.067   4.775   4.843  1.3215 -2.0359  2.3395
  349MOL0     H48129   5.904   4.723   4.881  0.1197 -0.2611  0.7304
  349MOL0     H48130   6.126   4.553   4.912 -1.9099 -0.4170  2.8743
  349MOL0     H48131   6.070   4.513   4.746 -1.1739  0.3196 -1.1472
  349MOL0     H48132   5.835   4.467   4.852 -0.1474  1.0166  0.4539
  349MOL0     H48133   5.899   4.535   4.999 -0.5856  1.4300 -0.6170
  349MOL0     H48134   5.876   4.286   5.009  0.0533 -1.8230  0.4927
  349MOL0     H48135   5.973   4.279   4.863  0.2981 -0.3457  1.0152
  349MOL0     H48136   6.180   4.333   4.976 -0.0092  0.0582  0.4121
  349MOL0     H48137   6.113   4.205   5.058  2.6963  1.1026  1.1302
  349MOL0     H48138   5.981   4.402   5.201  0.0665 -2.0955  0.8641
  349MOL0     H48139   6.122   4.503   5.141  0.4361  0.0872  0.3424
  349MOL0     H48140   6.184   4.438   5.355 -0.3062  0.4128 -0.6469
  349MOL0     H48141   6.275   4.328   5.261 -0.7550 -0.9757 -1.2455
  349MOL0     H48142   6.122   4.839   4.488 -2.7040 -1.1855  1.7962
  349MOL0     H48143   6.164   5.010   4.332 -0.7046  0.4586 -0.7163
  349MOL0     H48144   6.275   5.219   4.007  0.4114  0.8899 -1.5666
  349MOL0     H48145   6.297   5.323   3.754  1.8890 -1.5792  2.0618
  349MOL0     H48146   6.739   6.616   3.281  0.6592 -1.3120 -1.1472
  349MOL0     H48147   6.885   6.698   3.476  1.8384 -2.5908  1.0184
  349MOL0     H48148   7.392   6.392   3.581  2.2264 -2.5388  2.4535
  349MOL0     H48149   7.555   6.395   3.753  1.9156  1.7495  0.2154
  349MOL0     H48150   7.605   6.375   4.025  0.5647 -0.2762 -1.6480
  349MOL0     H48151   7.720   6.466   3.930 -1.6635  0.2435 -1.0869
  349MOL0     H48152   7.784   6.602   4.094  1.6289  1.8724  3.7707
  349MOL0     H48153   7.748   6.457   4.193 -2.0668 -0.7169  1.4809
  349MOL0     H48154   7.679   6.686   4.290  2.5194  1.2722 -2.3137
  349MOL0     H48155   7.554   6.695   4.171  1.0343 -0.0684 -1.0139
  349MOL0     H48156   7.595   6.473   4.375 -0.2451 -0.6563  0.3485
  349MOL0     H48157   7.460   6.476   4.255 -0.6998  2.6656 -1.2892
  349MOL0     H48158   7.328   6.772   4.544 -0.6117 -2.1970  0.5989
  349MOL0     H48159   7.381   6.758   3.908  0.7023  1.2729 -0.7579
  349MOL0     H48160   7.235   6.855   3.618  0.0718 -0.2234 -1.1698
  349MOL0     H48161   7.113   6.771   3.716 -0.0869 -0.6931 -4.3647
  349MOL0     H48162   7.225   6.882   3.792 -3.3724 -1.9180  2.7111
  350MOL0     O48163   1.349   4.733  10.746  0.3225  0.1662  0.0041
  350MOL0     C48164   1.263   4.707  10.667 -0.7732 -0.2733 -0.2996
  350MOL0     O48165   1.275   4.713  10.535 -0.0781  1.0248 -0.2467
  350MOL0     C48166   1.401   4.732  10.466 -0.4544 -0.3063 -0.9444
  350MOL0     C48167   1.420   4.676  10.341 -0.1181  0.9170 -0.9460
  350MOL0     C48168   1.552   4.666  10.288  0.5332  0.7173  0.9595
  350MOL0     C48169   1.649   4.745  10.333  0.0503 -0.5524  0.4461
  350MOL0     O48170   1.762   4.758  10.253 -0.5147 -0.1274  0.6291
  350MOL0     C48171   1.885   4.799  10.311 -0.2504 -0.7164 -0.5222
  350MOL0     C48172   1.984   4.759  10.197 -0.3066 -1.0326 -0.5044
  350MOL0     C48173   2.126   4.805  10.236 -1.1280  0.0025 -0.1636
  350MOL0     C48174   2.236   4.771  10.130  0.5497 -0.0503  0.6352
  350MOL0     C48175   2.377   4.829  10.176  0.1811 -0.3445  0.4335
  350MOL0     C48176   2.410   4.966  10.121 -0.5339 -0.2538 -0.3311
  350MOL0     C48177   2.558   5.002  10.145  0.0747 -0.5358 -0.6461
  350MOL0     C48178   2.590   5.036  10.290 -0.4646 -0.5218 -0.4143
  350MOL0     N48179   2.682   5.150  10.299 -0.0438 -0.2568  0.3935
  350MOL0     C48180   2.656   5.281  10.284  0.7559 -0.4631 -0.9516
  350MOL0     C48181   2.742   5.346  10.357  0.2170  0.1396 -0.9551
  350MOL0     C48182   2.735   5.492  10.385  0.8892 -1.2547  0.3403
  350MOL0     C48183   2.679   5.532  10.528 -0.5206  0.5349  0.2977
  350MOL0     C48184   2.545   5.462  10.565 -0.3183  0.1103 -0.0139
  350MOL0     C48185   2.486   5.514  10.697  0.2163  0.3568  0.2257
  350MOL0     O48186   2.477   5.654  10.707  0.2153 -0.1275  0.5356
  350MOL0     C48187   2.371   5.691  10.796 -0.4157 -0.0319  0.1339
  350MOL0     C48188   2.331   5.600  10.903  0.1150 -0.0628 -0.1529
  350MOL0     C48189   2.224   5.636  10.987 -0.5915  0.2488  0.5333
  350MOL0     C48190   2.182   5.530  11.090  0.2775 -0.2598  0.2699
  350MOL0     C48191   2.153   5.758  10.970 -0.3523 -0.5722 -0.1771
  350MOL0     C48192   2.043   5.806  11.062  0.5799  0.2942 -0.3291
  350MOL0     O48193   1.966   5.713  11.121 -0.5072  0.5838 -0.0044
  350MOL0     C48194   1.844   5.745  11.188 -0.3396 -0.3185  0.9919
  350MOL0     C48195   1.804   5.871  11.233  0.2570  0.4007 -0.0115
  350MOL0     C48196   1.675   5.886  11.298 -0.7759  0.2006 -0.5339
  350MOL0     C48197   1.592   5.776  11.325 -0.3825  0.4094  0.5556
  350MOL0     O48198   1.472   5.794  11.392  0.8640  0.1808  0.5833
  350MOL0     C48199   1.402   5.915  11.390 -0.9618  0.0669  0.4281
  350MOL0     C48200   1.278   5.885  11.475 -1.0291 -1.4297 -0.3663
  350MOL0     C48201   1.191   6.004  11.497  1.0874 -0.4424  0.6393
  350MOL0     C48202   1.159   6.068  11.365 -0.7607 -0.9126  0.2905
  350MOL0     C48203   1.055   6.178  11.380 -0.5792 -0.1914 -0.2927
  350MOL0     C48204   1.072   6.268  11.249 -0.0816  0.2310 -0.2472
  350MOL0     C48205   1.041   6.417  11.276  0.2043 -0.0763 -0.0825
  350MOL0     C48206   1.055   6.498  11.146 -0.1359 -0.2888  0.2210
  350MOL0    Cl48207   1.017   6.677  11.176  0.0480  0.0630  0.5964
  350MOL0     C48208   1.636   5.647  11.286 -0.1852  0.3788  0.2890
  350MOL0     C48209   1.761   5.632  11.217 -0.9428  0.7165  0.9601
  350MOL0     O48210   2.017   5.929  11.050 -0.6293  0.5087 -0.6000
  350MOL0     C48211   2.196   5.841  10.859 -0.5151 -0.5261 -0.4369
  350MOL0     C48212   2.303   5.804  10.775  0.0470  0.4423 -0.2754
  350MOL0     N48213   2.820   5.258  10.432  0.0798 -0.0725  0.1168
  350MOL0     N48214   2.781   5.144  10.395  0.0404  1.0411  0.0382
  350MOL0     C48215   1.636   4.815  10.450  0.3339  0.4592 -0.1173
  350MOL0     C48216   1.519   4.799  10.524  0.3388 -0.1190  0.4226
  350MOL0     C48217   1.126   4.688  10.734  0.6480  0.5100  0.0063
  350MOL0     C48218   1.030   4.629  10.654 -0.5588 -0.1891  0.1461
  350MOL0     C48219   0.898   4.603  10.704 -1.0814  1.0486  0.0383
  350MOL0     C48220   0.856   4.625  10.832 -0.5165  0.4505  1.1039
  350MOL0     O48221   0.733   4.574  10.871  0.5971 -0.3766  0.3696
  350MOL0     C48222   0.618   4.656  10.826  0.3598  0.3647 -0.2905
  350MOL0     C48223   0.611   4.772  10.934 -0.0093  0.0394  0.6021
  350MOL0     C48224   0.478   4.850  10.913  0.3618  0.2865 -0.3849
  350MOL0     C48225   0.475   4.958  11.020 -0.1935 -0.5859  0.6514
  350MOL0     C48226   0.340   5.031  11.025 -0.1689 -0.1487 -1.1151
  350MOL0     C48227   0.225   5.063  11.047 -0.7633 -0.4655  1.1310
  350MOL0     C48228   0.951   4.689  10.918  1.3383  0.2846 -0.0395
  350MOL0     C48229   1.081   4.724  10.870 -0.0417  1.2106  0.5830
  350MOL0     C48230   1.179   4.790  10.963  0.0191  0.4162 -0.7666
  350MOL0     H48231   1.338   4.618  10.299  0.3098 -1.1088  0.8143
  350MOL0     H48232   1.556   4.602  10.200  1.4611 -0.0307  1.5142
  350MOL0     H48233   1.908   4.752  10.407 -1.1055  0.5857  0.3531
  350MOL0     H48234   1.885   4.907  10.327 -2.5364 -0.8350  0.6033
  350MOL0     H48235   1.982   4.651  10.181 -1.5936 -0.7070 -3.0135
  350MOL0     H48236   1.952   4.802  10.102 -2.1305  0.2392  0.5982
  350MOL0     H48237   2.118   4.913  10.256  1.2377 -0.0292  1.2559
  350MOL0     H48238   2.162   4.759  10.328 -1.8272 -0.3336 -0.0511
  350MOL0     H48239   2.239   4.663  10.118 -0.7535 -0.3779  2.8016
  350MOL0     H48240   2.201   4.829  10.044 -1.0731 -2.0898 -0.1728
  350MOL0     H48241   2.447   4.756  10.134  0.2874 -0.5521  0.9561
  350MOL0     H48242   2.412   4.823  10.280  4.3674 -0.7485 -0.8284
  350MOL0     H48243   2.395   4.972  10.013  0.5917  0.3019 -0.4731
  350MOL0     H48244   2.355   5.045  10.173  0.8557  0.0445  0.7555
  350MOL0     H48245   2.578   5.084  10.076  3.0511 -0.0505  0.6623
  350MOL0     H48246   2.605   4.908  10.116  0.4885 -0.8011  0.7783
  350MOL0     H48247   2.499   5.060  10.347  0.0066 -0.7256  0.4435
  350MOL0     H48248   2.631   4.949  10.341 -1.5726 -1.1038 -0.4897
  350MOL0     H48249   2.576   5.333  10.231 -0.2708  1.1455  1.9671
  350MOL0     H48250   2.678   5.537  10.303  3.1047 -1.1465 -1.2383
  350MOL0     H48251   2.837   5.529  10.374  2.0540 -1.8092  6.1959
  350MOL0     H48252   2.757   5.501  10.598  2.1873  1.2442 -2.1938
  350MOL0     H48253   2.670   5.641  10.532  1.4085  0.6980  0.9123
  350MOL0     H48254   2.468   5.472  10.488  1.7607 -0.6445 -2.3604
  350MOL0     H48255   2.559   5.355  10.584 -1.1193  0.3709  2.3838
  350MOL0     H48256   2.386   5.474  10.718 -0.5072  2.3789  0.9993
  350MOL0     H48257   2.548   5.472  10.776  2.1345  5.0693  1.5747
  350MOL0     H48258   2.394   5.523  10.946 -1.8673 -0.1461  2.8981
  350MOL0     H48259   2.112   5.464  11.038 -0.6938  2.8011 -2.6731
  350MOL0     H48260   2.160   5.570  11.189  1.0632 -1.4306  0.9363
  350MOL0     H48261   2.265   5.468  11.123  1.0408  0.2621 -0.6147
  350MOL0     H48262   1.861   5.964  11.233 -1.1462  1.2895  0.5332
  350MOL0     H48263   1.649   5.981  11.344  0.7417 -0.2235  1.2959
  350MOL0     H48264   1.466   5.989  11.439 -0.8591 -1.0889  2.1046
  350MOL0     H48265   1.379   5.946  11.287 -2.3789 -2.1318  0.0045
  350MOL0     H48266   1.226   5.797  11.438 -1.3888 -1.9211  1.2271
  350MOL0     H48267   1.310   5.859  11.576 -4.7785 -1.0501  1.0816
  350MOL0     H48268   1.241   6.078  11.561 -1.6481  2.9563 -0.8015
  350MOL0     H48269   1.098   5.980  11.549  2.6937 -1.0451  3.4099
  350MOL0     H48270   1.126   5.992  11.294 -0.8845 -1.9180  1.4001
  350MOL0     H48271   1.251   6.117  11.330 -0.4515  0.1644  2.4577
  350MOL0     H48272   0.952   6.142  11.386 -1.5819  2.7225  1.9614
  350MOL0     H48273   1.078   6.235  11.470 -1.0767  0.5865 -0.6410
  350MOL0     H48274   1.013   6.231  11.165 -2.4496 -1.5881  2.0477
  350MOL0     H48275   1.171   6.275  11.204 -0.8814 -0.7987 -2.2998
  350MOL0     H48276   1.105   6.459  11.355  0.6665 -1.5782  0.3825
  350MOL0     H48277   0.938   6.426  11.311  1.0980  1.0606  2.5365
  350MOL0     H48278   0.988   6.455  11.070  0.2856 -1.3757  0.4536
  350MOL0     H48279   1.158   6.487  11.113 -0.3327 -2.8033  0.2861
  350MOL0     H48280   1.573   5.563  11.312 -1.3213  0.0242 -3.1930
  350MOL0     H48281   1.811   5.538  11.195  3.6924  3.6996 -3.2098
  350MOL0     H48282   2.143   5.935  10.852 -1.9305 -1.2478  0.2030
  350MOL0     H48283   2.335   5.877  10.702  1.6738 -0.9196 -0.9934
  350MOL0     H48284   1.713   4.888  10.474  0.9852  0.1876 -1.3228
  350MOL0     H48285   1.507   4.843  10.623 -1.5052 -1.5803  0.8952
  350MOL0     H48286   1.048   4.617  10.548 -3.6775 -1.3796 -0.3700
  350MOL0     H48287   0.836   4.558  10.628  2.3694 -0.5680 -2.0421
  350MOL0     H48288   0.623   4.699  10.726 -3.0317  0.5365 -0.4935
  350MOL0     H48289   0.529   4.593  10.818  0.4506  0.4998 -3.5847
  350MOL0     H48290   0.697   4.836  10.915  1.8563 -2.0718  1.4829
  350MOL0     H48291   0.618   4.735  11.037 -2.5901 -4.0762 -0.4529
  350MOL0     H48292   0.487   4.885  10.810  3.8409  0.0959 -0.2956
  350MOL0     H48293   0.383   4.798  10.923  0.7924 -0.9267 -2.1268
  350MOL0     H48294   0.560   5.022  10.991  1.8591 -2.6688  1.7335
  350MOL0     H48295   0.492   4.929  11.124  2.1942  0.4979  0.6394
  350MOL0     H48296   0.128   5.095  11.080  0.5804  1.3039  3.7408
  350MOL0     H48297   0.917   4.711  11.018  0.1969  1.1890 -0.6006
  350MOL0     H48298   1.214   4.887  10.926  0.9277  1.4480  2.4705
  350MOL0     H48299   1.123   4.831  11.048  1.8767  0.2609  0.6029
  350MOL0     H48300   1.261   4.724  10.995  0.7857  2.4365  1.8306
  351MOL0     O48301  11.573  10.733  11.023  1.0145 -0.5525  0.3329
  351MOL0     C48302  11.524  10.844  11.041 -0.2761 -0.4982 -0.2430
  351MOL0     O48303  11.400  10.869  11.085  0.0974  0.6191  0.1839
  351MOL0     C48304  11.314  10.766  11.125  0.4229 -0.2761 -0.0638
  351MOL0     C48305  11.182  10.788  11.084  0.1524  0.2650 -0.4113
  351MOL0     C48306  11.090  10.678  11.106  0.2981  0.0621  0.1702
  351MOL0     C48307  11.122  10.555  11.169  0.6074  0.6171  0.1159
  351MOL0     O48308  11.017  10.473  11.206  0.1525  0.5885  0.4179
  351MOL0     C48309  11.043  10.331  11.241 -0.5824 -0.7680 -0.5382
  351MOL0     C48310  10.906  10.266  11.215 -0.0300 -0.3557 -0.7044
  351MOL0     C48311  10.893  10.230  11.065 -1.2933 -0.3493 -0.2322
  351MOL0     C48312  10.756  10.201  11.017 -0.9457  0.4743  0.0737
  351MOL0     C48313  10.747  10.110  10.890 -0.2149 -0.2259 -0.1989
  351MOL0     C48314  10.608  10.091  10.839  0.0151 -0.1951  0.1694
  351MOL0     C48315  10.551  10.221  10.778 -0.6633 -0.4001  0.0537
  351MOL0     C48316  10.415  10.211  10.714 -0.5799  0.1782  0.2650
  351MOL0     N48317  10.307  10.186  10.810  0.5448  0.3936  0.5310
  351MOL0     C48318  10.248  10.292  10.875 -0.1041 -0.5820  0.3697
  351MOL0     C48319  10.169  10.227  10.959 -0.1503 -0.2703  0.2312
  351MOL0     C48320  10.057  10.294  11.037 -0.7592 -0.7693  0.2647
  351MOL0     C48321  10.020  10.252  11.170 -0.4179  0.1220  0.7148
  351MOL0     C48322   9.957  10.114  11.180  0.2868 -0.2684  0.3039
  351MOL0     C48323   9.920  10.082  11.331  0.2049 -0.5841  0.5749
  351MOL0     O48324   9.797  10.150  11.363  0.1518  0.3845 -0.3182
  351MOL0     C48325   9.724  10.089  11.461 -0.1145 -0.3779  0.1496
  351MOL0     C48326   9.780  10.065  11.581  1.0629  0.7864 -0.5988
  351MOL0     C48327   9.721   9.977  11.674  0.4306  0.1621  0.0123
  351MOL0     C48328   9.802   9.948  11.793  1.2991  0.0837 -0.0506
  351MOL0     C48329   9.587   9.932  11.657  1.0702  0.0621  0.3593
  351MOL0     C48330   9.515   9.857  11.769 -0.0123  0.6162 -1.0342
  351MOL0     O48331   9.388   9.819  11.740 -0.6888  0.0714  0.2519
  351MOL0     C48332   9.308   9.742  11.821 -0.2026 -0.2452 -0.6609
  351MOL0     C48333   9.214   9.665  11.758  0.6343 -0.7100  0.9106
  351MOL0     C48334   9.114   9.596  11.829  0.1178  0.4274 -0.4296
  351MOL0     C48335   9.113   9.598  11.968 -0.5199  1.0673  0.0980
  351MOL0     O48336   9.037   9.514  12.040  1.0596  0.1906 -0.3795
  351MOL0     C48337   9.068   9.466  12.172  0.1390 -0.2725 -0.4505
  351MOL0     C48338   9.175   9.363  12.193 -0.8464  0.1153 -0.5167
  351MOL0     C48339   9.167   9.226  12.118  0.5235  0.2087 -0.4046
  351MOL0     C48340   9.071   9.134  12.189  0.6765  1.0799  0.2057
  351MOL0     C48341   9.083   8.986  12.140 -0.6001 -0.5008  0.7608
  351MOL0     C48342   8.999   8.890  12.227 -0.1839 -0.3890 -0.0000
  351MOL0     C48343   9.008   8.894  12.381 -0.5562 -0.6210  0.0966
  351MOL0     C48344   8.932   8.787  12.455 -0.0987 -0.7905 -0.5223
  351MOL0    Cl48345   8.973   8.627  12.381 -0.4667 -0.1397  0.1251
  351MOL0     C48346   9.195   9.693  12.029 -0.5607 -0.7370  0.5607
  351MOL0     C48347   9.302   9.757  11.959 -1.2510  1.1025 -0.7154
  351MOL0     O48348   9.567   9.829  11.873 -0.4843 -0.1626  0.2089
  351MOL0     C48349   9.523   9.959  11.531  0.0624 -0.0109  0.4725
  351MOL0     C48350   9.594  10.038  11.436 -0.4574 -0.2715 -0.0347
  351MOL0     N48351  10.185  10.092  10.941 -0.3089  0.5814 -0.1310
  351MOL0     N48352  10.276  10.068  10.853 -0.9934  0.0321 -0.4289
  351MOL0     C48353  11.252  10.553  11.221 -0.4818  0.2964  0.7479
  351MOL0     C48354  11.342  10.652  11.191 -0.0567  0.1489 -0.1393
  351MOL0     C48355  11.609  10.966  11.043  0.0402 -1.1817 -0.1975
  351MOL0     C48356  11.577  11.065  11.144 -0.7359  0.3848  0.0798
  351MOL0     C48357  11.633  11.190  11.140 -0.2110 -0.2899 -0.0529
  351MOL0     C48358  11.733  11.217  11.049 -0.0475 -0.5823  0.4451
  351MOL0     O48359  11.811  11.333  11.040 -0.4809 -0.2906 -0.7264
  351MOL0     C48360  11.801  11.420  10.928  0.2581  0.0448 -0.2974
  351MOL0     C48361  11.890  11.535  10.940  0.2714  0.3598  0.2560
  351MOL0     C48362  11.899  11.612  10.817  0.5502  0.1318  0.4334
  351MOL0     C48363  11.992  11.728  10.833  0.0525 -0.4130  0.4992
  351MOL0     C48364  11.921  11.857  10.870 -0.3021  0.5535 -0.2646
  351MOL0     C48365  11.857  11.956  10.878  0.5702 -1.3786  0.2594
  351MOL0     C48366  11.770  11.128  10.947  0.4448  0.4964  0.4375
  351MOL0     C48367  11.709  10.999  10.940 -0.6467  0.5109  0.1446
  351MOL0     C48368  11.745  10.905  10.827 -0.4743 -0.1417 -1.0353
  351MOL0     H48369  11.145  10.879  11.038  0.0359 -0.2159 -1.3000
  351MOL0     H48370  10.983  10.694  11.093  0.5413  1.2287 -0.5238
  351MOL0     H48371  11.074  10.339  11.345  1.2240  0.7305 -1.1212
  351MOL0     H48372  11.119  10.283  11.178 -2.0232 -1.9904 -1.3979
  351MOL0     H48373  10.915  10.171  11.268  1.4935  0.4585  0.5926
  351MOL0     H48374  10.823  10.323  11.257  0.7401  1.0198 -0.9777
  351MOL0     H48375  10.951  10.297  11.002  0.7042 -3.2803 -1.7225
  351MOL0     H48376  10.944  10.134  11.057 -3.7651 -2.1056  2.8807
  351MOL0     H48377  10.683  10.163  11.090 -1.4409 -2.0606 -1.5994
  351MOL0     H48378  10.721  10.303  10.998  0.7080  1.6913  2.9225
  351MOL0     H48379  10.794  10.013  10.910  0.2986  0.1665  0.5937
  351MOL0     H48380  10.798  10.165  10.810 -0.0629  1.7984  1.2005
  351MOL0     H48381  10.601  10.016  10.759 -3.2714 -0.2218  0.3409
  351MOL0     H48382  10.545  10.052  10.920  0.0215 -0.5864 -0.0099
  351MOL0     H48383  10.627  10.250  10.704 -1.2939 -2.5804 -1.5592
  351MOL0     H48384  10.546  10.298  10.856 -1.6831 -1.4048  1.0114
  351MOL0     H48385  10.402  10.297  10.648  1.4159 -2.1683 -3.5717
  351MOL0     H48386  10.411  10.132  10.639  0.1965 -1.0938  1.5029
  351MOL0     H48387  10.243  10.397  10.849 -2.1705 -0.9951 -1.2027
  351MOL0     H48388   9.966  10.293  10.977  1.4020  1.7692 -3.5177
  351MOL0     H48389  10.093  10.398  11.040  3.1019 -1.9484  0.2860
  351MOL0     H48390  10.110  10.262  11.232 -0.0105 -1.5658  0.4532
  351MOL0     H48391   9.939  10.320  11.198 -0.6467  0.0041  0.3475
  351MOL0     H48392   9.872  10.100  11.113  0.2915  1.1524 -0.0330
  351MOL0     H48393  10.035  10.042  11.155 -2.2141 -2.0083 -3.3265
  351MOL0     H48394   9.920   9.972  11.337  0.7658 -0.8216 -2.4849
  351MOL0     H48395  10.005  10.109  11.393 -0.8247  0.7396  1.4851
  351MOL0     H48396   9.862  10.132  11.602  0.9583  0.9766 -0.7884
  351MOL0     H48397   9.769   9.993  11.888  3.7594  0.1452  0.8394
  351MOL0     H48398   9.902   9.982  11.767  0.5116  1.0972 -1.9228
  351MOL0     H48399   9.819   9.843  11.818 -1.6358  0.1087  2.8086
  351MOL0     H48400   9.211   9.670  11.650 -0.6676  0.9195  0.9734
  351MOL0     H48401   9.047   9.542  11.762  0.8557  0.5989 -1.3172
  351MOL0     H48402   9.070   9.557  12.233 -2.7860 -0.4068  0.0017
  351MOL0     H48403   8.977   9.419  12.211 -0.7273  2.5730  1.3260
  351MOL0     H48404   9.277   9.395  12.168 -0.3762 -0.4230  0.6462
  351MOL0     H48405   9.167   9.349  12.301  0.1221  1.3634 -0.2568
  351MOL0     H48406   9.267   9.182  12.114  0.9793  0.9276  1.7996
  351MOL0     H48407   9.126   9.236  12.018  0.9788 -0.5253 -0.6749
  351MOL0     H48408   8.968   9.170  12.181  0.9015  2.0685  1.4176
  351MOL0     H48409   9.100   9.142  12.294 -0.9471  1.2832  0.6716
  351MOL0     H48410   9.036   8.970  12.042 -1.7448  1.3085  0.9796
  351MOL0     H48411   9.188   8.955  12.134 -0.8718 -1.6734  1.6805
  351MOL0     H48412   9.024   8.791  12.187 -0.3461 -0.5367  0.2609
  351MOL0     H48413   8.893   8.915  12.216  0.3483  2.4030  0.5006
  351MOL0     H48414   8.968   8.991  12.413 -0.4603  0.2672 -2.2733
  351MOL0     H48415   9.115   8.884  12.399 -0.2391  2.9092  0.9803
  351MOL0     H48416   8.825   8.801  12.442 -0.0620  1.4760  1.1790
  351MOL0     H48417   8.967   8.803  12.557  1.8869  2.3970 -1.5747
  351MOL0     H48418   9.185   9.699  12.137  1.6137 -1.1828  0.8294
  351MOL0     H48419   9.375   9.824  12.003  1.7090 -1.4361 -1.4259
  351MOL0     H48420   9.435   9.912  11.489 -1.8412  1.3161  2.7183
  351MOL0     H48421   9.544  10.054  11.341 -0.7574 -1.0493 -0.0130
  351MOL0     H48422  11.282  10.465  11.278  1.1564  0.3922  0.0826
  351MOL0     H48423  11.447  10.638  11.212 -0.0639 -0.8579 -0.6769
  351MOL0     H48424  11.487  11.056  11.204 -0.0322 -0.9481  0.9778
  351MOL0     H48425  11.600  11.252  11.223  1.3330  1.5570 -0.7362
  351MOL0     H48426  11.825  11.364  10.837 -1.0774 -1.1090  0.0320
  351MOL0     H48427  11.704  11.470  10.926  1.0050  1.5380 -0.3530
  351MOL0     H48428  11.985  11.496  10.978 -0.7556 -0.1254  2.5150
  351MOL0     H48429  11.843  11.602  11.012 -0.1796  1.5709 -1.1358
  351MOL0     H48430  11.945  11.551  10.739  1.0226  0.1346  0.7100
  351MOL0     H48431  11.798  11.644  10.791  0.7258  0.6501  0.3817
  351MOL0     H48432  12.047  11.750  10.741 -1.6992  0.3554 -0.4169
  351MOL0     H48433  12.076  11.701  10.898  0.5408 -0.3695 -0.0972
  351MOL0     H48434  11.777  12.028  10.873  0.9201 -1.0391 -3.2827
  351MOL0     H48435  11.858  11.141  10.885 -0.6762  5.1165 -0.6046
  351MOL0     H48436  11.662  10.839  10.801 -2.7295  2.4220 -0.7486
  351MOL0     H48437  11.784  10.957  10.739  0.9244  1.3102  0.3541
  351MOL0     H48438  11.825  10.840  10.864  0.2934  2.3354  2.1436
  352MOL0     O48439   7.233   6.167   1.567 -0.4108 -0.3627  0.3646
  352MOL0     C48440   7.161   6.191   1.466 -0.6707  0.0824 -0.1279
  352MOL0     O48441   7.126   6.108   1.363  0.3764  0.0547 -0.0009
  352MOL0     C48442   7.166   5.974   1.368 -0.4680 -0.2165 -0.4230
  352MOL0     C48443   7.091   5.896   1.290  0.5404  0.1662  0.5987
  352MOL0     C48444   7.097   5.761   1.275 -0.0753 -0.1350  0.7520
  352MOL0     C48445   7.210   5.704   1.329 -0.1338  0.3059 -1.2333
  352MOL0     O48446   7.241   5.567   1.322  0.0712  0.3485  0.4726
  352MOL0     C48447   7.151   5.473   1.270  0.2036  0.5403 -0.8882
  352MOL0     C48448   7.215   5.339   1.248 -0.3757  0.7215 -0.2519
  352MOL0     C48449   7.119   5.226   1.192  0.3899  1.3977 -0.4532
  352MOL0     C48450   7.059   5.254   1.062 -1.1539  0.6979  0.2399
  352MOL0     C48451   6.920   5.306   1.085 -1.2444 -0.1569  0.0201
  352MOL0     C48452   6.852   5.304   0.961 -0.0218 -0.6382 -0.6349
  352MOL0     C48453   6.717   5.381   0.981 -0.2138  0.3885  0.0555
  352MOL0     C48454   6.718   5.535   1.013 -1.0604  0.3446 -0.8102
  352MOL0     N48455   6.790   5.620   0.914 -0.0122  0.3478  0.2073
  352MOL0     C48456   6.927   5.635   0.905 -0.1801 -0.0164  1.3501
  352MOL0     C48457   6.942   5.735   0.806 -0.3054 -0.2189  1.0010
  352MOL0     C48458   7.078   5.798   0.751  0.2379  0.4973 -0.5807
  352MOL0     C48459   7.199   5.785   0.844 -0.3630 -0.1368 -0.1156
  352MOL0     C48460   7.325   5.835   0.768  1.1381 -0.6415  0.6466
  352MOL0     C48461   7.355   5.771   0.630 -0.9039 -0.1401 -0.6740
  352MOL0     O48462   7.376   5.628   0.637 -0.0871 -0.3113  0.4927
  352MOL0     C48463   7.428   5.572   0.520  0.7557  0.1886  0.3806
  352MOL0     C48464   7.471   5.631   0.393  0.8059  0.5568 -0.3491
  352MOL0     C48465   7.499   5.549   0.276 -0.4088 -1.2373 -0.1118
  352MOL0     C48466   7.548   5.643   0.163  0.8215 -0.4421 -0.9413
  352MOL0     C48467   7.491   5.415   0.292 -0.3018  0.3319 -0.0718
  352MOL0     C48468   7.524   5.326   0.179  0.2834  0.2752  0.0301
  352MOL0     O48469   7.617   5.229   0.214  0.1497  0.1881  0.1580
  352MOL0     C48470   7.656   5.143   0.119  0.5647  0.7110 -0.3357
  352MOL0     C48471   7.565   5.058   0.058  0.2430 -0.4746 -0.0302
  352MOL0     C48472   7.611   4.977  -0.053 -0.5177 -0.1107  0.0766
  352MOL0     C48473   7.741   4.980  -0.095 -0.3917  0.3162  0.4740
  352MOL0     O48474   7.771   4.897  -0.205  0.4247 -0.0436  0.4624
  352MOL0     C48475   7.918   4.906  -0.242  1.2622 -0.6192 -0.1055
  352MOL0     C48476   7.938   4.858  -0.388 -0.3702  1.2026  0.4006
  352MOL0     C48477   7.925   4.706  -0.399 -0.5569  0.5677  0.6736
  352MOL0     C48478   7.963   4.654  -0.537 -0.0146  0.7390  0.8210
  352MOL0     C48479   7.983   4.493  -0.549  0.4657 -0.1666 -0.5009
  352MOL0     C48480   7.864   4.405  -0.517  0.0494  0.4394 -0.3099
  352MOL0     C48481   7.888   4.246  -0.515 -0.0045 -0.5838  0.0158
  352MOL0     C48482   7.756   4.172  -0.470  0.3812  0.0792 -0.7437
  352MOL0    Cl48483   7.758   4.118  -0.301  0.0205  0.2503 -0.3178
  352MOL0     C48484   7.834   5.054  -0.017  0.1183  0.1637 -0.0298
  352MOL0     C48485   7.788   5.138   0.082  0.8546 -0.5365  0.0382
  352MOL0     O48486   7.485   5.358   0.069  0.5120 -0.3633  0.4388
  352MOL0     C48487   7.455   5.361   0.419  0.1180 -0.0767 -0.0768
  352MOL0     C48488   7.434   5.438   0.534  0.0897  0.3238  0.5965
  352MOL0     N48489   6.822   5.760   0.753  0.0489 -0.1625 -0.4958
  352MOL0     N48490   6.729   5.697   0.815 -0.4022 -0.0722  0.1340
  352MOL0     C48491   7.289   5.777   1.418 -0.3699  0.0980 -0.2290
  352MOL0     C48492   7.276   5.915   1.438  0.4298 -0.2073  0.4397
  352MOL0     C48493   7.158   6.337   1.445  0.8007 -1.0582  0.7457
  352MOL0     C48494   7.154   6.384   1.310 -0.3780  1.0060  0.0027
  352MOL0     C48495   7.170   6.521   1.289  0.6602 -0.4164  0.7642
  352MOL0     C48496   7.188   6.618   1.396 -0.2261  0.9457  0.2464
  352MOL0     O48497   7.197   6.755   1.386 -0.1273  0.1313  0.4221
  352MOL0     C48498   7.331   6.803   1.374 -0.0888  0.0416 -0.6390
  352MOL0     C48499   7.423   6.736   1.274 -0.1546  1.2185  0.1756
  352MOL0     C48500   7.375   6.759   1.128  0.3869 -0.0724  0.6919
  352MOL0     C48501   7.481   6.705   1.034  0.4407  0.3207  0.8313
  352MOL0     C48502   7.423   6.732   0.900  0.2246 -0.0153 -0.3724
  352MOL0     C48503   7.360   6.743   0.795 -0.7820 -1.2151 -1.0661
  352MOL0     C48504   7.193   6.560   1.529 -0.8876 -0.4066 -0.7116
  352MOL0     C48505   7.167   6.426   1.554 -0.4315  0.5260  0.0805
  352MOL0     C48506   7.170   6.392   1.701  0.0549 -0.6151  0.2030
  352MOL0     H48507   7.014   5.943   1.229 -0.3905 -0.1098  1.5269
  352MOL0     H48508   7.022   5.701   1.223 -0.7149  0.3185  1.1344
  352MOL0     H48509   7.124   5.508   1.169  1.5072  0.3976 -1.2978
  352MOL0     H48510   7.061   5.472   1.332  0.0719  1.3011 -1.0529
  352MOL0     H48511   7.282   5.354   1.163 -0.5060 -1.3830 -0.7975
  352MOL0     H48512   7.282   5.312   1.331 -0.6559  1.1659  0.1239
  352MOL0     H48513   7.184   5.139   1.177  1.3775  1.5290  2.3642
  352MOL0     H48514   7.037   5.194   1.258  0.9859 -0.2899 -0.4632
  352MOL0     H48515   7.112   5.337   1.015  1.8485  0.8819  3.5700
  352MOL0     H48516   7.070   5.161   1.006  1.5845  1.0778  0.0033
  352MOL0     H48517   6.923   5.407   1.127 -1.5243  0.6254 -1.7450
  352MOL0     H48518   6.863   5.241   1.152 -1.5928 -0.2504 -0.3589
  352MOL0     H48519   6.907   5.363   0.886 -3.4030  2.7645 -0.7738
  352MOL0     H48520   6.845   5.205   0.915  2.7337 -1.3121  0.2030
  352MOL0     H48521   6.668   5.326   1.062  2.1936 -1.8806  0.1171
  352MOL0     H48522   6.667   5.357   0.887  2.6062 -6.1835 -0.3170
  352MOL0     H48523   6.618   5.575   1.029 -2.1237 -1.8077 -1.6108
  352MOL0     H48524   6.755   5.547   1.115 -0.1454 -3.2180 -0.5710
  352MOL0     H48525   7.008   5.580   0.953  0.6088  0.0315  0.1359
  352MOL0     H48526   7.070   5.903   0.721  2.1153  0.5017 -1.1683
  352MOL0     H48527   7.109   5.747   0.659  1.2864 -0.0524  0.0627
  352MOL0     H48528   7.195   5.846   0.935  1.6788  0.7367 -0.5608
  352MOL0     H48529   7.220   5.683   0.878  0.1000  0.2934  0.9170
  352MOL0     H48530   7.323   5.945   0.769 -2.4514 -0.5703 -0.3843
  352MOL0     H48531   7.411   5.815   0.832 -0.1285  2.1218  3.5323
  352MOL0     H48532   7.283   5.800   0.552 -0.3434 -1.5483 -1.7711
  352MOL0     H48533   7.451   5.810   0.596 -1.5540  0.1889 -2.2301
  352MOL0     H48534   7.479   5.739   0.395 -0.0651  0.6786 -1.8406
  352MOL0     H48535   7.464   5.696   0.117  1.4300  0.2704 -1.2605
  352MOL0     H48536   7.583   5.592   0.073 -0.9022 -1.4474 -1.0814
  352MOL0     H48537   7.624   5.713   0.198 -1.1099  1.0336  0.5256
  352MOL0     H48538   7.461   5.050   0.090 -0.9490  2.2220 -2.7064
  352MOL0     H48539   7.540   4.917  -0.108 -0.7791 -1.3968  1.7206
  352MOL0     H48540   7.942   5.013  -0.242 -0.3075 -0.2456  0.2632
  352MOL0     H48541   7.987   4.854  -0.176  0.6303 -0.9536  0.2934
  352MOL0     H48542   7.862   4.907  -0.450 -1.4628  0.9213  1.4722
  352MOL0     H48543   8.040   4.882  -0.420  0.0051  0.4192  0.9549
  352MOL0     H48544   7.824   4.672  -0.374  0.0462 -1.9100  0.0028
  352MOL0     H48545   7.991   4.671  -0.318 -0.8579  0.0976  0.7225
  352MOL0     H48546   8.063   4.691  -0.560 -1.1145  1.3806 -4.0525
  352MOL0     H48547   7.901   4.695  -0.618  0.6993  3.4668  1.5651
  352MOL0     H48548   8.031   4.473  -0.645  0.5757  0.1886 -0.5216
  352MOL0     H48549   8.052   4.464  -0.470  0.1306 -0.1102 -0.1823
  352MOL0     H48550   7.783   4.412  -0.590  1.4346  1.0424 -1.8646
  352MOL0     H48551   7.820   4.441  -0.424  2.0005  1.2079  0.3685
  352MOL0     H48552   7.964   4.223  -0.440 -0.1461  2.9001  1.4014
  352MOL0     H48553   7.925   4.218  -0.614 -0.5211  2.8133 -1.2706
  352MOL0     H48554   7.733   4.090  -0.538  0.2479  1.2308 -2.1374
  352MOL0     H48555   7.684   4.253  -0.484 -0.8716 -0.7977  0.3628
  352MOL0     H48556   7.941   5.060  -0.032  0.3891 -0.4722  1.5116
  352MOL0     H48557   7.863   5.196   0.135  2.1172 -2.2809  0.2641
  352MOL0     H48558   7.437   5.255   0.433 -2.0545  0.1467 -0.8236
  352MOL0     H48559   7.421   5.384   0.627  1.7194  0.6244  1.0268
  352MOL0     H48560   7.376   5.729   1.460 -0.6987  1.7990  2.6274
  352MOL0     H48561   7.350   5.966   1.499  1.3995 -0.9163 -0.1183
  352MOL0     H48562   7.131   6.319   1.226  1.1543 -0.2187  0.4881
  352MOL0     H48563   7.171   6.550   1.184 -1.1566  0.1121  0.8557
  352MOL0     H48564   7.307   6.904   1.340 -1.7677  0.1169  0.6547
  352MOL0     H48565   7.384   6.799   1.470 -1.6109  2.1947  0.3723
  352MOL0     H48566   7.431   6.628   1.291  4.0652  1.5739  1.7249
  352MOL0     H48567   7.529   6.760   1.290  0.8368 -2.9789  1.0638
  352MOL0     H48568   7.280   6.708   1.109  0.2796  0.1870  0.5338
  352MOL0     H48569   7.357   6.864   1.104 -1.0038 -0.2674  0.7764
  352MOL0     H48570   7.491   6.597   1.051 -2.6035 -0.2092 -0.1774
  352MOL0     H48571   7.575   6.761   1.044  1.7483 -1.8171  1.2301
  352MOL0     H48572   7.287   6.735   0.718 -1.7718  1.7829 -0.5629
  352MOL0     H48573   7.215   6.619   1.618 -2.5492 -1.7050  0.6253
  352MOL0     H48574   7.268   6.350   1.723  0.3518 -0.1914 -0.2873
  352MOL0     H48575   7.177   6.483   1.762  3.2034 -0.3544 -0.3644
  352MOL0     H48576   7.096   6.320   1.736  0.8836 -0.1311  3.1936
  353MOL0     O48577   5.409  10.229   2.826  0.1922 -0.4429 -0.1625
  353MOL0     C48578   5.441  10.164   2.922 -0.3193  0.9594 -0.5995
  353MOL0     O48579   5.524  10.204   3.020 -0.4635 -0.5655 -1.1227
  353MOL0     C48580   5.577  10.331   3.023  0.0668 -0.0962 -0.1483
  353MOL0     C48581   5.721  10.341   3.016 -0.2034 -0.6778 -0.4650
  353MOL0     C48582   5.765  10.472   3.040  0.7235  0.0509  0.1645
  353MOL0     C48583   5.680  10.581   3.068  0.7591 -1.0165 -0.1545
  353MOL0     O48584   5.725  10.712   3.097  0.1667  0.4739 -0.0764
  353MOL0     C48585   5.862  10.740   3.075  0.0689 -0.5930 -1.0503
  353MOL0     C48586   5.884  10.890   3.042 -0.6706  0.0392  0.1801
  353MOL0     C48587   6.024  10.926   2.999 -0.4839  0.1319  0.2303
  353MOL0     C48588   6.048  11.082   2.974  0.3836  1.3919 -0.3544
  353MOL0     C48589   6.195  11.096   2.948  0.1164  0.6521  0.7336
  353MOL0     C48590   6.253  11.230   2.977 -0.1505  0.0284 -1.1466
  353MOL0     C48591   6.271  11.251   3.125  0.3089 -0.0388  0.8113
  353MOL0     C48592   6.320  11.387   3.166  0.9997 -0.3602 -1.2289
  353MOL0     N48593   6.458  11.404   3.138  0.2812 -0.7922  0.8492
  353MOL0     C48594   6.567  11.382   3.214 -0.3257  0.3147 -0.0819
  353MOL0     C48595   6.674  11.434   3.149 -0.3763  1.0564 -0.5179
  353MOL0     C48596   6.812  11.440   3.195 -0.8668 -0.2176 -0.8395
  353MOL0     C48597   6.899  11.339   3.106  0.7532  0.1665 -1.1706
  353MOL0     C48598   7.040  11.311   3.149 -1.2595  0.3229  0.0960
  353MOL0     C48599   7.096  11.235   3.023 -0.1096 -0.3722  0.3744
  353MOL0     O48600   7.238  11.199   3.054  0.5057  0.5595 -0.0904
  353MOL0     C48601   7.330  11.300   3.022  0.4140  0.4192  0.5870
  353MOL0     C48602   7.404  11.314   2.902  0.4012  0.0129  0.1866
  353MOL0     C48603   7.493  11.422   2.887 -0.9929  0.7006 -0.0098
  353MOL0     C48604   7.555  11.438   2.753 -0.0605 -0.8497 -0.1855
  353MOL0     C48605   7.515  11.517   2.994  0.0803 -0.4202 -0.0898
  353MOL0     C48606   7.614  11.627   2.997  0.1561  0.6016  1.3073
  353MOL0     O48607   7.660  11.644   3.123  0.2888  1.0394  1.3202
  353MOL0     C48608   7.748  11.743   3.148 -0.6341  0.4331  0.5429
  353MOL0     C48609   7.881  11.722   3.111 -0.0276 -0.4566  0.2024
  353MOL0     C48610   7.988  11.806   3.163 -0.3902 -0.1659 -0.1533
  353MOL0     C48611   7.954  11.925   3.234 -0.2312 -1.2791  0.4845
  353MOL0     O48612   8.047  12.017   3.277  0.2306  0.4094  0.7073
  353MOL0     C48613   8.185  11.984   3.291 -0.8104 -0.0159 -0.5829
  353MOL0     C48614   8.270  12.098   3.349  1.0473 -0.7370  0.3430
  353MOL0     C48615   8.285  12.206   3.239  0.3227 -0.2896 -0.1926
  353MOL0     C48616   8.417  12.289   3.258 -0.5160 -0.1602  0.3469
  353MOL0     C48617   8.411  12.364   3.389 -0.0323 -0.5387 -0.6547
  353MOL0     C48618   8.529  12.470   3.403 -0.6675 -0.4313 -0.3914
  353MOL0     C48619   8.576  12.481   3.547  0.6154  0.3162 -0.3055
  353MOL0     C48620   8.688  12.592   3.566  0.6968 -0.3848 -0.6767
  353MOL0    Cl48621   8.752  12.567   3.728  0.1449  0.1689 -0.0859
  353MOL0     C48622   7.821  11.954   3.254  0.3768  0.1604  0.4133
  353MOL0     C48623   7.718  11.859   3.221  0.7869  0.6294 -0.2494
  353MOL0     O48624   7.647  11.690   2.895 -0.2630  0.3490  0.0925
  353MOL0     C48625   7.440  11.499   3.110  0.1933  0.5391 -0.3408
  353MOL0     C48626   7.350  11.393   3.124  1.1174 -0.5947  0.7707
  353MOL0     N48627   6.619  11.494   3.041  0.5118 -0.3631  1.3284
  353MOL0     N48628   6.496  11.483   3.034  0.2072  0.1988 -0.1578
  353MOL0     C48629   5.541  10.563   3.067  0.8367 -0.6917  0.2792
  353MOL0     C48630   5.485  10.441   3.038  0.5500 -0.0017  0.1522
  353MOL0     C48631   5.375  10.028   2.930  0.3058  0.6088  0.2766
  353MOL0     C48632   5.416   9.945   3.034  0.1745 -0.6287  0.5992
  353MOL0     C48633   5.355   9.819   3.060  0.5326 -0.9129 -0.3524
  353MOL0     C48634   5.269   9.766   2.964 -0.2580 -0.2420 -0.1976
  353MOL0     O48635   5.217   9.647   3.004  0.7500  0.1642 -0.6528
  353MOL0     C48636   5.120   9.583   2.916  0.3655  0.1082 -0.0335
  353MOL0     C48637   5.198   9.524   2.795  0.6672  0.4222 -0.8681
  353MOL0     C48638   5.106   9.465   2.695 -0.4844  0.6800 -0.2877
  353MOL0     C48639   4.993   9.378   2.748 -0.2322  0.2174  0.1452
  353MOL0     C48640   4.950   9.290   2.639 -0.4094  0.1758 -0.1096
  353MOL0     C48641   4.926   9.227   2.546 -0.6455 -0.4084  0.1200
  353MOL0     C48642   5.235   9.845   2.852  0.5221 -0.3904 -0.1154
  353MOL0     C48643   5.285   9.971   2.831  1.0205 -0.1332 -0.8009
  353MOL0     C48644   5.223  10.061   2.721 -0.8926  0.5843 -0.2996
  353MOL0     H48645   5.775  10.250   2.993  0.8813 -0.9439  2.6641
  353MOL0     H48646   5.873  10.482   3.051  0.4691  0.8273  2.5985
  353MOL0     H48647   5.902  10.687   2.988 -0.5172  2.5922 -3.4334
  353MOL0     H48648   5.908  10.723   3.173 -3.3287  0.5140  0.8954
  353MOL0     H48649   5.831  10.913   2.949  2.6775  3.0184 -1.2418
  353MOL0     H48650   5.841  10.955   3.119 -2.2703 -0.7104 -0.0285
  353MOL0     H48651   6.101  10.883   3.063 -0.9658 -1.7949 -0.4381
  353MOL0     H48652   6.039  10.880   2.901 -0.8800  1.8502 -0.6790
  353MOL0     H48653   5.976  11.120   2.900 -2.5000  1.2194  2.1808
  353MOL0     H48654   6.018  11.145   3.058 -1.6985  1.1355 -0.8496
  353MOL0     H48655   6.218  11.072   2.844  2.7449 -1.4149  1.6545
  353MOL0     H48656   6.265  11.026   2.994  2.4737  1.1264 -1.8471
  353MOL0     H48657   6.347  11.252   2.925  0.4579  2.6073  0.8066
  353MOL0     H48658   6.184  11.306   2.941 -2.2861 -0.9600  0.6086
  353MOL0     H48659   6.336  11.172   3.163 -1.1646 -0.9240  1.5603
  353MOL0     H48660   6.174  11.225   3.168  0.0603  2.9820  2.4010
  353MOL0     H48661   6.270  11.470   3.116  0.3825 -0.5093 -0.8781
  353MOL0     H48662   6.319  11.390   3.276  1.3364  0.7429 -1.2437
  353MOL0     H48663   6.576  11.322   3.304 -0.5798 -0.5550 -0.6217
  353MOL0     H48664   6.832  11.414   3.300  1.8086  0.4153 -1.1138
  353MOL0     H48665   6.842  11.545   3.182  0.8619 -0.6318 -0.3596
  353MOL0     H48666   6.845  11.244   3.111  1.2948 -0.1279  3.0780
  353MOL0     H48667   6.899  11.382   3.005  1.5732  1.5087 -0.6253
  353MOL0     H48668   7.091  11.407   3.166  1.7227 -1.2654  0.7688
  353MOL0     H48669   7.062  11.238   3.227 -1.1263  0.7541  0.4638
  353MOL0     H48670   7.034  11.148   2.998 -3.2087  1.8908 -0.4737
  353MOL0     H48671   7.103  11.306   2.940 -1.7839 -0.0647  0.4636
  353MOL0     H48672   7.400  11.239   2.824 -0.5977 -0.7857  0.9694
  353MOL0     H48673   7.518  11.352   2.696 -2.7965 -0.6557  1.1607
  353MOL0     H48674   7.664  11.426   2.758  0.2538  1.1628 -1.3600
  353MOL0     H48675   7.533  11.532   2.702  0.5110 -1.0609 -0.8456
  353MOL0     H48676   7.915  11.631   3.062  1.9954  0.5145 -0.2686
  353MOL0     H48677   8.093  11.779   3.155 -0.5556 -2.3769  2.9561
  353MOL0     H48678   8.203  11.904   3.364  0.2443 -1.1491 -2.0002
  353MOL0     H48679   8.232  11.963   3.194 -0.8525 -0.7959 -0.4364
  353MOL0     H48680   8.206  12.140   3.427 -0.5692 -1.6883 -0.4356
  353MOL0     H48681   8.368  12.065   3.384  3.1970  3.5505 -0.9659
  353MOL0     H48682   8.201  12.274   3.255 -0.6014 -1.5805  0.6135
  353MOL0     H48683   8.274  12.173   3.136  0.3312  2.1699 -1.0464
  353MOL0     H48684   8.424  12.352   3.169 -2.3632 -1.9188 -1.1300
  353MOL0     H48685   8.504  12.225   3.241  0.9217  1.6016  0.6205
  353MOL0     H48686   8.316  12.417   3.396  0.6960  0.5997  1.6228
  353MOL0     H48687   8.413  12.293   3.471  0.9186 -2.1533 -2.0002
  353MOL0     H48688   8.478  12.562   3.372  2.0475 -0.0302 -4.3800
  353MOL0     H48689   8.622  12.453   3.348 -1.5560 -3.5990 -1.1286
  353MOL0     H48690   8.620  12.382   3.563  1.3307  0.7111  0.2276
  353MOL0     H48691   8.507  12.489   3.631  0.2251 -0.3840 -0.5584
  353MOL0     H48692   8.638  12.689   3.566  0.3147 -0.5805 -0.4087
  353MOL0     H48693   8.768  12.591   3.491 -0.1217  0.8841 -1.6139
  353MOL0     H48694   7.781  12.045   3.296  1.6504  1.1008 -0.3428
  353MOL0     H48695   7.613  11.856   3.247  1.1692  0.0913  1.3768
  353MOL0     H48696   7.440  11.577   3.185  0.0489  1.1649 -0.9861
  353MOL0     H48697   7.294  11.366   3.213 -1.8846  1.4734 -0.3175
  353MOL0     H48698   5.485  10.655   3.082  2.6397  0.7257 -1.2205
  353MOL0     H48699   5.380  10.418   3.030  0.4905  0.3948 -0.2745
  353MOL0     H48700   5.501   9.984   3.090  0.9322  2.4917 -2.3683
  353MOL0     H48701   5.381   9.756   3.143 -1.8435 -2.3189 -0.5761
  353MOL0     H48702   5.073   9.504   2.974  2.0348 -2.7070 -2.2405
  353MOL0     H48703   5.040   9.653   2.892  0.0746 -0.1712  0.1169
  353MOL0     H48704   5.276   9.458   2.834  0.8948  0.7332 -0.7887
  353MOL0     H48705   5.263   9.595   2.742  1.8826 -1.6075 -2.2475
  353MOL0     H48706   5.062   9.540   2.628 -0.3363  3.1352  2.1913
  353MOL0     H48707   5.172   9.402   2.635  0.5686  0.8393  0.6635
  353MOL0     H48708   4.906   9.433   2.785 -0.9002 -0.0111 -1.0213
  353MOL0     H48709   5.026   9.311   2.828 -3.1963 -1.2208  0.2966
  353MOL0     H48710   4.886   9.180   2.458  2.0567 -2.1572 -0.2809
  353MOL0     H48711   5.167   9.791   2.788  0.3575 -0.1567 -0.1379
  353MOL0     H48712   5.131  10.015   2.683 -1.5683  1.2855  0.4404
  353MOL0     H48713   5.178  10.149   2.769  0.6783  2.6501 -2.4129
  353MOL0     H48714   5.290  10.092   2.641 -1.1620  0.6214 -0.5136
  354MOL0     O48715   9.549   5.435   2.408  0.2252  1.0995  0.9317
  354MOL0     C48716   9.543   5.338   2.324 -0.3584 -0.6034  0.5396
  354MOL0     O48717   9.644   5.248   2.287  0.6109 -0.5067  0.3417
  354MOL0     C48718   9.733   5.207   2.385  0.7324 -0.3020 -0.1149
  354MOL0     C48719   9.867   5.173   2.351  0.3143  0.5153  0.6515
  354MOL0     C48720   9.953   5.122   2.448 -1.3709 -1.3317  0.1983
  354MOL0     C48721   9.911   5.122   2.577 -0.4035  0.7622 -0.9480
  354MOL0     O48722  10.002   5.107   2.681  0.0037 -0.1877  0.2099
  354MOL0     C48723  10.102   5.014   2.685  0.9023  0.7988 -0.1176
  354MOL0     C48724  10.052   4.878   2.657 -0.7977 -0.1467  0.0117
  354MOL0     C48725   9.925   4.828   2.739  0.1841  1.1470  0.0625
  354MOL0     C48726   9.918   4.673   2.762  0.6498  0.3882 -0.0140
  354MOL0     C48727   9.907   4.596   2.629 -0.6246 -0.2999 -0.6787
  354MOL0     C48728   9.912   4.447   2.647 -0.4685  0.9519 -0.5281
  354MOL0     C48729   9.898   4.376   2.512  0.6920  0.7358  0.5358
  354MOL0     C48730   9.913   4.230   2.542  0.6734 -1.1143  0.0362
  354MOL0     N48731   9.887   4.139   2.427  0.3132  0.4854 -0.1181
  354MOL0     C48732   9.792   4.151   2.327 -0.0728 -0.3058  0.1565
  354MOL0     C48733   9.799   4.034   2.255  1.1620 -1.1485 -0.1668
  354MOL0     C48734   9.724   4.001   2.135  0.3463 -1.1149  0.6120
  354MOL0     C48735   9.613   3.895   2.149  0.6494 -0.4247 -0.2321
  354MOL0     C48736   9.658   3.749   2.132 -0.3510  0.9786  0.0201
  354MOL0     C48737   9.572   3.635   2.191 -0.0084  0.0690 -0.1465
  354MOL0     O48738   9.450   3.620   2.117  0.2015 -0.9198  0.0869
  354MOL0     C48739   9.431   3.590   1.983 -0.0648  0.9546 -0.0666
  354MOL0     C48740   9.331   3.651   1.909  0.1659 -0.0131  0.2536
  354MOL0     C48741   9.300   3.610   1.780 -0.7199  0.0984 -0.0678
  354MOL0     C48742   9.181   3.672   1.719  0.1004 -0.8194  0.5025
  354MOL0     C48743   9.377   3.508   1.712  0.0295  0.9424  0.3163
  354MOL0     C48744   9.364   3.470   1.562 -0.2113  0.3164  0.3877
  354MOL0     O48745   9.411   3.339   1.530 -0.1305 -0.3881  0.6210
  354MOL0     C48746   9.477   3.331   1.416 -0.2096  1.5863  0.3071
  354MOL0     C48747   9.450   3.216   1.341  0.9758 -0.2115 -0.9575
  354MOL0     C48748   9.507   3.199   1.215  0.0830  0.0498 -0.4796
  354MOL0     C48749   9.608   3.284   1.168  0.2909 -0.6235  0.3893
  354MOL0     O48750   9.657   3.250   1.047  0.2009  0.2547  1.0973
  354MOL0     C48751   9.676   3.359   0.958 -0.3920  0.2993  0.2873
  354MOL0     C48752   9.549   3.370   0.863 -0.2020  0.0365 -0.4584
  354MOL0     C48753   9.603   3.447   0.742  0.8504 -0.2041 -0.4641
  354MOL0     C48754   9.493   3.444   0.633  0.9488 -0.2986  0.6524
  354MOL0     C48755   9.536   3.518   0.515  0.7481 -0.3091  0.1259
  354MOL0     C48756   9.615   3.432   0.412  0.2157 -0.5141 -0.0507
  354MOL0     C48757   9.687   3.522   0.306  0.9803 -0.8136 -0.2311
  354MOL0     C48758   9.807   3.464   0.240 -0.0018  0.2423  0.6233
  354MOL0    Cl48759   9.785   3.292   0.188 -0.6927 -0.2327 -0.2312
  354MOL0     C48760   9.644   3.397   1.252 -0.1202  0.3603 -0.0934
  354MOL0     C48761   9.569   3.418   1.368  0.0601  0.0086 -0.9026
  354MOL0     O48762   9.338   3.561   1.483  0.1855 -0.4647  0.3222
  354MOL0     C48763   9.489   3.458   1.783  0.3481 -0.0490  0.6789
  354MOL0     C48764   9.512   3.499   1.917 -0.2158 -0.2310 -0.3679
  354MOL0     N48765   9.901   3.961   2.310  0.9836  0.8775 -0.1004
  354MOL0     N48766   9.948   4.023   2.413 -0.1260  0.1757  0.2061
  354MOL0     C48767   9.776   5.138   2.612  0.3196 -0.0486 -0.6731
  354MOL0     C48768   9.684   5.182   2.515  1.0914 -0.1676 -0.4174
  354MOL0     C48769   9.425   5.324   2.247  1.3148  0.5009  1.0972
  354MOL0     C48770   9.445   5.287   2.117  0.8415  0.7693 -0.6207
  354MOL0     C48771   9.337   5.280   2.023 -0.2674 -0.3176  0.3087
  354MOL0     C48772   9.204   5.300   2.063  0.8017 -0.0872 -0.6292
  354MOL0     O48773   9.094   5.306   1.969 -0.0691  0.0722 -0.4872
  354MOL0     C48774   9.125   5.395   1.855 -0.6203 -0.0687  1.0493
  354MOL0     C48775   9.188   5.322   1.729  0.0600 -0.5649 -1.3464
  354MOL0     C48776   9.124   5.176   1.706 -0.5600  0.3551 -0.0494
  354MOL0     C48777   9.114   5.150   1.561  0.2032 -0.0932 -0.1384
  354MOL0     C48778   9.249   5.125   1.507 -0.5031  0.4611  0.5060
  354MOL0     C48779   9.365   5.101   1.456  0.9178 -0.3734  0.6278
  354MOL0     C48780   9.184   5.318   2.203 -0.1364 -1.0436  0.6149
  354MOL0     C48781   9.294   5.343   2.282  0.2692  0.2016 -1.7600
  354MOL0     C48782   9.260   5.374   2.430  0.5916 -0.4875 -0.5830
  354MOL0     H48783   9.902   5.199   2.252 -1.7212  3.2577  0.5433
  354MOL0     H48784  10.057   5.098   2.429 -0.1137  2.2731  1.5269
  354MOL0     H48785  10.147   5.020   2.784  3.1145 -1.1348 -0.9335
  354MOL0     H48786  10.183   5.047   2.620  0.0069 -1.3794 -2.5267
  354MOL0     H48787  10.026   4.871   2.550 -2.8810  4.2076  0.0106
  354MOL0     H48788  10.137   4.812   2.675  1.7040  1.0793 -5.2769
  354MOL0     H48789   9.933   4.872   2.839 -2.3914  0.2150  0.7437
  354MOL0     H48790   9.831   4.863   2.695 -2.3725 -3.5254  1.1687
  354MOL0     H48791  10.004   4.644   2.824 -2.1871 -0.6667  3.7752
  354MOL0     H48792   9.831   4.656   2.826 -0.8075  0.1263 -1.9891
  354MOL0     H48793   9.991   4.621   2.564  0.8427  1.6931  1.8015
  354MOL0     H48794   9.815   4.623   2.576 -3.9663 -2.7664  3.2781
  354MOL0     H48795  10.002   4.417   2.702 -0.5239  1.3296 -0.2217
  354MOL0     H48796   9.824   4.421   2.706 -0.1143 -0.8424 -0.7333
  354MOL0     H48797   9.985   4.406   2.454  1.9809  0.6655  2.3423
  354MOL0     H48798   9.801   4.388   2.462  0.9659 -2.0605 -0.8447
  354MOL0     H48799  10.015   4.205   2.573 -0.2159 -0.5781  3.8928
  354MOL0     H48800   9.840   4.206   2.620  1.1391 -0.0614  0.8234
  354MOL0     H48801   9.737   4.242   2.308  1.7796  0.7268 -0.5009
  354MOL0     H48802   9.799   3.957   2.068  0.0565  0.2605 -0.6592
  354MOL0     H48803   9.677   4.090   2.093 -0.7191 -1.4455  1.0764
  354MOL0     H48804   9.577   3.907   2.252 -0.1654 -1.5541 -0.3620
  354MOL0     H48805   9.530   3.906   2.078  1.6836  2.6670 -1.1195
  354MOL0     H48806   9.672   3.738   2.024  2.8645  1.2793  0.2973
  354MOL0     H48807   9.758   3.743   2.176  0.3247 -1.4931 -1.6395
  354MOL0     H48808   9.624   3.539   2.190  0.7829  0.4945 -0.7802
  354MOL0     H48809   9.545   3.662   2.293  1.5218  1.7249 -0.1301
  354MOL0     H48810   9.280   3.734   1.957 -0.1347 -0.4169  0.6326
  354MOL0     H48811   9.105   3.700   1.793 -0.4630 -1.7626  0.3065
  354MOL0     H48812   9.145   3.597   1.647  1.2653 -2.3519  1.4330
  354MOL0     H48813   9.221   3.760   1.668 -2.1630 -1.1004 -2.0223
  354MOL0     H48814   9.381   3.134   1.361 -2.2878  2.0366 -2.0971
  354MOL0     H48815   9.497   3.101   1.171 -0.8672  0.7854 -1.9708
  354MOL0     H48816   9.698   3.455   1.006 -3.4978 -0.4848  3.7703
  354MOL0     H48817   9.768   3.324   0.910 -0.3751  0.0448  0.5011
  354MOL0     H48818   9.503   3.275   0.837 -0.7630 -0.3948  1.8977
  354MOL0     H48819   9.470   3.423   0.917  0.7354  1.6316 -0.5886
  354MOL0     H48820   9.694   3.409   0.694 -0.7064  1.8536 -5.7421
  354MOL0     H48821   9.623   3.549   0.777  0.1672  0.2499 -1.3625
  354MOL0     H48822   9.400   3.489   0.668  1.6108  1.9849 -0.3584
  354MOL0     H48823   9.472   3.345   0.591  1.4952  1.4846 -4.5723
  354MOL0     H48824   9.441   3.554   0.473 -0.8222 -4.1315  0.0281
  354MOL0     H48825   9.600   3.599   0.552 -0.3001 -0.6181  2.9053
  354MOL0     H48826   9.546   3.361   0.365  1.9643 -1.8673 -0.6843
  354MOL0     H48827   9.688   3.378   0.474 -1.6314 -1.5442  1.3102
  354MOL0     H48828   9.707   3.616   0.358 -0.8941 -0.8760  0.6960
  354MOL0     H48829   9.602   3.540   0.240  1.8565 -1.6526 -1.6217
  354MOL0     H48830   9.896   3.463   0.303  0.8303 -2.1932 -0.4471
  354MOL0     H48831   9.837   3.525   0.154  3.7280  2.3495  3.1168
  354MOL0     H48832   9.725   3.465   1.226  0.1813 -0.0212 -0.1660
  354MOL0     H48833   9.582   3.511   1.422  4.2402 -0.7756 -0.2011
  354MOL0     H48834   9.557   3.389   1.733 -0.7023 -3.0979  3.1345
  354MOL0     H48835   9.591   3.446   1.968  0.2975  0.6732 -0.2019
  354MOL0     H48836   9.733   5.125   2.711 -0.2256  2.4517 -0.4960
  354MOL0     H48837   9.586   5.216   2.547  0.2625 -2.6145 -0.1119
  354MOL0     H48838   9.544   5.270   2.077  0.1703  0.6758 -2.3420
  354MOL0     H48839   9.371   5.244   1.927 -0.3846 -0.4062  0.3010
  354MOL0     H48840   9.034   5.448   1.825 -0.1053  0.7980  0.9691
  354MOL0     H48841   9.195   5.469   1.894 -0.7655 -0.2956  1.7693
  354MOL0     H48842   9.296   5.311   1.741  0.3291 -2.3653 -4.3970
  354MOL0     H48843   9.178   5.391   1.645 -0.1947  1.6245  0.3781
  354MOL0     H48844   9.193   5.108   1.758 -1.3323 -0.5049 -0.1144
  354MOL0     H48845   9.024   5.162   1.747 -0.9942 -0.0564 -1.2198
  354MOL0     H48846   9.084   5.241   1.508  1.9550  0.4020 -0.3729
  354MOL0     H48847   9.045   5.066   1.547 -1.8953  1.8163 -1.9322
  354MOL0     H48848   9.461   5.084   1.411 -0.1618 -2.4683 -1.0512
  354MOL0     H48849   9.083   5.344   2.235  0.6634 -0.0941  2.4866
  354MOL0     H48850   9.153   5.376   2.454  1.2157 -1.7930  2.9459
  354MOL0     H48851   9.305   5.301   2.498 -2.7468 -2.7708 -0.5914
  354MOL0     H48852   9.297   5.470   2.466 -1.1272 -0.5649  1.6803
  355MOL0     O48853   4.352   1.193   1.834 -1.3027 -0.4059 -0.2461
  355MOL0     C48854   4.319   1.152   1.942  0.6771  0.6906 -1.0311
  355MOL0     O48855   4.385   1.052   2.015 -0.0181 -0.2361  0.6122
  355MOL0     C48856   4.506   1.003   1.986 -0.1906 -0.2610  0.2867
  355MOL0     C48857   4.618   1.074   1.933 -0.8763  0.1858 -0.8361
  355MOL0     C48858   4.742   1.009   1.913 -0.0185 -0.4815  0.1511
  355MOL0     C48859   4.767   0.876   1.951  0.1410 -0.0015  1.0694
  355MOL0     O48860   4.888   0.816   1.927  0.2944  0.2092 -0.6172
  355MOL0     C48861   4.961   0.775   2.046  0.5935  0.1609 -0.7580
  355MOL0     C48862   5.092   0.838   2.057 -0.2931  0.1263  0.4493
  355MOL0     C48863   5.188   0.792   1.937  0.7157 -0.8040  0.2773
  355MOL0     C48864   5.326   0.858   1.940 -0.8018  0.6906 -0.6619
  355MOL0     C48865   5.443   0.791   1.860  0.8565 -0.2985  0.4562
  355MOL0     C48866   5.395   0.801   1.712  0.9080  0.4857  0.1174
  355MOL0     C48867   5.316   0.688   1.657 -0.0872  0.3765  0.0980
  355MOL0     C48868   5.357   0.628   1.524  0.1159 -0.8786  0.6576
  355MOL0     N48869   5.378   0.742   1.436  0.1618 -0.0645  0.3689
  355MOL0     C48870   5.266   0.806   1.396  0.3738  0.3266  0.3504
  355MOL0     C48871   5.316   0.897   1.304 -0.0379 -0.4698 -0.3138
  355MOL0     C48872   5.227   0.981   1.207 -0.1124 -0.7389  0.3383
  355MOL0     C48873   5.146   0.888   1.120  0.0328  0.7556  0.6385
  355MOL0     C48874   5.040   0.968   1.046  0.5477  0.8360  0.7086
  355MOL0     C48875   4.992   0.902   0.910 -0.0551  0.2793 -0.2154
  355MOL0     O48876   5.077   0.959   0.815  0.4417  0.0163  0.3254
  355MOL0     C48877   5.036   0.949   0.686  0.2847  1.5019  1.2204
  355MOL0     C48878   5.096   1.042   0.609  0.0428 -0.5063 -0.6520
  355MOL0     C48879   5.078   1.047   0.474 -0.4836 -0.3212  0.6176
  355MOL0     C48880   5.154   1.154   0.399  0.4698  0.4591 -0.2160
  355MOL0     C48881   4.990   0.951   0.414 -0.3777 -0.0282  0.0204
  355MOL0     C48882   4.951   0.958   0.279 -0.6969  0.8031 -0.1855
  355MOL0     O48883   5.048   0.967   0.188 -0.4667  0.3273  0.0346
  355MOL0     C48884   4.999   0.955   0.056  0.0541 -0.0706 -0.8563
  355MOL0     C48885   4.919   1.058   0.008 -0.6190  0.1355 -1.4889
  355MOL0     C48886   4.866   1.052  -0.119  0.0156 -0.3948 -0.5038
  355MOL0     C48887   4.892   0.936  -0.199  1.4778 -1.8155  0.0515
  355MOL0     O48888   4.846   0.930  -0.330 -0.8871  0.8054 -0.3278
  355MOL0     C48889   4.700   0.941  -0.364 -0.5738  0.5006  0.5063
  355MOL0     C48890   4.674   0.901  -0.505  0.2976 -0.1804  0.1626
  355MOL0     C48891   4.715   0.760  -0.540 -0.3733 -0.3590  0.5383
  355MOL0     C48892   4.652   0.660  -0.437 -0.3327 -0.2530  0.1014
  355MOL0     C48893   4.662   0.517  -0.464  0.1871 -0.7557 -0.1170
  355MOL0     C48894   4.616   0.467  -0.602 -0.2799  0.5031  0.7910
  355MOL0     C48895   4.652   0.315  -0.629  0.4555 -0.4792  0.0600
  355MOL0     C48896   4.657   0.286  -0.782 -0.0459  0.0633  0.1141
  355MOL0    Cl48897   4.490   0.311  -0.823 -0.4244  0.0378  0.8022
  355MOL0     C48898   4.967   0.826  -0.151  0.2353 -0.6325  0.3003
  355MOL0     C48899   5.028   0.845  -0.026  0.6295  0.6721 -0.5412
  355MOL0     O48900   4.833   0.941   0.270  0.3140 -0.0886  0.3431
  355MOL0     C48901   4.937   0.845   0.496  0.1184 -0.3942  1.2927
  355MOL0     C48902   4.950   0.854   0.632  0.1346  0.0830 -0.5273
  355MOL0     N48903   5.450   0.895   1.311 -0.4071  0.8126  1.0327
  355MOL0     N48904   5.487   0.797   1.377 -0.0544 -0.1549 -0.1225
  355MOL0     C48905   4.666   0.811   2.010  0.0167  0.0540 -0.0013
  355MOL0     C48906   4.536   0.865   2.021 -1.1573  0.3790  0.4861
  355MOL0     C48907   4.187   1.193   2.002  0.5905 -1.0219  0.5640
  355MOL0     C48908   4.083   1.219   1.910 -0.8338 -0.3142  0.7307
  355MOL0     C48909   3.951   1.233   1.960  1.6862  0.3901 -0.1239
  355MOL0     C48910   3.916   1.232   2.097 -0.0466 -0.0542 -0.1019
  355MOL0     O48911   3.785   1.249   2.134  0.2606 -0.2424  0.4603
  355MOL0     C48912   3.763   1.303   2.263  1.2162 -0.5559 -0.5948
  355MOL0     C48913   3.625   1.369   2.249  0.3122 -1.0213  0.3077
  355MOL0     C48914   3.565   1.437   2.367 -1.0559 -0.8421  0.0499
  355MOL0     C48915   3.543   1.340   2.480  0.4208 -0.7632 -0.8304
  355MOL0     C48916   3.500   1.414   2.597 -0.4673 -0.6559  0.0465
  355MOL0     C48917   3.470   1.483   2.694  0.4420 -0.4977  0.2618
  355MOL0     C48918   4.022   1.211   2.183 -1.1278 -0.4896 -0.4008
  355MOL0     C48919   4.153   1.195   2.142  0.2077 -0.8939 -0.0949
  355MOL0     C48920   4.247   1.196   2.260  0.2655  0.2191  0.4646
  355MOL0     H48921   4.604   1.179   1.909  0.5484  0.3359 -1.0615
  355MOL0     H48922   4.817   1.075   1.871 -0.0816 -1.3690 -1.4010
  355MOL0     H48923   4.974   0.667   2.037  1.4978  0.2796 -0.9499
  355MOL0     H48924   4.895   0.792   2.131  0.5293  1.0151 -0.9665
  355MOL0     H48925   5.079   0.946   2.050 -0.2167  0.0466 -1.5935
  355MOL0     H48926   5.141   0.818   2.153  3.5469  1.5649 -1.0268
  355MOL0     H48927   5.203   0.683   1.940  0.3166 -0.8404  2.7992
  355MOL0     H48928   5.138   0.818   1.844  0.7150  1.1719  0.7806
  355MOL0     H48929   5.312   0.965   1.922 -0.9124  0.6841 -0.6154
  355MOL0     H48930   5.352   0.854   2.046 -0.7384  1.4948 -0.6348
  355MOL0     H48931   5.449   0.687   1.892 -4.9019 -0.9095  0.5484
  355MOL0     H48932   5.532   0.852   1.878  0.4046  0.5674 -0.1394
  355MOL0     H48933   5.336   0.891   1.693  1.5006  0.5937 -1.3554
  355MOL0     H48934   5.486   0.808   1.652  1.5281 -1.6261  0.7354
  355MOL0     H48935   5.212   0.721   1.656  0.0178  0.8227 -2.3194
  355MOL0     H48936   5.323   0.612   1.735  1.8063  0.1065 -0.2894
  355MOL0     H48937   5.449   0.569   1.536  1.8517  1.0434 -1.9873
  355MOL0     H48938   5.281   0.558   1.488 -0.9475  1.5497 -2.1951
  355MOL0     H48939   5.166   0.778   1.427  0.8365 -1.9028 -0.0522
  355MOL0     H48940   5.291   1.021   1.128 -2.2396  1.1874 -0.5150
  355MOL0     H48941   5.163   1.058   1.252  1.3594  1.9969 -1.9408
  355MOL0     H48942   5.207   0.849   1.038 -0.6630 -1.6190  1.1718
  355MOL0     H48943   5.085   0.809   1.165 -2.1032  0.9213 -1.7461
  355MOL0     H48944   4.955   0.979   1.114 -3.0273 -1.0002 -3.0870
  355MOL0     H48945   5.085   1.066   1.024  2.4061 -0.1447 -0.1124
  355MOL0     H48946   5.006   0.793   0.908  2.9202  0.5974 -0.8882
  355MOL0     H48947   4.886   0.918   0.889 -0.4675 -1.2314  0.5383
  355MOL0     H48948   5.166   1.114   0.650 -1.6730  0.1367  1.3549
  355MOL0     H48949   5.071   1.211   0.356  1.1673  0.7817 -1.1420
  355MOL0     H48950   5.234   1.116   0.335  0.4207  1.8991 -1.1844
  355MOL0     H48951   5.185   1.238   0.462 -2.7324  0.5989  1.3678
  355MOL0     H48952   4.899   1.146   0.069  0.6924 -1.0673  0.8518
  355MOL0     H48953   4.808   1.134  -0.160  1.8180  1.1104 -0.2148
  355MOL0     H48954   4.641   0.881  -0.293  3.3476 -3.5783  0.7705
  355MOL0     H48955   4.674   1.047  -0.359 -2.4526  0.0421  1.1804
  355MOL0     H48956   4.570   0.914  -0.534  0.2428 -0.7435  0.1061
  355MOL0     H48957   4.737   0.972  -0.558 -0.1565 -0.3468 -0.6050
  355MOL0     H48958   4.824   0.764  -0.530 -0.0251  2.6234 -2.7974
  355MOL0     H48959   4.701   0.757  -0.648  0.4179  2.0288  0.3137
  355MOL0     H48960   4.546   0.690  -0.432  0.2391  1.8327  1.3756
  355MOL0     H48961   4.702   0.664  -0.340  0.7751 -0.7167 -0.4426
  355MOL0     H48962   4.761   0.475  -0.442  0.5260 -0.4761 -1.0621
  355MOL0     H48963   4.603   0.473  -0.383 -0.1673 -0.4745 -0.2227
  355MOL0     H48964   4.655   0.530  -0.682  1.6923 -2.9167 -1.2101
  355MOL0     H48965   4.508   0.469  -0.615 -0.3495 -0.8072  1.0239
  355MOL0     H48966   4.576   0.257  -0.575 -0.9491  0.8227 -0.4562
  355MOL0     H48967   4.748   0.289  -0.584 -0.0457 -0.3569  1.2442
  355MOL0     H48968   4.685   0.184  -0.810 -2.4117 -0.5414 -0.2417
  355MOL0     H48969   4.710   0.365  -0.835  0.7423  1.7136  3.1209
  355MOL0     H48970   4.979   0.743  -0.220  4.5326  1.5548 -1.9936
  355MOL0     H48971   5.096   0.768   0.011  2.2275  2.7965  1.2023
  355MOL0     H48972   4.872   0.769   0.454  0.8690 -1.4740  2.0223
  355MOL0     H48973   4.898   0.789   0.700  3.0362  0.3934  2.2202
  355MOL0     H48974   4.684   0.709   2.044  1.5954 -0.3108 -1.7297
  355MOL0     H48975   4.451   0.813   2.062 -2.6823  0.5337 -2.2094
  355MOL0     H48976   4.100   1.224   1.803 -1.8091 -4.5472  0.1917
  355MOL0     H48977   3.877   1.244   1.881 -0.2766 -0.5593  1.4980
  355MOL0     H48978   3.767   1.214   2.326 -0.9425 -1.5951 -1.8349
  355MOL0     H48979   3.841   1.369   2.304 -0.6567  0.8011  0.9414
  355MOL0     H48980   3.557   1.291   2.214 -0.8442 -0.6392  1.6446
  355MOL0     H48981   3.627   1.447   2.172  1.4701 -0.8391  0.5001
  355MOL0     H48982   3.635   1.517   2.393 -1.1770 -0.2162 -1.4449
  355MOL0     H48983   3.471   1.484   2.339 -2.5316 -3.5859  0.0675
  355MOL0     H48984   3.639   1.291   2.502  0.5530 -1.1348 -2.1863
  355MOL0     H48985   3.470   1.261   2.460  3.0925 -3.0201 -2.4476
  355MOL0     H48986   3.445   1.529   2.787  1.7909 -3.4609  2.2546
  355MOL0     H48987   4.009   1.206   2.290  0.9918  1.2845 -0.0017
  355MOL0     H48988   4.225   1.122   2.337 -0.4150 -0.1517 -0.0742
  355MOL0     H48989   4.348   1.186   2.219  0.0761  1.7820 -0.4961
  355MOL0     H48990   4.235   1.290   2.316 -1.7032 -1.1017  2.4294
  356MOL0     O48991   3.076   0.489   2.064  0.6237 -1.0475 -0.1721
  356MOL0     C48992   2.962   0.500   2.022  0.4875  0.2968 -0.1006
  356MOL0     O48993   2.925   0.531   1.895 -1.2883  0.1848 -0.2179
  356MOL0     C48994   3.023   0.536   1.791  0.0633 -0.0357  0.3255
  356MOL0     C48995   2.976   0.611   1.674  0.3404 -0.8842  0.0860
  356MOL0     C48996   3.055   0.612   1.554 -0.1788 -0.1171 -0.1115
  356MOL0     C48997   3.171   0.536   1.548  0.1091  0.3833  0.7768
  356MOL0     O48998   3.253   0.517   1.431  0.5717  0.2311  0.1355
  356MOL0     C48999   3.279   0.630   1.340  0.5153 -0.1312  0.2236
  356MOL0     C49000   3.313   0.754   1.417  0.0287 -0.4106 -0.0589
  356MOL0     C49001   3.433   0.735   1.522 -0.3955  0.1237  0.2946
  356MOL0     C49002   3.547   0.651   1.467 -0.9012 -0.8495  0.1068
  356MOL0     C49003   3.604   0.718   1.347  0.2696  0.9456  0.7502
  356MOL0     C49004   3.668   0.618   1.242  0.2714 -0.4575 -0.6058
  356MOL0     C49005   3.771   0.674   1.144 -0.0645  0.6725  0.2954
  356MOL0     C49006   3.831   0.557   1.062 -0.5667 -0.4306 -0.5185
  356MOL0     N49007   3.909   0.610   0.943 -0.2377  1.1390 -1.2598
  356MOL0     C49008   4.041   0.613   0.908  0.0618  0.5802 -0.9294
  356MOL0     C49009   4.053   0.697   0.802  0.6384 -0.5825  0.4279
  356MOL0     C49010   4.191   0.753   0.764  1.1877  0.1181 -0.2086
  356MOL0     C49011   4.180   0.901   0.721  0.4630 -0.8039 -0.6705
  356MOL0     C49012   4.247   0.930   0.592  0.3671  0.1666  0.9581
  356MOL0     C49013   4.155   0.917   0.482 -0.1417  0.2800  0.3755
  356MOL0     O49014   4.229   0.896   0.353  0.3174 -0.0820 -0.3681
  356MOL0     C49015   4.302   0.997   0.280  0.2047 -0.4642 -0.3138
  356MOL0     C49016   4.258   1.131   0.286  0.3733  0.5437 -0.6839
  356MOL0     C49017   4.330   1.233   0.225  0.4775  1.1349  0.1801
  356MOL0     C49018   4.281   1.372   0.238  0.1724 -0.3576 -0.1870
  356MOL0     C49019   4.455   1.202   0.159 -0.1139  0.2353 -0.2068
  356MOL0     C49020   4.547   1.302   0.092  0.5670  0.8011 -0.4654
  356MOL0     O49021   4.611   1.265  -0.028  0.2500  1.0092  0.0594
  356MOL0     C49022   4.669   1.363  -0.108  0.2018 -0.1871  0.2202
  356MOL0     C49023   4.650   1.364  -0.244 -0.5871 -0.0869  0.4332
  356MOL0     C49024   4.717   1.457  -0.321  0.9359  0.0680 -0.0862
  356MOL0     C49025   4.809   1.548  -0.275 -0.1346 -0.3935  0.2318
  356MOL0     O49026   4.862   1.644  -0.354 -0.2340  0.1474 -0.3841
  356MOL0     C49027   4.765   1.727  -0.420  0.3316 -0.0596  1.1667
  356MOL0     C49028   4.842   1.860  -0.466  0.9076  0.6154 -0.1263
  356MOL0     C49029   4.741   1.960  -0.511 -0.1462 -1.1986  0.0643
  356MOL0     C49030   4.828   2.075  -0.573  0.1171 -1.0378 -0.3423
  356MOL0     C49031   4.942   2.142  -0.494  0.0585 -0.5869 -0.3769
  356MOL0     C49032   4.880   2.220  -0.384  0.5939  0.5287 -0.7651
  356MOL0     C49033   4.973   2.317  -0.317 -0.7914  1.1836 -0.4376
  356MOL0     C49034   4.909   2.420  -0.228  0.0982 -1.7291  0.3624
  356MOL0    Cl49035   5.012   2.560  -0.214 -0.5329  0.1959  0.1197
  356MOL0     C49036   4.827   1.550  -0.137  1.4143  0.0253 -0.6270
  356MOL0     C49037   4.756   1.459  -0.053  0.1273 -0.7584  0.3118
  356MOL0     O49038   4.550   1.412   0.140  0.5181 -0.5218 -1.1851
  356MOL0     C49039   4.487   1.068   0.157  0.2872  0.1528  0.5109
  356MOL0     C49040   4.412   0.966   0.214 -0.8847  0.4373  0.1929
  356MOL0     N49041   3.922   0.725   0.747 -0.2961  0.1681 -0.9747
  356MOL0     N49042   3.843   0.682   0.846 -0.5442  0.2560  0.2109
  356MOL0     C49043   3.207   0.459   1.661  0.6421  0.3854  0.4159
  356MOL0     C49044   3.137   0.455   1.779 -0.0766 -0.5059 -0.5183
  356MOL0     C49045   2.856   0.457   2.112 -0.6951  0.0338 -1.1912
  356MOL0     C49046   2.750   0.386   2.051 -0.9285  0.9796 -0.6741
  356MOL0     C49047   2.647   0.329   2.118  0.6303  0.7476 -1.3109
  356MOL0     C49048   2.641   0.346   2.255  1.3350  0.2823  0.5742
  356MOL0     O49049   2.544   0.283   2.330 -0.4186  0.1655  0.2157
  356MOL0     C49050   2.408   0.262   2.293 -1.0711  0.9521  0.5598
  356MOL0     C49051   2.303   0.348   2.380  0.1225 -0.2464  0.7186
  356MOL0     C49052   2.361   0.484   2.438 -0.1650  0.6943  0.2449
  356MOL0     C49053   2.356   0.597   2.334  0.0821 -0.2519  0.5284
  356MOL0     C49054   2.220   0.631   2.292  0.8966 -0.4428  0.0025
  356MOL0     C49055   2.103   0.648   2.260 -0.2468  0.1641 -0.6387
  356MOL0     C49056   2.743   0.410   2.322 -0.0731 -0.2306 -0.1511
  356MOL0     C49057   2.861   0.454   2.260  0.6192 -0.1661 -0.7883
  356MOL0     C49058   2.975   0.511   2.345 -0.2500  0.4427  0.3102
  356MOL0     H49059   2.878   0.656   1.688  3.0423  5.3776  3.4087
  356MOL0     H49060   3.028   0.665   1.462 -1.0782 -1.8031 -0.8618
  356MOL0     H49061   3.185   0.653   1.288  0.8002 -2.1606 -1.2936
  356MOL0     H49062   3.364   0.610   1.274  1.7668  2.9956  0.7253
  356MOL0     H49063   3.341   0.836   1.350 -0.6251  0.6606  0.9341
  356MOL0     H49064   3.226   0.800   1.467 -0.8596 -1.4792 -0.5839
  356MOL0     H49065   3.465   0.836   1.546 -4.2024  1.9458 -1.4263
  356MOL0     H49066   3.392   0.696   1.616  4.5847 -0.5081  2.4897
  356MOL0     H49067   3.617   0.629   1.548 -0.1429  0.9768 -0.0101
  356MOL0     H49068   3.514   0.555   1.425 -0.4348 -1.0649  0.2241
  356MOL0     H49069   3.680   0.793   1.373 -1.1597  3.2650 -1.3165
  356MOL0     H49070   3.535   0.784   1.293 -0.5524  0.7230  1.5054
  356MOL0     H49071   3.697   0.531   1.301 -2.6779 -1.7747 -0.9515
  356MOL0     H49072   3.581   0.591   1.182 -0.2763 -1.8034  0.7403
  356MOL0     H49073   3.851   0.727   1.198  2.6867 -1.6253 -1.2465
  356MOL0     H49074   3.726   0.745   1.075 -0.5710  2.0837  1.9864
  356MOL0     H49075   3.888   0.496   1.133  1.9358  2.1698 -0.1219
  356MOL0     H49076   3.746   0.498   1.025 -1.1933 -0.5807  1.0859
  356MOL0     H49077   4.120   0.575   0.971 -1.4621 -0.6629  0.3095
  356MOL0     H49078   4.229   0.699   0.677 -2.6726 -1.2911 -1.2159
  356MOL0     H49079   4.258   0.721   0.845 -2.0573 -1.2524  2.1762
  356MOL0     H49080   4.074   0.929   0.718  0.9601  1.1695 -0.6717
  356MOL0     H49081   4.230   0.963   0.795 -1.1047  2.4293 -2.1445
  356MOL0     H49082   4.293   1.029   0.588  1.0699 -0.1782 -0.2637
  356MOL0     H49083   4.323   0.854   0.570  1.0021  1.0601 -0.0354
  356MOL0     H49084   4.093   0.829   0.501  0.8827 -0.9312 -1.4604
  356MOL0     H49085   4.088   1.003   0.473  1.1585  1.3016  0.2276
  356MOL0     H49086   4.169   1.147   0.345  2.0057  1.0777  1.8172
  356MOL0     H49087   4.313   1.436   0.155  3.9840 -0.4382  1.0116
  356MOL0     H49088   4.304   1.414   0.337 -3.1808 -2.2581  1.5787
  356MOL0     H49089   4.172   1.372   0.234  0.2111  0.3825 -2.0133
  356MOL0     H49090   4.592   1.284  -0.290  1.3937 -1.1100 -0.4116
  356MOL0     H49091   4.701   1.465  -0.428 -1.6650 -0.0219  0.2149
  356MOL0     H49092   4.716   1.673  -0.501  0.2101  0.7626  0.6814
  356MOL0     H49093   4.695   1.757  -0.342 -1.1052  2.6256 -0.9782
  356MOL0     H49094   4.904   1.900  -0.384  0.8522  2.7117 -1.0520
  356MOL0     H49095   4.907   1.822  -0.545  4.3195  0.9079  2.2661
  356MOL0     H49096   4.686   1.997  -0.424  3.1767  3.9229  0.4367
  356MOL0     H49097   4.671   1.929  -0.590  1.4695  0.5535 -2.2178
  356MOL0     H49098   4.756   2.151  -0.605  1.2134  0.0086 -0.3767
  356MOL0     H49099   4.878   2.038  -0.662 -2.9092 -1.0465 -2.2000
  356MOL0     H49100   5.012   2.062  -0.466  0.9313 -0.7621 -2.7785
  356MOL0     H49101   4.987   2.203  -0.574 -2.1398 -1.0407 -2.0518
  356MOL0     H49102   4.832   2.156  -0.310  1.7102  0.4718 -0.0651
  356MOL0     H49103   4.798   2.281  -0.424  0.3944 -0.0702 -1.2927
  356MOL0     H49104   5.011   2.372  -0.404 -0.3811 -0.0748 -1.0743
  356MOL0     H49105   5.060   2.269  -0.272  0.5115  3.0379 -0.8715
  356MOL0     H49106   4.888   2.372  -0.132 -3.6596 -2.2454 -0.5618
  356MOL0     H49107   4.811   2.460  -0.256  0.9031  3.6574  3.7586
  356MOL0     H49108   4.883   1.632  -0.094 -0.5959  1.0338  0.2242
  356MOL0     H49109   4.777   1.460   0.053  2.3842 -0.3959 -0.1049
  356MOL0     H49110   4.584   1.044   0.115  0.7973  1.0607  1.1198
  356MOL0     H49111   4.448   0.864   0.213 -0.3168  0.6315 -0.9851
  356MOL0     H49112   3.298   0.404   1.642  0.5673  0.8404 -1.4364
  356MOL0     H49113   3.167   0.385   1.856 -1.5769 -0.8926 -0.2501
  356MOL0     H49114   2.748   0.380   1.942 -0.5054 -0.5219 -0.6121
  356MOL0     H49115   2.567   0.275   2.069 -0.9958 -2.8180  4.4233
  356MOL0     H49116   2.383   0.275   2.187  0.1437 -4.8889 -0.7953
  356MOL0     H49117   2.381   0.157   2.305  0.1951  0.4744 -0.4251
  356MOL0     H49118   2.266   0.286   2.462  0.6878 -3.6626 -1.4255
  356MOL0     H49119   2.213   0.375   2.324 -1.4515 -1.3135  2.6017
  356MOL0     H49120   2.298   0.530   2.515 -1.7072 -0.0812 -0.4927
  356MOL0     H49121   2.453   0.470   2.495  0.4626  1.2941 -0.6073
  356MOL0     H49122   2.414   0.575   2.244  0.6177  0.3595  0.7185
  356MOL0     H49123   2.395   0.686   2.385  2.2955  0.6304 -2.4209
  356MOL0     H49124   2.006   0.691   2.241  0.8664  2.4300 -1.6512
  356MOL0     H49125   2.745   0.406   2.430  0.0358  4.6043  0.2282
  356MOL0     H49126   2.977   0.476   2.448  4.9224 -4.2363 -0.9255
  356MOL0     H49127   3.071   0.466   2.318 -0.7039  0.2341 -1.0199
  356MOL0     H49128   2.983   0.620   2.335 -1.2582  0.3214 -3.1927
  357MOL0     O49129   0.303   5.082   2.397  0.2541  0.9549 -0.2007
  357MOL0     C49130   0.189   5.128   2.379 -0.1943  0.0742  0.3497
  357MOL0     O49131   0.140   5.172   2.259 -0.8243  0.0448 -0.1466
  357MOL0     C49132   0.224   5.177   2.152  0.9273  0.3394 -0.7344
  357MOL0     C49133   0.351   5.233   2.148 -0.2502 -0.8314  0.5706
  357MOL0     C49134   0.421   5.228   2.030  0.8284 -0.2692 -1.0109
  357MOL0     C49135   0.370   5.163   1.913  0.2946  0.3698  0.1495
  357MOL0     O49136   0.446   5.162   1.804  0.1987 -0.3223 -0.6291
  357MOL0     C49137   0.394   5.121   1.681  0.6223 -0.3687 -0.4519
  357MOL0     C49138   0.471   4.989   1.656 -0.0447  0.9325 -0.2501
  357MOL0     C49139   0.464   4.969   1.503 -0.2345 -0.2271  0.2556
  357MOL0     C49140   0.538   4.839   1.472  0.5579 -1.2391 -0.2456
  357MOL0     C49141   0.518   4.824   1.322  0.0529  0.0190  0.7035
  357MOL0     C49142   0.611   4.896   1.226 -0.2483  0.2677  1.2681
  357MOL0     C49143   0.753   4.910   1.291 -0.0262  0.5196  0.1114
  357MOL0     C49144   0.856   4.974   1.195 -0.7672 -0.5451 -0.0365
  357MOL0     N49145   0.818   5.104   1.148  0.0964  0.0673 -0.1123
  357MOL0     C49146   0.788   5.213   1.229  0.4155 -0.1912  0.6008
  357MOL0     C49147   0.759   5.318   1.142 -0.4478  0.4639 -0.8681
  357MOL0     C49148   0.703   5.446   1.181  0.1239 -0.3982  0.1562
  357MOL0     C49149   0.788   5.530   1.279  0.4920  0.3288  1.1780
  357MOL0     C49150   0.905   5.597   1.210 -1.1627 -0.0426  0.0931
  357MOL0     C49151   0.998   5.682   1.305  0.2592  0.7302  0.0128
  357MOL0     O49152   0.932   5.800   1.351 -0.4447  0.0976 -0.6321
  357MOL0     C49153   0.886   5.892   1.263  0.2405 -1.0007  0.2426
  357MOL0     C49154   0.919   5.922   1.127 -0.0032 -0.9392  1.5187
  357MOL0     C49155   0.874   6.026   1.045 -0.3742  0.5195 -1.0190
  357MOL0     C49156   0.934   6.051   0.907  0.1844  0.0224 -1.1822
  357MOL0     C49157   0.761   6.092   1.091  0.6931 -0.7209  0.2160
  357MOL0     C49158   0.662   6.172   1.012  0.6372 -0.2614  0.7085
  357MOL0     O49159   0.580   6.263   1.067  0.9379  0.7067  0.8625
  357MOL0     C49160   0.481   6.332   0.991 -0.2414  0.6473  0.4217
  357MOL0     C49161   0.377   6.270   0.917  0.2196  0.4766 -0.1797
  357MOL0     C49162   0.291   6.353   0.836  0.2583 -0.3483  0.4259
  357MOL0     C49163   0.298   6.497   0.834 -0.3163 -0.2833 -0.2912
  357MOL0     O49164   0.200   6.560   0.765 -0.3075  0.2337  0.5157
  357MOL0     C49165   0.195   6.701   0.761  1.2013  1.0379  1.1030
  357MOL0     C49166   0.059   6.743   0.709 -0.1531 -0.3132  0.7807
  357MOL0     C49167   0.053   6.902   0.731 -0.2180 -0.3797 -1.1045
  357MOL0     C49168  -0.066   6.972   0.660  0.2761  0.7867  0.4032
  357MOL0     C49169  -0.131   7.074   0.749 -0.3539 -0.1349 -0.2259
  357MOL0     C49170  -0.253   7.137   0.687 -0.0681 -0.2557 -0.0817
  357MOL0     C49171  -0.308   7.250   0.772  0.0138 -0.1832 -0.4084
  357MOL0     C49172  -0.385   7.192   0.890  0.5027  0.1284 -0.5368
  357MOL0    Cl49173  -0.398   7.313   1.008 -0.0216  0.1762 -0.5546
  357MOL0     C49174   0.415   6.550   0.902 -0.9210  0.5089 -0.3263
  357MOL0     C49175   0.501   6.466   0.974 -0.3150 -0.3486 -0.3888
  357MOL0     O49176   0.650   6.144   0.893 -0.0374  0.0180  0.2171
  357MOL0     C49177   0.728   6.071   1.227  0.1930  0.7052  0.2071
  357MOL0     C49178   0.790   5.983   1.312  0.1060 -0.1379 -0.1372
  357MOL0     N49179   0.791   5.274   1.009  0.2851 -0.5563 -0.2260
  357MOL0     N49180   0.820   5.146   1.019 -0.0367 -0.0388  0.0662
  357MOL0     C49181   0.228   5.119   1.924  0.0509  0.0519 -0.5534
  357MOL0     C49182   0.159   5.121   2.044 -0.3096  0.5493  0.5788
  357MOL0     C49183   0.088   5.134   2.488 -0.3896  0.7832 -0.8047
  357MOL0     C49184  -0.039   5.197   2.464  0.8030 -0.1780 -1.4125
  357MOL0     C49185  -0.133   5.225   2.564 -0.0050  1.5292  0.1544
  357MOL0     C49186  -0.118   5.183   2.692 -0.4440  0.2623  0.0838
  357MOL0     O49187  -0.195   5.213   2.793  0.4970  0.2418 -0.0285
  357MOL0     C49188  -0.250   5.344   2.799 -0.6375  0.0287 -0.9320
  357MOL0     C49189  -0.141   5.449   2.837  0.1411  0.3025 -0.4504
  357MOL0     C49190  -0.210   5.587   2.834  0.1357  0.8890  0.2954
  357MOL0     C49191  -0.191   5.639   2.690 -0.3225  1.7017 -0.8717
  357MOL0     C49192  -0.276   5.760   2.677  0.2678  0.0464 -0.0221
  357MOL0     C49193  -0.351   5.847   2.648  0.5519 -0.0562  0.0381
  357MOL0     C49194  -0.006   5.104   2.713 -0.2377  0.1872 -0.5511
  357MOL0     C49195   0.095   5.079   2.614  0.5661  0.1521 -0.0135
  357MOL0     C49196   0.204   4.999   2.655  0.2570  0.3274 -0.2269
  357MOL0     H49197   0.396   5.262   2.242 -0.0189 -0.3016  0.3061
  357MOL0     H49198   0.520   5.272   2.036  0.0582  1.4579 -0.0492
  357MOL0     H49199   0.425   5.186   1.599  0.8251  1.0610  0.7187
  357MOL0     H49200   0.285   5.113   1.678  0.5210  0.8589 -0.5845
  357MOL0     H49201   0.576   5.001   1.684  0.9624 -3.3031 -1.5290
  357MOL0     H49202   0.423   4.909   1.713  1.1363 -1.1932 -2.0830
  357MOL0     H49203   0.359   4.983   1.479 -0.0706  1.1775  0.2608
  357MOL0     H49204   0.513   5.056   1.460 -3.5831  0.5655 -2.3202
  357MOL0     H49205   0.640   4.842   1.511  0.6177 -0.4723 -0.4405
  357MOL0     H49206   0.486   4.760   1.528  0.6111 -2.1415 -1.4197
  357MOL0     H49207   0.421   4.867   1.295  0.4608  0.4437 -0.1147
  357MOL0     H49208   0.523   4.719   1.293  2.4777  0.2249  0.2069
  357MOL0     H49209   0.622   4.858   1.124 -3.4914  4.1575 -0.8373
  357MOL0     H49210   0.569   4.994   1.200  0.9481  0.3484 -0.5787
  357MOL0     H49211   0.795   4.812   1.317  0.0020  1.0453  2.2361
  357MOL0     H49212   0.742   4.964   1.386  1.7917 -0.0758  0.6940
  357MOL0     H49213   0.959   4.981   1.232  0.0824  0.6187 -2.4461
  357MOL0     H49214   0.870   4.905   1.112 -1.4018  0.0304 -0.6283
  357MOL0     H49215   0.768   5.216   1.336  3.8323  0.7182  1.3607
  357MOL0     H49216   0.606   5.433   1.229  0.2904 -1.7452  0.1515
  357MOL0     H49217   0.676   5.508   1.094  0.4032 -1.3294 -0.6184
  357MOL0     H49218   0.722   5.613   1.307 -0.4609 -0.0297  0.0802
  357MOL0     H49219   0.812   5.471   1.367  1.0787 -1.9743 -0.4429
  357MOL0     H49220   0.966   5.525   1.154  1.4714  3.5437 -2.0941
  357MOL0     H49221   0.859   5.660   1.134 -1.4965  0.7334  0.9245
  357MOL0     H49222   1.036   5.624   1.389  1.3861 -0.0621 -0.9954
  357MOL0     H49223   1.088   5.710   1.249  2.0601 -0.6733  2.0680
  357MOL0     H49224   0.993   5.866   1.070 -0.9078 -0.2330 -0.3934
  357MOL0     H49225   0.861   6.023   0.830 -2.1963 -2.7162  1.8048
  357MOL0     H49226   1.025   5.991   0.891  2.4854  3.5287 -2.3569
  357MOL0     H49227   0.951   6.157   0.889 -0.1467 -0.2047 -3.0240
  357MOL0     H49228   0.365   6.163   0.932  4.6488 -0.0901  0.9089
  357MOL0     H49229   0.212   6.308   0.776 -1.9094  2.5443  0.9307
  357MOL0     H49230   0.203   6.731   0.866 -1.8390  2.0708  1.1340
  357MOL0     H49231   0.276   6.753   0.708  0.8865  0.1531 -0.2869
  357MOL0     H49232   0.042   6.703   0.609  1.2949 -0.6264  0.6328
  357MOL0     H49233  -0.010   6.692   0.777  1.4162 -2.4109  0.8950
  357MOL0     H49234   0.146   6.941   0.689 -0.8011 -1.9957 -4.1756
  357MOL0     H49235   0.026   6.920   0.836  0.1718  1.5382 -1.3003
  357MOL0     H49236  -0.148   6.901   0.645 -1.6212  3.2326 -1.9356
  357MOL0     H49237  -0.043   7.015   0.562 -0.6461 -0.6977 -0.4913
  357MOL0     H49238  -0.150   7.045   0.853 -1.7255  1.5058  0.0221
  357MOL0     H49239  -0.064   7.157   0.774 -1.8328  1.0349 -0.0031
  357MOL0     H49240  -0.336   7.067   0.675 -2.1942  1.7648  1.7847
  357MOL0     H49241  -0.240   7.166   0.583  3.9550  2.5532  0.9538
  357MOL0     H49242  -0.366   7.324   0.717 -4.5298 -3.5296 -0.6668
  357MOL0     H49243  -0.220   7.302   0.813  0.2600 -1.8575  1.3207
  357MOL0     H49244  -0.333   7.104   0.930 -1.8983 -1.7690 -1.3836
  357MOL0     H49245  -0.484   7.157   0.863  0.2886 -0.9201  1.4033
  357MOL0     H49246   0.421   6.658   0.893 -0.1144  0.3709 -1.8168
  357MOL0     H49247   0.592   6.518   1.003  1.2837 -3.4468  0.5751
  357MOL0     H49248   0.656   6.138   1.274  0.6347  0.9470  0.5387
  357MOL0     H49249   0.757   5.967   1.415 -0.3458 -1.1509 -0.4269
  357MOL0     H49250   0.179   5.083   1.834  2.6616  1.1972 -2.5703
  357MOL0     H49251   0.055   5.090   2.051 -0.7032  1.6384 -0.1246
  357MOL0     H49252  -0.086   5.223   2.369 -5.6852  1.5240  1.7420
  357MOL0     H49253  -0.225   5.277   2.538 -2.0060 -1.2751  1.0288
  357MOL0     H49254  -0.310   5.362   2.709  0.0106 -1.1115 -1.6160
  357MOL0     H49255  -0.326   5.345   2.877 -0.6354  4.0875 -0.7808
  357MOL0     H49256  -0.057   5.438   2.767  2.3981 -2.9610  2.4102
  357MOL0     H49257  -0.110   5.441   2.942  2.7989 -0.9848 -1.2503
  357MOL0     H49258  -0.318   5.581   2.851 -0.7911 -0.0629 -4.4721
  357MOL0     H49259  -0.171   5.654   2.912 -1.6664  1.2715  0.9190
  357MOL0     H49260  -0.217   5.556   2.624  2.8603 -1.3140  1.3095
  357MOL0     H49261  -0.089   5.661   2.659 -0.3893 -0.0037 -2.5173
  357MOL0     H49262  -0.399   5.936   2.614  0.2283 -0.3665 -0.3244
  357MOL0     H49263   0.004   5.075   2.817  0.1774  0.6540 -0.4584
  357MOL0     H49264   0.195   4.983   2.762 -3.2143  1.0414 -0.3096
  357MOL0     H49265   0.189   4.900   2.610 -0.5522  0.3876 -0.0882
  357MOL0     H49266   0.302   5.038   2.626 -0.7042  2.2516 -1.0525
  358MOL0     O49267   9.556   4.858   8.130 -0.7905  0.4088  0.2783
  358MOL0     C49268   9.667   4.801   8.141 -0.8417  1.3851 -0.0855
  358MOL0     O49269   9.769   4.828   8.223 -0.0227  0.0136 -0.7760
  358MOL0     C49270   9.761   4.925   8.321 -0.2682 -0.0146 -0.3952
  358MOL0     C49271   9.873   4.941   8.398 -0.4308 -0.5424  0.4034
  358MOL0     C49272   9.896   5.046   8.486 -0.5763 -0.7879 -0.2707
  358MOL0     C49273   9.782   5.137   8.511 -0.6492  0.3555  0.0955
  358MOL0     O49274   9.801   5.235   8.601 -0.8878  0.4943 -0.0650
  358MOL0     C49275   9.737   5.354   8.561 -0.0664 -0.4400  0.1901
  358MOL0     C49276   9.795   5.471   8.640  0.2802  0.0285 -1.4044
  358MOL0     C49277   9.708   5.585   8.600  0.4567  0.1026  0.1401
  358MOL0     C49278   9.780   5.715   8.642  0.3079  0.4587  1.0750
  358MOL0     C49279   9.890   5.758   8.541 -1.0027 -0.0316 -0.1052
  358MOL0     C49280   9.995   5.867   8.587  0.3474  0.5866  0.7407
  358MOL0     C49281  10.090   5.904   8.473  0.2682  0.5904 -0.7475
  358MOL0     C49282  10.158   6.036   8.501 -0.4976  0.4169  0.5681
  358MOL0     N49283  10.229   6.024   8.629  0.0154  0.2400 -0.3160
  358MOL0     C49284  10.188   6.072   8.750 -0.3913 -0.3745 -0.0609
  358MOL0     C49285  10.294   6.051   8.836  0.0392  0.9989  0.5397
  358MOL0     C49286  10.326   6.104   8.969 -0.4402 -0.7310 -0.1219
  358MOL0     C49287  10.319   6.009   9.091 -0.2906  0.2347  0.3960
  358MOL0     C49288  10.396   5.876   9.089 -0.2167  0.0809  0.3963
  358MOL0     C49289  10.360   5.789   9.204 -0.1976  0.1661  1.0665
  358MOL0     O49290  10.374   5.851   9.339  0.0350 -0.0814 -0.1529
  358MOL0     C49291  10.499   5.864   9.387 -0.3310 -0.3597 -0.5399
  358MOL0     C49292  10.517   5.939   9.500  0.1592  1.1903 -0.1122
  358MOL0     C49293  10.637   5.977   9.555 -0.0027  0.4287  0.0970
  358MOL0     C49294  10.637   6.042   9.686 -0.3488 -1.7085 -1.0984
  358MOL0     C49295  10.759   5.956   9.476  0.4184  0.4109 -0.0811
  358MOL0     C49296  10.885   6.019   9.502 -0.8652  0.1321  0.2421
  358MOL0     O49297  10.994   5.968   9.431 -1.1043  0.3449 -0.8339
  358MOL0     C49298  11.099   6.065   9.398  0.4559 -0.2188  0.0867
  358MOL0     C49299  11.100   6.134   9.272 -0.0196 -0.9189  0.3709
  358MOL0     C49300  11.179   6.254   9.247  0.2208 -0.8578 -0.2920
  358MOL0     C49301  11.258   6.302   9.353 -0.7575  0.0721  0.5010
  358MOL0     O49302  11.354   6.400   9.348  1.2275 -0.4728 -0.1720
  358MOL0     C49303  11.386   6.456   9.215 -0.3271 -0.5323 -0.3505
  358MOL0     C49304  11.514   6.542   9.222  0.8864 -0.0022 -0.1937
  358MOL0     C49305  11.474   6.670   9.295  0.3507  1.0919 -0.2346
  358MOL0     C49306  11.533   6.670   9.435 -0.1118  0.4993 -1.2222
  358MOL0     C49307  11.450   6.742   9.538  0.3980 -0.5792 -0.1701
  358MOL0     C49308  11.505   6.711   9.686  0.3581  0.5065  0.4731
  358MOL0     C49309  11.544   6.842   9.749  0.0314  0.6631  0.5116
  358MOL0     C49310  11.416   6.909   9.785 -0.1245  0.2589  0.0764
  358MOL0    Cl49311  11.328   6.816   9.911  0.4189  0.0964 -0.2519
  358MOL0     C49312  11.260   6.230   9.475 -0.7823  0.2297  0.7912
  358MOL0     C49313  11.182   6.113   9.498 -0.1271  0.1339 -0.7216
  358MOL0     O49314  10.895   6.126   9.569  0.2043 -0.0106 -0.0289
  358MOL0     C49315  10.741   5.873   9.369 -1.2574 -0.8282  0.0089
  358MOL0     C49316  10.624   5.825   9.321  0.8895 -0.6272 -0.2455
  358MOL0     N49317  10.391   5.981   8.767  1.0749 -0.4944  0.0148
  358MOL0     N49318  10.358   5.980   8.647  0.7071  0.1107 -0.1259
  358MOL0     C49319   9.675   5.123   8.430  0.3013 -0.3158  0.1618
  358MOL0     C49320   9.668   5.028   8.332 -0.0911 -0.0466  0.0820
  358MOL0     C49321   9.700   4.681   8.053  1.1460  0.8406 -0.6593
  358MOL0     C49322   9.804   4.696   7.966 -0.0101 -0.2888 -0.2211
  358MOL0     C49323   9.828   4.600   7.863 -0.3275  0.0056 -0.6625
  358MOL0     C49324   9.755   4.487   7.873 -1.3614  0.3013  0.3809
  358MOL0     O49325   9.782   4.382   7.791  0.6840 -0.2883 -0.1883
  358MOL0     C49326   9.833   4.396   7.657  0.2175  0.0707 -0.2825
  358MOL0     C49327   9.972   4.343   7.655 -0.5511 -0.4474 -0.3611
  358MOL0     C49328   9.989   4.200   7.713 -0.0626 -0.1699 -0.5156
  358MOL0     C49329  10.084   4.115   7.634 -0.1822 -0.4696  0.9992
  358MOL0     C49330  10.132   3.996   7.697  0.3156  0.9659  0.0564
  358MOL0     C49331  10.184   3.897   7.744  1.2836 -0.5845 -0.0217
  358MOL0     C49332   9.658   4.467   7.964 -0.5720 -0.2936 -0.5598
  358MOL0     C49333   9.620   4.572   8.045  1.0795  0.4591 -0.1483
  358MOL0     C49334   9.504   4.558   8.140 -0.3346 -0.3182 -0.9398
  358MOL0     H49335   9.946   4.861   8.386 -2.5211 -2.1841 -3.1425
  358MOL0     H49336   9.990   5.055   8.539 -1.0549  1.3279  0.3466
  358MOL0     H49337   9.631   5.344   8.586 -0.8487  0.9139 -2.2679
  358MOL0     H49338   9.741   5.370   8.453  0.0139  0.7017  0.3465
  358MOL0     H49339   9.789   5.452   8.747 -1.4501  0.9865 -1.3078
  358MOL0     H49340   9.902   5.478   8.618  1.2391  0.5832  2.6178
  358MOL0     H49341   9.702   5.592   8.491  0.0548 -0.1137  0.1499
  358MOL0     H49342   9.608   5.587   8.643  1.3775  1.2802  2.3961
  358MOL0     H49343   9.710   5.797   8.664 -1.8943 -0.6077 -1.4003
  358MOL0     H49344   9.830   5.695   8.737  3.5430 -0.9507 -0.7734
  358MOL0     H49345   9.826   5.790   8.458  1.0213 -1.5518 -2.3526
  358MOL0     H49346   9.948   5.672   8.505 -0.8545 -0.2431  0.6247
  358MOL0     H49347   9.939   5.957   8.618 -2.5261 -0.8253  0.0056
  358MOL0     H49348  10.051   5.827   8.672  0.5505 -1.1130 -0.1529
  358MOL0     H49349  10.030   5.904   8.381 -0.5008 -3.8323 -0.4578
  358MOL0     H49350  10.159   5.821   8.460  0.0948  0.0873  1.3016
  358MOL0     H49351  10.228   6.043   8.418 -0.6485  1.0416  0.4826
  358MOL0     H49352  10.099   6.128   8.491  2.2962  2.2499 -0.4447
  358MOL0     H49353  10.106   6.142   8.764  0.1485 -0.0224  1.5934
  358MOL0     H49354  10.260   6.191   8.980  0.3316  0.0181 -1.3146
  358MOL0     H49355  10.431   6.131   8.962 -1.0560  2.4031  0.9604
  358MOL0     H49356  10.335   6.064   9.184 -3.5056  2.0996 -0.0122
  358MOL0     H49357  10.212   5.987   9.089 -0.5337  1.1437 -2.9983
  358MOL0     H49358  10.367   5.843   8.989  0.0562 -1.1733  0.7195
  358MOL0     H49359  10.505   5.882   9.101 -0.5579  0.8751  5.0495
  358MOL0     H49360  10.258   5.754   9.190 -0.4658  0.2817  2.4977
  358MOL0     H49361  10.418   5.696   9.200 -2.6103 -1.5140  2.6864
  358MOL0     H49362  10.421   5.969   9.539  0.2802  0.8427  0.4655
  358MOL0     H49363  10.635   6.148   9.660 -1.4051 -1.2548  0.7000
  358MOL0     H49364  10.726   6.021   9.745 -1.1039  1.1711  1.3021
  358MOL0     H49365  10.546   6.029   9.746  1.1411 -3.5304  0.9267
  358MOL0     H49366  11.033   6.102   9.193 -1.8372  3.4215 -0.1546
  358MOL0     H49367  11.175   6.308   9.154  2.5849 -2.5684 -1.5096
  358MOL0     H49368  11.398   6.364   9.158  0.3757 -1.4393  1.1799
  358MOL0     H49369  11.298   6.514   9.187 -0.2391 -0.3742 -0.3058
  358MOL0     H49370  11.599   6.492   9.269  1.5191  1.1839 -0.0346
  358MOL0     H49371  11.551   6.568   9.123  3.5768  1.6339  1.1072
  358MOL0     H49372  11.365   6.670   9.300  0.0737 -3.9777 -0.4004
  358MOL0     H49373  11.511   6.759   9.243 -3.6763  2.7515 -0.6171
  358MOL0     H49374  11.631   6.718   9.435  1.4548 -2.4579 -1.6174
  358MOL0     H49375  11.545   6.567   9.468  1.8349  0.6234 -1.4240
  358MOL0     H49376  11.461   6.848   9.515 -0.6098 -0.7362 -1.5299
  358MOL0     H49377  11.342   6.727   9.530 -0.4601  4.6588 -2.0832
  358MOL0     H49378  11.601   6.659   9.691  0.7206  0.7032 -2.3705
  358MOL0     H49379  11.436   6.650   9.745  1.2091 -2.5252 -1.4285
  358MOL0     H49380  11.599   6.899   9.673 -1.7603 -0.4275 -1.7220
  358MOL0     H49381  11.607   6.830   9.838  1.4032 -3.8790 -0.8104
  358MOL0     H49382  11.358   6.945   9.700 -0.4282  0.1532  0.2403
  358MOL0     H49383  11.434   7.006   9.832 -1.0125  0.2469  0.4489
  358MOL0     H49384  11.317   6.271   9.557 -0.8086 -0.1038  0.9753
  358MOL0     H49385  11.190   6.065   9.595 -0.8065  2.8241  0.7706
  358MOL0     H49386  10.828   5.844   9.310 -1.7868  0.8753 -1.6844
  358MOL0     H49387  10.625   5.753   9.240  2.7122 -3.1189  1.8048
  358MOL0     H49388   9.579   5.171   8.442  0.7825  1.2991 -1.9312
  358MOL0     H49389   9.596   5.051   8.254 -1.3267 -0.5392  1.0384
  358MOL0     H49390   9.853   4.793   7.966  1.8522 -1.1811  0.9442
  358MOL0     H49391   9.905   4.611   7.787 -1.5664  2.1764 -1.7214
  358MOL0     H49392   9.767   4.339   7.590 -1.9721  0.7483  1.2022
  358MOL0     H49393   9.827   4.499   7.621 -0.5110  0.3128  0.5251
  358MOL0     H49394  10.035   4.410   7.714 -0.0116 -1.9138  0.7932
  358MOL0     H49395  10.009   4.341   7.552  1.2155 -1.6763  0.2530
  358MOL0     H49396  10.043   4.212   7.808  2.5453  1.8768 -2.0921
  358MOL0     H49397   9.891   4.156   7.728  0.2926 -0.2922  1.7997
  358MOL0     H49398  10.165   4.183   7.606 -0.2203 -1.1893 -0.9854
  358MOL0     H49399  10.033   4.083   7.543 -2.9011  4.8970  0.2445
  358MOL0     H49400  10.230   3.814   7.795  0.0678 -0.9575  0.5213
  358MOL0     H49401   9.625   4.366   7.984  2.0998 -1.0108  0.7738
  358MOL0     H49402   9.420   4.622   8.114 -0.9375 -0.9286 -0.5338
  358MOL0     H49403   9.468   4.455   8.150  1.3601 -1.1771 -2.9990
  358MOL0     H49404   9.532   4.583   8.243 -1.2534 -1.1657 -0.4694
  359MOL0     O49405  10.293   5.068   7.095  0.1711  0.1651 -0.1100
  359MOL0     C49406  10.287   5.086   6.970  0.5600 -0.4385  0.1589
  359MOL0     O49407  10.168   5.092   6.898 -0.1670 -0.4326 -0.7012
  359MOL0     C49408  10.058   5.029   6.955 -1.0054 -0.8940  0.0895
  359MOL0     C49409   9.968   5.107   7.026  0.2206 -0.4792  0.0505
  359MOL0     C49410   9.850   5.054   7.073  0.9470 -0.2092 -1.1304
  359MOL0     C49411   9.819   4.917   7.055 -1.2962 -0.6270  0.3092
  359MOL0     O49412   9.698   4.877   7.102 -0.1436  0.5875  0.4767
  359MOL0     C49413   9.631   4.782   7.016 -0.4973  0.8292 -0.4072
  359MOL0     C49414   9.479   4.762   7.038  0.5037  0.2913  0.5056
  359MOL0     C49415   9.440   4.642   6.949  0.0838  0.0790 -0.5095
  359MOL0     C49416   9.293   4.617   6.971 -0.2200  0.0414 -0.1070
  359MOL0     C49417   9.256   4.468   6.950 -0.0385 -0.0831 -0.0159
  359MOL0     C49418   9.279   4.381   7.064 -0.3265  0.6311 -0.4393
  359MOL0     C49419   9.229   4.242   7.038 -1.2992  0.3547 -1.0295
  359MOL0     C49420   9.211   4.144   7.162 -0.5825 -1.3603 -0.0426
  359MOL0     N49421   9.125   4.217   7.259  0.0985  0.2661 -0.1333
  359MOL0     C49422   9.012   4.295   7.242 -0.6291  0.5251  1.0103
  359MOL0     C49423   8.965   4.329   7.366 -0.6610  0.2929  0.1737
  359MOL0     C49424   8.857   4.424   7.390 -0.6795  0.0624 -0.9610
  359MOL0     C49425   8.887   4.558   7.334 -0.9460 -0.3183 -0.0277
  359MOL0     C49426   9.003   4.633   7.406 -0.2079 -0.0565 -0.9987
  359MOL0     C49427   8.991   4.790   7.390 -0.0029  0.3080 -0.3012
  359MOL0     O49428   9.030   4.834   7.264  0.0482 -0.6086 -1.0183
  359MOL0     C49429   9.142   4.919   7.262 -0.0154 -0.1459  0.2274
  359MOL0     C49430   9.140   5.053   7.227 -0.8411  0.4307  0.1179
  359MOL0     C49431   9.261   5.128   7.210  0.5831 -0.9578 -0.5988
  359MOL0     C49432   9.242   5.280   7.166 -0.0993  0.0808  0.0168
  359MOL0     C49433   9.385   5.065   7.237 -0.3697 -1.5659  0.2509
  359MOL0     C49434   9.515   5.138   7.210 -0.7002 -0.0577  0.8767
  359MOL0     O49435   9.543   5.199   7.088 -0.2045 -0.9584 -0.0300
  359MOL0     C49436   9.611   5.318   7.083 -0.5002 -0.8007 -0.2944
  359MOL0     C49437   9.614   5.387   6.954  0.7104  0.6770 -0.1004
  359MOL0     C49438   9.684   5.499   6.926 -0.2826 -0.3139 -0.2983
  359MOL0     C49439   9.755   5.570   7.030 -0.5675  0.7571 -0.6641
  359MOL0     O49440   9.824   5.686   7.009  0.3454  0.1618 -0.2312
  359MOL0     C49441   9.895   5.704   6.895  0.2965  1.4271  0.8280
  359MOL0     C49442  10.007   5.608   6.875 -0.8410  0.4214  0.0919
  359MOL0     C49443  10.081   5.627   6.737  0.7140  0.5351 -0.2465
  359MOL0     C49444  10.194   5.738   6.736 -0.2272 -0.6744  0.4098
  359MOL0     C49445  10.291   5.727   6.616  0.6927 -0.5622  0.0479
  359MOL0     C49446  10.386   5.855   6.579 -0.0856  0.2425  0.0189
  359MOL0     C49447  10.309   5.973   6.523  0.7278  0.7093  1.1115
  359MOL0     C49448  10.404   6.093   6.507 -0.5616 -0.3779  0.6869
  359MOL0    Cl49449  10.560   6.055   6.435 -0.2594 -0.1557 -0.4189
  359MOL0     C49450   9.759   5.507   7.155 -0.4816  0.6927 -0.7451
  359MOL0     C49451   9.702   5.379   7.183 -0.0314 -0.5774 -0.3302
  359MOL0     O49452   9.591   5.147   7.304  0.7082 -0.2706 -0.5505
  359MOL0     C49453   9.383   4.931   7.285 -0.2480  0.6366 -0.4641
  359MOL0     C49454   9.266   4.855   7.300  0.4467 -0.1405 -0.1196
  359MOL0     N49455   9.042   4.267   7.464  0.3928  0.1716 -0.1419
  359MOL0     N49456   9.129   4.192   7.404  0.6696  0.4052  0.3583
  359MOL0     C49457   9.908   4.837   6.969  0.1894 -0.2686 -0.7466
  359MOL0     C49458  10.035   4.892   6.939  0.2133  0.6165  0.2232
  359MOL0     C49459  10.399   5.143   6.889  0.0987  0.4411 -0.5581
  359MOL0     C49460  10.373   5.215   6.772 -0.3931 -0.0428 -0.1541
  359MOL0     C49461  10.471   5.283   6.712  0.2702 -0.6313 -0.4396
  359MOL0     C49462  10.597   5.294   6.764 -0.5681 -0.3348  0.4121
  359MOL0     O49463  10.685   5.356   6.689 -0.5675 -0.1668 -0.6052
  359MOL0     C49464  10.708   5.319   6.552  0.0546 -0.0204  0.0585
  359MOL0     C49465  10.653   5.417   6.447  0.5761  0.1918  0.8657
  359MOL0     C49466  10.713   5.545   6.418 -0.4093 -0.6686 -0.2241
  359MOL0     C49467  10.693   5.633   6.541  0.9247  0.2866 -0.2213
  359MOL0     C49468  10.766   5.757   6.523  0.2240  0.3884  0.5553
  359MOL0     C49469  10.831   5.858   6.520  0.1941  0.2140 -0.4897
  359MOL0     C49470  10.630   5.222   6.880  1.2262  0.5120 -0.2076
  359MOL0     C49471  10.535   5.147   6.939  0.2304  0.6191 -0.6616
  359MOL0     C49472  10.580   5.068   7.068 -0.5919 -0.1343  0.2224
  359MOL0     H49473   9.995   5.210   7.048  3.3120 -0.7781 -1.7888
  359MOL0     H49474   9.782   5.119   7.128  1.9873  1.0537 -1.2848
  359MOL0     H49475   9.672   4.685   7.046  1.7512  0.6848 -3.4338
  359MOL0     H49476   9.663   4.797   6.912  0.8085 -2.1341 -0.5451
  359MOL0     H49477   9.449   4.747   7.143  0.1709  1.7309  0.6329
  359MOL0     H49478   9.425   4.851   7.004  0.2460  0.0941  0.3929
  359MOL0     H49479   9.456   4.684   6.849  2.4345  1.9489  0.5458
  359MOL0     H49480   9.502   4.553   6.962 -0.7444 -1.1243 -3.7392
  359MOL0     H49481   9.259   4.651   7.070  1.6075  2.0673 -0.1102
  359MOL0     H49482   9.247   4.674   6.890 -0.3753  0.2537  0.1280
  359MOL0     H49483   9.314   4.440   6.861  2.4280  0.1384  1.4383
  359MOL0     H49484   9.151   4.462   6.921 -0.6295  1.9255  1.5178
  359MOL0     H49485   9.384   4.380   7.095  0.0490  0.7316 -1.6521
  359MOL0     H49486   9.240   4.438   7.149  4.9237  0.5027  2.5341
  359MOL0     H49487   9.296   4.192   6.967 -0.1183  0.7333 -0.2128
  359MOL0     H49488   9.131   4.253   6.991 -1.2982 -2.8572 -2.0574
  359MOL0     H49489   9.158   4.060   7.117 -2.1143 -1.7174  2.2226
  359MOL0     H49490   9.308   4.107   7.196 -0.2072 -1.2592 -0.9931
  359MOL0     H49491   8.963   4.327   7.150 -0.2890  2.0599  1.3332
  359MOL0     H49492   8.827   4.438   7.494 -1.2973 -1.1502 -0.9526
  359MOL0     H49493   8.771   4.376   7.342  1.5090 -2.5230 -2.5838
  359MOL0     H49494   8.911   4.551   7.227 -2.6285  0.3944 -0.4882
  359MOL0     H49495   8.790   4.609   7.335 -2.0378 -1.9660 -3.6424
  359MOL0     H49496   8.992   4.612   7.513 -1.7726  4.1419 -0.1428
  359MOL0     H49497   9.098   4.590   7.373  1.1397  0.2862  2.1151
  359MOL0     H49498   8.893   4.824   7.423  0.8365  1.6989  0.8827
  359MOL0     H49499   9.042   4.841   7.473 -0.0024  2.5761 -1.6100
  359MOL0     H49500   9.043   5.103   7.223  0.0624  2.6862  3.1410
  359MOL0     H49501   9.276   5.353   7.241 -1.2612 -0.7351  1.3917
  359MOL0     H49502   9.136   5.303   7.158 -0.4756 -1.9651 -1.5466
  359MOL0     H49503   9.302   5.302   7.078 -1.1329  0.8461 -0.5068
  359MOL0     H49504   9.556   5.338   6.876 -0.6397  1.6341  0.2509
  359MOL0     H49505   9.675   5.538   6.825  0.3329 -1.8205 -0.9562
  359MOL0     H49506   9.826   5.696   6.810 -2.3982 -3.7373  3.0991
  359MOL0     H49507   9.928   5.808   6.881 -0.8723  1.9054  1.4614
  359MOL0     H49508  10.065   5.611   6.967 -2.9540 -1.0279  1.5758
  359MOL0     H49509   9.971   5.506   6.894  0.7611  0.2028  2.2874
  359MOL0     H49510  10.006   5.640   6.659 -0.3183  1.3636  0.8495
  359MOL0     H49511  10.124   5.528   6.721 -2.3936 -0.9926  0.2016
  359MOL0     H49512  10.256   5.720   6.824 -0.4333 -0.4782  0.5971
  359MOL0     H49513  10.151   5.839   6.730  0.5124 -0.2357  1.9987
  359MOL0     H49514  10.356   5.643   6.641 -0.3463 -2.2090 -2.3465
  359MOL0     H49515  10.225   5.715   6.529 -0.8411  2.0156  0.7574
  359MOL0     H49516  10.465   5.823   6.511  2.3795  0.0360  2.7773
  359MOL0     H49517  10.437   5.892   6.669  2.9763  2.0323 -2.2681
  359MOL0     H49518  10.226   6.008   6.586 -1.3481 -1.8414 -0.0105
  359MOL0     H49519  10.262   5.942   6.429  0.5978 -2.3310  2.0891
  359MOL0     H49520  10.420   6.134   6.607 -0.2159 -0.6517  0.7464
  359MOL0     H49521  10.348   6.169   6.451 -1.1460 -0.5797  0.9887
  359MOL0     H49522   9.813   5.539   7.244  0.9499 -1.1459 -0.8885
  359MOL0     H49523   9.715   5.348   7.286  1.2300 -1.6767 -0.7916
  359MOL0     H49524   9.478   4.887   7.311 -0.0781  2.1432  1.6941
  359MOL0     H49525   9.269   4.751   7.330  1.5123 -0.9389 -2.7665
  359MOL0     H49526   9.879   4.736   6.939  0.0297 -1.0338  1.7833
  359MOL0     H49527  10.108   4.842   6.876  0.4571  0.1523  0.8632
  359MOL0     H49528  10.272   5.230   6.734 -0.6898 -1.0241  0.1873
  359MOL0     H49529  10.444   5.338   6.622  3.2431 -0.5265 -1.3699
  359MOL0     H49530  10.814   5.295   6.541 -0.3525 -0.9306 -2.6161
  359MOL0     H49531  10.663   5.221   6.529  0.3144  0.0194 -0.6153
  359MOL0     H49532  10.546   5.434   6.466  0.6815 -0.7595  2.5304
  359MOL0     H49533  10.649   5.358   6.354 -0.4491  0.6269  0.6163
  359MOL0     H49534  10.820   5.520   6.409 -1.1834 -5.9219  1.6912
  359MOL0     H49535  10.672   5.587   6.326 -0.2418 -3.7475 -1.8126
  359MOL0     H49536  10.737   5.581   6.626 -3.8125 -1.0159  1.7127
  359MOL0     H49537  10.589   5.637   6.575  0.8593 -2.0024  0.0141
  359MOL0     H49538  10.874   5.956   6.532 -3.8335  2.2089 -0.8211
  359MOL0     H49539  10.726   5.227   6.930  0.9981 -1.6531  0.5839
  359MOL0     H49540  10.569   5.129   7.158  0.6899  0.9270 -0.3241
  359MOL0     H49541  10.547   4.964   7.068  3.2755 -1.6463  3.9109
  359MOL0     H49542  10.688   5.050   7.072 -0.5819  0.1377  1.8535
  360MOL0     O49543   6.776  11.355   1.166  1.0469  0.0945 -0.2977
  360MOL0     C49544   6.843  11.445   1.219  0.2292  0.6066  1.1442
  360MOL0     O49545   6.965  11.491   1.163 -1.2121 -0.1105  0.0966
  360MOL0     C49546   7.035  11.437   1.057 -0.2460  0.1009  0.0328
  360MOL0     C49547   7.010  11.331   0.981 -0.2064  0.6902  0.9028
  360MOL0     C49548   7.099  11.279   0.883  0.1876 -0.9034  0.4207
  360MOL0     C49549   7.237  11.323   0.882 -0.4079  0.8402  0.7316
  360MOL0     O49550   7.312  11.283   0.777 -0.2239  0.1075  0.8358
  360MOL0     C49551   7.442  11.229   0.809  0.7224  0.2076 -0.1090
  360MOL0     C49552   7.510  11.206   0.675  0.3137 -0.3882  0.4614
  360MOL0     C49553   7.531  11.328   0.581  0.1930 -0.1961 -0.2618
  360MOL0     C49554   7.622  11.436   0.652 -0.5611  0.4282 -0.3318
  360MOL0     C49555   7.757  11.371   0.700 -0.0184  0.1952 -0.0395
  360MOL0     C49556   7.846  11.482   0.744 -0.2975 -0.6891  0.2623
  360MOL0     C49557   7.977  11.433   0.811 -0.2918 -0.4282 -0.4104
  360MOL0     C49558   8.068  11.346   0.728 -0.1460 -0.6454  0.4534
  360MOL0     N49559   8.189  11.332   0.798  0.0097  0.2844 -0.1703
  360MOL0     C49560   8.294  11.411   0.794 -0.2223 -0.4102 -0.6536
  360MOL0     C49561   8.389  11.338   0.854 -0.1249 -0.5684  0.5894
  360MOL0     C49562   8.542  11.377   0.842  0.3132  0.1550 -1.0132
  360MOL0     C49563   8.630  11.267   0.910  0.9287  0.4365 -0.0477
  360MOL0     C49564   8.653  11.268   1.069  0.1123 -0.1110  0.2317
  360MOL0     C49565   8.731  11.154   1.117 -0.6079 -0.2161 -0.8181
  360MOL0     O49566   8.878  11.189   1.119 -0.7752  0.0092 -0.4085
  360MOL0     C49567   8.937  11.249   1.227  0.5339 -0.1722  0.6336
  360MOL0     C49568   9.073  11.255   1.222  0.2447  0.7428  0.9506
  360MOL0     C49569   9.153  11.324   1.312  0.6254 -0.6695  0.6347
  360MOL0     C49570   9.302  11.297   1.310  0.6796 -0.2208  0.0446
  360MOL0     C49571   9.088  11.404   1.408  0.8464  0.1640  0.2033
  360MOL0     C49572   9.165  11.485   1.517 -0.6096 -0.0336 -0.1125
  360MOL0     O49573   9.094  11.498   1.629 -0.7190 -0.2003  0.6797
  360MOL0     C49574   9.147  11.588   1.725  0.3061 -0.4745 -0.1817
  360MOL0     C49575   9.065  11.679   1.795 -0.5277 -1.2261 -0.3092
  360MOL0     C49576   9.108  11.750   1.911  0.9062 -0.2963 -0.4151
  360MOL0     C49577   9.241  11.734   1.947 -0.5443 -0.7668 -0.4640
  360MOL0     O49578   9.294  11.798   2.060 -0.4334 -0.8050  0.6394
  360MOL0     C49579   9.249  11.759   2.191 -0.1765 -0.5261 -0.0597
  360MOL0     C49580   9.294  11.615   2.217 -0.2540  0.1323  0.1481
  360MOL0     C49581   9.258  11.545   2.355  0.2387  0.3956  0.1388
  360MOL0     C49582   9.127  11.598   2.414 -0.3142  0.1822  0.1382
  360MOL0     C49583   9.087  11.519   2.539 -0.8437 -0.0880  0.9332
  360MOL0     C49584   8.969  11.593   2.604 -0.6105 -0.6781 -0.4037
  360MOL0     C49585   9.007  11.712   2.698  0.0330  0.1245  0.0255
  360MOL0     C49586   8.912  11.725   2.824 -0.1474  0.4159  0.0125
  360MOL0    Cl49587   8.748  11.692   2.771  0.2132 -0.5978  0.2977
  360MOL0     C49588   9.322  11.641   1.886 -0.1714  0.0034  0.4037
  360MOL0     C49589   9.285  11.578   1.774  0.6672 -0.3670 -0.7652
  360MOL0     O49590   9.282  11.520   1.492  0.5585  0.4209  0.2259
  360MOL0     C49591   8.945  11.375   1.433 -0.0150 -0.1379  0.3017
  360MOL0     C49592   8.873  11.308   1.333  0.5471  0.6351 -0.0659
  360MOL0     N49593   8.330  11.231   0.914 -0.2888 -0.1769  0.2019
  360MOL0     N49594   8.214  11.221   0.872  0.8627  0.4699  0.2902
  360MOL0     C49595   7.269  11.427   0.964  0.2088 -0.1104 -0.1265
  360MOL0     C49596   7.166  11.482   1.041  0.1921  1.0342 -0.5814
  360MOL0     C49597   6.790  11.521   1.334 -0.5483 -0.4374  0.5959
  360MOL0     C49598   6.887  11.608   1.378 -0.2076 -0.5189 -0.9847
  360MOL0     C49599   6.866  11.690   1.497 -0.2600 -0.0732 -0.0265
  360MOL0     C49600   6.746  11.673   1.568 -0.0501 -0.6817 -0.4452
  360MOL0     O49601   6.730  11.733   1.693 -0.2470 -0.4330  0.4722
  360MOL0     C49602   6.832  11.827   1.744 -0.1000  0.3292 -0.1190
  360MOL0     C49603   6.807  11.912   1.863  0.7314 -0.5093  0.0900
  360MOL0     C49604   6.700  11.856   1.962  0.0017 -0.1741 -0.0802
  360MOL0     C49605   6.600  11.966   1.998 -0.0220 -0.6173  0.0490
  360MOL0     C49606   6.663  12.075   2.069  0.0329 -1.5511 -0.1338
  360MOL0     C49607   6.713  12.179   2.110 -0.3990  0.5783  0.1411
  360MOL0     C49608   6.648  11.597   1.518  0.3873  0.4911 -0.1181
  360MOL0     C49609   6.671  11.509   1.406  0.4409 -0.6934 -0.2390
  360MOL0     C49610   6.566  11.404   1.378 -0.3327  1.3508  0.5459
  360MOL0     H49611   6.908  11.294   0.977  0.9899 -3.6562  3.8815
  360MOL0     H49612   7.080  11.216   0.797  3.1142  3.2105 -3.7729
  360MOL0     H49613   7.431  11.151   0.885  0.7259  0.6750  0.3803
  360MOL0     H49614   7.496  11.310   0.860  2.6784 -1.2837  0.3205
  360MOL0     H49615   7.606  11.157   0.692 -1.7811 -3.5284  5.5321
  360MOL0     H49616   7.448  11.135   0.619  0.1602  0.2229 -0.1573
  360MOL0     H49617   7.583  11.294   0.491  4.1173  0.8736  1.3867
  360MOL0     H49618   7.434  11.366   0.549  0.4065 -0.0601 -0.7535
  360MOL0     H49619   7.642  11.522   0.588  2.1397  3.5345  4.0753
  360MOL0     H49620   7.571  11.472   0.742 -0.1889  0.7749 -0.2587
  360MOL0     H49621   7.813  11.317   0.623  0.4192 -1.0159  1.0752
  360MOL0     H49622   7.737  11.309   0.789  0.4003  0.1846  0.0475
  360MOL0     H49623   7.879  11.544   0.660 -1.7032  2.8389  2.1002
  360MOL0     H49624   7.784  11.550   0.804 -1.4546 -0.3302 -1.2684
  360MOL0     H49625   7.943  11.384   0.902 -2.8778  0.4270 -0.8438
  360MOL0     H49626   8.028  11.525   0.842 -1.8427 -0.4181  2.3749
  360MOL0     H49627   8.020  11.250   0.703 -1.8940  0.7355 -1.9958
  360MOL0     H49628   8.098  11.387   0.631 -2.0721 -0.7679 -0.2376
  360MOL0     H49629   8.319  11.504   0.744  2.5895  1.0419  3.0046
  360MOL0     H49630   8.579  11.471   0.886  0.6304 -2.1751  4.5952
  360MOL0     H49631   8.559  11.382   0.734  5.0771  1.7350 -0.4473
  360MOL0     H49632   8.587  11.168   0.891 -0.4939  0.8903  0.6772
  360MOL0     H49633   8.734  11.265   0.874  1.8233  2.5900  2.1315
  360MOL0     H49634   8.685  11.366   1.105  0.5504 -0.3426  0.4893
  360MOL0     H49635   8.552  11.276   1.110 -0.2057  2.2540 -0.9074
  360MOL0     H49636   8.704  11.115   1.215  1.7000 -3.6387 -1.3878
  360MOL0     H49637   8.710  11.071   1.050 -0.3849 -0.0213 -1.1347
  360MOL0     H49638   9.121  11.202   1.141 -1.0242 -0.5715  1.0206
  360MOL0     H49639   9.358  11.391   1.316  0.0521  0.2136 -0.6061
  360MOL0     H49640   9.334  11.253   1.215 -0.9744 -1.0578 -0.1546
  360MOL0     H49641   9.309  11.220   1.387 -3.2456 -1.4077 -0.5389
  360MOL0     H49642   8.962  11.677   1.761 -0.6964 -0.6178  0.1526
  360MOL0     H49643   9.043  11.817   1.966  0.0291  0.3282 -2.1466
  360MOL0     H49644   9.291  11.826   2.266 -0.7071  1.7133 -1.6585
  360MOL0     H49645   9.142  11.769   2.212  0.2364  0.3729  1.8449
  360MOL0     H49646   9.271  11.550   2.132 -1.0548  1.1182 -0.4151
  360MOL0     H49647   9.403  11.613   2.226  0.0259 -2.1357 -2.7056
  360MOL0     H49648   9.331  11.560   2.435  0.0198  1.7893  0.0996
  360MOL0     H49649   9.253  11.438   2.331 -0.1223  0.3861  0.2594
  360MOL0     H49650   9.044  11.597   2.342 -2.4459 -0.1522  2.4464
  360MOL0     H49651   9.144  11.703   2.435 -1.3010  0.7755 -1.8157
  360MOL0     H49652   9.048  11.427   2.494  0.6417 -0.5156  0.4885
  360MOL0     H49653   9.168  11.499   2.609 -0.7165  2.0142  1.4277
  360MOL0     H49654   8.923  11.523   2.675  0.5906 -0.0407  1.0670
  360MOL0     H49655   8.890  11.623   2.535  0.2030 -0.5082 -1.2866
  360MOL0     H49656   8.983  11.800   2.639 -2.3861  0.0118  0.7268
  360MOL0     H49657   9.112  11.708   2.730  0.1607  3.8697  0.4741
  360MOL0     H49658   8.915  11.829   2.860  0.0468  0.9159 -1.3992
  360MOL0     H49659   8.950  11.665   2.907 -0.1005  1.3393  0.6782
  360MOL0     H49660   9.424  11.625   1.918  0.1511  0.6162 -0.2878
  360MOL0     H49661   9.342  11.498   1.727 -2.4173 -1.7171 -2.5121
  360MOL0     H49662   8.885  11.426   1.508 -1.6209  0.5267 -1.3590
  360MOL0     H49663   8.766  11.311   1.347  0.5474 -1.1941  0.6489
  360MOL0     H49664   7.362  11.481   0.959 -1.1931  2.3269 -2.5344
  360MOL0     H49665   7.191  11.564   1.107  2.0317 -2.1969  3.1364
  360MOL0     H49666   6.987  11.618   1.339  1.8898 -0.8187  3.6517
  360MOL0     H49667   6.944  11.758   1.530  0.5767 -0.6015 -0.8648
  360MOL0     H49668   6.931  11.785   1.762  0.9470  2.1433 -1.3634
  360MOL0     H49669   6.863  11.897   1.666 -1.0483 -1.2860 -2.0429
  360MOL0     H49670   6.787  12.015   1.831  1.8774 -0.2308  0.2297
  360MOL0     H49671   6.897  11.915   1.926 -0.3022 -3.8508  1.9172
  360MOL0     H49672   6.636  11.787   1.906  0.2556  0.5929 -1.3622
  360MOL0     H49673   6.751  11.823   2.053 -0.2583  3.1835  1.4159
  360MOL0     H49674   6.516  11.914   2.044  0.1402 -0.9969 -0.0801
  360MOL0     H49675   6.561  12.009   1.905  1.2568  1.4403  0.3925
  360MOL0     H49676   6.740  12.277   2.144  0.5277 -0.6529  3.3387
  360MOL0     H49677   6.564  11.572   1.581 -1.2943 -0.3586 -2.5364
  360MOL0     H49678   6.601  11.308   1.414 -4.1344  1.1300  4.5301
  360MOL0     H49679   6.472  11.425   1.430  0.8370 -1.2167  4.0366
  360MOL0     H49680   6.549  11.388   1.271 -0.0894 -1.9667  0.9142
  361MOL0     O49681  10.263  10.489  11.276 -0.1567  0.2899  0.6792
  361MOL0     C49682  10.376  10.454  11.236  0.3507 -0.1426  0.8653
  361MOL0     O49683  10.430  10.336  11.251 -0.0439 -0.3407 -0.3274
  361MOL0     C49684  10.379  10.240  11.320  0.2055 -0.2806  0.4423
  361MOL0     C49685  10.349  10.249  11.454 -0.1655  0.1147 -1.3852
  361MOL0     C49686  10.290  10.136  11.518  0.3943  0.0524 -0.3828
  361MOL0     C49687  10.249  10.024  11.441 -0.9041 -0.3898  0.4929
  361MOL0     O49688  10.200   9.904  11.483  0.6113  0.5414 -0.0121
  361MOL0     C49689  10.120   9.908  11.598  0.6629  0.4396  0.1443
  361MOL0     C49690  10.082   9.760  11.643 -0.1267 -0.2104  0.1415
  361MOL0     C49691  10.119   9.740  11.786 -0.6266 -0.0774 -0.5577
  361MOL0     C49692  10.064   9.609  11.861  0.1246  0.8381 -0.2324
  361MOL0     C49693  10.088   9.606  12.013  0.3622  0.6430 -0.5041
  361MOL0     C49694  10.242   9.578  12.039 -0.2508  0.6904  0.2808
  361MOL0     C49695  10.294   9.556  12.180  0.2131  1.0218 -0.2439
  361MOL0     C49696  10.254   9.424  12.257  0.3085 -0.7197 -0.1155
  361MOL0     N49697  10.264   9.457  12.400  0.1060 -0.5732  0.2174
  361MOL0     C49698  10.350   9.544  12.462 -0.0404  0.4701 -1.0104
  361MOL0     C49699  10.301   9.554  12.594  0.5158  0.0733 -0.5016
  361MOL0     C49700  10.358   9.640  12.711 -0.4414 -0.3725  0.3113
  361MOL0     C49701  10.480   9.567  12.776 -0.2136  0.0021 -0.1328
  361MOL0     C49702  10.530   9.628  12.910  0.1152  0.1135 -0.2893
  361MOL0     C49703  10.436   9.618  13.032 -0.0816 -0.6652  0.3032
  361MOL0     O49704  10.490   9.694  13.137  0.5409  0.5535 -1.1876
  361MOL0     C49705  10.488   9.617  13.252 -0.8041 -0.3152 -0.7210
  361MOL0     C49706  10.619   9.583  13.302 -0.5452  0.5614  0.4242
  361MOL0     C49707  10.637   9.524  13.423  0.4134  0.9030 -0.2899
  361MOL0     C49708  10.773   9.463  13.481  0.2229  0.0137  0.8641
  361MOL0     C49709  10.523   9.499  13.504  0.5724  0.0296 -0.3590
  361MOL0     C49710  10.534   9.456  13.642 -1.0417 -0.2371 -0.0740
  361MOL0     O49711  10.591   9.534  13.741  0.0570  0.2110  0.6587
  361MOL0     C49712  10.592   9.672  13.722 -0.1409 -0.1076 -0.3511
  361MOL0     C49713  10.709   9.733  13.677 -0.4300  0.6921 -0.1594
  361MOL0     C49714  10.719   9.866  13.648 -0.1473  1.2446 -0.4241
  361MOL0     C49715  10.605   9.943  13.673 -0.6750 -0.5477 -0.0720
  361MOL0     O49716  10.612  10.081  13.647  0.3618 -0.6405  0.0016
  361MOL0     C49717  10.515  10.137  13.556  0.3044  0.9914  0.0417
  361MOL0     C49718  10.511  10.054  13.422  0.0602  0.1748 -0.1735
  361MOL0     C49719  10.633  10.066  13.320  0.2954 -1.1780  0.1353
  361MOL0     C49720  10.743   9.961  13.325  0.7413  0.3407  0.4976
  361MOL0     C49721  10.791   9.902  13.186 -1.0263 -0.7492  0.2471
  361MOL0     C49722  10.922   9.825  13.201 -0.6646  0.8247  0.7691
  361MOL0     C49723  10.955   9.769  13.062 -0.2719  0.2521 -0.4270
  361MOL0     C49724  11.027   9.642  13.066 -0.1527  1.2949  0.8565
  361MOL0    Cl49725  10.939   9.519  13.164  0.0126 -0.4183 -0.3097
  361MOL0     C49726  10.480   9.883  13.712 -0.1497 -0.4219  0.9057
  361MOL0     C49727  10.471   9.745  13.738 -0.0443  0.8693  0.5286
  361MOL0     O49728  10.503   9.332  13.665 -0.0272 -1.1947  0.9751
  361MOL0     C49729  10.394   9.549  13.470 -0.2121 -0.5608 -0.3973
  361MOL0     C49730  10.374   9.603  13.342  0.1443  0.4572  0.5728
  361MOL0     N49731  10.194   9.461  12.604  0.0892  1.3726 -0.1835
  361MOL0     N49732  10.175   9.411  12.489  0.0404 -0.6145  0.5228
  361MOL0     C49733  10.281  10.027  11.306  0.1304  0.5762  0.1571
  361MOL0     C49734  10.342  10.133  11.248  0.0690 -0.0049 -0.3182
  361MOL0     C49735  10.467  10.563  11.175 -0.0878  0.3092  0.0322
  361MOL0     C49736  10.602  10.561  11.215 -0.7669 -0.3634  0.8406
  361MOL0     C49737  10.693  10.662  11.168  0.1353 -0.3037  0.1747
  361MOL0     C49738  10.653  10.765  11.090 -0.4063  1.3354 -0.8504
  361MOL0     O49739  10.749  10.849  11.045  0.1278 -0.2464  0.1223
  361MOL0     C49740  10.751  10.913  10.913  0.6725  0.4403  0.6450
  361MOL0     C49741  10.902  10.919  10.870  0.6356 -0.3066  0.8553
  361MOL0     C49742  10.929  11.001  10.748  0.1957  0.5905  0.4907
  361MOL0     C49743  11.074  10.985  10.677  0.1326  0.1468 -0.2464
  361MOL0     C49744  11.181  11.022  10.768  0.2765 -1.1451  0.6224
  361MOL0     C49745  11.268  11.056  10.849 -0.4677  0.3815 -0.5641
  361MOL0     C49746  10.521  10.766  11.053 -0.6174  0.0521 -0.4522
  361MOL0     C49747  10.431  10.667  11.096 -0.2308  0.6061 -0.4313
  361MOL0     C49748  10.283  10.687  11.055 -0.3867 -0.6731 -0.4616
  361MOL0     H49749  10.372  10.336  11.515 -2.1248  0.1516 -0.6535
  361MOL0     H49750  10.265  10.153  11.622  0.9148  3.5695 -0.7163
  361MOL0     H49751  10.030   9.947  11.550  0.3571  0.0282  0.3874
  361MOL0     H49752  10.164   9.962  11.682 -0.7038 -1.4277  2.1541
  361MOL0     H49753   9.973   9.764  11.635 -0.1011  4.3647 -1.2634
  361MOL0     H49754  10.130   9.689  11.574  0.5403 -0.1395  0.5264
  361MOL0     H49755  10.227   9.728  11.793 -0.7061 -0.8612 -0.5254
  361MOL0     H49756  10.074   9.818  11.848 -0.4580 -0.6544  0.3107
  361MOL0     H49757   9.955   9.608  11.852  0.0302  3.0219  0.3184
  361MOL0     H49758  10.110   9.522  11.812 -4.1314 -2.2114  0.5747
  361MOL0     H49759  10.030   9.521  12.052 -0.9756  2.2786  1.2823
  361MOL0     H49760  10.048   9.690  12.071 -0.1284  0.2719 -0.2971
  361MOL0     H49761  10.282   9.499  11.975  1.6630  1.0271  0.9719
  361MOL0     H49762  10.297   9.663  11.997  3.3041 -2.0547 -1.1140
  361MOL0     H49763  10.276   9.651  12.233 -1.2004  1.4680 -1.4730
  361MOL0     H49764  10.403   9.542  12.179  0.7110  3.3141  2.8602
  361MOL0     H49765  10.150   9.405  12.229  0.5967 -1.6222 -0.5977
  361MOL0     H49766  10.310   9.341  12.212 -1.1415 -0.6532 -2.1819
  361MOL0     H49767  10.439   9.602  12.440  1.8961 -2.4683 -1.4137
  361MOL0     H49768  10.275   9.655  12.780 -0.3061  0.0320  0.3926
  361MOL0     H49769  10.397   9.735  12.672 -0.9190 -0.9784 -1.7326
  361MOL0     H49770  10.460   9.462  12.798 -0.1114 -0.3581 -1.6258
  361MOL0     H49771  10.561   9.580  12.703  1.8734 -2.1162  1.6648
  361MOL0     H49772  10.627   9.590  12.942 -1.0114 -1.9804  0.9135
  361MOL0     H49773  10.558   9.733  12.892  5.6414 -1.1362 -0.6808
  361MOL0     H49774  10.341   9.664  13.002  0.1418  1.7300  2.8513
  361MOL0     H49775  10.412   9.515  13.060 -3.0739 -0.6716 -1.7909
  361MOL0     H49776  10.698   9.609  13.232 -1.7661  0.4577 -1.0514
  361MOL0     H49777  10.834   9.432  13.396  1.1725 -0.2028  1.6057
  361MOL0     H49778  10.748   9.374  13.539 -3.3345  1.8457  2.4439
  361MOL0     H49779  10.836   9.528  13.544  1.3471 -0.1809 -0.0184
  361MOL0     H49780  10.801   9.676  13.688 -0.1998  1.0306 -0.3132
  361MOL0     H49781  10.813   9.912  13.622  1.2397 -1.3521 -0.3479
  361MOL0     H49782  10.422  10.125  13.613  0.4395 -4.1825 -0.3948
  361MOL0     H49783  10.548  10.241  13.543 -0.0221  0.8483 -2.3005
  361MOL0     H49784  10.497   9.945  13.430  1.4414  0.1108  2.4350
  361MOL0     H49785  10.413  10.080  13.383 -0.3923 -1.0393  0.0898
  361MOL0     H49786  10.674  10.167  13.315  2.7437 -2.1478 -0.7126
  361MOL0     H49787  10.581  10.051  13.224 -0.0757 -2.0159  0.4528
  361MOL0     H49788  10.706   9.872  13.377 -1.1428  1.3709  0.9903
  361MOL0     H49789  10.821   9.999  13.392 -1.0940 -0.5845  3.3682
  361MOL0     H49790  10.710   9.852  13.132 -0.7402 -1.8767  0.8181
  361MOL0     H49791  10.820   9.991  13.130 -3.9915 -0.5917 -1.2163
  361MOL0     H49792  10.918   9.749  13.279  0.8615  1.2775  1.3363
  361MOL0     H49793  11.006   9.894  13.214  1.5096 -0.9733 -2.3198
  361MOL0     H49794  11.006   9.845  13.002 -3.7352  2.7442 -0.5133
  361MOL0     H49795  10.858   9.745  13.016 -1.1051 -0.5138  1.6103
  361MOL0     H49796  11.129   9.647  13.106  0.7750 -1.9511 -0.7315
  361MOL0     H49797  11.029   9.613  12.960 -1.9516  3.0945  0.2765
  361MOL0     H49798  10.394   9.949  13.716  0.7323  0.8964 -0.5110
  361MOL0     H49799  10.372   9.703  13.752  1.0868 -1.3167  2.6664
  361MOL0     H49800  10.319   9.538  13.547  0.4747 -1.4301  0.1608
  361MOL0     H49801  10.270   9.632  13.328 -0.8574 -1.4248  3.2049
  361MOL0     H49802  10.273   9.931  11.256  0.7518 -0.5047  2.0443
  361MOL0     H49803  10.362  10.128  11.142 -0.5501  1.4302 -0.5255
  361MOL0     H49804  10.641  10.473  11.265  2.4642  1.1537  1.2321
  361MOL0     H49805  10.794  10.668  11.207  2.6031 -1.4283 -5.1294
  361MOL0     H49806  10.705  10.848  10.838  2.9270  0.9374 -1.2722
  361MOL0     H49807  10.700  11.010  10.914 -0.2904 -0.0522  0.6008
  361MOL0     H49808  10.927  10.814  10.853  1.8776  0.0034  0.7078
  361MOL0     H49809  10.959  10.958  10.954 -0.2682  0.9666  0.9073
  361MOL0     H49810  10.855  10.997  10.668  0.4868  0.8698  0.1999
  361MOL0     H49811  10.921  11.106  10.776  3.0796  1.2315 -0.7083
  361MOL0     H49812  11.073  11.048  10.587 -0.0017 -0.4633 -0.6816
  361MOL0     H49813  11.079  10.879  10.652  1.8863 -0.5401  2.5805
  361MOL0     H49814  11.349  11.084  10.913 -1.1617 -1.6947  1.3398
  361MOL0     H49815  10.482  10.842  10.986 -1.0667 -0.1740 -0.4437
  361MOL0     H49816  10.220  10.716  11.140 -1.2132 -0.1769 -1.2256
  361MOL0     H49817  10.280  10.772  10.985 -3.0463 -1.4015 -1.3694
  361MOL0     H49818  10.228  10.598  11.023 -1.8300  0.1867 -0.4899
  362MOL0     O49819   1.468   7.582  11.573 -0.9545  1.0281  1.1233
  362MOL0     C49820   1.383   7.651  11.512 -1.3211 -0.1168 -0.9278
  362MOL0     O49821   1.398   7.704  11.398  0.3087 -0.7238  0.9083
  362MOL0     C49822   1.467   7.647  11.291 -0.3779 -0.1821 -0.1139
  362MOL0     C49823   1.495   7.511  11.266 -0.3942  0.9083 -0.0353
  362MOL0     C49824   1.545   7.464  11.142 -0.3668  0.2163 -0.5195
  362MOL0     C49825   1.582   7.555  11.048  0.5548 -0.3800 -0.3282
  362MOL0     O49826   1.659   7.513  10.942 -0.1447 -0.0051  0.1324
  362MOL0     C49827   1.601   7.416  10.850 -0.0701 -0.3303 -0.0394
  362MOL0     C49828   1.695   7.412  10.732 -0.0406 -0.7436 -0.2829
  362MOL0     C49829   1.716   7.545  10.647  0.5390 -0.0515 -0.9882
  362MOL0     C49830   1.846   7.627  10.680  0.8083 -0.0624 -0.3046
  362MOL0     C49831   1.826   7.782  10.709 -0.3793  0.7258 -0.6525
  362MOL0     C49832   1.841   7.870  10.581 -0.0700  0.4639 -0.3282
  362MOL0     C49833   1.955   7.969  10.593 -0.4186 -1.1739  0.6009
  362MOL0     C49834   1.971   8.065  10.474  0.0161 -0.6693 -0.2241
  362MOL0     N49835   1.880   8.174  10.477  0.0116  0.1190  0.8263
  362MOL0     C49836   1.854   8.263  10.572 -0.5045  0.3013 -1.0746
  362MOL0     C49837   1.781   8.364  10.519  0.5915  0.3802  0.9080
  362MOL0     C49838   1.719   8.491  10.589  0.2078  0.3065 -0.0696
  362MOL0     C49839   1.636   8.590  10.506 -0.1400 -0.5038 -0.1981
  362MOL0     C49840   1.591   8.690  10.608  0.5795  0.1795 -0.1065
  362MOL0     C49841   1.528   8.818  10.544 -0.3974  0.7586  0.3173
  362MOL0     O49842   1.416   8.787  10.468 -0.2423 -0.2705 -0.0925
  362MOL0     C49843   1.297   8.845  10.510 -0.5203  0.1713 -0.5634
  362MOL0     C49844   1.278   8.971  10.562 -0.8626 -0.7436  0.3320
  362MOL0     C49845   1.152   9.015  10.595 -0.6342  0.8344 -1.1251
  362MOL0     C49846   1.152   9.154  10.660 -0.4520 -0.5965  0.9240
  362MOL0     C49847   1.042   8.930  10.573  0.2670  0.0781 -0.6520
  362MOL0     C49848   0.898   8.961  10.599  0.3355  0.5406 -0.4571
  362MOL0     O49849   0.803   8.906  10.519 -0.3120  0.6694 -0.6983
  362MOL0     C49850   0.668   8.904  10.548 -0.3250  0.1297 -1.0682
  362MOL0     C49851   0.611   8.794  10.614 -0.0286 -0.0049 -0.2441
  362MOL0     C49852   0.479   8.809  10.663 -0.3195  0.1416  0.6788
  362MOL0     C49853   0.395   8.913  10.636 -0.6722 -0.5493 -0.0335
  362MOL0     O49854   0.262   8.909  10.652 -0.3587  0.6641  0.3422
  362MOL0     C49855   0.196   9.043  10.662  0.0174  0.3638 -0.2016
  362MOL0     C49856   0.092   9.030  10.775  0.3712 -0.2606  0.0199
  362MOL0     C49857   0.022   9.168  10.796  0.6110  0.2588  0.6614
  362MOL0     C49858   0.081   9.243  10.916 -0.1319  0.0302  0.3681
  362MOL0     C49859   0.005   9.362  10.961 -0.0300  0.8629  0.3786
  362MOL0     C49860   0.006   9.478  10.865 -0.0386 -0.7915 -0.8943
  362MOL0     C49861  -0.072   9.593  10.907  0.4323  0.1210  0.1164
  362MOL0     C49862  -0.101   9.692  10.796 -0.9732 -0.2135 -1.2009
  362MOL0    Cl49863   0.016   9.825  10.816  0.1108 -0.2456  0.1850
  362MOL0     C49864   0.455   9.023  10.570 -0.9163  1.1517  1.4224
  362MOL0     C49865   0.585   9.020  10.533 -1.3222 -0.0304  0.3703
  362MOL0     O49866   0.876   9.037  10.690 -0.3009 -0.3792 -0.3279
  362MOL0     C49867   1.066   8.799  10.521 -0.2249  0.2900 -0.3843
  362MOL0     C49868   1.191   8.763  10.490 -0.6600  0.0110 -0.0765
  362MOL0     N49869   1.771   8.333  10.389 -0.9552 -0.6578  0.4342
  362MOL0     N49870   1.840   8.222  10.362  0.2422  0.0312 -0.4029
  362MOL0     C49871   1.564   7.691  11.078 -0.8409 -0.1129 -0.0026
  362MOL0     C49872   1.502   7.741  11.188 -0.4979  0.9015 -0.0758
  362MOL0     C49873   1.238   7.639  11.556 -0.1652  0.5094 -0.3466
  362MOL0     C49874   1.140   7.605  11.461  0.3260 -0.2127 -0.0273
  362MOL0     C49875   0.999   7.623  11.488  0.5842  0.3279 -0.3738
  362MOL0     C49876   0.963   7.689  11.612 -0.4789  0.6320  0.1928
  362MOL0     O49877   0.834   7.706  11.637 -0.8314 -0.4832 -0.8787
  362MOL0     C49878   0.781   7.773  11.746  1.2222 -0.4897  0.1317
  362MOL0     C49879   0.628   7.724  11.767 -0.5092 -1.3841  0.5211
  362MOL0     C49880   0.581   7.795  11.896 -0.3332  0.2110 -0.4540
  362MOL0     C49881   0.573   7.707  12.022  0.8479 -0.4069 -0.6546
  362MOL0     C49882   0.563   7.805  12.132  0.4267  0.4367  0.2381
  362MOL0     C49883   0.539   7.877  12.222 -0.6018 -0.0866  0.5040
  362MOL0     C49884   1.069   7.720  11.697  0.7278  0.1292 -0.4230
  362MOL0     C49885   1.195   7.687  11.678 -0.0480  0.4380 -0.7704
  362MOL0     C49886   1.296   7.715  11.790 -0.5255  0.3284  0.3898
  362MOL0     H49887   1.482   7.443  11.350 -1.0503  1.0342 -0.0300
  362MOL0     H49888   1.557   7.357  11.129 -2.4791 -0.2109  0.6570
  362MOL0     H49889   1.499   7.446  10.823  0.9560  1.4781 -2.3132
  362MOL0     H49890   1.606   7.315  10.893 -0.4600  0.8175  2.9125
  362MOL0     H49891   1.795   7.383  10.766 -0.1494 -1.3676 -0.4803
  362MOL0     H49892   1.667   7.324  10.673  1.4934 -0.4802 -1.4715
  362MOL0     H49893   1.709   7.509  10.544 -3.7220  0.2761 -0.9863
  362MOL0     H49894   1.627   7.608  10.661  1.0550  0.4097  0.3006
  362MOL0     H49895   1.894   7.571  10.761 -0.3091 -2.1848 -1.0179
  362MOL0     H49896   1.911   7.620  10.592  1.1260  1.2560 -0.1962
  362MOL0     H49897   1.905   7.810  10.779 -0.5784 -2.7145  1.1645
  362MOL0     H49898   1.729   7.805  10.754 -0.5479  3.2095 -2.0671
  362MOL0     H49899   1.866   7.809  10.493  4.4080 -0.0918  1.0459
  362MOL0     H49900   1.752   7.929  10.558 -0.0576  1.1172  1.2365
  362MOL0     H49901   2.050   7.918  10.613 -0.1656 -1.3929 -1.0379
  362MOL0     H49902   1.942   8.033  10.681 -1.1833 -0.7423  0.1810
  362MOL0     H49903   2.076   8.095  10.464  0.8346 -3.3141 -0.2877
  362MOL0     H49904   1.949   8.011  10.381  1.1203  0.2344 -1.0467
  362MOL0     H49905   1.883   8.244  10.675  0.7207  0.7035 -1.3333
  362MOL0     H49906   1.810   8.540  10.623  0.0508  1.2416 -0.9276
  362MOL0     H49907   1.654   8.467  10.674 -1.0590  0.0749 -1.0623
  362MOL0     H49908   1.703   8.627  10.428  1.7847 -3.1532  0.0736
  362MOL0     H49909   1.548   8.549  10.455 -1.6521 -1.2343  2.7268
  362MOL0     H49910   1.517   8.652  10.680  0.5121  0.9826  0.2590
  362MOL0     H49911   1.674   8.720  10.671 -0.2965  1.1753  0.6107
  362MOL0     H49912   1.508   8.899  10.615 -2.8854 -0.4689  1.1139
  362MOL0     H49913   1.606   8.857  10.478 -0.7683  0.6862 -0.1671
  362MOL0     H49914   1.370   9.027  10.579 -0.5658 -0.8983 -0.6638
  362MOL0     H49915   1.165   9.136  10.767  0.4424 -0.3010  0.8691
  362MOL0     H49916   1.069   9.222  10.641 -0.9137 -1.6341 -1.0617
  362MOL0     H49917   1.240   9.201  10.617 -1.5760  1.1430  0.4274
  362MOL0     H49918   0.665   8.704  10.640 -2.0299 -1.1867  0.0465
  362MOL0     H49919   0.438   8.718  10.707  1.0973 -0.5696  0.5613
  362MOL0     H49920   0.259   9.125  10.696  0.0362  0.0780  0.4585
  362MOL0     H49921   0.138   9.069  10.572 -0.9604  2.1698  0.8893
  362MOL0     H49922   0.014   8.960  10.744 -1.6213  1.8597 -0.0153
  362MOL0     H49923   0.140   8.996  10.867  0.4085  4.2696  1.8995
  362MOL0     H49924  -0.082   9.146  10.822  0.8739 -1.8352  0.0946
  362MOL0     H49925   0.018   9.225  10.702 -1.7690 -1.1642 -0.1733
  362MOL0     H49926   0.180   9.271  10.879 -1.0449  2.4681 -0.4634
  362MOL0     H49927   0.101   9.180  11.003  0.9417  2.0059  1.6284
  362MOL0     H49928  -0.099   9.344  10.991  0.7862 -0.1042  2.8636
  362MOL0     H49929   0.064   9.400  11.045  3.9211  2.7844 -2.9034
  362MOL0     H49930  -0.040   9.438  10.774 -0.0327 -0.5371 -1.0131
  362MOL0     H49931   0.102   9.521  10.836 -0.9475  1.5100 -0.7113
  362MOL0     H49932  -0.004   9.637  10.981  0.3230 -1.1475  1.0148
  362MOL0     H49933  -0.166   9.562  10.954  1.3062 -1.9198  0.6555
  362MOL0     H49934  -0.205   9.720  10.809 -0.9439 -0.7775  0.5458
  362MOL0     H49935  -0.094   9.661  10.691 -0.2647 -1.8152 -0.7116
  362MOL0     H49936   0.404   9.111  10.533 -1.7669  1.2841  2.8370
  362MOL0     H49937   0.621   9.107  10.480  0.0263 -0.8203 -0.0668
  362MOL0     H49938   0.983   8.728  10.524  0.4827 -0.7721 -2.9868
  362MOL0     H49939   1.220   8.673  10.436  0.4746  0.5977 -0.4787
  362MOL0     H49940   1.619   7.754  11.009  2.7149  1.6599  3.9847
  362MOL0     H49941   1.476   7.846  11.173 -2.0616  0.7570  1.3096
  362MOL0     H49942   1.165   7.558  11.367  0.6695 -0.3201  0.1197
  362MOL0     H49943   0.917   7.603  11.419  0.3842  0.9418 -0.3201
  362MOL0     H49944   0.848   7.756  11.832  0.5378  0.1423  0.8064
  362MOL0     H49945   0.781   7.881  11.726  0.2562 -0.0431  2.2812
  362MOL0     H49946   0.616   7.618  11.793 -0.8323 -1.3163  0.6606
  362MOL0     H49947   0.560   7.757  11.688  2.9068 -1.1056 -2.5489
  362MOL0     H49948   0.657   7.872  11.916  1.1839 -1.7313  1.7377
  362MOL0     H49949   0.492   7.854  11.871  0.8858  0.8008 -3.9855
  362MOL0     H49950   0.665   7.647  12.023  2.7161  2.2678 -0.6919
  362MOL0     H49951   0.489   7.637  12.018  0.1090  0.5197 -2.9020
  362MOL0     H49952   0.519   7.946  12.302 -1.2228  4.2446 -2.9955
  362MOL0     H49953   1.044   7.759  11.795  1.4442 -1.5104  0.4525
  362MOL0     H49954   1.352   7.808  11.776  3.6522 -2.1076 -0.7912
  362MOL0     H49955   1.239   7.713  11.884  1.1727 -2.6168  1.5046
  362MOL0     H49956   1.366   7.631  11.797 -1.7659 -0.7044  0.8087
  363MOL0     O49957   6.286   9.956   0.124 -0.4163 -0.4982  0.3614
  363MOL0     C49958   6.227   9.866   0.181  0.3536  0.4471  0.0252
  363MOL0     O49959   6.105   9.870   0.249 -0.1166  0.2116 -0.1530
  363MOL0     C49960   6.028   9.989   0.249 -0.8982 -0.4210 -0.3719
  363MOL0     C49961   6.006  10.054   0.133 -0.3947 -0.6831  1.1225
  363MOL0     C49962   5.940  10.179   0.140  0.5025  0.4280  0.0730
  363MOL0     C49963   5.895  10.230   0.261 -0.8156 -0.6231  1.4052
  363MOL0     O49964   5.817  10.341   0.254  0.1906  0.9944  0.4855
  363MOL0     C49965   5.823  10.438   0.362 -0.7062 -1.2812  1.0465
  363MOL0     C49966   5.807  10.572   0.298  0.0855 -1.2423  0.2844
  363MOL0     C49967   5.932  10.629   0.218  0.8241 -0.3081  0.1170
  363MOL0     C49968   6.015  10.732   0.305 -0.3668  1.4491  0.1044
  363MOL0     C49969   6.146  10.773   0.242 -0.2382  0.7943  0.2520
  363MOL0     C49970   6.124  10.848   0.109  0.3621  0.8680 -0.9642
  363MOL0     C49971   6.247  10.936   0.086  0.3090 -0.5896  0.3390
  363MOL0     C49972   6.267  11.004  -0.052  0.9001 -0.9860  0.0115
  363MOL0     N49973   6.366  10.935  -0.136 -0.2657 -0.9959 -0.2180
  363MOL0     C49974   6.371  10.803  -0.181  0.5144  0.6534 -0.1451
  363MOL0     C49975   6.489  10.791  -0.242 -0.9795 -0.8564  0.1703
  363MOL0     C49976   6.552  10.681  -0.313 -0.3283 -0.6388  0.5200
  363MOL0     C49977   6.513  10.669  -0.458 -0.1407 -0.9181 -0.4739
  363MOL0     C49978   6.563  10.797  -0.541 -0.0494 -0.3729 -0.0658
  363MOL0     C49979   6.722  10.800  -0.539 -0.6602 -0.4994 -0.3970
  363MOL0     O49980   6.794  10.673  -0.556 -0.3899 -0.3107 -0.4767
  363MOL0     C49981   6.831  10.667  -0.686 -0.8191 -0.6461 -0.1609
  363MOL0     C49982   6.740  10.627  -0.783  0.3281 -1.2205  0.8214
  363MOL0     C49983   6.791  10.601  -0.913 -0.3528 -0.5223  0.6762
  363MOL0     C49984   6.676  10.566  -1.017  0.4935 -0.9219 -0.6240
  363MOL0     C49985   6.930  10.595  -0.943  0.4893 -0.1859  0.4527
  363MOL0     C49986   6.985  10.560  -1.074  1.4508 -0.8302 -0.0128
  363MOL0     O49987   7.107  10.614  -1.105 -0.3894 -0.3221 -0.4912
  363MOL0     C49988   7.159  10.580  -1.222  0.5180 -1.0736 -0.1071
  363MOL0     C49989   7.121  10.642  -1.349  0.0761 -0.9816 -1.1034
  363MOL0     C49990   7.188  10.600  -1.470 -0.6855  0.5375  0.8988
  363MOL0     C49991   7.299  10.511  -1.465 -0.7653  0.0473 -0.0156
  363MOL0     O49992   7.369  10.474  -1.577  0.1673 -0.3029  0.4436
  363MOL0     C49993   7.325  10.504  -1.707  0.1671 -0.4127  0.5320
  363MOL0     C49994   7.412  10.428  -1.796  0.7159 -0.2924  0.2614
  363MOL0     C49995   7.559  10.474  -1.784  0.8161  0.8780 -0.3127
  363MOL0     C49996   7.662  10.390  -1.865  0.9560 -0.7626  0.2356
  363MOL0     C49997   7.777  10.462  -1.924  0.3063  0.0991 -0.4984
  363MOL0     C49998   7.862  10.510  -1.812  0.6190 -0.4501  0.0941
  363MOL0     C49999   7.933  10.411  -1.715 -1.1124 -0.0353 -0.1286
  363MOL0     C50000   7.996  10.461  -1.582  0.3615  0.5180 -0.2976
  363MOL0    Cl50001   7.859  10.512  -1.476 -0.4578  0.0707 -0.0906
  363MOL0     C50002   7.344  10.469  -1.337 -0.5115 -0.3059  0.5863
  363MOL0     C50003   7.271  10.493  -1.223  0.1154  0.7978  0.0677
  363MOL0     O50004   6.904  10.485  -1.148 -0.5198 -0.5230 -0.1516
  363MOL0     C50005   7.026  10.628  -0.841  0.1168  0.5260 -1.1002
  363MOL0     C50006   6.976  10.674  -0.716  0.0682  0.2006  0.0096
  363MOL0     N50007   6.549  10.911  -0.234 -0.6342 -0.2851  0.4693
  363MOL0     N50008   6.488  10.993  -0.174 -0.8034  0.6992 -0.4502
  363MOL0     C50009   5.929  10.164   0.384 -0.6731 -0.1268 -0.0890
  363MOL0     C50010   5.991  10.042   0.375 -0.6094  0.0143  0.4684
  363MOL0     C50011   6.314   9.741   0.179  0.5660  0.5875 -0.8589
  363MOL0     C50012   6.272   9.626   0.105 -0.6111  0.0301 -0.6807
  363MOL0     C50013   6.320   9.502   0.115 -0.2885  0.2844 -0.1889
  363MOL0     C50014   6.431   9.479   0.200 -0.6817  0.7686 -0.5468
  363MOL0     O50015   6.463   9.341   0.221  1.1212 -1.0116  0.5811
  363MOL0     C50016   6.522   9.305   0.352 -0.0701 -0.2310  0.6969
  363MOL0     C50017   6.416   9.305   0.462  0.1659  0.4977  0.6259
  363MOL0     C50018   6.327   9.187   0.463  0.1961  0.6279 -0.3512
  363MOL0     C50019   6.302   9.153   0.608 -0.4765  0.0441 -0.7625
  363MOL0     C50020   6.239   9.261   0.689 -0.5185 -0.2497 -0.2936
  363MOL0     C50021   6.205   9.341   0.768 -0.7134  0.2504  0.0464
  363MOL0     C50022   6.494   9.593   0.253 -0.1551  0.3257 -0.9689
  363MOL0     C50023   6.436   9.717   0.256 -0.0444 -0.0907  0.6651
  363MOL0     C50024   6.494   9.825   0.346  0.0101 -0.3237  0.9207
  363MOL0     H50025   6.028  10.027   0.030  1.0144  1.6817  0.7299
  363MOL0     H50026   5.901  10.229   0.052 -1.4860  0.8048  1.1149
  363MOL0     H50027   5.919  10.437   0.415  1.4324 -3.9122 -2.4071
  363MOL0     H50028   5.745  10.423   0.437  0.1625  1.2804  2.5999
  363MOL0     H50029   5.721  10.565   0.231  1.0048  0.9122 -1.2382
  363MOL0     H50030   5.782  10.649   0.372 -1.2498 -0.8911 -0.4950
  363MOL0     H50031   5.998  10.561   0.164  3.4038  1.6973  0.5433
  363MOL0     H50032   5.897  10.696   0.139  6.3773  1.0780 -1.6311
  363MOL0     H50033   5.959  10.822   0.332 -0.2475  1.7745 -0.7193
  363MOL0     H50034   6.030  10.671   0.395 -0.2793 -0.3841 -1.1003
  363MOL0     H50035   6.206  10.684   0.219 -2.2853 -1.6185  3.3543
  363MOL0     H50036   6.203  10.831   0.316  0.3693  1.7441 -0.9301
  363MOL0     H50037   6.110  10.786   0.020  0.2320 -0.9444  0.2797
  363MOL0     H50038   6.036  10.910   0.127  1.2544  1.4564  1.9874
  363MOL0     H50039   6.336  10.874   0.096  0.7792 -0.8082 -3.5475
  363MOL0     H50040   6.237  11.013   0.163 -2.4156  2.5082 -2.7400
  363MOL0     H50041   6.176  11.024  -0.109  0.9036  0.4207  0.4570
  363MOL0     H50042   6.296  11.108  -0.037 -1.2818  0.0043 -1.9924
  363MOL0     H50043   6.298  10.723  -0.165  3.4216 -1.8608  1.8025
  363MOL0     H50044   6.516  10.597  -0.251 -1.3628  0.5553  1.5919
  363MOL0     H50045   6.660  10.687  -0.299 -0.0331 -2.3222 -0.6868
  363MOL0     H50046   6.558  10.578  -0.499  0.4284 -0.3415 -1.1684
  363MOL0     H50047   6.406  10.647  -0.460 -0.7112  1.5522 -1.2268
  363MOL0     H50048   6.527  10.784  -0.643 -0.7347  0.1850  0.0978
  363MOL0     H50049   6.527  10.893  -0.503 -1.2248 -1.5203  1.8833
  363MOL0     H50050   6.750  10.883  -0.604 -2.9888  1.4794  0.9364
  363MOL0     H50051   6.739  10.840  -0.438 -3.3153  2.7160 -1.0741
  363MOL0     H50052   6.635  10.622  -0.756 -0.1073 -0.3120 -0.6201
  363MOL0     H50053   6.676  10.459  -1.039  0.8175 -1.3032  1.0459
  363MOL0     H50054   6.693  10.627  -1.105  0.4409 -0.4642 -0.3192
  363MOL0     H50055   6.579  10.604  -0.985  1.0772  0.3081 -0.2577
  363MOL0     H50056   7.047  10.720  -1.347 -0.5657 -1.5936  0.0107
  363MOL0     H50057   7.190  10.652  -1.566  2.3210 -0.7120  0.1898
  363MOL0     H50058   7.222  10.471  -1.721 -0.4015  0.5207  2.2530
  363MOL0     H50059   7.334  10.612  -1.722 -0.1605 -0.2340  1.5712
  363MOL0     H50060   7.389  10.323  -1.774  0.2317 -0.8108 -2.3531
  363MOL0     H50061   7.380  10.437  -1.900 -1.3287  1.3761  0.9683
  363MOL0     H50062   7.593  10.483  -1.680  0.4536  3.0050 -0.3523
  363MOL0     H50063   7.560  10.577  -1.821  1.8516  0.8827 -0.3094
  363MOL0     H50064   7.604  10.356  -1.951  2.3359 -2.3022 -0.1442
  363MOL0     H50065   7.692  10.299  -1.812  1.3354  0.3351  2.0148
  363MOL0     H50066   7.825  10.393  -1.995  1.2149  2.3854 -2.2298
  363MOL0     H50067   7.738  10.547  -1.981 -0.1513 -1.0758 -2.0145
  363MOL0     H50068   7.808  10.577  -1.745  0.6861 -0.7026  0.4063
  363MOL0     H50069   7.948  10.564  -1.853  2.3200 -1.1658  2.4733
  363MOL0     H50070   8.008  10.360  -1.775 -0.2675  2.7386 -1.5551
  363MOL0     H50071   7.848  10.349  -1.683 -1.0391 -0.6419 -1.0904
  363MOL0     H50072   8.058  10.546  -1.614 -1.2692  0.8611 -2.7743
  363MOL0     H50073   8.051  10.377  -1.538 -2.2776 -2.4343 -2.1554
  363MOL0     H50074   7.435  10.410  -1.331 -0.7438 -0.9399 -1.5110
  363MOL0     H50075   7.305  10.446  -1.131  1.3051 -3.0473 -2.0877
  363MOL0     H50076   7.132  10.646  -0.846  1.1110 -1.9120  4.0855
  363MOL0     H50077   7.028  10.697  -0.623 -1.4101  2.4885  0.3467
  363MOL0     H50078   5.883  10.196   0.478 -0.6989 -1.4971  0.3895
  363MOL0     H50079   6.020   9.973   0.454  1.4192 -1.0362 -1.1125
  363MOL0     H50080   6.185   9.645   0.042 -3.0028  1.2218  2.7145
  363MOL0     H50081   6.282   9.415   0.061  0.6125 -1.3753  1.6995
  363MOL0     H50082   6.560   9.204   0.340 -0.0629  0.0891 -3.7551
  363MOL0     H50083   6.609   9.367   0.375  0.5514  1.9731 -5.5544
  363MOL0     H50084   6.347   9.386   0.439 -3.8908 -3.5567 -3.6311
  363MOL0     H50085   6.480   9.315   0.550  0.3021  1.6703  0.4015
  363MOL0     H50086   6.236   9.215   0.410  0.1939  1.7924  0.2334
  363MOL0     H50087   6.369   9.097   0.418 -1.0788 -0.0800 -0.1609
  363MOL0     H50088   6.395   9.118   0.654 -1.7500 -0.9009  1.2291
  363MOL0     H50089   6.237   9.065   0.615 -0.9078  0.3281 -1.1388
  363MOL0     H50090   6.173   9.419   0.834 -2.3872 -0.6519  0.3550
  363MOL0     H50091   6.586   9.578   0.308 -0.1194  0.2634 -1.0450
  363MOL0     H50092   6.451   9.924   0.328  3.3589  0.8951 -1.3548
  363MOL0     H50093   6.472   9.798   0.450 -0.4044 -0.4536  0.8044
  363MOL0     H50094   6.602   9.817   0.329 -0.2134  0.3052 -1.0687
  364MOL0     O50095   5.324   8.487   6.053 -0.5645 -0.6729 -0.2497
  364MOL0     C50096   5.248   8.491   5.958 -0.2066 -0.3590  0.6958
  364MOL0     O50097   5.230   8.595   5.871 -0.7766  0.4796  0.2393
  364MOL0     C50098   5.297   8.713   5.859 -0.1790  0.1479 -0.6565
  364MOL0     C50099   5.275   8.793   5.746 -0.4282 -0.1990 -0.7132
  364MOL0     C50100   5.342   8.918   5.722  0.2743 -0.0233  0.6328
  364MOL0     C50101   5.437   8.960   5.810 -0.7058  0.8192  0.1508
  364MOL0     O50102   5.513   9.068   5.762  0.9013 -0.5327  0.0212
  364MOL0     C50103   5.657   9.066   5.780  0.2856 -0.1717 -0.2850
  364MOL0     C50104   5.715   9.189   5.727 -0.5334 -0.2892 -0.2745
  364MOL0     C50105   5.759   9.266   5.853  0.3165 -0.4433  0.2052
  364MOL0     C50106   5.780   9.417   5.818 -0.4300 -0.3116  0.2375
  364MOL0     C50107   5.787   9.512   5.935  0.1989 -0.7517  0.6550
  364MOL0     C50108   5.639   9.541   5.991 -0.2004 -1.2218 -0.6770
  364MOL0     C50109   5.625   9.650   6.089  0.5088 -0.3242  0.4182
  364MOL0     C50110   5.483   9.671   6.147 -0.2171  0.7043 -0.5157
  364MOL0     N50111   5.482   9.784   6.243 -0.1123 -0.0709 -0.1798
  364MOL0     C50112   5.532   9.788   6.368  0.7484 -0.0031  0.1565
  364MOL0     C50113   5.513   9.915   6.414 -0.2914 -0.0706  0.8188
  364MOL0     C50114   5.533   9.972   6.546 -0.5487  1.0191 -0.0264
  364MOL0     C50115   5.657  10.060   6.548 -0.8484 -0.6994 -0.4431
  364MOL0     C50116   5.615  10.202   6.505 -0.4812  0.2632  0.2360
  364MOL0     C50117   5.547  10.291   6.607 -0.4671 -0.5762  0.3940
  364MOL0     O50118   5.649  10.370   6.666  0.5712 -0.3118 -0.1746
  364MOL0     C50119   5.620  10.494   6.718 -0.8958 -0.5560 -0.2073
  364MOL0     C50120   5.495  10.561   6.726 -0.2630  0.3074 -1.1209
  364MOL0     C50121   5.478  10.683   6.795 -1.2883 -0.0670 -0.0647
  364MOL0     C50122   5.350  10.760   6.810 -0.3913 -0.6378 -0.3589
  364MOL0     C50123   5.601  10.753   6.838  0.1491 -0.5910  0.0430
  364MOL0     C50124   5.600  10.886   6.910 -0.0700 -0.3221 -0.0584
  364MOL0     O50125   5.487  10.932   6.979  0.1270  0.2580  0.4290
  364MOL0     C50126   5.495  11.051   7.051 -0.2760 -0.6334  0.3818
  364MOL0     C50127   5.598  11.101   7.125  1.1389 -0.7168 -0.4824
  364MOL0     C50128   5.586  11.222   7.190  0.0154  0.1497 -0.2769
  364MOL0     C50129   5.462  11.294   7.191  1.0848  0.6171  1.0239
  364MOL0     O50130   5.446  11.402   7.268 -0.3710 -0.2811 -0.1595
  364MOL0     C50131   5.358  11.512   7.216 -0.4957  1.0626  0.6335
  364MOL0     C50132   5.367  11.644   7.300  0.1620  0.0558 -0.8764
  364MOL0     C50133   5.509  11.721   7.288  0.0279  0.0033 -0.3345
  364MOL0     C50134   5.562  11.753   7.146  0.8422  0.6475 -0.2348
  364MOL0     C50135   5.681  11.847   7.146 -0.1541 -1.3539  1.4306
  364MOL0     C50136   5.738  11.869   7.006 -0.3603  0.6434 -0.6433
  364MOL0     C50137   5.848  11.970   6.993  0.1551  0.7323 -0.6203
  364MOL0     C50138   5.878  11.998   6.840 -0.0748 -1.0937 -0.8168
  364MOL0    Cl50139   6.027  12.091   6.819 -0.3343 -0.0760  0.1194
  364MOL0     C50140   5.360  11.249   7.109 -0.1599  0.3346 -0.0224
  364MOL0     C50141   5.378  11.125   7.047  0.1470  0.5796  0.1355
  364MOL0     O50142   5.703  10.954   6.883  0.3888  0.1063  0.2540
  364MOL0     C50143   5.725  10.689   6.815  0.3605 -0.1982 -0.8160
  364MOL0     C50144   5.733  10.564   6.763 -0.1555  0.1901  0.4577
  364MOL0     N50145   5.447   9.977   6.309 -0.4813  0.0513  0.3702
  364MOL0     N50146   5.429   9.901   6.213  0.0309  0.0936 -0.2529
  364MOL0     C50147   5.477   8.868   5.916 -0.1379  0.3866 -0.4861
  364MOL0     C50148   5.406   8.744   5.940 -0.4727  0.0688 -0.6966
  364MOL0     C50149   5.152   8.370   5.940 -0.3408  0.2909  0.8061
  364MOL0     C50150   5.206   8.245   5.982 -0.5014 -0.5723 -0.2090
  364MOL0     C50151   5.158   8.120   5.940 -0.3620 -0.1503 -0.4110
  364MOL0     C50152   5.045   8.109   5.860  0.5005  0.3313  0.9271
  364MOL0     O50153   5.017   7.989   5.806 -0.7480 -0.3821  0.1879
  364MOL0     C50154   4.901   7.984   5.723 -0.8897  0.0334  0.6671
  364MOL0     C50155   4.851   7.840   5.698 -0.7019  1.2046 -0.0884
  364MOL0     C50156   4.963   7.738   5.651  0.7126 -0.4811  0.7617
  364MOL0     C50157   4.875   7.635   5.580 -0.9838  0.4142 -0.2471
  364MOL0     C50158   4.968   7.515   5.573  0.5616 -0.3875 -0.0364
  364MOL0     C50159   5.043   7.429   5.545 -0.1896  0.6082  0.5331
  364MOL0     C50160   4.989   8.233   5.818  0.0294  1.3627  0.6092
  364MOL0     C50161   5.039   8.363   5.853  0.0389 -0.9848 -0.1835
  364MOL0     C50162   4.959   8.487   5.810 -0.3469 -0.1020  0.4491
  364MOL0     H50163   5.216   8.765   5.659  0.0744 -1.3478 -0.7008
  364MOL0     H50164   5.319   8.976   5.634  0.8313 -0.8630 -0.0756
  364MOL0     H50165   5.697   8.987   5.717  2.2666 -0.9059  1.7655
  364MOL0     H50166   5.676   9.047   5.887 -0.4321 -2.8111 -0.5444
  364MOL0     H50167   5.796   9.168   5.657  0.0060  0.9450 -0.0548
  364MOL0     H50168   5.632   9.239   5.677 -0.2502 -1.3624 -1.8979
  364MOL0     H50169   5.676   9.245   5.920 -2.3436 -0.4110 -2.8191
  364MOL0     H50170   5.849   9.221   5.895  1.5695  1.9757  0.2998
  364MOL0     H50171   5.883   9.421   5.781  0.1946 -0.6186  1.8547
  364MOL0     H50172   5.711   9.459   5.745 -0.3729  1.6127  1.2238
  364MOL0     H50173   5.824   9.608   5.900  0.9561 -0.8935  1.0532
  364MOL0     H50174   5.853   9.486   6.018  1.4122  1.2747  0.4007
  364MOL0     H50175   5.571   9.574   5.911 -0.4050  2.0059  0.6798
  364MOL0     H50176   5.609   9.448   6.039  2.1588 -2.1233 -0.8447
  364MOL0     H50177   5.668   9.742   6.050  2.7126 -0.7903  1.6058
  364MOL0     H50178   5.695   9.620   6.167 -2.1720 -0.6987  2.8844
  364MOL0     H50179   5.407   9.689   6.069 -1.1518 -0.9341 -0.0318
  364MOL0     H50180   5.459   9.579   6.201  1.9432  0.6053  0.3656
  364MOL0     H50181   5.563   9.697   6.419  0.3962 -1.5281 -2.1984
  364MOL0     H50182   5.552   9.899   6.625 -2.2264  2.1761  1.5176
  364MOL0     H50183   5.441  10.019   6.581  1.7981  3.6327  3.3063
  364MOL0     H50184   5.698  10.058   6.649  1.1167 -0.8634 -1.1931
  364MOL0     H50185   5.729  10.016   6.479 -0.0256 -0.7544  0.4249
  364MOL0     H50186   5.697  10.249   6.450 -0.7463 -0.2078 -0.5833
  364MOL0     H50187   5.554  10.187   6.415  0.3089  2.4014 -0.7149
  364MOL0     H50188   5.465  10.355   6.573  0.0272  0.4052  1.0109
  364MOL0     H50189   5.492  10.227   6.675 -2.2169 -0.7536 -1.1044
  364MOL0     H50190   5.405  10.508   6.695 -1.4715  1.4587  0.2130
  364MOL0     H50191   5.372  10.854   6.759  1.3530 -0.0628  1.2846
  364MOL0     H50192   5.322  10.780   6.914  2.7948  0.2597  0.4455
  364MOL0     H50193   5.271  10.716   6.749 -1.0408 -1.2109  0.8488
  364MOL0     H50194   5.695  11.056   7.142  1.6198  0.3782 -0.2694
  364MOL0     H50195   5.656  11.268   7.259  0.0502  1.1393 -0.9364
  364MOL0     H50196   5.377  11.517   7.109  0.0565 -3.3591  0.3185
  364MOL0     H50197   5.253  11.482   7.225 -0.7263  1.8752  0.6723
  364MOL0     H50198   5.272  11.695   7.279 -0.3904 -0.8931 -0.7549
  364MOL0     H50199   5.364  11.628   7.408  1.2398 -5.1902 -1.3553
  364MOL0     H50200   5.580  11.647   7.328 -1.3191 -1.4374 -0.5336
  364MOL0     H50201   5.505  11.818   7.338 -0.4104 -0.6703  1.0145
  364MOL0     H50202   5.473  11.794   7.099  0.0996  0.1988  0.7389
  364MOL0     H50203   5.592  11.660   7.097 -1.7464  0.2283 -1.1725
  364MOL0     H50204   5.629  11.940   7.172 -0.1553 -0.8867 -0.1468
  364MOL0     H50205   5.761  11.812   7.212 -1.5426 -3.7960  1.9514
  364MOL0     H50206   5.667  11.890   6.925  2.2521  0.0915 -3.2343
  364MOL0     H50207   5.782  11.773   6.977 -0.4268  1.0667 -2.2231
  364MOL0     H50208   5.933  11.925   7.046 -1.0100  0.1213  0.8166
  364MOL0     H50209   5.811  12.063   7.038  2.6533  1.2970  0.4620
  364MOL0     H50210   5.799  12.055   6.791  2.0800  1.7541 -1.2746
  364MOL0     H50211   5.885  11.904   6.783 -2.5793 -1.5224 -0.5251
  364MOL0     H50212   5.264  11.296   7.090 -0.2187  1.4499  2.5694
  364MOL0     H50213   5.304  11.094   6.974 -0.3357 -0.5478  1.0773
  364MOL0     H50214   5.810  10.749   6.846  0.4532  0.8612 -2.9121
  364MOL0     H50215   5.827  10.516   6.737 -2.0156 -1.2125 -4.9908
  364MOL0     H50216   5.560   8.902   5.977 -0.5528 -0.3973  0.5451
  364MOL0     H50217   5.441   8.697   6.031 -1.4413  0.7641  0.0507
  364MOL0     H50218   5.307   8.232   6.020  1.4425  0.5345 -4.3102
  364MOL0     H50219   5.207   8.034   5.984 -0.3781 -1.6546 -3.1370
  364MOL0     H50220   4.813   8.035   5.764  0.1256  1.7305  0.8183
  364MOL0     H50221   4.925   8.031   5.628  1.8084 -1.2098  0.6219
  364MOL0     H50222   4.768   7.851   5.628 -0.0934 -3.0147 -1.7821
  364MOL0     H50223   4.807   7.814   5.794 -3.1301  2.8000 -0.6858
  364MOL0     H50224   5.034   7.795   5.590  0.8787 -0.6098  0.8341
  364MOL0     H50225   5.020   7.697   5.734  0.3366 -1.1866  0.6804
  364MOL0     H50226   4.857   7.665   5.476  2.2071  0.6282 -0.8656
  364MOL0     H50227   4.786   7.617   5.640 -0.0702  0.2578  1.1097
  364MOL0     H50228   5.118   7.358   5.516 -1.4204 -0.9575  1.0189
  364MOL0     H50229   4.901   8.233   5.754 -1.9660  2.2104  3.1490
  364MOL0     H50230   4.888   8.463   5.730 -1.8950  0.3007  1.6388
  364MOL0     H50231   4.905   8.545   5.887 -0.2502 -0.6113  0.9045
  364MOL0     H50232   5.022   8.567   5.771  1.3696 -1.1180  1.0389
  365MOL0     O50233   3.626  11.496   7.263  0.4957  0.3269 -0.4675
  365MOL0     C50234   3.529  11.454   7.334  0.0664 -0.2896  1.4651
  365MOL0     O50235   3.454  11.520   7.431  0.0887  0.1642  0.5601
  365MOL0     C50236   3.457  11.657   7.462  0.1645  0.4931  0.5558
  365MOL0     C50237   3.432  11.695   7.591 -0.1590 -0.4291  0.4641
  365MOL0     C50238   3.446  11.836   7.614  0.3806  0.5202 -0.3260
  365MOL0     C50239   3.499  11.928   7.518  0.0432 -1.1916 -0.3639
  365MOL0     O50240   3.547  12.057   7.550  0.1688 -0.6215 -0.4171
  365MOL0     C50241   3.538  12.097   7.687 -0.0855 -0.7719 -0.1785
  365MOL0     C50242   3.596  12.235   7.704  0.6865  0.4726  1.1369
  365MOL0     C50243   3.648  12.266   7.843  0.0905 -0.0544 -0.2795
  365MOL0     C50244   3.539  12.238   7.951 -0.3247 -0.3622 -0.2297
  365MOL0     C50245   3.576  12.314   8.078 -0.4918 -0.2856 -0.1607
  365MOL0     C50246   3.517  12.257   8.210  0.7768  0.2776 -0.2077
  365MOL0     C50247   3.553  12.350   8.335  0.0752  0.0130  0.4986
  365MOL0     C50248   3.694  12.326   8.388  0.4358  0.6347 -0.7790
  365MOL0     N50249   3.796  12.410   8.327  0.2093 -0.6105  0.2361
  365MOL0     C50250   3.889  12.378   8.224  0.1086  0.2255  0.1379
  365MOL0     C50251   3.971  12.490   8.224  0.3453 -0.4719  0.1919
  365MOL0     C50252   4.083  12.517   8.128  0.5279  0.8627 -0.8514
  365MOL0     C50253   4.107  12.397   8.033 -0.2569  0.0643  0.3958
  365MOL0     C50254   4.183  12.300   8.116  0.3381  0.6925  0.2145
  365MOL0     C50255   4.217  12.163   8.036  0.4601 -0.2264 -0.2927
  365MOL0     O50256   4.311  12.083   8.113 -0.0174  0.1785  0.9922
  365MOL0     C50257   4.321  11.952   8.071  0.6672  0.3791 -0.0752
  365MOL0     C50258   4.312  11.908   7.936 -0.6372 -0.1572 -0.9037
  365MOL0     C50259   4.313  11.764   7.915 -0.0883 -0.6114 -0.5707
  365MOL0     C50260   4.274  11.719   7.780  0.2997 -0.0833  0.6559
  365MOL0     C50261   4.324  11.674   8.024  0.2316 -0.1669  0.4896
  365MOL0     C50262   4.336  11.529   8.006 -0.3901  1.6877 -0.9977
  365MOL0     O50263   4.385  11.473   7.892 -0.5269  0.3354 -0.3431
  365MOL0     C50264   4.417  11.339   7.883 -0.8661  0.4870 -0.3595
  365MOL0     C50265   4.406  11.294   7.747 -0.2626 -0.0134 -1.3042
  365MOL0     C50266   4.418  11.152   7.721 -0.4495 -0.1157 -0.3571
  365MOL0     C50267   4.459  11.067   7.821  0.7155 -0.0815 -0.5749
  365MOL0     O50268   4.490  10.940   7.790 -0.0667  0.3403 -0.1608
  365MOL0     C50269   4.375  10.862   7.759  0.1822 -0.6730 -0.4024
  365MOL0     C50270   4.389  10.719   7.792 -0.3478 -0.3354  0.0421
  365MOL0     C50271   4.475  10.634   7.697  0.1701 -0.5581  0.1934
  365MOL0     C50272   4.513  10.495   7.736  0.3985  0.0658 -0.5085
  365MOL0     C50273   4.643  10.459   7.656  1.0248  0.2409 -0.1341
  365MOL0     C50274   4.678  10.314   7.671  0.2871  0.1199 -0.9271
  365MOL0     C50275   4.597  10.225   7.574  0.4300 -0.4691  0.2767
  365MOL0     C50276   4.605  10.080   7.599  1.2125 -1.0747  0.0825
  365MOL0    Cl50277   4.766  10.018   7.606  0.2395  0.3282  0.1931
  365MOL0     C50278   4.484  11.117   7.947 -0.9726  0.4398 -0.1381
  365MOL0     C50279   4.443  11.249   7.982 -0.6336 -0.1424 -0.0665
  365MOL0     O50280   4.284  11.460   8.098 -0.2336 -0.2773 -0.2958
  365MOL0     C50281   4.353  11.728   8.145  0.6733  0.6499 -0.4103
  365MOL0     C50282   4.345  11.864   8.173  0.9300  1.5679  0.0858
  365MOL0     N50283   3.921  12.587   8.300  0.1592  0.3795 -0.3719
  365MOL0     N50284   3.816  12.543   8.357  0.0872  0.3469  0.4876
  365MOL0     C50285   3.525  11.880   7.398 -0.1786 -0.1246 -0.5011
  365MOL0     C50286   3.496  11.752   7.365  0.2248  0.6927 -0.7384
  365MOL0     C50287   3.471  11.320   7.298  0.5166 -0.3746  0.3936
  365MOL0     C50288   3.572  11.226   7.275 -0.0689 -0.4625  0.8657
  365MOL0     C50289   3.543  11.097   7.232  0.1632 -0.8891  1.0161
  365MOL0     C50290   3.405  11.057   7.217  0.8068 -0.6251  0.4077
  365MOL0     O50291   3.367  10.928   7.172 -0.2086  0.4948  0.0100
  365MOL0     C50292   3.269  10.856   7.243  0.2443 -0.4629 -0.1971
  365MOL0     C50293   3.316  10.821   7.386  0.5523  1.3290 -0.6624
  365MOL0     C50294   3.230  10.726   7.474  1.0894  0.0655  0.3956
  365MOL0     C50295   3.291  10.615   7.561 -0.0198  0.5608  0.0739
  365MOL0     C50296   3.372  10.527   7.471  0.1609 -1.0285  0.1210
  365MOL0     C50297   3.442  10.457   7.405  0.4400 -0.2180 -0.0799
  365MOL0     C50298   3.299  11.155   7.250 -0.0254 -0.0453  0.4763
  365MOL0     C50299   3.335  11.280   7.292 -0.3552 -0.6197 -0.5182
  365MOL0     C50300   3.229  11.376   7.331 -0.1271 -0.0468 -0.8401
  365MOL0     H50301   3.422  11.618   7.667 -0.3927 -0.7294  0.1335
  365MOL0     H50302   3.434  11.859   7.719  1.5176  0.8596 -0.2523
  365MOL0     H50303   3.591  12.024   7.750  1.2799  0.5568  0.2594
  365MOL0     H50304   3.431  12.099   7.709 -1.1091  0.7601 -4.3784
  365MOL0     H50305   3.682  12.256   7.639  0.3909  0.4616  0.7337
  365MOL0     H50306   3.522  12.311   7.675 -1.2920 -2.3327 -1.9306
  365MOL0     H50307   3.733  12.201   7.865  0.3615  0.0273 -1.0727
  365MOL0     H50308   3.677  12.370   7.858  0.1435 -0.3399  1.8726
  365MOL0     H50309   3.442  12.281   7.925 -2.1051 -2.5443  2.2503
  365MOL0     H50310   3.528  12.131   7.971 -0.0413 -0.3740 -0.1452
  365MOL0     H50311   3.537  12.416   8.072 -3.0184 -1.1576  0.4749
  365MOL0     H50312   3.684  12.321   8.093 -0.1966 -3.3485 -0.2326
  365MOL0     H50313   3.409  12.255   8.196  1.0218  0.6233 -2.4012
  365MOL0     H50314   3.565  12.161   8.231  4.3069  0.7785 -4.5101
  365MOL0     H50315   3.485  12.324   8.417  1.3579 -2.4495  0.8735
  365MOL0     H50316   3.535  12.455   8.314 -0.3016  0.2501  1.8826
  365MOL0     H50317   3.690  12.355   8.493 -0.0079 -4.2690  0.8059
  365MOL0     H50318   3.722  12.221   8.392  1.6678  0.9882  0.3656
  365MOL0     H50319   3.900  12.291   8.161 -1.5950  1.6436 -2.2804
  365MOL0     H50320   4.168  12.551   8.187  1.4198  2.4790 -2.9347
  365MOL0     H50321   4.061  12.605   8.067  1.4536  4.7788  3.8641
  365MOL0     H50322   4.010  12.359   8.000  0.6493 -0.0060 -2.4574
  365MOL0     H50323   4.163  12.433   7.946 -0.4744  0.9044  0.5931
  365MOL0     H50324   4.277  12.343   8.150  2.1907  0.1329 -3.6341
  365MOL0     H50325   4.122  12.280   8.205  1.3858 -0.0457  0.7949
  365MOL0     H50326   4.123  12.107   8.029  1.3408 -1.7826 -0.2897
  365MOL0     H50327   4.255  12.186   7.936 -0.7432 -2.3314 -1.2981
  365MOL0     H50328   4.272  11.979   7.865 -3.3817  0.7183  1.3119
  365MOL0     H50329   4.243  11.807   7.723 -1.4756 -0.2000  1.3713
  365MOL0     H50330   4.182  11.664   7.802  0.8136 -0.4623  1.9383
  365MOL0     H50331   4.347  11.650   7.737 -1.2027 -1.4641  0.2267
  365MOL0     H50332   4.409  11.366   7.666 -0.0975 -0.0750 -1.3541
  365MOL0     H50333   4.385  11.113   7.626  1.1651  1.0748 -1.4561
  365MOL0     H50334   4.281  10.898   7.800  0.3102  0.9556 -1.4534
  365MOL0     H50335   4.361  10.884   7.653  0.4826  0.0338 -0.3014
  365MOL0     H50336   4.431  10.721   7.893  0.0342 -2.6747  0.0059
  365MOL0     H50337   4.293  10.669   7.800  0.4077 -1.9401 -0.4140
  365MOL0     H50338   4.567  10.684   7.667  1.8969 -3.3008  0.4879
  365MOL0     H50339   4.427  10.629   7.599  0.2876  0.6731  0.0599
  365MOL0     H50340   4.430  10.432   7.701 -1.4633  1.5110  1.0780
  365MOL0     H50341   4.530  10.487   7.844  2.8790 -1.6211 -0.9369
  365MOL0     H50342   4.642  10.493   7.552  0.0409  0.6258 -0.0094
  365MOL0     H50343   4.720  10.509   7.717 -0.7698 -0.6921  3.1668
  365MOL0     H50344   4.659  10.272   7.771 -1.4616  1.7842 -0.4942
  365MOL0     H50345   4.785  10.308   7.651  1.1813  0.1807  2.9359
  365MOL0     H50346   4.647  10.247   7.479  0.2267 -1.5124 -0.0825
  365MOL0     H50347   4.493  10.257   7.563  0.5341 -0.0869  0.4138
  365MOL0     H50348   4.549  10.032   7.518  2.1776  2.4516 -2.9227
  365MOL0     H50349   4.554  10.066   7.695  0.6655  5.1443  1.1010
  365MOL0     H50350   4.541  11.048   8.009 -0.0060 -0.0378 -1.5211
  365MOL0     H50351   4.449  11.289   8.083 -0.4757 -0.7352  0.1633
  365MOL0     H50352   4.372  11.667   8.233 -0.9397 -0.8836 -1.0595
  365MOL0     H50353   4.362  11.908   8.270  2.9023 -0.7023  0.8814
  365MOL0     H50354   3.578  11.950   7.334  1.3574 -1.9739 -1.3576
  365MOL0     H50355   3.520  11.722   7.264  2.2474 -0.0578 -0.0997
  365MOL0     H50356   3.676  11.255   7.288  0.4765 -1.0133 -1.6933
  365MOL0     H50357   3.622  11.025   7.215  2.4107  1.8005 -0.8227
  365MOL0     H50358   3.180  10.917   7.255  0.4399 -0.1320 -0.4189
  365MOL0     H50359   3.239  10.765   7.190 -0.7880 -0.2961  0.0865
  365MOL0     H50360   3.332  10.909   7.450 -0.0258  3.4404 -3.2387
  365MOL0     H50361   3.415  10.774   7.377 -0.4927 -0.7662 -1.8058
  365MOL0     H50362   3.174  10.792   7.542 -3.3881 -1.0742 -1.7875
  365MOL0     H50363   3.158  10.670   7.414  3.9707 -2.2788 -1.1470
  365MOL0     H50364   3.209  10.560   7.608  0.9697 -1.0459 -0.0173
  365MOL0     H50365   3.361  10.663   7.629  0.4862  1.4386 -1.0336
  365MOL0     H50366   3.497  10.391   7.341 -0.3795  1.0330 -2.1488
  365MOL0     H50367   3.196  11.134   7.223  0.2763 -1.1991  0.1617
  365MOL0     H50368   3.230  11.401   7.437  1.4336 -3.7610  0.2174
  365MOL0     H50369   3.247  11.470   7.279 -3.4014 -0.1334 -2.3595
  365MOL0     H50370   3.129  11.350   7.296 -0.0690  3.3507 -4.0905
  366MOL0     O50371   4.053   4.054   8.412 -0.1005 -0.1589  0.1335
  366MOL0     C50372   4.029   3.946   8.358 -0.5232 -0.4759 -0.3711
  366MOL0     O50373   4.087   3.909   8.245 -0.4482 -0.0976 -0.3210
  366MOL0     C50374   4.146   3.994   8.155 -0.5736 -0.3481  0.0887
  366MOL0     C50375   4.071   4.032   8.047  0.1612 -0.0940  0.9814
  366MOL0     C50376   4.123   4.120   7.943 -0.2947  0.7805 -1.0666
  366MOL0     C50377   4.243   4.184   7.952 -0.1119 -0.1930 -0.2502
  366MOL0     O50378   4.291   4.286   7.864  0.3675 -0.2940 -0.0813
  366MOL0     C50379   4.223   4.302   7.742  0.9791  0.6157 -0.0258
  366MOL0     C50380   4.316   4.354   7.646 -0.5160 -0.6924  0.4500
  366MOL0     C50381   4.237   4.395   7.522  0.0607  0.0537 -0.0418
  366MOL0     C50382   4.325   4.456   7.420 -0.7592 -0.0119 -0.3080
  366MOL0     C50383   4.331   4.372   7.295 -0.0300 -0.1102  0.1560
  366MOL0     C50384   4.413   4.457   7.190 -0.8650  0.9142 -0.6021
  366MOL0     C50385   4.412   4.392   7.048 -0.5810 -1.3199 -0.1753
  366MOL0     C50386   4.286   4.441   6.973  0.7573  0.2452  0.4342
  366MOL0     N50387   4.303   4.455   6.828  0.2569 -0.8667  0.3717
  366MOL0     C50388   4.374   4.546   6.760 -0.2378 -0.2668  0.6679
  366MOL0     C50389   4.344   4.518   6.636  1.2487 -0.2455 -0.5074
  366MOL0     C50390   4.399   4.597   6.515 -0.2730  0.4117  0.1777
  366MOL0     C50391   4.329   4.736   6.491 -0.5816  0.1649 -0.5381
  366MOL0     C50392   4.198   4.715   6.419 -0.4599 -0.2575  0.1818
  366MOL0     C50393   4.101   4.845   6.423 -0.5851 -0.0743 -1.2549
  366MOL0     O50394   4.071   4.908   6.549  0.2412 -0.4322 -0.4098
  366MOL0     C50395   4.011   4.828   6.645  0.3125  1.0582  0.0444
  366MOL0     C50396   4.056   4.851   6.776  0.4854  0.2736 -0.2484
  366MOL0     C50397   4.006   4.761   6.876 -1.2646 -0.6596 -0.2684
  366MOL0     C50398   4.056   4.799   7.007 -1.0383 -0.9474  1.2448
  366MOL0     C50399   3.899   4.675   6.854  0.4354 -0.1666 -0.5287
  366MOL0     C50400   3.838   4.594   6.962 -0.1000 -0.3877  0.0619
  366MOL0     O50401   3.702   4.558   6.947  0.3195  0.7624 -0.7832
  366MOL0     C50402   3.641   4.458   7.021  0.0003 -0.1367  0.0793
  366MOL0     C50403   3.596   4.343   6.955 -0.1460  0.5956 -0.0322
  366MOL0     C50404   3.546   4.227   7.031  0.0873 -0.6428 -0.2121
  366MOL0     C50405   3.543   4.237   7.166  0.2582  0.8219 -0.1841
  366MOL0     O50406   3.484   4.136   7.235  0.4303  0.4619  0.4397
  366MOL0     C50407   3.402   4.046   7.170  0.3336 -0.3482  0.8217
  366MOL0     C50408   3.265   4.109   7.129  0.3856 -0.1831 -0.8315
  366MOL0     C50409   3.179   4.015   7.037  0.2497 -0.9295 -0.8629
  366MOL0     C50410   3.144   3.881   7.112 -1.1152  0.4287  1.0858
  366MOL0     C50411   3.019   3.807   7.062 -0.2616  0.8217  0.2412
  366MOL0     C50412   2.969   3.704   7.167  0.6125  1.0488 -0.9694
  366MOL0     C50413   3.066   3.581   7.185  0.2756  0.2205 -0.6260
  366MOL0     C50414   3.031   3.472   7.296 -0.7132  0.5165 -1.0302
  366MOL0    Cl50415   2.853   3.443   7.296 -0.2060  0.0808  0.2395
  366MOL0     C50416   3.606   4.348   7.229  0.7323  0.3778  0.8176
  366MOL0     C50417   3.650   4.461   7.161  0.2564  1.1438 -0.3608
  366MOL0     O50418   3.919   4.537   7.043  0.3476 -0.2864 -1.1812
  366MOL0     C50419   3.851   4.655   6.722  1.0457  0.5060 -0.7754
  366MOL0     C50420   3.915   4.720   6.621 -0.5806  0.1801  0.2360
  366MOL0     N50421   4.272   4.400   6.637  0.5994  1.0335  0.5520
  366MOL0     N50422   4.247   4.361   6.756  0.0471  0.4621 -0.1220
  366MOL0     C50423   4.320   4.142   8.064 -0.2591  0.2393  1.0229
  366MOL0     C50424   4.272   4.050   8.165 -0.1624  0.2313 -0.0123
  366MOL0     C50425   3.935   3.853   8.428 -0.3779 -0.6905 -0.1622
  366MOL0     C50426   3.963   3.849   8.575  0.1508  0.2665  1.4065
  366MOL0     C50427   3.879   3.768   8.648  0.3921  0.3417 -0.2174
  366MOL0     C50428   3.797   3.676   8.593 -0.6750  0.6478 -0.6151
  366MOL0     O50429   3.723   3.607   8.686  0.8056  0.4307 -0.5698
  366MOL0     C50430   3.657   3.494   8.636  0.6601 -0.1045  0.3301
  366MOL0     C50431   3.580   3.430   8.752 -0.7152 -0.4229  0.1942
  366MOL0     C50432   3.487   3.327   8.701  0.4935  1.5033  0.2106
  366MOL0     C50433   3.507   3.185   8.754 -0.4869  0.8666 -0.2445
  366MOL0     C50434   3.467   3.174   8.894  0.2905  0.1582  0.4835
  366MOL0     C50435   3.444   3.172   9.015 -0.2861  0.0571  0.0794
  366MOL0     C50436   3.785   3.680   8.450 -1.0081 -0.4791 -0.3070
  366MOL0     C50437   3.842   3.776   8.374  0.3708  0.2573 -0.0924
  366MOL0     C50438   3.828   3.754   8.227 -0.8687  0.4614 -0.0240
  366MOL0     H50439   3.972   3.989   8.032  1.3454 -2.2406 -1.5517
  366MOL0     H50440   4.054   4.152   7.865  1.7634  3.9100 -1.7772
  366MOL0     H50441   4.127   4.354   7.748 -1.1818 -3.1654  3.4978
  366MOL0     H50442   4.194   4.201   7.713  0.9655  0.6198 -0.0271
  366MOL0     H50443   4.367   4.441   7.690  0.6315 -1.2197  0.1969
  366MOL0     H50444   4.397   4.287   7.617  3.6268  4.2646 -0.9003
  366MOL0     H50445   4.169   4.320   7.480 -0.5650  0.6085 -0.0379
  366MOL0     H50446   4.170   4.478   7.544 -2.1133 -0.7914 -2.7931
  366MOL0     H50447   4.297   4.561   7.409 -2.9735 -0.3688  1.2900
  366MOL0     H50448   4.426   4.464   7.462 -0.5904 -0.2215 -0.6669
  366MOL0     H50449   4.237   4.359   7.241  0.7208 -0.8162 -1.0205
  366MOL0     H50450   4.373   4.275   7.322 -2.8436 -0.8433  2.4656
  366MOL0     H50451   4.377   4.560   7.203 -0.7749  0.6775  2.0406
  366MOL0     H50452   4.518   4.457   7.220 -1.3167 -1.3369  1.2606
  366MOL0     H50453   4.408   4.283   7.051 -0.9614 -1.5183 -3.5085
  366MOL0     H50454   4.497   4.441   6.999 -0.0203  0.1408  2.1406
  366MOL0     H50455   4.209   4.363   6.981 -1.9588  2.6570 -0.3095
  366MOL0     H50456   4.240   4.527   7.023  0.2142 -0.7806  1.7388
  366MOL0     H50457   4.435   4.630   6.792 -0.5573  0.0016  0.5790
  366MOL0     H50458   4.405   4.539   6.423  0.3621 -0.6532  0.8607
  366MOL0     H50459   4.504   4.617   6.543  0.8795 -0.1586 -3.3299
  366MOL0     H50460   4.296   4.779   6.586 -0.0636  1.9841 -1.1381
  366MOL0     H50461   4.396   4.806   6.441  1.1218 -1.1505 -0.1916
  366MOL0     H50462   4.220   4.693   6.314 -4.4578  2.7541 -1.5677
  366MOL0     H50463   4.145   4.628   6.459  0.3024 -1.0528 -0.5191
  366MOL0     H50464   4.147   4.911   6.349 -0.2160  0.6355 -0.4086
  366MOL0     H50465   4.007   4.805   6.384 -1.7864  0.0117  1.3705
  366MOL0     H50466   4.131   4.920   6.812 -0.5730  0.5507  1.5456
  366MOL0     H50467   3.977   4.821   7.079  0.3569  1.9655  2.0613
  366MOL0     H50468   4.129   4.881   7.012 -1.8405 -0.2848  2.8652
  366MOL0     H50469   4.100   4.707   7.046  1.3986 -0.6050 -0.4895
  366MOL0     H50470   3.570   4.346   6.850  0.4355 -5.7055 -0.7878
  366MOL0     H50471   3.504   4.154   6.962  0.9770 -0.4311 -0.9962
  366MOL0     H50472   3.440   3.987   7.086 -0.3997 -2.2643  1.7617
  366MOL0     H50473   3.379   3.961   7.235  1.5327 -0.2041  1.4448
  366MOL0     H50474   3.211   4.146   7.216 -0.4757 -4.2307  0.5450
  366MOL0     H50475   3.285   4.205   7.079  3.2687 -0.8056 -1.0594
  366MOL0     H50476   3.234   3.991   6.946 -0.5285 -1.2127 -1.2684
  366MOL0     H50477   3.083   4.063   7.017 -0.2642 -1.3590  0.4417
  366MOL0     H50478   3.124   3.908   7.216  1.8891  0.7660  1.6597
  366MOL0     H50479   3.231   3.820   7.088 -0.3740  1.7095  0.4093
  366MOL0     H50480   2.939   3.879   7.044 -0.7040  0.4782  0.7993
  366MOL0     H50481   3.032   3.745   6.972  0.1984  1.1018  0.1118
  366MOL0     H50482   2.872   3.670   7.130 -0.2358  3.7829 -1.5366
  366MOL0     H50483   2.963   3.745   7.269 -0.5781  0.4397 -0.7753
  366MOL0     H50484   3.158   3.623   7.226 -0.3828  0.8457  0.2678
  366MOL0     H50485   3.090   3.532   7.091 -2.5791 -0.1967 -1.2497
  366MOL0     H50486   3.066   3.499   7.396 -0.2906 -2.1529 -0.3766
  366MOL0     H50487   3.085   3.380   7.273 -1.1481 -0.1071  0.3027
  366MOL0     H50488   3.615   4.343   7.337  2.6496  2.3547  0.8049
  366MOL0     H50489   3.700   4.538   7.220 -1.7410  1.8120  0.5667
  366MOL0     H50490   3.765   4.592   6.705 -0.4711  2.6261 -1.3648
  366MOL0     H50491   3.893   4.706   6.516 -0.9388 -0.0374  0.3383
  366MOL0     H50492   4.416   4.193   8.066 -1.0218  1.7460  0.4966
  366MOL0     H50493   4.339   4.035   8.249  1.3492 -0.3237 -1.2688
  366MOL0     H50494   4.035   3.907   8.631  1.5941 -1.3338  1.3083
  366MOL0     H50495   3.871   3.778   8.756 -1.3181  1.1423 -0.3813
  366MOL0     H50496   3.582   3.523   8.562 -1.5745  1.1643  2.9000
  366MOL0     H50497   3.728   3.423   8.592  1.4561  0.5693  0.4832
  366MOL0     H50498   3.516   3.493   8.815  0.1830 -0.8034  1.5323
  366MOL0     H50499   3.653   3.389   8.823 -0.5252  1.9695  1.4958
  366MOL0     H50500   3.385   3.363   8.716 -0.3373  0.2799 -2.0150
  366MOL0     H50501   3.485   3.321   8.592 -2.8059  0.2971  0.2161
  366MOL0     H50502   3.611   3.153   8.742 -0.5376  1.0265 -1.2049
  366MOL0     H50503   3.443   3.122   8.692 -2.7988  3.0588 -0.2127
  366MOL0     H50504   3.422   3.174   9.120 -2.7406 -0.3534 -0.3637
  366MOL0     H50505   3.724   3.606   8.398  1.9265 -1.6780 -2.2993
  366MOL0     H50506   3.726   3.728   8.200 -1.8942  3.9635 -0.0751
  366MOL0     H50507   3.848   3.849   8.175  0.8450  2.4186  3.8099
  366MOL0     H50508   3.885   3.665   8.199  1.5504  1.7776  0.3613
  367MOL0     O50509   9.166   2.563   7.700 -0.0456  1.0540 -0.4362
  367MOL0     C50510   9.106   2.457   7.704 -0.2484 -0.1893  0.5479
  367MOL0     O50511   9.048   2.396   7.594  0.3519  0.5392  0.0927
  367MOL0     C50512   9.061   2.439   7.470 -0.7416 -1.1112  0.0843
  367MOL0     C50513   8.954   2.446   7.384  0.4238  0.6157  0.2833
  367MOL0     C50514   8.970   2.472   7.249  0.6952 -0.4514 -0.9150
  367MOL0     C50515   9.098   2.492   7.199 -0.8188 -0.8454 -0.1382
  367MOL0     O50516   9.130   2.525   7.069 -0.4764 -0.1697 -0.1607
  367MOL0     C50517   9.036   2.579   6.977  0.4871 -0.1372 -0.0246
  367MOL0     C50518   8.983   2.721   7.000 -0.2212 -0.7704 -0.0991
  367MOL0     C50519   8.913   2.761   7.137 -0.2634 -1.0146 -0.0619
  367MOL0     C50520   8.837   2.900   7.148 -0.0177  0.7958  0.5380
  367MOL0     C50521   8.765   2.910   7.283 -0.0508 -0.5178  0.0550
  367MOL0     C50522   8.865   2.943   7.402 -0.0747 -0.3220 -0.5216
  367MOL0     C50523   8.806   2.890   7.532  0.0140  0.0070 -0.7056
  367MOL0     C50524   8.909   2.908   7.643 -0.2499  0.0102 -0.4980
  367MOL0     N50525   8.939   3.047   7.667  0.2359 -0.1086 -0.3006
  367MOL0     C50526   8.864   3.128   7.744 -0.4319 -0.3119 -0.9957
  367MOL0     C50527   8.925   3.250   7.739 -0.9013 -0.0404  0.5174
  367MOL0     C50528   8.876   3.365   7.816 -1.1674 -0.5190 -0.8837
  367MOL0     C50529   8.812   3.463   7.715  1.1373 -0.1505  0.1284
  367MOL0     C50530   8.782   3.596   7.777  0.4436  0.7766  0.5413
  367MOL0     C50531   8.670   3.607   7.884 -0.5553  0.4426  0.1270
  367MOL0     O50532   8.694   3.521   8.001 -0.0670  0.1655 -0.4078
  367MOL0     C50533   8.587   3.467   8.059  0.1442 -0.4047  0.2041
  367MOL0     C50534   8.463   3.525   8.074 -1.1417  0.1956  0.7732
  367MOL0     C50535   8.362   3.463   8.160 -0.5442 -0.0049 -0.6112
  367MOL0     C50536   8.229   3.539   8.162 -0.4529  0.4365  0.0716
  367MOL0     C50537   8.383   3.336   8.225 -0.5985  0.2081  1.3244
  367MOL0     C50538   8.284   3.256   8.293  0.9514 -0.0837  0.6935
  367MOL0     O50539   8.300   3.123   8.315  0.9375  0.6247 -0.7016
  367MOL0     C50540   8.203   3.057   8.381  0.8003  0.4544 -0.4901
  367MOL0     C50541   8.083   3.033   8.313  0.7330  0.6793 -0.1770
  367MOL0     C50542   8.002   2.929   8.357 -0.3838  0.5632 -0.3927
  367MOL0     C50543   8.028   2.866   8.482 -0.0330  0.0710  0.9783
  367MOL0     O50544   7.942   2.776   8.529 -0.1994  0.6704  0.1820
  367MOL0     C50545   7.808   2.806   8.552  1.5003  0.1513  0.2191
  367MOL0     C50546   7.796   2.901   8.678 -0.4929  0.1420 -0.1549
  367MOL0     C50547   7.657   2.923   8.718 -0.1319 -0.3639 -0.5975
  367MOL0     C50548   7.648   3.043   8.809 -0.4594  0.5120  0.3493
  367MOL0     C50549   7.505   3.050   8.876 -0.3327  0.7891 -0.4972
  367MOL0     C50550   7.424   3.152   8.800  1.0096 -0.2138 -0.0725
  367MOL0     C50551   7.270   3.137   8.827  0.0533 -0.0795 -0.6042
  367MOL0     C50552   7.192   3.184   8.708 -0.5822  0.6025  0.4191
  367MOL0    Cl50553   7.218   3.369   8.676 -0.2676  0.1414 -0.4126
  367MOL0     C50554   8.140   2.899   8.553  0.5633 -0.4765  0.4382
  367MOL0     C50555   8.235   2.988   8.499 -0.6503 -0.0209  0.2243
  367MOL0     O50556   8.222   3.331   8.375 -0.8643 -0.1006  0.0233
  367MOL0     C50557   8.512   3.282   8.199  0.4618 -0.4495  0.3538
  367MOL0     C50558   8.608   3.350   8.117 -0.6464  0.1037  0.7464
  367MOL0     N50559   9.038   3.237   7.654 -0.3031  0.6043 -0.0214
  367MOL0     N50560   9.046   3.108   7.614 -0.1269 -0.3952  0.3498
  367MOL0     C50561   9.207   2.477   7.281 -0.1865 -0.5257  0.7942
  367MOL0     C50562   9.190   2.458   7.420 -0.0840 -0.9358  0.8683
  367MOL0     C50563   9.091   2.395   7.838  0.1154 -1.1700 -0.9499
  367MOL0     C50564   8.964   2.338   7.874 -0.0838  1.0993 -0.5829
  367MOL0     C50565   8.943   2.278   7.992 -0.0449 -1.2940 -1.3370
  367MOL0     C50566   9.031   2.292   8.099 -0.6771 -0.9549 -0.0446
  367MOL0     O50567   8.987   2.250   8.216  1.3817  0.5625  0.0773
  367MOL0     C50568   9.083   2.219   8.318  0.0160  0.7689  0.7011
  367MOL0     C50569   9.016   2.170   8.451  0.2809  0.3035  0.9072
  367MOL0     C50570   8.942   2.035   8.432  0.2418 -0.0504  0.2241
  367MOL0     C50571   8.929   1.949   8.557  0.5686 -0.1149  1.1134
  367MOL0     C50572   8.811   1.860   8.543  0.1084 -0.3939 -0.7356
  367MOL0     C50573   8.717   1.778   8.545  0.1511 -0.6059 -0.4356
  367MOL0     C50574   9.161   2.347   8.074  0.3880 -0.6763 -0.0863
  367MOL0     C50575   9.186   2.400   7.944  0.0830 -0.4030 -0.0025
  367MOL0     C50576   9.326   2.457   7.915 -0.0536 -0.0218 -0.7031
  367MOL0     H50577   8.866   2.414   7.440  1.2069  2.3231  2.6234
  367MOL0     H50578   8.883   2.477   7.184 -0.8226 -0.2617  1.0254
  367MOL0     H50579   8.952   2.510   6.966 -0.3653  0.8827 -0.1193
  367MOL0     H50580   9.089   2.586   6.882  1.4783 -0.7601  0.4657
  367MOL0     H50581   9.056   2.799   6.978  1.0223 -1.8430  0.1056
  367MOL0     H50582   8.906   2.735   6.923  0.9459  3.0885 -0.7800
  367MOL0     H50583   8.827   2.695   7.149 -2.5576  1.8181  0.2474
  367MOL0     H50584   8.972   2.761   7.230 -3.9875  1.0436  2.5781
  367MOL0     H50585   8.908   2.982   7.136  1.0218 -0.4810 -4.3977
  367MOL0     H50586   8.775   2.922   7.060  1.1078  0.2907 -0.4166
  367MOL0     H50587   8.707   2.822   7.313 -0.8778  0.6632  2.1473
  367MOL0     H50588   8.684   2.983   7.283  0.8562  0.5207 -0.4257
  367MOL0     H50589   8.963   2.897   7.386  0.5112  1.2200 -1.6884
  367MOL0     H50590   8.869   3.051   7.416  0.1321 -0.4470  0.4748
  367MOL0     H50591   8.772   2.786   7.524 -1.9100  0.7562 -3.3799
  367MOL0     H50592   8.715   2.948   7.549 -0.5102 -0.2400 -2.5414
  367MOL0     H50593   8.876   2.874   7.742  2.1428  1.5077  0.9332
  367MOL0     H50594   9.002   2.863   7.608  0.8826  1.9213 -0.1200
  367MOL0     H50595   8.781   3.115   7.812 -0.5550  4.2244 -0.0064
  367MOL0     H50596   8.953   3.413   7.878 -2.4298  3.5405 -2.1313
  367MOL0     H50597   8.810   3.320   7.890  1.3372  1.2214  2.7021
  367MOL0     H50598   8.884   3.474   7.633 -0.5707  1.4766 -1.2524
  367MOL0     H50599   8.728   3.419   7.661  0.6078  2.3203 -1.2525
  367MOL0     H50600   8.867   3.654   7.815  1.3124  0.8389 -1.3714
  367MOL0     H50601   8.745   3.656   7.694  0.7285  1.8750  1.1832
  367MOL0     H50602   8.669   3.716   7.898  0.8663  0.3822  0.8577
  367MOL0     H50603   8.573   3.588   7.838 -1.0443  1.2443  0.7967
  367MOL0     H50604   8.440   3.624   8.037 -2.5202 -0.8309 -1.2771
  367MOL0     H50605   8.215   3.576   8.060  0.4777 -0.3187 -0.3391
  367MOL0     H50606   8.230   3.606   8.248 -0.9180 -3.0070  3.0249
  367MOL0     H50607   8.139   3.481   8.188 -1.2340 -0.7725 -4.5116
  367MOL0     H50608   8.055   3.103   8.236 -0.6827  3.5333  2.6727
  367MOL0     H50609   7.909   2.910   8.305 -1.0230  3.3072 -0.4219
  367MOL0     H50610   7.763   2.856   8.466 -1.9627  0.9016  2.2624
  367MOL0     H50611   7.761   2.710   8.579  4.0362  0.0693  5.6137
  367MOL0     H50612   7.861   2.878   8.764 -3.6729  2.4953  3.1926
  367MOL0     H50613   7.828   2.999   8.642 -0.4594 -0.0750 -0.7149
  367MOL0     H50614   7.618   2.836   8.772 -2.6471  1.6177  1.0247
  367MOL0     H50615   7.596   2.940   8.629  0.5006  1.5637 -0.7047
  367MOL0     H50616   7.669   3.139   8.763 -3.0381  2.5126  2.9916
  367MOL0     H50617   7.726   3.026   8.885  1.3447  0.5083 -1.4270
  367MOL0     H50618   7.464   2.949   8.877  0.5838  0.4066 -0.5306
  367MOL0     H50619   7.521   3.083   8.978  3.8822  1.5432 -1.2285
  367MOL0     H50620   7.442   3.154   8.692  3.6872  3.3084  0.2705
  367MOL0     H50621   7.452   3.252   8.833  1.0257  0.7360 -2.7112
  367MOL0     H50622   7.245   3.183   8.923  0.4870 -3.4008  1.2714
  367MOL0     H50623   7.240   3.032   8.837  3.0505 -0.8973  1.0811
  367MOL0     H50624   7.085   3.162   8.714 -0.0967 -1.8622  1.2147
  367MOL0     H50625   7.235   3.130   8.623  1.7495 -0.0606  1.9303
  367MOL0     H50626   8.165   2.841   8.641 -0.0061  0.9226  1.5623
  367MOL0     H50627   8.328   3.013   8.549  0.8807 -1.0952 -1.9276
  367MOL0     H50628   8.543   3.192   8.251 -2.7255 -2.3042 -0.6750
  367MOL0     H50629   8.703   3.298   8.110 -0.0241  1.1971  0.8240
  367MOL0     H50630   9.308   2.507   7.257  0.4323 -1.9611  1.4370
  367MOL0     H50631   9.282   2.471   7.475  0.0644  0.4306  0.3456
  367MOL0     H50632   8.879   2.341   7.807  0.3317 -0.4620 -1.2312
  367MOL0     H50633   8.851   2.224   8.011  0.4202 -1.6599  0.0304
  367MOL0     H50634   9.143   2.137   8.278 -1.0877  1.0313 -1.6249
  367MOL0     H50635   9.142   2.307   8.343  2.1179 -0.0933 -0.8982
  367MOL0     H50636   8.944   2.250   8.471 -0.2040  1.0693 -3.0919
  367MOL0     H50637   9.091   2.156   8.530 -0.9266 -0.1873  2.0151
  367MOL0     H50638   8.841   2.054   8.394  0.1869 -0.4290  0.1693
  367MOL0     H50639   8.989   1.973   8.354 -2.9508 -0.6961 -1.3698
  367MOL0     H50640   8.906   2.009   8.645 -2.8477  0.2172  0.1495
  367MOL0     H50641   9.021   1.892   8.574 -0.6988 -1.9999  1.9560
  367MOL0     H50642   8.647   1.697   8.554 -1.1180  0.4033 -0.7902
  367MOL0     H50643   9.229   2.347   8.159 -4.1017 -1.7959  3.9711
  367MOL0     H50644   9.339   2.559   7.951  0.2788 -0.0941 -0.6235
  367MOL0     H50645   9.382   2.382   7.971 -0.3755 -0.0147 -0.3638
  367MOL0     H50646   9.357   2.461   7.810 -2.0323  0.0150 -1.3460
  368MOL0     O50647   1.131   1.887   8.660 -0.4124 -0.0658 -0.1395
  368MOL0     C50648   1.189   1.830   8.566  0.2215  0.0910 -0.8839
  368MOL0     O50649   1.225   1.702   8.569 -0.2669  1.4683 -0.6881
  368MOL0     C50650   1.174   1.611   8.664 -0.8865 -0.3325 -0.5812
  368MOL0     C50651   1.092   1.505   8.616  0.4762  0.6443  0.2533
  368MOL0     C50652   1.041   1.410   8.718 -1.7188 -0.0583 -0.5394
  368MOL0     C50653   1.079   1.427   8.849 -0.3547 -0.3049  0.1628
  368MOL0     O50654   1.026   1.357   8.952  0.2356 -0.1767 -0.2519
  368MOL0     C50655   0.894   1.298   8.925 -0.8104 -0.8159 -0.7432
  368MOL0     C50656   0.805   1.314   9.042  0.2899 -1.0043  0.0557
  368MOL0     C50657   0.655   1.271   9.027 -0.2343 -0.0963 -0.4784
  368MOL0     C50658   0.578   1.343   8.916 -0.0879  0.6436  0.1153
  368MOL0     C50659   0.425   1.306   8.933 -0.3973 -0.8225  0.2645
  368MOL0     C50660   0.343   1.360   8.809  0.9548 -0.0836 -0.0078
  368MOL0     C50661   0.190   1.385   8.828  0.0041 -0.4595  0.1729
  368MOL0     C50662   0.135   1.467   8.709  0.3495  0.2375  0.6680
  368MOL0     N50663   0.150   1.415   8.567 -0.4872  0.1038  0.6907
  368MOL0     C50664   0.097   1.302   8.516  0.1226  0.5374  0.1554
  368MOL0     C50665   0.140   1.294   8.386  0.5368 -0.0458 -0.5186
  368MOL0     C50666   0.093   1.190   8.290  0.1178 -0.9729 -1.3486
  368MOL0     C50667   0.116   1.047   8.345  0.9464 -1.0666  0.5439
  368MOL0     C50668   0.076   0.935   8.244 -0.0820  0.2255 -0.1003
  368MOL0     C50669  -0.073   0.902   8.221 -0.1263 -0.5995  0.0932
  368MOL0     O50670  -0.128   0.860   8.340  0.6563 -0.1780 -0.4387
  368MOL0     C50671  -0.119   0.729   8.392  0.8773  0.1342  0.1259
  368MOL0     C50672  -0.135   0.715   8.537 -0.1209 -1.0700 -0.6146
  368MOL0     C50673  -0.112   0.592   8.599  0.5824 -0.1037 -0.6355
  368MOL0     C50674  -0.118   0.582   8.753 -0.5681 -0.5844  0.1832
  368MOL0     C50675  -0.080   0.483   8.517 -0.1126 -0.1993 -0.6739
  368MOL0     C50676  -0.062   0.350   8.574  0.5820  0.1276  0.2415
  368MOL0     O50677  -0.093   0.248   8.486  0.3700 -0.0133 -0.3134
  368MOL0     C50678  -0.052   0.120   8.512  0.3216 -0.7284  0.7978
  368MOL0     C50679   0.095   0.090   8.501  0.0661  0.0113  0.4255
  368MOL0     C50680   0.142  -0.038   8.503  0.1382  0.2629 -0.8411
  368MOL0     C50681   0.053  -0.139   8.485 -0.1640  0.5788  0.7334
  368MOL0     O50682   0.102  -0.268   8.473  0.3971  0.5218 -0.9176
  368MOL0     C50683   0.241  -0.303   8.460  0.0638  0.3386  0.2612
  368MOL0     C50684   0.241  -0.386   8.330  0.2077  0.2711 -0.3265
  368MOL0     C50685   0.217  -0.303   8.211 -0.6200  0.2570 -0.0265
  368MOL0     C50686   0.253  -0.375   8.076  0.6356 -0.8023 -0.6588
  368MOL0     C50687   0.243  -0.278   7.948 -0.1857 -0.2341 -0.6258
  368MOL0     C50688   0.299  -0.138   7.971 -0.2423  0.2298 -0.4310
  368MOL0     C50689   0.326  -0.065   7.844  0.2253 -0.0082 -0.2484
  368MOL0     C50690   0.200  -0.025   7.763  0.1398 -1.0308  1.1976
  368MOL0    Cl50691   0.230   0.042   7.608  0.1177 -0.5178  0.9057
  368MOL0     C50692  -0.087  -0.117   8.486 -0.6931  0.2720  0.3701
  368MOL0     C50693  -0.140   0.013   8.506 -0.0886 -0.1104 -0.4995
  368MOL0     O50694   0.007   0.344   8.676 -0.2494  0.4351  0.0039
  368MOL0     C50695  -0.080   0.486   8.377 -0.0807 -0.7407  0.4527
  368MOL0     C50696  -0.097   0.615   8.323 -0.4924 -0.0782 -0.9592
  368MOL0     N50697   0.234   1.396   8.368 -0.0321  0.5117 -0.2361
  368MOL0     N50698   0.232   1.465   8.473 -0.9453 -0.8161 -0.8268
  368MOL0     C50699   1.161   1.531   8.887  0.2900 -0.0816  0.5656
  368MOL0     C50700   1.198   1.626   8.798 -0.0778  0.0184  0.0301
  368MOL0     C50701   1.219   1.912   8.441 -0.1338 -0.4818  0.1751
  368MOL0     C50702   1.298   2.031   8.466  0.3236 -0.7415  0.1759
  368MOL0     C50703   1.345   2.113   8.362  0.1760  0.4427 -0.3158
  368MOL0     C50704   1.332   2.064   8.233 -0.8979  0.5775  0.9346
  368MOL0     O50705   1.393   2.119   8.119 -0.2360 -0.3818 -0.1679
  368MOL0     C50706   1.471   2.234   8.136 -0.4234 -0.2710  0.2457
  368MOL0     C50707   1.486   2.289   7.991 -0.1004  0.1896  0.1566
  368MOL0     C50708   1.610   2.226   7.918 -0.6430 -0.3411  0.5495
  368MOL0     C50709   1.618   2.289   7.775 -0.0398  0.1598  0.6382
  368MOL0     C50710   1.537   2.215   7.688  0.1181 -0.3248 -0.5179
  368MOL0     C50711   1.446   2.157   7.634  0.8022  0.3184  0.6269
  368MOL0     C50712   1.260   1.952   8.202 -0.2793 -0.7297 -0.6318
  368MOL0     C50713   1.202   1.875   8.304 -0.0892  0.6520  0.7008
  368MOL0     C50714   1.158   1.738   8.268 -0.0590 -0.0884  0.4629
  368MOL0     H50715   1.069   1.499   8.510  1.8302  3.9762 -0.3704
  368MOL0     H50716   0.976   1.331   8.683 -2.9579 -0.5384  2.5859
  368MOL0     H50717   0.899   1.189   8.914 -0.2118 -1.1354  1.9006
  368MOL0     H50718   0.842   1.355   8.847 -0.2618  0.6482 -0.0782
  368MOL0     H50719   0.846   1.253   9.123  0.1682 -2.2823 -0.8104
  368MOL0     H50720   0.797   1.421   9.062 -1.0011 -0.8014 -1.3486
  368MOL0     H50721   0.654   1.164   9.007 -2.0290  0.1193 -1.7633
  368MOL0     H50722   0.619   1.302   9.126  1.1726  2.1204 -0.5801
  368MOL0     H50723   0.597   1.450   8.910  3.3342  0.1034 -1.8907
  368MOL0     H50724   0.608   1.306   8.817 -0.5822  2.5291 -0.7893
  368MOL0     H50725   0.387   1.356   9.022 -1.0221  0.0428 -0.4691
  368MOL0     H50726   0.406   1.198   8.929 -2.8082 -0.6088 -5.8403
  368MOL0     H50727   0.378   1.460   8.782 -1.8715  1.5000  1.6973
  368MOL0     H50728   0.356   1.289   8.726 -1.8352 -2.7386  1.6172
  368MOL0     H50729   0.172   1.452   8.913 -0.3969  3.3960 -2.6746
  368MOL0     H50730   0.144   1.287   8.847 -0.7360  0.2217  2.1208
  368MOL0     H50731   0.028   1.464   8.730  0.2229 -1.6619 -0.0458
  368MOL0     H50732   0.155   1.575   8.713  2.8510  0.1075 -2.9645
  368MOL0     H50733   0.013   1.242   8.551  0.8057 -1.8489 -1.9627
  368MOL0     H50734   0.129   1.206   8.187 -1.7358 -1.2891 -2.0871
  368MOL0     H50735  -0.014   1.212   8.286  0.3729  1.0535  0.7571
  368MOL0     H50736   0.224   1.039   8.360  1.2012  0.6086 -0.1880
  368MOL0     H50737   0.051   1.040   8.433 -2.2874  0.8001 -1.4784
  368MOL0     H50738   0.132   0.966   8.155  0.3275  1.0932  0.4530
  368MOL0     H50739   0.131   0.850   8.285  3.3050  3.1722  2.0149
  368MOL0     H50740  -0.122   0.999   8.203  1.0907 -0.1288 -0.8807
  368MOL0     H50741  -0.081   0.826   8.143  2.5576 -1.6460  0.7418
  368MOL0     H50742  -0.143   0.802   8.602  1.4064 -1.1073 -0.3497
  368MOL0     H50743  -0.163   0.674   8.793  0.7741  1.6841 -3.0285
  368MOL0     H50744  -0.022   0.557   8.799 -0.1766  0.4037 -0.0630
  368MOL0     H50745  -0.186   0.504   8.786  0.4176  0.1806  4.7296
  368MOL0     H50746   0.177   0.161   8.494 -0.6337  0.9618  1.3838
  368MOL0     H50747   0.250  -0.040   8.505  0.2157  2.4985  0.7918
  368MOL0     H50748   0.307  -0.218   8.439  0.7212  0.7159  3.3373
  368MOL0     H50749   0.288  -0.358   8.542  3.6190  1.2951 -0.9351
  368MOL0     H50750   0.343  -0.422   8.313 -0.0882 -0.2900 -0.9651
  368MOL0     H50751   0.163  -0.463   8.331 -2.5528  2.8957  0.4940
  368MOL0     H50752   0.291  -0.222   8.211  0.6415 -0.8429 -1.4717
  368MOL0     H50753   0.120  -0.253   8.220 -1.1772 -1.1438  3.0332
  368MOL0     H50754   0.192  -0.464   8.055  0.2224  0.1253 -3.9637
  368MOL0     H50755   0.358  -0.402   8.089  0.2253 -1.0740  3.3586
  368MOL0     H50756   0.294  -0.322   7.862 -1.9079 -1.0807 -1.2394
  368MOL0     H50757   0.135  -0.280   7.932 -0.4795 -2.3756  1.1302
  368MOL0     H50758   0.393  -0.144   8.026 -0.5075  1.6025  0.2135
  368MOL0     H50759   0.238  -0.087   8.046 -0.4059 -2.1422  1.1795
  368MOL0     H50760   0.386  -0.129   7.778 -0.7266 -0.5690 -0.5986
  368MOL0     H50761   0.385   0.025   7.862  1.2400 -0.7478  0.1898
  368MOL0     H50762   0.145   0.050   7.820  0.7051  1.9149 -1.8177
  368MOL0     H50763   0.124  -0.103   7.754 -2.5222  1.5823 -0.8995
  368MOL0     H50764  -0.153  -0.202   8.471  0.7577 -0.9869  0.9431
  368MOL0     H50765  -0.247   0.032   8.500 -0.2823 -0.9429  0.0453
  368MOL0     H50766  -0.070   0.408   8.303  2.3338 -0.6490  0.6125
  368MOL0     H50767  -0.089   0.633   8.217 -0.9470  2.4988 -0.6020
  368MOL0     H50768   1.148   1.563   8.990 -1.5392 -0.7107  0.5646
  368MOL0     H50769   1.254   1.717   8.819 -0.9421  0.7883 -0.9145
  368MOL0     H50770   1.309   2.076   8.564 -3.0138  5.1249 -1.6347
  368MOL0     H50771   1.399   2.194   8.409  0.8845 -1.5868  2.6772
  368MOL0     H50772   1.415   2.307   8.194 -0.0776 -0.9973  1.5394
  368MOL0     H50773   1.569   2.200   8.172  0.2591  1.6014  0.2464
  368MOL0     H50774   1.498   2.397   8.006 -0.0620  0.1027  0.7665
  368MOL0     H50775   1.390   2.293   7.938  0.8416  5.5356 -1.8250
  368MOL0     H50776   1.700   2.237   7.979 -1.2987  1.2924  1.2855
  368MOL0     H50777   1.578   2.121   7.919 -3.3817  0.3890  2.0969
  368MOL0     H50778   1.719   2.278   7.735 -0.8910 -2.6507 -1.0476
  368MOL0     H50779   1.593   2.396   7.785 -0.8799 -0.2294  3.9656
  368MOL0     H50780   1.374   2.108   7.572  2.0175  0.6875 -1.1452
  368MOL0     H50781   1.252   1.928   8.097 -1.4706 -0.6425 -0.5699
  368MOL0     H50782   1.104   1.756   8.174  1.0963  7.4692  0.6225
  368MOL0     H50783   1.234   1.662   8.251 -0.6645 -1.0293  1.8013
  368MOL0     H50784   1.087   1.698   8.340  1.6412 -0.4884  1.9884
  369MOL0     O50785   0.927   2.259   7.087  0.3325  0.0658  0.0745
  369MOL0     C50786   1.022   2.182   7.099  0.0508 -0.6811 -0.5081
  369MOL0     O50787   1.089   2.160   7.214  0.4810 -0.2215 -0.8549
  369MOL0     C50788   1.043   2.214   7.326 -0.7239 -0.3016 -1.1012
  369MOL0     C50789   0.909   2.220   7.362  1.3350 -0.2764  0.5971
  369MOL0     C50790   0.881   2.258   7.490 -0.1621 -0.5259 -0.6245
  369MOL0     C50791   0.983   2.314   7.581  0.6302  0.9224  0.5620
  369MOL0     O50792   0.948   2.365   7.700  0.2248  0.4445 -0.5014
  369MOL0     C50793   1.006   2.311   7.825  0.1331 -0.4607  0.4589
  369MOL0     C50794   0.954   2.409   7.934 -0.5139 -0.1618 -0.5276
  369MOL0     C50795   1.012   2.390   8.080  0.5833  0.0848  0.2112
  369MOL0     C50796   1.158   2.445   8.104  0.6016  0.6828 -0.3743
  369MOL0     C50797   1.176   2.596   8.086  1.3161 -1.4850  0.1598
  369MOL0     C50798   1.323   2.649   8.125  0.4044 -0.7756  0.0985
  369MOL0     C50799   1.354   2.683   8.274  0.3677 -0.1665 -0.4651
  369MOL0     C50800   1.457   2.599   8.346 -0.5968  0.3638 -0.6403
  369MOL0     N50801   1.587   2.588   8.265 -0.0064 -0.6548 -0.0349
  369MOL0     C50802   1.661   2.678   8.190  0.0309  0.2084 -0.3772
  369MOL0     C50803   1.786   2.624   8.172  0.8011 -0.2013 -0.8166
  369MOL0     C50804   1.903   2.678   8.098  1.4071 -0.4013  0.6766
  369MOL0     C50805   1.984   2.771   8.186  0.0933 -0.0121  0.0044
  369MOL0     C50806   2.096   2.831   8.088  0.5349  0.6979 -0.4332
  369MOL0     C50807   2.194   2.723   8.060  0.7296 -0.2434 -0.9354
  369MOL0     O50808   2.313   2.766   8.007 -0.0560 -0.0656 -0.3416
  369MOL0     C50809   2.401   2.832   8.081  0.2401 -0.3022  1.0203
  369MOL0     C50810   2.427   2.970   8.045  0.7243  0.9579  0.1283
  369MOL0     C50811   2.518   3.049   8.118  0.5584 -0.8159  0.8370
  369MOL0     C50812   2.531   3.188   8.059 -0.1893 -0.0888  0.0626
  369MOL0     C50813   2.571   3.005   8.240  1.0909 -0.3050 -0.2360
  369MOL0     C50814   2.633   3.094   8.334  0.0882 -0.2631 -0.8723
  369MOL0     O50815   2.740   3.035   8.413 -0.2084  0.9295  0.0309
  369MOL0     C50816   2.836   3.117   8.479  0.6804 -0.9997  0.1079
  369MOL0     C50817   2.799   3.248   8.537  0.0991 -0.3336 -0.3315
  369MOL0     C50818   2.887   3.311   8.623  0.3882 -0.4900 -0.2338
  369MOL0     C50819   3.017   3.259   8.648  0.7350 -0.3630 -0.3785
  369MOL0     O50820   3.108   3.337   8.722  0.3289 -0.0491  1.0589
  369MOL0     C50821   3.055   3.384   8.850 -0.8160  0.5443 -0.3127
  369MOL0     C50822   3.163   3.412   8.951 -0.0119 -0.4940 -0.1684
  369MOL0     C50823   3.107   3.472   9.078  0.4900  0.6332 -0.8887
  369MOL0     C50824   3.215   3.439   9.185 -0.0563  0.4865 -0.7141
  369MOL0     C50825   3.171   3.503   9.320  0.1036  0.6699 -0.9095
  369MOL0     C50826   3.167   3.658   9.332 -0.3863 -0.9661  0.1276
  369MOL0     C50827   3.151   3.694   9.482  0.0336  0.6579 -0.6137
  369MOL0     C50828   3.188   3.841   9.510 -0.3831 -0.3744 -0.4288
  369MOL0    Cl50829   3.115   3.877   9.670  0.2478  0.0409 -0.2054
  369MOL0     C50830   3.055   3.142   8.588  1.1779  0.5945 -1.0457
  369MOL0     C50831   2.960   3.065   8.512 -0.8689 -0.8157  0.2290
  369MOL0     O50832   2.589   3.213   8.349 -0.2401  0.5176  0.2984
  369MOL0     C50833   2.541   2.870   8.281 -0.2920 -1.0992  0.8191
  369MOL0     C50834   2.462   2.785   8.198 -0.3838  0.2783  0.3007
  369MOL0     N50835   1.790   2.514   8.258 -1.1086 -0.4152 -0.4054
  369MOL0     N50836   1.675   2.489   8.306 -0.4906 -0.0546  0.8042
  369MOL0     C50837   1.118   2.321   7.541 -0.7988  0.2154  0.0688
  369MOL0     C50838   1.143   2.262   7.417 -0.8240  0.3593  0.5387
  369MOL0     C50839   1.060   2.108   6.971 -0.2774 -0.9458 -0.4479
  369MOL0     C50840   0.959   2.091   6.875 -0.3655  0.4424  1.0348
  369MOL0     C50841   0.970   1.998   6.776  0.0716  0.5952 -0.3333
  369MOL0     C50842   1.082   1.917   6.763 -0.5631 -0.9606 -0.2415
  369MOL0     O50843   1.113   1.837   6.652 -0.5457 -0.1944 -0.9284
  369MOL0     C50844   1.019   1.818   6.545  0.5912 -0.0060  0.4943
  369MOL0     C50845   1.069   1.746   6.420  0.0892 -0.4532 -0.1193
  369MOL0     C50846   1.119   1.606   6.453  0.0852  0.5493 -0.6165
  369MOL0     C50847   1.217   1.566   6.350 -0.1501 -0.1804 -0.9325
  369MOL0     C50848   1.147   1.513   6.230 -0.0262 -0.7016  0.2589
  369MOL0     C50849   1.093   1.480   6.134  0.3820 -1.1420 -0.5226
  369MOL0     C50850   1.193   1.942   6.849  0.3132  0.4628  0.3154
  369MOL0     C50851   1.179   2.033   6.954  0.0791  1.0008 -0.4481
  369MOL0     C50852   1.299   2.032   7.051  0.3819 -0.6081 -0.7229
  369MOL0     H50853   0.830   2.194   7.292  0.4032 -2.2537  2.2537
  369MOL0     H50854   0.775   2.248   7.513 -0.3240  0.0942 -1.0603
  369MOL0     H50855   1.115   2.309   7.834  0.1918  1.6926  0.6908
  369MOL0     H50856   0.968   2.210   7.838 -1.7598 -0.0019 -0.9703
  369MOL0     H50857   0.970   2.514   7.905 -2.2934 -0.2327 -1.9216
  369MOL0     H50858   0.846   2.392   7.940 -0.5390  0.3466  0.8790
  369MOL0     H50859   0.948   2.434   8.157 -0.3168  2.2302 -1.6692
  369MOL0     H50860   1.003   2.283   8.100  0.8442  0.2141  1.0911
  369MOL0     H50861   1.180   2.412   8.206  1.2986  0.0253 -0.7277
  369MOL0     H50862   1.231   2.404   8.034  0.8782 -0.4858  0.5769
  369MOL0     H50863   1.090   2.634   8.142  0.3001  0.4457 -2.4821
  369MOL0     H50864   1.170   2.616   7.979  1.0445 -5.9265 -0.8544
  369MOL0     H50865   1.401   2.584   8.084  0.7459 -1.4041  1.6612
  369MOL0     H50866   1.339   2.739   8.065  1.0121 -1.8167 -1.3568
  369MOL0     H50867   1.265   2.677   8.338  1.0090 -0.1181  0.4499
  369MOL0     H50868   1.366   2.791   8.282  2.4616 -0.4910  1.7770
  369MOL0     H50869   1.475   2.642   8.445 -1.7400 -0.3717 -0.0998
  369MOL0     H50870   1.422   2.496   8.355 -0.6077  0.4461  0.3463
  369MOL0     H50871   1.642   2.777   8.151 -4.6881 -0.4525 -0.3456
  369MOL0     H50872   1.868   2.730   8.008  0.2301  2.8948  2.8165
  369MOL0     H50873   1.957   2.591   8.060 -0.0535 -1.4784  0.9954
  369MOL0     H50874   1.918   2.850   8.222 -1.7017  1.4341 -5.5038
  369MOL0     H50875   2.037   2.712   8.262 -0.8612 -2.7899 -1.3370
  369MOL0     H50876   2.056   2.884   8.001 -0.4952 -0.4094 -0.6647
  369MOL0     H50877   2.133   2.919   8.141  1.3930  0.9100 -1.3447
  369MOL0     H50878   2.220   2.669   8.152 -1.6417  0.7475  0.4156
  369MOL0     H50879   2.146   2.658   7.986  0.1553 -0.7127 -0.1635
  369MOL0     H50880   2.380   3.021   7.962  0.5465  1.7766  0.7308
  369MOL0     H50881   2.635   3.219   8.054 -0.7826  2.0170 -0.2663
  369MOL0     H50882   2.481   3.252   8.132  2.9087  0.8444  1.5248
  369MOL0     H50883   2.489   3.189   7.958  0.1576  2.5177 -0.1242
  369MOL0     H50884   2.698   3.285   8.526  0.2407 -0.4791 -2.6531
  369MOL0     H50885   2.868   3.414   8.653 -0.3479 -0.8519  0.5846
  369MOL0     H50886   2.998   3.476   8.832 -0.7058  0.7172  0.1863
  369MOL0     H50887   3.002   3.295   8.883  1.2956 -1.0079 -0.8663
  369MOL0     H50888   3.213   3.319   8.978  1.9040  0.9148  1.3921
  369MOL0     H50889   3.234   3.474   8.896  0.3848 -2.1364 -1.5857
  369MOL0     H50890   3.013   3.419   9.097 -0.2053  2.6070  1.8276
  369MOL0     H50891   3.073   3.576   9.083  3.3191  1.7210 -2.3246
  369MOL0     H50892   3.317   3.472   9.163  0.1022 -0.3602 -1.3122
  369MOL0     H50893   3.225   3.331   9.201 -2.2000  0.5358  1.5627
  369MOL0     H50894   3.072   3.463   9.345  0.0623  0.9542 -0.6042
  369MOL0     H50895   3.250   3.472   9.388  0.8153  0.7151 -1.7103
  369MOL0     H50896   3.084   3.697   9.273  0.4119 -0.0703 -0.4323
  369MOL0     H50897   3.257   3.701   9.289  0.5218 -2.0680  0.8501
  369MOL0     H50898   3.200   3.621   9.547 -0.3212 -0.2114 -1.3085
  369MOL0     H50899   3.048   3.677   9.517  1.4114 -1.5172  2.9315
  369MOL0     H50900   3.165   3.915   9.432  1.7959  0.6607 -0.1676
  369MOL0     H50901   3.297   3.844   9.515 -0.3963 -1.6451  2.5520
  369MOL0     H50902   3.157   3.106   8.589  0.7181 -0.7803 -0.3770
  369MOL0     H50903   2.997   2.977   8.461  0.1278 -0.0800 -0.3569
  369MOL0     H50904   2.583   2.839   8.376 -1.9857  1.4096  2.5313
  369MOL0     H50905   2.457   2.677   8.207 -2.5978  0.1651 -1.4726
  369MOL0     H50906   1.194   2.348   7.613  1.3067 -3.6449 -0.4241
  369MOL0     H50907   1.243   2.239   7.382 -1.9154 -0.0812 -2.6594
  369MOL0     H50908   0.866   2.146   6.883  0.1423  1.9400 -2.0645
  369MOL0     H50909   0.890   1.985   6.704  0.4471 -1.5318 -0.4119
  369MOL0     H50910   0.937   1.761   6.589 -0.4983  1.7119  0.7676
  369MOL0     H50911   0.985   1.914   6.506  2.3124  0.5997  0.3934
  369MOL0     H50912   1.152   1.807   6.383 -1.5405  0.4881 -2.4445
  369MOL0     H50913   0.995   1.735   6.341  1.6985 -0.6649 -1.6599
  369MOL0     H50914   1.163   1.603   6.553 -2.0452 -0.3937  0.3432
  369MOL0     H50915   1.032   1.541   6.451 -2.4650  3.6478  0.8233
  369MOL0     H50916   1.278   1.484   6.390 -1.9054  0.1824  2.9309
  369MOL0     H50917   1.281   1.648   6.316  1.8024 -1.0526  0.4231
  369MOL0     H50918   1.040   1.435   6.052 -0.9609  0.1469 -0.4020
  369MOL0     H50919   1.280   1.880   6.832  0.0154  0.5079 -1.5764
  369MOL0     H50920   1.285   1.949   7.121  0.6640 -1.0468 -1.1813
  369MOL0     H50921   1.391   2.011   6.997 -0.7479  0.9707 -3.5137
  369MOL0     H50922   1.303   2.129   7.102  0.5025 -0.8362 -0.2931
  370MOL0     O50923   3.488   3.708   4.507  0.0304 -0.6191  0.3968
  370MOL0     C50924   3.566   3.620   4.512  0.0590 -0.4904 -1.1111
  370MOL0     O50925   3.704   3.632   4.499 -0.2769 -0.1197  1.3058
  370MOL0     C50926   3.743   3.764   4.496  0.2388 -0.0019  0.2389
  370MOL0     C50927   3.716   3.860   4.594 -0.5946  0.6783 -1.2121
  370MOL0     C50928   3.778   3.983   4.583  0.2014  0.3500 -0.4830
  370MOL0     C50929   3.866   4.020   4.475 -0.0284 -0.6361  0.0055
  370MOL0     O50930   3.933   4.140   4.474 -0.9808 -0.5618 -0.2789
  370MOL0     C50931   3.902   4.244   4.379 -0.0577  0.0625  0.5913
  370MOL0     C50932   3.758   4.300   4.388  0.2248 -0.3133  0.1082
  370MOL0     C50933   3.748   4.381   4.518 -0.0045  0.4993  0.2342
  370MOL0     C50934   3.617   4.452   4.527 -0.2093 -0.9332 -0.6322
  370MOL0     C50935   3.494   4.359   4.497 -0.3887 -0.5837  0.4247
  370MOL0     C50936   3.476   4.251   4.606 -0.3475  0.4876  0.7948
  370MOL0     C50937   3.339   4.184   4.577 -0.3427 -0.0015 -0.3029
  370MOL0     C50938   3.322   4.050   4.652 -0.4962 -0.2155  0.0154
  370MOL0     N50939   3.206   3.985   4.599 -0.2184  0.5594  0.2181
  370MOL0     C50940   3.072   4.032   4.615 -0.1012  0.4890 -0.0946
  370MOL0     C50941   3.000   3.951   4.536  0.2430  0.2077  0.5769
  370MOL0     C50942   2.847   3.984   4.512 -0.7476  0.6058 -0.3252
  370MOL0     C50943   2.765   3.862   4.485 -0.3151  0.4576 -0.8092
  370MOL0     C50944   2.615   3.883   4.467 -0.0039 -0.2746 -0.0805
  370MOL0     C50945   2.548   3.761   4.441 -0.4446  0.6358 -0.5746
  370MOL0     O50946   2.584   3.662   4.537  0.1222 -0.3010 -0.1190
  370MOL0     C50947   2.510   3.549   4.544  0.9712 -0.0416  0.4567
  370MOL0     C50948   2.560   3.460   4.642 -0.3718  0.2261  0.5346
  370MOL0     C50949   2.486   3.338   4.664 -0.4415 -1.0304 -0.4311
  370MOL0     C50950   2.561   3.244   4.754 -0.9622  0.6667  0.8028
  370MOL0     C50951   2.364   3.309   4.589  0.8092 -0.2937 -0.2175
  370MOL0     C50952   2.284   3.185   4.607 -0.7208 -0.3403  0.1496
  370MOL0     O50953   2.151   3.189   4.576  1.6149 -0.1881  0.4906
  370MOL0     C50954   2.086   3.069   4.531  0.6085  0.1442 -0.2374
  370MOL0     C50955   1.947   3.074   4.519 -0.0939 -0.3438  0.7903
  370MOL0     C50956   1.861   2.972   4.466  0.0312  0.7263 -0.8492
  370MOL0     C50957   1.923   2.856   4.417  0.7076  0.5371 -0.4512
  370MOL0     O50958   1.853   2.751   4.360 -0.0279 -0.1295  0.9944
  370MOL0     C50959   1.756   2.699   4.450 -0.3977 -0.1809  0.3051
  370MOL0     C50960   1.675   2.591   4.390 -0.1574  1.1643  0.1021
  370MOL0     C50961   1.588   2.671   4.297 -0.4997  0.8213 -0.7480
  370MOL0     C50962   1.505   2.592   4.205  0.2479 -0.0903 -0.8874
  370MOL0     C50963   1.396   2.668   4.133 -0.5152  0.2903 -0.0322
  370MOL0     C50964   1.279   2.583   4.105 -0.3841  1.0482 -0.3208
  370MOL0     C50965   1.173   2.658   4.024 -0.3804 -0.8755 -0.1241
  370MOL0     C50966   1.063   2.558   3.970 -0.3508 -0.1125 -0.4164
  370MOL0    Cl50967   0.984   2.436   4.093 -0.0382  0.4076 -0.2375
  370MOL0     C50968   2.060   2.841   4.425 -0.5087  0.2416  0.2278
  370MOL0     C50969   2.136   2.946   4.484  0.6737  0.6723  0.4360
  370MOL0     O50970   2.354   3.091   4.640  0.1845  0.7325  0.3434
  370MOL0     C50971   2.319   3.409   4.498 -0.5220 -0.4478 -0.3559
  370MOL0     C50972   2.392   3.527   4.480  0.2678 -0.1335  0.8989
  370MOL0     N50973   3.085   3.858   4.470 -0.0124 -0.9977  0.3653
  370MOL0     N50974   3.206   3.885   4.510 -0.6063  0.3386 -0.4050
  370MOL0     C50975   3.885   3.924   4.375 -0.0706  0.2211 -0.5442
  370MOL0     C50976   3.838   3.796   4.400 -0.2285 -0.4464 -0.0686
  370MOL0     C50977   3.524   3.483   4.522 -0.0588 -0.0994  0.1235
  370MOL0     C50978   3.405   3.449   4.443 -0.1347 -0.4060 -0.3082
  370MOL0     C50979   3.353   3.322   4.449  0.3745  0.3103  0.4078
  370MOL0     C50980   3.423   3.222   4.516 -0.1197 -0.1504  0.6026
  370MOL0     O50981   3.375   3.092   4.503  0.0203 -0.3159 -0.5625
  370MOL0     C50982   3.454   2.978   4.514 -0.3871 -0.0034 -0.7465
  370MOL0     C50983   3.381   2.865   4.457 -0.0416 -0.9890  0.2930
  370MOL0     C50984   3.250   2.834   4.525 -0.0443 -0.2633  1.8679
  370MOL0     C50985   3.197   2.710   4.453 -0.8976  0.4121  0.7018
  370MOL0     C50986   3.101   2.647   4.525  0.5171  0.1974  0.7673
  370MOL0     C50987   3.034   2.608   4.621  0.8589 -0.6058  0.3300
  370MOL0     C50988   3.535   3.254   4.592  0.4465  0.4524 -0.2433
  370MOL0     C50989   3.578   3.383   4.611  0.0297  0.1573 -1.3031
  370MOL0     C50990   3.698   3.410   4.702 -1.4575  0.7534  0.1292
  370MOL0     H50991   3.671   3.843   4.691 -0.9317  2.5469 -1.0051
  370MOL0     H50992   3.773   4.058   4.661  1.8067 -1.7243  1.7293
  370MOL0     H50993   3.906   4.216   4.274 -0.3320  0.1825  0.5478
  370MOL0     H50994   3.982   4.317   4.394 -2.4996  3.4628 -1.6354
  370MOL0     H50995   3.725   4.358   4.301  1.8379 -1.9070 -1.6873
  370MOL0     H50996   3.689   4.215   4.391 -2.8221  1.9236 -1.4723
  370MOL0     H50997   3.761   4.315   4.604 -1.6942 -0.3240 -0.1014
  370MOL0     H50998   3.835   4.447   4.530 -0.0045  0.1097  3.2024
  370MOL0     H50999   3.595   4.501   4.622  0.0088 -0.0505 -1.0336
  370MOL0     H51000   3.619   4.531   4.452 -1.4561  0.0075  0.2736
  370MOL0     H51001   3.500   4.304   4.403 -0.3088  1.0857 -0.5711
  370MOL0     H51002   3.404   4.421   4.491 -0.2268 -0.5171 -3.0156
  370MOL0     H51003   3.556   4.176   4.605 -2.8502 -2.3725 -1.0622
  370MOL0     H51004   3.469   4.304   4.701  2.6633  0.9802  0.8468
  370MOL0     H51005   3.331   4.153   4.472  1.1268  1.7942 -0.9911
  370MOL0     H51006   3.262   4.261   4.590  0.2323  0.6107 -0.4860
  370MOL0     H51007   3.414   3.993   4.639 -1.4060 -1.3529 -1.8773
  370MOL0     H51008   3.302   4.065   4.758 -2.3017  0.2770 -0.3662
  370MOL0     H51009   3.029   4.107   4.679 -1.2333  1.5265 -1.9837
  370MOL0     H51010   2.844   4.056   4.430 -2.2672  0.2020 -0.6387
  370MOL0     H51011   2.808   4.025   4.606  0.3391 -3.1851  1.9707
  370MOL0     H51012   2.805   3.816   4.393  1.4365 -2.5578  1.2566
  370MOL0     H51013   2.803   3.782   4.550 -1.3665  0.3504 -0.3124
  370MOL0     H51014   2.585   3.927   4.562 -0.1750  1.6288 -0.9846
  370MOL0     H51015   2.601   3.957   4.387  0.3414 -1.2725 -1.0991
  370MOL0     H51016   2.442   3.779   4.459 -0.4077 -1.3818  2.1485
  370MOL0     H51017   2.570   3.720   4.342  0.8877 -1.9771  0.7137
  370MOL0     H51018   2.661   3.481   4.674  1.3728 -0.6862 -3.6182
  370MOL0     H51019   2.631   3.299   4.817 -0.6226 -1.3555  2.2922
  370MOL0     H51020   2.608   3.156   4.710 -2.1576 -0.3704  1.5403
  370MOL0     H51021   2.493   3.195   4.824  0.0375 -0.7546  0.8157
  370MOL0     H51022   1.895   3.163   4.553 -1.9504 -1.3860  0.8548
  370MOL0     H51023   1.754   2.982   4.452 -0.3662 -2.5371 -0.6897
  370MOL0     H51024   1.816   2.655   4.530  2.4631 -0.1989 -1.6997
  370MOL0     H51025   1.692   2.770   4.502  0.2072  1.3075 -0.9046
  370MOL0     H51026   1.726   2.514   4.332 -1.2127 -0.1578  0.8795
  370MOL0     H51027   1.617   2.540   4.466 -0.0408 -1.2236 -1.3111
  370MOL0     H51028   1.649   2.746   4.247 -2.2015  3.6973  1.1480
  370MOL0     H51029   1.530   2.733   4.367  2.5704  1.7951  1.1617
  370MOL0     H51030   1.472   2.510   4.270 -1.9313  1.7644  0.4796
  370MOL0     H51031   1.569   2.535   4.137  0.0986 -0.0936 -1.0250
  370MOL0     H51032   1.355   2.751   4.190  2.1197  2.4815 -1.1185
  370MOL0     H51033   1.436   2.711   4.041  0.8278 -3.4312 -1.3799
  370MOL0     H51034   1.247   2.555   4.206  3.1917 -0.3216  0.5938
  370MOL0     H51035   1.312   2.486   4.067  1.4485  0.4977  2.3738
  370MOL0     H51036   1.215   2.698   3.931  1.9476 -1.3216  0.6711
  370MOL0     H51037   1.118   2.727   4.089  2.2027 -0.0442  1.3320
  370MOL0     H51038   1.113   2.501   3.891  1.2625  1.7427 -0.8158
  370MOL0     H51039   0.995   2.626   3.919 -0.4430 -0.4260 -0.7159
  370MOL0     H51040   2.125   2.770   4.378  2.0616  1.4160  1.7979
  370MOL0     H51041   2.243   2.929   4.497  0.4268 -2.9266 -1.0641
  370MOL0     H51042   2.230   3.382   4.442  0.3169 -2.5303 -0.7971
  370MOL0     H51043   2.359   3.592   4.401  2.2741 -1.0263 -0.7758
  370MOL0     H51044   3.951   3.941   4.291  0.3441  0.4894 -0.1700
  370MOL0     H51045   3.858   3.721   4.324  0.3861 -1.4593  1.0629
  370MOL0     H51046   3.365   3.511   4.363 -0.5870 -0.0038  0.2188
  370MOL0     H51047   3.270   3.310   4.380  1.4131  2.1847 -1.3009
  370MOL0     H51048   3.546   2.989   4.455 -1.1382  1.9340 -1.6449
  370MOL0     H51049   3.496   2.958   4.613  0.0143  0.3361 -0.8448
  370MOL0     H51050   3.435   2.773   4.479  2.9823  0.3873 -0.7599
  370MOL0     H51051   3.363   2.883   4.350  2.8776  0.9564 -0.0056
  370MOL0     H51052   3.253   2.808   4.631 -1.9218 -0.2597  1.9538
  370MOL0     H51053   3.180   2.915   4.503  1.1809 -0.0656 -2.1631
  370MOL0     H51054   3.275   2.635   4.440 -1.4162 -0.0653  0.3080
  370MOL0     H51055   3.156   2.744   4.357 -0.2271  1.2532  0.7020
  370MOL0     H51056   2.964   2.577   4.695  1.7579 -1.6843  0.7591
  370MOL0     H51057   3.576   3.181   4.661  1.3414 -0.7116 -1.9437
  370MOL0     H51058   3.696   3.352   4.795  1.1763  1.8938  1.0193
  370MOL0     H51059   3.794   3.376   4.661 -1.4220  0.4714  0.4421
  370MOL0     H51060   3.715   3.516   4.725 -0.3289  0.5547  0.2848
  371MOL0     O51061   9.955   9.286   9.860  0.0326  0.1742 -0.4588
  371MOL0     C51062   9.855   9.232   9.919 -0.5220 -0.5166  0.3192
  371MOL0     O51063   9.728   9.239   9.882  0.3692 -0.1814 -0.3046
  371MOL0     C51064   9.693   9.335   9.798  0.2609 -0.3909  0.6284
  371MOL0     C51065   9.626   9.301   9.682 -0.2679  0.3457 -0.2626
  371MOL0     C51066   9.569   9.395   9.592 -0.4507  0.0942 -0.2968
  371MOL0     C51067   9.583   9.526   9.616  0.4190  0.2951  0.5012
  371MOL0     O51068   9.549   9.616   9.514  0.2671  0.6950  0.4027
  371MOL0     C51069   9.555   9.756   9.540  0.3547  0.3242 -0.2052
  371MOL0     C51070   9.467   9.835   9.441  0.1787 -0.8822 -0.4283
  371MOL0     C51071   9.312   9.810   9.474 -0.6466  0.3740 -0.0897
  371MOL0     C51072   9.245   9.853   9.607  0.1102 -0.1129  0.4347
  371MOL0     C51073   9.111   9.784   9.634  0.2318 -0.4326  0.3455
  371MOL0     C51074   9.048   9.823   9.770  0.1282 -0.3615  0.1810
  371MOL0     C51075   9.123   9.761   9.890 -1.0663 -0.2131  0.3670
  371MOL0     C51076   9.100   9.604   9.892 -0.2980 -0.4625 -0.5594
  371MOL0     N51077   9.123   9.539  10.023 -0.2997  0.7105  0.0824
  371MOL0     C51078   9.053   9.573  10.140 -0.5141  0.2667  0.0814
  371MOL0     C51079   9.110   9.513  10.249 -0.2081 -0.4322 -0.0133
  371MOL0     C51080   9.050   9.495  10.393 -0.0253  0.2794  0.0075
  371MOL0     C51081   8.954   9.377  10.407  1.0120 -0.5794  0.9027
  371MOL0     C51082   9.017   9.239  10.386 -0.5875 -0.5964  0.3496
  371MOL0     C51083   9.078   9.190  10.516  0.1808  0.7409 -0.7127
  371MOL0     O51084   8.970   9.194  10.609  0.1162  1.4298  0.2177
  371MOL0     C51085   8.904   9.077  10.641  0.5475  0.0855 -0.1984
  371MOL0     C51086   8.966   8.952  10.647  0.5365  0.4863 -0.5618
  371MOL0     C51087   8.893   8.835  10.685  1.1998 -0.4320 -0.1450
  371MOL0     C51088   8.969   8.705  10.688 -0.1006  0.2157  0.5169
  371MOL0     C51089   8.767   8.853  10.745 -0.6027 -0.0942  0.1218
  371MOL0     C51090   8.686   8.745  10.807 -0.3350  0.2049 -0.1240
  371MOL0     O51091   8.590   8.780  10.899  0.4353 -0.2050 -0.7814
  371MOL0     C51092   8.515   8.673  10.947 -0.4070 -1.1290  0.2431
  371MOL0     C51093   8.572   8.566  11.011 -0.3300  0.0026 -0.5581
  371MOL0     C51094   8.498   8.465  11.065 -0.0926  0.2422 -0.6226
  371MOL0     C51095   8.362   8.470  11.066  0.1080 -0.1909  0.5703
  371MOL0     O51096   8.281   8.388  11.128 -0.0185  0.2155 -0.0592
  371MOL0     C51097   8.298   8.363  11.269  0.4601 -0.8138 -0.2637
  371MOL0     C51098   8.165   8.343  11.347 -0.5786  0.3606 -0.0379
  371MOL0     C51099   8.098   8.205  11.329 -0.2865  0.0320 -0.1720
  371MOL0     C51100   8.164   8.102  11.417 -1.0703  0.2219 -0.2752
  371MOL0     C51101   8.082   7.963  11.413  0.1421 -0.3245 -0.5949
  371MOL0     C51102   8.137   7.874  11.527 -0.0559 -0.2850 -0.1780
  371MOL0     C51103   8.067   7.738  11.523 -0.4588  0.6211  0.5515
  371MOL0     C51104   8.080   7.657  11.656 -0.3966 -0.0804  0.0626
  371MOL0    Cl51105   8.257   7.638  11.713 -0.1684  0.5620  0.2473
  371MOL0     C51106   8.305   8.587  10.999  0.4586  1.1282  0.2774
  371MOL0     C51107   8.377   8.679  10.932 -0.8387 -0.3701 -0.2982
  371MOL0     O51108   8.708   8.630  10.770 -0.3277  0.0536  0.1207
  371MOL0     C51109   8.696   8.977  10.739  0.3874  0.3363 -0.9223
  371MOL0     C51110   8.766   9.089  10.685 -0.1099 -0.7283 -0.1887
  371MOL0     N51111   9.206   9.437  10.186 -0.5866 -0.7075 -0.0127
  371MOL0     N51112   9.215   9.454  10.052 -0.8850  0.7025 -0.5678
  371MOL0     C51113   9.658   9.565   9.731  0.9748  0.2271  0.6916
  371MOL0     C51114   9.703   9.472   9.824  0.5240  0.7005  0.5589
  371MOL0     C51115   9.893   9.131  10.018  0.3564  0.2192  0.5554
  371MOL0     C51116   9.836   9.005  10.002  0.3867 -0.2676 -0.7095
  371MOL0     C51117   9.850   8.902  10.102 -0.2546  0.9043  1.0668
  371MOL0     C51118   9.934   8.925  10.208  0.2680 -0.0271  0.3090
  371MOL0     O51119   9.929   8.842  10.311  0.1813 -0.7579  0.5343
  371MOL0     C51120  10.048   8.780  10.360 -1.2174  0.4568 -0.0343
  371MOL0     C51121  10.164   8.748  10.257  0.1772  0.1396 -0.6230
  371MOL0     C51122  10.265   8.671  10.339  0.1583  0.0178 -0.3713
  371MOL0     C51123  10.388   8.661  10.258  0.6455 -0.2130 -0.6672
  371MOL0     C51124  10.367   8.565  10.150  0.6183  0.6247  0.2805
  371MOL0     C51125  10.348   8.494  10.054 -0.2830 -0.3998  0.2826
  371MOL0     C51126   9.997   9.049  10.214 -1.2646 -0.6854  0.1937
  371MOL0     C51127   9.976   9.153  10.124  0.5431 -0.5481 -0.1607
  371MOL0     C51128  10.020   9.296  10.172 -0.3117  0.2976  0.4385
  371MOL0     H51129   9.615   9.196   9.657  1.3791 -0.0145  0.3926
  371MOL0     H51130   9.495   9.370   9.517 -1.3433  0.9322  0.2676
  371MOL0     H51131   9.656   9.797   9.528 -0.0538  2.3944  2.5714
  371MOL0     H51132   9.524   9.778   9.642  1.4152 -3.5620  1.1650
  371MOL0     H51133   9.494   9.941   9.444 -1.6558 -0.3799 -0.4208
  371MOL0     H51134   9.470   9.808   9.335 -2.8688 -1.5869 -0.4576
  371MOL0     H51135   9.241   9.850   9.401 -1.2611  1.0984  0.8837
  371MOL0     H51136   9.283   9.708   9.445  0.7414  0.7303 -3.0487
  371MOL0     H51137   9.312   9.827   9.689 -0.7899  0.2952  1.3151
  371MOL0     H51138   9.230   9.961   9.612  0.5963  0.1328 -1.9140
  371MOL0     H51139   9.122   9.676   9.621 -0.3054 -0.4178 -0.3255
  371MOL0     H51140   9.043   9.819   9.555  1.3651  1.8438  0.3050
  371MOL0     H51141   9.057   9.932   9.776  3.3542 -0.4211 -1.1988
  371MOL0     H51142   8.942   9.796   9.770  0.1179 -0.6265  2.6533
  371MOL0     H51143   9.099   9.804   9.988 -3.9065  1.7892 -1.0703
  371MOL0     H51144   9.228   9.758   9.862 -0.9171  1.7017  0.5937
  371MOL0     H51145   9.002   9.578   9.851 -0.0630 -0.6498 -1.0002
  371MOL0     H51146   9.171   9.547   9.832  0.6755 -1.1607  1.1858
  371MOL0     H51147   8.959   9.629  10.145 -0.6754 -0.0917  1.5561
  371MOL0     H51148   8.995   9.583  10.428 -2.2037 -1.2280  0.5956
  371MOL0     H51149   9.132   9.478  10.463  1.7777  0.2594 -2.0116
  371MOL0     H51150   8.887   9.391  10.492 -0.1411 -1.0374  0.0801
  371MOL0     H51151   8.888   9.391  10.321  1.5499  0.1958  0.5930
  371MOL0     H51152   8.924   9.185  10.367 -0.1955 -2.0193  2.2367
  371MOL0     H51153   9.078   9.238  10.295 -0.3232  3.8491  0.2586
  371MOL0     H51154   9.112   9.086  10.509 -3.2067 -0.7342  1.5359
  371MOL0     H51155   9.165   9.246  10.551 -1.2364  1.9448  1.0777
  371MOL0     H51156   9.073   8.939  10.637  0.8044 -0.2216  2.2411
  371MOL0     H51157   8.948   8.642  10.775  4.5484 -2.5934 -0.0034
  371MOL0     H51158   9.077   8.723  10.684 -0.4094  2.0734 -1.8242
  371MOL0     H51159   8.939   8.649  10.599 -3.7991 -0.6133  2.0883
  371MOL0     H51160   8.680   8.564  11.024 -0.1720  2.6709 -0.8881
  371MOL0     H51161   8.543   8.386  11.123  2.5805  2.3012  0.3281
  371MOL0     H51162   8.356   8.271  11.277 -1.1409 -1.7616  1.1349
  371MOL0     H51163   8.342   8.452  11.315  1.7590 -1.6995  0.2795
  371MOL0     H51164   8.198   8.362  11.450 -1.1365  0.5390  0.1075
  371MOL0     H51165   8.098   8.427  11.332  1.5621  3.0213  3.6768
  371MOL0     H51166   8.110   8.175  11.225  2.7348  0.0602  0.0822
  371MOL0     H51167   7.991   8.211  11.351  0.1558  0.9967  1.9831
  371MOL0     H51168   8.181   8.147  11.516  0.6892 -0.3062 -0.2972
  371MOL0     H51169   8.267   8.082  11.387 -1.1676  2.2243 -2.1874
  371MOL0     H51170   7.977   7.990  11.424 -0.0697 -1.5610  0.7919
  371MOL0     H51171   8.101   7.915  11.317 -0.0854 -1.9042  0.1146
  371MOL0     H51172   8.115   7.922  11.623  2.9297 -3.2994  2.3099
  371MOL0     H51173   8.244   7.858  11.516 -0.2459 -0.3659 -2.1949
  371MOL0     H51174   8.117   7.682  11.443 -0.1515  2.1257 -0.3593
  371MOL0     H51175   7.962   7.748  11.495 -1.0606 -0.4399  2.3164
  371MOL0     H51176   8.032   7.560  11.636 -3.3461  1.3268 -0.2388
  371MOL0     H51177   8.038   7.715  11.739  3.2297 -0.5643  2.4946
  371MOL0     H51178   8.197   8.600  10.995  0.5889  2.0652 -1.6283
  371MOL0     H51179   8.337   8.767  10.884  0.4375  0.1380 -0.4716
  371MOL0     H51180   8.600   8.967  10.788 -0.7492 -5.7346 -3.5316
  371MOL0     H51181   8.730   9.190  10.671  2.4436  0.6800  2.2026
  371MOL0     H51182   9.671   9.668   9.763 -2.9522  0.6055  1.5833
  371MOL0     H51183   9.754   9.508   9.913  2.6688 -0.2239 -0.2291
  371MOL0     H51184   9.769   8.989   9.919  0.7889  0.8141 -1.2670
  371MOL0     H51185   9.803   8.804  10.101 -0.1615  0.8462  1.8396
  371MOL0     H51186  10.091   8.844  10.437 -1.9248 -2.3968  2.9348
  371MOL0     H51187  10.020   8.694  10.420  0.7606  0.6129  1.2034
  371MOL0     H51188  10.203   8.847  10.229 -0.7998  0.9121  0.6415
  371MOL0     H51189  10.122   8.697  10.170 -0.0557  0.2115 -0.5525
  371MOL0     H51190  10.267   8.728  10.432 -0.7021  2.1970 -1.5970
  371MOL0     H51191  10.236   8.568  10.363  0.4203  0.0161 -0.0517
  371MOL0     H51192  10.467   8.623  10.323 -0.1396 -0.1436  0.3713
  371MOL0     H51193  10.423   8.762  10.234  1.7371 -0.2495  0.6298
  371MOL0     H51194  10.335   8.437   9.964  1.6040  0.6464 -0.7131
  371MOL0     H51195  10.054   9.076  10.303 -0.3650  1.5240 -0.9865
  371MOL0     H51196   9.955   9.368  10.122  1.5058  0.3901 -1.9913
  371MOL0     H51197  10.010   9.309  10.280 -0.9577 -0.9379  0.5406
  371MOL0     H51198  10.125   9.305  10.142  0.2707 -2.6648  1.2163
  372MOL0     O51199   2.929   8.121   8.061  0.2873 -0.2791  0.7367
  372MOL0     C51200   2.822   8.076   8.099 -0.4094  0.3801 -0.4198
  372MOL0     O51201   2.768   7.952   8.074  0.4104 -0.2109  0.1309
  372MOL0     C51202   2.824   7.876   7.979  0.2248  0.3149 -0.5176
  372MOL0     C51203   2.819   7.737   8.005  0.9680 -0.2359  0.1449
  372MOL0     C51204   2.878   7.653   7.917  0.6643  0.3905  0.7812
  372MOL0     C51205   2.947   7.703   7.803 -0.2410 -0.6861  0.3407
  372MOL0     O51206   3.028   7.638   7.715  0.3603  0.2125  0.6471
  372MOL0     C51207   3.107   7.534   7.763 -0.4941  0.6166  0.1635
  372MOL0     C51208   3.261   7.589   7.750 -0.3727 -0.4889  0.2600
  372MOL0     C51209   3.366   7.481   7.752  0.3037  0.2606 -0.2576
  372MOL0     C51210   3.410   7.440   7.614 -0.1147 -0.0871  0.0647
  372MOL0     C51211   3.491   7.315   7.630 -0.6239  0.5037 -1.2503
  372MOL0     C51212   3.563   7.284   7.505  0.8533  0.4054 -0.6990
  372MOL0     C51213   3.667   7.181   7.536  0.3561 -0.7975 -0.1985
  372MOL0     C51214   3.739   7.112   7.422 -0.7746  0.0134  0.8145
  372MOL0     N51215   3.803   7.209   7.337 -0.1160 -0.5119  0.4319
  372MOL0     C51216   3.936   7.234   7.355  0.6086 -1.1032 -0.3139
  372MOL0     C51217   3.960   7.337   7.275  0.6530  0.5918 -0.6459
  372MOL0     C51218   4.087   7.405   7.234 -0.1809 -0.7206 -1.0100
  372MOL0     C51219   4.194   7.330   7.154  0.3927  0.0957 -1.3741
  372MOL0     C51220   4.182   7.342   7.001 -0.0712  1.0874  0.2995
  372MOL0     C51221   4.231   7.471   6.939  1.4067  0.4400 -0.0523
  372MOL0     O51222   4.373   7.472   6.932 -0.0221  0.7200 -0.7767
  372MOL0     C51223   4.437   7.414   6.827  0.3284 -0.3454  0.3555
  372MOL0     C51224   4.381   7.347   6.715 -0.1741  0.0088  0.2660
  372MOL0     C51225   4.463   7.283   6.620  0.2279 -0.2211  0.0405
  372MOL0     C51226   4.398   7.224   6.499  0.8771  0.0294 -0.1550
  372MOL0     C51227   4.600   7.281   6.642  0.3913 -0.1411  0.0433
  372MOL0     C51228   4.696   7.214   6.554  0.0831  0.4438 -0.2335
  372MOL0     O51229   4.825   7.262   6.555  0.5860  0.1866 -0.4816
  372MOL0     C51230   4.925   7.182   6.502  0.0536 -0.4298 -0.1278
  372MOL0     C51231   4.956   7.050   6.548 -0.5936 -0.6155  0.2466
  372MOL0     C51232   5.063   6.988   6.484 -0.3413  0.5035 -0.8285
  372MOL0     C51233   5.136   7.049   6.384 -0.7412 -0.4807 -0.9379
  372MOL0     O51234   5.250   6.984   6.329 -0.4863  0.7068 -0.8009
  372MOL0     C51235   5.311   6.867   6.383 -0.0537  0.1122 -0.0062
  372MOL0     C51236   5.436   6.816   6.302  0.0327  0.7492  0.0228
  372MOL0     C51237   5.509   6.694   6.358  0.1062 -0.8610  0.7186
  372MOL0     C51238   5.582   6.732   6.487 -0.2752  0.3403 -0.7526
  372MOL0     C51239   5.709   6.814   6.461  0.0049 -0.7086 -0.0932
  372MOL0     C51240   5.791   6.822   6.590 -0.0587 -1.0066  0.0673
  372MOL0     C51241   5.919   6.906   6.580  0.0127 -0.2689 -0.2191
  372MOL0     C51242   5.999   6.916   6.712  0.3688  0.2790 -0.4606
  372MOL0    Cl51243   5.924   7.040   6.812  0.4283 -0.2084 -0.5433
  372MOL0     C51244   5.102   7.172   6.344  0.2519  0.3438 -0.9355
  372MOL0     C51245   4.999   7.245   6.411 -0.6500 -0.6366 -0.3787
  372MOL0     O51246   4.665   7.103   6.501  1.2520 -1.1034 -0.0295
  372MOL0     C51247   4.649   7.348   6.756 -0.4832 -0.8212 -0.4055
  372MOL0     C51248   4.570   7.412   6.852 -0.3109 -0.0768 -0.5623
  372MOL0     N51249   3.848   7.370   7.205  0.1394 -0.0730 -0.4553
  372MOL0     N51250   3.750   7.290   7.235 -0.5461 -0.6955  0.8708
  372MOL0     C51251   2.934   7.836   7.770  0.3354 -0.7073  0.1701
  372MOL0     C51252   2.868   7.924   7.856  0.4172  0.1466  0.6317
  372MOL0     C51253   2.741   8.183   8.185  0.8998  0.8183  0.6057
  372MOL0     C51254   2.809   8.265   8.278 -1.1454 -0.3292  0.1144
  372MOL0     C51255   2.751   8.362   8.355  0.7803  0.2847 -0.6204
  372MOL0     C51256   2.621   8.396   8.328  0.5103 -0.1755 -0.6237
  372MOL0     O51257   2.562   8.487   8.419  0.4356  0.1700 -0.5050
  372MOL0     C51258   2.451   8.565   8.377  0.0824  0.8698 -0.2862
  372MOL0     C51259   2.462   8.671   8.483  0.2312 -0.2340  0.2399
  372MOL0     C51260   2.373   8.792   8.441  0.1325  0.3926  0.7116
  372MOL0     C51261   2.377   8.909   8.535 -0.4267  1.0005 -0.8084
  372MOL0     C51262   2.513   8.964   8.547 -0.5718 -0.0225  0.7969
  372MOL0     C51263   2.624   9.015   8.560  0.2171  0.3143  0.3254
  372MOL0     C51264   2.545   8.322   8.237 -1.6583  0.4592  1.2777
  372MOL0     C51265   2.601   8.207   8.169  0.1850  0.1428  0.5092
  372MOL0     C51266   2.506   8.129   8.082 -0.4508  0.1221 -0.3161
  372MOL0     H51267   2.776   7.696   8.096 -1.5707  0.6710 -0.5690
  372MOL0     H51268   2.878   7.545   7.930  2.0720  0.0860 -1.3398
  372MOL0     H51269   3.097   7.441   7.707  1.0429 -0.7010  1.9212
  372MOL0     H51270   3.084   7.508   7.867 -2.7604 -1.3484 -0.7474
  372MOL0     H51271   3.282   7.648   7.660 -0.5192 -2.3767 -1.0873
  372MOL0     H51272   3.290   7.648   7.837  2.0936 -2.6922  1.0749
  372MOL0     H51273   3.451   7.516   7.812 -0.8666  1.2895  0.8620
  372MOL0     H51274   3.323   7.398   7.809 -0.6802  0.9787  0.0819
  372MOL0     H51275   3.327   7.416   7.547 -1.4597  2.7087  0.6333
  372MOL0     H51276   3.469   7.518   7.564  2.7243 -2.0072  0.1834
  372MOL0     H51277   3.434   7.224   7.651  1.4788 -0.5219  0.4135
  372MOL0     H51278   3.562   7.334   7.710 -0.6335  3.4134 -1.8084
  372MOL0     H51279   3.507   7.248   7.418  0.1095 -0.0284 -0.0456
  372MOL0     H51280   3.601   7.379   7.465  3.1230  0.1819  0.7524
  372MOL0     H51281   3.626   7.105   7.603 -4.5740 -2.1440 -4.1815
  372MOL0     H51282   3.751   7.238   7.577 -0.6454  0.4091  0.2188
  372MOL0     H51283   3.816   7.045   7.461  0.4256 -0.4550 -2.0997
  372MOL0     H51284   3.673   7.050   7.361  1.6818 -1.8188 -0.1527
  372MOL0     H51285   4.008   7.178   7.414  0.8343 -2.1582 -1.5585
  372MOL0     H51286   4.116   7.443   7.332 -0.3445 -1.5265 -0.6351
  372MOL0     H51287   4.055   7.496   7.183  0.5162  2.1777  3.2058
  372MOL0     H51288   4.291   7.361   7.194 -1.1320  2.5418  0.7025
  372MOL0     H51289   4.182   7.223   7.172 -0.7713  0.6776  1.7830
  372MOL0     H51290   4.236   7.264   6.947 -0.0203  1.4163 -0.1335
  372MOL0     H51291   4.075   7.331   6.982  0.1913  0.7200 -1.0650
  372MOL0     H51292   4.183   7.482   6.841 -0.8266  1.1235  1.0229
  372MOL0     H51293   4.197   7.551   7.006 -1.0002 -2.5867  2.6879
  372MOL0     H51294   4.274   7.346   6.696 -0.3168  1.0601  0.9616
  372MOL0     H51295   4.399   7.115   6.500 -1.9293 -0.0772 -1.0246
  372MOL0     H51296   4.438   7.259   6.403  1.6195 -0.9124 -0.1992
  372MOL0     H51297   4.292   7.251   6.501  0.7674 -0.3773 -0.4223
  372MOL0     H51298   4.905   6.989   6.622 -0.7925 -3.3096 -1.9448
  372MOL0     H51299   5.075   6.881   6.504 -1.4767  0.1621 -1.8748
  372MOL0     H51300   5.330   6.883   6.490 -3.8468  1.0068  0.6935
  372MOL0     H51301   5.249   6.777   6.390  1.4392 -1.1469 -1.8897
  372MOL0     H51302   5.415   6.799   6.196  1.1957 -3.2045  0.2445
  372MOL0     H51303   5.499   6.905   6.308  2.1165 -0.6268 -0.3407
  372MOL0     H51304   5.590   6.664   6.291  3.2202  2.6580  2.5144
  372MOL0     H51305   5.430   6.619   6.372 -2.0466  0.2095 -3.9553
  372MOL0     H51306   5.614   6.639   6.535  0.9734  0.1397 -1.8961
  372MOL0     H51307   5.518   6.761   6.570  0.3063 -5.2798  2.1524
  372MOL0     H51308   5.774   6.761   6.392  5.0751  1.8448  2.1730
  372MOL0     H51309   5.680   6.911   6.420 -3.3178 -1.6051 -0.1283
  372MOL0     H51310   5.826   6.720   6.609  3.0371 -0.4749 -2.1044
  372MOL0     H51311   5.738   6.846   6.682  2.5035  0.1974  1.3355
  372MOL0     H51312   5.896   7.010   6.556  0.1472 -0.4841 -1.3471
  372MOL0     H51313   5.976   6.858   6.500  1.5514  0.6556  0.3030
  372MOL0     H51314   6.098   6.943   6.675 -0.6577  1.5167 -2.4877
  372MOL0     H51315   5.997   6.816   6.755  0.9386  0.4989  0.0836
  372MOL0     H51316   5.158   7.215   6.262  2.6472 -0.4817  0.1557
  372MOL0     H51317   4.985   7.351   6.393 -1.4636 -0.5005  0.9896
  372MOL0     H51318   4.753   7.339   6.786 -0.5970 -0.6449  0.0551
  372MOL0     H51319   4.611   7.445   6.947  0.5874  2.2776 -1.6941
  372MOL0     H51320   2.979   7.887   7.685  1.6073 -0.8502  0.7332
  372MOL0     H51321   2.876   8.028   7.828 -0.9546 -0.5082 -2.6203
  372MOL0     H51322   2.917   8.258   8.290 -1.3002  0.3485  2.4830
  372MOL0     H51323   2.803   8.421   8.430 -1.7328 -0.5908  1.9839
  372MOL0     H51324   2.469   8.597   8.274  0.7821 -1.1759 -0.8529
  372MOL0     H51325   2.354   8.516   8.390 -0.8075  2.6857  0.1940
  372MOL0     H51326   2.558   8.718   8.504 -0.5640  1.7335 -0.2694
  372MOL0     H51327   2.422   8.626   8.575  0.9774  1.9260  1.7045
  372MOL0     H51328   2.414   8.834   8.349 -0.5621  1.1236  0.7209
  372MOL0     H51329   2.269   8.758   8.433 -0.2349  1.5203  0.4888
  372MOL0     H51330   2.350   8.880   8.637 -0.0623  0.8615 -0.7487
  372MOL0     H51331   2.305   8.980   8.494 -2.1525 -0.3156 -0.1798
  372MOL0     H51332   2.706   9.082   8.575  0.8828 -0.4529  0.2390
  372MOL0     H51333   2.446   8.353   8.207 -1.9486  0.9809  2.6664
  372MOL0     H51334   2.538   8.026   8.065  0.4872  0.6586 -2.0753
  372MOL0     H51335   2.400   8.132   8.110 -0.4684  0.7325 -0.4307
  372MOL0     H51336   2.504   8.168   7.980 -0.5181 -1.0672 -0.7957
  373MOL0     O51337   2.211   3.624   0.453 -0.4819  0.2316 -0.3141
  373MOL0     C51338   2.139   3.530   0.421 -0.2532  0.2200 -0.5176
  373MOL0     O51339   2.184   3.407   0.380 -0.9674 -0.1238 -0.0920
  373MOL0     C51340   2.318   3.382   0.369 -0.1022 -0.4099 -0.5364
  373MOL0     C51341   2.376   3.326   0.479 -0.4234 -0.7856  1.1722
  373MOL0     C51342   2.516   3.302   0.480 -0.4302 -0.3988 -0.3274
  373MOL0     C51343   2.594   3.353   0.377 -0.2283 -0.3120  0.1890
  373MOL0     O51344   2.724   3.324   0.366  0.2370  0.3224 -0.1849
  373MOL0     C51345   2.781   3.193   0.395 -0.1995 -0.1719 -0.3010
  373MOL0     C51346   2.931   3.178   0.348  0.1232 -0.1049  0.0055
  373MOL0     C51347   3.003   3.041   0.382 -0.0497 -0.5048 -0.7215
  373MOL0     C51348   3.149   3.042   0.330 -0.5267  0.4002 -1.2676
  373MOL0     C51349   3.207   2.903   0.352 -0.4493  0.0844 -0.1445
  373MOL0     C51350   3.353   2.915   0.338 -0.4364 -0.2760 -0.2816
  373MOL0     C51351   3.399   2.769   0.329 -0.8611  0.2797  0.3192
  373MOL0     C51352   3.541   2.739   0.378 -0.3520 -0.3453 -0.4411
  373MOL0     N51353   3.567   2.595   0.366 -0.3170  0.7903 -0.0067
  373MOL0     C51354   3.512   2.482   0.428 -1.1648  0.2589  0.1486
  373MOL0     C51355   3.579   2.369   0.389 -0.8238 -0.2962  0.0486
  373MOL0     C51356   3.566   2.230   0.429  0.0525  0.3939 -0.2870
  373MOL0     C51357   3.423   2.166   0.400 -0.5579  0.3150  0.1333
  373MOL0     C51358   3.428   2.035   0.468  0.6276  0.1324 -0.3714
  373MOL0     C51359   3.291   1.982   0.452  0.2663  0.2314  0.8330
  373MOL0     O51360   3.285   1.841   0.500 -0.4044  0.3471  0.3592
  373MOL0     C51361   3.331   1.744   0.409  0.3302 -0.7232  0.9200
  373MOL0     C51362   3.282   1.738   0.274  0.7109  0.4595 -0.2571
  373MOL0     C51363   3.345   1.652   0.184  0.0463  0.3032 -1.0563
  373MOL0     C51364   3.274   1.638   0.054  0.0579  0.1536  0.5860
  373MOL0     C51365   3.462   1.571   0.226  0.0166 -0.6638 -0.1519
  373MOL0     C51366   3.537   1.480   0.127 -0.0416 -0.7868 -0.8208
  373MOL0     O51367   3.479   1.452   0.006 -0.3650 -1.1768 -0.4038
  373MOL0     C51368   3.495   1.322  -0.025  0.1470  0.2662  0.8784
  373MOL0     C51369   3.430   1.224   0.057  0.2706  0.8051 -0.2083
  373MOL0     C51370   3.447   1.087   0.025  1.0902 -1.1161  0.0480
  373MOL0     C51371   3.523   1.047  -0.085  0.6925  0.8494  0.5323
  373MOL0     O51372   3.521   0.910  -0.115 -0.4739  0.0311  0.6239
  373MOL0     C51373   3.631   0.848  -0.056 -0.0484 -0.9838 -0.3359
  373MOL0     C51374   3.721   0.795  -0.174  0.6340  0.7159 -0.8568
  373MOL0     C51375   3.650   0.712  -0.283  0.3858  0.3988 -0.7266
  373MOL0     C51376   3.594   0.580  -0.227  0.1897 -0.5354 -0.0977
  373MOL0     C51377   3.702   0.477  -0.186 -0.5684  0.3396 -0.6015
  373MOL0     C51378   3.615   0.355  -0.140 -0.3940 -0.6139  1.0160
  373MOL0     C51379   3.696   0.261  -0.051  0.1120  1.0979 -0.6844
  373MOL0     C51380   3.615   0.146   0.010 -0.0619  0.4927  1.2457
  373MOL0    Cl51381   3.715   0.073   0.135  0.3423  0.3036 -0.0280
  373MOL0     C51382   3.561   1.140  -0.182 -0.0095  0.7333 -0.4532
  373MOL0     C51383   3.551   1.279  -0.146  0.0864 -0.2398  0.4968
  373MOL0     O51384   3.652   1.446   0.159  0.3524  0.2925 -0.2338
  373MOL0     C51385   3.495   1.567   0.362 -0.3218 -0.7758 -0.0942
  373MOL0     C51386   3.440   1.658   0.453 -0.1297 -0.0581  0.3255
  373MOL0     N51387   3.663   2.412   0.291  0.1754 -0.3050 -0.4733
  373MOL0     N51388   3.654   2.543   0.273 -0.1622 -0.3244  0.1090
  373MOL0     C51389   2.536   3.427   0.276 -0.6564  0.1279  0.1622
  373MOL0     C51390   2.394   3.433   0.272 -0.5349 -0.6651 -0.0269
  373MOL0     C51391   1.987   3.545   0.439 -0.1466  0.5877  0.6123
  373MOL0     C51392   1.905   3.428   0.432  0.8961  0.3479  0.9328
  373MOL0     C51393   1.763   3.447   0.435  0.8255 -0.4505  0.0456
  373MOL0     C51394   1.703   3.572   0.452  0.6721  0.2359 -0.2812
  373MOL0     O51395   1.563   3.581   0.480 -0.2809  0.2313 -0.7992
  373MOL0     C51396   1.482   3.472   0.496  1.0581  1.0505 -0.1307
  373MOL0     C51397   1.339   3.522   0.471  0.3069 -0.2340 -0.1682
  373MOL0     C51398   1.282   3.509   0.336 -0.2387 -0.1460  0.7318
  373MOL0     C51399   1.349   3.613   0.253  0.5374 -0.1027 -0.5157
  373MOL0     C51400   1.289   3.619   0.121 -0.4240 -0.1126 -0.1704
  373MOL0     C51401   1.231   3.636   0.019 -0.3364 -0.4665  0.7039
  373MOL0     C51402   1.782   3.680   0.467 -0.5695 -0.3056 -0.2637
  373MOL0     C51403   1.920   3.671   0.457 -0.4922  0.2190 -0.3112
  373MOL0     C51404   1.993   3.795   0.460  0.7689  0.6971  0.0665
  373MOL0     H51405   2.309   3.302   0.561 -3.9641 -0.3271 -1.3282
  373MOL0     H51406   2.554   3.245   0.564 -3.2113 -0.4518  1.0264
  373MOL0     H51407   2.718   3.114   0.354 -1.9810  0.9740  0.1272
  373MOL0     H51408   2.785   3.196   0.504  0.7427  4.2018 -0.2499
  373MOL0     H51409   2.930   3.183   0.239  0.3909 -6.1279 -0.6072
  373MOL0     H51410   2.999   3.252   0.393  2.9476 -0.1344 -3.7522
  373MOL0     H51411   3.011   3.028   0.490  2.2790 -2.8986 -1.0947
  373MOL0     H51412   2.942   2.962   0.338 -3.6282  0.5248  1.9008
  373MOL0     H51413   3.160   3.081   0.228  2.3379 -0.0566 -1.2366
  373MOL0     H51414   3.199   3.121   0.386 -2.9487 -0.8236  2.9810
  373MOL0     H51415   3.170   2.825   0.285  2.3043 -0.4898 -1.1522
  373MOL0     H51416   3.190   2.873   0.456  0.9112 -2.5682 -0.5891
  373MOL0     H51417   3.390   2.967   0.249  1.0448  0.4084  0.6899
  373MOL0     H51418   3.404   2.948   0.429  2.5542  0.9556 -2.2644
  373MOL0     H51419   3.371   2.736   0.229 -5.4633  1.3088  1.0296
  373MOL0     H51420   3.331   2.710   0.391 -1.2560 -1.8290 -1.9656
  373MOL0     H51421   3.615   2.784   0.312 -1.5089  0.5642 -1.1494
  373MOL0     H51422   3.553   2.779   0.479  3.7262 -1.4369 -0.3199
  373MOL0     H51423   3.432   2.497   0.499  0.3875 -0.6143  2.1891
  373MOL0     H51424   3.571   2.239   0.538  0.3579 -2.1874 -0.0181
  373MOL0     H51425   3.639   2.162   0.384  0.7500  1.4582 -0.8090
  373MOL0     H51426   3.340   2.234   0.422 -0.8879 -1.0956  3.8692
  373MOL0     H51427   3.424   2.155   0.291  4.0155 -2.6377  0.2134
  373MOL0     H51428   3.506   1.965   0.438 -1.3962 -2.4195 -0.0327
  373MOL0     H51429   3.458   2.055   0.572  0.0504 -2.7192  0.4207
  373MOL0     H51430   3.235   2.049   0.518  2.4897  2.6184  0.4487
  373MOL0     H51431   3.264   1.995   0.346  3.7955 -0.6594 -0.3192
  373MOL0     H51432   3.205   1.808   0.240 -1.2828 -2.4169 -2.1439
  373MOL0     H51433   3.201   1.718   0.037  0.5121  1.6796  4.6033
  373MOL0     H51434   3.216   1.546   0.053 -1.7979  1.0964 -4.3895
  373MOL0     H51435   3.338   1.627  -0.034 -1.1709  2.8967 -0.8047
  373MOL0     H51436   3.366   1.240   0.143  0.5117 -4.4350  1.3378
  373MOL0     H51437   3.403   1.014   0.092 -0.7121 -0.3572 -0.2461
  373MOL0     H51438   3.673   0.911   0.023 -2.6471  1.3003 -0.6045
  373MOL0     H51439   3.586   0.758  -0.012 -0.3847 -0.2036  0.9666
  373MOL0     H51440   3.750   0.890  -0.221  0.9650  0.1436 -1.8422
  373MOL0     H51441   3.812   0.751  -0.131  0.6492  0.9185 -0.6784
  373MOL0     H51442   3.708   0.705  -0.375 -0.6159  4.7274 -1.8952
  373MOL0     H51443   3.566   0.768  -0.324 -1.1526 -0.2946  1.2909
  373MOL0     H51444   3.543   0.538  -0.314  1.2322  2.2293 -2.1747
  373MOL0     H51445   3.519   0.608  -0.153 -0.4682  2.2717 -1.6888
  373MOL0     H51446   3.766   0.436  -0.265 -2.1815 -2.2773 -0.7061
  373MOL0     H51447   3.770   0.516  -0.111  1.2501 -0.9986 -1.4757
  373MOL0     H51448   3.572   0.311  -0.230 -3.1440 -1.0145  2.4076
  373MOL0     H51449   3.537   0.397  -0.075 -1.6019 -2.9152  1.1600
  373MOL0     H51450   3.751   0.321   0.022  1.6803 -1.4676  0.3595
  373MOL0     H51451   3.776   0.220  -0.114 -1.0694 -3.0975  0.2067
  373MOL0     H51452   3.590   0.077  -0.071 -1.8516  1.6114  0.7757
  373MOL0     H51453   3.520   0.181   0.052 -0.2986 -0.1129  1.2341
  373MOL0     H51454   3.607   1.108  -0.275 -1.1229 -0.8305 -0.5049
  373MOL0     H51455   3.573   1.359  -0.216 -0.6309 -3.2203 -3.5052
  373MOL0     H51456   3.565   1.489   0.390 -0.7267 -1.2753 -0.4681
  373MOL0     H51457   3.469   1.665   0.557 -1.7433  2.0006  0.6887
  373MOL0     H51458   2.602   3.480   0.208  1.7901 -0.9597  1.5486
  373MOL0     H51459   2.353   3.497   0.195 -0.0191  0.6704  0.7730
  373MOL0     H51460   1.940   3.326   0.425 -0.2629 -0.2515  3.1344
  373MOL0     H51461   1.692   3.366   0.423  0.6603  0.1333 -4.8971
  373MOL0     H51462   1.502   3.396   0.420 -0.3336 -0.1425  0.6429
  373MOL0     H51463   1.465   3.441   0.600 -0.6066  2.8391  0.1922
  373MOL0     H51464   1.319   3.626   0.498  0.3164 -0.0536 -0.8616
  373MOL0     H51465   1.276   3.463   0.539  0.0016 -0.6981 -0.8502
  373MOL0     H51466   1.303   3.409   0.297  0.4914 -0.0214  0.7994
  373MOL0     H51467   1.176   3.536   0.337 -0.9501 -2.6722 -0.2077
  373MOL0     H51468   1.452   3.587   0.228  0.9619  0.3334  0.6952
  373MOL0     H51469   1.344   3.712   0.301  1.6455 -0.8271  1.1656
  373MOL0     H51470   1.198   3.637  -0.083  2.0025  0.6168 -0.1318
  373MOL0     H51471   1.718   3.766   0.486 -0.9139 -0.9353  1.6818
  373MOL0     H51472   1.932   3.887   0.460 -2.1739 -1.1170  0.1145
  373MOL0     H51473   2.064   3.800   0.543  4.1371 -0.5655 -2.5285
  373MOL0     H51474   2.047   3.801   0.365  3.3292 -0.1264  1.3769
  374MOL0     O51475   3.553   9.049   3.287 -1.4769  0.7958 -1.2410
  374MOL0     C51476   3.463   9.018   3.368 -0.1332  0.0831 -0.2610
  374MOL0     O51477   3.404   8.895   3.365 -0.1904 -0.4663 -0.1230
  374MOL0     C51478   3.480   8.795   3.307  0.0276 -0.7422 -0.0896
  374MOL0     C51479   3.470   8.763   3.165 -0.1371 -0.1588 -0.7771
  374MOL0     C51480   3.553   8.657   3.117  0.3869  0.4377 -0.1499
  374MOL0     C51481   3.648   8.585   3.202 -0.1775  0.1239  0.2937
  374MOL0     O51482   3.739   8.494   3.154 -0.3164  1.0865  0.5179
  374MOL0     C51483   3.736   8.455   3.010  0.2516 -0.1982  0.1885
  374MOL0     C51484   3.870   8.391   2.984  0.8969 -0.1616  0.5463
  374MOL0     C51485   3.984   8.490   2.983 -0.8544 -0.0185  0.5470
  374MOL0     C51486   4.126   8.431   2.940 -0.5818 -0.4568  0.2646
  374MOL0     C51487   4.218   8.546   2.937  0.7481 -0.5970 -0.7042
  374MOL0     C51488   4.362   8.501   2.936 -0.2645  0.2944  0.8301
  374MOL0     C51489   4.462   8.621   2.923 -0.2538 -0.2902 -0.5794
  374MOL0     C51490   4.493   8.689   3.057  0.1409  0.0758  0.8691
  374MOL0     N51491   4.591   8.791   3.046 -0.8788  0.0599 -0.4407
  374MOL0     C51492   4.563   8.928   3.016 -0.2291 -0.5174 -0.4807
  374MOL0     C51493   4.693   8.975   3.011  0.0637  0.0457  0.1283
  374MOL0     C51494   4.710   9.111   2.960  0.8131 -0.4774 -0.0151
  374MOL0     C51495   4.617   9.214   3.011 -0.1714  0.6044  0.4087
  374MOL0     C51496   4.637   9.239   3.160  0.1529 -0.9270  0.2651
  374MOL0     C51497   4.529   9.331   3.220 -0.2512  0.1753 -0.5054
  374MOL0     O51498   4.467   9.409   3.125  0.0121  0.7658 -0.4598
  374MOL0     C51499   4.333   9.438   3.133 -0.3714 -0.0788 -0.5655
  374MOL0     C51500   4.264   9.459   3.253  0.8178  0.4852  0.1252
  374MOL0     C51501   4.125   9.469   3.257  0.3503 -0.6317 -0.2071
  374MOL0     C51502   4.065   9.489   3.398  0.2133 -0.3592  0.6510
  374MOL0     C51503   4.047   9.469   3.143 -0.5833 -0.1582 -0.5499
  374MOL0     C51504   3.895   9.500   3.135  0.4125 -0.1869  1.3011
  374MOL0     O51505   3.827   9.541   3.238 -1.0945  0.2990 -0.3629
  374MOL0     C51506   3.691   9.555   3.242 -1.0750 -1.0272 -0.2839
  374MOL0     C51507   3.655   9.633   3.343 -0.6570 -0.2079  0.3588
  374MOL0     C51508   3.522   9.683   3.352  0.6183  0.1209  0.2343
  374MOL0     C51509   3.422   9.615   3.277  0.3051  0.4255  0.7101
  374MOL0     O51510   3.287   9.648   3.288 -0.6725  0.2690  0.9402
  374MOL0     C51511   3.251   9.784   3.319  0.3489 -1.4583  0.5290
  374MOL0     C51512   3.181   9.784   3.447 -0.8030  0.8323  0.1594
  374MOL0     C51513   3.058   9.701   3.462  0.3452  0.0885  1.3052
  374MOL0     C51514   2.929   9.783   3.495  0.3145 -0.4098  0.6264
  374MOL0     C51515   2.811   9.691   3.521 -0.6019 -0.0716  0.0147
  374MOL0     C51516   2.675   9.762   3.533 -0.1263  0.1419 -0.6710
  374MOL0     C51517   2.556   9.667   3.543 -0.3954  0.0059  0.5505
  374MOL0     C51518   2.426   9.715   3.609 -0.1642  1.4011  0.0517
  374MOL0    Cl51519   2.426   9.727   3.792  0.7818 -0.0400 -0.1751
  374MOL0     C51520   3.461   9.513   3.197 -0.2972  0.5095  0.8530
  374MOL0     C51521   3.592   9.487   3.172 -0.1912 -0.1684 -0.1999
  374MOL0     O51522   3.851   9.497   3.018  0.3397 -0.4143  0.1049
  374MOL0     C51523   4.122   9.459   3.030  1.0817  0.3152 -0.0842
  374MOL0     C51524   4.255   9.434   3.025 -0.0412  0.2825 -0.5827
  374MOL0     N51525   4.783   8.887   3.055  0.6433 -0.0887  0.0030
  374MOL0     N51526   4.725   8.773   3.080 -0.1298 -0.7132 -0.3990
  374MOL0     C51527   3.647   8.611   3.337 -0.1746  0.2513  0.2663
  374MOL0     C51528   3.567   8.723   3.392 -0.3890  0.5423  0.4178
  374MOL0     C51529   3.402   9.127   3.453 -0.8744  0.6224 -0.6814
  374MOL0     C51530   3.447   9.264   3.446 -1.0989  0.1722 -0.3563
  374MOL0     C51531   3.377   9.367   3.517 -1.0768  0.1432  0.0401
  374MOL0     C51532   3.270   9.346   3.600 -0.1481 -0.9404 -0.0820
  374MOL0     O51533   3.216   9.454   3.670 -0.3429 -0.2673 -0.0997
  374MOL0     C51534   3.195   9.441   3.810  0.0319  0.2789 -0.3969
  374MOL0     C51535   3.329   9.478   3.878 -0.7466 -0.3238 -0.2905
  374MOL0     C51536   3.353   9.621   3.915 -0.0337  0.2769 -0.0526
  374MOL0     C51537   3.480   9.638   4.000 -0.1377 -0.4595  0.5875
  374MOL0     C51538   3.464   9.589   4.144 -0.0397 -0.4310  0.8813
  374MOL0     C51539   3.443   9.534   4.245 -0.3532 -0.6897 -0.6113
  374MOL0     C51540   3.231   9.216   3.622  0.1363 -0.4333  0.2587
  374MOL0     C51541   3.293   9.105   3.551 -0.5402 -0.1135 -0.6935
  374MOL0     C51542   3.237   8.973   3.572  0.3380  1.0253  0.3958
  374MOL0     H51543   3.409   8.816   3.093 -0.3047 -0.5268 -0.9088
  374MOL0     H51544   3.537   8.642   3.011  3.5475  1.7470 -0.9375
  374MOL0     H51545   3.730   8.544   2.947  1.9539  1.4434  2.1960
  374MOL0     H51546   3.659   8.379   2.991 -0.3353 -0.3467  2.7678
  374MOL0     H51547   3.891   8.313   3.057  0.6964  0.0859  0.8727
  374MOL0     H51548   3.857   8.340   2.888 -3.4118  3.0825 -0.9503
  374MOL0     H51549   3.964   8.572   2.913  2.4664  0.1494 -0.3951
  374MOL0     H51550   3.992   8.520   3.088 -1.3335 -1.5334  1.0362
  374MOL0     H51551   4.159   8.351   3.007  2.1320 -0.5365 -1.0557
  374MOL0     H51552   4.129   8.375   2.846  4.1682 -0.8081  0.3693
  374MOL0     H51553   4.216   8.612   3.024  4.7278 -0.6571 -0.4193
  374MOL0     H51554   4.186   8.596   2.844 -4.2030 -2.0188 -0.0794
  374MOL0     H51555   4.395   8.437   3.019  0.8913 -6.4146 -3.9792
  374MOL0     H51556   4.391   8.442   2.849  1.0453  3.1485 -0.8188
  374MOL0     H51557   4.418   8.701   2.862 -0.0409  1.3233  1.2823
  374MOL0     H51558   4.560   8.587   2.890  0.7227  1.4366  0.3882
  374MOL0     H51559   4.402   8.741   3.089 -1.1839 -1.0683 -0.8657
  374MOL0     H51560   4.540   8.619   3.127 -0.0697  0.5983  1.5412
  374MOL0     H51561   4.466   8.973   2.996 -1.3399 -2.0460  1.1694
  374MOL0     H51562   4.681   9.110   2.854 -1.9552 -0.9791  0.6973
  374MOL0     H51563   4.815   9.144   2.969  0.7301  1.4157 -3.8442
  374MOL0     H51564   4.626   9.309   2.959 -0.6396  0.2139 -0.4097
  374MOL0     H51565   4.515   9.175   3.011  0.4487 -1.1238  0.5873
  374MOL0     H51566   4.641   9.151   3.224 -2.1575  0.8437  3.1297
  374MOL0     H51567   4.730   9.297   3.167 -0.5981  0.2020  1.6570
  374MOL0     H51568   4.451   9.263   3.257  0.5382 -0.0633  0.7656
  374MOL0     H51569   4.569   9.405   3.290  2.4381 -0.4597 -1.2722
  374MOL0     H51570   4.323   9.465   3.344 -0.7636 -1.7201  1.4104
  374MOL0     H51571   4.133   9.448   3.473  1.2472 -1.3628 -0.7807
  374MOL0     H51572   3.966   9.443   3.408 -0.2744  0.8421  1.5669
  374MOL0     H51573   4.064   9.598   3.401  2.5884 -0.2349 -0.7560
  374MOL0     H51574   3.726   9.684   3.408 -1.2357  0.2993  0.6061
  374MOL0     H51575   3.495   9.769   3.414 -0.6463  0.6064 -0.9462
  374MOL0     H51576   3.332   9.858   3.325 -0.8168 -0.2198  1.9938
  374MOL0     H51577   3.182   9.812   3.238  0.6043  0.5898  0.9518
  374MOL0     H51578   3.262   9.754   3.514  0.2452 -2.5579 -2.3499
  374MOL0     H51579   3.166   9.890   3.470  0.1536  1.0728 -0.2760
  374MOL0     H51580   3.073   9.635   3.548 -0.2259  0.9459  2.0769
  374MOL0     H51581   3.042   9.659   3.362 -0.4182  5.3808 -1.1148
  374MOL0     H51582   2.896   9.831   3.402  0.9459 -1.6922 -0.2983
  374MOL0     H51583   2.941   9.867   3.564 -2.3176  2.1797 -1.7527
  374MOL0     H51584   2.803   9.623   3.436 -1.5740  0.8696 -0.6861
  374MOL0     H51585   2.844   9.623   3.599  2.7804  1.0256 -0.2959
  374MOL0     H51586   2.656   9.822   3.443  2.4204 -2.1725 -2.9658
  374MOL0     H51587   2.671   9.831   3.617 -1.4832 -2.4645  1.5311
  374MOL0     H51588   2.578   9.564   3.574 -0.6211 -0.4690 -0.7931
  374MOL0     H51589   2.543   9.653   3.435  4.3847  2.1968 -0.5985
  374MOL0     H51590   2.343   9.649   3.584  0.5945 -0.4731  2.1407
  374MOL0     H51591   2.414   9.810   3.556  1.9182  2.8238  1.9302
  374MOL0     H51592   3.387   9.453   3.143 -0.3056  1.3299 -0.0812
  374MOL0     H51593   3.620   9.417   3.094  1.1952  0.1298  0.0119
  374MOL0     H51594   4.078   9.465   2.931 -2.1108  1.5417  1.2932
  374MOL0     H51595   4.302   9.410   2.930 -0.7007  0.3058 -0.9171
  374MOL0     H51596   3.718   8.557   3.399  1.1665  3.1380  1.4805
  374MOL0     H51597   3.545   8.731   3.498  1.8055  0.6836  0.9273
  374MOL0     H51598   3.528   9.293   3.380 -2.0356  0.6686 -1.3256
  374MOL0     H51599   3.403   9.466   3.482  2.0904 -0.3818  0.6174
  374MOL0     H51600   3.121   9.506   3.856 -2.5687 -0.8977 -2.6096
  374MOL0     H51601   3.162   9.338   3.825 -2.6053  1.0935 -0.1856
  374MOL0     H51602   3.407   9.438   3.813 -1.9331 -1.3647 -1.1121
  374MOL0     H51603   3.334   9.428   3.976 -1.6365  0.3275  0.0968
  374MOL0     H51604   3.368   9.690   3.831 -0.2812 -1.4373 -1.5740
  374MOL0     H51605   3.264   9.665   3.961 -0.6203 -0.5923 -0.3372
  374MOL0     H51606   3.503   9.745   4.002 -0.0894 -0.4770  1.1288
  374MOL0     H51607   3.566   9.590   3.951 -0.1851  0.2582 -0.2227
  374MOL0     H51608   3.425   9.474   4.333  1.6307 -3.1147 -1.7282
  374MOL0     H51609   3.145   9.184   3.680  0.9282 -1.1017  1.1044
  374MOL0     H51610   3.165   8.964   3.655  1.1295  0.6507  1.0582
  374MOL0     H51611   3.175   8.945   3.486  4.7381  1.3568 -3.2207
  374MOL0     H51612   3.312   8.895   3.578  0.0495  0.4787 -2.1758
  375MOL0     O51613   0.724   7.742   5.504 -0.2897  0.1877 -0.8858
  375MOL0     C51614   0.730   7.749   5.629  0.7261  0.7819  0.3048
  375MOL0     O51615   0.656   7.679   5.709  0.3021 -0.1912  0.2308
  375MOL0     C51616   0.547   7.594   5.669 -0.5114  0.1435  0.0304
  375MOL0     C51617   0.497   7.531   5.777  1.0325  0.0719 -0.9495
  375MOL0     C51618   0.401   7.424   5.772  0.0743  0.0795  0.1571
  375MOL0     C51619   0.343   7.402   5.648  0.3231  0.7113 -0.0652
  375MOL0     O51620   0.256   7.298   5.635  0.3296 -0.6837  0.8355
  375MOL0     C51621   0.310   7.167   5.593 -0.3762 -1.0270 -0.1322
  375MOL0     C51622   0.275   7.155   5.443 -0.4015 -0.0971 -0.3607
  375MOL0     C51623   0.128   7.175   5.396 -0.0282  0.2679  0.1786
  375MOL0     C51624   0.117   7.178   5.245  0.3925 -0.3818  0.1721
  375MOL0     C51625  -0.013   7.226   5.189 -0.6023 -0.6765 -0.5501
  375MOL0     C51626  -0.132   7.132   5.224  0.8076 -0.3717 -0.1051
  375MOL0     C51627  -0.127   6.991   5.165  0.7641  0.9746 -0.7094
  375MOL0     C51628  -0.219   6.889   5.235 -0.9038 -0.5407  0.7917
  375MOL0     N51629  -0.176   6.861   5.375  0.4282  0.1897 -0.2913
  375MOL0     C51630  -0.053   6.821   5.418  0.1625 -1.4089  0.5262
  375MOL0     C51631  -0.051   6.841   5.549 -1.0527  0.3594  0.0459
  375MOL0     C51632   0.070   6.813   5.637  0.6387  0.0111 -0.7764
  375MOL0     C51633   0.023   6.738   5.768  0.2072 -0.0313  0.4517
  375MOL0     C51634  -0.022   6.600   5.743  0.6678  0.9831 -0.1724
  375MOL0     C51635  -0.108   6.544   5.861  0.1084 -0.7975  0.5210
  375MOL0     O51636  -0.048   6.512   5.984  0.0762 -0.3627 -0.6855
  375MOL0     C51637  -0.097   6.412   6.063 -0.8096  0.0475 -0.3110
  375MOL0     C51638  -0.225   6.348   6.057 -0.2595 -0.6674 -0.7375
  375MOL0     C51639  -0.256   6.244   6.144 -0.1468 -0.1695 -0.5680
  375MOL0     C51640  -0.393   6.186   6.143  0.6271  0.5164  0.3977
  375MOL0     C51641  -0.152   6.191   6.232  0.0274  0.3514  1.6425
  375MOL0     C51642  -0.156   6.076   6.325  0.2134 -0.7116  0.3066
  375MOL0     O51643  -0.046   6.050   6.400  0.1198  0.0239  0.0233
  375MOL0     C51644  -0.038   5.933   6.467  0.6533  0.2603 -0.2527
  375MOL0     C51645  -0.056   5.927   6.606  0.2855 -0.1781  0.6506
  375MOL0     C51646  -0.057   5.797   6.665  0.0060 -1.0284 -0.6886
  375MOL0     C51647  -0.057   5.678   6.594  0.4672  0.1099 -0.4336
  375MOL0     O51648  -0.064   5.557   6.652 -0.3420  0.5467 -0.9517
  375MOL0     C51649  -0.058   5.552   6.798  0.8441 -0.9071 -1.2902
  375MOL0     C51650  -0.084   5.408   6.849 -0.7291 -0.4410 -0.1016
  375MOL0     C51651  -0.223   5.358   6.813  0.2337 -0.7391 -0.0589
  375MOL0     C51652  -0.277   5.239   6.902  0.2709  0.2486  0.2995
  375MOL0     C51653  -0.411   5.159   6.851 -0.2957  0.5578  0.4370
  375MOL0     C51654  -0.414   5.017   6.908 -0.1650 -0.2959 -0.2412
  375MOL0     C51655  -0.543   4.945   6.856  0.4646 -0.0181 -0.5499
  375MOL0     C51656  -0.536   4.799   6.904  0.5918  1.2574 -1.1026
  375MOL0    Cl51657  -0.577   4.681   6.762  0.2095 -0.1883  0.1394
  375MOL0     C51658  -0.052   5.692   6.455  0.9824 -0.4646  1.0465
  375MOL0     C51659  -0.055   5.814   6.388 -0.8183 -0.0895 -0.4238
  375MOL0     O51660  -0.260   6.016   6.339 -0.6924 -0.0106 -0.5743
  375MOL0     C51661  -0.034   6.260   6.235  0.6341  1.1788  0.4562
  375MOL0     C51662  -0.005   6.377   6.162 -0.7132 -0.1957  0.7020
  375MOL0     N51663  -0.166   6.879   5.595 -0.1539 -0.6955  0.7816
  375MOL0     N51664  -0.245   6.892   5.492 -0.2536  0.7076  0.1016
  375MOL0     C51665   0.379   7.484   5.537  0.5340  0.2978  0.3760
  375MOL0     C51666   0.489   7.569   5.543  0.4188 -0.2497 -0.2983
  375MOL0     C51667   0.819   7.849   5.693  0.0812 -0.2003  0.2191
  375MOL0     C51668   0.834   7.840   5.835 -1.1702  0.2896 -0.2965
  375MOL0     C51669   0.924   7.921   5.911  0.0118  0.9043  0.0800
  375MOL0     C51670   0.999   8.020   5.852 -0.3289  0.4472 -0.0487
  375MOL0     O51671   1.066   8.110   5.934  0.3546  0.2605 -0.2636
  375MOL0     C51672   1.131   8.219   5.879  0.6256  0.5652  0.0620
  375MOL0     C51673   1.182   8.307   5.986 -1.2622 -0.4520  0.2417
  375MOL0     C51674   1.331   8.284   6.015 -0.4961 -1.0543 -0.3322
  375MOL0     C51675   1.388   8.406   6.097 -0.4958 -1.0400 -0.3798
  375MOL0     C51676   1.449   8.510   6.008 -1.3251 -0.3657 -0.2451
  375MOL0     C51677   1.501   8.593   5.936  0.4815  0.4853 -0.2763
  375MOL0     C51678   0.984   8.041   5.712  0.4320  0.4671  0.1113
  375MOL0     C51679   0.904   7.954   5.635 -0.1123 -0.4971 -0.7593
  375MOL0     C51680   0.908   7.989   5.485 -0.0809  0.0593  0.1683
  375MOL0     H51681   0.551   7.529   5.871  0.0553 -2.4563 -0.3584
  375MOL0     H51682   0.382   7.357   5.856 -1.0108  0.0728 -0.0794
  375MOL0     H51683   0.261   7.082   5.642  0.7113 -0.7894  1.3975
  375MOL0     H51684   0.418   7.158   5.599  0.0340  0.8970 -2.8211
  375MOL0     H51685   0.333   7.228   5.386  3.7732 -3.4721 -0.9115
  375MOL0     H51686   0.303   7.057   5.404 -0.1018 -0.3017  0.3423
  375MOL0     H51687   0.066   7.090   5.426  2.4770 -1.0402  2.0832
  375MOL0     H51688   0.084   7.266   5.439  1.1515  0.3038  1.3689
  375MOL0     H51689   0.185   7.259   5.216 -1.1293  0.4260 -1.3182
  375MOL0     H51690   0.142   7.080   5.203  4.0598  0.7895 -0.8404
  375MOL0     H51691  -0.002   7.240   5.081  0.4259  1.8908 -0.1955
  375MOL0     H51692  -0.036   7.328   5.223 -1.0158 -1.0362  0.2629
  375MOL0     H51693  -0.132   7.136   5.333  3.0817  4.1165 -0.0310
  375MOL0     H51694  -0.223   7.175   5.182 -1.0688 -2.9092  1.0859
  375MOL0     H51695  -0.027   6.946   5.168  0.1265 -0.6605 -2.4042
  375MOL0     H51696  -0.157   7.005   5.061  2.9999 -1.1331 -1.7522
  375MOL0     H51697  -0.317   6.938   5.235 -1.3569 -1.4141  1.7709
  375MOL0     H51698  -0.216   6.802   5.169 -1.1816  0.5944 -0.7708
  375MOL0     H51699   0.024   6.795   5.346  0.4301 -0.4153  0.4408
  375MOL0     H51700   0.105   6.910   5.673 -2.6130  0.0306  3.0418
  375MOL0     H51701   0.150   6.768   5.578  0.9261  1.8871 -1.9196
  375MOL0     H51702   0.111   6.732   5.833 -0.7210 -1.3459  1.6463
  375MOL0     H51703  -0.047   6.803   5.822 -1.9232 -0.4126 -1.6922
  375MOL0     H51704  -0.086   6.591   5.654  0.2758  1.4866  0.0540
  375MOL0     H51705   0.064   6.534   5.731  0.9428  1.5271 -1.3254
  375MOL0     H51706  -0.178   6.627   5.874  1.6383  1.7316 -4.6786
  375MOL0     H51707  -0.158   6.456   5.819  1.4872 -0.8987 -1.0354
  375MOL0     H51708  -0.293   6.375   5.978  0.2464  5.1944  0.4180
  375MOL0     H51709  -0.465   6.268   6.154  0.8603  0.8360 -0.3938
  375MOL0     H51710  -0.426   6.119   6.223 -1.0065 -2.6892 -2.6793
  375MOL0     H51711  -0.412   6.120   6.058  0.6602 -1.5974  1.9393
  375MOL0     H51712  -0.071   6.017   6.666  1.1679  0.7021 -0.4010
  375MOL0     H51713  -0.084   5.805   6.770 -1.5619  3.1004 -1.2359
  375MOL0     H51714   0.041   5.583   6.832 -0.7548  2.7716  0.5429
  375MOL0     H51715  -0.118   5.631   6.843  2.2344 -1.4971  1.8208
  375MOL0     H51716  -0.002   5.349   6.806 -3.1036 -1.6022 -3.4135
  375MOL0     H51717  -0.072   5.399   6.958  0.0828  0.0978 -0.1353
  375MOL0     H51718  -0.208   5.316   6.712 -1.6211  0.4384 -0.8672
  375MOL0     H51719  -0.296   5.438   6.800 -1.4287 -2.2487 -0.3598
  375MOL0     H51720  -0.302   5.282   7.000 -1.7764 -3.2881  1.5439
  375MOL0     H51721  -0.197   5.166   6.916  0.7198  1.3088  4.7522
  375MOL0     H51722  -0.507   5.201   6.881 -1.9586 -4.4857  3.4650
  375MOL0     H51723  -0.397   5.147   6.744  1.4562 -0.6053  0.7444
  375MOL0     H51724  -0.417   5.004   7.016 -3.4091 -3.7956 -0.5135
  375MOL0     H51725  -0.325   4.964   6.871  0.1735  1.0652 -1.4864
  375MOL0     H51726  -0.557   4.955   6.748  1.1587 -1.1378 -0.7604
  375MOL0     H51727  -0.631   4.981   6.911 -0.0894  0.8130 -1.9383
  375MOL0     H51728  -0.602   4.784   6.990  0.2514  3.7074 -0.8607
  375MOL0     H51729  -0.435   4.772   6.936 -0.0816  0.4755  0.4820
  375MOL0     H51730  -0.059   5.610   6.384 -0.5816  1.4309 -1.1305
  375MOL0     H51731  -0.066   5.816   6.280 -2.2593  0.3664 -0.2999
  375MOL0     H51732   0.051   6.226   6.294 -0.9421 -1.1695  1.5516
  375MOL0     H51733   0.081   6.443   6.168 -1.3458  0.8888 -1.3044
  375MOL0     H51734   0.336   7.457   5.440  0.6068 -1.6709  0.8561
  375MOL0     H51735   0.525   7.621   5.455 -0.1704 -4.4177 -3.2968
  375MOL0     H51736   0.790   7.759   5.893  0.0825 -1.0163 -1.1016
  375MOL0     H51737   0.941   7.921   6.018 -0.8189  1.2096  0.2209
  375MOL0     H51738   1.206   8.185   5.807 -0.1841  1.7696 -1.4268
  375MOL0     H51739   1.046   8.274   5.836  0.5173 -0.7706 -1.5275
  375MOL0     H51740   1.127   8.294   6.080 -2.0247 -1.1349 -0.2945
  375MOL0     H51741   1.166   8.411   5.957  1.2457 -0.7363 -2.6902
  375MOL0     H51742   1.335   8.196   6.078 -2.9196 -1.8274 -1.1410
  375MOL0     H51743   1.383   8.272   5.919 -0.4622 -3.0754 -0.0991
  375MOL0     H51744   1.453   8.353   6.167  0.4971 -1.5459 -1.6390
  375MOL0     H51745   1.302   8.445   6.151 -0.4968 -1.5584  0.0032
  375MOL0     H51746   1.564   8.660   5.882  0.8774  3.1893  3.1741
  375MOL0     H51747   1.038   8.120   5.661 -0.1501  1.5286  1.1054
  375MOL0     H51748   0.983   7.935   5.427 -1.8669 -3.0102  0.4732
  375MOL0     H51749   0.815   7.970   5.429  0.8067 -0.7322 -1.0855
  375MOL0     H51750   0.925   8.096   5.473 -2.7735  0.3001 -3.0320
  376MOL0     O51751   6.696   5.599   7.700  1.1402  0.4180  0.2460
  376MOL0     C51752   6.738   5.610   7.815  0.8375 -0.4102 -0.4823
  376MOL0     O51753   6.677   5.556   7.923  0.4727  0.7569 -0.0446
  376MOL0     C51754   6.563   5.473   7.914 -0.9524  0.9474  0.8845
  376MOL0     C51755   6.535   5.402   8.030  0.0663 -1.2908 -0.5961
  376MOL0     C51756   6.427   5.321   8.041  1.0761  0.3667  0.5193
  376MOL0     C51757   6.342   5.307   7.937  0.5377 -0.8125  0.4236
  376MOL0     O51758   6.227   5.233   7.965 -0.4760 -0.5407 -0.4516
  376MOL0     C51759   6.104   5.255   7.893 -1.0876  0.3104  0.9687
  376MOL0     C51760   5.982   5.189   7.975 -0.9810 -0.4443 -1.0703
  376MOL0     C51761   5.940   5.266   8.098  0.6796  1.0726  0.7099
  376MOL0     C51762   5.899   5.409   8.076  0.1222  0.4514 -0.2625
  376MOL0     C51763   5.774   5.419   7.978  0.2630 -0.4888 -0.4639
  376MOL0     C51764   5.730   5.570   7.962 -0.0284 -1.0816 -0.0946
  376MOL0     C51765   5.671   5.648   8.072 -0.5845  0.1902  0.3974
  376MOL0     C51766   5.519   5.653   8.060  0.7246  0.0669 -0.2081
  376MOL0     N51767   5.459   5.761   8.144 -0.4303 -0.1477  0.0437
  376MOL0     C51768   5.463   5.767   8.283 -0.1508  0.1763 -0.1117
  376MOL0     C51769   5.393   5.873   8.326 -0.1092 -0.2390  0.3049
  376MOL0     C51770   5.390   5.948   8.455  0.4170 -0.7645  0.7474
  376MOL0     C51771   5.442   5.882   8.580 -0.0187  0.3750  1.1168
  376MOL0     C51772   5.418   5.972   8.709  0.4894  0.4208 -0.1238
  376MOL0     C51773   5.458   5.913   8.846 -0.6248 -0.0770 -0.4027
  376MOL0     O51774   5.439   6.015   8.951  0.3880  0.5271  0.4226
  376MOL0     C51775   5.514   5.999   9.061 -0.4897  0.9543 -0.0230
  376MOL0     C51776   5.519   6.109   9.145  0.3487  0.3830  0.3383
  376MOL0     C51777   5.582   6.110   9.269 -0.5513 -0.5018  0.6302
  376MOL0     C51778   5.559   6.234   9.364  0.1878 -1.1837 -0.5732
  376MOL0     C51779   5.663   6.004   9.306 -0.6522  0.6730  0.5332
  376MOL0     C51780   5.751   5.997   9.427  0.1727 -0.8026  0.7091
  376MOL0     O51781   5.728   6.081   9.531  0.9637 -0.0431  0.7477
  376MOL0     C51782   5.825   6.154   9.590 -0.1309  0.4999 -0.2707
  376MOL0     C51783   5.961   6.142   9.573 -0.3412 -0.6452  0.5468
  376MOL0     C51784   6.041   6.217   9.658  0.5334  0.1241  0.4955
  376MOL0     C51785   5.986   6.294   9.766  0.1679 -0.2979 -0.0470
  376MOL0     O51786   6.045   6.372   9.857 -0.3427 -0.1769 -0.1890
  376MOL0     C51787   6.191   6.379   9.866  0.4722  0.3779  0.1068
  376MOL0     C51788   6.225   6.508   9.813 -1.3344 -0.4299 -0.3074
  376MOL0     C51789   6.266   6.494   9.666  0.3534  0.4247  0.0164
  376MOL0     C51790   6.411   6.437   9.641  1.1734  0.3183 -0.3253
  376MOL0     C51791   6.509   6.543   9.569 -0.2550 -0.7740 -0.9914
  376MOL0     C51792   6.475   6.591   9.426 -0.0937 -0.0961 -0.6238
  376MOL0     C51793   6.555   6.489   9.329  0.1634 -0.5717 -0.4975
  376MOL0     C51794   6.553   6.550   9.197  0.6595 -0.0288  0.7989
  376MOL0    Cl51795   6.419   6.514   9.094  0.3416 -0.2007  0.0551
  376MOL0     C51796   5.848   6.319   9.757 -0.1231  0.1164 -0.3527
  376MOL0     C51797   5.768   6.241   9.681  0.9702 -0.4066  0.6380
  376MOL0     O51798   5.845   5.926   9.422  0.2323 -1.1349 -0.1382
  376MOL0     C51799   5.656   5.886   9.231  0.4600 -0.6627 -0.2458
  376MOL0     C51800   5.576   5.878   9.114  0.0317  0.3991 -0.2490
  376MOL0     N51801   5.350   5.929   8.202 -0.4105 -0.4949  0.2816
  376MOL0     N51802   5.392   5.864   8.101  0.5449  0.7888  0.4337
  376MOL0     C51803   6.354   5.378   7.818 -0.6481 -0.8436  0.3062
  376MOL0     C51804   6.469   5.463   7.801 -0.9449 -0.3976  0.2491
  376MOL0     C51805   6.865   5.684   7.844  0.2458 -1.0094 -0.2283
  376MOL0     C51806   6.866   5.751   7.973  0.9322 -0.1270 -0.3308
  376MOL0     C51807   6.975   5.826   8.009  0.1758 -0.4940 -0.0483
  376MOL0     C51808   7.072   5.858   7.917 -0.0728  0.3897 -0.1184
  376MOL0     O51809   7.169   5.956   7.958  0.7361 -0.6155  0.5427
  376MOL0     C51810   7.297   5.954   7.888  0.0293 -0.1128 -0.2874
  376MOL0     C51811   7.403   6.003   7.983 -0.4456  0.2744  0.5899
  376MOL0     C51812   7.411   5.907   8.098 -0.0429  0.6648 -0.5844
  376MOL0     C51813   7.532   5.961   8.182  0.8117  0.1611  0.3468
  376MOL0     C51814   7.574   5.862   8.275  0.5694  0.2873 -0.6499
  376MOL0     C51815   7.625   5.777   8.349  0.1910 -0.2941 -0.1126
  376MOL0     C51816   7.075   5.784   7.793 -0.3577 -0.9598  0.0566
  376MOL0     C51817   6.967   5.704   7.755  0.0976 -0.9652 -0.0851
  376MOL0     C51818   6.983   5.636   7.620  0.1624  0.5809 -0.3408
  376MOL0     H51819   6.588   5.398   8.125  1.1439 -1.8411 -1.2074
  376MOL0     H51820   6.396   5.275   8.134  1.2179  1.1165  0.9416
  376MOL0     H51821   6.115   5.209   7.795 -2.2029  3.4717 -0.7957
  376MOL0     H51822   6.104   5.364   7.883  3.3821  0.6007  2.1257
  376MOL0     H51823   5.893   5.164   7.917 -1.5457 -1.4364  0.1681
  376MOL0     H51824   6.006   5.085   8.000 -2.6354 -1.4598 -3.2700
  376MOL0     H51825   5.849   5.223   8.143  0.9604 -1.1350 -0.7084
  376MOL0     H51826   6.026   5.268   8.165  2.0078  0.5349 -0.9398
  376MOL0     H51827   5.875   5.453   8.173  0.8660  1.4197 -0.4950
  376MOL0     H51828   5.984   5.463   8.032 -2.0079  3.2433 -1.2543
  376MOL0     H51829   5.686   5.363   8.012 -1.2424 -0.4648 -3.8908
  376MOL0     H51830   5.794   5.378   7.879  0.9186 -2.8158  0.5631
  376MOL0     H51831   5.826   5.614   7.933  0.7940 -0.9770  2.4729
  376MOL0     H51832   5.666   5.569   7.873 -2.4230 -2.1155  1.5316
  376MOL0     H51833   5.719   5.745   8.052  2.2466 -1.4229 -1.3582
  376MOL0     H51834   5.705   5.620   8.173  0.5039 -0.6925 -0.1907
  376MOL0     H51835   5.480   5.660   7.958 -0.2997  0.5730  0.1999
  376MOL0     H51836   5.489   5.558   8.106 -0.8622  0.4833 -0.3233
  376MOL0     H51837   5.518   5.696   8.344 -3.0085 -2.7496 -0.6691
  376MOL0     H51838   5.284   5.972   8.461  0.8237  1.2373  0.8064
  376MOL0     H51839   5.448   6.040   8.442 -0.7471  0.3468  2.9712
  376MOL0     H51840   5.402   5.781   8.595  1.1662 -0.1168  1.0637
  376MOL0     H51841   5.549   5.860   8.572 -0.1953 -0.1898 -0.0693
  376MOL0     H51842   5.471   6.065   8.685  1.2277  0.1763  0.4971
  376MOL0     H51843   5.310   5.988   8.708  0.6638  1.6761 -0.6933
  376MOL0     H51844   5.404   5.820   8.869 -2.4446  1.3279  1.4294
  376MOL0     H51845   5.565   5.908   8.825  0.2737  0.4870  3.2793
  376MOL0     H51846   5.462   6.192   9.105 -0.2154 -0.1020  0.1145
  376MOL0     H51847   5.537   6.194   9.463 -2.8988 -2.3814 -1.6295
  376MOL0     H51848   5.486   6.311   9.339  1.9034  1.2885  1.4565
  376MOL0     H51849   5.652   6.291   9.365  1.2693 -2.8405 -1.2559
  376MOL0     H51850   6.004   6.086   9.490 -1.7027  2.7182 -2.7107
  376MOL0     H51851   6.147   6.194   9.652  0.1045 -1.9472 -0.0837
  376MOL0     H51852   6.223   6.400   9.969  1.5320  3.8008 -0.7776
  376MOL0     H51853   6.239   6.293   9.819 -0.0884  0.3709 -0.4645
  376MOL0     H51854   6.140   6.576   9.828  0.9460  2.7240 -0.6057
  376MOL0     H51855   6.313   6.551   9.861 -1.0070 -1.2869 -0.1409
  376MOL0     H51856   6.249   6.598   9.636 -1.2161  1.5955  4.2750
  376MOL0     H51857   6.194   6.432   9.613  1.2202 -0.6789  0.0769
  376MOL0     H51858   6.407   6.355   9.569  0.7209  1.8298 -2.1003
  376MOL0     H51859   6.455   6.396   9.732  1.4561 -0.9566 -1.0229
  376MOL0     H51860   6.495   6.638   9.622 -3.2184 -1.1635 -0.9113
  376MOL0     H51861   6.614   6.517   9.585 -0.2344 -0.0280  0.2178
  376MOL0     H51862   6.504   6.694   9.405  0.8271 -0.5221 -1.5120
  376MOL0     H51863   6.368   6.598   9.402 -0.6044  2.6072  1.8663
  376MOL0     H51864   6.516   6.386   9.325 -3.1934  0.4527  1.5633
  376MOL0     H51865   6.656   6.463   9.361  0.0347 -0.3822  0.0878
  376MOL0     H51866   6.639   6.511   9.143 -1.1696 -0.0936 -2.3178
  376MOL0     H51867   6.578   6.656   9.201  4.6553 -0.7978  0.4576
  376MOL0     H51868   5.810   6.388   9.832 -0.0005 -1.1262  0.8972
  376MOL0     H51869   5.661   6.254   9.688  0.6739 -2.2818  0.0108
  376MOL0     H51870   5.715   5.803   9.268 -0.4886 -1.9541 -1.5189
  376MOL0     H51871   5.576   5.782   9.064 -2.8839 -0.0210  0.3725
  376MOL0     H51872   6.288   5.352   7.736 -1.6422  1.7343  0.1764
  376MOL0     H51873   6.491   5.514   7.708  2.4519 -0.3905  0.9408
  376MOL0     H51874   6.796   5.746   8.056  1.5212 -3.5529  0.1074
  376MOL0     H51875   6.976   5.873   8.107 -2.1472  0.9818 -0.6450
  376MOL0     H51876   7.329   5.852   7.864  3.0966  0.4778  0.8700
  376MOL0     H51877   7.310   6.011   7.796  0.3898 -0.2280 -0.3079
  376MOL0     H51878   7.385   6.101   8.027 -3.2755 -0.2978  0.9038
  376MOL0     H51879   7.497   5.999   7.927  0.1059 -3.3033  1.4957
  376MOL0     H51880   7.326   5.932   8.162  0.3820 -0.1871  0.3403
  376MOL0     H51881   7.418   5.799   8.087  0.9761  0.4195  1.6921
  376MOL0     H51882   7.485   6.039   8.243  1.4491  0.8643 -0.0458
  376MOL0     H51883   7.621   6.000   8.132 -0.4531 -0.1187 -2.2742
  376MOL0     H51884   7.666   5.704   8.416  2.0868 -1.8864 -2.8160
  376MOL0     H51885   7.142   5.808   7.711 -0.0332 -0.9888  0.3124
  376MOL0     H51886   7.083   5.643   7.577 -0.6828  1.9349 -2.2301
  376MOL0     H51887   6.962   5.532   7.649  2.0945  0.7078  1.7948
  376MOL0     H51888   6.907   5.664   7.547 -4.2483 -0.1064  3.5010
  377MOL0     O51889   7.140   4.163  11.298 -0.2653 -0.2214 -0.5044
  377MOL0     C51890   7.073   4.258  11.305 -0.1385 -1.2798  0.2486
  377MOL0     O51891   7.048   4.325  11.422 -0.1864  0.2029 -1.1625
  377MOL0     C51892   7.114   4.291  11.537 -0.7969  0.7062  0.3154
  377MOL0     C51893   7.101   4.169  11.611 -0.2926 -0.0173  0.4301
  377MOL0     C51894   7.185   4.148  11.724  0.3828 -0.6983  1.6116
  377MOL0     C51895   7.282   4.238  11.755 -1.7193 -0.5098 -0.5511
  377MOL0     O51896   7.369   4.187  11.854 -0.6212 -0.0155 -0.2288
  377MOL0     C51897   7.438   4.285  11.937  0.1929  0.1547 -0.2362
  377MOL0     C51898   7.530   4.198  12.024  0.4605 -1.0432 -0.9221
  377MOL0     C51899   7.461   4.115  12.132  0.9117  0.1279 -0.3331
  377MOL0     C51900   7.377   4.213  12.221 -0.7033 -1.0150 -0.7618
  377MOL0     C51901   7.377   4.176  12.370 -0.0683 -0.1989 -0.3953
  377MOL0     C51902   7.519   4.162  12.424 -0.2043  0.0794 -0.0282
  377MOL0     C51903   7.568   4.009  12.452 -0.6074 -0.5699  0.5434
  377MOL0     C51904   7.478   3.927  12.549  0.2852  0.3260 -0.9072
  377MOL0     N51905   7.491   3.785  12.563  0.1574  0.3115 -0.0245
  377MOL0     C51906   7.593   3.695  12.518 -0.4773  0.0251 -0.7190
  377MOL0     C51907   7.529   3.579  12.534 -0.3115 -0.4915 -0.1248
  377MOL0     C51908   7.590   3.441  12.507 -0.2374  0.4094  0.5970
  377MOL0     C51909   7.617   3.358  12.638  0.9985  0.5246  0.0938
  377MOL0     C51910   7.717   3.420  12.741 -0.4435 -0.1734  0.0133
  377MOL0     C51911   7.716   3.352  12.876  0.2220 -0.3571  0.7197
  377MOL0     O51912   7.832   3.407  12.939 -0.8366 -0.2254 -0.4568
  377MOL0     C51913   7.939   3.334  13.000  0.2916 -0.0468  0.9923
  377MOL0     C51914   7.929   3.200  13.049  0.0833  0.1898  0.0535
  377MOL0     C51915   8.034   3.139  13.116  0.0601 -0.7409 -0.5283
  377MOL0     C51916   8.017   2.993  13.161  0.1599  0.2193 -0.9926
  377MOL0     C51917   8.155   3.220  13.130 -0.4217  0.5863 -0.5532
  377MOL0     C51918   8.276   3.163  13.194  0.6750  0.2798 -0.6389
  377MOL0     O51919   8.398   3.211  13.158 -0.1816 -0.2563  1.1374
  377MOL0     C51920   8.503   3.131  13.185  0.0924 -0.1852  0.5331
  377MOL0     C51921   8.549   3.124  13.317 -0.3410 -0.6182 -0.8754
  377MOL0     C51922   8.656   3.034  13.353  0.3138  0.4821  0.8678
  377MOL0     C51923   8.713   2.950  13.257 -0.2746 -0.4518 -0.0030
  377MOL0     O51924   8.797   2.856  13.299 -0.5617  0.3713  0.0824
  377MOL0     C51925   8.942   2.900  13.290  0.1707 -0.9063 -0.3718
  377MOL0     C51926   9.038   2.784  13.313  0.0594  0.5703  0.5921
  377MOL0     C51927   9.031   2.681  13.206  0.1223  1.1553  0.5003
  377MOL0     C51928   9.166   2.608  13.180 -0.5078 -0.4137 -0.3263
  377MOL0     C51929   9.149   2.520  13.059 -1.0664  0.7827 -0.4627
  377MOL0     C51930   9.094   2.374  13.102  0.2899 -0.5290  0.2109
  377MOL0     C51931   9.050   2.290  12.978  0.9097 -0.2016  0.0427
  377MOL0     C51932   8.920   2.354  12.910  0.5651  0.8678 -0.7829
  377MOL0    Cl51933   8.784   2.377  13.032  0.3947 -0.4699  0.2831
  377MOL0     C51934   8.684   2.983  13.122 -0.9716 -0.0188 -0.1495
  377MOL0     C51935   8.580   3.064  13.087  0.9780  0.2513  1.2843
  377MOL0     O51936   8.259   3.093  13.293 -0.2576 -0.3517  0.2120
  377MOL0     C51937   8.167   3.348  13.070  0.6984  0.3399  0.4863
  377MOL0     C51938   8.055   3.409  13.020  0.4603  0.2325  1.4884
  377MOL0     N51939   7.403   3.594  12.584 -0.2301 -0.0603  0.3201
  377MOL0     N51940   7.383   3.714  12.600 -0.2881 -0.8428  0.6970
  377MOL0     C51941   7.296   4.361  11.685  1.1216 -0.3043  0.2295
  377MOL0     C51942   7.201   4.389  11.582 -0.1363 -0.3667 -0.3893
  377MOL0     C51943   7.024   4.310  11.173  0.2299 -0.3500 -0.0166
  377MOL0     C51944   7.058   4.436  11.123  0.0228 -0.4781  0.5457
  377MOL0     C51945   7.001   4.501  11.016  1.1832  0.9197 -0.1429
  377MOL0     C51946   6.899   4.428  10.951 -0.1997  0.0704  0.6588
  377MOL0     O51947   6.844   4.508  10.847  0.8021 -0.2645 -0.8135
  377MOL0     C51948   6.707   4.478  10.802 -0.3849  0.2501 -0.0837
  377MOL0     C51949   6.684   4.594  10.712  1.5013  0.1993  0.9037
  377MOL0     C51950   6.759   4.599  10.578 -0.5956  0.1764 -0.1969
  377MOL0     C51951   6.694   4.520  10.471 -0.5573  0.5649  0.0868
  377MOL0     C51952   6.780   4.502  10.350  1.0131 -0.5210  0.1345
  377MOL0     C51953   6.840   4.491  10.249 -1.0309  0.2208  1.1875
  377MOL0     C51954   6.865   4.296  10.994 -1.2643 -1.7511  0.9255
  377MOL0     C51955   6.929   4.241  11.103 -0.0199  1.0064  0.2707
  377MOL0     C51956   6.896   4.094  11.135  0.2553 -0.3547  0.3945
  377MOL0     H51957   7.042   4.095  11.558  1.5997 -1.7367  0.6083
  377MOL0     H51958   7.182   4.049  11.768 -2.8759 -3.0919 -3.0822
  377MOL0     H51959   7.372   4.347  11.998  0.1472  1.9383 -2.0030
  377MOL0     H51960   7.506   4.354  11.886  1.3174  0.6103  1.7843
  377MOL0     H51961   7.589   4.140  11.953  1.9297 -0.4821 -0.1931
  377MOL0     H51962   7.604   4.263  12.072  2.0989 -1.8982 -2.2170
  377MOL0     H51963   7.392   4.036  12.100 -2.0274  2.2331  0.4731
  377MOL0     H51964   7.541   4.078  12.197  2.0126  1.6206 -0.7853
  377MOL0     H51965   7.426   4.311  12.214  0.2634 -1.5664 -2.3360
  377MOL0     H51966   7.284   4.242  12.170 -0.8810  1.1240  0.6742
  377MOL0     H51967   7.317   4.086  12.381 -1.6514  1.0052  1.7911
  377MOL0     H51968   7.317   4.249  12.427  1.4845 -0.8989  2.3411
  377MOL0     H51969   7.588   4.205  12.350 -2.6223  1.8235 -1.4191
  377MOL0     H51970   7.524   4.216  12.519 -1.0721 -1.3151  0.8497
  377MOL0     H51971   7.670   4.014  12.490 -0.6377 -0.9957  0.6882
  377MOL0     H51972   7.567   3.952  12.359  0.6279  3.6330 -2.3248
  377MOL0     H51973   7.504   3.972  12.645 -0.4707  0.8310 -0.9275
  377MOL0     H51974   7.373   3.947  12.526 -0.4993 -3.5712 -1.3605
  377MOL0     H51975   7.691   3.714  12.477  0.2357 -1.3382  0.2836
  377MOL0     H51976   7.678   3.474  12.452 -1.1020  0.0468 -1.0671
  377MOL0     H51977   7.528   3.381  12.439  1.3535 -0.5145 -0.0824
  377MOL0     H51978   7.520   3.348  12.686  0.7488 -0.1754 -0.5490
  377MOL0     H51979   7.654   3.259  12.609 -4.0453 -1.7417  0.4532
  377MOL0     H51980   7.824   3.414  12.716  0.9339  4.0831  3.5596
  377MOL0     H51981   7.700   3.527  12.752 -0.2386 -0.2280  1.0439
  377MOL0     H51982   7.628   3.371  12.938  0.1945  0.0479  0.5587
  377MOL0     H51983   7.714   3.243  12.869 -2.4202 -0.4865  2.0834
  377MOL0     H51984   7.851   3.133  13.014 -1.4886  1.7889  0.4189
  377MOL0     H51985   7.998   2.983  13.268  2.1208 -1.1379 -0.7152
  377MOL0     H51986   8.110   2.938  13.142  0.4622  1.2451 -2.6879
  377MOL0     H51987   7.942   2.942  13.100  0.4890 -2.1460  0.4628
  377MOL0     H51988   8.492   3.170  13.397 -0.1816 -0.8003 -0.6555
  377MOL0     H51989   8.682   3.009  13.455  1.7901 -0.3654  0.3129
  377MOL0     H51990   8.961   2.942  13.191  2.0642  3.2421  1.5106
  377MOL0     H51991   8.966   2.971  13.369 -0.8500 -1.6917  0.6850
  377MOL0     H51992   9.138   2.826  13.328 -0.4846  3.1234 -2.1237
  377MOL0     H51993   9.005   2.734  13.405  0.3214  1.9931  1.4992
  377MOL0     H51994   8.988   2.727  13.116 -2.4505 -1.2822  0.3339
  377MOL0     H51995   8.948   2.611  13.221  1.1107 -0.0540  0.4179
  377MOL0     H51996   9.216   2.569  13.269  2.8410  4.7821  0.5261
  377MOL0     H51997   9.233   2.693  13.163 -0.1647  0.4045  3.9681
  377MOL0     H51998   9.073   2.562  12.993 -2.8510 -1.6971 -0.1031
  377MOL0     H51999   9.244   2.504  13.007  0.7046 -0.9659  2.8932
  377MOL0     H52000   9.022   2.373  13.184  0.6531 -5.1330  0.7159
  377MOL0     H52001   9.185   2.324  13.136  2.2683  3.8528  2.1558
  377MOL0     H52002   9.037   2.187  13.013 -1.8959 -0.7176 -2.1588
  377MOL0     H52003   9.130   2.283  12.903  1.1739  0.5490  0.2508
  377MOL0     H52004   8.884   2.286  12.833  2.0966 -1.8530  0.7459
  377MOL0     H52005   8.941   2.448  12.857  0.3156  0.2740 -1.9576
  377MOL0     H52006   8.734   2.929  13.042  2.0166 -0.1118  1.6581
  377MOL0     H52007   8.550   3.073  12.983 -1.0022  2.5125  1.9566
  377MOL0     H52008   8.259   3.405  13.074  1.7588 -1.1992 -0.6704
  377MOL0     H52009   8.065   3.512  12.989  3.8069  0.5308  3.1149
  377MOL0     H52010   7.370   4.438  11.703  0.8193  0.4427 -1.5042
  377MOL0     H52011   7.208   4.486  11.534  2.8168 -0.8430 -1.0887
  377MOL0     H52012   7.139   4.490  11.173 -0.8816  1.3549  0.1058
  377MOL0     H52013   7.019   4.605  10.990  2.9967  0.3204 -1.4604
  377MOL0     H52014   6.692   4.381  10.755 -4.0925  0.0122  1.2754
  377MOL0     H52015   6.652   4.490  10.896 -4.4340 -5.3008 -1.2732
  377MOL0     H52016   6.724   4.686  10.757  1.5369  1.4428 -1.5189
  377MOL0     H52017   6.577   4.600  10.689  1.9113 -0.3755 -1.3628
  377MOL0     H52018   6.759   4.701  10.539  3.9148  0.1875 -0.6857
  377MOL0     H52019   6.864   4.572  10.592 -0.7889 -0.1737  0.7228
  377MOL0     H52020   6.600   4.571  10.446 -1.0828  0.0218  0.8870
  377MOL0     H52021   6.672   4.416  10.497 -3.6027  0.7998 -1.1063
  377MOL0     H52022   6.900   4.467  10.164 -0.3009 -3.0837  2.4995
  377MOL0     H52023   6.800   4.238  10.929 -2.1068  0.9535 -0.8256
  377MOL0     H52024   6.972   4.025  11.100  1.1069  0.7238  0.0547
  377MOL0     H52025   6.890   4.074  11.242  0.6467 -3.5997 -0.0972
  377MOL0     H52026   6.802   4.068  11.085 -0.8724 -0.8940  2.6472
  378MOL0     O52027   0.690   3.008   0.658  0.4440 -0.9359 -1.1135
  378MOL0     C52028   0.732   3.061   0.763  0.7255  0.8819 -0.3282
  378MOL0     O52029   0.681   3.177   0.820 -0.1097 -0.5411  0.0052
  378MOL0     C52030   0.587   3.252   0.752 -0.4816  1.3445 -0.4755
  378MOL0     C52031   0.617   3.386   0.722  0.4114  0.5396  1.3969
  378MOL0     C52032   0.536   3.465   0.640  0.2209 -0.1572 -0.1434
  378MOL0     C52033   0.413   3.415   0.604  0.8501  0.3562  0.0406
  378MOL0     O52034   0.334   3.504   0.541 -0.1539 -0.3132  0.8721
  378MOL0     C52035   0.191   3.504   0.550 -0.2633 -0.3680  0.5922
  378MOL0     C52036   0.167   3.561   0.687  0.1141  0.4534  0.0594
  378MOL0     C52037   0.013   3.575   0.698 -0.4156  0.5502 -0.1015
  378MOL0     C52038  -0.038   3.685   0.795  0.4700  0.0327  0.4409
  378MOL0     C52039  -0.197   3.680   0.785 -0.7601  0.2117 -0.9481
  378MOL0     C52040  -0.251   3.798   0.852  0.2247 -0.5225  0.6032
  378MOL0     C52041  -0.406   3.791   0.850  1.1110 -1.2038 -0.2001
  378MOL0     C52042  -0.445   3.882   0.966  0.9204  0.1164  0.3352
  378MOL0     N52043  -0.587   3.923   0.992 -0.3606 -0.3374 -0.5475
  378MOL0     C52044  -0.627   4.052   1.001 -0.5035 -0.5491 -0.0224
  378MOL0     C52045  -0.732   4.050   1.079  0.8016  0.0255  0.0120
  378MOL0     C52046  -0.789   4.176   1.137  0.1717 -1.0523 -0.0595
  378MOL0     C52047  -0.713   4.216   1.252  0.0989 -0.3604  0.4447
  378MOL0     C52048  -0.760   4.345   1.318  1.2077  0.1605 -0.2822
  378MOL0     C52049  -0.654   4.414   1.396 -0.1289 -0.1262  0.1399
  378MOL0     O52050  -0.709   4.520   1.481  1.0149 -0.0264  0.5577
  378MOL0     C52051  -0.649   4.634   1.425  0.3283 -0.2835 -0.0700
  378MOL0     C52052  -0.731   4.713   1.358 -0.0607 -0.5870  0.1943
  378MOL0     C52053  -0.702   4.839   1.319 -0.0525  0.3124  0.7928
  378MOL0     C52054  -0.818   4.923   1.262  0.3514  0.4058  0.8481
  378MOL0     C52055  -0.570   4.881   1.337  0.4481 -0.2629 -0.0201
  378MOL0     C52056  -0.509   5.008   1.280  0.0968  1.0768  0.4159
  378MOL0     O52057  -0.372   5.003   1.257 -0.1618 -0.3726  0.5860
  378MOL0     C52058  -0.302   5.117   1.232  0.0984  0.4578 -0.1993
  378MOL0     C52059  -0.306   5.226   1.323 -0.7477 -0.1985 -0.0865
  378MOL0     C52060  -0.213   5.331   1.304 -1.2221 -0.7282  0.7386
  378MOL0     C52061  -0.104   5.312   1.212  0.5849  0.3102  0.3456
  378MOL0     O52062  -0.005   5.408   1.197  0.3141 -0.1235  0.1770
  378MOL0     C52063  -0.038   5.550   1.218 -0.5007 -0.0178 -0.0526
  378MOL0     C52064  -0.136   5.607   1.111 -0.1108  0.7001 -0.4767
  378MOL0     C52065  -0.063   5.624   0.978  0.5869  0.5662 -0.6386
  378MOL0     C52066  -0.153   5.691   0.867  0.3970 -0.4112 -0.0338
  378MOL0     C52067  -0.080   5.712   0.738 -1.5937  0.2833 -0.0764
  378MOL0     C52068  -0.171   5.788   0.644  0.1055  0.6386 -1.3403
  378MOL0     C52069  -0.114   5.831   0.521 -0.1226 -0.3927  0.2881
  378MOL0     C52070  -0.061   5.729   0.422  0.0022 -0.2124 -0.1117
  378MOL0    Cl52071  -0.187   5.614   0.364 -0.1530  0.2485  0.0678
  378MOL0     C52072  -0.099   5.187   1.143 -0.1673 -0.2214 -0.1228
  378MOL0     C52073  -0.192   5.088   1.153  0.8709 -0.2288 -0.5491
  378MOL0     O52074  -0.578   5.107   1.264  0.5037  0.0386  0.3243
  378MOL0     C52075  -0.483   4.801   1.409  0.0042 -0.3693  1.0338
  378MOL0     C52076  -0.526   4.675   1.466  0.3597  0.5687  0.0348
  378MOL0     N52077  -0.754   3.925   1.130 -0.1286 -0.0541  0.8823
  378MOL0     N52078  -0.678   3.854   1.066 -0.4352 -0.3271 -1.0309
  378MOL0     C52079   0.371   3.294   0.652  0.3944 -0.4976 -1.3955
  378MOL0     C52080   0.457   3.208   0.725 -0.1557  0.0856  0.3038
  378MOL0     C52081   0.840   2.994   0.837 -0.2979  0.5469  0.8467
  378MOL0     C52082   0.892   2.868   0.785  0.3237 -0.1443 -0.3874
  378MOL0     C52083   0.976   2.788   0.861  0.7725 -0.5344 -0.6124
  378MOL0     C52084   1.029   2.838   0.981 -0.2157 -0.5273  0.4659
  378MOL0     O52085   1.116   2.768   1.065  0.7686  0.1227 -0.6078
  378MOL0     C52086   1.150   2.634   1.022 -0.2930  0.3546  0.0706
  378MOL0     C52087   1.275   2.585   1.098 -0.1022 -1.0079  0.2088
  378MOL0     C52088   1.414   2.634   1.027  0.0248 -0.1860 -0.5212
  378MOL0     C52089   1.414   2.788   0.992 -1.3844 -0.2506  0.4692
  378MOL0     C52090   1.551   2.825   0.969 -0.3771  0.6812 -0.4842
  378MOL0     C52091   1.675   2.819   0.971  0.5921 -0.4280  0.4901
  378MOL0     C52092   0.995   2.965   1.023  1.2335  0.1938  0.3635
  378MOL0     C52093   0.905   3.043   0.947 -0.1377 -0.5181 -0.1566
  378MOL0     C52094   0.907   3.195   0.992  1.3310 -0.5376 -0.0388
  378MOL0     H52095   0.718   3.412   0.754  0.9954 -0.2426  0.2584
  378MOL0     H52096   0.584   3.554   0.600  1.5712 -0.5900  0.4607
  378MOL0     H52097   0.142   3.409   0.527  0.6206 -0.8300  0.5701
  378MOL0     H52098   0.127   3.566   0.486 -0.3180 -1.7674 -0.7463
  378MOL0     H52099   0.204   3.494   0.765  2.1316  1.9423  0.4689
  378MOL0     H52100   0.215   3.659   0.694  1.2711 -0.1591  0.9449
  378MOL0     H52101  -0.049   3.581   0.608 -2.2310 -0.9634  0.9673
  378MOL0     H52102  -0.008   3.475   0.735  1.7456  1.0622  2.8023
  378MOL0     H52103  -0.003   3.663   0.896 -1.0887  2.7262  1.6891
  378MOL0     H52104  -0.002   3.786   0.773 -0.1253 -0.1805 -1.7503
  378MOL0     H52105  -0.221   3.588   0.839  1.5703  0.0570 -0.0453
  378MOL0     H52106  -0.222   3.680   0.679 -3.8963 -0.3840 -0.2972
  378MOL0     H52107  -0.215   3.807   0.955  0.7581  0.6254  0.3401
  378MOL0     H52108  -0.226   3.884   0.790  2.3832  0.0964  2.2115
  378MOL0     H52109  -0.438   3.688   0.866 -1.5633 -0.5887 -1.0388
  378MOL0     H52110  -0.427   3.825   0.749  2.6679 -1.0085 -0.4892
  378MOL0     H52111  -0.409   3.838   1.060  3.2810  2.1457  0.4944
  378MOL0     H52112  -0.386   3.974   0.968  3.0520 -1.1808  1.5304
  378MOL0     H52113  -0.576   4.138   0.959  1.2210 -2.1084 -1.3063
  378MOL0     H52114  -0.894   4.159   1.165 -0.0141 -0.9230 -0.6695
  378MOL0     H52115  -0.802   4.250   1.058  0.7952 -0.2787  0.5454
  378MOL0     H52116  -0.709   4.133   1.324 -2.0707  0.9574  2.2292
  378MOL0     H52117  -0.608   4.237   1.229  2.0901  1.9916  8.4277
  378MOL0     H52118  -0.807   4.411   1.245 -1.5369 -1.2865  0.0286
  378MOL0     H52119  -0.845   4.316   1.382  0.3006  2.3412 -0.4148
  378MOL0     H52120  -0.605   4.334   1.453 -0.5704 -0.0067  0.6982
  378MOL0     H52121  -0.581   4.446   1.321 -3.4298 -0.4357 -3.5303
  378MOL0     H52122  -0.826   4.664   1.338 -0.4706 -0.2136  1.1691
  378MOL0     H52123  -0.794   4.979   1.171  0.4114 -0.0394  0.5904
  378MOL0     H52124  -0.845   5.009   1.324 -2.2637 -0.1651  0.6343
  378MOL0     H52125  -0.905   4.861   1.239  0.3072 -0.5397  3.2357
  378MOL0     H52126  -0.375   5.229   1.407 -0.2317 -0.2666  0.3420
  378MOL0     H52127  -0.213   5.416   1.372  1.3081 -0.0573  0.0137
  378MOL0     H52128  -0.064   5.561   1.323  0.1506 -2.3121  0.4010
  378MOL0     H52129   0.054   5.608   1.213  0.6530 -1.4874  2.3834
  378MOL0     H52130  -0.225   5.545   1.101  0.3370  0.3506 -2.9603
  378MOL0     H52131  -0.167   5.704   1.150 -1.2799 -0.3300  1.2890
  378MOL0     H52132  -0.026   5.526   0.948 -2.1474 -1.0001  0.7181
  378MOL0     H52133   0.012   5.703   0.991 -0.1435  1.8546 -3.4248
  378MOL0     H52134  -0.182   5.787   0.912 -1.4044 -1.1720  0.5225
  378MOL0     H52135  -0.247   5.636   0.854 -1.1302  1.3322  2.5281
  378MOL0     H52136   0.020   5.755   0.750 -1.5394  0.2833 -0.5196
  378MOL0     H52137  -0.040   5.617   0.699 -1.6913 -0.1709  0.8885
  378MOL0     H52138  -0.199   5.881   0.693  0.5282  0.2261 -0.2992
  378MOL0     H52139  -0.265   5.736   0.624 -0.8629  1.5497  0.5982
  378MOL0     H52140  -0.030   5.900   0.534 -2.4978  2.7098  0.3260
  378MOL0     H52141  -0.190   5.886   0.464  0.1710 -0.7555 -0.4579
  378MOL0     H52142   0.019   5.682   0.479 -1.1239  1.3905  2.9830
  378MOL0     H52143  -0.008   5.781   0.342  4.1277 -0.3555  2.2539
  378MOL0     H52144  -0.015   5.172   1.077 -1.3392 -4.4631 -0.9618
  378MOL0     H52145  -0.170   4.993   1.104  0.4644  0.1852 -1.5538
  378MOL0     H52146  -0.377   4.822   1.405 -0.2223  0.7266 -1.8289
  378MOL0     H52147  -0.471   4.610   1.533 -0.6172  1.6174  1.9412
  378MOL0     H52148   0.268   3.268   0.628 -0.3538  2.7629 -2.1211
  378MOL0     H52149   0.437   3.108   0.762  0.0975  0.5427  1.7442
  378MOL0     H52150   0.874   2.829   0.685 -0.5611 -2.8077  0.7079
  378MOL0     H52151   0.997   2.690   0.821  2.2744 -0.6861  0.4698
  378MOL0     H52152   1.060   2.575   1.042 -0.6885 -0.3702 -3.1546
  378MOL0     H52153   1.159   2.628   0.913 -4.4029 -2.8998 -0.3731
  378MOL0     H52154   1.271   2.476   1.102  1.2908 -1.0359  1.4108
  378MOL0     H52155   1.273   2.620   1.202 -2.6823  0.5911 -0.2713
  378MOL0     H52156   1.495   2.602   1.093  0.3681 -2.8006 -2.0650
  378MOL0     H52157   1.402   2.584   0.930 -1.7902  0.5210 -0.7054
  378MOL0     H52158   1.367   2.847   1.072 -0.4584  0.4035  0.5408
  378MOL0     H52159   1.349   2.819   0.910 -2.9246  0.8550  2.0460
  378MOL0     H52160   1.782   2.821   0.971  0.6160  1.8387 -0.0401
  378MOL0     H52161   1.044   2.992   1.117 -1.6205 -2.3748  2.8091
  378MOL0     H52162   0.903   3.265   0.908  2.3172 -1.8394 -1.2177
  378MOL0     H52163   0.810   3.193   1.042  0.8974 -1.8208 -0.8864
  378MOL0     H52164   0.984   3.214   1.067 -1.3697  1.4943  2.4560
  379MOL0     O52165   2.305  11.295   3.746  0.2293 -0.1281  0.3116
  379MOL0     C52166   2.283  11.238   3.633  0.6631 -0.4627 -0.4716
  379MOL0     O52167   2.234  11.303   3.527 -0.1075 -0.0255  0.2607
  379MOL0     C52168   2.158  11.416   3.565  0.3162  0.8430  0.1426
  379MOL0     C52169   2.018  11.400   3.558 -0.2434 -0.2965 -0.4824
  379MOL0     C52170   1.931  11.511   3.581 -0.2345  0.7014 -0.0333
  379MOL0     C52171   1.982  11.642   3.590 -0.6199  0.0744  0.7143
  379MOL0     O52172   1.908  11.757   3.604 -0.4117 -0.0646  0.4896
  379MOL0     C52173   1.769  11.723   3.611  0.0838 -0.2263 -0.3196
  379MOL0     C52174   1.704  11.856   3.666  0.4798  0.3436  0.7978
  379MOL0     C52175   1.560  11.827   3.719 -1.1111  0.3136 -0.7930
  379MOL0     C52176   1.474  11.930   3.771 -0.6743 -0.2206  0.7684
  379MOL0     C52177   1.366  11.870   3.850  0.2069 -0.4390 -0.5822
  379MOL0     C52178   1.256  11.963   3.899  0.6078  0.8321  0.9253
  379MOL0     C52179   1.304  12.095   3.978 -0.7347  0.6232 -0.3890
  379MOL0     C52180   1.197  12.198   3.940  0.6799  0.4093  0.4794
  379MOL0     N52181   1.207  12.256   3.805 -0.2611 -1.2495 -0.8505
  379MOL0     C52182   1.109  12.241   3.714  0.7060 -0.2444 -0.3805
  379MOL0     C52183   1.159  12.269   3.593  1.5768 -0.7345 -0.3107
  379MOL0     C52184   1.085  12.266   3.455  0.1273  0.3590  0.3569
  379MOL0     C52185   1.168  12.278   3.327  0.1954  0.2298 -1.1360
  379MOL0     C52186   1.258  12.410   3.311  0.0688  0.6755 -0.3460
  379MOL0     C52187   1.339  12.424   3.178  0.4361 -0.0499  0.3068
  379MOL0     O52188   1.252  12.413   3.065  0.5181 -0.9501  0.3097
  379MOL0     C52189   1.295  12.494   2.967 -0.3895  0.3714 -0.1778
  379MOL0     C52190   1.415  12.475   2.901  0.6042  0.2804 -0.0719
  379MOL0     C52191   1.473  12.553   2.798  0.7585 -0.3510  0.1969
  379MOL0     C52192   1.603  12.502   2.741 -0.3876  0.1389  0.3617
  379MOL0     C52193   1.393  12.661   2.755  0.8402 -0.3304  0.1536
  379MOL0     C52194   1.424  12.735   2.632 -0.1485 -0.4618  1.5255
  379MOL0     O52195   1.325  12.805   2.584  1.1357  0.3296  0.4617
  379MOL0     C52196   1.329  12.877   2.464  0.8261 -0.6437  0.7079
  379MOL0     C52197   1.349  13.026   2.474 -0.1833  0.1351  0.4868
  379MOL0     C52198   1.360  13.108   2.357 -0.2077  0.1711 -0.3268
  379MOL0     C52199   1.366  13.047   2.231  0.5456  0.6484 -0.3298
  379MOL0     O52200   1.355  13.126   2.118 -0.9231  0.7257  0.1556
  379MOL0     C52201   1.343  13.271   2.128 -0.5365  0.5804 -0.3949
  379MOL0     C52202   1.350  13.333   1.989  1.1400  0.6562 -0.1758
  379MOL0     C52203   1.224  13.422   1.963 -0.4903 -0.4944 -1.3320
  379MOL0     C52204   1.233  13.547   2.050 -0.0954  0.3607  0.3441
  379MOL0     C52205   1.104  13.633   2.027 -0.5343 -1.2496  0.2839
  379MOL0     C52206   0.990  13.583   2.108 -1.2642  0.3860 -0.1240
  379MOL0     C52207   0.906  13.701   2.167 -0.3114 -0.3959 -0.5870
  379MOL0     C52208   0.830  13.659   2.286 -0.4342 -0.8322 -0.2045
  379MOL0    Cl52209   0.926  13.628   2.428 -0.0779 -0.0120  0.1560
  379MOL0     C52210   1.360  12.901   2.229 -0.3119 -1.0975 -1.1154
  379MOL0     C52211   1.335  12.815   2.336  0.0729  0.4426 -0.1781
  379MOL0     O52212   1.538  12.735   2.595 -0.1238 -0.1695 -0.3071
  379MOL0     C52213   1.266  12.686   2.828 -0.1091  0.7945 -0.2059
  379MOL0     C52214   1.214  12.600   2.930  0.1355  0.0663 -0.4730
  379MOL0     N52215   1.287  12.317   3.617  0.0975  0.8642  0.0988
  379MOL0     N52216   1.316  12.329   3.741  0.5870  0.6660  0.5058
  379MOL0     C52217   2.119  11.656   3.591 -0.3743  0.0425 -0.0139
  379MOL0     C52218   2.210  11.543   3.586  0.5294 -0.2613 -0.9500
  379MOL0     C52219   2.321  11.094   3.612  0.1149  0.4569 -0.2202
  379MOL0     C52220   2.365  11.052   3.481 -0.0520  0.0966  0.2659
  379MOL0     C52221   2.404  10.922   3.456  0.8699 -0.2969  0.5626
  379MOL0     C52222   2.401  10.830   3.559  0.2414  0.4390  0.5867
  379MOL0     O52223   2.420  10.696   3.526  0.3304  0.8051  0.5079
  379MOL0     C52224   2.549  10.652   3.581 -0.5402 -0.1071 -0.4152
  379MOL0     C52225   2.586  10.500   3.560 -0.9881  0.6612  0.6391
  379MOL0     C52226   2.475  10.398   3.596 -0.5815 -0.3142  0.4164
  379MOL0     C52227   2.540  10.256   3.608  0.2802 -0.0319 -0.3374
  379MOL0     C52228   2.434  10.164   3.657  0.8153  0.2141 -0.2872
  379MOL0     C52229   2.343  10.092   3.700 -0.4580  0.0881  0.3849
  379MOL0     C52230   2.346  10.872   3.683 -0.0928  0.3539  0.1865
  379MOL0     C52231   2.303  10.999   3.712 -0.0165  0.5797  0.1131
  379MOL0     C52232   2.227  11.009   3.842 -0.5402  0.1911 -0.0234
  379MOL0     H52233   1.956  11.311   3.552 -0.6436  0.0399 -1.6851
  379MOL0     H52234   1.825  11.492   3.574 -0.8636  2.7646  2.3922
  379MOL0     H52235   1.749  11.644   3.684  1.5065 -0.5427 -0.2360
  379MOL0     H52236   1.726  11.693   3.515 -0.9087  0.8367 -0.2328
  379MOL0     H52237   1.767  11.897   3.746  0.5237  0.2510  0.8104
  379MOL0     H52238   1.699  11.930   3.586 -0.2186 -2.4467 -1.9149
  379MOL0     H52239   1.507  11.780   3.636  2.0316  0.8975 -3.3324
  379MOL0     H52240   1.572  11.757   3.802 -2.6642  0.8131 -0.1230
  379MOL0     H52241   1.521  12.010   3.828 -0.0695  0.3383 -0.4775
  379MOL0     H52242   1.430  11.990   3.690 -1.4948  1.7649  2.5799
  379MOL0     H52243   1.406  11.827   3.943 -0.8062  3.6577  1.9969
  379MOL0     H52244   1.327  11.803   3.773  4.2101 -0.5438 -2.7599
  379MOL0     H52245   1.202  11.998   3.811  1.9877 -1.5987 -1.0111
  379MOL0     H52246   1.190  11.898   3.957  1.1980 -0.9997 -0.3768
  379MOL0     H52247   1.396  12.138   3.937 -0.2639  0.9241  0.9384
  379MOL0     H52248   1.311  12.076   4.085  4.3729  1.1322 -0.3999
  379MOL0     H52249   1.105  12.138   3.943 -0.4634  1.8505 -2.2379
  379MOL0     H52250   1.182  12.281   4.010  0.7364  1.0478 -0.2468
  379MOL0     H52251   1.007  12.204   3.717 -0.0115  1.3624 -2.5868
  379MOL0     H52252   1.003  12.338   3.459  1.0169  1.3434  1.3960
  379MOL0     H52253   1.040  12.166   3.457  0.2654  0.2980  2.4328
  379MOL0     H52254   1.237  12.193   3.323  0.6746  0.6055 -1.0873
  379MOL0     H52255   1.104  12.282   3.239  0.0991 -3.5819 -1.3857
  379MOL0     H52256   1.196  12.499   3.322  2.2023  2.3438 -1.1825
  379MOL0     H52257   1.324  12.425   3.397  1.5413 -0.1584 -1.2888
  379MOL0     H52258   1.393  12.519   3.187 -4.1819  2.8674  1.0029
  379MOL0     H52259   1.408  12.339   3.176  0.5224  0.0124 -2.4110
  379MOL0     H52260   1.480  12.395   2.936  0.3193  0.0624 -0.0413
  379MOL0     H52261   1.606  12.397   2.771  2.3598  0.4956  1.5850
  379MOL0     H52262   1.687  12.556   2.785 -0.5689  0.8339 -0.1321
  379MOL0     H52263   1.614  12.489   2.632  2.4563 -3.9514  0.8937
  379MOL0     H52264   1.340  13.069   2.574  0.3778  0.8439  0.2430
  379MOL0     H52265   1.353  13.214   2.377 -0.3323  0.6262 -2.5376
  379MOL0     H52266   1.241  13.290   2.162  0.2686  0.8136  2.1226
  379MOL0     H52267   1.408  13.316   2.204 -1.6080 -0.7075  1.3565
  379MOL0     H52268   1.435  13.403   1.990  0.6872  1.2988  2.6330
  379MOL0     H52269   1.344  13.255   1.913  0.4402 -0.3215  0.8398
  379MOL0     H52270   1.135  13.367   1.997 -0.4774  0.7169  0.8947
  379MOL0     H52271   1.217  13.438   1.855 -0.7370  0.4069 -1.1903
  379MOL0     H52272   1.315  13.611   2.017  0.9591  0.6988  3.2624
  379MOL0     H52273   1.244  13.535   2.158 -0.2100  4.6046  0.9784
  379MOL0     H52274   1.138  13.732   2.060  2.1649 -2.4296  1.3919
  379MOL0     H52275   1.061  13.625   1.927  0.1173 -0.9761 -0.0305
  379MOL0     H52276   1.034  13.525   2.189  0.4610  0.4800 -0.9553
  379MOL0     H52277   0.927  13.516   2.048 -0.5652 -0.7802  0.3941
  379MOL0     H52278   0.837  13.739   2.091  1.5655 -1.1971 -2.8188
  379MOL0     H52279   0.968  13.783   2.204  1.0132 -1.5880 -0.0964
  379MOL0     H52280   0.764  13.575   2.262 -1.7625  0.0252  0.3295
  379MOL0     H52281   0.763  13.744   2.300  0.2412 -0.1825 -0.8305
  379MOL0     H52282   1.379  12.865   2.128 -2.2132 -0.1161 -1.8646
  379MOL0     H52283   1.345  12.709   2.313 -0.0425  0.2873  0.4554
  379MOL0     H52284   1.190  12.758   2.799 -0.2576  0.6842 -0.0972
  379MOL0     H52285   1.121  12.617   2.984  1.7044 -2.1418  3.3149
  379MOL0     H52286   2.160  11.755   3.608 -1.4300  0.6289 -0.7460
  379MOL0     H52287   2.317  11.541   3.602  0.4381  0.8048 -0.1379
  379MOL0     H52288   2.372  11.127   3.403  3.4509 -0.7168 -0.3858
  379MOL0     H52289   2.427  10.894   3.354 -3.1114 -1.8244 -0.0895
  379MOL0     H52290   2.627  10.710   3.531 -0.5584 -0.0141 -0.3363
  379MOL0     H52291   2.560  10.672   3.688 -1.0502  0.4676 -0.4605
  379MOL0     H52292   2.677  10.491   3.619  0.0490  1.2723 -0.8052
  379MOL0     H52293   2.621  10.484   3.458 -1.9448  1.0164  0.2375
  379MOL0     H52294   2.422  10.422   3.689 -0.1162 -2.3298  1.2450
  379MOL0     H52295   2.403  10.392   3.514  0.6354  1.0380 -0.8022
  379MOL0     H52296   2.612  10.271   3.689 -1.5559 -0.9644  1.5729
  379MOL0     H52297   2.593  10.221   3.518  1.7059  0.3721  0.3184
  379MOL0     H52298   2.270  10.037   3.754 -0.1313  2.0349  2.9988
  379MOL0     H52299   2.328  10.792   3.755 -1.6923  0.5526  0.0465
  379MOL0     H52300   2.166  10.920   3.860  3.8820 -2.9277  1.5269
  379MOL0     H52301   2.303  11.017   3.920  2.1128 -1.9342 -2.1775
  379MOL0     H52302   2.161  11.095   3.855 -1.9198 -1.0980  2.0040
  380MOL0     O52303   5.582   3.521   3.791 -0.2357 -0.7498  0.8637
  380MOL0     C52304   5.566   3.617   3.710  0.7447 -0.1147 -0.2238
  380MOL0     O52305   5.662   3.690   3.655 -0.4534 -0.7871 -0.8505
  380MOL0     C52306   5.784   3.701   3.727 -0.2208  0.8741  0.4270
  380MOL0     C52307   5.875   3.594   3.735 -0.2567 -0.4929  0.4691
  380MOL0     C52308   6.007   3.620   3.775  0.2017  0.4087 -0.1464
  380MOL0     C52309   6.044   3.747   3.821 -0.5137  0.2519 -0.1843
  380MOL0     O52310   6.178   3.770   3.854  0.1263  0.5725 -0.0385
  380MOL0     C52311   6.242   3.877   3.793  0.1738  0.1181  0.1338
  380MOL0     C52312   6.376   3.899   3.867 -0.4946  0.9176  0.8624
  380MOL0     C52313   6.352   3.977   3.996  0.9556 -0.5395  0.2897
  380MOL0     C52314   6.476   4.031   4.066  0.7733  1.0364  0.2356
  380MOL0     C52315   6.532   4.157   4.005 -0.8499 -0.0538 -0.6688
  380MOL0     C52316   6.633   4.210   4.107 -0.9617  0.3447  0.6415
  380MOL0     C52317   6.687   4.347   4.071  0.1859  0.9352 -0.3306
  380MOL0     C52318   6.767   4.363   3.943 -0.4294 -0.2010  0.9266
  380MOL0     N52319   6.853   4.479   3.963  0.0451  0.0952  0.4282
  380MOL0     C52320   6.981   4.484   3.987 -0.1141  0.2238  0.0059
  380MOL0     C52321   7.006   4.612   3.990  0.0491 -0.2165 -0.7413
  380MOL0     C52322   7.144   4.665   4.011  0.1370 -0.1106 -0.3468
  380MOL0     C52323   7.265   4.627   3.928 -0.0666 -0.7822  0.8270
  380MOL0     C52324   7.401   4.703   3.945 -0.1767 -0.3691  0.3938
  380MOL0     C52325   7.503   4.677   3.824  0.4987 -0.0829  0.8719
  380MOL0     O52326   7.519   4.529   3.824  0.2771  0.1462  0.2545
  380MOL0     C52327   7.608   4.477   3.734  0.8512  0.1614  0.0234
  380MOL0     C52328   7.635   4.342   3.767  0.0095 -0.1584 -0.0742
  380MOL0     C52329   7.730   4.276   3.689 -0.5096  0.6878 -0.3029
  380MOL0     C52330   7.733   4.126   3.698 -0.6472  0.5703 -0.6783
  380MOL0     C52331   7.810   4.351   3.602  0.7840  0.6331  0.6070
  380MOL0     C52332   7.913   4.286   3.508  0.3348 -0.2809  0.8661
  380MOL0     O52333   8.019   4.375   3.487 -0.7149  1.0390 -0.7423
  380MOL0     C52334   8.106   4.333   3.388 -0.2497  0.6679 -0.6881
  380MOL0     C52335   8.129   4.413   3.279  0.1640  0.2709  0.2875
  380MOL0     C52336   8.215   4.365   3.175 -0.8312  1.1233  0.2604
  380MOL0     C52337   8.294   4.244   3.187  0.4966 -0.0750 -0.2956
  380MOL0     O52338   8.379   4.214   3.087 -0.1330  0.2456  0.4622
  380MOL0     C52339   8.469   4.098   3.105 -0.2471  0.4705 -0.0122
  380MOL0     C52340   8.542   4.064   2.977 -0.7770 -0.2992  0.2037
  380MOL0     C52341   8.464   4.073   2.858  0.8082 -0.3915 -0.5377
  380MOL0     C52342   8.505   3.993   2.737  1.4798  0.2113 -0.3071
  380MOL0     C52343   8.397   4.012   2.627  1.2351 -1.0430 -1.1814
  380MOL0     C52344   8.442   3.976   2.482 -0.0195  1.5813  0.5688
  380MOL0     C52345   8.341   4.018   2.369  1.0069 -0.0657 -0.6634
  380MOL0     C52346   8.198   3.990   2.393 -0.0893 -0.4954 -0.2621
  380MOL0    Cl52347   8.154   3.837   2.454 -0.5759  0.4402 -0.0840
  380MOL0     C52348   8.257   4.164   3.299 -0.2107 -0.0181  0.8131
  380MOL0     C52349   8.167   4.212   3.394 -0.2651  0.1655 -0.1508
  380MOL0     O52350   7.892   4.184   3.447  0.5188  0.0809 -0.4463
  380MOL0     C52351   7.793   4.485   3.581  0.6071 -0.8703  0.2523
  380MOL0     C52352   7.685   4.548   3.645 -0.5167 -0.4975  0.1513
  380MOL0     N52353   6.895   4.694   3.948 -0.3159 -0.2117 -0.1919
  380MOL0     N52354   6.804   4.600   3.930  0.4605 -1.4550  0.0657
  380MOL0     C52355   5.951   3.854   3.815  0.3588 -0.6657 -0.2824
  380MOL0     C52356   5.825   3.833   3.756 -0.9772 -0.2412 -0.1157
  380MOL0     C52357   5.420   3.651   3.696 -1.0526  0.9010  0.0111
  380MOL0     C52358   5.397   3.783   3.681 -0.4923 -0.3964  0.3790
  380MOL0     C52359   5.267   3.836   3.651 -0.5085  0.1343  0.0334
  380MOL0     C52360   5.161   3.753   3.663 -0.0145  0.8529 -0.2319
  380MOL0     O52361   5.035   3.812   3.656 -0.3353 -0.3463  0.4386
  380MOL0     C52362   4.954   3.773   3.765 -0.0210 -0.1143 -0.2688
  380MOL0     C52363   4.852   3.881   3.786 -0.6865 -0.5614  1.3209
  380MOL0     C52364   4.759   3.889   3.672  0.0937 -0.0665 -0.1053
  380MOL0     C52365   4.689   4.018   3.647 -0.2444  0.8983  0.3548
  380MOL0     C52366   4.597   4.058   3.751 -0.5223  0.1752 -0.8964
  380MOL0     C52367   4.521   4.103   3.839  0.0016 -0.0056  0.4697
  380MOL0     C52368   5.194   3.608   3.666 -0.7314 -0.1424 -0.6001
  380MOL0     C52369   5.317   3.556   3.684  0.5670 -0.5649  0.0020
  380MOL0     C52370   5.336   3.406   3.683  0.2713 -0.0208  0.4734
  380MOL0     H52371   5.839   3.499   3.697 -0.7651  0.0550 -0.4405
  380MOL0     H52372   6.081   3.542   3.767 -1.2722 -1.0093 -0.3745
  380MOL0     H52373   6.184   3.970   3.792 -0.3257 -0.1937 -0.5962
  380MOL0     H52374   6.261   3.847   3.690 -0.8340 -0.8948  0.2233
  380MOL0     H52375   6.429   3.807   3.890  1.9328  2.3589  1.4441
  380MOL0     H52376   6.442   3.963   3.808  1.5624 -1.2260  0.7044
  380MOL0     H52377   6.289   4.064   3.978  0.6418 -0.7811  0.2198
  380MOL0     H52378   6.300   3.913   4.068 -1.9286  0.0345 -1.1394
  380MOL0     H52379   6.442   4.057   4.166 -0.2608 -0.6147  0.3402
  380MOL0     H52380   6.546   3.948   4.077 -1.4899 -1.3863 -2.1090
  380MOL0     H52381   6.455   4.234   4.002 -0.5473  0.3785  1.3246
  380MOL0     H52382   6.578   4.142   3.907  0.8530 -0.2759  0.1173
  380MOL0     H52383   6.586   4.220   4.205 -0.0248 -2.0331  1.4070
  380MOL0     H52384   6.717   4.140   4.106 -2.1080 -1.0619 -0.0419
  380MOL0     H52385   6.751   4.383   4.152 -0.8027 -1.4748  1.6071
  380MOL0     H52386   6.616   4.430   4.068  0.4617  1.3261  1.9737
  380MOL0     H52387   6.825   4.276   3.910 -0.9702 -0.3530  0.3620
  380MOL0     H52388   6.691   4.390   3.869  0.1115  4.5404  1.7610
  380MOL0     H52389   7.046   4.399   4.007 -0.3936 -0.6203 -2.3918
  380MOL0     H52390   7.168   4.665   4.117  0.3515  2.2365 -0.3300
  380MOL0     H52391   7.132   4.771   3.987  1.7579 -0.3176 -2.4001
  380MOL0     H52392   7.298   4.523   3.942 -1.4963 -0.7931  6.2917
  380MOL0     H52393   7.230   4.651   3.827  3.3509  5.9603  0.6745
  380MOL0     H52394   7.390   4.810   3.965  5.3381  0.4360  0.5519
  380MOL0     H52395   7.455   4.668   4.033  1.6037  0.4175 -0.3437
  380MOL0     H52396   7.459   4.709   3.729  1.5827 -3.0624 -0.7615
  380MOL0     H52397   7.598   4.729   3.839 -0.2023  1.3049  0.7304
  380MOL0     H52398   7.569   4.288   3.834 -2.6677 -0.7844 -2.9801
  380MOL0     H52399   7.834   4.085   3.708  1.4517  4.9282 -1.6417
  380MOL0     H52400   7.699   4.071   3.610 -1.6577 -1.3016  0.8184
  380MOL0     H52401   7.681   4.102   3.791  0.1463  0.1494 -0.3279
  380MOL0     H52402   8.093   4.513   3.258 -0.8104 -0.7892 -3.9932
  380MOL0     H52403   8.227   4.425   3.086 -1.5208 -0.2582 -0.8070
  380MOL0     H52404   8.542   4.122   3.183  1.3514  2.8641 -2.1101
  380MOL0     H52405   8.412   4.011   3.140  0.0486 -0.1654 -1.0564
  380MOL0     H52406   8.626   4.133   2.962 -1.3989  0.4567  0.1455
  380MOL0     H52407   8.593   3.968   2.992  2.1204  1.2560  1.0153
  380MOL0     H52408   8.461   4.177   2.823  1.3167 -0.4023 -0.6185
  380MOL0     H52409   8.366   4.049   2.900  0.0669  3.2303  0.1104
  380MOL0     H52410   8.510   3.888   2.765  2.6763 -0.4947 -2.8533
  380MOL0     H52411   8.603   4.026   2.701  2.1768 -0.3557  1.0027
  380MOL0     H52412   8.298   3.973   2.653  0.2909  1.8575 -0.0274
  380MOL0     H52413   8.393   4.121   2.620  2.3633 -0.8563  0.5398
  380MOL0     H52414   8.453   3.867   2.478  0.4079  1.6623 -2.3205
  380MOL0     H52415   8.537   4.024   2.458  2.0926 -1.6069  1.8511
  380MOL0     H52416   8.367   3.950   2.287  0.5866 -1.4595  0.3176
  380MOL0     H52417   8.338   4.125   2.348 -2.4505 -0.0698 -0.7975
  380MOL0     H52418   8.154   4.001   2.294 -3.9985 -0.9680  1.2449
  380MOL0     H52419   8.158   4.056   2.471 -0.2797 -2.1183  1.0991
  380MOL0     H52420   8.296   4.064   3.315 -1.3114 -0.7654 -0.8551
  380MOL0     H52421   8.138   4.149   3.478  0.1559 -3.4366 -2.4950
  380MOL0     H52422   7.854   4.539   3.509 -1.3671 -0.9380 -1.5748
  380MOL0     H52423   7.662   4.651   3.624  1.1339  0.7666  3.6414
  380MOL0     H52424   5.985   3.953   3.842  3.0968 -1.9985  1.5997
  380MOL0     H52425   5.757   3.915   3.738 -1.6956 -1.2759 -2.4287
  380MOL0     H52426   5.474   3.860   3.686 -1.5020  0.5955  1.2679
  380MOL0     H52427   5.258   3.942   3.628 -0.5333  0.1569  0.1486
  380MOL0     H52428   4.905   3.677   3.744 -2.3156  0.9032  0.0714
  380MOL0     H52429   5.010   3.753   3.857  1.8350  2.4020 -0.7397
  380MOL0     H52430   4.905   3.971   3.816 -0.7998 -0.7461  2.0885
  380MOL0     H52431   4.807   3.849   3.880  0.1987 -1.5849  1.4167
  380MOL0     H52432   4.806   3.865   3.576 -1.5853 -0.3478 -0.8906
  380MOL0     H52433   4.684   3.809   3.677  0.7238 -0.6185  0.6930
  380MOL0     H52434   4.647   4.010   3.546 -0.0536 -0.3879  0.3569
  380MOL0     H52435   4.757   4.103   3.637 -0.1918  0.6836 -1.3905
  380MOL0     H52436   4.465   4.154   3.916 -0.5573  0.0016  0.0686
  380MOL0     H52437   5.114   3.535   3.679 -1.2981  0.6969  0.8968
  380MOL0     H52438   5.369   3.375   3.782 -1.9068  0.7433  1.4989
  380MOL0     H52439   5.247   3.349   3.654  1.3701 -1.3772 -0.3770
  380MOL0     H52440   5.403   3.365   3.607 -2.8695 -1.9248 -1.5211
  381MOL0     O52441   6.217   0.114   8.677 -0.8862  0.7336  0.6402
  381MOL0     C52442   6.316   0.183   8.651  0.0510 -0.4423 -0.8147
  381MOL0     O52443   6.404   0.156   8.556  0.0004 -0.0144  0.6564
  381MOL0     C52444   6.389   0.074   8.443 -0.0780 -1.4755  0.7167
  381MOL0     C52445   6.265   0.029   8.397 -0.5181 -0.5490 -0.1101
  381MOL0     C52446   6.263  -0.062   8.285  0.5314  1.3587 -0.3560
  381MOL0     C52447   6.383  -0.099   8.216 -0.1337 -0.9106 -0.2129
  381MOL0     O52448   6.396  -0.181   8.111  0.9162 -0.1789  0.8312
  381MOL0     C52449   6.331  -0.304   8.115 -0.2545 -0.5382  0.3130
  381MOL0     C52450   6.423  -0.416   8.171  0.3274  0.0940  1.0512
  381MOL0     C52451   6.544  -0.446   8.084 -0.1884  0.3116  0.5510
  381MOL0     C52452   6.619  -0.582   8.093  0.4796 -0.2526 -0.4199
  381MOL0     C52453   6.675  -0.574   8.241  0.3793 -0.5860 -0.5209
  381MOL0     C52454   6.774  -0.686   8.267 -0.3598  1.1823 -0.5069
  381MOL0     C52455   6.787  -0.713   8.424 -0.4765 -0.4456  0.1182
  381MOL0     C52456   6.882  -0.815   8.498 -0.0081 -0.3792  0.0307
  381MOL0     N52457   6.860  -0.959   8.445 -0.0065  0.1170 -0.9994
  381MOL0     C52458   6.837  -1.008   8.313  0.5816 -0.6489 -0.5476
  381MOL0     C52459   6.777  -1.125   8.317 -1.1296 -0.0813 -0.7016
  381MOL0     C52460   6.725  -1.198   8.197  0.6647 -0.6345  0.6318
  381MOL0     C52461   6.824  -1.272   8.117  0.5027 -0.7996  0.6209
  381MOL0     C52462   6.937  -1.348   8.197  0.6386  0.0781  0.9361
  381MOL0     C52463   7.029  -1.427   8.099  0.2507  0.8641  0.5281
  381MOL0     O52464   7.105  -1.508   8.185 -0.4001  0.1778 -0.1867
  381MOL0     C52465   7.080  -1.637   8.205 -0.5619  0.0983  0.6850
  381MOL0     C52466   6.960  -1.702   8.162 -0.4830 -0.1154  0.1984
  381MOL0     C52467   6.930  -1.835   8.194  0.0457  0.3364 -0.3475
  381MOL0     C52468   6.799  -1.912   8.145 -0.1179 -0.2298  0.2746
  381MOL0     C52469   7.034  -1.903   8.258  0.3315 -0.2840  0.6177
  381MOL0     C52470   7.031  -2.052   8.291 -0.4170  0.3260  0.9565
  381MOL0     O52471   7.044  -2.131   8.184 -0.3290  1.1673 -0.2396
  381MOL0     C52472   7.080  -2.265   8.192  1.2543  0.7334  0.8518
  381MOL0     C52473   7.095  -2.315   8.068  0.6497 -0.0751 -0.2803
  381MOL0     C52474   7.130  -2.446   8.045  0.1937  0.3340  0.1262
  381MOL0     C52475   7.144  -2.541   8.153  0.5887  0.0922  0.6461
  381MOL0     O52476   7.169  -2.674   8.141  0.4898  0.5308 -0.5062
  381MOL0     C52477   7.299  -2.716   8.125  0.0939 -0.4948  0.7638
  381MOL0     C52478   7.356  -2.784   8.251  0.4303 -0.2428 -0.4020
  381MOL0     C52479   7.512  -2.800   8.254  0.3742  0.1808  0.0785
  381MOL0     C52480   7.583  -2.677   8.277 -1.0257  0.0940 -0.0416
  381MOL0     C52481   7.722  -2.674   8.224 -0.4366  0.1108 -0.6612
  381MOL0     C52482   7.792  -2.536   8.242  0.9733  0.8348  0.2817
  381MOL0     C52483   7.924  -2.540   8.161 -0.7108  0.6305 -0.1030
  381MOL0     C52484   8.027  -2.442   8.213 -0.6922 -0.1288 -0.2473
  381MOL0    Cl52485   7.977  -2.286   8.179 -0.0791  0.2805 -0.0523
  381MOL0     C52486   7.128  -2.488   8.280 -0.2321  0.2533 -0.0941
  381MOL0     C52487   7.097  -2.355   8.303  0.1883  0.2157 -0.4331
  381MOL0     O52488   7.014  -2.080   8.406 -0.5720 -0.1380  0.1229
  381MOL0     C52489   7.146  -1.839   8.301 -0.4645  0.4804 -0.1784
  381MOL0     C52490   7.164  -1.706   8.287  0.2454  0.2928 -0.5177
  381MOL0     N52491   6.775  -1.162   8.449  0.2144  0.0636 -0.0613
  381MOL0     N52492   6.808  -1.056   8.521 -0.3460 -0.4111 -0.3487
  381MOL0     C52493   6.505  -0.037   8.261  0.4228  0.6356 -0.7878
  381MOL0     C52494   6.508   0.046   8.364  0.2610 -0.4584 -0.7039
  381MOL0     C52495   6.370   0.274   8.765 -0.2463  0.0249 -0.0199
  381MOL0     C52496   6.373   0.219   8.890 -1.4855 -0.3101 -0.0463
  381MOL0     C52497   6.448   0.265   9.002  0.0528  0.6368  0.2159
  381MOL0     C52498   6.514   0.382   8.992  0.0551  0.0676  0.0478
  381MOL0     O52499   6.583   0.433   9.099  0.0515  0.7119  0.6506
  381MOL0     C52500   6.682   0.536   9.070  0.0222 -0.1013 -1.7367
  381MOL0     C52501   6.751   0.570   9.206  0.7978 -0.0104 -1.5249
  381MOL0     C52502   6.849   0.463   9.244 -0.1360  0.0724 -0.2922
  381MOL0     C52503   6.922   0.507   9.369 -0.0809 -0.0435 -0.5671
  381MOL0     C52504   6.855   0.490   9.496  0.7473 -0.1831  0.7460
  381MOL0     C52505   6.793   0.482   9.601  0.4763  0.6341  0.6226
  381MOL0     C52506   6.505   0.450   8.873  0.6647 -0.9459  0.4632
  381MOL0     C52507   6.434   0.392   8.754  0.3102  0.3673 -0.1721
  381MOL0     C52508   6.447   0.466   8.616 -1.4172  1.0194  0.3121
  381MOL0     H52509   6.176   0.054   8.455 -0.1711  0.6832 -0.0778
  381MOL0     H52510   6.167  -0.097   8.248  1.8045 -1.5792 -1.2316
  381MOL0     H52511   6.309  -0.336   8.012  0.5059 -1.7489  0.5111
  381MOL0     H52512   6.234  -0.289   8.163 -0.8221  0.9879 -1.2110
  381MOL0     H52513   6.447  -0.386   8.273 -1.3696 -0.3142  1.6028
  381MOL0     H52514   6.358  -0.505   8.170  0.1290  0.1198 -2.2977
  381MOL0     H52515   6.516  -0.436   7.979  2.4846 -0.7619 -0.3710
  381MOL0     H52516   6.616  -0.364   8.095 -1.6209  1.3787  2.8379
  381MOL0     H52517   6.534  -0.651   8.088 -1.3848  1.9721 -1.9625
  381MOL0     H52518   6.694  -0.597   8.015  1.2650  2.9214 -0.4199
  381MOL0     H52519   6.590  -0.575   8.310  0.3062  0.7529 -0.5607
  381MOL0     H52520   6.722  -0.476   8.252 -0.6146 -0.1666  0.0949
  381MOL0     H52521   6.728  -0.776   8.224 -1.6714  0.4609  2.1937
  381MOL0     H52522   6.870  -0.663   8.221 -0.6647 -1.4411 -2.7264
  381MOL0     H52523   6.687  -0.750   8.450 -0.0859 -0.8561  1.1095
  381MOL0     H52524   6.797  -0.617   8.476 -0.4672  0.3477 -1.2967
  381MOL0     H52525   6.984  -0.777   8.490 -0.1284  0.0698  0.6067
  381MOL0     H52526   6.849  -0.813   8.602 -0.5222  1.2144 -0.1357
  381MOL0     H52527   6.851  -0.961   8.217 -1.1014 -0.8751 -0.9504
  381MOL0     H52528   6.647  -1.137   8.152 -2.9046 -1.6701  4.7390
  381MOL0     H52529   6.663  -1.272   8.248  1.6054  0.5343  3.6472
  381MOL0     H52530   6.771  -1.336   8.046 -2.2200  0.2459  1.5759
  381MOL0     H52531   6.870  -1.199   8.050 -0.0910 -1.8581 -1.0249
  381MOL0     H52532   7.001  -1.276   8.248 -1.9748  3.3341 -0.0240
  381MOL0     H52533   6.901  -1.415   8.276  1.0156  0.8090  1.7439
  381MOL0     H52534   6.968  -1.483   8.028 -1.1507  2.4269  0.4528
  381MOL0     H52535   7.075  -1.365   8.022 -0.4811 -1.2269 -1.7414
  381MOL0     H52536   6.874  -1.653   8.117 -0.7660 -0.2619  0.5748
  381MOL0     H52537   6.806  -1.946   8.041 -0.0699 -0.3766  0.3247
  381MOL0     H52538   6.712  -1.847   8.158 -1.3261 -1.6116 -0.5234
  381MOL0     H52539   6.782  -1.994   8.216  0.6226  0.1303  0.8804
  381MOL0     H52540   7.099  -2.253   7.979 -0.6981  0.2856 -0.1112
  381MOL0     H52541   7.142  -2.472   7.941  0.4150 -3.0920  0.8960
  381MOL0     H52542   7.292  -2.802   8.057 -1.4011  0.8409 -0.9036
  381MOL0     H52543   7.362  -2.649   8.066  0.2202 -2.4652 -1.4759
  381MOL0     H52544   7.301  -2.728   8.328  0.9117 -1.8139  1.1509
  381MOL0     H52545   7.313  -2.884   8.251  2.7266 -1.2954 -1.7070
  381MOL0     H52546   7.546  -2.838   8.157  1.4285  1.2901 -0.0203
  381MOL0     H52547   7.539  -2.870   8.333  0.7315  0.9588  0.6637
  381MOL0     H52548   7.578  -2.641   8.380 -3.4352 -3.4483  1.2801
  381MOL0     H52549   7.532  -2.601   8.216 -0.9259 -1.8326 -2.7326
  381MOL0     H52550   7.773  -2.753   8.280 -0.0869  1.3308  0.8147
  381MOL0     H52551   7.719  -2.696   8.117  1.7947 -0.8885 -0.5788
  381MOL0     H52552   7.811  -2.526   8.349  0.0845  0.3495  0.4950
  381MOL0     H52553   7.724  -2.455   8.214 -2.8772 -2.2642 -0.1365
  381MOL0     H52554   7.897  -2.513   8.059 -0.1196  2.4047  0.1828
  381MOL0     H52555   7.959  -2.644   8.161  1.4841  1.1689  3.3942
  381MOL0     H52556   8.119  -2.463   8.158 -2.0089 -3.4417 -1.4068
  381MOL0     H52557   8.042  -2.435   8.322  1.8316  3.5954 -0.6154
  381MOL0     H52558   7.121  -2.544   8.372  1.9587  2.6798  1.6724
  381MOL0     H52559   7.087  -2.320   8.405 -0.3384  3.2714 -1.4347
  381MOL0     H52560   7.225  -1.886   8.359  0.0404  2.1854  0.5642
  381MOL0     H52561   7.252  -1.657   8.329 -0.3845 -0.2765  1.6118
  381MOL0     H52562   6.600  -0.042   8.209 -0.6380 -0.2343 -2.7480
  381MOL0     H52563   6.595   0.098   8.402  0.1105 -1.3221  0.8965
  381MOL0     H52564   6.310   0.131   8.900 -3.9871  1.6657  5.3151
  381MOL0     H52565   6.440   0.209   9.094 -0.3110  3.2566  1.8805
  381MOL0     H52566   6.757   0.516   8.992  0.8002 -2.9114 -0.3880
  381MOL0     H52567   6.622   0.625   9.050  0.4939  1.3705  2.4485
  381MOL0     H52568   6.674   0.581   9.283  3.1969  0.8022  0.8905
  381MOL0     H52569   6.800   0.665   9.226 -0.4130  0.0886  1.4712
  381MOL0     H52570   6.793   0.369   9.251  0.5841 -0.4763 -1.5121
  381MOL0     H52571   6.925   0.448   9.167 -1.2117 -2.7585 -0.9240
  381MOL0     H52572   6.958   0.611   9.372  0.2251 -0.1597 -0.0680
  381MOL0     H52573   7.012   0.445   9.365  0.3600  0.6194 -1.2545
  381MOL0     H52574   6.738   0.473   9.693 -0.9811  0.8822 -0.1979
  381MOL0     H52575   6.564   0.539   8.851 -0.0270 -0.5505  0.1703
  381MOL0     H52576   6.358   0.458   8.553 -1.2903 -0.4400  0.2925
  381MOL0     H52577   6.466   0.573   8.630 -3.6235  1.2945  1.6521
  381MOL0     H52578   6.522   0.413   8.556  0.9381  3.1186  1.2228
  382MOL0     O52579   0.620   8.652   1.024  0.1589 -0.3170 -0.5593
  382MOL0     C52580   0.639   8.752   0.957  1.2657  0.0307  0.0754
  382MOL0     O52581   0.717   8.761   0.850 -0.3781 -0.1821 -1.0480
  382MOL0     C52582   0.814   8.673   0.831 -0.8802 -0.0539 -0.3320
  382MOL0     C52583   0.894   8.613   0.936 -0.1231  0.5643 -0.0842
  382MOL0     C52584   1.005   8.528   0.907 -0.4129  0.0853 -0.1203
  382MOL0     C52585   1.023   8.493   0.768  0.7853 -0.1270  0.3690
  382MOL0     O52586   1.127   8.417   0.718 -0.2798  0.5709  0.7932
  382MOL0     C52587   1.178   8.319   0.805 -0.1504  0.4933 -0.4000
  382MOL0     C52588   1.302   8.377   0.871 -0.7324 -0.4269 -0.0217
  382MOL0     C52589   1.360   8.268   0.958  0.1680  0.8540 -0.1005
  382MOL0     C52590   1.437   8.169   0.876  0.2070 -0.3830 -0.7222
  382MOL0     C52591   1.495   8.068   0.978 -0.0185  0.4046  0.1634
  382MOL0     C52592   1.592   7.964   0.923  0.6434  0.7508 -0.9991
  382MOL0     C52593   1.719   8.008   0.844  0.1218 -1.0667  0.1770
  382MOL0     C52594   1.789   7.902   0.758  0.3221  0.1483  0.5313
  382MOL0     N52595   1.710   7.790   0.714 -0.4091  0.2872  0.1303
  382MOL0     C52596   1.594   7.796   0.638  0.6512  0.4185  0.4941
  382MOL0     C52597   1.589   7.666   0.593 -0.8444 -0.3705  0.2218
  382MOL0     C52598   1.501   7.625   0.480 -0.5442 -0.0134 -0.5159
  382MOL0     C52599   1.376   7.553   0.533 -0.5958 -0.8047  0.3245
  382MOL0     C52600   1.383   7.391   0.524 -0.3858 -0.6303 -0.3889
  382MOL0     C52601   1.249   7.311   0.543 -0.2907  0.0797  0.4000
  382MOL0     O52602   1.194   7.366   0.667 -0.3712 -1.0106  0.1081
  382MOL0     C52603   1.096   7.298   0.731  0.3624 -0.0077  0.1941
  382MOL0     C52604   1.024   7.189   0.676 -0.1908  0.2805 -0.3790
  382MOL0     C52605   0.924   7.123   0.755 -0.4909 -0.0449  0.3373
  382MOL0     C52606   0.865   6.991   0.699  0.5992 -0.1099  0.0295
  382MOL0     C52607   0.881   7.173   0.885 -0.0154  0.7032  0.8373
  382MOL0     C52608   0.765   7.123   0.959 -0.4266  0.8563 -0.2746
  382MOL0     O52609   0.661   7.054   0.897 -0.4997 -0.0944 -0.0347
  382MOL0     C52610   0.560   7.008   0.969  1.0072 -0.0683 -0.9877
  382MOL0     C52611   0.568   6.979   1.104  0.4043 -0.8393 -0.3582
  382MOL0     C52612   0.460   6.929   1.174 -0.9712 -0.1066  0.3302
  382MOL0     C52613   0.332   6.936   1.126 -0.4768 -0.2439  0.0756
  382MOL0     O52614   0.227   6.916   1.205  0.1321  0.7461 -0.2873
  382MOL0     C52615   0.207   7.002   1.316  0.1337  0.3384 -1.0322
  382MOL0     C52616   0.067   7.054   1.315 -1.1496  0.4692  0.3893
  382MOL0     C52617   0.028   7.150   1.205 -0.4610  0.0756 -0.5478
  382MOL0     C52618   0.082   7.291   1.231 -0.7504  0.3758 -0.1419
  382MOL0     C52619   0.009   7.391   1.133  0.0941  1.1328 -0.3422
  382MOL0     C52620   0.020   7.535   1.184  0.3804  0.5333  0.2435
  382MOL0     C52621  -0.022   7.640   1.075  0.4988 -0.5127 -0.2751
  382MOL0     C52622  -0.028   7.788   1.129  0.0298 -0.0291  0.1877
  382MOL0    Cl52623  -0.021   7.813   1.305  0.5852 -0.0983  0.0664
  382MOL0     C52624   0.309   6.984   0.992 -1.0732 -0.6454  0.1229
  382MOL0     C52625   0.430   7.013   0.918  0.2988  0.7271  0.1768
  382MOL0     O52626   0.761   7.181   1.065  0.8259  0.8915 -0.6945
  382MOL0     C52627   0.953   7.288   0.924 -1.4244  0.3885 -1.3513
  382MOL0     C52628   1.051   7.351   0.848  0.7874  0.0704 -0.6982
  382MOL0     N52629   1.688   7.591   0.650  0.1551 -0.2346  1.4936
  382MOL0     N52630   1.762   7.665   0.726 -0.2774  0.7925  0.5543
  382MOL0     C52631   0.948   8.558   0.672 -0.7033 -0.0174 -0.2446
  382MOL0     C52632   0.836   8.632   0.697  0.4712  0.7244 -0.2942
  382MOL0     C52633   0.557   8.876   0.988  0.3350 -0.9060 -0.5660
  382MOL0     C52634   0.512   8.905   1.118 -1.0498 -0.7135 -0.7023
  382MOL0     C52635   0.432   9.018   1.154  0.1374 -0.3251 -0.6125
  382MOL0     C52636   0.406   9.112   1.057 -0.1251 -0.5269  0.2124
  382MOL0     O52637   0.336   9.231   1.096 -0.0532 -0.3084 -0.8195
  382MOL0     C52638   0.279   9.330   1.009  0.3094 -0.1226 -0.5956
  382MOL0     C52639   0.149   9.278   0.934 -1.2771 -0.6720 -0.3658
  382MOL0     C52640   0.056   9.207   1.016  1.0851  0.4917  0.5909
  382MOL0     C52641  -0.001   9.279   1.136 -0.4542  0.3165 -0.0241
  382MOL0     C52642  -0.092   9.199   1.204  0.2219 -0.3526 -0.3348
  382MOL0     C52643  -0.164   9.137   1.282 -0.0411 -0.6422 -0.0836
  382MOL0     C52644   0.440   9.079   0.924 -0.2118 -0.3801 -0.0574
  382MOL0     C52645   0.513   8.958   0.882  0.4704 -0.5548 -0.4760
  382MOL0     C52646   0.524   8.942   0.735  0.0147  0.5559  0.6183
  382MOL0     H52647   0.887   8.640   1.040  0.8975  4.2363 -0.8314
  382MOL0     H52648   1.066   8.493   0.989 -1.5102  0.7115  1.0038
  382MOL0     H52649   1.202   8.233   0.742 -2.3563 -0.3627 -0.1490
  382MOL0     H52650   1.092   8.298   0.868 -1.5477 -1.9069 -2.9301
  382MOL0     H52651   1.361   8.405   0.783 -2.2498 -0.5249 -1.1080
  382MOL0     H52652   1.279   8.475   0.914 -1.8917  0.6023 -2.7040
  382MOL0     H52653   1.428   8.307   1.033  1.0977 -2.3357  0.8954
  382MOL0     H52654   1.289   8.213   1.020  1.8095 -0.4214  0.7333
  382MOL0     H52655   1.377   8.105   0.810  2.9567 -2.9537 -0.9324
  382MOL0     H52656   1.522   8.217   0.827 -0.3240  0.7949 -0.5329
  382MOL0     H52657   1.428   8.019   1.049  3.3146 -1.5665  2.2250
  382MOL0     H52658   1.560   8.133   1.038  0.3034 -1.8825  2.4467
  382MOL0     H52659   1.620   7.889   0.997 -0.4144  0.6797 -0.6617
  382MOL0     H52660   1.532   7.905   0.854  4.0342 -2.2567 -1.7060
  382MOL0     H52661   1.777   8.058   0.923 -0.3122  1.4590 -0.9904
  382MOL0     H52662   1.684   8.087   0.777 -1.4302  0.4866  2.6318
  382MOL0     H52663   1.807   7.947   0.660 -1.7472 -4.3050 -2.2642
  382MOL0     H52664   1.882   7.871   0.808  1.5742 -0.4190 -1.9366
  382MOL0     H52665   1.538   7.883   0.603 -1.9385 -2.0688 -2.2072
  382MOL0     H52666   1.553   7.569   0.402 -0.6914  3.0632 -3.0480
  382MOL0     H52667   1.457   7.709   0.425 -5.0055 -1.4562  0.4807
  382MOL0     H52668   1.359   7.579   0.638 -1.3382 -0.7510  0.2005
  382MOL0     H52669   1.285   7.585   0.481 -0.3878 -0.6089  0.0805
  382MOL0     H52670   1.410   7.371   0.420 -0.0052 -0.2165 -0.3720
  382MOL0     H52671   1.457   7.354   0.597  0.3113  0.2957 -0.6047
  382MOL0     H52672   1.182   7.308   0.457 -2.5453  0.6827  2.0445
  382MOL0     H52673   1.286   7.211   0.569 -0.9202 -0.3130 -0.1733
  382MOL0     H52674   1.056   7.154   0.579 -0.1045 -1.9807  0.4001
  382MOL0     H52675   0.917   6.956   0.609 -0.9318 -2.0567 -0.1740
  382MOL0     H52676   0.770   7.006   0.646  1.4024  0.0611 -1.4296
  382MOL0     H52677   0.856   6.913   0.774  0.1509 -1.2319 -1.1482
  382MOL0     H52678   0.666   6.981   1.151  0.0065 -0.3964  0.4640
  382MOL0     H52679   0.494   6.901   1.273 -0.7353  0.8604  0.5243
  382MOL0     H52680   0.212   6.942   1.407  2.4073 -0.4498 -1.6022
  382MOL0     H52681   0.274   7.088   1.319 -0.4694  0.7902 -0.5654
  382MOL0     H52682   0.008   6.962   1.309 -1.5440  0.8272 -1.9432
  382MOL0     H52683   0.046   7.096   1.414  3.1133 -0.3335  1.8616
  382MOL0     H52684  -0.081   7.159   1.198 -0.4652  0.8150  0.1506
  382MOL0     H52685   0.058   7.097   1.115  0.9746  0.6007 -0.3969
  382MOL0     H52686   0.189   7.301   1.212 -0.5289  1.3112  1.4062
  382MOL0     H52687   0.076   7.317   1.337 -0.0495 -1.2405  0.3182
  382MOL0     H52688   0.055   7.383   1.035 -0.7594 -1.9269 -0.5916
  382MOL0     H52689  -0.096   7.374   1.107  0.3582 -0.3658 -0.5281
  382MOL0     H52690   0.124   7.553   1.213  0.5771 -0.7809  0.4182
  382MOL0     H52691  -0.052   7.550   1.265  0.2715  1.4038 -0.0125
  382MOL0     H52692  -0.125   7.611   1.050  1.5935 -4.0262 -1.2169
  382MOL0     H52693   0.041   7.629   0.987 -0.1203 -0.5198 -0.7253
  382MOL0     H52694  -0.118   7.839   1.093  0.8066  2.3485  1.4222
  382MOL0     H52695   0.054   7.846   1.086  0.9142 -2.8421 -2.3128
  382MOL0     H52696   0.209   6.991   0.952 -1.8625 -0.8716  1.9626
  382MOL0     H52697   0.418   7.048   0.817 -0.0082  2.8154  0.8867
  382MOL0     H52698   0.932   7.327   1.023 -1.3552 -2.9355  0.0743
  382MOL0     H52699   1.101   7.442   0.880  0.2428  0.2587 -0.3608
  382MOL0     H52700   0.973   8.534   0.569 -0.5865 -2.8581  0.3555
  382MOL0     H52701   0.776   8.657   0.611 -1.1326  0.5913  0.7407
  382MOL0     H52702   0.535   8.827   1.189 -3.6041  0.2180  1.3062
  382MOL0     H52703   0.397   9.016   1.257  2.6537  2.0144  0.4099
  382MOL0     H52704   0.260   9.420   1.067  0.6629 -0.4427  0.0175
  382MOL0     H52705   0.357   9.362   0.938 -1.1816  2.0014 -1.3919
  382MOL0     H52706   0.173   9.205   0.856 -2.3994 -1.1957 -0.2481
  382MOL0     H52707   0.100   9.368   0.895 -2.1071 -0.3332  1.3429
  382MOL0     H52708  -0.024   9.206   0.942  0.7491  1.5151  0.9175
  382MOL0     H52709   0.090   9.105   1.036  0.5406  0.2968  0.5387
  382MOL0     H52710  -0.060   9.357   1.087  2.8526  1.1489 -3.1494
  382MOL0     H52711   0.070   9.323   1.206 -1.4544  0.1777  1.1024
  382MOL0     H52712  -0.234   9.079   1.338 -1.8172 -1.4958 -2.9802
  382MOL0     H52713   0.391   9.137   0.846 -0.9774 -3.0471 -1.7096
  382MOL0     H52714   0.525   8.836   0.708 -0.3698  0.3496  1.3702
  382MOL0     H52715   0.438   8.992   0.691  0.2057  0.8007  0.5249
  382MOL0     H52716   0.615   8.992   0.702 -0.7059  1.2581 -0.3498
  383MOL0     O52717   7.356   5.371   2.749 -0.8089 -0.2812  0.7736
  383MOL0     C52718   7.240   5.378   2.712  0.1692 -1.3599  0.7367
  383MOL0     O52719   7.189   5.482   2.631 -0.1054  0.8547 -0.4298
  383MOL0     C52720   7.263   5.593   2.620 -0.4839  0.6211  0.0566
  383MOL0     C52721   7.241   5.706   2.707 -0.5299 -0.0440  0.2560
  383MOL0     C52722   7.304   5.832   2.680 -0.3400 -0.5439  0.2123
  383MOL0     C52723   7.369   5.849   2.554 -0.0628  0.0002  0.0008
  383MOL0     O52724   7.436   5.969   2.536 -0.3360  0.2427 -0.9017
  383MOL0     C52725   7.423   6.035   2.408  0.2639 -0.1495 -0.2580
  383MOL0     C52726   7.523   6.163   2.414  0.2184  0.5061 -0.5695
  383MOL0     C52727   7.451   6.292   2.470 -0.3504  0.3696  0.0278
  383MOL0     C52728   7.337   6.346   2.379  0.2899 -1.0670 -0.2063
  383MOL0     C52729   7.203   6.332   2.450 -0.5552 -0.4028  0.0267
  383MOL0     C52730   7.108   6.410   2.371 -0.0032 -0.2023  0.2331
  383MOL0     C52731   6.969   6.396   2.432  0.0644 -0.2059  0.5183
  383MOL0     C52732   6.875   6.474   2.349  0.8667  0.7777 -0.1800
  383MOL0     N52733   6.906   6.618   2.332  0.5854  0.8697  1.2143
  383MOL0     C52734   6.877   6.717   2.423 -0.3224 -0.4904  0.0254
  383MOL0     C52735   6.912   6.825   2.353  0.5203  0.9722  0.3816
  383MOL0     C52736   6.888   6.965   2.395 -1.6077 -0.1463  0.6282
  383MOL0     C52737   6.791   7.040   2.301  0.7250 -0.4676  0.2218
  383MOL0     C52738   6.643   7.006   2.319  0.6795  0.1401 -0.7866
  383MOL0     C52739   6.545   7.096   2.247 -0.0959 -0.1162 -0.0671
  383MOL0     O52740   6.550   7.236   2.281  0.2324  0.2161  0.2327
  383MOL0     C52741   6.425   7.275   2.327  0.3267  0.2239  0.5610
  383MOL0     C52742   6.317   7.283   2.240  0.3759 -0.6672 -0.7398
  383MOL0     C52743   6.185   7.306   2.281 -1.2458  0.5357  0.3809
  383MOL0     C52744   6.095   7.315   2.159  0.6194  0.5325 -0.1556
  383MOL0     C52745   6.155   7.324   2.429 -0.0853 -0.0801  0.3382
  383MOL0     C52746   6.018   7.369   2.472  0.3380 -0.0829 -0.0640
  383MOL0     O52747   5.931   7.407   2.380  0.5412 -0.2325 -0.6437
  383MOL0     C52748   5.798   7.427   2.406 -0.0089  0.1378  0.0637
  383MOL0     C52749   5.734   7.483   2.295  0.6238  0.4160 -0.6812
  383MOL0     C52750   5.595   7.502   2.296  0.2409 -0.5196  0.3467
  383MOL0     C52751   5.519   7.475   2.412 -0.2044 -0.8409 -0.1230
  383MOL0     O52752   5.385   7.494   2.427 -0.0062  0.6310  0.1841
  383MOL0     C52753   5.335   7.632   2.452 -0.0218 -0.6913  0.8536
  383MOL0     C52754   5.262   7.684   2.323 -0.6733 -0.4725 -0.3717
  383MOL0     C52755   5.215   7.831   2.335  0.1492 -0.2726 -0.1804
  383MOL0     C52756   5.237   7.901   2.202 -0.6205 -0.1157  0.3299
  383MOL0     C52757   5.348   8.007   2.223  0.2269  0.0640  0.5122
  383MOL0     C52758   5.495   7.968   2.187  0.4453 -0.6270  0.1577
  383MOL0     C52759   5.522   7.866   2.087 -0.1852 -0.6415  0.1908
  383MOL0     C52760   5.484   7.902   1.940  0.2201  0.4871  0.5314
  383MOL0    Cl52761   5.585   8.033   1.895  0.2639 -0.2936 -0.0219
  383MOL0     C52762   5.584   7.417   2.520 -1.0811  0.1004  0.5547
  383MOL0     C52763   5.719   7.376   2.512 -0.1071  0.6775 -0.1432
  383MOL0     O52764   6.006   7.380   2.594 -0.6440  0.2368  0.1899
  383MOL0     C52765   6.266   7.315   2.524 -0.7262 -0.0624 -0.0835
  383MOL0     C52766   6.396   7.299   2.463  0.1709  0.9179 -0.3171
  383MOL0     N52767   6.971   6.798   2.225 -0.4719  0.2010  0.5603
  383MOL0     N52768   6.957   6.667   2.213 -0.0103 -0.6704  0.5404
  383MOL0     C52769   7.398   5.730   2.478 -0.0401  0.6421  0.5549
  383MOL0     C52770   7.338   5.610   2.509 -0.4986 -1.0132  0.5417
  383MOL0     C52771   7.160   5.262   2.757 -0.7150 -0.4180 -0.2355
  383MOL0     C52772   7.025   5.262   2.712  0.2002  0.9649 -0.3690
  383MOL0     C52773   6.941   5.151   2.744  0.8289  0.8361  0.9263
  383MOL0     C52774   6.983   5.044   2.819 -0.1716 -0.0364 -0.5085
  383MOL0     O52775   6.912   4.922   2.836 -0.3991 -0.6052 -0.5578
  383MOL0     C52776   6.789   4.893   2.763  0.6539 -0.9599  1.2174
  383MOL0     C52777   6.824   4.844   2.624  0.6151  0.1829  0.3032
  383MOL0     C52778   6.836   4.700   2.604 -0.2989 -0.3208 -0.4392
  383MOL0     C52779   6.948   4.639   2.686  0.0985 -0.6618  0.4836
  383MOL0     C52780   6.956   4.501   2.648 -0.0898 -0.0986 -0.0539
  383MOL0     C52781   6.982   4.379   2.620 -0.1480 -1.1329  0.7452
  383MOL0     C52782   7.114   5.050   2.867 -1.4514 -0.0688  0.3689
  383MOL0     C52783   7.202   5.154   2.838 -0.3570  0.1865 -0.0329
  383MOL0     C52784   7.338   5.154   2.905 -0.6930  1.4828 -1.2001
  383MOL0     H52785   7.173   5.701   2.791 -1.2909  3.9576  0.0667
  383MOL0     H52786   7.298   5.911   2.754  0.9821 -0.8823  0.6965
  383MOL0     H52787   7.320   6.063   2.385  0.4104 -0.5558 -1.4863
  383MOL0     H52788   7.457   5.970   2.327  0.1376 -0.6693  0.1036
  383MOL0     H52789   7.607   6.141   2.481 -1.2392  0.0895  1.1837
  383MOL0     H52790   7.557   6.191   2.314 -0.7871 -1.6383 -1.5902
  383MOL0     H52791   7.425   6.275   2.574 -0.5716  0.1707 -0.0596
  383MOL0     H52792   7.524   6.372   2.454 -0.3413 -0.2075 -4.1250
  383MOL0     H52793   7.360   6.448   2.348 -1.6731 -0.2636  0.8428
  383MOL0     H52794   7.328   6.280   2.291 -2.2590 -3.1066  1.4346
  383MOL0     H52795   7.209   6.377   2.550  0.9101 -1.0340  0.2562
  383MOL0     H52796   7.164   6.230   2.445 -3.0098  0.4098  0.9751
  383MOL0     H52797   7.144   6.514   2.376 -0.1988 -0.1064 -0.3206
  383MOL0     H52798   7.111   6.377   2.267 -0.1341 -2.7037  0.9639
  383MOL0     H52799   6.976   6.437   2.533 -1.5684  1.4741  0.0226
  383MOL0     H52800   6.948   6.289   2.441  0.8521 -0.4504 -0.4869
  383MOL0     H52801   6.852   6.426   2.253  2.1164  0.3376 -0.2726
  383MOL0     H52802   6.785   6.467   2.410 -0.9597 -1.4686 -2.8679
  383MOL0     H52803   6.837   6.724   2.523 -1.1727  1.3587 -0.3991
  383MOL0     H52804   6.989   7.004   2.387 -1.1592 -1.1560  1.1687
  383MOL0     H52805   6.863   6.975   2.501 -2.1718 -0.9171  0.5777
  383MOL0     H52806   6.802   7.148   2.314 -0.5527 -0.1000 -1.3956
  383MOL0     H52807   6.817   7.019   2.197 -2.0884 -0.1462 -0.6501
  383MOL0     H52808   6.625   6.905   2.281 -1.3612  1.2933 -3.1213
  383MOL0     H52809   6.619   7.022   2.425  2.0878  2.1558 -0.7311
  383MOL0     H52810   6.565   7.091   2.140 -1.5420  0.8201 -0.4154
  383MOL0     H52811   6.448   7.046   2.248  0.4287 -1.2183 -1.1142
  383MOL0     H52812   6.333   7.271   2.133 -1.0331 -3.7160 -0.7072
  383MOL0     H52813   6.135   7.296   2.060  0.2785  0.0869 -0.2159
  383MOL0     H52814   6.061   7.419   2.155 -2.0321 -0.2953 -1.3614
  383MOL0     H52815   6.014   7.242   2.172  1.5319 -1.0702 -2.8592
  383MOL0     H52816   5.794   7.485   2.205  1.7550 -4.7708 -0.3271
  383MOL0     H52817   5.539   7.535   2.209  0.2690 -6.1935 -2.2552
  383MOL0     H52818   5.253   7.627   2.524 -1.0190  2.2046  0.0696
  383MOL0     H52819   5.415   7.694   2.493  0.0396  0.3902 -0.7963
  383MOL0     H52820   5.327   7.667   2.236 -0.1919  1.8565 -0.5501
  383MOL0     H52821   5.178   7.618   2.304 -1.0940 -0.3935  1.0991
  383MOL0     H52822   5.267   7.877   2.419 -0.8621  0.3914  0.1076
  383MOL0     H52823   5.109   7.838   2.363 -0.8118 -0.8890 -3.2411
  383MOL0     H52824   5.138   7.946   2.186 -1.7296 -1.6514  2.3121
  383MOL0     H52825   5.271   7.824   2.132  0.8527  0.6079  0.2050
  383MOL0     H52826   5.323   8.093   2.162  1.3043  0.3107  0.3935
  383MOL0     H52827   5.358   8.055   2.321  1.8027  2.7715 -0.8601
  383MOL0     H52828   5.541   7.948   2.284 -2.7311  1.3995  2.2897
  383MOL0     H52829   5.534   8.064   2.150 -4.1139  1.8772  1.1076
  383MOL0     H52830   5.471   7.775   2.120  2.3757 -1.6420  1.6926
  383MOL0     H52831   5.628   7.840   2.089 -0.4030 -1.7503  3.6952
  383MOL0     H52832   5.375   7.917   1.936 -0.3540 -2.9097  0.5575
  383MOL0     H52833   5.505   7.823   1.867 -0.9476  0.2225  0.4566
  383MOL0     H52834   5.532   7.381   2.608 -0.2229 -0.3801  0.8821
  383MOL0     H52835   5.771   7.316   2.586  0.2129 -1.6644 -2.1065
  383MOL0     H52836   6.275   7.337   2.630  1.2725 -2.6154  0.3741
  383MOL0     H52837   6.490   7.301   2.517  0.2279  0.6080 -0.4009
  383MOL0     H52838   7.453   5.732   2.384  3.5421  0.5658  2.4826
  383MOL0     H52839   7.338   5.527   2.439 -0.4594 -1.4772  1.0824
  383MOL0     H52840   6.983   5.341   2.650  1.2278 -1.7940 -5.0058
  383MOL0     H52841   6.839   5.164   2.709  1.4708 -0.8372 -1.8412
  383MOL0     H52842   6.728   4.813   2.807  0.4536 -0.3160  2.1504
  383MOL0     H52843   6.727   4.982   2.764  0.1817 -1.2869  1.0816
  383MOL0     H52844   6.913   4.898   2.591  0.9467 -0.8641 -0.5502
  383MOL0     H52845   6.743   4.875   2.557  2.3643  1.7913 -1.1752
  383MOL0     H52846   6.736   4.658   2.617 -0.2649 -1.6997 -3.6247
  383MOL0     H52847   6.860   4.683   2.499  4.9654  0.5041  0.3843
  383MOL0     H52848   6.927   4.659   2.792 -0.8378  2.8041 -0.2288
  383MOL0     H52849   7.045   4.681   2.657  0.6444 -0.1796  2.7943
  383MOL0     H52850   7.021   4.284   2.589 -1.1474 -0.7511 -1.9771
  383MOL0     H52851   7.161   4.973   2.928 -1.3350  1.5736  2.4572
  383MOL0     H52852   7.423   5.130   2.840 -0.7045 -0.0749 -0.6626
  383MOL0     H52853   7.349   5.254   2.948 -0.8125  1.3651 -0.8984
  383MOL0     H52854   7.342   5.087   2.991 -1.0856  1.5321 -1.1450
  384MOL0     O52855   7.771   0.138   9.693  0.1106 -0.2621 -0.3396
  384MOL0     C52856   7.895   0.114   9.683 -0.5904 -0.5748 -0.4915
  384MOL0     O52857   7.964   0.001   9.731  0.0532  0.0406 -0.7154
  384MOL0     C52858   7.896  -0.106   9.770  0.3154 -0.2776 -0.0823
  384MOL0     C52859   7.935  -0.223   9.712  0.0134  0.2677  0.3392
  384MOL0     C52860   7.883  -0.347   9.756 -0.2770 -0.3658 -0.0784
  384MOL0     C52861   7.785  -0.356   9.852 -0.0922  0.5978 -0.4795
  384MOL0     O52862   7.711  -0.461   9.890  0.2418 -0.4364 -0.3394
  384MOL0     C52863   7.691  -0.564   9.792 -0.1542 -0.0466  0.3230
  384MOL0     C52864   7.565  -0.648   9.832 -0.8123  0.1015  0.7160
  384MOL0     C52865   7.436  -0.585   9.790  0.5047 -0.6950 -0.0087
  384MOL0     C52866   7.322  -0.639   9.872  0.4391  0.2882  0.4463
  384MOL0     C52867   7.189  -0.595   9.814 -0.6418  0.0595 -0.1458
  384MOL0     C52868   7.175  -0.449   9.841  0.1612 -0.5873 -1.4593
  384MOL0     C52869   7.126  -0.379   9.719  0.0498 -0.0509  0.1047
  384MOL0     C52870   7.105  -0.234   9.747  0.7397  0.5004 -0.0771
  384MOL0     N52871   7.054  -0.160   9.632  0.4021 -0.1085  0.4958
  384MOL0     C52872   6.926  -0.173   9.592  0.9986 -0.2164  0.4122
  384MOL0     C52873   6.913  -0.097   9.479  0.7716 -0.0169 -0.0048
  384MOL0     C52874   6.808  -0.097   9.370  0.0065  0.3068 -0.0823
  384MOL0     C52875   6.770   0.052   9.343  0.0465  0.7523  0.0414
  384MOL0     C52876   6.681   0.118   9.456  0.4390  0.1306 -0.0869
  384MOL0     C52877   6.735   0.119   9.597  0.2233 -0.5650 -0.2530
  384MOL0     O52878   6.655   0.184   9.690 -0.0661 -0.4440  0.1494
  384MOL0     C52879   6.715   0.183   9.816  0.9863 -0.5278  0.2487
  384MOL0     C52880   6.836   0.121   9.858 -0.9495 -0.6176  0.4978
  384MOL0     C52881   6.904   0.133   9.983 -0.4805 -1.0946 -0.4943
  384MOL0     C52882   7.035   0.062  10.006  0.5861 -0.4704 -0.8245
  384MOL0     C52883   6.826   0.207  10.080  0.1953  0.4633 -0.0031
  384MOL0     C52884   6.872   0.217  10.217 -1.1317 -0.5582 -0.5244
  384MOL0     O52885   6.963   0.124  10.273  0.1987 -1.4192  0.3239
  384MOL0     C52886   7.027   0.133  10.391 -0.7182  0.8556  0.0407
  384MOL0     C52887   7.105   0.017  10.422  0.1928  0.4572 -0.7613
  384MOL0     C52888   7.179   0.007  10.539 -0.3281  0.2468  0.3664
  384MOL0     C52889   7.178   0.101  10.635  0.5463  1.3109 -0.3330
  384MOL0     O52890   7.262   0.087  10.740  0.6613  0.0465 -0.5285
  384MOL0     C52891   7.186   0.040  10.852 -0.5733 -0.1875 -0.3668
  384MOL0     C52892   7.289   0.008  10.962  0.5576  0.0715  0.5643
  384MOL0     C52893   7.367  -0.125  10.944 -0.1232  0.1056 -0.1469
  384MOL0     C52894   7.418  -0.185  11.073 -0.2937 -0.7914  0.2594
  384MOL0     C52895   7.457  -0.327  11.051  0.1124  0.3405  0.2984
  384MOL0     C52896   7.541  -0.389  11.166  0.5825  0.1411  0.5976
  384MOL0     C52897   7.679  -0.322  11.213 -0.2535 -0.2848 -0.4990
  384MOL0     C52898   7.798  -0.389  11.147  0.1869 -0.9488  0.1499
  384MOL0    Cl52899   7.958  -0.325  11.197  0.0040  0.3631 -0.2501
  384MOL0     C52900   7.119   0.227  10.608  0.0750 -0.4700  0.4546
  384MOL0     C52901   7.041   0.247  10.483  0.0429  0.1195  0.9850
  384MOL0     O52902   6.832   0.319  10.277  0.2496 -0.0177  0.6103
  384MOL0     C52903   6.697   0.261  10.051 -0.3794 -1.4600  0.7656
  384MOL0     C52904   6.640   0.258   9.916 -0.0129 -0.1755 -0.0613
  384MOL0     N52905   7.038  -0.039   9.460 -0.1744 -0.8168 -0.1758
  384MOL0     N52906   7.126  -0.076   9.555 -0.0399 -0.6445  0.1949
  384MOL0     C52907   7.742  -0.236   9.913  0.3845  0.4323  0.7093
  384MOL0     C52908   7.793  -0.108   9.867 -0.2529  0.1984 -1.2557
  384MOL0     C52909   7.995   0.217   9.638  0.8350  0.8659 -0.8170
  384MOL0     C52910   8.124   0.214   9.690  0.0586 -0.7866  0.6391
  384MOL0     C52911   8.231   0.285   9.627 -0.7205 -0.2548  0.2268
  384MOL0     C52912   8.201   0.370   9.522  0.0477 -0.3723 -0.6621
  384MOL0     O52913   8.294   0.456   9.475  0.1374  0.5971  0.7330
  384MOL0     C52914   8.389   0.396   9.391 -0.8434  0.4206 -0.1703
  384MOL0     C52915   8.415   0.504   9.282  0.6187 -0.0154  0.2805
  384MOL0     C52916   8.433   0.646   9.334 -0.0079 -0.2884 -0.4678
  384MOL0     C52917   8.539   0.729   9.254  0.7919  0.6930 -0.9344
  384MOL0     C52918   8.475   0.780   9.121  0.8723  0.1440  0.0864
  384MOL0     C52919   8.408   0.807   9.020  0.0148  0.3093 -0.6431
  384MOL0     C52920   8.070   0.377   9.483 -0.2070 -0.7722 -0.4422
  384MOL0     C52921   7.966   0.305   9.541  0.4357  0.0807  1.1060
  384MOL0     C52922   7.832   0.326   9.475  0.9338  0.2608 -0.2984
  384MOL0     H52923   8.018  -0.209   9.643 -0.6580  1.7765 -0.1988
  384MOL0     H52924   7.930  -0.435   9.713 -1.7543  0.2029 -3.1989
  384MOL0     H52925   7.778  -0.631   9.795  0.1790  0.2761 -1.1839
  384MOL0     H52926   7.686  -0.519   9.692  2.3354  1.3399  0.7114
  384MOL0     H52927   7.565  -0.748   9.789 -5.1200 -0.0481  0.6665
  384MOL0     H52928   7.568  -0.664   9.940  2.2832 -0.2642  0.6791
  384MOL0     H52929   7.435  -0.477   9.808  0.1877 -0.7469  0.3112
  384MOL0     H52930   7.419  -0.592   9.683 -1.3478 -0.2543  0.2295
  384MOL0     H52931   7.325  -0.748   9.878 -4.1008 -0.2321 -2.4087
  384MOL0     H52932   7.332  -0.598   9.974 -0.9108  1.4074  0.1585
  384MOL0     H52933   7.105  -0.650   9.859 -1.4028 -0.3364 -1.9267
  384MOL0     H52934   7.193  -0.614   9.706 -0.9342 -0.8213 -0.0154
  384MOL0     H52935   7.092  -0.435   9.911 -0.2693 -1.3250 -1.8064
  384MOL0     H52936   7.267  -0.400   9.872 -0.4385 -0.0641 -0.4290
  384MOL0     H52937   7.028  -0.422   9.697  0.5068 -1.4507  0.7208
  384MOL0     H52938   7.198  -0.398   9.639  2.8059  1.9021  1.9592
  384MOL0     H52939   7.051  -0.200   9.836  1.4218  2.9002 -0.5084
  384MOL0     H52940   7.204  -0.194   9.773  0.1765  2.7026 -1.1338
  384MOL0     H52941   6.852  -0.229   9.649 -0.1161  1.0509  0.2649
  384MOL0     H52942   6.722  -0.152   9.409  0.2375  0.9101  1.3313
  384MOL0     H52943   6.838  -0.136   9.272  1.8083  2.3519 -0.4235
  384MOL0     H52944   6.858   0.112   9.318  2.1619 -1.4869  1.6656
  384MOL0     H52945   6.703   0.051   9.256 -3.5590 -0.5748  2.5540
  384MOL0     H52946   6.680   0.224   9.429  1.5604  0.6001  1.5854
  384MOL0     H52947   6.581   0.073   9.458 -0.0565  1.2250  1.0519
  384MOL0     H52948   6.724   0.016   9.631 -1.3015 -0.1034  0.7584
  384MOL0     H52949   6.837   0.157   9.583 -0.6688  1.1323 -2.9794
  384MOL0     H52950   6.878   0.051   9.787 -0.5784 -0.3593  0.4594
  384MOL0     H52951   7.021  -0.026  10.069 -0.2623  1.4231  1.8582
  384MOL0     H52952   7.102   0.130  10.060 -2.5767  1.2842  1.2369
  384MOL0     H52953   7.080   0.027   9.913  1.2592 -0.2504 -0.5864
  384MOL0     H52954   7.099  -0.069  10.355 -0.0955  1.6213 -2.3060
  384MOL0     H52955   7.223  -0.091  10.549  0.6678 -0.0566 -4.5648
  384MOL0     H52956   7.129   0.129  10.882  2.3325  1.9587 -0.7510
  384MOL0     H52957   7.130  -0.047  10.818 -0.2408  0.7176 -3.5257
  384MOL0     H52958   7.347   0.101  10.972 -0.8855  1.7208 -3.8529
  384MOL0     H52959   7.233  -0.001  11.056  0.7174  1.0662  0.7723
  384MOL0     H52960   7.448  -0.111  10.872  1.8470 -0.6285  1.8283
  384MOL0     H52961   7.305  -0.196  10.888  2.4913 -3.5928  1.2417
  384MOL0     H52962   7.347  -0.199  11.155  1.5497 -0.9616  1.9076
  384MOL0     H52963   7.496  -0.121  11.114 -2.2179 -0.2452  3.3588
  384MOL0     H52964   7.374  -0.393  11.025  0.5526  0.1328 -0.6217
  384MOL0     H52965   7.515  -0.326  10.958 -3.5103 -1.2259 -2.2339
  384MOL0     H52966   7.573  -0.492  11.147  1.6831  0.2406  1.7899
  384MOL0     H52967   7.476  -0.389  11.254 -3.3158  2.3846 -1.9667
  384MOL0     H52968   7.701  -0.336  11.319  0.7963 -2.9017 -0.9743
  384MOL0     H52969   7.680  -0.214  11.198 -1.8621 -0.2713 -0.7374
  384MOL0     H52970   7.784  -0.386  11.039 -3.8824  0.6898  0.5391
  384MOL0     H52971   7.820  -0.492  11.175  3.9094 -0.8127 -1.6098
  384MOL0     H52972   7.125   0.309  10.679  1.2590 -0.3529  0.2347
  384MOL0     H52973   6.988   0.340  10.463 -0.0292  0.2111  1.5787
  384MOL0     H52974   6.637   0.313  10.125  0.0753  2.5648 -1.3746
  384MOL0     H52975   6.540   0.298   9.898 -1.5113 -3.4488  0.3664
  384MOL0     H52976   7.660  -0.244   9.984  0.4472  3.4936  1.2455
  384MOL0     H52977   7.750  -0.020   9.913 -1.5969 -0.4804 -1.1586
  384MOL0     H52978   8.147   0.153   9.776  0.2103 -2.2338 -0.3862
  384MOL0     H52979   8.333   0.276   9.663  0.1427 -3.7004 -2.5095
  384MOL0     H52980   8.478   0.370   9.449 -1.3597 -0.5206  0.2200
  384MOL0     H52981   8.347   0.306   9.347 -2.8634  1.6936 -0.9967
  384MOL0     H52982   8.321   0.513   9.226  0.5358  0.5825  0.5060
  384MOL0     H52983   8.487   0.462   9.211 -0.2593 -2.1057  0.5784
  384MOL0     H52984   8.337   0.698   9.339  1.1736  2.2786 -2.1243
  384MOL0     H52985   8.463   0.651   9.439  1.8839  2.7981 -1.0097
  384MOL0     H52986   8.628   0.669   9.237 -1.6948 -3.1334 -1.6998
  384MOL0     H52987   8.560   0.812   9.322  0.6399 -0.8343  1.0641
  384MOL0     H52988   8.352   0.838   8.935 -0.7076 -1.2523 -0.7808
  384MOL0     H52989   8.042   0.450   9.408 -4.9988 -1.8417  0.0050
  384MOL0     H52990   7.749   0.369   9.533 -0.4835  1.1873 -2.8676
  384MOL0     H52991   7.833   0.378   9.379 -3.7169 -0.1596 -0.8344
  384MOL0     H52992   7.798   0.225   9.450  3.1925 -0.0557 -2.4349
  385MOL0     O52993   4.155   8.575   4.627  0.3367 -0.0923  0.7430
  385MOL0     C52994   4.127   8.576   4.500 -0.6987 -0.2758  0.0782
  385MOL0     O52995   4.157   8.470   4.418 -0.3836  0.3846 -0.7558
  385MOL0     C52996   4.081   8.359   4.454  0.2534  0.5928  0.0089
  385MOL0     C52997   4.121   8.229   4.407 -0.2618 -0.1114 -0.6770
  385MOL0     C52998   4.041   8.124   4.436  0.4872 -0.1228  0.0104
  385MOL0     C52999   3.908   8.131   4.480 -0.3444 -1.2394 -0.3182
  385MOL0     O53000   3.815   8.033   4.488 -0.6352  0.1681 -0.0880
  385MOL0     C53001   3.836   7.906   4.411  0.9962  0.1022  0.0604
  385MOL0     C53002   3.816   7.923   4.257  0.6297 -0.2443  0.0832
  385MOL0     C53003   3.679   7.999   4.235 -0.6170 -0.3903  0.1900
  385MOL0     C53004   3.635   8.015   4.090 -0.5097  0.1389 -1.4148
  385MOL0     C53005   3.531   8.130   4.087 -0.1631  0.3906  0.1115
  385MOL0     C53006   3.462   8.148   3.946  0.4745 -0.3113 -0.4846
  385MOL0     C53007   3.561   8.202   3.850  0.3717 -0.1358  0.2499
  385MOL0     C53008   3.533   8.173   3.704  1.4603 -0.2332 -0.3031
  385MOL0     N53009   3.633   8.231   3.615  0.1009 -0.6644  0.1606
  385MOL0     C53010   3.717   8.161   3.530 -0.5759  0.2896  0.2638
  385MOL0     C53011   3.818   8.245   3.486 -0.4091  0.4318 -0.1689
  385MOL0     C53012   3.939   8.206   3.403 -0.1882  0.7818  0.2317
  385MOL0     C53013   4.015   8.327   3.326  0.2965 -0.1235 -0.8568
  385MOL0     C53014   4.123   8.376   3.423  0.1728 -0.5689 -0.4882
  385MOL0     C53015   4.201   8.484   3.348 -0.3019 -0.0494 -0.0457
  385MOL0     O53016   4.317   8.543   3.407  0.6016  0.6218 -0.7596
  385MOL0     C53017   4.308   8.607   3.531 -0.0113 -0.1832  0.4378
  385MOL0     C53018   4.191   8.652   3.588 -0.3477  0.1932  0.0270
  385MOL0     C53019   4.189   8.734   3.701 -0.2489 -0.2527  0.1981
  385MOL0     C53020   4.056   8.764   3.756 -0.1372 -0.6992  0.0473
  385MOL0     C53021   4.314   8.766   3.761 -0.3069 -0.0645  0.4942
  385MOL0     C53022   4.340   8.842   3.886  0.1181  0.0894 -0.9369
  385MOL0     O53023   4.466   8.847   3.933  0.3057  0.2988  0.6483
  385MOL0     C53024   4.513   8.929   4.032  0.5411  0.5851  0.6668
  385MOL0     C53025   4.450   8.943   4.155 -0.0761  1.7091 -0.0613
  385MOL0     C53026   4.511   9.020   4.256 -0.3760  1.1829 -0.0162
  385MOL0     C53027   4.639   9.079   4.227 -0.1761  0.5387  0.3441
  385MOL0     O53028   4.706   9.168   4.307 -0.1803 -0.4849  1.6680
  385MOL0     C53029   4.696   9.301   4.257  0.7526 -0.5635  0.6027
  385MOL0     C53030   4.719   9.405   4.366  0.0967 -0.7930 -0.0749
  385MOL0     C53031   4.783   9.533   4.314  0.6892  0.2260 -0.0579
  385MOL0     C53032   4.718   9.617   4.203  0.2764  0.2281  0.1583
  385MOL0     C53033   4.818   9.667   4.091 -0.2036  0.0972 -0.5008
  385MOL0     C53034   4.734   9.747   3.978 -0.2669 -0.3508  0.0762
  385MOL0     C53035   4.798   9.737   3.839  0.2767  0.0248 -0.2277
  385MOL0     C53036   4.800   9.592   3.783  0.1104  0.0769  0.1214
  385MOL0    Cl53037   4.668   9.481   3.829 -0.2427 -0.2017 -0.0907
  385MOL0     C53038   4.697   9.058   4.097  0.8218  0.7664 -0.4902
  385MOL0     C53039   4.635   8.979   4.007  0.6354 -0.8093 -0.4134
  385MOL0     O53040   4.251   8.915   3.929 -0.2051 -0.4874  0.2017
  385MOL0     C53041   4.440   8.718   3.698  0.0316 -0.2756 -1.0249
  385MOL0     C53042   4.429   8.645   3.582 -0.1278 -0.0999  0.0147
  385MOL0     N53043   3.783   8.371   3.534 -0.2095  0.5045 -0.8200
  385MOL0     N53044   3.674   8.359   3.607  1.0953 -0.1294  0.3225
  385MOL0     C53045   3.870   8.263   4.515 -0.4168 -0.0081 -0.0809
  385MOL0     C53046   3.950   8.372   4.509 -0.5248  0.6865  0.7654
  385MOL0     C53047   4.081   8.694   4.433 -0.1603 -0.2421  1.3072
  385MOL0     C53048   4.132   8.723   4.301 -1.0990  0.2527 -1.0334
  385MOL0     C53049   4.078   8.830   4.228  0.1816  0.6335  0.6351
  385MOL0     C53050   3.986   8.915   4.278  0.6990  0.1670  1.1560
  385MOL0     O53051   3.915   9.018   4.209 -0.0801 -0.1888  0.2159
  385MOL0     C53052   3.933   9.027   4.062  0.2487 -0.8148  0.5050
  385MOL0     C53053   3.790   9.061   4.000 -0.4409 -0.5174 -0.3245
  385MOL0     C53054   3.716   9.174   4.078  0.0714 -0.3182  0.8537
  385MOL0     C53055   3.571   9.221   4.027 -0.0215 -0.1054 -0.2300
  385MOL0     C53056   3.485   9.107   4.023  0.2979  0.3914 -0.1771
  385MOL0     C53057   3.399   9.017   4.009 -0.6678 -0.9248  0.4779
  385MOL0     C53058   3.946   8.902   4.412  0.0293  0.3235  0.6917
  385MOL0     C53059   3.987   8.791   4.491 -0.0792  0.3967 -0.1414
  385MOL0     C53060   3.921   8.768   4.622  0.0547 -0.2512  0.6540
  385MOL0     H53061   4.223   8.216   4.373  0.2734  2.5340 -0.2939
  385MOL0     H53062   4.079   8.025   4.411  0.9755 -0.1472  0.8053
  385MOL0     H53063   3.760   7.839   4.450 -0.7904  2.5344  0.9914
  385MOL0     H53064   3.936   7.867   4.436  0.8935  0.0380  0.3772
  385MOL0     H53065   3.900   7.983   4.220  1.1202 -1.9637 -1.7507
  385MOL0     H53066   3.818   7.823   4.214  1.0693 -0.7685  1.2774
  385MOL0     H53067   3.606   7.931   4.280 -0.6593 -1.4920 -1.4498
  385MOL0     H53068   3.670   8.090   4.295  0.0185  0.4291 -0.9211
  385MOL0     H53069   3.722   8.017   4.024  0.7640 -2.3672  0.0463
  385MOL0     H53070   3.568   7.933   4.062 -2.2052  0.2207  1.8435
  385MOL0     H53071   3.573   8.225   4.121  0.1406  0.8175 -1.3713
  385MOL0     H53072   3.453   8.113   4.161  0.9304 -1.1137  0.9589
  385MOL0     H53073   3.413   8.059   3.907 -0.7554  1.2303 -2.6735
  385MOL0     H53074   3.392   8.231   3.951  0.0324 -0.6383 -1.1109
  385MOL0     H53075   3.660   8.159   3.870  0.4253  0.7048  2.0202
  385MOL0     H53076   3.563   8.311   3.860 -2.9166  0.2118 -1.4103
  385MOL0     H53077   3.525   8.065   3.692 -1.0891 -0.2197  0.6933
  385MOL0     H53078   3.439   8.220   3.674  0.4417 -0.9685  1.6207
  385MOL0     H53079   3.698   8.054   3.527  0.7310 -0.0108  1.4180
  385MOL0     H53080   3.905   8.139   3.324  0.1062  0.5360  0.3110
  385MOL0     H53081   4.014   8.156   3.465  1.0042  2.5142  0.2570
  385MOL0     H53082   4.067   8.279   3.243 -0.4605 -5.3940  1.3478
  385MOL0     H53083   3.948   8.409   3.298  0.5761 -0.4267 -2.5017
  385MOL0     H53084   4.076   8.416   3.513  1.0070  1.1768 -0.7810
  385MOL0     H53085   4.186   8.293   3.455 -2.2900 -1.7417  1.6407
  385MOL0     H53086   4.221   8.450   3.246  2.7363  0.1340  0.4200
  385MOL0     H53087   4.130   8.565   3.329  0.3311 -0.1472 -3.4577
  385MOL0     H53088   4.090   8.634   3.552 -1.3942  0.6976  2.5053
  385MOL0     H53089   3.984   8.688   3.723  2.3358 -2.4512 -1.7204
  385MOL0     H53090   4.014   8.855   3.712 -1.4666 -0.4505  1.7286
  385MOL0     H53091   4.054   8.764   3.865 -0.0151  0.2003  0.0510
  385MOL0     H53092   4.368   8.872   4.157  1.9864 -0.7746  1.7043
  385MOL0     H53093   4.483   9.041   4.359  0.5290 -0.7272  0.6522
  385MOL0     H53094   4.771   9.314   4.178  0.7590  0.1338  0.7176
  385MOL0     H53095   4.598   9.331   4.218 -0.2240  1.8829  4.3264
  385MOL0     H53096   4.624   9.431   4.413  0.0627 -3.0049  1.1763
  385MOL0     H53097   4.776   9.362   4.450  0.2286  0.8515  0.7236
  385MOL0     H53098   4.877   9.492   4.276  0.3283 -3.3824  2.3697
  385MOL0     H53099   4.808   9.595   4.400  1.5664 -1.7948  1.2368
  385MOL0     H53100   4.662   9.706   4.233 -1.2643 -0.2940 -1.0124
  385MOL0     H53101   4.652   9.542   4.158  1.7255 -1.9468  1.4220
  385MOL0     H53102   4.893   9.740   4.124  1.9593 -1.9213 -0.6803
  385MOL0     H53103   4.874   9.578   4.058 -0.2415  0.1770 -0.7797
  385MOL0     H53104   4.712   9.848   4.016 -0.2293 -0.6202  0.8425
  385MOL0     H53105   4.630   9.711   3.979 -0.5733  0.5069 -0.0729
  385MOL0     H53106   4.899   9.776   3.852  1.0340 -0.9686 -2.5707
  385MOL0     H53107   4.735   9.796   3.773 -1.6971 -1.6584  0.0390
  385MOL0     H53108   4.889   9.539   3.820  1.3631  1.2253 -1.1089
  385MOL0     H53109   4.794   9.595   3.674  1.8246  1.6229  0.0237
  385MOL0     H53110   4.796   9.092   4.069  1.9548 -2.9780 -1.6404
  385MOL0     H53111   4.686   8.958   3.913  3.3068 -0.4626  0.8776
  385MOL0     H53112   4.536   8.754   3.733 -0.2126 -0.9145  0.3671
  385MOL0     H53113   4.524   8.627   3.532  1.0202 -3.6395  3.0027
  385MOL0     H53114   3.766   8.272   4.543  0.1299 -3.5049  4.2634
  385MOL0     H53115   3.912   8.468   4.544 -4.3211 -0.5559  0.4919
  385MOL0     H53116   4.207   8.655   4.262  0.1844  1.0776 -0.0884
  385MOL0     H53117   4.108   8.827   4.124 -1.8293 -2.5632 -0.0071
  385MOL0     H53118   4.007   9.101   4.032 -0.3051 -1.2853 -2.2521
  385MOL0     H53119   3.968   8.936   4.012 -3.0258 -0.7242 -2.2932
  385MOL0     H53120   3.730   8.969   4.000 -0.0550 -0.7841  1.1009
  385MOL0     H53121   3.803   9.091   3.895  1.0603 -1.3474 -0.3927
  385MOL0     H53122   3.694   9.134   4.177 -2.0788 -0.7216  0.2642
  385MOL0     H53123   3.780   9.263   4.080 -1.4662  1.2714 -4.2933
  385MOL0     H53124   3.574   9.264   3.927  1.5850 -1.4998 -0.8301
  385MOL0     H53125   3.535   9.297   4.097  0.4665 -1.6034  1.7482
  385MOL0     H53126   3.327   8.938   4.000  0.2760 -1.6956 -0.6769
  385MOL0     H53127   3.862   8.962   4.445  1.1339  1.7256  1.0060
  385MOL0     H53128   3.996   8.782   4.701 -0.2653  2.3166  0.5941
  385MOL0     H53129   3.831   8.827   4.642 -0.0304 -0.8076  2.0133
  385MOL0     H53130   3.881   8.669   4.646  2.1970 -0.9805  1.4066
  386MOL0     O53131   6.847   9.867   6.446 -0.4326  0.6736  1.4840
  386MOL0     C53132   6.914   9.768   6.446 -0.2928 -0.3341 -0.3823
  386MOL0     O53133   7.025   9.743   6.365  0.3004 -0.3300 -0.5430
  386MOL0     C53134   7.024   9.811   6.258 -0.1055  0.0307 -0.0491
  386MOL0     C53135   6.916   9.793   6.170  0.9942  0.1680 -0.5094
  386MOL0     C53136   6.904   9.874   6.057 -0.7594  1.0531  0.3583
  386MOL0     C53137   6.996   9.964   6.022 -0.7116 -0.9936 -0.6221
  386MOL0     O53138   7.002  10.049   5.915 -0.1158 -0.6674  0.2647
  386MOL0     C53139   6.988   9.994   5.783  0.2342  0.2493  0.1670
  386MOL0     C53140   7.087  10.064   5.694 -0.5137 -0.4370  0.3610
  386MOL0     C53141   7.240  10.067   5.747  0.5820 -0.1509  0.0102
  386MOL0     C53142   7.340  10.045   5.619 -0.8900  0.4514 -0.2337
  386MOL0     C53143   7.484  10.056   5.680 -0.2885  0.9842 -0.2114
  386MOL0     C53144   7.580  10.025   5.569 -0.0416  0.5353 -0.2727
  386MOL0     C53145   7.725  10.062   5.612  0.2569  0.4394 -0.1846
  386MOL0     C53146   7.832  10.034   5.494  0.7890  0.4469 -0.7885
  386MOL0     N53147   7.950   9.989   5.573  0.6621 -0.4801 -0.4438
  386MOL0     C53148   8.042  10.091   5.609 -0.4933  0.2079  0.3969
  386MOL0     C53149   8.155  10.022   5.646 -0.0706  1.2419 -0.1868
  386MOL0     C53150   8.280  10.092   5.694 -0.0285  0.0341 -0.4885
  386MOL0     C53151   8.390  10.105   5.586 -0.4984 -0.1728 -0.7109
  386MOL0     C53152   8.346  10.222   5.495 -1.0073 -0.2438  0.6931
  386MOL0     C53153   8.473  10.265   5.414 -0.2568  0.0696  0.2871
  386MOL0     O53154   8.575  10.327   5.501 -0.5867  0.1244 -0.7748
  386MOL0     C53155   8.547  10.451   5.557  0.4587  0.3672  0.3525
  386MOL0     C53156   8.490  10.556   5.493  0.8727  0.3156 -0.7525
  386MOL0     C53157   8.479  10.677   5.560 -0.1366 -0.4283  0.9455
  386MOL0     C53158   8.451  10.799   5.470  0.6085  0.2780  0.6769
  386MOL0     C53159   8.520  10.697   5.687 -0.3195 -0.9280  0.8668
  386MOL0     C53160   8.525  10.829   5.741 -0.2296  0.3174  0.5556
  386MOL0     O53161   8.616  10.921   5.692 -0.0755  0.2020  0.3134
  386MOL0     C53162   8.650  11.021   5.781 -0.1506 -0.0805 -0.3176
  386MOL0     C53163   8.755  11.008   5.873  0.2578  0.9462  0.6970
  386MOL0     C53164   8.789  11.115   5.957 -0.0600  0.6441  0.3364
  386MOL0     C53165   8.708  11.233   5.967 -0.5788  0.9413  0.2708
  386MOL0     O53166   8.757  11.350   6.018 -0.2099  0.2034 -0.3954
  386MOL0     C53167   8.869  11.340   6.111  0.3825 -1.3139  0.3432
  386MOL0     C53168   8.875  11.452   6.204 -0.3297 -1.0645  1.1401
  386MOL0     C53169   8.765  11.466   6.320 -0.9494 -0.0322 -0.3763
  386MOL0     C53170   8.621  11.442   6.265  0.1110 -0.6128  0.3121
  386MOL0     C53171   8.514  11.486   6.363 -0.6376 -0.5876  0.3888
  386MOL0     C53172   8.373  11.472   6.301  0.0326  0.3639 -0.2238
  386MOL0     C53173   8.262  11.468   6.413  0.5536 -0.0697 -0.3309
  386MOL0     C53174   8.200  11.603   6.438 -0.1765 -0.2173 -0.6292
  386MOL0    Cl53175   8.322  11.719   6.511 -0.1297 -0.2554 -0.0963
  386MOL0     C53176   8.599  11.233   5.876  0.3241  0.8656 -0.3979
  386MOL0     C53177   8.570  11.128   5.786  0.3081 -0.5544 -0.1755
  386MOL0     O53178   8.445  10.850   5.834  0.7816 -0.1265  0.6760
  386MOL0     C53179   8.559  10.583   5.763 -0.0681  0.0448  1.4005
  386MOL0     C53180   8.556  10.460   5.694  0.8821 -0.6925 -0.3555
  386MOL0     N53181   8.131   9.882   5.625 -0.1105  0.4564  0.2876
  386MOL0     N53182   8.009   9.865   5.581 -0.1769 -0.3744  0.3009
  386MOL0     C53183   7.118   9.976   6.096  0.7530  0.3903 -0.0998
  386MOL0     C53184   7.132   9.899   6.219  1.0926 -0.4042 -0.1355
  386MOL0     C53185   6.885   9.681   6.568 -0.2877 -0.3053  0.3005
  386MOL0     C53186   6.931   9.727   6.699 -0.4647 -0.7118  0.2839
  386MOL0     C53187   6.932   9.639   6.802  0.2332 -0.7877  0.2840
  386MOL0     C53188   6.881   9.514   6.783 -0.1619 -0.2531 -0.2640
  386MOL0     O53189   6.896   9.418   6.879  0.0943 -0.0160  0.9777
  386MOL0     C53190   6.812   9.431   6.982 -0.2087  0.6216 -1.0798
  386MOL0     C53191   6.827   9.336   7.108 -0.7294  0.0239  0.0878
  386MOL0     C53192   6.734   9.375   7.231 -0.1985 -0.5102 -0.8810
  386MOL0     C53193   6.735   9.262   7.333  0.5711  0.3125  0.3334
  386MOL0     C53194   6.874   9.240   7.385  0.3320 -0.3410  0.4671
  386MOL0     C53195   6.981   9.229   7.427 -0.4671 -0.5589  0.5372
  386MOL0     C53196   6.832   9.474   6.663  0.0917  0.8670  0.1696
  386MOL0     C53197   6.834   9.556   6.554 -0.0041  1.8188  0.0602
  386MOL0     C53198   6.774   9.509   6.430  0.4571 -0.0512 -0.0400
  386MOL0     H53199   6.833   9.727   6.196  1.6758  0.2482  2.1744
  386MOL0     H53200   6.813   9.859   5.999  1.0737  0.8064 -2.6534
  386MOL0     H53201   6.887  10.015   5.748 -0.8653 -0.8891  2.4220
  386MOL0     H53202   7.006   9.886   5.777 -1.4117 -0.2079  2.2029
  386MOL0     H53203   7.087  10.029   5.591  0.3075  0.5323  0.0155
  386MOL0     H53204   7.061  10.168   5.673  1.4789 -0.2302 -1.4039
  386MOL0     H53205   7.253  10.165   5.793 -2.5868 -0.2688  1.3991
  386MOL0     H53206   7.252   9.984   5.817 -0.5681  0.6808  1.2254
  386MOL0     H53207   7.314   9.957   5.560  0.3670 -1.0416  1.3402
  386MOL0     H53208   7.328  10.133   5.554 -3.0096  1.5096  1.4546
  386MOL0     H53209   7.507   9.981   5.757  0.0914  0.0362 -1.2129
  386MOL0     H53210   7.496  10.149   5.736  0.0754  1.2331 -0.6997
  386MOL0     H53211   7.559   9.918   5.561 -2.5467  0.9721 -0.1597
  386MOL0     H53212   7.548  10.070   5.475 -1.6493 -0.5376 -0.2784
  386MOL0     H53213   7.757  10.008   5.701  0.2278  0.0283 -0.4155
  386MOL0     H53214   7.718  10.167   5.640  2.7146  0.5328  0.2155
  386MOL0     H53215   7.798   9.956   5.425 -2.3550  1.4723 -0.5422
  386MOL0     H53216   7.844  10.124   5.433 -0.3492 -0.0018 -1.7120
  386MOL0     H53217   8.030  10.198   5.597  0.4653  0.4237  1.2242
  386MOL0     H53218   8.314  10.033   5.780 -1.0756 -0.0690 -0.1370
  386MOL0     H53219   8.254  10.187   5.741  0.6112  0.7375 -1.5073
  386MOL0     H53220   8.488  10.124   5.631  1.1318  0.9622 -4.3817
  386MOL0     H53221   8.402  10.016   5.523  0.9284 -1.1074  0.7904
  386MOL0     H53222   8.271  10.183   5.424  0.9709 -1.9438 -0.5818
  386MOL0     H53223   8.306  10.307   5.550 -2.5283  0.4863 -1.3832
  386MOL0     H53224   8.501  10.169   5.370 -0.4865 -0.9357  2.1833
  386MOL0     H53225   8.453  10.331   5.330 -1.0105  1.6349  1.6463
  386MOL0     H53226   8.478  10.552   5.385  0.3785 -0.5887 -0.6759
  386MOL0     H53227   8.526  10.804   5.391 -0.4639 -1.5814 -0.5107
  386MOL0     H53228   8.425  10.889   5.527  0.8077 -0.0841  1.3457
  386MOL0     H53229   8.357  10.785   5.417  0.2661  0.6631  1.1720
  386MOL0     H53230   8.808  10.913   5.868 -0.7627  0.1809  2.9358
  386MOL0     H53231   8.880  11.097   6.014  0.6692  1.8588 -0.4111
  386MOL0     H53232   8.858  11.252   6.174 -2.8774  0.4734  2.5597
  386MOL0     H53233   8.962  11.333   6.053  0.4297 -0.0126  0.2241
  386MOL0     H53234   8.961  11.432   6.268 -0.1740  1.9426  2.0216
  386MOL0     H53235   8.871  11.553   6.164  1.1105 -0.7788  1.6735
  386MOL0     H53236   8.772  11.564   6.367  0.3765 -1.3647  2.4527
  386MOL0     H53237   8.792  11.387   6.392  0.8773  2.4777  1.8804
  386MOL0     H53238   8.616  11.333   6.253  2.9528 -0.9135  1.2592
  386MOL0     H53239   8.607  11.499   6.173  1.5651  0.1048  0.5156
  386MOL0     H53240   8.516  11.440   6.463  1.1171  1.2637  1.2723
  386MOL0     H53241   8.540  11.589   6.388  0.1069 -1.3660  3.3072
  386MOL0     H53242   8.373  11.378   6.245 -1.8547 -0.1070  0.5222
  386MOL0     H53243   8.357  11.550   6.226 -0.5571 -1.2966 -1.9090
  386MOL0     H53244   8.295  11.428   6.509  1.1351 -0.0119 -0.5072
  386MOL0     H53245   8.184  11.399   6.377 -0.0466  0.2436  0.3308
  386MOL0     H53246   8.112  11.583   6.499 -0.1982  1.2784 -0.1223
  386MOL0     H53247   8.168  11.644   6.342  0.4797  2.9737  0.3988
  386MOL0     H53248   8.537  11.322   5.878 -1.6862 -0.4448 -1.3861
  386MOL0     H53249   8.488  11.140   5.716 -1.6777  0.5622  2.1776
  386MOL0     H53250   8.598  10.582   5.864  2.0517 -0.7776  0.6205
  386MOL0     H53251   8.588  10.373   5.750 -0.3999 -2.6631 -2.5086
  386MOL0     H53252   7.191  10.051   6.066  1.2496  0.5329  1.4071
  386MOL0     H53253   7.222   9.895   6.278  1.4669 -1.4940 -0.7478
  386MOL0     H53254   6.977   9.824   6.710  2.3947 -1.7396 -1.5226
  386MOL0     H53255   6.978   9.665   6.896 -0.2614 -0.3526  0.4086
  386MOL0     H53256   6.818   9.537   7.008 -0.3375  0.2780  0.4522
  386MOL0     H53257   6.707   9.419   6.952 -1.8506  3.3911  2.6758
  386MOL0     H53258   6.933   9.335   7.133 -0.1787  0.2235 -1.9962
  386MOL0     H53259   6.808   9.234   7.072  0.6170  0.6504 -2.7106
  386MOL0     H53260   6.767   9.469   7.276 -1.0180 -1.5664  2.1242
  386MOL0     H53261   6.627   9.387   7.210 -1.0126 -3.0290  1.3183
  386MOL0     H53262   6.700   9.176   7.275  3.6219  1.0134 -2.9200
  386MOL0     H53263   6.667   9.281   7.417  0.0173 -2.1440  0.5437
  386MOL0     H53264   7.086   9.235   7.448 -0.4723  1.2666  0.2157
  386MOL0     H53265   6.791   9.374   6.655  0.3861  0.8481 -1.2759
  386MOL0     H53266   6.850   9.510   6.351  1.3983  1.4368  0.8302
  386MOL0     H53267   6.732   9.409   6.437 -1.2586  0.7175  1.5067
  386MOL0     H53268   6.694   9.579   6.405  2.5091  1.6496 -2.4034
  387MOL0     O53269   3.025   6.408   9.455  0.6414  0.4130  0.1817
  387MOL0     C53270   2.937   6.322   9.417  0.1543 -0.9045 -0.2710
  387MOL0     O53271   2.941   6.239   9.310  0.7125 -0.0168 -0.0867
  387MOL0     C53272   3.052   6.259   9.229 -0.1263  0.0432 -0.2775
  387MOL0     C53273   3.144   6.154   9.208  0.1484 -0.8087  0.8433
  387MOL0     C53274   3.252   6.177   9.120 -0.9922  0.1403 -0.0795
  387MOL0     C53275   3.279   6.305   9.074 -0.8723 -0.2239 -0.2633
  387MOL0     O53276   3.398   6.335   9.001 -0.2537 -0.1808  0.0401
  387MOL0     C53277   3.465   6.465   9.018  0.4974  0.1291 -0.1475
  387MOL0     C53278   3.530   6.493   9.151 -0.0430 -0.6205 -0.2602
  387MOL0     C53279   3.639   6.388   9.183 -1.3093 -0.4185  0.9349
  387MOL0     C53280   3.723   6.416   9.293 -0.2423  0.5750  0.0695
  387MOL0     C53281   3.870   6.393   9.263  0.1562  0.3976 -0.1330
  387MOL0     C53282   3.953   6.417   9.385 -0.0536 -0.1091 -0.0480
  387MOL0     C53283   4.092   6.347   9.383  0.4462 -0.3002  0.0100
  387MOL0     C53284   4.147   6.349   9.532  0.0535  0.0146 -0.2878
  387MOL0     N53285   4.241   6.236   9.560  0.5210 -0.2272  0.4399
  387MOL0     C53286   4.354   6.214   9.483  0.8591  0.5254 -0.3772
  387MOL0     C53287   4.419   6.113   9.542 -0.2307  0.1383  0.0584
  387MOL0     C53288   4.541   6.039   9.493  0.4452 -0.7978 -0.3731
  387MOL0     C53289   4.495   5.918   9.412 -0.7648  0.1790  0.0336
  387MOL0     C53290   4.623   5.835   9.386  0.0841  0.0527  0.6666
  387MOL0     C53291   4.584   5.729   9.279  0.2462 -0.4124 -0.8103
  387MOL0     O53292   4.659   5.610   9.299 -0.5768 -0.5963  0.4337
  387MOL0     C53293   4.634   5.522   9.195  0.1191 -0.0886  0.3998
  387MOL0     C53294   4.613   5.389   9.216 -0.0091 -0.3600 -0.7882
  387MOL0     C53295   4.605   5.290   9.115  0.5079  0.3152 -0.3915
  387MOL0     C53296   4.597   5.145   9.159  0.4877  0.5694 -0.3348
  387MOL0     C53297   4.593   5.331   8.984  0.4658  1.0573 -0.2207
  387MOL0     C53298   4.568   5.246   8.863  0.5691  0.5598  0.1779
  387MOL0     O53299   4.583   5.109   8.868  0.2878 -0.2735 -0.0853
  387MOL0     C53300   4.544   5.025   8.771 -0.3138  0.2137 -0.4422
  387MOL0     C53301   4.541   4.886   8.800 -0.1480 -0.2106  0.3569
  387MOL0     C53302   4.496   4.778   8.733  0.3179  1.7978  0.1409
  387MOL0     C53303   4.444   4.802   8.607 -0.6218  0.5535  0.2138
  387MOL0     O53304   4.401   4.702   8.526 -0.6642 -0.5311 -0.6435
  387MOL0     C53305   4.406   4.572   8.565  1.5774  0.1900  0.5529
  387MOL0     C53306   4.310   4.486   8.473 -0.7964 -0.6312  0.3948
  387MOL0     C53307   4.312   4.342   8.529  0.3381  0.1168 -0.2972
  387MOL0     C53308   4.241   4.331   8.667  0.5105  0.0640 -0.8644
  387MOL0     C53309   4.214   4.189   8.707 -0.5943  0.3794  0.6336
  387MOL0     C53310   4.204   4.167   8.858 -0.1515  0.2667 -0.5923
  387MOL0     C53311   4.062   4.208   8.917 -0.0510 -0.3048 -0.5756
  387MOL0     C53312   3.966   4.097   8.884  0.0760  0.3573 -0.8542
  387MOL0    Cl53313   4.025   3.934   8.952  0.0518  0.2076 -0.3202
  387MOL0     C53314   4.447   4.939   8.560 -0.7527  0.5095 -0.6589
  387MOL0     C53315   4.499   5.043   8.640  1.1357 -0.6705 -0.6726
  387MOL0     O53316   4.550   5.307   8.759  0.3040  0.4022 -0.1323
  387MOL0     C53317   4.608   5.464   8.964 -0.1444 -0.8610  0.1717
  387MOL0     C53318   4.630   5.559   9.058 -0.4405 -0.1781 -0.5740
  387MOL0     N53319   4.341   6.072   9.647  0.1211 -0.1915 -0.3038
  387MOL0     N53320   4.236   6.151   9.662 -0.1632  0.0444 -0.3270
  387MOL0     C53321   3.200   6.410   9.109  0.8288  0.2069  0.8464
  387MOL0     C53322   3.082   6.388   9.176  0.9162  0.9467 -0.7977
  387MOL0     C53323   2.811   6.306   9.502  0.3166  0.0500  0.7848
  387MOL0     C53324   2.712   6.214   9.449 -1.1092  0.5127  0.2576
  387MOL0     C53325   2.589   6.201   9.509 -0.0815  0.2022 -0.0572
  387MOL0     C53326   2.555   6.269   9.615 -0.4449  0.1552  1.0532
  387MOL0     O53327   2.430   6.261   9.657  0.1997  1.0705  0.3330
  387MOL0     C53328   2.408   6.186   9.778  0.8215 -0.1221  0.7601
  387MOL0     C53329   2.270   6.102   9.782 -0.0245 -0.1719 -0.1792
  387MOL0     C53330   2.236   6.007   9.658  0.0385  0.3910  0.0290
  387MOL0     C53331   2.322   5.886   9.636 -0.8538  0.1045 -0.0324
  387MOL0     C53332   2.304   5.791   9.742  0.3863  0.4467  1.0298
  387MOL0     C53333   2.297   5.724   9.843 -0.5821 -0.1899 -0.4090
  387MOL0     C53334   2.657   6.355   9.677 -0.0178  0.6929  0.5460
  387MOL0     C53335   2.781   6.377   9.616 -0.9383 -0.1018 -0.6022
  387MOL0     C53336   2.875   6.477   9.696  0.2788  0.1236  0.9946
  387MOL0     H53337   3.105   6.060   9.246 -2.0846  0.3247  1.5172
  387MOL0     H53338   3.326   6.102   9.093 -0.4589  0.0293  1.6024
  387MOL0     H53339   3.390   6.540   8.989  0.3942  0.5425  1.1137
  387MOL0     H53340   3.536   6.468   8.936 -2.1037  0.2887 -2.5363
  387MOL0     H53341   3.564   6.596   9.165 -3.7530  0.8128 -0.8759
  387MOL0     H53342   3.446   6.487   9.220  0.4580  0.0066  0.4205
  387MOL0     H53343   3.605   6.284   9.179 -0.8925 -0.5375  0.4767
  387MOL0     H53344   3.709   6.398   9.100 -0.4915  2.5036  1.8660
  387MOL0     H53345   3.714   6.524   9.304  2.5336  1.4312 -4.0640
  387MOL0     H53346   3.690   6.376   9.390 -3.5929  2.6814 -0.0435
  387MOL0     H53347   3.912   6.454   9.182  2.4412 -1.2783 -0.3221
  387MOL0     H53348   3.876   6.289   9.232  0.3616 -0.1508  1.6271
  387MOL0     H53349   3.967   6.524   9.405  0.6538 -0.5613  2.1004
  387MOL0     H53350   3.894   6.384   9.471 -1.9533 -0.6011 -1.4630
  387MOL0     H53351   4.164   6.405   9.325  1.8841 -0.5983  1.4512
  387MOL0     H53352   4.081   6.250   9.333 -1.6181 -0.8892  1.4867
  387MOL0     H53353   4.180   6.446   9.572 -3.2627  0.4353  1.7984
  387MOL0     H53354   4.063   6.325   9.597 -0.9112  1.1082 -1.0853
  387MOL0     H53355   4.380   6.272   9.395  1.9466 -1.0107 -1.1346
  387MOL0     H53356   4.603   6.018   9.581  0.8196 -0.4102 -0.5399
  387MOL0     H53357   4.593   6.112   9.429 -1.7463  0.2342 -1.0654
  387MOL0     H53358   4.422   5.869   9.477 -0.8008  0.6194  0.3304
  387MOL0     H53359   4.455   5.933   9.311  0.5061 -3.1414 -1.1073
  387MOL0     H53360   4.704   5.902   9.356  0.0111 -0.6619 -1.2524
  387MOL0     H53361   4.659   5.775   9.470  0.5775 -3.3206 -1.7379
  387MOL0     H53362   4.480   5.700   9.300 -0.9642  1.6568 -3.2938
  387MOL0     H53363   4.585   5.774   9.180 -0.7784  1.7092  0.0586
  387MOL0     H53364   4.616   5.359   9.320  0.5318 -1.0717 -0.9947
  387MOL0     H53365   4.493   5.113   9.172  0.2948  2.1784  3.2229
  387MOL0     H53366   4.644   5.133   9.257  1.4107 -2.1721 -1.0265
  387MOL0     H53367   4.648   5.075   9.092 -1.7662 -2.1343  0.5821
  387MOL0     H53368   4.575   4.875   8.903  0.3398  1.9992  0.4950
  387MOL0     H53369   4.521   4.680   8.773 -1.0071 -0.0159 -3.0928
  387MOL0     H53370   4.512   4.549   8.556  2.7502  4.3222  1.4334
  387MOL0     H53371   4.369   4.569   8.668  2.0527 -1.3434  0.7056
  387MOL0     H53372   4.211   4.532   8.478 -0.9587 -0.6188 -1.7144
  387MOL0     H53373   4.347   4.483   8.369  2.0288  0.5877  1.2497
  387MOL0     H53374   4.410   4.293   8.532 -0.3707 -1.3375 -0.0876
  387MOL0     H53375   4.257   4.277   8.461 -1.4799  1.4326 -0.1508
  387MOL0     H53376   4.158   4.402   8.662  2.2944  2.3046 -0.4442
  387MOL0     H53377   4.315   4.371   8.737  2.3257 -0.5386 -2.3714
  387MOL0     H53378   4.127   4.153   8.652  0.9871 -2.9113  0.0124
  387MOL0     H53379   4.298   4.125   8.678 -0.6447  1.0912 -1.2124
  387MOL0     H53380   4.284   4.230   8.897 -0.7906  1.5902 -1.3286
  387MOL0     H53381   4.217   4.065   8.895 -3.5691 -0.6265 -1.5167
  387MOL0     H53382   4.033   4.305   8.874 -2.4867  0.9841  3.4850
  387MOL0     H53383   4.077   4.215   9.025  3.1429 -2.9847 -0.6820
  387MOL0     H53384   3.953   4.086   8.776 -0.0844  0.1004 -0.8106
  387MOL0     H53385   3.866   4.133   8.909  0.2573  2.3743 -2.7134
  387MOL0     H53386   4.399   4.967   8.467 -2.1965 -0.1784 -0.1644
  387MOL0     H53387   4.483   5.143   8.601 -2.2897 -1.1531 -0.8295
  387MOL0     H53388   4.627   5.496   8.862 -1.3271  1.6356  0.6644
  387MOL0     H53389   4.647   5.660   9.023 -1.5591  0.9757  1.9240
  387MOL0     H53390   3.221   6.515   9.090  1.7736 -0.4438 -2.1641
  387MOL0     H53391   3.009   6.463   9.204  0.8758  0.0052  1.9172
  387MOL0     H53392   2.725   6.155   9.358 -0.4244  1.1522 -0.0765
  387MOL0     H53393   2.524   6.132   9.457  1.7253 -2.1317  0.6232
  387MOL0     H53394   2.486   6.113   9.803 -0.5358 -1.9360 -0.0762
  387MOL0     H53395   2.412   6.267   9.851 -0.8768  0.1962  0.5405
  387MOL0     H53396   2.186   6.171   9.790  0.4523  0.2712  1.2154
  387MOL0     H53397   2.261   6.049   9.877 -1.1285  1.6464  0.7684
  387MOL0     H53398   2.136   5.965   9.666  0.0119 -0.4667 -3.1992
  387MOL0     H53399   2.241   6.070   9.568  2.1420  0.6206  0.2413
  387MOL0     H53400   2.426   5.916   9.647 -2.3821  6.6938  0.3940
  387MOL0     H53401   2.285   5.845   9.541 -1.6110 -3.9298  1.7642
  387MOL0     H53402   2.317   5.665   9.931  0.7453 -3.1267 -2.5330
  387MOL0     H53403   2.611   6.414   9.756 -1.2373 -0.3412  0.6301
  387MOL0     H53404   2.953   6.412   9.735  0.5064  1.4997  2.9592
  387MOL0     H53405   2.913   6.558   9.633  2.6637 -0.5655  1.4503
  387MOL0     H53406   2.806   6.519   9.769 -0.1521 -0.4361  0.9138
  388MOL0     O53407   6.691   2.331   4.676  0.1154 -0.6184  0.4722
  388MOL0     C53408   6.654   2.385   4.566  0.3463 -0.0988 -0.9342
  388MOL0     O53409   6.718   2.488   4.511 -0.1931 -0.3821 -0.3975
  388MOL0     C53410   6.817   2.561   4.574  0.9494  0.6879 -0.2847
  388MOL0     C53411   6.903   2.523   4.687 -0.6169  0.4007  1.1379
  388MOL0     C53412   7.001   2.602   4.730 -1.0977  0.2421 -0.0450
  388MOL0     C53413   7.019   2.727   4.671 -0.0359  0.5934  0.2266
  388MOL0     O53414   7.119   2.803   4.721 -0.3061  0.1606 -0.4979
  388MOL0     C53415   7.086   2.933   4.774  0.6222 -0.9890 -0.5922
  388MOL0     C53416   7.173   3.051   4.722  0.0213 -0.3295  0.7477
  388MOL0     C53417   7.167   3.062   4.570  0.5816  0.7370 -0.5416
  388MOL0     C53418   7.248   3.180   4.521 -0.2409  0.2171  0.4707
  388MOL0     C53419   7.235   3.190   4.370  0.2616 -0.6277  0.2501
  388MOL0     C53420   7.285   3.058   4.303  0.3440  0.4046 -0.6968
  388MOL0     C53421   7.310   3.075   4.160 -0.8153 -0.0909 -0.4289
  388MOL0     C53422   7.186   3.105   4.080  0.0138 -1.1247  1.1651
  388MOL0     N53423   7.229   3.149   3.945 -0.8986 -0.2695 -0.4509
  388MOL0     C53424   7.259   3.064   3.833 -0.9665 -0.1341 -1.0642
  388MOL0     C53425   7.291   3.160   3.738  0.0841  1.0068 -0.9692
  388MOL0     C53426   7.331   3.137   3.597  0.7644 -0.3801  0.5476
  388MOL0     C53427   7.202   3.104   3.516  0.2502  0.4910 -0.3276
  388MOL0     C53428   7.220   3.109   3.360  0.4219 -0.6172  0.2954
  388MOL0     C53429   7.354   3.039   3.322 -0.0661 -0.3240  0.3100
  388MOL0     O53430   7.343   2.970   3.197  0.5669 -0.8900  0.1248
  388MOL0     C53431   7.463   2.907   3.163 -0.5795 -0.6817 -0.6097
  388MOL0     C53432   7.584   2.984   3.162  0.1353 -0.3981  0.7028
  388MOL0     C53433   7.702   2.928   3.122  0.4601  0.5478  0.4066
  388MOL0     C53434   7.831   3.011   3.137 -0.4770 -0.4497 -0.0480
  388MOL0     C53435   7.700   2.787   3.074  0.1421 -1.1052  0.8568
  388MOL0     C53436   7.829   2.729   3.028  0.0657  0.7576 -0.2333
  388MOL0     O53437   7.822   2.632   2.930 -0.0366  0.3929 -0.4593
  388MOL0     C53438   7.945   2.582   2.878 -0.5237  1.4013 -0.2150
  388MOL0     C53439   7.998   2.462   2.932  0.2728  0.8010 -0.2782
  388MOL0     C53440   8.112   2.404   2.883  0.2579 -0.0168 -0.6105
  388MOL0     C53441   8.177   2.459   2.771  1.1468 -1.4804  0.4325
  388MOL0     O53442   8.286   2.395   2.721 -0.3290 -0.2751  1.0041
  388MOL0     C53443   8.253   2.292   2.630  0.1249 -0.4886 -0.1740
  388MOL0     C53444   8.383   2.246   2.560  0.4631  0.4963 -0.1612
  388MOL0     C53445   8.497   2.196   2.653 -0.0072  0.4405  0.1969
  388MOL0     C53446   8.477   2.046   2.678  0.8787 -0.1521 -0.1368
  388MOL0     C53447   8.578   1.969   2.762 -0.1455 -0.0957  0.0757
  388MOL0     C53448   8.605   2.033   2.901  0.2576  0.7854  1.2755
  388MOL0     C53449   8.695   1.934   2.977 -0.2354 -0.2572 -0.3893
  388MOL0     C53450   8.673   1.961   3.128 -0.4440 -0.2630 -0.0912
  388MOL0    Cl53451   8.730   1.807   3.215  0.2097 -0.3123 -0.1375
  388MOL0     C53452   8.133   2.590   2.719 -0.7088  0.4153  0.2582
  388MOL0     C53453   8.011   2.642   2.768  0.4613  0.5210  1.0762
  388MOL0     O53454   7.933   2.766   3.080  0.7165  0.0689 -0.3320
  388MOL0     C53455   7.579   2.705   3.077  0.0558 -0.3543  0.6318
  388MOL0     C53456   7.465   2.775   3.127  0.5221  0.2506 -0.8145
  388MOL0     N53457   7.266   3.290   3.791  0.0909  0.2673 -0.0738
  388MOL0     N53458   7.233   3.282   3.916 -0.2705 -0.4058 -0.0892
  388MOL0     C53459   6.939   2.768   4.564  0.7063 -0.2447  1.2222
  388MOL0     C53460   6.843   2.686   4.508 -0.9058  0.1033  0.2865
  388MOL0     C53461   6.522   2.347   4.509  0.0857  0.1649 -0.5588
  388MOL0     C53462   6.469   2.221   4.544  0.3173  0.4392 -0.5051
  388MOL0     C53463   6.361   2.157   4.476 -0.2556 -0.8888 -0.5743
  388MOL0     C53464   6.301   2.226   4.372 -0.0853 -0.0938  0.0432
  388MOL0     O53465   6.201   2.177   4.297  0.5945  0.3666  0.1088
  388MOL0     C53466   6.131   2.063   4.350  0.4505  0.0228  0.1635
  388MOL0     C53467   5.986   2.067   4.286  0.8122  0.1042  0.5199
  388MOL0     C53468   5.885   1.970   4.371  0.2931  0.4577  0.8175
  388MOL0     C53469   5.755   1.970   4.284  1.0315  0.1146  0.5165
  388MOL0     C53470   5.678   2.096   4.309  0.1468  0.6989 -0.3131
  388MOL0     C53471   5.609   2.195   4.328  0.3298  0.5522 -0.2336
  388MOL0     C53472   6.340   2.356   4.353 -0.3310 -0.1487 -0.3091
  388MOL0     C53473   6.455   2.419   4.414  0.4373 -0.7990  0.4435
  388MOL0     C53474   6.501   2.556   4.363  0.0134 -0.4498 -0.0388
  388MOL0     H53475   6.905   2.425   4.733  2.3533  0.2063  0.7755
  388MOL0     H53476   7.068   2.572   4.809 -0.5325  2.3846  0.3612
  388MOL0     H53477   7.081   2.939   4.883  0.4834  0.1836 -0.6473
  388MOL0     H53478   6.986   2.970   4.749  1.0014  0.8204  0.4170
  388MOL0     H53479   7.135   3.145   4.763  1.6462  0.8170 -0.2581
  388MOL0     H53480   7.271   3.030   4.768  1.6256  0.4126 -2.0786
  388MOL0     H53481   7.214   2.966   4.547 -3.0881 -1.4973  0.3902
  388MOL0     H53482   7.062   3.051   4.539  0.2205 -0.0228  0.8599
  388MOL0     H53483   7.213   3.277   4.555  4.4147  1.5141  2.3544
  388MOL0     H53484   7.354   3.184   4.548 -0.0626  1.3544 -0.3137
  388MOL0     H53485   7.301   3.273   4.343  1.5721 -2.7695 -3.9916
  388MOL0     H53486   7.136   3.219   4.332  1.0105 -1.8317 -2.9718
  388MOL0     H53487   7.374   3.013   4.348  0.5512  1.6605  0.2158
  388MOL0     H53488   7.206   2.983   4.312  0.2917  0.0962 -3.0456
  388MOL0     H53489   7.354   2.981   4.125 -2.5780 -1.9715  1.9828
  388MOL0     H53490   7.380   3.157   4.145 -1.3248  0.2306 -1.0992
  388MOL0     H53491   7.118   3.021   4.068 -0.1651 -0.6177 -2.9107
  388MOL0     H53492   7.120   3.184   4.117 -2.0343 -0.6393 -2.9623
  388MOL0     H53493   7.264   2.957   3.815  0.9343 -0.9002  3.0664
  388MOL0     H53494   7.399   3.051   3.596 -0.9088 -1.7814 -0.9931
  388MOL0     H53495   7.385   3.227   3.568 -0.8684  1.4136  2.7711
  388MOL0     H53496   7.161   3.007   3.545  0.7310  0.8747  1.8095
  388MOL0     H53497   7.122   3.173   3.544 -1.5762 -0.9765 -1.7063
  388MOL0     H53498   7.136   3.067   3.305  4.7168 -6.4036 -3.0002
  388MOL0     H53499   7.226   3.215   3.332 -1.3641 -0.0214  1.9119
  388MOL0     H53500   7.428   3.119   3.324  1.9899 -2.1306  2.2844
  388MOL0     H53501   7.381   2.958   3.391  0.4707  0.1264  0.6366
  388MOL0     H53502   7.582   3.092   3.159  3.3856 -0.2403 -2.6325
  388MOL0     H53503   7.803   3.113   3.167 -2.6322 -0.6746 -1.0453
  388MOL0     H53504   7.876   3.010   3.037  2.2101  0.0739  1.0865
  388MOL0     H53505   7.905   2.971   3.207  0.1255 -0.9624 -0.9657
  388MOL0     H53506   7.943   2.417   3.014  0.8293 -4.8794 -2.5628
  388MOL0     H53507   8.150   2.316   2.934  0.8056  1.1407  1.0592
  388MOL0     H53508   8.217   2.210   2.692  1.2741  0.5338  1.9398
  388MOL0     H53509   8.186   2.330   2.552 -0.2111  1.5647  1.0314
  388MOL0     H53510   8.355   2.183   2.475 -1.2460  1.2520 -0.1932
  388MOL0     H53511   8.433   2.332   2.514 -1.1950  1.3963 -0.3573
  388MOL0     H53512   8.493   2.252   2.746  2.2067 -0.6246  1.0255
  388MOL0     H53513   8.600   2.208   2.617  1.5829 -1.0602  3.7418
  388MOL0     H53514   8.494   1.994   2.583 -2.9250 -2.7235  0.4032
  388MOL0     H53515   8.374   2.043   2.713  1.1089 -2.1246  0.4902
  388MOL0     H53516   8.547   1.865   2.777  0.4655 -0.4037 -0.7251
  388MOL0     H53517   8.670   1.970   2.703  0.3833 -0.6177  0.8750
  388MOL0     H53518   8.505   2.048   2.945 -1.3096 -1.5172 -1.2045
  388MOL0     H53519   8.652   2.131   2.886 -1.8260  1.5904 -0.6192
  388MOL0     H53520   8.800   1.944   2.947 -0.4590 -1.4859 -1.7145
  388MOL0     H53521   8.655   1.833   2.966 -1.1568  0.0405  0.1496
  388MOL0     H53522   8.568   1.987   3.146 -0.6100 -0.9361 -0.0793
  388MOL0     H53523   8.730   2.051   3.153 -1.5620  0.2201  0.7978
  388MOL0     H53524   8.183   2.615   2.626 -0.2504 -0.0844  0.3629
  388MOL0     H53525   7.966   2.734   2.730 -0.7786  0.6578  2.8067
  388MOL0     H53526   7.581   2.599   3.054 -0.5277 -0.4020  0.7855
  388MOL0     H53527   7.366   2.730   3.129  0.3505  0.6396  0.2382
  388MOL0     H53528   6.944   2.864   4.514 -2.2637 -0.6370 -0.0775
  388MOL0     H53529   6.790   2.707   4.415 -0.0319  1.1032  0.0079
  388MOL0     H53530   6.511   2.164   4.626 -0.4969 -1.2861 -1.2304
  388MOL0     H53531   6.325   2.062   4.514 -1.2311  0.9064  3.6156
  388MOL0     H53532   6.176   1.972   4.309  1.5719  0.6279  0.0140
  388MOL0     H53533   6.136   2.055   4.459  1.8061 -0.4358  0.0904
  388MOL0     H53534   5.990   2.042   4.180 -0.6266  3.2984 -0.4044
  388MOL0     H53535   5.953   2.171   4.294 -0.1098 -0.1905  0.5978
  388MOL0     H53536   5.936   1.873   4.373  3.5597  2.0062 -0.2113
  388MOL0     H53537   5.860   2.014   4.468 -5.4635  1.9547 -0.9502
  388MOL0     H53538   5.681   1.900   4.323 -2.0682  1.2696 -2.7650
  388MOL0     H53539   5.762   1.954   4.176  3.0212  2.2294  0.2476
  388MOL0     H53540   5.548   2.277   4.363  3.1775  2.1104  1.4047
  388MOL0     H53541   6.274   2.413   4.289 -0.7231 -1.8496 -1.5083
  388MOL0     H53542   6.424   2.608   4.305  1.9002 -0.4863 -2.8294
  388MOL0     H53543   6.537   2.623   4.441 -0.6120 -2.6107  2.2476
  388MOL0     H53544   6.582   2.544   4.290  0.2758  1.8760 -0.2052
  389MOL0     O53545   8.759  10.425   4.303 -0.1035 -0.4905  0.5477
  389MOL0     C53546   8.854  10.475   4.251  0.4292 -0.7028  0.9668
  389MOL0     O53547   8.848  10.565   4.155  0.1016  0.0225  0.9724
  389MOL0     C53548   8.784  10.522   4.037  0.4337  0.7457  0.4635
  389MOL0     C53549   8.709  10.608   3.965 -0.9596 -0.5464 -0.6718
  389MOL0     C53550   8.641  10.581   3.850  0.0816  0.5328  1.3266
  389MOL0     C53551   8.650  10.462   3.791 -0.4243  0.4535  0.6498
  389MOL0     O53552   8.585  10.438   3.678 -0.2700 -0.9333  1.0611
  389MOL0     C53553   8.620  10.318   3.598 -0.3043  0.2175 -0.0208
  389MOL0     C53554   8.551  10.301   3.457  0.1604 -0.5144 -0.0590
  389MOL0     C53555   8.654  10.261   3.343 -0.1630 -0.6933 -0.0595
  389MOL0     C53556   8.590  10.243   3.218 -0.2220  0.1033 -0.2326
  389MOL0     C53557   8.554  10.377   3.142  0.3331 -0.5692 -0.1161
  389MOL0     C53558   8.455  10.338   3.034  0.1826  0.1065  0.1337
  389MOL0     C53559   8.488  10.223   2.939  0.3850 -1.0678  0.0066
  389MOL0     C53560   8.380  10.214   2.831 -0.0288  0.1886  0.0572
  389MOL0     N53561   8.408  10.276   2.703  0.2156 -0.1117  0.0665
  389MOL0     C53562   8.489  10.215   2.613 -0.2690 -0.4949  0.2053
  389MOL0     C53563   8.509  10.305   2.513  0.3050 -0.1702 -0.4580
  389MOL0     C53564   8.604  10.284   2.396  0.2288 -0.2566 -1.0396
  389MOL0     C53565   8.548  10.194   2.293 -0.1478  0.1838  0.8395
  389MOL0     C53566   8.408  10.221   2.238 -0.7468  0.7245 -0.7356
  389MOL0     C53567   8.396  10.168   2.101 -0.0162  1.1916  0.3364
  389MOL0     O53568   8.410  10.019   2.106 -0.0402  1.1958  0.0968
  389MOL0     C53569   8.297   9.941   2.110 -0.5359 -0.0889  0.1022
  389MOL0     C53570   8.183   9.979   2.170  1.3394 -0.4370 -0.1272
  389MOL0     C53571   8.075   9.893   2.180 -0.0795 -0.0176 -0.0837
  389MOL0     C53572   7.962   9.945   2.263  0.7152 -0.3865  0.1456
  389MOL0     C53573   8.089   9.768   2.125  0.6614  1.6713  0.6254
  389MOL0     C53574   7.983   9.665   2.131 -0.4093  0.1674  0.4214
  389MOL0     O53575   8.021   9.534   2.127 -0.1137  0.1820 -0.4352
  389MOL0     C53576   7.913   9.449   2.138  0.5459 -1.0432 -0.0202
  389MOL0     C53577   7.878   9.357   2.040 -1.0983 -0.3141 -0.2028
  389MOL0     C53578   7.770   9.275   2.049  0.8506  0.4483 -0.4723
  389MOL0     C53579   7.700   9.282   2.172  0.0475  0.3687 -0.7434
  389MOL0     O53580   7.585   9.208   2.193 -0.1535 -1.1965  0.4410
  389MOL0     C53581   7.472   9.283   2.139  1.1253  0.2595  0.3452
  389MOL0     C53582   7.345   9.228   2.196  0.2051 -0.6290  0.3621
  389MOL0     C53583   7.220   9.296   2.145 -0.5425 -0.6026  0.7233
  389MOL0     C53584   7.198   9.435   2.198  0.8253  1.3145  0.2240
  389MOL0     C53585   7.081   9.513   2.133 -0.0127  1.4249 -1.2480
  389MOL0     C53586   7.004   9.617   2.221  0.5515 -0.0736  0.9861
  389MOL0     C53587   7.105   9.710   2.289 -0.1303 -0.2278  0.2637
  389MOL0     C53588   7.067   9.847   2.325  0.2974 -0.2772  0.7848
  389MOL0    Cl53589   7.211   9.934   2.379  0.2645  0.1483  0.0312
  389MOL0     C53590   7.730   9.367   2.272 -0.3468 -0.4082  0.0041
  389MOL0     C53591   7.832   9.454   2.263 -0.0434 -0.7442 -0.2539
  389MOL0     O53592   7.872   9.707   2.094  0.5493  0.4458  0.1588
  389MOL0     C53593   8.207   9.727   2.056 -0.4430 -0.1208  0.0939
  389MOL0     C53594   8.307   9.828   2.040 -0.9331  0.2634 -0.1272
  389MOL0     N53595   8.420  10.415   2.533  0.2075 -0.4244 -0.0006
  389MOL0     N53596   8.367  10.391   2.641  0.3074 -0.1575  0.2027
  389MOL0     C53597   8.710  10.362   3.866  0.7635 -0.4547 -0.0565
  389MOL0     C53598   8.771  10.391   3.990 -0.0930 -0.5165  0.3177
  389MOL0     C53599   8.986  10.465   4.329 -0.4959 -0.5061  0.2528
  389MOL0     C53600   8.979  10.494   4.464  0.0877  0.2905 -0.5999
  389MOL0     C53601   9.087  10.474   4.554 -0.5310  0.1692 -0.5123
  389MOL0     C53602   9.211  10.438   4.491 -0.7463 -0.2539  0.3601
  389MOL0     O53603   9.319  10.452   4.576 -0.3391  0.5674  0.4219
  389MOL0     C53604   9.440  10.378   4.551  0.2254  0.3206  0.7827
  389MOL0     C53605   9.545  10.465   4.486 -0.4493 -0.2322 -0.0965
  389MOL0     C53606   9.588  10.576   4.581  0.3345 -0.3630  0.4076
  389MOL0     C53607   9.711  10.659   4.519  0.8618  0.9510 -0.5524
  389MOL0     C53608   9.830  10.579   4.528 -0.3114 -0.7915  0.2837
  389MOL0     C53609   9.929  10.506   4.539 -0.2643  0.3636  0.2894
  389MOL0     C53610   9.221  10.417   4.357  0.8099 -0.0542 -0.0740
  389MOL0     C53611   9.109  10.440   4.270 -0.1048 -0.1588 -0.3111
  389MOL0     C53612   9.131  10.412   4.122 -0.4964  0.1803 -0.0260
  389MOL0     H53613   8.708  10.712   3.998  0.7876  0.1673 -2.6200
  389MOL0     H53614   8.574  10.649   3.800 -2.9309 -1.5387  2.2171
  389MOL0     H53615   8.585  10.238   3.663 -3.1011 -0.8254 -2.5513
  389MOL0     H53616   8.729  10.309   3.598  0.0638  3.2441 -0.6811
  389MOL0     H53617   8.485  10.216   3.474  1.3944 -0.8480  4.3862
  389MOL0     H53618   8.505  10.399   3.440  0.1290 -0.6747 -0.9334
  389MOL0     H53619   8.737  10.327   3.316 -0.4555 -0.4894 -0.4716
  389MOL0     H53620   8.695  10.162   3.367  2.7558  1.0308  2.9599
  389MOL0     H53621   8.661  10.195   3.149  0.5068 -1.0710  1.2774
  389MOL0     H53622   8.499  10.183   3.232  1.3493 -2.2628  0.3363
  389MOL0     H53623   8.640  10.425   3.095  0.8426 -0.7565  0.6136
  389MOL0     H53624   8.509  10.447   3.213  2.6810  0.3165  0.5884
  389MOL0     H53625   8.357  10.326   3.081  0.4223 -0.1227  0.5797
  389MOL0     H53626   8.463  10.427   2.971 -0.1769  0.6804  0.8664
  389MOL0     H53627   8.474  10.128   2.990 -4.1224 -0.4079  0.4299
  389MOL0     H53628   8.588  10.235   2.896  0.8962 -0.1901  1.3723
  389MOL0     H53629   8.358  10.108   2.813 -2.5229  0.8176 -0.9645
  389MOL0     H53630   8.283  10.239   2.874  0.9602  0.3330  2.3570
  389MOL0     H53631   8.535  10.118   2.626  0.2243 -0.3265 -0.2739
  389MOL0     H53632   8.698  10.252   2.441 -0.2603  0.2230  0.4002
  389MOL0     H53633   8.620  10.389   2.368  0.7634  0.1816  0.7722
  389MOL0     H53634   8.628  10.216   2.222  0.4959  2.0108  2.0608
  389MOL0     H53635   8.547  10.087   2.318  0.0737  0.1856  0.8538
  389MOL0     H53636   8.332  10.180   2.305  0.7436 -1.7865 -0.4757
  389MOL0     H53637   8.385  10.328   2.228 -0.5251  0.8737  0.2321
  389MOL0     H53638   8.296  10.196   2.064 -0.2831  1.4678  1.2466
  389MOL0     H53639   8.477  10.204   2.037  0.2313 -0.4133 -0.2996
  389MOL0     H53640   8.179  10.077   2.218  0.6233 -0.2680 -0.5135
  389MOL0     H53641   7.980  10.039   2.316 -0.6183 -0.9049  1.5864
  389MOL0     H53642   7.933   9.871   2.337 -0.4515  0.9579  1.0817
  389MOL0     H53643   7.876   9.955   2.196 -2.6512 -2.6155  3.7179
  389MOL0     H53644   7.949   9.358   1.958  0.0943  3.3387  0.6908
  389MOL0     H53645   7.750   9.209   1.965  1.8339 -0.8953  0.2943
  389MOL0     H53646   7.471   9.387   2.174 -1.3964  0.7791 -1.0015
  389MOL0     H53647   7.477   9.294   2.030  0.2465  3.6012  0.5148
  389MOL0     H53648   7.343   9.124   2.162  0.0303 -0.8156  0.9441
  389MOL0     H53649   7.348   9.237   2.305 -0.2534  1.3308  0.2602
  389MOL0     H53650   7.133   9.231   2.158 -1.6418 -0.1487 -3.0056
  389MOL0     H53651   7.228   9.305   2.036  2.7227  0.2486  0.9349
  389MOL0     H53652   7.287   9.498   2.184  0.4750  1.1982 -3.2176
  389MOL0     H53653   7.182   9.429   2.306 -2.8110 -0.3569 -0.2489
  389MOL0     H53654   7.113   9.554   2.037  1.5025  0.7951 -1.0487
  389MOL0     H53655   7.010   9.431   2.135  3.4760 -2.0433  3.0184
  389MOL0     H53656   6.936   9.572   2.295 -1.6449  1.6936  0.1726
  389MOL0     H53657   6.932   9.673   2.161 -3.4964 -3.4522  2.2073
  389MOL0     H53658   7.188   9.718   2.218 -1.0997  3.7106 -0.6839
  389MOL0     H53659   7.143   9.663   2.380 -2.4934 -3.4871 -0.2373
  389MOL0     H53660   6.994   9.844   2.407 -0.3262  2.5600  0.4357
  389MOL0     H53661   7.034   9.894   2.232 -0.4562 -1.2824  0.5168
  389MOL0     H53662   7.672   9.360   2.364  0.4384  1.9523  0.7506
  389MOL0     H53663   7.842   9.530   2.340  1.8851  2.9183 -3.7491
  389MOL0     H53664   8.215   9.625   2.019 -1.5826 -0.6569  1.2592
  389MOL0     H53665   8.397   9.816   1.981 -1.5605  0.8437 -1.2350
  389MOL0     H53666   8.681  10.259   3.846 -4.0716  0.5404  0.6472
  389MOL0     H53667   8.823  10.311   4.043  3.1176  1.1695 -0.0590
  389MOL0     H53668   8.888  10.512   4.522  0.8744 -1.2177  1.2259
  389MOL0     H53669   9.064  10.485   4.659  0.5298  1.1699 -0.3695
  389MOL0     H53670   9.466  10.332   4.647 -0.9084 -3.1406 -0.4238
  389MOL0     H53671   9.431  10.301   4.474  1.2684  0.1014  0.8699
  389MOL0     H53672   9.505  10.517   4.399 -0.9046 -0.0973  0.1876
  389MOL0     H53673   9.631  10.401   4.466  0.2744 -0.4884  3.2837
  389MOL0     H53674   9.501  10.642   4.588  0.8405  0.5652 -1.4903
  389MOL0     H53675   9.614  10.533   4.678 -3.4168 -2.6835  0.5775
  389MOL0     H53676   9.719  10.754   4.572  2.2132  0.1450  0.7310
  389MOL0     H53677   9.696  10.687   4.414  2.0695  3.9923  0.0016
  389MOL0     H53678  10.014  10.442   4.540 -0.7496 -0.3786 -1.6061
  389MOL0     H53679   9.316  10.395   4.307  3.1075  0.1692  3.8201
  389MOL0     H53680   9.074  10.321   4.099 -2.4892  1.1068  1.0623
  389MOL0     H53681   9.087  10.501   4.077  0.5969  0.2800 -0.9415
  389MOL0     H53682   9.235  10.405   4.088 -0.2455  1.1673  0.4993
  390MOL0     O53683  10.399   9.648   9.275  0.7733 -0.2038 -0.5734
  390MOL0     C53684  10.315   9.652   9.369  0.2595 -0.5061  0.0381
  390MOL0     O53685  10.327   9.664   9.501  0.0777  0.8915 -0.1083
  390MOL0     C53686  10.445   9.675   9.569 -0.2328 -0.1942  0.5365
  390MOL0     C53687  10.439   9.649   9.708 -0.1024 -0.0710 -0.0483
  390MOL0     C53688  10.555   9.662   9.791 -0.1155 -0.1944 -0.0442
  390MOL0     C53689  10.674   9.701   9.728  0.4201  0.0815  1.4941
  390MOL0     O53690  10.786   9.684   9.798  0.3343 -0.3855  0.2690
  390MOL0     C53691  10.858   9.803   9.847 -0.0890 -0.4251 -0.1232
  390MOL0     C53692  10.849   9.842   9.990 -0.0057  0.7435 -0.0792
  390MOL0     C53693  10.905   9.742  10.091 -0.6963  0.0833 -0.4205
  390MOL0     C53694  11.046   9.698  10.044 -0.1845  0.9251 -0.3398
  390MOL0     C53695  11.133   9.635  10.165  0.2708  0.3106  1.2845
  390MOL0     C53696  11.230   9.732  10.223  0.3414  0.5072  0.0643
  390MOL0     C53697  11.317   9.667  10.331 -0.8573  0.3112 -0.2128
  390MOL0     C53698  11.398   9.774  10.405 -0.1034  0.5892  0.4850
  390MOL0     N53699  11.527   9.800  10.341 -0.2299 -0.2089 -0.7368
  390MOL0     C53700  11.648   9.779  10.401  0.0440 -0.2908  0.0573
  390MOL0     C53701  11.745   9.823  10.313  0.2031  0.9281  0.1774
  390MOL0     C53702  11.899   9.820  10.322 -0.0397 -0.3415 -0.0224
  390MOL0     C53703  11.956   9.939  10.399  0.8243  0.0763 -0.9107
  390MOL0     C53704  11.902  10.078  10.354 -0.5105  0.6268  1.7444
  390MOL0     C53705  11.923  10.110  10.211 -0.2972 -0.1729 -0.4880
  390MOL0     O53706  11.894  10.252  10.185  0.4456  0.1976 -0.0753
  390MOL0     C53707  11.766  10.313  10.202 -0.5609  1.2003  0.6704
  390MOL0     C53708  11.646  10.238  10.212 -0.6985 -0.0479  0.6173
  390MOL0     C53709  11.523  10.300  10.226 -0.2702  0.0301 -0.3099
  390MOL0     C53710  11.414  10.193  10.234 -1.3991  0.1033 -0.0064
  390MOL0     C53711  11.516  10.447  10.231 -0.2105  0.0609  0.2782
  390MOL0     C53712  11.389  10.521  10.246  0.4456 -1.2011  0.3015
  390MOL0     O53713  11.402  10.638  10.307 -0.6062  0.2550 -0.5214
  390MOL0     C53714  11.318  10.742  10.305  0.7310  0.2885  1.7322
  390MOL0     C53715  11.350  10.847  10.383 -0.5841  0.9282  0.2728
  390MOL0     C53716  11.272  10.964  10.416  0.2879  0.2480  0.4042
  390MOL0     C53717  11.161  10.976  10.332  0.5553  0.4193 -0.1414
  390MOL0     O53718  11.078  11.094  10.341  0.8701  0.4890  0.8068
  390MOL0     C53719  10.988  11.152  10.243 -0.0122 -0.4627 -0.1933
  390MOL0     C53720  10.903  11.263  10.321  0.1005  0.6639  0.0583
  390MOL0     C53721  10.826  11.194  10.444  0.1589  0.9956  0.7178
  390MOL0     C53722  10.719  11.287  10.499  0.8892 -0.1529 -0.0755
  390MOL0     C53723  10.625  11.226  10.595 -0.8914 -0.2760  0.1904
  390MOL0     C53724  10.520  11.141  10.526  0.1615  0.3013 -0.8464
  390MOL0     C53725  10.426  11.060  10.615  0.6217 -0.0829 -0.3720
  390MOL0     C53726  10.326  11.131  10.696 -0.2012  0.0518  0.1310
  390MOL0    Cl53727  10.205  11.214  10.596  0.0312  0.6412 -0.0864
  390MOL0     C53728  11.125  10.870  10.247  0.0464 -0.0418  0.3028
  390MOL0     C53729  11.215  10.758  10.219  0.2236  0.5748  1.1049
  390MOL0     O53730  11.275  10.475  10.213 -0.2107 -0.4741  0.0617
  390MOL0     C53731  11.638  10.517  10.226  0.3168 -0.1438 -0.3748
  390MOL0     C53732  11.760  10.448  10.206 -0.9111  0.5944 -0.0439
  390MOL0     N53733  11.668   9.880  10.205 -0.4731  0.2558 -0.4378
  390MOL0     N53734  11.545   9.860  10.223 -0.9496 -0.0814 -0.0293
  390MOL0     C53735  10.675   9.733   9.589  0.2431  0.9013 -0.4218
  390MOL0     C53736  10.560   9.735   9.513 -0.4703 -0.2101  0.5191
  390MOL0     C53737  10.168   9.649   9.325  0.1540 -0.4632  0.0172
  390MOL0     C53738  10.141   9.720   9.210 -0.6878  0.8138 -0.3768
  390MOL0     C53739  10.018   9.731   9.155  0.3224  0.2832 -0.7347
  390MOL0     C53740   9.909   9.678   9.216 -0.1830 -1.1223 -0.5297
  390MOL0     O53741   9.783   9.674   9.160 -0.5602  0.8478 -0.1420
  390MOL0     C53742   9.748   9.732   9.026 -0.6703  1.0557 -0.6002
  390MOL0     C53743   9.736   9.887   9.027  0.1405 -1.1336 -0.8134
  390MOL0     C53744   9.661   9.954   9.159 -0.7706  0.3089  0.8899
  390MOL0     C53745   9.716  10.087   9.181 -0.3987 -0.7844 -0.3248
  390MOL0     C53746   9.663  10.191   9.096 -0.2578  0.1834 -0.3964
  390MOL0     C53747   9.633  10.273   9.012 -0.2919 -0.0169 -1.3199
  390MOL0     C53748   9.925   9.623   9.343 -0.4947 -0.5655 -1.0886
  390MOL0     C53749  10.054   9.604   9.399  0.5355 -0.4124  0.8996
  390MOL0     C53750  10.054   9.535   9.533  1.0967  0.4290  0.4668
  390MOL0     H53751  10.343   9.617   9.746  1.1284 -3.4141  0.6164
  390MOL0     H53752  10.548   9.629   9.894  0.6713 -1.3834 -0.3539
  390MOL0     H53753  10.841   9.887   9.780  3.4212  2.6379  2.4361
  390MOL0     H53754  10.963   9.788   9.822 -0.0422 -1.9466  0.8324
  390MOL0     H53755  10.904   9.936   9.999 -0.8073  1.2691 -0.5595
  390MOL0     H53756  10.744   9.851  10.018  0.2885  3.4550  0.3777
  390MOL0     H53757  10.911   9.788  10.191 -0.7619  0.8860 -0.7775
  390MOL0     H53758  10.832   9.661  10.097  3.3788 -4.1456 -1.7919
  390MOL0     H53759  11.034   9.617   9.972  0.2999  1.0264 -0.5322
  390MOL0     H53760  11.102   9.781  10.003  2.7973  0.4123  2.2882
  390MOL0     H53761  11.192   9.551  10.129 -1.2814 -0.1818 -0.2544
  390MOL0     H53762  11.060   9.600  10.238 -0.2191  1.7599  1.5266
  390MOL0     H53763  11.290   9.776  10.142 -1.2292  5.3705  1.1900
  390MOL0     H53764  11.172   9.817  10.260 -3.6179 -1.2113 -1.6669
  390MOL0     H53765  11.375   9.576  10.312 -0.2485  0.8287 -0.8432
  390MOL0     H53766  11.248   9.634  10.409 -0.6589 -1.6605 -0.8203
  390MOL0     H53767  11.345   9.870  10.412 -1.4298  0.0343 -1.2156
  390MOL0     H53768  11.409   9.734  10.506 -0.7000 -0.2562  0.2270
  390MOL0     H53769  11.660   9.732  10.498 -0.3921 -1.3673 -0.4051
  390MOL0     H53770  11.942   9.816  10.221 -0.6356  0.6116 -0.3330
  390MOL0     H53771  11.917   9.730  10.380 -1.2938  0.1898  1.2439
  390MOL0     H53772  11.937   9.938  10.506  3.4046  1.3407 -0.3609
  390MOL0     H53773  12.066   9.931  10.398  0.8761  0.6529 -0.2224
  390MOL0     H53774  11.794  10.086  10.371 -0.2975 -2.0153  5.5601
  390MOL0     H53775  11.967  10.154  10.398  0.7622 -0.6517  2.1588
  390MOL0     H53776  12.027  10.097  10.180  0.6895 -0.0879  2.4361
  390MOL0     H53777  11.852  10.051  10.153  1.8572 -4.3672  0.7209
  390MOL0     H53778  11.642  10.135  10.177  2.0216 -0.4449  1.2938
  390MOL0     H53779  11.392  10.153  10.333  0.8106 -0.6681  0.2259
  390MOL0     H53780  11.445  10.111  10.169  0.0718 -0.2985  1.1382
  390MOL0     H53781  11.322  10.226  10.186 -1.1045  0.9158 -0.0350
  390MOL0     H53782  11.438  10.833  10.446 -3.2555 -1.1739  3.9033
  390MOL0     H53783  11.303  11.039  10.488 -2.3299 -0.9239  2.9609
  390MOL0     H53784  11.050  11.214  10.176 -0.8646  1.7336  0.9502
  390MOL0     H53785  10.928  11.083  10.183 -1.7097  0.8382 -0.0651
  390MOL0     H53786  10.962  11.348  10.355  0.5368  0.8979 -1.2110
  390MOL0     H53787  10.824  11.305  10.258 -1.6387 -0.2764  1.5223
  390MOL0     H53788  10.888  11.178  10.533 -0.7754  2.4843  1.6722
  390MOL0     H53789  10.781  11.097  10.419 -1.8120  1.9597  0.4142
  390MOL0     H53790  10.662  11.314  10.409 -0.0931  0.3082  0.6555
  390MOL0     H53791  10.765  11.373  10.549  0.0128  1.0783 -1.2767
  390MOL0     H53792  10.680  11.165  10.668 -2.2610 -1.3974  0.3329
  390MOL0     H53793  10.573  11.304  10.652  1.9447 -0.2380  3.0144
  390MOL0     H53794  10.561  11.073  10.450  0.2214 -1.3480  0.6149
  390MOL0     H53795  10.449  11.203  10.470 -2.1081 -2.8224 -1.6662
  390MOL0     H53796  10.481  10.996  10.685 -2.9315  0.1052  2.8779
  390MOL0     H53797  10.381  10.981  10.554 -0.9077 -1.1610  2.0059
  390MOL0     H53798  10.376  11.199  10.766  2.5854 -0.8433 -0.8557
  390MOL0     H53799  10.268  11.058  10.753 -1.1971  0.2913 -0.5566
  390MOL0     H53800  11.034  10.891  10.193  1.3022  4.0811 -0.5746
  390MOL0     H53801  11.187  10.685  10.143  0.8723  0.7068  0.7380
  390MOL0     H53802  11.646  10.624  10.247 -1.8472  0.8466 -3.7810
  390MOL0     H53803  11.846  10.513  10.217 -2.0988  2.1136  0.5832
  390MOL0     H53804  10.775   9.758   9.555  1.3780 -1.2071  1.1016
  390MOL0     H53805  10.586   9.758   9.410  2.1083  0.5279  1.2650
  390MOL0     H53806  10.225   9.774   9.167 -1.1734  2.5664  0.7631
  390MOL0     H53807  10.017   9.770   9.054 -2.3863 -1.2421 -1.3869
  390MOL0     H53808   9.821   9.699   8.951 -1.3789  0.7993 -1.1833
  390MOL0     H53809   9.653   9.691   8.992 -0.7640  2.0614 -1.5943
  390MOL0     H53810   9.676   9.910   8.939 -0.3850  1.4617  0.1209
  390MOL0     H53811   9.841   9.920   9.033  0.4881 -2.3848  1.7007
  390MOL0     H53812   9.552   9.955   9.152 -0.7871 -2.1892  0.0009
  390MOL0     H53813   9.688   9.886   9.241 -1.1193 -1.1761 -0.1873
  390MOL0     H53814   9.825  10.091   9.183 -0.4322  0.1966  0.6831
  390MOL0     H53815   9.690  10.114   9.284  2.0820  1.4682 -0.1742
  390MOL0     H53816   9.614  10.350   8.940  1.8097 -0.2589 -2.1844
  390MOL0     H53817   9.836   9.579   9.388  1.4718 -3.6698  0.1616
  390MOL0     H53818  10.041   9.426   9.533 -1.2596  0.5548  3.3687
  390MOL0     H53819  10.142   9.562   9.592  3.1158 -3.6611 -0.3386
  390MOL0     H53820   9.960   9.561   9.583  1.2942  1.5332  0.2752
  391MOL0     O53821   9.006   1.441   1.992 -0.0349 -1.1631 -0.4002
  391MOL0     C53822   8.898   1.413   1.936  0.4078 -0.0814  0.5662
  391MOL0     O53823   8.881   1.286   1.884  0.1564  0.6543 -0.0075
  391MOL0     C53824   8.992   1.200   1.874  0.5949  0.7637  0.1095
  391MOL0     C53825   9.026   1.122   1.982 -0.8781  0.8320  0.6045
  391MOL0     C53826   9.141   1.041   1.988 -0.7777 -0.2045  0.5256
  391MOL0     C53827   9.222   1.031   1.878 -0.5993  0.3367 -0.6631
  391MOL0     O53828   9.326   0.944   1.889 -0.1162 -0.0201  0.0490
  391MOL0     C53829   9.443   0.989   1.825 -0.6614 -0.2284 -0.3484
  391MOL0     C53830   9.558   0.899   1.876  0.2804 -0.0593  0.4739
  391MOL0     C53831   9.590   0.929   2.015  0.1974 -0.2878  0.4190
  391MOL0     C53832   9.696   0.845   2.085  0.6473  0.0980 -0.3885
  391MOL0     C53833   9.798   0.931   2.172  0.6138  0.1406  0.4247
  391MOL0     C53834   9.734   1.019   2.288  0.6726 -0.9052  0.8456
  391MOL0     C53835   9.753   1.169   2.260 -0.9846  0.1835 -0.0431
  391MOL0     C53836   9.690   1.257   2.372 -0.0463  0.2626  0.4951
  391MOL0     N53837   9.556   1.219   2.412  0.0205 -0.3038 -0.1749
  391MOL0     C53838   9.440   1.233   2.343  0.6930  0.2081  0.2008
  391MOL0     C53839   9.354   1.163   2.410  0.0534  0.1850  0.0054
  391MOL0     C53840   9.209   1.150   2.363  0.6018 -0.0426  0.5366
  391MOL0     C53841   9.115   1.251   2.431  0.0756  0.1439 -0.1476
  391MOL0     C53842   9.126   1.377   2.345  0.8891 -0.0936 -0.0681
  391MOL0     C53843   9.041   1.493   2.402 -0.3613  0.0335 -0.4627
  391MOL0     O53844   8.911   1.509   2.332 -0.0228 -0.1751  0.7566
  391MOL0     C53845   8.822   1.409   2.362  0.2851 -0.4248 -0.3409
  391MOL0     C53846   8.762   1.342   2.260  1.2137  0.9313  1.0548
  391MOL0     C53847   8.663   1.245   2.281 -0.1614  0.1797 -0.5323
  391MOL0     C53848   8.588   1.193   2.152 -0.1246  0.8352 -0.4560
  391MOL0     C53849   8.631   1.209   2.414  0.5382  1.0001  0.2610
  391MOL0     C53850   8.530   1.106   2.458 -0.6517 -1.0757 -0.7525
  391MOL0     O53851   8.511   1.094   2.594 -0.2057  0.2206  0.1375
  391MOL0     C53852   8.478   0.968   2.645 -0.1511  0.1191  0.2320
  391MOL0     C53853   8.396   0.948   2.755  1.4191 -0.9661  0.4140
  391MOL0     C53854   8.365   0.819   2.809 -0.6512  1.2047  0.0932
  391MOL0     C53855   8.429   0.709   2.767  0.3350  0.2675 -0.0624
  391MOL0     O53856   8.406   0.590   2.824  0.0114  1.0917 -0.4695
  391MOL0     C53857   8.501   0.486   2.839  0.4352  0.7484  1.1156
  391MOL0     C53858   8.616   0.539   2.931 -0.0178  0.6110 -0.1052
  391MOL0     C53859   8.696   0.416   2.989 -0.3246 -0.0682  1.3229
  391MOL0     C53860   8.827   0.448   3.068 -0.7706  0.0178 -0.0455
  391MOL0     C53861   8.774   0.485   3.208  0.3940 -0.9991  1.0272
  391MOL0     C53862   8.878   0.520   3.322  0.7228  0.0198  0.6156
  391MOL0     C53863   8.810   0.579   3.450  0.6956 -0.5976 -0.3787
  391MOL0     C53864   8.901   0.617   3.570 -0.3186 -0.0848 -0.3079
  391MOL0    Cl53865   9.015   0.741   3.498 -0.0514 -0.1467  0.0558
  391MOL0     C53866   8.513   0.728   2.663 -0.3328 -0.0825 -0.3680
  391MOL0     C53867   8.536   0.849   2.599  0.4600  0.1469  0.9345
  391MOL0     O53868   8.458   1.042   2.375 -0.1754 -0.2396 -0.4831
  391MOL0     C53869   8.692   1.283   2.516  0.0619  0.2480  0.0026
  391MOL0     C53870   8.792   1.378   2.492 -1.0512  0.4484  0.5265
  391MOL0     N53871   9.410   1.098   2.518 -0.8464  0.5828  0.5053
  391MOL0     N53872   9.542   1.130   2.515  0.1651 -1.6049  0.1838
  391MOL0     C53873   9.182   1.101   1.760  1.2911  0.4758  0.1045
  391MOL0     C53874   9.067   1.187   1.752 -0.2079 -0.2614  0.7236
  391MOL0     C53875   8.778   1.503   1.909 -0.4109  0.0093 -0.9449
  391MOL0     C53876   8.668   1.460   1.837  0.0688  0.3009  0.1700
  391MOL0     C53877   8.549   1.533   1.838 -0.6052 -0.1932 -0.6488
  391MOL0     C53878   8.538   1.663   1.887  0.7544  1.2734  0.5010
  391MOL0     O53879   8.415   1.724   1.881 -0.3679  0.0672  0.0840
  391MOL0     C53880   8.424   1.873   1.871  1.3941  0.6239  0.6816
  391MOL0     C53881   8.298   1.943   1.818  1.0353 -0.6114  0.1332
  391MOL0     C53882   8.186   1.928   1.934 -0.3612  0.3795  0.1881
  391MOL0     C53883   8.049   1.994   1.919  0.3445  0.2008  0.6542
  391MOL0     C53884   8.080   2.135   1.904 -0.6392  0.9834  0.1551
  391MOL0     C53885   8.097   2.252   1.877 -0.6208  0.3522 -0.0771
  391MOL0     C53886   8.653   1.713   1.953  0.0898  1.3497  0.0038
  391MOL0     C53887   8.766   1.630   1.973  0.0647  1.0244 -0.1630
  391MOL0     C53888   8.886   1.707   2.032  0.1207 -0.0345 -0.1755
  391MOL0     H53889   8.959   1.125   2.068 -1.5754  2.4182  0.0445
  391MOL0     H53890   9.175   0.991   2.078  5.5857 -2.9375 -2.7305
  391MOL0     H53891   9.461   1.096   1.841 -2.1216  0.3539 -2.2478
  391MOL0     H53892   9.417   0.976   1.720  0.9371  1.1845 -0.9549
  391MOL0     H53893   9.532   0.794   1.861  2.5653 -0.5505 -0.5501
  391MOL0     H53894   9.643   0.909   1.806  1.1996 -0.0420  1.5673
  391MOL0     H53895   9.632   1.030   2.018  2.7786 -1.2781 -0.1996
  391MOL0     H53896   9.498   0.920   2.073 -1.9564  0.8827 -2.5431
  391MOL0     H53897   9.647   0.775   2.154  0.8187 -1.0168 -1.3770
  391MOL0     H53898   9.759   0.792   2.014  4.0640  3.1204  0.0802
  391MOL0     H53899   9.852   0.986   2.095  1.3298 -0.9794  0.0969
  391MOL0     H53900   9.865   0.857   2.216  1.1687  0.6737  0.4847
  391MOL0     H53901   9.626   1.005   2.276  0.7977 -1.4095  0.2621
  391MOL0     H53902   9.758   0.993   2.392  0.2989  0.1755  1.2162
  391MOL0     H53903   9.706   1.192   2.164 -0.5691  2.1125  0.1618
  391MOL0     H53904   9.862   1.174   2.267 -0.9043 -1.1311 -0.1062
  391MOL0     H53905   9.756   1.276   2.458 -0.7388  1.2088  0.8395
  391MOL0     H53906   9.690   1.362   2.344 -0.4716 -0.3986 -2.2424
  391MOL0     H53907   9.413   1.267   2.244 -1.5901 -4.0462 -0.9033
  391MOL0     H53908   9.177   1.051   2.398 -0.5726 -0.6025 -1.9191
  391MOL0     H53909   9.203   1.162   2.255 -0.8446 -0.3124  0.5742
  391MOL0     H53910   9.016   1.204   2.436 -0.0106  0.0706 -2.0173
  391MOL0     H53911   9.161   1.275   2.527  3.6384  3.5670 -2.4488
  391MOL0     H53912   9.226   1.422   2.343 -0.5232  3.3076 -0.8786
  391MOL0     H53913   9.086   1.378   2.243 -2.3675  3.0665  1.0157
  391MOL0     H53914   9.032   1.487   2.511 -2.4126  0.3315 -0.5846
  391MOL0     H53915   9.097   1.587   2.398 -2.5923  1.4041 -3.5498
  391MOL0     H53916   8.782   1.390   2.164 -0.6111 -0.2811  0.0153
  391MOL0     H53917   8.627   1.092   2.133  1.6413  0.4753  3.8017
  391MOL0     H53918   8.616   1.253   2.066 -3.5133  1.1325 -1.5135
  391MOL0     H53919   8.478   1.192   2.158 -0.3352 -4.2285 -0.8758
  391MOL0     H53920   8.360   1.038   2.803  1.6107  1.4024 -3.4160
  391MOL0     H53921   8.283   0.802   2.878 -0.9742 -0.2058 -0.5845
  391MOL0     H53922   8.458   0.392   2.875  0.9968  0.6013  1.4181
  391MOL0     H53923   8.539   0.467   2.738  0.0602 -0.1382  1.1294
  391MOL0     H53924   8.679   0.614   2.883 -2.7221  3.0624 -0.1170
  391MOL0     H53925   8.581   0.586   3.024  2.3597 -0.2458  1.3206
  391MOL0     H53926   8.713   0.359   2.897 -3.1502  3.3681 -1.6210
  391MOL0     H53927   8.634   0.366   3.064 -0.1351  1.3392  2.4671
  391MOL0     H53928   8.886   0.525   3.017 -0.7460  0.7899  1.0978
  391MOL0     H53929   8.879   0.352   3.074  0.5769  0.6187 -1.5223
  391MOL0     H53930   8.722   0.580   3.196  0.8137 -1.1182 -2.8858
  391MOL0     H53931   8.704   0.413   3.252  0.1209 -0.0115  2.2518
  391MOL0     H53932   8.948   0.583   3.266  0.0287 -0.5243 -0.9093
  391MOL0     H53933   8.933   0.428   3.345  0.2421  0.4702  4.0671
  391MOL0     H53934   8.744   0.498   3.480  0.5951 -0.4407 -0.1740
  391MOL0     H53935   8.757   0.664   3.406 -1.5559 -2.3921 -1.3179
  391MOL0     H53936   8.947   0.527   3.610  4.2716  3.4391  3.5427
  391MOL0     H53937   8.851   0.662   3.657 -0.9596 -0.5358 -0.4364
  391MOL0     H53938   8.571   0.643   2.629 -1.3325 -2.1698  2.7111
  391MOL0     H53939   8.615   0.857   2.526  0.7624 -0.4020  1.1959
  391MOL0     H53940   8.669   1.264   2.621  3.3542 -0.4840  0.6971
  391MOL0     H53941   8.834   1.435   2.574  1.0113  0.7127 -0.6416
  391MOL0     H53942   9.239   1.096   1.668 -0.2586  3.8621 -1.2203
  391MOL0     H53943   9.042   1.260   1.676  2.0317  0.0530  0.2381
  391MOL0     H53944   8.679   1.366   1.784 -2.4025 -0.2664  0.5428
  391MOL0     H53945   8.472   1.494   1.772 -0.2244 -0.2267 -1.0806
  391MOL0     H53946   8.442   1.915   1.970  0.0677  1.4726  0.5896
  391MOL0     H53947   8.506   1.903   1.805  0.4516  1.7116 -0.0384
  391MOL0     H53948   8.262   1.904   1.722 -4.1115 -1.8378  2.1922
  391MOL0     H53949   8.321   2.049   1.805 -2.4932  0.1155 -1.4184
  391MOL0     H53950   8.156   1.825   1.959  0.7479  0.1088  0.4663
  391MOL0     H53951   8.227   1.965   2.028 -1.1149 -1.1026  1.1564
  391MOL0     H53952   7.991   1.980   2.010  1.0883  1.6556  1.3862
  391MOL0     H53953   7.993   1.954   1.834 -2.6060  4.7627  0.1102
  391MOL0     H53954   8.128   2.353   1.855  0.2983 -0.1037 -0.9330
  391MOL0     H53955   8.657   1.816   1.987  2.0787  0.2682  3.6770
  391MOL0     H53956   8.978   1.695   1.974  1.3566 -0.4391  1.7647
  391MOL0     H53957   8.848   1.809   2.032  0.5036  0.2158 -3.4566
  391MOL0     H53958   8.897   1.668   2.134  0.2030  0.2867 -0.0614
  392MOL0     O53959   8.556   6.249   5.242 -0.0951 -0.2039 -0.8539
  392MOL0     C53960   8.515   6.204   5.341 -0.0579  0.4849  0.1531
  392MOL0     O53961   8.381   6.163   5.349 -0.0733 -0.9446  0.7231
  392MOL0     C53962   8.313   6.155   5.233  0.0509 -0.8258 -0.7996
  392MOL0     C53963   8.201   6.240   5.201  0.0748 -0.5908 -0.0629
  392MOL0     C53964   8.130   6.220   5.073  0.9359 -0.1207 -0.3589
  392MOL0     C53965   8.148   6.107   4.998 -0.8736 -0.1764  1.0864
  392MOL0     O53966   8.068   6.095   4.885  0.0064 -0.1996 -0.2063
  392MOL0     C53967   8.049   5.966   4.826 -0.3492  0.0248 -0.2957
  392MOL0     C53968   7.964   5.987   4.696 -0.3516  0.2101  0.6991
  392MOL0     C53969   8.030   6.067   4.585  0.2566 -0.4663  0.8419
  392MOL0     C53970   7.928   6.103   4.466 -0.3865  0.2695 -0.0264
  392MOL0     C53971   7.803   6.186   4.515  0.1252  0.3302 -0.2838
  392MOL0     C53972   7.832   6.330   4.580 -0.4507 -0.4671  0.1832
  392MOL0     C53973   7.892   6.422   4.483 -0.3577  0.7837 -0.0441
  392MOL0     C53974   7.892   6.576   4.525  0.4282 -0.2743 -0.9290
  392MOL0     N53975   7.986   6.640   4.436 -0.1000 -0.1111  0.9192
  392MOL0     C53976   8.116   6.681   4.473  0.1816 -1.2870 -0.3660
  392MOL0     C53977   8.161   6.757   4.369  0.1097  0.2056 -0.0188
  392MOL0     C53978   8.283   6.849   4.369 -0.6490  0.7031 -0.2009
  392MOL0     C53979   8.244   6.991   4.422 -0.2974 -0.7107 -0.6415
  392MOL0     C53980   8.357   7.089   4.447 -0.5220 -0.7179 -0.3124
  392MOL0     C53981   8.307   7.234   4.456  0.4061 -0.1366  0.2441
  392MOL0     O53982   8.267   7.286   4.326  0.4545 -0.1137  0.0697
  392MOL0     C53983   8.357   7.359   4.251  0.5045 -0.5469 -0.2890
  392MOL0     C53984   8.296   7.448   4.164  0.4769 -0.2213  0.9332
  392MOL0     C53985   8.368   7.526   4.073 -0.6590  0.0239  0.1461
  392MOL0     C53986   8.300   7.603   3.960 -1.1196  0.0071 -0.3063
  392MOL0     C53987   8.508   7.544   4.099  0.4176 -0.6862  0.8690
  392MOL0     C53988   8.587   7.635   4.024 -0.7379 -0.3107 -0.8185
  392MOL0     O53989   8.639   7.736   4.099 -0.1873 -0.1486  0.8688
  392MOL0     C53990   8.750   7.809   4.054 -0.5920 -0.3119 -0.4588
  392MOL0     C53991   8.753   7.951   4.092  0.7699  0.0492 -0.2835
  392MOL0     C53992   8.856   8.035   4.056  0.4601  0.2883  1.0188
  392MOL0     C53993   8.958   7.988   3.970  0.0578  0.5200  0.1744
  392MOL0     O53994   9.058   8.087   3.937  0.2644  0.0155  0.2634
  392MOL0     C53995   9.195   8.035   3.966  0.8360 -0.3577  0.2357
  392MOL0     C53996   9.300   8.134   3.935  0.0230 -0.8406  0.1029
  392MOL0     C53997   9.278   8.207   3.799 -0.3439 -0.5262 -0.2508
  392MOL0     C53998   9.417   8.229   3.728 -0.0937 -0.2447  0.1194
  392MOL0     C53999   9.388   8.328   3.608 -0.1088  0.3458 -0.5033
  392MOL0     C54000   9.513   8.317   3.526  0.7630 -0.9496 -0.0945
  392MOL0     C54001   9.493   8.423   3.406  0.8840 -1.0491  0.3226
  392MOL0     C54002   9.593   8.427   3.299 -0.1136 -0.4645 -0.0076
  392MOL0    Cl54003   9.749   8.495   3.361 -0.2894  0.0054 -0.5446
  392MOL0     C54004   8.963   7.854   3.924 -0.9958 -0.3132 -0.2344
  392MOL0     C54005   8.866   7.759   3.976 -0.2989 -0.2302  0.9519
  392MOL0     O54006   8.619   7.617   3.907  0.5388 -1.1333  0.9851
  392MOL0     C54007   8.572   7.460   4.189 -0.0060 -0.5078 -0.8882
  392MOL0     C54008   8.499   7.365   4.261 -0.1645  0.1491 -0.1920
  392MOL0     N54009   8.074   6.737   4.265 -1.2385 -0.6792 -0.6591
  392MOL0     N54010   7.968   6.679   4.311  0.7144 -0.2823  1.4924
  392MOL0     C54011   8.257   6.017   5.035  0.3027  0.2752  0.4144
  392MOL0     C54012   8.334   6.044   5.147 -0.2105 -0.6966 -0.5386
  392MOL0     C54013   8.605   6.170   5.454  0.6858  0.7223 -0.1266
  392MOL0     C54014   8.572   6.059   5.535 -0.1185  0.7900  0.2187
  392MOL0     C54015   8.653   6.008   5.641 -0.2585  0.8273  0.9039
  392MOL0     C54016   8.767   6.070   5.672 -0.3769 -0.6324 -0.3869
  392MOL0     O54017   8.851   6.044   5.778  0.5506  0.2108  0.1599
  392MOL0     C54018   8.808   5.968   5.890  0.0612  0.2634  0.3066
  392MOL0     C54019   8.856   5.828   5.859  0.1481  0.1183 -0.2798
  392MOL0     C54020   9.012   5.813   5.866 -0.3220 -0.4417 -0.3938
  392MOL0     C54021   9.075   5.826   6.001  0.7133  0.2332 -0.5627
  392MOL0     C54022   9.138   5.960   6.016 -0.6894 -0.1066 -0.1307
  392MOL0     C54023   9.175   6.078   6.042  0.5631 -0.4224  0.3737
  392MOL0     C54024   8.807   6.182   5.589  0.1555 -0.2350  0.0614
  392MOL0     C54025   8.722   6.234   5.491  0.4300 -0.1860  0.4942
  392MOL0     C54026   8.772   6.353   5.422  0.0977 -0.2193 -0.8133
  392MOL0     H54027   8.181   6.311   5.280  4.6999 -0.1698  0.9821
  392MOL0     H54028   8.060   6.292   5.032  1.1522  0.2440 -0.1008
  392MOL0     H54029   7.996   5.908   4.902  0.9463  0.1710  0.7501
  392MOL0     H54030   8.144   5.918   4.800  0.6597  2.1925 -0.7543
  392MOL0     H54031   7.942   5.887   4.659 -2.3098  0.9654 -0.3527
  392MOL0     H54032   7.874   6.041   4.726  0.5437  2.5747 -0.6018
  392MOL0     H54033   8.055   6.160   4.637  0.3388  1.8998 -3.0860
  392MOL0     H54034   8.117   6.020   4.538 -0.2310 -0.5700  0.0238
  392MOL0     H54035   7.986   6.165   4.398 -0.7892  1.8134  0.9740
  392MOL0     H54036   7.893   6.016   4.409 -3.0877  0.2404  1.4806
  392MOL0     H54037   7.749   6.128   4.590  1.6597  0.2435  0.8155
  392MOL0     H54038   7.742   6.203   4.426  0.6782 -2.2881 -1.2417
  392MOL0     H54039   7.740   6.373   4.621 -1.3204 -1.3058 -0.8256
  392MOL0     H54040   7.899   6.321   4.666 -0.7143 -0.3122  0.4081
  392MOL0     H54041   7.861   6.400   4.380  0.0166 -0.0480  0.0133
  392MOL0     H54042   7.997   6.390   4.490 -0.3998  0.0221 -2.0877
  392MOL0     H54043   7.791   6.613   4.506  0.9939  1.1970 -1.1874
  392MOL0     H54044   7.914   6.593   4.631 -0.4892 -0.6438 -0.6641
  392MOL0     H54045   8.159   6.663   4.572  1.3689  0.1963 -0.5745
  392MOL0     H54046   8.332   6.853   4.272  0.1071 -2.5403 -0.0883
  392MOL0     H54047   8.353   6.804   4.441  0.0505  0.9902 -0.6902
  392MOL0     H54048   8.183   7.041   4.347 -0.1872  1.1793  0.4734
  392MOL0     H54049   8.191   6.980   4.517 -1.9530 -0.6464 -1.5213
  392MOL0     H54050   8.410   7.060   4.538  1.6582  0.2014 -1.2235
  392MOL0     H54051   8.416   7.094   4.355  0.2998  2.0390  0.2695
  392MOL0     H54052   8.214   7.216   4.510 -0.2628  0.1155 -0.8205
  392MOL0     H54053   8.378   7.301   4.505 -0.0751  0.6204 -0.0822
  392MOL0     H54054   8.189   7.446   4.147  0.5128  2.5098 -0.0539
  392MOL0     H54055   8.195   7.584   3.982 -0.3159 -1.9735  2.3605
  392MOL0     H54056   8.343   7.576   3.863 -0.1934  2.7076 -0.7480
  392MOL0     H54057   8.315   7.711   3.972  0.9264 -0.1490 -0.9451
  392MOL0     H54058   8.667   7.983   4.149  0.0796 -2.5690  0.2675
  392MOL0     H54059   8.856   8.140   4.083  2.3707  1.3896 -2.5831
  392MOL0     H54060   9.216   8.013   4.071  1.8083 -2.0913 -0.2877
  392MOL0     H54061   9.209   7.948   3.900 -0.3015 -0.2191 -0.2182
  392MOL0     H54062   9.313   8.212   4.010  1.5575 -1.0829  0.1243
  392MOL0     H54063   9.395   8.079   3.938  0.8145  0.0263 -3.6306
  392MOL0     H54064   9.225   8.301   3.818 -0.6262 -0.2048 -2.3622
  392MOL0     H54065   9.212   8.154   3.729 -0.3989 -1.1313  0.2502
  392MOL0     H54066   9.457   8.135   3.688 -0.7324  0.7494 -3.1243
  392MOL0     H54067   9.497   8.261   3.795  0.3129 -4.6010  2.0701
  392MOL0     H54068   9.301   8.305   3.546  0.1756  2.7307 -1.9048
  392MOL0     H54069   9.360   8.425   3.649 -0.1715 -1.0512  3.0884
  392MOL0     H54070   9.518   8.212   3.497 -2.7216 -1.2838  0.0524
  392MOL0     H54071   9.603   8.329   3.587 -0.4797 -1.8782  2.0444
  392MOL0     H54072   9.484   8.522   3.452  0.1118 -0.5671 -0.7959
  392MOL0     H54073   9.394   8.405   3.363  1.2749 -0.1797 -0.9927
  392MOL0     H54074   9.567   8.501   3.222 -0.8598 -1.5699 -0.8627
  392MOL0     H54075   9.603   8.329   3.251 -0.0260  0.6656 -2.4910
  392MOL0     H54076   9.044   7.819   3.862 -1.3790  0.5576 -1.2661
  392MOL0     H54077   8.867   7.651   3.962  0.7311 -0.0067 -0.9623
  392MOL0     H54078   8.679   7.466   4.206 -0.0082 -0.0627 -1.0369
  392MOL0     H54079   8.552   7.294   4.324 -0.7224 -0.4687 -0.4063
  392MOL0     H54080   8.294   5.930   4.981  4.5147  2.7333 -1.1325
  392MOL0     H54081   8.409   5.971   5.179 -0.3042 -0.4890  0.1685
  392MOL0     H54082   8.479   6.005   5.525  0.6183 -0.4479 -0.1329
  392MOL0     H54083   8.621   5.927   5.705  0.1024  0.6117  0.8134
  392MOL0     H54084   8.844   6.011   5.984  3.5354  1.6495 -1.4674
  392MOL0     H54085   8.699   5.973   5.889  0.1051  2.0289 -1.4219
  392MOL0     H54086   8.820   5.794   5.762 -0.5968 -2.6534  0.8570
  392MOL0     H54087   8.809   5.767   5.937 -2.8382  1.0765 -1.2084
  392MOL0     H54088   9.029   5.707   5.845 -0.7229 -0.2477 -1.7656
  392MOL0     H54089   9.054   5.869   5.783  0.4358 -0.8681 -0.3095
  392MOL0     H54090   9.161   5.761   6.014  0.5330 -0.5733 -2.9648
  392MOL0     H54091   9.005   5.810   6.084  0.1308  3.3072 -0.3288
  392MOL0     H54092   9.184   6.181   6.072 -0.8733 -0.1850  0.0845
  392MOL0     H54093   8.898   6.226   5.630  0.2921 -1.3216  0.9576
  392MOL0     H54094   8.870   6.385   5.458 -1.6632  1.0624  3.4076
  392MOL0     H54095   8.775   6.328   5.315 -1.0516  1.6786 -1.3527
  392MOL0     H54096   8.704   6.439   5.423  1.4677  1.1910  4.8506
  393MOL0     O54097   2.452   4.631   3.379 -0.3631 -0.4295 -0.0356
  393MOL0     C54098   2.347   4.684   3.380 -0.2559 -0.0389 -0.3985
  393MOL0     O54099   2.224   4.634   3.331 -0.5983  0.3348 -0.6452
  393MOL0     C54100   2.193   4.517   3.274 -0.2120  0.6242  0.5547
  393MOL0     C54101   2.067   4.500   3.218  0.4770  0.5735 -0.4653
  393MOL0     C54102   2.041   4.380   3.155 -0.2138  0.2711  0.3570
  393MOL0     C54103   2.133   4.277   3.154  0.3552 -0.7123 -0.0041
  393MOL0     O54104   2.117   4.162   3.084  0.7208  0.1271 -0.0121
  393MOL0     C54105   1.989   4.142   3.014  0.5400 -0.3278  0.3033
  393MOL0     C54106   1.974   4.007   2.937  0.1327 -0.3616  0.5630
  393MOL0     C54107   2.022   3.878   3.011 -0.7622  0.1142  0.1212
  393MOL0     C54108   1.939   3.824   3.127 -0.0269  0.0553  0.2077
  393MOL0     C54109   1.998   3.684   3.166 -0.0186  0.3588 -0.7226
  393MOL0     C54110   2.134   3.696   3.233 -0.2246  0.1151 -0.1211
  393MOL0     C54111   2.194   3.554   3.266 -0.6785 -0.6906  1.6904
  393MOL0     C54112   2.352   3.547   3.262  0.1869 -0.0209  0.7891
  393MOL0     N54113   2.406   3.414   3.274  0.8495  0.5132  1.0619
  393MOL0     C54114   2.532   3.387   3.289 -0.6300 -0.1091  0.6030
  393MOL0     C54115   2.562   3.264   3.246  0.5321 -1.0753  0.1055
  393MOL0     C54116   2.706   3.200   3.237  0.0977  0.0438 -0.0502
  393MOL0     C54117   2.791   3.277   3.139  0.6435 -0.0894  0.1672
  393MOL0     C54118   2.936   3.216   3.139 -0.0326 -1.2590  0.7303
  393MOL0     C54119   2.998   3.234   2.996  0.3053 -0.6577  0.5260
  393MOL0     O54120   3.128   3.176   2.999 -0.4261  0.3088  0.0355
  393MOL0     C54121   3.231   3.268   2.997 -0.1137  0.4257 -0.2869
  393MOL0     C54122   3.350   3.233   2.923 -0.1822 -0.6246 -0.4214
  393MOL0     C54123   3.459   3.317   2.902  0.9989  0.0733 -0.2011
  393MOL0     C54124   3.578   3.254   2.829  0.3031 -0.1130 -1.0582
  393MOL0     C54125   3.448   3.451   2.945  0.3288 -0.0264  0.3182
  393MOL0     C54126   3.551   3.552   2.936  0.1406 -0.8198  0.2061
  393MOL0     O54127   3.613   3.569   2.814 -0.2353 -0.1441 -0.2043
  393MOL0     C54128   3.707   3.658   2.779  0.5903 -0.5326  0.6053
  393MOL0     C54129   3.742   3.781   2.852  0.3254  0.1574 -0.4592
  393MOL0     C54130   3.838   3.868   2.799  0.3276 -0.2479  0.6246
  393MOL0     C54131   3.904   3.835   2.685  0.1569  0.2560  0.0318
  393MOL0     O54132   3.991   3.932   2.652 -0.3053 -0.5030  0.3475
  393MOL0     C54133   4.123   3.892   2.608  1.0954 -0.2160  0.8476
  393MOL0     C54134   4.193   4.010   2.553 -0.3331  0.3055 -0.8640
  393MOL0     C54135   4.350   3.984   2.526 -0.4583  0.7018 -0.1384
  393MOL0     C54136   4.395   4.079   2.419  0.2713  0.0693  1.1758
  393MOL0     C54137   4.547   4.058   2.397  0.5148 -0.3943 -0.8064
  393MOL0     C54138   4.622   4.155   2.303 -0.2121 -0.1743  0.4513
  393MOL0     C54139   4.767   4.129   2.309 -0.8862 -0.1205 -0.4545
  393MOL0     C54140   4.854   4.163   2.183  0.2594 -0.0954 -0.2416
  393MOL0    Cl54141   4.822   4.330   2.135  0.1197 -0.2694  0.2632
  393MOL0     C54142   3.865   3.721   2.604  0.4246 -2.4117 -0.5946
  393MOL0     C54143   3.776   3.633   2.657 -0.3031  0.3136 -0.0566
  393MOL0     O54144   3.576   3.622   3.038 -0.2199  0.9841  0.4022
  393MOL0     C54145   3.337   3.484   3.022  0.0519  0.0257 -0.1567
  393MOL0     C54146   3.230   3.401   3.053 -0.3848  0.2043 -0.1296
  393MOL0     N54147   2.447   3.223   3.183  0.5095 -0.4860  0.4687
  393MOL0     N54148   2.354   3.311   3.199  0.0964 -0.8262 -0.5819
  393MOL0     C54149   2.250   4.293   3.217 -0.6311 -0.4730  0.1991
  393MOL0     C54150   2.285   4.414   3.270 -0.6646 -0.5848  0.0074
  393MOL0     C54151   2.349   4.826   3.418  0.9750  0.5408  0.8881
  393MOL0     C54152   2.441   4.924   3.378 -0.5813  0.3494  0.4515
  393MOL0     C54153   2.450   5.045   3.437 -0.4934 -0.6173 -0.6677
  393MOL0     C54154   2.363   5.075   3.546  0.1335 -0.3138 -0.3472
  393MOL0     O54155   2.376   5.197   3.607 -0.0086 -0.2219  0.1321
  393MOL0     C54156   2.382   5.204   3.750 -0.2089  0.9351  0.3253
  393MOL0     C54157   2.371   5.344   3.791 -0.0159 -0.4621 -0.3192
  393MOL0     C54158   2.247   5.412   3.717  0.2787  0.2900 -0.1332
  393MOL0     C54159   2.200   5.552   3.758 -0.4255 -0.8237 -0.3431
  393MOL0     C54160   2.078   5.608   3.684 -0.1380 -0.1200 -0.7295
  393MOL0     C54161   1.976   5.641   3.623 -0.2331 -0.7640 -0.0901
  393MOL0     C54162   2.272   4.985   3.591  0.2426  0.1853 -0.3683
  393MOL0     C54163   2.269   4.860   3.528  0.7582 -0.4847 -0.2979
  393MOL0     C54164   2.157   4.768   3.577 -0.3926  0.1420  0.2430
  393MOL0     H54165   1.993   4.579   3.217 -0.8953 -0.4644  3.1629
  393MOL0     H54166   1.944   4.359   3.111 -0.3829  2.2084 -0.2916
  393MOL0     H54167   1.960   4.220   2.943 -0.0617 -1.0248 -0.2433
  393MOL0     H54168   1.918   4.146   3.097  0.2449  0.6748  0.0209
  393MOL0     H54169   1.872   3.983   2.905 -0.0451 -2.8895  2.6920
  393MOL0     H54170   2.037   4.031   2.851  0.9171 -2.0538  0.6382
  393MOL0     H54171   2.032   3.794   2.943 -1.1753  1.0654 -1.1689
  393MOL0     H54172   2.122   3.903   3.047 -0.5615  0.7428 -0.8042
  393MOL0     H54173   1.960   3.888   3.213 -0.3792  3.0752 -1.7999
  393MOL0     H54174   1.836   3.826   3.089 -0.0161  3.6743 -0.0035
  393MOL0     H54175   2.004   3.624   3.075 -0.1923  1.4583 -1.4890
  393MOL0     H54176   1.924   3.640   3.233  0.5736 -3.5178 -2.3791
  393MOL0     H54177   2.201   3.746   3.162  1.3506  0.9587  1.8553
  393MOL0     H54178   2.122   3.762   3.320 -2.5565 -0.5882  0.1516
  393MOL0     H54179   2.175   3.492   3.178  1.1245 -0.0326  0.7876
  393MOL0     H54180   2.151   3.508   3.355 -2.2878  3.4013  3.2630
  393MOL0     H54181   2.389   3.599   3.173 -0.9630 -1.0451 -0.3305
  393MOL0     H54182   2.378   3.606   3.350 -2.3785  1.0699  0.8982
  393MOL0     H54183   2.602   3.462   3.325  2.1324 -1.7364 -1.0631
  393MOL0     H54184   2.688   3.101   3.194  0.5669 -1.6940  3.4237
  393MOL0     H54185   2.754   3.180   3.333  2.6019  0.7760 -1.0634
  393MOL0     H54186   2.742   3.278   3.041  1.3582  1.4569 -0.2153
  393MOL0     H54187   2.796   3.384   3.162  1.9938  0.4402 -2.3158
  393MOL0     H54188   2.995   3.280   3.204  2.7246 -2.5117 -0.3382
  393MOL0     H54189   2.933   3.111   3.172 -0.8503 -1.2171  0.8091
  393MOL0     H54190   2.932   3.187   2.924 -2.4953  0.6832  2.0647
  393MOL0     H54191   3.011   3.338   2.963  5.1010 -1.0093  0.4942
  393MOL0     H54192   3.334   3.141   2.867 -1.8253 -0.0358 -0.9667
  393MOL0     H54193   3.676   3.284   2.867  0.2576 -1.5064  0.2615
  393MOL0     H54194   3.570   3.287   2.724 -4.0371  0.3357 -0.7740
  393MOL0     H54195   3.565   3.145   2.827 -1.1865  0.0263 -0.5380
  393MOL0     H54196   3.716   3.796   2.956  0.1418  0.6932 -0.5798
  393MOL0     H54197   3.852   3.967   2.843  0.9624  1.4043 -2.9727
  393MOL0     H54198   4.178   3.848   2.692  0.6536 -1.6615  0.4160
  393MOL0     H54199   4.116   3.826   2.521  2.5476  1.9520 -1.0547
  393MOL0     H54200   4.142   4.045   2.463  1.5316  3.0960 -0.9577
  393MOL0     H54201   4.187   4.093   2.623  3.2714 -1.5146  1.9399
  393MOL0     H54202   4.366   3.879   2.498 -1.1941  1.1021 -2.2742
  393MOL0     H54203   4.403   4.009   2.618  1.9827 -0.2217 -1.1839
  393MOL0     H54204   4.381   4.180   2.456 -1.9328  0.5616 -0.7260
  393MOL0     H54205   4.332   4.059   2.331  1.0684  1.7489  0.1773
  393MOL0     H54206   4.584   4.077   2.498  2.3345  0.8412 -1.6427
  393MOL0     H54207   4.558   3.954   2.365  1.1106 -0.4978 -0.3035
  393MOL0     H54208   4.604   4.258   2.333  0.2091  0.1698 -0.4383
  393MOL0     H54209   4.590   4.144   2.199  1.1100  0.4151 -0.0285
  393MOL0     H54210   4.797   4.026   2.328 -0.4194 -0.0837 -0.9539
  393MOL0     H54211   4.808   4.176   2.400 -1.6736  0.2719 -0.2958
  393MOL0     H54212   4.846   4.101   2.093  2.3613 -2.5996  1.1564
  393MOL0     H54213   4.958   4.157   2.214 -0.1165  4.0289  2.7652
  393MOL0     H54214   3.921   3.703   2.513  1.4067  0.4675 -0.6723
  393MOL0     H54215   3.753   3.544   2.599 -0.6537  0.2272  0.2061
  393MOL0     H54216   3.340   3.586   3.058  4.5177 -0.8108  2.6896
  393MOL0     H54217   3.146   3.443   3.107 -1.3877  0.4565 -1.8305
  393MOL0     H54218   2.333   4.225   3.203 -0.1743  0.4287 -1.9203
  393MOL0     H54219   2.387   4.426   3.305  0.1783 -2.2744 -1.6663
  393MOL0     H54220   2.506   4.900   3.294 -0.4955  0.4016  0.5024
  393MOL0     H54221   2.528   5.115   3.412 -1.2205  0.3924 -0.1551
  393MOL0     H54222   2.305   5.150   3.805  0.8891 -0.7707  0.2331
  393MOL0     H54223   2.472   5.157   3.790  1.9352  0.6817 -4.1213
  393MOL0     H54224   2.459   5.395   3.750 -0.3183  1.0880  0.8573
  393MOL0     H54225   2.370   5.361   3.899  2.4488  0.8758 -0.4226
  393MOL0     H54226   2.262   5.427   3.609 -1.8839 -0.5458 -0.6181
  393MOL0     H54227   2.164   5.341   3.726 -1.1307  1.9443  0.5125
  393MOL0     H54228   2.278   5.628   3.748 -1.7228  1.3227  3.6975
  393MOL0     H54229   2.188   5.541   3.866  0.5135  0.7447 -0.0560
  393MOL0     H54230   1.889   5.666   3.565 -0.6448  1.3472  1.3251
  393MOL0     H54231   2.188   5.001   3.657 -2.0205 -0.3294 -2.9256
  393MOL0     H54232   2.188   4.688   3.645 -0.3015  0.8805  1.0883
  393MOL0     H54233   2.091   4.818   3.648 -0.2002  0.2607  0.3396
  393MOL0     H54234   2.102   4.718   3.497 -0.9183 -0.9287  1.2454
  394MOL0     O54235   2.085  10.368   4.822 -0.9414  0.1560 -1.1054
  394MOL0     C54236   2.037  10.455   4.900 -0.2855  0.3358 -0.7599
  394MOL0     O54237   2.035  10.587   4.879  0.2888  0.7573 -0.1936
  394MOL0     C54238   2.076  10.661   4.762 -0.1959 -0.0849  0.1487
  394MOL0     C54239   2.092  10.798   4.790  0.2413 -0.3785 -0.2261
  394MOL0     C54240   2.167  10.879   4.694  0.3908 -0.5557  0.9097
  394MOL0     C54241   2.204  10.822   4.569  0.0480 -0.4940  0.3915
  394MOL0     O54242   2.273  10.875   4.465  0.4939 -0.6317 -0.0894
  394MOL0     C54243   2.382  10.965   4.498  0.4693 -0.2172 -0.6363
  394MOL0     C54244   2.451  11.001   4.366 -0.3980  0.1890 -1.0922
  394MOL0     C54245   2.566  11.097   4.394 -0.0201 -0.5582 -0.5121
  394MOL0     C54246   2.640  11.164   4.281 -0.6614  0.4441  0.3737
  394MOL0     C54247   2.558  11.285   4.236  0.2900  0.7957  0.8544
  394MOL0     C54248   2.605  11.341   4.106 -0.2890  0.1768  0.2913
  394MOL0     C54249   2.549  11.488   4.088  0.7657 -0.3308 -0.0446
  394MOL0     C54250   2.411  11.477   4.013 -0.0730 -0.3197 -0.4760
  394MOL0     N54251   2.382  11.606   3.945  0.0895 -0.0692  0.2856
  394MOL0     C54252   2.321  11.718   4.008  0.1033  0.1178  1.1926
  394MOL0     C54253   2.325  11.808   3.911 -0.1984 -0.1956  0.7188
  394MOL0     C54254   2.273  11.953   3.924  0.3864  0.5125 -0.5913
  394MOL0     C54255   2.356  12.019   4.039  0.0630  0.8359 -0.1544
  394MOL0     C54256   2.500  12.061   4.020  0.2079 -0.0492 -0.1083
  394MOL0     C54257   2.538  12.149   3.897 -0.3878 -0.7604 -0.3775
  394MOL0     O54258   2.447  12.252   3.882 -0.2679 -0.1501 -0.3217
  394MOL0     C54259   2.446  12.309   3.757  0.2155 -0.0317  0.7837
  394MOL0     C54260   2.344  12.399   3.724 -0.1360  0.0742  0.4047
  394MOL0     C54261   2.326  12.434   3.590 -0.6317 -0.2072  0.6474
  394MOL0     C54262   2.197  12.514   3.554 -0.3058  0.0891 -0.2995
  394MOL0     C54263   2.406  12.379   3.483 -0.5339  0.3564 -0.5007
  394MOL0     C54264   2.396  12.397   3.330 -0.3576  1.0196 -0.1574
  394MOL0     O54265   2.475  12.305   3.252  0.0726 -0.4592 -0.2715
  394MOL0     C54266   2.483  12.328   3.122 -0.0733  0.5854 -1.1153
  394MOL0     C54267   2.377  12.300   3.041  0.5625  0.0456  0.3679
  394MOL0     C54268   2.399  12.308   2.899 -0.4002  0.4867  0.7542
  394MOL0     C54269   2.516  12.333   2.843 -1.0518 -0.7388  0.2183
  394MOL0     O54270   2.540  12.357   2.712  0.9885  0.7188  0.1296
  394MOL0     C54271   2.475  12.468   2.651 -0.0885  0.9203  0.7173
  394MOL0     C54272   2.574  12.572   2.611  0.3152 -0.2077 -0.4397
  394MOL0     C54273   2.643  12.542   2.480 -0.1803  1.3135 -0.0117
  394MOL0     C54274   2.730  12.668   2.451  0.8797  1.0700  1.1677
  394MOL0     C54275   2.829  12.648   2.336  0.8764 -0.7384 -0.4589
  394MOL0     C54276   2.751  12.652   2.202  0.6904  0.7190 -0.0270
  394MOL0     C54277   2.844  12.627   2.084  0.0954 -1.0621 -0.5027
  394MOL0     C54278   2.871  12.470   2.062  0.2773 -0.0871 -0.7001
  394MOL0    Cl54279   3.025  12.472   1.958 -0.0779  0.0553  0.4510
  394MOL0     C54280   2.619  12.367   2.928 -1.2063  0.4787 -0.7776
  394MOL0     C54281   2.611  12.357   3.072 -0.0569 -1.4598  1.6022
  394MOL0     O54282   2.312  12.471   3.286 -0.4782 -0.4237  0.4143
  394MOL0     C54283   2.517  12.289   3.515 -0.0737  0.0499 -0.9205
  394MOL0     C54284   2.536  12.270   3.654 -0.8612  0.4687 -0.0292
  394MOL0     N54285   2.389  11.759   3.794 -0.5001 -0.6603 -0.4955
  394MOL0     N54286   2.427  11.638   3.819  0.8169 -0.3016 -0.1361
  394MOL0     C54287   2.171  10.693   4.553  0.0997 -0.1564 -0.7891
  394MOL0     C54288   2.114  10.605   4.640  0.0209 -0.4481 -0.0819
  394MOL0     C54289   1.954  10.408   5.019 -0.1459 -0.3034 -0.3964
  394MOL0     C54290   1.971  10.273   5.058 -0.6944 -0.0495  0.0545
  394MOL0     C54291   1.900  10.218   5.176 -0.4454 -1.1818  1.1764
  394MOL0     C54292   1.817  10.308   5.247 -0.0097 -0.4430  0.0584
  394MOL0     O54293   1.744  10.287   5.366 -0.3197  1.3669  0.2409
  394MOL0     C54294   1.726  10.156   5.412  0.1280 -0.5915 -0.9122
  394MOL0     C54295   1.689  10.147   5.562 -0.4581  0.1710 -0.6957
  394MOL0     C54296   1.615  10.019   5.601  0.4438  0.1673  0.1314
  394MOL0     C54297   1.467  10.023   5.568 -0.0840  0.1732 -0.6534
  394MOL0     C54298   1.415   9.885   5.580 -0.0022 -0.3215  0.2608
  394MOL0     C54299   1.373   9.768   5.598  0.3658 -1.0881  0.6279
  394MOL0     C54300   1.803  10.439   5.206 -0.5729  0.6268  0.0088
  394MOL0     C54301   1.860  10.484   5.092 -0.9396 -1.5024  0.3688
  394MOL0     C54302   1.819  10.626   5.059  1.0434  0.1834  0.0633
  394MOL0     H54303   2.057  10.841   4.883 -2.2573  1.8891 -2.0351
  394MOL0     H54304   2.195  10.982   4.714 -1.5635  1.2846 -4.1360
  394MOL0     H54305   2.463  10.919   4.555 -1.0298 -2.7449 -0.3361
  394MOL0     H54306   2.345  11.056   4.545  0.4139 -1.1309  1.2111
  394MOL0     H54307   2.502  10.914   4.325  0.8764  1.8234 -3.1977
  394MOL0     H54308   2.376  11.036   4.294 -2.4553 -2.4258 -0.3713
  394MOL0     H54309   2.530  11.172   4.466  1.5628 -2.0839  2.0210
  394MOL0     H54310   2.641  11.040   4.450  2.1519 -0.5932 -3.2638
  394MOL0     H54311   2.742  11.193   4.307  1.2646 -0.8350 -4.6568
  394MOL0     H54312   2.656  11.087   4.205 -3.0656  1.1385 -0.9343
  394MOL0     H54313   2.569  11.357   4.317 -1.3885  0.0237  1.8125
  394MOL0     H54314   2.455  11.250   4.239  1.5775 -3.5693  2.6967
  394MOL0     H54315   2.714  11.344   4.099 -0.2640 -2.3038 -3.0249
  394MOL0     H54316   2.569  11.268   4.033 -1.8079 -0.3110  1.4709
  394MOL0     H54317   2.613  11.543   4.018 -0.7537  3.9369  1.6047
  394MOL0     H54318   2.542  11.538   4.185 -1.3734  0.6854 -0.6651
  394MOL0     H54319   2.404  11.391   3.946 -1.6923  1.1913 -2.3810
  394MOL0     H54320   2.324  11.470   4.078 -0.6656 -1.5636 -1.3679
  394MOL0     H54321   2.283  11.738   4.107 -1.0694 -2.5553  1.3829
  394MOL0     H54322   2.168  11.952   3.952  0.8198 -0.5577  1.1131
  394MOL0     H54323   2.290  12.009   3.831  1.8653  1.8450  0.4364
  394MOL0     H54324   2.305  12.114   4.058  1.9329  2.3942 -2.3802
  394MOL0     H54325   2.352  11.967   4.135 -0.8029  1.9250  0.4259
  394MOL0     H54326   2.533  12.125   4.103  0.5974  0.2213 -0.4700
  394MOL0     H54327   2.563  11.971   4.021 -2.4921 -2.0472  0.3737
  394MOL0     H54328   2.635  12.197   3.913 -1.2391  0.6310  0.7800
  394MOL0     H54329   2.531  12.079   3.812  0.0817  1.1042 -2.0293
  394MOL0     H54330   2.279  12.427   3.806 -1.4778 -5.1520  1.5511
  394MOL0     H54331   2.134  12.433   3.515  4.3290 -3.8359 -0.6532
  394MOL0     H54332   2.204  12.581   3.468 -0.4464 -0.5693 -0.8391
  394MOL0     H54333   2.151  12.572   3.634  0.8136  0.7150 -0.0879
  394MOL0     H54334   2.283  12.273   3.088  0.7859 -0.7156  0.3894
  394MOL0     H54335   2.312  12.289   2.836 -0.0277  1.9449 -0.2779
  394MOL0     H54336   2.419  12.434   2.564 -1.3623 -2.5998  2.7046
  394MOL0     H54337   2.405  12.521   2.716 -0.7308  3.5964 -1.9758
  394MOL0     H54338   2.528  12.671   2.607 -3.3109 -1.8027 -2.1917
  394MOL0     H54339   2.648  12.586   2.691  2.0449 -1.5226 -1.7170
  394MOL0     H54340   2.566  12.514   2.408  1.2806 -4.9506  0.2438
  394MOL0     H54341   2.701  12.451   2.499 -0.8335  0.6675 -1.0555
  394MOL0     H54342   2.790  12.687   2.540 -1.0341  1.3095  2.4653
  394MOL0     H54343   2.645  12.735   2.433 -0.1917 -0.5631 -0.0705
  394MOL0     H54344   2.890  12.738   2.327 -0.0520 -0.2222 -2.0155
  394MOL0     H54345   2.894  12.563   2.360  2.5552  0.5971 -0.0622
  394MOL0     H54346   2.692  12.745   2.203  1.0415  0.9532  1.9292
  394MOL0     H54347   2.669  12.580   2.198  2.8305 -1.8732  0.0993
  394MOL0     H54348   2.938  12.676   2.112 -0.9432  0.8854 -0.2438
  394MOL0     H54349   2.800  12.664   1.991 -1.7669 -1.3610  0.2139
  394MOL0     H54350   2.779  12.439   2.012 -0.0184  0.5943 -0.5853
  394MOL0     H54351   2.886  12.411   2.152 -0.5434  0.3289 -0.2839
  394MOL0     H54352   2.724  12.386   2.905 -0.8639 -0.5157 -0.0845
  394MOL0     H54353   2.699  12.378   3.131 -0.7533  1.0777  1.8529
  394MOL0     H54354   2.594  12.250   3.450  2.3551  1.2942  1.0137
  394MOL0     H54355   2.630  12.225   3.683 -0.3179  1.7944  0.3336
  394MOL0     H54356   2.192  10.650   4.455 -2.3520 -0.3499 -1.3053
  394MOL0     H54357   2.096  10.500   4.619  0.2945 -0.7675  1.1866
  394MOL0     H54358   2.037  10.214   4.995 -3.0340 -2.3001 -0.4253
  394MOL0     H54359   1.912  10.116   5.212  0.1889 -1.4127  0.3581
  394MOL0     H54360   1.643  10.113   5.355 -2.4261  0.4856  1.6999
  394MOL0     H54361   1.814  10.091   5.403 -2.4011 -4.7704  1.3390
  394MOL0     H54362   1.621  10.230   5.586  1.3678  1.3859  0.5457
  394MOL0     H54363   1.781  10.165   5.619  0.9573 -3.9469 -1.3285
  394MOL0     H54364   1.663   9.933   5.553  0.1156 -0.7498  1.4129
  394MOL0     H54365   1.631   9.999   5.707  2.0510  0.0798 -0.1134
  394MOL0     H54366   1.446  10.081   5.478  0.9351 -1.6554 -2.1240
  394MOL0     H54367   1.418  10.075   5.651 -2.1571 -2.0821 -0.3325
  394MOL0     H54368   1.338   9.670   5.623 -1.0994 -0.9591 -0.7775
  394MOL0     H54369   1.733  10.496   5.267 -2.8839 -1.9472 -0.0601
  394MOL0     H54370   1.896  10.701   5.074  0.6926  0.1098  2.7777
  394MOL0     H54371   1.779  10.633   4.958 -0.4595  0.3175  0.6282
  394MOL0     H54372   1.729  10.641   5.120  1.2184 -0.1817  0.4163
  395MOL0     O54373  11.061   9.370   5.717  0.5339 -0.3559 -0.2036
  395MOL0     C54374  11.055   9.451   5.808 -0.5611  0.4194 -0.6653
  395MOL0     O54375  11.038   9.582   5.799  0.3949 -0.4532  0.7584
  395MOL0     C54376  11.081   9.648   5.684 -0.1421 -0.3699 -0.5279
  395MOL0     C54377  11.156   9.586   5.581 -0.3083  0.1556  0.3494
  395MOL0     C54378  11.186   9.655   5.467  0.9853  0.2122  1.7777
  395MOL0     C54379  11.172   9.797   5.459  0.0788  0.0266  0.0701
  395MOL0     O54380  11.224   9.864   5.348  0.3121  0.4620 -1.5585
  395MOL0     C54381  11.360   9.837   5.311  0.6599  0.3887 -0.1913
  395MOL0     C54382  11.392   9.940   5.208 -1.1746  0.3801 -0.5478
  395MOL0     C54383  11.537   9.901   5.151 -0.4501  0.6469 -0.6969
  395MOL0     C54384  11.580   9.985   5.031 -0.4332 -0.3516  0.7809
  395MOL0     C54385  11.706   9.913   4.963 -0.4986 -0.1889 -0.2668
  395MOL0     C54386  11.758  10.003   4.854  0.1326 -0.1150 -0.6215
  395MOL0     C54387  11.862   9.912   4.774  1.2028 -0.3511 -0.2745
  395MOL0     C54388  11.908  10.001   4.661 -0.0019 -0.1536 -0.1230
  395MOL0     N54389  12.033   9.950   4.606  0.2427 -0.1059  0.4402
  395MOL0     C54390  12.035   9.852   4.513 -0.4280  0.4608  1.2429
  395MOL0     C54391  12.164   9.811   4.497  0.4683  0.6275  0.1111
  395MOL0     C54392  12.224   9.705   4.416 -0.7898  0.1667 -0.2827
  395MOL0     C54393  12.334   9.631   4.495 -0.0703  0.1460 -1.0413
  395MOL0     C54394  12.279   9.556   4.629 -0.4882 -1.0530  0.4071
  395MOL0     C54395  12.169   9.447   4.595 -0.4955 -0.1933 -0.0154
  395MOL0     O54396  12.228   9.350   4.511 -0.0829  0.9562 -0.1647
  395MOL0     C54397  12.170   9.230   4.485  0.0604  0.2545  0.0423
  395MOL0     C54398  12.046   9.183   4.542 -0.6414 -0.2616 -0.6208
  395MOL0     C54399  11.999   9.063   4.512  0.0063  1.4813 -0.4213
  395MOL0     C54400  11.866   9.026   4.576  0.4768 -0.6898 -0.2384
  395MOL0     C54401  12.062   8.978   4.418  0.0821 -0.4299  0.4292
  395MOL0     C54402  12.020   8.839   4.383 -0.1250 -0.1652 -0.0330
  395MOL0     O54403  12.107   8.770   4.296  0.1470 -0.6550 -0.0489
  395MOL0     C54404  12.084   8.640   4.319  0.0595  0.1752  0.4488
  395MOL0     C54405  12.167   8.568   4.399 -0.0482  0.1286 -0.1501
  395MOL0     C54406  12.146   8.434   4.409 -0.8672  0.2121  0.7185
  395MOL0     C54407  12.076   8.371   4.310  0.6148 -0.4149 -0.1804
  395MOL0     O54408  12.079   8.237   4.314 -0.1505 -0.0133  0.0844
  395MOL0     C54409  11.979   8.155   4.258 -0.0353 -0.1561  0.3124
  395MOL0     C54410  12.031   8.111   4.123  0.1733 -0.1637 -0.2210
  395MOL0     C54411  12.105   7.977   4.117  0.8495 -0.1396 -0.7282
  395MOL0     C54412  12.155   7.958   3.979  1.1960  0.0648 -0.0069
  395MOL0     C54413  12.295   8.011   3.954  0.3820  0.5602 -0.2971
  395MOL0     C54414  12.329   8.013   3.801  0.5583  0.5154 -0.2779
  395MOL0     C54415  12.351   7.870   3.736  0.1593  0.3681 -0.2708
  395MOL0     C54416  12.406   7.883   3.595  0.0320  0.1046  0.2603
  395MOL0    Cl54417  12.272   7.952   3.492 -0.1490  0.3102  0.1559
  395MOL0     C54418  11.983   8.438   4.227  0.2734 -0.0398  0.7224
  395MOL0     C54419  11.990   8.575   4.235  0.2368 -0.5593 -0.1858
  395MOL0     O54420  11.912   8.801   4.423 -0.7833 -0.4039  0.0835
  395MOL0     C54421  12.185   9.019   4.360 -0.3266 -0.6571 -0.1155
  395MOL0     C54422  12.238   9.143   4.395 -0.1023 -1.4110 -0.2268
  395MOL0     N54423  12.238   9.890   4.577  0.6814 -0.0382 -0.0110
  395MOL0     N54424  12.161   9.975   4.641 -0.1152 -0.6742 -0.8214
  395MOL0     C54425  11.103   9.863   5.565  0.3498  1.2123  0.1625
  395MOL0     C54426  11.045   9.789   5.665  0.0199  0.3284 -0.6186
  395MOL0     C54427  11.064   9.389   5.941 -0.0084 -0.0831  0.6692
  395MOL0     C54428  10.967   9.428   6.034 -0.3039  0.4582 -0.7154
  395MOL0     C54429  10.943   9.355   6.153  0.5567  0.4058 -0.1062
  395MOL0     C54430  11.015   9.239   6.185  0.7204  0.3289 -0.0869
  395MOL0     O54431  11.009   9.163   6.300  0.3504  0.0845 -1.1063
  395MOL0     C54432  10.903   9.178   6.392  0.0909 -0.1103 -0.5802
  395MOL0     C54433  10.904   9.057   6.481  0.4896  0.3151  0.7881
  395MOL0     C54434  11.034   9.038   6.562 -0.6263 -0.2503  0.7705
  395MOL0     C54435  11.038   8.941   6.684 -0.6497  0.0763  0.2868
  395MOL0     C54436  10.987   9.005   6.804 -0.3776  0.9079  0.0371
  395MOL0     C54437  10.937   9.065   6.903  0.3935 -0.3626 -0.1744
  395MOL0     C54438  11.114   9.200   6.096  1.2408 -0.7217 -0.0134
  395MOL0     C54439  11.142   9.280   5.974  0.0428  0.5624 -0.0616
  395MOL0     C54440  11.256   9.230   5.881 -0.2606 -0.8517 -0.3171
  395MOL0     H54441  11.201   9.488   5.574  3.3074  1.7126 -0.8884
  395MOL0     H54442  11.245   9.602   5.394  0.9461  0.9460  1.1993
  395MOL0     H54443  11.366   9.737   5.269 -0.4341  1.5907 -3.5114
  395MOL0     H54444  11.433   9.844   5.392  0.5913 -0.1524 -0.0819
  395MOL0     H54445  11.324   9.938   5.122 -2.4241  1.9966  0.3573
  395MOL0     H54446  11.403  10.041   5.250  4.4605  0.4599 -1.4210
  395MOL0     H54447  11.617   9.912   5.225  0.3155  1.2053 -1.5785
  395MOL0     H54448  11.535   9.793   5.134 -1.9509  0.2376  1.5395
  395MOL0     H54449  11.503   9.999   4.954 -1.2056 -1.8717  1.2449
  395MOL0     H54450  11.605  10.088   5.057 -1.1357 -0.0356  0.2359
  395MOL0     H54451  11.674   9.820   4.916  2.3632 -1.7846  0.6994
  395MOL0     H54452  11.786   9.890   5.033  1.9890 -0.3201 -2.9827
  395MOL0     H54453  11.671  10.029   4.792  0.1486  0.5621 -0.3644
  395MOL0     H54454  11.817  10.093   4.874  3.0697 -1.6897 -1.7290
  395MOL0     H54455  11.811   9.822   4.739  0.3519 -0.4155  1.0632
  395MOL0     H54456  11.951   9.881   4.831  1.4731  1.3894  0.2893
  395MOL0     H54457  11.828   9.997   4.586 -1.7933  0.9417  1.6219
  395MOL0     H54458  11.909  10.107   4.687 -0.8355 -0.5660  1.7564
  395MOL0     H54459  11.951   9.818   4.453  3.0562 -1.9432 -2.8093
  395MOL0     H54460  12.276   9.766   4.342 -0.4068 -0.1174 -0.2521
  395MOL0     H54461  12.158   9.632   4.367 -0.3809  0.1320 -0.7872
  395MOL0     H54462  12.379   9.562   4.422  2.2640 -0.4941  0.8541
  395MOL0     H54463  12.405   9.706   4.531 -3.1181  1.9162  1.8628
  395MOL0     H54464  12.361   9.515   4.687 -1.7714  0.7960  3.8010
  395MOL0     H54465  12.237   9.627   4.700  1.8104 -0.8810  1.6719
  395MOL0     H54466  12.142   9.415   4.696 -0.4191 -1.2303 -0.3177
  395MOL0     H54467  12.085   9.501   4.550  0.1954  0.4160 -0.6087
  395MOL0     H54468  12.002   9.245   4.619  1.0165  0.2827 -0.0755
  395MOL0     H54469  11.858   8.923   4.614 -1.5113 -1.3929 -2.3279
  395MOL0     H54470  11.793   9.033   4.495  0.9707 -0.0391 -0.6297
  395MOL0     H54471  11.841   9.078   4.669  0.4375 -2.6000  0.8725
  395MOL0     H54472  12.239   8.625   4.457  0.8694  1.0248 -2.0929
  395MOL0     H54473  12.207   8.373   4.475  0.9182 -0.5360 -1.4921
  395MOL0     H54474  11.952   8.070   4.321 -1.5725 -0.0955 -0.2177
  395MOL0     H54475  11.891   8.220   4.255 -0.1351 -0.2770  0.6544
  395MOL0     H54476  11.939   8.084   4.070  0.0867 -0.8370  0.2724
  395MOL0     H54477  12.076   8.199   4.075 -2.0989  1.9908  1.3544
  395MOL0     H54478  12.036   7.897   4.145 -2.9870  3.0568 -0.2226
  395MOL0     H54479  12.184   7.979   4.193 -0.4974 -2.6670  0.8997
  395MOL0     H54480  12.099   8.030   3.919 -1.3407 -2.9627 -1.5547
  395MOL0     H54481  12.142   7.853   3.948  0.2746 -0.2457  1.3573
  395MOL0     H54482  12.304   8.109   4.003 -1.6105 -0.0752  1.5077
  395MOL0     H54483  12.358   7.947   4.016 -1.2573 -2.3510 -1.4641
  395MOL0     H54484  12.428   8.057   3.789  1.4381 -0.7880  1.6987
  395MOL0     H54485  12.266   8.078   3.741  1.7482  3.3923  1.4177
  395MOL0     H54486  12.255   7.818   3.727  0.3927  0.2276 -2.7967
  395MOL0     H54487  12.406   7.805   3.803 -2.0282 -0.8652  0.4433
  395MOL0     H54488  12.437   7.791   3.544  0.3153  0.1217  0.3998
  395MOL0     H54489  12.489   7.955   3.595 -0.5145  0.7542 -0.0236
  395MOL0     H54490  11.929   8.386   4.149  1.9316  0.0660 -0.5790
  395MOL0     H54491  11.941   8.625   4.152  2.0375  0.2992 -0.7956
  395MOL0     H54492  12.254   8.960   4.300 -1.3027  0.4456 -2.4201
  395MOL0     H54493  12.341   9.159   4.364 -0.1734 -1.1393 -0.3199
  395MOL0     H54494  11.092   9.970   5.553  0.9993  1.4517  1.5748
  395MOL0     H54495  11.001   9.846   5.746  0.1897 -0.8510  0.3384
  395MOL0     H54496  10.884   9.484   5.993  0.2692 -0.3370 -3.1213
  395MOL0     H54497  10.858   9.381   6.215  1.5074 -0.0963  1.4844
  395MOL0     H54498  10.909   9.268   6.454 -0.8943 -1.5215  1.6912
  395MOL0     H54499  10.802   9.170   6.350 -0.3429  0.0828  0.3830
  395MOL0     H54500  10.891   8.970   6.416 -0.4269  1.6847 -0.9511
  395MOL0     H54501  10.816   9.077   6.544 -0.1137  2.3582 -0.6356
  395MOL0     H54502  11.119   9.009   6.499 -2.2076  0.3559 -1.7798
  395MOL0     H54503  11.077   9.130   6.602 -0.2363 -1.7729  4.1789
  395MOL0     H54504  11.136   8.892   6.694 -1.0212 -0.4246  1.5973
  395MOL0     H54505  10.970   8.862   6.650 -2.0905  1.5104 -0.2916
  395MOL0     H54506  10.908   9.126   6.986  1.6939 -0.4364  0.3696
  395MOL0     H54507  11.176   9.113   6.115  0.3572 -1.7694 -1.6042
  395MOL0     H54508  11.217   9.148   5.820 -3.2365 -0.7109  1.2160
  395MOL0     H54509  11.304   9.315   5.833  0.9334 -0.1773  1.9291
  395MOL0     H54510  11.333   9.194   5.951 -0.1685  1.4615  0.8617
  396MOL0     O54511   9.935   4.214   2.059 -0.4328 -0.8886  0.1046
  396MOL0     C54512  10.021   4.281   2.097 -1.0142 -0.4987  0.7418
  396MOL0     O54513  10.013   4.393   2.155  0.7720  0.6071  0.0873
  396MOL0     C54514   9.913   4.485   2.149 -0.6282  0.3399 -0.1440
  396MOL0     C54515   9.952   4.611   2.192  0.8679  0.4823 -0.4456
  396MOL0     C54516   9.856   4.711   2.197 -0.6672  0.1266 -0.7614
  396MOL0     C54517   9.723   4.688   2.167  0.0145 -0.1051  0.0385
  396MOL0     O54518   9.637   4.793   2.192 -0.4068 -1.0579 -0.4109
  396MOL0     C54519   9.613   4.828   2.334 -0.5081 -0.8960 -0.2210
  396MOL0     C54520   9.480   4.882   2.364  0.1822  0.6389 -0.8229
  396MOL0     C54521   9.357   4.796   2.359  0.7630  0.4474 -0.6832
  396MOL0     C54522   9.226   4.855   2.412  0.1158 -0.2070 -0.5210
  396MOL0     C54523   9.139   4.943   2.325  0.2372 -0.0492  0.0710
  396MOL0     C54524   9.115   4.902   2.177  0.2933 -0.3463  0.4829
  396MOL0     C54525   8.987   4.981   2.120 -0.2785 -0.2853 -0.2844
  396MOL0     C54526   8.973   4.946   1.977  0.6517  0.2714  0.6663
  396MOL0     N54527   8.840   4.944   1.927 -0.3918  0.4952  0.1810
  396MOL0     C54528   8.789   5.064   1.881 -0.9766 -0.4431  0.1576
  396MOL0     C54529   8.658   5.047   1.890  0.8355  0.8601 -0.0626
  396MOL0     C54530   8.567   5.161   1.904  0.6006 -0.5077 -0.7434
  396MOL0     C54531   8.549   5.260   1.803  0.0680  0.3221 -0.5374
  396MOL0     C54532   8.499   5.208   1.667  0.2211  0.6842 -1.1120
  396MOL0     C54533   8.356   5.143   1.665  0.1389  0.3689  0.5017
  396MOL0     O54534   8.252   5.218   1.720 -0.0580 -0.7806 -1.3199
  396MOL0     C54535   8.125   5.179   1.721 -0.3773 -0.3839  0.4756
  396MOL0     C54536   8.088   5.054   1.666  0.6539  0.2685  0.5745
  396MOL0     C54537   7.957   5.008   1.669  0.5547 -1.3526 -0.3042
  396MOL0     C54538   7.920   4.870   1.609  0.6815 -0.0263  0.2904
  396MOL0     C54539   7.858   5.085   1.730  0.2983 -0.6019  0.0355
  396MOL0     C54540   7.730   5.027   1.756 -0.7998 -0.3870 -0.4514
  396MOL0     O54541   7.703   4.998   1.886 -0.7281  0.0246  0.4156
  396MOL0     C54542   7.584   4.929   1.893 -0.2927 -0.1950 -0.2096
  396MOL0     C54543   7.464   4.977   1.928  0.7438 -1.0830 -0.0752
  396MOL0     C54544   7.348   4.910   1.911  0.4030  0.4612  0.3174
  396MOL0     C54545   7.349   4.771   1.871 -0.5077 -1.1027 -0.2489
  396MOL0     O54546   7.232   4.705   1.876  0.2639  0.1422  1.0493
  396MOL0     C54547   7.229   4.585   1.797 -0.4779 -0.1794 -0.1982
  396MOL0     C54548   7.089   4.541   1.805  0.4102  0.7535  1.1638
  396MOL0     C54549   7.064   4.415   1.720  0.8222 -0.0978  0.7331
  396MOL0     C54550   6.921   4.366   1.727  0.2430  0.2760 -0.3022
  396MOL0     C54551   6.900   4.270   1.615 -0.5378  1.3068  0.7547
  396MOL0     C54552   6.752   4.288   1.566  0.4572 -0.1867 -0.0780
  396MOL0     C54553   6.718   4.178   1.462  0.5429 -0.2587 -0.2252
  396MOL0     C54554   6.726   4.030   1.511 -0.1985 -0.5159  0.4025
  396MOL0    Cl54555   6.705   3.913   1.365  0.0424 -0.0054  0.8330
  396MOL0     C54556   7.474   4.709   1.863 -0.8086  0.6173 -0.1705
  396MOL0     C54557   7.598   4.788   1.870  0.3407  0.3023  0.6092
  396MOL0     O54558   7.659   5.002   1.658 -0.0896 -0.4402 -0.7799
  396MOL0     C54559   7.885   5.216   1.767  0.2964  0.0161 -0.3627
  396MOL0     C54560   8.022   5.262   1.773 -0.9483 -0.1565  0.9105
  396MOL0     N54561   8.635   4.911   1.926  0.6024 -0.5111  0.0762
  396MOL0     N54562   8.743   4.852   1.934  0.5196  0.3289  0.0842
  396MOL0     C54563   9.681   4.566   2.115  0.6137  0.3291 -0.0234
  396MOL0     C54564   9.774   4.461   2.102  0.2682 -0.6443 -0.2923
  396MOL0     C54565  10.158   4.241   2.066  0.6593 -0.1682  0.0242
  396MOL0     C54566  10.218   4.134   2.135 -0.7379  0.4237 -1.2209
  396MOL0     C54567  10.352   4.094   2.121 -0.1235  0.3762 -0.0600
  396MOL0     C54568  10.435   4.157   2.036  0.3398 -0.2298  0.1473
  396MOL0     O54569  10.559   4.133   1.999 -0.0915  0.1925 -0.4537
  396MOL0     C54570  10.621   4.004   2.018 -0.0216 -0.4808  0.9971
  396MOL0     C54571  10.745   3.983   1.933  0.2009 -0.6262 -0.5337
  396MOL0     C54572  10.719   4.004   1.782 -0.2321  0.3655  0.1564
  396MOL0     C54573  10.839   4.035   1.693 -1.5230  0.3281 -0.5143
  396MOL0     C54574  10.928   3.915   1.683  0.2846  0.5249 -0.4749
  396MOL0     C54575  10.994   3.810   1.673  0.0861 -0.3818  0.2689
  396MOL0     C54576  10.378   4.264   1.961 -0.7725 -0.3959  0.2221
  396MOL0     C54577  10.245   4.306   1.970  0.2599 -0.0387  1.0241
  396MOL0     C54578  10.203   4.417   1.877 -0.0297  0.8263  0.2684
  396MOL0     H54579  10.053   4.636   2.221  0.6015 -1.4366  2.5569
  396MOL0     H54580   9.890   4.813   2.215 -0.5817  0.6099 -3.2339
  396MOL0     H54581   9.691   4.887   2.383 -1.1757  0.8685 -1.1827
  396MOL0     H54582   9.633   4.738   2.393  3.7455 -2.2927 -3.3264
  396MOL0     H54583   9.496   4.910   2.469  2.6617 -2.0005 -0.3808
  396MOL0     H54584   9.464   4.968   2.298 -0.4583  2.4461  1.5381
  396MOL0     H54585   9.350   4.753   2.259  2.6034 -0.0412 -0.6383
  396MOL0     H54586   9.382   4.705   2.416  0.0211 -0.0894 -1.1855
  396MOL0     H54587   9.165   4.770   2.445  0.3050 -0.3884 -0.6373
  396MOL0     H54588   9.243   4.925   2.494 -1.0761 -1.4424  0.8336
  396MOL0     H54589   9.169   5.048   2.324  0.1608 -0.0286 -0.0823
  396MOL0     H54590   9.041   4.946   2.374 -0.4238  3.2928 -1.2048
  396MOL0     H54591   9.200   4.927   2.113  1.0435 -0.4241  1.4159
  396MOL0     H54592   9.094   4.795   2.167 -0.5970  0.0146 -2.3906
  396MOL0     H54593   9.001   5.090   2.122 -1.2533 -0.1433  1.4096
  396MOL0     H54594   8.902   4.958   2.185  0.3104  3.2130  2.0059
  396MOL0     H54595   9.024   5.007   1.902  2.0008 -0.4614  0.9617
  396MOL0     H54596   9.006   4.843   1.965  2.8439  0.8664  1.2770
  396MOL0     H54597   8.838   5.161   1.876 -1.8980  0.0627  0.5047
  396MOL0     H54598   8.588   5.222   1.992 -1.0643  0.7643 -1.1907
  396MOL0     H54599   8.468   5.129   1.938  0.4909  0.7724  0.2239
  396MOL0     H54600   8.487   5.339   1.846  2.8621  1.3330  2.0456
  396MOL0     H54601   8.648   5.305   1.791 -0.2330  1.6485  1.4656
  396MOL0     H54602   8.492   5.297   1.603  1.4892 -0.3751 -2.8171
  396MOL0     H54603   8.575   5.142   1.624 -1.5028 -1.6136 -0.8065
  396MOL0     H54604   8.331   5.134   1.559 -1.4970  5.5708  0.1639
  396MOL0     H54605   8.363   5.043   1.709 -0.9668 -0.2088 -0.5628
  396MOL0     H54606   8.155   4.981   1.621 -4.7585 -4.7375 -0.5712
  396MOL0     H54607   7.882   4.882   1.507 -0.5449 -1.5544  0.5282
  396MOL0     H54608   7.837   4.827   1.667  0.6596  1.8315  1.7267
  396MOL0     H54609   8.013   4.812   1.609  0.4764 -0.4463 -1.7933
  396MOL0     H54610   7.454   5.084   1.940  2.4262 -0.9290  0.2664
  396MOL0     H54611   7.251   4.956   1.928  0.6675  2.1314 -2.2514
  396MOL0     H54612   7.265   4.614   1.698  1.3273 -0.9442  0.1948
  396MOL0     H54613   7.286   4.503   1.843 -2.3504  0.1309  3.0006
  396MOL0     H54614   7.056   4.524   1.907  0.5115 -1.9757  0.8002
  396MOL0     H54615   7.024   4.622   1.769 -1.6793 -2.1037 -2.0688
  396MOL0     H54616   7.130   4.331   1.744  0.5167 -0.5170  0.1388
  396MOL0     H54617   7.090   4.447   1.618 -0.2717  3.6485  1.4535
  396MOL0     H54618   6.860   4.456   1.711  1.8719  1.8026  1.6399
  396MOL0     H54619   6.901   4.320   1.824  0.5223 -3.0248 -1.6693
  396MOL0     H54620   6.964   4.291   1.529  1.2873 -1.1002  1.4035
  396MOL0     H54621   6.916   4.170   1.658 -0.2044 -0.1233 -2.4373
  396MOL0     H54622   6.739   4.383   1.514  0.3776 -1.9411 -3.5468
  396MOL0     H54623   6.683   4.283   1.651  0.2164  1.1554 -0.1838
  396MOL0     H54624   6.784   4.181   1.375 -1.0398  1.6751 -1.4342
  396MOL0     H54625   6.622   4.214   1.425  0.4146  1.5206  1.6724
  396MOL0     H54626   6.644   3.992   1.573 -0.1654 -3.2215 -1.0799
  396MOL0     H54627   6.823   4.007   1.554 -0.0878 -0.7484  0.0290
  396MOL0     H54628   7.483   4.600   1.861  1.9091  0.7144  1.7678
  396MOL0     H54629   7.697   4.745   1.855 -1.3668 -3.7441 -0.4334
  396MOL0     H54630   7.815   5.285   1.813 -1.1297 -2.4440  1.4363
  396MOL0     H54631   8.055   5.352   1.825 -0.3546  0.8715 -1.1584
  396MOL0     H54632   9.583   4.543   2.074  1.3024  1.9653 -2.8896
  396MOL0     H54633   9.744   4.368   2.055 -0.8720  1.6913 -4.6433
  396MOL0     H54634  10.153   4.080   2.203  0.5931  1.1068  0.6800
  396MOL0     H54635  10.390   4.006   2.172 -0.1298 -1.0249 -2.2973
  396MOL0     H54636  10.644   3.985   2.123  1.3023 -1.6280  0.5233
  396MOL0     H54637  10.553   3.927   1.978  0.9352 -2.0116  2.2341
  396MOL0     H54638  10.775   3.879   1.951 -1.4537 -0.8430  1.3764
  396MOL0     H54639  10.827   4.043   1.975 -1.9582  1.9819  0.2482
  396MOL0     H54640  10.670   3.914   1.742 -2.4743  2.1837 -1.4368
  396MOL0     H54641  10.643   4.082   1.777 -3.0375 -2.1846  0.1658
  396MOL0     H54642  10.892   4.116   1.744 -1.5144 -0.5351  0.8993
  396MOL0     H54643  10.805   4.073   1.596  0.5324  1.8316 -0.7149
  396MOL0     H54644  11.056   3.723   1.681 -2.1768 -2.3141 -1.5631
  396MOL0     H54645  10.436   4.316   1.886 -5.0494  1.4220 -2.1554
  396MOL0     H54646  10.160   4.378   1.784  1.5157 -1.2474  0.3354
  396MOL0     H54647  10.140   4.487   1.932 -1.1356 -1.0122  1.4510
  396MOL0     H54648  10.301   4.460   1.854  2.0096 -2.7645  1.4620
  397MOL0     O54649   3.937  10.508   9.317 -0.0103  0.1232  0.0840
  397MOL0     C54650   4.055  10.493   9.309  0.3141 -0.0182  0.4000
  397MOL0     O54651   4.118  10.417   9.214 -0.6113 -0.1798 -0.2599
  397MOL0     C54652   4.084  10.418   9.081  0.3341 -0.0673 -1.2178
  397MOL0     C54653   4.174  10.347   8.997 -0.0493  0.3238 -0.1588
  397MOL0     C54654   4.151  10.352   8.867  0.4567 -0.9453  0.3716
  397MOL0     C54655   4.053  10.440   8.807 -0.0563 -0.2038  0.1791
  397MOL0     O54656   4.037  10.470   8.667 -0.2193  0.2078  0.0820
  397MOL0     C54657   4.079  10.373   8.564  0.3966  0.0301  0.2234
  397MOL0     C54658   4.052  10.436   8.426 -0.8071 -0.0068 -0.0952
  397MOL0     C54659   3.902  10.439   8.393 -1.2438  0.8662 -0.2197
  397MOL0     C54660   3.873  10.428   8.248 -0.2977  0.7574  0.9456
  397MOL0     C54661   3.772  10.519   8.176 -0.1355 -0.6173 -0.6922
  397MOL0     C54662   3.835  10.646   8.127  0.4733 -0.3680  0.2784
  397MOL0     C54663   3.760  10.717   8.019  0.2706  0.0097 -0.6585
  397MOL0     C54664   3.848  10.825   7.952  0.6174 -0.6096  0.2856
  397MOL0     N54665   3.852  10.940   8.043  0.3762 -0.5571 -0.1743
  397MOL0     C54666   3.747  11.036   8.047 -0.3139  0.5670  0.8071
  397MOL0     C54667   3.777  11.120   8.142 -0.2987 -0.2390 -0.1237
  397MOL0     C54668   3.706  11.247   8.172 -0.2798 -1.0228  0.6516
  397MOL0     C54669   3.563  11.228   8.213 -0.2684  0.4941 -0.9072
  397MOL0     C54670   3.501  11.364   8.233 -0.5456  0.2916 -0.1092
  397MOL0     C54671   3.348  11.367   8.228 -0.7480 -1.3262 -0.7460
  397MOL0     O54672   3.296  11.372   8.094  0.1216  1.1958 -0.4277
  397MOL0     C54673   3.226  11.488   8.054 -0.1393  0.6109  0.1070
  397MOL0     C54674   3.194  11.495   7.919 -1.1836 -0.1451 -0.0636
  397MOL0     C54675   3.113  11.598   7.864 -0.4755  0.4208  1.1824
  397MOL0     C54676   3.078  11.574   7.711 -0.2156  0.5266  0.0498
  397MOL0     C54677   3.060  11.693   7.949 -0.4890 -0.0221 -0.8388
  397MOL0     C54678   2.989  11.818   7.907  0.0832  0.2419  0.4363
  397MOL0     O54679   2.985  11.850   7.774  0.0976 -0.3564 -0.1432
  397MOL0     C54680   2.899  11.946   7.733 -0.5347  0.6127 -0.0301
  397MOL0     C54681   2.947  12.056   7.657  0.7398 -0.6581 -0.1261
  397MOL0     C54682   2.860  12.140   7.593 -0.5636 -0.0222 -0.9829
  397MOL0     C54683   2.725  12.140   7.621 -0.0291 -1.3503  0.0873
  397MOL0     O54684   2.630  12.221   7.571  0.1464 -0.1988 -0.5809
  397MOL0     C54685   2.648  12.285   7.444 -0.3949 -0.5387  0.2186
  397MOL0     C54686   2.672  12.191   7.320 -0.6555 -0.9955 -0.3306
  397MOL0     C54687   2.669  12.279   7.198  0.1641 -0.7243  1.1455
  397MOL0     C54688   2.794  12.350   7.171 -0.7085 -0.0555  0.3277
  397MOL0     C54689   2.786  12.406   7.033 -0.7959 -0.3978 -0.1849
  397MOL0     C54690   2.862  12.542   7.023  0.4083 -0.4555 -0.6894
  397MOL0     C54691   3.017  12.524   7.044 -1.2097  0.3152  0.4586
  397MOL0     C54692   3.088  12.651   6.992  0.0574  0.5140 -0.6880
  397MOL0    Cl54693   3.259  12.635   7.024  0.2498 -0.3875  0.3770
  397MOL0     C54694   2.680  12.042   7.701  0.9897  0.1409 -0.3411
  397MOL0     C54695   2.757  11.939   7.753 -0.7880  0.4493  0.4949
  397MOL0     O54696   2.934  11.886   7.997  0.0833 -1.0344 -0.9156
  397MOL0     C54697   3.095  11.688   8.083 -0.8565 -0.1003  0.7192
  397MOL0     C54698   3.174  11.587   8.135 -0.1542  1.4237  0.7873
  397MOL0     N54699   3.899  11.091   8.189 -0.2783  0.0480  0.1756
  397MOL0     N54700   3.941  10.979   8.134 -0.0590  1.3644 -0.2937
  397MOL0     C54701   3.958  10.498   8.892 -0.2570 -0.3215 -0.2924
  397MOL0     C54702   3.976  10.487   9.031 -0.7945 -0.9536 -1.1911
  397MOL0     C54703   4.141  10.567   9.405  0.8507 -0.3494 -0.8120
  397MOL0     C54704   4.278  10.600   9.370 -0.9049  0.6252  0.3029
  397MOL0     C54705   4.369  10.657   9.458 -0.2332 -0.5353 -0.5985
  397MOL0     C54706   4.320  10.716   9.571 -0.1216  0.5638 -0.0433
  397MOL0     O54707   4.392  10.797   9.657  0.0164  0.2291  0.6635
  397MOL0     C54708   4.541  10.802   9.637 -0.3473  0.7688  0.5920
  397MOL0     C54709   4.634  10.888   9.725 -0.3810  0.1498 -0.3212
  397MOL0     C54710   4.578  11.020   9.743 -0.2117  0.8060 -0.0399
  397MOL0     C54711   4.674  11.115   9.812 -0.5965  0.6556  0.0867
  397MOL0     C54712   4.629  11.252   9.790  0.5566 -0.8518 -0.8978
  397MOL0     C54713   4.574  11.365   9.776  0.3675  0.3644  0.3624
  397MOL0     C54714   4.187  10.691   9.609 -0.3786  0.6627 -0.1396
  397MOL0     C54715   4.103  10.609   9.532 -0.2339 -0.2212 -0.2496
  397MOL0     C54716   3.970  10.587   9.595 -0.2457 -0.0212 -0.3487
  397MOL0     H54717   4.259  10.287   9.027  1.5711  2.8785  0.6771
  397MOL0     H54718   4.217  10.297   8.800 -1.0533  1.0854 -3.0847
  397MOL0     H54719   4.045  10.273   8.593  0.7321 -0.0861  0.2295
  397MOL0     H54720   4.188  10.380   8.576  0.5262  1.9082 -1.5019
  397MOL0     H54721   4.092  10.537   8.420 -1.9952  0.5618  0.9489
  397MOL0     H54722   4.112  10.388   8.349 -0.0555  0.8869 -0.0706
  397MOL0     H54723   3.854  10.354   8.442  1.3188 -1.0439 -0.7753
  397MOL0     H54724   3.858  10.529   8.436 -0.7373  1.2620 -0.5146
  397MOL0     H54725   3.971  10.434   8.201 -0.1983  1.2010  1.2084
  397MOL0     H54726   3.843  10.324   8.231  1.7288  0.3982 -0.7740
  397MOL0     H54727   3.688  10.542   8.243 -0.2694  1.0522 -1.4014
  397MOL0     H54728   3.730  10.473   8.086 -2.4507 -0.1728  0.0789
  397MOL0     H54729   3.841  10.718   8.209 -1.8049 -0.1485  0.3270
  397MOL0     H54730   3.934  10.627   8.085  1.0532  2.9855 -0.1375
  397MOL0     H54731   3.669  10.764   8.055  1.1915 -0.9816  3.4791
  397MOL0     H54732   3.739  10.636   7.948 -0.4650 -0.3193 -0.0700
  397MOL0     H54733   3.946  10.779   7.937  1.5942  1.9501 -2.0049
  397MOL0     H54734   3.816  10.854   7.852 -0.2613 -2.5665 -0.0629
  397MOL0     H54735   3.662  11.047   7.980  0.0532  2.6128  0.6206
  397MOL0     H54736   3.720  11.314   8.087  2.9234 -0.6874  1.2936
  397MOL0     H54737   3.766  11.293   8.252  2.9521  0.3278 -2.3196
  397MOL0     H54738   3.516  11.180   8.126 -1.8163  0.3243 -0.0294
  397MOL0     H54739   3.558  11.164   8.302  1.7835  0.4030 -0.8310
  397MOL0     H54740   3.518  11.391   8.338 -0.1344 -0.7282  0.1015
  397MOL0     H54741   3.548  11.437   8.166  0.0940 -1.2788 -1.4395
  397MOL0     H54742   3.307  11.289   8.294  2.5610 -2.1196  0.6139
  397MOL0     H54743   3.322  11.458   8.282 -0.2550 -0.2134 -2.3096
  397MOL0     H54744   3.234  11.416   7.855  1.0040 -0.2403  1.3301
  397MOL0     H54745   3.136  11.644   7.651  0.2932 -0.5160 -0.7026
  397MOL0     H54746   2.974  11.587   7.681  0.1796 -1.1321 -2.2555
  397MOL0     H54747   3.117  11.479   7.675 -0.6180  0.1621  0.5517
  397MOL0     H54748   3.051  12.085   7.653  0.5284  0.0347 -1.0982
  397MOL0     H54749   2.907  12.225   7.543  1.3604  0.9689  2.1781
  397MOL0     H54750   2.554  12.337   7.424 -0.8464 -0.6667  1.8694
  397MOL0     H54751   2.725  12.360   7.462 -2.3974  1.8224 -0.5492
  397MOL0     H54752   2.769  12.139   7.322  0.9124  1.4580  4.7631
  397MOL0     H54753   2.599  12.110   7.310 -0.3949 -1.1348 -1.1945
  397MOL0     H54754   2.585  12.347   7.183 -0.2365 -1.7770 -1.9673
  397MOL0     H54755   2.653  12.207   7.118 -0.9521  1.2725 -0.5272
  397MOL0     H54756   2.882  12.286   7.182 -0.5229 -0.4901 -2.8676
  397MOL0     H54757   2.806  12.433   7.242  0.4340 -1.5175  1.9436
  397MOL0     H54758   2.823  12.336   6.958 -0.9198  0.4807 -1.0887
  397MOL0     H54759   2.683  12.431   7.006 -0.2182  2.0107 -0.3407
  397MOL0     H54760   2.830  12.614   7.099  3.9261  0.1729  0.3624
  397MOL0     H54761   2.847  12.590   6.926  3.5792  0.4585 -0.8207
  397MOL0     H54762   3.044  12.431   6.993 -0.8311  0.4311  0.4452
  397MOL0     H54763   3.047  12.504   7.147 -0.3214 -2.2443 -0.2206
  397MOL0     H54764   3.048  12.733   7.052 -3.4529  1.5684 -4.0209
  397MOL0     H54765   3.062  12.667   6.887 -2.1627 -0.7483 -0.4163
  397MOL0     H54766   2.574  12.030   7.719  1.4991 -3.6849  1.0722
  397MOL0     H54767   2.715  11.857   7.812  2.3320 -0.9110  1.0275
  397MOL0     H54768   3.071  11.769   8.151  2.0306  0.9932  0.5937
  397MOL0     H54769   3.196  11.596   8.241  0.1770  4.9204  0.5353
  397MOL0     H54770   3.878  10.565   8.861  0.3984  0.6224  0.0180
  397MOL0     H54771   3.912  10.546   9.096  2.3375 -0.3847  1.6789
  397MOL0     H54772   4.318  10.560   9.277 -0.0735  2.1147 -0.0102
  397MOL0     H54773   4.470  10.663   9.419 -0.5920 -2.5792 -2.0452
  397MOL0     H54774   4.591  10.705   9.650  3.4380  2.7885  2.7692
  397MOL0     H54775   4.557  10.834   9.534 -0.9219 -0.3963  0.1234
  397MOL0     H54776   4.734  10.892   9.679 -0.8553 -1.2080 -1.5608
  397MOL0     H54777   4.642  10.837   9.821  0.4408  0.4463 -0.2264
  397MOL0     H54778   4.550  11.068   9.649 -1.1090  3.1278  1.3156
  397MOL0     H54779   4.492  11.008   9.810 -0.4662 -2.6810 -0.8031
  397MOL0     H54780   4.779  11.097   9.787 -0.3169 -1.5669  2.4139
  397MOL0     H54781   4.679  11.083   9.917 -0.3768  0.3648 -0.0138
  397MOL0     H54782   4.531  11.463   9.769 -1.9332 -0.6043  0.0425
  397MOL0     H54783   4.148  10.753   9.690  0.7562  0.7749  0.3406
  397MOL0     H54784   3.913  10.681   9.597 -0.0821  0.0828 -0.5732
  397MOL0     H54785   3.904  10.515   9.545  0.7547 -0.6893 -0.7183
  397MOL0     H54786   3.974  10.549   9.698 -1.5662  1.2089  0.2058
  398MOL0     O54787   1.291   2.474   2.660 -0.1276  0.4950  0.1239
  398MOL0     C54788   1.328   2.492   2.777 -0.3394  0.5958  0.2183
  398MOL0     O54789   1.295   2.588   2.876  0.5393 -0.2006  0.3811
  398MOL0     C54790   1.182   2.668   2.873  0.4777 -0.2062  0.6494
  398MOL0     C54791   1.077   2.662   2.783 -0.0806  0.1909  0.8998
  398MOL0     C54792   0.957   2.739   2.802 -0.2378  1.0826  0.4431
  398MOL0     C54793   0.940   2.832   2.908 -0.4904 -1.3023 -0.5219
  398MOL0     O54794   0.831   2.924   2.930 -0.3040 -0.3988 -0.0753
  398MOL0     C54795   0.718   2.924   2.842  0.2687 -0.0278  0.3389
  398MOL0     C54796   0.613   3.039   2.887  0.2392 -0.5012 -0.4205
  398MOL0     C54797   0.671   3.153   2.976 -0.6929  0.3494  1.1112
  398MOL0     C54798   0.766   3.242   2.897 -0.2373  0.5472 -0.3127
  398MOL0     C54799   0.781   3.386   2.959  0.1433 -0.8115 -0.0227
  398MOL0     C54800   0.872   3.477   2.877  0.5800 -0.9593  0.4610
  398MOL0     C54801   0.880   3.616   2.948  0.0919  0.4663  0.2730
  398MOL0     C54802   0.913   3.719   2.839  0.4895  0.1238  0.1705
  398MOL0     N54803   0.955   3.845   2.900  0.0027 -0.8383 -0.1692
  398MOL0     C54804   1.081   3.889   2.918 -0.1722  0.5283 -1.1371
  398MOL0     C54805   1.082   4.029   2.917  0.8711  0.2656  1.1765
  398MOL0     C54806   1.196   4.123   2.926 -0.7079 -0.6347 -0.8497
  398MOL0     C54807   1.171   4.254   2.856 -0.1165  0.0368  0.0995
  398MOL0     C54808   1.292   4.331   2.840 -0.0307 -0.1861  1.0584
  398MOL0     C54809   1.286   4.440   2.726  0.1056  0.2163 -0.2297
  398MOL0     O54810   1.251   4.576   2.769  0.1931  0.0630  0.2403
  398MOL0     C54811   1.331   4.682   2.720 -0.1187  0.2663 -0.4217
  398MOL0     C54812   1.287   4.785   2.648  0.3504 -0.6265  0.1117
  398MOL0     C54813   1.371   4.893   2.607  0.1041  0.7329 -0.6551
  398MOL0     C54814   1.306   4.996   2.529  0.0328  0.2597  0.3223
  398MOL0     C54815   1.509   4.889   2.632 -0.2351 -0.2739  1.2335
  398MOL0     C54816   1.604   4.994   2.583  0.3796  0.2539  0.6673
  398MOL0     O54817   1.715   4.992   2.649 -1.0092 -0.5192  0.1638
  398MOL0     C54818   1.790   5.108   2.662  0.0556 -0.1858  0.6214
  398MOL0     C54819   1.831   5.156   2.790 -0.4798 -0.4769  0.1516
  398MOL0     C54820   1.909   5.274   2.797 -0.5092  0.4650 -1.0942
  398MOL0     C54821   1.946   5.341   2.685 -0.4704 -0.0985 -0.5556
  398MOL0     O54822   2.034   5.445   2.691  0.1100  0.4391 -0.0655
  398MOL0     C54823   2.052   5.530   2.577 -0.4134  1.2297  0.5925
  398MOL0     C54824   2.129   5.650   2.612  0.1865  0.7553  0.8276
  398MOL0     C54825   2.259   5.625   2.693 -0.3376  0.4872 -0.3606
  398MOL0     C54826   2.358   5.747   2.692  0.7476  1.1104  0.6658
  398MOL0     C54827   2.482   5.738   2.782  0.1637 -0.4966  0.1780
  398MOL0     C54828   2.591   5.633   2.743  0.3300  0.0354  0.0571
  398MOL0     C54829   2.672   5.582   2.867 -0.5284 -0.0219 -0.1485
  398MOL0     C54830   2.823   5.547   2.844 -0.3611 -0.3388 -0.2562
  398MOL0    Cl54831   2.908   5.541   3.003 -0.3646  0.5638 -0.3166
  398MOL0     C54832   1.906   5.288   2.569 -0.1687 -0.4996  0.6507
  398MOL0     C54833   1.841   5.169   2.549 -0.7079 -0.2437  0.4755
  398MOL0     O54834   1.573   5.076   2.497  0.1941  0.5201  0.2161
  398MOL0     C54835   1.554   4.784   2.714  0.3124 -0.5556  0.2434
  398MOL0     C54836   1.466   4.683   2.751 -0.1533  0.9609  0.0350
  398MOL0     N54837   0.946   4.066   2.897 -0.2998  0.7734  0.4121
  398MOL0     N54838   0.876   3.955   2.893 -0.2412 -0.2327  0.1395
  398MOL0     C54839   1.053   2.842   2.992  0.1490  0.1603 -0.3550
  398MOL0     C54840   1.168   2.757   2.979  0.5495 -0.0633  0.5071
  398MOL0     C54841   1.436   2.399   2.827  0.7235 -0.0816 -0.2272
  398MOL0     C54842   1.428   2.357   2.965  0.4460  0.4862  0.3278
  398MOL0     C54843   1.522   2.266   3.022  0.1158  0.0225  0.2797
  398MOL0     C54844   1.613   2.212   2.935 -0.5361 -0.5950  0.2291
  398MOL0     O54845   1.703   2.120   2.990  0.2654  0.6189  0.2193
  398MOL0     C54846   1.834   2.106   2.942 -0.3825  0.4264 -1.0978
  398MOL0     C54847   1.901   1.983   3.003  0.7320 -0.0897  1.1770
  398MOL0     C54848   2.046   1.977   2.967 -0.8376  0.1727 -0.3333
  398MOL0     C54849   2.091   1.832   2.962 -0.5179 -0.2986 -0.5106
  398MOL0     C54850   2.080   1.743   3.080 -1.0825  0.1030  1.0073
  398MOL0     C54851   2.077   1.654   3.161  0.5749  0.6308  0.7216
  398MOL0     C54852   1.629   2.256   2.812  1.0327  0.5610  0.3622
  398MOL0     C54853   1.539   2.344   2.748  0.3222 -0.1891  0.4890
  398MOL0     C54854   1.562   2.386   2.608 -0.7244 -0.6894  0.5912
  398MOL0     H54855   1.069   2.599   2.695 -2.0706  0.5284  0.7884
  398MOL0     H54856   0.886   2.739   2.719  0.5107  1.6313 -0.2083
  398MOL0     H54857   0.660   2.831   2.851 -0.3869  0.5210  2.2852
  398MOL0     H54858   0.743   2.943   2.737 -0.3111 -0.3390  0.1405
  398MOL0     H54859   0.570   3.091   2.801 -2.8816 -0.2259  1.1465
  398MOL0     H54860   0.532   2.999   2.949  0.8925  0.2051  0.9318
  398MOL0     H54861   0.587   3.205   3.022 -1.0104  2.0255 -1.2074
  398MOL0     H54862   0.719   3.108   3.064 -0.9879 -0.1607  1.0172
  398MOL0     H54863   0.873   3.218   2.896 -0.0838  0.4239  3.6539
  398MOL0     H54864   0.718   3.255   2.799 -2.5646  0.0882  0.7032
  398MOL0     H54865   0.823   3.374   3.059  0.9039 -0.9403 -0.3531
  398MOL0     H54866   0.682   3.433   2.962  1.3200  1.8251  0.6728
  398MOL0     H54867   0.975   3.442   2.877  0.8278 -0.2719 -0.1503
  398MOL0     H54868   0.837   3.490   2.774  0.3125  0.2325  0.6807
  398MOL0     H54869   0.956   3.616   3.026  1.4974  2.1572 -1.0035
  398MOL0     H54870   0.776   3.623   2.980 -1.2353 -0.4583 -3.3310
  398MOL0     H54871   0.996   3.687   2.776 -2.6303 -3.0651 -2.7899
  398MOL0     H54872   0.842   3.739   2.758  1.7649  0.4600 -0.8904
  398MOL0     H54873   1.163   3.822   2.936  2.0566  3.2824 -0.2674
  398MOL0     H54874   1.276   4.068   2.875 -0.8353 -1.6616  0.0307
  398MOL0     H54875   1.224   4.136   3.031  2.8684 -0.6408 -1.6739
  398MOL0     H54876   1.126   4.238   2.758 -0.9386  0.9958  0.3031
  398MOL0     H54877   1.098   4.319   2.905  1.1869  0.2881  1.8354
  398MOL0     H54878   1.319   4.374   2.937  2.5926  0.6141  0.0418
  398MOL0     H54879   1.369   4.256   2.825  1.1347  1.2015 -0.2170
  398MOL0     H54880   1.388   4.448   2.686  0.8018 -4.6251  0.0060
  398MOL0     H54881   1.221   4.405   2.646 -0.9807  1.2808  0.1585
  398MOL0     H54882   1.179   4.788   2.640  0.4146 -0.3595 -0.8613
  398MOL0     H54883   1.197   4.990   2.541  0.0595 -0.8753  0.0918
  398MOL0     H54884   1.321   4.992   2.420  2.3219  1.4282  0.5291
  398MOL0     H54885   1.321   5.102   2.551 -3.5550  1.0662 -0.3779
  398MOL0     H54886   1.818   5.100   2.882 -0.4162 -0.5482  0.1183
  398MOL0     H54887   1.943   5.308   2.894 -1.2382 -0.1582 -0.5971
  398MOL0     H54888   2.112   5.468   2.508 -0.3323 -1.8039  3.1394
  398MOL0     H54889   1.957   5.565   2.537  0.9174  4.0143 -0.3491
  398MOL0     H54890   2.145   5.700   2.516  2.5371 -0.6967  0.3590
  398MOL0     H54891   2.069   5.723   2.666 -0.5162  0.6104  0.2569
  398MOL0     H54892   2.312   5.533   2.667  0.9992  0.9995  0.4657
  398MOL0     H54893   2.236   5.617   2.799  1.2095  0.3280 -0.0201
  398MOL0     H54894   2.290   5.827   2.722  0.5240  0.7280  1.1766
  398MOL0     H54895   2.400   5.768   2.593 -0.6831  2.9276  0.3809
  398MOL0     H54896   2.536   5.833   2.791  0.3050 -0.5820  0.2327
  398MOL0     H54897   2.438   5.714   2.879  1.1883  0.1989  0.8358
  398MOL0     H54898   2.656   5.667   2.662  1.2172 -1.1475  0.2473
  398MOL0     H54899   2.543   5.545   2.700  0.7465  1.3793 -3.5639
  398MOL0     H54900   2.618   5.498   2.912  0.9137 -1.0182 -0.2017
  398MOL0     H54901   2.667   5.663   2.940  0.3674  0.4197 -0.5569
  398MOL0     H54902   2.870   5.634   2.797 -1.9758  0.4286 -0.5348
  398MOL0     H54903   2.841   5.462   2.778 -0.3224 -1.6593  1.3885
  398MOL0     H54904   1.940   5.330   2.475 -2.1963  1.4424  0.7078
  398MOL0     H54905   1.809   5.131   2.453 -1.0657  0.3476  0.3487
  398MOL0     H54906   1.655   4.774   2.753  0.1650 -3.9302  0.0698
  398MOL0     H54907   1.496   4.598   2.811 -0.6084  0.4883 -0.3919
  398MOL0     H54908   1.032   2.911   3.074 -0.3324 -0.4317  0.0283
  398MOL0     H54909   1.252   2.772   3.046  2.8925  1.3869 -2.5101
  398MOL0     H54910   1.342   2.393   3.021 -1.0755 -0.7089 -1.1131
  398MOL0     H54911   1.509   2.243   3.127 -0.0325 -0.4528  0.1607
  398MOL0     H54912   1.836   2.100   2.833  0.5480 -1.5446 -1.0097
  398MOL0     H54913   1.879   2.201   2.976  0.6018  0.2742 -1.9077
  398MOL0     H54914   1.837   1.901   2.968 -0.6792  1.3416  0.3071
  398MOL0     H54915   1.890   1.993   3.112 -0.1451 -0.8155  1.1652
  398MOL0     H54916   2.078   2.038   2.882 -1.4882 -0.1638 -0.8268
  398MOL0     H54917   2.101   2.019   3.051 -3.8684  0.6995  1.5687
  398MOL0     H54918   2.200   1.830   2.949 -0.7195 -3.8514 -3.0936
  398MOL0     H54919   2.053   1.782   2.872  1.2674 -1.5091 -0.6635
  398MOL0     H54920   2.065   1.571   3.227  2.5657 -1.6745 -1.5657
  398MOL0     H54921   1.710   2.206   2.759  0.9605 -1.4062  1.9724
  398MOL0     H54922   1.476   2.385   2.542 -0.9626  0.5757  0.8501
  398MOL0     H54923   1.598   2.489   2.597 -2.1144 -0.3275 -0.8421
  398MOL0     H54924   1.645   2.333   2.561 -0.5937  1.1357 -1.3862
  399MOL0     O54925   8.665   1.537   8.043  0.7261  0.3846  0.3270
  399MOL0     C54926   8.708   1.647   8.085 -0.0519  0.0666 -0.3972
  399MOL0     O54927   8.795   1.668   8.185 -0.2404  0.1825 -0.4662
  399MOL0     C54928   8.894   1.574   8.196 -0.8038 -0.6458 -0.6121
  399MOL0     C54929   8.957   1.503   8.093 -0.0053  0.2906 -0.0791
  399MOL0     C54930   9.058   1.409   8.120 -0.0224 -0.2452  0.2848
  399MOL0     C54931   9.099   1.380   8.256  1.0600 -0.3537 -0.0672
  399MOL0     O54932   9.184   1.275   8.283  0.0167 -0.0920  0.4001
  399MOL0     C54933   9.180   1.165   8.182 -0.1390 -1.1173 -0.3905
  399MOL0     C54934   9.230   1.043   8.254 -0.3003  0.7351 -0.5419
  399MOL0     C54935   9.372   1.052   8.319  0.7367  0.1601  0.3896
  399MOL0     C54936   9.419   0.916   8.381  0.0827 -0.6783  0.9820
  399MOL0     C54937   9.528   0.937   8.494  0.9588  0.3723  0.1392
  399MOL0     C54938   9.599   0.808   8.524  0.1371 -0.5457 -0.5886
  399MOL0     C54939   9.705   0.810   8.634  0.2806 -0.1412 -0.3915
  399MOL0     C54940   9.790   0.678   8.635 -0.9288  1.4851 -0.2674
  399MOL0     N54941   9.746   0.581   8.735 -0.4511 -0.2387  1.3489
  399MOL0     C54942   9.766   0.580   8.869 -0.8138  0.7046 -0.7739
  399MOL0     C54943   9.696   0.473   8.910  0.2890 -0.6936 -0.5776
  399MOL0     C54944   9.670   0.437   9.054  0.2071  0.0636 -0.2639
  399MOL0     C54945   9.787   0.421   9.130 -0.3465  0.5226  0.1513
  399MOL0     C54946   9.764   0.404   9.283  0.0565  0.6239  0.1660
  399MOL0     C54947   9.691   0.278   9.315  0.5486  0.1843  0.6499
  399MOL0     O54948   9.555   0.300   9.287  0.8047 -0.3683  0.3764
  399MOL0     C54949   9.478   0.187   9.294 -1.1731 -0.0197  0.0539
  399MOL0     C54950   9.484   0.100   9.180  0.0865 -0.1361  0.0982
  399MOL0     C54951   9.404  -0.008   9.182  0.4397 -0.5162  1.0733
  399MOL0     C54952   9.412  -0.098   9.063  0.1940  0.5401 -0.7297
  399MOL0     C54953   9.329  -0.043   9.292  0.1137 -0.3873 -0.6472
  399MOL0     C54954   9.238  -0.159   9.316  0.0065  0.7452  0.1674
  399MOL0     O54955   9.140  -0.150   9.403 -0.2779 -0.2720  0.1214
  399MOL0     C54956   9.041  -0.251   9.418 -0.1270  0.4623  0.6686
  399MOL0     C54957   8.910  -0.211   9.450  0.0435  0.7065 -0.3567
  399MOL0     C54958   8.800  -0.305   9.474 -0.2467 -0.4372 -0.0770
  399MOL0     C54959   8.827  -0.440   9.452  0.8443 -0.3177 -0.2121
  399MOL0     O54960   8.718  -0.521   9.452  0.1074  0.0264 -0.0228
  399MOL0     C54961   8.736  -0.644   9.526 -0.4889 -0.1336  0.1690
  399MOL0     C54962   8.595  -0.697   9.499  0.4826  0.1504 -0.7564
  399MOL0     C54963   8.569  -0.823   9.574  0.8336  0.2563  0.1609
  399MOL0     C54964   8.538  -0.792   9.723 -0.1938 -0.2333  0.8353
  399MOL0     C54965   8.550  -0.921   9.810  0.0545 -0.0330  0.5589
  399MOL0     C54966   8.494  -0.897   9.957 -0.1376  0.5183 -0.1547
  399MOL0     C54967   8.470  -1.037  10.022 -0.4820  0.7191 -0.0271
  399MOL0     C54968   8.395  -1.037  10.155 -0.4486 -0.4455  0.1289
  399MOL0    Cl54969   8.385  -1.211  10.207  0.1761 -0.1499  0.3256
  399MOL0     C54970   8.954  -0.481   9.415 -0.1179 -0.1439  0.5771
  399MOL0     C54971   9.064  -0.392   9.410 -0.4632 -0.0928  0.2313
  399MOL0     O54972   9.267  -0.265   9.248  0.7821 -0.4915  0.7084
  399MOL0     C54973   9.352   0.022   9.414  0.9403 -0.0139 -0.0106
  399MOL0     C54974   9.430   0.135   9.413 -0.7235 -0.1913 -0.5610
  399MOL0     N54975   9.644   0.410   8.804 -0.3428 -0.6013  0.0002
  399MOL0     N54976   9.673   0.485   8.700  0.6117  0.3911  0.1041
  399MOL0     C54977   9.032   1.445   8.355 -0.1316 -0.7751 -0.5832
  399MOL0     C54978   8.939   1.551   8.330 -0.0204  0.3534  0.0952
  399MOL0     C54979   8.655   1.769   8.029 -0.7057 -0.0690 -0.4520
  399MOL0     C54980   8.673   1.892   8.110  0.3130  1.4377 -0.1862
  399MOL0     C54981   8.618   2.008   8.068  0.8254 -0.8922 -0.3861
  399MOL0     C54982   8.549   2.008   7.943  0.8632 -0.2851 -0.7913
  399MOL0     O54983   8.493   2.122   7.900  0.4280  0.5844 -0.6162
  399MOL0     C54984   8.475   2.237   7.980  0.3070  0.2209  0.3108
  399MOL0     C54985   8.356   2.223   8.075 -0.4532  0.5456  0.3083
  399MOL0     C54986   8.231   2.217   7.993 -0.2788  0.0704 -0.2682
  399MOL0     C54987   8.119   2.242   8.084  0.2980  0.7362 -0.0906
  399MOL0     C54988   7.984   2.205   8.029 -0.6693  0.9241  0.2203
  399MOL0     C54989   7.874   2.163   7.993 -0.1057  0.1113  0.3600
  399MOL0     C54990   8.540   1.892   7.863 -0.7935  0.3391 -0.3247
  399MOL0     C54991   8.595   1.776   7.900 -0.4230  0.9870 -0.7166
  399MOL0     C54992   8.579   1.662   7.798  0.7917  0.6241  0.0756
  399MOL0     H54993   8.927   1.512   7.989 -0.0167 -2.4868 -0.3764
  399MOL0     H54994   9.105   1.368   8.031  0.5178 -1.8295  1.2608
  399MOL0     H54995   9.248   1.192   8.101  2.4220 -0.7249  1.7388
  399MOL0     H54996   9.078   1.147   8.147 -1.6728 -1.3277  3.6945
  399MOL0     H54997   9.158   0.986   8.313  3.6838 -2.3941  1.8421
  399MOL0     H54998   9.247   0.969   8.175 -1.7096  0.1989 -0.3724
  399MOL0     H54999   9.438   1.082   8.237  1.7295 -1.7834  0.4015
  399MOL0     H55000   9.380   1.129   8.396 -1.4967 -1.5904  2.5730
  399MOL0     H55001   9.326   0.881   8.428 -0.4536  0.8009  1.0831
  399MOL0     H55002   9.450   0.850   8.300 -1.0679  0.4563 -0.4419
  399MOL0     H55003   9.491   0.999   8.576 -1.7413 -0.9230  0.0369
  399MOL0     H55004   9.599   0.996   8.436 -0.4950  1.2202 -0.8243
  399MOL0     H55005   9.536   0.730   8.569  0.1766  0.9408  2.2648
  399MOL0     H55006   9.641   0.772   8.429  1.6107  0.4239 -0.3269
  399MOL0     H55007   9.651   0.823   8.729  1.7885 -2.2045  0.8182
  399MOL0     H55008   9.779   0.889   8.619  1.4594 -1.4182 -1.6424
  399MOL0     H55009   9.789   0.626   8.539 -1.7994 -1.2940  1.1436
  399MOL0     H55010   9.898   0.695   8.644  0.3314 -3.4243 -3.0445
  399MOL0     H55011   9.825   0.644   8.934 -3.5328  3.8122 -1.0691
  399MOL0     H55012   9.614   0.343   9.064  1.3868 -0.5249  1.1704
  399MOL0     H55013   9.611   0.515   9.101  0.4915  0.6627 -0.8748
  399MOL0     H55014   9.839   0.336   9.085  3.9706  2.1654  1.4445
  399MOL0     H55015   9.850   0.510   9.140 -0.7262  1.2706 -3.0749
  399MOL0     H55016   9.861   0.395   9.334 -0.7129  0.1126  1.6041
  399MOL0     H55017   9.704   0.485   9.326 -2.8447 -1.1853 -0.1669
  399MOL0     H55018   9.728   0.200   9.248 -1.5005 -0.4385  0.1401
  399MOL0     H55019   9.696   0.230   9.413 -1.7076  1.7249  1.6259
  399MOL0     H55020   9.547   0.143   9.103 -1.3665  2.9722  0.4655
  399MOL0     H55021   9.489  -0.061   8.994  1.5234  2.5381  1.6901
  399MOL0     H55022   9.320  -0.093   9.003 -1.3321  0.8082  1.5277
  399MOL0     H55023   9.417  -0.204   9.089 -0.1135  0.5327 -0.6998
  399MOL0     H55024   8.888  -0.105   9.458  0.2764  0.7356 -0.0855
  399MOL0     H55025   8.708  -0.259   9.508 -0.7711 -0.5834 -1.2416
  399MOL0     H55026   8.806  -0.722   9.496 -0.8329 -0.1712 -0.5683
  399MOL0     H55027   8.756  -0.633   9.633  0.5251 -5.3474  0.7897
  399MOL0     H55028   8.522  -0.625   9.538 -0.6871 -0.0063 -2.5558
  399MOL0     H55029   8.570  -0.717   9.395  3.1552  2.2835 -1.9545
  399MOL0     H55030   8.651  -0.894   9.564 -1.5879 -2.8409  0.6200
  399MOL0     H55031   8.478  -0.863   9.528  0.3044 -0.3992  1.7153
  399MOL0     H55032   8.433  -0.761   9.721  0.0955  0.8314 -1.5529
  399MOL0     H55033   8.598  -0.712   9.769 -0.9264 -0.2757  1.9024
  399MOL0     H55034   8.480  -0.995   9.770  0.6329 -0.7805  0.9246
  399MOL0     H55035   8.653  -0.955   9.803 -1.4290 -5.1102 -0.5570
  399MOL0     H55036   8.398  -0.845   9.964 -0.1777  0.7364 -1.7696
  399MOL0     H55037   8.565  -0.847  10.023 -1.4601  1.2287  0.7568
  399MOL0     H55038   8.563  -1.095  10.027 -2.0864 -2.0186  0.1535
  399MOL0     H55039   8.411  -1.095   9.951 -2.1370  1.5099  0.6602
  399MOL0     H55040   8.294  -0.999  10.138  0.7359  2.0654 -1.9378
  399MOL0     H55041   8.439  -0.977  10.235 -0.8422 -0.0059  0.0209
  399MOL0     H55042   8.970  -0.585   9.389  1.4348  0.1736  0.1197
  399MOL0     H55043   9.162  -0.431   9.385 -1.3008 -1.4137 -1.1686
  399MOL0     H55044   9.281  -0.004   9.492 -0.6545 -2.2853 -2.0991
  399MOL0     H55045   9.435   0.195   9.504 -1.7831  0.3552 -0.8515
  399MOL0     H55046   9.039   1.407   8.457 -0.1918 -0.6364 -0.5278
  399MOL0     H55047   8.904   1.611   8.414  1.4923  1.2084  0.1346
  399MOL0     H55048   8.723   1.874   8.205  1.0869 -0.9038 -0.9677
  399MOL0     H55049   8.633   2.089   8.139  2.4194 -2.2219  0.8575
  399MOL0     H55050   8.561   2.252   8.045 -1.3947 -1.0440  3.0351
  399MOL0     H55051   8.471   2.316   7.905 -2.5748  0.1761  0.3190
  399MOL0     H55052   8.363   2.305   8.148  0.2837 -0.9209  1.9556
  399MOL0     H55053   8.373   2.129   8.129 -1.1387  1.0312  1.4051
  399MOL0     H55054   8.222   2.282   7.905 -2.4686  2.2963  1.4479
  399MOL0     H55055   8.228   2.112   7.960  3.6239 -0.5122  0.7788
  399MOL0     H55056   8.118   2.346   8.116 -2.1241  1.3745 -1.9726
  399MOL0     H55057   8.134   2.172   8.167  1.8089  0.4096 -0.5997
  399MOL0     H55058   7.783   2.119   7.954 -0.1494  1.4779 -1.1941
  399MOL0     H55059   8.482   1.903   7.772  1.2011  1.8606 -1.4920
  399MOL0     H55060   8.586   1.701   7.696 -1.6999 -0.5862 -0.6203
  399MOL0     H55061   8.664   1.593   7.810 -1.7110 -2.6210  0.7961
  399MOL0     H55062   8.490   1.602   7.817  1.1836  0.1629  0.5011
  400MOL0     O55063   2.931   9.569   7.475 -0.1878  0.2683 -0.0524
  400MOL0     C55064   2.934   9.509   7.366 -0.9387 -0.8240 -0.0506
  400MOL0     O55065   2.956   9.373   7.348  0.0190 -0.9773  0.8054
  400MOL0     C55066   3.013   9.311   7.450 -0.8075  0.6764  1.6023
  400MOL0     C55067   2.952   9.207   7.515 -0.4250 -0.4761 -0.7233
  400MOL0     C55068   3.011   9.164   7.635 -1.3737 -0.1324 -0.6570
  400MOL0     C55069   3.133   9.211   7.679 -0.0364 -0.7089  0.4298
  400MOL0     O55070   3.161   9.165   7.802 -0.4618 -0.0549  0.4612
  400MOL0     C55071   3.222   9.272   7.889  0.4666  0.0022  0.6922
  400MOL0     C55072   3.187   9.251   8.037  0.7497 -0.3908 -0.0608
  400MOL0     C55073   3.250   9.124   8.082  0.2223 -0.6510  1.3479
  400MOL0     C55074   3.245   9.111   8.234 -0.0184  0.1079 -0.5299
  400MOL0     C55075   3.274   8.965   8.270 -0.0630 -0.4527 -0.1241
  400MOL0     C55076   3.256   8.941   8.421 -0.2625  0.1861  0.5038
  400MOL0     C55077   3.276   8.789   8.441 -0.8645 -0.2874  0.1458
  400MOL0     C55078   3.284   8.755   8.590 -0.9064 -0.6724 -0.8995
  400MOL0     N55079   3.166   8.739   8.666  0.3228 -0.1773  0.0740
  400MOL0     C55080   3.075   8.834   8.717 -0.1037 -0.2343  1.0805
  400MOL0     C55081   2.977   8.764   8.780  0.3980  0.1015  0.5397
  400MOL0     C55082   2.844   8.808   8.826 -0.6185  0.3296 -0.3871
  400MOL0     C55083   2.846   8.958   8.865 -0.7344  0.1522 -0.1724
  400MOL0     C55084   2.714   8.991   8.938  0.0797  0.7303 -0.1941
  400MOL0     C55085   2.711   9.120   9.017 -0.3552  0.4676  0.7138
  400MOL0     O55086   2.591   9.129   9.094  0.9613  0.2155 -0.2529
  400MOL0     C55087   2.471   9.171   9.043  0.3602 -0.3281  0.0345
  400MOL0     C55088   2.458   9.215   8.908  0.6927 -0.3046 -0.3378
  400MOL0     C55089   2.338   9.234   8.846  0.1186 -0.0752 -0.1708
  400MOL0     C55090   2.343   9.273   8.701  0.1416  0.4110  0.3532
  400MOL0     C55091   2.223   9.215   8.925  0.2651 -0.6388  0.2552
  400MOL0     C55092   2.090   9.238   8.868 -0.9883 -0.5365  0.0890
  400MOL0     O55093   1.993   9.169   8.923  0.4192  0.3329  0.0374
  400MOL0     C55094   1.875   9.186   8.861 -0.1097 -0.7945 -0.4257
  400MOL0     C55095   1.794   9.292   8.892 -0.1283  0.9764  1.1508
  400MOL0     C55096   1.670   9.297   8.839  0.2341 -0.2531 -0.2411
  400MOL0     C55097   1.617   9.197   8.763  0.2817 -0.0412  0.9954
  400MOL0     O55098   1.482   9.188   8.719 -0.7423 -0.7498  0.1333
  400MOL0     C55099   1.383   9.262   8.781 -0.0307 -0.2496 -0.5766
  400MOL0     C55100   1.345   9.370   8.672  0.1133 -0.3452  0.6339
  400MOL0     C55101   1.304   9.310   8.537  1.1030 -0.7542  0.3063
  400MOL0     C55102   1.277   9.416   8.427 -0.1333 -0.2107  0.5434
  400MOL0     C55103   1.180   9.529   8.480  0.0198 -0.6910  0.8520
  400MOL0     C55104   1.264   9.653   8.518  0.2575  0.2592 -0.2504
  400MOL0     C55105   1.164   9.755   8.557  0.0463  0.2498  0.0645
  400MOL0     C55106   1.219   9.899   8.551 -0.6127  0.1769 -0.3346
  400MOL0    Cl55107   1.095  10.015   8.611 -0.0677 -0.0867 -0.1810
  400MOL0     C55108   1.703   9.087   8.729  0.6071 -0.3498 -0.6027
  400MOL0     C55109   1.827   9.085   8.785  0.0296  0.5232 -0.7149
  400MOL0     O55110   2.080   9.331   8.784  1.4002 -0.5472 -0.6561
  400MOL0     C55111   2.222   9.164   9.056 -0.6289  0.4483  0.9539
  400MOL0     C55112   2.357   9.138   9.112  0.8564  0.7751  0.2686
  400MOL0     N55113   3.030   8.632   8.787  0.1645 -0.0607 -0.6820
  400MOL0     N55114   3.142   8.618   8.723 -0.1608  0.3914  0.2267
  400MOL0     C55115   3.204   9.301   7.601  0.0388  0.5480 -0.7883
  400MOL0     C55116   3.147   9.355   7.483 -0.1242 -0.7110 -0.0051
  400MOL0     C55117   2.909   9.580   7.230  0.3871 -0.4269 -0.1599
  400MOL0     C55118   2.976   9.523   7.119  0.4868  0.0947  0.3519
  400MOL0     C55119   2.948   9.578   6.989 -0.5496  0.8801 -0.1801
  400MOL0     C55120   2.857   9.688   6.975 -0.4743  0.6034 -0.0503
  400MOL0     O55121   2.825   9.739   6.851 -0.4312 -0.2978  0.5002
  400MOL0     C55122   2.696   9.713   6.787 -0.7845 -0.4110  0.2370
  400MOL0     C55123   2.677   9.817   6.678 -0.0721  0.3066 -0.7909
  400MOL0     C55124   2.543   9.796   6.622 -0.2346  0.9300  0.1930
  400MOL0     C55125   2.534   9.658   6.542 -0.3466 -0.0735  1.0315
  400MOL0     C55126   2.464   9.557   6.630  0.8588  0.0877 -0.4210
  400MOL0     C55127   2.414   9.479   6.701 -0.2013  0.6627  0.1002
  400MOL0     C55128   2.799   9.739   7.087 -0.5736 -0.1906 -0.0090
  400MOL0     C55129   2.822   9.693   7.215  0.2777  0.1940 -0.1846
  400MOL0     C55130   2.749   9.751   7.336  0.3622  0.4883  0.1233
  400MOL0     H55131   2.854   9.181   7.478 -0.6181  0.4255 -0.8652
  400MOL0     H55132   2.955   9.092   7.692  0.7130 -1.7481 -0.5568
  400MOL0     H55133   3.180   9.371   7.870  3.1249  0.7659 -1.7132
  400MOL0     H55134   3.328   9.286   7.868  0.6077  0.4644  1.6790
  400MOL0     H55135   3.225   9.335   8.095 -0.7244  1.6040 -1.8143
  400MOL0     H55136   3.078   9.251   8.049  0.8746 -0.2148  1.1489
  400MOL0     H55137   3.207   9.043   8.021 -2.0786 -1.0444  3.3396
  400MOL0     H55138   3.355   9.126   8.052  0.0902 -1.4590  0.7847
  400MOL0     H55139   3.315   9.171   8.293 -0.8314  0.5093  0.0339
  400MOL0     H55140   3.145   9.138   8.266 -0.0994 -2.0016  1.2473
  400MOL0     H55141   3.371   8.936   8.228  0.1699 -2.4391  1.6209
  400MOL0     H55142   3.202   8.908   8.209 -1.3842  2.4532 -1.4741
  400MOL0     H55143   3.332   8.999   8.473 -2.2388  2.5148  0.9605
  400MOL0     H55144   3.162   8.972   8.468 -1.3260  0.4349 -1.6799
  400MOL0     H55145   3.360   8.745   8.386 -1.5029  0.1407 -1.2216
  400MOL0     H55146   3.191   8.735   8.398  0.6326 -1.5264 -1.3692
  400MOL0     H55147   3.346   8.666   8.604 -0.6312 -0.6613 -1.9535
  400MOL0     H55148   3.337   8.825   8.655  0.9569 -1.6507 -1.2706
  400MOL0     H55149   3.076   8.939   8.686 -0.6802  0.5505  3.5066
  400MOL0     H55150   2.812   8.747   8.911  2.4918 -0.5402  0.2859
  400MOL0     H55151   2.773   8.786   8.746  0.5437 -2.4741 -0.7715
  400MOL0     H55152   2.931   8.967   8.933 -3.0316 -0.1196  2.9129
  400MOL0     H55153   2.857   9.020   8.775  3.6533 -2.4384 -1.7287
  400MOL0     H55154   2.643   8.990   8.855  1.2775 -0.5683 -1.2476
  400MOL0     H55155   2.679   8.916   9.010  1.4161  1.1108  0.9006
  400MOL0     H55156   2.794   9.126   9.089  0.5999  1.1724 -0.4245
  400MOL0     H55157   2.732   9.201   8.948  3.2670 -0.5034  0.4611
  400MOL0     H55158   2.552   9.236   8.859  0.5070 -3.2131 -2.1010
  400MOL0     H55159   2.290   9.206   8.632 -1.0976  0.3061  1.3670
  400MOL0     H55160   2.445   9.269   8.662 -0.2393 -0.3057 -0.6123
  400MOL0     H55161   2.309   9.376   8.691 -1.3404 -0.2251 -1.7866
  400MOL0     H55162   1.818   9.379   8.952  1.9743  0.3330  1.3051
  400MOL0     H55163   1.604   9.383   8.852  0.6062 -0.0929  0.6463
  400MOL0     H55164   1.293   9.209   8.816 -0.6011  2.2701  2.2685
  400MOL0     H55165   1.406   9.302   8.881 -0.5680 -0.6386 -0.2860
  400MOL0     H55166   1.274   9.440   8.716  1.6886  0.4031  2.1310
  400MOL0     H55167   1.431   9.434   8.651  0.2881  0.3739  3.1193
  400MOL0     H55168   1.212   9.254   8.558  1.7834 -2.5644 -1.2339
  400MOL0     H55169   1.381   9.240   8.505  1.2653 -0.5517  0.2552
  400MOL0     H55170   1.214   9.369   8.350 -3.0252  4.8572 -0.6093
  400MOL0     H55171   1.368   9.446   8.375 -0.9897 -1.5741 -1.9040
  400MOL0     H55172   1.117   9.552   8.393  2.9341 -1.0859 -1.5200
  400MOL0     H55173   1.119   9.495   8.564 -3.6068 -0.8055 -1.5540
  400MOL0     H55174   1.316   9.685   8.427 -0.6572  1.3497 -0.4035
  400MOL0     H55175   1.329   9.631   8.603 -0.4884 -0.0036  0.2630
  400MOL0     H55176   1.117   9.723   8.650 -1.2137 -2.8525 -1.5167
  400MOL0     H55177   1.075   9.757   8.493 -0.8608 -0.4228  1.2765
  400MOL0     H55178   1.242   9.923   8.447  0.0798 -1.9249 -0.7113
  400MOL0     H55179   1.308   9.890   8.613 -0.1671 -0.9071 -1.0988
  400MOL0     H55180   1.664   8.998   8.681 -1.0403 -0.1377  0.2670
  400MOL0     H55181   1.896   9.001   8.775  0.6832  1.2173 -2.5571
  400MOL0     H55182   2.136   9.124   9.109  1.8001 -0.1952  4.7933
  400MOL0     H55183   2.366   9.096   9.211 -1.2267 -0.2762  0.0541
  400MOL0     H55184   3.298   9.345   7.633 -1.4055  5.6204 -2.6127
  400MOL0     H55185   3.201   9.441   7.446  0.7709 -1.4503 -0.4649
  400MOL0     H55186   3.054   9.447   7.119  2.0986  1.6781  0.7615
  400MOL0     H55187   2.994   9.533   6.902 -3.1247  0.0116 -1.1938
  400MOL0     H55188   2.701   9.610   6.750 -0.4155 -0.4064  0.2693
  400MOL0     H55189   2.612   9.717   6.857 -1.2300 -2.6918 -0.0681
  400MOL0     H55190   2.749   9.824   6.596 -0.9281  3.1237 -1.4160
  400MOL0     H55191   2.678   9.922   6.712 -0.7290  1.1823 -3.2798
  400MOL0     H55192   2.468   9.800   6.702  0.8472  0.3991  1.2806
  400MOL0     H55193   2.525   9.864   6.539 -2.7032  0.7864  0.5344
  400MOL0     H55194   2.629   9.613   6.512 -0.2802  0.4101  0.4998
  400MOL0     H55195   2.470   9.667   6.453  2.7132 -0.3610 -1.3498
  400MOL0     H55196   2.340   9.420   6.751  1.2814  0.3623  2.0465
  400MOL0     H55197   2.739   9.824   7.055 -0.1117  0.1115 -0.0835
  400MOL0     H55198   2.688   9.679   7.390 -0.6195  2.5112  1.8474
  400MOL0     H55199   2.822   9.800   7.402 -0.1143  3.9892 -1.6959
  400MOL0     H55200   2.688   9.834   7.299 -2.1322 -1.7871 -1.1684
  401MOL0     O55201   8.534   3.891   5.963 -0.7635 -0.5382 -0.6698
  401MOL0     C55202   8.654   3.914   5.962 -0.7731  0.2287 -0.1449
  401MOL0     O55203   8.722   3.950   6.066 -0.3904  0.9168  0.3751
  401MOL0     C55204   8.661   3.930   6.194 -0.3736 -0.3708  0.1789
  401MOL0     C55205   8.575   4.020   6.250  0.6679  0.3203  0.1310
  401MOL0     C55206   8.523   3.995   6.379 -0.6840 -0.5361  0.6110
  401MOL0     C55207   8.581   3.893   6.459  0.2848  0.0810 -0.3905
  401MOL0     O55208   8.540   3.864   6.582 -0.2707 -0.0330 -0.0740
  401MOL0     C55209   8.534   3.979   6.670  0.4441  1.3279  0.4341
  401MOL0     C55210   8.404   4.000   6.740 -0.5892  0.0117  0.7052
  401MOL0     C55211   8.352   3.883   6.813 -0.1949 -0.2230 -0.2943
  401MOL0     C55212   8.213   3.905   6.888  0.2130 -0.6664 -0.0596
  401MOL0     C55213   8.205   3.799   6.996 -0.1518  1.3714  0.3301
  401MOL0     C55214   8.272   3.663   6.977  0.2504 -0.4728 -1.0813
  401MOL0     C55215   8.224   3.570   7.088  0.3792 -0.1123 -0.4357
  401MOL0     C55216   8.280   3.424   7.071 -0.5075  0.1276  0.3251
  401MOL0     N55217   8.173   3.330   7.027 -0.3033 -0.3645  0.7951
  401MOL0     C55218   8.065   3.303   7.097  0.3747  0.5613  0.2332
  401MOL0     C55219   8.008   3.198   7.030 -0.1704  0.0775 -0.1178
  401MOL0     C55220   7.870   3.142   7.050 -0.4657  0.2428  0.2639
  401MOL0     C55221   7.839   3.007   6.971 -0.0961 -0.6730  0.2835
  401MOL0     C55222   7.882   2.876   7.037 -0.4753 -0.3450 -0.8818
  401MOL0     C55223   7.784   2.823   7.144 -1.0432 -0.0343  1.3655
  401MOL0     O55224   7.684   2.748   7.071 -0.3162  0.0375 -0.0743
  401MOL0     C55225   7.564   2.709   7.132 -0.3877  0.0068  1.1543
  401MOL0     C55226   7.482   2.615   7.062 -0.0615  0.0587 -0.1655
  401MOL0     C55227   7.354   2.567   7.109 -0.1433  1.1117  0.2675
  401MOL0     C55228   7.294   2.464   7.012  0.1934 -0.5491  0.1053
  401MOL0     C55229   7.309   2.623   7.231  0.6943 -0.1147 -0.0472
  401MOL0     C55230   7.179   2.575   7.284 -0.4618 -1.0378  0.3289
  401MOL0     O55231   7.119   2.459   7.236 -0.5639  0.1824  0.3759
  401MOL0     C55232   7.046   2.383   7.324 -0.6472 -0.1819 -0.3371
  401MOL0     C55233   6.910   2.360   7.297  1.2059  0.7040  0.8705
  401MOL0     C55234   6.823   2.299   7.389 -0.1330 -0.7028 -0.3989
  401MOL0     C55235   6.880   2.266   7.517  0.0866  0.1708  0.7031
  401MOL0     O55236   6.788   2.234   7.612  0.1878 -0.0748 -0.7936
  401MOL0     C55237   6.830   2.100   7.664  0.2449  0.3971 -0.4667
  401MOL0     C55238   6.704   2.010   7.706  0.8655  0.6583  0.8577
  401MOL0     C55239   6.760   1.881   7.765  0.3015  0.8239 -0.3430
  401MOL0     C55240   6.836   1.907   7.889 -0.8423 -0.7813 -0.6822
  401MOL0     C55241   6.854   1.784   7.981  0.0531  0.4836 -0.0353
  401MOL0     C55242   6.980   1.807   8.059  0.5383 -0.0943  0.1440
  401MOL0     C55243   6.995   1.707   8.176  0.0604 -1.1126  0.3429
  401MOL0     C55244   7.138   1.723   8.231 -1.7487 -0.0488 -0.1656
  401MOL0    Cl55245   7.261   1.653   8.125 -0.0666 -0.5995 -0.1785
  401MOL0     C55246   7.012   2.282   7.541 -0.2750 -0.4272  0.6060
  401MOL0     C55247   7.101   2.345   7.444 -0.2518 -0.9910 -0.0186
  401MOL0     O55248   7.135   2.647   7.379 -0.2534 -0.4648 -0.3380
  401MOL0     C55249   7.387   2.718   7.294 -0.5663  1.5582  0.4803
  401MOL0     C55250   7.514   2.756   7.252  0.1673 -0.0164  0.5682
  401MOL0     N55251   8.087   3.151   6.929  0.1096  0.8187  0.9847
  401MOL0     N55252   8.192   3.233   6.932 -0.2538  0.3855  1.2657
  401MOL0     C55253   8.675   3.811   6.403  0.8660 -0.3008  0.7472
  401MOL0     C55254   8.720   3.832   6.269  0.3873  0.2310  0.2781
  401MOL0     C55255   8.732   3.899   5.835 -0.8551  0.5223 -0.0300
  401MOL0     C55256   8.866   3.940   5.832 -0.7592 -0.0757 -0.7820
  401MOL0     C55257   8.940   3.948   5.713  0.1437  0.3473 -0.1861
  401MOL0     C55258   8.888   3.897   5.593 -0.2310  0.8824  0.0957
  401MOL0     O55259   8.946   3.917   5.473  0.4028 -0.0952  0.6702
  401MOL0     C55260   9.019   4.028   5.440  1.0326 -0.5246 -0.3251
  401MOL0     C55261   8.928   4.148   5.401 -0.2909 -0.2338 -0.2476
  401MOL0     C55262   8.836   4.113   5.274 -1.0704 -0.1962  0.2191
  401MOL0     C55263   8.761   4.236   5.217  0.7901  0.0984  0.1754
  401MOL0     C55264   8.677   4.184   5.112  0.3579  0.4022 -0.9853
  401MOL0     C55265   8.613   4.137   5.021  0.5368 -0.0854  0.4645
  401MOL0     C55266   8.761   3.838   5.606 -0.5096  1.1267 -0.0135
  401MOL0     C55267   8.677   3.844   5.719  0.2709 -0.8215  0.1235
  401MOL0     C55268   8.539   3.782   5.711  0.2690  0.0187  0.9607
  401MOL0     H55269   8.536   4.092   6.179  0.2216 -0.2556 -0.2164
  401MOL0     H55270   8.454   4.070   6.415 -0.6804 -0.6402  0.8342
  401MOL0     H55271   8.570   4.070   6.622  2.4226 -0.7063 -2.2590
  401MOL0     H55272   8.614   3.956   6.741  1.2833  1.5192 -0.4316
  401MOL0     H55273   8.416   4.086   6.808  0.3361 -0.2066  0.8242
  401MOL0     H55274   8.328   4.021   6.664 -0.3615 -3.6256 -0.6989
  401MOL0     H55275   8.346   3.801   6.740 -1.2174  0.5949 -1.1713
  401MOL0     H55276   8.429   3.848   6.882  1.4661  0.7391 -1.5892
  401MOL0     H55277   8.197   4.009   6.919 -0.1612 -0.3791 -1.2011
  401MOL0     H55278   8.142   3.892   6.806  1.8508  0.7853 -1.8070
  401MOL0     H55279   8.098   3.782   7.013 -0.2193 -1.7953 -2.2180
  401MOL0     H55280   8.246   3.840   7.089  1.4613 -0.5711  0.5483
  401MOL0     H55281   8.239   3.618   6.883 -1.7720  0.1110 -0.7068
  401MOL0     H55282   8.380   3.668   6.994 -0.0678  1.4930  0.7668
  401MOL0     H55283   8.117   3.556   7.073  0.5052 -1.4180 -0.2645
  401MOL0     H55284   8.244   3.616   7.185 -0.6844  2.4655 -1.3498
  401MOL0     H55285   8.355   3.415   6.993  0.9402 -0.7200  1.7366
  401MOL0     H55286   8.325   3.406   7.169 -1.2560  0.9906  0.8472
  401MOL0     H55287   8.021   3.350   7.185  0.8785 -1.8083  1.8521
  401MOL0     H55288   7.803   3.212   6.998  1.5979  1.3328 -1.0395
  401MOL0     H55289   7.846   3.135   7.157 -2.8669  0.8403 -0.1642
  401MOL0     H55290   7.737   2.996   6.934 -0.6959  0.6335  1.4148
  401MOL0     H55291   7.902   3.015   6.883 -1.0330  3.0248 -0.2220
  401MOL0     H55292   7.891   2.806   6.953  0.8720 -2.2694  0.8009
  401MOL0     H55293   7.985   2.893   7.069 -0.8918  1.0643 -0.1915
  401MOL0     H55294   7.847   2.767   7.214  3.5901  0.4155 -1.9887
  401MOL0     H55295   7.732   2.904   7.196  1.0384 -0.0015  3.5909
  401MOL0     H55296   7.522   2.582   6.966 -0.7652 -1.7097  0.1335
  401MOL0     H55297   7.268   2.370   7.061 -1.5682 -1.6544 -2.6998
  401MOL0     H55298   7.331   2.441   6.912 -2.6633  1.4439 -1.5519
  401MOL0     H55299   7.211   2.520   6.969  1.1928 -0.8479 -2.3267
  401MOL0     H55300   6.856   2.387   7.207 -1.1461 -0.9346  1.6993
  401MOL0     H55301   6.719   2.272   7.374 -0.7722  1.4670 -0.1853
  401MOL0     H55302   6.889   2.037   7.598  0.4248 -2.4129  2.1680
  401MOL0     H55303   6.886   2.133   7.752 -4.1954  0.3309  2.7714
  401MOL0     H55304   6.645   2.069   7.777 -2.5593  1.0482 -2.0261
  401MOL0     H55305   6.639   1.983   7.623  0.5183  1.4748  0.8590
  401MOL0     H55306   6.814   1.838   7.681  2.2257 -0.8844  1.6229
  401MOL0     H55307   6.684   1.808   7.796  0.0041  0.7537 -1.2234
  401MOL0     H55308   6.799   1.986   7.955 -1.8711 -1.7875 -0.0054
  401MOL0     H55309   6.928   1.948   7.848 -0.2581  0.0469  1.3472
  401MOL0     H55310   6.765   1.773   8.043  1.9223 -1.9374  2.4520
  401MOL0     H55311   6.859   1.691   7.924 -2.0929  1.1780 -1.4686
  401MOL0     H55312   6.969   1.911   8.090  2.3559 -0.5910  2.8156
  401MOL0     H55313   7.063   1.792   7.990  1.6410 -1.8142  1.7362
  401MOL0     H55314   6.980   1.602   8.152  0.6708 -1.4803  1.5153
  401MOL0     H55315   6.923   1.736   8.253  0.9458  5.9949 -0.7430
  401MOL0     H55316   7.131   1.659   8.320 -0.4929 -0.1879 -0.1491
  401MOL0     H55317   7.167   1.827   8.250  0.6268 -0.1455 -2.7364
  401MOL0     H55318   7.046   2.227   7.627 -1.4728 -3.0785 -0.5105
  401MOL0     H55319   7.208   2.356   7.460 -0.4757  2.1725  0.0394
  401MOL0     H55320   7.350   2.767   7.383 -4.2836  0.8592 -0.5011
  401MOL0     H55321   7.575   2.824   7.311  0.8641  0.4635 -0.6886
  401MOL0     H55322   8.724   3.737   6.465  3.8390 -1.9102 -3.0565
  401MOL0     H55323   8.802   3.768   6.238  1.5861  0.9346  1.8618
  401MOL0     H55324   8.908   3.959   5.931 -1.2131 -5.3428  0.7272
  401MOL0     H55325   9.040   3.992   5.709 -0.1971  1.1207 -3.6818
  401MOL0     H55326   9.091   4.048   5.520  0.5141 -2.6873  0.7574
  401MOL0     H55327   9.068   3.999   5.346 -2.0348  0.8032 -2.4846
  401MOL0     H55328   9.001   4.229   5.393 -2.1705  1.8526  1.9488
  401MOL0     H55329   8.864   4.175   5.486 -0.6534  1.3961 -0.9862
  401MOL0     H55330   8.898   4.078   5.191 -2.2605  0.6941 -1.0986
  401MOL0     H55331   8.762   4.042   5.313  1.1403 -1.5711  2.1764
  401MOL0     H55332   8.831   4.308   5.173  0.9717  0.4854  1.0673
  401MOL0     H55333   8.698   4.294   5.285  1.1638  1.9205 -0.9723
  401MOL0     H55334   8.563   4.089   4.939  2.9600  0.1022 -1.2081
  401MOL0     H55335   8.726   3.798   5.512 -1.2092  2.8165 -0.5108
  401MOL0     H55336   8.455   3.847   5.739 -1.5579 -1.5616 -0.5600
  401MOL0     H55337   8.519   3.759   5.606  1.5450  2.2956  0.1474
  401MOL0     H55338   8.524   3.691   5.769 -1.7328 -1.0669 -1.0998
  402MOL0     O55339   9.966   3.694   0.424  0.3453  0.1210  0.2138
  402MOL0     C55340   9.934   3.792   0.492  0.5628  0.0585 -0.4385
  402MOL0     O55341   9.942   3.799   0.635  0.0965  0.2889  0.4148
  402MOL0     C55342   9.979   3.692   0.711 -0.1408  0.4056  1.5071
  402MOL0     C55343  10.061   3.719   0.824 -0.3507  0.7559  0.4706
  402MOL0     C55344  10.107   3.616   0.919 -0.5654 -0.5360  0.6945
  402MOL0     C55345  10.061   3.481   0.892  0.5333  0.3460  0.1472
  402MOL0     O55346  10.091   3.370   0.965 -0.2670  1.2529 -0.1364
  402MOL0     C55347  10.153   3.383   1.097 -0.7426  0.0901  0.8851
  402MOL0     C55348  10.302   3.410   1.087 -0.7310  0.2247  0.2803
  402MOL0     C55349  10.374   3.276   1.048 -0.3124 -0.4744  0.2096
  402MOL0     C55350  10.512   3.277   1.126  0.2138 -0.1638 -0.2879
  402MOL0     C55351  10.614   3.184   1.061  0.3143 -0.6014  0.4350
  402MOL0     C55352  10.757   3.200   1.118 -0.1162 -0.3757  0.2658
  402MOL0     C55353  10.858   3.095   1.057 -0.1376  0.6680 -0.0815
  402MOL0     C55354  10.842   2.956   1.128 -0.4556 -0.7313 -0.5070
  402MOL0     N55355  10.912   2.848   1.053 -0.3394 -0.1677 -0.3377
  402MOL0     C55356  11.007   2.758   1.095  0.4852  0.7672 -0.4235
  402MOL0     C55357  11.015   2.682   0.975 -1.1549 -0.6129 -0.7580
  402MOL0     C55358  11.102   2.561   0.970 -0.4220  0.8180  0.2221
  402MOL0     C55359  11.127   2.537   0.813  0.4248  0.2042 -1.1557
  402MOL0     C55360  11.173   2.388   0.805  1.3236  0.1716 -0.4174
  402MOL0     C55361  11.147   2.310   0.678 -0.0824  0.6805  0.0829
  402MOL0     O55362  11.218   2.186   0.688 -0.0187 -0.3944  0.8810
  402MOL0     C55363  11.227   2.104   0.579  0.0975  0.3773  0.0265
  402MOL0     C55364  11.138   2.115   0.468 -0.3174  1.1355  0.2882
  402MOL0     C55365  11.147   2.022   0.363  0.4972  0.0612 -0.9836
  402MOL0     C55366  11.069   2.054   0.238 -0.4455 -0.6839 -0.1117
  402MOL0     C55367  11.241   1.915   0.374  0.3262 -0.9801 -0.2898
  402MOL0     C55368  11.249   1.803   0.280 -0.3720 -0.1085 -0.0456
  402MOL0     O55369  11.373   1.745   0.264  0.5869  0.0960 -0.4465
  402MOL0     C55370  11.386   1.615   0.210 -0.3602  0.1285 -0.2232
  402MOL0     C55371  11.500   1.606   0.126 -1.0080 -0.6910  0.5077
  402MOL0     C55372  11.522   1.483   0.074 -0.0222 -0.5590  0.4865
  402MOL0     C55373  11.436   1.370   0.099 -0.2597 -0.3519  0.6455
  402MOL0     O55374  11.464   1.249   0.048 -0.0883 -0.3234 -0.2354
  402MOL0     C55375  11.445   1.146   0.138  0.2173  0.2733  0.6668
  402MOL0     C55376  11.512   1.022   0.080  0.6235  1.1457  1.1914
  402MOL0     C55377  11.517   0.913   0.189 -0.0522 -0.9623  0.7048
  402MOL0     C55378  11.620   0.955   0.308 -0.6235 -0.4768  0.3796
  402MOL0     C55379  11.725   0.853   0.349 -0.7282 -0.6708  0.4447
  402MOL0     C55380  11.665   0.721   0.382  0.0017  0.3767  0.4695
  402MOL0     C55381  11.765   0.598   0.352  0.5676  0.6533  0.1201
  402MOL0     C55382  11.690   0.466   0.328 -0.3678  0.2042 -0.5675
  402MOL0    Cl55383  11.805   0.353   0.275  0.1358  0.3638 -0.4005
  402MOL0     C55384  11.331   1.385   0.176  0.7277 -0.6265 -0.8939
  402MOL0     C55385  11.307   1.506   0.243 -0.9418  0.3207 -0.2926
  402MOL0     O55386  11.143   1.751   0.236 -0.7379 -0.3061  0.3149
  402MOL0     C55387  11.331   1.910   0.487 -0.6323  0.0320 -0.2697
  402MOL0     C55388  11.320   2.003   0.584 -0.7677  0.1750  1.4883
  402MOL0     N55389  10.945   2.735   0.875 -0.4155 -0.9775 -0.0205
  402MOL0     N55390  10.871   2.823   0.925 -0.7814  0.2928  0.1681
  402MOL0     C55391   9.981   3.455   0.781  0.4029  0.0366 -0.7129
  402MOL0     C55392   9.943   3.555   0.691 -0.3803 -0.4021 -0.7788
  402MOL0     C55393   9.870   3.904   0.431 -0.0494 -0.3252  0.4233
  402MOL0     C55394   9.729   3.906   0.421 -0.9032  0.2395 -0.3586
  402MOL0     C55395   9.666   4.031   0.400  0.4502 -0.3234 -0.3953
  402MOL0     C55396   9.741   4.143   0.371 -0.2767 -0.1237 -1.0153
  402MOL0     O55397   9.693   4.269   0.357  0.8701 -0.1520  0.5420
  402MOL0     C55398   9.597   4.304   0.260 -0.3346 -0.7828  0.3486
  402MOL0     C55399   9.583   4.455   0.243  0.0127 -0.1763  0.0573
  402MOL0     C55400   9.525   4.529   0.359 -0.9422  0.0508 -0.6685
  402MOL0     C55401   9.389   4.487   0.394 -0.2648  0.9621 -1.0347
  402MOL0     C55402   9.334   4.565   0.508  0.8737 -0.3219  0.1609
  402MOL0     C55403   9.299   4.638   0.601  0.9624  0.3551  0.1131
  402MOL0     C55404   9.883   4.132   0.372 -0.4448  0.2506  0.1442
  402MOL0     C55405   9.946   4.017   0.406 -0.2082  0.0782 -0.0063
  402MOL0     C55406  10.088   4.007   0.425 -0.3208 -0.1990 -0.9906
  402MOL0     H55407  10.106   3.816   0.842  2.8999 -0.3149 -1.0401
  402MOL0     H55408  10.176   3.656   0.993 -0.8173  0.2652  0.5113
  402MOL0     H55409  10.147   3.287   1.149 -0.2435  0.8998  2.4934
  402MOL0     H55410  10.113   3.464   1.159  2.9231  1.5234  1.6383
  402MOL0     H55411  10.327   3.490   1.016 -6.3761  2.9262  0.7817
  402MOL0     H55412  10.330   3.449   1.185 -1.9565  0.9375  0.3775
  402MOL0     H55413  10.321   3.186   1.081 -0.5077 -2.1714 -4.1149
  402MOL0     H55414  10.380   3.281   0.939  0.8787 -1.4251  0.2126
  402MOL0     H55415  10.554   3.378   1.133 -0.9852  0.2307  3.6388
  402MOL0     H55416  10.491   3.251   1.231 -0.8055  0.3923 -0.3368
  402MOL0     H55417  10.618   3.182   0.952  0.6176 -4.0205  0.3972
  402MOL0     H55418  10.581   3.081   1.081  0.5500 -0.5813  0.9553
  402MOL0     H55419  10.791   3.293   1.072  0.6242 -2.1147 -2.9665
  402MOL0     H55420  10.761   3.198   1.227  0.7350  1.8427  0.3246
  402MOL0     H55421  10.959   3.129   1.081 -0.1199 -1.2602  3.1770
  402MOL0     H55422  10.846   3.091   0.948  0.3440  0.6304 -0.1323
  402MOL0     H55423  10.878   2.952   1.231  1.5566  1.6356 -1.0302
  402MOL0     H55424  10.739   2.920   1.125 -0.9150  0.4430  0.6790
  402MOL0     H55425  11.037   2.732   1.196  0.0201 -2.6017 -1.0525
  402MOL0     H55426  11.054   2.483   1.030  1.8549 -0.8130  0.0640
  402MOL0     H55427  11.200   2.579   1.016  0.3342  1.8772 -1.6853
  402MOL0     H55428  11.039   2.542   0.748  0.8724 -0.8613 -1.8693
  402MOL0     H55429  11.206   2.607   0.784  0.8112  1.2494  2.0214
  402MOL0     H55430  11.277   2.384   0.837  0.0705 -0.7022  4.4369
  402MOL0     H55431  11.112   2.338   0.882  0.5459 -1.3612 -1.9608
  402MOL0     H55432  11.040   2.295   0.659 -0.7685  5.2075 -0.8609
  402MOL0     H55433  11.185   2.369   0.593 -0.6313 -0.8870 -1.2917
  402MOL0     H55434  11.055   2.183   0.477 -1.4189  0.0999 -1.5079
  402MOL0     H55435  11.072   2.162   0.222 -0.5621 -0.1880  2.6851
  402MOL0     H55436  10.965   2.022   0.241 -1.3392  1.8649 -1.4436
  402MOL0     H55437  11.122   2.008   0.154 -0.8345  1.2727 -1.4701
  402MOL0     H55438  11.565   1.692   0.125  2.5833 -3.1768 -0.6755
  402MOL0     H55439  11.610   1.465   0.013 -0.7135  2.8108 -1.7788
  402MOL0     H55440  11.488   1.181   0.232  1.2332 -1.0385  0.7128
  402MOL0     H55441  11.342   1.119   0.162  0.9966 -4.9239 -0.5645
  402MOL0     H55442  11.447   0.981   0.003  1.8054 -1.3236  1.4191
  402MOL0     H55443  11.616   1.028   0.044  0.9029 -1.6052  1.3785
  402MOL0     H55444  11.560   0.835   0.126  3.5840  1.6423 -0.3901
  402MOL0     H55445  11.415   0.896   0.223 -0.1322 -0.7768  0.5574
  402MOL0     H55446  11.562   0.980   0.397  2.7872  4.2782  1.6330
  402MOL0     H55447  11.669   1.052   0.295  2.9026 -2.1963 -0.2543
  402MOL0     H55448  11.803   0.851   0.271  0.0563 -0.6335  1.2126
  402MOL0     H55449  11.782   0.885   0.437  4.2361 -1.5485 -2.0479
  402MOL0     H55450  11.577   0.694   0.323 -0.4696 -0.1551  1.4022
  402MOL0     H55451  11.637   0.730   0.487  0.9652  3.5606  0.5585
  402MOL0     H55452  11.822   0.577   0.442  0.3839  1.3446  0.4023
  402MOL0     H55453  11.838   0.618   0.273 -0.3685  1.6723 -0.5277
  402MOL0     H55454  11.610   0.480   0.254 -1.1739 -2.0419 -0.1896
  402MOL0     H55455  11.648   0.448   0.427  1.9387  1.8482  0.8249
  402MOL0     H55456  11.270   1.303   0.213  0.4761 -0.5035 -1.0341
  402MOL0     H55457  11.253   1.531   0.334  0.2506  1.9351  0.0272
  402MOL0     H55458  11.404   1.831   0.503 -0.7351 -0.0100 -0.0004
  402MOL0     H55459  11.400   2.011   0.657  0.2897 -1.1980  0.5143
  402MOL0     H55460   9.952   3.353   0.758 -2.4794  1.2585 -3.2562
  402MOL0     H55461   9.874   3.526   0.612  0.3329 -1.3390 -1.0666
  402MOL0     H55462   9.675   3.815   0.443 -1.5677  0.0454 -2.5753
  402MOL0     H55463   9.562   4.049   0.428  0.7641  0.5269  0.2920
  402MOL0     H55464   9.629   4.251   0.170  3.0182 -1.1349  1.6070
  402MOL0     H55465   9.498   4.260   0.280  0.1466 -1.3110  1.6810
  402MOL0     H55466   9.530   4.472   0.149 -2.3965 -0.1377  1.3634
  402MOL0     H55467   9.678   4.507   0.222 -1.8557  3.3641 -0.4741
  402MOL0     H55468   9.594   4.511   0.441  0.1268 -1.3747 -1.8393
  402MOL0     H55469   9.532   4.638   0.357  0.4788  0.0354  1.0329
  402MOL0     H55470   9.399   4.391   0.444 -2.0561  1.7297  0.9438
  402MOL0     H55471   9.323   4.467   0.309 -1.1547  2.4254 -0.7215
  402MOL0     H55472   9.252   4.697   0.677  3.1183  1.2315  0.8357
  402MOL0     H55473   9.938   4.225   0.379 -0.0510  0.0817 -0.6161
  402MOL0     H55474  10.112   4.020   0.531 -3.1648 -0.1530 -0.2592
  402MOL0     H55475  10.152   3.935   0.373  2.5578  2.2971 -1.1546
  402MOL0     H55476  10.127   4.101   0.386 -4.2890  2.7850  1.4727
  403MOL0     O55477   7.984   7.914   3.616 -0.8824  0.7775 -0.7364
  403MOL0     C55478   7.897   7.863   3.553 -0.1246 -0.5376 -0.6448
  403MOL0     O55479   7.804   7.774   3.597  0.2635  0.1655  1.0028
  403MOL0     C55480   7.820   7.715   3.718 -0.1131 -0.5314  0.1847
  403MOL0     C55481   7.806   7.791   3.838 -0.6368 -0.1510  0.9797
  403MOL0     C55482   7.817   7.722   3.959  0.2926 -0.0527  0.0591
  403MOL0     C55483   7.859   7.594   3.973  0.5436 -1.0139  0.0705
  403MOL0     O55484   7.875   7.546   4.097  0.1988  0.9235  0.4510
  403MOL0     C55485   7.851   7.403   4.108 -0.9684 -0.8970 -0.2507
  403MOL0     C55486   7.892   7.356   4.255  0.5264 -0.2349 -0.2965
  403MOL0     C55487   7.889   7.201   4.267 -0.4090  1.0113 -0.6665
  403MOL0     C55488   7.850   7.150   4.402 -0.3577  0.0738 -0.0712
  403MOL0     C55489   7.816   7.005   4.385  0.8161  0.8706 -0.3592
  403MOL0     C55490   7.771   6.931   4.510  0.2411  0.3886  0.5178
  403MOL0     C55491   7.623   6.954   4.552 -0.0235 -0.1036 -0.3070
  403MOL0     C55492   7.595   6.920   4.707  0.7308  1.1758  0.6573
  403MOL0     N55493   7.654   6.793   4.745 -0.4870 -0.3538  0.8826
  403MOL0     C55494   7.749   6.775   4.845  1.1703  0.4492  0.8266
  403MOL0     C55495   7.752   6.640   4.858  1.7364 -0.0196 -0.0390
  403MOL0     C55496   7.848   6.565   4.953  0.2474 -0.7125  0.4449
  403MOL0     C55497   7.822   6.611   5.086  1.2733  0.7460 -0.2659
  403MOL0     C55498   7.915   6.553   5.205 -0.3182 -0.1805  0.4239
  403MOL0     C55499   7.879   6.629   5.328 -1.1724  0.5067  0.5400
  403MOL0     O55500   7.960   6.748   5.323 -0.5441 -0.3357  0.2222
  403MOL0     C55501   7.913   6.858   5.391 -0.6440 -0.5764 -0.0725
  403MOL0     C55502   7.938   6.987   5.341  0.3357 -1.0115 -0.4158
  403MOL0     C55503   7.893   7.100   5.404 -0.0128  0.2843 -0.1553
  403MOL0     C55504   7.919   7.243   5.349 -0.8415  0.4935  0.2435
  403MOL0     C55505   7.817   7.085   5.522 -0.1797 -0.0806 -1.3197
  403MOL0     C55506   7.766   7.197   5.601 -0.3813  0.0689 -1.1166
  403MOL0     O55507   7.853   7.295   5.627  0.7524  0.2701 -0.3849
  403MOL0     C55508   7.838   7.392   5.724 -0.1936  0.2852  0.2357
  403MOL0     C55509   7.953   7.437   5.793 -0.2899  0.3061  0.3233
  403MOL0     C55510   7.939   7.530   5.898  0.3913  0.1456  0.5756
  403MOL0     C55511   7.821   7.590   5.938  0.1785 -0.7608 -0.1890
  403MOL0     O55512   7.816   7.667   6.055  0.3116 -0.2944  0.4276
  403MOL0     C55513   7.782   7.802   6.028  1.0536  0.1687  0.0344
  403MOL0     C55514   7.804   7.880   6.155  0.3218  0.3234  0.1442
  403MOL0     C55515   7.717   7.814   6.269  0.4870  0.0044 -0.3677
  403MOL0     C55516   7.720   7.905   6.389  0.5922  0.4914  0.0067
  403MOL0     C55517   7.632   7.859   6.500  0.2043 -0.8001 -0.0087
  403MOL0     C55518   7.655   7.971   6.612  0.1735 -0.4874 -0.2938
  403MOL0     C55519   7.568   7.917   6.730 -1.3161  0.0642  0.4372
  403MOL0     C55520   7.563   8.022   6.843 -0.5315 -0.2211 -0.0242
  403MOL0    Cl55521   7.719   8.027   6.932  0.4552 -0.1179 -0.2506
  403MOL0     C55522   7.705   7.546   5.869 -0.1930 -0.1152  0.5407
  403MOL0     C55523   7.715   7.450   5.759 -0.2025 -0.0164  0.0775
  403MOL0     O55524   7.659   7.176   5.659  0.3600  0.5248  0.1953
  403MOL0     C55525   7.786   6.957   5.569 -0.1145 -0.1477 -0.1820
  403MOL0     C55526   7.829   6.846   5.499  0.9180 -0.0232  0.7454
  403MOL0     N55527   7.657   6.575   4.780 -0.6793 -0.2153  0.0145
  403MOL0     N55528   7.612   6.672   4.702  0.2978 -0.4838  0.7767
  403MOL0     C55529   7.864   7.520   3.854  1.2245  0.2399 -0.3286
  403MOL0     C55530   7.850   7.584   3.732 -0.1913  0.6910 -0.3410
  403MOL0     C55531   7.879   7.925   3.418  1.3708  0.1397  0.1227
  403MOL0     C55532   7.981   7.979   3.345 -0.7121 -0.0745  0.0270
  403MOL0     C55533   7.959   8.022   3.214 -0.2291 -0.4385 -0.0907
  403MOL0     C55534   7.838   8.033   3.155  0.9059  0.4453 -0.1839
  403MOL0     O55535   7.843   8.086   3.025  0.4120  0.5666 -0.7419
  403MOL0     C55536   7.718   8.138   2.978 -0.7424 -0.0541  0.0795
  403MOL0     C55537   7.720   8.143   2.827  0.9235  0.2788  0.2196
  403MOL0     C55538   7.732   8.283   2.778  0.2818  0.0539  0.5848
  403MOL0     C55539   7.754   8.274   2.623 -0.1063  0.4877 -1.6292
  403MOL0     C55540   7.625   8.250   2.561  0.3042  0.3756  0.7189
  403MOL0     C55541   7.540   8.188   2.506 -0.6507  0.6360 -0.1143
  403MOL0     C55542   7.735   7.994   3.234  0.1275  0.1051 -0.5234
  403MOL0     C55543   7.743   7.940   3.360  0.2355  0.3379  0.4831
  403MOL0     C55544   7.623   7.898   3.440  1.1392  0.0892 -1.0063
  403MOL0     H55545   7.773   7.894   3.832  0.9038  0.2815 -0.7027
  403MOL0     H55546   7.797   7.777   4.050 -1.0441 -1.4476  0.6602
  403MOL0     H55547   7.914   7.347   4.038  1.6723  3.2658 -1.5317
  403MOL0     H55548   7.744   7.387   4.090 -2.0488  4.7471 -0.6031
  403MOL0     H55549   7.997   7.383   4.273  1.5057 -3.4102 -0.6775
  403MOL0     H55550   7.829   7.401   4.332 -0.2739 -4.7559  2.0184
  403MOL0     H55551   7.827   7.155   4.190 -0.0014 -3.7614  1.4949
  403MOL0     H55552   7.991   7.164   4.254 -0.5448 -0.1204  1.1928
  403MOL0     H55553   7.928   7.159   4.478 -1.1866 -4.5655  1.6721
  403MOL0     H55554   7.767   7.210   4.440 -0.4055 -1.1260  1.8676
  403MOL0     H55555   7.906   6.962   4.339  1.2989  1.5175 -0.0476
  403MOL0     H55556   7.734   6.996   4.313  2.2831 -3.6484 -1.8054
  403MOL0     H55557   7.782   6.828   4.474 -0.6507  1.6845 -4.1807
  403MOL0     H55558   7.842   6.959   4.588 -0.5111  4.5136 -0.0322
  403MOL0     H55559   7.550   6.908   4.486 -1.7519  1.6284  0.3136
  403MOL0     H55560   7.598   7.061   4.550  0.7367  0.0630 -1.9336
  403MOL0     H55561   7.641   6.997   4.770  0.6132  0.6136  1.4518
  403MOL0     H55562   7.491   6.897   4.730  1.9307 -2.3874  3.4846
  403MOL0     H55563   7.815   6.856   4.875  1.1822 -0.0220  2.1383
  403MOL0     H55564   7.947   6.596   4.919 -1.7067  3.5587 -2.0763
  403MOL0     H55565   7.849   6.456   4.940  0.8008 -0.5822 -0.7169
  403MOL0     H55566   7.849   6.717   5.092  1.6811  0.6595 -0.5470
  403MOL0     H55567   7.716   6.600   5.109  1.8952 -5.6268  1.2936
  403MOL0     H55568   7.890   6.448   5.220 -1.1276  0.1618  1.6112
  403MOL0     H55569   8.023   6.559   5.192 -0.2127 -1.4730  0.5902
  403MOL0     H55570   7.772   6.640   5.347 -1.2842 -1.2597  1.1229
  403MOL0     H55571   7.919   6.580   5.417 -0.4448  1.6159  0.8405
  403MOL0     H55572   7.991   6.996   5.247 -0.7769  1.0262 -0.9056
  403MOL0     H55573   7.942   7.323   5.419  1.4578 -2.3578  3.0891
  403MOL0     H55574   7.825   7.263   5.297 -0.1493  4.1311  0.1806
  403MOL0     H55575   7.996   7.248   5.272  1.4178 -0.9722  2.2427
  403MOL0     H55576   8.046   7.400   5.753 -0.2414  2.3538 -1.6405
  403MOL0     H55577   8.027   7.574   5.944 -1.4358  2.8005  1.8395
  403MOL0     H55578   7.827   7.840   5.936  0.0400  2.2738  0.3251
  403MOL0     H55579   7.676   7.818   6.006  1.5232  3.3850 -0.4288
  403MOL0     H55580   7.910   7.894   6.181  1.3766 -1.6578 -2.5713
  403MOL0     H55581   7.758   7.977   6.132  0.0885 -0.2264 -1.9156
  403MOL0     H55582   7.733   7.710   6.298 -0.8955  0.0914  0.7877
  403MOL0     H55583   7.613   7.816   6.236  0.6463  3.8035 -1.0667
  403MOL0     H55584   7.677   7.996   6.346  1.1578  0.0076 -1.6506
  403MOL0     H55585   7.823   7.924   6.420  1.7374 -1.4938 -2.2759
  403MOL0     H55586   7.526   7.848   6.475  1.0616 -2.9538 -3.3445
  403MOL0     H55587   7.665   7.766   6.548  0.2598 -0.1262  1.3353
  403MOL0     H55588   7.620   8.070   6.582  2.6509  0.6286  0.2204
  403MOL0     H55589   7.763   7.977   6.633 -0.0151 -1.2177  0.9697
  403MOL0     H55590   7.627   7.838   6.778 -3.1553 -0.9182  1.1702
  403MOL0     H55591   7.469   7.878   6.707 -0.5400 -2.0555  0.4820
  403MOL0     H55592   7.484   7.986   6.910  0.8737 -2.0639  0.7172
  403MOL0     H55593   7.532   8.117   6.800  2.0343  0.9583  0.5288
  403MOL0     H55594   7.610   7.582   5.906 -0.1182  1.2802 -0.5534
  403MOL0     H55595   7.620   7.427   5.711  0.0873 -2.1264  0.3921
  403MOL0     H55596   7.720   6.944   5.654  1.8632 -1.5295  1.2043
  403MOL0     H55597   7.774   6.759   5.534 -2.0484  1.2840 -0.2970
  403MOL0     H55598   7.871   7.412   3.855  3.3992  0.3456  0.0543
  403MOL0     H55599   7.830   7.515   3.651 -0.1395 -0.7248  0.8132
  403MOL0     H55600   8.078   7.986   3.393 -0.5008  2.2991 -0.6148
  403MOL0     H55601   8.042   8.052   3.150 -0.8137 -2.1566 -1.7178
  403MOL0     H55602   7.638   8.071   3.014 -0.8244 -0.3789 -0.6849
  403MOL0     H55603   7.695   8.233   3.027 -0.8807  0.4898 -1.0218
  403MOL0     H55604   7.626   8.104   2.789  2.0819  0.9131 -3.7356
  403MOL0     H55605   7.806   8.088   2.787  2.1995  3.3913 -1.6735
  403MOL0     H55606   7.632   8.319   2.805  0.6945  0.1923  2.0277
  403MOL0     H55607   7.801   8.346   2.835 -0.6400  0.9194  0.7800
  403MOL0     H55608   7.831   8.205   2.590  1.0749  1.4654 -0.9864
  403MOL0     H55609   7.775   8.377   2.592  3.0738 -0.7182 -3.9312
  403MOL0     H55610   7.471   8.137   2.442 -1.4702 -0.5876  1.6730
  403MOL0     H55611   7.636   7.994   3.191 -0.3414 -4.6932  0.0792
  403MOL0     H55612   7.624   7.951   3.536 -2.9662  0.2095 -0.8619
  403MOL0     H55613   7.536   7.929   3.381  1.7411 -2.2665 -3.3115
  403MOL0     H55614   7.622   7.789   3.443  0.7953  0.0439  3.4629
  404MOL0     O55615   8.865   9.514   7.443  0.3858 -0.3303  0.5143
  404MOL0     C55616   8.927   9.525   7.542  0.9486  0.8480 -0.3343
  404MOL0     O55617   8.865   9.555   7.660 -0.1537  1.0248  0.1261
  404MOL0     C55618   8.736   9.605   7.657 -0.3535 -0.3483 -0.3035
  404MOL0     C55619   8.641   9.585   7.757 -0.2893  0.5045 -0.7877
  404MOL0     C55620   8.514   9.643   7.756 -0.0907 -1.1699  0.3392
  404MOL0     C55621   8.481   9.723   7.658  0.0439 -1.4597  0.0251
  404MOL0     O55622   8.356   9.784   7.682 -0.8585  0.1895 -0.0210
  404MOL0     C55623   8.294   9.881   7.583  0.7043  0.4416 -0.2585
  404MOL0     C55624   8.362  10.014   7.574 -0.6173 -0.2513 -0.1215
  404MOL0     C55625   8.267  10.107   7.503 -0.1222  0.0578 -0.4604
  404MOL0     C55626   8.352  10.212   7.423  0.0992 -0.3419 -0.6671
  404MOL0     C55627   8.279  10.310   7.324  0.2213  0.2966 -0.6376
  404MOL0     C55628   8.281  10.458   7.359  0.1320  0.1296 -0.3093
  404MOL0     C55629   8.244  10.479   7.503  1.0142  0.2235 -0.7594
  404MOL0     C55630   8.222  10.625   7.533  1.4396 -0.9287 -0.0428
  404MOL0     N55631   8.209  10.671   7.675 -0.1483  0.0721 -0.5344
  404MOL0     C55632   8.316  10.706   7.756 -0.7281  0.4735 -0.2175
  404MOL0     C55633   8.276  10.691   7.884  0.1584 -0.0106  1.0513
  404MOL0     C55634   8.362  10.711   8.000  0.4312  1.0802 -0.2815
  404MOL0     C55635   8.310  10.817   8.094  0.1133 -0.3173  0.4743
  404MOL0     C55636   8.155  10.826   8.131 -0.3148  1.7737 -0.7835
  404MOL0     C55637   8.122  10.926   8.241 -1.0805 -1.3779  0.1696
  404MOL0     O55638   7.982  10.943   8.244 -0.5399 -0.6231  0.3600
  404MOL0     C55639   7.929  11.053   8.303 -0.6166  0.4697  0.2205
  404MOL0     C55640   8.001  11.139   8.391 -0.8604  0.1367  0.6867
  404MOL0     C55641   7.936  11.249   8.448 -0.0578 -0.7166 -0.2854
  404MOL0     C55642   8.011  11.330   8.539  1.3201 -0.6898  0.0622
  404MOL0     C55643   7.794  11.260   8.435  0.4767 -0.6982  1.2234
  404MOL0     C55644   7.710  11.364   8.492  0.4302 -0.0942 -0.8958
  404MOL0     O55645   7.770  11.444   8.585 -0.3887  0.2712 -0.5849
  404MOL0     C55646   7.714  11.555   8.640 -0.1319 -0.0220  2.0064
  404MOL0     C55647   7.787  11.671   8.638 -0.6466  0.2868  0.0685
  404MOL0     C55648   7.746  11.793   8.702  0.6268 -0.1478 -0.6400
  404MOL0     C55649   7.622  11.793   8.775 -0.6446 -0.2408 -0.2621
  404MOL0     O55650   7.577  11.903   8.843 -0.1539  1.0485 -0.5776
  404MOL0     C55651   7.660  12.021   8.872 -0.1141  0.2709  0.4010
  404MOL0     C55652   7.577  12.093   8.975  0.4831  0.1862 -0.4272
  404MOL0     C55653   7.636  12.227   9.007  0.1813 -0.0419 -0.9841
  404MOL0     C55654   7.727  12.224   9.136  0.1535 -0.3563  0.7286
  404MOL0     C55655   7.780  12.362   9.174 -0.4624 -0.9763  1.3222
  404MOL0     C55656   7.845  12.345   9.315  0.3417 -0.4688 -0.5061
  404MOL0     C55657   7.817  12.454   9.414 -0.0108  0.3875  1.2925
  404MOL0     C55658   7.671  12.460   9.455 -0.2305 -0.1005 -0.0944
  404MOL0    Cl55659   7.612  12.295   9.490 -0.3011 -0.1912  0.0049
  404MOL0     C55660   7.551  11.677   8.776 -0.3835  0.4668  0.4249
  404MOL0     C55661   7.592  11.560   8.715  0.2459  0.7472  0.2605
  404MOL0     O55662   7.595  11.380   8.457 -0.1926 -0.0835  0.0746
  404MOL0     C55663   7.732  11.172   8.342  0.0886 -0.1083  0.5047
  404MOL0     C55664   7.792  11.063   8.281 -0.7903  0.4396  0.5076
  404MOL0     N55665   8.141  10.657   7.873 -0.1695 -0.4125 -0.9474
  404MOL0     N55666   8.100  10.644   7.751 -0.0567 -0.5166 -0.1900
  404MOL0     C55667   8.570   9.757   7.557 -0.6236 -0.0599 -0.2966
  404MOL0     C55668   8.696   9.706   7.563  0.1172  0.2661 -0.0946
  404MOL0     C55669   9.070   9.495   7.531 -0.0698 -0.0820  0.0541
  404MOL0     C55670   9.155   9.565   7.626  0.9894  0.3458 -0.1741
  404MOL0     C55671   9.289   9.530   7.633  0.2830 -0.4821 -1.0144
  404MOL0     C55672   9.344   9.440   7.544 -0.4723  0.0763  1.2375
  404MOL0     O55673   9.476   9.396   7.538  0.5541  0.8420  0.8682
  404MOL0     C55674   9.586   9.464   7.603  0.2159 -1.6735  0.3155
  404MOL0     C55675   9.712   9.445   7.516  0.5995  0.5701 -0.7326
  404MOL0     C55676   9.706   9.532   7.390  1.2571 -0.7783 -0.6785
  404MOL0     C55677   9.795   9.481   7.276  0.4243  0.0285 -0.3101
  404MOL0     C55678   9.926   9.538   7.293  0.2560 -0.1345  0.2622
  404MOL0     C55679  10.043   9.565   7.294  0.0059 -0.1910 -0.1981
  404MOL0     C55680   9.259   9.374   7.451 -0.5015 -0.1482  0.4915
  404MOL0     C55681   9.125   9.401   7.445  0.6247  0.1896 -0.0548
  404MOL0     C55682   9.044   9.327   7.337  0.1222 -0.1439 -0.5302
  404MOL0     H55683   8.684   9.543   7.848 -1.0072  1.6850  0.1170
  404MOL0     H55684   8.458   9.637   7.849 -3.3408  2.1837 -1.1434
  404MOL0     H55685   8.199   9.905   7.631 -0.5190 -1.9043 -1.3335
  404MOL0     H55686   8.268   9.846   7.483  0.0526 -0.8037  0.3173
  404MOL0     H55687   8.381  10.041   7.679  1.6073 -0.2313 -0.4713
  404MOL0     H55688   8.457   9.994   7.523 -0.0442  2.6665 -0.3707
  404MOL0     H55689   8.208  10.045   7.434  0.7995 -1.8769  0.4003
  404MOL0     H55690   8.200  10.152   7.577  0.7147 -0.6920  0.7913
  404MOL0     H55691   8.429  10.265   7.480 -1.3179  1.7826 -0.6058
  404MOL0     H55692   8.407  10.142   7.360  0.1969 -0.4699 -0.4392
  404MOL0     H55693   8.174  10.289   7.300  0.9386 -0.1680 -3.7755
  404MOL0     H55694   8.322  10.302   7.225 -2.1918 -0.5614 -1.6954
  404MOL0     H55695   8.381  10.500   7.349  0.8559 -0.7708  2.3336
  404MOL0     H55696   8.211  10.511   7.294  2.4013 -1.6802 -4.6851
  404MOL0     H55697   8.325  10.440   7.565  0.4034 -0.4798 -0.3847
  404MOL0     H55698   8.148  10.433   7.528  1.8399 -2.0620 -1.5135
  404MOL0     H55699   8.288  10.688   7.473  0.0752 -0.0192 -0.6323
  404MOL0     H55700   8.120  10.642   7.499  1.6554 -0.2542 -0.3629
  404MOL0     H55701   8.419  10.723   7.726  1.6915 -2.9593  4.7592
  404MOL0     H55702   8.467  10.727   7.976  1.1053  1.2304  2.4585
  404MOL0     H55703   8.349  10.622   8.063  0.4180  1.6414  0.5251
  404MOL0     H55704   8.372  10.781   8.177  2.3860 -1.4928 -1.5781
  404MOL0     H55705   8.344  10.918   8.068  0.4045 -0.3140  0.8650
  404MOL0     H55706   8.096  10.841   8.040 -4.8117 -0.4357  1.4729
  404MOL0     H55707   8.119  10.733   8.174 -0.9729  2.7385  0.8669
  404MOL0     H55708   8.156  10.891   8.339  0.5488 -2.6667 -0.7950
  404MOL0     H55709   8.178  11.016   8.215  1.1462 -1.7650  3.1012
  404MOL0     H55710   8.108  11.146   8.409 -1.0099  1.5754  1.1638
  404MOL0     H55711   7.977  11.319   8.642  2.3324 -3.3581  0.2006
  404MOL0     H55712   8.007  11.435   8.510 -1.4862 -0.1539  1.9910
  404MOL0     H55713   8.117  11.305   8.546  0.8481 -3.6829 -1.7158
  404MOL0     H55714   7.875  11.674   8.574  1.6514 -1.0165  2.9191
  404MOL0     H55715   7.804  11.885   8.693  2.0917 -0.8238  1.1254
  404MOL0     H55716   7.754  11.978   8.909  0.2281  1.9111  1.5462
  404MOL0     H55717   7.682  12.090   8.791 -0.9625  0.2253  0.1203
  404MOL0     H55718   7.477  12.124   8.941  1.7123  4.7243 -0.5462
  404MOL0     H55719   7.570  12.029   9.064 -3.0597  0.1733 -0.5642
  404MOL0     H55720   7.558  12.301   9.030  1.4618  1.1259 -0.2532
  404MOL0     H55721   7.696  12.256   8.920  2.0251 -1.3396 -0.2204
  404MOL0     H55722   7.806  12.149   9.135 -0.1285 -0.6509  0.5239
  404MOL0     H55723   7.652  12.206   9.214 -2.6208  4.2929 -0.4549
  404MOL0     H55724   7.852  12.385   9.095 -2.7535 -0.1213 -0.6460
  404MOL0     H55725   7.700  12.437   9.177  2.7977  3.0170 -0.9211
  404MOL0     H55726   7.954  12.338   9.306  0.7327  1.8992  1.2679
  404MOL0     H55727   7.816  12.251   9.360  0.0387 -0.1161  0.0444
  404MOL0     H55728   7.853  12.553   9.386  2.2164 -0.2238  1.7989
  404MOL0     H55729   7.873  12.440   9.507  0.4564  1.1883  1.1398
  404MOL0     H55730   7.615  12.518   9.382  1.0854  1.0616 -0.2108
  404MOL0     H55731   7.664  12.512   9.551 -1.8995 -0.9688  0.2935
  404MOL0     H55732   7.456  11.672   8.828 -0.5350  1.0911  0.2177
  404MOL0     H55733   7.531  11.472   8.727  0.7173  0.1391 -1.4527
  404MOL0     H55734   7.630  11.194   8.313 -0.6705 -0.6592  2.5818
  404MOL0     H55735   7.730  10.995   8.223  2.1652 -0.4761 -1.8637
  404MOL0     H55736   8.542   9.826   7.478 -1.0174  0.5364  0.3531
  404MOL0     H55737   8.761   9.732   7.480 -0.0054 -0.9971 -0.6083
  404MOL0     H55738   9.102   9.632   7.693  0.4882  2.5749 -2.6143
  404MOL0     H55739   9.348   9.580   7.709  1.0459 -0.3565 -1.6846
  404MOL0     H55740   9.575   9.573   7.609  1.8255 -1.3958 -0.9826
  404MOL0     H55741   9.592   9.417   7.701  1.0916 -2.2803 -0.0198
  404MOL0     H55742   9.725   9.339   7.490 -1.3517 -0.1056  0.7957
  404MOL0     H55743   9.797   9.474   7.577 -0.9728  4.2009 -0.0468
  404MOL0     H55744   9.603   9.533   7.351  0.5611  2.5993  0.9024
  404MOL0     H55745   9.744   9.628   7.425 -1.0716  1.7174 -4.1779
  404MOL0     H55746   9.757   9.523   7.182 -1.4155  2.2390  1.2908
  404MOL0     H55747   9.789   9.373   7.267 -1.0622 -0.0605  1.2031
  404MOL0     H55748  10.150   9.575   7.294 -0.0474  3.7576  3.8181
  404MOL0     H55749   9.295   9.293   7.388  0.1724  1.0660 -0.7290
  404MOL0     H55750   9.099   9.235   7.316  3.3882  1.1062  1.7584
  404MOL0     H55751   8.946   9.301   7.377  0.5716 -1.7972 -0.4241
  404MOL0     H55752   9.029   9.394   7.252  0.2022 -1.6543 -1.7808
  405MOL0     O55753   8.813   0.089  10.416  0.7919  0.4449  0.2239
  405MOL0     C55754   8.848   0.191  10.477  0.2895  0.6482 -0.7712
  405MOL0     O55755   8.828   0.214  10.613 -0.2385 -0.1016 -0.3951
  405MOL0     C55756   8.761   0.127  10.702 -0.0770 -0.4730 -0.0241
  405MOL0     C55757   8.687   0.017  10.664 -0.4670  0.5278 -0.3172
  405MOL0     C55758   8.619  -0.061  10.763 -0.1969 -0.4364 -1.5265
  405MOL0     C55759   8.635  -0.039  10.899  0.4040 -1.2210  0.6309
  405MOL0     O55760   8.580  -0.094  11.016 -0.2875 -0.6452  0.3847
  405MOL0     C55761   8.482  -0.198  10.999 -0.3072  0.7239 -0.1970
  405MOL0     C55762   8.380  -0.182  11.119 -0.2400 -0.0085 -0.4070
  405MOL0     C55763   8.305  -0.313  11.127 -0.7327 -0.1240 -0.8218
  405MOL0     C55764   8.396  -0.423  11.189  0.2078 -1.1227  1.0051
  405MOL0     C55765   8.309  -0.535  11.216  0.1321  0.1099  1.1069
  405MOL0     C55766   8.360  -0.674  11.245 -0.4591  0.5174 -0.0799
  405MOL0     C55767   8.469  -0.667  11.356 -0.0872 -1.5921  0.7035
  405MOL0     C55768   8.536  -0.797  11.390  0.5576  0.1171  0.3520
  405MOL0     N55769   8.650  -0.779  11.490 -0.8709 -0.0595 -0.3540
  405MOL0     C55770   8.746  -0.867  11.526 -0.8507  0.6264  0.2904
  405MOL0     C55771   8.830  -0.788  11.611 -0.2946  0.0756  0.6403
  405MOL0     C55772   8.952  -0.838  11.684  0.0344  0.0848 -0.4293
  405MOL0     C55773   8.935  -0.971  11.747 -0.5116 -0.6359 -0.0635
  405MOL0     C55774   9.038  -1.005  11.850  0.0434 -0.3615  0.2322
  405MOL0     C55775   9.186  -0.961  11.812  0.7258 -0.4184 -0.4227
  405MOL0     O55776   9.277  -1.024  11.901  0.2662 -0.3558 -0.4320
  405MOL0     C55777   9.340  -0.962  12.009 -0.1406  0.1457  0.4160
  405MOL0     C55778   9.324  -0.830  12.054 -0.3273  0.8414 -0.2687
  405MOL0     C55779   9.399  -0.768  12.165 -1.2099  0.5374 -0.4045
  405MOL0     C55780   9.394  -0.619  12.189  0.0789  0.7974 -0.1578
  405MOL0     C55781   9.476  -0.853  12.244 -0.2256  0.4414 -0.5068
  405MOL0     C55782   9.539  -0.808  12.373 -0.9703 -0.8939 -0.4525
  405MOL0     O55783   9.469  -0.722  12.452 -0.3202 -1.0861 -1.1088
  405MOL0     C55784   9.520  -0.688  12.576 -0.2834 -0.2114 -1.2949
  405MOL0     C55785   9.599  -0.573  12.591 -0.1786  0.2804  0.0179
  405MOL0     C55786   9.652  -0.534  12.713 -0.9924  0.0697  0.3733
  405MOL0     C55787   9.625  -0.608  12.821  0.3635 -0.2316 -0.3837
  405MOL0     O55788   9.663  -0.566  12.949  0.5310  0.1102 -0.2142
  405MOL0     C55789   9.629  -0.435  12.993 -0.7268 -0.1215 -0.9844
  405MOL0     C55790   9.754  -0.348  13.040  0.0949  1.0387  0.0045
  405MOL0     C55791   9.723  -0.189  13.046 -0.1056 -0.2828 -0.4203
  405MOL0     C55792   9.752  -0.140  13.181 -0.2644 -0.0790 -0.9490
  405MOL0     C55793   9.730   0.012  13.189  0.3464 -0.1645 -1.1256
  405MOL0     C55794   9.832   0.090  13.270 -0.3666  0.2968 -0.4149
  405MOL0     C55795   9.848   0.057  13.424  1.1616  0.2423  0.1088
  405MOL0     C55796   9.701   0.035  13.490  0.2947  0.1034  0.0390
  405MOL0    Cl55797   9.707   0.009  13.673 -0.3497 -0.1445  0.0726
  405MOL0     C55798   9.540  -0.722  12.816  0.3009  0.4210  0.5632
  405MOL0     C55799   9.496  -0.763  12.693  0.6905  0.1005 -0.2418
  405MOL0     O55800   9.653  -0.845  12.402 -0.4539  0.0759 -0.1367
  405MOL0     C55801   9.485  -0.992  12.202 -0.4752 -0.5212  0.3126
  405MOL0     C55802   9.424  -1.043  12.088 -0.6912 -0.5720 -0.4403
  405MOL0     N55803   8.784  -0.659  11.612  0.3574 -0.6059 -0.5485
  405MOL0     N55804   8.676  -0.655  11.545  0.6840 -0.0789 -0.4164
  405MOL0     C55805   8.717   0.073  10.934 -0.3136 -0.8181  0.0874
  405MOL0     C55806   8.775   0.161  10.834 -0.6630  0.3922 -0.0734
  405MOL0     C55807   8.919   0.299  10.394 -0.0211 -0.2440  0.2596
  405MOL0     C55808   8.958   0.408  10.456 -0.6418 -1.2019 -0.9110
  405MOL0     C55809   9.023   0.511  10.377 -0.1486  1.1784 -0.5225
  405MOL0     C55810   9.048   0.506  10.246  0.3883 -0.2583  0.7928
  405MOL0     O55811   9.119   0.599  10.181 -0.8534 -0.1841  0.0771
  405MOL0     C55812   9.049   0.711  10.130 -1.3219 -0.1929  0.0993
  405MOL0     C55813   9.003   0.823  10.235 -0.0016  0.1107  0.7693
  405MOL0     C55814   9.129   0.904  10.277  0.4744 -0.6068 -0.2704
  405MOL0     C55815   9.092   1.008  10.380  1.5940  0.9804  0.5034
  405MOL0     C55816   9.030   0.961  10.504 -0.2187  0.2027  0.0955
  405MOL0     C55817   8.968   0.919  10.597  0.4825 -0.8795  0.4906
  405MOL0     C55818   9.017   0.389  10.181 -0.2111  0.0733 -0.3422
  405MOL0     C55819   8.941   0.286  10.246 -0.1745 -0.6985 -1.2244
  405MOL0     C55820   8.870   0.187  10.160 -0.5422  0.2682  0.5521
  405MOL0     H55821   8.681  -0.028  10.565 -0.0009  1.4275 -0.7672
  405MOL0     H55822   8.567  -0.148  10.724 -0.3137 -1.6490  1.0956
  405MOL0     H55823   8.534  -0.293  10.991  1.0119  1.1735  2.0890
  405MOL0     H55824   8.421  -0.175  10.911  0.2956  3.3455 -0.0240
  405MOL0     H55825   8.437  -0.174  11.212 -0.3664  1.8637 -0.4518
  405MOL0     H55826   8.315  -0.094  11.120 -1.4150 -0.8452  0.4848
  405MOL0     H55827   8.218  -0.304  11.193  0.1173 -0.6004  0.3940
  405MOL0     H55828   8.272  -0.339  11.026  2.2332 -1.3909 -1.5736
  405MOL0     H55829   8.458  -0.456  11.105 -2.5051 -1.1949 -1.1229
  405MOL0     H55830   8.458  -0.393  11.274  1.4206 -1.8469  0.4052
  405MOL0     H55831   8.238  -0.547  11.133  0.3257  2.1012  0.6138
  405MOL0     H55832   8.256  -0.505  11.307 -2.5587  1.4148 -0.7587
  405MOL0     H55833   8.279  -0.742  11.272 -0.7937  1.1227  0.4607
  405MOL0     H55834   8.406  -0.706  11.151 -1.9740  2.1963 -1.4575
  405MOL0     H55835   8.416  -0.610  11.433 -2.3611 -0.6289 -1.4084
  405MOL0     H55836   8.548  -0.601  11.317 -2.2689  1.1449  0.5724
  405MOL0     H55837   8.465  -0.863  11.441 -1.7551  0.4132 -2.2777
  405MOL0     H55838   8.570  -0.849  11.300  1.1787  0.5785  0.3056
  405MOL0     H55839   8.752  -0.974  11.511 -2.2629  0.5365  0.2805
  405MOL0     H55840   8.995  -0.776  11.763 -0.4939  0.0332 -0.0999
  405MOL0     H55841   9.028  -0.859  11.607 -0.3699  0.5239 -0.9520
  405MOL0     H55842   8.834  -0.983  11.787 -1.0922 -0.5033 -1.4453
  405MOL0     H55843   8.933  -1.047  11.668  0.5786  2.1628 -2.9913
  405MOL0     H55844   9.001  -0.962  11.944 -1.0462 -1.1638  0.1945
  405MOL0     H55845   9.029  -1.110  11.881  0.4074 -0.5020 -0.1338
  405MOL0     H55846   9.214  -0.991  11.710 -0.4861 -0.8917 -0.6365
  405MOL0     H55847   9.201  -0.853  11.811  3.0206 -0.6847 -0.5792
  405MOL0     H55848   9.257  -0.766  11.997 -3.3277  0.9607  3.0525
  405MOL0     H55849   9.488  -0.569  12.212  0.0301  0.5608  0.5853
  405MOL0     H55850   9.316  -0.612  12.265 -1.3785  0.0574 -1.5259
  405MOL0     H55851   9.341  -0.564  12.111  0.6924  2.7781  0.7643
  405MOL0     H55852   9.641  -0.515  12.509  1.5764  1.4193  1.6203
  405MOL0     H55853   9.711  -0.443  12.720 -0.6310 -0.2188  1.0425
  405MOL0     H55854   9.578  -0.374  12.918  0.6315  1.0453 -1.0072
  405MOL0     H55855   9.555  -0.438  13.074 -0.5011  1.6105 -0.6661
  405MOL0     H55856   9.803  -0.382  13.132  0.8188  0.0879 -0.7104
  405MOL0     H55857   9.833  -0.368  12.966 -1.5799 -2.1071 -1.1268
  405MOL0     H55858   9.617  -0.170  13.030  0.5696  1.6488 -3.3866
  405MOL0     H55859   9.787  -0.143  12.969 -1.2056 -1.4379 -2.1052
  405MOL0     H55860   9.855  -0.165  13.207 -0.2686  0.3546 -0.5018
  405MOL0     H55861   9.693  -0.187  13.259  0.5987  0.9766  0.3813
  405MOL0     H55862   9.735   0.050  13.086 -1.0866 -2.0670 -1.9740
  405MOL0     H55863   9.631   0.035  13.228  1.1472 -0.0701  0.9687
  405MOL0     H55864   9.823   0.199  13.268 -0.7282  0.3950  2.4871
  405MOL0     H55865   9.932   0.064  13.233 -0.2661  1.8804 -1.3469
  405MOL0     H55866   9.904   0.141  13.467  2.2252 -0.5831  0.3856
  405MOL0     H55867   9.902  -0.035  13.450  1.2875  1.3201  4.5099
  405MOL0     H55868   9.657  -0.060  13.458  0.7369 -0.8567  2.1652
  405MOL0     H55869   9.633   0.119  13.471 -0.2769 -0.6198 -1.2765
  405MOL0     H55870   9.511  -0.775  12.906 -1.4876 -0.3791 -0.4327
  405MOL0     H55871   9.446  -0.858  12.704  0.6592  0.1987  0.5307
  405MOL0     H55872   9.541  -1.069  12.255 -1.9170  0.0744  2.8359
  405MOL0     H55873   9.436  -1.145  12.053 -1.2810 -0.2473 -1.6334
  405MOL0     H55874   8.729   0.094  11.040 -2.0717 -1.8487  0.5277
  405MOL0     H55875   8.845   0.238  10.865  0.8252 -1.8978  2.7990
  405MOL0     H55876   8.957   0.418  10.564  6.0316  0.1041 -0.4967
  405MOL0     H55877   9.065   0.603  10.418  2.0210  0.6542 -1.4278
  405MOL0     H55878   9.115   0.754  10.054 -0.0515 -2.4493 -0.1554
  405MOL0     H55879   8.962   0.666  10.081 -0.5413  1.6987 -3.3505
  405MOL0     H55880   8.954   0.778  10.321 -0.1083 -3.7948 -1.0917
  405MOL0     H55881   8.935   0.888  10.179  3.3786  1.8917 -1.6760
  405MOL0     H55882   9.205   0.835  10.316  0.7816  0.3303  0.8327
  405MOL0     H55883   9.169   0.961  10.193  0.1208  0.8399  0.5139
  405MOL0     H55884   9.021   1.079  10.335 -1.4269 -0.2733  2.9123
  405MOL0     H55885   9.170   1.073  10.419  2.9804 -0.9863  1.1918
  405MOL0     H55886   8.917   0.860  10.671 -0.8553  1.6009  1.6427
  405MOL0     H55887   9.037   0.384  10.074  0.5540  2.6297 -0.3677
  405MOL0     H55888   8.909   0.197  10.058 -1.4877 -0.1001  0.1475
  405MOL0     H55889   8.875   0.080  10.185  1.9881 -0.4301 -2.3379
  405MOL0     H55890   8.763   0.202  10.148 -0.5351 -1.6565 -3.9582
  406MOL0     O55891   1.835   2.996  11.577  0.0653 -0.1134 -0.5035
  406MOL0     C55892   1.736   3.068  11.593 -0.5229  0.0982  0.6170
  406MOL0     O55893   1.611   3.029  11.562 -0.2909  0.2207  0.4151
  406MOL0     C55894   1.585   2.896  11.532 -0.4911  0.5209  0.8583
  406MOL0     C55895   1.568   2.862  11.397  0.0964  0.7243 -0.6561
  406MOL0     C55896   1.536   2.730  11.355 -0.4030 -0.1566  0.8861
  406MOL0     C55897   1.544   2.628  11.456  0.3274 -0.6091  0.2072
  406MOL0     O55898   1.506   2.509  11.423  0.2537  0.6192 -0.0805
  406MOL0     C55899   1.447   2.418  11.509  0.2020  0.7469 -0.6252
  406MOL0     C55900   1.290   2.444  11.546  0.1482  1.4918  0.2471
  406MOL0     C55901   1.234   2.318  11.608 -0.3495  1.0421  0.6747
  406MOL0     C55902   1.194   2.213  11.496  0.3794 -0.2653  0.1085
  406MOL0     C55903   1.089   2.121  11.557 -0.2835 -0.5450 -0.2027
  406MOL0     C55904   1.075   1.982  11.483  0.4203 -0.4015 -0.6192
  406MOL0     C55905   0.988   1.891  11.555  0.1878 -0.9859  0.2316
  406MOL0     C55906   0.974   1.762  11.477  0.1918  0.1275  0.1990
  406MOL0     N55907   0.859   1.685  11.513  0.0053  0.1348 -0.4991
  406MOL0     C55908   0.726   1.716  11.480 -0.7655 -0.6410 -0.1934
  406MOL0     C55909   0.654   1.608  11.509 -0.2180  0.7433  0.0396
  406MOL0     C55910   0.506   1.585  11.489 -0.4226 -0.5782  0.0677
  406MOL0     C55911   0.453   1.590  11.624 -1.2264  0.2340 -0.3081
  406MOL0     C55912   0.307   1.553  11.605 -0.2976  0.5794  0.5861
  406MOL0     C55913   0.258   1.488  11.738  1.0008  0.4966  0.2083
  406MOL0     O55914   0.232   1.590  11.824 -0.6656 -0.1739 -0.2085
  406MOL0     C55915   0.148   1.573  11.938  0.7640 -0.3647 -1.5535
  406MOL0     C55916   0.122   1.686  12.021 -0.4763  0.5917 -0.8601
  406MOL0     C55917   0.053   1.691  12.144  0.4756  0.1770  1.2918
  406MOL0     C55918   0.066   1.827  12.215  0.4820  0.5192  0.6980
  406MOL0     C55919  -0.013   1.564  12.171  0.0192 -0.3614 -0.7415
  406MOL0     C55920  -0.096   1.556  12.297  0.0663 -0.0887  0.1072
  406MOL0     O55921  -0.068   1.656  12.395 -0.1931 -0.2495  0.7450
  406MOL0     C55922  -0.158   1.674  12.498  0.6052 -0.1001 -0.5139
  406MOL0     C55923  -0.196   1.570  12.577 -0.4530 -0.1843 -0.1597
  406MOL0     C55924  -0.280   1.582  12.694 -0.6000  0.6559 -0.1069
  406MOL0     C55925  -0.320   1.710  12.727  0.6582 -0.7163  0.2899
  406MOL0     O55926  -0.400   1.734  12.832 -0.4646  0.0368  0.6184
  406MOL0     C55927  -0.498   1.630  12.845 -0.3309  0.8097 -0.3799
  406MOL0     C55928  -0.608   1.697  12.924 -0.1802 -0.0933  0.0752
  406MOL0     C55929  -0.714   1.594  12.968  0.1586 -1.0256 -0.2265
  406MOL0     C55930  -0.819   1.662  13.065  0.1578 -0.0505  0.8201
  406MOL0     C55931  -0.852   1.573  13.186 -0.0222  0.2826 -0.3874
  406MOL0     C55932  -0.769   1.604  13.311  0.3818  0.9304 -0.2202
  406MOL0     C55933  -0.864   1.560  13.429  0.7774  0.2756  0.6068
  406MOL0     C55934  -0.839   1.417  13.479  0.0473  0.3351  0.7790
  406MOL0    Cl55935  -0.852   1.303  13.350  0.4609  0.2924  0.6196
  406MOL0     C55936  -0.287   1.823  12.642 -0.0518 -0.5850 -0.9267
  406MOL0     C55937  -0.202   1.803  12.531  0.6942 -0.4046 -0.0853
  406MOL0     O55938  -0.186   1.477  12.300 -0.4356 -0.2234  0.0809
  406MOL0     C55939  -0.001   1.449  12.090  0.1688  0.4640  0.6788
  406MOL0     C55940   0.082   1.453  11.981  0.2899  0.8319  0.4725
  406MOL0     N55941   0.742   1.517  11.577 -0.2332  0.4719  0.4039
  406MOL0     N55942   0.863   1.565  11.564 -0.1743  0.0074 -0.4564
  406MOL0     C55943   1.572   2.660  11.590 -0.2136 -0.9059 -0.2599
  406MOL0     C55944   1.587   2.797  11.628 -0.4635 -0.3281  0.3056
  406MOL0     C55945   1.752   3.216  11.630  0.6220  0.1280 -0.7835
  406MOL0     C55946   1.636   3.303  11.603  0.3930  0.4266  0.6918
  406MOL0     C55947   1.620   3.423  11.654  0.3971 -0.0499  0.1459
  406MOL0     C55948   1.733   3.480  11.722  1.0546  0.0770  0.4089
  406MOL0     O55949   1.724   3.605  11.778  0.2323  0.5255 -0.2543
  406MOL0     C55950   1.748   3.710  11.681 -0.2637  0.2683 -0.1480
  406MOL0     C55951   1.639   3.823  11.712 -0.0675  0.3040  0.7653
  406MOL0     C55952   1.650   3.900  11.844 -0.5905  0.7899  0.1459
  406MOL0     C55953   1.639   4.055  11.827 -1.0165 -0.3175  0.4433
  406MOL0     C55954   1.505   4.107  11.803 -0.5937 -0.8194  0.4853
  406MOL0     C55955   1.391   4.143  11.781 -0.7488  0.5019 -0.3821
  406MOL0     C55956   1.852   3.420  11.733  0.2401 -0.3870 -0.5065
  406MOL0     C55957   1.863   3.278  11.702 -0.0865 -0.8204  0.1767
  406MOL0     C55958   1.971   3.200  11.757 -0.6036 -0.3260 -0.0915
  406MOL0     H55959   1.572   2.935  11.316 -2.7112  0.4659 -1.1261
  406MOL0     H55960   1.502   2.699  11.257 -2.7102 -0.1899  1.6406
  406MOL0     H55961   1.499   2.421  11.605 -0.8518 -3.5400  0.3005
  406MOL0     H55962   1.460   2.315  11.474 -3.3889 -1.3681  3.1903
  406MOL0     H55963   1.283   2.525  11.619  0.3551  2.3642 -0.6966
  406MOL0     H55964   1.228   2.475  11.462  1.4965  0.7264 -1.0823
  406MOL0     H55965   1.302   2.274  11.681  1.1007 -0.0761 -1.2591
  406MOL0     H55966   1.141   2.347  11.657 -3.3083 -0.5935 -3.4408
  406MOL0     H55967   1.150   2.264  11.410 -5.0618 -0.2044  2.5284
  406MOL0     H55968   1.291   2.168  11.474  0.6537  0.1062  0.5229
  406MOL0     H55969   0.996   2.176  11.544 -0.8404 -0.9833  1.6174
  406MOL0     H55970   1.101   2.113  11.666 -1.6811 -3.2212 -0.1618
  406MOL0     H55971   1.039   2.000  11.381 -0.6118  2.3001  0.1332
  406MOL0     H55972   1.174   1.936  11.477  1.0769  0.7300  0.7750
  406MOL0     H55973   0.888   1.932  11.566  0.2742 -0.9838  1.0622
  406MOL0     H55974   1.027   1.873  11.655 -2.8552 -3.2965  1.1625
  406MOL0     H55975   0.973   1.773  11.368  0.8750 -1.1479  0.0379
  406MOL0     H55976   1.067   1.703  11.485  1.4513  2.2610  3.0215
  406MOL0     H55977   0.685   1.803  11.429 -2.7811 -0.9636  0.8143
  406MOL0     H55978   0.504   1.485  11.447  0.0689 -2.1076  3.3686
  406MOL0     H55979   0.456   1.661  11.428  0.7964 -0.9078 -1.4062
  406MOL0     H55980   0.496   1.519  11.695  0.9532  3.8517  2.3257
  406MOL0     H55981   0.461   1.689  11.669 -1.1606 -0.4148  1.1408
  406MOL0     H55982   0.247   1.642  11.582 -2.0566 -0.8927 -0.8701
  406MOL0     H55983   0.291   1.479  11.526 -0.5424  0.6767  0.5427
  406MOL0     H55984   0.173   1.421  11.720  4.2135 -3.4591 -2.2532
  406MOL0     H55985   0.334   1.422  11.781  1.4260  1.5223  1.0710
  406MOL0     H55986   0.179   1.773  11.989 -1.3417  1.2358 -0.6641
  406MOL0     H55987  -0.020   1.894  12.225 -0.1080 -0.4272  2.5382
  406MOL0     H55988   0.135   1.884  12.152 -0.9010  1.0258 -0.4031
  406MOL0     H55989   0.114   1.808  12.312  1.3796 -0.7805  0.0338
  406MOL0     H55990  -0.161   1.472  12.547 -1.0937 -0.1663 -1.0030
  406MOL0     H55991  -0.318   1.502  12.756 -0.7321  2.0921  1.7753
  406MOL0     H55992  -0.540   1.595  12.750  0.1593  2.1584 -1.1095
  406MOL0     H55993  -0.454   1.550  12.906  0.1757  0.4652 -1.1915
  406MOL0     H55994  -0.576   1.762  13.006  0.1468  0.5360 -0.5368
  406MOL0     H55995  -0.668   1.759  12.857  2.7368  0.4470 -2.1953
  406MOL0     H55996  -0.659   1.511  13.014  1.7064  0.3921  0.5905
  406MOL0     H55997  -0.763   1.552  12.881  1.6658 -1.6167 -0.8279
  406MOL0     H55998  -0.911   1.690  13.013  1.6597 -0.5037 -2.3197
  406MOL0     H55999  -0.791   1.760  13.104 -0.8701  0.0271  1.3895
  406MOL0     H56000  -0.959   1.582  13.205  0.7187  1.5628  4.1619
  406MOL0     H56001  -0.843   1.469  13.153  1.3814  0.7817 -1.6997
  406MOL0     H56002  -0.747   1.711  13.315 -1.9413  1.4317  0.6013
  406MOL0     H56003  -0.669   1.559  13.317  0.2396  0.4964 -0.9899
  406MOL0     H56004  -0.969   1.568  13.401  1.4364 -0.7313 -2.6146
  406MOL0     H56005  -0.855   1.622  13.519 -1.8298  4.1697 -1.5257
  406MOL0     H56006  -0.921   1.393  13.547 -0.2110 -1.1242 -0.0212
  406MOL0     H56007  -0.750   1.395  13.540 -0.4617 -3.2499  0.4410
  406MOL0     H56008  -0.331   1.918  12.669  2.2214  0.7851 -1.7338
  406MOL0     H56009  -0.166   1.873  12.456  0.0076  0.3526  0.2856
  406MOL0     H56010  -0.059   1.359  12.105 -0.4754  0.7270 -0.1564
  406MOL0     H56011   0.086   1.359  11.928 -1.7659  0.6815  0.5260
  406MOL0     H56012   1.578   2.580  11.664 -0.7907  1.1126  2.1154
  406MOL0     H56013   1.608   2.827  11.731  2.0064  1.2863 -0.5680
  406MOL0     H56014   1.546   3.272  11.550 -0.5651  1.0913  1.8784
  406MOL0     H56015   1.524   3.471  11.637  0.7890  1.1053  1.0046
  406MOL0     H56016   1.853   3.737  11.693 -0.3195 -0.5047  2.9156
  406MOL0     H56017   1.738   3.673  11.579  0.6494 -1.2933  0.2975
  406MOL0     H56018   1.541   3.776  11.728 -0.7513  1.5303  0.2326
  406MOL0     H56019   1.642   3.893  11.629  0.3310 -0.3083  0.2538
  406MOL0     H56020   1.575   3.872  11.918 -2.5578  0.6667 -1.8049
  406MOL0     H56021   1.751   3.889  11.886 -0.5229  2.7073  0.5820
  406MOL0     H56022   1.690   4.081  11.734  0.7831 -0.5616  1.3018
  406MOL0     H56023   1.686   4.100  11.915 -1.1095 -0.7544  0.7191
  406MOL0     H56024   1.289   4.161  11.753 -1.1876  1.4018  1.5746
  406MOL0     H56025   1.939   3.474  11.769 -1.2325  1.1552  0.9213
  406MOL0     H56026   2.015   3.115  11.703  0.9695  0.6950 -0.4840
  406MOL0     H56027   2.052   3.268  11.787  0.7217 -2.5421  1.6994
  406MOL0     H56028   1.937   3.163  11.854  2.0125  0.8204  1.3906
  407MOL0     O56029   4.124   9.205  11.166  0.0144  0.0492 -0.1045
  407MOL0     C56030   4.057   9.104  11.191 -0.3166 -0.3290  1.0117
  407MOL0     O56031   3.971   9.046  11.088  0.8152  0.3452 -0.5982
  407MOL0     C56032   3.953   9.121  10.976  0.1405 -0.2694 -0.2465
  407MOL0     C56033   3.912   9.258  10.988  0.0108  0.6637 -0.3656
  407MOL0     C56034   3.900   9.331  10.873  1.2889 -0.7827  0.0987
  407MOL0     C56035   3.901   9.276  10.742 -0.1667 -0.5406 -0.0664
  407MOL0     O56036   3.874   9.345  10.626 -0.1347  0.6701  0.3144
  407MOL0     C56037   3.880   9.486  10.639  0.5601 -0.4111  1.6076
  407MOL0     C56038   3.876   9.536  10.489  0.4025 -0.4553  0.1245
  407MOL0     C56039   3.902   9.693  10.478  0.6966 -0.1619 -0.4249
  407MOL0     C56040   4.046   9.733  10.447  0.6620 -0.4223 -0.8952
  407MOL0     C56041   4.059   9.884  10.417 -0.2164  0.3614 -0.5808
  407MOL0     C56042   3.996   9.912  10.281  0.1151  0.2166  0.4234
  407MOL0     C56043   4.007  10.068  10.244  0.1557  0.8000  0.5731
  407MOL0     C56044   3.961  10.172  10.358  0.8174 -0.0931  0.7510
  407MOL0     N56045   3.842  10.138  10.438 -0.0459 -0.7419  0.3544
  407MOL0     C56046   3.719  10.112  10.400  0.3024  0.5796  0.1102
  407MOL0     C56047   3.654  10.067  10.510 -0.6516  0.7003  0.9208
  407MOL0     C56048   3.511  10.018  10.510 -0.1245 -1.4150 -0.6023
  407MOL0     C56049   3.516   9.875  10.570  0.1371  1.0666  0.5673
  407MOL0     C56050   3.503   9.768  10.452 -1.1094 -0.0536  0.8359
  407MOL0     C56051   3.525   9.636  10.518  1.2054  0.7355 -0.9355
  407MOL0     O56052   3.408   9.596  10.590 -0.6243  0.5624 -0.2740
  407MOL0     C56053   3.425   9.482  10.672  0.4344  0.5272  0.2738
  407MOL0     C56054   3.327   9.464  10.762  0.7336  0.0463  0.6190
  407MOL0     C56055   3.331   9.369  10.864  1.0225 -0.1421 -0.1402
  407MOL0     C56056   3.213   9.358  10.955 -0.1502 -1.6602 -0.1367
  407MOL0     C56057   3.449   9.288  10.877  0.2445 -0.0441 -0.1247
  407MOL0     C56058   3.460   9.183  10.979  0.0158 -0.3962 -0.2380
  407MOL0     O56059   3.545   9.074  10.942 -0.0126 -0.6855 -0.6717
  407MOL0     C56060   3.574   8.960  11.022  0.8064 -0.3593  0.8820
  407MOL0     C56061   3.673   8.878  10.975  0.4800 -0.2412  0.1178
  407MOL0     C56062   3.707   8.761  11.044 -0.2793  0.1437  0.0005
  407MOL0     C56063   3.649   8.721  11.165  0.9193  0.1085  0.6733
  407MOL0     O56064   3.694   8.607  11.228 -0.6806 -0.1881  0.2941
  407MOL0     C56065   3.593   8.535  11.297 -0.1299  0.4297  0.2837
  407MOL0     C56066   3.666   8.411  11.356  0.7895  0.5660  0.2917
  407MOL0     C56067   3.595   8.359  11.483 -0.7079 -0.7540 -0.3729
  407MOL0     C56068   3.463   8.300  11.445  0.8091  0.7998 -0.2346
  407MOL0     C56069   3.398   8.241  11.577 -0.3272  0.2788  0.3714
  407MOL0     C56070   3.417   8.088  11.590  0.2985 -0.4549  0.2026
  407MOL0     C56071   3.298   8.026  11.664  0.0587  0.1621  0.8643
  407MOL0     C56072   3.326   7.882  11.722  0.1764 -0.7760  0.0070
  407MOL0    Cl56073   3.447   7.910  11.853  0.8718  0.3357 -0.0408
  407MOL0     C56074   3.533   8.802  11.204  0.2591  0.3084 -0.3478
  407MOL0     C56075   3.505   8.920  11.134  0.6195  1.1107  0.2022
  407MOL0     O56076   3.411   9.196  11.091  0.0820  0.6686  0.2514
  407MOL0     C56077   3.553   9.305  10.779  0.7296 -0.5220  0.5552
  407MOL0     C56078   3.534   9.399  10.680 -0.0929  0.0072  1.0384
  407MOL0     N56079   3.748  10.053  10.613  0.5868  0.8684  0.2081
  407MOL0     N56080   3.855  10.107  10.569  0.0940  0.5949 -0.7415
  407MOL0     C56081   3.934   9.145  10.727 -0.1324 -0.8984  0.0503
  407MOL0     C56082   3.976   9.069  10.843  0.2923  0.1581 -0.3017
  407MOL0     C56083   4.061   9.036  11.321  0.1088  0.3150 -0.1280
  407MOL0     C56084   3.927   8.984  11.367  0.6340 -0.7669  0.1062
  407MOL0     C56085   3.913   8.932  11.495 -0.5690  0.0793 -0.7161
  407MOL0     C56086   4.032   8.916  11.566  0.0960  0.7601 -0.3271
  407MOL0     O56087   4.027   8.819  11.674  0.3469 -1.1715  1.2925
  407MOL0     C56088   4.045   8.683  11.636  0.0243  0.5230  0.3662
  407MOL0     C56089   3.913   8.613  11.602 -0.0277 -0.1201 -0.2555
  407MOL0     C56090   3.809   8.604  11.712  0.2963 -0.5352  0.6644
  407MOL0     C56091   3.848   8.514  11.825 -1.0745  0.5758  0.1353
  407MOL0     C56092   3.804   8.380  11.791 -0.9128  0.4338  0.9578
  407MOL0     C56093   3.754   8.271  11.774 -0.4257  0.0899 -0.1730
  407MOL0     C56094   4.152   8.959  11.516  1.1414 -0.1573 -0.0349
  407MOL0     C56095   4.171   9.028  11.395 -0.3607  0.1331 -0.0119
  407MOL0     C56096   4.311   9.077  11.356  0.6751 -0.6912 -0.2640
  407MOL0     H56097   3.875   9.300  11.081 -1.3559  0.1992 -0.6814
  407MOL0     H56098   3.877   9.437  10.874 -4.8415 -1.7622 -0.2844
  407MOL0     H56099   3.975   9.522  10.681 -0.3994  0.3935  3.1829
  407MOL0     H56100   3.796   9.525  10.697 -1.9725 -3.5140  0.2983
  407MOL0     H56101   3.965   9.484  10.451 -0.2768 -0.4531 -1.5802
  407MOL0     H56102   3.788   9.497  10.438  1.3816 -4.3012  1.0351
  407MOL0     H56103   3.843   9.740  10.399  0.2741 -1.2113 -0.7552
  407MOL0     H56104   3.870   9.741  10.572  1.2545  0.6305 -0.6348
  407MOL0     H56105   4.111   9.721  10.534 -0.7074  0.8685  0.3564
  407MOL0     H56106   4.082   9.667  10.367 -3.6886  1.2192 -4.6390
  407MOL0     H56107   4.167   9.900  10.411 -0.2106  0.7095  0.3422
  407MOL0     H56108   4.016   9.942  10.499 -0.6758 -3.0652  1.8164
  407MOL0     H56109   4.044   9.857  10.200 -1.2293 -0.5853  0.1510
  407MOL0     H56110   3.892   9.878  10.280 -1.4157  4.1042  2.9566
  407MOL0     H56111   3.943  10.086  10.157  0.2866 -1.1182  0.0279
  407MOL0     H56112   4.101  10.088  10.192 -1.0329 -0.9167 -2.5611
  407MOL0     H56113   4.039  10.208  10.427  2.3828  2.2615 -2.0104
  407MOL0     H56114   3.940  10.263  10.301 -0.2062 -0.8010 -0.0352
  407MOL0     H56115   3.674  10.135  10.304  1.1622  0.2245 -0.3911
  407MOL0     H56116   3.480  10.011  10.405  0.9660 -0.0181 -1.0513
  407MOL0     H56117   3.448  10.087  10.565  1.5191 -2.3665  2.7462
  407MOL0     H56118   3.614   9.863  10.618  2.1127  3.9388 -2.3195
  407MOL0     H56119   3.431   9.861  10.637  0.2911 -1.6731  0.2889
  407MOL0     H56120   3.405   9.761  10.405 -0.9764 -1.4854  0.7056
  407MOL0     H56121   3.577   9.781  10.372 -1.7418  1.3896  0.4691
  407MOL0     H56122   3.550   9.563  10.441  1.9285  1.6737 -1.6114
  407MOL0     H56123   3.610   9.642  10.586 -0.3748 -1.2723  1.3490
  407MOL0     H56124   3.234   9.518  10.748  1.3127  1.1381  0.9057
  407MOL0     H56125   3.190   9.263  11.004  0.3630 -0.9304  1.5982
  407MOL0     H56126   3.127   9.390  10.896  0.4037 -0.4240 -0.2886
  407MOL0     H56127   3.223   9.435  11.032  0.5175 -2.7565  0.9132
  407MOL0     H56128   3.731   8.909  10.889  2.0474 -1.9836  0.4582
  407MOL0     H56129   3.800   8.712  11.016 -1.5019 -1.2057 -1.9929
  407MOL0     H56130   3.553   8.598  11.378 -0.8045 -0.3681  0.5862
  407MOL0     H56131   3.501   8.511  11.243 -0.1679  0.7067  0.2205
  407MOL0     H56132   3.673   8.331  11.281 -0.3439 -0.2991  1.0746
  407MOL0     H56133   3.768   8.437  11.385  2.0165 -1.6138 -1.6681
  407MOL0     H56134   3.584   8.435  11.562 -0.0016 -1.5932  0.5571
  407MOL0     H56135   3.664   8.285  11.524  0.0157  0.9434  1.6833
  407MOL0     H56136   3.482   8.216  11.377  1.1430 -3.1643  4.2208
  407MOL0     H56137   3.401   8.385  11.416  2.6281  3.1918  2.3390
  407MOL0     H56138   3.447   8.291  11.661  0.5979  2.5968 -1.4293
  407MOL0     H56139   3.293   8.267  11.595 -0.1597  0.1299  1.6496
  407MOL0     H56140   3.507   8.055  11.642  0.1060 -1.6441 -0.1974
  407MOL0     H56141   3.413   8.050  11.488  1.2056  0.1096 -0.0515
  407MOL0     H56142   3.212   8.024  11.596  0.2072  1.7467  0.6086
  407MOL0     H56143   3.274   8.101  11.740  2.6175  1.2620  0.6521
  407MOL0     H56144   3.365   7.819  11.641  0.3983  0.0785 -0.5607
  407MOL0     H56145   3.237   7.831  11.761 -0.0505  0.4417  1.1668
  407MOL0     H56146   3.476   8.785  11.295  4.2553 -0.0181  2.3433
  407MOL0     H56147   3.421   8.974  11.178 -1.5796 -0.1359 -2.2206
  407MOL0     H56148   3.644   9.246  10.791  0.7284 -0.3364  1.4863
  407MOL0     H56149   3.611   9.417  10.607 -1.9079  0.8927 -0.7455
  407MOL0     H56150   3.942   9.110  10.624  1.4126 -1.6206  0.3956
  407MOL0     H56151   4.024   8.972  10.829 -2.3627 -1.4123  0.7287
  407MOL0     H56152   3.834   9.002  11.314  1.0072  0.9218 -0.0304
  407MOL0     H56153   3.819   8.895  11.534 -0.7898 -0.1451 -1.4500
  407MOL0     H56154   4.116   8.680  11.553 -2.3509  0.6269 -1.7885
  407MOL0     H56155   4.099   8.626  11.712 -1.8922  1.5507  2.6159
  407MOL0     H56156   3.940   8.513  11.565 -0.8076 -1.0163  1.4557
  407MOL0     H56157   3.877   8.658  11.509  0.2930 -0.6199 -0.6266
  407MOL0     H56158   3.797   8.710  11.736 -0.4381  0.0048 -1.8102
  407MOL0     H56159   3.709   8.577  11.676  0.8840  0.5552 -2.0508
  407MOL0     H56160   3.824   8.544  11.928  1.9602  1.3051  0.7418
  407MOL0     H56161   3.957   8.514  11.841 -0.7814  1.5676 -1.6686
  407MOL0     H56162   3.716   8.171  11.774 -1.5147  0.4807 -0.6811
  407MOL0     H56163   4.230   8.936  11.588  2.1467 -2.0817 -1.6563
  407MOL0     H56164   4.394   9.021  11.400 -0.8903 -1.4962  1.8618
  407MOL0     H56165   4.326   9.060  11.249 -3.2686  0.9984 -1.2711
  407MOL0     H56166   4.319   9.183  11.384  0.2745  0.2743 -3.4729
  408MOL0     O56167   0.197   8.251   3.876  0.5265 -0.4264 -0.2801
  408MOL0     C56168   0.153   8.352   3.930  0.2350 -0.5888 -0.1371
  408MOL0     O56169   0.208   8.477   3.919 -0.3963 -0.2601 -0.0349
  408MOL0     C56170   0.321   8.492   3.836  0.6251 -0.5266 -0.0095
  408MOL0     C56171   0.447   8.471   3.885  0.2196  0.6664  0.9522
  408MOL0     C56172   0.549   8.479   3.800 -0.2793  0.0255  0.3527
  408MOL0     C56173   0.532   8.534   3.667  0.8928 -0.2003 -0.0238
  408MOL0     O56174   0.635   8.550   3.584 -0.1805  0.3461 -0.7511
  408MOL0     C56175   0.652   8.430   3.508  1.2611 -1.0700  0.3560
  408MOL0     C56176   0.796   8.409   3.456 -0.7555 -0.4886  0.1252
  408MOL0     C56177   0.902   8.423   3.574 -0.0817  0.2753  0.6262
  408MOL0     C56178   0.917   8.291   3.651 -0.7380  0.0767  0.1627
  408MOL0     C56179   0.960   8.314   3.799  0.0946 -0.5190 -0.3028
  408MOL0     C56180   1.109   8.355   3.795 -0.8325  0.2908 -0.9529
  408MOL0     C56181   1.162   8.390   3.932  1.2093 -0.1273  0.4471
  408MOL0     C56182   1.279   8.489   3.922 -0.2759 -0.0076 -0.6891
  408MOL0     N56183   1.382   8.419   3.852  0.4929 -0.1928 -0.5017
  408MOL0     C56184   1.395   8.426   3.718 -0.1021 -0.2024 -0.5045
  408MOL0     C56185   1.490   8.344   3.667  0.1328  0.1998  0.9434
  408MOL0     C56186   1.518   8.328   3.517  1.4823  0.2471 -0.7446
  408MOL0     C56187   1.395   8.299   3.422  0.0588  0.7912 -1.4898
  408MOL0     C56188   1.393   8.141   3.390  0.5370 -0.0968  0.0830
  408MOL0     C56189   1.322   8.060   3.504 -0.5627  0.0715 -0.9444
  408MOL0     O56190   1.267   7.947   3.442 -0.0461  0.5816  0.4304
  408MOL0     C56191   1.205   7.861   3.530 -0.6824 -0.5738  0.5586
  408MOL0     C56192   1.150   7.743   3.479 -0.0347 -0.0979 -0.6654
  408MOL0     C56193   1.075   7.654   3.553 -0.3658  0.0613 -0.7246
  408MOL0     C56194   1.040   7.524   3.472  0.4418 -0.1175  0.0248
  408MOL0     C56195   1.049   7.682   3.689  0.8454 -0.3907 -0.2497
  408MOL0     C56196   0.960   7.595   3.770  0.3626 -0.8366  0.0366
  408MOL0     O56197   0.934   7.624   3.905  0.9789 -1.3284  0.0535
  408MOL0     C56198   0.818   7.561   3.962 -0.2806 -0.5660 -0.0508
  408MOL0     C56199   0.687   7.574   3.911  0.2219 -0.0055  0.6466
  408MOL0     C56200   0.576   7.519   3.985  0.4980 -1.0713  0.4498
  408MOL0     C56201   0.602   7.450   4.100 -0.3499  0.3856  0.4122
  408MOL0     O56202   0.501   7.405   4.183  0.4883 -0.1220 -0.1284
  408MOL0     C56203   0.364   7.418   4.139  0.3072  0.0814 -0.6100
  408MOL0     C56204   0.272   7.347   4.248 -0.2315  0.0146  0.0886
  408MOL0     C56205   0.119   7.345   4.206  0.1978  0.6688 -0.7910
  408MOL0     C56206   0.025   7.421   4.299  0.4418 -0.2858  0.7199
  408MOL0     C56207  -0.020   7.553   4.242  0.0885  0.7828  0.0630
  408MOL0     C56208  -0.071   7.650   4.348  0.6332  0.3967  1.1291
  408MOL0     C56209   0.045   7.705   4.436 -0.4333  0.3935 -0.4903
  408MOL0     C56210   0.170   7.774   4.360 -0.5720 -0.8955 -0.5202
  408MOL0    Cl56211   0.111   7.885   4.240 -0.2445  0.1056  0.0353
  408MOL0     C56212   0.725   7.439   4.148  1.0456 -0.0974 -0.4086
  408MOL0     C56213   0.839   7.486   4.082  0.4805 -0.6009 -0.0659
  408MOL0     O56214   0.918   7.496   3.713  0.0105  0.3373  0.5221
  408MOL0     C56215   1.095   7.804   3.744  0.1029  0.7802  1.5220
  408MOL0     C56216   1.163   7.898   3.659 -0.5468  0.5276  0.2327
  408MOL0     N56217   1.534   8.271   3.783  0.2606 -0.4549  1.2020
  408MOL0     N56218   1.467   8.319   3.892 -0.1858 -1.0785  0.4336
  408MOL0     C56219   0.402   8.560   3.617 -1.1487  1.0641 -0.0783
  408MOL0     C56220   0.299   8.541   3.706 -0.3651 -0.3821 -0.3717
  408MOL0     C56221   0.032   8.359   4.033  0.4674 -0.1969  0.8750
  408MOL0     C56222   0.012   8.468   4.127  0.0910 -0.5734  0.1798
  408MOL0     C56223  -0.112   8.488   4.192 -0.4303 -1.0200  0.1770
  408MOL0     C56224  -0.218   8.396   4.183 -1.1118  0.8440 -0.3139
  408MOL0     O56225  -0.323   8.406   4.273 -0.0682 -0.6047  0.0097
  408MOL0     C56226  -0.278   8.397   4.413 -0.4694 -0.5007  0.8895
  408MOL0     C56227  -0.313   8.258   4.465  0.4868  0.5766 -0.1988
  408MOL0     C56228  -0.455   8.210   4.507  0.4988 -0.0693  0.6019
  408MOL0     C56229  -0.535   8.167   4.387  0.8831  0.0848  0.6779
  408MOL0     C56230  -0.673   8.103   4.409 -0.9656  0.3323  0.0441
  408MOL0     C56231  -0.778   8.067   4.441  0.1788  0.3323 -0.0989
  408MOL0     C56232  -0.202   8.292   4.098  0.5978  0.1103  0.5083
  408MOL0     C56233  -0.080   8.268   4.018 -0.0709 -0.1443 -0.4807
  408MOL0     C56234  -0.079   8.145   3.932  0.3875  0.3081 -0.3079
  408MOL0     H56235   0.469   8.423   3.980  1.0235 -2.4979 -0.7049
  408MOL0     H56236   0.651   8.467   3.837  0.0306  2.5598  0.5039
  408MOL0     H56237   0.595   8.446   3.416  4.0407  2.4249 -1.0136
  408MOL0     H56238   0.604   8.345   3.557 -0.8177  0.0207  0.3234
  408MOL0     H56239   0.795   8.311   3.407  0.8906 -0.8859  0.8034
  408MOL0     H56240   0.813   8.491   3.385 -3.7445 -0.1628 -0.3227
  408MOL0     H56241   0.994   8.472   3.539 -1.5284  4.1942  1.8480
  408MOL0     H56242   0.861   8.486   3.653 -1.6660 -1.2217  1.0710
  408MOL0     H56243   0.823   8.234   3.644 -1.0796  0.8033 -1.8313
  408MOL0     H56244   0.999   8.230   3.611  0.1613  0.1416  1.8088
  408MOL0     H56245   0.953   8.216   3.849 -2.5164 -2.3646 -3.8299
  408MOL0     H56246   0.899   8.392   3.845  3.9448  3.5159 -1.4446
  408MOL0     H56247   1.159   8.271   3.746 -0.1789  0.2480 -0.2305
  408MOL0     H56248   1.105   8.443   3.730 -2.5504 -0.2108 -1.5887
  408MOL0     H56249   1.192   8.297   3.981 -0.6051 -1.3824 -0.7008
  408MOL0     H56250   1.075   8.427   3.986  0.8315  0.8586 -0.7772
  408MOL0     H56251   1.269   8.589   3.879 -4.2942  0.6413  1.3507
  408MOL0     H56252   1.316   8.505   4.023 -3.3736  0.3860  0.4876
  408MOL0     H56253   1.334   8.495   3.661  1.1639  2.5411  1.2331
  408MOL0     H56254   1.594   8.252   3.499  0.5244 -0.8976 -0.1375
  408MOL0     H56255   1.555   8.425   3.483  1.1534  0.9410  0.7737
  408MOL0     H56256   1.296   8.337   3.448 -1.4195 -2.7996 -1.2728
  408MOL0     H56257   1.443   8.334   3.330  3.2716  0.4003 -0.1000
  408MOL0     H56258   1.339   8.124   3.296  0.2327 -3.2753  0.7050
  408MOL0     H56259   1.495   8.109   3.367  0.6035 -1.3268  1.8806
  408MOL0     H56260   1.396   8.033   3.580 -1.2988 -0.1740 -0.3058
  408MOL0     H56261   1.241   8.115   3.553 -0.7356 -1.6054  0.7753
  408MOL0     H56262   1.159   7.738   3.371 -1.5701  3.3802 -1.0800
  408MOL0     H56263   1.066   7.432   3.525  0.0739 -1.1941 -1.5847
  408MOL0     H56264   1.066   7.530   3.366 -2.9020 -1.7700 -1.0256
  408MOL0     H56265   0.932   7.532   3.459  0.3224 -2.4126 -0.8466
  408MOL0     H56266   0.673   7.626   3.817  2.6850  0.7072  0.6069
  408MOL0     H56267   0.471   7.528   3.958 -0.0796 -1.2826  2.4492
  408MOL0     H56268   0.333   7.523   4.133 -0.8439 -0.3125 -2.0556
  408MOL0     H56269   0.347   7.380   4.038 -3.9442 -0.4429  0.1338
  408MOL0     H56270   0.295   7.240   4.252 -0.0486  0.0610  0.3063
  408MOL0     H56271   0.286   7.387   4.349 -0.4934 -1.7218  0.8585
  408MOL0     H56272   0.095   7.239   4.200  2.7715  0.0582 -1.6148
  408MOL0     H56273   0.109   7.387   4.105 -3.8190  2.4361  0.1387
  408MOL0     H56274   0.062   7.442   4.400  0.3997 -0.3289  0.7450
  408MOL0     H56275  -0.066   7.364   4.322 -0.7716  1.9399  1.7412
  408MOL0     H56276   0.055   7.601   4.179 -0.6894  0.0160 -1.5150
  408MOL0     H56277  -0.103   7.532   4.174 -1.0147 -1.2479  1.8839
  408MOL0     H56278  -0.159   7.600   4.391 -1.4593  0.8665 -2.1956
  408MOL0     H56279  -0.108   7.739   4.297  3.6163  3.5203  3.9069
  408MOL0     H56280   0.082   7.629   4.506 -1.7605  2.5655  2.7387
  408MOL0     H56281   0.010   7.781   4.505 -1.7751 -4.4216  4.9587
  408MOL0     H56282   0.235   7.693   4.326  0.1362 -0.4223 -0.3268
  408MOL0     H56283   0.235   7.833   4.425 -1.9406  0.7769 -0.5915
  408MOL0     H56284   0.740   7.408   4.251  1.0802 -1.8703 -0.9077
  408MOL0     H56285   0.936   7.461   4.123 -0.0482 -0.4856  1.3077
  408MOL0     H56286   1.073   7.825   3.849 -2.9632  2.2031  0.7042
  408MOL0     H56287   1.209   7.986   3.702  2.0003 -1.0019  0.8171
  408MOL0     H56288   0.402   8.601   3.516  1.3697  0.7769 -0.2701
  408MOL0     H56289   0.200   8.566   3.668 -1.3726  0.1464  2.4196
  408MOL0     H56290   0.085   8.549   4.128 -1.8818  1.2910  0.9456
  408MOL0     H56291  -0.130   8.579   4.249 -2.4033 -0.5945 -0.9916
  408MOL0     H56292  -0.169   8.396   4.423 -0.0645  2.0718 -1.6690
  408MOL0     H56293  -0.324   8.477   4.472 -3.4672  0.3748 -2.2883
  408MOL0     H56294  -0.253   8.252   4.556 -0.0956 -0.9933  0.1087
  408MOL0     H56295  -0.274   8.187   4.391 -1.2351  0.7353 -1.3128
  408MOL0     H56296  -0.453   8.127   4.578 -1.1560  1.0761  2.0664
  408MOL0     H56297  -0.515   8.291   4.550  0.0472  1.8708 -3.2085
  408MOL0     H56298  -0.475   8.091   4.336  0.6151 -0.3857  1.0534
  408MOL0     H56299  -0.554   8.251   4.320  4.3236  0.3900 -0.1062
  408MOL0     H56300  -0.875   8.029   4.464  0.6422 -1.6034 -1.0947
  408MOL0     H56301  -0.276   8.214   4.083  0.8703  0.2835 -2.4710
  408MOL0     H56302  -0.107   8.054   3.987  1.1733  0.8464  1.0413
  408MOL0     H56303  -0.146   8.160   3.847  1.1430  1.9775 -0.6440
  408MOL0     H56304   0.019   8.115   3.894  1.0349 -1.0113  2.1845
  409MOL0     O56305   4.386   3.495   3.227  0.4090  0.8455  1.0048
  409MOL0     C56306   4.258   3.487   3.231 -0.8935 -0.3387 -0.2214
  409MOL0     O56307   4.173   3.552   3.318 -0.6974 -0.3449 -0.6230
  409MOL0     C56308   4.215   3.628   3.415 -0.6694 -0.4559 -0.1538
  409MOL0     C56309   4.307   3.735   3.402  0.2839 -1.0946 -0.1358
  409MOL0     C56310   4.331   3.824   3.509 -0.5117 -0.3777  0.3036
  409MOL0     C56311   4.264   3.811   3.629  0.4534  0.1073 -0.1416
  409MOL0     O56312   4.276   3.910   3.720 -0.5076 -0.1291  0.3227
  409MOL0     C56313   4.154   3.991   3.729 -0.9484  0.5548  0.5476
  409MOL0     C56314   4.127   4.073   3.610  0.4701 -0.3273 -0.1962
  409MOL0     C56315   4.036   4.202   3.641 -0.7156 -0.3892 -0.8391
  409MOL0     C56316   4.024   4.293   3.524 -0.2158 -0.3541 -0.3619
  409MOL0     C56317   4.015   4.435   3.557 -0.6217 -0.2364  0.5365
  409MOL0     C56318   4.002   4.536   3.433 -0.4503 -0.8369 -0.2077
  409MOL0     C56319   3.897   4.497   3.336  0.5603  0.1386  0.9150
  409MOL0     C56320   3.752   4.505   3.379  0.1865  0.2544 -1.3899
  409MOL0     N56321   3.720   4.641   3.439  0.2229 -0.3206  0.4846
  409MOL0     C56322   3.714   4.762   3.381 -1.2667 -0.3270 -0.4490
  409MOL0     C56323   3.716   4.851   3.489  0.5908 -0.1574  0.6570
  409MOL0     C56324   3.697   5.006   3.463  1.0328  1.0263 -0.3970
  409MOL0     C56325   3.759   5.087   3.580  0.0811 -0.6803  0.3101
  409MOL0     C56326   3.684   5.224   3.600  0.5089 -0.7574 -0.3158
  409MOL0     C56327   3.727   5.288   3.729 -0.0527 -1.4562 -0.1910
  409MOL0     O56328   3.868   5.318   3.727  0.4548 -0.3123 -1.0448
  409MOL0     C56329   3.903   5.410   3.831 -0.0942  0.3528 -0.5811
  409MOL0     C56330   3.842   5.430   3.954  0.7303 -0.1424  0.2789
  409MOL0     C56331   3.883   5.523   4.054 -0.4622  0.6831 -0.4452
  409MOL0     C56332   3.789   5.548   4.171 -0.1593 -0.1436  0.5538
  409MOL0     C56333   4.006   5.593   4.035 -0.2342  0.7191 -0.6513
  409MOL0     C56334   4.060   5.693   4.130 -0.0480 -0.6779 -0.2678
  409MOL0     O56335   4.183   5.741   4.099  0.2645  0.5768 -0.1440
  409MOL0     C56336   4.254   5.813   4.198 -0.1753 -1.0010  0.6565
  409MOL0     C56337   4.196   5.940   4.220 -0.2594  0.2360 -1.6095
  409MOL0     C56338   4.250   6.037   4.307 -0.1454 -0.7867 -0.2098
  409MOL0     C56339   4.365   6.005   4.373  1.0270 -0.7906  1.1330
  409MOL0     O56340   4.425   6.071   4.474  0.4897  0.4436  0.4270
  409MOL0     C56341   4.529   6.157   4.422  0.1244 -0.4335  0.3788
  409MOL0     C56342   4.551   6.260   4.537 -0.4437  0.5721  0.7190
  409MOL0     C56343   4.438   6.352   4.567  0.8103  0.6106 -0.0499
  409MOL0     C56344   4.489   6.461   4.670  1.0193 -0.4582  1.2035
  409MOL0     C56345   4.383   6.575   4.674  0.1381  0.0058  0.8881
  409MOL0     C56346   4.416   6.686   4.777 -0.1346 -0.2598 -0.0345
  409MOL0     C56347   4.299   6.771   4.785  0.6049 -0.3463  0.4617
  409MOL0     C56348   4.340   6.912   4.849 -1.1163  0.1769  0.2655
  409MOL0    Cl56349   4.396   6.877   5.017  0.2269  0.0324 -0.2522
  409MOL0     C56350   4.415   5.871   4.361  0.3167  0.4839  0.9512
  409MOL0     C56351   4.360   5.770   4.270  0.0490  0.7410  0.2222
  409MOL0     O56352   4.000   5.718   4.231  0.1309 -0.2817  0.2355
  409MOL0     C56353   4.080   5.559   3.912  0.8163  0.3445  0.1341
  409MOL0     C56354   4.026   5.473   3.820 -0.2730 -0.0943  0.5025
  409MOL0     N56355   3.706   4.785   3.614  0.8859 -0.0715  0.7918
  409MOL0     N56356   3.706   4.659   3.580 -0.1304  0.4379  0.7253
  409MOL0     C56357   4.181   3.701   3.652  0.4904  0.1412 -0.4069
  409MOL0     C56358   4.162   3.612   3.545 -0.1233  1.0134  0.6484
  409MOL0     C56359   4.178   3.397   3.151 -0.1763  0.3102 -0.0645
  409MOL0     C56360   4.197   3.262   3.175  0.8671 -0.5985  0.7333
  409MOL0     C56361   4.129   3.173   3.083 -0.4615  0.6991  0.2427
  409MOL0     C56362   4.045   3.210   2.983  0.6168  0.3649 -0.1696
  409MOL0     O56363   4.012   3.124   2.882  1.1603 -0.5923 -1.4357
  409MOL0     C56364   3.973   2.989   2.917  0.7993 -0.7951 -0.3378
  409MOL0     C56365   3.952   2.946   2.777  0.3941 -0.1165 -0.0518
  409MOL0     C56366   3.911   2.803   2.748 -0.4521 -0.1363  0.4410
  409MOL0     C56367   3.874   2.780   2.600  0.4348  0.4140 -0.6629
  409MOL0     C56368   3.766   2.862   2.559  0.2442 -0.1981  0.0389
  409MOL0     C56369   3.665   2.920   2.531 -0.1469  0.3981  0.9886
  409MOL0     C56370   4.014   3.348   2.974  0.6193 -0.4223 -0.1195
  409MOL0     C56371   4.090   3.440   3.049 -0.6710  0.0430  0.0650
  409MOL0     C56372   4.080   3.584   3.015  0.2181 -0.1454 -0.1334
  409MOL0     H56373   4.357   3.741   3.306  1.8750 -0.3635  0.6907
  409MOL0     H56374   4.391   3.914   3.494 -0.6737 -0.3503 -0.1967
  409MOL0     H56375   4.155   4.062   3.812 -0.1207 -0.2603  1.2580
  409MOL0     H56376   4.064   3.929   3.736 -3.0354  2.7136 -3.4111
  409MOL0     H56377   4.223   4.076   3.557  0.3167  0.7697 -0.4361
  409MOL0     H56378   4.076   4.004   3.543  1.3929 -0.9255 -0.2889
  409MOL0     H56379   3.943   4.163   3.684  0.4843 -3.2922 -0.6234
  409MOL0     H56380   4.081   4.261   3.721 -1.7320 -1.0581  0.2478
  409MOL0     H56381   4.103   4.278   3.451  1.1566  0.6352  0.8513
  409MOL0     H56382   3.931   4.265   3.473 -1.7229  2.6752  0.4289
  409MOL0     H56383   4.113   4.461   3.599 -1.6922  2.3748  1.6387
  409MOL0     H56384   3.935   4.457   3.628 -1.0220 -2.3671  0.8100
  409MOL0     H56385   3.971   4.633   3.473 -0.2862 -0.7214 -0.3574
  409MOL0     H56386   4.096   4.547   3.379 -0.7822 -1.8388 -1.0170
  409MOL0     H56387   3.920   4.396   3.301 -1.7343  0.0641 -0.6811
  409MOL0     H56388   3.923   4.554   3.247  1.8260 -2.3997 -0.4529
  409MOL0     H56389   3.674   4.474   3.310  0.8740  0.0897 -2.1073
  409MOL0     H56390   3.736   4.437   3.463 -4.0357 -0.3173 -2.4408
  409MOL0     H56391   3.704   4.791   3.276 -2.9472 -1.0159 -0.5099
  409MOL0     H56392   3.592   5.036   3.453 -0.4108 -3.3359 -0.6538
  409MOL0     H56393   3.739   5.040   3.368 -1.0660  1.6865 -1.1346
  409MOL0     H56394   3.746   5.033   3.675  3.6770 -4.8958 -1.2743
  409MOL0     H56395   3.865   5.100   3.557 -0.3463  0.1193 -1.3381
  409MOL0     H56396   3.708   5.293   3.518 -2.0309  3.8032  2.3372
  409MOL0     H56397   3.575   5.221   3.600  0.3355  2.4006 -0.5311
  409MOL0     H56398   3.685   5.389   3.733  2.3514 -0.4073  0.7020
  409MOL0     H56399   3.705   5.225   3.815  0.1775  2.9612  3.5141
  409MOL0     H56400   3.739   5.397   3.947  0.3137  1.4165 -2.3609
  409MOL0     H56401   3.770   5.656   4.169  2.4317  0.4442  2.4481
  409MOL0     H56402   3.831   5.522   4.269  0.4170 -1.0410  0.0845
  409MOL0     H56403   3.697   5.491   4.155 -0.3457  0.1259  0.6473
  409MOL0     H56404   4.115   5.955   4.150  0.0074 -1.2722 -2.2816
  409MOL0     H56405   4.207   6.136   4.322 -1.8944 -1.2180 -1.9121
  409MOL0     H56406   4.619   6.095   4.406 -0.8136 -1.3267 -1.8490
  409MOL0     H56407   4.497   6.211   4.333  2.9947  1.1057  0.1486
  409MOL0     H56408   4.580   6.204   4.626  1.5313 -1.5842 -1.1393
  409MOL0     H56409   4.640   6.316   4.509 -0.5051  0.9104  1.1882
  409MOL0     H56410   4.367   6.293   4.626  0.6215  1.5999  0.7500
  409MOL0     H56411   4.391   6.398   4.480  1.2282 -1.6057 -1.5399
  409MOL0     H56412   4.580   6.513   4.638  1.1728 -1.5428 -0.1877
  409MOL0     H56413   4.498   6.417   4.770  1.6027 -1.3359  0.7783
  409MOL0     H56414   4.372   6.620   4.575  0.0850  1.0960  1.3704
  409MOL0     H56415   4.289   6.531   4.707 -1.3308  1.5511 -0.9832
  409MOL0     H56416   4.505   6.734   4.735  1.6206 -2.4635  0.8974
  409MOL0     H56417   4.441   6.649   4.877  1.2492  1.2508  0.2210
  409MOL0     H56418   4.209   6.725   4.829 -2.5862  0.5723 -4.3417
  409MOL0     H56419   4.264   6.803   4.686  2.1116 -0.3883 -0.1039
  409MOL0     H56420   4.255   6.978   4.831  0.9375  2.1158 -3.5199
  409MOL0     H56421   4.420   6.961   4.793 -2.3838  0.6332 -1.2134
  409MOL0     H56422   4.501   5.843   4.421 -2.5361 -2.2653  4.1446
  409MOL0     H56423   4.387   5.666   4.260 -0.6944  0.4864  0.7256
  409MOL0     H56424   4.174   5.605   3.883  0.5223  0.7890 -0.1088
  409MOL0     H56425   4.078   5.458   3.725 -4.6151  1.7788 -2.5023
  409MOL0     H56426   4.116   3.686   3.738 -1.0620 -0.2732 -1.6086
  409MOL0     H56427   4.099   3.525   3.557  3.9510 -2.1884  0.9910
  409MOL0     H56428   4.268   3.236   3.253  0.8699  3.3577  2.3336
  409MOL0     H56429   4.164   3.071   3.089  0.3995  0.8204 -1.9226
  409MOL0     H56430   4.053   2.936   2.970  1.2530 -1.0758 -1.2833
  409MOL0     H56431   3.877   2.989   2.969  0.0989  1.4232 -1.5256
  409MOL0     H56432   4.047   2.968   2.727  1.4062  1.3259  2.3496
  409MOL0     H56433   3.865   3.005   2.748  0.0583 -1.2924 -1.5540
  409MOL0     H56434   3.994   2.735   2.767 -2.0825 -1.5700  2.9708
  409MOL0     H56435   3.832   2.763   2.812 -3.1900  1.3952 -1.7325
  409MOL0     H56436   3.835   2.679   2.584  3.1832 -0.7794 -0.4446
  409MOL0     H56437   3.968   2.788   2.543  1.4529 -3.4023  0.2152
  409MOL0     H56438   3.571   2.965   2.505  2.2636  3.2328 -4.0894
  409MOL0     H56439   3.947   3.383   2.896  1.5942  3.9138  0.6974
  409MOL0     H56440   4.066   3.645   3.105  0.3148  1.8418 -1.4123
  409MOL0     H56441   4.168   3.619   2.960  0.6945  1.1380  1.3759
  409MOL0     H56442   4.001   3.609   2.943  0.9152  2.9463  0.0641
  410MOL0     O56443   9.381   5.534   6.533 -0.0875 -0.1557 -0.2423
  410MOL0     C56444   9.337   5.465   6.617  0.7450  0.2359 -1.0285
  410MOL0     O56445   9.333   5.502   6.749 -0.3415 -0.7282 -0.8190
  410MOL0     C56446   9.321   5.636   6.773  0.0816  0.0726  0.0870
  410MOL0     C56447   9.380   5.682   6.889  0.0495  0.8931  0.1470
  410MOL0     C56448   9.382   5.820   6.917 -0.3500  1.1115 -0.6481
  410MOL0     C56449   9.303   5.906   6.840 -0.3567 -0.6737  0.7595
  410MOL0     O56450   9.322   6.041   6.840 -0.1997  0.3416  0.2052
  410MOL0     C56451   9.360   6.096   6.969 -0.6075  0.0693  0.7343
  410MOL0     C56452   9.512   6.138   6.958  1.2798 -0.4299  0.2942
  410MOL0     C56453   9.559   6.213   7.079 -0.6867  0.1870 -0.2344
  410MOL0     C56454   9.476   6.336   7.119 -0.2990  0.2054  0.1386
  410MOL0     C56455   9.362   6.296   7.220  1.2627 -0.4440  0.0057
  410MOL0     C56456   9.417   6.293   7.362 -0.7204 -0.1163  0.7131
  410MOL0     C56457   9.307   6.264   7.468 -0.0756 -0.0377  0.3219
  410MOL0     C56458   9.271   6.117   7.499  0.3935 -0.2631  0.4778
  410MOL0     N56459   9.147   6.101   7.586 -0.2869 -0.2752  0.0958
  410MOL0     C56460   9.137   6.075   7.720  0.4388 -0.6374 -0.1153
  410MOL0     C56461   9.011   6.034   7.741  0.2108 -0.7628  0.6959
  410MOL0     C56462   8.948   5.992   7.870  0.4633 -0.2851 -0.2007
  410MOL0     C56463   9.014   5.869   7.923  0.7742  0.2320 -0.5606
  410MOL0     C56464   8.930   5.744   7.885  0.1018 -0.0535 -0.0588
  410MOL0     C56465   8.807   5.713   7.958  0.9101  0.7493 -0.3185
  410MOL0     O56466   8.760   5.594   7.908  0.9926  1.0516  0.0028
  410MOL0     C56467   8.641   5.539   7.959  0.2816  0.6303  0.6948
  410MOL0     C56468   8.551   5.598   8.049 -0.6076 -0.1296  0.7913
  410MOL0     C56469   8.428   5.535   8.085 -0.5382 -0.4498  0.8326
  410MOL0     C56470   8.334   5.612   8.164  0.4655  0.2908  0.5035
  410MOL0     C56471   8.401   5.405   8.036 -0.0434  0.1399  0.2671
  410MOL0     C56472   8.300   5.326   8.104  0.5157 -0.0587  0.4278
  410MOL0     O56473   8.218   5.268   8.019 -0.4554 -0.6819  0.8743
  410MOL0     C56474   8.110   5.196   8.055 -0.0324 -0.0970 -0.7983
  410MOL0     C56475   8.004   5.204   7.963  0.4295  0.0978  0.5163
  410MOL0     C56476   7.891   5.131   7.996 -0.1814 -0.9009  0.7020
  410MOL0     C56477   7.869   5.070   8.114 -0.0553  0.0753  0.1753
  410MOL0     O56478   7.746   5.017   8.137 -0.2946 -0.0010 -0.3073
  410MOL0     C56479   7.702   5.008   8.275 -0.0955  0.0634 -0.1507
  410MOL0     C56480   7.716   4.861   8.321 -0.1902 -0.4272 -0.2195
  410MOL0     C56481   7.583   4.782   8.319 -1.5458 -0.9369  1.4466
  410MOL0     C56482   7.508   4.800   8.180  0.3859  0.9379 -0.1458
  410MOL0     C56483   7.386   4.709   8.174  0.3577 -1.1581 -0.2376
  410MOL0     C56484   7.304   4.753   8.041 -0.0974 -0.2323 -1.2944
  410MOL0     C56485   7.173   4.678   8.038 -1.0367 -0.4236 -0.1140
  410MOL0     C56486   7.097   4.701   7.910 -0.1244  0.0952 -0.7333
  410MOL0    Cl56487   7.034   4.867   7.916  0.2344 -0.6015  0.2340
  410MOL0     C56488   7.982   5.038   8.186 -0.4047 -0.0647 -0.3617
  410MOL0     C56489   8.107   5.098   8.156  0.6869  0.1990  0.0739
  410MOL0     O56490   8.301   5.314   8.230  0.3065 -0.1658  1.3180
  410MOL0     C56491   8.487   5.337   7.942 -1.1614  0.3643 -0.1366
  410MOL0     C56492   8.609   5.404   7.908  0.9858 -1.2123  1.0465
  410MOL0     N56493   8.946   6.044   7.621  0.1639 -0.3301 -0.0501
  410MOL0     N56494   9.027   6.079   7.527  0.0474 -0.5300 -0.8196
  410MOL0     C56495   9.228   5.862   6.735  0.7084 -0.0235  0.4099
  410MOL0     C56496   9.229   5.718   6.702  0.0152 -0.5328  0.3429
  410MOL0     C56497   9.292   5.332   6.581 -1.2561  0.1824  0.6703
  410MOL0     C56498   9.303   5.223   6.679 -0.3822  0.2025 -0.2365
  410MOL0     C56499   9.279   5.093   6.648 -0.8181  0.0290 -0.9892
  410MOL0     C56500   9.227   5.060   6.522  0.2399  0.7528  0.9598
  410MOL0     O56501   9.188   4.940   6.490  0.3834  0.3653 -0.0699
  410MOL0     C56502   9.141   4.858   6.598  0.1458 -0.5756 -1.1160
  410MOL0     C56503   9.022   4.774   6.538  0.4217  0.7439  0.8844
  410MOL0     C56504   8.907   4.848   6.476  0.2404 -0.5503 -0.7107
  410MOL0     C56505   8.824   4.751   6.388  0.2048  0.1895  0.2627
  410MOL0     C56506   8.751   4.644   6.459  0.2812 -0.1313 -0.5421
  410MOL0     C56507   8.681   4.570   6.530  1.3503  0.3372  0.9004
  410MOL0     C56508   9.208   5.165   6.431  0.4401  0.7541 -0.2294
  410MOL0     C56509   9.236   5.296   6.458 -0.2845  0.9330 -0.2991
  410MOL0     C56510   9.171   5.402   6.364  0.8572 -0.3779  0.0878
  410MOL0     H56511   9.451   5.623   6.947 -0.3231  1.4034  1.1357
  410MOL0     H56512   9.457   5.840   6.992 -0.6023  1.5768 -0.5173
  410MOL0     H56513   9.328   6.032   7.052 -0.7463  0.2369  0.8090
  410MOL0     H56514   9.295   6.183   6.973 -1.1128 -0.1454 -1.6710
  410MOL0     H56515   9.576   6.051   6.948  2.5135  0.3030  1.4844
  410MOL0     H56516   9.519   6.205   6.872 -0.9856  2.0646  1.8748
  410MOL0     H56517   9.568   6.139   7.159  0.5197 -1.7510 -2.0349
  410MOL0     H56518   9.660   6.250   7.058 -0.6988  0.4056  0.0895
  410MOL0     H56519   9.544   6.412   7.158 -1.0846  0.9320  0.1276
  410MOL0     H56520   9.421   6.383   7.036 -0.3695 -0.0884  0.0165
  410MOL0     H56521   9.324   6.195   7.203  0.6206  0.0140 -1.3932
  410MOL0     H56522   9.282   6.370   7.211  0.1094 -1.8905 -3.5881
  410MOL0     H56523   9.503   6.226   7.373 -0.0287 -0.7343 -5.2381
  410MOL0     H56524   9.453   6.395   7.373  0.8932 -0.3478 -1.6965
  410MOL0     H56525   9.210   6.306   7.438  0.1821 -0.7011 -1.5844
  410MOL0     H56526   9.340   6.315   7.559  3.6529  1.3167 -1.5768
  410MOL0     H56527   9.275   6.072   7.399  4.7039 -1.2015  0.8919
  410MOL0     H56528   9.343   6.058   7.557  1.9227  2.0485  1.0729
  410MOL0     H56529   9.219   6.093   7.789  2.4643 -0.5110 -2.4491
  410MOL0     H56530   8.844   5.972   7.846  0.4857 -0.0779 -0.4753
  410MOL0     H56531   8.947   6.079   7.937 -1.0779  0.3471 -1.0037
  410MOL0     H56532   9.116   5.857   7.884  0.3061 -1.8391 -1.2693
  410MOL0     H56533   9.009   5.873   8.032  0.1392 -0.8483 -0.5371
  410MOL0     H56534   8.908   5.755   7.779 -4.1109 -0.2380  0.6415
  410MOL0     H56535   8.995   5.656   7.895  0.2063  0.0543  0.2429
  410MOL0     H56536   8.833   5.693   8.063 -1.0729 -0.3363  0.0171
  410MOL0     H56537   8.732   5.791   7.942 -3.7670 -3.4198 -1.2426
  410MOL0     H56538   8.578   5.697   8.085 -1.1652  0.6058 -0.7353
  410MOL0     H56539   8.352   5.719   8.169  0.5520  0.3434 -0.6612
  410MOL0     H56540   8.335   5.572   8.266 -0.2454 -2.6992 -0.5585
  410MOL0     H56541   8.230   5.600   8.133  0.3225 -0.9095  1.3723
  410MOL0     H56542   8.029   5.260   7.874  1.2444 -1.9372 -0.6063
  410MOL0     H56543   7.810   5.130   7.925 -2.3313 -1.8085  3.0072
  410MOL0     H56544   7.771   5.067   8.336  2.7767  0.3305 -3.3567
  410MOL0     H56545   7.597   5.041   8.269 -0.8603 -2.4408 -2.8894
  410MOL0     H56546   7.796   4.811   8.265  0.0528  0.0749 -0.3332
  410MOL0     H56547   7.741   4.856   8.427  1.5386 -0.7105 -0.6108
  410MOL0     H56548   7.522   4.817   8.403 -2.5694 -2.3322  1.3350
  410MOL0     H56549   7.609   4.678   8.343  1.4872 -0.8065 -0.7644
  410MOL0     H56550   7.567   4.758   8.098  1.2675  1.0134  0.4440
  410MOL0     H56551   7.492   4.907   8.168  2.8950  1.2061 -1.7170
  410MOL0     H56552   7.403   4.601   8.171 -1.8005 -1.6014  1.0943
  410MOL0     H56553   7.330   4.708   8.268  0.4986  0.0733 -0.1342
  410MOL0     H56554   7.362   4.733   7.951  3.8202  1.0029  0.7377
  410MOL0     H56555   7.293   4.862   8.036  1.6361  0.3094  2.9636
  410MOL0     H56556   7.116   4.698   8.129 -1.7052 -2.8232  0.0593
  410MOL0     H56557   7.199   4.572   8.044  1.1939  0.1353  2.1736
  410MOL0     H56558   7.012   4.634   7.897 -1.2448  1.6449 -1.7039
  410MOL0     H56559   7.157   4.693   7.818 -0.9662  1.1547 -1.3922
  410MOL0     H56560   7.979   4.964   8.265  0.5092 -1.6341 -1.7478
  410MOL0     H56561   8.197   5.080   8.213 -1.0845 -0.5184  2.8127
  410MOL0     H56562   8.462   5.238   7.905  1.0038 -0.0496 -0.5886
  410MOL0     H56563   8.676   5.347   7.845 -1.8127 -3.1640 -0.3306
  410MOL0     H56564   9.168   5.931   6.677 -0.4901 -1.6736 -0.3896
  410MOL0     H56565   9.179   5.677   6.615 -1.0336 -0.2089  0.7901
  410MOL0     H56566   9.344   5.242   6.778  2.8911 -2.5890 -0.8592
  410MOL0     H56567   9.313   5.023   6.723  0.6777  2.2183  0.5032
  410MOL0     H56568   9.228   4.805   6.637 -1.4038 -1.5653  1.1296
  410MOL0     H56569   9.101   4.919   6.679 -1.8536 -4.3664  1.0007
  410MOL0     H56570   8.972   4.731   6.626  2.6460 -0.9480  1.4073
  410MOL0     H56571   9.056   4.701   6.464  0.2578  0.4032  1.1452
  410MOL0     H56572   8.837   4.889   6.551 -2.8532 -1.3103 -2.9629
  410MOL0     H56573   8.947   4.928   6.414  4.1232 -0.1850  1.9225
  410MOL0     H56574   8.892   4.709   6.313  0.0401  0.4989 -0.0581
  410MOL0     H56575   8.744   4.817   6.354  1.5238  2.5802  1.5859
  410MOL0     H56576   8.627   4.508   6.599 -1.8627  0.6833 -1.0490
  410MOL0     H56577   9.156   5.132   6.341  0.2103  1.7999 -0.4951
  410MOL0     H56578   9.239   5.460   6.301 -1.0120  1.5237 -0.2931
  410MOL0     H56579   9.077   5.376   6.315  0.5461  1.0936 -0.1572
  410MOL0     H56580   9.127   5.475   6.433 -0.6259  0.3392 -1.5474
  411MOL0     O56581  10.469  10.283   5.501  0.0476 -1.1472  0.0766
  411MOL0     C56582  10.476  10.249   5.618 -0.0565 -0.5238 -0.2338
  411MOL0     O56583  10.590  10.226   5.679 -0.5266 -0.4288  0.1833
  411MOL0     C56584  10.711  10.222   5.605  0.3332  0.0101 -0.3749
  411MOL0     C56585  10.746  10.116   5.531 -0.3431 -0.4721  1.1960
  411MOL0     C56586  10.855  10.138   5.445  0.1874  0.5783 -0.3466
  411MOL0     C56587  10.943  10.256   5.449 -0.1405  0.7250  0.4057
  411MOL0     O56588  11.048  10.258   5.362  0.3571  0.0335  0.3521
  411MOL0     C56589  11.113  10.380   5.349 -0.7264 -0.9143 -0.6102
  411MOL0     C56590  11.243  10.357   5.272  1.6554  1.1408 -0.6384
  411MOL0     C56591  11.226  10.327   5.122 -0.9272 -0.3272  0.8802
  411MOL0     C56592  11.318  10.408   5.032  0.0514  0.2294 -0.2912
  411MOL0     C56593  11.266  10.389   4.883 -0.3873 -0.4392 -0.9967
  411MOL0     C56594  11.292  10.513   4.794 -0.7299  0.8205 -0.5437
  411MOL0     C56595  11.235  10.482   4.656 -0.1628  0.3315  0.0497
  411MOL0     C56596  11.291  10.570   4.554  0.2229 -0.0309 -0.5994
  411MOL0     N56597  11.230  10.549   4.419 -0.3238 -0.9811 -0.3683
  411MOL0     C56598  11.109  10.601   4.375 -0.2719  1.1282 -0.7864
  411MOL0     C56599  11.112  10.572   4.248 -0.0910 -0.0030 -0.1966
  411MOL0     C56600  11.015  10.626   4.151 -0.0365 -0.8884  0.7919
  411MOL0     C56601  11.089  10.705   4.040 -0.5595  0.5358 -0.3272
  411MOL0     C56602  10.991  10.801   3.960 -0.4020  0.0895  0.0516
  411MOL0     C56603  11.057  10.907   3.858 -0.0929 -0.0353  0.5125
  411MOL0     O56604  10.959  10.974   3.778  0.3076  1.0250 -0.2935
  411MOL0     C56605  11.016  11.064   3.693 -0.2298  0.9720  1.3928
  411MOL0     C56606  11.073  11.182   3.733  0.2704 -0.4014 -1.2479
  411MOL0     C56607  11.132  11.273   3.643 -0.6088 -0.3373  0.8579
  411MOL0     C56608  11.215  11.388   3.704  0.4202  0.5452 -0.0076
  411MOL0     C56609  11.129  11.243   3.506 -0.4782  0.0566 -0.8064
  411MOL0     C56610  11.177  11.334   3.404 -0.7652 -0.4671  0.4311
  411MOL0     O56611  11.101  11.351   3.294  0.0791  0.5069  0.2124
  411MOL0     C56612  11.109  11.470   3.232 -0.9838 -0.3337 -0.2254
  411MOL0     C56613  11.194  11.482   3.119 -0.2214  0.1538  0.2472
  411MOL0     C56614  11.212  11.611   3.059  0.3782 -0.1977  0.6604
  411MOL0     C56615  11.152  11.730   3.104  0.7163  0.8069  0.9006
  411MOL0     O56616  11.156  11.856   3.053  0.3975  0.3251  0.2113
  411MOL0     C56617  11.217  11.868   2.920 -0.1837 -0.3851 -0.1538
  411MOL0     C56618  11.154  12.007   2.861 -0.3034  0.1110 -0.3763
  411MOL0     C56619  11.002  11.999   2.859 -0.4524 -0.2518  0.3612
  411MOL0     C56620  10.929  12.102   2.780 -0.1587 -0.1552 -0.2885
  411MOL0     C56621  10.783  12.075   2.733 -0.4631 -0.1489 -0.3359
  411MOL0     C56622  10.706  11.960   2.807  0.6866  0.2953 -0.1884
  411MOL0     C56623  10.559  11.969   2.752 -0.2104 -0.0356  0.3707
  411MOL0     C56624  10.482  11.861   2.823  0.6807 -0.1352 -0.0261
  411MOL0    Cl56625  10.467  11.716   2.724 -0.0160  0.3342 -0.3502
  411MOL0     C56626  11.079  11.716   3.221 -0.5159 -0.4085 -0.1175
  411MOL0     C56627  11.046  11.592   3.277  0.4302  0.1844 -0.0242
  411MOL0     O56628  11.278  11.397   3.424  0.0880  0.4178 -0.4647
  411MOL0     C56629  11.079  11.120   3.464 -0.4825 -0.2729  0.8744
  411MOL0     C56630  11.022  11.035   3.551  0.9379  0.7263  0.7494
  411MOL0     N56631  11.229  10.511   4.209  0.9091 -0.5392  0.7969
  411MOL0     N56632  11.298  10.504   4.313  0.7307 -0.5948  0.7645
  411MOL0     C56633  10.902  10.367   5.529 -0.2263  0.7021 -0.5985
  411MOL0     C56634  10.795  10.338   5.614  0.3392  0.3275  0.1963
  411MOL0     C56635  10.353  10.246   5.706  0.7872  0.0357 -0.2637
  411MOL0     C56636  10.357  10.263   5.850 -0.5037  0.1441  0.2962
  411MOL0     C56637  10.243  10.286   5.924  0.7429 -0.1828 -0.3619
  411MOL0     C56638  10.112  10.259   5.883 -0.4906 -0.0721  0.2432
  411MOL0     O56639  10.008  10.263   5.971 -0.3103 -0.6935  0.2797
  411MOL0     C56640   9.888  10.337   5.932  0.0416  0.0606 -0.6955
  411MOL0     C56641   9.797  10.360   6.055 -0.4471  1.1090  0.1680
  411MOL0     C56642   9.710  10.249   6.096 -1.2300 -0.6570  0.5905
  411MOL0     C56643   9.778  10.108   6.088 -0.4011  1.3466 -0.0695
  411MOL0     C56644   9.877  10.092   6.189  0.2759 -0.0050  0.8682
  411MOL0     C56645   9.958  10.071   6.274  0.2480 -0.6545  0.8357
  411MOL0     C56646  10.106  10.223   5.751  0.2078  0.3090 -0.2842
  411MOL0     C56647  10.221  10.211   5.665 -0.8559 -0.0698  0.2979
  411MOL0     C56648  10.199  10.176   5.518 -1.3093  1.2129  0.8547
  411MOL0     H56649  10.684  10.027   5.531  1.2049 -1.6175  2.9717
  411MOL0     H56650  10.882  10.062   5.373 -0.4210  0.6594 -0.6711
  411MOL0     H56651  11.151  10.421   5.443 -0.6744  0.8751 -1.3557
  411MOL0     H56652  11.068  10.461   5.290  3.1916 -1.5123 -5.0581
  411MOL0     H56653  11.315  10.437   5.293  2.1030  0.6640 -0.3137
  411MOL0     H56654  11.298  10.269   5.305  1.1909  0.9556 -0.3554
  411MOL0     H56655  11.244  10.223   5.094 -1.2081  0.2104 -1.4988
  411MOL0     H56656  11.127  10.358   5.089 -0.2062 -1.3764 -2.6215
  411MOL0     H56657  11.329  10.514   5.052  2.3234  0.1183 -0.6845
  411MOL0     H56658  11.422  10.380   5.051 -0.5834 -0.5236  2.5174
  411MOL0     H56659  11.161  10.365   4.867 -0.3395 -1.7942  0.4488
  411MOL0     H56660  11.326  10.303   4.851 -0.4690 -0.1130 -2.0635
  411MOL0     H56661  11.252  10.604   4.840 -0.2012  1.5893 -1.5556
  411MOL0     H56662  11.401  10.522   4.794 -0.7369  1.2422  1.1699
  411MOL0     H56663  11.126  10.480   4.668 -0.3461  0.7733 -1.3958
  411MOL0     H56664  11.254  10.380   4.622 -1.1608 -0.1176  0.7779
  411MOL0     H56665  11.283  10.676   4.581  0.5370  0.7839 -3.3804
  411MOL0     H56666  11.394  10.538   4.537 -0.3244 -0.9340 -2.4449
  411MOL0     H56667  11.029  10.659   4.420  0.2064  2.2037 -1.2728
  411MOL0     H56668  10.946  10.693   4.204  1.6288  3.7732 -2.2814
  411MOL0     H56669  10.960  10.543   4.107 -2.3041 -0.6603  2.9674
  411MOL0     H56670  11.154  10.777   4.090 -2.0361  1.1132  0.8209
  411MOL0     H56671  11.141  10.626   3.985  0.1944  1.6926 -1.3359
  411MOL0     H56672  10.930  10.735   3.897 -0.2669  0.3920 -0.4014
  411MOL0     H56673  10.929  10.856   4.031 -0.7243  0.5065 -0.5388
  411MOL0     H56674  11.109  10.987   3.911 -3.1721  1.8876  0.8629
  411MOL0     H56675  11.127  10.845   3.800  1.5759  0.9882  1.3710
  411MOL0     H56676  11.084  11.205   3.838  0.0049 -0.7822 -1.1330
  411MOL0     H56677  11.324  11.383   3.696  0.2514 -0.9181 -2.2064
  411MOL0     H56678  11.195  11.389   3.812  0.4480 -4.6236  0.2899
  411MOL0     H56679  11.191  11.478   3.648  2.0263 -0.5871 -2.7097
  411MOL0     H56680  11.262  11.404   3.088  2.6366  3.2005 -1.8950
  411MOL0     H56681  11.274  11.611   2.970 -0.6084  0.4219 -0.0413
  411MOL0     H56682  11.326  11.871   2.934  0.0928  0.4782 -2.1487
  411MOL0     H56683  11.188  11.786   2.853 -2.6353  1.6147 -1.7004
  411MOL0     H56684  11.179  12.084   2.934  1.5456 -1.4249  0.7201
  411MOL0     H56685  11.209  12.023   2.768  1.0583 -1.7371  0.0553
  411MOL0     H56686  10.962  11.997   2.961  1.1518 -0.2733  1.0069
  411MOL0     H56687  10.966  11.901   2.828 -0.6845 -0.2042  0.4717
  411MOL0     H56688  10.995  12.121   2.695  2.7402 -0.6094  1.7044
  411MOL0     H56689  10.933  12.194   2.840 -2.6613 -1.4340  2.0342
  411MOL0     H56690  10.727  12.163   2.763  0.8784  1.1809 -1.5474
  411MOL0     H56691  10.764  12.066   2.625  0.2924  2.0785 -0.6990
  411MOL0     H56692  10.711  11.979   2.914  0.4811 -4.6410  0.9191
  411MOL0     H56693  10.757  11.865   2.789 -2.6793 -1.8496  0.7659
  411MOL0     H56694  10.548  11.966   2.643 -0.3578 -1.1989  0.4073
  411MOL0     H56695  10.513  12.066   2.774 -3.7519 -1.5262  0.3364
  411MOL0     H56696  10.384  11.896   2.859  0.9654  1.5395 -0.7972
  411MOL0     H56697  10.533  11.846   2.919 -1.8126  1.5914  1.7160
  411MOL0     H56698  11.034  11.810   3.250  2.3320  0.7922  0.7526
  411MOL0     H56699  10.974  11.594   3.359 -0.1225 -0.4831 -0.4866
  411MOL0     H56700  11.092  11.103   3.358 -2.3926  2.2751  0.1412
  411MOL0     H56701  10.971  10.942   3.526 -0.9016  2.2998 -1.7722
  411MOL0     H56702  10.953  10.463   5.522  0.3792  0.5123  0.8242
  411MOL0     H56703  10.762  10.423   5.674 -3.1294  0.9006 -2.1762
  411MOL0     H56704  10.458  10.277   5.887 -0.1892  1.3981 -0.9477
  411MOL0     H56705  10.261  10.315   6.027  1.6960  0.7291 -0.7667
  411MOL0     H56706   9.926  10.427   5.884  0.3768  0.5779  0.5076
  411MOL0     H56707   9.837  10.291   5.846  0.7049 -0.8917 -0.5930
  411MOL0     H56708   9.731  10.443   6.026 -1.1726  0.5926  0.2995
  411MOL0     H56709   9.846  10.395   6.146  0.2823  0.3022  0.0967
  411MOL0     H56710   9.659  10.278   6.188 -1.3907  3.1082 -0.5236
  411MOL0     H56711   9.631  10.244   6.020 -2.7384  1.6179  1.8935
  411MOL0     H56712   9.816  10.088   5.987 -1.0906  1.3789 -0.3415
  411MOL0     H56713   9.702  10.032   6.110  1.0037 -0.4405 -1.1233
  411MOL0     H56714  10.029  10.074   6.355  0.8489 -0.1321  0.2981
  411MOL0     H56715  10.005  10.205   5.716 -1.0101 -0.5299  3.2413
  411MOL0     H56716  10.266  10.095   5.486  1.0314  2.9157  1.2082
  411MOL0     H56717  10.101  10.126   5.516 -0.0376 -1.6461  2.9396
  411MOL0     H56718  10.208  10.253   5.441  5.2966 -0.8820 -1.1865
  412MOL0     O56719   1.883   8.776   8.166 -1.4000 -0.8352 -0.1954
  412MOL0     C56720   1.960   8.833   8.089  0.2838 -0.5104 -0.1789
  412MOL0     O56721   1.970   8.818   7.950  0.2624  0.5337 -0.7016
  412MOL0     C56722   1.898   8.722   7.877  0.4413 -0.4432 -0.2744
  412MOL0     C56723   1.921   8.733   7.747 -0.2604 -0.4487  0.1571
  412MOL0     C56724   1.856   8.649   7.654  0.6863 -0.3390  0.9881
  412MOL0     C56725   1.786   8.536   7.695  0.5209 -0.2404  0.0095
  412MOL0     O56726   1.734   8.438   7.616 -0.9011 -0.1269 -0.6374
  412MOL0     C56727   1.748   8.420   7.470 -0.0020 -0.3875  0.0796
  412MOL0     C56728   1.652   8.324   7.409 -0.0776 -1.1420  0.2673
  412MOL0     C56729   1.702   8.174   7.408 -0.2857 -0.0272 -0.3754
  412MOL0     C56730   1.581   8.078   7.413  0.1832 -0.0608 -0.2530
  412MOL0     C56731   1.607   7.934   7.387 -0.0022 -0.1062  0.3855
  412MOL0     C56732   1.494   7.839   7.409  0.3857  0.2801 -1.0598
  412MOL0     C56733   1.476   7.816   7.569  0.1767 -0.2152  0.2036
  412MOL0     C56734   1.351   7.733   7.593 -0.3341 -0.5279 -0.7704
  412MOL0     N56735   1.376   7.636   7.703 -1.0656 -0.2689 -0.8358
  412MOL0     C56736   1.393   7.507   7.675 -0.3355 -0.5879  0.0447
  412MOL0     C56737   1.389   7.453   7.805 -0.6720 -0.0059 -0.3517
  412MOL0     C56738   1.415   7.304   7.839  0.5352 -1.0307 -0.0331
  412MOL0     C56739   1.571   7.269   7.853  0.2318 -0.4019 -1.2027
  412MOL0     C56740   1.638   7.300   7.718  0.5273 -1.0142 -0.0305
  412MOL0     C56741   1.782   7.285   7.737 -0.1740  0.7116 -0.1687
  412MOL0     O56742   1.852   7.327   7.624  0.2509 -0.1362 -1.2196
  412MOL0     C56743   1.987   7.335   7.628 -0.1016  0.2095 -0.7142
  412MOL0     C56744   2.044   7.371   7.502 -0.6957  0.1055  0.0929
  412MOL0     C56745   2.178   7.347   7.474 -0.2012  0.4024 -0.0054
  412MOL0     C56746   2.217   7.382   7.343 -0.4674  0.2836  0.1881
  412MOL0     C56747   2.264   7.275   7.573 -0.0938  0.4112  0.2221
  412MOL0     C56748   2.411   7.258   7.550  0.0632  0.8327 -0.4177
  412MOL0     O56749   2.483   7.209   7.657 -0.4337  0.1756  0.2292
  412MOL0     C56750   2.616   7.214   7.648 -0.6344  0.0992  0.6785
  412MOL0     C56751   2.683   7.335   7.662 -0.4487 -0.1633 -0.4876
  412MOL0     C56752   2.819   7.353   7.630  0.8698  0.1520 -0.5000
  412MOL0     C56753   2.892   7.246   7.595 -0.9009  0.6145 -0.1394
  412MOL0     O56754   3.028   7.275   7.562  0.9903 -0.0246 -0.3116
  412MOL0     C56755   3.112   7.161   7.590  0.7925 -0.2309 -0.0252
  412MOL0     C56756   3.122   7.098   7.454 -0.2805  0.4712  0.6112
  412MOL0     C56757   3.202   6.969   7.475  0.6747  0.1888  0.6435
  412MOL0     C56758   3.216   6.886   7.341  0.6216  0.5665 -0.1029
  412MOL0     C56759   3.302   6.753   7.371 -0.3333 -0.2924 -1.5122
  412MOL0     C56760   3.215   6.634   7.421 -0.1769 -0.4314 -0.1240
  412MOL0     C56761   3.278   6.499   7.408 -0.2490 -0.4500 -0.0295
  412MOL0     C56762   3.194   6.394   7.480 -0.6353  0.2019 -0.0559
  412MOL0    Cl56763   3.178   6.416   7.658 -0.3970 -0.4320  0.2764
  412MOL0     C56764   2.833   7.113   7.597  0.9099 -0.7802  0.6465
  412MOL0     C56765   2.690   7.099   7.617 -0.0726  0.2305 -0.0847
  412MOL0     O56766   2.459   7.252   7.440 -0.5786  0.4325  0.3707
  412MOL0     C56767   2.194   7.240   7.697  0.2365  0.5974  0.7293
  412MOL0     C56768   2.062   7.262   7.726  0.1492 -0.0854 -0.0577
  412MOL0     N56769   1.378   7.558   7.896  0.8506  0.5003 -0.1944
  412MOL0     N56770   1.367   7.662   7.838 -0.5259 -0.8849  0.2828
  412MOL0     C56771   1.745   8.544   7.825 -0.2608 -0.0237 -0.2928
  412MOL0     C56772   1.813   8.620   7.922 -0.0844 -0.4420  0.1331
  412MOL0     C56773   2.043   8.936   8.158 -0.0598 -0.2427 -0.2993
  412MOL0     C56774   2.173   8.944   8.109  0.5650  0.0035 -0.0343
  412MOL0     C56775   2.258   9.032   8.159 -0.6865 -0.1306 -0.0663
  412MOL0     C56776   2.219   9.118   8.265  0.4117 -0.7676 -0.2271
  412MOL0     O56777   2.314   9.200   8.318  0.0173 -0.9328 -0.0447
  412MOL0     C56778   2.281   9.339   8.299  0.2748  0.5372  0.8724
  412MOL0     C56779   2.377   9.424   8.378  0.7811  0.5541  0.8432
  412MOL0     C56780   2.524   9.444   8.343  0.4476  0.7384  1.3537
  412MOL0     C56781   2.602   9.313   8.352  0.4040 -0.1931  0.0420
  412MOL0     C56782   2.734   9.322   8.294 -0.1895 -0.2073  0.5072
  412MOL0     C56783   2.835   9.352   8.233 -1.0372  0.4285 -0.9599
  412MOL0     C56784   2.093   9.113   8.308 -0.5336 -0.7578  0.2131
  412MOL0     C56785   1.999   9.018   8.259 -0.2583 -0.4310  0.4482
  412MOL0     C56786   1.860   9.018   8.315  0.5453 -0.0847 -1.2371
  412MOL0     H56787   1.977   8.823   7.723 -2.0176  0.9673  1.0543
  412MOL0     H56788   1.878   8.652   7.548  2.1693 -2.3994  1.1697
  412MOL0     H56789   1.852   8.391   7.453 -0.5607 -0.7475 -3.3434
  412MOL0     H56790   1.725   8.514   7.418 -2.2632  0.3312  2.1970
  412MOL0     H56791   1.557   8.327   7.464 -1.6476  1.2599 -2.3317
  412MOL0     H56792   1.624   8.359   7.310  1.4127 -2.6008 -0.7163
  412MOL0     H56793   1.769   8.154   7.324  2.3698 -2.7401  2.1796
  412MOL0     H56794   1.751   8.146   7.502 -1.7000  2.3924  1.1930
  412MOL0     H56795   1.527   8.081   7.508  0.0099  1.4016 -0.3785
  412MOL0     H56796   1.508   8.116   7.340 -0.3989  0.9122  0.8016
  412MOL0     H56797   1.686   7.911   7.459  0.4222 -1.1218 -0.3754
  412MOL0     H56798   1.656   7.925   7.290  0.9473 -1.6249  0.9822
  412MOL0     H56799   1.394   7.867   7.372 -0.1316 -0.7934 -0.5198
  412MOL0     H56800   1.509   7.740   7.364 -1.9416 -0.0515 -1.2275
  412MOL0     H56801   1.463   7.912   7.621 -5.2645 -0.3380 -0.2995
  412MOL0     H56802   1.567   7.763   7.596  2.1661  2.1128 -1.4553
  412MOL0     H56803   1.270   7.793   7.634  0.4430 -0.1690  0.2714
  412MOL0     H56804   1.307   7.688   7.503 -3.5663 -0.0491  0.4559
  412MOL0     H56805   1.417   7.459   7.581 -1.4273 -3.7634  1.2424
  412MOL0     H56806   1.373   7.228   7.773 -1.9383 -0.1182  0.3848
  412MOL0     H56807   1.379   7.296   7.943 -0.9459  0.1116 -0.4233
  412MOL0     H56808   1.615   7.325   7.936  1.3811 -3.9090  0.7868
  412MOL0     H56809   1.593   7.163   7.870  3.2023  0.3840  0.5817
  412MOL0     H56810   1.613   7.232   7.637  2.2973 -1.1949 -0.4471
  412MOL0     H56811   1.612   7.399   7.680  0.4428 -2.0125 -2.7977
  412MOL0     H56812   1.821   7.340   7.822  0.5939  0.9882 -0.6846
  412MOL0     H56813   1.821   7.186   7.761 -1.9441  0.2923  1.1272
  412MOL0     H56814   1.980   7.414   7.425  0.5727  0.9066 -0.5522
  412MOL0     H56815   2.247   7.298   7.281  0.3535  1.6319 -1.3145
  412MOL0     H56816   2.307   7.445   7.342  2.8621 -3.7846 -4.3062
  412MOL0     H56817   2.142   7.437   7.285 -0.4136  0.5323  0.3503
  412MOL0     H56818   2.611   7.409   7.698  1.2375  0.3618  2.1366
  412MOL0     H56819   2.853   7.456   7.628 -0.2559  0.5270 -0.8956
  412MOL0     H56820   3.209   7.195   7.627  0.8718  0.5058 -0.8776
  412MOL0     H56821   3.076   7.094   7.668  1.3095  0.9887  1.3132
  412MOL0     H56822   3.028   7.068   7.407  0.2669 -0.3719  0.0320
  412MOL0     H56823   3.159   7.162   7.373 -0.5929 -3.4571 -2.9920
  412MOL0     H56824   3.143   6.902   7.537 -1.8104  0.1246 -1.6132
  412MOL0     H56825   3.303   6.987   7.516  1.0120  2.8348 -1.1261
  412MOL0     H56826   3.275   6.949   7.273  3.6278  1.0195  2.6644
  412MOL0     H56827   3.123   6.855   7.293  1.8523 -1.3081 -1.4223
  412MOL0     H56828   3.355   6.727   7.279  1.0096 -0.2070 -0.8014
  412MOL0     H56829   3.377   6.775   7.449 -1.8430 -1.7637  0.4517
  412MOL0     H56830   3.119   6.630   7.368 -0.3768 -1.3424  0.2862
  412MOL0     H56831   3.187   6.651   7.525  3.3972 -1.1937  1.1172
  412MOL0     H56832   3.377   6.501   7.454 -0.2777 -0.5313  0.0353
  412MOL0     H56833   3.289   6.472   7.302 -2.2439 -0.1734 -0.3456
  412MOL0     H56834   3.239   6.295   7.464  1.3776  1.0323  0.2406
  412MOL0     H56835   3.094   6.376   7.440 -0.7644 -0.9830  0.7471
  412MOL0     H56836   2.880   7.016   7.588 -0.9337 -1.6735  0.1925
  412MOL0     H56837   2.638   7.005   7.606 -0.0197  0.1664  0.2146
  412MOL0     H56838   2.257   7.201   7.776 -3.4145 -0.1357  3.5592
  412MOL0     H56839   2.031   7.219   7.821  0.4330 -0.8429 -0.3011
  412MOL0     H56840   1.670   8.468   7.847 -1.4326  1.7857  2.5575
  412MOL0     H56841   1.807   8.599   8.028 -0.8667 -0.2628  0.1297
  412MOL0     H56842   2.206   8.873   8.034 -0.8543  0.0778 -0.7611
  412MOL0     H56843   2.363   9.024   8.132  0.1064  0.4281  2.5189
  412MOL0     H56844   2.289   9.364   8.193 -2.3720 -1.7049  0.0197
  412MOL0     H56845   2.180   9.365   8.335 -0.2227  0.0737 -0.1555
  412MOL0     H56846   2.378   9.404   8.486 -0.0788  0.8687  0.9183
  412MOL0     H56847   2.341   9.526   8.363 -0.9832 -0.0283  0.7999
  412MOL0     H56848   2.525   9.471   8.237  2.6941  0.0265  1.1483
  412MOL0     H56849   2.564   9.523   8.408 -2.3749  1.7473  2.0543
  412MOL0     H56850   2.551   9.229   8.304 -1.3623 -0.1435  1.6919
  412MOL0     H56851   2.607   9.288   8.458 -2.7105 -1.2966  0.0425
  412MOL0     H56852   2.920   9.384   8.175  0.1435 -1.9059 -0.6156
  412MOL0     H56853   2.052   9.180   8.384 -1.5104 -2.0434  0.8486
  412MOL0     H56854   1.795   9.017   8.227  1.2462 -0.3130 -1.7642
  412MOL0     H56855   1.837   8.942   8.390  0.6960  1.2531  0.2232
  412MOL0     H56856   1.854   9.120   8.355  3.5263  0.2084 -1.2986
  413MOL0     O56857   4.167   9.879   1.284  1.3701  0.0678 -0.2847
  413MOL0     C56858   4.277   9.854   1.243 -0.9647  0.4779  0.5358
  413MOL0     O56859   4.308   9.749   1.169  0.1475 -0.1898 -0.6038
  413MOL0     C56860   4.246   9.732   1.047 -0.5520 -0.4503  0.0901
  413MOL0     C56861   4.268   9.617   0.974  0.5868 -0.4497  0.4040
  413MOL0     C56862   4.206   9.588   0.845  0.6405  0.3818 -0.2619
  413MOL0     C56863   4.129   9.690   0.780 -1.3170  0.7376 -0.7569
  413MOL0     O56864   4.073   9.655   0.661  0.2970 -0.3256 -0.4850
  413MOL0     C56865   3.942   9.714   0.627 -0.2545  0.2342  0.6956
  413MOL0     C56866   3.951   9.790   0.507 -0.3121 -0.3862 -0.4044
  413MOL0     C56867   3.818   9.843   0.451  0.3988  0.1276 -0.0624
  413MOL0     C56868   3.830   9.949   0.340 -0.4719 -0.4551 -0.8711
  413MOL0     C56869   3.694   9.989   0.287 -0.3941  0.3880 -0.7047
  413MOL0     C56870   3.694  10.103   0.194 -0.1062  0.8726  0.3559
  413MOL0     C56871   3.559  10.119   0.125 -0.4080 -1.0719  0.3210
  413MOL0     C56872   3.564  10.223   0.006  0.1169 -0.0274  0.2633
  413MOL0     N56873   3.437  10.219  -0.064  0.2385 -0.6848  1.0674
  413MOL0     C56874   3.364  10.327  -0.094  0.6341 -0.6381 -0.1119
  413MOL0     C56875   3.252  10.284  -0.152  0.0105 -0.9032 -0.4331
  413MOL0     C56876   3.150  10.379  -0.206  0.0644  0.3129 -0.5159
  413MOL0     C56877   3.007  10.377  -0.140 -0.1807  0.2455 -0.0634
  413MOL0     C56878   3.016  10.451  -0.007  0.7114 -0.3738 -0.1729
  413MOL0     C56879   2.870  10.470   0.055 -0.5896  0.2053 -0.5381
  413MOL0     O56880   2.801  10.342   0.077 -0.0992 -0.5923 -0.3771
  413MOL0     C56881   2.724  10.324   0.189 -0.4192 -1.1944  0.4616
  413MOL0     C56882   2.665  10.429   0.264  0.0018  1.1564 -0.5595
  413MOL0     C56883   2.577  10.407   0.369 -0.1391  1.3917  0.9087
  413MOL0     C56884   2.509  10.524   0.441 -1.0228 -0.0496  0.3556
  413MOL0     C56885   2.544  10.273   0.411 -0.8173  0.3427  0.1087
  413MOL0     C56886   2.444  10.228   0.517  0.1223  0.9381  1.4173
  413MOL0     O56887   2.424  10.094   0.534  0.5980  0.3409 -0.1182
  413MOL0     C56888   2.317  10.060   0.608 -0.4686 -0.2098  0.1863
  413MOL0     C56889   2.207   9.987   0.563  0.7042  0.7625  0.0591
  413MOL0     C56890   2.097   9.946   0.645 -0.6990 -0.0761  0.7658
  413MOL0     C56891   2.104   9.975   0.783  0.2544  0.3909  0.3216
  413MOL0     O56892   2.007   9.942   0.869  0.2271  0.0828 -0.9402
  413MOL0     C56893   2.053   9.857   0.982  0.9338 -0.1572  0.2133
  413MOL0     C56894   1.984   9.718   0.972  0.1984  0.0229  0.6291
  413MOL0     C56895   2.058   9.611   1.053  0.0627  1.2982 -0.3054
  413MOL0     C56896   2.011   9.609   1.200 -0.1527 -0.7474 -0.0112
  413MOL0     C56897   2.096   9.532   1.300 -0.7498  0.1172  0.5778
  413MOL0     C56898   2.122   9.390   1.260 -0.2580  0.7045  0.0632
  413MOL0     C56899   2.007   9.289   1.235  0.0920 -0.5763 -0.5344
  413MOL0     C56900   2.043   9.141   1.218 -0.3358 -1.3391  0.5178
  413MOL0    Cl56901   2.121   9.083   1.365  0.1033  0.1726 -0.0174
  413MOL0     C56902   2.211  10.056   0.834  1.2090 -0.1763  0.2356
  413MOL0     C56903   2.310  10.094   0.745 -0.4545  0.6163 -0.1698
  413MOL0     O56904   2.378  10.318   0.565  0.1667  0.1967 -0.4282
  413MOL0     C56905   2.606  10.162   0.341 -0.0775 -0.2080 -0.7554
  413MOL0     C56906   2.689  10.188   0.228  0.5798 -0.2114 -0.2476
  413MOL0     N56907   3.263  10.152  -0.154  0.4063 -0.0133 -0.4356
  413MOL0     N56908   3.376  10.102  -0.105  0.2700  0.0518  0.1557
  413MOL0     C56909   4.117   9.813   0.855 -0.1287 -0.0085  0.0077
  413MOL0     C56910   4.175   9.834   0.977  0.0870  1.0458  0.6599
  413MOL0     C56911   4.381   9.947   1.298 -0.2620  0.1628  0.6928
  413MOL0     C56912   4.342  10.039   1.401  0.2197 -0.4316 -0.6841
  413MOL0     C56913   4.430  10.138   1.439 -0.3139 -0.1973 -1.0303
  413MOL0     C56914   4.569  10.132   1.398  0.5758  0.5840 -0.0890
  413MOL0     O56915   4.671  10.219   1.432 -1.1745  0.4465 -1.0942
  413MOL0     C56916   4.646  10.319   1.543 -0.4976 -0.4813 -0.0448
  413MOL0     C56917   4.643  10.249   1.678  0.0298 -0.1906  0.9463
  413MOL0     C56918   4.769  10.173   1.724  0.9716 -0.0274 -0.0392
  413MOL0     C56919   4.748  10.107   1.865 -0.0673 -0.2045  0.3618
  413MOL0     C56920   4.882  10.073   1.911 -0.0895 -0.9703 -0.1076
  413MOL0     C56921   4.996  10.026   1.944 -0.3207 -0.0037 -0.3979
  413MOL0     C56922   4.608  10.036   1.299  0.4553  0.5088 -0.4343
  413MOL0     C56923   4.519   9.937   1.253 -0.2580 -0.0459 -0.2907
  413MOL0     C56924   4.574   9.821   1.175  0.9055  0.5238  0.5774
  413MOL0     H56925   4.323   9.535   1.021 -0.3245 -1.0794  0.3952
  413MOL0     H56926   4.228   9.497   0.790  0.0232  0.7014 -1.0639
  413MOL0     H56927   3.908   9.792   0.696 -0.9197  2.4619 -1.9641
  413MOL0     H56928   3.869   9.634   0.617  0.0881  0.1126 -0.9986
  413MOL0     H56929   4.013   9.880   0.520 -3.4001  1.6923  1.2488
  413MOL0     H56930   3.994   9.736   0.422 -0.7275 -1.7787  0.2553
  413MOL0     H56931   3.757   9.762   0.408 -2.4846  3.0987 -2.0517
  413MOL0     H56932   3.763   9.878   0.539  3.5755  2.2425  1.2550
  413MOL0     H56933   3.891  10.030   0.381 -2.3645  0.0720  1.1627
  413MOL0     H56934   3.883   9.907   0.254 -3.0945 -2.5148 -1.6108
  413MOL0     H56935   3.629  10.028   0.366  0.8531  3.1467 -0.9301
  413MOL0     H56936   3.630   9.908   0.252 -1.8229  0.5189  1.4026
  413MOL0     H56937   3.728  10.192   0.248  4.0714  0.5998 -1.4215
  413MOL0     H56938   3.776  10.070   0.129 -0.8539  2.1561 -1.2996
  413MOL0     H56939   3.473  10.145   0.186 -0.0155 -1.8540  1.2393
  413MOL0     H56940   3.541  10.023   0.075 -0.2646 -2.3299  2.5589
  413MOL0     H56941   3.591  10.325   0.036  2.5914 -0.5652  0.1261
  413MOL0     H56942   3.645  10.194  -0.062 -0.0584  0.5217 -0.1874
  413MOL0     H56943   3.388  10.432  -0.086 -0.7756 -0.1877 -1.2590
  413MOL0     H56944   3.148  10.335  -0.306  1.2653 -1.7859  0.3228
  413MOL0     H56945   3.196  10.476  -0.224  2.6714  0.0471  3.4582
  413MOL0     H56946   2.938  10.425  -0.210  1.3024  0.6312 -1.3076
  413MOL0     H56947   2.976  10.272  -0.130  0.0189 -0.0362 -2.0472
  413MOL0     H56948   3.083  10.392   0.057  2.3381  1.9602  0.3943
  413MOL0     H56949   3.049  10.555  -0.013 -3.3044  1.5183  4.1076
  413MOL0     H56950   2.854  10.545   0.133  0.1807  2.0497 -2.0845
  413MOL0     H56951   2.808  10.508  -0.027 -0.6575 -2.1693 -1.6649
  413MOL0     H56952   2.683  10.533   0.241 -0.4565  0.9607 -1.8925
  413MOL0     H56953   2.561  10.618   0.422 -0.5168  0.5041  3.7139
  413MOL0     H56954   2.516  10.517   0.550  0.1035 -2.2385  0.1931
  413MOL0     H56955   2.403  10.530   0.413 -0.0423  1.7769 -3.5929
  413MOL0     H56956   2.204   9.957   0.458  2.4519 -1.8983  0.6625
  413MOL0     H56957   2.024   9.873   0.612 -0.7577 -0.2102  1.1888
  413MOL0     H56958   2.161   9.851   0.969  0.8667 -2.1477  0.3333
  413MOL0     H56959   2.024   9.894   1.081 -3.7682 -0.0971 -0.9445
  413MOL0     H56960   1.877   9.729   0.993 -0.4207 -1.4248 -1.5227
  413MOL0     H56961   1.985   9.674   0.872  2.1029 -0.1059  0.6651
  413MOL0     H56962   2.164   9.637   1.052  1.7139 -4.1601  0.8679
  413MOL0     H56963   2.039   9.507   1.027 -1.7910  1.6934 -0.7006
  413MOL0     H56964   1.914   9.558   1.202 -0.3577 -0.3217  1.1385
  413MOL0     H56965   1.991   9.707   1.242  2.2609  0.1493 -0.7962
  413MOL0     H56966   2.193   9.581   1.317 -1.4148  0.3649  4.6404
  413MOL0     H56967   2.053   9.525   1.400  0.5188 -4.2758  1.0165
  413MOL0     H56968   2.184   9.355   1.343  0.6561  2.2047  0.0434
  413MOL0     H56969   2.177   9.375   1.167 -0.5893  0.3479 -0.0771
  413MOL0     H56970   1.968   9.322   1.138  1.8943 -1.3230 -1.5711
  413MOL0     H56971   1.946   9.297   1.325  1.3360 -1.6850  0.4470
  413MOL0     H56972   2.118   9.131   1.138 -1.9984 -1.2556 -1.1161
  413MOL0     H56973   1.954   9.085   1.188 -2.1728  2.6631 -2.4048
  413MOL0     H56974   2.222  10.087   0.937 -0.1191 -2.6339  1.2023
  413MOL0     H56975   2.396  10.141   0.791 -1.1280  1.5324  0.1812
  413MOL0     H56976   2.597  10.058   0.367 -1.3656 -0.4197 -1.9059
  413MOL0     H56977   2.728  10.106   0.168  0.3794 -0.0430 -0.6099
  413MOL0     H56978   4.066   9.903   0.821  0.8115  0.7309  0.5071
  413MOL0     H56979   4.168   9.927   1.033  2.2301  1.3933  0.4432
  413MOL0     H56980   4.239  10.052   1.434  0.6123 -0.6806  0.6963
  413MOL0     H56981   4.391  10.203   1.517  0.6756  0.1811 -0.8294
  413MOL0     H56982   4.716  10.403   1.545  0.4482 -1.1576 -1.9707
  413MOL0     H56983   4.548  10.364   1.524 -0.7779 -1.0381  0.0756
  413MOL0     H56984   4.565  10.172   1.674  0.5072 -0.7516  2.0875
  413MOL0     H56985   4.609  10.305   1.766  1.2948  1.9042  0.1869
  413MOL0     H56986   4.804  10.101   1.649  1.0231 -1.4865  1.3311
  413MOL0     H56987   4.856  10.238   1.730  1.8230 -1.2611  1.6653
  413MOL0     H56988   4.684  10.019   1.856 -2.1418  0.8709  3.1683
  413MOL0     H56989   4.706  10.175   1.940  0.6668  0.2724  0.3519
  413MOL0     H56990   5.095   9.990   1.963  0.4707  0.7699 -2.6764
  413MOL0     H56991   4.709  10.044   1.261  0.6129 -1.9003 -0.6706
  413MOL0     H56992   4.683   9.815   1.173  1.0123  1.1657 -3.0791
  413MOL0     H56993   4.540   9.725   1.214  0.9689  0.9036  1.6025
  413MOL0     H56994   4.544   9.834   1.070  3.3026  2.3762  0.0393
  414MOL0     O56995   2.307  10.217  11.058 -1.2652 -0.9760  0.5521
  414MOL0     C56996   2.259  10.269  11.160 -0.0224 -0.1757 -0.6175
  414MOL0     O56997   2.226  10.207  11.286 -0.6088 -0.1502 -0.0430
  414MOL0     C56998   2.206  10.071  11.308  0.6740 -0.7448 -1.0085
  414MOL0     C56999   2.111  10.011  11.400 -0.1710 -1.2911 -0.4190
  414MOL0     C57000   2.109   9.877  11.429  0.2974 -0.3744 -0.3346
  414MOL0     C57001   2.200   9.788  11.367 -0.6629 -0.2774 -0.4878
  414MOL0     O57002   2.196   9.648  11.369  0.0444 -0.0721  0.5044
  414MOL0     C57003   2.110   9.574  11.463  0.7521  0.5487  0.4920
  414MOL0     C57004   2.189   9.595  11.594  0.5719 -0.2464  0.3960
  414MOL0     C57005   2.105   9.557  11.721 -1.0852  0.7280 -0.7704
  414MOL0     C57006   2.180   9.568  11.857  0.3200  0.1206 -0.9944
  414MOL0     C57007   2.097   9.528  11.975 -0.4931 -1.0508 -0.7693
  414MOL0     C57008   2.177   9.518  12.108 -0.4919  0.1771 -0.1394
  414MOL0     C57009   2.106   9.517  12.245  0.8965 -0.2002 -0.3871
  414MOL0     C57010   2.010   9.397  12.280  0.0835  0.0828  0.9125
  414MOL0     N57011   2.091   9.287  12.346 -0.4105 -0.7087 -0.2845
  414MOL0     C57012   2.216   9.238  12.320  0.3613 -0.3715  0.5215
  414MOL0     C57013   2.246   9.141  12.412  0.5090  0.5669  0.0357
  414MOL0     C57014   2.383   9.082  12.419 -0.1321  0.4667 -0.6881
  414MOL0     C57015   2.434   9.063  12.567 -0.8714  0.4286 -0.5919
  414MOL0     C57016   2.487   9.186  12.636  0.8377  0.8937 -0.4996
  414MOL0     C57017   2.613   9.250  12.559 -0.1852  0.5326 -0.3569
  414MOL0     O57018   2.637   9.385  12.615  0.1372  0.5216 -0.1022
  414MOL0     C57019   2.741   9.456  12.559  0.0001 -0.3767  0.2323
  414MOL0     C57020   2.776   9.446  12.435  0.2065  0.5068 -0.2784
  414MOL0     C57021   2.874   9.527  12.377 -0.2018  0.1758  1.0406
  414MOL0     C57022   2.903   9.505  12.227  0.3329 -0.1365 -0.4632
  414MOL0     C57023   2.948   9.619  12.456 -0.4231  0.6566 -0.4951
  414MOL0     C57024   3.067   9.684  12.412  0.4222  0.0807  0.5998
  414MOL0     O57025   3.093   9.804  12.457  0.3038 -0.0884 -0.1892
  414MOL0     C57026   3.174   9.883  12.386  0.5317 -0.8674  0.7055
  414MOL0     C57027   3.302   9.898  12.438 -0.0432 -0.1406 -0.7409
  414MOL0     C57028   3.395   9.983  12.367  0.8939  1.1899 -0.9395
  414MOL0     C57029   3.366  10.049  12.254  0.2358 -0.0341  0.4023
  414MOL0     O57030   3.448  10.125  12.181 -0.0795 -0.1957  0.1804
  414MOL0     C57031   3.566  10.180  12.251  0.8585  0.8283 -0.1519
  414MOL0     C57032   3.631  10.271  12.157  0.0080 -0.6688 -0.3206
  414MOL0     C57033   3.773  10.303  12.196 -0.7444  0.4933 -0.5611
  414MOL0     C57034   3.787  10.448  12.245 -0.6310  0.3928  0.9810
  414MOL0     C57035   3.933  10.486  12.289 -0.1725 -0.3839 -0.5092
  414MOL0     C57036   3.940  10.641  12.300 -0.4422 -0.2478  0.2585
  414MOL0     C57037   3.948  10.714  12.161 -0.3296  1.1030  0.0962
  414MOL0     C57038   3.909  10.857  12.177 -0.6496  0.1742  0.2605
  414MOL0    Cl57039   3.738  10.848  12.224  0.0154  0.1888 -0.2612
  414MOL0     C57040   3.239  10.021  12.201  0.2065 -0.2230  0.0379
  414MOL0     C57041   3.139   9.940  12.263 -1.2948  0.1510  0.1330
  414MOL0     O57042   3.135   9.614  12.332 -0.7684 -0.0640 -0.5813
  414MOL0     C57043   2.900   9.641  12.595  0.8126 -0.9120  1.5037
  414MOL0     C57044   2.794   9.557  12.636  0.1198  0.3178  0.1766
  414MOL0     N57045   2.134   9.135  12.500 -1.0878  0.2610  0.7486
  414MOL0     N57046   2.036   9.216  12.456 -0.5314 -0.8875  0.5276
  414MOL0     C57047   2.295   9.833  11.285  0.5007  0.5255 -0.0626
  414MOL0     C57048   2.294   9.972  11.257 -0.3597  0.5381 -0.3696
  414MOL0     C57049   2.231  10.415  11.163  0.8973  0.1588  0.3445
  414MOL0     C57050   2.149  10.470  11.061 -0.6745  0.0696  0.2440
  414MOL0     C57051   2.099  10.602  11.086  0.1624 -0.4074 -0.4904
  414MOL0     C57052   2.130  10.686  11.193 -0.3922 -0.2094  0.3738
  414MOL0     O57053   2.079  10.818  11.194 -1.1949  0.4823 -0.4745
  414MOL0     C57054   2.072  10.904  11.307  0.5912  0.2831 -0.4422
  414MOL0     C57055   2.024  11.043  11.275  0.2561 -0.0841  0.7496
  414MOL0     C57056   2.136  11.120  11.190 -0.3649  0.3531  1.1132
  414MOL0     C57057   2.079  11.244  11.134  0.3690  0.4157  0.0420
  414MOL0     C57058   1.986  11.221  11.011 -0.2164  0.0753  0.0115
  414MOL0     C57059   1.913  11.215  10.912  0.1325 -0.1738 -0.5904
  414MOL0     C57060   2.223  10.628  11.280  0.6415  0.7538  0.0559
  414MOL0     C57061   2.265  10.497  11.273 -0.0180 -0.5764  0.9137
  414MOL0     C57062   2.365  10.448  11.371 -0.2366  0.0600 -0.0901
  414MOL0     H57063   2.040  10.081  11.444 -0.6228 -1.3168 -1.0868
  414MOL0     H57064   2.037   9.850  11.506  0.6979  0.0981  0.2119
  414MOL0     H57065   2.087   9.478  11.417  6.4716 -0.9967  0.0761
  414MOL0     H57066   2.015   9.627  11.476  0.9664  0.8389  0.9005
  414MOL0     H57067   2.281   9.537  11.594 -0.2236 -1.5811 -1.0872
  414MOL0     H57068   2.212   9.699  11.618 -1.8864  0.1903  1.1422
  414MOL0     H57069   2.020   9.625  11.727  0.6153  3.1301 -2.0997
  414MOL0     H57070   2.068   9.454  11.720 -0.8020  0.5562  1.2654
  414MOL0     H57071   2.272   9.509  11.865 -1.5349 -3.0118 -1.0444
  414MOL0     H57072   2.197   9.676  11.859 -0.9744  0.3645  1.5279
  414MOL0     H57073   2.044   9.434  11.960 -3.6398  0.4829 -0.0520
  414MOL0     H57074   2.030   9.614  11.981  1.0901  0.4501 -2.9147
  414MOL0     H57075   2.237   9.426  12.107 -0.1214  0.4162 -1.1920
  414MOL0     H57076   2.238   9.608  12.116 -1.2479  0.5304  2.6290
  414MOL0     H57077   2.033   9.598  12.239  0.9311 -0.0870  0.5235
  414MOL0     H57078   2.171   9.549  12.327  0.9535  3.1174 -1.5722
  414MOL0     H57079   1.929   9.430  12.346 -0.9224 -0.2843 -0.0978
  414MOL0     H57080   1.960   9.361  12.189  1.4659  2.8804 -1.1090
  414MOL0     H57081   2.275   9.252  12.229 -1.1021 -1.7061 -0.7072
  414MOL0     H57082   2.451   9.135  12.352 -0.6634 -0.2136 -1.8002
  414MOL0     H57083   2.370   8.980  12.382 -0.7395  0.4003 -0.3154
  414MOL0     H57084   2.353   9.033  12.634 -0.5927  2.2453  0.6224
  414MOL0     H57085   2.507   8.982  12.574 -0.7929  0.4892 -0.7024
  414MOL0     H57086   2.404   9.250  12.666 -1.9183 -1.8570 -1.6803
  414MOL0     H57087   2.520   9.148  12.734 -0.6542 -0.8243 -0.6040
  414MOL0     H57088   2.688   9.175  12.584 -1.1309 -0.2768  0.1050
  414MOL0     H57089   2.591   9.255  12.452 -1.0416  0.5540 -0.1885
  414MOL0     H57090   2.732   9.370  12.371  2.6709  0.6498 -2.2848
  414MOL0     H57091   2.879   9.590  12.163  5.3577  2.3692  0.4915
  414MOL0     H57092   2.832   9.427  12.196 -0.9858  1.8544 -2.7247
  414MOL0     H57093   3.004   9.467  12.209  1.7990  3.5335 -0.6535
  414MOL0     H57094   3.338   9.875  12.538  2.9813 -0.4870 -1.7809
  414MOL0     H57095   3.489   9.997  12.420 -0.1449 -0.2596  1.4790
  414MOL0     H57096   3.541  10.229  12.346  3.3051 -3.2239  2.9163
  414MOL0     H57097   3.632  10.094  12.264 -2.0110 -1.5114 -0.0540
  414MOL0     H57098   3.629  10.234  12.054  2.1987 -0.5137 -0.4535
  414MOL0     H57099   3.576  10.366  12.164  1.3497  0.0173  4.5818
  414MOL0     H57100   3.840  10.292  12.110  0.9973  2.7032  0.4088
  414MOL0     H57101   3.826  10.227  12.254  0.5427  0.0686 -2.2141
  414MOL0     H57102   3.719  10.472  12.327 -0.1538  2.3524  0.8706
  414MOL0     H57103   3.758  10.514  12.162  1.7663 -0.6550 -0.8195
  414MOL0     H57104   3.936  10.443  12.389 -2.5588  1.3825  0.4130
  414MOL0     H57105   4.007  10.445  12.219  0.6017 -0.2300  0.2135
  414MOL0     H57106   4.026  10.674  12.360 -1.2594 -0.7704  1.7819
  414MOL0     H57107   3.851  10.670  12.356 -0.7628 -3.4752  1.6394
  414MOL0     H57108   3.887  10.662  12.086  1.5934 -1.3496  0.1418
  414MOL0     H57109   4.044  10.704  12.111 -1.6912 -0.0168 -2.5129
  414MOL0     H57110   3.913  10.922  12.089 -1.9375 -1.3774 -1.0135
  414MOL0     H57111   3.957  10.904  12.262  1.8225  0.5208 -1.2335
  414MOL0     H57112   3.219  10.086  12.116 -4.2503  2.2583  2.6213
  414MOL0     H57113   3.040   9.934  12.219 -1.6786 -0.5529  1.0448
  414MOL0     H57114   2.948   9.717  12.655  2.0400 -1.0481  0.7265
  414MOL0     H57115   2.757   9.570  12.737  0.2616  0.0860  0.2589
  414MOL0     H57116   2.371   9.764  11.247  0.2202  1.0726 -1.7039
  414MOL0     H57117   2.366  10.003  11.182 -0.9395  0.6209 -0.9054
  414MOL0     H57118   2.122  10.413  10.973 -2.9799  1.8337 -0.2735
  414MOL0     H57119   2.028  10.639  11.012  0.4349  0.2004 -0.4573
  414MOL0     H57120   1.995  10.865  11.374  1.0701  1.8463  1.0830
  414MOL0     H57121   2.167  10.901  11.362  1.0504 -0.5253 -1.2483
  414MOL0     H57122   2.001  11.101  11.365 -0.2538 -2.5754  2.3039
  414MOL0     H57123   1.941  11.021  11.207 -0.2084 -0.2777  1.3738
  414MOL0     H57124   2.217  11.143  11.261 -1.0254  0.0017  2.0092
  414MOL0     H57125   2.163  11.046  11.115 -1.0900 -1.5562  2.6563
  414MOL0     H57126   2.160  11.314  11.110  1.9544 -0.2719  2.9379
  414MOL0     H57127   2.030  11.294  11.218  0.8956  0.0906  0.5506
  414MOL0     H57128   1.867  11.221  10.816 -2.1524  1.7901  0.5354
  414MOL0     H57129   2.264  10.688  11.361  0.0957 -2.5995  3.1057
  414MOL0     H57130   2.409  10.523  11.437  1.0376  0.4212 -1.2818
  414MOL0     H57131   2.328  10.378  11.445 -0.3444  1.7469  1.5279
  414MOL0     H57132   2.447  10.408  11.311 -0.1830  0.2335 -0.1318
  415MOL0     O57133   5.253   6.593  11.118 -0.2929 -0.7800 -0.5587
  415MOL0     C57134   5.215   6.677  11.041 -0.3259  0.1419  0.8695
  415MOL0     O57135   5.091   6.718  11.028 -0.6911 -0.5502 -1.6241
  415MOL0     C57136   4.989   6.662  11.103 -0.2785 -1.0273 -1.0193
  415MOL0     C57137   4.969   6.693  11.237  1.0668  0.4180 -1.1415
  415MOL0     C57138   4.872   6.630  11.321 -0.3288 -0.3044  1.2164
  415MOL0     C57139   4.782   6.529  11.266 -0.7675 -0.6981  0.1386
  415MOL0     O57140   4.696   6.450  11.336 -0.3961  0.7288  0.3631
  415MOL0     C57141   4.697   6.465  11.481  0.1488 -0.2098  1.7227
  415MOL0     C57142   4.584   6.377  11.517  0.6772  0.8368  0.6375
  415MOL0     C57143   4.447   6.448  11.505  0.2171 -1.3255  0.1302
  415MOL0     C57144   4.329   6.345  11.510 -0.3183 -0.1563  0.3566
  415MOL0     C57145   4.208   6.419  11.562  1.0619  0.3523 -0.2434
  415MOL0     C57146   4.085   6.336  11.582  0.4042 -0.8141 -0.5634
  415MOL0     C57147   4.014   6.277  11.457 -1.1435  0.5522  0.0281
  415MOL0     C57148   3.940   6.384  11.380 -0.0041  0.5042 -0.8120
  415MOL0     N57149   3.868   6.329  11.264  0.7320 -0.0961 -0.2924
  415MOL0     C57150   3.741   6.276  11.260  0.2616  0.2433  0.2378
  415MOL0     C57151   3.714   6.255  11.132 -0.9650  0.2260 -0.0027
  415MOL0     C57152   3.604   6.185  11.065 -0.1084  0.7584 -0.3316
  415MOL0     C57153   3.472   6.230  11.113  0.1568 -0.5197 -0.1772
  415MOL0     C57154   3.367   6.123  11.077 -0.5701 -1.0432  0.2731
  415MOL0     C57155   3.244   6.118  11.181  0.4934 -0.5101 -0.6355
  415MOL0     O57156   3.275   6.045  11.305 -0.1714 -0.7330 -0.9368
  415MOL0     C57157   3.170   6.025  11.407 -0.1566  0.1152  0.5571
  415MOL0     C57158   3.055   6.106  11.417 -0.7143  0.2364  0.4773
  415MOL0     C57159   2.968   6.096  11.522  0.2192  0.8111  0.4382
  415MOL0     C57160   2.868   6.199  11.532  0.3010 -0.2444  0.2717
  415MOL0     C57161   2.995   5.996  11.621 -1.0451  0.4827 -0.2467
  415MOL0     C57162   2.911   5.960  11.732 -0.5657  0.5057  0.3223
  415MOL0     O57163   2.916   5.836  11.784  0.0797 -0.2917 -0.6630
  415MOL0     C57164   2.848   5.817  11.906 -0.3253  0.4301  0.2431
  415MOL0     C57165   2.917   5.764  12.014 -0.6505 -0.4037  0.7470
  415MOL0     C57166   2.861   5.748  12.135  0.9312 -0.2727 -0.1348
  415MOL0     C57167   2.727   5.782  12.163 -0.3989 -0.0055  1.3103
  415MOL0     O57168   2.683   5.801  12.288 -0.0050 -0.0532 -0.4400
  415MOL0     C57169   2.709   5.933  12.342  1.2234 -0.5896  0.2715
  415MOL0     C57170   2.686   5.941  12.500  0.8852  0.4779 -0.4922
  415MOL0     C57171   2.789   5.849  12.569  0.0323 -1.2208  0.3297
  415MOL0     C57172   2.756   5.827  12.718  0.5150  0.6136 -0.0541
  415MOL0     C57173   2.901   5.844  12.794 -0.0717 -0.4126 -0.1016
  415MOL0     C57174   2.912   5.773  12.930 -0.2680 -0.4065  0.8474
  415MOL0     C57175   3.054   5.778  12.987  0.0382  0.0959 -0.3972
  415MOL0     C57176   3.047   5.752  13.134  0.2764  0.6009  0.6725
  415MOL0    Cl57177   3.215   5.693  13.184  0.0277  0.2330  0.4209
  415MOL0     C57178   2.654   5.819  12.057  0.6495 -0.4562  0.1149
  415MOL0     C57179   2.707   5.842  11.922 -0.0005 -0.5704 -0.2937
  415MOL0     O57180   2.843   6.049  11.770 -0.4446  0.1857 -0.2209
  415MOL0     C57181   3.104   5.917  11.611 -0.1152  0.6213  0.3322
  415MOL0     C57182   3.194   5.943  11.509  0.2806 -0.7099  0.3333
  415MOL0     N57183   3.829   6.297  11.059  0.9930 -0.3336  0.4959
  415MOL0     N57184   3.920   6.344  11.135  0.6482  0.5237 -0.0667
  415MOL0     C57185   4.799   6.511  11.128 -0.3636 -0.6136 -0.1900
  415MOL0     C57186   4.892   6.585  11.047 -0.2005  0.0548  0.0229
  415MOL0     C57187   5.308   6.750  10.954 -0.1198 -0.2037  0.5335
  415MOL0     C57188   5.260   6.857  10.869 -0.1130  0.9728  0.4238
  415MOL0     C57189   5.333   6.923  10.783 -0.6267 -0.2452 -0.0752
  415MOL0     C57190   5.468   6.913  10.778  0.0229  0.6359  0.5646
  415MOL0     O57191   5.545   7.011  10.717  0.2311  0.3479 -0.0804
  415MOL0     C57192   5.690   6.990  10.708 -0.7716 -0.1642  0.1345
  415MOL0     C57193   5.756   7.119  10.644 -0.2749  0.4227 -0.3906
  415MOL0     C57194   5.905   7.094  10.619 -0.3394 -0.2462  0.6693
  415MOL0     C57195   5.950   7.204  10.537  0.5762 -0.5668 -0.3259
  415MOL0     C57196   5.969   7.330  10.613 -0.3549 -0.8867  0.1030
  415MOL0     C57197   5.994   7.437  10.664 -0.6060  0.3878 -0.4254
  415MOL0     C57198   5.523   6.810  10.856 -0.7022 -1.1220  0.6667
  415MOL0     C57199   5.448   6.731  10.945 -0.5467  0.0445 -0.0997
  415MOL0     C57200   5.527   6.643  11.038 -0.9799 -0.2893  0.8810
  415MOL0     H57201   5.031   6.750  11.305 -1.2159 -1.0457  2.5052
  415MOL0     H57202   4.860   6.660  11.424 -1.4967 -0.2183  1.0702
  415MOL0     H57203   4.677   6.567  11.517 -1.6268 -0.3602  1.2876
  415MOL0     H57204   4.791   6.425  11.518 -0.1793 -4.5699 -1.2973
  415MOL0     H57205   4.580   6.291  11.450 -3.1194  1.5868 -0.3122
  415MOL0     H57206   4.590   6.351  11.623 -1.4308  2.0726  1.1109
  415MOL0     H57207   4.441   6.521  11.586  0.0634 -0.0693 -0.9921
  415MOL0     H57208   4.431   6.509  11.416 -2.4247 -0.7200  0.9355
  415MOL0     H57209   4.302   6.304  11.412 -1.0404  2.6384 -0.7095
  415MOL0     H57210   4.350   6.267  11.583 -2.4988  0.9570  2.3133
  415MOL0     H57211   4.177   6.487  11.482 -0.4028 -0.6671 -0.5858
  415MOL0     H57212   4.219   6.486  11.647 -0.7582  0.2213  0.1272
  415MOL0     H57213   4.115   6.249  11.642  2.4085 -3.1223 -4.5198
  415MOL0     H57214   4.011   6.399  11.634  0.9527 -0.2459 -0.4636
  415MOL0     H57215   3.957   6.188  11.485 -0.7525  0.2243 -0.2110
  415MOL0     H57216   4.087   6.235  11.388 -0.6458 -0.3201  1.0482
  415MOL0     H57217   3.876   6.434  11.454  0.5258 -2.9443  2.2943
  415MOL0     H57218   4.009   6.457  11.335 -2.2428  1.1421 -3.4473
  415MOL0     H57219   3.683   6.247  11.347  0.5268  2.6603  1.2989
  415MOL0     H57220   3.611   6.078  11.085  1.8314  0.9196  0.0474
  415MOL0     H57221   3.623   6.189  10.958  0.9115 -0.3650 -0.2201
  415MOL0     H57222   3.472   6.239  11.222 -0.0657 -2.0068 -0.0368
  415MOL0     H57223   3.442   6.324  11.065  0.6100  0.4558  1.3997
  415MOL0     H57224   3.328   6.141  10.977  0.4141  1.2933  0.2582
  415MOL0     H57225   3.406   6.021  11.083 -0.1814 -0.8125  2.3327
  415MOL0     H57226   3.212   6.221  11.202 -1.4338 -0.9845 -1.0332
  415MOL0     H57227   3.172   6.060  11.123 -3.0125  0.2041  2.5936
  415MOL0     H57228   3.041   6.190  11.349  2.9640  2.2928  1.9696
  415MOL0     H57229   2.768   6.174  11.568  1.4742  0.0755  4.2377
  415MOL0     H57230   2.855   6.244  11.434  0.1678  0.0068  0.4014
  415MOL0     H57231   2.914   6.280  11.589 -1.7423  0.4900  0.9437
  415MOL0     H57232   3.023   5.746  11.999 -0.2396  1.6455  0.9811
  415MOL0     H57233   2.913   5.700  12.217 -1.4671 -0.7079  1.2459
  415MOL0     H57234   2.809   5.974  12.323  0.7504  0.1242 -0.8174
  415MOL0     H57235   2.639   6.000  12.290  3.4589  2.2610  0.6760
  415MOL0     H57236   2.699   6.043  12.537 -0.5326  1.0352 -1.4043
  415MOL0     H57237   2.585   5.905  12.521  0.5029  2.3543  1.3268
  415MOL0     H57238   2.888   5.894  12.562 -1.4469  2.0499 -1.7505
  415MOL0     H57239   2.782   5.750  12.522 -0.1518 -0.7298 -0.6950
  415MOL0     H57240   2.722   5.726  12.744  1.1954  0.1582 -0.8827
  415MOL0     H57241   2.693   5.906  12.759 -1.7750 -0.3969 -1.4514
  415MOL0     H57242   2.984   5.802  12.737  2.9733  1.7773  2.4467
  415MOL0     H57243   2.912   5.951  12.811  2.2283 -0.4632 -0.9597
  415MOL0     H57244   2.882   5.671  12.903  0.7147  0.0518 -2.4864
  415MOL0     H57245   2.839   5.824  12.993  1.8619  1.1646  2.2003
  415MOL0     H57246   3.101   5.875  12.966  0.9180 -0.2606 -0.0721
  415MOL0     H57247   3.115   5.700  12.941 -1.2244 -0.8062 -0.5866
  415MOL0     H57248   2.973   5.671  13.138  0.6700  0.2743  2.6943
  415MOL0     H57249   3.013   5.843  13.185 -1.1134  1.7429 -2.1275
  415MOL0     H57250   2.555   5.853  12.086  0.2440  0.4115 -2.0673
  415MOL0     H57251   2.648   5.892  11.846 -1.1606  0.5555  1.2995
  415MOL0     H57252   3.137   5.842  11.682 -2.7705 -3.0066 -1.9170
  415MOL0     H57253   3.280   5.876  11.505  1.8229  1.0711  1.6982
  415MOL0     H57254   4.737   6.433  11.083 -0.8059 -0.4302  0.0906
  415MOL0     H57255   4.879   6.577  10.940 -3.3609 -0.6647  0.3608
  415MOL0     H57256   5.156   6.889  10.868  0.2720  2.3279 -2.1015
  415MOL0     H57257   5.283   7.004  10.731 -2.1084 -1.7646 -1.0763
  415MOL0     H57258   5.733   6.962  10.805 -5.3928 -2.0753  1.9233
  415MOL0     H57259   5.711   6.908  10.639  3.0671  0.8515 -0.1740
  415MOL0     H57260   5.735   7.207  10.707  0.6643 -0.7493  1.6857
  415MOL0     H57261   5.713   7.131  10.545  3.1871  1.4835 -1.9427
  415MOL0     H57262   5.959   7.093  10.713  1.0970 -1.9622 -0.1293
  415MOL0     H57263   5.920   6.995  10.576  1.4550 -0.3158  1.4094
  415MOL0     H57264   5.891   7.225  10.447 -0.1402 -1.3422 -0.0518
  415MOL0     H57265   6.046   7.161  10.508 -0.8289 -3.4255 -1.0542
  415MOL0     H57266   6.009   7.523  10.725  2.2365 -2.1070  2.7357
  415MOL0     H57267   5.627   6.780  10.852 -0.2252  0.4068  0.6203
  415MOL0     H57268   5.517   6.669  11.143  0.5550 -0.2536  1.0353
  415MOL0     H57269   5.503   6.540  11.009 -0.3894 -0.0496 -0.5605
  415MOL0     H57270   5.632   6.652  11.010 -1.1919  0.1216  0.1633
  416MOL0     O57271   3.078   8.281  10.722  0.0144 -0.7282 -0.2089
  416MOL0     C57272   2.992   8.219  10.663 -0.1153 -0.1163  0.1840
  416MOL0     O57273   2.858   8.244  10.668  0.5285  0.2168 -0.5575
  416MOL0     C57274   2.800   8.360  10.686  0.6659 -0.8489 -0.5889
  416MOL0     C57275   2.667   8.374  10.729 -0.0240  0.3056 -0.2659
  416MOL0     C57276   2.609   8.489  10.762  0.7287 -0.1380 -0.3741
  416MOL0     C57277   2.661   8.605  10.737 -0.2846 -0.4554 -0.2718
  416MOL0     O57278   2.592   8.727  10.776  0.5876  0.5363  0.7042
  416MOL0     C57279   2.664   8.847  10.799 -0.2896 -0.5716  0.0777
  416MOL0     C57280   2.747   8.826  10.932  0.0120 -0.4051  0.7308
  416MOL0     C57281   2.650   8.819  11.053  0.4043 -0.5011 -0.3065
  416MOL0     C57282   2.710   8.744  11.166 -0.3084  0.9547  0.0528
  416MOL0     C57283   2.649   8.760  11.296  0.9634 -1.0358  0.3941
  416MOL0     C57284   2.494   8.768  11.302  0.5651  0.0130  0.2690
  416MOL0     C57285   2.436   8.829  11.425  0.0883  0.0317  0.2990
  416MOL0     C57286   2.446   8.982  11.459 -0.3833 -0.2057 -0.3987
  416MOL0     N57287   2.438   9.056  11.334 -0.8910  0.8969 -0.0089
  416MOL0     C57288   2.543   9.121  11.270  0.7482 -0.9567  0.4757
  416MOL0     C57289   2.482   9.181  11.167  0.4316 -0.4190  0.5451
  416MOL0     C57290   2.538   9.276  11.063  0.3259  0.0197  0.1597
  416MOL0     C57291   2.556   9.230  10.917  0.2341  0.3315  0.3057
  416MOL0     C57292   2.591   9.351  10.836  0.1076 -0.3025 -0.2081
  416MOL0     C57293   2.640   9.302  10.700 -0.8746 -0.5219  0.6577
  416MOL0     O57294   2.761   9.233  10.708 -0.5247  0.2125 -1.2767
  416MOL0     C57295   2.846   9.223  10.604  0.2170 -0.1685 -0.5591
  416MOL0     C57296   2.981   9.198  10.621 -0.2395 -0.2077  0.1459
  416MOL0     C57297   3.075   9.219  10.517  0.2655  0.6126 -0.6919
  416MOL0     C57298   3.219   9.195  10.552  0.0725  0.2118 -0.2478
  416MOL0     C57299   3.031   9.250  10.383 -0.0812 -0.6890 -0.0480
  416MOL0     C57300   3.117   9.279  10.261  1.0340  0.3020 -1.0004
  416MOL0     O57301   3.223   9.363  10.265  0.1601  0.2053 -0.1893
  416MOL0     C57302   3.266   9.401  10.140 -1.5900  0.1713 -0.3427
  416MOL0     C57303   3.397   9.385  10.093  0.2022  1.1267 -0.1124
  416MOL0     C57304   3.439   9.412   9.962  0.3918 -0.7918 -0.1303
  416MOL0     C57305   3.349   9.452   9.870  0.5624  0.3820  0.5477
  416MOL0     O57306   3.385   9.461   9.733 -0.1235 -0.5575 -0.2741
  416MOL0     C57307   3.293   9.512   9.637  0.2371 -0.9531  0.0963
  416MOL0     C57308   3.287   9.671   9.647  1.0064 -0.2480  0.2215
  416MOL0     C57309   3.419   9.729   9.604 -0.5496  0.6652  0.5883
  416MOL0     C57310   3.429   9.881   9.587 -0.3454 -0.7639 -0.5985
  416MOL0     C57311   3.413   9.962   9.720 -0.2305 -0.1832 -0.0538
  416MOL0     C57312   3.480   9.896   9.848  0.1068  0.4737 -1.2583
  416MOL0     C57313   3.630   9.909   9.834 -1.7329 -0.5664  0.1833
  416MOL0     C57314   3.694   9.883   9.969 -0.2682 -0.1692 -0.3375
  416MOL0    Cl57315   3.657   9.723  10.036  0.5866 -0.1628 -0.2224
  416MOL0     C57316   3.218   9.485   9.925  0.7308 -0.4357  0.2754
  416MOL0     C57317   3.176   9.454  10.055 -0.8360 -0.6775 -0.2877
  416MOL0     O57318   3.083   9.214  10.162 -0.0809 -0.0450  0.3138
  416MOL0     C57319   2.896   9.264  10.368  0.4227  0.7586 -0.0007
  416MOL0     C57320   2.807   9.249  10.472 -0.3195 -0.0337 -0.3067
  416MOL0     N57321   2.348   9.145  11.159  0.1537  0.0057  0.1598
  416MOL0     N57322   2.320   9.066  11.265  0.7506  0.1289 -0.8256
  416MOL0     C57323   2.795   8.604  10.689  1.0114 -0.4475  0.0436
  416MOL0     C57324   2.860   8.491  10.654 -0.2456  0.7451  0.1223
  416MOL0     C57325   3.030   8.087  10.604  0.0684 -1.4136  0.7517
  416MOL0     C57326   3.133   8.107  10.513  0.4122 -0.0583  0.7975
  416MOL0     C57327   3.191   8.003  10.457 -0.7553  0.0733 -0.6541
  416MOL0     C57328   3.149   7.871  10.485  0.4222  0.0082  0.0466
  416MOL0     O57329   3.228   7.768  10.426  0.5901 -0.3341 -0.7562
  416MOL0     C57330   3.202   7.770  10.287  0.9118 -0.0649 -0.0247
  416MOL0     C57331   3.280   7.652  10.212  0.1645 -0.2168  0.7816
  416MOL0     C57332   3.433   7.681  10.206  0.2772 -0.3088 -0.6782
  416MOL0     C57333   3.515   7.563  10.156 -0.9813 -0.2828 -0.8530
  416MOL0     C57334   3.661   7.599  10.129 -0.2753 -0.2412  0.6689
  416MOL0     C57335   3.772   7.636  10.104  1.0916  0.4690  0.9976
  416MOL0     C57336   3.048   7.850  10.582  0.1643 -0.3266  0.6838
  416MOL0     C57337   2.982   7.963  10.634 -0.7744  0.4143  0.1442
  416MOL0     C57338   2.879   7.939  10.747  1.0081  0.0412  0.5408
  416MOL0     H57339   2.622   8.277  10.751  1.1212  0.4668  3.4576
  416MOL0     H57340   2.527   8.504  10.831  1.4194 -1.0861  0.6929
  416MOL0     H57341   2.586   8.924  10.806 -1.1274 -1.5946  3.7756
  416MOL0     H57342   2.732   8.879  10.718  0.0613  0.6197  0.8085
  416MOL0     H57343   2.812   8.740  10.912  1.9416  1.3386 -1.0917
  416MOL0     H57344   2.808   8.917  10.938 -1.9170  1.6346 -4.5189
  416MOL0     H57345   2.630   8.922  11.086  1.0007 -1.0682  2.0195
  416MOL0     H57346   2.550   8.785  11.024  0.2392  0.7201 -1.2358
  416MOL0     H57347   2.705   8.635  11.150  1.1843  0.5731  1.9074
  416MOL0     H57348   2.812   8.779  11.181  1.1806 -3.6023  2.5073
  416MOL0     H57349   2.684   8.859  11.327  0.9083 -0.5116 -1.1477
  416MOL0     H57350   2.685   8.681  11.362  2.1916  0.3983  1.5264
  416MOL0     H57351   2.453   8.827  11.219 -0.3845  0.4069  0.9939
  416MOL0     H57352   2.452   8.667  11.299  0.1828  0.0493  2.5916
  416MOL0     H57353   2.451   8.763  11.511 -1.7086 -1.2298 -0.3082
  416MOL0     H57354   2.329   8.826  11.403  0.3906 -2.4555 -1.1312
  416MOL0     H57355   2.365   8.998  11.530 -0.0300  1.0829 -0.2684
  416MOL0     H57356   2.543   9.004  11.505 -1.2663  2.2380  0.4053
  416MOL0     H57357   2.642   9.131  11.313  0.0731 -0.6231  2.0058
  416MOL0     H57358   2.637   9.298  11.104  0.1168  2.7112 -0.6299
  416MOL0     H57359   2.474   9.364  11.062  0.9461  0.4752  0.0823
  416MOL0     H57360   2.634   9.153  10.917 -0.7316 -0.7394  2.4791
  416MOL0     H57361   2.461   9.189  10.880  0.9832 -1.5788  0.4017
  416MOL0     H57362   2.502   9.414  10.824  0.7385  0.5707 -0.3755
  416MOL0     H57363   2.664   9.413  10.888 -1.1093 -0.1076  1.3728
  416MOL0     H57364   2.572   9.227  10.658 -1.9935 -0.3463  2.1040
  416MOL0     H57365   2.648   9.392  10.638  0.8547 -1.1836 -0.1291
  416MOL0     H57366   3.018   9.161  10.716  1.8534 -2.4208 -1.3875
  416MOL0     H57367   3.275   9.289  10.551  0.2134  0.1314  0.0103
  416MOL0     H57368   3.256   9.124  10.477 -0.0721  2.6558 -2.8396
  416MOL0     H57369   3.224   9.145  10.649 -2.7210  3.1429  1.6264
  416MOL0     H57370   3.463   9.324  10.154 -0.3689  1.9143  1.3462
  416MOL0     H57371   3.540   9.385   9.935  0.9538 -2.2602  2.9689
  416MOL0     H57372   3.321   9.486   9.535 -0.0683 -0.7634 -0.0390
  416MOL0     H57373   3.190   9.479   9.655  0.0191 -0.9368 -1.0711
  416MOL0     H57374   3.212   9.696   9.571  0.2994 -1.2404  0.5675
  416MOL0     H57375   3.258   9.714   9.744  1.6820  3.4422 -1.0336
  416MOL0     H57376   3.446   9.683   9.509  2.5545  0.4526  1.4647
  416MOL0     H57377   3.500   9.694   9.669 -1.3980 -1.6472  0.4701
  416MOL0     H57378   3.358   9.919   9.513  1.0137  1.9150 -0.6334
  416MOL0     H57379   3.535   9.897   9.567 -0.2411 -1.4368 -0.6211
  416MOL0     H57380   3.457  10.061   9.706 -3.0901  0.9776 -1.8411
  416MOL0     H57381   3.305   9.973   9.736  0.3579  3.9348  2.6793
  416MOL0     H57382   3.456   9.793   9.873 -1.7913  1.7572  3.1371
  416MOL0     H57383   3.440   9.957   9.930 -2.8100 -2.1810 -0.5535
  416MOL0     H57384   3.660  10.006   9.793 -0.7490 -1.3409 -0.9939
  416MOL0     H57385   3.660   9.838   9.756 -0.3514  1.5640 -1.3220
  416MOL0     H57386   3.652   9.949  10.046  0.6283 -1.4114  1.2772
  416MOL0     H57387   3.800   9.904   9.954 -0.0199  0.4518  1.9166
  416MOL0     H57388   3.137   9.514   9.859 -0.4417  0.9276  2.2166
  416MOL0     H57389   3.070   9.457  10.079 -0.7025 -1.3126  0.4132
  416MOL0     H57390   2.859   9.296  10.271  4.2206  0.0929 -1.8306
  416MOL0     H57391   2.703   9.276  10.455 -0.6038  0.9060  2.4022
  416MOL0     H57392   2.838   8.702  10.669 -1.6291  1.4625  2.8552
  416MOL0     H57393   2.961   8.496  10.616  0.3872  2.6048  1.8558
  416MOL0     H57394   3.182   8.200  10.485 -2.0657  1.4006  1.0457
  416MOL0     H57395   3.273   8.032  10.393 -3.4024 -0.1025 -4.4180
  416MOL0     H57396   3.096   7.749  10.274  0.9000 -0.6252  0.9246
  416MOL0     H57397   3.218   7.868  10.241  0.4664 -0.4902 -1.1087
  416MOL0     H57398   3.249   7.662  10.108 -0.5115 -0.1311  0.9918
  416MOL0     H57399   3.254   7.559  10.263 -2.7334  1.0788  1.8669
  416MOL0     H57400   3.448   7.763  10.136  2.6459 -0.0516  0.0533
  416MOL0     H57401   3.452   7.704  10.311 -4.2640  1.6500 -0.0675
  416MOL0     H57402   3.470   7.523  10.065 -1.5111  0.2387 -0.8275
  416MOL0     H57403   3.507   7.489  10.236  1.3718 -0.5867 -0.8126
  416MOL0     H57404   3.877   7.644  10.084  1.8971 -4.1150  2.3693
  416MOL0     H57405   3.024   7.748  10.609  0.1792 -0.3511  0.6028
  416MOL0     H57406   2.779   7.961  10.708  1.6245 -0.6131 -1.5107
  416MOL0     H57407   2.876   7.838  10.787 -2.6176 -0.8611 -1.5499
  416MOL0     H57408   2.892   8.005  10.833 -0.6445 -0.8618  1.5392
  417MOL0     O57409   8.762   4.997   0.101 -0.1305 -0.2640  0.3620
  417MOL0     C57410   8.866   5.066   0.118  0.6354  0.7208  0.8632
  417MOL0     O57411   8.945   5.061   0.226 -0.7958  1.0993 -0.8700
  417MOL0     C57412   8.900   5.004   0.343 -0.5765 -0.9509  0.9390
  417MOL0     C57413   8.959   4.890   0.383  0.0073 -0.0995 -1.0223
  417MOL0     C57414   8.909   4.822   0.500 -0.1232 -0.0321 -0.2724
  417MOL0     C57415   8.791   4.858   0.568 -1.1899 -0.6574  0.2855
  417MOL0     O57416   8.744   4.797   0.680 -0.9467  0.4040  0.5500
  417MOL0     C57417   8.674   4.678   0.634 -0.3517 -0.4170  0.4491
  417MOL0     C57418   8.521   4.697   0.642  0.5482  0.2810  0.6245
  417MOL0     C57419   8.490   4.684   0.793 -0.1355  0.0262  0.1020
  417MOL0     C57420   8.340   4.693   0.829 -0.6697 -0.8493 -0.1231
  417MOL0     C57421   8.311   4.716   0.982  0.5831  0.7477  0.1381
  417MOL0     C57422   8.240   4.589   1.045 -0.6986  0.2487  0.3044
  417MOL0     C57423   8.208   4.616   1.195 -0.5471  0.4661 -0.3973
  417MOL0     C57424   8.327   4.550   1.273  0.5221  0.0680  0.3403
  417MOL0     N57425   8.296   4.588   1.414  0.2509 -0.4431  0.1714
  417MOL0     C57426   8.346   4.694   1.492  0.3071 -0.3528  0.5492
  417MOL0     C57427   8.287   4.683   1.611  0.2596 -0.0387 -0.3104
  417MOL0     C57428   8.297   4.754   1.741  0.9998  0.0265  0.2489
  417MOL0     C57429   8.329   4.661   1.860  0.1624  0.0336 -0.4869
  417MOL0     C57430   8.461   4.589   1.850 -0.9597 -0.2879 -0.0037
  417MOL0     C57431   8.471   4.463   1.772  0.3420  0.0142 -0.2023
  417MOL0     O57432   8.604   4.416   1.798  0.2055 -0.5595 -0.0702
  417MOL0     C57433   8.715   4.482   1.753 -0.0491  1.2457  0.6692
  417MOL0     C57434   8.718   4.581   1.648  0.3531 -0.3387 -0.6759
  417MOL0     C57435   8.835   4.644   1.609  0.0345 -0.6066  0.1011
  417MOL0     C57436   8.824   4.760   1.507  0.0537  0.2342 -0.4294
  417MOL0     C57437   8.951   4.613   1.681 -0.7300  0.4478  0.5081
  417MOL0     C57438   9.078   4.678   1.653  0.0043  0.1332 -0.3033
  417MOL0     O57439   9.172   4.661   1.748  0.1308  0.2868 -0.1163
  417MOL0     C57440   9.274   4.753   1.769 -0.1656  0.5250 -0.8297
  417MOL0     C57441   9.320   4.781   1.899  0.0541  0.6970 -0.9528
  417MOL0     C57442   9.430   4.865   1.923  0.3424 -0.0302 -0.4173
  417MOL0     C57443   9.493   4.931   1.821  0.0208 -0.2425 -0.7627
  417MOL0     O57444   9.592   5.016   1.866  0.6863  0.7623  0.3361
  417MOL0     C57445   9.663   5.082   1.767 -0.1211 -0.5666  1.3381
  417MOL0     C57446   9.739   5.192   1.828 -0.2401  0.5144  0.4895
  417MOL0     C57447   9.892   5.169   1.830 -0.2062  0.0909 -1.1329
  417MOL0     C57448   9.918   5.068   1.934  1.4013 -0.6596  0.5143
  417MOL0     C57449  10.061   5.067   1.969  0.4608 -0.8035 -0.2412
  417MOL0     C57450  10.085   4.962   2.075  0.5022  0.5462  0.8267
  417MOL0     C57451  10.235   4.932   2.103  0.7430  0.5691  0.5000
  417MOL0     C57452  10.317   4.885   1.974  0.2508  0.0198  0.6252
  417MOL0    Cl57453  10.220   4.750   1.886 -0.2472 -0.1157 -0.0046
  417MOL0     C57454   9.459   4.893   1.690 -0.1953 -1.1202  0.0789
  417MOL0     C57455   9.356   4.807   1.666  0.4827  0.4207  0.2876
  417MOL0     O57456   9.099   4.737   1.549 -0.1511  0.3014 -0.4027
  417MOL0     C57457   8.953   4.508   1.768  0.0214 -0.5366 -0.9200
  417MOL0     C57458   8.834   4.434   1.804  0.7689 -0.7662 -0.0455
  417MOL0     N57459   8.210   4.572   1.608 -0.6961  0.0224 -1.0004
  417MOL0     N57460   8.207   4.511   1.495  0.0529 -0.0269 -1.1582
  417MOL0     C57461   8.737   4.984   0.523 -0.2541  0.2141  0.7228
  417MOL0     C57462   8.787   5.055   0.412  0.0274 -0.1011 -0.2544
  417MOL0     C57463   8.895   5.146  -0.003  0.9932  0.6961 -0.0617
  417MOL0     C57464   9.039   5.158  -0.038 -0.0390 -1.1293 -1.0136
  417MOL0     C57465   9.078   5.246  -0.138 -0.6929  0.2409 -0.2049
  417MOL0     C57466   8.987   5.311  -0.218  0.3243  0.0572 -0.4440
  417MOL0     O57467   9.007   5.387  -0.325  0.1027  0.7115  0.5240
  417MOL0     C57468   9.135   5.442  -0.329 -0.2155  0.0751  0.4053
  417MOL0     C57469   9.149   5.531  -0.447  0.4409 -0.9741 -0.1432
  417MOL0     C57470   9.279   5.602  -0.467 -0.0409 -0.5958  0.0428
  417MOL0     C57471   9.272   5.676  -0.603 -0.3191  0.3472 -0.0437
  417MOL0     C57472   9.408   5.720  -0.639 -0.3976 -0.1046  0.1615
  417MOL0     C57473   9.526   5.755  -0.663 -1.1466  0.1724 -0.5175
  417MOL0     C57474   8.852   5.292  -0.193  0.3293 -0.0210 -0.5405
  417MOL0     C57475   8.802   5.205  -0.097  0.0914 -1.0442 -0.1054
  417MOL0     C57476   8.655   5.206  -0.068  0.1339  0.2058  0.3526
  417MOL0     H57477   9.043   4.841   0.335  0.0006  0.9918 -2.1909
  417MOL0     H57478   8.950   4.732   0.545  3.1707  0.6236 -1.6982
  417MOL0     H57479   8.711   4.598   0.697  3.5500  0.8566  0.0138
  417MOL0     H57480   8.691   4.650   0.529 -0.9585 -0.3720  0.3301
  417MOL0     H57481   8.476   4.788   0.602 -1.2583  0.8521  3.6520
  417MOL0     H57482   8.475   4.608   0.598  2.0166  0.1732 -0.7838
  417MOL0     H57483   8.534   4.588   0.823  1.0520  1.1990  2.3067
  417MOL0     H57484   8.547   4.755   0.853  0.8306 -2.2681  2.0963
  417MOL0     H57485   8.307   4.784   0.777  0.3266  0.9403  2.2094
  417MOL0     H57486   8.283   4.609   0.788 -0.2494 -1.5946  0.7873
  417MOL0     H57487   8.238   4.798   0.976  2.2013  2.2951  0.7818
  417MOL0     H57488   8.403   4.761   1.020  0.5715  1.5195 -0.6942
  417MOL0     H57489   8.155   4.548   0.990  0.4561 -1.2777 -0.4284
  417MOL0     H57490   8.315   4.509   1.039  0.7418  1.5080  0.8668
  417MOL0     H57491   8.121   4.560   1.231 -0.1015 -1.2196 -1.7877
  417MOL0     H57492   8.202   4.723   1.216  2.7262  0.5568  0.6374
  417MOL0     H57493   8.328   4.443   1.252  1.7780  0.4466 -1.7932
  417MOL0     H57494   8.424   4.582   1.235  1.6257 -3.7592 -0.4756
  417MOL0     H57495   8.406   4.777   1.455 -2.2425  0.9927 -0.8636
  417MOL0     H57496   8.200   4.796   1.767 -0.4493 -1.9229 -1.6173
  417MOL0     H57497   8.371   4.834   1.733  2.8839 -1.6280  0.0960
  417MOL0     H57498   8.327   4.726   1.948  0.9589  0.5245 -0.8244
  417MOL0     H57499   8.250   4.586   1.858 -0.9041  1.1351 -0.6868
  417MOL0     H57500   8.540   4.656   1.815 -0.7708 -0.4417  0.1295
  417MOL0     H57501   8.495   4.573   1.953  1.8895  2.3541 -0.3706
  417MOL0     H57502   8.392   4.396   1.808 -0.4417  0.7810 -0.4600
  417MOL0     H57503   8.452   4.477   1.665 -0.7053  0.9541  0.0817
  417MOL0     H57504   8.622   4.602   1.602  0.2945  0.1362 -0.3443
  417MOL0     H57505   8.861   4.855   1.547  2.6399  1.7124 -5.5190
  417MOL0     H57506   8.719   4.769   1.478 -1.1181 -3.0230  2.1180
  417MOL0     H57507   8.874   4.736   1.413 -0.2784 -1.0718 -0.2850
  417MOL0     H57508   9.285   4.729   1.989  2.0428  2.7000  1.1045
  417MOL0     H57509   9.437   4.895   2.027 -0.0526 -2.6321  0.4321
  417MOL0     H57510   9.726   5.016   1.706 -1.6017 -0.7100 -0.1055
  417MOL0     H57511   9.585   5.123   1.703 -1.6307 -3.8541  0.8630
  417MOL0     H57512   9.721   5.280   1.765 -3.3793  1.1994  2.1508
  417MOL0     H57513   9.720   5.227   1.930  6.7428  0.6721  2.2742
  417MOL0     H57514   9.940   5.259   1.870  0.4365 -0.8340  0.2739
  417MOL0     H57515   9.932   5.144   1.731  0.2608  0.2994 -0.9989
  417MOL0     H57516   9.886   4.973   1.891 -0.2171  0.1968 -0.2301
  417MOL0     H57517   9.864   5.086   2.028 -0.3798  2.5327 -0.9408
  417MOL0     H57518  10.120   5.067   1.877  1.9522  2.0063  0.6208
  417MOL0     H57519  10.089   5.157   2.024  0.1164  0.5708 -2.1942
  417MOL0     H57520  10.054   4.863   2.040  2.5732  1.3288 -4.0658
  417MOL0     H57521  10.051   4.980   2.177  3.9766  1.2090  1.9878
  417MOL0     H57522  10.243   4.861   2.185 -3.7531 -4.2725 -2.6402
  417MOL0     H57523  10.277   5.030   2.130 -1.2961  0.5377  4.3968
  417MOL0     H57524  10.411   4.831   1.992  0.4707  0.7473  1.7530
  417MOL0     H57525  10.343   4.960   1.899 -0.3762 -0.4508 -0.0801
  417MOL0     H57526   9.509   4.951   1.613 -0.9346 -0.7190 -0.1095
  417MOL0     H57527   9.323   4.792   1.563  2.4669  2.5578 -0.7664
  417MOL0     H57528   9.042   4.469   1.816  1.1947  2.7062 -0.1491
  417MOL0     H57529   8.828   4.365   1.888 -0.1035  0.8777  1.3184
  417MOL0     H57530   8.653   5.029   0.575 -0.0873  0.9586  0.3631
  417MOL0     H57531   8.746   5.152   0.388  0.3061  0.3756  1.1148
  417MOL0     H57532   9.111   5.109   0.026 -1.3964 -0.4476  1.1474
  417MOL0     H57533   9.181   5.270  -0.160  0.0542  0.4532  3.0746
  417MOL0     H57534   9.162   5.500  -0.241 -0.9308  4.6027 -2.0308
  417MOL0     H57535   9.205   5.361  -0.351 -2.6569 -1.9499 -0.4898
  417MOL0     H57536   9.064   5.599  -0.445  2.8622  2.3767 -1.9505
  417MOL0     H57537   9.139   5.456  -0.526  2.7951 -2.0840  0.5291
  417MOL0     H57538   9.292   5.677  -0.390 -1.7276  0.9969 -1.1348
  417MOL0     H57539   9.351   5.520  -0.478 -0.6675 -0.9119 -2.4068
  417MOL0     H57540   9.220   5.771  -0.584  0.6739  1.1177 -0.9891
  417MOL0     H57541   9.236   5.612  -0.684 -0.9444 -1.7553  1.8058
  417MOL0     H57542   9.628   5.764  -0.694 -0.5575 -0.5852  1.0731
  417MOL0     H57543   8.771   5.350  -0.237 -0.4919 -2.3956 -2.3473
  417MOL0     H57544   8.615   5.106  -0.087 -1.1211  0.7928 -0.2400
  417MOL0     H57545   8.639   5.227   0.038  0.8379 -2.6029  1.0851
  417MOL0     H57546   8.599   5.276  -0.131 -0.9588 -1.8804 -1.1220
  418MOL0     O57547   6.069   0.575   3.667 -0.5908  0.2714  0.0653
  418MOL0     C57548   6.019   0.537   3.560  0.2462 -0.4648 -0.3762
  418MOL0     O57549   5.931   0.429   3.550 -1.2046 -0.1854 -0.3948
  418MOL0     C57550   5.906   0.363   3.673  0.4236  0.5318  0.1115
  418MOL0     C57551   5.992   0.252   3.700  0.3972  0.4449  1.1171
  418MOL0     C57552   5.982   0.186   3.822  0.2264  0.1358 -0.3820
  418MOL0     C57553   5.871   0.216   3.900 -1.4045 -0.8771  0.0165
  418MOL0     O57554   5.847   0.134   4.010  0.9255 -0.2464  0.5038
  418MOL0     C57555   5.821   0.202   4.133 -0.4709  0.0219 -1.5050
  418MOL0     C57556   5.864   0.120   4.252  0.6753 -0.1670 -0.1171
  418MOL0     C57557   5.855   0.205   4.378 -0.4009  0.2599  0.1191
  418MOL0     C57558   5.987   0.209   4.463 -0.4098 -0.3047  0.8280
  418MOL0     C57559   6.083   0.312   4.408 -0.0802  0.6114  0.0797
  418MOL0     C57560   6.204   0.305   4.496  0.3984  0.5396  0.4291
  418MOL0     C57561   6.308   0.418   4.464  0.4204  0.5444 -0.2526
  418MOL0     C57562   6.425   0.395   4.565  0.6911  0.0071 -0.3291
  418MOL0     N57563   6.509   0.289   4.514  0.4887  0.1801  0.0816
  418MOL0     C57564   6.515   0.164   4.562  0.4644  0.5944  0.5514
  418MOL0     C57565   6.607   0.098   4.478 -0.6102 -1.2261 -0.5936
  418MOL0     C57566   6.645  -0.045   4.496  0.5618  0.5250  0.1528
  418MOL0     C57567   6.749  -0.061   4.600  0.1581 -0.1243  0.1116
  418MOL0     C57568   6.857  -0.169   4.566 -0.0545 -0.1697 -0.1411
  418MOL0     C57569   6.990  -0.152   4.649  0.2786  0.6263  0.4806
  418MOL0     O57570   6.966  -0.182   4.781  0.1521  0.0129 -0.0217
  418MOL0     C57571   7.066  -0.204   4.871 -0.2219 -0.3477  0.2435
  418MOL0     C57572   7.060  -0.134   4.980 -0.1271 -0.7413  0.5952
  418MOL0     C57573   7.151  -0.155   5.078 -0.7124  0.3756 -0.7663
  418MOL0     C57574   7.118  -0.101   5.215 -0.8677  0.2912 -1.1866
  418MOL0     C57575   7.273  -0.238   5.053 -0.5657 -1.4401  0.0616
  418MOL0     C57576   7.391  -0.255   5.151 -0.0457  0.5480 -0.1095
  418MOL0     O57577   7.465  -0.368   5.132 -0.1218 -0.0445 -0.5722
  418MOL0     C57578   7.518  -0.432   5.237  0.7609 -0.0837 -0.5894
  418MOL0     C57579   7.534  -0.569   5.219  0.7990 -0.3675 -0.8801
  418MOL0     C57580   7.590  -0.652   5.325 -0.9125  0.7443 -0.1410
  418MOL0     C57581   7.619  -0.594   5.442  0.4795  0.8170 -0.7218
  418MOL0     O57582   7.651  -0.686   5.541 -0.1078 -0.1647  0.0777
  418MOL0     C57583   7.736  -0.652   5.645  0.7365 -0.2192  0.2524
  418MOL0     C57584   7.645  -0.657   5.769  0.6384 -0.2056 -0.4299
  418MOL0     C57585   7.743  -0.638   5.884 -0.2312  0.1543 -0.6167
  418MOL0     C57586   7.688  -0.630   6.025 -0.0040  0.2550  0.3355
  418MOL0     C57587   7.597  -0.498   6.032  0.2118 -0.8977  0.9033
  418MOL0     C57588   7.566  -0.483   6.182  0.0428  0.8063 -0.0452
  418MOL0     C57589   7.611  -0.358   6.250 -0.2912  0.2977  0.3829
  418MOL0     C57590   7.589  -0.218   6.197  0.5661  0.4215  0.3788
  418MOL0    Cl57591   7.422  -0.198   6.141  0.0967 -0.1407 -0.3799
  418MOL0     C57592   7.614  -0.450   5.459  0.6560  1.1243 -1.2063
  418MOL0     C57593   7.556  -0.376   5.356  0.5586  0.2085  0.1907
  418MOL0     O57594   7.419  -0.155   5.226 -0.2805  0.2477 -0.1395
  418MOL0     C57595   7.283  -0.296   4.931  1.6105 -0.8697  0.7401
  418MOL0     C57596   7.181  -0.279   4.829 -0.1509 -0.5742 -0.2422
  418MOL0     N57597   6.651   0.182   4.383  0.9822  0.0344  0.5963
  418MOL0     N57598   6.588   0.298   4.404  0.4265 -0.3581  0.3403
  418MOL0     C57599   5.793   0.317   3.871  0.8135 -0.3177  0.3874
  418MOL0     C57600   5.794   0.398   3.753  0.3126  0.7878  0.2407
  418MOL0     C57601   6.072   0.595   3.447 -1.1615 -0.4828  1.0017
  418MOL0     C57602   6.183   0.695   3.451 -0.7728  0.2035 -0.5697
  418MOL0     C57603   6.252   0.744   3.339 -0.4870 -0.0774 -0.6123
  418MOL0     C57604   6.214   0.716   3.214 -0.9131 -0.6791 -0.4170
  418MOL0     O57605   6.295   0.769   3.109  0.5423 -0.1056  0.4458
  418MOL0     C57606   6.299   0.692   2.992  0.5992 -0.0514 -0.2831
  418MOL0     C57607   6.432   0.723   2.925  0.3573 -0.5180 -0.2323
  418MOL0     C57608   6.447   0.633   2.807  0.2140 -0.6976  0.0009
  418MOL0     C57609   6.553   0.694   2.702 -0.0287 -0.4837 -0.5761
  418MOL0     C57610   6.550   0.618   2.572  0.2502  0.5858 -0.9224
  418MOL0     C57611   6.535   0.546   2.474  0.0353  0.6186  0.0567
  418MOL0     C57612   6.097   0.628   3.196  0.6941 -0.6212  0.7239
  418MOL0     C57613   6.035   0.580   3.307 -0.7164  0.6081 -0.5867
  418MOL0     C57614   5.924   0.491   3.266 -0.4524  0.3973 -0.1083
  418MOL0     H57615   6.072   0.224   3.631  0.8189  0.5224  1.5660
  418MOL0     H57616   6.029   0.091   3.845 -1.4666 -0.5325  0.4434
  418MOL0     H57617   5.714   0.222   4.141 -0.5741 -0.5783 -1.3361
  418MOL0     H57618   5.885   0.291   4.129 -1.0045  0.3790 -2.6863
  418MOL0     H57619   5.795   0.036   4.264  0.0801  0.1309 -1.3458
  418MOL0     H57620   5.963   0.075   4.241 -0.8027 -4.2620  1.2878
  418MOL0     H57621   5.821   0.307   4.357 -1.0191  0.0032 -0.1418
  418MOL0     H57622   5.779   0.161   4.443  0.6912 -1.5569  0.2275
  418MOL0     H57623   5.965   0.231   4.568 -3.4320  2.0530 -0.1622
  418MOL0     H57624   6.025   0.107   4.451  1.7317  0.3226  1.8882
  418MOL0     H57625   6.030   0.407   4.416 -0.9077  0.0848  1.0653
  418MOL0     H57626   6.091   0.310   4.299  0.1467 -1.1624  0.0952
  418MOL0     H57627   6.165   0.306   4.598 -0.1198  2.8554  0.2782
  418MOL0     H57628   6.258   0.211   4.485  0.4777  0.7697 -1.4201
  418MOL0     H57629   6.250   0.510   4.480 -2.3835 -0.6952 -2.4133
  418MOL0     H57630   6.348   0.424   4.362  3.1995  0.0364  0.7259
  418MOL0     H57631   6.478   0.490   4.554 -1.6566  1.6702  1.6891
  418MOL0     H57632   6.380   0.372   4.662  0.4426 -0.5381 -0.5658
  418MOL0     H57633   6.479   0.117   4.653  0.4563  2.2997  1.4747
  418MOL0     H57634   6.665  -0.089   4.398  1.1147 -0.9825  0.9151
  418MOL0     H57635   6.562  -0.106   4.532  0.9891 -0.6005 -0.7042
  418MOL0     H57636   6.801   0.034   4.619 -2.5905  1.7091 -0.8543
  418MOL0     H57637   6.702  -0.100   4.691 -0.3647  0.0126 -0.0929
  418MOL0     H57638   6.817  -0.268   4.588 -2.6654  1.0032  0.7127
  418MOL0     H57639   6.889  -0.164   4.461  4.1311 -0.3795  0.9213
  418MOL0     H57640   7.063  -0.216   4.599 -0.9332 -0.0969 -0.4021
  418MOL0     H57641   7.046  -0.058   4.642 -0.3904  1.0034  0.1127
  418MOL0     H57642   6.971  -0.074   4.997  0.5199  0.0014  1.4441
  418MOL0     H57643   7.170  -0.161   5.290  0.9638  0.5285 -2.2057
  418MOL0     H57644   7.009  -0.090   5.220 -0.8852 -0.0215 -0.9135
  418MOL0     H57645   7.168  -0.007   5.240 -2.2657  0.4080  1.5384
  418MOL0     H57646   7.489  -0.621   5.135  0.1703 -3.0184  0.9930
  418MOL0     H57647   7.609  -0.758   5.315  3.3952  1.5112 -2.0802
  418MOL0     H57648   7.810  -0.733   5.640  0.4450 -0.4441 -0.5145
  418MOL0     H57649   7.794  -0.559   5.647  1.4754 -0.5850 -1.8307
  418MOL0     H57650   7.570  -0.579   5.757 -1.1301 -2.0789 -2.5901
  418MOL0     H57651   7.597  -0.753   5.789  0.9329  0.0190  1.5328
  418MOL0     H57652   7.811  -0.555   5.862 -0.6973  0.8153  0.3511
  418MOL0     H57653   7.817  -0.718   5.877 -0.7430 -0.3200 -0.7376
  418MOL0     H57654   7.774  -0.621   6.092 -1.7389  2.2295  2.4760
  418MOL0     H57655   7.636  -0.724   6.043 -1.1260  0.5092 -1.2640
  418MOL0     H57656   7.653  -0.406   6.015  1.5195 -1.8163  0.0862
  418MOL0     H57657   7.512  -0.490   5.963 -0.7776  1.6079  2.2573
  418MOL0     H57658   7.613  -0.565   6.237  1.4841 -0.0247 -2.3805
  418MOL0     H57659   7.458  -0.497   6.191  0.3962 -0.4429  4.8843
  418MOL0     H57660   7.718  -0.354   6.271 -0.1699  1.7382 -0.3558
  418MOL0     H57661   7.566  -0.366   6.349 -3.5325 -4.6497 -1.0995
  418MOL0     H57662   7.660  -0.188   6.120 -1.4921 -0.5774 -2.0678
  418MOL0     H57663   7.601  -0.142   6.275  3.5582  0.2158  0.2283
  418MOL0     H57664   7.654  -0.413   5.553 -1.3993  0.2718  0.0697
  418MOL0     H57665   7.571  -0.269   5.367  4.1363 -0.2042  0.2797
  418MOL0     H57666   7.371  -0.351   4.901  3.3413  1.7726  0.7131
  418MOL0     H57667   7.194  -0.318   4.728 -0.9553 -1.8074  0.1057
  418MOL0     H57668   5.709   0.340   3.936 -2.1987  0.3816 -3.3502
  418MOL0     H57669   5.718   0.469   3.723 -0.5721  0.4742  1.6389
  418MOL0     H57670   6.224   0.725   3.548  3.1382 -1.4367 -1.5031
  418MOL0     H57671   6.337   0.809   3.358  0.8559 -1.2378 -2.3665
  418MOL0     H57672   6.283   0.584   3.000 -0.4552  0.1454  0.3709
  418MOL0     H57673   6.212   0.733   2.940  1.0503  1.1754 -0.1075
  418MOL0     H57674   6.512   0.712   2.998  1.2627  2.4003 -0.6420
  418MOL0     H57675   6.448   0.828   2.898  0.5456 -0.9016 -1.7268
  418MOL0     H57676   6.486   0.536   2.840  0.1517 -0.3703  1.0797
  418MOL0     H57677   6.350   0.621   2.758  1.0458 -0.8569 -1.6859
  418MOL0     H57678   6.656   0.698   2.739 -0.8187  2.3315  1.7059
  418MOL0     H57679   6.524   0.798   2.684 -0.4126 -0.4546  0.1655
  418MOL0     H57680   6.504   0.483   2.393  3.0886 -0.5563 -0.3134
  418MOL0     H57681   6.072   0.598   3.094  1.4651  2.5446 -0.5038
  418MOL0     H57682   5.838   0.500   3.334  0.1469  3.4730  0.4099
  418MOL0     H57683   5.883   0.533   3.174  3.2573  2.6103 -0.9528
  418MOL0     H57684   5.969   0.392   3.258 -0.2593  0.6683 -5.3564
  419MOL0     O57685   1.146   7.999   8.873  0.2113 -0.1347  0.5415
  419MOL0     C57686   1.030   8.005   8.909 -0.6137  0.2348  0.8957
  419MOL0     O57687   0.985   8.030   9.036 -0.1637  0.0614 -0.8292
  419MOL0     C57688   1.069   8.105   9.117  0.1587 -0.2901  0.2333
  419MOL0     C57689   1.120   8.224   9.066  0.4288 -0.0728  0.4227
  419MOL0     C57690   1.206   8.295   9.148 -0.1498  0.7997  0.0061
  419MOL0     C57691   1.239   8.267   9.277  0.6583  0.0412  0.2936
  419MOL0     O57692   1.329   8.339   9.353 -0.1223 -0.2349 -0.0174
  419MOL0     C57693   1.428   8.269   9.430 -0.4341 -0.0203 -0.6831
  419MOL0     C57694   1.564   8.268   9.357  0.2327 -0.1684 -0.6948
  419MOL0     C57695   1.637   8.406   9.351  0.5105 -0.1707  0.5167
  419MOL0     C57696   1.724   8.397   9.233 -1.2175  0.1213 -0.3009
  419MOL0     C57697   1.643   8.422   9.107  0.0379 -1.1029 -0.3276
  419MOL0     C57698   1.736   8.417   8.985  0.0285 -0.0178 -0.6924
  419MOL0     C57699   1.657   8.433   8.857  0.5908 -0.0152  0.5520
  419MOL0     C57700   1.767   8.441   8.743  0.6090 -0.1900 -0.2282
  419MOL0     N57701   1.717   8.539   8.644  0.8439  0.1170 -0.0811
  419MOL0     C57702   1.695   8.508   8.517 -0.0628 -0.2341 -0.0067
  419MOL0     C57703   1.667   8.625   8.457 -0.6198  0.7320  0.5412
  419MOL0     C57704   1.635   8.643   8.309 -0.3134  0.3814  0.3872
  419MOL0     C57705   1.486   8.603   8.310 -0.4820 -0.3916  0.1510
  419MOL0     C57706   1.423   8.589   8.175  0.3240  0.1791  0.6474
  419MOL0     C57707   1.421   8.734   8.107  0.1306  0.9101  0.2503
  419MOL0     O57708   1.336   8.840   8.157  0.3852  0.0947 -0.3298
  419MOL0     C57709   1.395   8.963   8.188  0.4350  1.1854 -0.8820
  419MOL0     C57710   1.402   9.070   8.102  0.4770 -0.6673 -0.0582
  419MOL0     C57711   1.473   9.185   8.139  0.3692 -0.2814 -0.6291
  419MOL0     C57712   1.484   9.291   8.034  1.3670 -0.6714  0.3429
  419MOL0     C57713   1.530   9.191   8.269  0.0352  0.4577 -0.1572
  419MOL0     C57714   1.609   9.300   8.314 -0.8626  0.5900 -0.3790
  419MOL0     O57715   1.616   9.329   8.447 -0.4449  0.4174  0.3352
  419MOL0     C57716   1.699   9.426   8.478  1.1257 -0.3869 -0.6147
  419MOL0     C57717   1.664   9.558   8.459 -0.0153 -0.2898  0.8082
  419MOL0     C57718   1.749   9.657   8.491  0.2242 -0.4873 -0.2310
  419MOL0     C57719   1.879   9.632   8.557  0.5333 -1.0444  0.5823
  419MOL0     O57720   1.963   9.736   8.582  0.4613  1.0240  0.3325
  419MOL0     C57721   2.065   9.729   8.682  0.3118  0.7432  1.1309
  419MOL0     C57722   2.156   9.857   8.694  0.6586 -1.0405  0.6764
  419MOL0     C57723   2.266   9.837   8.589 -0.5750 -0.5869 -0.0160
  419MOL0     C57724   2.231   9.894   8.455  0.1485 -1.3267 -0.1507
  419MOL0     C57725   2.252  10.037   8.425 -0.0342 -0.3264 -1.1341
  419MOL0     C57726   2.186  10.102   8.308 -0.2653 -0.0521 -0.3695
  419MOL0     C57727   2.282  10.085   8.187 -0.2528 -0.0418  0.2415
  419MOL0     C57728   2.388  10.186   8.196 -0.9149 -0.2011 -0.1564
  419MOL0    Cl57729   2.323  10.343   8.139 -0.7234  0.0624  0.3313
  419MOL0     C57730   1.911   9.495   8.555 -0.8458 -0.7000 -1.1262
  419MOL0     C57731   1.824   9.394   8.517 -0.6930 -0.2573 -0.4194
  419MOL0     O57732   1.681   9.350   8.228 -0.0568 -0.4737 -0.1311
  419MOL0     C57733   1.511   9.080   8.358 -0.3306 -0.0966 -0.2858
  419MOL0     C57734   1.450   8.972   8.317  0.1325 -0.0791 -0.7545
  419MOL0     N57735   1.672   8.728   8.549  0.1810 -0.6527  0.2510
  419MOL0     N57736   1.679   8.672   8.663 -1.1944  0.1312 -0.4205
  419MOL0     C57737   1.182   8.148   9.332 -0.2263 -0.8435  0.4430
  419MOL0     C57738   1.098   8.066   9.251 -0.0330 -0.3180 -0.5013
  419MOL0     C57739   0.933   7.974   8.804  0.5515  0.1444 -0.8141
  419MOL0     C57740   0.878   7.843   8.806 -0.0620 -0.6591 -0.1078
  419MOL0     C57741   0.787   7.796   8.716  0.1780 -1.2534 -0.0590
  419MOL0     C57742   0.737   7.881   8.614  0.3853 -0.0257 -0.3849
  419MOL0     O57743   0.632   7.850   8.532 -0.8379 -0.6963 -0.1861
  419MOL0     C57744   0.571   7.723   8.522  0.6079 -0.1976  0.2031
  419MOL0     C57745   0.476   7.725   8.400  1.0445 -0.5913 -0.1482
  419MOL0     C57746   0.348   7.811   8.421  0.7719 -1.0550 -0.2562
  419MOL0     C57747   0.369   7.959   8.385  0.0401 -1.0686 -0.2305
  419MOL0     C57748   0.254   8.034   8.427  0.6604 -0.2162 -0.4211
  419MOL0     C57749   0.148   8.091   8.444 -1.4500  0.0761 -0.7702
  419MOL0     C57750   0.795   8.016   8.607  0.6569 -0.2442  0.3633
  419MOL0     C57751   0.893   8.051   8.694 -1.3164 -0.7752 -0.1500
  419MOL0     C57752   0.946   8.189   8.671  0.3763  0.2798 -0.2686
  419MOL0     H57753   1.094   8.253   8.965  2.2457 -0.0054 -0.0508
  419MOL0     H57754   1.262   8.377   9.106  0.3091 -0.1719 -1.3352
  419MOL0     H57755   1.398   8.166   9.453 -0.9462  0.0341 -1.0644
  419MOL0     H57756   1.429   8.323   9.525 -0.1465 -0.1631 -0.6053
  419MOL0     H57757   1.623   8.216   9.433  1.6865  3.6036  0.9975
  419MOL0     H57758   1.558   8.228   9.256  0.1076  1.4605 -1.3499
  419MOL0     H57759   1.561   8.484   9.337 -1.2637 -1.7662  0.8607
  419MOL0     H57760   1.696   8.420   9.442 -2.3838 -1.1976  2.7031
  419MOL0     H57761   1.815   8.455   9.251  0.7526 -3.2297  1.7282
  419MOL0     H57762   1.764   8.295   9.222 -4.2881 -1.1206 -0.9464
  419MOL0     H57763   1.602   8.523   9.119 -0.3280 -1.4243  1.5275
  419MOL0     H57764   1.547   8.374   9.090 -0.6340  1.0191 -3.2139
  419MOL0     H57765   1.812   8.496   8.992  0.5019 -0.6247  1.7021
  419MOL0     H57766   1.792   8.323   8.984  1.1054  0.4665  2.4981
  419MOL0     H57767   1.598   8.525   8.863 -1.2624 -1.1108  0.0390
  419MOL0     H57768   1.588   8.350   8.843 -0.3494  1.1171 -2.2751
  419MOL0     H57769   1.860   8.474   8.790 -0.0322 -0.9513  1.6817
  419MOL0     H57770   1.793   8.345   8.697 -0.0753  0.1882 -1.4562
  419MOL0     H57771   1.691   8.410   8.471  1.3398 -0.3500  0.0603
  419MOL0     H57772   1.699   8.587   8.240  0.5913  1.4581  0.3309
  419MOL0     H57773   1.640   8.750   8.288  0.9845  0.4349  0.8690
  419MOL0     H57774   1.482   8.503   8.355 -1.2378 -1.2248 -1.6410
  419MOL0     H57775   1.425   8.661   8.379 -0.7340 -1.0609  0.5059
  419MOL0     H57776   1.473   8.519   8.109  1.3568  3.5417 -2.4161
  419MOL0     H57777   1.321   8.551   8.190  0.8177 -1.9773 -1.1466
  419MOL0     H57778   1.524   8.770   8.095 -0.2554  1.8867 -0.1991
  419MOL0     H57779   1.376   8.712   8.010  1.3200 -0.3367 -0.0561
  419MOL0     H57780   1.363   9.069   8.000  5.3808  2.8803 -2.3521
  419MOL0     H57781   1.582   9.307   7.989  0.1967 -1.1857 -2.6033
  419MOL0     H57782   1.448   9.385   8.077  2.5735  0.2995 -0.6685
  419MOL0     H57783   1.417   9.277   7.949  0.7256 -3.0515  1.1748
  419MOL0     H57784   1.564   9.591   8.431 -0.5219 -0.4106  2.3915
  419MOL0     H57785   1.717   9.760   8.474 -1.5887 -1.0929 -0.6671
  419MOL0     H57786   2.029   9.698   8.781 -0.9472  0.1321  0.5040
  419MOL0     H57787   2.129   9.647   8.651  1.1523  1.4183  1.0399
  419MOL0     H57788   2.098   9.950   8.687  2.3499  0.0499  0.7505
  419MOL0     H57789   2.210   9.857   8.789  0.6757 -1.7782  0.6667
  419MOL0     H57790   2.299   9.735   8.572  0.8235 -0.4435  1.5548
  419MOL0     H57791   2.357   9.873   8.638  0.6182 -0.2217 -2.3547
  419MOL0     H57792   2.127   9.867   8.435 -0.0171 -1.1080  0.4036
  419MOL0     H57793   2.296   9.856   8.376  0.5299  3.0951 -2.2920
  419MOL0     H57794   2.211  10.085   8.514  0.7481 -0.7700 -0.5134
  419MOL0     H57795   2.356  10.065   8.441 -0.1597 -0.5472  0.2024
  419MOL0     H57796   2.169  10.207   8.334  0.3638 -0.7205  3.1854
  419MOL0     H57797   2.098  10.044   8.280 -0.6720  0.8402 -0.9920
  419MOL0     H57798   2.235  10.088   8.089 -0.3012  0.0224  0.2667
  419MOL0     H57799   2.335   9.989   8.191  1.1749  0.5928 -1.9885
  419MOL0     H57800   2.469  10.152   8.130  1.7928  0.3403  2.6702
  419MOL0     H57801   2.434  10.185   8.295 -0.4134  0.1569 -0.3816
  419MOL0     H57802   2.009   9.452   8.575  0.0200  0.4178 -2.7620
  419MOL0     H57803   1.859   9.292   8.520 -0.0893 -0.0601  2.1087
  419MOL0     H57804   1.524   9.076   8.466  4.0143 -1.2394 -0.6877
  419MOL0     H57805   1.450   8.887   8.385 -4.3085  1.7260  1.9532
  419MOL0     H57806   1.178   8.117   9.436 -5.0077  0.8655  0.9993
  419MOL0     H57807   1.054   7.977   9.293  0.4057  0.1869  1.1004
  419MOL0     H57808   0.917   7.776   8.881  2.8204  2.1769  1.2049
  419MOL0     H57809   0.754   7.692   8.717 -3.3754 -0.3097  2.4598
  419MOL0     H57810   0.648   7.645   8.513  0.9562  0.0649  0.8277
  419MOL0     H57811   0.520   7.702   8.616  0.4965 -1.4528 -0.1137
  419MOL0     H57812   0.451   7.621   8.378  1.7891 -1.3860  2.3964
  419MOL0     H57813   0.529   7.769   8.314  0.8840  2.7839  1.3071
  419MOL0     H57814   0.275   7.768   8.351 -0.4956  2.3309 -1.1984
  419MOL0     H57815   0.321   7.819   8.526  0.2488  0.5100 -0.4851
  419MOL0     H57816   0.415   7.974   8.286  2.4926  0.7667  1.0683
  419MOL0     H57817   0.453   8.000   8.442  2.5854 -0.3489 -4.1247
  419MOL0     H57818   0.063   8.150   8.473 -0.2693  0.9676  1.0950
  419MOL0     H57819   0.754   8.092   8.540  0.7749  1.7398  2.4056
  419MOL0     H57820   0.886   8.248   8.741 -0.4404 -1.3704  0.4904
  419MOL0     H57821   1.054   8.187   8.686  0.6880  2.8020 -1.6318
  419MOL0     H57822   0.940   8.212   8.564  0.6644 -1.6116 -0.7283
  420MOL0     O57823   2.362   7.132  11.481  0.0573  0.1211  0.1555
  420MOL0     C57824   2.442   7.216  11.438  0.4449  0.1815  0.2474
  420MOL0     O57825   2.442   7.272  11.307  0.1465  0.2695 -0.3269
  420MOL0     C57826   2.363   7.213  11.225  0.3845 -0.6867 -0.3234
  420MOL0     C57827   2.256   7.283  11.176  0.4841 -0.4855 -0.7369
  420MOL0     C57828   2.178   7.234  11.061 -0.2814  0.2969 -1.2235
  420MOL0     C57829   2.219   7.113  11.005  0.2231  0.2357  0.3154
  420MOL0     O57830   2.147   7.045  10.906 -0.6007 -0.8200  0.3747
  420MOL0     C57831   2.180   7.088  10.770  1.1933 -0.3718 -0.8796
  420MOL0     C57832   2.045   7.137  10.713  0.2792 -0.2710 -0.5275
  420MOL0     C57833   2.067   7.211  10.582 -0.4459 -0.2028 -0.4252
  420MOL0     C57834   1.936   7.226  10.509  0.2794 -0.5404 -0.7115
  420MOL0     C57835   1.948   7.344  10.398  0.4141  0.7131  0.0598
  420MOL0     C57836   1.827   7.345  10.306  1.0518  0.2207  0.3456
  420MOL0     C57837   1.872   7.433  10.187  0.4921  0.0962  0.0333
  420MOL0     C57838   1.901   7.580  10.231 -0.4297 -1.2123  0.0385
  420MOL0     N57839   2.037   7.627  10.199 -0.0102 -0.2217 -0.2857
  420MOL0     C57840   2.096   7.630  10.076  0.3088 -0.5965  0.0443
  420MOL0     C57841   2.217   7.668  10.107 -0.4390  0.4350 -0.6326
  420MOL0     C57842   2.337   7.682  10.020 -0.1202  0.3294 -0.3821
  420MOL0     C57843   2.337   7.568   9.913  0.1533 -0.1735 -0.3896
  420MOL0     C57844   2.435   7.606   9.806  0.0037  0.3997  0.7848
  420MOL0     C57845   2.454   7.515   9.689 -1.0464  0.1569  0.7761
  420MOL0     O57846   2.505   7.383   9.735 -0.2559  0.2358  0.3470
  420MOL0     C57847   2.540   7.292   9.635  0.5826  0.1463 -0.9787
  420MOL0     C57848   2.604   7.174   9.679  0.9136  0.0169 -0.2028
  420MOL0     C57849   2.655   7.080   9.586  1.1926  0.6711  0.0603
  420MOL0     C57850   2.743   6.966   9.647  0.2593 -0.7751  0.1866
  420MOL0     C57851   2.629   7.099   9.446 -0.1485  1.3427 -0.0852
  420MOL0     C57852   2.694   7.002   9.351  0.0236  0.0946  0.4137
  420MOL0     O57853   2.829   6.965   9.372  0.4449 -0.5545  0.6690
  420MOL0     C57854   2.906   6.924   9.257  0.3552  0.4940 -0.3676
  420MOL0     C57855   3.013   6.825   9.281  1.7076 -0.8554 -0.2403
  420MOL0     C57856   3.085   6.785   9.171 -0.0934 -1.0905 -0.7489
  420MOL0     C57857   3.055   6.837   9.047  0.6865 -0.3073  0.3328
  420MOL0     O57858   3.133   6.810   8.944 -0.0845 -0.4581  0.7173
  420MOL0     C57859   3.086   6.695   8.872 -0.7870 -1.2762 -0.0713
  420MOL0     C57860   3.079   6.718   8.722 -0.9339 -0.3856  0.3138
  420MOL0     C57861   3.091   6.589   8.645 -0.2686  0.6437 -0.0577
  420MOL0     C57862   3.125   6.615   8.499  0.4505 -0.1761 -0.2543
  420MOL0     C57863   3.142   6.495   8.413  0.5885 -0.4749  0.2383
  420MOL0     C57864   3.009   6.450   8.346  0.9544  0.1471 -0.9104
  420MOL0     C57865   3.027   6.354   8.231  0.2674 -0.8550  0.4035
  420MOL0     C57866   2.903   6.273   8.208  0.0321 -0.4861 -0.2626
  420MOL0    Cl57867   2.927   6.158   8.072  0.0391  0.1274 -0.1084
  420MOL0     C57868   2.969   6.941   9.027  0.2367 -0.9555 -0.6621
  420MOL0     C57869   2.898   6.990   9.133 -1.1577 -0.2606  0.1491
  420MOL0     O57870   2.631   6.981   9.252 -0.0616  0.3284  0.3951
  420MOL0     C57871   2.563   7.210   9.401 -0.4041 -1.0185 -1.7599
  420MOL0     C57872   2.516   7.308   9.496 -0.2277  1.2179 -0.5958
  420MOL0     N57873   2.231   7.695  10.244 -0.2793 -0.8078 -0.5333
  420MOL0     N57874   2.118   7.675  10.295  0.0708 -0.7617  1.3139
  420MOL0     C57875   2.324   7.048  11.060  0.1123  0.0989 -0.2032
  420MOL0     C57876   2.401   7.092  11.166 -0.3841 -0.1037 -0.4339
  420MOL0     C57877   2.521   7.286  11.538  0.5035  0.3512 -0.0252
  420MOL0     C57878   2.516   7.423  11.544 -0.0111  0.7454 -0.6181
  420MOL0     C57879   2.569   7.492  11.653 -0.1556  0.1965  0.3290
  420MOL0     C57880   2.638   7.416  11.749 -0.5056 -0.6392 -0.2156
  420MOL0     O57881   2.692   7.486  11.856 -0.4528  0.4135  0.3424
  420MOL0     C57882   2.602   7.529  11.958  0.4788  0.3086 -0.5220
  420MOL0     C57883   2.667   7.623  12.052 -0.0285  0.0231 -0.1240
  420MOL0     C57884   2.593   7.638  12.189 -0.0028  0.0077 -0.5955
  420MOL0     C57885   2.467   7.721  12.184  0.0052 -0.4691 -0.3344
  420MOL0     C57886   2.479   7.847  12.113 -0.4039  0.4649  0.0776
  420MOL0     C57887   2.485   7.950  12.053  1.0631  0.9104  0.3282
  420MOL0     C57888   2.655   7.281  11.742  0.6940 -0.1988  0.0154
  420MOL0     C57889   2.599   7.215  11.626  0.1451  0.5398  0.2585
  420MOL0     C57890   2.642   7.073  11.613 -0.0327  0.2184 -0.7183
  420MOL0     H57891   2.229   7.376  11.223  0.0632 -1.1123  0.3055
  420MOL0     H57892   2.087   7.274  11.017 -0.9952  2.8694  2.1855
  420MOL0     H57893   2.227   7.016  10.702 -0.9366 -0.8044 -1.9982
  420MOL0     H57894   2.251   7.170  10.764 -2.6755  3.3815 -0.6676
  420MOL0     H57895   1.971   7.057  10.701 -0.1890  0.1630 -0.6135
  420MOL0     H57896   1.982   7.205  10.772 -0.3977 -2.4717  1.3934
  420MOL0     H57897   2.103   7.309  10.614  0.4863 -0.0771 -1.7435
  420MOL0     H57898   2.145   7.168  10.518 -0.4766  1.8841 -1.9569
  420MOL0     H57899   1.900   7.135  10.459  0.9417  0.3640 -2.9921
  420MOL0     H57900   1.875   7.265  10.590  2.3326  2.0918 -0.3165
  420MOL0     H57901   2.039   7.321  10.341 -0.5799 -1.3764 -0.7803
  420MOL0     H57902   1.974   7.441  10.444  2.9624  1.1174 -2.0069
  420MOL0     H57903   1.804   7.244  10.269 -1.6323  1.4177 -1.5710
  420MOL0     H57904   1.733   7.384  10.344  0.6281  1.2988 -1.6737
  420MOL0     H57905   1.792   7.439  10.113 -0.9968  2.6115  1.6706
  420MOL0     H57906   1.962   7.391  10.141 -0.4861 -1.5971 -0.4293
  420MOL0     H57907   1.826   7.637  10.176  2.0144  0.2390 -2.0177
  420MOL0     H57908   1.885   7.594  10.339 -1.4623 -0.5412 -0.1879
  420MOL0     H57909   2.045   7.606   9.984 -0.5250 -2.2335  0.8852
  420MOL0     H57910   2.435   7.691  10.068 -1.4136  0.0030  2.4664
  420MOL0     H57911   2.337   7.780   9.970  3.3659  1.7970  2.0969
  420MOL0     H57912   2.369   7.476   9.964 -4.6502 -1.0885  1.5778
  420MOL0     H57913   2.234   7.560   9.876  0.3859  0.6292 -1.2321
  420MOL0     H57914   2.401   7.696   9.753 -1.4557 -0.1300  0.7723
  420MOL0     H57915   2.527   7.625   9.862 -1.0600 -0.3625  2.9066
  420MOL0     H57916   2.369   7.500   9.622  1.1659  0.6370 -2.3810
  420MOL0     H57917   2.535   7.558   9.629  2.1995 -3.6480  2.0447
  420MOL0     H57918   2.624   7.172   9.785  0.8299  1.5428 -0.1263
  420MOL0     H57919   2.715   6.937   9.749  1.0955 -4.2765 -0.4457
  420MOL0     H57920   2.851   6.981   9.653  0.1139  0.0719  1.1375
  420MOL0     H57921   2.720   6.868   9.606 -3.9939 -2.8324  6.0117
  420MOL0     H57922   3.031   6.779   9.377 -1.7909 -1.9302  0.0490
  420MOL0     H57923   3.163   6.710   9.182  0.1313 -0.9484 -1.3226
  420MOL0     H57924   3.161   6.620   8.900 -0.9925 -0.4226  3.1250
  420MOL0     H57925   2.988   6.655   8.896  0.4999 -4.8441 -0.0853
  420MOL0     H57926   2.987   6.768   8.690 -1.4538 -1.0128  0.7997
  420MOL0     H57927   3.164   6.783   8.697 -1.2539  0.4348  1.2969
  420MOL0     H57928   2.994   6.541   8.630  0.0164  0.6715 -2.4827
  420MOL0     H57929   3.164   6.517   8.681 -1.7567 -1.6325 -1.3114
  420MOL0     H57930   3.219   6.670   8.506  0.0585  0.8950 -2.5867
  420MOL0     H57931   3.056   6.684   8.451  0.0605  0.2202  0.8557
  420MOL0     H57932   3.205   6.518   8.326  0.8689  0.3919  0.6637
  420MOL0     H57933   3.187   6.417   8.475 -1.6484 -2.3216 -0.3233
  420MOL0     H57934   2.954   6.540   8.318 -4.6059 -2.3108  0.7788
  420MOL0     H57935   2.942   6.406   8.421  0.9585  1.1435 -0.3068
  420MOL0     H57936   3.108   6.286   8.261  0.3360 -0.8097  0.3232
  420MOL0     H57937   3.054   6.404   8.138 -0.0104 -0.4574  0.5353
  420MOL0     H57938   2.821   6.343   8.190  0.2413 -0.5427 -1.5386
  420MOL0     H57939   2.894   6.221   8.303  4.7580 -0.9836  0.1365
  420MOL0     H57940   2.956   7.001   8.937 -0.2385  2.3927  1.4308
  420MOL0     H57941   2.847   7.083   9.109  0.2611  1.2272  2.5372
  420MOL0     H57942   2.565   7.249   9.300  2.2106 -0.7484 -1.6720
  420MOL0     H57943   2.475   7.400   9.454 -0.4629  0.6574 -1.6074
  420MOL0     H57944   2.340   6.943  11.036  0.1890 -0.5655  2.4466
  420MOL0     H57945   2.488   7.044  11.210  0.8805  0.5293 -2.0999
  420MOL0     H57946   2.455   7.476  11.472  0.4722  1.2327 -0.6736
  420MOL0     H57947   2.560   7.600  11.667  3.4412  0.3836  2.5739
  420MOL0     H57948   2.515   7.577  11.913  0.9124  0.9435 -0.7002
  420MOL0     H57949   2.573   7.442  12.016 -0.2622  1.4930  0.9480
  420MOL0     H57950   2.685   7.716  11.997  1.3215 -0.2957 -0.2620
  420MOL0     H57951   2.765   7.576  12.064 -1.1003 -1.9125  1.6879
  420MOL0     H57952   2.559   7.546  12.237 -0.6636 -0.3769 -1.7682
  420MOL0     H57953   2.666   7.679  12.259 -0.6963  1.9620 -0.9507
  420MOL0     H57954   2.412   7.732  12.277 -1.5875  1.4239 -1.4286
  420MOL0     H57955   2.391   7.670  12.124 -1.5976  1.5544 -0.1165
  420MOL0     H57956   2.489   8.045  12.002 -1.0876  1.0626  0.3250
  420MOL0     H57957   2.711   7.229  11.819 -0.0458 -1.4865 -0.2811
  420MOL0     H57958   2.562   6.999  11.623 -1.5387  1.9614  0.6273
  420MOL0     H57959   2.710   7.063  11.528  1.9725  1.5880  0.6440
  420MOL0     H57960   2.700   7.056  11.704  0.7699  3.2803 -0.5490
  421MOL0     O57961   3.497   0.714   6.095 -0.4174 -0.1633 -0.4619
  421MOL0     C57962   3.468   0.595   6.112  0.8752 -0.4433 -0.4579
  421MOL0     O57963   3.533   0.500   6.043  0.2037 -0.1331 -0.5284
  421MOL0     C57964   3.635   0.535   5.969 -0.2885  0.6057  0.2393
  421MOL0     C57965   3.747   0.612   6.017 -0.1484  0.4514  0.2090
  421MOL0     C57966   3.857   0.648   5.933 -0.2605 -0.2680 -0.5671
  421MOL0     C57967   3.876   0.589   5.808  0.9202  0.1989  0.2625
  421MOL0     O57968   3.982   0.619   5.724  0.2873  0.0448  0.1923
  421MOL0     C57969   4.101   0.697   5.767  0.4081 -0.4691 -0.3747
  421MOL0     C57970   4.192   0.732   5.654  0.5991 -0.6874  1.2581
  421MOL0     C57971   4.307   0.829   5.683 -0.9897 -0.4770 -0.7775
  421MOL0     C57972   4.364   0.816   5.820  0.6452  0.1707  0.1984
  421MOL0     C57973   4.473   0.922   5.834 -0.3009 -1.0390 -0.2832
  421MOL0     C57974   4.551   0.921   5.963  0.5769  0.0490  0.2636
  421MOL0     C57975   4.459   0.921   6.084  0.6427 -0.3546  0.2213
  421MOL0     C57976   4.535   0.952   6.209 -0.5891  0.0290 -0.5311
  421MOL0     N57977   4.443   0.963   6.322  0.2489 -0.5119 -0.7122
  421MOL0     C57978   4.389   0.860   6.403 -0.1629  0.5871  0.8348
  421MOL0     C57979   4.291   0.915   6.471 -1.2000  0.0154  0.3797
  421MOL0     C57980   4.212   0.858   6.575 -0.2679  0.0792  0.0713
  421MOL0     C57981   4.097   0.766   6.523  0.2387  0.2194 -0.4013
  421MOL0     C57982   4.010   0.833   6.416  0.1185  0.0533  0.7498
  421MOL0     C57983   3.897   0.737   6.390  0.3552 -0.2454  0.5162
  421MOL0     O57984   3.809   0.734   6.496 -0.8815 -0.0672  0.4306
  421MOL0     C57985   3.687   0.798   6.488 -0.1823  0.2401  0.1562
  421MOL0     C57986   3.595   0.749   6.580 -0.2843 -0.2972  1.1974
  421MOL0     C57987   3.482   0.816   6.607  0.3985  0.1015 -0.1127
  421MOL0     C57988   3.413   0.771   6.732 -0.1730  0.5794 -0.2351
  421MOL0     C57989   3.446   0.930   6.537 -0.7810  0.6333  0.0960
  421MOL0     C57990   3.329   1.001   6.564  0.1302 -0.6046  0.1751
  421MOL0     O57991   3.211   0.937   6.566  0.1954 -0.4956  0.1908
  421MOL0     C57992   3.083   1.001   6.589  0.5131  0.8651  0.1982
  421MOL0     C57993   2.978   0.926   6.639  0.3809 -0.1344  0.2795
  421MOL0     C57994   2.842   0.980   6.661  0.0468 -0.9539 -0.2298
  421MOL0     C57995   2.823   1.109   6.620 -0.3575 -0.9620 -0.3809
  421MOL0     O57996   2.701   1.176   6.644  0.4260 -0.0271  0.2996
  421MOL0     C57997   2.604   1.173   6.536  0.0758  0.4350 -0.9088
  421MOL0     C57998   2.632   1.277   6.438  0.2084  0.0993  0.4428
  421MOL0     C57999   2.624   1.418   6.500 -0.4817  0.1673 -0.1523
  421MOL0     C58000   2.587   1.541   6.410  0.4877  0.0137 -0.8393
  421MOL0     C58001   2.619   1.533   6.262 -0.7406  0.3386 -0.8228
  421MOL0     C58002   2.500   1.515   6.172 -0.0131 -0.0752  0.1460
  421MOL0     C58003   2.536   1.523   6.016  0.0969 -1.1967 -0.1475
  421MOL0     C58004   2.559   1.669   5.966 -0.9679  0.2440 -0.1670
  421MOL0    Cl58005   2.400   1.754   5.953  0.0170  0.2516  0.0460
  421MOL0     C58006   2.928   1.181   6.576  0.5641  0.0173  0.3229
  421MOL0     C58007   3.055   1.136   6.558 -0.5335  0.8299 -0.1058
  421MOL0     O58008   3.342   1.121   6.592 -0.5783  0.6994 -0.2834
  421MOL0     C58009   3.522   0.963   6.428  1.3842 -0.0718  0.5666
  421MOL0     C58010   3.650   0.907   6.406  1.0822  0.0425 -0.0151
  421MOL0     N58011   4.300   1.049   6.443 -0.3418 -0.2572  0.2786
  421MOL0     N58012   4.388   1.085   6.359 -0.4538  0.0938  0.0199
  421MOL0     C58013   3.771   0.500   5.766 -0.2962  0.1152 -0.3250
  421MOL0     C58014   3.664   0.455   5.850  0.2049  0.2531  1.3995
  421MOL0     C58015   3.372   0.561   6.220  1.1357 -0.4025 -0.7598
  421MOL0     C58016   3.354   0.648   6.327  0.1200  0.7142 -0.5036
  421MOL0     C58017   3.271   0.604   6.431 -0.7302  0.1055 -0.5472
  421MOL0     C58018   3.197   0.486   6.424  0.4082  0.3174 -0.0631
  421MOL0     O58019   3.112   0.437   6.526 -0.0341 -0.2248 -0.3734
  421MOL0     C58020   3.073   0.523   6.634 -0.3546 -0.1168  0.4519
  421MOL0     C58021   2.915   0.517   6.659 -0.1818 -1.2343 -0.8798
  421MOL0     C58022   2.848   0.549   6.528  1.2410 -0.7115  0.2182
  421MOL0     C58023   2.693   0.548   6.546  0.2414  0.1645 -0.9375
  421MOL0     C58024   2.645   0.640   6.648  0.9749 -0.0748 -1.9820
  421MOL0     C58025   2.577   0.709   6.727  0.3926  0.8694  1.0285
  421MOL0     C58026   3.210   0.406   6.316 -0.3164 -0.8724 -0.2014
  421MOL0     C58027   3.295   0.440   6.212  0.4731  0.0346  0.7317
  421MOL0     C58028   3.289   0.335   6.099 -0.3317 -0.4554 -0.0350
  421MOL0     H58029   3.746   0.654   6.116  0.3089 -0.5510  0.6548
  421MOL0     H58030   3.939   0.708   5.973 -2.3698  1.6591  1.1066
  421MOL0     H58031   4.154   0.641   5.845 -3.4805 -3.4737  0.4972
  421MOL0     H58032   4.066   0.793   5.805 -1.2016 -0.6782 -1.2151
  421MOL0     H58033   4.229   0.640   5.608  1.1831 -0.4524  1.2402
  421MOL0     H58034   4.123   0.774   5.580  0.1720  0.2662  2.1780
  421MOL0     H58035   4.380   0.823   5.602 -1.3096 -0.3498 -1.0762
  421MOL0     H58036   4.265   0.930   5.683  1.2154  0.4987  0.0553
  421MOL0     H58037   4.282   0.823   5.891 -2.8822  1.8961 -3.6356
  421MOL0     H58038   4.413   0.720   5.841 -1.9359 -0.7252  2.6906
  421MOL0     H58039   4.430   1.022   5.820 -0.9295 -0.7344  3.0345
  421MOL0     H58040   4.549   0.913   5.756 -2.4455 -1.2323 -2.4719
  421MOL0     H58041   4.616   0.833   5.962  3.2111  1.8090  2.4706
  421MOL0     H58042   4.607   1.013   5.978  0.2455  0.2475  0.2957
  421MOL0     H58043   4.404   0.826   6.087 -1.9645  1.0173 -1.0189
  421MOL0     H58044   4.383   0.999   6.080  0.2674 -0.6460  1.3022
  421MOL0     H58045   4.613   0.877   6.225 -0.2924  0.3888 -0.2702
  421MOL0     H58046   4.584   1.049   6.201  4.5949 -2.0340  1.8090
  421MOL0     H58047   4.420   0.756   6.399  0.2215  0.7306 -2.2144
  421MOL0     H58048   4.173   0.940   6.635 -1.7574 -1.8023  1.8356
  421MOL0     H58049   4.269   0.794   6.643 -1.8334  0.8405  2.2004
  421MOL0     H58050   4.138   0.667   6.500  1.4484  0.4965  0.4241
  421MOL0     H58051   4.032   0.756   6.610 -0.1028  3.6744 -0.1162
  421MOL0     H58052   3.977   0.931   6.452 -0.2767 -0.6280  2.3176
  421MOL0     H58053   4.063   0.844   6.321  2.0439  1.1147  1.8904
  421MOL0     H58054   3.853   0.761   6.293  2.1587 -1.3046 -0.6170
  421MOL0     H58055   3.955   0.644   6.391 -0.4783 -0.7745  0.4789
  421MOL0     H58056   3.626   0.664   6.640 -2.4743  0.2247  3.1628
  421MOL0     H58057   3.495   0.747   6.801 -0.4192  2.2549  0.6770
  421MOL0     H58058   3.346   0.688   6.708 -0.4275  0.4550  0.8931
  421MOL0     H58059   3.342   0.838   6.779 -1.1173 -1.7888  1.9427
  421MOL0     H58060   2.984   0.819   6.659 -2.3727 -0.4536 -0.1916
  421MOL0     H58061   2.757   0.921   6.693  0.4393 -0.5549  1.6274
  421MOL0     H58062   2.614   1.080   6.480  3.7773  0.7836 -1.0596
  421MOL0     H58063   2.502   1.174   6.577  1.4154  1.2240  2.8117
  421MOL0     H58064   2.729   1.273   6.388 -0.1524 -1.3685 -0.1956
  421MOL0     H58065   2.558   1.269   6.358  1.1717 -1.2833 -0.3513
  421MOL0     H58066   2.729   1.426   6.529 -0.5384 -0.8868  0.4042
  421MOL0     H58067   2.572   1.415   6.596 -1.3597 -0.2502 -0.6276
  421MOL0     H58068   2.659   1.621   6.429  1.2255 -0.6884 -0.6228
  421MOL0     H58069   2.487   1.557   6.451  2.0000 -1.4911  4.2474
  421MOL0     H58070   2.658   1.629   6.228  2.1509 -1.2466 -2.3924
  421MOL0     H58071   2.698   1.457   6.252 -0.1571  0.6334  1.0962
  421MOL0     H58072   2.419   1.584   6.198 -1.5174 -2.0854  1.0660
  421MOL0     H58073   2.454   1.418   6.193 -1.6138  1.0553  2.2159
  421MOL0     H58074   2.460   1.478   5.951 -0.0706 -1.7865  0.4374
  421MOL0     H58075   2.621   1.457   5.995  1.2413 -0.4069  1.7893
  421MOL0     H58076   2.608   1.674   5.868  3.4170  1.9602  1.8749
  421MOL0     H58077   2.616   1.724   6.042 -2.3288  3.4315 -1.2808
  421MOL0     H58078   2.914   1.286   6.553  0.3515  0.1097  0.8558
  421MOL0     H58079   3.137   1.203   6.533 -0.0995 -0.7893 -3.5746
  421MOL0     H58080   3.493   1.049   6.367  1.2712 -0.1478  0.5127
  421MOL0     H58081   3.724   0.944   6.336  1.9798 -2.1678 -0.3400
  421MOL0     H58082   3.785   0.466   5.664  1.1669  1.3039 -0.5501
  421MOL0     H58083   3.601   0.368   5.833  2.3914 -1.3348  1.0525
  421MOL0     H58084   3.421   0.730   6.352 -0.3685  0.5781  1.3844
  421MOL0     H58085   3.264   0.663   6.523 -0.8164 -0.1173 -0.4101
  421MOL0     H58086   3.141   0.501   6.717  1.6777 -0.0226 -1.1166
  421MOL0     H58087   3.086   0.629   6.614 -7.8257  1.0576 -1.4224
  421MOL0     H58088   2.898   0.597   6.732  0.2751  1.7588 -3.8107
  421MOL0     H58089   2.880   0.416   6.683  0.8668 -1.7001 -1.2919
  421MOL0     H58090   2.888   0.639   6.482  0.6121 -2.4955 -4.3915
  421MOL0     H58091   2.867   0.472   6.453  2.0496  0.0646 -0.3834
  421MOL0     H58092   2.653   0.450   6.575 -2.4553  0.9379 -1.7792
  421MOL0     H58093   2.642   0.572   6.453 -0.6367  1.1749 -0.2214
  421MOL0     H58094   2.521   0.758   6.805  0.4967 -1.0905  2.4093
  421MOL0     H58095   3.141   0.323   6.310 -2.6803  1.0830 -2.8383
  421MOL0     H58096   3.335   0.240   6.127  1.7944  0.2803 -0.8384
  421MOL0     H58097   3.183   0.312   6.080 -0.5718  1.1375 -0.8048
  421MOL0     H58098   3.333   0.373   6.007 -2.9530 -1.0548 -1.6496
  422MOL0     O58099   0.374   9.660   6.802 -0.6430 -0.1963  0.1097
  422MOL0     C58100   0.304   9.723   6.879  1.3886 -0.4108  0.1663
  422MOL0     O58101   0.334   9.750   7.010 -0.3864 -0.9825  0.4830
  422MOL0     C58102   0.438   9.676   7.068  0.5647 -0.3012  0.3856
  422MOL0     C58103   0.565   9.704   7.033 -0.3194 -0.6743 -0.7548
  422MOL0     C58104   0.673   9.655   7.107  0.5813  0.4498  1.2423
  422MOL0     C58105   0.644   9.559   7.216  0.8379 -0.3582  0.1245
  422MOL0     O58106   0.741   9.513   7.300 -0.2888  0.5996  0.8323
  422MOL0     C58107   0.863   9.581   7.325  0.2302  0.3976  1.0287
  422MOL0     C58108   0.844   9.682   7.439 -0.5096 -0.6925  0.0468
  422MOL0     C58109   0.738   9.787   7.406 -0.6058 -0.7813 -0.1524
  422MOL0     C58110   0.770   9.900   7.500  0.3015 -0.1985 -0.5132
  422MOL0     C58111   0.676  10.025   7.472 -0.4487  0.5301  1.0527
  422MOL0     C58112   0.685  10.087   7.332  0.5357 -0.0825 -0.6311
  422MOL0     C58113   0.595  10.213   7.307  0.5109 -0.4486 -0.4513
  422MOL0     C58114   0.536  10.290   7.432 -0.3558  0.5702  0.8750
  422MOL0     N58115   0.428  10.380   7.396 -1.5926 -0.9903  0.1005
  422MOL0     C58116   0.361  10.392   7.276 -0.3371  0.0123 -0.7925
  422MOL0     C58117   0.305  10.516   7.279 -0.0112 -0.1207  0.5718
  422MOL0     C58118   0.214  10.571   7.176  0.0087  0.1313  1.5286
  422MOL0     C58119   0.270  10.658   7.072  0.2605  0.7644 -0.8807
  422MOL0     C58120   0.362  10.580   6.976  0.2148 -0.4639 -0.1415
  422MOL0     C58121   0.426  10.668   6.868 -0.2980  0.6364 -0.0181
  422MOL0     O58122   0.482  10.604   6.754  0.4334 -0.3001  0.2491
  422MOL0     C58123   0.538  10.684   6.654  0.0779  1.2509 -1.0728
  422MOL0     C58124   0.522  10.809   6.623 -0.6139 -0.8068 -0.2308
  422MOL0     C58125   0.599  10.870   6.524 -0.3163  0.3788  0.1007
  422MOL0     C58126   0.559  11.017   6.500  0.3481  0.2126 -0.7474
  422MOL0     C58127   0.697  10.798   6.455  0.9101 -0.2741 -0.5059
  422MOL0     C58128   0.798  10.857   6.356  0.8830  0.4460 -0.9148
  422MOL0     O58129   0.877  10.785   6.274  0.0880  0.1937  0.5620
  422MOL0     C58130   0.947  10.861   6.176 -0.0283  0.1621 -0.1222
  422MOL0     C58131   1.022  10.975   6.194 -0.0305  0.2835  0.5303
  422MOL0     C58132   1.098  11.040   6.091  0.5165  1.0562 -0.6613
  422MOL0     C58133   1.092  10.991   5.960  0.1657  0.9098  0.0994
  422MOL0     O58134   1.171  11.030   5.855 -0.8813  0.5635 -0.7361
  422MOL0     C58135   1.194  11.168   5.825  0.3835  1.2907  1.0337
  422MOL0     C58136   1.285  11.182   5.706 -0.4366  0.1149  0.2411
  422MOL0     C58137   1.409  11.098   5.711  0.4916  0.0963 -0.7010
  422MOL0     C58138   1.526  11.146   5.614  1.1535  0.2926 -0.7268
  422MOL0     C58139   1.547  11.038   5.506  0.6545 -0.1304 -0.7096
  422MOL0     C58140   1.670  11.046   5.425 -0.1211  0.6064  0.8512
  422MOL0     C58141   1.804  11.009   5.498 -0.3063  0.4505 -0.3117
  422MOL0     C58142   1.924  11.050   5.410 -0.1064  0.1327  0.0210
  422MOL0    Cl58143   1.918  11.231   5.406 -0.7310 -0.0861 -0.0140
  422MOL0     C58144   1.017  10.872   5.940  0.1097  0.1880 -0.7353
  422MOL0     C58145   0.960  10.801   6.041  0.6133 -0.4836 -1.1628
  422MOL0     O58146   0.815  10.970   6.377  0.5978 -0.8050  0.7916
  422MOL0     C58147   0.716  10.669   6.502 -0.2086  0.7580 -0.2974
  422MOL0     C58148   0.633  10.606   6.597  0.2803  0.6266  0.7206
  422MOL0     N58149   0.327  10.575   7.401 -0.6552 -0.1581  0.5372
  422MOL0     N58150   0.402  10.492   7.470  0.3418  1.2619  1.5750
  422MOL0     C58151   0.510   9.527   7.249  1.2264 -0.6194 -0.0747
  422MOL0     C58152   0.402   9.587   7.172  0.1794 -0.4328  0.2521
  422MOL0     C58153   0.164   9.759   6.837  0.2611 -0.0311  0.0581
  422MOL0     C58154   0.167   9.807   6.703  1.1883  0.1282 -0.5634
  422MOL0     C58155   0.042   9.857   6.656  0.8122 -0.1732 -0.0679
  422MOL0     C58156  -0.078   9.847   6.727 -0.2669  0.6704  0.2993
  422MOL0     O58157  -0.191   9.904   6.669 -0.3787  0.3727  0.1904
  422MOL0     C58158  -0.270   9.983   6.757 -0.5993 -0.2987  0.2912
  422MOL0     C58159  -0.308  10.106   6.676  0.4978  0.7818  0.8267
  422MOL0     C58160  -0.434  10.076   6.598 -0.1524  0.1388  1.2798
  422MOL0     C58161  -0.415   9.998   6.465 -0.6416 -0.6567 -0.1319
  422MOL0     C58162  -0.553   9.955   6.428 -0.3534  0.0350  0.4735
  422MOL0     C58163  -0.657   9.899   6.402 -0.5731 -0.6412 -0.7767
  422MOL0     C58164  -0.075   9.792   6.860  0.4429 -0.6618  0.6491
  422MOL0     C58165   0.052   9.756   6.909  0.3255  0.1086 -1.2703
  422MOL0     C58166   0.056   9.731   7.062 -0.0826  0.7078  0.5917
  422MOL0     H58167   0.572   9.786   6.962 -0.0843  0.0137  0.0448
  422MOL0     H58168   0.775   9.678   7.076 -0.0315 -0.6144 -1.8915
  422MOL0     H58169   0.915   9.620   7.238  3.2414 -3.5186  0.8029
  422MOL0     H58170   0.916   9.491   7.357 -1.9011 -2.4078 -2.5709
  422MOL0     H58171   0.811   9.636   7.533  1.5935  1.5651  1.9923
  422MOL0     H58172   0.938   9.721   7.477 -1.7117 -1.0011  3.7414
  422MOL0     H58173   0.762   9.831   7.308  1.3144 -0.0503  0.5762
  422MOL0     H58174   0.634   9.756   7.406 -0.1574 -2.3419  0.5694
  422MOL0     H58175   0.758   9.857   7.599 -0.9256  1.1479 -0.0438
  422MOL0     H58176   0.872   9.941   7.495 -1.2734  4.2988 -0.4377
  422MOL0     H58177   0.703  10.097   7.551 -2.8817  0.8647  1.6448
  422MOL0     H58178   0.571   9.998   7.486 -0.7446  0.6176 -0.7097
  422MOL0     H58179   0.784  10.132   7.318 -0.8129  3.1554 -0.5506
  422MOL0     H58180   0.660  10.020   7.250  1.8169 -0.9362 -0.3594
  422MOL0     H58181   0.508  10.157   7.271 -0.3909 -1.5544  3.0420
  422MOL0     H58182   0.632  10.282   7.230  1.7626 -0.0607  0.4604
  422MOL0     H58183   0.496  10.215   7.501  0.1769 -2.0423 -1.4443
  422MOL0     H58184   0.619  10.342   7.481  1.6779 -0.5965 -1.0893
  422MOL0     H58185   0.356  10.323   7.192 -1.6526 -2.5061  1.2176
  422MOL0     H58186   0.145  10.629   7.238  1.1313  0.9025  2.0857
  422MOL0     H58187   0.161  10.487   7.130  2.7602 -0.4946 -0.7994
  422MOL0     H58188   0.188  10.707   7.018 -2.1914 -1.0431  0.9924
  422MOL0     H58189   0.337  10.734   7.114 -0.6664  0.4473  1.3036
  422MOL0     H58190   0.439  10.527   7.034  1.1757  1.0248 -0.0222
  422MOL0     H58191   0.302  10.507   6.921  0.3773  1.1611 -2.6021
  422MOL0     H58192   0.352  10.734   6.821 -0.9590 -2.6722 -4.2634
  422MOL0     H58193   0.511  10.714   6.918  1.1853  0.9257 -2.6378
  422MOL0     H58194   0.439  10.864   6.667 -2.5841 -3.4466 -0.3756
  422MOL0     H58195   0.645  11.069   6.542 -0.4889  0.6905  0.4223
  422MOL0     H58196   0.465  11.048   6.547  1.2842  0.8655  0.7758
  422MOL0     H58197   0.571  11.049   6.396  0.4627 -1.2193 -1.1889
  422MOL0     H58198   1.038  11.016   6.293  0.0967  0.8178  0.2906
  422MOL0     H58199   1.161  11.125   6.113 -0.5220  1.9637 -1.1250
  422MOL0     H58200   1.104  11.221   5.794  1.0688  0.6571 -2.4921
  422MOL0     H58201   1.229  11.222   5.914 -4.5757  0.5723  3.7754
  422MOL0     H58202   1.224  11.159   5.618  0.4160 -1.7821  0.0846
  422MOL0     H58203   1.310  11.289   5.706  0.7171 -0.1304  1.6901
  422MOL0     H58204   1.382  10.995   5.684  4.0330 -0.5127 -2.6126
  422MOL0     H58205   1.450  11.114   5.811 -1.1239  4.7083 -0.5522
  422MOL0     H58206   1.617  11.169   5.672 -0.1340  3.3866  0.2726
  422MOL0     H58207   1.479  11.232   5.566  0.5431 -0.0109 -0.6699
  422MOL0     H58208   1.534  10.938   5.548 -1.4276  0.1214 -0.6705
  422MOL0     H58209   1.459  11.052   5.443  0.3487  1.2141 -0.0312
  422MOL0     H58210   1.675  11.147   5.382 -3.1207  0.1171 -0.9876
  422MOL0     H58211   1.655  10.982   5.338 -0.1374  0.3979  1.0074
  422MOL0     H58212   1.785  10.902   5.507 -3.8286  1.1283  2.2913
  422MOL0     H58213   1.806  11.049   5.599 -3.9552 -1.5543  0.7505
  422MOL0     H58214   1.913  11.001   5.312  0.9633 -0.9552  0.4277
  422MOL0     H58215   2.013  11.013   5.462 -2.0993 -4.0988  0.8786
  422MOL0     H58216   1.023  10.822   5.844  1.0725  0.1002 -0.6352
  422MOL0     H58217   0.909  10.708   6.018 -0.9549  0.3093 -0.9867
  422MOL0     H58218   0.791  10.612   6.449  0.2207 -0.9193  1.9296
  422MOL0     H58219   0.648  10.500   6.616  2.7017  1.0488  1.5257
  422MOL0     H58220   0.489   9.453   7.325  0.2333 -1.5785 -1.2458
  422MOL0     H58221   0.301   9.567   7.206  0.6735  1.1040  2.9750
  422MOL0     H58222   0.261   9.825   6.652  1.1611  4.0127  0.3810
  422MOL0     H58223   0.050   9.904   6.558  3.4281 -0.1569  0.0806
  422MOL0     H58224  -0.363   9.930   6.780 -0.1233 -1.3187 -0.0792
  422MOL0     H58225  -0.227   9.994   6.857  0.7457  1.5039 -0.4353
  422MOL0     H58226  -0.227  10.117   6.603  0.8239 -1.7095  0.7048
  422MOL0     H58227  -0.315  10.193   6.742  0.6059  1.4771 -0.0689
  422MOL0     H58228  -0.500  10.018   6.663  0.1953 -1.6500  0.1179
  422MOL0     H58229  -0.484  10.172   6.579 -2.4399 -1.1911  0.1718
  422MOL0     H58230  -0.345   9.914   6.473  1.4799  0.8801 -1.5548
  422MOL0     H58231  -0.364  10.066   6.396 -1.5782 -0.2116 -0.4123
  422MOL0     H58232  -0.752   9.862   6.368 -2.0219  1.8124  0.3060
  422MOL0     H58233  -0.160   9.779   6.926  0.6980 -2.0523  0.7343
  422MOL0     H58234  -0.042   9.712   7.107 -0.0147  0.4312  0.6228
  422MOL0     H58235   0.127   9.652   7.089 -0.9318  0.1350  1.1788
  422MOL0     H58236   0.092   9.823   7.110 -2.3290  1.2520  1.3475
  423MOL0     O58237  11.580   2.718   9.612  0.0535 -0.5852  0.2150
  423MOL0     C58238  11.534   2.607   9.588  0.5893 -0.1703 -0.3075
  423MOL0     O58239  11.523   2.552   9.458  0.3307  0.2094  0.1907
  423MOL0     C58240  11.614   2.567   9.362  0.4665 -0.3507 -1.8819
  423MOL0     C58241  11.753   2.580   9.374  0.0593  0.3347  0.1503
  423MOL0     C58242  11.828   2.586   9.257  0.2142 -0.3039  1.0665
  423MOL0     C58243  11.776   2.569   9.128  0.7645  0.4742  0.0403
  423MOL0     O58244  11.853   2.582   9.015 -0.1712  0.4351  0.1736
  423MOL0     C58245  11.811   2.594   8.881 -1.4928  0.5622  0.0808
  423MOL0     C58246  11.939   2.570   8.801 -0.3814  0.4633  1.0871
  423MOL0     C58247  11.925   2.563   8.636  0.7209 -0.3722 -0.2563
  423MOL0     C58248  11.842   2.675   8.568 -0.6475 -0.8215 -0.2451
  423MOL0     C58249  11.788   2.645   8.426 -0.6072  0.9300  0.9202
  423MOL0     C58250  11.677   2.743   8.374 -0.8237  0.3399  0.2806
  423MOL0     C58251  11.562   2.772   8.466 -0.2119 -0.6840 -0.1512
  423MOL0     C58252  11.491   2.642   8.488  0.1942 -0.5645 -0.9488
  423MOL0     N58253  11.377   2.632   8.589  0.0534  0.0022  0.5902
  423MOL0     C58254  11.353   2.699   8.704  0.6943 -0.1372 -0.1301
  423MOL0     C58255  11.224   2.662   8.736  0.2049  0.0955 -0.0556
  423MOL0     C58256  11.147   2.717   8.847 -0.0209 -0.4689 -0.1745
  423MOL0     C58257  11.053   2.827   8.810 -0.2231  0.1394  0.8600
  423MOL0     C58258  11.092   2.964   8.861 -0.7119  0.5706  0.4466
  423MOL0     C58259  11.220   3.023   8.811  0.2817 -0.1658  0.6814
  423MOL0     O58260  11.219   3.037   8.664  0.3063  0.0520 -0.1736
  423MOL0     C58261  11.334   3.080   8.605 -0.5586 -0.5282  0.0987
  423MOL0     C58262  11.335   3.125   8.469  0.9309 -0.1597  0.0390
  423MOL0     C58263  11.456   3.165   8.401  0.7213 -1.5730  0.1016
  423MOL0     C58264  11.435   3.195   8.254  0.8094 -0.2689 -0.2876
  423MOL0     C58265  11.577   3.142   8.463 -1.0912  0.2979  0.1136
  423MOL0     C58266  11.712   3.173   8.401  0.6001  0.5784 -0.2552
  423MOL0     O58267  11.807   3.087   8.437  0.2342 -0.1565 -0.5584
  423MOL0     C58268  11.946   3.113   8.420  0.4765  0.7069  0.1495
  423MOL0     C58269  12.012   3.231   8.375 -0.7982  0.5779 -0.1104
  423MOL0     C58270  12.153   3.236   8.350  0.0071 -0.1730  0.1675
  423MOL0     C58271  12.240   3.127   8.358  0.4891 -0.6677 -0.7760
  423MOL0     O58272  12.374   3.133   8.326 -0.2517  0.3884  0.2531
  423MOL0     C58273  12.396   3.199   8.191  0.4222  0.2482 -0.2596
  423MOL0     C58274  12.524   3.153   8.119 -0.2030  0.8146  0.3812
  423MOL0     C58275  12.491   3.026   8.034 -0.7203 -0.2742  0.0304
  423MOL0     C58276  12.625   2.994   7.961  0.1869 -0.0665  0.6377
  423MOL0     C58277  12.626   2.849   7.904 -0.3695 -0.5116  0.2638
  423MOL0     C58278  12.513   2.811   7.800 -0.2193 -0.4620 -0.6265
  423MOL0     C58279  12.383   2.754   7.861  0.0370  0.3617  0.4367
  423MOL0     C58280  12.289   2.715   7.753 -0.6743  0.0912  0.2241
  423MOL0    Cl58281  12.242   2.873   7.681 -0.0018  0.1840  0.1053
  423MOL0     C58282  12.173   3.019   8.408  0.5690 -0.2520 -0.3661
  423MOL0     C58283  12.035   3.009   8.431  0.3010  0.6710  0.2186
  423MOL0     O58284  11.725   3.268   8.331  0.6810  0.3554  0.4726
  423MOL0     C58285  11.573   3.095   8.596  0.1470 -1.1310 -0.0934
  423MOL0     C58286  11.458   3.071   8.671 -0.6789  0.2500  1.0695
  423MOL0     N58287  11.173   2.572   8.649  0.0439 -1.0769 -1.0323
  423MOL0     N58288  11.267   2.560   8.565 -0.6759 -0.4795 -0.3135
  423MOL0     C58289  11.631   2.556   9.122  0.2870 -0.8484 -0.3927
  423MOL0     C58290  11.553   2.555   9.239 -0.2405 -0.2618 -0.2498
  423MOL0     C58291  11.470   2.528   9.696  0.5646 -0.0264 -0.1760
  423MOL0     C58292  11.464   2.384   9.687 -0.2358  0.2629 -1.0317
  423MOL0     C58293  11.414   2.303   9.793 -0.2142  0.4409 -0.2967
  423MOL0     C58294  11.368   2.369   9.904 -0.7465 -0.5715 -0.2670
  423MOL0     O58295  11.315   2.309  10.016  0.4944 -0.0527  0.2542
  423MOL0     C58296  11.294   2.170  10.009 -0.3654  0.4243  0.0031
  423MOL0     C58297  11.172   2.128   9.924 -0.6807  0.0048 -0.5686
  423MOL0     C58298  11.044   2.217   9.933  0.3956  0.2698 -0.2180
  423MOL0     C58299  10.926   2.178   9.843  0.5551 -1.2319  0.0295
  423MOL0     C58300  10.860   2.071   9.899  0.1674  0.6609 -0.1451
  423MOL0     C58301  10.816   1.979   9.962 -0.0885  0.8328  0.2352
  423MOL0     C58302  11.384   2.507   9.923 -0.3730 -0.1061 -0.6252
  423MOL0     C58303  11.423   2.588   9.817 -0.6356  0.8187  0.1774
  423MOL0     C58304  11.423   2.734   9.843  0.4890  0.9918 -0.1068
  423MOL0     H58305  11.796   2.584   9.473  0.6699 -3.7815  0.2423
  423MOL0     H58306  11.936   2.584   9.262  0.1974 -1.7693  1.3405
  423MOL0     H58307  11.794   2.699   8.854 -0.9180 -0.1146 -3.4624
  423MOL0     H58308  11.741   2.520   8.843 -0.6878 -0.3094  0.2671
  423MOL0     H58309  12.012   2.647   8.828 -1.5364  1.8187  0.5419
  423MOL0     H58310  11.966   2.469   8.831 -4.2813 -1.3820 -0.8055
  423MOL0     H58311  12.026   2.575   8.598 -0.2789 -0.6170 -3.2891
  423MOL0     H58312  11.875   2.469   8.610  0.2916  0.0600 -1.0570
  423MOL0     H58313  11.757   2.703   8.632  0.5160  3.5849 -0.2913
  423MOL0     H58314  11.914   2.757   8.565 -1.2404 -0.2059  1.3369
  423MOL0     H58315  11.759   2.539   8.422  1.0402  0.4727  0.1697
  423MOL0     H58316  11.873   2.658   8.358 -0.3914  3.2302  1.5617
  423MOL0     H58317  11.723   2.840   8.351  0.2129  0.4381  2.5411
  423MOL0     H58318  11.654   2.697   8.277  0.0460  1.8988 -0.7127
  423MOL0     H58319  11.481   2.827   8.418  0.0546 -1.4567 -1.5454
  423MOL0     H58320  11.594   2.830   8.553 -2.4576  1.1921 -0.4890
  423MOL0     H58321  11.447   2.615   8.391  1.4159  3.3890 -2.8122
  423MOL0     H58322  11.562   2.559   8.500  2.8144  1.6273 -0.3917
  423MOL0     H58323  11.418   2.767   8.757 -0.4309 -1.5962  3.4318
  423MOL0     H58324  11.199   2.747   8.938 -1.3743 -0.8630  0.7520
  423MOL0     H58325  11.079   2.637   8.875 -0.9414 -0.8590 -3.1674
  423MOL0     H58326  11.041   2.826   8.702 -2.5340  0.5745  1.0786
  423MOL0     H58327  10.953   2.813   8.851 -0.3306 -2.3586 -0.1008
  423MOL0     H58328  11.012   3.032   8.829 -1.5445 -1.2071 -1.5086
  423MOL0     H58329  11.104   2.961   8.969  2.3024  3.3696  0.3483
  423MOL0     H58330  11.237   3.122   8.854  1.2201  1.5786 -3.2854
  423MOL0     H58331  11.297   2.947   8.829  0.0701 -0.8570 -1.1492
  423MOL0     H58332  11.239   3.111   8.421  0.4058  1.9239  0.3898
  423MOL0     H58333  11.329   3.200   8.228  0.4839 -1.8172  0.6573
  423MOL0     H58334  11.491   3.115   8.205  0.2642  0.4509 -2.2012
  423MOL0     H58335  11.478   3.292   8.226 -2.7371  1.2148 -1.1837
  423MOL0     H58336  11.961   3.326   8.365 -1.2936  0.2653 -0.6849
  423MOL0     H58337  12.194   3.333   8.321  0.3973  0.2152  1.9313
  423MOL0     H58338  12.319   3.182   8.116 -0.1530 -0.6779  0.5179
  423MOL0     H58339  12.406   3.306   8.210 -0.6830  0.0343  1.8181
  423MOL0     H58340  12.574   3.237   8.071  2.7344 -0.6841  0.5578
  423MOL0     H58341  12.597   3.130   8.197  1.2984  1.1340 -0.8925
  423MOL0     H58342  12.405   3.052   7.971 -0.4977 -1.3096 -0.7183
  423MOL0     H58343  12.447   2.954   8.103 -3.0099  1.3985  0.4596
  423MOL0     H58344  12.706   2.998   8.034 -1.3160  0.1013  2.3735
  423MOL0     H58345  12.639   3.070   7.883 -3.4157  1.1789  0.9995
  423MOL0     H58346  12.722   2.820   7.861 -0.8743 -1.3553 -0.3309
  423MOL0     H58347  12.617   2.789   7.995 -1.9732  0.5851  0.8851
  423MOL0     H58348  12.551   2.729   7.739 -2.0753 -0.1287 -2.3439
  423MOL0     H58349  12.494   2.903   7.744  0.0250 -1.1007 -1.7906
  423MOL0     H58350  12.330   2.826   7.924  0.4751 -0.2477  1.5320
  423MOL0     H58351  12.401   2.663   7.920 -3.8349  0.3505  1.8949
  423MOL0     H58352  12.192   2.676   7.783 -1.7494  0.9201 -1.9663
  423MOL0     H58353  12.348   2.657   7.682  0.3015  0.1495  0.9676
  423MOL0     H58354  12.243   2.937   8.424  2.0167  1.5809  4.1948
  423MOL0     H58355  11.999   2.908   8.450  4.4784 -0.8869  0.8910
  423MOL0     H58356  11.665   3.083   8.652  0.5499 -1.4219 -0.7999
  423MOL0     H58357  11.469   3.037   8.774 -4.3141  4.0001  2.9749
  423MOL0     H58358  11.588   2.560   9.022  1.5427 -1.2934 -0.9756
  423MOL0     H58359  11.444   2.555   9.244 -0.2453  2.2315  3.6506
  423MOL0     H58360  11.510   2.340   9.599  0.5106  2.1860 -1.6528
  423MOL0     H58361  11.415   2.195   9.787 -0.8939  0.2152  2.3643
  423MOL0     H58362  11.384   2.112   9.986  2.1774  3.4098  1.5647
  423MOL0     H58363  11.268   2.142  10.112 -2.2958 -0.2525 -0.6210
  423MOL0     H58364  11.159   2.024   9.958  1.8577 -0.3446 -0.5058
  423MOL0     H58365  11.207   2.116   9.821 -0.4326 -1.8890 -0.3097
  423MOL0     H58366  11.017   2.231  10.038  4.0868 -1.5885  1.1778
  423MOL0     H58367  11.064   2.314   9.888  1.1488  0.3617  0.3035
  423MOL0     H58368  10.965   2.152   9.744  1.2395  3.1071 -1.0129
  423MOL0     H58369  10.863   2.266   9.827  2.8631  0.5616  0.2863
  423MOL0     H58370  10.780   1.886  10.000 -1.1107  0.7983 -0.7832
  423MOL0     H58371  11.370   2.565  10.014 -0.7042  2.4137 -2.1774
  423MOL0     H58372  11.370   2.754   9.936 -0.9107  2.9518 -1.2706
  423MOL0     H58373  11.525   2.770   9.862 -0.4834  2.4013  3.0890
  423MOL0     H58374  11.386   2.799   9.763  1.6948  3.4471  1.2157
  424MOL0     O58375   3.394  11.456   1.761  0.2399  0.6749  0.0283
  424MOL0     C58376   3.437  11.341   1.740 -0.1879  0.4846 -0.3979
  424MOL0     O58377   3.363  11.233   1.770  0.3996  0.5575  0.5394
  424MOL0     C58378   3.232  11.233   1.806  0.6927 -0.3475  0.1389
  424MOL0     C58379   3.182  11.264   1.929  0.4707  0.7954  0.6851
  424MOL0     C58380   3.046  11.271   1.961  0.1140  1.5924 -0.4258
  424MOL0     C58381   2.955  11.232   1.861  0.1367 -1.2917 -0.9140
  424MOL0     O58382   2.819  11.222   1.882 -0.1187 -0.1214 -0.3551
  424MOL0     C58383   2.784  11.172   2.010  0.3241 -0.6310 -0.7779
  424MOL0     C58384   2.628  11.173   2.025 -0.4597 -0.0262  0.0033
  424MOL0     C58385   2.549  11.068   1.949 -0.3390 -0.5742  0.4435
  424MOL0     C58386   2.423  11.131   1.879  0.8874 -0.9555  0.9361
  424MOL0     C58387   2.355  11.021   1.791 -0.1226 -0.3429  0.0551
  424MOL0     C58388   2.210  11.057   1.744  0.0750 -0.2163  0.1498
  424MOL0     C58389   2.148  10.942   1.664 -0.2485  0.3735  0.2811
  424MOL0     C58390   2.014  10.982   1.610  0.3913  0.6317  0.9961
  424MOL0     N58391   1.961  10.892   1.501 -0.3998 -0.4439  0.5500
  424MOL0     C58392   1.981  10.914   1.364 -0.1863 -0.3306  0.0281
  424MOL0     C58393   1.922  10.817   1.297 -0.2289  0.8214 -0.5312
  424MOL0     C58394   1.924  10.804   1.148 -0.8713  0.3107  0.0002
  424MOL0     C58395   1.807  10.884   1.092 -0.6560 -0.2217 -0.5023
  424MOL0     C58396   1.820  10.880   0.937 -0.1224 -0.0342  0.8070
  424MOL0     C58397   1.696  10.935   0.876 -2.0119 -0.4232  0.2590
  424MOL0     O58398   1.702  10.920   0.730 -0.6509  0.3416  0.5761
  424MOL0     C58399   1.597  10.961   0.653  0.1920  0.1263  0.3451
  424MOL0     C58400   1.569  10.885   0.536  0.2578 -0.0160  0.0471
  424MOL0     C58401   1.476  10.939   0.444  0.2966  0.5381  0.0901
  424MOL0     C58402   1.438  10.852   0.321  1.1051 -0.5969 -0.0009
  424MOL0     C58403   1.406  11.058   0.466 -0.0787 -0.0616  0.9117
  424MOL0     C58404   1.336  11.147   0.361  0.3423  0.8714 -0.1434
  424MOL0     O58405   1.200  11.139   0.374  0.0161  0.4401 -0.5195
  424MOL0     C58406   1.125  11.202   0.282 -0.1028  0.7936 -0.7932
  424MOL0     C58407   1.039  11.128   0.204 -0.9761 -0.8415  0.5578
  424MOL0     C58408   0.952  11.197   0.120  0.0725 -0.0894 -0.4325
  424MOL0     C58409   0.948  11.334   0.103 -0.2087  0.2225 -0.0038
  424MOL0     O58410   0.860  11.409   0.015  0.2194 -0.4757  0.0466
  424MOL0     C58411   0.837  11.551   0.030 -0.0813 -0.0147 -0.2596
  424MOL0     C58412   0.769  11.579   0.163 -0.3125  0.3616 -0.6538
  424MOL0     C58413   0.719  11.724   0.189 -0.5324  0.0017  0.0720
  424MOL0     C58414   0.597  11.760   0.107 -0.2173  0.0459  0.2624
  424MOL0     C58415   0.455  11.744   0.164  0.0623 -1.1503  0.1745
  424MOL0     C58416   0.354  11.777   0.050 -0.2204 -0.5407  0.1649
  424MOL0     C58417   0.358  11.684  -0.073 -0.1970 -0.4348  0.0235
  424MOL0     C58418   0.220  11.683  -0.133 -0.9321  0.2601 -0.6467
  424MOL0    Cl58419   0.204  11.566  -0.265 -0.3881 -0.1265  0.0329
  424MOL0     C58420   1.041  11.400   0.189  0.2098 -0.2460  1.1076
  424MOL0     C58421   1.122  11.340   0.282  0.0931  0.4518  0.8195
  424MOL0     O58422   1.400  11.205   0.270 -0.0132  0.2606 -0.5036
  424MOL0     C58423   1.435  11.124   0.583 -1.1719  0.1918 -0.3861
  424MOL0     C58424   1.521  11.069   0.683 -0.1847 -0.6880  0.8217
  424MOL0     N58425   1.877  10.726   1.393 -0.5605 -0.1086 -0.0191
  424MOL0     N58426   1.896  10.775   1.510 -0.3517 -0.0175 -0.7137
  424MOL0     C58427   2.998  11.218   1.729 -0.7371 -1.1332  0.4825
  424MOL0     C58428   3.138  11.217   1.699 -0.9068  0.6407  0.9647
  424MOL0     C58429   3.574  11.305   1.688  0.3679  0.1800  0.3836
  424MOL0     C58430   3.631  11.183   1.722  0.9490  0.8738 -1.1680
  424MOL0     C58431   3.757  11.150   1.672 -0.3413  0.5804 -0.5067
  424MOL0     C58432   3.838  11.234   1.602 -0.4208 -0.1442  0.8494
  424MOL0     O58433   3.955  11.192   1.544  0.0487  0.1822 -0.2346
  424MOL0     C58434   4.005  11.269   1.436  0.0960  0.3394 -0.0808
  424MOL0     C58435   4.132  11.196   1.406 -0.2110  0.1900  0.9508
  424MOL0     C58436   4.110  11.079   1.303  0.7759  0.3233  0.4971
  424MOL0     C58437   4.090  10.948   1.377  0.4615  0.8991  0.8858
  424MOL0     C58438   4.082  10.832   1.281 -0.0392 -0.6170  0.5340
  424MOL0     C58439   4.106  10.746   1.198 -0.0919  1.0464  1.6433
  424MOL0     C58440   3.779  11.352   1.563  0.2775  0.6488 -0.0056
  424MOL0     C58441   3.648  11.392   1.603 -0.0753  0.6400 -0.0813
  424MOL0     C58442   3.607  11.527   1.559 -0.8182  0.3116  0.4042
  424MOL0     H58443   3.245  11.290   2.014  1.8135 -1.9568  0.6572
  424MOL0     H58444   3.023  11.290   2.065  3.3768 -0.3170  0.7776
  424MOL0     H58445   2.822  11.216   2.102 -1.0834 -2.1507  0.6124
  424MOL0     H58446   2.830  11.073   2.003  1.7488  0.0615 -1.5517
  424MOL0     H58447   2.603  11.142   2.127 -1.2829 -3.4978 -1.1275
  424MOL0     H58448   2.582  11.270   2.005  2.9671  1.6448 -0.4926
  424MOL0     H58449   2.623  11.037   1.874  0.2711 -0.7051  1.0859
  424MOL0     H58450   2.516  10.978   2.002 -0.4801 -2.1063 -2.0877
  424MOL0     H58451   2.348  11.164   1.951  0.8294  1.7991 -0.2647
  424MOL0     H58452   2.457  11.214   1.816  0.6703 -1.9862 -0.5852
  424MOL0     H58453   2.360  10.923   1.839 -1.1175 -0.4025  0.0733
  424MOL0     H58454   2.415  11.012   1.700  0.2073  1.0591  0.1178
  424MOL0     H58455   2.139  11.060   1.828 -2.4930  3.5979 -1.8103
  424MOL0     H58456   2.205  11.154   1.693  0.7610 -0.4586 -0.3809
  424MOL0     H58457   2.121  10.860   1.731 -4.0406  2.7649  1.9733
  424MOL0     H58458   2.210  10.927   1.575  2.1355  2.0907  1.5187
  424MOL0     H58459   1.939  10.981   1.689 -0.6630  0.0596  0.0109
  424MOL0     H58460   2.019  11.088   1.583 -0.0442  1.0602  2.5073
  424MOL0     H58461   2.047  10.975   1.305  1.1471 -1.2830  0.4762
  424MOL0     H58462   1.927  10.701   1.112 -0.0950  0.2454  0.2403
  424MOL0     H58463   2.023  10.842   1.119  0.6035 -1.3242  2.5502
  424MOL0     H58464   1.709  10.844   1.120 -1.4119  1.6796 -0.2617
  424MOL0     H58465   1.811  10.986   1.131  1.3257 -0.4896  0.1177
  424MOL0     H58466   1.907  10.927   0.891  0.1887 -1.8347 -0.5434
  424MOL0     H58467   1.842  10.774   0.923 -0.7615 -0.2276  1.2142
  424MOL0     H58468   1.606  10.889   0.918 -1.1148 -0.0806  2.7134
  424MOL0     H58469   1.688  11.043   0.893 -2.8874 -0.1296 -1.7244
  424MOL0     H58470   1.607  10.787   0.509  1.1385  1.2251 -3.7898
  424MOL0     H58471   1.399  10.753   0.344 -0.5523  0.0653  0.1983
  424MOL0     H58472   1.526  10.837   0.258 -0.9008  0.0433 -3.2102
  424MOL0     H58473   1.370  10.893   0.245  3.1736  1.9701 -0.5771
  424MOL0     H58474   1.031  11.020   0.215 -0.0603 -0.6796  3.9323
  424MOL0     H58475   0.862  11.144   0.091 -1.1231  1.2138  0.7755
  424MOL0     H58476   0.931  11.605   0.017 -0.1045  0.3029  0.8241
  424MOL0     H58477   0.768  11.589  -0.045  0.5149 -0.8901 -1.2867
  424MOL0     H58478   0.685  11.510   0.168 -0.8535  1.0584  0.3198
  424MOL0     H58479   0.823  11.555   0.256  1.2460 -0.1068 -1.6443
  424MOL0     H58480   0.795  11.801   0.177 -0.6282  0.3052  1.2967
  424MOL0     H58481   0.694  11.729   0.296  0.4688 -2.0719  0.4620
  424MOL0     H58482   0.598  11.692   0.021  0.6020 -0.8637  0.9760
  424MOL0     H58483   0.598  11.863   0.069  0.8986 -0.5855 -1.5405
  424MOL0     H58484   0.444  11.644   0.207 -2.5339 -1.2231 -0.5281
  424MOL0     H58485   0.447  11.823   0.240  0.6761  0.6297 -1.5423
  424MOL0     H58486   0.383  11.876   0.012  1.1081 -0.6378  0.8516
  424MOL0     H58487   0.255  11.789   0.095 -0.6159  2.0893 -1.1944
  424MOL0     H58488   0.382  11.581  -0.042  0.0464 -0.1283  0.8838
  424MOL0     H58489   0.429  11.717  -0.149 -1.9666  0.6374 -1.2319
  424MOL0     H58490   0.206  11.782  -0.176  1.5552  0.2690 -1.5914
  424MOL0     H58491   0.140  11.662  -0.061  0.8566  0.9939  1.7244
  424MOL0     H58492   1.042  11.508   0.180 -1.6076 -0.1911  1.1829
  424MOL0     H58493   1.179  11.395   0.357 -0.5186 -1.7905  3.0595
  424MOL0     H58494   1.399  11.226   0.597 -3.3376 -0.4962 -0.4992
  424MOL0     H58495   1.545  11.127   0.772  0.9028 -0.8460  0.6437
  424MOL0     H58496   2.927  11.194   1.651 -0.8448  0.4370  0.0661
  424MOL0     H58497   3.188  11.213   1.603  3.2951  0.3228  2.9333
  424MOL0     H58498   3.582  11.113   1.790  0.0053  1.1454 -1.5416
  424MOL0     H58499   3.795  11.049   1.682 -3.0178 -0.6589 -1.9126
  424MOL0     H58500   3.939  11.264   1.348 -2.1106 -0.7061  1.5373
  424MOL0     H58501   4.038  11.367   1.472  1.7549 -0.7382  1.4976
  424MOL0     H58502   4.174  11.169   1.503  1.5423  0.8417  0.3945
  424MOL0     H58503   4.194  11.266   1.350  0.0973  0.7535  1.9782
  424MOL0     H58504   4.028  11.110   1.238 -0.2938 -0.3733  1.4625
  424MOL0     H58505   4.198  11.064   1.240  0.3586  0.8711 -0.2340
  424MOL0     H58506   4.002  10.949   1.441  0.5250 -3.3116  1.3137
  424MOL0     H58507   4.174  10.934   1.444 -0.3296 -0.4796  1.6472
  424MOL0     H58508   4.149  10.665   1.143  0.5916  0.8755  2.4114
  424MOL0     H58509   3.823  11.418   1.488  0.5494  2.0328  1.3208
  424MOL0     H58510   3.500  11.546   1.542 -1.0669 -1.2444  0.0694
  424MOL0     H58511   3.650  11.596   1.632  0.9691  1.7504 -1.8768
  424MOL0     H58512   3.656  11.561   1.468  1.6921 -0.1388  1.5010
  425MOL0     O58513   0.760   1.600   1.114  0.0382  0.1345  0.1521
  425MOL0     C58514   0.716   1.652   1.009 -0.3034 -0.7373 -1.1732
  425MOL0     O58515   0.784   1.709   0.906 -1.2472 -0.8485 -0.2682
  425MOL0     C58516   0.915   1.723   0.937 -0.2497  0.5866  0.1736
  425MOL0     C58517   1.007   1.659   0.851 -1.0056 -0.6473  0.1273
  425MOL0     C58518   1.140   1.657   0.874 -0.2087 -0.2293  0.6055
  425MOL0     C58519   1.192   1.726   0.988 -0.6280  0.4416 -0.1253
  425MOL0     O58520   1.332   1.718   1.010 -0.7110  1.6502  0.5170
  425MOL0     C58521   1.377   1.711   1.144  0.1772 -1.1319  0.4148
  425MOL0     C58522   1.522   1.681   1.146 -0.3701  0.3599 -0.0985
  425MOL0     C58523   1.574   1.552   1.071 -0.1947  1.0668  0.5798
  425MOL0     C58524   1.533   1.424   1.145 -0.2973  0.6410 -0.5793
  425MOL0     C58525   1.596   1.300   1.076 -0.1916  0.8295  0.1386
  425MOL0     C58526   1.575   1.299   0.925 -0.4154  0.2810 -0.1840
  425MOL0     C58527   1.438   1.280   0.891  1.1270 -0.0801 -0.0264
  425MOL0     C58528   1.424   1.221   0.749  1.1201 -0.9796  0.1656
  425MOL0     N58529   1.455   1.329   0.657  1.4918 -0.2453 -0.4666
  425MOL0     C58530   1.563   1.352   0.590 -0.9704  0.4931  1.0214
  425MOL0     C58531   1.541   1.464   0.518 -0.5553  0.1934 -0.1494
  425MOL0     C58532   1.632   1.515   0.403  0.1183 -0.8806 -0.2430
  425MOL0     C58533   1.576   1.463   0.263 -0.6804 -0.8127 -0.3988
  425MOL0     C58534   1.638   1.543   0.142 -0.5775 -0.2170 -0.2867
  425MOL0     C58535   1.788   1.521   0.150 -0.3774  0.9639  1.1198
  425MOL0     O58536   1.847   1.537   0.018  1.0294  0.2608  0.2760
  425MOL0     C58537   1.849   1.656  -0.042 -0.1156 -0.3461 -0.4171
  425MOL0     C58538   1.864   1.649  -0.178 -0.3122  0.0469 -0.3749
  425MOL0     C58539   1.844   1.764  -0.258  0.1165 -0.1136 -0.4258
  425MOL0     C58540   1.870   1.748  -0.403 -0.3410  1.0934 -0.3710
  425MOL0     C58541   1.836   1.889  -0.197  0.2697  0.1249 -0.1180
  425MOL0     C58542   1.838   2.010  -0.273 -0.1925  0.0994  0.7769
  425MOL0     O58543   1.720   2.091  -0.267  0.0628  0.5321 -0.3941
  425MOL0     C58544   1.727   2.210  -0.331  0.8052  0.4300  0.0248
  425MOL0     C58545   1.653   2.232  -0.441 -0.3494 -0.0958 -0.4129
  425MOL0     C58546   1.660   2.357  -0.510  0.9975  0.3506 -0.6636
  425MOL0     C58547   1.747   2.460  -0.469  0.3257 -0.5644  0.0972
  425MOL0     O58548   1.766   2.580  -0.536  0.5676  0.1529 -0.4798
  425MOL0     C58549   1.661   2.626  -0.622 -0.1890  0.3638  0.0681
  425MOL0     C58550   1.682   2.745  -0.691  1.1846 -0.8547 -0.1205
  425MOL0     C58551   1.575   2.809  -0.780  0.5430  0.4864  1.0616
  425MOL0     C58552   1.454   2.860  -0.710  0.2332 -0.0319 -0.9264
  425MOL0     C58553   1.358   2.944  -0.803 -0.8423 -0.7073  0.4496
  425MOL0     C58554   1.242   3.010  -0.745 -1.3334  0.1938 -0.1237
  425MOL0     C58555   1.130   2.916  -0.680 -0.7743 -0.9580 -0.2017
  425MOL0     C58556   1.003   2.990  -0.668  0.2414 -0.9580 -0.9158
  425MOL0    Cl58557   0.945   2.991  -0.825  0.2721  0.5440  0.2405
  425MOL0     C58558   1.825   2.439  -0.355  0.7368 -0.2217  0.4133
  425MOL0     C58559   1.812   2.319  -0.284 -1.1244  0.2049  0.2219
  425MOL0     O58560   1.933   2.046  -0.336  0.0739  0.5633 -0.1469
  425MOL0     C58561   1.835   1.896  -0.063 -1.3526 -0.5547  0.1091
  425MOL0     C58562   1.837   1.782   0.018  0.2209 -0.4156 -0.2337
  425MOL0     N58563   1.425   1.518   0.547  0.0124 -0.1914  0.4150
  425MOL0     N58564   1.365   1.429   0.624 -0.4541  0.1436 -0.0992
  425MOL0     C58565   1.105   1.798   1.073  0.1120 -0.3817 -0.5256
  425MOL0     C58566   0.970   1.790   1.045  1.2805  0.3145  0.5974
  425MOL0     C58567   0.578   1.701   1.006 -0.1575 -0.4682  0.5917
  425MOL0     C58568   0.542   1.796   1.102 -0.5080 -0.4392  0.2580
  425MOL0     C58569   0.419   1.851   1.096  0.9674 -0.0735  0.3760
  425MOL0     C58570   0.326   1.815   1.000  1.1829  0.1500 -0.3727
  425MOL0     O58571   0.197   1.871   0.990  0.3272 -0.6337 -0.1266
  425MOL0     C58572   0.183   2.009   1.030  0.3747  0.4463  0.5256
  425MOL0     C58573   0.109   2.095   0.929  0.4428 -0.5913 -0.9287
  425MOL0     C58574  -0.045   2.091   0.937 -0.5721  0.5898 -0.4764
  425MOL0     C58575  -0.097   2.215   1.003 -0.0888  0.5420 -0.5475
  425MOL0     C58576  -0.232   2.209   1.051  0.2269 -0.5817 -0.0257
  425MOL0     C58577  -0.348   2.185   1.067  0.1574 -0.1792 -1.0201
  425MOL0     C58578   0.355   1.714   0.916  0.0729 -0.1321  0.7313
  425MOL0     C58579   0.481   1.657   0.913 -1.1188  0.3490  0.3380
  425MOL0     C58580   0.510   1.546   0.827  0.3361 -0.2078  0.6505
  425MOL0     H58581   0.956   1.616   0.765 -3.1693 -0.5576  1.2734
  425MOL0     H58582   1.213   1.604   0.815  0.3077  1.7451 -0.6370
  425MOL0     H58583   1.322   1.635   1.201  2.2077 -2.3778  0.8291
  425MOL0     H58584   1.361   1.809   1.189  1.5191 -1.0007  0.6344
  425MOL0     H58585   1.584   1.761   1.104  0.8173  0.9309  2.5268
  425MOL0     H58586   1.542   1.687   1.253 -0.5026  2.8269 -0.1513
  425MOL0     H58587   1.532   1.556   0.970  1.7583  1.8973 -0.2480
  425MOL0     H58588   1.682   1.547   1.058 -0.3157 -0.7727 -0.1331
  425MOL0     H58589   1.571   1.435   1.247  3.4031  3.3679 -2.0313
  425MOL0     H58590   1.426   1.403   1.144 -0.2485  0.3364  0.2125
  425MOL0     H58591   1.552   1.208   1.114 -1.8237  2.8488  3.6775
  425MOL0     H58592   1.702   1.301   1.102  0.3654  1.5524 -1.9611
  425MOL0     H58593   1.613   1.395   0.886  3.1158  0.7643  3.7155
  425MOL0     H58594   1.642   1.222   0.887 -1.5570 -0.0738 -1.5661
  425MOL0     H58595   1.393   1.379   0.895 -1.2093 -1.0725  0.0637
  425MOL0     H58596   1.405   1.209   0.968 -1.8756  1.9112  0.6909
  425MOL0     H58597   1.490   1.135   0.734  0.3104 -1.2006 -2.8692
  425MOL0     H58598   1.322   1.198   0.718  1.3334  0.1739 -1.5522
  425MOL0     H58599   1.646   1.282   0.588 -0.0143  1.5958  1.1367
  425MOL0     H58600   1.735   1.485   0.425 -0.5016 -5.5172 -2.2841
  425MOL0     H58601   1.626   1.624   0.399 -2.7061 -1.0020 -1.7595
  425MOL0     H58602   1.587   1.354   0.264  2.6086 -0.5636  0.2283
  425MOL0     H58603   1.471   1.494   0.261 -0.2587  0.6925 -1.3088
  425MOL0     H58604   1.596   1.507   0.047 -0.2625 -3.2938  0.6320
  425MOL0     H58605   1.619   1.650   0.155 -1.7883 -0.5311  0.6345
  425MOL0     H58606   1.838   1.580   0.226 -0.4483  3.1652 -0.4380
  425MOL0     H58607   1.800   1.413   0.168 -1.5339  0.3514 -1.2717
  425MOL0     H58608   1.883   1.552  -0.224 -0.8769  1.1000 -2.9929
  425MOL0     H58609   1.841   1.649  -0.439  4.0022 -1.4384  2.1657
  425MOL0     H58610   1.979   1.750  -0.420  0.0620 -1.6309  1.2574
  425MOL0     H58611   1.825   1.819  -0.473 -1.8578 -1.9351 -2.7033
  425MOL0     H58612   1.593   2.147  -0.472 -0.8643  0.3304 -0.6004
  425MOL0     H58613   1.602   2.368  -0.602 -0.0203  0.0601 -0.0769
  425MOL0     H58614   1.638   2.547  -0.694 -0.6329  0.0282  0.5661
  425MOL0     H58615   1.574   2.645  -0.559 -0.1193  2.8814 -0.5104
  425MOL0     H58616   1.710   2.811  -0.608  0.5759 -0.5138 -0.1807
  425MOL0     H58617   1.776   2.741  -0.747  1.1634  0.9308 -0.3526
  425MOL0     H58618   1.543   2.745  -0.863  3.4868 -0.5234  0.5737
  425MOL0     H58619   1.617   2.892  -0.838  1.3058  0.0322  0.9376
  425MOL0     H58620   1.477   2.916  -0.619  1.0124  0.3886 -1.3710
  425MOL0     H58621   1.407   2.765  -0.682  1.2130 -0.4182 -0.5339
  425MOL0     H58622   1.420   3.025  -0.842 -0.0146 -1.9338 -0.8762
  425MOL0     H58623   1.322   2.878  -0.883 -2.3907  2.0571 -1.2625
  425MOL0     H58624   1.191   3.064  -0.825 -1.0361  2.4817  1.1089
  425MOL0     H58625   1.278   3.086  -0.675 -4.4062  1.8376 -0.1289
  425MOL0     H58626   1.179   2.885  -0.587 -0.4015 -0.0225 -0.0733
  425MOL0     H58627   1.105   2.832  -0.745 -0.5120 -0.1877 -1.3235
  425MOL0     H58628   1.030   3.091  -0.635 -1.3872 -1.3420  1.9665
  425MOL0     H58629   0.945   2.933  -0.595  3.0603 -0.5293  1.9301
  425MOL0     H58630   1.868   2.526  -0.307 -1.9489 -0.5923  3.8128
  425MOL0     H58631   1.862   2.298  -0.190 -1.2769  0.6259  0.4014
  425MOL0     H58632   1.820   1.990  -0.011 -3.0313  1.6916 -3.9289
  425MOL0     H58633   1.838   1.787   0.126 -0.4795  0.5961 -0.2645
  425MOL0     H58634   1.134   1.835   1.171 -3.5835 -3.4808  2.0241
  425MOL0     H58635   0.906   1.844   1.115 -1.0602  0.4631 -1.5305
  425MOL0     H58636   0.615   1.811   1.180 -0.6912 -4.1335  1.3495
  425MOL0     H58637   0.387   1.913   1.179  2.0026 -0.6649  1.2463
  425MOL0     H58638   0.155   2.032   1.133 -0.4336  0.9632  0.1944
  425MOL0     H58639   0.287   2.044   1.029  1.5792 -2.4175 -3.3600
  425MOL0     H58640   0.157   2.059   0.838 -2.2652 -0.0132 -2.6914
  425MOL0     H58641   0.136   2.200   0.941  0.5393 -0.6181 -0.9121
  425MOL0     H58642  -0.086   2.087   0.836 -0.3516 -1.4997 -0.5383
  425MOL0     H58643  -0.078   2.002   0.993  1.2135  2.2784  3.7052
  425MOL0     H58644  -0.086   2.296   0.931 -0.2553 -0.1922 -1.4118
  425MOL0     H58645  -0.034   2.233   1.091  1.2632 -0.0016 -1.3633
  425MOL0     H58646  -0.452   2.160   1.072  0.0094  0.5496 -0.1549
  425MOL0     H58647   0.285   1.670   0.846  0.8664  0.7090 -0.6192
  425MOL0     H58648   0.524   1.593   0.729  0.3828 -0.6685  0.4349
  425MOL0     H58649   0.585   1.475   0.861 -3.1193 -4.1301  0.9780
  425MOL0     H58650   0.416   1.489   0.833  0.5593 -0.4192  2.5578
  426MOL0     O58651   4.060   1.896   5.371  0.3478 -0.9115 -0.1738
  426MOL0     C58652   4.000   1.980   5.446 -0.3562 -0.5906  0.1932
  426MOL0     O58653   4.063   2.059   5.542  0.1630  0.0279 -0.0951
  426MOL0     C58654   4.176   2.004   5.581  0.7207 -0.3427  0.1101
  426MOL0     C58655   4.180   1.892   5.667 -0.2283 -0.1287 -0.2831
  426MOL0     C58656   4.304   1.832   5.708  0.6257 -0.6538  0.1629
  426MOL0     C58657   4.422   1.874   5.658 -0.1921 -0.2352  0.5105
  426MOL0     O58658   4.533   1.816   5.720  0.1625  0.0089  0.4040
  426MOL0     C58659   4.663   1.841   5.658 -0.4485 -0.1649 -0.6686
  426MOL0     C58660   4.770   1.782   5.755 -0.1914  0.4927  0.4513
  426MOL0     C58661   4.771   1.627   5.740 -0.2035  0.1142 -0.4039
  426MOL0     C58662   4.850   1.568   5.857  0.0289 -0.2271 -0.0143
  426MOL0     C58663   4.863   1.413   5.842 -0.4303 -0.8100  0.0837
  426MOL0     C58664   4.984   1.361   5.765  0.0887  0.5758 -0.8717
  426MOL0     C58665   4.952   1.211   5.734 -0.5119  0.4540  0.5938
  426MOL0     C58666   4.884   1.203   5.597 -0.5766 -0.3927  0.6481
  426MOL0     N58667   4.913   1.074   5.530 -0.3934 -0.2963 -0.1093
  426MOL0     C58668   5.029   1.042   5.476  0.1412  0.0722  0.5321
  426MOL0     C58669   5.006   0.931   5.401 -0.6088 -0.3550 -0.1698
  426MOL0     C58670   5.109   0.857   5.324  0.5019  0.4324 -0.6720
  426MOL0     C58671   5.134   0.927   5.191 -0.8085 -0.2639 -0.6705
  426MOL0     C58672   5.211   0.826   5.109 -0.4992  0.0214  0.3969
  426MOL0     C58673   5.362   0.807   5.129  0.0452 -0.7033  0.3774
  426MOL0     O58674   5.388   0.717   5.018 -0.2352 -0.2710 -0.0137
  426MOL0     C58675   5.519   0.705   4.965  0.2210 -0.7833 -0.2068
  426MOL0     C58676   5.527   0.610   4.877 -0.9170  0.9712 -1.1936
  426MOL0     C58677   5.647   0.576   4.811  0.6032  0.6935  0.1904
  426MOL0     C58678   5.628   0.460   4.726 -0.5854  0.2113  0.2274
  426MOL0     C58679   5.754   0.660   4.823 -0.7837  0.5128 -0.1148
  426MOL0     C58680   5.887   0.628   4.750 -0.0769 -0.3141  0.3687
  426MOL0     O58681   5.968   0.729   4.774  0.3579 -0.4352  0.8158
  426MOL0     C58682   6.089   0.740   4.715 -0.2384  0.2827  0.0606
  426MOL0     C58683   6.207   0.708   4.798  0.0285 -0.7238  0.2848
  426MOL0     C58684   6.334   0.746   4.754 -0.1087  0.5726 -0.0802
  426MOL0     C58685   6.353   0.809   4.623 -0.5469 -0.1239 -0.9309
  426MOL0     O58686   6.473   0.832   4.563 -0.1024 -0.6405 -0.2756
  426MOL0     C58687   6.597   0.844   4.637 -0.2428 -0.8253  0.1302
  426MOL0     C58688   6.618   0.968   4.730 -0.7378 -0.2822 -0.1315
  426MOL0     C58689   6.746   0.953   4.808 -0.7549  0.9505 -0.3421
  426MOL0     C58690   6.781   1.078   4.885  1.2281 -1.1800 -0.1908
  426MOL0     C58691   6.909   1.070   4.960 -0.4428 -0.6226 -0.2059
  426MOL0     C58692   6.971   1.205   5.004 -0.0573 -0.7519  0.4773
  426MOL0     C58693   7.023   1.211   5.149 -0.5292  0.5723 -0.3446
  426MOL0     C58694   7.170   1.251   5.177  0.2350  0.8981  0.2395
  426MOL0    Cl58695   7.287   1.129   5.113 -0.3996 -0.5448 -0.3774
  426MOL0     C58696   6.238   0.834   4.548 -0.2795  1.0827 -0.4298
  426MOL0     C58697   6.110   0.799   4.588  0.3236 -0.4802 -0.3164
  426MOL0     O58698   5.917   0.519   4.703 -0.4894 -0.4744  0.0674
  426MOL0     C58699   5.743   0.765   4.917  0.0183 -0.3931  0.0456
  426MOL0     C58700   5.629   0.789   4.994  0.3949  1.0030 -0.8079
  426MOL0     N58701   4.874   0.894   5.424  1.1607  0.1188 -0.1764
  426MOL0     N58702   4.825   0.967   5.511 -0.0253 -0.8012  0.3829
  426MOL0     C58703   4.425   1.998   5.589  0.3419  0.0092 -0.6206
  426MOL0     C58704   4.295   2.057   5.550 -0.2406  0.2899 -0.3321
  426MOL0     C58705   3.859   2.005   5.429  0.6217 -0.2019 -0.6135
  426MOL0     C58706   3.776   2.054   5.545 -0.6574 -0.4930  0.3574
  426MOL0     C58707   3.645   2.083   5.531  0.5987  0.0466 -0.5355
  426MOL0     C58708   3.583   2.063   5.400 -0.3715 -0.3541  0.1930
  426MOL0     O58709   3.449   2.073   5.390  0.5922 -0.6333  0.9184
  426MOL0     C58710   3.388   1.970   5.484 -0.0335 -0.5192  0.4589
  426MOL0     C58711   3.237   1.991   5.464  1.0657  0.1120 -0.1906
  426MOL0     C58712   3.172   1.996   5.318 -0.8112 -0.4961  0.3386
  426MOL0     C58713   3.039   2.055   5.309  0.6068  0.0323  0.8096
  426MOL0     C58714   3.050   2.206   5.289  0.1690 -1.4172  0.3423
  426MOL0     C58715   3.055   2.318   5.249 -0.0205  0.2812 -0.2920
  426MOL0     C58716   3.657   2.028   5.293  0.3349 -0.0805 -0.6307
  426MOL0     C58717   3.796   2.004   5.306 -0.4130  0.1494 -0.0761
  426MOL0     C58718   3.876   1.965   5.177  0.7240 -0.2102  0.3501
  426MOL0     H58719   4.092   1.839   5.701  0.6007 -1.5285 -0.2127
  426MOL0     H58720   4.310   1.732   5.750  2.4578 -1.1344 -1.1459
  426MOL0     H58721   4.680   1.947   5.639 -3.3718  0.3177 -0.9823
  426MOL0     H58722   4.669   1.788   5.562  0.9210 -3.0985  0.9083
  426MOL0     H58723   4.868   1.826   5.734  0.2798 -0.8508 -0.2736
  426MOL0     H58724   4.743   1.810   5.857 -3.4039  2.8901 -0.8976
  426MOL0     H58725   4.670   1.586   5.751 -0.2251  0.4735  0.9744
  426MOL0     H58726   4.813   1.600   5.643 -1.9211  3.3300 -2.2180
  426MOL0     H58727   4.949   1.612   5.873  0.5837 -1.1255 -0.8760
  426MOL0     H58728   4.788   1.586   5.945  2.2963  1.9144  1.2928
  426MOL0     H58729   4.770   1.373   5.801  0.1051 -0.9788 -1.0163
  426MOL0     H58730   4.865   1.366   5.941  0.3362  1.0749  1.0123
  426MOL0     H58731   5.007   1.419   5.675 -1.5439  0.4397 -1.3953
  426MOL0     H58732   5.069   1.359   5.834 -0.9366 -1.0313  0.4164
  426MOL0     H58733   4.890   1.162   5.809  1.4920 -1.8661  0.8728
  426MOL0     H58734   5.050   1.162   5.736 -0.7068 -0.6593 -4.6572
  426MOL0     H58735   4.777   1.221   5.609 -0.2222 -0.3698  5.1729
  426MOL0     H58736   4.921   1.281   5.530 -2.5276 -0.1255 -0.1912
  426MOL0     H58737   5.120   1.101   5.470 -0.5295  1.1239  0.4973
  426MOL0     H58738   5.063   0.761   5.296 -2.8995  2.4952 -2.8460
  426MOL0     H58739   5.192   0.850   5.395  0.0153 -0.3667 -0.1554
  426MOL0     H58740   5.039   0.940   5.138 -1.1951 -0.3976 -0.0307
  426MOL0     H58741   5.194   1.018   5.202  1.1499 -1.4713 -0.8984
  426MOL0     H58742   5.162   0.728   5.117  1.0972 -1.0342 -1.6777
  426MOL0     H58743   5.175   0.846   5.008  0.1697  1.3965  0.4157
  426MOL0     H58744   5.427   0.895   5.124  0.6276 -1.1773 -1.1103
  426MOL0     H58745   5.392   0.759   5.222 -0.2440  3.0557  2.5816
  426MOL0     H58746   5.460   0.526   4.893  0.5662 -0.0332  0.0458
  426MOL0     H58747   5.684   0.374   4.765 -1.0374  1.1123  3.1480
  426MOL0     H58748   5.658   0.483   4.624 -3.4588 -3.9819 -1.8812
  426MOL0     H58749   5.521   0.435   4.725 -0.6038 -0.7313  4.5942
  426MOL0     H58750   6.176   0.678   4.897  0.3640  1.2034  1.0251
  426MOL0     H58751   6.412   0.725   4.826 -0.1384  0.2885 -0.1323
  426MOL0     H58752   6.613   0.759   4.703 -2.2048  1.2839  3.6322
  426MOL0     H58753   6.679   0.836   4.565 -2.7831 -2.1448 -2.8736
  426MOL0     H58754   6.610   1.055   4.665  2.9989 -1.2937 -2.2069
  426MOL0     H58755   6.535   0.975   4.801 -1.0231  0.6314 -0.5470
  426MOL0     H58756   6.834   0.928   4.748  0.0824  0.7713  0.9137
  426MOL0     H58757   6.743   0.865   4.874  0.8458 -0.1432 -1.6464
  426MOL0     H58758   6.700   1.105   4.953  0.5499  0.2335 -1.4965
  426MOL0     H58759   6.794   1.162   4.816  0.9077 -1.2058 -0.2816
  426MOL0     H58760   6.887   1.014   5.051 -2.0310  1.1942  0.6022
  426MOL0     H58761   6.983   1.020   4.897  0.8468  0.7709  0.1539
  426MOL0     H58762   6.889   1.277   5.009  0.4325 -0.2254  1.1600
  426MOL0     H58763   7.046   1.227   4.928 -1.7993  1.0038 -0.8415
  426MOL0     H58764   7.001   1.118   5.201  0.6559  0.3453 -0.2191
  426MOL0     H58765   6.962   1.284   5.203  0.4616  1.6646 -0.6467
  426MOL0     H58766   7.195   1.271   5.282  0.2743  1.3289  0.1483
  426MOL0     H58767   7.188   1.342   5.120 -2.2605 -0.5832 -3.2755
  426MOL0     H58768   6.254   0.883   4.452 -0.1551 -0.4950 -1.2387
  426MOL0     H58769   6.022   0.843   4.543  1.6570  1.9279 -0.7212
  426MOL0     H58770   5.832   0.822   4.941 -0.6220  0.5301  0.2794
  426MOL0     H58771   5.641   0.867   5.069 -0.3493 -0.2003  0.6117
  426MOL0     H58772   4.516   2.052   5.562  0.2012  0.5286 -0.0957
  426MOL0     H58773   4.294   2.148   5.491 -1.0955 -0.5748 -1.7193
  426MOL0     H58774   3.832   2.043   5.637  1.3960  0.8435 -0.6728
  426MOL0     H58775   3.587   2.121   5.613  0.4922  2.2372 -1.5525
  426MOL0     H58776   3.410   1.866   5.456 -0.5725 -0.0259 -2.0802
  426MOL0     H58777   3.418   1.974   5.589  0.9258  0.3810  0.1719
  426MOL0     H58778   3.219   2.089   5.511  2.0039  1.8443 -3.1943
  426MOL0     H58779   3.191   1.910   5.523  0.2292  0.2329 -0.6586
  426MOL0     H58780   3.247   2.041   5.253 -0.6310  0.6760  1.3326
  426MOL0     H58781   3.166   1.891   5.289  0.4587 -0.4774 -0.0422
  426MOL0     H58782   2.972   2.025   5.390 -0.5921  0.7788  0.1280
  426MOL0     H58783   3.003   2.004   5.219  0.6582  1.9594 -0.3524
  426MOL0     H58784   3.051   2.420   5.217  2.5441  0.3382 -0.6417
  426MOL0     H58785   3.598   1.999   5.206  1.2975 -0.4046 -1.1877
  426MOL0     H58786   3.906   1.860   5.175  2.1162  0.0845  2.3113
  426MOL0     H58787   3.811   1.988   5.092  2.3568 -0.0217 -0.9027
  426MOL0     H58788   3.965   2.025   5.157  0.3537 -0.0693 -0.9641
  427MOL0     O58789   1.032  10.739  10.890 -0.0206  0.6861 -0.0862
  427MOL0     C58790   0.942  10.680  10.822 -0.7083  0.1911 -0.6844
  427MOL0     O58791   0.839  10.619  10.884  0.4707  1.0504  0.4181
  427MOL0     C58792   0.828  10.559  11.008 -1.0214 -0.6446  0.8586
  427MOL0     C58793   0.711  10.491  11.029  0.2667 -0.4553 -0.1930
  427MOL0     C58794   0.681  10.439  11.155 -0.0417  0.3473 -0.1369
  427MOL0     C58795   0.764  10.465  11.262 -1.1925 -0.0747 -0.0097
  427MOL0     O58796   0.730  10.414  11.386 -0.3945 -0.4343  0.2487
  427MOL0     C58797   0.671  10.286  11.390 -0.8573 -0.4568 -0.9404
  427MOL0     C58798   0.661  10.245  11.533  0.0952  0.0876 -0.3055
  427MOL0     C58799   0.609  10.099  11.551 -0.5028  0.2356  0.3729
  427MOL0     C58800   0.617  10.057  11.702  0.7285 -1.2425  0.2410
  427MOL0     C58801   0.599   9.917  11.751  0.2062 -0.7165  0.2149
  427MOL0     C58802   0.438   9.887  11.738 -0.8544 -1.4815 -0.2908
  427MOL0     C58803   0.398   9.765  11.821 -0.5007  0.8613 -0.7259
  427MOL0     C58804   0.237   9.758  11.809 -1.3827 -0.2685 -0.1735
  427MOL0     N58805   0.177   9.685  11.925 -1.1966  0.0677  0.8337
  427MOL0     C58806   0.179   9.544  11.928  0.5152  0.6207 -0.2144
  427MOL0     C58807   0.152   9.513  12.062 -0.3007 -0.2217  0.2295
  427MOL0     C58808   0.139   9.374  12.119 -0.4557 -0.8075  0.1734
  427MOL0     C58809  -0.004   9.314  12.123 -0.0356  0.1320 -0.8529
  427MOL0     C58810  -0.000   9.187  12.197  0.9733 -0.7008  0.3657
  427MOL0     C58811  -0.147   9.135  12.191 -0.4223  0.5459 -1.2609
  427MOL0     O58812  -0.167   9.032  12.287 -0.0289  0.5598  0.0192
  427MOL0     C58813  -0.088   8.917  12.266  0.1410 -0.2124  0.4694
  427MOL0     C58814   0.008   8.899  12.359 -0.0087  0.0863  0.4204
  427MOL0     C58815   0.101   8.787  12.357  0.5149 -0.1294  0.6395
  427MOL0     C58816   0.198   8.771  12.466  0.2029 -0.0654  0.0066
  427MOL0     C58817   0.087   8.697  12.237  0.3032 -0.3138  0.2135
  427MOL0     C58818   0.165   8.574  12.212  0.4443  0.9483 -0.6757
  427MOL0     O58819   0.287   8.560  12.255  0.3619 -0.0307 -0.5814
  427MOL0     C58820   0.351   8.444  12.303  0.4616 -0.5934  1.0367
  427MOL0     C58821   0.314   8.310  12.292  0.2428 -1.1806  0.7695
  427MOL0     C58822   0.394   8.208  12.343  0.8934  1.0151 -0.2794
  427MOL0     C58823   0.498   8.237  12.435 -0.2767 -0.1711  0.6424
  427MOL0     O58824   0.547   8.126  12.498  0.0659 -0.1041 -0.2502
  427MOL0     C58825   0.596   8.157  12.632  0.3541  0.6558 -0.1798
  427MOL0     C58826   0.639   8.026  12.699 -0.7502  0.2258 -0.5810
  427MOL0     C58827   0.522   7.928  12.730 -0.0583 -1.0250 -0.0130
  427MOL0     C58828   0.554   7.835  12.854  0.5476  0.1050 -1.4216
  427MOL0     C58829   0.431   7.755  12.888 -0.4859 -0.1996 -0.5496
  427MOL0     C58830   0.461   7.659  13.012  0.0770  0.5131 -0.2676
  427MOL0     C58831   0.348   7.556  13.022 -0.0512 -0.0811  0.2517
  427MOL0     C58832   0.386   7.447  13.128  0.3834  1.0791 -0.1206
  427MOL0    Cl58833   0.511   7.336  13.085 -0.2148 -0.1815  0.0529
  427MOL0     C58834   0.546   8.378  12.433 -0.0851  0.5117  0.1151
  427MOL0     C58835   0.480   8.475  12.366  0.2244  0.5403  0.4055
  427MOL0     O58836   0.116   8.490  12.141  0.8525  0.0306  0.3612
  427MOL0     C58837  -0.017   8.720  12.138 -0.5315  0.0544 -0.2030
  427MOL0     C58838  -0.107   8.830  12.161  0.2822  0.2316  0.1615
  427MOL0     N58839   0.133   9.629  12.130 -0.0633  0.0267 -0.5607
  427MOL0     N58840   0.140   9.727  12.050  0.8296 -0.0645  0.4834
  427MOL0     C58841   0.892  10.524  11.239  0.0581 -0.2730  0.4382
  427MOL0     C58842   0.925  10.570  11.112 -0.7586 -0.3759  0.3976
  427MOL0     C58843   0.916  10.720  10.689 -0.2657 -0.3446  0.6283
  427MOL0     C58844   0.844  10.628  10.608 -0.4959  0.0250  0.0276
  427MOL0     C58845   0.814  10.653  10.477 -0.4340  0.9243  0.4387
  427MOL0     C58846   0.848  10.773  10.418  0.1515 -0.8999 -0.6125
  427MOL0     O58847   0.810  10.814  10.294  0.5515 -0.5465  0.3376
  427MOL0     C58848   0.717  10.921  10.295 -0.7894 -0.7552 -0.0734
  427MOL0     C58849   0.650  10.928  10.154  0.1107 -0.0440  0.5477
  427MOL0     C58850   0.754  10.969  10.045 -0.1961 -0.5326 -0.4920
  427MOL0     C58851   0.773  11.122  10.039 -0.1581  0.2510  0.2898
  427MOL0     C58852   0.653  11.194  10.014  0.9854  0.0163 -0.1853
  427MOL0     C58853   0.534  11.233   9.987 -0.0553  0.1704 -0.8533
  427MOL0     C58854   0.925  10.866  10.491 -0.3207  0.1093  0.2760
  427MOL0     C58855   0.967  10.847  10.625  0.0980 -1.2907  1.1571
  427MOL0     C58856   1.062  10.944  10.700 -0.3821  0.5289 -0.4931
  427MOL0     H58857   0.638  10.488  10.950  1.8837 -1.2670 -1.7365
  427MOL0     H58858   0.593  10.378  11.174 -1.1462  2.1907  1.0026
  427MOL0     H58859   0.728  10.209  11.337  0.6542 -1.3659  1.8093
  427MOL0     H58860   0.573  10.281  11.341 -0.7932  1.3220 -1.3284
  427MOL0     H58861   0.761  10.246  11.577  0.1495 -0.8470 -0.3958
  427MOL0     H58862   0.599  10.318  11.587 -1.5909 -2.1621  0.9573
  427MOL0     H58863   0.515  10.081  11.499 -1.0110  0.4273  1.2073
  427MOL0     H58864   0.690  10.035  11.513  0.2378 -0.1876  2.5028
  427MOL0     H58865   0.710  10.101  11.739 -1.1294  2.1393  1.2617
  427MOL0     H58866   0.537  10.115  11.749  1.8438  0.6520 -0.1083
  427MOL0     H58867   0.628   9.917  11.857 -2.3899  2.2714  1.1060
  427MOL0     H58868   0.648   9.844  11.687 -0.5209 -1.9090  0.9647
  427MOL0     H58869   0.392   9.974  11.786 -1.5466 -2.4257  0.8229
  427MOL0     H58870   0.410   9.886  11.632 -0.9622 -0.5429 -0.2778
  427MOL0     H58871   0.435   9.762  11.924 -1.6598 -4.2667 -0.1641
  427MOL0     H58872   0.439   9.682  11.763 -1.1066  0.3123 -0.3874
  427MOL0     H58873   0.198   9.859  11.796 -0.0802  0.4428  1.0854
  427MOL0     H58874   0.208   9.702  11.720 -3.0034  0.1284  0.0770
  427MOL0     H58875   0.201   9.474  11.847 -0.0222 -2.1700  1.8962
  427MOL0     H58876   0.184   9.377  12.219  0.0729 -0.4487 -0.0705
  427MOL0     H58877   0.204   9.316  12.053  1.0989  0.2064  0.7382
  427MOL0     H58878  -0.082   9.384  12.157  3.4160  2.7667  2.5056
  427MOL0     H58879  -0.031   9.284  12.021 -4.0616 -0.6695  0.2769
  427MOL0     H58880   0.073   9.113  12.163  2.0063 -1.6057  4.0436
  427MOL0     H58881   0.034   9.198  12.300 -0.0968  0.9475  0.5770
  427MOL0     H58882  -0.222   9.210  12.215 -3.4681 -3.0593  1.7561
  427MOL0     H58883  -0.166   9.095  12.091 -0.2882  1.1679 -1.5416
  427MOL0     H58884  -0.001   8.966  12.444 -1.1108  0.0816  0.3296
  427MOL0     H58885   0.185   8.679  12.524 -2.4848  1.3591  1.8669
  427MOL0     H58886   0.196   8.859  12.531  0.2981 -0.8924  1.1427
  427MOL0     H58887   0.298   8.766  12.422 -0.4132  2.3740 -1.8902
  427MOL0     H58888   0.219   8.303  12.241  0.9737  5.5480 -2.6851
  427MOL0     H58889   0.357   8.107  12.331 -2.4907  2.0805 -0.0356
  427MOL0     H58890   0.687   8.216  12.613  2.8509 -2.6983  0.4141
  427MOL0     H58891   0.523   8.213  12.690  0.6865 -0.4177  1.3314
  427MOL0     H58892   0.703   7.966  12.633  0.0204  0.1014  0.2632
  427MOL0     H58893   0.688   8.054  12.793 -2.2244  3.0229 -0.5381
  427MOL0     H58894   0.503   7.866  12.641 -0.7290 -1.7031  0.5869
  427MOL0     H58895   0.426   7.980  12.730  0.4910  0.0187  0.6943
  427MOL0     H58896   0.590   7.887  12.944  1.0358 -3.0347  0.3539
  427MOL0     H58897   0.644   7.782  12.821  1.8292  1.3308 -0.0624
  427MOL0     H58898   0.348   7.824  12.906 -0.3364 -0.7132  2.5477
  427MOL0     H58899   0.423   7.700  12.794  2.2371 -0.1189 -0.9085
  427MOL0     H58900   0.494   7.700  13.108 -0.6544  1.6540 -0.4817
  427MOL0     H58901   0.553   7.606  12.987 -0.6379 -2.0254  2.0015
  427MOL0     H58902   0.341   7.507  12.925 -1.2539 -0.8413  0.6980
  427MOL0     H58903   0.254   7.592  13.065 -2.5362 -3.1314 -2.1289
  427MOL0     H58904   0.299   7.382  13.134  1.6130 -0.6308  0.1593
  427MOL0     H58905   0.408   7.506  13.217  1.9111  0.4176 -0.0233
  427MOL0     H58906   0.639   8.400  12.483  2.3845 -4.1339 -1.7675
  427MOL0     H58907   0.514   8.578  12.362  0.3131  0.4786 -1.7968
  427MOL0     H58908  -0.023   8.658  12.050  4.0436 -0.0306 -0.6831
  427MOL0     H58909  -0.189   8.845  12.090  0.0469 -0.3866  0.2946
  427MOL0     H58910   0.966  10.519  11.319  1.9402 -1.1772 -1.2817
  427MOL0     H58911   1.024  10.604  11.083 -1.1325 -0.5026 -1.1225
  427MOL0     H58912   0.812  10.533  10.648  0.8672 -0.6536 -0.4221
  427MOL0     H58913   0.756  10.578  10.424 -1.1126 -1.5826  4.3212
  427MOL0     H58914   0.635  10.908  10.366 -1.0226  0.2732 -0.1429
  427MOL0     H58915   0.764  11.018  10.310 -4.0688  1.0124 -0.1401
  427MOL0     H58916   0.563  10.993  10.141 -2.0501 -2.5788  1.5072
  427MOL0     H58917   0.622  10.829  10.117  2.9511  0.1146 -2.6143
  427MOL0     H58918   0.846  10.914  10.065 -0.6150 -2.0053 -2.2672
  427MOL0     H58919   0.729  10.941   9.942 -1.3924  1.0666 -0.6811
  427MOL0     H58920   0.829  11.152   9.951  1.3765  1.5620  1.6513
  427MOL0     H58921   0.822  11.153  10.131  1.8706  1.7870 -1.2476
  427MOL0     H58922   0.434  11.266   9.968  0.1557  0.5699 -1.2979
  427MOL0     H58923   0.947  10.957  10.436 -2.9576  0.9044  0.4212
  427MOL0     H58924   1.020  10.971  10.797 -0.3472  1.3088 -0.6894
  427MOL0     H58925   1.159  10.893  10.708 -0.9584 -1.1871 -3.0808
  427MOL0     H58926   1.081  11.028  10.633  2.7162 -0.3577 -0.8684
  428MOL0     O58927   7.466   1.933  10.630  0.0230 -0.3835  0.2442
  428MOL0     C58928   7.456   1.831  10.702 -0.6779 -0.6401  0.1411
  428MOL0     O58929   7.403   1.712  10.683  0.1466 -0.6499  0.1077
  428MOL0     C58930   7.352   1.679  10.558  0.9303 -0.4619 -0.1056
  428MOL0     C58931   7.322   1.767  10.450  0.0821 -0.2035 -0.9075
  428MOL0     C58932   7.279   1.712  10.319  0.5251  0.8859  0.0779
  428MOL0     C58933   7.263   1.575  10.304 -0.4368 -0.3575 -1.0829
  428MOL0     O58934   7.213   1.538  10.181 -0.1485  1.1985  0.5830
  428MOL0     C58935   7.192   1.395  10.151 -0.1806 -0.1150 -0.1798
  428MOL0     C58936   7.322   1.314  10.131 -0.0050  0.0583 -0.0099
  428MOL0     C58937   7.292   1.179  10.083 -0.1567  0.5943 -0.1165
  428MOL0     C58938   7.416   1.113  10.025 -0.3534  0.1732 -0.7439
  428MOL0     C58939   7.381   0.978   9.950  0.6403  0.4813  0.1297
  428MOL0     C58940   7.507   0.897   9.911 -0.6591 -0.6423 -0.3470
  428MOL0     C58941   7.448   0.768   9.859  0.6185  0.5846 -0.4398
  428MOL0     C58942   7.545   0.654   9.823 -0.6405 -0.5479 -0.7035
  428MOL0     N58943   7.602   0.575   9.937 -0.4776 -0.6546  0.5147
  428MOL0     C58944   7.665   0.449   9.932 -0.3990  0.5779  0.5335
  428MOL0     C58945   7.688   0.412  10.063  0.6626  0.0983  0.2247
  428MOL0     C58946   7.739   0.273  10.111 -0.0078  0.1774  0.0858
  428MOL0     C58947   7.810   0.277  10.249  0.1490  0.1615  0.2128
  428MOL0     C58948   7.848   0.142  10.307 -1.0074  0.3247 -0.5818
  428MOL0     C58949   7.900   0.033  10.203 -0.1584 -0.1450  0.8368
  428MOL0     O58950   7.938  -0.073  10.279  0.2743  0.4518  0.5114
  428MOL0     C58951   8.015  -0.177  10.226  0.4832  0.0884  0.4754
  428MOL0     C58952   8.075  -0.169  10.094  0.3131  0.2532 -0.5092
  428MOL0     C58953   8.178  -0.258  10.067 -0.8326  0.2712 -1.6604
  428MOL0     C58954   8.241  -0.263   9.930  0.0169 -0.1167 -0.4379
  428MOL0     C58955   8.226  -0.357  10.165  0.2736  0.4721 -0.2055
  428MOL0     C58956   8.344  -0.451  10.149  0.9853  0.5354 -0.7923
  428MOL0     O58957   8.448  -0.412  10.073  0.6361  0.3293  0.6170
  428MOL0     C58958   8.547  -0.483  10.028  0.1771 -0.3573  0.7890
  428MOL0     C58959   8.612  -0.575  10.101 -0.6247  1.2253 -0.4191
  428MOL0     C58960   8.736  -0.626  10.062 -0.5078  0.3260 -0.0479
  428MOL0     C58961   8.795  -0.577   9.948  0.2081  0.4196 -0.0739
  428MOL0     O58962   8.923  -0.619   9.912 -0.7351 -0.2149 -0.0968
  428MOL0     C58963   8.989  -0.573   9.795 -0.6427 -0.0427 -0.4515
  428MOL0     C58964   9.129  -0.537   9.832 -0.8898 -0.8916  0.6307
  428MOL0     C58965   9.135  -0.426   9.939 -0.6855  0.4305 -0.4892
  428MOL0     C58966   9.099  -0.285   9.886  1.1484 -0.1917 -0.1212
  428MOL0     C58967   9.212  -0.224   9.801  0.2935 -0.2947 -0.6441
  428MOL0     C58968   9.317  -0.180   9.898  0.2173  0.1460  0.0229
  428MOL0     C58969   9.429  -0.089   9.836 -0.1885  0.2377 -0.7580
  428MOL0     C58970   9.499  -0.126   9.709  0.0956 -0.0134  0.7832
  428MOL0    Cl58971   9.618   0.014   9.680  0.1278  0.3499  0.5015
  428MOL0     C58972   8.730  -0.482   9.870  0.1757 -0.0775 -0.0380
  428MOL0     C58973   8.607  -0.441   9.913 -0.3814 -0.3365  0.5272
  428MOL0     O58974   8.343  -0.553  10.220 -0.4207  0.5768 -0.1200
  428MOL0     C58975   8.168  -0.349  10.290 -0.4652  0.2625  0.0537
  428MOL0     C58976   8.070  -0.265  10.316 -0.1769 -0.1090 -0.6748
  428MOL0     N58977   7.662   0.525  10.137  0.1497  0.5364  0.1974
  428MOL0     N58978   7.611   0.617  10.064 -0.0068  0.4991  0.6006
  428MOL0     C58979   7.288   1.492  10.414 -0.5217  0.2893  0.3788
  428MOL0     C58980   7.330   1.547  10.541 -0.5250  0.2445 -0.0074
  428MOL0     C58981   7.518   1.836  10.836 -0.8029 -0.1949 -0.2007
  428MOL0     C58982   7.489   1.936  10.932  0.1273 -0.3685 -0.0701
  428MOL0     C58983   7.531   1.939  11.076  0.2326  0.0559 -0.4023
  428MOL0     C58984   7.625   1.835  11.109  0.6193  0.1598  0.2159
  428MOL0     O58985   7.664   1.839  11.246 -0.2279  0.0143 -0.2497
  428MOL0     C58986   7.731   1.721  11.288 -0.6146 -0.6927 -0.6157
  428MOL0     C58987   7.801   1.728  11.419  0.3085  0.3341 -0.5754
  428MOL0     C58988   7.697   1.741  11.540 -0.7730  0.5066  0.6346
  428MOL0     C58989   7.634   1.869  11.546  0.3357 -0.0576  0.1705
  428MOL0     C58990   7.673   1.940  11.668 -0.2534  0.3990  0.0155
  428MOL0     C58991   7.717   2.007  11.765  0.4022  0.1318 -0.2634
  428MOL0     C58992   7.657   1.738  11.015  0.7761  0.2494  0.5621
  428MOL0     C58993   7.607   1.735  10.880  0.5809 -0.6785 -0.6167
  428MOL0     C58994   7.647   1.635  10.785  0.4044  0.3312  0.1918
  428MOL0     H58995   7.339   1.873  10.461  0.4344 -0.1148 -2.2431
  428MOL0     H58996   7.247   1.780  10.241 -1.3018  3.0253  2.4825
  428MOL0     H58997   7.138   1.400  10.056 -2.1548  1.4465  0.9390
  428MOL0     H58998   7.131   1.346  10.228 -0.8019  2.6583  1.2476
  428MOL0     H58999   7.377   1.370  10.055  0.1383 -0.8533 -0.5871
  428MOL0     H59000   7.385   1.306  10.221 -0.0597  1.4148  0.1690
  428MOL0     H59001   7.264   1.122  10.171  2.3743  2.3282  1.9569
  428MOL0     H59002   7.220   1.178  10.000 -1.7153  1.6654  1.1653
  428MOL0     H59003   7.451   1.187   9.952 -4.7167  0.2814 -3.0733
  428MOL0     H59004   7.475   1.092  10.114 -1.1829  1.1856  0.0738
  428MOL0     H59005   7.321   1.000   9.861 -1.0429 -2.8689  0.2755
  428MOL0     H59006   7.323   0.913  10.015  0.7277  0.2346 -0.0364
  428MOL0     H59007   7.573   0.946   9.838 -2.9176  2.1006 -0.7267
  428MOL0     H59008   7.560   0.872  10.004 -1.9988 -1.4334  0.2209
  428MOL0     H59009   7.379   0.790   9.777 -0.9644 -0.7135  0.4840
  428MOL0     H59010   7.383   0.709   9.924  1.9121 -1.3880 -0.8422
  428MOL0     H59011   7.497   0.584   9.754  1.2114 -2.9775  0.3161
  428MOL0     H59012   7.630   0.701   9.773  2.6615 -2.4751  2.6636
  428MOL0     H59013   7.663   0.371   9.857 -0.2214 -0.7978  1.8889
  428MOL0     H59014   7.812   0.251  10.033 -0.2490 -2.5994  0.5337
  428MOL0     H59015   7.660   0.198  10.124  2.0083 -1.5954  3.5536
  428MOL0     H59016   7.903   0.331  10.231 -0.3757  0.5256 -1.5736
  428MOL0     H59017   7.752   0.333  10.323  0.7515 -3.1076  3.4347
  428MOL0     H59018   7.915   0.147  10.393  0.5801 -0.2237 -1.7391
  428MOL0     H59019   7.755   0.110  10.354 -2.4561  0.4335 -3.1971
  428MOL0     H59020   7.817   0.002  10.140 -0.1821  0.1783  0.7090
  428MOL0     H59021   7.975   0.072  10.134 -1.8293 -0.3549 -1.2126
  428MOL0     H59022   8.045  -0.107  10.010 -0.1161  1.0004  0.1844
  428MOL0     H59023   8.255  -0.365   9.892  2.9843  0.7185 -1.8672
  428MOL0     H59024   8.336  -0.209   9.930  0.2690 -0.5566  0.0761
  428MOL0     H59025   8.181  -0.212   9.854 -1.5928 -3.2484 -1.4742
  428MOL0     H59026   8.572  -0.601  10.199 -1.6910  1.8805 -0.6548
  428MOL0     H59027   8.790  -0.694  10.126  0.1445 -3.1711 -3.8783
  428MOL0     H59028   8.993  -0.657   9.726  2.6279  0.3118 -0.8641
  428MOL0     H59029   8.948  -0.477   9.760  2.6629  1.6737 -0.0564
  428MOL0     H59030   9.178  -0.619   9.884  1.2170 -0.3466 -0.3775
  428MOL0     H59031   9.188  -0.510   9.744  3.0363  1.4879  3.6675
  428MOL0     H59032   9.236  -0.433   9.979 -0.3262  0.0474 -1.4455
  428MOL0     H59033   9.073  -0.462  10.022 -0.0523 -2.5209 -1.1823
  428MOL0     H59034   9.084  -0.218   9.970  1.4299  2.7180 -2.2176
  428MOL0     H59035   9.004  -0.286   9.832  0.7594 -2.3274  0.4875
  428MOL0     H59036   9.245  -0.274   9.709 -2.1631 -0.2199 -1.6398
  428MOL0     H59037   9.169  -0.130   9.763 -1.0420  0.0078  1.4554
  428MOL0     H59038   9.367  -0.273   9.928 -1.6511 -1.6835 -2.1316
  428MOL0     H59039   9.273  -0.133   9.987  0.7015  0.1043  0.2823
  428MOL0     H59040   9.515  -0.079   9.902  0.0538  3.9580 -1.4306
  428MOL0     H59041   9.396   0.015   9.830 -0.2565  0.1480 -3.8330
  428MOL0     H59042   9.427  -0.131   9.626  1.2381  2.0958 -0.3984
  428MOL0     H59043   9.547  -0.223   9.727  0.0210 -0.0987  0.5281
  428MOL0     H59044   8.767  -0.430   9.782 -0.0170  2.3819  1.2682
  428MOL0     H59045   8.578  -0.354   9.855 -1.2258 -1.6970 -1.1894
  428MOL0     H59046   8.212  -0.408  10.369  0.4100  1.2450  0.3052
  428MOL0     H59047   8.020  -0.279  10.411  2.6970  2.7056  1.4888
  428MOL0     H59048   7.276   1.384  10.406 -1.0444  0.3124  0.7513
  428MOL0     H59049   7.344   1.475  10.621 -0.1541 -0.2806 -0.5275
  428MOL0     H59050   7.424   2.019  10.908 -1.8321 -1.9578 -0.4511
  428MOL0     H59051   7.485   2.012  11.140 -2.4553 -0.5093 -1.5407
  428MOL0     H59052   7.664   1.635  11.289 -1.5956  0.0555  0.1261
  428MOL0     H59053   7.802   1.696  11.209  0.0937 -0.8132  0.0375
  428MOL0     H59054   7.869   1.814  11.420  2.0724 -0.9037 -3.2772
  428MOL0     H59055   7.869   1.643  11.428 -0.6337 -0.3001  0.8333
  428MOL0     H59056   7.619   1.668  11.516 -0.3567  0.3006 -0.1258
  428MOL0     H59057   7.747   1.718  11.635 -0.8593  0.9407  0.7887
  428MOL0     H59058   7.526   1.854  11.547  0.5047 -1.4526 -0.4847
  428MOL0     H59059   7.647   1.935  11.461 -0.9202 -2.1738 -1.7815
  428MOL0     H59060   7.765   2.068  11.839 -3.4278  0.4686  2.2264
  428MOL0     H59061   7.721   1.652  11.034 -0.8570 -1.2269 -0.2584
  428MOL0     H59062   7.749   1.597  10.801 -0.0291 -1.0077 -0.1061
  428MOL0     H59063   7.577   1.552  10.777 -0.3759  0.7527  2.1105
  428MOL0     H59064   7.657   1.674  10.684 -0.4720 -2.8500 -1.2293
  429MOL0     O59065   3.397   9.399   0.845 -0.7154 -0.0874  0.0163
  429MOL0     C59066   3.365   9.346   0.736 -0.2392  0.7974 -0.1095
  429MOL0     O59067   3.322   9.214   0.727 -0.1935  0.0539 -0.2180
  429MOL0     C59068   3.280   9.149   0.840  1.1154  0.0197 -0.7205
  429MOL0     C59069   3.361   9.054   0.895 -0.5651 -0.4498  0.1170
  429MOL0     C59070   3.313   8.965   0.996  0.2093 -0.0764 -0.4279
  429MOL0     C59071   3.178   8.970   1.031  0.5887  0.1533 -0.0357
  429MOL0     O59072   3.128   8.896   1.130 -0.0697  0.0446  0.1088
  429MOL0     C59073   3.203   8.786   1.187  0.7958 -0.3432  0.1633
  429MOL0     C59074   3.107   8.693   1.258 -0.2207 -0.2103  0.1574
  429MOL0     C59075   3.162   8.553   1.287  0.5746 -0.1712  0.7791
  429MOL0     C59076   3.073   8.474   1.384  0.5874 -0.6127  0.0119
  429MOL0     C59077   3.120   8.328   1.398  0.0557  0.7413  0.0699
  429MOL0     C59078   3.157   8.280   1.543  0.2497  0.1226 -0.0126
  429MOL0     C59079   3.282   8.351   1.604 -1.0260  0.5113  0.4437
  429MOL0     C59080   3.408   8.288   1.523 -0.9452  0.2191 -0.0560
  429MOL0     N59081   3.515   8.390   1.554 -0.1302 -0.1379 -0.1854
  429MOL0     C59082   3.511   8.514   1.507  0.4551 -0.0174 -0.0956
  429MOL0     C59083   3.617   8.578   1.571  0.5685  0.0109 -0.3196
  429MOL0     C59084   3.636   8.734   1.548 -0.7789 -0.7063  0.4234
  429MOL0     C59085   3.562   8.830   1.632  0.4537  0.8069 -0.4775
  429MOL0     C59086   3.552   8.780   1.779  0.6280 -0.6307  0.5087
  429MOL0     C59087   3.464   8.884   1.861 -0.4985  0.1722  0.9492
  429MOL0     O59088   3.526   9.011   1.866  0.1636  0.3974 -0.2972
  429MOL0     C59089   3.626   9.041   1.963 -0.1477  0.2324  0.5484
  429MOL0     C59090   3.693   9.166   1.954  0.0585  0.2611 -0.5114
  429MOL0     C59091   3.785   9.205   2.046 -1.0601  0.6004 -0.1485
  429MOL0     C59092   3.839   9.342   2.008 -0.1090 -1.1077 -0.1298
  429MOL0     C59093   3.816   9.120   2.157  0.9293  0.1108  0.6121
  429MOL0     C59094   3.921   9.151   2.251  0.1046  0.3499  0.7135
  429MOL0     O59095   3.984   9.277   2.261 -0.1422 -0.0681 -0.4200
  429MOL0     C59096   4.098   9.291   2.344  0.4044 -0.2272  0.3637
  429MOL0     C59097   4.203   9.364   2.293  0.1926  0.1282  0.7520
  429MOL0     C59098   4.319   9.394   2.375  0.7294  0.0296  0.1747
  429MOL0     C59099   4.315   9.371   2.508 -0.1665  0.3765 -0.3441
  429MOL0     O59100   4.414   9.406   2.594  0.5061 -0.0419 -0.2833
  429MOL0     C59101   4.512   9.501   2.550 -0.2901 -0.3620  0.1220
  429MOL0     C59102   4.616   9.526   2.663  0.5911 -0.5888 -0.2594
  429MOL0     C59103   4.739   9.604   2.606 -1.1554 -0.5293 -0.1552
  429MOL0     C59104   4.714   9.756   2.570 -0.0453  0.3782 -0.7000
  429MOL0     C59105   4.846   9.818   2.524  0.7988  0.3662  0.3179
  429MOL0     C59106   4.827   9.963   2.472  0.6220  0.8520  0.3003
  429MOL0     C59107   4.737   9.981   2.356  0.4720 -0.2275  0.3638
  429MOL0     C59108   4.747  10.129   2.319 -0.2345  0.2037 -0.0219
  429MOL0    Cl59109   4.644  10.135   2.173 -0.1676 -0.3920 -0.0358
  429MOL0     C59110   4.205   9.301   2.563  0.3559 -0.2921  0.1909
  429MOL0     C59111   4.095   9.260   2.483  0.4972  0.5672  0.6000
  429MOL0     O59112   3.952   9.058   2.319 -0.2938  0.1925  0.2575
  429MOL0     C59113   3.750   8.997   2.167  0.3175  0.4409 -0.2440
  429MOL0     C59114   3.659   8.965   2.072  0.5909 -0.2552 -0.4459
  429MOL0     N59115   3.676   8.495   1.668 -0.1510  0.3464  0.2342
  429MOL0     N59116   3.610   8.382   1.655 -0.2829 -0.1379  0.4635
  429MOL0     C59117   3.095   9.069   0.974  1.1688 -0.5421  0.6986
  429MOL0     C59118   3.146   9.166   0.884  0.3452  1.0281  0.5946
  429MOL0     C59119   3.378   9.413   0.607  0.6994  0.6666  0.3831
  429MOL0     C59120   3.274   9.384   0.515 -0.5819 -0.1071 -0.0231
  429MOL0     C59121   3.266   9.451   0.400 -0.7044 -1.3610  1.5789
  429MOL0     C59122   3.355   9.558   0.373 -0.2043 -0.3163  0.0743
  429MOL0     O59123   3.332   9.622   0.253 -0.9431 -0.7867  1.2663
  429MOL0     C59124   3.263   9.752   0.273  0.0009 -1.5619 -0.6165
  429MOL0     C59125   3.294   9.852   0.166 -0.5805  0.2351  0.6112
  429MOL0     C59126   3.237   9.991   0.193  0.1589 -0.1457  0.0062
  429MOL0     C59127   3.094  10.010   0.129  0.3830  0.3727  0.5916
  429MOL0     C59128   2.996   9.984   0.233  1.1665 -0.8302  0.4521
  429MOL0     C59129   2.915   9.966   0.316  0.5743 -0.0635 -0.1914
  429MOL0     C59130   3.462   9.586   0.455  0.4599  0.9236  1.0979
  429MOL0     C59131   3.471   9.519   0.578  0.1650  0.4097 -0.5373
  429MOL0     C59132   3.568   9.581   0.679 -0.9251 -0.5002 -0.6697
  429MOL0     H59133   3.466   9.045   0.870 -0.9377 -1.2002 -1.2880
  429MOL0     H59134   3.389   8.899   1.035 -0.8153 -1.8892 -1.3846
  429MOL0     H59135   3.285   8.812   1.255 -2.1527  2.0113  3.1267
  429MOL0     H59136   3.249   8.733   1.103 -1.7669 -0.5358 -1.2265
  429MOL0     H59137   3.073   8.742   1.350 -0.6558 -2.4874  1.2950
  429MOL0     H59138   3.018   8.685   1.196 -0.0271  0.9486 -0.2984
  429MOL0     H59139   3.174   8.494   1.196 -2.1650 -0.9618  0.8430
  429MOL0     H59140   3.258   8.575   1.334  2.0753  1.6535 -2.7448
  429MOL0     H59141   3.068   8.536   1.473  0.2360  4.0692 -2.8948
  429MOL0     H59142   2.968   8.455   1.357  0.7216 -1.9148  0.3487
  429MOL0     H59143   3.202   8.296   1.333 -2.5604 -3.1110 -1.7078
  429MOL0     H59144   3.048   8.256   1.359  1.6762 -0.4520 -0.8586
  429MOL0     H59145   3.070   8.287   1.608 -1.5288 -0.0547 -2.2431
  429MOL0     H59146   3.184   8.174   1.554  5.1548  1.0898 -0.2642
  429MOL0     H59147   3.297   8.334   1.711 -4.4186  2.2069  1.3398
  429MOL0     H59148   3.284   8.460   1.592  3.2844  0.2351 -5.2275
  429MOL0     H59149   3.420   8.187   1.562  0.7639 -0.5778 -2.3739
  429MOL0     H59150   3.396   8.280   1.414  2.0358 -1.8056 -0.3854
  429MOL0     H59151   3.440   8.553   1.436  1.1755  3.4561  0.8885
  429MOL0     H59152   3.609   8.742   1.443  1.2366 -0.5241 -0.1224
  429MOL0     H59153   3.743   8.752   1.557 -0.4916 -1.5361 -1.1300
  429MOL0     H59154   3.621   8.922   1.637  2.6062 -0.5586  1.8828
  429MOL0     H59155   3.466   8.837   1.580  0.8420 -3.0408 -1.9769
  429MOL0     H59156   3.500   8.685   1.788 -1.5023  0.3111 -0.9556
  429MOL0     H59157   3.654   8.756   1.812  1.5612 -0.0086 -1.7130
  429MOL0     H59158   3.374   8.911   1.805  0.2648  0.6519 -0.0647
  429MOL0     H59159   3.429   8.840   1.955 -1.5505  0.2245  0.5900
  429MOL0     H59160   3.664   9.238   1.879 -1.9437 -0.4919 -0.5163
  429MOL0     H59161   3.780   9.382   1.925 -2.0882 -2.4855  0.5115
  429MOL0     H59162   3.943   9.320   1.983 -0.3180 -2.0517 -0.2034
  429MOL0     H59163   3.834   9.418   2.087  0.2082  0.5019 -1.6167
  429MOL0     H59164   4.200   9.384   2.186 -0.8675  1.5309  1.0137
  429MOL0     H59165   4.406   9.447   2.338  1.6932 -2.6623 -1.6757
  429MOL0     H59166   4.564   9.460   2.463  0.6743 -4.5230  2.4104
  429MOL0     H59167   4.467   9.599   2.532  0.5492 -0.2229 -1.3980
  429MOL0     H59168   4.570   9.592   2.738 -1.1327 -2.9900  0.9178
  429MOL0     H59169   4.649   9.431   2.706  1.6886 -0.8289 -1.5670
  429MOL0     H59170   4.795   9.556   2.525  2.4626  0.9330  1.2461
  429MOL0     H59171   4.815   9.604   2.686 -0.3918  4.2412 -0.5903
  429MOL0     H59172   4.663   9.797   2.657 -2.2433 -0.3305 -1.6047
  429MOL0     H59173   4.648   9.754   2.483 -0.0346 -0.0854 -0.6997
  429MOL0     H59174   4.908   9.818   2.614  1.1616 -1.7883  0.1149
  429MOL0     H59175   4.900   9.748   2.460 -0.5312 -1.3966  1.0582
  429MOL0     H59176   4.922  10.004   2.437  0.7935  0.1223 -0.1007
  429MOL0     H59177   4.791  10.021   2.558 -1.6350  0.8937 -0.5967
  429MOL0     H59178   4.634   9.958   2.386  0.2546  2.4532  2.0391
  429MOL0     H59179   4.759   9.912   2.274 -1.3649 -3.2647  2.1878
  429MOL0     H59180   4.843  10.172   2.290 -0.9281  2.3625  0.7377
  429MOL0     H59181   4.699  10.182   2.402 -1.6901 -2.7099  1.1432
  429MOL0     H59182   4.191   9.277   2.669  0.2800 -3.1690 -0.3917
  429MOL0     H59183   4.012   9.203   2.525  1.3555 -0.1635  1.3598
  429MOL0     H59184   3.775   8.933   2.251 -0.3317 -0.8890 -1.0267
  429MOL0     H59185   3.620   8.864   2.071 -0.1405  0.0145 -0.0553
  429MOL0     H59186   2.995   9.069   1.016  1.3172  1.7652  1.2014
  429MOL0     H59187   3.078   9.238   0.839 -1.4086  0.0908  1.6030
  429MOL0     H59188   3.198   9.313   0.544  1.4404 -1.4991  2.1766
  429MOL0     H59189   3.189   9.427   0.327  1.7683 -1.9797 -1.0259
  429MOL0     H59190   3.161   9.714   0.279 -0.1231 -1.5034 -2.0971
  429MOL0     H59191   3.289   9.799   0.369  0.8125 -2.2431 -0.4895
  429MOL0     H59192   3.258   9.809   0.072  1.0983 -0.8433  0.4166
  429MOL0     H59193   3.402   9.865   0.152 -1.0740  0.6071 -4.3405
  429MOL0     H59194   3.245  10.011   0.300 -4.5680 -1.9799  0.9081
  429MOL0     H59195   3.308  10.056   0.141 -0.1975  0.4153  0.2115
  429MOL0     H59196   3.086   9.938   0.047 -0.8626 -0.0442  1.0585
  429MOL0     H59197   3.073  10.110   0.090  2.0849 -0.9467 -4.4104
  429MOL0     H59198   2.835   9.944   0.382  1.1794 -2.1632 -0.0779
  429MOL0     H59199   3.528   9.670   0.433  3.3487 -1.1880  1.0645
  429MOL0     H59200   3.656   9.518   0.696  0.2813 -0.0985 -4.4777
  429MOL0     H59201   3.603   9.676   0.637 -1.3766  1.3785  2.7949
  429MOL0     H59202   3.522   9.614   0.772 -0.2929  2.4419 -1.2971
  430MOL0     O59203   7.829  10.537  11.178  0.1658  0.0845  0.3930
  430MOL0     C59204   7.793  10.637  11.244  1.1992  0.5954 -0.1765
  430MOL0     O59205   7.799  10.770  11.209 -1.2549 -0.0922  0.9847
  430MOL0     C59206   7.847  10.805  11.083  0.5728 -0.9337 -0.8125
  430MOL0     C59207   7.754  10.782  10.975  0.1733  0.1801 -0.5263
  430MOL0     C59208   7.798  10.816  10.847  0.4504 -0.3964 -0.4967
  430MOL0     C59209   7.917  10.883  10.836  0.1909 -0.6451 -0.2446
  430MOL0     O59210   7.967  10.909  10.709 -1.1095  0.1833 -0.4013
  430MOL0     C59211   7.960  10.795  10.627 -0.2127  0.3858 -0.1949
  430MOL0     C59212   8.077  10.818  10.540 -0.4817  0.8313  0.1127
  430MOL0     C59213   8.219  10.805  10.610 -0.2574  0.7420 -0.3455
  430MOL0     C59214   8.351  10.799  10.531  0.9292  0.3159  0.0975
  430MOL0     C59215   8.459  10.865  10.605 -1.1440 -0.7864  0.3376
  430MOL0     C59216   8.489  11.017  10.595  0.0134 -0.1086 -0.8831
  430MOL0     C59217   8.368  11.109  10.594  0.4653 -0.2013  0.1916
  430MOL0     C59218   8.294  11.150  10.727 -0.6616  0.1160 -0.9592
  430MOL0     N59219   8.212  11.270  10.699 -0.1019  0.4778 -0.4238
  430MOL0     C59220   8.079  11.259  10.702  0.0148 -0.0921  0.5071
  430MOL0     C59221   8.028  11.387  10.683  0.6848  0.5683  0.0202
  430MOL0     C59222   7.890  11.445  10.662  0.9243  0.3959 -0.0589
  430MOL0     C59223   7.787  11.384  10.759  0.1958  0.1657 -0.2880
  430MOL0     C59224   7.737  11.247  10.716  0.3471  0.3676  0.5613
  430MOL0     C59225   7.660  11.256  10.582  0.0587  1.4544  0.3002
  430MOL0     O59226   7.558  11.364  10.582 -0.7100 -0.5551  0.0021
  430MOL0     C59227   7.513  11.407  10.461  1.0552  0.4300  0.3660
  430MOL0     C59228   7.487  11.325  10.356 -0.9867 -0.4104  0.6632
  430MOL0     C59229   7.435  11.364  10.231  0.0183  0.0477 -0.7402
  430MOL0     C59230   7.412  11.265  10.117 -0.3084 -0.3198  0.2669
  430MOL0     C59231   7.404  11.501  10.218 -0.4684 -0.7937  0.3503
  430MOL0     C59232   7.352  11.560  10.096 -0.5055 -0.2425  0.5319
  430MOL0     O59233   7.427  11.662  10.046 -0.6557 -0.4089  0.1290
  430MOL0     C59234   7.390  11.723   9.923 -0.6196  0.0362  0.0603
  430MOL0     C59235   7.387  11.867   9.925 -0.2789  0.5226  0.4275
  430MOL0     C59236   7.370  11.930   9.802  0.3085  0.6958  0.0521
  430MOL0     C59237   7.366  11.858   9.685  0.3406 -0.0821  0.6474
  430MOL0     O59238   7.348  11.923   9.567  0.4469  0.0337 -0.1281
  430MOL0     C59239   7.466  11.930   9.488 -0.0751 -0.5719 -0.9943
  430MOL0     C59240   7.444  11.974   9.345  0.5355  0.4913  0.3433
  430MOL0     C59241   7.379  11.874   9.253  0.4367  0.2058 -0.7123
  430MOL0     C59242   7.223  11.890   9.254 -0.3567  0.3500  0.1207
  430MOL0     C59243   7.194  11.895   9.097 -0.4320 -1.3652  0.4103
  430MOL0     C59244   7.218  11.761   9.011 -0.5957 -0.9987  0.6445
  430MOL0     C59245   7.129  11.650   9.070 -0.2432  0.2615 -0.4583
  430MOL0     C59246   7.086  11.554   8.960 -0.6549 -0.5515 -0.0923
  430MOL0    Cl59247   7.239  11.464   8.907 -0.0036 -0.4839  0.2075
  430MOL0     C59248   7.354  11.720   9.689 -0.0357 -0.0808 -0.9093
  430MOL0     C59249   7.371  11.648   9.810  0.0018  0.0136  1.0545
  430MOL0     O59250   7.259  11.509  10.037 -0.2202  0.1285 -0.3393
  430MOL0     C59251   7.431  11.587  10.322  1.2897 -0.6394  0.1576
  430MOL0     C59252   7.480  11.545  10.442  0.2177  0.6180 -0.4116
  430MOL0     N59253   8.136  11.476  10.671  0.3734 -0.1407 -0.3392
  430MOL0     N59254   8.246  11.397  10.680  0.1181  0.3619 -0.1595
  430MOL0     C59255   8.002  10.913  10.940  0.3181 -0.1374 -0.1365
  430MOL0     C59256   7.970  10.861  11.069 -0.3505  1.1182  0.2713
  430MOL0     C59257   7.738  10.613  11.377  0.4378 -0.1793  0.3770
  430MOL0     C59258   7.632  10.695  11.411 -0.1683 -0.7048 -1.0371
  430MOL0     C59259   7.578  10.677  11.542 -0.7675  0.4129 -0.0808
  430MOL0     C59260   7.626  10.586  11.634  0.0751  0.1206  0.6303
  430MOL0     O59261   7.555  10.559  11.749  0.3651 -0.4663 -0.3798
  430MOL0     C59262   7.618  10.467  11.847 -0.4710 -0.2736  0.4903
  430MOL0     C59263   7.591  10.516  11.991 -0.2362  0.4836  0.1463
  430MOL0     C59264   7.433  10.511  12.009 -0.7367 -1.0955  0.4856
  430MOL0     C59265   7.382  10.589  12.134 -1.0532 -1.4025  0.0614
  430MOL0     C59266   7.448  10.540  12.261 -0.0982 -0.7033 -0.0971
  430MOL0     C59267   7.502  10.522  12.366 -0.0976  0.7433  0.3000
  430MOL0     C59268   7.731  10.497  11.588 -0.4767 -0.4600 -0.5201
  430MOL0     C59269   7.791  10.513  11.461  0.0738  0.1526  0.0864
  430MOL0     C59270   7.918  10.437  11.437 -0.3606  0.6398 -0.0982
  430MOL0     H59271   7.665  10.727  11.002 -0.2137  1.4602  0.9489
  430MOL0     H59272   7.739  10.783  10.762  0.7050 -2.3030  0.0285
  430MOL0     H59273   7.874  10.806  10.560 -0.3274  0.5453 -0.0220
  430MOL0     H59274   7.950  10.705  10.689  0.9484  1.4388  1.6122
  430MOL0     H59275   8.057  10.742  10.464 -0.5608 -0.8938  1.7641
  430MOL0     H59276   8.078  10.913  10.486  0.8255 -0.7203 -2.8102
  430MOL0     H59277   8.221  10.903  10.659 -6.0131  3.0800 -3.7085
  430MOL0     H59278   8.232  10.727  10.685 -0.4051  0.6094 -0.4571
  430MOL0     H59279   8.384  10.696  10.515  0.6209 -0.8266  5.0923
  430MOL0     H59280   8.333  10.856  10.440  0.1951  0.3494  0.2611
  430MOL0     H59281   8.552  10.821  10.569 -1.3559 -1.7194  0.8900
  430MOL0     H59282   8.447  10.845  10.712  0.0418 -0.2424  0.5836
  430MOL0     H59283   8.549  11.042  10.683 -1.3385 -0.6770  0.2344
  430MOL0     H59284   8.549  11.033  10.505  0.7594 -2.1866 -0.8225
  430MOL0     H59285   8.290  11.074  10.526  0.3571  1.6684 -0.7115
  430MOL0     H59286   8.398  11.205  10.550  2.6630  0.1129  2.1726
  430MOL0     H59287   8.234  11.071  10.773 -0.2037 -2.0275 -3.7749
  430MOL0     H59288   8.377  11.179  10.793 -1.0595 -1.3649  0.2346
  430MOL0     H59289   8.023  11.166  10.708  1.6671 -1.1231  0.5746
  430MOL0     H59290   7.870  11.416  10.559  3.7527 -2.0107 -0.0397
  430MOL0     H59291   7.887  11.554  10.655 -1.6564  0.3442 -0.7380
  430MOL0     H59292   7.836  11.365  10.855 -0.4307  1.7370  0.3799
  430MOL0     H59293   7.706  11.456  10.775 -1.2843 -1.2464 -1.1024
  430MOL0     H59294   7.822  11.179  10.704  0.1874  0.4003 -0.8824
  430MOL0     H59295   7.669  11.207  10.792  0.1742  1.5747  1.0727
  430MOL0     H59296   7.735  11.267  10.503  1.2879 -2.1505  0.7679
  430MOL0     H59297   7.625  11.154  10.565  0.2801  1.8970 -3.8913
  430MOL0     H59298   7.492  11.218  10.368 -1.1739 -0.3750  1.0651
  430MOL0     H59299   7.470  11.176  10.144  1.8442  0.4699 -1.4310
  430MOL0     H59300   7.459  11.297  10.023  5.8825  3.2334  3.8531
  430MOL0     H59301   7.306  11.241  10.112 -0.2795 -0.3131 -0.6738
  430MOL0     H59302   7.392  11.934  10.009 -1.5585 -1.0464  1.8287
  430MOL0     H59303   7.354  12.037   9.792  0.0554  0.5580 -1.1756
  430MOL0     H59304   7.530  12.011   9.524 -1.2429  2.2589 -4.6557
  430MOL0     H59305   7.518  11.834   9.487  0.1466 -0.4635 -0.1192
  430MOL0     H59306   7.382  12.064   9.340  0.0172  0.0652 -1.8344
  430MOL0     H59307   7.541  11.991   9.298  0.0286 -1.2727 -1.5202
  430MOL0     H59308   7.397  11.771   9.286 -0.3659  0.2902  0.0325
  430MOL0     H59309   7.423  11.894   9.155  0.7910 -1.1697 -0.8495
  430MOL0     H59310   7.189  11.983   9.300  2.6787  1.8934 -0.5253
  430MOL0     H59311   7.168  11.807   9.301 -0.1401 -0.7342 -1.4675
  430MOL0     H59312   7.090  11.924   9.079 -0.9707 -1.9001  2.3826
  430MOL0     H59313   7.252  11.981   9.063 -1.3668 -0.6948  0.4837
  430MOL0     H59314   7.326  11.743   9.015 -0.8158 -2.2894  1.0930
  430MOL0     H59315   7.194  11.787   8.907  4.7356 -1.7602 -1.1229
  430MOL0     H59316   7.045  11.706   9.114 -0.2132 -1.4623  1.9806
  430MOL0     H59317   7.171  11.598   9.156  1.8322 -0.4588 -1.8351
  430MOL0     H59318   7.034  11.598   8.874  0.1120  4.7648  1.7829
  430MOL0     H59319   7.020  11.477   9.001 -0.9198 -0.0781  0.3703
  430MOL0     H59320   7.346  11.667   9.594 -0.6457 -0.7590 -0.4906
  430MOL0     H59321   7.378  11.540   9.807  1.9337 -0.0085  3.0637
  430MOL0     H59322   7.401  11.691  10.328  0.0077 -0.8465 -1.8479
  430MOL0     H59323   7.490  11.608  10.530  0.5198 -2.4962  1.9485
  430MOL0     H59324   8.085  10.978  10.918 -1.8591  3.0084  0.2780
  430MOL0     H59325   8.038  10.886  11.150 -2.3641  5.4143  0.8806
  430MOL0     H59326   7.590  10.763  11.337  0.8707 -0.8834 -1.8152
  430MOL0     H59327   7.488  10.733  11.565  0.1356  1.3165  1.3814
  430MOL0     H59328   7.576  10.369  11.823 -0.3148 -0.2162 -0.0482
  430MOL0     H59329   7.727  10.461  11.838 -0.3624 -1.9070  2.3312
  430MOL0     H59330   7.649  10.608  12.003  2.8277 -1.6097  3.5958
  430MOL0     H59331   7.633  10.440  12.058 -2.6042 -0.9969  0.0662
  430MOL0     H59332   7.377  10.534  11.917 -1.3961 -1.0555  0.8894
  430MOL0     H59333   7.404  10.406  12.024  1.6395 -2.1244 -1.4112
  430MOL0     H59334   7.274  10.589  12.151 -0.7577  0.1302  2.3162
  430MOL0     H59335   7.412  10.692  12.115 -2.2385 -1.1686 -0.6481
  430MOL0     H59336   7.547  10.534  12.463  1.5048 -1.4722 -0.0900
  430MOL0     H59337   7.763  10.413  11.650 -0.8427 -0.8051 -0.7943
  430MOL0     H59338   7.943  10.394  11.534 -1.0377 -1.4180 -0.7903
  430MOL0     H59339   7.905  10.355  11.367  0.1795 -3.2999  3.9663
  430MOL0     H59340   7.997  10.503  11.400 -1.2791  1.4941 -0.6010
  431MOL0     O59341   3.507   8.818   4.628 -0.2812  0.6627 -0.4647
  431MOL0     C59342   3.554   8.706   4.606  0.0656  0.3743  1.0457
  431MOL0     O59343   3.582   8.611   4.690 -0.1500  0.5310 -0.3722
  431MOL0     C59344   3.519   8.607   4.811  0.6130  0.2168 -0.0151
  431MOL0     C59345   3.588   8.593   4.928 -0.5914 -1.2572  0.1400
  431MOL0     C59346   3.523   8.583   5.057 -0.6413 -0.4120 -0.1786
  431MOL0     C59347   3.386   8.602   5.067 -0.4577 -0.0643 -0.2741
  431MOL0     O59348   3.323   8.586   5.192  0.0334  0.3543  0.5411
  431MOL0     C59349   3.220   8.483   5.195  0.4972  0.9264 -0.2326
  431MOL0     C59350   3.215   8.425   5.333 -0.7967 -0.2195  0.6782
  431MOL0     C59351   3.350   8.347   5.367  0.1042 -0.0348 -0.6196
  431MOL0     C59352   3.370   8.324   5.516  0.6798 -0.5105  0.0139
  431MOL0     C59353   3.488   8.236   5.544 -0.8301 -0.7800  0.9076
  431MOL0     C59354   3.483   8.189   5.684 -0.1515 -1.0143  0.1283
  431MOL0     C59355   3.617   8.131   5.727 -0.6489  1.0978 -0.2903
  431MOL0     C59356   3.634   8.003   5.659 -0.4061  0.4887 -0.0126
  431MOL0     N59357   3.721   7.919   5.740 -0.2417  0.4344 -0.3286
  431MOL0     C59358   3.674   7.827   5.836 -0.3096  0.2977  0.1689
  431MOL0     C59359   3.780   7.759   5.882  0.6062 -0.1652  0.1401
  431MOL0     C59360   3.788   7.646   5.978  0.1845 -1.0277  0.1241
  431MOL0     C59361   3.693   7.536   5.939  0.6417  0.1929 -0.4529
  431MOL0     C59362   3.720   7.400   5.990  0.1862  0.0946 -0.4140
  431MOL0     C59363   3.591   7.315   5.979  0.7954  0.0168 -0.1480
  431MOL0     O59364   3.551   7.302   5.842 -0.7052 -0.3261  0.2399
  431MOL0     C59365   3.508   7.182   5.793  0.0488  0.1884  0.0142
  431MOL0     C59366   3.556   7.154   5.669  0.1113  0.1884  1.0670
  431MOL0     C59367   3.533   7.030   5.606  0.0401  0.5965  0.0010
  431MOL0     C59368   3.582   7.017   5.464  0.4865  0.3404  0.3787
  431MOL0     C59369   3.462   6.931   5.677  0.2851  1.5647 -1.0486
  431MOL0     C59370   3.433   6.791   5.623  0.0130 -0.8280  0.3466
  431MOL0     O59371   3.351   6.709   5.696  0.8317  0.8013  0.1549
  431MOL0     C59372   3.398   6.585   5.704 -0.7294 -0.9692  0.0233
  431MOL0     C59373   3.337   6.492   5.621 -0.1547  0.5577  0.0430
  431MOL0     C59374   3.383   6.364   5.617  0.9959 -0.8368  0.4960
  431MOL0     C59375   3.497   6.328   5.689 -0.0505  1.0048 -0.6733
  431MOL0     O59376   3.530   6.195   5.692  0.2238  0.0417  0.0475
  431MOL0     C59377   3.669   6.165   5.714 -0.0822 -0.3345 -0.5284
  431MOL0     C59378   3.696   6.020   5.691 -0.1452  0.0792  0.2712
  431MOL0     C59379   3.806   5.946   5.773 -0.5245 -0.4868 -0.0119
  431MOL0     C59380   3.950   5.979   5.741 -0.7594  0.7872  1.0338
  431MOL0     C59381   4.039   5.931   5.854  0.3903  0.0676  0.3214
  431MOL0     C59382   4.181   5.928   5.805 -0.2900  0.5003  0.2394
  431MOL0     C59383   4.282   5.856   5.890 -0.7123 -0.1798  0.2177
  431MOL0     C59384   4.281   5.904   6.035 -0.5114  0.2367  0.1656
  431MOL0    Cl59385   4.337   5.777   6.136 -0.1936  0.0994  0.1051
  431MOL0     C59386   3.564   6.426   5.764 -0.2676  0.0221 -0.7035
  431MOL0     C59387   3.514   6.555   5.776 -0.3502 -0.7347  0.2245
  431MOL0     O59388   3.485   6.761   5.512  0.3894 -0.5590 -2.0574
  431MOL0     C59389   3.411   6.965   5.803 -0.0898 -0.2719 -0.4991
  431MOL0     C59390   3.435   7.090   5.862  0.1443 -0.1350 -0.4912
  431MOL0     N59391   3.885   7.827   5.832 -0.1764  0.7568  0.4022
  431MOL0     N59392   3.850   7.930   5.758  0.2430  0.3427 -0.2647
  431MOL0     C59393   3.314   8.624   4.949  0.7268 -0.9436  0.0906
  431MOL0     C59394   3.378   8.619   4.817  1.2263  0.0316 -0.2120
  431MOL0     C59395   3.598   8.677   4.463 -0.8899  0.1460  0.6065
  431MOL0     C59396   3.631   8.541   4.427  1.1688  0.1468 -0.3975
  431MOL0     C59397   3.659   8.510   4.293  0.9735  1.2751 -0.7109
  431MOL0     C59398   3.660   8.602   4.191  1.0271 -0.5021  0.4871
  431MOL0     O59399   3.681   8.548   4.065  0.5439 -0.5083 -0.1899
  431MOL0     C59400   3.792   8.619   4.002  0.7081  0.4185 -1.0380
  431MOL0     C59401   3.901   8.528   3.985  0.2679  0.0780 -0.3203
  431MOL0     C59402   3.900   8.424   3.871  0.8019 -1.0995 -0.5080
  431MOL0     C59403   4.012   8.324   3.883 -0.4182  0.4466  0.5709
  431MOL0     C59404   4.136   8.374   3.830 -0.6717  0.3980 -1.0726
  431MOL0     C59405   4.255   8.401   3.800  0.5323  0.2169 -0.3723
  431MOL0     C59406   3.615   8.731   4.227  0.2047 -0.4117 -0.4694
  431MOL0     C59407   3.594   8.777   4.361  0.3266  0.0225 -0.8542
  431MOL0     C59408   3.555   8.921   4.377 -0.9496  0.2761 -0.0996
  431MOL0     H59409   3.695   8.614   4.920 -0.7508 -0.0367  0.9471
  431MOL0     H59410   3.572   8.583   5.153 -3.4395 -1.0527  1.3420
  431MOL0     H59411   3.235   8.398   5.127 -0.6045  1.1305 -0.7527
  431MOL0     H59412   3.124   8.528   5.172 -0.5748 -0.3661  1.4214
  431MOL0     H59413   3.198   8.505   5.406  5.0870  1.5618  0.6153
  431MOL0     H59414   3.129   8.358   5.344 -0.6241 -0.5668 -0.0076
  431MOL0     H59415   3.358   8.255   5.307  2.3603 -0.5179  0.3395
  431MOL0     H59416   3.437   8.404   5.334  0.2354 -0.9527 -1.9399
  431MOL0     H59417   3.396   8.414   5.571  1.6734 -1.9727  2.0675
  431MOL0     H59418   3.274   8.277   5.544  2.5792 -2.7112  3.6546
  431MOL0     H59419   3.578   8.288   5.510 -0.4857 -1.7568  0.2870
  431MOL0     H59420   3.507   8.149   5.480  2.8806  1.9452 -2.1893
  431MOL0     H59421   3.469   8.271   5.755  3.3258  0.1545 -0.3669
  431MOL0     H59422   3.395   8.133   5.717  0.1007 -0.9253  0.9953
  431MOL0     H59423   3.614   8.114   5.835  1.2270 -2.0164 -0.6175
  431MOL0     H59424   3.700   8.200   5.711 -0.1035  0.3530 -0.7131
  431MOL0     H59425   3.536   7.955   5.649 -0.8805  1.5685 -0.6795
  431MOL0     H59426   3.682   8.012   5.561 -0.8878 -2.7910 -0.6710
  431MOL0     H59427   3.576   7.790   5.862 -0.5058  1.5355  1.2997
  431MOL0     H59428   3.779   7.686   6.079  2.6844 -0.9943  0.4062
  431MOL0     H59429   3.885   7.595   5.976  1.1717  0.7220  1.4254
  431MOL0     H59430   3.601   7.559   5.993 -0.9413 -2.7961 -1.6976
  431MOL0     H59431   3.674   7.541   5.831  3.7553  4.1433 -1.0503
  431MOL0     H59432   3.791   7.347   5.925 -0.0695  1.7395 -2.1473
  431MOL0     H59433   3.760   7.404   6.091 -0.5582  1.3370 -0.1410
  431MOL0     H59434   3.621   7.217   6.016  4.2416  0.5283 -1.2348
  431MOL0     H59435   3.507   7.349   6.041  0.0384 -1.8981 -0.0786
  431MOL0     H59436   3.614   7.235   5.624 -1.1533  0.1844 -0.6950
  431MOL0     H59437   3.650   6.933   5.447 -2.2995 -2.3664  1.4953
  431MOL0     H59438   3.622   7.116   5.442  1.3102  0.0794  0.6712
  431MOL0     H59439   3.493   6.998   5.403 -0.9226 -0.4373  2.5715
  431MOL0     H59440   3.246   6.517   5.567 -1.0100  1.7213  1.9171
  431MOL0     H59441   3.330   6.280   5.575  1.6437 -1.0121  0.0101
  431MOL0     H59442   3.727   6.232   5.651 -0.6537 -0.7915 -1.5704
  431MOL0     H59443   3.708   6.179   5.815  0.7236 -3.5417 -0.2894
  431MOL0     H59444   3.602   5.973   5.723 -2.7719  4.1236 -0.7347
  431MOL0     H59445   3.700   5.994   5.585 -2.7313 -4.2820  0.9796
  431MOL0     H59446   3.790   5.839   5.762  1.8707 -0.6571 -3.3541
  431MOL0     H59447   3.793   5.978   5.877 -0.1811  0.6553 -0.2995
  431MOL0     H59448   3.968   6.086   5.721  1.0105 -0.0793 -3.1591
  431MOL0     H59449   3.985   5.935   5.647  1.0760  0.8287  1.6609
  431MOL0     H59450   4.023   6.021   5.915  1.8884  0.8111 -0.3417
  431MOL0     H59451   4.004   5.838   5.901 -2.9426  1.0797  0.0894
  431MOL0     H59452   4.226   6.025   5.783  1.6077 -0.7882 -2.1585
  431MOL0     H59453   4.171   5.876   5.709 -0.3529  0.9810 -0.0158
  431MOL0     H59454   4.385   5.862   5.852 -0.7045  0.3148  0.3058
  431MOL0     H59455   4.250   5.752   5.884 -3.0250  0.3131  2.4072
  431MOL0     H59456   4.177   5.923   6.062 -1.1136 -1.2788 -0.9387
  431MOL0     H59457   4.333   5.997   6.063  1.0083 -0.8174  0.9656
  431MOL0     H59458   3.641   6.399   5.835  2.6518  5.1964 -1.4153
  431MOL0     H59459   3.572   6.626   5.835  2.2528  0.1501 -3.0560
  431MOL0     H59460   3.364   6.883   5.856  0.0359  0.0728  0.1527
  431MOL0     H59461   3.422   7.099   5.970  2.4411 -0.6470 -0.1248
  431MOL0     H59462   3.206   8.628   4.954  0.3943 -2.4958 -3.2455
  431MOL0     H59463   3.321   8.639   4.727 -1.0230  1.6950  1.4731
  431MOL0     H59464   3.630   8.469   4.508 -2.5560 -0.3278 -0.6965
  431MOL0     H59465   3.693   8.407   4.280 -1.9124  0.4225 -2.5441
  431MOL0     H59466   3.771   8.659   3.903  2.3073  0.1484 -1.5147
  431MOL0     H59467   3.827   8.702   4.064  0.1138 -0.0163 -0.0828
  431MOL0     H59468   3.935   8.499   4.085 -0.8133  1.8440  0.6184
  431MOL0     H59469   3.980   8.591   3.943  3.5317 -1.9443  2.2659
  431MOL0     H59470   3.812   8.365   3.899  1.8814 -3.0578 -1.1033
  431MOL0     H59471   3.896   8.478   3.776  0.2320 -0.0143  0.1060
  431MOL0     H59472   3.994   8.235   3.822 -0.3381  0.2613  0.8185
  431MOL0     H59473   4.031   8.285   3.983  0.4553 -2.0989 -0.5071
  431MOL0     H59474   4.343   8.431   3.746 -0.6833  3.5247 -0.7525
  431MOL0     H59475   3.609   8.805   4.148 -1.5870  2.2191  1.9232
  431MOL0     H59476   3.629   8.978   4.434 -0.6247 -0.3926  0.1595
  431MOL0     H59477   3.541   8.966   4.278 -1.7306 -1.7420 -0.9729
  431MOL0     H59478   3.467   8.944   4.437  0.3507  2.6666  1.0427
  432MOL0     O59479   6.711   8.080   6.799  0.4949 -0.6642  0.1599
  432MOL0     C59480   6.644   7.985   6.838 -0.2596 -0.5445  0.6040
  432MOL0     O59481   6.603   7.881   6.756 -0.0201 -0.8863  0.2575
  432MOL0     C59482   6.645   7.882   6.627  0.4672  0.1528  0.2191
  432MOL0     C59483   6.772   7.833   6.590 -1.1575  0.0447 -0.6602
  432MOL0     C59484   6.822   7.850   6.459 -0.0989 -1.2954 -0.0386
  432MOL0     C59485   6.737   7.921   6.364 -0.0050  0.6918  1.0645
  432MOL0     O59486   6.796   7.939   6.239 -0.0085  0.5363 -0.3629
  432MOL0     C59487   6.755   7.846   6.139 -0.2036  0.0104 -1.0697
  432MOL0     C59488   6.789   7.918   6.009  1.2380 -0.7111 -0.0794
  432MOL0     C59489   6.794   7.815   5.893 -0.3557  0.2096  1.0011
  432MOL0     C59490   6.665   7.800   5.819  1.0628 -0.1814  0.0120
  432MOL0     C59491   6.655   7.675   5.731  0.6529 -0.1431 -0.2051
  432MOL0     C59492   6.513   7.676   5.663 -0.7952  0.3089  0.0053
  432MOL0     C59493   6.505   7.550   5.568 -0.6220 -0.0443  0.3831
  432MOL0     C59494   6.374   7.538   5.494 -0.2013  0.3998  0.4515
  432MOL0     N59495   6.295   7.428   5.538  0.3105  0.1887  0.2535
  432MOL0     C59496   6.195   7.452   5.636 -1.2598  0.2189 -0.5332
  432MOL0     C59497   6.143   7.328   5.659  0.1797 -0.8029  0.4090
  432MOL0     C59498   6.038   7.299   5.756  0.4960 -0.4727  0.2200
  432MOL0     C59499   5.899   7.362   5.734 -0.5447 -0.7853 -0.4246
  432MOL0     C59500   5.802   7.317   5.838  0.8015 -0.7988 -1.3822
  432MOL0     C59501   5.784   7.157   5.865 -0.1747 -0.1592 -0.5437
  432MOL0     O59502   5.660   7.134   5.919  1.2991 -0.3243 -0.5646
  432MOL0     C59503   5.579   7.030   5.883 -0.2000  0.6448 -0.2362
  432MOL0     C59504   5.630   6.919   5.816  0.5887 -0.5301  0.2646
  432MOL0     C59505   5.550   6.815   5.780  0.2856  0.3274  0.3222
  432MOL0     C59506   5.621   6.689   5.720  1.4588 -0.0405  0.6703
  432MOL0     C59507   5.414   6.822   5.802 -0.2089  0.4699  0.0107
  432MOL0     C59508   5.329   6.690   5.789  0.4512  0.1063  0.0691
  432MOL0     O59509   5.249   6.694   5.676  0.1681 -0.1420 -0.2230
  432MOL0     C59510   5.167   6.590   5.635 -0.1278 -0.7703 -0.8685
  432MOL0     C59511   5.208   6.456   5.623  1.4955 -0.4225 -0.3344
  432MOL0     C59512   5.113   6.353   5.587 -1.2775  1.1331 -0.0966
  432MOL0     C59513   4.975   6.386   5.564 -0.6639  0.3624  0.2346
  432MOL0     O59514   4.879   6.297   5.548  0.3779 -0.2559 -0.1274
  432MOL0     C59515   4.909   6.162   5.505 -0.5872 -0.1554  0.3097
  432MOL0     C59516   4.779   6.108   5.465  0.4326  0.8588 -0.4253
  432MOL0     C59517   4.688   6.078   5.578 -0.1816 -0.4298 -0.0542
  432MOL0     C59518   4.581   5.978   5.539 -0.5667  0.2168  0.2637
  432MOL0     C59519   4.447   6.035   5.580 -0.6991  0.3413 -0.0862
  432MOL0     C59520   4.403   6.133   5.481  0.9514 -0.2873  0.5953
  432MOL0     C59521   4.271   6.187   5.536  0.4515 -0.3602 -1.4430
  432MOL0     C59522   4.188   6.247   5.423  0.2342  0.1522 -0.2842
  432MOL0    Cl59523   4.032   6.276   5.488 -0.0762  0.0741 -0.0707
  432MOL0     C59524   4.940   6.521   5.570  0.5407  0.4444  0.1350
  432MOL0     C59525   5.033   6.625   5.611  0.0221  0.5677 -0.6996
  432MOL0     O59526   5.333   6.595   5.859  1.0126 -0.0538  0.2717
  432MOL0     C59527   5.358   6.930   5.862  0.8624 -0.6709  0.4342
  432MOL0     C59528   5.440   7.033   5.905 -0.1776 -1.5158  0.8105
  432MOL0     N59529   6.193   7.243   5.567  0.3442 -0.1083 -0.2688
  432MOL0     N59530   6.293   7.299   5.495 -0.7626 -0.3431  0.6320
  432MOL0     C59531   6.612   7.963   6.406 -0.0841  0.7652  0.7854
  432MOL0     C59532   6.562   7.943   6.536 -0.9233  0.6915 -1.0868
  432MOL0     C59533   6.594   7.990   6.982 -0.6962  0.6868  0.1501
  432MOL0     C59534   6.497   7.903   7.015 -0.0633 -0.0901 -0.3949
  432MOL0     C59535   6.427   7.908   7.135  0.8152 -0.1839 -1.0751
  432MOL0     C59536   6.481   7.981   7.247  0.8262 -0.1841  0.0863
  432MOL0     O59537   6.435   7.943   7.372 -0.5070  0.5174  0.5717
  432MOL0     C59538   6.478   8.021   7.490  0.1718  0.9819 -0.2083
  432MOL0     C59539   6.397   8.161   7.503 -0.1790 -0.5453  0.1557
  432MOL0     C59540   6.257   8.144   7.568  0.3945 -0.4012 -0.8023
  432MOL0     C59541   6.158   8.094   7.474  0.1736 -0.0400  0.1540
  432MOL0     C59542   6.034   8.068   7.551 -0.5952  0.3626  1.9425
  432MOL0     C59543   5.936   8.038   7.614 -0.2241 -0.1038 -0.4828
  432MOL0     C59544   6.576   8.083   7.207 -0.7667  0.4070  0.3583
  432MOL0     C59545   6.614   8.100   7.072  1.5252  0.6803 -0.3963
  432MOL0     C59546   6.716   8.203   7.047 -0.6688 -0.0993  0.8730
  432MOL0     H59547   6.842   7.789   6.660 -0.2079 -0.5018 -1.9043
  432MOL0     H59548   6.922   7.818   6.430 -0.3109 -1.2204 -0.8807
  432MOL0     H59549   6.654   7.806   6.154 -0.6125  1.8830  1.8752
  432MOL0     H59550   6.824   7.761   6.146  0.4050  0.6433  2.2646
  432MOL0     H59551   6.714   7.992   5.981  0.9966 -1.2799 -1.0084
  432MOL0     H59552   6.881   7.976   6.024  1.4839 -1.5194  1.7759
  432MOL0     H59553   6.874   7.838   5.821 -1.1234  0.2185  0.1360
  432MOL0     H59554   6.807   7.716   5.937 -1.7187 -0.6510 -0.4201
  432MOL0     H59555   6.583   7.799   5.891 -1.1749  3.3232 -2.1924
  432MOL0     H59556   6.638   7.884   5.754 -0.6495 -1.9555 -1.7370
  432MOL0     H59557   6.670   7.580   5.784 -0.6809 -1.4166 -1.9787
  432MOL0     H59558   6.720   7.680   5.643  0.3401 -0.3340 -0.4489
  432MOL0     H59559   6.434   7.680   5.738 -1.9104 -0.6403 -1.0819
  432MOL0     H59560   6.492   7.766   5.605 -1.9312 -0.6424 -1.1102
  432MOL0     H59561   6.518   7.464   5.634 -2.9389 -0.1955  0.7271
  432MOL0     H59562   6.582   7.555   5.490  0.1590 -0.4619  1.1010
  432MOL0     H59563   6.322   7.634   5.504  2.9945  2.3651 -0.4393
  432MOL0     H59564   6.402   7.543   5.389 -0.7592  2.5126  0.3584
  432MOL0     H59565   6.197   7.538   5.703  0.9696 -1.4257  1.6784
  432MOL0     H59566   6.065   7.326   5.858  1.9094  3.0351 -0.9511
  432MOL0     H59567   6.023   7.190   5.759  0.5932 -0.5696 -1.5993
  432MOL0     H59568   5.912   7.470   5.724  2.2318 -1.1765 -2.2362
  432MOL0     H59569   5.857   7.336   5.637 -0.6644 -0.2510 -0.5213
  432MOL0     H59570   5.810   7.372   5.932  4.1212  0.5702 -2.3326
  432MOL0     H59571   5.710   7.353   5.790  2.1187 -0.4524 -3.8116
  432MOL0     H59572   5.801   7.115   5.766  0.5812  0.0512 -0.5139
  432MOL0     H59573   5.860   7.123   5.936 -2.0471 -1.2561  1.0261
  432MOL0     H59574   5.736   6.896   5.817  0.4330 -1.4029 -1.1567
  432MOL0     H59575   5.723   6.694   5.758  0.4126  3.5166  3.6439
  432MOL0     H59576   5.611   6.688   5.611  0.3440  2.2412  0.6989
  432MOL0     H59577   5.572   6.596   5.751 -1.7552 -0.1999 -3.9020
  432MOL0     H59578   5.307   6.438   5.663  2.3511  0.4280 -1.9996
  432MOL0     H59579   5.140   6.249   5.597 -2.9060  0.6836 -0.1213
  432MOL0     H59580   4.980   6.164   5.422 -0.6919 -2.6192  0.1022
  432MOL0     H59581   4.964   6.108   5.582 -0.7769  0.0788  0.6154
  432MOL0     H59582   4.729   6.165   5.386 -0.9080  1.2053  0.6377
  432MOL0     H59583   4.805   6.010   5.426 -2.3436 -0.1719  0.0820
  432MOL0     H59584   4.648   6.173   5.614  0.3261 -0.0938 -0.3621
  432MOL0     H59585   4.749   6.034   5.657  0.6861 -2.0753 -1.5705
  432MOL0     H59586   4.595   5.889   5.601  1.5502 -1.2121 -2.0574
  432MOL0     H59587   4.589   5.957   5.431 -1.9753  0.5228  0.0800
  432MOL0     H59588   4.378   5.953   5.596 -0.5637 -0.1258 -1.7253
  432MOL0     H59589   4.467   6.078   5.679  3.2251 -0.7408 -0.2198
  432MOL0     H59590   4.376   6.082   5.389 -0.3362  0.8082  0.3397
  432MOL0     H59591   4.471   6.217   5.462 -1.1121  1.6728  1.4082
  432MOL0     H59592   4.287   6.266   5.610  0.2110  1.5893 -3.3698
  432MOL0     H59593   4.210   6.112   5.588 -0.2741  1.3768  0.3754
  432MOL0     H59594   4.185   6.171   5.344 -0.7162  2.5831 -2.7738
  432MOL0     H59595   4.236   6.331   5.371 -0.3450  1.4578  1.1912
  432MOL0     H59596   4.837   6.543   5.544 -0.5890 -2.3809  1.7863
  432MOL0     H59597   5.016   6.732   5.608  0.2478  0.8483  3.0817
  432MOL0     H59598   5.249   6.928   5.867  0.6267  3.5845  0.4079
  432MOL0     H59599   5.406   7.116   5.966 -1.3094 -0.9060 -0.6059
  432MOL0     H59600   6.545   8.009   6.334 -0.9775 -0.6094  0.7078
  432MOL0     H59601   6.465   7.970   6.578 -1.9462 -2.3011 -1.2828
  432MOL0     H59602   6.460   7.830   6.943  2.1030 -1.6013 -0.0921
  432MOL0     H59603   6.332   7.857   7.146 -0.1862  1.0131 -3.4813
  432MOL0     H59604   6.455   7.956   7.575 -1.3898 -0.3417 -1.5605
  432MOL0     H59605   6.585   8.041   7.490  0.1314  1.2026 -0.7167
  432MOL0     H59606   6.391   8.209   7.406  1.4846 -0.1545  0.2169
  432MOL0     H59607   6.460   8.232   7.557 -0.7684  0.2412 -0.1668
  432MOL0     H59608   6.268   8.082   7.657  1.8140 -0.4646 -0.9983
  432MOL0     H59609   6.222   8.246   7.587 -0.3035 -0.7423 -0.2176
  432MOL0     H59610   6.191   7.997   7.435 -1.4652 -0.2930 -0.7138
  432MOL0     H59611   6.138   8.155   7.386 -0.1110 -1.4410 -0.7940
  432MOL0     H59612   5.860   8.018   7.687  1.7823 -0.6859  1.5813
  432MOL0     H59613   6.620   8.144   7.285  0.5087  1.1079 -0.8510
  432MOL0     H59614   6.746   8.266   7.131  0.1630  0.4659  0.1762
  432MOL0     H59615   6.807   8.155   7.009 -3.0046 -2.2635 -2.5772
  432MOL0     H59616   6.692   8.277   6.969  1.8331  2.2725  2.1854
  433MOL0     O59617  11.064   5.482   9.375  0.0294  0.4144 -0.3497
  433MOL0     C59618  11.067   5.574   9.295 -0.3338 -0.3713  0.0012
  433MOL0     O59619  11.167   5.671   9.278  0.2116  0.2860  0.5082
  433MOL0     C59620  11.262   5.681   9.381  0.5721  1.1337 -0.1575
  433MOL0     C59621  11.245   5.757   9.498  1.0226 -0.8871  0.2924
  433MOL0     C59622  11.351   5.770   9.576 -0.0360  0.2218 -0.3734
  433MOL0     C59623  11.470   5.703   9.549  0.1109  0.3878  0.7429
  433MOL0     O59624  11.568   5.708   9.652 -0.1454  0.0979  0.1813
  433MOL0     C59625  11.514   5.661   9.768  0.0553  0.5257 -0.3035
  433MOL0     C59626  11.617   5.621   9.874 -0.1175 -0.4640  0.2517
  433MOL0     C59627  11.675   5.744   9.948  0.0139  1.0610  0.0596
  433MOL0     C59628  11.807   5.701  10.022 -1.3538 -0.9409  0.5928
  433MOL0     C59629  11.863   5.843  10.096 -1.3751 -0.3500  0.5231
  433MOL0     C59630  11.805   5.885  10.221  0.2839  0.1058 -0.0100
  433MOL0     C59631  11.882   6.009  10.282 -0.5526 -0.2735 -0.6940
  433MOL0     C59632  11.830   6.138  10.210  0.0593 -1.1509 -0.4547
  433MOL0     N59633  11.856   6.257  10.292 -0.0053  0.1632 -0.2934
  433MOL0     C59634  11.969   6.286  10.355  0.6922  0.4915  1.3079
  433MOL0     C59635  11.947   6.396  10.418 -0.7402 -0.4371  0.3131
  433MOL0     C59636  12.041   6.479  10.490 -0.1382  0.3103  1.0291
  433MOL0     C59637  12.175   6.504  10.409  0.4207  0.7630  0.1440
  433MOL0     C59638  12.158   6.590  10.284 -0.4369  1.2515  0.7734
  433MOL0     C59639  12.083   6.723  10.287  0.1869 -0.7289 -0.6869
  433MOL0     O59640  12.116   6.790  10.409 -0.4032 -0.9432 -0.3237
  433MOL0     C59641  12.152   6.923  10.399 -1.1685  0.0631  0.4803
  433MOL0     C59642  12.256   6.979  10.473 -0.3371  0.6229 -0.3283
  433MOL0     C59643  12.265   7.120  10.483  0.4158  0.2088 -0.3636
  433MOL0     C59644  12.388   7.165  10.545  0.0694 -0.2617 -0.2437
  433MOL0     C59645  12.169   7.210  10.424  0.3920 -1.0843  0.5041
  433MOL0     C59646  12.171   7.357  10.431 -0.6394  0.1984 -0.0966
  433MOL0     O59647  12.293   7.418  10.426  0.0624 -0.2741  0.1159
  433MOL0     C59648  12.283   7.556  10.421 -0.4495  0.5060 -0.0585
  433MOL0     C59649  12.195   7.649  10.483 -0.1258  0.1264 -0.0511
  433MOL0     C59650  12.193   7.788  10.458  0.6360 -0.4116 -0.2463
  433MOL0     C59651  12.268   7.841  10.350 -0.3165  0.1811  0.9060
  433MOL0     O59652  12.254   7.978  10.299  0.1333 -0.8555 -0.2676
  433MOL0     C59653  12.179   8.073  10.378 -0.3024  0.1686 -0.8541
  433MOL0     C59654  12.209   8.216  10.322 -0.7235  0.6675  0.3796
  433MOL0     C59655  12.157   8.324  10.415 -0.3047 -0.3334 -0.0856
  433MOL0     C59656  12.011   8.319  10.423 -0.2810  0.1652 -0.1652
  433MOL0     C59657  11.959   8.453  10.492  1.0540  0.1987 -0.4065
  433MOL0     C59658  11.827   8.417  10.562 -0.5933  0.4725  0.7460
  433MOL0     C59659  11.770   8.533  10.637 -0.6611  0.2540  0.4498
  433MOL0     C59660  11.725   8.654  10.548  0.0544  0.0350 -0.5203
  433MOL0    Cl59661  11.618   8.602  10.408  0.0145 -0.3864  0.4872
  433MOL0     C59662  12.365   7.754  10.290 -0.4986 -0.1777 -0.7822
  433MOL0     C59663  12.380   7.614  10.329  0.1326  0.4086  0.6193
  433MOL0     O59664  12.059   7.406  10.428  1.7890 -0.6435  1.0061
  433MOL0     C59665  12.069   7.144  10.351  0.0205 -0.2875 -0.4594
  433MOL0     C59666  12.064   7.005  10.327 -0.4683  0.6233 -0.0788
  433MOL0     N59667  11.812   6.426  10.409  0.2828  0.1687  0.2234
  433MOL0     N59668  11.759   6.345  10.326  0.2990  0.4430  0.2117
  433MOL0     C59669  11.491   5.629   9.434 -0.2013  0.5700 -0.5630
  433MOL0     C59670  11.378   5.620   9.355 -0.7481  1.4117  0.4206
  433MOL0     C59671  10.962   5.566   9.189 -0.2797 -0.7534  0.1158
  433MOL0     C59672  10.985   5.649   9.079  0.2441 -0.4599  0.0516
  433MOL0     C59673  10.887   5.660   8.972 -0.6091  0.0669  1.0478
  433MOL0     C59674  10.769   5.586   8.976  0.0675 -0.1594 -0.2103
  433MOL0     O59675  10.674   5.607   8.880  0.3005 -0.4298  0.5054
  433MOL0     C59676  10.558   5.518   8.858 -1.0748 -0.5201  0.7903
  433MOL0     C59677  10.433   5.562   8.920  0.2313  0.5073 -0.6127
  433MOL0     C59678  10.312   5.467   8.890 -0.2848 -0.1190 -0.3671
  433MOL0     C59679  10.206   5.518   8.791 -0.9517  0.5678  0.0308
  433MOL0     C59680  10.105   5.605   8.859  0.2456  0.1749  0.0338
  433MOL0     C59681  10.026   5.672   8.919 -0.1525 -0.5698  0.3236
  433MOL0     C59682  10.749   5.493   9.080  0.7330  0.1079 -0.5691
  433MOL0     C59683  10.847   5.484   9.184  0.5286 -0.0929  0.2039
  433MOL0     C59684  10.813   5.392   9.295  0.3579  0.5904  1.2390
  433MOL0     H59685  11.162   5.824   9.518  2.3555  0.1892  2.6561
  433MOL0     H59686  11.352   5.830   9.666  2.8893 -1.0437  0.5596
  433MOL0     H59687  11.460   5.567   9.754  0.1988  0.5690 -1.2127
  433MOL0     H59688  11.454   5.737   9.819  0.1118  1.3048 -1.3604
  433MOL0     H59689  11.577   5.567   9.960  0.1123  2.0755  2.0797
  433MOL0     H59690  11.701   5.570   9.825 -0.4754 -0.5391 -0.2888
  433MOL0     H59691  11.691   5.818   9.869 -0.8673  0.9215 -0.2560
  433MOL0     H59692  11.606   5.769  10.029  0.2905  0.1473  0.5944
  433MOL0     H59693  11.792   5.624  10.099 -2.8689  1.2650  2.6393
  433MOL0     H59694  11.891   5.672   9.958 -1.0495  3.2313 -1.1924
  433MOL0     H59695  11.858   5.923  10.021 -0.1428 -0.3205  0.4610
  433MOL0     H59696  11.968   5.816  10.113 -0.6037 -0.0758 -2.9968
  433MOL0     H59697  11.700   5.915  10.218  0.7557  1.8853  0.1895
  433MOL0     H59698  11.810   5.798  10.287 -0.0102 -0.8642 -1.2261
  433MOL0     H59699  11.990   6.001  10.267 -0.4051 -0.1390  0.2807
  433MOL0     H59700  11.854   6.013  10.387 -2.5014 -3.6419 -0.9201
  433MOL0     H59701  11.884   6.153  10.116 -0.7333  0.6951 -0.6586
  433MOL0     H59702  11.722   6.126  10.196  0.2253 -0.7750 -2.3410
  433MOL0     H59703  12.065   6.237  10.342 -0.5067 -1.5872 -0.2882
  433MOL0     H59704  12.073   6.438  10.587  2.8174  4.9405  2.2963
  433MOL0     H59705  11.996   6.576  10.512  0.8774  0.8247  0.9158
  433MOL0     H59706  12.249   6.550  10.475 -1.5202 -1.0077  3.8865
  433MOL0     H59707  12.205   6.400  10.393 -2.4364 -0.9472  4.1019
  433MOL0     H59708  12.257   6.588  10.236 -0.7924 -1.3866 -0.0106
  433MOL0     H59709  12.111   6.522  10.213  2.7071  1.0504 -1.3589
  433MOL0     H59710  12.095   6.782  10.196 -3.0763  0.8159 -0.2675
  433MOL0     H59711  11.980   6.688  10.302  0.8778 -1.6163  2.6443
  433MOL0     H59712  12.313   6.899  10.519 -1.5126 -0.8226 -1.2957
  433MOL0     H59713  12.426   7.084  10.608 -2.0912 -1.4551 -0.3645
  433MOL0     H59714  12.358   7.254  10.600  2.5454  0.6575 -0.2593
  433MOL0     H59715  12.465   7.203  10.477  1.2565  0.5145  1.4738
  433MOL0     H59716  12.132   7.614  10.565  2.0787  2.2607  2.7891
  433MOL0     H59717  12.130   7.841  10.528  2.8805  1.3725  0.5428
  433MOL0     H59718  12.070   8.069  10.364 -0.7715  0.2516  2.2106
  433MOL0     H59719  12.200   8.060  10.484  0.7599  0.7017 -0.9875
  433MOL0     H59720  12.318   8.232  10.323 -0.6950  0.4650  0.6777
  433MOL0     H59721  12.176   8.225  10.218  0.8515  0.5424 -0.1668
  433MOL0     H59722  12.186   8.422  10.375 -2.5330 -0.2485 -1.7303
  433MOL0     H59723  12.202   8.313  10.514  0.5731  0.5750 -0.3665
  433MOL0     H59724  11.977   8.230  10.476  0.1753 -1.3541 -2.3363
  433MOL0     H59725  11.964   8.303  10.326  0.9127 -1.5405 -0.4989
  433MOL0     H59726  12.021   8.503  10.567 -2.5391  0.9492  2.3096
  433MOL0     H59727  11.933   8.526  10.415 -4.1218  2.8008  3.2292
  433MOL0     H59728  11.855   8.326  10.617  3.2024 -0.3521 -2.1689
  433MOL0     H59729  11.763   8.386  10.480  4.6122 -3.0312 -2.5540
  433MOL0     H59730  11.845   8.572  10.707  0.2014 -1.5938  0.5986
  433MOL0     H59731  11.679   8.506  10.692 -1.0182  0.8677  0.1742
  433MOL0     H59732  11.820   8.700  10.520  0.3166 -1.3589 -2.0907
  433MOL0     H59733  11.664   8.720  10.610 -0.0890 -1.6389  1.1818
  433MOL0     H59734  12.431   7.806  10.221  0.7440 -0.5482  0.0898
  433MOL0     H59735  12.449   7.551  10.274 -0.1998 -0.1193  0.7944
  433MOL0     H59736  11.983   7.199  10.314 -0.1235 -1.6397 -2.2320
  433MOL0     H59737  11.977   6.959  10.283 -1.8899 -1.9673  4.7790
  433MOL0     H59738  11.580   5.576   9.400  0.3269  0.5707  0.7438
  433MOL0     H59739  11.391   5.566   9.262 -0.2988  0.4566  1.0255
  433MOL0     H59740  11.072   5.713   9.067  0.7730 -1.2584 -0.4537
  433MOL0     H59741  10.924   5.724   8.892  1.7545  1.6852  3.2737
  433MOL0     H59742  10.533   5.521   8.751 -0.7879  0.5740  0.7436
  433MOL0     H59743  10.592   5.416   8.875  0.6601  0.1078  1.2614
  433MOL0     H59744  10.411   5.665   8.889 -1.2246 -0.2820 -2.4267
  433MOL0     H59745  10.443   5.576   9.028  3.8329 -0.3892 -0.7110
  433MOL0     H59746  10.344   5.368   8.856 -1.8400 -1.5164  1.9924
  433MOL0     H59747  10.261   5.440   8.983 -0.7282  1.5297 -0.1096
  433MOL0     H59748  10.153   5.430   8.754 -4.7814  3.2578 -1.5208
  433MOL0     H59749  10.250   5.557   8.698 -0.5885  3.3547  1.2617
  433MOL0     H59750   9.961   5.739   8.972 -0.0611  0.0433 -0.3231
  433MOL0     H59751  10.655   5.440   9.074 -1.3541  3.2795  1.2465
  433MOL0     H59752  10.732   5.326   9.262 -1.2007  2.9828 -0.0457
  433MOL0     H59753  10.894   5.320   9.313 -0.2996 -1.2682 -2.3375
  433MOL0     H59754  10.774   5.450   9.379  0.0245 -1.7127  2.7870
  434MOL0     O59755  10.825   7.031   2.810 -0.0729 -0.1198  0.4886
  434MOL0     C59756  10.838   7.000   2.927  0.3033  0.2384  0.2272
  434MOL0     O59757  10.841   7.086   3.036 -0.1872 -1.2654  0.4508
  434MOL0     C59758  10.806   7.213   3.006 -0.1151 -0.2663 -0.3403
  434MOL0     C59759  10.857   7.305   2.916 -0.6171  0.4714 -0.0833
  434MOL0     C59760  10.813   7.438   2.902  0.3052  0.9644  0.5621
  434MOL0     C59761  10.704   7.481   2.981  0.2442 -0.8098 -0.0444
  434MOL0     O59762  10.651   7.617   2.980 -0.0086 -0.7994  0.4583
  434MOL0     C59763  10.729   7.711   2.907 -0.7994 -0.4837  0.3652
  434MOL0     C59764  10.691   7.857   2.951 -0.2970 -0.1376  0.7762
  434MOL0     C59765  10.540   7.883   2.916 -0.2983  0.1951 -0.3550
  434MOL0     C59766  10.517   8.032   2.888  0.0333 -0.3028  0.2552
  434MOL0     C59767  10.550   8.075   2.745  0.1683 -0.0151  0.4357
  434MOL0     C59768  10.431   8.032   2.656 -0.5216  0.4912  0.7100
  434MOL0     C59769  10.295   8.082   2.697 -0.2066 -0.3179  0.1914
  434MOL0     C59770  10.311   8.230   2.698  0.0727 -0.0645  0.4762
  434MOL0     N59771  10.191   8.304   2.650  1.0330 -0.4877 -0.3149
  434MOL0     C59772  10.061   8.259   2.654  0.2024  0.3882 -1.7563
  434MOL0     C59773   9.987   8.367   2.629 -0.1126  0.8794 -0.4018
  434MOL0     C59774   9.841   8.371   2.599  0.2102 -1.1152 -0.2004
  434MOL0     C59775   9.815   8.407   2.453 -0.0236 -0.5567  0.5884
  434MOL0     C59776   9.908   8.342   2.352  0.3754  0.1635 -0.0962
  434MOL0     C59777   9.891   8.195   2.311  0.4461 -0.3359  0.2600
  434MOL0     O59778   9.974   8.185   2.189 -1.3146  0.8114 -0.2032
  434MOL0     C59779  10.102   8.141   2.220 -0.2948  0.1962  0.5603
  434MOL0     C59780  10.113   8.009   2.254  0.3854  1.1329  0.6601
  434MOL0     C59781  10.230   7.948   2.291 -0.2374  0.4874 -0.0999
  434MOL0     C59782  10.221   7.806   2.346  0.8889 -0.2615  0.6231
  434MOL0     C59783  10.356   8.018   2.276  0.6033  0.3726  0.5360
  434MOL0     C59784  10.486   7.961   2.303  0.1207  0.0491 -0.6159
  434MOL0     O59785  10.497   7.836   2.356  0.3202 -0.1316 -0.4475
  434MOL0     C59786  10.616   7.777   2.346 -1.2689 -0.2667  0.0165
  434MOL0     C59787  10.662   7.688   2.242  1.1915 -0.7644  0.3966
  434MOL0     C59788  10.783   7.624   2.251  0.1892 -0.0592  0.0612
  434MOL0     C59789  10.849   7.625   2.376 -1.1350 -0.5445 -0.7229
  434MOL0     O59790  10.975   7.583   2.409 -0.1953 -0.8021  0.0470
  434MOL0     C59791  11.044   7.539   2.294 -0.8242  0.3789  0.6133
  434MOL0     C59792  11.189   7.490   2.332  0.6531 -0.7566 -0.5252
  434MOL0     C59793  11.285   7.457   2.221  0.3127  0.0896 -0.0379
  434MOL0     C59794  11.223   7.398   2.092 -0.3078  0.2667 -0.7387
  434MOL0     C59795  11.321   7.389   1.984 -0.0566  0.4669 -0.0170
  434MOL0     C59796  11.428   7.283   2.019  0.1495 -0.0221  0.5501
  434MOL0     C59797  11.495   7.217   1.900  0.0713  0.5767 -0.6750
  434MOL0     C59798  11.582   7.323   1.834 -0.5274  0.2159  0.1754
  434MOL0    Cl59799  11.662   7.227   1.700 -0.3915 -0.2492  0.1836
  434MOL0     C59800  10.802   7.698   2.473 -0.3267  0.7394 -0.2447
  434MOL0     C59801  10.688   7.776   2.462  0.3437  0.0908 -0.5883
  434MOL0     O59802  10.586   8.040   2.287  0.0022  0.6825 -0.2286
  434MOL0     C59803  10.336   8.163   2.244 -0.7604 -0.2378 -0.4704
  434MOL0     C59804  10.210   8.220   2.221  0.2361  0.2527 -0.2565
  434MOL0     N59805  10.073   8.467   2.616  0.6380 -0.0022 -0.0175
  434MOL0     N59806  10.194   8.434   2.610 -0.0631  0.2536 -0.1807
  434MOL0     C59807  10.646   7.391   3.073 -0.1668 -0.4665  1.1656
  434MOL0     C59808  10.692   7.251   3.079 -0.0807 -0.8616 -0.9801
  434MOL0     C59809  10.881   6.866   2.959 -0.0916  1.2757  1.0071
  434MOL0     C59810  10.966   6.799   2.881 -0.0050 -0.0630  0.1015
  434MOL0     C59811  11.007   6.671   2.909 -0.7229  0.7623  0.6454
  434MOL0     C59812  10.980   6.599   3.026  0.7417  0.2627  0.3996
  434MOL0     O59813  11.026   6.477   3.051 -0.3048  0.6096  0.1337
  434MOL0     C59814  11.076   6.468   3.187 -0.1055  0.3215  0.9140
  434MOL0     C59815  11.173   6.353   3.195  0.5689 -0.4196 -0.4497
  434MOL0     C59816  11.293   6.346   3.091 -0.9401  0.0015 -0.0245
  434MOL0     C59817  11.378   6.215   3.111  0.1640 -0.3585 -0.2818
  434MOL0     C59818  11.319   6.098   3.047  0.0155 -0.7720 -0.4343
  434MOL0     C59819  11.276   5.991   3.000 -0.7958  0.7475 -0.7180
  434MOL0     C59820  10.880   6.666   3.101  0.4685 -0.4366  0.0371
  434MOL0     C59821  10.835   6.792   3.072 -0.5115 -1.3593  0.0723
  434MOL0     C59822  10.766   6.862   3.188 -0.8743 -0.0028  0.4426
  434MOL0     H59823  10.933   7.287   2.840  0.8495  2.8662  0.7138
  434MOL0     H59824  10.851   7.499   2.821  0.0596 -0.6237 -0.8136
  434MOL0     H59825  10.719   7.709   2.798 -0.8265 -0.1295  0.3599
  434MOL0     H59826  10.835   7.698   2.931 -0.7636  0.4000  0.7198
  434MOL0     H59827  10.717   7.867   3.056  1.5907 -0.5934  0.3953
  434MOL0     H59828  10.742   7.933   2.891  0.6560 -1.9965 -0.9294
  434MOL0     H59829  10.506   7.813   2.839 -3.1108  0.3754  0.6134
  434MOL0     H59830  10.486   7.860   3.008  1.0992 -1.8397  0.0277
  434MOL0     H59831  10.415   8.065   2.913  0.4269  2.3443 -1.2309
  434MOL0     H59832  10.585   8.086   2.954 -0.9244  1.8759 -0.4366
  434MOL0     H59833  10.638   8.024   2.704 -0.5142  1.1281 -2.7750
  434MOL0     H59834  10.563   8.183   2.734 -0.0395 -0.1979 -2.7118
  434MOL0     H59835  10.457   8.065   2.555  1.2396 -1.1015  0.5691
  434MOL0     H59836  10.432   7.923   2.648  1.6267  0.4482  0.9490
  434MOL0     H59837  10.265   8.038   2.793  0.7600 -1.2798  0.0712
  434MOL0     H59838  10.229   8.045   2.619  1.2439  1.3260 -1.9438
  434MOL0     H59839  10.353   8.280   2.785 -1.5790  1.7213  0.3161
  434MOL0     H59840  10.381   8.258   2.619 -0.4231  1.3882  0.5235
  434MOL0     H59841  10.037   8.153   2.658  2.2954 -0.0755  0.5052
  434MOL0     H59842   9.795   8.440   2.670 -3.1608 -2.1927 -1.1265
  434MOL0     H59843   9.813   8.268   2.621 -0.5671 -0.6522  1.0481
  434MOL0     H59844   9.711   8.377   2.437 -0.6482 -1.3590  4.8277
  434MOL0     H59845   9.824   8.516   2.441  0.3128 -0.3695  2.2963
  434MOL0     H59846   9.903   8.400   2.259 -1.7311 -4.3074 -3.0928
  434MOL0     H59847  10.013   8.349   2.380  1.3649 -2.0206 -2.7979
  434MOL0     H59848   9.911   8.132   2.398 -1.8822  1.6474  2.3603
  434MOL0     H59849   9.787   8.175   2.288  0.7614 -1.7989  0.0097
  434MOL0     H59850  10.021   7.958   2.280  0.8947  1.0045  2.3648
  434MOL0     H59851  10.123   7.768   2.375 -0.3954  1.5798 -1.1116
  434MOL0     H59852  10.293   7.784   2.426  1.4956 -0.6563 -0.0241
  434MOL0     H59853  10.249   7.736   2.267  0.8868 -0.1261  0.5017
  434MOL0     H59854  10.616   7.666   2.146  0.9971 -2.1271  0.7771
  434MOL0     H59855  10.813   7.579   2.157  0.7853  3.4147 -1.5550
  434MOL0     H59856  10.999   7.455   2.241  0.4759 -0.8075  1.3012
  434MOL0     H59857  11.054   7.623   2.226  0.1977 -1.2834 -1.4216
  434MOL0     H59858  11.240   7.568   2.390  1.0564  1.3587 -3.4777
  434MOL0     H59859  11.176   7.397   2.388  1.4868 -1.6419 -1.7451
  434MOL0     H59860  11.354   7.385   2.265 -0.9816 -0.8783  0.4407
  434MOL0     H59861  11.339   7.549   2.196  1.4746  0.3440  2.9798
  434MOL0     H59862  11.163   7.481   2.055  1.0368  0.7794 -1.8245
  434MOL0     H59863  11.157   7.314   2.117 -0.6314  1.3182  2.4570
  434MOL0     H59864  11.259   7.362   1.897 -0.9466  0.9021  0.4646
  434MOL0     H59865  11.364   7.488   1.966 -0.7769  1.0140  1.1655
  434MOL0     H59866  11.364   7.210   2.071 -3.5872 -0.7895 -4.3410
  434MOL0     H59867  11.490   7.325   2.098  1.1329 -0.8802  0.2601
  434MOL0     H59868  11.420   7.164   1.842 -0.5551  0.4980  0.1930
  434MOL0     H59869  11.563   7.139   1.936 -0.4760  0.6892  0.6646
  434MOL0     H59870  11.650   7.359   1.912 -2.0193 -1.9152  2.6260
  434MOL0     H59871  11.527   7.406   1.787 -0.0852  0.8020  0.6772
  434MOL0     H59872  10.866   7.704   2.561 -1.1383 -1.1779  0.5244
  434MOL0     H59873  10.660   7.837   2.547  0.6228  1.2582 -1.3001
  434MOL0     H59874  10.415   8.237   2.246 -0.5057 -0.5189  1.4953
  434MOL0     H59875  10.195   8.325   2.196 -2.2122  0.4270  1.6004
  434MOL0     H59876  10.560   7.421   3.131  0.6127 -1.5479  2.9629
  434MOL0     H59877  10.648   7.175   3.144  1.6289 -3.4707 -2.6694
  434MOL0     H59878  11.012   6.858   2.803 -1.5721  1.1825  0.0735
  434MOL0     H59879  11.087   6.632   2.847 -1.1407 -1.5748  1.4839
  434MOL0     H59880  11.126   6.561   3.215  3.7197 -1.9546  2.4316
  434MOL0     H59881  11.000   6.453   3.265 -0.3487  1.3880  0.9039
  434MOL0     H59882  11.117   6.259   3.190 -0.0539 -0.0059 -2.4734
  434MOL0     H59883  11.218   6.346   3.294 -4.2660  3.8791  2.5838
  434MOL0     H59884  11.270   6.354   2.984 -0.7472 -3.4342 -0.4187
  434MOL0     H59885  11.361   6.423   3.128  0.1029 -1.7456  1.8858
  434MOL0     H59886  11.394   6.195   3.217  0.6312  0.5788 -0.1703
  434MOL0     H59887  11.472   6.233   3.057  0.5752 -1.6160 -0.0111
  434MOL0     H59888  11.247   5.899   2.954  1.5411  0.5751 -1.9965
  434MOL0     H59889  10.848   6.632   3.199  1.9017 -1.7630  0.0970
  434MOL0     H59890  10.681   6.919   3.147 -0.5117  1.8328  2.0898
  434MOL0     H59891  10.724   6.791   3.260 -0.7561 -0.7914 -0.2514
  434MOL0     H59892  10.842   6.926   3.233  0.6979 -0.4869 -1.3879
  435MOL0     O59893   4.483   2.048   0.554 -0.1312 -0.5948 -0.3559
  435MOL0     C59894   4.433   2.076   0.442  0.6773  0.5884 -0.4422
  435MOL0     O59895   4.447   2.008   0.327  0.7724  0.6785  0.1812
  435MOL0     C59896   4.558   1.923   0.308 -0.7229 -0.8148  0.6688
  435MOL0     C59897   4.682   1.926   0.381  0.1931  0.1663  0.1658
  435MOL0     C59898   4.786   1.842   0.355 -0.2567  0.1965 -0.8322
  435MOL0     C59899   4.771   1.745   0.259  0.0760 -0.3664 -0.6245
  435MOL0     O59900   4.864   1.654   0.238 -1.0417 -1.0302 -0.6870
  435MOL0     C59901   5.000   1.678   0.266  0.1780  1.2312 -0.2450
  435MOL0     C59902   5.087   1.556   0.255 -1.0632  0.4250 -0.9736
  435MOL0     C59903   5.084   1.495   0.112 -0.2977  0.6767 -0.3876
  435MOL0     C59904   5.181   1.377   0.084  0.1833 -0.5663  0.0787
  435MOL0     C59905   5.141   1.317  -0.050  0.8712  0.0924 -0.1217
  435MOL0     C59906   5.175   1.421  -0.157  0.6822  0.3666  0.8050
  435MOL0     C59907   5.210   1.350  -0.289  0.4397  0.7121 -0.2520
  435MOL0     C59908   5.127   1.400  -0.404  0.4826  0.6566  0.4571
  435MOL0     N59909   5.127   1.292  -0.504 -0.3940 -0.5528 -0.4486
  435MOL0     C59910   5.068   1.175  -0.489  0.3489 -0.2492 -0.4066
  435MOL0     C59911   5.107   1.101  -0.599 -1.2744  0.0036 -0.4330
  435MOL0     C59912   5.053   0.974  -0.654 -0.7573  0.1856  0.5004
  435MOL0     C59913   4.947   1.016  -0.756  0.1865 -0.9125  0.6538
  435MOL0     C59914   5.008   1.023  -0.902  0.0472  1.0401  0.6738
  435MOL0     C59915   4.889   1.023  -1.006 -0.3910 -1.1360 -1.0291
  435MOL0     O59916   4.950   1.037  -1.127  0.0599 -0.6542  0.3209
  435MOL0     C59917   4.875   0.994  -1.241  0.8632 -0.5457 -0.7315
  435MOL0     C59918   4.730   0.991  -1.238 -0.9099  0.0323  0.6150
  435MOL0     C59919   4.651   0.952  -1.355  0.7941  0.7163 -0.6907
  435MOL0     C59920   4.503   0.953  -1.335  0.0203 -1.1258  0.2342
  435MOL0     C59921   4.722   0.921  -1.467  0.1609 -0.5527  0.7588
  435MOL0     C59922   4.652   0.888  -1.600 -1.1581  0.5607 -1.1015
  435MOL0     O59923   4.736   0.914  -1.709 -0.3713 -1.0889 -0.3279
  435MOL0     C59924   4.675   0.908  -1.839 -0.5743  0.9564 -0.3328
  435MOL0     C59925   4.573   0.824  -1.894  0.0559  0.8920  0.4165
  435MOL0     C59926   4.528   0.841  -2.028 -0.4218 -0.7234  0.2786
  435MOL0     C59927   4.585   0.947  -2.101 -0.3178 -0.3191 -0.2726
  435MOL0     O59928   4.537   0.966  -2.230  0.0692  0.5942  0.0080
  435MOL0     C59929   4.424   1.051  -2.247 -0.4559 -0.4049  0.3117
  435MOL0     C59930   4.334   1.002  -2.352 -0.3537  1.0648 -0.0479
  435MOL0     C59931   4.260   0.867  -2.320 -0.9648  0.8332  0.4216
  435MOL0     C59932   4.126   0.903  -2.262  1.0982  0.3898 -0.1366
  435MOL0     C59933   4.060   0.777  -2.201 -0.2580  0.6848 -0.0283
  435MOL0     C59934   3.991   0.686  -2.293  0.5453 -0.6188  0.2541
  435MOL0     C59935   3.857   0.746  -2.333  0.9658  1.1480  0.3759
  435MOL0     C59936   3.753   0.637  -2.339 -0.9318  0.5454 -0.0546
  435MOL0    Cl59937   3.588   0.686  -2.374 -0.1119 -0.4468  0.0326
  435MOL0     C59938   4.691   1.027  -2.053  0.3333 -0.7182  0.5747
  435MOL0     C59939   4.726   1.009  -1.925 -0.0918  0.4853  0.2186
  435MOL0     O59940   4.539   0.841  -1.604 -0.4768 -0.0569 -0.2386
  435MOL0     C59941   4.864   0.936  -1.476  0.6598  0.2602  0.3749
  435MOL0     C59942   4.941   0.963  -1.359  0.0873  0.2662 -0.3628
  435MOL0     N59943   5.212   1.171  -0.655 -0.5727  0.4662  0.7004
  435MOL0     N59944   5.225   1.283  -0.600 -0.2285 -0.0701 -1.0648
  435MOL0     C59945   4.652   1.733   0.183 -0.3793 -0.3945  0.6399
  435MOL0     C59946   4.549   1.828   0.208 -0.0329  0.8465  0.1573
  435MOL0     C59947   4.344   2.199   0.437 -0.3564  0.1490 -0.2711
  435MOL0     C59948   4.356   2.301   0.546 -0.3397  0.5108  0.7791
  435MOL0     C59949   4.274   2.415   0.545 -0.0832 -0.0341 -0.1159
  435MOL0     C59950   4.189   2.438   0.436  0.5137  0.4097  0.2122
  435MOL0     O59951   4.094   2.538   0.437 -1.1889  1.0822 -0.2305
  435MOL0     C59952   3.966   2.497   0.486 -1.3814 -0.0605 -0.9296
  435MOL0     C59953   3.958   2.495   0.631  0.3581  0.3494  0.0151
  435MOL0     C59954   3.831   2.566   0.681 -0.6910 -0.1759  0.1868
  435MOL0     C59955   3.835   2.721   0.712  0.7812 -1.1777 -0.9580
  435MOL0     C59956   3.704   2.765   0.764  0.0178 -0.5414  0.8797
  435MOL0     C59957   3.597   2.804   0.797 -0.1513 -0.0010  0.2210
  435MOL0     C59958   4.176   2.339   0.335  0.3166 -0.0189 -1.1196
  435MOL0     C59959   4.252   2.226   0.329 -0.8894 -0.5271 -0.4107
  435MOL0     C59960   4.225   2.129   0.235  0.3559 -0.2256  0.7401
  435MOL0     H59961   4.705   1.997   0.460 -1.6438  0.3625  0.5701
  435MOL0     H59962   4.874   1.844   0.419 -0.0314 -4.0751 -0.7381
  435MOL0     H59963   5.001   1.721   0.367  1.1192  1.1405 -0.2058
  435MOL0     H59964   5.036   1.750   0.192  0.0931  1.3211 -0.1989
  435MOL0     H59965   5.186   1.586   0.289 -1.2558 -0.2026  0.1879
  435MOL0     H59966   5.051   1.487   0.332 -4.5599  0.0204 -2.7718
  435MOL0     H59967   4.981   1.458   0.106 -0.6482  1.7037 -0.8761
  435MOL0     H59968   5.105   1.571   0.036  4.7617 -2.0559 -2.2268
  435MOL0     H59969   5.287   1.402   0.084  0.1814 -0.5332  0.6874
  435MOL0     H59970   5.164   1.309   0.168  0.1659  2.4099  2.6879
  435MOL0     H59971   5.038   1.284  -0.061  1.9646 -3.8197 -0.1086
  435MOL0     H59972   5.197   1.228  -0.079 -0.5350 -1.1386  0.7717
  435MOL0     H59973   5.082   1.476  -0.175 -0.5873 -1.2547  2.1299
  435MOL0     H59974   5.256   1.492  -0.135  0.7526  0.6459 -0.2909
  435MOL0     H59975   5.194   1.242  -0.283 -0.9319  0.6788 -2.9390
  435MOL0     H59976   5.314   1.368  -0.314 -0.0709 -1.1134 -4.4756
  435MOL0     H59977   5.024   1.421  -0.372  0.7590  1.3514  0.9243
  435MOL0     H59978   5.170   1.491  -0.447  1.3661  0.3338  0.6488
  435MOL0     H59979   4.986   1.162  -0.420  0.7983 -1.8683 -0.1251
  435MOL0     H59980   5.013   0.919  -0.569  2.9554 -1.8493  1.1555
  435MOL0     H59981   5.118   0.911  -0.715 -2.7747  0.4992 -2.1887
  435MOL0     H59982   4.874   0.936  -0.766  2.8495 -3.3794 -0.6523
  435MOL0     H59983   4.895   1.107  -0.726  0.9362 -1.0786  2.5592
  435MOL0     H59984   5.079   1.104  -0.915  0.7921  0.5367  1.4522
  435MOL0     H59985   5.061   0.927  -0.907 -2.9675 -0.7889  0.8682
  435MOL0     H59986   4.832   0.930  -1.002 -2.1657 -0.2178 -3.0870
  435MOL0     H59987   4.821   1.103  -0.980 -0.8612 -1.4994 -1.1308
  435MOL0     H59988   4.674   1.026  -1.153 -0.9372  2.6950 -0.4103
  435MOL0     H59989   4.457   1.029  -1.400  1.9186  1.6816  1.9290
  435MOL0     H59990   4.495   0.974  -1.227  2.1579 -1.1947  0.4470
  435MOL0     H59991   4.463   0.854  -1.356  2.1841 -1.9233 -0.3776
  435MOL0     H59992   4.529   0.740  -1.840  1.8309 -1.7455 -1.9346
  435MOL0     H59993   4.449   0.777  -2.065 -1.0495 -0.0189  0.3775
  435MOL0     H59994   4.361   1.062  -2.158  0.2461  0.7341  0.6866
  435MOL0     H59995   4.452   1.155  -2.267 -0.1248 -0.5363  0.0740
  435MOL0     H59996   4.270   1.078  -2.398  0.1682 -0.9585 -4.6904
  435MOL0     H59997   4.396   0.990  -2.441  2.6999  1.3231  1.8985
  435MOL0     H59998   4.323   0.807  -2.254 -1.4082 -2.0868 -1.6454
  435MOL0     H59999   4.249   0.803  -2.407  0.0297 -1.2326  1.7345
  435MOL0     H60000   4.052   0.928  -2.339 -1.0674  0.8192  1.9554
  435MOL0     H60001   4.131   0.978  -2.183  1.7138 -2.0215  2.2505
  435MOL0     H60002   4.133   0.716  -2.147  2.3319  2.3268 -1.4213
  435MOL0     H60003   3.986   0.820  -2.133  1.5679  1.3620  1.6343
  435MOL0     H60004   3.984   0.602  -2.224 -0.4990  0.3544  1.3749
  435MOL0     H60005   4.043   0.655  -2.384 -0.0320 -0.7583 -0.0331
  435MOL0     H60006   3.865   0.785  -2.435 -1.1246 -0.5325 -0.5129
  435MOL0     H60007   3.818   0.828  -2.270  0.5386 -1.2974  3.5568
  435MOL0     H60008   3.735   0.582  -2.246 -0.7968 -1.3253 -1.0781
  435MOL0     H60009   3.785   0.557  -2.406 -1.6286  0.7117 -0.5887
  435MOL0     H60010   4.734   1.107  -2.113  2.1424 -1.2452  1.0899
  435MOL0     H60011   4.810   1.069  -1.891  2.7030 -2.2455 -1.2734
  435MOL0     H60012   4.915   0.910  -1.568 -3.2262  1.5525 -2.3667
  435MOL0     H60013   5.049   0.973  -1.363  0.0769  0.6043  0.0364
  435MOL0     H60014   4.649   1.662   0.101 -0.3675 -0.4726  0.7077
  435MOL0     H60015   4.457   1.810   0.153  0.4047 -1.5296  0.0874
  435MOL0     H60016   4.424   2.269   0.625 -0.9224 -1.0033  0.6987
  435MOL0     H60017   4.266   2.481   0.630  5.0908  2.9153 -1.5050
  435MOL0     H60018   3.899   2.566   0.434  0.4437  0.5406 -2.6046
  435MOL0     H60019   3.949   2.392   0.462  1.1207 -1.0615  1.1770
  435MOL0     H60020   4.044   2.540   0.680 -0.0110  1.3034 -0.1989
  435MOL0     H60021   3.956   2.390   0.662 -1.2662 -1.0717 -4.1709
  435MOL0     H60022   3.758   2.558   0.600 -1.1011 -0.0196  0.5378
  435MOL0     H60023   3.806   2.520   0.777  2.2498 -1.8736  0.2588
  435MOL0     H60024   3.856   2.763   0.613  0.0991 -1.9055 -1.4240
  435MOL0     H60025   3.912   2.728   0.789  0.5700  1.4958 -0.8753
  435MOL0     H60026   3.502   2.833   0.839  0.3104  2.5451 -0.3067
  435MOL0     H60027   4.098   2.346   0.259 -1.6084 -0.6165  0.6977
  435MOL0     H60028   4.213   2.029   0.278  1.9873 -0.1208  1.5533
  435MOL0     H60029   4.135   2.160   0.182  0.2637 -0.8278  0.5332
  435MOL0     H60030   4.306   2.123   0.161  2.3570  1.4634  2.6439
  436MOL0     O60031   3.172   4.426   5.471 -0.2983  0.4722 -0.3565
  436MOL0     C60032   3.066   4.485   5.438 -1.3941  0.5384  0.4453
  436MOL0     O60033   3.057   4.615   5.402  0.0195  0.7629 -0.1938
  436MOL0     C60034   3.148   4.713   5.380 -0.6111  0.5184  0.0669
  436MOL0     C60035   3.278   4.715   5.422 -0.4326 -0.1963 -0.4285
  436MOL0     C60036   3.372   4.811   5.392  0.3520 -0.4599 -0.8645
  436MOL0     C60037   3.339   4.906   5.295  0.4588 -0.5732  0.5147
  436MOL0     O60038   3.432   4.999   5.253 -0.7599  0.3604  0.2086
  436MOL0     C60039   3.415   5.076   5.138 -0.6125  0.4526  0.1129
  436MOL0     C60040   3.528   5.178   5.118 -0.2205 -0.9726 -0.3223
  436MOL0     C60041   3.489   5.297   5.031 -0.8170  0.4293  0.1966
  436MOL0     C60042   3.595   5.405   5.033  0.0605 -0.0408  0.4579
  436MOL0     C60043   3.539   5.525   4.958  0.1768  0.4497 -0.0320
  436MOL0     C60044   3.643   5.640   4.946  0.4809 -0.1058 -1.0699
  436MOL0     C60045   3.550   5.771   4.931 -0.1485  0.5400 -0.4509
  436MOL0     C60046   3.499   5.777   4.784  0.5670  0.7217  0.4408
  436MOL0     N60047   3.420   5.889   4.748  0.8119 -1.5817 -0.3666
  436MOL0     C60048   3.451   5.973   4.642  1.1093  0.4308 -0.1174
  436MOL0     C60049   3.357   6.072   4.649 -0.0919 -0.3140  0.0491
  436MOL0     C60050   3.354   6.187   4.547 -0.0784 -0.5047  0.8535
  436MOL0     C60051   3.468   6.285   4.566 -1.2601 -0.0561  0.4193
  436MOL0     C60052   3.435   6.411   4.497  0.0088  0.1368  0.5623
  436MOL0     C60053   3.355   6.516   4.569 -0.5059 -0.0090  0.1053
  436MOL0     O60054   3.414   6.541   4.698 -0.3121 -0.6922 -0.2744
  436MOL0     C60055   3.359   6.482   4.811  0.5208  0.4713  0.4687
  436MOL0     C60056   3.401   6.546   4.928  0.0048 -0.0675 -0.4731
  436MOL0     C60057   3.347   6.520   5.055  0.0321 -0.3756 -0.3607
  436MOL0     C60058   3.415   6.592   5.170 -0.4266 -0.4688 -0.0185
  436MOL0     C60059   3.254   6.409   5.073  0.4669 -0.2775 -0.2392
  436MOL0     C60060   3.209   6.354   5.198 -0.3834  0.9335  1.2180
  436MOL0     O60061   3.203   6.209   5.210 -0.4868 -0.0254 -0.3581
  436MOL0     C60062   3.146   6.158   5.328 -0.1771  0.5700  0.9564
  436MOL0     C60063   3.227   6.099   5.422  0.0249 -0.3035  0.0976
  436MOL0     C60064   3.179   6.039   5.539  0.5567 -0.3422  0.2619
  436MOL0     C60065   3.042   6.057   5.576  0.0373 -0.1196  0.4035
  436MOL0     O60066   3.010   5.991   5.692  0.1588  0.0221 -0.0652
  436MOL0     C60067   2.900   6.026   5.776 -0.4535  0.4460  0.3393
  436MOL0     C60068   2.783   5.933   5.746 -0.3688 -0.4159 -0.6719
  436MOL0     C60069   2.823   5.785   5.783  0.7666 -0.7300 -0.9584
  436MOL0     C60070   2.711   5.704   5.840 -0.5186  1.1590  0.8608
  436MOL0     C60071   2.760   5.557   5.873 -0.6607  0.6263  0.3028
  436MOL0     C60072   2.803   5.481   5.752 -1.2714  0.2428  0.5231
  436MOL0     C60073   2.958   5.478   5.757  0.1890  0.1619  0.2623
  436MOL0     C60074   3.018   5.439   5.621 -0.2851  0.3796  0.2444
  436MOL0    Cl60075   3.203   5.448   5.623  0.6868 -0.2601 -0.0771
  436MOL0     C60076   2.965   6.130   5.489  0.3578 -0.0906  0.2223
  436MOL0     C60077   3.018   6.175   5.360  0.2714  0.3889 -1.7428
  436MOL0     O60078   3.171   6.434   5.281 -0.2630  0.0627 -0.0558
  436MOL0     C60079   3.210   6.337   4.953 -0.9957  1.0594 -0.1055
  436MOL0     C60080   3.257   6.381   4.827 -0.5672 -0.7037  0.2239
  436MOL0     N60081   3.281   6.066   4.766  0.1214  0.0534  0.1135
  436MOL0     N60082   3.317   5.947   4.817  0.7417  1.6626  0.6341
  436MOL0     C60083   3.214   4.902   5.238  0.5164 -0.5143  0.6862
  436MOL0     C60084   3.115   4.809   5.280  0.1373  0.1022 -1.0580
  436MOL0     C60085   2.926   4.415   5.423  1.1305 -0.5143 -1.0411
  436MOL0     C60086   2.810   4.469   5.372  0.0049 -1.4689  0.1253
  436MOL0     C60087   2.689   4.391   5.361 -1.0853  0.2126 -0.3549
  436MOL0     C60088   2.694   4.250   5.398  0.7638  0.4562 -1.1581
  436MOL0     O60089   2.589   4.157   5.389 -0.9560 -0.2134  0.1339
  436MOL0     C60090   2.470   4.216   5.347  1.4186  0.1664  0.4683
  436MOL0     C60091   2.395   4.297   5.462  0.2263  1.4587 -1.3135
  436MOL0     C60092   2.348   4.195   5.563  0.6874  0.0494 -0.3567
  436MOL0     C60093   2.259   4.261   5.682 -0.5501 -0.8002 -0.8303
  436MOL0     C60094   2.341   4.284   5.792  0.0641 -0.4355 -0.0016
  436MOL0     C60095   2.416   4.323   5.885 -0.8907  1.0490  0.6701
  436MOL0     C60096   2.803   4.202   5.452 -0.3097 -1.5624 -0.2736
  436MOL0     C60097   2.919   4.280   5.464 -0.5289  0.2595 -0.6063
  436MOL0     C60098   3.030   4.195   5.528 -0.7728 -0.1887  0.0616
  436MOL0     H60099   3.321   4.642   5.491 -2.4454 -0.8896  0.1684
  436MOL0     H60100   3.475   4.812   5.425  1.2331  2.0636 -3.2408
  436MOL0     H60101   3.325   5.133   5.163 -1.0702  0.1053 -0.6881
  436MOL0     H60102   3.392   5.004   5.058  4.3479 -0.2719 -0.9587
  436MOL0     H60103   3.541   5.214   5.221 -1.4379 -0.2184 -0.4083
  436MOL0     H60104   3.616   5.126   5.080  1.9628  2.1816  0.0170
  436MOL0     H60105   3.480   5.267   4.926 -0.8699  2.4178 -0.4140
  436MOL0     H60106   3.394   5.341   5.062 -1.4032  0.3228 -1.3735
  436MOL0     H60107   3.623   5.439   5.133 -0.6758  1.2941  0.2409
  436MOL0     H60108   3.691   5.368   4.996  0.0262 -0.7381  1.0494
  436MOL0     H60109   3.462   5.560   5.028  1.3543  1.1083  0.9593
  436MOL0     H60110   3.507   5.495   4.858  0.6688  1.8739 -0.6320
  436MOL0     H60111   3.705   5.661   5.033  0.3815  3.3326 -1.6580
  436MOL0     H60112   3.710   5.625   4.861 -0.4895 -0.6165 -1.7627
  436MOL0     H60113   3.604   5.864   4.951 -2.0430  1.8522 -1.1783
  436MOL0     H60114   3.468   5.777   5.004 -0.7453 -0.3405 -1.0310
  436MOL0     H60115   3.587   5.797   4.722  0.9903 -1.9361  0.0798
  436MOL0     H60116   3.460   5.683   4.743  2.2362 -0.0287  0.4945
  436MOL0     H60117   3.527   5.957   4.566 -0.3271 -3.3887 -0.9349
  436MOL0     H60118   3.260   6.242   4.556  0.2760  0.7442 -2.1322
  436MOL0     H60119   3.358   6.137   4.450 -0.0976  1.1701 -0.0338
  436MOL0     H60120   3.486   6.303   4.672  2.4526  2.2231 -0.4246
  436MOL0     H60121   3.554   6.234   4.520 -1.1136  0.6970 -0.1620
  436MOL0     H60122   3.526   6.454   4.453 -0.2283  4.1167  3.4401
  436MOL0     H60123   3.372   6.386   4.411  2.7857 -0.7636 -1.3924
  436MOL0     H60124   3.358   6.607   4.508  1.6194  0.0618  0.2330
  436MOL0     H60125   3.267   6.453   4.580 -0.2309 -0.4961 -0.4585
  436MOL0     H60126   3.493   6.603   4.918 -0.0961  0.3711  0.7838
  436MOL0     H60127   3.360   6.681   5.201 -1.6762 -0.8665 -0.9810
  436MOL0     H60128   3.520   6.617   5.151 -0.1047  0.9350  3.1057
  436MOL0     H60129   3.418   6.525   5.257 -0.9718 -2.3074 -1.3487
  436MOL0     H60130   3.332   6.085   5.398  1.5670  3.2424  3.7942
  436MOL0     H60131   3.251   5.980   5.595  1.2327 -0.7645 -1.0124
  436MOL0     H60132   2.923   6.025   5.883 -3.5895  0.8839  1.1336
  436MOL0     H60133   2.869   6.130   5.763  2.7070  1.4223 -0.1623
  436MOL0     H60134   2.695   5.971   5.800 -1.1993  0.6175 -2.6370
  436MOL0     H60135   2.752   5.938   5.641  1.6117 -2.1567 -1.4153
  436MOL0     H60136   2.905   5.784   5.856 -1.8469  1.0014  2.2772
  436MOL0     H60137   2.856   5.742   5.688 -1.4302 -0.8008 -1.7364
  436MOL0     H60138   2.646   5.687   5.754  0.3039 -0.7225  0.5509
  436MOL0     H60139   2.669   5.754   5.927  2.2181 -1.2968  3.8487
  436MOL0     H60140   2.835   5.560   5.953 -1.3038 -0.6414  0.9882
  436MOL0     H60141   2.689   5.489   5.920  1.8657 -0.2376  3.2460
  436MOL0     H60142   2.764   5.535   5.665 -0.4030  1.3022  0.7774
  436MOL0     H60143   2.761   5.380   5.755  2.2379 -1.3419  0.0848
  436MOL0     H60144   2.996   5.400   5.823  0.7758  1.2593  1.2523
  436MOL0     H60145   2.998   5.578   5.776 -1.6903  1.1878 -0.8184
  436MOL0     H60146   2.974   5.502   5.543 -2.5721 -1.9604 -0.4745
  436MOL0     H60147   2.993   5.339   5.586 -1.3426  0.4428  0.7721
  436MOL0     H60148   2.860   6.150   5.506 -0.4250 -0.2767 -3.4225
  436MOL0     H60149   2.967   6.243   5.292  1.7754  3.4553 -0.0094
  436MOL0     H60150   3.145   6.253   4.973  3.6474 -2.1128  3.8696
  436MOL0     H60151   3.213   6.338   4.737  2.9099  3.6276 -4.0321
  436MOL0     H60152   3.183   4.983   5.173  1.6316  1.7898  2.8594
  436MOL0     H60153   3.017   4.795   5.236 -1.1166 -4.7582  2.3350
  436MOL0     H60154   2.801   4.565   5.323  2.3012 -0.2685  1.8910
  436MOL0     H60155   2.597   4.423   5.314 -1.9757  1.4979  2.0972
  436MOL0     H60156   2.483   4.257   5.246  3.1412  0.3273  0.7171
  436MOL0     H60157   2.414   4.125   5.324 -0.1269  0.5412  2.4974
  436MOL0     H60158   2.305   4.344   5.422 -0.6226 -0.2738 -1.5080
  436MOL0     H60159   2.456   4.379   5.502 -1.3769  0.8075  3.0250
  436MOL0     H60160   2.276   4.123   5.522 -1.9024  2.7530 -0.9542
  436MOL0     H60161   2.437   4.148   5.605 -0.5485  0.4064  2.9886
  436MOL0     H60162   2.188   4.186   5.718  0.1055 -0.9939  0.1046
  436MOL0     H60163   2.193   4.342   5.650  0.2201 -1.5296 -4.7339
  436MOL0     H60164   2.469   4.366   5.967 -0.1705 -0.5435  1.0674
  436MOL0     H60165   2.819   4.099   5.482  4.3348 -0.2813  2.7912
  436MOL0     H60166   3.091   4.254   5.597  1.5015 -2.1350 -0.1473
  436MOL0     H60167   2.995   4.108   5.583  2.3660 -0.6428  1.6112
  436MOL0     H60168   3.103   4.165   5.452  2.1886  0.1103  2.5853
  437MOL0     O60169   0.793   4.742   8.475  0.2640  0.3619 -0.0428
  437MOL0     C60170   0.682   4.676   8.482  0.3024  0.0227  0.2226
  437MOL0     O60171   0.592   4.664   8.387  0.4377  0.1823  0.7040
  437MOL0     C60172   0.590   4.765   8.285 -0.3658 -0.7790 -0.4282
  437MOL0     C60173   0.640   4.746   8.156 -0.7787 -0.5522 -0.2988
  437MOL0     C60174   0.602   4.832   8.058 -0.2194 -0.2432 -0.0675
  437MOL0     C60175   0.516   4.946   8.076 -0.0180  0.6019  0.5247
  437MOL0     O60176   0.490   5.035   7.976 -0.3987 -0.3205 -0.5396
  437MOL0     C60177   0.437   4.980   7.854  0.7912 -0.1992  0.1436
  437MOL0     C60178   0.351   5.083   7.782  0.5132  0.3866 -0.1272
  437MOL0     C60179   0.246   5.143   7.878  0.0448  0.8572  0.4211
  437MOL0     C60180   0.178   5.269   7.823  0.0974  0.8306  0.8545
  437MOL0     C60181   0.055   5.240   7.723  0.1382  0.5896  0.7169
  437MOL0     C60182  -0.008   5.356   7.655  0.2678 -0.3520 -0.1713
  437MOL0     C60183   0.089   5.433   7.559  0.4159  0.5924 -0.2991
  437MOL0     C60184   0.139   5.356   7.438 -1.6819 -0.3389  0.6430
  437MOL0     N60185   0.238   5.441   7.367 -0.1736 -0.3873 -0.1257
  437MOL0     C60186   0.366   5.459   7.423  0.2388 -0.0135  0.1916
  437MOL0     C60187   0.421   5.561   7.352  0.1287  0.2480 -0.1331
  437MOL0     C60188   0.541   5.637   7.402  1.3026  0.3651 -1.0176
  437MOL0     C60189   0.631   5.710   7.300  0.7007  0.6397 -0.3476
  437MOL0     C60190   0.567   5.831   7.224 -0.8636  0.0913 -0.5557
  437MOL0     C60191   0.507   5.937   7.321 -0.3935  0.2286  0.0233
  437MOL0     O60192   0.464   6.056   7.239  0.9858  0.7011 -0.0928
  437MOL0     C60193   0.427   6.166   7.309  0.4827 -0.3544  0.0017
  437MOL0     C60194   0.385   6.167   7.444  0.6257  0.3048 -0.6366
  437MOL0     C60195   0.374   6.280   7.518 -0.2040 -0.3860  0.5421
  437MOL0     C60196   0.326   6.261   7.667  0.7346 -0.4737 -0.0200
  437MOL0     C60197   0.405   6.413   7.461  0.9233  0.4417 -0.2905
  437MOL0     C60198   0.392   6.542   7.530  0.7792  0.1397 -0.2777
  437MOL0     O60199   0.342   6.657   7.465  0.4884  0.0781  0.4565
  437MOL0     C60200   0.384   6.782   7.503  0.5470  0.9067  0.6770
  437MOL0     C60201   0.445   6.868   7.401 -0.1122 -0.1090  0.6577
  437MOL0     C60202   0.487   6.994   7.438 -0.1246 -0.2146  0.8481
  437MOL0     C60203   0.471   7.041   7.577  0.2045 -0.9024 -0.6701
  437MOL0     O60204   0.510   7.174   7.601 -0.0581  0.0744 -0.3884
  437MOL0     C60205   0.449   7.231   7.718 -0.2742  0.2833  0.5265
  437MOL0     C60206   0.483   7.374   7.711  1.0440 -0.2869 -0.0062
  437MOL0     C60207   0.435   7.435   7.836  0.6534  0.0726  0.7079
  437MOL0     C60208   0.456   7.590   7.829  0.4456 -1.1880  0.7756
  437MOL0     C60209   0.431   7.659   7.967  0.7986  0.1161 -0.5393
  437MOL0     C60210   0.287   7.675   8.014 -0.2772  0.5634  0.0063
  437MOL0     C60211   0.170   7.701   7.921  0.7441 -0.4273  0.1235
  437MOL0     C60212   0.042   7.723   7.994 -0.0482  0.3644 -1.1438
  437MOL0    Cl60213   0.025   7.890   8.069  0.4823  0.4728  0.0530
  437MOL0     C60214   0.408   6.958   7.676 -0.2148 -0.0331 -0.3791
  437MOL0     C60215   0.366   6.827   7.635 -0.5214 -0.3736 -0.1262
  437MOL0     O60216   0.442   6.546   7.644  0.2895  0.0933 -0.7375
  437MOL0     C60217   0.444   6.417   7.329  0.1217  0.2029  0.1306
  437MOL0     C60218   0.455   6.294   7.255  0.9091 -0.2704  0.1658
  437MOL0     N60219   0.321   5.602   7.265  0.0536  0.2365 -0.1656
  437MOL0     N60220   0.219   5.536   7.273 -0.3875  0.0315 -0.5347
  437MOL0     C60221   0.475   4.974   8.205 -0.3740  0.2730 -0.5137
  437MOL0     C60222   0.509   4.878   8.307 -0.3842  0.3998  1.0302
  437MOL0     C60223   0.638   4.619   8.610 -0.7942  0.0213  0.1424
  437MOL0     C60224   0.499   4.610   8.651 -0.8222  0.7897 -0.3750
  437MOL0     C60225   0.469   4.549   8.774 -0.4203  0.4849  0.7438
  437MOL0     C60226   0.557   4.487   8.856 -0.0973 -0.6239 -0.2092
  437MOL0     O60227   0.531   4.450   8.985  0.5031 -0.4463  0.3567
  437MOL0     C60228   0.393   4.454   9.043 -0.5267 -0.5003  0.7500
  437MOL0     C60229   0.385   4.344   9.154  0.2511  0.5700  0.6318
  437MOL0     C60230   0.237   4.333   9.203 -0.1126 -0.1863  0.4919
  437MOL0     C60231   0.153   4.217   9.143 -0.8417  0.0696  0.6094
  437MOL0     C60232   0.093   4.273   9.021  0.3574  0.3513 -0.5695
  437MOL0     C60233   0.029   4.313   8.922  0.4045  0.7983 -0.1587
  437MOL0     C60234   0.687   4.474   8.812 -0.8119 -0.6360  0.0881
  437MOL0     C60235   0.728   4.539   8.691  1.2790  0.1402  0.3463
  437MOL0     C60236   0.867   4.520   8.658 -0.0799 -0.1090  0.7315
  437MOL0     H60237   0.685   4.649   8.139 -1.6948 -1.4586  2.0546
  437MOL0     H60238   0.639   4.808   7.958  0.5764 -0.9305  0.3817
  437MOL0     H60239   0.366   4.900   7.879  1.3606  0.1490  3.2522
  437MOL0     H60240   0.519   4.955   7.786  0.9783  0.7191  0.0245
  437MOL0     H60241   0.415   5.165   7.750  1.0834  0.3436  0.8735
  437MOL0     H60242   0.312   5.038   7.690  1.6221  0.1244 -0.4800
  437MOL0     H60243   0.169   5.066   7.887  0.9035 -0.1067 -0.2791
  437MOL0     H60244   0.272   5.160   7.983 -1.7726  2.7311  0.6297
  437MOL0     H60245   0.135   5.334   7.900 -1.9370  1.8435 -1.0201
  437MOL0     H60246   0.254   5.323   7.766  1.7833 -0.2049  1.9919
  437MOL0     H60247  -0.026   5.188   7.776  1.3520 -2.8786 -0.5661
  437MOL0     H60248   0.067   5.164   7.645 -3.5128 -0.0271  0.5661
  437MOL0     H60249  -0.099   5.323   7.605  0.9677  0.6210 -2.1870
  437MOL0     H60250  -0.042   5.428   7.730 -0.1158 -0.3209 -0.3755
  437MOL0     H60251   0.162   5.479   7.627  1.6971 -0.5303 -0.8686
  437MOL0     H60252   0.035   5.516   7.512  0.6290  1.0062  0.1792
  437MOL0     H60253   0.197   5.270   7.471  0.2202  1.1103  1.2847
  437MOL0     H60254   0.061   5.308   7.379 -0.9340 -0.5930 -0.1509
  437MOL0     H60255   0.414   5.405   7.504  2.0961  1.4615  0.1521
  437MOL0     H60256   0.606   5.567   7.455 -1.2170 -1.9997 -0.8386
  437MOL0     H60257   0.500   5.714   7.468  1.4366 -0.3653 -0.0666
  437MOL0     H60258   0.714   5.761   7.350  3.0226  0.4631 -3.7028
  437MOL0     H60259   0.680   5.645   7.227  1.3672  0.5415  0.1782
  437MOL0     H60260   0.658   5.879   7.186  0.0833  0.5359  2.0456
  437MOL0     H60261   0.491   5.809   7.149 -0.2455  0.4845 -1.3103
  437MOL0     H60262   0.421   5.877   7.352 -0.7366 -0.9206 -2.8459
  437MOL0     H60263   0.571   5.950   7.409  1.5683 -1.5994 -1.0324
  437MOL0     H60264   0.371   6.073   7.496 -0.0981  0.5742 -0.3417
  437MOL0     H60265   0.406   6.207   7.718 -0.1338 -0.2537  1.6706
  437MOL0     H60266   0.234   6.203   7.679  0.7086  0.1032  4.0875
  437MOL0     H60267   0.306   6.355   7.719  0.4820 -0.7831  0.4576
  437MOL0     H60268   0.458   6.834   7.299 -1.7817  4.3909 -1.3336
  437MOL0     H60269   0.545   7.058   7.372  1.8881  0.4119  3.0919
  437MOL0     H60270   0.341   7.214   7.719 -0.1816 -1.0353 -2.0016
  437MOL0     H60271   0.487   7.185   7.809  1.1326 -1.9303 -1.0715
  437MOL0     H60272   0.592   7.388   7.710  0.8278  1.6307 -0.9744
  437MOL0     H60273   0.452   7.424   7.618  0.6938 -2.1508 -0.9493
  437MOL0     H60274   0.497   7.390   7.914  3.3433 -1.7742 -2.2557
  437MOL0     H60275   0.330   7.410   7.849  1.4529 -4.0758  0.5260
  437MOL0     H60276   0.400   7.630   7.744  1.5641 -3.1317 -0.9676
  437MOL0     H60277   0.560   7.603   7.798  0.0089 -1.8833 -1.1259
  437MOL0     H60278   0.485   7.607   8.046 -0.3773  1.2612  1.0784
  437MOL0     H60279   0.466   7.763   7.964 -0.9480  0.7148 -1.9533
  437MOL0     H60280   0.270   7.750   8.092 -0.5997  2.8302 -2.0883
  437MOL0     H60281   0.260   7.581   8.064  1.4836  0.6320  1.1577
  437MOL0     H60282   0.159   7.614   7.857  0.1195 -0.9018  0.8566
  437MOL0     H60283   0.184   7.777   7.844  0.5170 -0.6209 -0.1098
  437MOL0     H60284   0.037   7.639   8.064  2.3690  2.1815  1.4155
  437MOL0     H60285  -0.046   7.715   7.930 -1.2871 -2.5389  0.7191
  437MOL0     H60286   0.393   6.988   7.780 -0.1626 -3.6944  0.8246
  437MOL0     H60287   0.304   6.767   7.701  1.2158 -4.2510 -1.7541
  437MOL0     H60288   0.476   6.515   7.295  0.6100 -0.6497 -1.9763
  437MOL0     H60289   0.506   6.295   7.159  0.2461  2.6853 -0.2671
  437MOL0     H60290   0.405   5.055   8.225 -2.0616 -1.5588  1.5553
  437MOL0     H60291   0.477   4.888   8.410 -0.7430  1.1415  0.8534
  437MOL0     H60292   0.418   4.654   8.594  0.0295  2.6152 -0.2483
  437MOL0     H60293   0.365   4.540   8.805 -1.4151  1.1465 -2.1000
  437MOL0     H60294   0.372   4.547   9.095  1.8684  0.5034  0.0838
  437MOL0     H60295   0.318   4.420   8.971  2.7584 -5.4665 -0.9352
  437MOL0     H60296   0.438   4.385   9.241 -0.9162  1.7426  0.8326
  437MOL0     H60297   0.423   4.247   9.123 -0.3515  0.2927  0.7430
  437MOL0     H60298   0.247   4.311   9.309 -2.1734  2.9386  1.4815
  437MOL0     H60299   0.192   4.433   9.197  2.1290  0.8284 -2.0921
  437MOL0     H60300   0.075   4.184   9.213 -2.3946 -0.3634 -1.2404
  437MOL0     H60301   0.224   4.138   9.115 -0.8255  0.9659 -2.2083
  437MOL0     H60302  -0.018   4.344   8.830  2.7656  0.8228 -1.4351
  437MOL0     H60303   0.759   4.435   8.883 -0.8823 -0.0380  0.5003
  437MOL0     H60304   0.921   4.596   8.716 -1.2293  0.2290  1.3878
  437MOL0     H60305   0.895   4.415   8.675  1.1187 -0.4879 -2.7597
  437MOL0     H60306   0.879   4.510   8.550  2.9687 -2.5490  1.1235
  438MOL0     O60307   6.680   0.905   5.382 -0.3410  0.0079 -0.6395
  438MOL0     C60308   6.794   0.901   5.415 -0.1144  0.2720 -0.6552
  438MOL0     O60309   6.871   1.007   5.453 -0.1634  0.4258 -0.2338
  438MOL0     C60310   6.812   1.129   5.491 -0.2449  0.3497  0.0565
  438MOL0     C60311   6.874   1.250   5.481 -0.6227 -1.2762  0.0175
  438MOL0     C60312   6.820   1.374   5.507 -0.1619 -0.4124 -0.1369
  438MOL0     C60313   6.696   1.368   5.576 -0.1249 -0.1342  0.1182
  438MOL0     O60314   6.626   1.475   5.633  0.5501 -0.6217  1.3606
  438MOL0     C60315   6.708   1.592   5.662  0.0977 -0.5651  0.0199
  438MOL0     C60316   6.627   1.719   5.706  0.0031  0.3134 -0.8688
  438MOL0     C60317   6.704   1.835   5.763 -0.3228 -0.1853 -0.2186
  438MOL0     C60318   6.620   1.929   5.847 -0.6727  0.7890  0.0121
  438MOL0     C60319   6.479   1.966   5.802  0.5475 -0.3819 -0.6192
  438MOL0     C60320   6.463   2.031   5.662 -0.3855 -0.1783  0.4397
  438MOL0     C60321   6.565   2.146   5.627 -0.1021 -0.4572 -0.2345
  438MOL0     C60322   6.498   2.226   5.510 -0.2503  0.6216 -0.2073
  438MOL0     N60323   6.416   2.330   5.552 -0.0961  0.8807  0.1055
  438MOL0     C60324   6.319   2.377   5.465 -0.1810  0.4315 -0.0926
  438MOL0     C60325   6.246   2.471   5.535 -0.5035 -0.3049  0.2092
  438MOL0     C60326   6.132   2.544   5.459 -0.1580  0.0271 -1.0165
  438MOL0     C60327   6.024   2.599   5.553  1.1444 -0.0391  0.0718
  438MOL0     C60328   5.899   2.653   5.473  0.4234  0.0803  0.3830
  438MOL0     C60329   5.813   2.545   5.420  0.3192  0.0831 -0.5076
  438MOL0     O60330   5.695   2.589   5.356 -0.2348 -0.3265  0.5528
  438MOL0     C60331   5.612   2.498   5.299 -0.7711  0.1196  0.2021
  438MOL0     C60332   5.621   2.356   5.306  0.3277 -0.5493 -0.0950
  438MOL0     C60333   5.537   2.275   5.224 -0.1435  0.0789  0.3572
  438MOL0     C60334   5.576   2.129   5.213 -0.3631  0.6046  0.7028
  438MOL0     C60335   5.423   2.334   5.161 -0.0641 -0.9941  0.0187
  438MOL0     C60336   5.320   2.254   5.100  0.4193 -0.0175  0.1742
  438MOL0     O60337   5.296   2.130   5.149  0.1196 -0.5830  0.0354
  438MOL0     C60338   5.190   2.065   5.078 -0.7390  0.8711  1.2959
  438MOL0     C60339   5.058   2.081   5.118  0.5290  0.6063 -0.9332
  438MOL0     C60340   4.951   2.011   5.046 -0.0712  0.0458  0.3601
  438MOL0     C60341   4.981   1.925   4.939  0.1548 -0.4002 -0.7202
  438MOL0     O60342   4.884   1.872   4.860  0.2591  0.1883  0.2048
  438MOL0     C60343   4.743   1.869   4.900 -0.5809  1.1687 -0.0663
  438MOL0     C60344   4.670   1.991   4.828  0.6497 -0.1864 -0.1755
  438MOL0     C60345   4.634   1.957   4.679 -0.6375  0.2082  0.2791
  438MOL0     C60346   4.753   1.968   4.583  0.0624  0.3433 -0.7069
  438MOL0     C60347   4.715   1.953   4.447 -0.1652  0.5521  0.0449
  438MOL0     C60348   4.705   1.821   4.380 -0.2802  0.3014 -0.5615
  438MOL0     C60349   4.654   1.838   4.224 -0.3138  0.3017 -0.0062
  438MOL0     C60350   4.624   1.709   4.158  0.2695 -0.4267 -0.1579
  438MOL0    Cl60351   4.620   1.721   3.975 -0.2535 -0.0829 -0.0986
  438MOL0     C60352   5.117   1.904   4.904 -0.0094 -0.7246  0.6868
  438MOL0     C60353   5.210   1.980   4.970 -0.0970 -0.0535 -0.6612
  438MOL0     O60354   5.250   2.313   5.023  0.1740  0.1955  0.9592
  438MOL0     C60355   5.413   2.474   5.158  0.0799  0.5777  0.7237
  438MOL0     C60356   5.511   2.554   5.222 -0.1708 -0.2525  0.7867
  438MOL0     N60357   6.300   2.473   5.666 -0.1019 -0.2863  0.1929
  438MOL0     N60358   6.405   2.390   5.678  0.3599  0.0929  0.9222
  438MOL0     C60359   6.639   1.248   5.608 -0.5559 -0.4867 -0.1010
  438MOL0     C60360   6.698   1.131   5.566 -0.6380 -0.2847 -0.2845
  438MOL0     C60361   6.855   0.768   5.398  0.4154 -0.1133 -0.1554
  438MOL0     C60362   6.993   0.765   5.432  0.0257 -1.3500  0.0555
  438MOL0     C60363   7.070   0.646   5.405 -0.2068  0.1604 -0.1015
  438MOL0     C60364   7.010   0.534   5.362  0.2036  0.2592 -0.8229
  438MOL0     O60365   7.095   0.433   5.339  0.5699  0.0151 -0.3848
  438MOL0     C60366   7.067   0.352   5.231 -0.1139 -0.5368 -0.3065
  438MOL0     C60367   7.196   0.284   5.186 -0.2018 -0.8299 -0.1298
  438MOL0     C60368   7.327   0.371   5.184 -0.3575  0.0480 -0.1094
  438MOL0     C60369   7.331   0.475   5.075  0.2473  0.2121 -0.3015
  438MOL0     C60370   7.238   0.589   5.085  0.1865 -0.3131 -1.2505
  438MOL0     C60371   7.177   0.693   5.090 -0.1756  0.0298  0.1500
  438MOL0     C60372   6.876   0.537   5.341  0.3707 -0.3909 -0.4857
  438MOL0     C60373   6.794   0.651   5.352 -0.1901  0.0381  0.2674
  438MOL0     C60374   6.647   0.630   5.311  0.3742 -0.4243 -0.1192
  438MOL0     H60375   6.959   1.253   5.413 -2.7219  0.5013 -2.7406
  438MOL0     H60376   6.873   1.452   5.453  2.9801 -3.0670 -1.2333
  438MOL0     H60377   6.776   1.616   5.580  1.2749 -2.5562  0.3413
  438MOL0     H60378   6.771   1.556   5.744 -1.1591 -2.3829  0.2602
  438MOL0     H60379   6.572   1.748   5.616  0.8727  0.9479 -1.2052
  438MOL0     H60380   6.566   1.690   5.792  0.6867  0.3764 -0.3577
  438MOL0     H60381   6.781   1.800   5.833 -0.2280  0.3228 -0.0625
  438MOL0     H60382   6.751   1.894   5.684 -0.0613  0.3352  0.3150
  438MOL0     H60383   6.620   1.884   5.946  3.2532  1.9193  0.6798
  438MOL0     H60384   6.677   2.022   5.858  2.1741 -0.4845 -2.7270
  438MOL0     H60385   6.427   2.027   5.875 -0.8391  0.2521 -2.0646
  438MOL0     H60386   6.421   1.874   5.813  1.1842 -0.5960  1.2146
  438MOL0     H60387   6.467   1.958   5.580  0.5846  2.8191 -2.4522
  438MOL0     H60388   6.362   2.071   5.666 -0.3072  0.6432 -2.8203
  438MOL0     H60389   6.666   2.112   5.603 -0.0134  0.0678 -0.6041
  438MOL0     H60390   6.556   2.208   5.717 -2.7580  1.4710 -1.6903
  438MOL0     H60391   6.577   2.272   5.451 -0.6777  0.9439 -0.5404
  438MOL0     H60392   6.440   2.153   5.452  0.7793 -0.8016  0.4962
  438MOL0     H60393   6.314   2.347   5.361 -1.6552  1.8861 -0.4777
  438MOL0     H60394   6.089   2.461   5.402  0.7696 -2.3579  1.5244
  438MOL0     H60395   6.165   2.628   5.397 -1.0732  1.3141  0.1759
  438MOL0     H60396   5.988   2.536   5.634  2.2797 -0.1859  0.4873
  438MOL0     H60397   6.062   2.680   5.615 -0.9611  1.4562 -0.4887
  438MOL0     H60398   5.834   2.709   5.541 -0.9133  1.5960 -2.0006
  438MOL0     H60399   5.931   2.707   5.383 -2.2152 -5.0142 -4.1876
  438MOL0     H60400   5.878   2.489   5.352  1.1606 -1.7506  1.7181
  438MOL0     H60401   5.784   2.478   5.501  0.3186 -0.2221 -0.7584
  438MOL0     H60402   5.692   2.305   5.371  0.1026 -1.9181 -0.8669
  438MOL0     H60403   5.570   2.097   5.109  1.5537  0.7407  0.5133
  438MOL0     H60404   5.507   2.076   5.280 -1.4341 -0.8032 -1.4029
  438MOL0     H60405   5.681   2.110   5.240  0.3774 -1.4152 -2.9208
  438MOL0     H60406   5.026   2.138   5.206  1.8009  0.1952 -0.1855
  438MOL0     H60407   4.852   2.026   5.087  0.6549  3.3798  1.2227
  438MOL0     H60408   4.696   1.780   4.856  0.4925  1.2387 -1.3957
  438MOL0     H60409   4.723   1.863   5.008  4.7073  0.4784  1.1523
  438MOL0     H60410   4.576   2.012   4.880  0.2533 -3.2013  0.5276
  438MOL0     H60411   4.729   2.083   4.838 -2.3855  2.2925 -3.0648
  438MOL0     H60412   4.553   2.027   4.659 -1.4060 -0.4797  0.9130
  438MOL0     H60413   4.584   1.859   4.685 -1.7477  0.7476  0.0249
  438MOL0     H60414   4.841   1.913   4.618  1.2732  3.2828  1.3284
  438MOL0     H60415   4.784   2.073   4.581 -1.5586  0.8720  0.0016
  438MOL0     H60416   4.612   1.991   4.443 -0.0693  1.4746  3.2234
  438MOL0     H60417   4.777   2.023   4.391 -2.1919  3.4055  1.0784
  438MOL0     H60418   4.633   1.759   4.434 -0.5999  3.7186  3.4475
  438MOL0     H60419   4.809   1.787   4.382  0.8591  3.4912  1.4544
  438MOL0     H60420   4.731   1.899   4.177 -2.9888  4.7080  0.7485
  438MOL0     H60421   4.566   1.901   4.215  0.4579  1.6136  1.2093
  438MOL0     H60422   4.528   1.675   4.198  1.9751 -3.0975  2.0614
  438MOL0     H60423   4.698   1.634   4.188  1.4578  0.5014 -0.7295
  438MOL0     H60424   5.147   1.832   4.828 -0.9594  0.6663 -1.1049
  438MOL0     H60425   5.316   1.979   4.948  0.1827 -1.1171  0.5493
  438MOL0     H60426   5.321   2.516   5.118  1.2296  0.7061 -2.0370
  438MOL0     H60427   5.507   2.661   5.207  0.3373 -0.7321 -5.2222
  438MOL0     H60428   6.552   1.246   5.671  1.7426 -1.8999  3.3316
  438MOL0     H60429   6.657   1.032   5.582  2.5857 -1.8574 -0.7832
  438MOL0     H60430   7.059   0.847   5.461  0.6478 -1.7522 -0.1979
  438MOL0     H60431   7.175   0.646   5.433  0.4046  0.5149 -2.2551
  438MOL0     H60432   6.992   0.277   5.257 -1.3659 -0.4786 -3.4044
  438MOL0     H60433   7.019   0.403   5.148  0.7991 -3.4757 -2.8222
  438MOL0     H60434   7.182   0.238   5.088  2.2143  1.0037 -1.4580
  438MOL0     H60435   7.222   0.193   5.241 -2.6023 -1.7760 -0.4576
  438MOL0     H60436   7.336   0.409   5.286  2.6864 -2.0780  0.5495
  438MOL0     H60437   7.414   0.307   5.167 -0.9048 -0.4196 -1.2386
  438MOL0     H60438   7.313   0.434   4.975  1.3579  1.4825 -1.0587
  438MOL0     H60439   7.424   0.531   5.059  1.2762 -0.8823  1.4938
  438MOL0     H60440   7.131   0.789   5.081 -0.6356 -0.0932  1.1128
  438MOL0     H60441   6.833   0.440   5.319 -1.2312 -0.4215  2.3278
  438MOL0     H60442   6.581   0.633   5.398 -1.0985  0.0870 -1.2179
  438MOL0     H60443   6.621   0.714   5.247 -0.6972 -0.1141  0.6863
  438MOL0     H60444   6.626   0.535   5.260  0.5238 -1.0792  1.0147
  439MOL0     O60445  10.410   3.074   3.911 -0.3550 -0.3151 -0.1796
  439MOL0     C60446  10.331   3.044   4.005 -0.8162 -0.8924 -1.2686
  439MOL0     O60447  10.246   2.937   4.011 -0.5381  0.7720  0.3378
  439MOL0     C60448  10.253   2.853   3.900  0.1108  0.1774  0.5839
  439MOL0     C60449  10.341   2.740   3.894  0.4909 -0.6797 -0.1904
  439MOL0     C60450  10.338   2.668   3.775 -0.3984  0.2964 -0.7720
  439MOL0     C60451  10.261   2.691   3.666  0.3313 -1.1026 -0.3673
  439MOL0     O60452  10.268   2.605   3.556 -0.1195 -0.4277  0.3968
  439MOL0     C60453  10.146   2.587   3.471  0.0386 -0.8514 -0.8250
  439MOL0     C60454  10.112   2.435   3.480  0.2593 -0.6654  0.5542
  439MOL0     C60455  10.076   2.386   3.341 -0.0882  0.2340 -0.4811
  439MOL0     C60456   9.975   2.268   3.347 -0.6201 -0.4240 -0.0252
  439MOL0     C60457  10.048   2.149   3.400 -0.6438 -0.3490  0.1237
  439MOL0     C60458   9.961   2.020   3.399 -1.0901  0.0708  0.3057
  439MOL0     C60459  10.037   1.898   3.461 -0.2930  0.6387 -0.2781
  439MOL0     C60460  10.184   1.872   3.416 -1.5528 -0.0722  0.4891
  439MOL0     N60461  10.204   1.861   3.262 -0.1170  0.2569 -0.4509
  439MOL0     C60462  10.122   1.796   3.181 -0.5820  0.5202  0.4824
  439MOL0     C60463  10.139   1.848   3.059  0.0352  0.0310 -0.4079
  439MOL0     C60464  10.072   1.824   2.929  0.5297  0.8540 -0.3738
  439MOL0     C60465  10.031   1.682   2.900  0.4916 -0.3768 -0.3694
  439MOL0     C60466   9.970   1.655   2.760 -0.3759  0.3976 -0.4388
  439MOL0     C60467   9.908   1.519   2.740  0.1339  0.1092 -0.2256
  439MOL0     O60468   9.870   1.505   2.600  0.0706  0.7877  0.9565
  439MOL0     C60469   9.746   1.565   2.570 -0.5539 -0.2525  0.0988
  439MOL0     C60470   9.638   1.498   2.599 -0.0115  0.6441  0.6617
  439MOL0     C60471   9.511   1.562   2.589  0.6543 -0.0875 -1.0564
  439MOL0     C60472   9.394   1.467   2.620 -0.3998 -0.2394 -0.0791
  439MOL0     C60473   9.501   1.696   2.541 -0.0867 -0.5218 -0.6823
  439MOL0     C60474   9.380   1.777   2.527  1.0621  1.1125 -0.2751
  439MOL0     O60475   9.398   1.900   2.489  0.0227 -0.6200 -0.5874
  439MOL0     C60476   9.297   1.998   2.491 -0.5222  1.0918  0.6568
  439MOL0     C60477   9.285   2.090   2.391  0.9041 -0.7471 -1.2235
  439MOL0     C60478   9.194   2.195   2.411  0.2363 -0.9060  0.8540
  439MOL0     C60479   9.099   2.199   2.517 -0.3443  0.1183 -0.3585
  439MOL0     O60480   8.999   2.292   2.511  0.1023  0.2324  0.1544
  439MOL0     C60481   8.922   2.309   2.633  0.5838  0.1856  0.5634
  439MOL0     C60482   8.819   2.420   2.626 -0.4914  0.0940  0.0752
  439MOL0     C60483   8.752   2.436   2.756  0.9860  0.3221  0.8595
  439MOL0     C60484   8.638   2.535   2.759  0.2422  0.2584 -0.6817
  439MOL0     C60485   8.612   2.585   2.908 -0.5186 -0.2053 -0.4141
  439MOL0     C60486   8.472   2.639   2.913  0.0588  0.4320 -0.6549
  439MOL0     C60487   8.459   2.786   2.863  0.2007 -0.3079 -0.1824
  439MOL0     C60488   8.316   2.838   2.901  0.4493  0.7128  0.0448
  439MOL0    Cl60489   8.264   2.988   2.822 -0.2081  0.1031  0.1033
  439MOL0     C60490   9.120   2.105   2.623 -0.3871  0.0858 -0.0242
  439MOL0     C60491   9.214   2.001   2.600  0.2975 -0.0885 -1.0503
  439MOL0     O60492   9.268   1.727   2.541  0.7667  0.6594  0.4553
  439MOL0     C60493   9.626   1.755   2.518  0.8859  0.1792  0.4388
  439MOL0     C60494   9.744   1.695   2.526  0.0018 -0.5815  0.1432
  439MOL0     N60495  10.247   1.937   3.074 -0.3297  1.2447  0.7300
  439MOL0     N60496  10.280   1.952   3.194  0.1264  0.7161  0.5065
  439MOL0     C60497  10.170   2.805   3.675 -0.2108  1.0437 -0.8178
  439MOL0     C60498  10.168   2.881   3.793 -0.0024 -0.5123 -2.2036
  439MOL0     C60499  10.338   3.136   4.125  0.3372 -0.2415  0.5162
  439MOL0     C60500  10.248   3.107   4.231  0.2606 -0.2248 -0.2882
  439MOL0     C60501  10.251   3.174   4.344  0.6535 -0.6299 -0.4141
  439MOL0     C60502  10.323   3.294   4.355 -0.2305  0.0631 -0.5771
  439MOL0     O60503  10.311   3.360   4.481  0.4511 -0.1079 -0.0771
  439MOL0     C60504  10.323   3.500   4.471  0.3944 -0.3646  0.6114
  439MOL0     C60505  10.274   3.558   4.599 -0.2103  0.2647 -1.0697
  439MOL0     C60506  10.133   3.492   4.635 -0.8782 -0.1393 -0.4261
  439MOL0     C60507  10.055   3.532   4.759 -0.0271 -0.9613  1.4276
  439MOL0     C60508  10.009   3.670   4.775 -0.3767 -0.4636 -0.3293
  439MOL0     C60509   9.995   3.787   4.798  1.1173  0.1037 -0.3194
  439MOL0     C60510  10.415   3.326   4.253 -0.4180  0.3450  0.7381
  439MOL0     C60511  10.424   3.248   4.133 -0.4441  0.7361  1.5593
  439MOL0     C60512  10.502   3.309   4.027 -0.0018  0.5049 -0.4899
  439MOL0     H60513  10.397   2.719   3.984  2.3227  0.5301 -0.9934
  439MOL0     H60514  10.394   2.575   3.768 -0.8323  0.0636 -1.1806
  439MOL0     H60515  10.165   2.625   3.370 -0.3619  2.2648  0.1673
  439MOL0     H60516  10.060   2.644   3.507 -0.1724 -0.3637 -2.0591
  439MOL0     H60517  10.197   2.380   3.522 -0.4752  0.1788  3.4001
  439MOL0     H60518  10.021   2.433   3.541  0.5119 -0.0544  0.9567
  439MOL0     H60519  10.028   2.467   3.285  1.9624  1.7586 -0.1533
  439MOL0     H60520  10.159   2.342   3.285  0.4441 -0.4932  0.8238
  439MOL0     H60521   9.893   2.291   3.415  0.1779  1.6564  0.3208
  439MOL0     H60522   9.934   2.245   3.248 -1.1887  1.2211 -0.1957
  439MOL0     H60523  10.091   2.181   3.495  3.1296  1.6153 -1.9927
  439MOL0     H60524  10.133   2.132   3.333  0.4802 -1.1538  1.6913
  439MOL0     H60525   9.869   2.041   3.455  0.1448 -0.5771  2.7498
  439MOL0     H60526   9.940   1.987   3.297  0.2942 -0.3047  0.1221
  439MOL0     H60527   9.972   1.810   3.456 -1.2589  1.1579  1.6875
  439MOL0     H60528  10.041   1.924   3.568 -0.1548 -0.1418 -0.0839
  439MOL0     H60529  10.243   1.960   3.444 -0.9776  0.7729 -2.8386
  439MOL0     H60530  10.239   1.791   3.462  0.1861  0.7102 -0.1338
  439MOL0     H60531  10.052   1.716   3.203  0.4362 -0.3605  0.6272
  439MOL0     H60532  10.144   1.853   2.853  0.1771  0.6979 -0.7721
  439MOL0     H60533   9.982   1.882   2.909 -0.0084 -0.0572 -0.6514
  439MOL0     H60534  10.113   1.614   2.922 -2.5223 -3.9262  0.8307
  439MOL0     H60535   9.960   1.645   2.974  0.2258 -3.3326 -1.9757
  439MOL0     H60536   9.894   1.728   2.731  0.2169  0.6568 -1.3938
  439MOL0     H60537  10.058   1.658   2.695  0.2127 -1.9836  0.1235
  439MOL0     H60538   9.985   1.447   2.772 -0.8967 -0.7045  0.4841
  439MOL0     H60539   9.823   1.498   2.805 -0.1763  1.3093 -0.2205
  439MOL0     H60540   9.640   1.397   2.641  2.5166  1.5636  3.0385
  439MOL0     H60541   9.427   1.372   2.664  0.9980  0.8807  1.4567
  439MOL0     H60542   9.330   1.441   2.536 -0.2066 -0.2236 -0.2329
  439MOL0     H60543   9.326   1.505   2.697  0.1918 -2.2722  1.5570
  439MOL0     H60544   9.351   2.089   2.305 -0.3577  2.8002 -2.4099
  439MOL0     H60545   9.180   2.265   2.329  1.8582  0.1341  1.4041
  439MOL0     H60546   8.863   2.218   2.648  1.1317  0.0081  1.8063
  439MOL0     H60547   8.999   2.315   2.710  0.4244 -0.9698  0.8406
  439MOL0     H60548   8.874   2.513   2.607  2.2823 -1.6593 -1.1045
  439MOL0     H60549   8.751   2.389   2.547  0.8771  1.6170 -1.8075
  439MOL0     H60550   8.827   2.449   2.834  2.7171 -2.7505 -0.1405
  439MOL0     H60551   8.713   2.340   2.789  1.3513  0.6427  2.2780
  439MOL0     H60552   8.550   2.477   2.729 -2.0227  1.1182  3.5023
  439MOL0     H60553   8.663   2.614   2.688  1.1521 -1.5146 -2.4452
  439MOL0     H60554   8.624   2.497   2.972  3.0170 -3.5771 -5.0220
  439MOL0     H60555   8.683   2.661   2.943 -1.8319  1.1972 -0.6951
  439MOL0     H60556   8.434   2.633   3.015 -0.5994  0.2434 -0.9052
  439MOL0     H60557   8.401   2.575   2.860  0.2731 -1.5190  1.2698
  439MOL0     H60558   8.477   2.792   2.756 -0.3504 -1.0727 -0.3202
  439MOL0     H60559   8.523   2.862   2.911 -0.2186 -1.8249  3.0376
  439MOL0     H60560   8.308   2.857   3.008 -4.9494 -0.5850  0.1681
  439MOL0     H60561   8.243   2.758   2.884 -3.0755  3.6194  0.2144
  439MOL0     H60562   9.054   2.113   2.709  0.3243  4.5657  0.3788
  439MOL0     H60563   9.217   1.930   2.682  2.2613 -0.1224 -1.1005
  439MOL0     H60564   9.629   1.861   2.494 -0.7373 -0.5066 -3.6733
  439MOL0     H60565   9.838   1.749   2.519 -0.8387  0.8100 -0.6687
  439MOL0     H60566  10.094   2.833   3.602 -2.3763 -0.1906  0.8402
  439MOL0     H60567  10.112   2.972   3.813 -0.3110 -0.9434 -0.9792
  439MOL0     H60568  10.186   3.018   4.234 -1.3015  0.7765 -1.2169
  439MOL0     H60569  10.200   3.125   4.426 -0.8934 -0.1417 -1.0683
  439MOL0     H60570  10.430   3.521   4.457  0.2112  0.1752 -0.0094
  439MOL0     H60571  10.269   3.546   4.388  0.1700 -2.0394 -0.2117
  439MOL0     H60572  10.256   3.664   4.577  0.2670  0.3610 -1.0070
  439MOL0     H60573  10.344   3.544   4.682 -0.5884 -3.5992 -1.2539
  439MOL0     H60574  10.057   3.504   4.557 -1.9101 -1.8396  0.2539
  439MOL0     H60575  10.141   3.383   4.636  0.9374 -0.0335  0.4943
  439MOL0     H60576  10.129   3.524   4.839  1.2622  0.8791  0.5110
  439MOL0     H60577   9.972   3.462   4.761 -2.3796  1.5500 -0.2980
  439MOL0     H60578   9.965   3.890   4.807  4.0791  0.9389  2.0053
  439MOL0     H60579  10.478   3.414   4.261 -0.5965  0.5766 -0.3038
  439MOL0     H60580  10.595   3.253   4.009 -0.7373 -0.9352  0.0116
  439MOL0     H60581  10.456   3.312   3.928  2.4798 -2.0767 -1.8777
  439MOL0     H60582  10.522   3.414   4.051 -0.0845 -0.2598  3.5783
  440MOL0     O60583  11.242   0.691   0.144 -0.6511  0.3201  0.6265
  440MOL0     C60584  11.208   0.593   0.073 -0.5941 -0.3905 -0.4581
  440MOL0     O60585  11.249   0.468   0.087 -0.0471  0.5067  1.0006
  440MOL0     C60586  11.301   0.406   0.197  0.1062  0.4343 -0.0570
  440MOL0     C60587  11.329   0.267   0.187 -0.5831 -1.1208 -0.4191
  440MOL0     C60588  11.387   0.197   0.296  0.0660 -0.2504 -0.6605
  440MOL0     C60589  11.410   0.260   0.417  0.3302 -0.3687  0.0685
  440MOL0     O60590  11.471   0.200   0.525  0.1889  0.0143 -0.9241
  440MOL0     C60591  11.528   0.068   0.508 -0.6622  0.5303  0.6538
  440MOL0     C60592  11.643   0.047   0.607  0.4313  0.9088  0.1577
  440MOL0     C60593  11.742   0.152   0.596 -0.7164 -0.4179  0.1975
  440MOL0     C60594  11.823   0.150   0.731  0.7561  0.4810  0.7188
  440MOL0     C60595  11.934   0.261   0.728  0.5177 -0.4252  0.3710
  440MOL0     C60596  12.026   0.253   0.848  0.1493 -0.4401 -0.2952
  440MOL0     C60597  12.146   0.351   0.827  0.0097 -0.1622 -0.3571
  440MOL0     C60598  12.248   0.293   0.724  0.0204  0.9314 -0.3485
  440MOL0     N60599  12.359   0.382   0.697  1.0068 -0.2988  0.4652
  440MOL0     C60600  12.486   0.357   0.737 -0.8526 -1.1295 -0.2988
  440MOL0     C60601  12.557   0.469   0.707 -0.2060 -0.4929  0.4333
  440MOL0     C60602  12.706   0.498   0.707 -0.3488 -0.0947  0.2341
  440MOL0     C60603  12.773   0.464   0.844 -0.8583 -0.2587 -0.3912
  440MOL0     C60604  12.926   0.464   0.816  0.7567  0.7310  0.1444
  440MOL0     C60605  12.999   0.413   0.942 -0.4631  0.2959 -0.4787
  440MOL0     O60606  12.937   0.477   1.055 -0.0069 -0.1120  0.6646
  440MOL0     C60607  12.976   0.469   1.184 -0.3959 -0.2379  0.2843
  440MOL0     C60608  13.098   0.416   1.221 -0.3868 -0.0041 -1.6424
  440MOL0     C60609  13.128   0.379   1.353 -0.4261 -0.9121 -0.2688
  440MOL0     C60610  13.260   0.305   1.369  0.8716  0.4121 -0.2861
  440MOL0     C60611  13.045   0.407   1.455 -0.4570  0.1343 -1.1876
  440MOL0     C60612  13.066   0.378   1.611 -0.0741 -0.2095  0.6096
  440MOL0     O60613  13.180   0.299   1.652 -0.0033 -0.1906 -0.8251
  440MOL0     C60614  13.211   0.272   1.773 -0.4605 -0.0146 -1.3085
  440MOL0     C60615  13.282   0.359   1.849 -0.5809  0.1965 -1.4124
  440MOL0     C60616  13.315   0.339   1.986  0.1441  0.5362 -0.7650
  440MOL0     C60617  13.251   0.228   2.054 -0.5610  0.3440 -0.8877
  440MOL0     O60618  13.258   0.201   2.193  0.2395 -0.2132 -0.1178
  440MOL0     C60619  13.369   0.238   2.270  0.7976 -0.8132 -0.1175
  440MOL0     C60620  13.514   0.189   2.228 -0.0272 -0.6337  0.1992
  440MOL0     C60621  13.532   0.045   2.288 -0.2210 -0.1526  0.6018
  440MOL0     C60622  13.674  -0.020   2.248 -0.6582 -0.4972  0.4617
  440MOL0     C60623  13.750  -0.098   2.361  0.3032 -0.1169 -0.5546
  440MOL0     C60624  13.865  -0.184   2.311 -0.2834  1.1560 -1.0787
  440MOL0     C60625  13.914  -0.275   2.424  0.1340 -0.5053  0.1585
  440MOL0     C60626  14.043  -0.343   2.380 -0.1964 -0.4749 -0.4980
  440MOL0    Cl60627  13.986  -0.489   2.291  0.5310  0.0991  0.5469
  440MOL0     C60628  13.177   0.144   1.975  0.1310  0.4448 -0.4846
  440MOL0     C60629  13.158   0.161   1.835 -0.3548  0.8113 -0.2233
  440MOL0     O60630  12.987   0.427   1.686 -0.2521 -0.5959  0.1201
  440MOL0     C60631  12.927   0.480   1.415  0.0779  0.4249 -0.5518
  440MOL0     C60632  12.886   0.508   1.285 -1.4468  0.0507  0.2240
  440MOL0     N60633  12.466   0.557   0.638 -0.5269 -0.2987  0.0555
  440MOL0     N60634  12.347   0.510   0.628  0.3867  0.2629  0.1451
  440MOL0     C60635  11.373   0.396   0.429 -0.4651  1.4086  0.8953
  440MOL0     C60636  11.318   0.471   0.326  0.0081  0.4624  0.6718
  440MOL0     C60637  11.145   0.615  -0.059 -0.4709 -0.2027  0.3837
  440MOL0     C60638  11.118   0.498  -0.133  1.0407 -0.0146  0.5423
  440MOL0     C60639  11.060   0.517  -0.265  0.5698  1.6276  0.3821
  440MOL0     C60640  11.024   0.635  -0.308 -0.5880  0.6130  0.5038
  440MOL0     O60641  10.959   0.655  -0.434 -0.3784 -0.0838 -0.5195
  440MOL0     C60642  10.901   0.547  -0.500  0.0900 -0.1573  0.2766
  440MOL0     C60643  10.808   0.604  -0.618  0.1231  0.3467 -0.9143
  440MOL0     C60644  10.665   0.611  -0.564  0.4480 -0.0163  0.5101
  440MOL0     C60645  10.566   0.635  -0.685  0.5513  0.2940 -0.1921
  440MOL0     C60646  10.573   0.515  -0.766  0.9097 -0.5717  0.8164
  440MOL0     C60647  10.594   0.423  -0.835  0.0846  0.7341 -0.8657
  440MOL0     C60648  11.057   0.751  -0.235 -0.3418 -0.3571  0.7148
  440MOL0     C60649  11.115   0.744  -0.110 -0.5548  0.2294  0.2851
  440MOL0     C60650  11.155   0.873  -0.042 -1.4062  0.2322  0.0798
  440MOL0     H60651  11.316   0.225   0.087  0.9840 -0.9733 -0.7024
  440MOL0     H60652  11.401   0.093   0.266  1.3018  0.1852 -1.6687
  440MOL0     H60653  11.565   0.068   0.405  2.7281 -1.2305  1.6932
  440MOL0     H60654  11.450  -0.009   0.503  1.1295 -1.5962  2.7177
  440MOL0     H60655  11.604   0.059   0.708 -0.0196 -1.8397  0.3839
  440MOL0     H60656  11.691  -0.051   0.597 -1.4422 -0.0186 -0.2801
  440MOL0     H60657  11.806   0.140   0.507  0.6522  0.4979  1.0198
  440MOL0     H60658  11.700   0.252   0.607  0.4030 -0.2161  3.4171
  440MOL0     H60659  11.770   0.173   0.823  2.9350  2.1949  1.6529
  440MOL0     H60660  11.870   0.052   0.744 -2.2232 -0.6390  4.5178
  440MOL0     H60661  11.873   0.351   0.736  0.8540  0.0539 -1.9507
  440MOL0     H60662  11.989   0.245   0.635 -0.4161 -0.2532 -0.2137
  440MOL0     H60663  11.980   0.279   0.944  0.1573 -0.7142 -0.2171
  440MOL0     H60664  12.072   0.154   0.849  2.1036  0.2973 -3.2154
  440MOL0     H60665  12.184   0.357   0.930 -1.3959  0.4614  0.1532
  440MOL0     H60666  12.104   0.450   0.807  1.1793  0.2250 -0.9652
  440MOL0     H60667  12.278   0.204   0.780  0.0120  0.4507 -1.1012
  440MOL0     H60668  12.194   0.264   0.634 -0.0871 -1.2965  0.3897
  440MOL0     H60669  12.530   0.265   0.772  2.1856  0.8990  1.7222
  440MOL0     H60670  12.731   0.602   0.688  0.4499  0.5467  3.9774
  440MOL0     H60671  12.743   0.431   0.629  1.3684 -0.2078  1.0961
  440MOL0     H60672  12.746   0.529   0.927  2.4032 -0.8870  1.3510
  440MOL0     H60673  12.737   0.364   0.872  0.8126 -1.2504 -1.5845
  440MOL0     H60674  12.948   0.399   0.731 -1.4400  0.6401 -0.3980
  440MOL0     H60675  12.945   0.570   0.794 -1.3151  0.8935 -1.1057
  440MOL0     H60676  12.992   0.304   0.949 -1.0231  0.2996 -0.9949
  440MOL0     H60677  13.107   0.431   0.934 -0.3480  0.9158  1.6523
  440MOL0     H60678  13.159   0.382   1.138  0.8673 -1.2790 -0.2504
  440MOL0     H60679  13.257   0.208   1.421 -1.9669  1.6282  2.1379
  440MOL0     H60680  13.336   0.367   1.418  3.0025 -1.2756 -1.3173
  440MOL0     H60681  13.302   0.279   1.272  1.0914 -2.2774  0.4338
  440MOL0     H60682  13.314   0.460   1.822  0.0762  0.4992  0.3448
  440MOL0     H60683  13.374   0.406   2.047  1.2656 -1.3223  0.3142
  440MOL0     H60684  13.380   0.346   2.259 -0.8614 -0.7189 -1.2871
  440MOL0     H60685  13.342   0.217   2.374 -0.8745  0.5772 -0.2149
  440MOL0     H60686  13.540   0.189   2.122 -1.3342  3.1652 -0.2795
  440MOL0     H60687  13.579   0.265   2.274 -0.9006  1.0071 -1.1853
  440MOL0     H60688  13.453  -0.025   2.261 -0.6291  1.3675 -2.5934
  440MOL0     H60689  13.529   0.067   2.395  1.8198 -0.7720  0.8386
  440MOL0     H60690  13.746   0.044   2.196  0.8250 -2.6458 -0.2464
  440MOL0     H60691  13.656  -0.090   2.166 -0.4715 -1.5500  1.3098
  440MOL0     H60692  13.779  -0.029   2.440  1.2775  1.6345 -2.3303
  440MOL0     H60693  13.680  -0.164   2.412  1.5865 -1.0685  0.0232
  440MOL0     H60694  13.942  -0.113   2.278 -1.8133  2.7434 -1.4237
  440MOL0     H60695  13.833  -0.241   2.223  2.9459 -0.3399 -1.4118
  440MOL0     H60696  13.838  -0.347   2.455  0.6335 -1.3364 -0.5011
  440MOL0     H60697  13.943  -0.209   2.506  1.9911  1.4057 -1.9049
  440MOL0     H60698  14.092  -0.382   2.470 -4.1596  0.0194  2.1395
  440MOL0     H60699  14.107  -0.286   2.312 -1.6328  2.0431  0.1033
  440MOL0     H60700  13.125   0.063   2.025  1.9356 -0.6067 -0.2276
  440MOL0     H60701  13.091   0.085   1.798 -1.2338  0.8666  1.1642
  440MOL0     H60702  12.874   0.522   1.500  1.3306 -0.8295  0.8934
  440MOL0     H60703  12.791   0.552   1.255 -1.1675  0.6399  0.2055
  440MOL0     H60704  11.405   0.450   0.517  1.4757  0.3265  0.9112
  440MOL0     H60705  11.302   0.577   0.340  0.0860  0.4532  0.8352
  440MOL0     H60706  11.135   0.396  -0.102  0.8724 -0.4164 -0.6106
  440MOL0     H60707  11.032   0.424  -0.314 -1.7180  3.0640 -1.2314
  440MOL0     H60708  10.986   0.485  -0.532  0.7694 -0.0266  1.7565
  440MOL0     H60709  10.836   0.493  -0.430 -1.6064  1.1570 -0.2208
  440MOL0     H60710  10.823   0.527  -0.694 -0.1380 -1.4848  0.7913
  440MOL0     H60711  10.834   0.706  -0.648 -1.5919  1.2307  0.3928
  440MOL0     H60712  10.634   0.515  -0.520 -0.8890 -2.9627 -5.7957
  440MOL0     H60713  10.666   0.696  -0.496  4.1035 -0.1510  0.8464
  440MOL0     H60714  10.592   0.717  -0.752  0.1328 -1.0772 -2.0892
  440MOL0     H60715  10.463   0.655  -0.654 -0.0392 -3.5345  0.9209
  440MOL0     H60716  10.642   0.342  -0.886  2.0913  2.1153 -1.3208
  440MOL0     H60717  11.026   0.844  -0.282 -1.5856 -1.5110 -0.8444
  440MOL0     H60718  11.137   0.965  -0.099  0.1041  0.1809 -0.5402
  440MOL0     H60719  11.108   0.883   0.056  1.2955  1.6509  1.3376
  440MOL0     H60720  11.262   0.862  -0.019 -2.2201 -2.2970  3.5275
  441MOL0     O60721   4.748   8.525   4.761 -0.1809  0.4435 -0.5318
  441MOL0     C60722   4.655   8.503   4.677 -0.5915  0.7166  0.5084
  441MOL0     O60723   4.627   8.572   4.569  0.5825  0.6702  0.0326
  441MOL0     C60724   4.734   8.644   4.522 -0.3175 -0.3768 -0.8669
  441MOL0     C60725   4.724   8.780   4.507  0.5950  0.0427  0.4940
  441MOL0     C60726   4.834   8.857   4.451 -0.1686  0.5694  0.3077
  441MOL0     C60727   4.957   8.794   4.438  0.5137  0.4146 -0.3161
  441MOL0     O60728   5.070   8.852   4.393  0.5244 -0.7945 -0.4357
  441MOL0     C60729   5.071   8.951   4.290 -0.5156 -0.0019  1.6666
  441MOL0     C60730   5.077   9.090   4.351  0.1285 -0.9204  0.4108
  441MOL0     C60731   5.210   9.155   4.346 -0.1411  0.0472  0.4100
  441MOL0     C60732   5.236   9.272   4.445  0.1277 -1.0214  0.3731
  441MOL0     C60733   5.356   9.351   4.424  0.2873 -0.2348 -0.0209
  441MOL0     C60734   5.485   9.272   4.478 -0.1470 -0.2483  0.8546
  441MOL0     C60735   5.622   9.320   4.429  0.1550  0.1085 -0.3158
  441MOL0     C60736   5.650   9.455   4.506  0.0008  0.7518 -0.2212
  441MOL0     N60737   5.785   9.504   4.491  0.7377  0.0423  0.1181
  441MOL0     C60738   5.862   9.484   4.380  0.3605  0.4666 -0.1285
  441MOL0     C60739   5.973   9.561   4.408  0.6627  0.7589 -0.5117
  441MOL0     C60740   6.084   9.569   4.307  0.1486 -0.0235  0.9090
  441MOL0     C60741   6.146   9.440   4.250 -0.2365 -0.1353 -0.4975
  441MOL0     C60742   6.232   9.454   4.116  0.4946 -0.3514 -0.2655
  441MOL0     C60743   6.141   9.517   4.007 -0.7919 -0.2651 -0.2609
  441MOL0     O60744   6.024   9.441   3.975 -0.3847 -0.7339 -0.4754
  441MOL0     C60745   6.003   9.398   3.851 -0.7763 -0.2170  1.4407
  441MOL0     C60746   5.892   9.433   3.788  0.2588 -0.9936 -0.2411
  441MOL0     C60747   5.858   9.406   3.657 -0.3789  0.0227  0.0771
  441MOL0     C60748   5.726   9.459   3.603  0.1716 -0.3985 -0.2833
  441MOL0     C60749   5.944   9.320   3.581 -0.3852 -0.0318 -0.8837
  441MOL0     C60750   5.925   9.288   3.435  0.1339 -0.5430 -1.1500
  441MOL0     O60751   5.794   9.260   3.385 -0.5371 -0.0653  0.4883
  441MOL0     C60752   5.795   9.182   3.275 -0.3218 -0.2390 -0.1561
  441MOL0     C60753   5.775   9.246   3.145  0.3614  0.6619  0.5101
  441MOL0     C60754   5.763   9.154   3.031 -0.0078  0.5055 -0.4866
  441MOL0     C60755   5.780   9.011   3.054  0.4938  0.3557 -0.2368
  441MOL0     O60756   5.773   8.925   2.949 -0.1230  0.0175  0.2725
  441MOL0     C60757   5.710   8.969   2.829 -0.1137 -0.1991 -0.1870
  441MOL0     C60758   5.653   8.847   2.745 -1.0086 -0.5696  0.0775
  441MOL0     C60759   5.555   8.750   2.821 -1.5720 -0.9093 -0.1268
  441MOL0     C60760   5.485   8.651   2.734  0.3581  0.3271 -0.0546
  441MOL0     C60761   5.352   8.604   2.794 -0.4375 -0.3292 -0.1896
  441MOL0     C60762   5.356   8.575   2.948  0.0118 -0.8883 -0.2320
  441MOL0     C60763   5.446   8.457   2.984 -0.2394  0.6831  0.1522
  441MOL0     C60764   5.465   8.424   3.130 -0.8490  0.1337 -0.0401
  441MOL0    Cl60765   5.563   8.539   3.222  0.0565 -0.0532  0.3849
  441MOL0     C60766   5.824   8.963   3.179  0.3421  0.6920 -0.1748
  441MOL0     C60767   5.820   9.047   3.296 -0.3622 -0.2871  0.3780
  441MOL0     O60768   6.029   9.276   3.372  0.2702  0.5894  0.4260
  441MOL0     C60769   6.068   9.279   3.647  0.8973 -0.8057  0.9915
  441MOL0     C60770   6.092   9.316   3.781 -0.9588 -0.1255 -0.1680
  441MOL0     N60771   5.962   9.634   4.527 -0.4178  0.1895  0.7046
  441MOL0     N60772   5.853   9.596   4.568  0.2173  0.7383  0.4112
  441MOL0     C60773   4.956   8.659   4.464  0.5547 -0.0770 -0.1546
  441MOL0     C60774   4.848   8.581   4.494 -0.3634  0.4578  0.0404
  441MOL0     C60775   4.574   8.375   4.714  0.0507  0.2652  0.3223
  441MOL0     C60776   4.436   8.383   4.689 -0.6934  0.0519 -0.7677
  441MOL0     C60777   4.365   8.269   4.717 -0.1280  0.2447 -0.2916
  441MOL0     C60778   4.407   8.154   4.783 -0.7106  0.2150 -0.5205
  441MOL0     O60779   4.322   8.052   4.837 -0.6005 -0.9272 -0.5844
  441MOL0     C60780   4.196   8.020   4.769 -0.2597 -1.3070 -1.1157
  441MOL0     C60781   4.114   7.933   4.867 -0.2985 -0.0078 -0.5608
  441MOL0     C60782   3.970   7.909   4.814 -0.3418 -0.2544 -0.4909
  441MOL0     C60783   3.892   7.802   4.882  0.6350 -0.3542  0.5085
  441MOL0     C60784   3.766   7.779   4.808  0.1923  0.8578 -0.7832
  441MOL0     C60785   3.667   7.733   4.749 -0.5808 -0.4965 -0.3091
  441MOL0     C60786   4.542   8.146   4.795  0.2286 -0.6501 -0.0230
  441MOL0     C60787   4.623   8.253   4.763 -0.6836  0.2258  0.5098
  441MOL0     C60788   4.774   8.228   4.770  0.2562  0.4825 -0.5413
  441MOL0     H60789   4.626   8.821   4.526  0.0366 -0.9081 -0.2596
  441MOL0     H60790   4.820   8.965   4.443 -2.1283  0.6792  3.3949
  441MOL0     H60791   4.987   8.935   4.222  0.7621 -0.9635  0.2480
  441MOL0     H60792   5.151   8.928   4.219 -0.8016 -2.2258  2.0029
  441MOL0     H60793   5.006   9.148   4.293  0.5278 -1.3861 -0.5598
  441MOL0     H60794   5.049   9.091   4.457  1.8178  0.8674  0.9096
  441MOL0     H60795   5.293   9.084   4.351 -1.4203 -1.7710 -1.7815
  441MOL0     H60796   5.212   9.194   4.244 -3.1323  2.9721  1.2938
  441MOL0     H60797   5.153   9.344   4.437  1.8337  0.8325 -2.7735
  441MOL0     H60798   5.243   9.257   4.553  0.2700  4.2011  1.3571
  441MOL0     H60799   5.352   9.439   4.489 -1.8353  0.8069 -1.4565
  441MOL0     H60800   5.366   9.364   4.316  3.0971 -0.6132  0.1287
  441MOL0     H60801   5.479   9.273   4.587  2.1422 -1.8432  1.0800
  441MOL0     H60802   5.472   9.170   4.440  1.4518  0.9403 -3.5291
  441MOL0     H60803   5.632   9.338   4.322 -1.3679  2.1635 -0.1702
  441MOL0     H60804   5.688   9.245   4.474  1.9877  0.1536 -2.7250
  441MOL0     H60805   5.574   9.524   4.467 -0.6314 -0.6063 -1.4958
  441MOL0     H60806   5.626   9.437   4.611 -0.7761 -1.3066 -0.6942
  441MOL0     H60807   5.837   9.442   4.283 -0.9479  0.3539  0.2511
  441MOL0     H60808   6.164   9.627   4.353  0.9106 -0.3386  0.0018
  441MOL0     H60809   6.056   9.636   4.226  2.4355  0.7792  0.7243
  441MOL0     H60810   6.202   9.399   4.334 -2.7548 -0.3907  1.1773
  441MOL0     H60811   6.067   9.365   4.236  0.1556 -1.2693  2.6244
  441MOL0     H60812   6.326   9.502   4.145  2.3520 -3.1087 -1.3181
  441MOL0     H60813   6.256   9.352   4.085  3.2443 -0.3334  1.5036
  441MOL0     H60814   6.110   9.618   4.036 -2.2191 -0.3728 -1.2907
  441MOL0     H60815   6.207   9.530   3.920  0.5180  0.4011  0.7971
  441MOL0     H60816   5.823   9.482   3.856 -0.4928 -1.3073 -0.7662
  441MOL0     H60817   5.704   9.566   3.594 -4.1913 -0.9496  1.2347
  441MOL0     H60818   5.651   9.407   3.664  0.9136  1.4519  2.4190
  441MOL0     H60819   5.710   9.424   3.501 -0.0952  2.8393 -1.4828
  441MOL0     H60820   5.761   9.353   3.141 -0.8126  0.5673 -4.2115
  441MOL0     H60821   5.736   9.199   2.936 -1.1556 -1.5335 -1.1854
  441MOL0     H60822   5.614   9.009   2.863 -0.7438 -1.4465 -0.4069
  441MOL0     H60823   5.764   9.040   2.767  0.9240 -0.1394  0.7562
  441MOL0     H60824   5.596   8.888   2.661 -0.2741 -1.5852 -0.9450
  441MOL0     H60825   5.741   8.810   2.690  0.5872  3.8790 -0.7915
  441MOL0     H60826   5.478   8.805   2.877 -1.2496  1.1911 -1.6239
  441MOL0     H60827   5.615   8.697   2.896  2.2849 -1.5125 -3.3170
  441MOL0     H60828   5.556   8.569   2.717 -1.0921 -0.7002 -1.4845
  441MOL0     H60829   5.460   8.685   2.634 -0.6655  0.8178  0.3573
  441MOL0     H60830   5.285   8.689   2.779 -1.3462 -1.4650 -3.5038
  441MOL0     H60831   5.302   8.519   2.745  0.0405 -0.3209 -0.7034
  441MOL0     H60832   5.257   8.554   2.988 -0.6708 -0.1803 -1.5029
  441MOL0     H60833   5.393   8.668   2.993 -0.0291 -1.6406  1.4210
  441MOL0     H60834   5.547   8.488   2.955  0.3285  0.6437  1.9563
  441MOL0     H60835   5.418   8.364   2.933  1.9605  0.4581 -0.7830
  441MOL0     H60836   5.510   8.324   3.133  3.8803  1.9779 -0.7091
  441MOL0     H60837   5.362   8.414   3.164 -1.8704  0.3918 -2.7929
  441MOL0     H60838   5.864   8.862   3.183 -0.8593  0.2295  2.1012
  441MOL0     H60839   5.848   9.003   3.391  0.6725 -2.9479 -1.0646
  441MOL0     H60840   6.146   9.235   3.586  0.6384  0.1752 -0.0945
  441MOL0     H60841   6.187   9.291   3.826 -2.3900 -0.1001  3.1491
  441MOL0     H60842   5.043   8.595   4.463 -1.0437 -2.3517 -0.9440
  441MOL0     H60843   4.845   8.472   4.496  1.2295  0.3494 -1.3223
  441MOL0     H60844   4.381   8.468   4.651 -2.0867 -0.0070  0.9609
  441MOL0     H60845   4.261   8.276   4.687  0.3702  0.0919 -2.2319
  441MOL0     H60846   4.138   8.112   4.763 -1.1744 -1.8803 -1.2638
  441MOL0     H60847   4.216   7.980   4.669  0.1741  0.1958 -1.6604
  441MOL0     H60848   4.109   7.979   4.966 -4.2802 -1.6023  0.1709
  441MOL0     H60849   4.167   7.838   4.880  0.5124  0.7225  1.9087
  441MOL0     H60850   3.915   8.004   4.817  1.7074  0.9795  1.3151
  441MOL0     H60851   3.961   7.881   4.709  1.2488 -0.1541 -0.6756
  441MOL0     H60852   3.872   7.848   4.980 -1.9014  0.9272 -0.5114
  441MOL0     H60853   3.953   7.713   4.895  0.1352 -0.4084  3.1584
  441MOL0     H60854   3.591   7.674   4.702  1.2259 -4.6496  1.4694
  441MOL0     H60855   4.586   8.057   4.840 -1.4340 -1.0221  0.9426
  441MOL0     H60856   4.816   8.299   4.842  0.6040 -1.7078  1.5546
  441MOL0     H60857   4.804   8.132   4.815  1.8710  0.4433 -1.6321
  441MOL0     H60858   4.824   8.227   4.673 -1.8937  1.2459 -1.7176
  442MOL0     O60859   0.408   3.850   0.100 -0.5274 -0.0673 -0.7281
  442MOL0     C60860   0.346   3.757   0.057  0.7506  0.5173 -0.5468
  442MOL0     O60861   0.240   3.758  -0.030 -0.7924  0.4736 -0.6876
  442MOL0     C60862   0.201   3.884  -0.058  0.5611 -0.5286  0.1430
  442MOL0     C60863   0.156   3.974   0.038 -1.0884  0.5356 -0.2039
  442MOL0     C60864   0.124   4.110   0.019 -0.7266  0.6710 -0.6006
  442MOL0     C60865   0.110   4.153  -0.114  0.4849  0.7552  0.0509
  442MOL0     O60866   0.125   4.279  -0.163  0.0139  0.0651 -0.3504
  442MOL0     C60867   0.032   4.374  -0.123  0.2572  0.2747 -0.1941
  442MOL0     C60868  -0.073   4.400  -0.234  0.6881  0.1740  0.6188
  442MOL0     C60869  -0.179   4.299  -0.235 -0.2085  0.6346  0.6331
  442MOL0     C60870  -0.271   4.297  -0.114  0.2840 -0.1056 -0.2024
  442MOL0     C60871  -0.329   4.160  -0.078 -1.3852  0.3229  0.7822
  442MOL0     C60872  -0.432   4.122  -0.188 -0.2380 -0.8474 -0.7482
  442MOL0     C60873  -0.440   3.974  -0.212 -0.7619 -0.1357 -0.4372
  442MOL0     C60874  -0.469   3.952  -0.359 -0.2168 -0.3943 -0.8023
  442MOL0     N60875  -0.488   3.811  -0.399 -0.9080  0.4982  0.6015
  442MOL0     C60876  -0.381   3.738  -0.453 -0.3320 -0.2459 -0.6395
  442MOL0     C60877  -0.437   3.626  -0.507  0.3164  0.0504 -1.2603
  442MOL0     C60878  -0.370   3.497  -0.543 -0.5771 -0.1784  0.1097
  442MOL0     C60879  -0.291   3.499  -0.669 -0.4227 -0.3796  0.0579
  442MOL0     C60880  -0.160   3.573  -0.654  0.0644  0.0715  0.4583
  442MOL0     C60881  -0.073   3.507  -0.544 -0.9689  0.6114 -0.2234
  442MOL0     O60882  -0.076   3.590  -0.421  0.2812  0.6984 -0.0980
  442MOL0     C60883  -0.111   3.553  -0.295  0.0793  0.6629 -0.7892
  442MOL0     C60884  -0.109   3.666  -0.213  0.3728 -0.1314 -0.4001
  442MOL0     C60885  -0.133   3.664  -0.081  0.1398  0.5893 -0.1474
  442MOL0     C60886  -0.144   3.801  -0.013  0.1635 -0.7116 -0.4036
  442MOL0     C60887  -0.177   3.537  -0.029  0.9189 -0.2251 -0.1389
  442MOL0     C60888  -0.211   3.527   0.109  0.0698 -0.4018 -0.8362
  442MOL0     O60889  -0.319   3.453   0.153  0.8076  0.0676  0.8632
  442MOL0     C60890  -0.353   3.459   0.289  0.0145 -1.1018 -0.4368
  442MOL0     C60891  -0.282   3.373   0.374 -0.5701  0.4382 -0.2869
  442MOL0     C60892  -0.309   3.378   0.512 -0.4963  0.7137  0.5574
  442MOL0     C60893  -0.409   3.457   0.566 -0.3458 -0.6650 -0.2075
  442MOL0     O60894  -0.436   3.464   0.699 -0.4671 -0.1831  0.5210
  442MOL0     C60895  -0.551   3.405   0.739 -0.7158 -0.2648  0.6435
  442MOL0     C60896  -0.531   3.360   0.883  0.4246  0.1264 -0.2684
  442MOL0     C60897  -0.471   3.217   0.885 -0.3703 -0.6358  0.2804
  442MOL0     C60898  -0.399   3.159   1.018 -0.2573 -0.4890 -1.3116
  442MOL0     C60899  -0.251   3.130   1.001 -0.4148  0.5281 -0.0438
  442MOL0     C60900  -0.181   3.270   0.999 -0.3031 -0.5961  0.3620
  442MOL0     C60901  -0.025   3.256   0.977  0.0165  0.6855  0.3928
  442MOL0     C60902   0.010   3.161   0.858  0.0681 -0.2546 -0.1993
  442MOL0    Cl60903  -0.076   3.206   0.708 -0.1275  0.3310 -0.9107
  442MOL0     C60904  -0.469   3.556   0.480  0.7267  0.5558 -0.9983
  442MOL0     C60905  -0.446   3.550   0.343 -1.3453  0.4162 -0.1476
  442MOL0     O60906  -0.131   3.583   0.183 -0.6775 -0.5971  0.1964
  442MOL0     C60907  -0.195   3.427  -0.115  0.0759 -0.7477 -0.1959
  442MOL0     C60908  -0.158   3.431  -0.251  0.7747  0.1777 -0.2445
  442MOL0     N60909  -0.573   3.629  -0.491  1.0019 -0.3836  0.1534
  442MOL0     N60910  -0.597   3.734  -0.422 -0.1798 -0.3658 -1.1172
  442MOL0     C60911   0.128   4.060  -0.216  0.9563  0.4201 -0.1509
  442MOL0     C60912   0.173   3.927  -0.184 -0.8245 -0.1358 -0.2582
  442MOL0     C60913   0.396   3.631   0.095 -0.1389 -0.2666 -0.7144
  442MOL0     C60914   0.528   3.588   0.050 -1.0816 -0.7400 -0.1177
  442MOL0     C60915   0.580   3.462   0.085  0.1338  0.2758 -0.1503
  442MOL0     C60916   0.499   3.365   0.140  0.8910 -0.3313 -0.6776
  442MOL0     O60917   0.551   3.247   0.157 -0.0732 -0.2339 -0.2276
  442MOL0     C60918   0.526   3.157   0.268 -0.7193  0.8238 -0.4194
  442MOL0     C60919   0.653   3.085   0.312 -0.7456 -0.0970  0.3987
  442MOL0     C60920   0.702   3.002   0.186  0.2144 -0.4115  0.8406
  442MOL0     C60921   0.853   2.977   0.198 -0.6787  0.4403 -0.4048
  442MOL0     C60922   0.934   3.101   0.188 -0.4826  1.3254  0.1530
  442MOL0     C60923   0.996   3.200   0.175 -0.9743 -1.1147 -0.3941
  442MOL0     C60924   0.362   3.400   0.166  0.1876  0.1230  0.2473
  442MOL0     C60925   0.314   3.529   0.145  0.5367  0.2318 -0.0954
  442MOL0     C60926   0.157   3.544   0.158 -0.5019 -0.3365 -0.3295
  442MOL0     H60927   0.149   3.943   0.142 -0.9549 -0.4744 -0.4884
  442MOL0     H60928   0.098   4.182   0.096  1.8878 -0.8442  1.8914
  442MOL0     H60929   0.085   4.467  -0.100  1.6458 -0.1782 -1.3592
  442MOL0     H60930  -0.015   4.344  -0.029  0.1231 -0.3672 -0.4630
  442MOL0     H60931  -0.112   4.501  -0.220 -0.8782 -0.6706  2.8662
  442MOL0     H60932  -0.010   4.407  -0.323 -1.4524 -0.5457 -1.0412
  442MOL0     H60933  -0.252   4.324  -0.313 -2.3869  4.1891  3.4615
  442MOL0     H60934  -0.134   4.201  -0.253 -2.9197 -0.2758 -2.1341
  442MOL0     H60935  -0.217   4.333  -0.026  1.2425  1.3262 -1.3276
  442MOL0     H60936  -0.352   4.368  -0.131  0.1016 -0.3585 -0.4050
  442MOL0     H60937  -0.382   4.160   0.018 -0.4936 -0.7247  1.2932
  442MOL0     H60938  -0.247   4.090  -0.063  0.8473  2.7094  0.3628
  442MOL0     H60939  -0.529   4.162  -0.155  0.5767 -0.6239  1.6094
  442MOL0     H60940  -0.396   4.170  -0.279  0.3362 -2.5827 -1.4774
  442MOL0     H60941  -0.524   3.940  -0.150 -1.2390 -0.5053 -1.2698
  442MOL0     H60942  -0.348   3.930  -0.171 -0.8847  0.7214  0.8161
  442MOL0     H60943  -0.550   4.018  -0.390  1.0675  0.6990 -1.9331
  442MOL0     H60944  -0.375   3.975  -0.410  1.6733 -4.4456  0.3819
  442MOL0     H60945  -0.275   3.760  -0.443 -0.2774 -1.0333  0.8000
  442MOL0     H60946  -0.449   3.421  -0.548 -2.1706  1.3879  0.5198
  442MOL0     H60947  -0.315   3.467  -0.453 -1.0461  4.1119  2.0968
  442MOL0     H60948  -0.272   3.397  -0.706 -0.7808  0.1748 -1.7699
  442MOL0     H60949  -0.360   3.548  -0.738 -1.1716  1.0687  1.7798
  442MOL0     H60950  -0.108   3.576  -0.751  1.7917  2.5992  1.3603
  442MOL0     H60951  -0.179   3.675  -0.621 -1.8277 -0.6456  1.8110
  442MOL0     H60952  -0.104   3.405  -0.515  1.4221  1.0938  5.4682
  442MOL0     H60953   0.030   3.501  -0.580 -1.2225 -2.6375 -0.7892
  442MOL0     H60954  -0.063   3.760  -0.242  0.9185  0.3750  1.9088
  442MOL0     H60955  -0.137   3.881  -0.088  0.4972 -1.2733 -0.9791
  442MOL0     H60956  -0.066   3.808   0.064 -0.9973 -1.2303  0.8541
  442MOL0     H60957  -0.239   3.808   0.040  0.1655  0.3135 -0.5203
  442MOL0     H60958  -0.218   3.294   0.336 -5.9677 -3.6125 -2.0973
  442MOL0     H60959  -0.255   3.306   0.573  1.7625  0.7837 -1.1960
  442MOL0     H60960  -0.620   3.490   0.743 -1.2035 -0.6806  1.3734
  442MOL0     H60961  -0.592   3.330   0.672 -0.0629 -1.2467  1.3188
  442MOL0     H60962  -0.456   3.426   0.927 -1.2049  3.6319 -2.3177
  442MOL0     H60963  -0.616   3.366   0.951  0.0493 -0.0922 -0.7157
  442MOL0     H60964  -0.391   3.222   0.810 -2.1655  1.6044 -1.6293
  442MOL0     H60965  -0.535   3.134   0.852 -0.8601 -0.9842  1.9903
  442MOL0     H60966  -0.442   3.063   1.051  2.4234 -0.6480  2.4068
  442MOL0     H60967  -0.409   3.232   1.098  0.1495 -0.0840 -1.6270
  442MOL0     H60968  -0.217   3.069   1.085  0.7939 -3.0924 -2.9097
  442MOL0     H60969  -0.228   3.071   0.912 -0.5228  0.7609 -0.2256
  442MOL0     H60970  -0.194   3.317   1.097  1.9210 -2.4423  1.6408
  442MOL0     H60971  -0.223   3.334   0.920 -3.2178 -0.7111  1.6901
  442MOL0     H60972   0.025   3.217   1.066  1.1934  0.3122 -0.4088
  442MOL0     H60973   0.027   3.350   0.959  0.1196  0.1691 -2.5287
  442MOL0     H60974  -0.019   3.059   0.885  1.6592 -0.6170  0.2017
  442MOL0     H60975   0.117   3.155   0.839 -0.0555 -0.4620 -0.8607
  442MOL0     H60976  -0.540   3.631   0.512 -1.2467 -1.2030 -1.0674
  442MOL0     H60977  -0.521   3.590   0.276  0.6118  1.5240 -1.8269
  442MOL0     H60978  -0.209   3.334  -0.060  1.4371  0.6356  2.7142
  442MOL0     H60979  -0.172   3.346  -0.316  1.1381 -0.1309  0.0722
  442MOL0     H60980   0.098   4.095  -0.315 -4.6227  1.4357  1.5906
  442MOL0     H60981   0.189   3.848  -0.255  0.6090 -1.5526  1.5338
  442MOL0     H60982   0.586   3.672   0.013 -1.9043  0.1259  0.4999
  442MOL0     H60983   0.683   3.438   0.060  0.8223 -0.5170  3.0406
  442MOL0     H60984   0.473   3.208   0.349  0.6105  0.6349  0.6015
  442MOL0     H60985   0.450   3.089   0.229 -1.2240  1.3204 -0.3203
  442MOL0     H60986   0.627   3.020   0.396 -0.2564 -2.8732 -1.4308
  442MOL0     H60987   0.730   3.156   0.345 -0.9900 -0.8582  2.7894
  442MOL0     H60988   0.653   2.904   0.187  2.0064 -1.4095  3.8816
  442MOL0     H60989   0.701   3.049   0.087 -0.5951 -2.5210 -0.1976
  442MOL0     H60990   0.882   2.912   0.114  0.5351  0.2168  0.1617
  442MOL0     H60991   0.893   2.916   0.279 -0.6752  1.1462  0.1296
  442MOL0     H60992   1.045   3.295   0.168 -1.8961 -0.6965 -1.3555
  442MOL0     H60993   0.291   3.324   0.196 -2.8366  1.7893 -2.1554
  442MOL0     H60994   0.125   3.625   0.223  1.2655  0.1315  0.0034
  442MOL0     H60995   0.125   3.542   0.053  0.8080 -0.3908 -0.7548
  442MOL0     H60996   0.111   3.453   0.198  2.6573 -2.4416 -1.1096
  443MOL0     O60997   6.438   8.044   1.757 -0.0439 -0.2393  0.1941
  443MOL0     C60998   6.433   7.943   1.685 -0.1622  0.0146 -1.0584
  443MOL0     O60999   6.532   7.868   1.640 -1.2664 -0.4276  0.4187
  443MOL0     C61000   6.659   7.909   1.668  0.0488  1.1915  0.8080
  443MOL0     C61001   6.717   7.882   1.793 -0.4147  0.9096  1.0136
  443MOL0     C61002   6.847   7.908   1.823 -0.1633  0.2034  0.0490
  443MOL0     C61003   6.936   7.958   1.723 -0.7997  0.9171  0.0961
  443MOL0     O61004   7.066   7.971   1.752 -0.0767  0.3831 -0.2452
  443MOL0     C61005   7.126   8.099   1.719  0.1483 -0.3450 -0.0503
  443MOL0     C61006   7.270   8.102   1.742  0.2309  0.5034 -0.2798
  443MOL0     C61007   7.332   8.228   1.693 -0.0010 -0.1607 -0.5020
  443MOL0     C61008   7.348   8.339   1.809 -0.8723 -0.0173  0.3121
  443MOL0     C61009   7.399   8.481   1.769 -0.9466  0.0592 -0.2401
  443MOL0     C61010   7.313   8.554   1.659  0.4012  0.0174 -0.2139
  443MOL0     C61011   7.384   8.688   1.637 -0.0441 -0.7692 -0.0050
  443MOL0     C61012   7.333   8.758   1.511 -0.0629 -0.1487  0.3639
  443MOL0     N61013   7.385   8.895   1.473  0.4088 -0.0751  0.6923
  443MOL0     C61014   7.385   9.014   1.545  0.2867 -0.1077  0.1710
  443MOL0     C61015   7.451   9.095   1.460 -1.2650  1.2262  0.5673
  443MOL0     C61016   7.494   9.243   1.488 -0.1531  0.1126  0.2837
  443MOL0     C61017   7.648   9.251   1.488  0.2612 -0.5820 -0.4142
  443MOL0     C61018   7.674   9.404   1.472 -0.4344  0.5774  0.1409
  443MOL0     C61019   7.830   9.427   1.463 -0.1969 -0.4159 -0.1009
  443MOL0     O61020   7.894   9.410   1.580 -0.5528 -0.2732  0.2925
  443MOL0     C61021   7.939   9.529   1.621 -0.0734  0.0178 -0.1361
  443MOL0     C61022   8.048   9.596   1.574  0.9105 -0.2934 -0.1835
  443MOL0     C61023   8.091   9.720   1.620 -0.0385  0.2899 -0.8550
  443MOL0     C61024   8.231   9.774   1.581 -1.0661 -0.3557  0.8056
  443MOL0     C61025   8.024   9.783   1.724  0.7449 -0.1411  0.4701
  443MOL0     C61026   8.035   9.930   1.759 -0.1473  0.3333  0.0461
  443MOL0     O61027   7.920  10.007   1.755 -0.1722  0.3057 -0.2500
  443MOL0     C61028   7.899  10.104   1.853  0.5861 -0.1039  0.6318
  443MOL0     C61029   8.000  10.175   1.927  0.5752  0.4899 -0.5095
  443MOL0     C61030   7.963  10.267   2.024  1.3915 -0.1123 -0.6854
  443MOL0     C61031   7.823  10.300   2.024 -0.3974  0.4185 -1.5018
  443MOL0     O61032   7.801  10.412   2.103  0.9419 -0.0523 -0.2324
  443MOL0     C61033   7.697  10.508   2.054 -0.7069  0.1654 -0.9643
  443MOL0     C61034   7.637  10.580   2.168  1.1362  0.1267 -0.1004
  443MOL0     C61035   7.743  10.652   2.260  0.9306  0.4479 -0.2895
  443MOL0     C61036   7.800  10.774   2.207 -0.9566 -0.3713 -0.0641
  443MOL0     C61037   7.711  10.886   2.150  0.3910  1.4283 -1.4014
  443MOL0     C61038   7.711  11.003   2.237 -0.3138  0.6653  0.4329
  443MOL0     C61039   7.609  11.098   2.169  0.2309  0.6388 -0.0414
  443MOL0     C61040   7.637  11.235   2.207 -0.0671 -0.5506  1.1350
  443MOL0    Cl61041   7.598  11.268   2.374 -0.3474  0.0583  0.2664
  443MOL0     C61042   7.725  10.228   1.965  0.2189 -0.0408  1.0262
  443MOL0     C61043   7.769  10.135   1.873  0.4735  0.5207  0.7836
  443MOL0     O61044   8.147   9.978   1.770 -0.3496 -1.0142  0.2738
  443MOL0     C61045   7.906   9.722   1.765 -0.4605 -0.2791  1.1707
  443MOL0     C61046   7.880   9.597   1.721  0.3742 -0.4283  1.0562
  443MOL0     N61047   7.490   9.036   1.337  0.0063 -0.4406 -1.1925
  443MOL0     N61048   7.450   8.909   1.351 -0.1420 -0.9111  0.0637
  443MOL0     C61049   6.879   7.982   1.598 -0.5428 -0.1504  0.3673
  443MOL0     C61050   6.741   7.953   1.567 -0.0823 -1.0629 -0.1985
  443MOL0     C61051   6.291   7.904   1.643 -0.0610  0.4420 -0.4003
  443MOL0     C61052   6.184   7.931   1.735  0.1913 -0.6012 -0.1132
  443MOL0     C61053   6.056   7.898   1.706  0.0967  0.3806 -0.0077
  443MOL0     C61054   6.015   7.877   1.572 -1.1163 -0.5975 -0.9791
  443MOL0     O61055   5.888   7.840   1.550 -0.0481  0.4847  0.6510
  443MOL0     C61056   5.827   7.874   1.420 -0.5350 -0.5177 -0.4732
  443MOL0     C61057   5.857   8.023   1.377 -0.4344 -0.1766  0.0007
  443MOL0     C61058   5.781   8.055   1.245 -0.3159  0.1561  0.7813
  443MOL0     C61059   5.806   7.962   1.123  0.2647 -0.5805 -0.1855
  443MOL0     C61060   5.700   7.962   1.025  0.7280  0.4039 -0.4347
  443MOL0     C61061   5.615   7.978   0.939  0.8655 -0.1866 -1.1488
  443MOL0     C61062   6.118   7.863   1.481  0.6392  0.1590 -0.5003
  443MOL0     C61063   6.256   7.867   1.517 -0.9617 -1.2159 -0.0414
  443MOL0     C61064   6.363   7.855   1.408  0.6325  0.7303 -0.0142
  443MOL0     H61065   6.646   7.847   1.868  2.1588 -0.8799  2.7696
  443MOL0     H61066   6.897   7.898   1.920 -1.5664 -5.8153  0.5274
  443MOL0     H61067   7.068   8.179   1.767  0.6731  1.4220 -2.1643
  443MOL0     H61068   7.099   8.113   1.614  0.1024  1.3555  0.1494
  443MOL0     H61069   7.281   8.092   1.850 -3.2021 -2.1937  0.0139
  443MOL0     H61070   7.332   8.022   1.701  1.4626  0.5871  1.3360
  443MOL0     H61071   7.430   8.210   1.647 -0.4340 -0.6722 -1.2507
  443MOL0     H61072   7.270   8.268   1.612 -2.5097 -0.3053  1.2607
  443MOL0     H61073   7.242   8.343   1.836 -1.4595 -1.5137 -1.5424
  443MOL0     H61074   7.418   8.305   1.886 -0.5783  2.0604  1.0352
  443MOL0     H61075   7.499   8.461   1.729 -1.8411 -1.8717 -1.7190
  443MOL0     H61076   7.418   8.538   1.860  0.8630 -0.4925 -0.2390
  443MOL0     H61077   7.304   8.495   1.567 -1.1996 -0.1161  0.0032
  443MOL0     H61078   7.207   8.553   1.682 -0.7950 -2.5145 -4.5521
  443MOL0     H61079   7.494   8.683   1.635 -0.1029 -3.0914 -0.7974
  443MOL0     H61080   7.370   8.748   1.727 -2.6009 -2.8937  1.1582
  443MOL0     H61081   7.351   8.698   1.421  0.8970  4.3718 -2.7901
  443MOL0     H61082   7.224   8.756   1.509 -0.1671 -1.9270 -3.9976
  443MOL0     H61083   7.341   9.021   1.644  0.9703 -1.4279  0.5928
  443MOL0     H61084   7.464   9.282   1.586  2.0752  3.8431 -0.3428
  443MOL0     H61085   7.443   9.310   1.417 -0.5569  0.8481  1.2475
  443MOL0     H61086   7.693   9.223   1.584  0.6486  4.5466  1.1858
  443MOL0     H61087   7.692   9.193   1.406  2.2474  1.9695 -1.2840
  443MOL0     H61088   7.636   9.450   1.381 -0.0101  2.1827  0.7367
  443MOL0     H61089   7.638   9.454   1.563 -2.2226 -0.7244  0.2030
  443MOL0     H61090   7.866   9.353   1.390 -1.5635 -3.4830  2.1068
  443MOL0     H61091   7.847   9.521   1.411  0.9138 -0.8350 -0.5404
  443MOL0     H61092   8.093   9.543   1.490 -0.1171 -2.1501  0.3804
  443MOL0     H61093   8.295   9.788   1.668  4.7316 -3.8277 -2.2683
  443MOL0     H61094   8.223   9.869   1.528  0.4547 -0.5118  0.2492
  443MOL0     H61095   8.292   9.711   1.515 -0.2036  1.9500 -0.7183
  443MOL0     H61096   8.103  10.143   1.919  0.1174 -1.0608 -0.7020
  443MOL0     H61097   8.032  10.322   2.088  1.5999 -2.1057  0.9211
  443MOL0     H61098   7.747  10.572   1.980  1.3094  0.5537  0.6348
  443MOL0     H61099   7.610  10.459   2.009 -1.0846  1.0589 -1.2326
  443MOL0     H61100   7.567  10.659   2.139  0.9695  2.4271  5.3176
  443MOL0     H61101   7.574  10.513   2.227  0.4060 -0.0515 -1.0629
  443MOL0     H61102   7.826  10.585   2.283  0.5446  0.0761  0.0276
  443MOL0     H61103   7.703  10.679   2.358 -1.2685  0.4083 -1.1427
  443MOL0     H61104   7.873  10.745   2.130 -2.1570 -2.9651 -0.3300
  443MOL0     H61105   7.853  10.824   2.288  0.0942 -0.4662 -0.6692
  443MOL0     H61106   7.736  10.913   2.047  2.0264  0.2792 -1.3535
  443MOL0     H61107   7.606  10.857   2.143  0.4120  0.0884  2.0320
  443MOL0     H61108   7.810  11.048   2.253 -0.7245  2.0063 -0.5889
  443MOL0     H61109   7.674  10.982   2.338 -1.1598 -2.3558 -0.4113
  443MOL0     H61110   7.506  11.074   2.199  0.0535 -1.0676 -1.7908
  443MOL0     H61111   7.620  11.070   2.064  1.4552 -3.8212  1.0611
  443MOL0     H61112   7.572  11.306   2.156  0.3963 -1.4673 -0.8287
  443MOL0     H61113   7.740  11.266   2.187 -1.3933  2.9410 -1.3203
  443MOL0     H61114   7.618  10.247   1.977 -0.2106 -0.1981 -1.8161
  443MOL0     H61115   7.692  10.080   1.819  0.5973  0.4354  0.6950
  443MOL0     H61116   7.845   9.754   1.849 -1.3087 -0.2030  0.5363
  443MOL0     H61117   7.797   9.546   1.770 -0.1621  1.5946  2.3613
  443MOL0     H61118   6.935   8.015   1.511 -2.8441  3.4764  0.0913
  443MOL0     H61119   6.695   7.988   1.475  1.5499 -0.2060 -0.7176
  443MOL0     H61120   6.208   7.962   1.836  0.3597 -4.0754  1.0482
  443MOL0     H61121   5.984   7.886   1.786 -2.1512 -5.5131 -2.3609
  443MOL0     H61122   5.878   7.815   1.344 -3.2620 -1.4774 -1.6673
  443MOL0     H61123   5.720   7.853   1.414 -1.0121  1.4055  0.3966
  443MOL0     H61124   5.962   8.054   1.369 -0.1265 -1.4886 -1.6034
  443MOL0     H61125   5.814   8.084   1.457  0.4781  1.0302 -0.3928
  443MOL0     H61126   5.675   8.072   1.263 -0.1425  0.1284  1.8536
  443MOL0     H61127   5.814   8.155   1.214 -1.3141  0.5302  0.9005
  443MOL0     H61128   5.804   7.857   1.151 -0.1594 -0.7752 -0.9434
  443MOL0     H61129   5.906   7.981   1.081  0.5103 -1.2095  0.1018
  443MOL0     H61130   5.547   7.973   0.856  1.2174 -0.7847 -1.4098
  443MOL0     H61131   6.095   7.845   1.376 -1.3208 -1.3880  0.1421
  443MOL0     H61132   6.429   7.941   1.418  0.8440  0.7829 -1.5168
  443MOL0     H61133   6.427   7.768   1.422 -0.9489  0.0086  3.8012
  443MOL0     H61134   6.329   7.864   1.304  1.0850 -0.4297 -0.2785
  444MOL0     O61135   7.100   2.760   8.832 -0.7192 -0.2194  0.8396
  444MOL0     C61136   7.068   2.687   8.737 -0.5115  0.8262  0.2907
  444MOL0     O61137   6.946   2.629   8.719 -0.5942  0.8399  0.2006
  444MOL0     C61138   6.849   2.672   8.801 -0.5347  0.1962 -0.2409
  444MOL0     C61139   6.739   2.737   8.738 -0.2056  0.4993 -0.0947
  444MOL0     C61140   6.629   2.778   8.818 -0.6947 -0.0055  0.4257
  444MOL0     C61141   6.627   2.769   8.962 -0.2715  0.9572  0.3412
  444MOL0     O61142   6.516   2.805   9.017 -0.0993 -0.8821 -0.4518
  444MOL0     C61143   6.502   2.829   9.160  0.4852  0.5636 -1.3540
  444MOL0     C61144   6.510   2.702   9.247  0.9426 -0.3617 -0.3992
  444MOL0     C61145   6.490   2.573   9.187  0.6683 -0.6431 -0.1592
  444MOL0     C61146   6.350   2.550   9.140 -0.1471  0.2407 -1.1482
  444MOL0     C61147   6.321   2.406   9.099  0.1263 -0.8949  0.2220
  444MOL0     C61148   6.405   2.336   8.995  0.2503  0.1921  0.3985
  444MOL0     C61149   6.432   2.432   8.878  0.4811 -0.9091  0.5731
  444MOL0     C61150   6.300   2.477   8.808  0.9867  0.0124  0.3966
  444MOL0     N61151   6.329   2.592   8.720  0.9837 -0.0744 -0.0670
  444MOL0     C61152   6.380   2.596   8.592 -0.3660  0.0198 -0.5989
  444MOL0     C61153   6.369   2.722   8.550  0.7905  0.3259  0.4562
  444MOL0     C61154   6.397   2.789   8.415  0.1770 -0.6110 -0.5109
  444MOL0     C61155   6.413   2.938   8.438 -0.0570 -0.4698 -0.5120
  444MOL0     C61156   6.457   2.998   8.291 -0.4722  0.4578 -0.2682
  444MOL0     C61157   6.440   3.152   8.301 -0.4513 -0.0598  0.3537
  444MOL0     O61158   6.523   3.196   8.406 -0.2828 -0.2192 -0.1073
  444MOL0     C61159   6.539   3.336   8.400 -0.2233 -0.1299 -0.5947
  444MOL0     C61160   6.661   3.374   8.451 -0.5075  0.6898 -1.2674
  444MOL0     C61161   6.709   3.500   8.444 -0.2722 -0.6525  0.5656
  444MOL0     C61162   6.860   3.522   8.492 -0.4195  1.0509  0.1570
  444MOL0     C61163   6.631   3.601   8.385 -0.3229  0.6115 -0.1938
  444MOL0     C61164   6.676   3.736   8.364 -0.1993  0.4968 -0.2140
  444MOL0     O61165   6.637   3.797   8.259  0.3920  0.7364 -0.0813
  444MOL0     C61166   6.669   3.935   8.250 -0.2579  0.9061  0.1898
  444MOL0     C61167   6.802   3.960   8.233 -0.1993 -0.6362 -1.3691
  444MOL0     C61168   6.835   4.092   8.186  0.3339 -0.1013  0.5451
  444MOL0     C61169   6.737   4.190   8.163 -0.0749  0.2075  0.0840
  444MOL0     O61170   6.751   4.313   8.103 -0.2036  0.4136 -0.0663
  444MOL0     C61171   6.889   4.367   8.112 -0.3992 -0.2623  0.5525
  444MOL0     C61172   6.888   4.501   8.186  0.5390 -0.2954  1.4481
  444MOL0     C61173   6.793   4.534   8.304  0.0652 -0.5955  1.0047
  444MOL0     C61174   6.779   4.688   8.341 -0.1772 -0.4763 -0.0702
  444MOL0     C61175   6.891   4.757   8.405 -0.5508  0.6051  0.6819
  444MOL0     C61176   6.885   4.912   8.395 -0.7551  0.4523  0.9602
  444MOL0     C61177   6.983   4.985   8.489 -0.4231 -0.6151  0.2892
  444MOL0     C61178   7.131   4.959   8.471 -0.5716 -0.3608 -0.7330
  444MOL0    Cl61179   7.185   5.020   8.308 -0.2510  0.5650  0.0333
  444MOL0     C61180   6.602   4.155   8.200 -0.0351 -0.1615  0.1674
  444MOL0     C61181   6.566   4.033   8.232 -0.1436  0.8724  0.1769
  444MOL0     O61182   6.734   3.789   8.463 -0.1630  0.1978  0.3913
  444MOL0     C61183   6.496   3.569   8.346 -0.3376  0.2509 -0.0198
  444MOL0     C61184   6.451   3.436   8.359  0.6820 -0.4931 -0.3614
  444MOL0     N61185   6.308   2.792   8.650 -0.1252 -0.3784 -0.1074
  444MOL0     N61186   6.296   2.716   8.750 -0.3453 -0.3912 -0.2070
  444MOL0     C61187   6.746   2.710   9.016 -0.3534 -0.3467 -0.3998
  444MOL0     C61188   6.848   2.655   8.939 -1.8712  0.1856 -0.4565
  444MOL0     C61189   7.159   2.682   8.622  0.3687 -0.1162 -0.2883
  444MOL0     C61190   7.243   2.795   8.601 -0.0917 -0.7734 -0.8485
  444MOL0     C61191   7.321   2.800   8.487 -0.1409 -0.8124 -0.1254
  444MOL0     C61192   7.338   2.689   8.399 -0.3524 -0.0681 -0.3161
  444MOL0     O61193   7.438   2.714   8.300 -0.3438  0.0121  1.2234
  444MOL0     C61194   7.473   2.604   8.209 -0.0348  0.2897  1.1605
  444MOL0     C61195   7.596   2.615   8.122 -1.1829 -0.8521  0.1858
  444MOL0     C61196   7.724   2.625   8.205 -0.2263  1.2753 -0.3598
  444MOL0     C61197   7.855   2.621   8.114 -0.2128  0.4177 -0.1285
  444MOL0     C61198   7.883   2.756   8.057  0.2732 -0.4644 -0.7188
  444MOL0     C61199   7.893   2.870   8.019 -0.4151  0.1053 -0.6347
  444MOL0     C61200   7.262   2.579   8.426  0.0375  0.4337 -0.0318
  444MOL0     C61201   7.164   2.576   8.535  0.0068  0.2575 -0.0095
  444MOL0     C61202   7.083   2.442   8.562 -1.0538  0.5709 -0.1747
  444MOL0     H61203   6.729   2.756   8.632  1.9764  4.7435  0.2447
  444MOL0     H61204   6.548   2.838   8.778  0.7359  2.5747  1.1559
  444MOL0     H61205   6.401   2.863   9.186  0.6039 -0.7099  1.0862
  444MOL0     H61206   6.580   2.901   9.185 -0.2828  1.0714 -0.3030
  444MOL0     H61207   6.613   2.693   9.282  1.3121  3.7675  0.0630
  444MOL0     H61208   6.446   2.713   9.335 -0.6177  1.3573 -1.6641
  444MOL0     H61209   6.564   2.549   9.110  1.5996 -0.7606  0.7507
  444MOL0     H61210   6.507   2.490   9.257 -2.6578 -2.3793 -1.2186
  444MOL0     H61211   6.274   2.571   9.217 -0.5599 -2.8518 -0.5837
  444MOL0     H61212   6.337   2.616   9.054 -0.8625 -1.1413 -2.1236
  444MOL0     H61213   6.215   2.414   9.072  0.1800  3.4751  0.6208
  444MOL0     H61214   6.327   2.341   9.187 -2.3341  0.8753  1.8296
  444MOL0     H61215   6.503   2.313   9.037 -0.2431 -1.8793  0.5076
  444MOL0     H61216   6.343   2.255   8.958 -0.1622 -0.2416  1.9794
  444MOL0     H61217   6.483   2.377   8.799 -2.1808  0.5123 -2.3165
  444MOL0     H61218   6.497   2.515   8.909  2.2768 -1.3057 -1.8474
  444MOL0     H61219   6.248   2.400   8.750 -2.1590  1.2379  1.3816
  444MOL0     H61220   6.224   2.512   8.878 -0.1963 -1.4699 -0.0859
  444MOL0     H61221   6.435   2.519   8.538  1.3078  1.5973 -1.2801
  444MOL0     H61222   6.316   2.768   8.346 -0.0724 -2.4062  0.2747
  444MOL0     H61223   6.490   2.747   8.375 -0.3366 -1.8598 -0.4283
  444MOL0     H61224   6.336   3.002   8.482  2.3850  3.3903 -1.3822
  444MOL0     H61225   6.490   2.956   8.512 -0.9316  4.4740 -0.4612
  444MOL0     H61226   6.560   2.971   8.266 -0.5020 -0.7835  0.8344
  444MOL0     H61227   6.394   2.954   8.214 -2.4512  1.4649  0.7030
  444MOL0     H61228   6.467   3.198   8.206 -0.6212 -0.7149 -0.0199
  444MOL0     H61229   6.341   3.190   8.325 -0.5903  1.7566 -2.6417
  444MOL0     H61230   6.725   3.302   8.501 -1.1991 -0.5701 -2.1525
  444MOL0     H61231   6.891   3.429   8.539 -3.5855 -1.1842 -1.7949
  444MOL0     H61232   6.864   3.599   8.571 -1.0146  1.4110 -0.1587
  444MOL0     H61233   6.927   3.550   8.410 -0.8943  1.1903 -0.1864
  444MOL0     H61234   6.879   3.885   8.245  0.0913 -0.6525 -3.1609
  444MOL0     H61235   6.938   4.126   8.175  0.3741 -0.8962 -2.6202
  444MOL0     H61236   6.966   4.311   8.166 -0.0066  1.0763  1.4144
  444MOL0     H61237   6.940   4.381   8.016  1.5731 -1.8199  1.3089
  444MOL0     H61238   6.991   4.521   8.218  0.1470  0.8262  2.0905
  444MOL0     H61239   6.862   4.574   8.109  2.1453 -2.0788 -0.9157
  444MOL0     H61240   6.814   4.480   8.397 -0.6561 -3.0048 -0.1571
  444MOL0     H61241   6.690   4.511   8.275  0.6688 -0.8515 -1.0667
  444MOL0     H61242   6.692   4.712   8.402 -0.1543 -2.0102  0.6133
  444MOL0     H61243   6.776   4.741   8.246  1.6984 -1.9033 -0.9973
  444MOL0     H61244   6.892   4.731   8.511 -0.4569  1.8164  0.9875
  444MOL0     H61245   6.984   4.718   8.363 -1.3233 -1.1018  0.4421
  444MOL0     H61246   6.784   4.953   8.408 -1.2743  0.5189 -2.3889
  444MOL0     H61247   6.909   4.940   8.292  0.9438 -1.6505  0.7146
  444MOL0     H61248   6.947   4.966   8.591 -0.4387 -1.9826  0.0450
  444MOL0     H61249   6.967   5.092   8.476 -0.6915 -0.7457 -0.5009
  444MOL0     H61250   7.154   4.855   8.496 -2.1499 -0.6941 -0.5220
  444MOL0     H61251   7.186   5.014   8.548 -0.9179 -2.9717  1.5291
  444MOL0     H61252   6.518   4.224   8.192  0.9022  0.8248 -2.0100
  444MOL0     H61253   6.462   4.006   8.243 -0.0469  1.3754  2.8236
  444MOL0     H61254   6.443   3.654   8.304 -0.7978  0.5473  1.1103
  444MOL0     H61255   6.348   3.414   8.333  0.8453 -1.5077 -0.1941
  444MOL0     H61256   6.756   2.687   9.121 -0.3455  0.5197 -0.2074
  444MOL0     H61257   6.921   2.598   8.994 -1.9139 -0.6836 -1.2783
  444MOL0     H61258   7.224   2.876   8.671 -1.3227  0.9529 -3.0180
  444MOL0     H61259   7.374   2.891   8.462 -2.3696 -0.3655 -3.9377
  444MOL0     H61260   7.489   2.508   8.260 -0.2619 -1.1279 -1.2702
  444MOL0     H61261   7.395   2.588   8.134  2.2251 -2.3634 -0.8649
  444MOL0     H61262   7.594   2.706   8.061 -0.8221 -0.3597  0.8805
  444MOL0     H61263   7.611   2.531   8.054  0.4396 -2.2007  2.0632
  444MOL0     H61264   7.720   2.715   8.267 -5.1884  0.3038  1.1774
  444MOL0     H61265   7.725   2.555   8.289 -2.7267  1.9569  0.3143
  444MOL0     H61266   7.843   2.542   8.039  0.1440  1.3511 -1.1867
  444MOL0     H61267   7.937   2.596   8.182 -2.2976 -2.0791  1.6489
  444MOL0     H61268   7.915   2.969   7.985  0.7383  0.1513  0.1857
  444MOL0     H61269   7.277   2.485   8.373 -0.8118  1.1280 -1.5604
  444MOL0     H61270   7.135   2.372   8.496 -0.2555  1.2881 -0.3279
  444MOL0     H61271   7.099   2.412   8.666 -0.5695 -0.9510 -0.6696
  444MOL0     H61272   6.977   2.458   8.539 -0.9668  2.4565  0.5032
  445MOL0     O61273   6.649   1.370   2.038  0.0546 -1.3577  0.8898
  445MOL0     C61274   6.611   1.459   2.118 -0.2114  0.7186  0.7173
  445MOL0     O61275   6.699   1.544   2.194 -0.8689 -0.0463 -0.2300
  445MOL0     C61276   6.823   1.574   2.155 -0.4781  0.8547  1.6133
  445MOL0     C61277   6.879   1.555   2.017 -1.2955  0.2329 -0.7150
  445MOL0     C61278   7.020   1.598   1.994 -0.2726  0.2155 -0.4284
  445MOL0     C61279   7.090   1.657   2.104 -0.4879 -0.9177 -0.3343
  445MOL0     O61280   7.222   1.706   2.092 -0.8609 -0.2821 -1.2967
  445MOL0     C61281   7.263   1.838   2.147  0.5371 -0.5759 -0.0815
  445MOL0     C61282   7.384   1.891   2.058  0.7310  0.9920 -0.7313
  445MOL0     C61283   7.421   2.035   2.091  0.7271  0.8619  0.7509
  445MOL0     C61284   7.491   2.103   1.975 -0.9710  0.9452 -0.2058
  445MOL0     C61285   7.635   2.037   1.948  0.5698  0.6184  0.6755
  445MOL0     C61286   7.709   2.106   1.827  0.3014 -0.5938 -0.4052
  445MOL0     C61287   7.658   2.068   1.682 -0.0039 -0.5499  0.0556
  445MOL0     C61288   7.744   2.133   1.572  0.2623  0.5317  0.0698
  445MOL0     N61289   7.880   2.080   1.559 -0.1583 -0.2449  0.3982
  445MOL0     C61290   8.000   2.150   1.562  0.3397 -0.6630  0.4018
  445MOL0     C61291   8.091   2.068   1.522 -0.1375  0.4632 -0.3627
  445MOL0     C61292   8.237   2.120   1.503 -0.1056 -0.6541  0.5393
  445MOL0     C61293   8.332   2.014   1.445 -0.1212  0.0970 -0.0996
  445MOL0     C61294   8.466   2.070   1.401 -0.5603 -0.5838 -0.5007
  445MOL0     C61295   8.528   2.152   1.509 -0.0916  0.1664  1.1934
  445MOL0     O61296   8.562   2.071   1.630  0.2053  0.4962 -0.0433
  445MOL0     C61297   8.662   1.984   1.627 -0.4681 -0.3670 -0.0201
  445MOL0     C61298   8.794   2.019   1.671  0.7694  0.2587  0.8068
  445MOL0     C61299   8.897   1.929   1.671 -1.1841  0.0006  0.8141
  445MOL0     C61300   9.024   1.989   1.722  0.6228 -0.7338 -0.0521
  445MOL0     C61301   8.881   1.790   1.621  0.6675 -0.1063  0.6088
  445MOL0     C61302   8.991   1.682   1.621 -0.8233 -0.7310 -0.0905
  445MOL0     O61303   9.127   1.734   1.636  0.4569  0.3442 -0.5189
  445MOL0     C61304   9.219   1.634   1.634 -0.3677 -0.2028  0.2706
  445MOL0     C61305   9.313   1.638   1.532  0.8033  0.3691  0.6795
  445MOL0     C61306   9.416   1.544   1.508 -0.1508  0.3643  0.5287
  445MOL0     C61307   9.424   1.434   1.598  0.6480  1.2487 -1.5881
  445MOL0     O61308   9.505   1.316   1.605  0.2250 -0.4491 -0.5272
  445MOL0     C61309   9.559   1.266   1.489  0.3731 -0.1897  0.0797
  445MOL0     C61310   9.500   1.126   1.444  0.1020 -0.6763  0.1111
  445MOL0     C61311   9.572   1.058   1.323 -0.5519  0.2843 -0.3858
  445MOL0     C61312   9.728   1.069   1.315  0.1312 -0.3516  0.0789
  445MOL0     C61313   9.786   1.000   1.191 -0.1802 -0.5791  0.6138
  445MOL0     C61314   9.939   0.995   1.204  0.2801  0.0274 -0.7505
  445MOL0     C61315  10.004   0.954   1.067 -0.2042  0.1575 -0.6056
  445MOL0     C61316   9.996   1.055   0.957 -0.2542  0.0671 -1.0121
  445MOL0    Cl61317  10.082   0.997   0.811 -0.1044  0.0418  0.4868
  445MOL0     C61318   9.340   1.442   1.715 -0.1103 -0.1787 -0.4444
  445MOL0     C61319   9.233   1.539   1.734 -0.4977  0.4288 -0.6610
  445MOL0     O61320   8.959   1.566   1.607  0.4046 -0.0716 -0.3082
  445MOL0     C61321   8.746   1.754   1.587 -0.4255 -0.6645 -0.2956
  445MOL0     C61322   8.649   1.847   1.600  0.3135 -0.0201  0.2102
  445MOL0     N61323   8.032   1.943   1.493  0.0698  0.1907 -0.0048
  445MOL0     N61324   7.908   1.956   1.506 -0.0524  0.9144  0.0415
  445MOL0     C61325   7.028   1.682   2.224  0.6679  0.4185  0.9366
  445MOL0     C61326   6.897   1.643   2.244 -0.0554  0.7415 -0.8416
  445MOL0     C61327   6.470   1.483   2.139  0.0707  0.5927  0.6081
  445MOL0     C61328   6.426   1.614   2.152  0.0950 -0.2639 -0.3151
  445MOL0     C61329   6.290   1.642   2.187  0.0316 -0.3551  0.4677
  445MOL0     C61330   6.200   1.528   2.198  0.0107 -0.5222  0.5330
  445MOL0     O61331   6.064   1.553   2.213 -0.6117  0.1346 -0.0631
  445MOL0     C61332   5.987   1.524   2.099  0.8125 -0.9939 -0.1721
  445MOL0     C61333   5.865   1.611   2.094  0.0769 -1.0092  0.0780
  445MOL0     C61334   5.895   1.757   2.104  0.4675 -0.7108 -0.4492
  445MOL0     C61335   5.981   1.814   1.993 -0.2678 -0.3283 -0.0848
  445MOL0     C61336   5.902   1.819   1.871 -0.7976 -0.6015  0.0436
  445MOL0     C61337   5.862   1.828   1.758  0.5401  0.5080  0.2683
  445MOL0     C61338   6.242   1.406   2.166  0.0282 -0.3411 -0.0990
  445MOL0     C61339   6.376   1.375   2.135  0.3287  0.2886 -0.4567
  445MOL0     C61340   6.401   1.227   2.116  0.1071 -1.3309 -0.2378
  445MOL0     H61341   6.832   1.494   1.940  0.8945 -1.7742 -0.5753
  445MOL0     H61342   7.057   1.560   1.899  1.5586 -2.2316  1.1476
  445MOL0     H61343   7.285   1.842   2.255  2.2121 -0.1834 -0.4033
  445MOL0     H61344   7.173   1.895   2.123  0.6393 -1.2266 -2.2088
  445MOL0     H61345   7.472   1.828   2.075 -3.4772 -5.4767  0.9962
  445MOL0     H61346   7.359   1.895   1.952  2.7376  2.1275 -1.2065
  445MOL0     H61347   7.332   2.094   2.112  0.4534  0.9983 -0.7115
  445MOL0     H61348   7.493   2.021   2.173  2.8874 -3.3324 -1.5135
  445MOL0     H61349   7.428   2.090   1.887 -0.3122  2.4806 -0.9376
  445MOL0     H61350   7.515   2.207   1.998  0.3316 -0.2876  6.0015
  445MOL0     H61351   7.629   1.931   1.922  2.4852  1.1305 -2.2620
  445MOL0     H61352   7.692   2.052   2.040 -0.4371  4.7999  0.8133
  445MOL0     H61353   7.709   2.215   1.832  3.4320 -0.3901 -1.8348
  445MOL0     H61354   7.813   2.077   1.844 -0.0163 -0.9104  1.1447
  445MOL0     H61355   7.560   2.113   1.664  0.5542  1.1879  1.0925
  445MOL0     H61356   7.652   1.959   1.675 -1.3347 -0.4284 -1.1940
  445MOL0     H61357   7.702   2.116   1.473  1.2671 -0.1538 -0.2540
  445MOL0     H61358   7.749   2.241   1.588  1.3417  0.4013  0.6736
  445MOL0     H61359   8.027   2.249   1.597 -0.4844  0.0877 -0.9904
  445MOL0     H61360   8.268   2.155   1.602 -1.0135 -1.2613  1.0455
  445MOL0     H61361   8.225   2.203   1.433 -3.2072 -0.4670  1.1723
  445MOL0     H61362   8.347   1.922   1.502  0.3625 -1.9870 -3.3020
  445MOL0     H61363   8.291   1.978   1.350  1.0356 -0.5520 -0.3671
  445MOL0     H61364   8.532   1.996   1.354 -0.0372  0.8189 -2.0909
  445MOL0     H61365   8.448   2.140   1.319 -2.6800  0.0651  0.4435
  445MOL0     H61366   8.624   2.191   1.475  0.4047  0.3328  2.7255
  445MOL0     H61367   8.475   2.243   1.540  2.1438  1.7500  0.6197
  445MOL0     H61368   8.805   2.120   1.708 -0.9644  1.1861 -1.0104
  445MOL0     H61369   9.017   2.098   1.728 -2.5340 -0.7033 -2.1447
  445MOL0     H61370   9.097   1.963   1.645 -0.4497 -2.1163 -0.6323
  445MOL0     H61371   9.059   1.955   1.820  3.3410  0.5130 -0.4871
  445MOL0     H61372   9.299   1.716   1.458  2.0562  0.9910  1.0754
  445MOL0     H61373   9.482   1.550   1.423  0.9121  2.2485  1.4164
  445MOL0     H61374   9.533   1.331   1.405 -2.9739  0.4644  1.4430
  445MOL0     H61375   9.663   1.250   1.517 -0.2862 -2.3226  1.6243
  445MOL0     H61376   9.496   1.062   1.533  1.2494  1.8552  2.0817
  445MOL0     H61377   9.400   1.149   1.406  1.2559  3.1978 -0.9884
  445MOL0     H61378   9.544   1.093   1.223 -0.2506 -2.8931 -1.7279
  445MOL0     H61379   9.567   0.948   1.324  2.9282 -0.0872 -3.0888
  445MOL0     H61380   9.765   1.011   1.400  1.6352 -4.6312 -3.1189
  445MOL0     H61381   9.760   1.172   1.334  0.7971 -0.7088  0.9087
  445MOL0     H61382   9.744   0.899   1.185  2.0885 -1.8381  3.3360
  445MOL0     H61383   9.751   1.047   1.099 -3.2471 -2.9660  0.4072
  445MOL0     H61384   9.979   0.927   1.280  0.8984 -0.6118 -1.6246
  445MOL0     H61385   9.984   1.089   1.236 -0.2510 -0.6326  2.3000
  445MOL0     H61386   9.965   0.863   1.021 -0.8949  0.4566 -0.6218
  445MOL0     H61387  10.110   0.934   1.087  0.6622  3.6288 -0.9946
  445MOL0     H61388  10.051   1.145   0.986 -2.2828  1.0781 -0.0651
  445MOL0     H61389   9.892   1.079   0.932 -0.2346  1.2091 -0.0768
  445MOL0     H61390   9.361   1.368   1.791  1.5099 -0.3081 -0.9651
  445MOL0     H61391   9.174   1.524   1.824  0.8040 -1.6253 -0.1013
  445MOL0     H61392   8.720   1.653   1.555  0.8696 -0.3228 -2.6485
  445MOL0     H61393   8.549   1.825   1.563  0.0553  1.6056 -0.1557
  445MOL0     H61394   7.082   1.723   2.310  1.1280  0.9748  0.3958
  445MOL0     H61395   6.861   1.665   2.343  1.1244 -1.1231  0.0504
  445MOL0     H61396   6.490   1.701   2.138  0.6301 -0.7089 -0.6566
  445MOL0     H61397   6.262   1.746   2.198  3.4704  0.5878  1.5631
  445MOL0     H61398   6.045   1.530   2.006  0.5934  1.3895 -0.2180
  445MOL0     H61399   5.971   1.416   2.093  1.2088 -1.0431 -0.3767
  445MOL0     H61400   5.786   1.583   2.164  0.1070 -3.3551 -0.7296
  445MOL0     H61401   5.816   1.599   1.997  1.9460 -1.7218 -0.8437
  445MOL0     H61402   5.810   1.825   2.115  2.0081  1.0709  1.0111
  445MOL0     H61403   5.945   1.768   2.200  1.0832 -2.0031 -0.5960
  445MOL0     H61404   6.075   1.758   1.993 -0.8405 -1.7795  4.7819
  445MOL0     H61405   6.021   1.907   2.034 -4.6879  0.4596  3.1891
  445MOL0     H61406   5.805   1.840   1.668  0.6934 -0.4870  0.0284
  445MOL0     H61407   6.171   1.324   2.170  0.9179 -1.0997  0.6673
  445MOL0     H61408   6.459   1.192   2.203 -0.1172  0.7338  0.8196
  445MOL0     H61409   6.315   1.161   2.103 -1.6354  1.1445 -2.1742
  445MOL0     H61410   6.455   1.231   2.021  0.6820  1.9037  0.0979
  446MOL0     O61411   2.734   0.792   5.145 -0.0526  0.0172  0.2347
  446MOL0     C61412   2.737   0.795   5.268  0.6033 -0.4344  0.4268
  446MOL0     O61413   2.849   0.780   5.342 -0.8572 -0.4338 -0.2004
  446MOL0     C61414   2.968   0.745   5.284 -0.2474  0.5945 -0.2305
  446MOL0     C61415   3.027   0.817   5.175 -0.2212  0.0060  0.7096
  446MOL0     C61416   3.152   0.778   5.121  0.0163 -1.6001  0.4222
  446MOL0     C61417   3.213   0.661   5.171  1.5979  0.5925  1.2880
  446MOL0     O61418   3.333   0.617   5.127  0.1718 -0.1534 -1.2520
  446MOL0     C61419   3.357   0.615   4.986 -0.0371  0.9375  0.1960
  446MOL0     C61420   3.278   0.508   4.915  0.1580 -0.0594  0.7986
  446MOL0     C61421   3.325   0.367   4.953  0.0162 -0.0818 -0.1854
  446MOL0     C61422   3.228   0.269   4.886 -0.1634  0.4173 -0.7341
  446MOL0     C61423   3.265   0.126   4.912  0.0231 -0.2629  0.7723
  446MOL0     C61424   3.403   0.085   4.865  0.7466 -0.4414 -0.3791
  446MOL0     C61425   3.418   0.106   4.710 -0.6464  0.2043  0.1722
  446MOL0     C61426   3.534   0.020   4.649  0.0573 -0.7873 -0.8006
  446MOL0     N61427   3.670   0.070   4.693 -0.1456 -0.0936 -0.6049
  446MOL0     C61428   3.793   0.008   4.668  0.7416  0.1661  0.1754
  446MOL0     C61429   3.881   0.099   4.704  0.1111  0.2323  0.2348
  446MOL0     C61430   4.028   0.071   4.692 -0.5736 -0.0050 -0.4879
  446MOL0     C61431   4.106   0.112   4.820  0.2433  1.1116 -0.2398
  446MOL0     C61432   4.086  -0.001   4.936 -0.2765  0.4520  0.2858
  446MOL0     C61433   3.947   0.003   5.012 -0.7378  0.0556  0.2552
  446MOL0     O61434   3.973  -0.025   5.154 -0.5852 -1.1153 -0.6423
  446MOL0     C61435   3.858  -0.047   5.225 -0.2206  0.7251 -0.4857
  446MOL0     C61436   3.731  -0.047   5.181  1.1091 -0.8377  0.2810
  446MOL0     C61437   3.614  -0.078   5.266 -0.3567 -1.0268  0.1368
  446MOL0     C61438   3.480  -0.089   5.193  0.5149  0.0674 -0.6753
  446MOL0     C61439   3.639  -0.101   5.408 -0.4310  0.1564 -0.2665
  446MOL0     C61440   3.525  -0.127   5.501 -0.4888 -0.1884  0.4589
  446MOL0     O61441   3.568  -0.140   5.631  0.5298  0.2626 -1.0644
  446MOL0     C61442   3.465  -0.120   5.720 -1.0984  0.2061  0.5358
  446MOL0     C61443   3.379  -0.210   5.774 -0.0397 -0.7100  0.3375
  446MOL0     C61444   3.280  -0.176   5.862  0.8039 -0.1472 -0.1859
  446MOL0     C61445   3.275  -0.043   5.910 -0.4215 -0.2407  0.1550
  446MOL0     O61446   3.190  -0.005   6.008 -0.3758  0.3862  0.9975
  446MOL0     C61447   3.100  -0.097   6.062 -0.9080 -0.3598  0.1426
  446MOL0     C61448   3.018  -0.034   6.179 -0.0477 -0.7883  0.6246
  446MOL0     C61449   2.942   0.091   6.143 -0.1866  0.1560  0.2030
  446MOL0     C61450   2.790   0.073   6.147  0.8733  0.2260 -1.0010
  446MOL0     C61451   2.719   0.220   6.142  0.5984  0.1183 -0.4849
  446MOL0     C61452   2.568   0.225   6.180 -0.3726  0.1560 -0.0518
  446MOL0     C61453   2.534   0.171   6.315  1.1220  0.2641 -0.8375
  446MOL0     C61454   2.393   0.231   6.356  0.5299  0.5195  0.4626
  446MOL0    Cl61455   2.374   0.157   6.527  0.3644 -0.0375  0.0681
  446MOL0     C61456   3.365   0.045   5.866 -0.2244  0.1765 -0.3706
  446MOL0     C61457   3.457   0.011   5.767  0.7375 -0.7368 -0.7291
  446MOL0     O61458   3.410  -0.119   5.458  0.2431  0.0384 -0.0527
  446MOL0     C61459   3.773  -0.096   5.450 -0.0240  0.5405  0.0959
  446MOL0     C61460   3.882  -0.073   5.359  0.7383  0.3496  0.7058
  446MOL0     N61461   3.814   0.219   4.751 -0.0319  0.5737 -0.6204
  446MOL0     N61462   3.689   0.198   4.745 -0.7231 -0.0030 -0.4053
  446MOL0     C61463   3.147   0.580   5.274 -0.0854  0.4672 -0.1015
  446MOL0     C61464   3.032   0.636   5.336 -1.1192  0.4759  0.0823
  446MOL0     C61465   2.604   0.828   5.325  0.0650 -0.1304 -1.0572
  446MOL0     C61466   2.496   0.761   5.265  0.2999 -0.0176  0.2775
  446MOL0     C61467   2.365   0.790   5.307  0.4909  0.4299  0.3881
  446MOL0     C61468   2.342   0.896   5.394 -0.0073 -0.0975  0.0239
  446MOL0     O61469   2.217   0.920   5.425 -0.2984 -0.3118  0.4585
  446MOL0     C61470   2.118   0.931   5.318  0.8030 -0.1352 -0.1318
  446MOL0     C61471   1.989   0.977   5.386  0.1592 -0.3579 -0.7356
  446MOL0     C61472   1.999   1.122   5.429 -1.1513  0.7666  0.1794
  446MOL0     C61473   1.863   1.152   5.494  0.7566 -0.1262  0.3057
  446MOL0     C61474   1.881   1.255   5.601  0.3976  0.2042 -0.1566
  446MOL0     C61475   1.935   1.336   5.668  0.5842  0.2383 -1.3818
  446MOL0     C61476   2.453   0.972   5.452  1.0789  0.3444  0.2540
  446MOL0     C61477   2.581   0.924   5.421 -0.4112 -1.4114 -0.3912
  446MOL0     C61478   2.708   0.992   5.472  0.4615  0.6979  0.5951
  446MOL0     H61479   2.984   0.913   5.146  0.6390  0.9383  2.3555
  446MOL0     H61480   3.213   0.820   5.042  0.5923 -0.7729  1.2886
  446MOL0     H61481   3.462   0.589   4.970  0.3909  2.6957 -0.0805
  446MOL0     H61482   3.333   0.713   4.943 -1.0208  2.0765  3.1042
  446MOL0     H61483   3.178   0.522   4.958  0.4933  0.2223  1.5073
  446MOL0     H61484   3.269   0.525   4.807  1.7911 -2.4448  0.2288
  446MOL0     H61485   3.431   0.360   4.927 -0.3610 -4.4403 -1.3203
  446MOL0     H61486   3.313   0.351   5.061  2.5802 -3.4522 -0.2515
  446MOL0     H61487   3.131   0.277   4.936 -0.0172  1.5066 -0.5957
  446MOL0     H61488   3.202   0.295   4.783  1.4641 -0.3677 -1.3820
  446MOL0     H61489   3.195   0.055   4.867  1.4498 -1.4921  0.3963
  446MOL0     H61490   3.271   0.106   5.019  1.7429 -3.5333  0.1960
  446MOL0     H61491   3.478   0.147   4.914  0.5632 -1.4169  1.2121
  446MOL0     H61492   3.422  -0.021   4.888  2.6060 -0.4119 -1.5312
  446MOL0     H61493   3.436   0.209   4.680 -1.3571  0.4347  0.5243
  446MOL0     H61494   3.322   0.075   4.669 -0.1758 -1.8669  0.5191
  446MOL0     H61495   3.535  -0.084   4.684  4.0183 -0.0216  2.1429
  446MOL0     H61496   3.535   0.029   4.540 -0.4467 -0.0015 -0.7443
  446MOL0     H61497   3.828  -0.086   4.626  2.0227  1.2371 -1.2586
  446MOL0     H61498   4.070   0.128   4.609  0.3430  0.2629  0.1431
  446MOL0     H61499   4.042  -0.036   4.670 -0.4216 -0.9475  3.4023
  446MOL0     H61500   4.210   0.119   4.787  0.3627 -2.7411 -1.2677
  446MOL0     H61501   4.061   0.203   4.859 -5.3054  0.4326 -3.8856
  446MOL0     H61502   4.099  -0.101   4.893  0.4911  0.3367  0.7595
  446MOL0     H61503   4.159   0.009   5.017 -0.0746 -0.7752  0.2760
  446MOL0     H61504   3.900   0.099   4.989 -2.5722 -1.2425 -1.8109
  446MOL0     H61505   3.893  -0.080   4.965  0.4965 -0.5040 -0.2347
  446MOL0     H61506   3.702  -0.030   5.078 -0.5046  0.7996  0.9491
  446MOL0     H61507   3.450  -0.192   5.172  2.8012 -1.0134  0.8785
  446MOL0     H61508   3.489  -0.032   5.100  1.0252 -1.6205 -1.7077
  446MOL0     H61509   3.405  -0.041   5.257 -1.7341 -2.0616 -1.5380
  446MOL0     H61510   3.381  -0.312   5.735 -0.6206  0.2613 -2.4282
  446MOL0     H61511   3.226  -0.257   5.910  2.3546 -1.6679 -0.8877
  446MOL0     H61512   3.039  -0.121   5.974  0.5158  0.5546 -1.1418
  446MOL0     H61513   3.158  -0.180   6.103  1.9113  0.7619 -1.3180
  446MOL0     H61514   2.950  -0.111   6.217 -2.3097  0.2896 -1.0324
  446MOL0     H61515   3.086  -0.016   6.263 -0.7664  0.1698  1.0283
  446MOL0     H61516   2.978   0.128   6.046 -0.6311  3.6853  1.2472
  446MOL0     H61517   2.971   0.163   6.220 -0.3593 -1.5053  1.8629
  446MOL0     H61518   2.748   0.017   6.230 -2.6726 -1.8137 -3.8901
  446MOL0     H61519   2.752   0.007   6.069  0.0430 -1.0842  0.4557
  446MOL0     H61520   2.775   0.274   6.220  3.5608 -1.2351 -1.5369
  446MOL0     H61521   2.727   0.264   6.043 -1.9528 -0.8530 -1.1939
  446MOL0     H61522   2.510   0.165   6.109 -0.6642  1.2634 -0.7688
  446MOL0     H61523   2.530   0.327   6.177  1.6736  0.9439 -0.9117
  446MOL0     H61524   2.615   0.206   6.380  1.5085  1.7021 -2.0219
  446MOL0     H61525   2.534   0.062   6.301  0.1306  0.1782 -0.2280
  446MOL0     H61526   2.321   0.192   6.284  2.5788 -1.0076 -0.8507
  446MOL0     H61527   2.380   0.340   6.357  3.1486  0.8928  0.8837
  446MOL0     H61528   3.367   0.151   5.888  4.4710  0.1560  0.2482
  446MOL0     H61529   3.524   0.087   5.728  0.2501  0.8715  1.3831
  446MOL0     H61530   3.806  -0.126   5.549  0.8872 -1.5325 -0.7814
  446MOL0     H61531   3.981  -0.088   5.400  0.7412 -0.5476  0.3774
  446MOL0     H61532   3.188   0.482   5.296  1.9771  0.5475 -2.9627
  446MOL0     H61533   2.963   0.587   5.404  0.1598  1.1789  1.9789
  446MOL0     H61534   2.508   0.689   5.185 -0.3008 -0.4882  0.6035
  446MOL0     H61535   2.280   0.739   5.262  0.8471  0.2873 -0.1229
  446MOL0     H61536   2.141   0.999   5.236  1.6892 -2.2162 -1.7121
  446MOL0     H61537   2.100   0.826   5.291 -0.4133 -0.3613  1.4382
  446MOL0     H61538   1.970   0.911   5.472  2.3975 -0.0313  0.0951
  446MOL0     H61539   1.912   0.956   5.311 -1.0025  3.0309 -0.6445
  446MOL0     H61540   2.079   1.143   5.500  0.5621  3.9830 -2.4059
  446MOL0     H61541   2.025   1.191   5.348 -0.6205  0.3886  0.0220
  446MOL0     H61542   1.827   1.061   5.543 -0.8743 -0.7073 -1.8500
  446MOL0     H61543   1.786   1.168   5.418  0.2687 -1.1046  0.5804
  446MOL0     H61544   2.003   1.402   5.719  2.6821  0.7343 -4.5188
  446MOL0     H61545   2.428   1.054   5.519  1.0608  2.0594 -1.7456
  446MOL0     H61546   2.685   1.076   5.538 -0.4198  0.3642  0.7330
  446MOL0     H61547   2.766   0.920   5.531  0.0914  1.3696  1.8199
  446MOL0     H61548   2.766   1.021   5.384  0.2365  0.8275  0.4893
  447MOL0     O61549   4.524   5.117   1.760  0.0285 -0.0141  0.2622
  447MOL0     C61550   4.506   5.123   1.633 -0.1246 -0.2687 -0.2512
  447MOL0     O61551   4.393   5.074   1.569  0.8041 -0.0044  0.0789
  447MOL0     C61552   4.311   5.003   1.647 -0.5161 -0.4797 -0.3237
  447MOL0     C61553   4.354   4.870   1.680 -0.4715  0.0451  0.6581
  447MOL0     C61554   4.278   4.792   1.768 -0.3205 -0.7343 -0.1117
  447MOL0     C61555   4.153   4.834   1.806  0.2054  0.7756 -0.6432
  447MOL0     O61556   4.073   4.743   1.876 -0.6083 -0.2103  0.7570
  447MOL0     C61557   4.028   4.625   1.817  0.1418 -0.6366  0.6416
  447MOL0     C61558   3.990   4.632   1.672 -0.0376  0.2015 -0.5636
  447MOL0     C61559   3.876   4.718   1.635  0.1799 -0.5510  0.1908
  447MOL0     C61560   3.847   4.713   1.484 -0.0537 -0.0363 -0.2267
  447MOL0     C61561   3.725   4.807   1.441  0.8080 -1.2303 -0.2622
  447MOL0     C61562   3.721   4.839   1.285  0.1754 -0.0091  0.5180
  447MOL0     C61563   3.708   4.716   1.190 -0.1965  0.1928 -0.8900
  447MOL0     C61564   3.664   4.754   1.050 -0.3524  0.2533  0.6008
  447MOL0     N61565   3.530   4.793   1.037 -0.3827 -0.1843  1.2812
  447MOL0     C61566   3.495   4.915   0.979  0.0313  0.2049  0.3558
  447MOL0     C61567   3.378   4.944   1.041  0.1581 -0.5198  0.1549
  447MOL0     C61568   3.286   5.061   1.027  0.0102  0.1468 -0.2651
  447MOL0     C61569   3.336   5.176   0.938  0.2117  0.6258  0.2213
  447MOL0     C61570   3.424   5.272   1.023 -0.3956 -0.6172  0.6427
  447MOL0     C61571   3.467   5.397   0.953  0.6129  0.0099 -0.0499
  447MOL0     O61572   3.583   5.465   1.009  0.2114  0.3874 -0.2590
  447MOL0     C61573   3.576   5.597   1.044 -0.3041 -1.2754 -0.0046
  447MOL0     C61574   3.485   5.649   1.141 -0.7349  0.4227  0.1436
  447MOL0     C61575   3.476   5.781   1.160 -0.0708 -0.0867 -1.0081
  447MOL0     C61576   3.368   5.830   1.257  0.1435 -0.3299 -0.5123
  447MOL0     C61577   3.563   5.878   1.100 -0.3048 -0.3579  0.1392
  447MOL0     C61578   3.552   6.024   1.107  0.4859 -0.8666  0.1454
  447MOL0     O61579   3.644   6.088   1.027  0.9878 -0.5381 -0.0439
  447MOL0     C61580   3.612   6.219   0.987 -0.5031 -0.1356 -0.4796
  447MOL0     C61581   3.718   6.307   0.979 -1.4273  0.0732  0.2695
  447MOL0     C61582   3.713   6.432   0.923 -0.0107 -0.4524 -0.6838
  447MOL0     C61583   3.590   6.489   0.889 -0.4598 -0.6768  0.0814
  447MOL0     O61584   3.573   6.620   0.841 -0.2893 -0.9274 -0.1553
  447MOL0     C61585   3.683   6.706   0.832 -0.4008 -1.0031 -0.2758
  447MOL0     C61586   3.645   6.845   0.773  1.1022  0.1475  0.0194
  447MOL0     C61587   3.563   6.932   0.867 -0.8206  0.1234  0.8727
  447MOL0     C61588   3.442   6.863   0.918 -0.1831  0.1507  0.3786
  447MOL0     C61589   3.344   6.955   1.002  0.5954  1.2330  0.3467
  447MOL0     C61590   3.205   6.897   1.002 -0.0700  0.4323  1.2002
  447MOL0     C61591   3.096   7.005   1.053 -1.3504  0.1519 -0.0249
  447MOL0     C61592   2.960   6.928   1.048 -1.0598 -0.1435  0.7066
  447MOL0    Cl61593   2.826   7.032   1.100  0.4707 -0.3069  0.3242
  447MOL0     C61594   3.481   6.407   0.912 -0.0168 -1.8237 -0.5851
  447MOL0     C61595   3.487   6.276   0.956 -0.5379  0.9974  0.4716
  447MOL0     O61596   3.474   6.080   1.186  0.3696  0.0356  0.2458
  447MOL0     C61597   3.658   5.822   1.003  0.2951  0.7128 -0.4592
  447MOL0     C61598   3.666   5.683   0.989 -0.2903 -0.4204 -0.0571
  447MOL0     N61599   3.340   4.835   1.119 -0.5925  0.0172  0.4442
  447MOL0     N61600   3.438   4.750   1.113  1.0753 -0.4033 -0.2965
  447MOL0     C61601   4.110   4.968   1.787 -0.2594 -0.3714 -0.7342
  447MOL0     C61602   4.186   5.046   1.703  0.5810 -0.2128 -0.2193
  447MOL0     C61603   4.614   5.169   1.539  0.7843  1.0213 -0.4913
  447MOL0     C61604   4.599   5.143   1.408  1.0452  0.6482 -0.0246
  447MOL0     C61605   4.676   5.196   1.307 -0.3047  0.2061 -1.0299
  447MOL0     C61606   4.778   5.280   1.343 -0.2120  0.0415  0.6101
  447MOL0     O61607   4.850   5.333   1.242  0.1248 -0.3752 -0.1543
  447MOL0     C61608   4.963   5.409   1.284 -0.3594  1.1273 -0.1315
  447MOL0     C61609   5.036   5.462   1.153  0.0586 -0.7165  0.7095
  447MOL0     C61610   5.117   5.349   1.097 -1.0551  0.2457  0.9534
  447MOL0     C61611   5.206   5.382   0.974 -0.2418 -0.8786 -0.0085
  447MOL0     C61612   5.312   5.475   1.019 -0.7336  0.5381  0.4204
  447MOL0     C61613   5.402   5.553   1.050 -1.4753  0.4757  0.0488
  447MOL0     C61614   4.784   5.325   1.478 -0.7144  0.0461  0.9500
  447MOL0     C61615   4.722   5.256   1.584  0.0709 -0.2228  0.1261
  447MOL0     C61616   4.745   5.308   1.722  0.1974  0.5673 -0.3455
  447MOL0     H61617   4.451   4.842   1.641 -0.4369  0.0138  0.7668
  447MOL0     H61618   4.306   4.690   1.794 -3.3286 -0.8570  3.5947
  447MOL0     H61619   3.954   4.576   1.883 -3.1580  0.3089 -2.0688
  447MOL0     H61620   4.105   4.549   1.833  0.0469 -0.9975 -0.5566
  447MOL0     H61621   4.075   4.665   1.612  0.4154 -1.6295 -0.9742
  447MOL0     H61622   3.967   4.529   1.643  2.4054 -0.2401 -1.1376
  447MOL0     H61623   3.788   4.677   1.685 -0.3725  0.8168  0.3937
  447MOL0     H61624   3.881   4.820   1.675 -0.7527 -0.7802  0.9326
  447MOL0     H61625   3.938   4.737   1.428  0.5717  1.8643  1.4991
  447MOL0     H61626   3.828   4.607   1.463 -0.2271  0.0753 -0.6390
  447MOL0     H61627   3.724   4.902   1.495 -0.3538 -0.3897 -1.6723
  447MOL0     H61628   3.627   4.764   1.464  0.7978 -2.1584 -1.8880
  447MOL0     H61629   3.648   4.912   1.249 -1.7798 -2.6641 -1.3105
  447MOL0     H61630   3.816   4.892   1.274  0.3244 -0.5477 -1.1098
  447MOL0     H61631   3.636   4.639   1.221  0.2146  1.2841  3.5187
  447MOL0     H61632   3.805   4.668   1.199 -0.9437 -1.5629 -1.6647
  447MOL0     H61633   3.726   4.837   1.015 -1.0440 -0.2190 -2.0056
  447MOL0     H61634   3.686   4.669   0.985  1.8859 -1.6942  3.6512
  447MOL0     H61635   3.554   4.982   0.917 -2.2452  1.5667 -0.4685
  447MOL0     H61636   3.273   5.100   1.129 -1.7455 -0.2046 -0.3130
  447MOL0     H61637   3.193   5.020   0.987  1.5089 -3.2354 -0.6278
  447MOL0     H61638   3.402   5.133   0.862 -1.8071 -2.3485 -0.0140
  447MOL0     H61639   3.245   5.220   0.897 -0.3373 -1.3355 -0.8126
  447MOL0     H61640   3.372   5.305   1.113  1.1475  2.1670  0.6308
  447MOL0     H61641   3.509   5.208   1.048  0.7255  0.2057 -0.9416
  447MOL0     H61642   3.485   5.384   0.846  1.3297  1.7404 -0.1876
  447MOL0     H61643   3.385   5.469   0.958 -0.9665 -1.8064  1.4610
  447MOL0     H61644   3.415   5.582   1.188  0.3964 -2.6358 -2.2286
  447MOL0     H61645   3.303   5.895   1.198  0.4158  0.9027  0.4934
  447MOL0     H61646   3.425   5.878   1.337 -0.7135 -0.0616 -0.0382
  447MOL0     H61647   3.310   5.743   1.292 -0.9330 -0.4476 -2.4228
  447MOL0     H61648   3.810   6.266   1.021 -1.6357  0.5759  1.2247
  447MOL0     H61649   3.804   6.489   0.907 -0.9132  1.5985  0.9364
  447MOL0     H61650   3.739   6.709   0.925  0.2429  0.1321 -0.6818
  447MOL0     H61651   3.756   6.679   0.755  1.7499  1.2404  0.8698
  447MOL0     H61652   3.743   6.885   0.745  0.8029  0.0134 -1.2586
  447MOL0     H61653   3.577   6.836   0.689 -1.1210  1.1153  1.6100
  447MOL0     H61654   3.533   7.027   0.821 -0.7284 -0.7596 -1.1067
  447MOL0     H61655   3.613   6.954   0.962 -0.0539 -1.7904  0.9593
  447MOL0     H61656   3.459   6.780   0.987 -1.6986  1.3563  2.3218
  447MOL0     H61657   3.380   6.834   0.832 -1.0845  2.7166  0.0690
  447MOL0     H61658   3.378   6.960   1.106 -1.5453  0.9822  1.1185
  447MOL0     H61659   3.349   7.054   0.956  1.5727  0.4577 -1.3052
  447MOL0     H61660   3.191   6.803   1.056  1.9046 -0.6098  0.0014
  447MOL0     H61661   3.169   6.883   0.900 -0.5120  2.1766  1.0834
  447MOL0     H61662   3.097   7.090   0.984  0.8904 -0.2009 -0.5140
  447MOL0     H61663   3.123   7.043   1.152 -1.7175  1.3137 -0.3500
  447MOL0     H61664   2.962   6.843   1.117  0.8660  0.8415  1.9621
  447MOL0     H61665   2.950   6.889   0.947  0.7346  3.2256 -0.9413
  447MOL0     H61666   3.379   6.436   0.887  1.0301  0.4156 -2.5822
  447MOL0     H61667   3.400   6.214   0.973 -1.0915  1.6854  0.1990
  447MOL0     H61668   3.734   5.880   0.951  0.9720 -1.2963 -1.8753
  447MOL0     H61669   3.753   5.644   0.936  0.7467 -0.5463  1.6883
  447MOL0     H61670   4.014   4.997   1.828 -0.2207 -0.5089 -0.5463
  447MOL0     H61671   4.143   5.143   1.681  0.8111  0.9306  3.5531
  447MOL0     H61672   4.517   5.078   1.377 -0.3388  2.2559  0.0924
  447MOL0     H61673   4.659   5.168   1.203  2.9113  0.6817 -1.7753
  447MOL0     H61674   4.945   5.493   1.351 -1.3859 -0.0139  1.0710
  447MOL0     H61675   5.039   5.351   1.336  0.6613  1.7042 -0.9358
  447MOL0     H61676   5.120   5.524   1.186  0.3082 -1.0056  0.6188
  447MOL0     H61677   4.973   5.520   1.085  0.4087  0.5185  1.4048
  447MOL0     H61678   5.177   5.306   1.178  0.3436  0.1693 -0.0912
  447MOL0     H61679   5.039   5.277   1.071  1.5076 -3.0345  1.6446
  447MOL0     H61680   5.143   5.431   0.900  0.2150  2.3429  1.5806
  447MOL0     H61681   5.247   5.298   0.918  0.7321 -1.8752  2.0867
  447MOL0     H61682   5.483   5.619   1.076 -0.5643 -0.1960 -0.9702
  447MOL0     H61683   4.852   5.406   1.501 -1.4901  1.7142 -2.0374
  447MOL0     H61684   4.838   5.364   1.735  1.5115 -2.0471  2.6918
  447MOL0     H61685   4.668   5.378   1.758  0.5910  0.8121  0.0263
  447MOL0     H61686   4.747   5.213   1.776 -3.0718 -0.3783 -1.6074
  448MOL0     O61687  10.664   7.197   0.439  0.0331  0.4188 -0.2029
  448MOL0     C61688  10.725   7.151   0.534  0.4178 -0.3932 -0.8249
  448MOL0     O61689  10.686   7.161   0.664 -1.0053  0.7375 -0.2215
  448MOL0     C61690  10.554   7.200   0.690 -1.6462  0.8984  0.3721
  448MOL0     C61691  10.449   7.130   0.630 -0.1905  0.1419  0.8527
  448MOL0     C61692  10.327   7.191   0.639  0.6077 -0.2162 -0.4854
  448MOL0     C61693  10.292   7.297   0.721  0.9934  1.1997 -0.1423
  448MOL0     O61694  10.162   7.338   0.759 -0.2694 -0.0636 -0.5477
  448MOL0     C61695  10.057   7.244   0.744 -0.3275 -0.5170  0.4670
  448MOL0     C61696   9.922   7.294   0.782  0.0261 -0.5751  0.6834
  448MOL0     C61697   9.848   7.375   0.675  0.2832  0.0066 -0.0885
  448MOL0     C61698   9.911   7.514   0.638  0.5790  0.4545 -0.5972
  448MOL0     C61699   9.928   7.601   0.764  0.1908  0.4229 -0.4821
  448MOL0     C61700   9.979   7.735   0.731 -0.4471 -0.3354 -1.0049
  448MOL0     C61701  10.043   7.827   0.842  0.4408 -0.3794  0.4348
  448MOL0     C61702  10.181   7.776   0.895  1.1591 -1.0790 -0.1839
  448MOL0     N61703  10.297   7.772   0.807 -0.4786 -0.1957  0.3010
  448MOL0     C61704  10.309   7.696   0.690  0.3502  0.6177 -0.0980
  448MOL0     C61705  10.401   7.754   0.606 -1.2982  0.8332  0.0565
  448MOL0     C61706  10.445   7.698   0.473 -0.1911 -0.3510  0.7467
  448MOL0     C61707  10.510   7.563   0.506 -0.1440 -0.0515 -0.4209
  448MOL0     C61708  10.574   7.502   0.381  0.0990  0.4563  0.0729
  448MOL0     C61709  10.468   7.408   0.311 -1.6742 -0.4064 -0.9204
  448MOL0     O61710  10.511   7.369   0.184  0.6219  0.9208 -0.5100
  448MOL0     C61711  10.458   7.250   0.133  0.2727 -0.0838 -0.1628
  448MOL0     C61712  10.363   7.161   0.189 -0.6363 -0.6282  0.0331
  448MOL0     C61713  10.313   7.050   0.122 -1.4043  0.3474 -0.2833
  448MOL0     C61714  10.238   6.943   0.206 -0.0041 -0.6364 -0.7121
  448MOL0     C61715  10.363   7.018  -0.009 -0.9829  0.0759 -0.8817
  448MOL0     C61716  10.336   6.893  -0.090 -0.6103 -0.4344  0.1598
  448MOL0     O61717  10.398   6.880  -0.207  0.1196  0.7757  0.1772
  448MOL0     C61718  10.343   6.785  -0.293 -0.0753 -0.6771  0.1170
  448MOL0     C61719  10.223   6.814  -0.361 -0.8017 -0.3131  0.2344
  448MOL0     C61720  10.187   6.719  -0.461 -0.1985  0.0616 -0.6540
  448MOL0     C61721  10.270   6.610  -0.489  0.5210  0.6826 -0.0325
  448MOL0     O61722  10.218   6.509  -0.574 -0.2181  0.0041  0.5057
  448MOL0     C61723  10.303   6.495  -0.695  0.7075  0.1041 -0.6548
  448MOL0     C61724  10.249   6.365  -0.744 -0.7976 -0.6781  0.3300
  448MOL0     C61725  10.258   6.245  -0.647  0.4757  0.0508 -0.1849
  448MOL0     C61726  10.166   6.128  -0.682 -0.5895 -0.0501  0.6319
  448MOL0     C61727  10.201   6.000  -0.595  0.2667 -0.7613  0.8253
  448MOL0     C61728  10.157   6.021  -0.453  0.6032 -0.4001 -0.1941
  448MOL0     C61729  10.116   5.887  -0.392 -0.1722  1.1698  0.1511
  448MOL0     C61730  10.122   5.874  -0.240 -1.1108 -0.0955 -0.7833
  448MOL0    Cl61731  10.298   5.889  -0.180  0.3639  0.0608  0.0679
  448MOL0     C61732  10.389   6.589  -0.424 -0.4187  0.7287 -1.0879
  448MOL0     C61733  10.434   6.683  -0.329  1.3099 -0.1821 -0.5504
  448MOL0     O61734  10.253   6.817  -0.041  0.6187 -0.5178  0.2597
  448MOL0     C61735  10.456   7.109  -0.062 -0.6663 -0.1114 -0.6676
  448MOL0     C61736  10.511   7.218   0.011 -0.4368  0.4977  0.2351
  448MOL0     N61737  10.438   7.872   0.662 -0.3124  0.0338  0.2552
  448MOL0     N61738  10.375   7.882   0.776 -0.5514 -0.6021 -0.3512
  448MOL0     C61739  10.393   7.343   0.795 -0.4459 -0.7696 -0.2884
  448MOL0     C61740  10.526   7.291   0.792 -0.8054 -0.0042  0.2039
  448MOL0     C61741  10.849   7.075   0.505  0.2206  0.1948 -0.2231
  448MOL0     C61742  10.925   7.041   0.613 -0.1429 -0.7633 -0.4588
  448MOL0     C61743  11.035   6.957   0.604 -0.2959  0.5500  0.2197
  448MOL0     C61744  11.090   6.923   0.483  0.3648  0.2545  0.4243
  448MOL0     O61745  11.218   6.868   0.482  0.7253 -0.5158  0.1763
  448MOL0     C61746  11.244   6.778   0.381 -0.6040 -0.4400  0.9236
  448MOL0     C61747  11.381   6.731   0.419  0.6913  0.1270 -0.4013
  448MOL0     C61748  11.435   6.638   0.307 -0.3454  0.6590 -0.3342
  448MOL0     C61749  11.466   6.726   0.186  0.7533 -0.0107  1.3970
  448MOL0     C61750  11.551   6.651   0.099  0.0119  0.6354  0.4216
  448MOL0     C61751  11.620   6.607   0.003  0.3440 -0.4185 -0.2092
  448MOL0     C61752  11.033   6.967   0.368  0.8689 -0.7006  0.1459
  448MOL0     C61753  10.910   7.039   0.382  0.8287  0.0470  0.1569
  448MOL0     C61754  10.844   7.076   0.251 -0.7448 -0.5902  0.0940
  448MOL0     H61755  10.468   7.041   0.570  1.3355  0.8686  0.1958
  448MOL0     H61756  10.250   7.140   0.582  0.0849  0.9066 -0.8037
  448MOL0     H61757  10.085   7.163   0.812 -2.7556  0.0153  2.2543
  448MOL0     H61758  10.058   7.205   0.642 -1.3985 -0.8748  0.5824
  448MOL0     H61759   9.855   7.208   0.795 -2.4333  0.9839 -0.8286
  448MOL0     H61760   9.926   7.345   0.878  2.0875  1.0663 -0.2004
  448MOL0     H61761   9.839   7.315   0.584  1.0135 -0.0277 -0.1413
  448MOL0     H61762   9.747   7.395   0.714  0.8730 -2.2813  2.9988
  448MOL0     H61763  10.004   7.488   0.586 -0.7035 -1.4827 -2.0655
  448MOL0     H61764   9.847   7.562   0.563  0.2569 -0.4328 -0.9023
  448MOL0     H61765   9.998   7.557   0.836  1.1741  0.9249 -1.1000
  448MOL0     H61766   9.833   7.613   0.816 -1.2588  0.9058 -3.0658
  448MOL0     H61767  10.055   7.725   0.653 -1.5752  1.4568 -2.4384
  448MOL0     H61768   9.892   7.792   0.697  0.2891  2.2337  1.1071
  448MOL0     H61769   9.983   7.860   0.928  0.0612  2.6627 -0.8588
  448MOL0     H61770  10.070   7.915   0.783 -1.8707  0.1610  0.1241
  448MOL0     H61771  10.208   7.830   0.986 -1.9822  0.4450 -0.0058
  448MOL0     H61772  10.153   7.675   0.926  0.2470 -1.6799 -2.6996
  448MOL0     H61773  10.249   7.607   0.682  0.3043  0.4825  1.5391
  448MOL0     H61774  10.520   7.767   0.431  0.2774  0.4675  2.8147
  448MOL0     H61775  10.365   7.691   0.399  2.3474  0.7004 -2.3602
  448MOL0     H61776  10.585   7.586   0.583 -1.8543  1.3702  0.9210
  448MOL0     H61777  10.435   7.508   0.563 -1.4629  1.3850 -0.6956
  448MOL0     H61778  10.607   7.576   0.307 -0.4444 -1.0840 -1.7765
  448MOL0     H61779  10.673   7.465   0.409  0.9388  2.5271  0.0479
  448MOL0     H61780  10.458   7.324   0.380  2.4312  1.6399  2.6263
  448MOL0     H61781  10.372   7.460   0.303 -2.5399 -2.0645 -2.0525
  448MOL0     H61782  10.344   7.190   0.292  2.1590  3.3494 -0.3169
  448MOL0     H61783  10.143   6.921   0.157  0.2086 -1.3107 -0.8462
  448MOL0     H61784  10.211   6.969   0.308 -1.2317  1.2816 -1.4804
  448MOL0     H61785  10.299   6.852   0.209  1.0617  0.0490 -1.0448
  448MOL0     H61786  10.168   6.900  -0.325  1.6596  0.7558  1.6737
  448MOL0     H61787  10.091   6.741  -0.507 -0.3712  2.6526  0.7305
  448MOL0     H61788  10.294   6.583  -0.759 -0.3538  1.0294  0.7135
  448MOL0     H61789  10.411   6.490  -0.677  1.3014 -1.6461 -3.8596
  448MOL0     H61790  10.143   6.389  -0.757  0.0813  3.0112 -1.3208
  448MOL0     H61791  10.304   6.339  -0.836  1.5297  0.3967  1.3268
  448MOL0     H61792  10.256   6.268  -0.540 -2.1351  1.4810 -0.4521
  448MOL0     H61793  10.353   6.200  -0.678 -0.4688 -1.6451 -0.7081
  448MOL0     H61794  10.170   6.114  -0.790 -0.5971 -1.8267  0.8296
  448MOL0     H61795  10.061   6.157  -0.671  0.1243  2.9084  0.6256
  448MOL0     H61796  10.163   5.915  -0.652 -1.5547  1.4395 -1.4469
  448MOL0     H61797  10.310   5.995  -0.590  0.3222 -1.2034 -0.3894
  448MOL0     H61798  10.061   6.074  -0.453  0.4899 -0.5991 -1.0158
  448MOL0     H61799  10.227   6.079  -0.392 -1.1198  1.8933 -0.2469
  448MOL0     H61800  10.197   5.819  -0.419 -0.2759  0.4261  1.6292
  448MOL0     H61801  10.014   5.866  -0.425  0.7218  0.1111 -2.1540
  448MOL0     H61802  10.071   5.782  -0.208 -0.8052 -0.0576 -0.1757
  448MOL0     H61803  10.077   5.968  -0.208  2.2142  1.4691 -0.3320
  448MOL0     H61804  10.442   6.497  -0.447  1.6437  1.1812  1.4091
  448MOL0     H61805  10.523   6.684  -0.267 -0.1961  0.5523  1.7182
  448MOL0     H61806  10.489   7.092  -0.164 -1.4067 -2.0040 -0.6202
  448MOL0     H61807  10.582   7.283  -0.039  2.1021 -2.8244 -0.7649
  448MOL0     H61808  10.385   7.428   0.863  0.4034  0.3786 -1.5631
  448MOL0     H61809  10.614   7.328   0.843  2.1997 -2.0388 -3.0282
  448MOL0     H61810  10.883   7.067   0.710  0.3673  0.5967 -0.5732
  448MOL0     H61811  11.086   6.916   0.690 -4.1004 -4.7348  0.4147
  448MOL0     H61812  11.168   6.700   0.394  0.4415 -1.3454  1.8324
  448MOL0     H61813  11.235   6.824   0.282  1.6479  0.6753  1.1913
  448MOL0     H61814  11.400   6.673   0.510  1.8769 -2.4384 -2.1594
  448MOL0     H61815  11.446   6.819   0.429 -0.1042  0.6184  0.7043
  448MOL0     H61816  11.525   6.584   0.338  1.4398  2.9071 -1.2977
  448MOL0     H61817  11.359   6.561   0.288  1.3334 -1.0765 -0.3250
  448MOL0     H61818  11.513   6.820   0.219  1.5025  0.3367 -0.5152
  448MOL0     H61819  11.372   6.757   0.139 -0.1500  1.2852  3.8514
  448MOL0     H61820  11.666   6.570  -0.087 -0.4659  0.0590 -0.8357
  448MOL0     H61821  11.070   6.934   0.271 -3.6376 -1.2526 -1.6365
  448MOL0     H61822  10.753   7.016   0.250  0.6589 -2.8244 -1.0588
  448MOL0     H61823  10.827   7.184   0.241 -1.6786 -0.4331  2.6033
  448MOL0     H61824  10.902   7.045   0.164 -1.6532  0.2243 -0.8213
  449MOL0     O61825   5.340   0.401   8.952 -0.4949  0.7651  0.0700
  449MOL0     C61826   5.328   0.333   9.056 -0.2244  0.4823  0.1022
  449MOL0     O61827   5.425   0.299   9.141 -0.7379 -0.3788  0.3141
  449MOL0     C61828   5.547   0.361   9.127  0.0001  0.2686  0.5344
  449MOL0     C61829   5.562   0.502   9.109  0.3217 -0.1948  0.4565
  449MOL0     C61830   5.695   0.554   9.099 -0.1341  0.0034  0.4812
  449MOL0     C61831   5.804   0.472   9.121  0.5021  0.4199 -0.6766
  449MOL0     O61832   5.925   0.535   9.097 -0.9758 -0.6412 -0.5819
  449MOL0     C61833   5.997   0.472   8.996  0.4170  0.2704  0.2466
  449MOL0     C61834   6.129   0.539   8.951 -0.5250 -0.3537 -0.7142
  449MOL0     C61835   6.099   0.685   8.906 -0.0674  0.1580 -1.2082
  449MOL0     C61836   6.099   0.692   8.757  0.1435  0.1072  1.2054
  449MOL0     C61837   6.183   0.808   8.690  0.8987 -0.3848 -0.1704
  449MOL0     C61838   6.180   0.790   8.542  0.4158 -0.8084 -0.2461
  449MOL0     C61839   6.234   0.910   8.473  0.2216  0.2058  0.1504
  449MOL0     C61840   6.145   1.039   8.465  0.5982  0.0098 -0.0853
  449MOL0     N61841   6.169   1.139   8.364 -0.1890 -0.8443  0.8721
  449MOL0     C61842   6.302   1.174   8.337  0.0737  0.6825 -0.3649
  449MOL0     C61843   6.301   1.217   8.204  0.0425 -0.5206 -0.3584
  449MOL0     C61844   6.435   1.230   8.128 -1.0299 -0.2262 -0.6687
  449MOL0     C61845   6.516   1.102   8.117  0.2874  0.4086  1.1069
  449MOL0     C61846   6.665   1.114   8.113  0.6649 -0.2225 -0.3805
  449MOL0     C61847   6.706   1.184   7.982  0.5535  0.5279 -0.7709
  449MOL0     O61848   6.850   1.169   7.945  0.7880  0.8912  0.3667
  449MOL0     C61849   6.888   1.259   7.846  0.6872 -0.0743  0.0492
  449MOL0     C61850   6.992   1.342   7.888 -0.2258  0.2378  0.5413
  449MOL0     C61851   7.041   1.439   7.795 -0.2006  0.1758  0.2281
  449MOL0     C61852   7.166   1.517   7.827 -0.0073  0.5593  0.0664
  449MOL0     C61853   6.979   1.447   7.663  0.4224  0.6030 -0.0200
  449MOL0     C61854   7.027   1.537   7.561  0.9125  0.2026 -0.1315
  449MOL0     O61855   7.035   1.671   7.584  0.6008  0.3630  0.2925
  449MOL0     C61856   7.109   1.766   7.511 -0.2513  0.7314 -0.0768
  449MOL0     C61857   7.246   1.748   7.501  0.7204  0.6287 -0.4529
  449MOL0     C61858   7.317   1.842   7.435  0.5026  0.2030  0.1243
  449MOL0     C61859   7.257   1.963   7.396  0.1772 -0.3777  0.3508
  449MOL0     O61860   7.313   2.065   7.330 -0.2745 -0.5480 -0.6605
  449MOL0     C61861   7.454   2.056   7.299 -0.1851 -0.4686  0.1747
  449MOL0     C61862   7.494   2.196   7.235 -0.4619  0.5257  0.0610
  449MOL0     C61863   7.630   2.249   7.286 -0.3595  0.3104  0.0021
  449MOL0     C61864   7.603   2.346   7.403 -0.6553  0.4302  0.4704
  449MOL0     C61865   7.731   2.384   7.478 -0.2151  0.1790 -0.1114
  449MOL0     C61866   7.804   2.274   7.556  0.3489  0.1192 -0.1624
  449MOL0     C61867   7.919   2.312   7.648  0.6147  0.3956 -0.4416
  449MOL0     C61868   8.025   2.200   7.657 -0.2613  0.1153 -0.6732
  449MOL0    Cl61869   8.119   2.207   7.513 -0.2093 -0.0001  0.2106
  449MOL0     C61870   7.128   1.982   7.412  1.0029 -0.7953 -0.4906
  449MOL0     C61871   7.049   1.879   7.467 -0.3032 -0.0397 -1.4306
  449MOL0     O61872   7.044   1.480   7.453 -0.4888 -0.1296  0.0648
  449MOL0     C61873   6.869   1.364   7.635 -0.1426 -0.2197  0.2603
  449MOL0     C61874   6.831   1.260   7.721  0.0257  0.2795 -0.5042
  449MOL0     N61875   6.171   1.226   8.162  0.7837 -0.3624  0.4548
  449MOL0     N61876   6.095   1.172   8.254  0.3092  0.7529 -0.1970
  449MOL0     C61877   5.783   0.341   9.159  1.0117 -0.8259 -0.4674
  449MOL0     C61878   5.660   0.277   9.154  0.6893  0.4805 -1.3594
  449MOL0     C61879   5.190   0.277   9.083  0.8853  1.0887 -0.2166
  449MOL0     C61880   5.093   0.286   8.975 -0.6652 -0.1069 -0.6602
  449MOL0     C61881   4.974   0.224   9.000  0.1076  0.7093  0.8497
  449MOL0     C61882   4.927   0.192   9.120 -0.7449 -0.1646 -0.3654
  449MOL0     O61883   4.807   0.133   9.130 -0.1332  0.3886  0.1827
  449MOL0     C61884   4.729   0.155   9.242 -0.3087  0.1582  0.1577
  449MOL0     C61885   4.588   0.132   9.197  0.3778 -0.3702 -0.1224
  449MOL0     C61886   4.484   0.180   9.297  0.1455 -0.6287  0.6783
  449MOL0     C61887   4.477   0.122   9.435 -0.0153 -0.6236 -0.2673
  449MOL0     C61888   4.471  -0.021   9.460  0.4711 -1.0240  0.6613
  449MOL0     C61889   4.434  -0.133   9.475 -1.4536  0.7943  0.1298
  449MOL0     C61890   5.014   0.206   9.232  0.6463 -1.0921  0.2615
  449MOL0     C61891   5.139   0.242   9.211  0.3280  0.7862  0.1452
  449MOL0     C61892   5.226   0.243   9.337  0.4276 -0.8614  0.1835
  449MOL0     H61893   5.491   0.585   9.107  0.2928 -0.2157  0.6351
  449MOL0     H61894   5.716   0.655   9.066 -1.5754  0.4540  0.8318
  449MOL0     H61895   5.933   0.479   8.907  0.4944 -3.5226 -0.2613
  449MOL0     H61896   6.002   0.365   9.019 -0.2303  0.3586  0.8360
  449MOL0     H61897   6.186   0.541   9.044 -0.2966 -3.1649 -0.7122
  449MOL0     H61898   6.189   0.482   8.879  5.2297  1.4368  2.0812
  449MOL0     H61899   6.006   0.729   8.941 -0.6056 -1.3893 -0.5783
  449MOL0     H61900   6.173   0.746   8.959 -0.8854 -0.6975  1.0710
  449MOL0     H61901   6.132   0.598   8.714  0.6806  1.0329 -0.4999
  449MOL0     H61902   5.995   0.710   8.729  0.6611  0.7975 -0.3810
  449MOL0     H61903   6.289   0.809   8.719  0.9431 -0.1619 -0.3382
  449MOL0     H61904   6.138   0.904   8.717  1.2789 -0.3805  0.4818
  449MOL0     H61905   6.233   0.701   8.507  2.0514  0.0664 -0.1078
  449MOL0     H61906   6.077   0.771   8.511 -0.0258 -0.9416  1.2282
  449MOL0     H61907   6.251   0.888   8.368  0.2625 -1.7590  0.5282
  449MOL0     H61908   6.330   0.923   8.525 -0.0425 -2.8233  1.6001
  449MOL0     H61909   6.041   1.022   8.435 -0.1654  2.7895  0.5873
  449MOL0     H61910   6.129   1.071   8.569  1.8607 -0.0533  0.1341
  449MOL0     H61911   6.386   1.167   8.405 -1.9356  3.8775  2.8055
  449MOL0     H61912   6.495   1.309   8.175 -2.9949 -0.1631  1.9194
  449MOL0     H61913   6.409   1.256   8.025 -0.4521  0.7034 -0.5854
  449MOL0     H61914   6.485   1.062   8.214 -0.6658  1.7969  1.4125
  449MOL0     H61915   6.477   1.038   8.037 -0.8191  2.2825  0.0629
  449MOL0     H61916   6.700   1.166   8.203 -0.7074 -3.3247  2.1551
  449MOL0     H61917   6.715   1.017   8.123  1.2135  0.2899  2.9393
  449MOL0     H61918   6.635   1.155   7.904  1.0565 -0.2981 -0.9392
  449MOL0     H61919   6.683   1.290   7.995  2.4336  0.8622  0.1087
  449MOL0     H61920   7.050   1.334   7.979  0.4911 -1.3730 -0.0158
  449MOL0     H61921   7.154   1.623   7.847 -0.6731  0.4093  0.4988
  449MOL0     H61922   7.230   1.512   7.738  1.7888  0.1315  1.3311
  449MOL0     H61923   7.220   1.466   7.908  1.4721 -0.8317 -1.6939
  449MOL0     H61924   7.275   1.650   7.538  1.2815  1.7394  2.2338
  449MOL0     H61925   7.415   1.802   7.409  0.8042  2.4175 -2.6217
  449MOL0     H61926   7.518   2.035   7.386 -2.5971 -0.9096  1.9672
  449MOL0     H61927   7.482   1.969   7.239  0.7518  2.7028 -4.5396
  449MOL0     H61928   7.489   2.190   7.126 -2.9738 -1.6080  0.1965
  449MOL0     H61929   7.412   2.265   7.262 -2.1481 -0.4062 -2.3390
  449MOL0     H61930   7.675   2.315   7.211 -0.4820  0.5545  0.1416
  449MOL0     H61931   7.687   2.162   7.318 -2.4979 -0.8361  0.9054
  449MOL0     H61932   7.533   2.305   7.477 -1.9667  1.1321 -0.3383
  449MOL0     H61933   7.554   2.430   7.354 -0.2751  1.6782  2.1480
  449MOL0     H61934   7.800   2.414   7.398  0.0106 -0.9618 -0.3674
  449MOL0     H61935   7.712   2.458   7.555 -1.9836 -0.0507 -0.2945
  449MOL0     H61936   7.843   2.208   7.477  1.2287  2.3421 -1.7136
  449MOL0     H61937   7.720   2.228   7.608  0.2920 -1.4401 -1.5423
  449MOL0     H61938   7.879   2.337   7.747 -1.1233  0.6239 -1.1570
  449MOL0     H61939   7.960   2.406   7.612  0.2163  1.0315  0.6876
  449MOL0     H61940   7.981   2.100   7.662  4.4581 -2.1902  3.5960
  449MOL0     H61941   8.093   2.196   7.743 -1.1217 -0.9111 -0.0184
  449MOL0     H61942   7.073   2.064   7.366  1.9521 -0.8398 -1.7761
  449MOL0     H61943   6.940   1.888   7.468 -0.4084 -1.1721 -0.8905
  449MOL0     H61944   6.808   1.368   7.545 -0.4041  0.8498  0.4672
  449MOL0     H61945   6.749   1.195   7.693 -0.3453  0.1015  0.9210
  449MOL0     H61946   5.863   0.280   9.201  0.4287 -0.6081  1.0115
  449MOL0     H61947   5.652   0.172   9.179  2.2413  0.5201 -0.5201
  449MOL0     H61948   5.126   0.320   8.877  1.2715 -2.4233 -0.9341
  449MOL0     H61949   4.898   0.218   8.923 -0.8266 -2.5106  1.8580
  449MOL0     H61950   4.751   0.077   9.316 -4.6620 -1.2961  0.2025
  449MOL0     H61951   4.738   0.254   9.288  0.5420 -1.1205  3.0140
  449MOL0     H61952   4.578   0.023   9.197 -1.9760 -0.1935 -0.7749
  449MOL0     H61953   4.575   0.171   9.096 -0.4230 -3.0922 -1.1741
  449MOL0     H61954   4.500   0.288   9.307  1.0668 -0.8001  1.1865
  449MOL0     H61955   4.388   0.159   9.250  1.0332 -1.7958 -0.7127
  449MOL0     H61956   4.393   0.166   9.490  1.5417  3.6396 -0.8791
  449MOL0     H61957   4.561   0.167   9.488  0.1255  0.6799 -1.5063
  449MOL0     H61958   4.413  -0.238   9.471 -2.3644  0.9702  0.1425
  449MOL0     H61959   4.980   0.180   9.332 -2.2596 -1.7689 -0.8138
  449MOL0     H61960   5.182   0.182   9.417 -1.8414 -0.6631 -0.8329
  449MOL0     H61961   5.327   0.214   9.307  0.7585  0.8070 -0.4384
  449MOL0     H61962   5.232   0.346   9.374 -6.0382 -0.0015  0.0481
  450MOL0     O61963   3.405   2.108   2.157  0.6390  0.5289  1.0584
  450MOL0     C61964   3.509   2.088   2.095  0.6262 -0.6679 -0.4048
  450MOL0     O61965   3.524   2.122   1.965  0.0474  0.0216  0.2954
  450MOL0     C61966   3.417   2.173   1.893  0.1569  0.2634  0.9225
  450MOL0     C61967   3.369   2.091   1.803 -1.0929  0.3820 -0.0812
  450MOL0     C61968   3.254   2.124   1.741  0.0422 -0.8545  0.4317
  450MOL0     C61969   3.197   2.249   1.752 -0.8444 -1.1371 -0.5714
  450MOL0     O61970   3.075   2.274   1.714 -0.0050  0.1784  0.8037
  450MOL0     C61971   3.049   2.264   1.572  1.0538  0.1317 -0.2392
  450MOL0     C61972   2.957   2.142   1.532  0.7682  0.6475 -0.2679
  450MOL0     C61973   2.814   2.129   1.601 -0.8852 -0.4987 -1.0596
  450MOL0     C61974   2.726   2.260   1.590 -0.4388 -0.0195  0.2771
  450MOL0     C61975   2.582   2.240   1.649 -1.1021 -0.2203  0.2189
  450MOL0     C61976   2.503   2.352   1.708  0.3311 -0.4673  0.3400
  450MOL0     C61977   2.548   2.394   1.853  0.4535 -0.1570  0.9001
  450MOL0     C61978   2.465   2.504   1.913  0.2538  0.8167 -0.1894
  450MOL0     N61979   2.482   2.635   1.841 -0.3299  0.3699 -0.3817
  450MOL0     C61980   2.408   2.677   1.737  0.4469  0.2589  0.4565
  450MOL0     C61981   2.478   2.789   1.697  0.1958  1.6072  0.3256
  450MOL0     C61982   2.462   2.874   1.581  0.5119  0.2843  0.0478
  450MOL0     C61983   2.343   2.973   1.581  0.1255  0.0780  0.5228
  450MOL0     C61984   2.315   3.055   1.449 -0.5453  0.5625 -0.7031
  450MOL0     C61985   2.282   2.965   1.332 -0.4766 -0.3974  0.2786
  450MOL0     O61986   2.177   2.874   1.355 -0.0201 -0.4660 -0.6365
  450MOL0     C61987   2.047   2.903   1.321  0.8644  0.0264 -0.3538
  450MOL0     C61988   2.010   2.998   1.220 -0.1471  0.1292 -0.5887
  450MOL0     C61989   1.873   3.021   1.199 -0.3475 -0.1078 -0.3470
  450MOL0     C61990   1.816   3.120   1.091  0.4530 -0.2809 -0.2974
  450MOL0     C61991   1.785   2.955   1.292 -0.2690 -0.5844 -0.2811
  450MOL0     C61992   1.640   2.983   1.311 -0.6756  0.6998  0.0858
  450MOL0     O61993   1.593   2.951   1.436 -0.6481 -0.1288 -0.8106
  450MOL0     C61994   1.462   2.961   1.467 -0.3728  1.0199 -1.0912
  450MOL0     C61995   1.426   3.012   1.590 -0.0623  0.0642  1.0557
  450MOL0     C61996   1.294   3.048   1.618  0.4378  0.4016  1.0955
  450MOL0     C61997   1.187   3.003   1.543  0.5156  0.8912 -0.3554
  450MOL0     O61998   1.063   3.042   1.570  0.6809  1.0822  0.3070
  450MOL0     C61999   1.049   3.181   1.562  0.1867  0.2890  0.8241
  450MOL0     C62000   0.911   3.218   1.512 -0.2124  0.4009 -0.5901
  450MOL0     C62001   0.882   3.166   1.377 -0.2206 -0.4817  0.2631
  450MOL0     C62002   0.736   3.198   1.344  0.7836 -0.5334  0.0533
  450MOL0     C62003   0.721   3.337   1.281  0.3584  0.6746  0.1933
  450MOL0     C62004   0.601   3.330   1.197 -0.3798 -0.6581 -0.2544
  450MOL0     C62005   0.561   3.459   1.130  0.5667  0.4272 -0.4072
  450MOL0     C62006   0.437   3.437   1.043  0.7639 -0.3725 -0.6198
  450MOL0    Cl62007   0.307   3.560   1.078 -0.0899 -0.3058  0.7008
  450MOL0     C62008   1.218   2.923   1.433 -0.9692 -0.1446  0.5199
  450MOL0     C62009   1.355   2.903   1.388 -1.2682  1.1495  0.6518
  450MOL0     O62010   1.580   3.035   1.217  0.4859 -0.3466  0.3173
  450MOL0     C62011   1.828   2.855   1.379 -0.0813 -0.4110 -0.1856
  450MOL0     C62012   1.956   2.825   1.393 -1.2089  0.6363  0.3921
  450MOL0     N62013   2.580   2.811   1.784  0.3206 -0.4528  0.0457
  450MOL0     N62014   2.572   2.718   1.877  0.1684 -0.2298 -0.3036
  450MOL0     C62015   3.243   2.341   1.844 -0.5728  0.5779 -0.5329
  450MOL0     C62016   3.357   2.302   1.917  0.6686  0.4402 -0.3296
  450MOL0     C62017   3.618   2.010   2.162  0.1805 -0.1096 -0.5971
  450MOL0     C62018   3.730   1.981   2.076 -0.0595 -0.0992  0.0839
  450MOL0     C62019   3.829   1.892   2.112  1.1645  0.7910 -0.1541
  450MOL0     C62020   3.833   1.841   2.235 -0.5160  0.1399 -0.5577
  450MOL0     O62021   3.919   1.743   2.277 -0.1368  0.3056 -0.2584
  450MOL0     C62022   3.993   1.657   2.188  0.2926  0.2027  0.7556
  450MOL0     C62023   4.098   1.575   2.267 -0.7632  0.0366  0.9231
  450MOL0     C62024   4.185   1.661   2.366 -0.3120  0.2313  0.7332
  450MOL0     C62025   4.288   1.567   2.443  0.3556  0.5832 -0.0641
  450MOL0     C62026   4.213   1.488   2.548 -0.1740 -0.0376  0.2541
  450MOL0     C62027   4.174   1.431   2.647  0.8041  0.5975  0.9487
  450MOL0     C62028   3.733   1.879   2.325 -0.9665 -0.0553 -0.6231
  450MOL0     C62029   3.628   1.963   2.296  0.9621  0.1874 -1.6260
  450MOL0     C62030   3.520   1.986   2.398 -0.0620 -0.7362  0.6002
  450MOL0     H62031   3.431   2.003   1.791 -0.1164  1.2365 -1.4871
  450MOL0     H62032   3.217   2.046   1.674  0.7043  0.6759 -1.8279
  450MOL0     H62033   3.141   2.252   1.514  2.9138  1.1390  2.3411
  450MOL0     H62034   2.993   2.354   1.545 -1.3132 -1.2848 -0.3524
  450MOL0     H62035   2.927   2.163   1.429 -2.3513 -1.3371  0.0752
  450MOL0     H62036   3.020   2.053   1.534  2.5168  1.7075 -3.0676
  450MOL0     H62037   2.756   2.052   1.548  0.8509 -3.5351  1.1285
  450MOL0     H62038   2.833   2.092   1.702  1.2813  4.3417  0.6006
  450MOL0     H62039   2.777   2.336   1.650  2.1699 -1.3586 -0.0980
  450MOL0     H62040   2.710   2.295   1.488  0.4063  1.4356  0.6259
  450MOL0     H62041   2.593   2.171   1.733  3.0854 -1.0433 -0.7801
  450MOL0     H62042   2.516   2.193   1.576 -4.1322  3.8813 -0.0004
  450MOL0     H62043   2.493   2.437   1.639  0.1957  2.1782  3.3956
  450MOL0     H62044   2.400   2.319   1.725  0.2462 -1.1794 -1.2882
  450MOL0     H62045   2.653   2.421   1.838  0.2263 -0.7481 -2.6918
  450MOL0     H62046   2.557   2.307   1.918 -1.4308 -0.3164  1.0122
  450MOL0     H62047   2.362   2.469   1.922  0.2928 -0.5226 -3.5661
  450MOL0     H62048   2.494   2.526   2.016  1.0040 -1.8865  0.2535
  450MOL0     H62049   2.317   2.637   1.693  1.7074 -1.4949 -0.6483
  450MOL0     H62050   2.450   2.817   1.488  0.5669 -0.2945  0.3918
  450MOL0     H62051   2.559   2.925   1.575  1.8270 -2.1676 -0.9509
  450MOL0     H62052   2.256   2.909   1.597 -0.5448  0.4554 -1.3346
  450MOL0     H62053   2.354   3.043   1.664  1.7969 -1.4457  1.6478
  450MOL0     H62054   2.242   3.136   1.461  1.2215  2.3290 -1.2379
  450MOL0     H62055   2.410   3.102   1.420  0.6596 -0.2689  1.6688
  450MOL0     H62056   2.270   3.027   1.243  1.5828 -1.5528 -0.8915
  450MOL0     H62057   2.366   2.898   1.311  0.8199  1.8959 -2.4433
  450MOL0     H62058   2.086   3.048   1.161 -1.2416  3.4589  0.6175
  450MOL0     H62059   1.762   3.195   1.149 -1.4643 -1.9207  0.1675
  450MOL0     H62060   1.745   3.073   1.023  0.6161  0.4340 -0.9757
  450MOL0     H62061   1.885   3.172   1.023  0.3678 -0.0613 -0.2158
  450MOL0     H62062   1.505   3.058   1.649 -0.6955  3.4773 -0.5404
  450MOL0     H62063   1.274   3.120   1.697 -0.0192  2.4573 -0.7829
  450MOL0     H62064   1.071   3.225   1.659  2.4103  0.2987  0.3587
  450MOL0     H62065   1.120   3.223   1.489 -0.4389  1.2358  0.7315
  450MOL0     H62066   0.835   3.178   1.580 -1.4447  1.5720 -1.2341
  450MOL0     H62067   0.893   3.326   1.512 -1.6765  0.1901  0.1634
  450MOL0     H62068   0.886   3.057   1.364  2.3185 -0.3461 -0.6161
  450MOL0     H62069   0.946   3.211   1.300  0.3737  1.1513  1.6585
  450MOL0     H62070   0.676   3.181   1.434 -1.2377 -1.2804 -1.3687
  450MOL0     H62071   0.704   3.113   1.284  0.1883  1.1766 -2.1686
  450MOL0     H62072   0.717   3.412   1.360 -0.6491  0.4485  0.3665
  450MOL0     H62073   0.812   3.355   1.222 -0.4558  0.9863 -0.9984
  450MOL0     H62074   0.527   3.294   1.269 -0.0286  1.5434  1.3122
  450MOL0     H62075   0.618   3.245   1.130 -0.6906 -0.6221 -0.3820
  450MOL0     H62076   0.641   3.495   1.064  0.4802 -2.1230 -2.0381
  450MOL0     H62077   0.532   3.523   1.214 -0.0873 -1.4987  0.9164
  450MOL0     H62078   0.395   3.341   1.074  1.6710 -0.2625  1.0407
  450MOL0     H62079   0.465   3.446   0.938 -1.0790  3.6904 -0.9698
  450MOL0     H62080   1.135   2.900   1.366  0.9164  0.3916 -2.1628
  450MOL0     H62081   1.383   2.856   1.295  0.4526  1.4949  0.9617
  450MOL0     H62082   1.772   2.791   1.446  0.4512 -3.6844 -2.6315
  450MOL0     H62083   1.997   2.764   1.474  1.9707  0.1970 -1.3699
  450MOL0     H62084   3.193   2.438   1.849  0.0902  0.9241 -0.5014
  450MOL0     H62085   3.405   2.374   1.982  0.9652 -2.1276  2.5533
  450MOL0     H62086   3.730   2.016   1.973 -0.7972  2.5378  0.8981
  450MOL0     H62087   3.909   1.864   2.045  0.0958 -3.0654 -0.0475
  450MOL0     H62088   3.922   1.591   2.137 -3.3262  3.2104  1.5057
  450MOL0     H62089   4.050   1.717   2.116 -0.3685 -1.1732 -1.0065
  450MOL0     H62090   4.156   1.530   2.186 -0.5318  1.7500  0.0844
  450MOL0     H62091   4.051   1.491   2.320 -0.9109 -0.7357 -0.3750
  450MOL0     H62092   4.246   1.733   2.311 -1.1824 -0.5764 -1.4021
  450MOL0     H62093   4.121   1.708   2.441 -0.0994  1.0603  0.4088
  450MOL0     H62094   4.366   1.623   2.494  0.0354 -0.6100  1.8454
  450MOL0     H62095   4.322   1.489   2.373 -1.0257  0.9876 -1.2612
  450MOL0     H62096   4.160   1.374   2.736 -3.2252 -0.9746 -0.4922
  450MOL0     H62097   3.746   1.837   2.425  2.4427  0.1998 -0.8602
  450MOL0     H62098   3.424   1.944   2.367  0.4097 -1.4013  0.0120
  450MOL0     H62099   3.542   1.952   2.500  0.9480  1.0534  1.0358
  450MOL0     H62100   3.503   2.093   2.414  0.0846 -1.0377  3.2298
  451MOL0     O62101  10.688   8.626  10.506  0.0635  0.5534  0.1877
  451MOL0     C62102  10.762   8.534  10.471  0.4130 -0.0093 -0.7398
  451MOL0     O62103  10.852   8.537  10.366 -0.0784  0.0758 -0.1376
  451MOL0     C62104  10.826   8.639  10.274 -0.0893 -0.4435 -0.6229
  451MOL0     C62105  10.727   8.630  10.174  0.0994 -0.0670  0.3366
  451MOL0     C62106  10.692   8.733  10.083  0.5257  0.1311  0.0098
  451MOL0     C62107  10.779   8.837  10.089  0.2168  0.2125  0.2232
  451MOL0     O62108  10.783   8.935   9.994 -0.2413 -0.1800  0.5656
  451MOL0     C62109  10.726   8.912   9.870 -0.4175  0.9326  0.0366
  451MOL0     C62110  10.700   9.031   9.780 -0.6780  0.8003 -0.0517
  451MOL0     C62111  10.812   9.089   9.711 -0.4855  0.9323 -0.5866
  451MOL0     C62112  10.908   9.139   9.815  0.1898  0.6769 -0.9271
  451MOL0     C62113  11.030   9.210   9.757  0.1391  0.4144  0.1132
  451MOL0     C62114  10.994   9.350   9.720  0.1477  0.0348 -0.3695
  451MOL0     C62115  11.093   9.417   9.628 -0.4354 -0.0101  0.1606
  451MOL0     C62116  11.038   9.557   9.613 -0.8659 -0.0831 -0.6952
  451MOL0     N62117  11.109   9.649   9.529 -0.1345 -0.6520 -0.8402
  451MOL0     C62118  11.065   9.773   9.493  0.0356 -1.0151  0.1643
  451MOL0     C62119  11.169   9.827   9.417  0.2644 -0.5721  0.1452
  451MOL0     C62120  11.185   9.958   9.352 -0.3176  0.6115 -0.7605
  451MOL0     C62121  11.335  10.022   9.373  0.4670 -0.1868 -0.3476
  451MOL0     C62122  11.327  10.166   9.404  1.1291  0.6299  0.0067
  451MOL0     C62123  11.463  10.242   9.402  0.2997  0.1779  0.7347
  451MOL0     O62124  11.447  10.380   9.414 -0.1673 -0.3932 -0.6792
  451MOL0     C62125  11.570  10.440   9.414  0.3082 -0.4003  0.5319
  451MOL0     C62126  11.573  10.569   9.447  0.1144 -0.4348  0.0076
  451MOL0     C62127  11.693  10.645   9.447 -0.1791 -0.4242 -0.2022
  451MOL0     C62128  11.689  10.787   9.489 -0.6582 -0.5389 -0.1058
  451MOL0     C62129  11.823  10.580   9.427  0.7572 -0.2386  0.0329
  451MOL0     C62130  11.946  10.656   9.417 -0.2636  0.1316 -0.7296
  451MOL0     O62131  11.949  10.737   9.308  0.1922 -0.1341  0.1811
  451MOL0     C62132  12.062  10.814   9.283 -0.8174 -0.5764 -0.4451
  451MOL0     C62133  12.046  10.949   9.282  0.7239 -0.1377 -0.5051
  451MOL0     C62134  12.148  11.034   9.253  0.2832  0.7574  0.3873
  451MOL0     C62135  12.281  10.979   9.230  1.0448  0.1899 -0.7219
  451MOL0     O62136  12.380  11.060   9.177 -0.6672  0.1588 -0.5216
  451MOL0     C62137  12.400  11.197   9.230  0.0944  0.5642 -0.4681
  451MOL0     C62138  12.524  11.259   9.182  0.0295  1.0436 -0.4253
  451MOL0     C62139  12.646  11.182   9.239 -0.0587 -0.6449 -1.3676
  451MOL0     C62140  12.755  11.178   9.136  0.2321  0.6301  0.0705
  451MOL0     C62141  12.886  11.109   9.188  0.3638  0.5010  1.3621
  451MOL0     C62142  12.891  10.966   9.237 -0.2457  0.0122 -0.3806
  451MOL0     C62143  12.911  10.957   9.388 -0.6493 -0.6195  0.5778
  451MOL0     C62144  12.939  10.807   9.432 -0.3353 -0.4193 -0.9130
  451MOL0    Cl62145  12.984  10.800   9.615  0.1246 -0.6593 -0.0215
  451MOL0     C62146  12.298  10.840   9.239 -0.6283  0.3092  0.1388
  451MOL0     C62147  12.191  10.753   9.258  0.5431  1.0997 -0.4606
  451MOL0     O62148  12.028  10.657   9.508  0.0817 -0.2409 -0.1948
  451MOL0     C62149  11.814  10.446   9.394 -0.9319 -0.0236 -0.3350
  451MOL0     C62150  11.698  10.374   9.390  0.1092 -0.4611  0.5712
  451MOL0     N62151  11.251   9.720   9.388  0.7833 -0.4466  0.8138
  451MOL0     N62152  11.226   9.623   9.464 -0.1265  0.2481  0.6577
  451MOL0     C62153  10.875   8.848  10.194 -0.6793 -0.3440 -0.1327
  451MOL0     C62154  10.890   8.759  10.292 -0.9258  0.2976 -0.7139
  451MOL0     C62155  10.758   8.406  10.560 -0.2445  0.6184  0.1151
  451MOL0     C62156  10.886   8.355  10.585 -0.2342  0.5487 -0.3788
  451MOL0     C62157  10.901   8.243  10.671 -0.5240 -0.1137  0.4964
  451MOL0     C62158  10.801   8.175  10.734  0.6975 -0.4114  0.0440
  451MOL0     O62159  10.809   8.076  10.830 -0.4815 -0.2981 -0.1805
  451MOL0     C62160  10.883   7.962  10.803  0.2459  0.6473  0.2913
  451MOL0     C62161  11.028   7.961  10.840 -0.2435  0.8808 -0.7700
  451MOL0     C62162  11.066   7.916  10.986  0.0390 -0.0643  1.2385
  451MOL0     C62163  11.223   7.911  10.998  0.3804  0.1759 -0.6547
  451MOL0     C62164  11.260   7.828  11.114  0.6237 -0.8516  0.0378
  451MOL0     C62165  11.277   7.758  11.207  0.1399  0.0278  0.3369
  451MOL0     C62166  10.672   8.225  10.704 -0.0611  0.0521 -0.5559
  451MOL0     C62167  10.646   8.351  10.621  0.1793  0.2549  0.4775
  451MOL0     C62168  10.518   8.407  10.592  0.2666  0.6629  0.0486
  451MOL0     H62169  10.657   8.548  10.179 -1.3780  1.0837 -0.6269
  451MOL0     H62170  10.618   8.705  10.008  1.3045 -1.8516 -0.0853
  451MOL0     H62171  10.632   8.856   9.875 -0.4585  1.0785  2.1852
  451MOL0     H62172  10.799   8.841   9.832  0.2511  0.8830  1.3420
  451MOL0     H62173  10.622   8.994   9.712 -2.7103  1.1074  2.0035
  451MOL0     H62174  10.647   9.104   9.842 -0.3013  0.2964  0.8879
  451MOL0     H62175  10.840   9.025   9.626 -0.7091 -0.0649  0.0777
  451MOL0     H62176  10.766   9.175   9.661 -1.9692  0.0647 -0.7837
  451MOL0     H62177  10.855   9.207   9.882 -1.7166 -1.5994  0.0157
  451MOL0     H62178  10.945   9.051   9.869  0.0040 -0.4479 -2.5521
  451MOL0     H62179  11.056   9.166   9.660  1.5873 -2.1290  1.5250
  451MOL0     H62180  11.108   9.195   9.833 -1.8353  0.3424  2.2148
  451MOL0     H62181  10.903   9.348   9.659 -1.4936 -1.7199  1.9440
  451MOL0     H62182  10.976   9.407   9.812  2.8057 -2.2866  1.7891
  451MOL0     H62183  11.079   9.380   9.526 -0.9589  1.8956 -0.5127
  451MOL0     H62184  11.195   9.418   9.669 -0.7273  3.0109  1.0972
  451MOL0     H62185  10.935   9.554   9.574 -0.7070  1.4714 -1.2867
  451MOL0     H62186  11.035   9.596   9.715 -0.2228 -1.6484 -0.0556
  451MOL0     H62187  10.969   9.810   9.529 -0.0777 -0.2281 -0.9061
  451MOL0     H62188  11.107  10.020   9.397  0.3781  0.8149  0.1974
  451MOL0     H62189  11.172   9.968   9.244  0.4020  3.9267 -0.6682
  451MOL0     H62190  11.386   9.968   9.454 -1.7211 -2.2490 -0.1933
  451MOL0     H62191  11.395  10.015   9.282  1.3908 -2.0320  0.3573
  451MOL0     H62192  11.265  10.222   9.333  2.3591  1.1872 -0.6527
  451MOL0     H62193  11.280  10.178   9.501  0.5032  0.1306 -0.2300
  451MOL0     H62194  11.521  10.192   9.481 -2.4719 -2.2496  1.4312
  451MOL0     H62195  11.514  10.212   9.311  0.9786 -3.0852  2.0275
  451MOL0     H62196  11.477  10.619   9.449 -0.4038 -1.1618 -2.7459
  451MOL0     H62197  11.654  10.855   9.411  1.4566 -1.7039 -2.1749
  451MOL0     H62198  11.779  10.821   9.542 -0.8313  0.5627 -0.4973
  451MOL0     H62199  11.620  10.798   9.574  2.4161  0.1644  2.5111
  451MOL0     H62200  11.949  10.990   9.304  1.3399  0.5322  1.0766
  451MOL0     H62201  12.132  11.139   9.231 -3.0119  0.2851  0.0017
  451MOL0     H62202  12.319  11.265   9.202  1.0607  1.7288 -0.5402
  451MOL0     H62203  12.407  11.204   9.339 -0.5007  2.4487 -0.5129
  451MOL0     H62204  12.523  11.242   9.074 -2.8341 -1.7866 -0.1106
  451MOL0     H62205  12.531  11.367   9.201 -4.2166  1.3860  0.0259
  451MOL0     H62206  12.611  11.082   9.268 -1.5294  0.2813  0.2400
  451MOL0     H62207  12.679  11.229   9.332 -3.3034 -0.6784 -0.0811
  451MOL0     H62208  12.790  11.268   9.083 -1.0739  0.9626 -0.2695
  451MOL0     H62209  12.714  11.119   9.053  1.9956 -0.3763 -0.1215
  451MOL0     H62210  12.955  11.106   9.103 -0.5430  0.1963  0.6156
  451MOL0     H62211  12.924  11.181   9.261  0.0159  2.7540 -0.5865
  451MOL0     H62212  12.978  10.911   9.199  0.4875 -1.0007  2.5406
  451MOL0     H62213  12.812  10.901   9.197 -0.3341  0.6936 -1.3608
  451MOL0     H62214  12.837  11.016   9.443 -0.2572 -0.0115  0.4716
  451MOL0     H62215  13.010  10.996   9.415  0.3928 -1.6835 -1.4777
  451MOL0     H62216  13.021  10.760   9.377 -0.8158  0.9502 -2.8965
  451MOL0     H62217  12.846  10.749   9.420 -2.7521  2.7069  1.1193
  451MOL0     H62218  12.386  10.787   9.204 -0.8642  1.0623 -1.6981
  451MOL0     H62219  12.196  10.648   9.231 -1.4319  0.6430  0.8043
  451MOL0     H62220  11.905  10.392   9.370 -0.0071 -0.5904  3.7848
  451MOL0     H62221  11.701  10.267   9.373 -2.1736 -0.1733 -2.5248
  451MOL0     H62222  10.950   8.927  10.188 -1.1647  0.1193 -0.1919
  451MOL0     H62223  10.950   8.784  10.380 -3.1742 -0.5409  1.1632
  451MOL0     H62224  10.976   8.405  10.552  0.2097 -0.3468 -0.5593
  451MOL0     H62225  10.998   8.201  10.694  0.0722 -0.5757 -2.5297
  451MOL0     H62226  10.840   7.871  10.845 -2.0377  1.5587  0.0503
  451MOL0     H62227  10.874   7.945  10.695  2.1573 -0.8821  0.3033
  451MOL0     H62228  11.074   8.059  10.822  1.7723 -0.1304 -1.4777
  451MOL0     H62229  11.084   7.891  10.778  1.6600  0.0612  1.7143
  451MOL0     H62230  11.039   7.997  11.054  1.1329 -1.5820  3.6001
  451MOL0     H62231  11.013   7.822  11.003 -0.4975  0.4273  2.3619
  451MOL0     H62232  11.271   8.009  11.003  0.8639 -0.1130  0.7412
  451MOL0     H62233  11.265   7.858  10.912  2.4031  1.5271 -0.5718
  451MOL0     H62234  11.272   7.686  11.287  0.5382 -0.9695 -0.5246
  451MOL0     H62235  10.598   8.157  10.745 -1.5802  3.0018  2.0496
  451MOL0     H62236  10.512   8.433  10.486  3.3089  1.4370 -0.0415
  451MOL0     H62237  10.449   8.329  10.625  0.6808  0.5508  0.6853
  451MOL0     H62238  10.499   8.502  10.643 -0.8274  0.9284 -0.8217
  452MOL0     O62239   3.597   2.818   6.829 -0.1709 -0.3053  0.1643
  452MOL0     C62240   3.539   2.840   6.934  0.2014  0.3692 -0.7594
  452MOL0     O62241   3.586   2.798   7.060  0.2072  0.2320 -0.1508
  452MOL0     C62242   3.712   2.743   7.062 -1.0581 -0.0826  0.6216
  452MOL0     C62243   3.818   2.809   7.128  0.4857  0.5116 -0.0596
  452MOL0     C62244   3.947   2.768   7.122 -0.8812  0.6282 -0.1118
  452MOL0     C62245   3.990   2.643   7.076 -0.0494 -1.0888  0.8929
  452MOL0     O62246   4.117   2.605   7.079  0.1710  1.0176 -0.7379
  452MOL0     C62247   4.146   2.467   7.049  0.5111 -0.0589 -0.0288
  452MOL0     C62248   4.285   2.435   7.105  0.6432 -0.7066  0.1093
  452MOL0     C62249   4.308   2.289   7.135 -0.7044  0.1172  0.0020
  452MOL0     C62250   4.461   2.266   7.154  1.0031 -0.0119  0.0814
  452MOL0     C62251   4.479   2.108   7.168  0.3976  0.1929  0.1294
  452MOL0     C62252   4.611   2.051   7.210 -0.2273 -0.2593 -0.5500
  452MOL0     C62253   4.721   2.076   7.113 -1.3719 -0.7568  0.4674
  452MOL0     C62254   4.869   2.069   7.172 -0.0645 -0.0332  1.5349
  452MOL0     N62255   4.969   2.038   7.074 -0.6260  0.6952  0.9461
  452MOL0     C62256   5.040   2.126   7.000 -0.7711  0.9389 -0.3742
  452MOL0     C62257   5.129   2.046   6.930 -0.3465 -0.7508  0.4014
  452MOL0     C62258   5.236   2.102   6.846  0.0021 -0.6127 -0.0714
  452MOL0     C62259   5.352   2.132   6.937 -0.6746  0.5766 -0.7129
  452MOL0     C62260   5.459   2.201   6.849 -0.0397 -0.9521 -0.3960
  452MOL0     C62261   5.591   2.207   6.927 -0.2233 -0.7010 -0.6689
  452MOL0     O62262   5.685   2.298   6.872 -0.2765 -0.0630 -0.1418
  452MOL0     C62263   5.814   2.303   6.909  0.4013 -0.0934  0.4192
  452MOL0     C62264   5.885   2.233   7.004 -0.6736  0.5168  0.2967
  452MOL0     C62265   6.023   2.233   7.020 -0.1191 -1.0461  0.1316
  452MOL0     C62266   6.093   2.130   7.113  0.4306 -0.4056 -0.5091
  452MOL0     C62267   6.092   2.334   6.951 -0.2743 -0.5699  0.3011
  452MOL0     C62268   6.235   2.369   6.977 -0.2130  0.1079 -0.7839
  452MOL0     O62269   6.308   2.436   6.880 -0.0476 -0.5519  0.4677
  452MOL0     C62270   6.432   2.497   6.890 -0.7700 -0.0902 -0.1304
  452MOL0     C62271   6.510   2.532   7.004 -0.2303  0.5034 -0.5604
  452MOL0     C62272   6.637   2.579   6.990 -1.0812  0.7980 -0.5296
  452MOL0     C62273   6.695   2.590   6.865 -0.1098 -0.6324  0.1527
  452MOL0     O62274   6.816   2.640   6.840 -0.0689 -0.1197 -0.2856
  452MOL0     C62275   6.894   2.684   6.957  0.4346  0.0028 -0.7079
  452MOL0     C62276   7.024   2.748   6.912 -0.7457  0.2498 -0.3591
  452MOL0     C62277   7.080   2.823   7.041  0.2921 -0.4258  0.3246
  452MOL0     C62278   7.203   2.898   7.017 -1.0867 -0.0730  0.5803
  452MOL0     C62279   7.236   3.003   7.126 -0.7006 -0.0989  0.1856
  452MOL0     C62280   7.364   3.080   7.081 -0.0172  0.4815 -0.6245
  452MOL0     C62281   7.411   3.180   7.193 -1.0767 -0.3767 -0.1342
  452MOL0     C62282   7.299   3.277   7.241 -0.7046 -0.2531  0.0573
  452MOL0    Cl62283   7.355   3.367   7.381  0.5373  0.2445 -0.0982
  452MOL0     C62284   6.610   2.557   6.755 -0.2695 -0.8390 -0.7262
  452MOL0     C62285   6.488   2.514   6.761 -0.0805  0.4589 -1.0610
  452MOL0     O62286   6.276   2.344   7.083 -1.3937  0.3512  0.7257
  452MOL0     C62287   6.030   2.403   6.848 -0.9937 -0.1496  1.0048
  452MOL0     C62288   5.895   2.388   6.823  0.7937  0.2002  0.2736
  452MOL0     N62289   5.106   1.913   6.967  0.7733  0.4930  0.6293
  452MOL0     N62290   5.008   1.914   7.039 -1.4663 -0.4682  1.0619
  452MOL0     C62291   3.888   2.565   7.018  0.0171 -0.3475 -0.2638
  452MOL0     C62292   3.756   2.620   7.007  0.0514  0.3216 -0.0624
  452MOL0     C62293   3.394   2.888   6.942 -0.1072  0.6155  0.6318
  452MOL0     C62294   3.312   2.858   7.052  0.0898 -0.6086 -0.1980
  452MOL0     C62295   3.179   2.907   7.054  0.1815 -0.3978 -0.6319
  452MOL0     C62296   3.124   2.975   6.944 -0.1383 -1.1549  0.4045
  452MOL0     O62297   3.001   3.031   6.959  0.5469  0.6028  0.0090
  452MOL0     C62298   2.906   3.006   6.854 -0.2126 -0.5180  0.9053
  452MOL0     C62299   2.778   2.946   6.889  0.7366  0.2362  0.9985
  452MOL0     C62300   2.681   3.037   6.961 -0.0674 -1.3657 -0.2747
  452MOL0     C62301   2.725   3.086   7.096 -0.0939  0.1244  0.7788
  452MOL0     C62302   2.785   2.984   7.184  0.5498 -0.0678 -0.3375
  452MOL0     C62303   2.814   2.903   7.266  0.0887  0.6294  0.8814
  452MOL0     C62304   3.208   2.998   6.832  0.3643 -0.7941  0.2665
  452MOL0     C62305   3.340   2.968   6.833  0.0882 -0.0349 -1.1568
  452MOL0     C62306   3.412   3.027   6.726 -0.4738  0.5385  0.4319
  452MOL0     H62307   3.800   2.909   7.167 -0.7034  0.3768 -0.2284
  452MOL0     H62308   4.030   2.829   7.157  0.7183 -1.5758  0.1252
  452MOL0     H62309   4.149   2.439   6.944  0.9049 -0.6104  0.1184
  452MOL0     H62310   4.069   2.407   7.099 -2.4607  1.9836 -1.8929
  452MOL0     H62311   4.361   2.465   7.033 -0.3468 -1.2114 -1.1737
  452MOL0     H62312   4.298   2.485   7.202 -0.4250 -1.6158  0.7494
  452MOL0     H62313   4.251   2.259   7.224  0.5474 -1.0866  0.4368
  452MOL0     H62314   4.259   2.225   7.061 -0.4617 -2.1068  1.6372
  452MOL0     H62315   4.505   2.302   7.061 -0.5693 -0.8272 -1.0428
  452MOL0     H62316   4.494   2.300   7.252  1.9534 -1.1263  0.1752
  452MOL0     H62317   4.461   2.058   7.072  1.4300  2.0687 -1.1201
  452MOL0     H62318   4.408   2.075   7.244  0.6671  1.9021  1.1618
  452MOL0     H62319   4.633   2.105   7.302  0.5352 -0.5674 -0.5469
  452MOL0     H62320   4.606   1.945   7.235 -0.6736  0.1914  1.4490
  452MOL0     H62321   4.717   2.184   7.092  1.2222 -0.3832  1.5077
  452MOL0     H62322   4.716   2.021   7.018  4.7438  4.3681 -3.6719
  452MOL0     H62323   4.887   2.164   7.222  1.8081  0.3998  0.1290
  452MOL0     H62324   4.886   1.997   7.253  4.9986 -0.8819  0.0613
  452MOL0     H62325   5.046   2.232   7.021  2.9887  0.6688  0.6134
  452MOL0     H62326   5.209   2.175   6.769 -1.8622 -0.1436  0.9567
  452MOL0     H62327   5.272   2.024   6.778  1.8079  0.5630 -0.5329
  452MOL0     H62328   5.309   2.193   7.017 -0.9838 -3.5350  2.5743
  452MOL0     H62329   5.393   2.040   6.979 -1.2147 -1.0539 -3.4748
  452MOL0     H62330   5.485   2.152   6.755 -0.7697 -1.2032 -0.4733
  452MOL0     H62331   5.426   2.303   6.825  0.6808 -0.7625 -0.6070
  452MOL0     H62332   5.562   2.255   7.020 -1.1599 -0.7490 -0.9316
  452MOL0     H62333   5.646   2.113   6.939  3.1417  0.6265 -3.6931
  452MOL0     H62334   5.832   2.161   7.066 -0.1967 -0.2646 -0.1810
  452MOL0     H62335   6.179   2.084   7.063  1.3965 -1.2048  1.7453
  452MOL0     H62336   6.023   2.053   7.143 -1.4805  0.2451 -2.9830
  452MOL0     H62337   6.131   2.179   7.204  0.1202 -2.8235  0.9997
  452MOL0     H62338   6.473   2.535   7.106 -0.7815  2.7532 -0.7847
  452MOL0     H62339   6.693   2.578   7.082  2.3055  2.2255 -2.4095
  452MOL0     H62340   6.828   2.735   7.028  0.1282 -1.0999 -0.1754
  452MOL0     H62341   6.917   2.594   7.015  1.6046 -0.0411 -1.2105
  452MOL0     H62342   7.090   2.665   6.882 -1.6020  0.0748 -1.8238
  452MOL0     H62343   6.999   2.816   6.831 -1.2882  1.8804  1.1170
  452MOL0     H62344   7.092   2.766   7.134 -0.3013 -3.6825 -1.4298
  452MOL0     H62345   7.004   2.897   7.067  1.0514  0.7067 -0.5922
  452MOL0     H62346   7.187   2.951   6.922 -0.4186 -1.9122 -0.6210
  452MOL0     H62347   7.291   2.836   7.000  0.4636  2.0297  0.4288
  452MOL0     H62348   7.150   3.070   7.142 -0.6250 -0.0909  0.5788
  452MOL0     H62349   7.250   2.960   7.226 -0.8233  3.1319  1.7427
  452MOL0     H62350   7.336   3.145   6.998  1.1285 -0.9839 -2.2400
  452MOL0     H62351   7.435   3.009   7.038 -0.1079 -0.3861  0.6163
  452MOL0     H62352   7.491   3.245   7.154 -0.2182 -0.5030  1.3200
  452MOL0     H62353   7.441   3.107   7.269 -0.8189  0.1385  0.2615
  452MOL0     H62354   7.209   3.219   7.267 -1.4556 -0.1643 -2.1511
  452MOL0     H62355   7.268   3.352   7.168  0.7413 -0.7962 -1.1528
  452MOL0     H62356   6.672   2.555   6.665  2.4202  0.3400  0.9660
  452MOL0     H62357   6.434   2.471   6.678  0.0798 -1.0583 -0.4208
  452MOL0     H62358   6.086   2.472   6.786 -0.4313  0.2593  1.9537
  452MOL0     H62359   5.855   2.430   6.731  2.3438 -1.8184 -1.4198
  452MOL0     H62360   3.902   2.471   6.965  0.2499 -1.2264  1.3154
  452MOL0     H62361   3.670   2.568   6.966  2.9741 -3.3622 -2.0768
  452MOL0     H62362   3.351   2.814   7.143  1.6146  1.9972  0.5004
  452MOL0     H62363   3.114   2.893   7.140  0.9362 -2.5732 -0.3339
  452MOL0     H62364   2.906   3.103   6.804  1.0657 -1.1070 -0.2776
  452MOL0     H62365   2.948   2.933   6.784 -2.2757 -0.2210 -0.7344
  452MOL0     H62366   2.803   2.862   6.954  1.8630 -1.0943 -1.0705
  452MOL0     H62367   2.731   2.901   6.801  3.9421  0.0094 -0.7220
  452MOL0     H62368   2.680   3.134   6.910 -1.5853 -1.4849 -0.5101
  452MOL0     H62369   2.586   2.987   6.977 -0.8079 -0.1016 -0.5588
  452MOL0     H62370   2.643   3.132   7.153  1.7387  1.8167  2.2112
  452MOL0     H62371   2.800   3.166   7.102 -1.0775  1.5784 -3.3465
  452MOL0     H62372   2.821   2.824   7.337  1.9500  0.2032  0.2660
  452MOL0     H62373   3.179   3.067   6.754  1.5688  0.4869  0.9129
  452MOL0     H62374   3.464   2.945   6.674  2.0255  1.3658  1.4410
  452MOL0     H62375   3.351   3.072   6.648 -2.2307 -3.8980 -1.0151
  452MOL0     H62376   3.486   3.093   6.774 -0.3338  1.0521 -0.4667
  453MOL0     O62377   6.997   4.886   8.845  0.7498 -0.5274 -0.2155
  453MOL0     C62378   7.015   4.786   8.919 -0.0520 -1.3503  0.7429
  453MOL0     O62379   7.141   4.734   8.946 -0.5182 -0.3223 -0.6584
  453MOL0     C62380   7.259   4.792   8.907  0.4137  0.2275 -0.6413
  453MOL0     C62381   7.342   4.745   8.807  0.1173  0.5447 -0.4938
  453MOL0     C62382   7.446   4.823   8.754 -0.8648  0.9336 -0.9302
  453MOL0     C62383   7.476   4.956   8.809 -0.3704 -0.7654 -0.1268
  453MOL0     O62384   7.569   5.045   8.770 -0.8131 -0.6432 -0.3864
  453MOL0     C62385   7.681   4.993   8.702 -0.3181 -0.3054 -0.5653
  453MOL0     C62386   7.782   4.928   8.807  0.0907 -0.8499 -0.2818
  453MOL0     C62387   7.929   4.951   8.780 -0.0743  0.7578  0.9096
  453MOL0     C62388   7.977   4.895   8.638  0.4387 -0.0855 -0.2245
  453MOL0     C62389   8.127   4.913   8.613 -1.5532 -0.9201 -0.1331
  453MOL0     C62390   8.188   4.858   8.484 -0.2463  0.1135 -0.0225
  453MOL0     C62391   8.343   4.871   8.481  0.7758  0.3857 -0.5334
  453MOL0     C62392   8.406   4.811   8.357  0.4021  0.3621  0.3972
  453MOL0     N62393   8.550   4.800   8.376  0.3990  0.0405 -0.3305
  453MOL0     C62394   8.632   4.901   8.407  0.1642 -0.0417 -0.1907
  453MOL0     C62395   8.756   4.845   8.411  0.0647  0.4424  0.2748
  453MOL0     C62396   8.874   4.928   8.432 -0.5267  0.0011  0.0300
  453MOL0     C62397   8.951   4.880   8.551  0.8060  1.2167  0.7736
  453MOL0     C62398   8.881   4.919   8.686  0.4943  0.0166 -0.5759
  453MOL0     C62399   8.898   4.815   8.803  0.2516 -0.3127  0.8055
  453MOL0     O62400   8.800   4.706   8.801  0.8863 -0.5628  0.6978
  453MOL0     C62401   8.663   4.727   8.821 -0.6998  1.3035 -0.4334
  453MOL0     C62402   8.594   4.840   8.856 -0.1470 -0.5398  0.4127
  453MOL0     C62403   8.456   4.841   8.891 -0.1484  0.3123  0.5682
  453MOL0     C62404   8.404   4.976   8.934  0.2980  0.3462 -0.4298
  453MOL0     C62405   8.380   4.724   8.888  0.1700  0.0052  0.2597
  453MOL0     C62406   8.244   4.711   8.920  0.4131 -0.2022  0.2717
  453MOL0     O62407   8.188   4.589   8.890 -0.4224 -0.1039  0.5797
  453MOL0     C62408   8.054   4.562   8.935 -0.4258  0.3667 -0.5189
  453MOL0     C62409   8.028   4.524   9.067 -0.4579  0.4730  0.1687
  453MOL0     C62410   7.905   4.498   9.109  0.4102 -0.0975 -0.4833
  453MOL0     C62411   7.797   4.514   9.027  0.4486 -0.0331  0.9765
  453MOL0     O62412   7.675   4.486   9.069 -0.3680 -0.1314 -0.7393
  453MOL0     C62413   7.566   4.561   9.016  0.0636  0.5640  0.0505
  453MOL0     C62414   7.437   4.497   9.065  0.3146  0.0779 -0.1071
  453MOL0     C62415   7.440   4.482   9.221 -0.4479 -0.6121  0.2060
  453MOL0     C62416   7.422   4.609   9.298 -0.1777 -0.1288 -0.6802
  453MOL0     C62417   7.397   4.593   9.449  0.6243  0.1773 -0.2177
  453MOL0     C62418   7.254   4.544   9.485 -0.1538  0.3981  0.5605
  453MOL0     C62419   7.220   4.531   9.640  0.2319 -0.7916 -1.0602
  453MOL0     C62420   7.085   4.598   9.679 -0.6846  0.5189 -0.5340
  453MOL0    Cl62421   7.091   4.783   9.682  0.1801 -0.5582 -0.4163
  453MOL0     C62422   7.824   4.547   8.885  0.0903 -0.0621  0.1735
  453MOL0     C62423   7.954   4.580   8.848  0.2525  0.3039 -0.3836
  453MOL0     O62424   8.190   4.797   8.997  0.4203 -0.4701  0.4072
  453MOL0     C62425   8.450   4.613   8.835  0.5609  0.9924  0.9343
  453MOL0     C62426   8.588   4.609   8.806  0.0649 -0.5581  0.5109
  453MOL0     N62427   8.748   4.702   8.399 -0.6181  0.0636  0.3685
  453MOL0     N62428   8.621   4.678   8.375 -0.8186 -0.0379 -0.9369
  453MOL0     C62429   7.398   4.994   8.914  0.2767 -0.4371 -0.4299
  453MOL0     C62430   7.296   4.915   8.961 -0.1909  0.2525  0.6010
  453MOL0     C62431   6.902   4.745   8.991  0.0256 -0.7785  0.6554
  453MOL0     C62432   6.913   4.731   9.129 -0.9348  0.8271 -0.4142
  453MOL0     C62433   6.803   4.698   9.212 -0.7897  0.9235  0.0933
  453MOL0     C62434   6.683   4.673   9.162  0.8331  0.2855  1.2334
  453MOL0     O62435   6.590   4.610   9.242  0.4399  0.0510 -0.4584
  453MOL0     C62436   6.476   4.545   9.186  0.0944  0.4598  0.8180
  453MOL0     C62437   6.346   4.634   9.153  0.1442 -0.5076  0.1554
  453MOL0     C62438   6.298   4.733   9.263 -0.0561  0.2305  0.5538
  453MOL0     C62439   6.184   4.823   9.216  0.7395 -0.2071 -0.7288
  453MOL0     C62440   6.167   4.954   9.287  0.0452  0.6683 -0.3273
  453MOL0     C62441   6.139   5.050   9.356 -0.9485  0.0051  0.4450
  453MOL0     C62442   6.669   4.678   9.024 -0.2009  0.3008  0.2733
  453MOL0     C62443   6.774   4.709   8.933  0.6862 -0.6372 -0.6919
  453MOL0     C62444   6.723   4.722   8.784  0.0927 -0.6967 -0.5773
  453MOL0     H62445   7.318   4.647   8.767  1.9154  0.0454 -0.4572
  453MOL0     H62446   7.511   4.773   8.684  0.9942  0.3522  1.1025
  453MOL0     H62447   7.716   5.064   8.626 -3.7844 -0.3774 -2.4361
  453MOL0     H62448   7.664   4.902   8.644  1.3168 -2.4711  2.0942
  453MOL0     H62449   7.758   4.976   8.903 -3.2311 -1.1326 -0.8480
  453MOL0     H62450   7.763   4.821   8.809 -1.5177 -0.6430 -1.8356
  453MOL0     H62451   7.958   5.056   8.780  1.0481  0.4919  2.7517
  453MOL0     H62452   8.000   4.908   8.851 -0.0740 -1.3851 -0.2980
  453MOL0     H62453   7.960   4.787   8.640  0.4945 -0.0907  0.5629
  453MOL0     H62454   7.922   4.948   8.560  1.0476  1.8770  0.6235
  453MOL0     H62455   8.183   4.880   8.701 -0.9397 -0.8038 -0.4753
  453MOL0     H62456   8.147   5.020   8.604 -0.5062 -1.0069  0.9052
  453MOL0     H62457   8.175   4.750   8.487 -1.5436  0.2103 -1.2908
  453MOL0     H62458   8.124   4.899   8.405 -1.2603 -3.1026 -0.9995
  453MOL0     H62459   8.388   4.832   8.573  0.6572  0.8656 -0.2680
  453MOL0     H62460   8.373   4.976   8.473 -1.0283  1.3769  3.3337
  453MOL0     H62461   8.362   4.712   8.340  1.6645 -0.3214  0.9567
  453MOL0     H62462   8.388   4.878   8.273  0.4041  0.4306  0.4519
  453MOL0     H62463   8.597   5.002   8.425  1.1421 -0.0129  1.9241
  453MOL0     H62464   8.861   5.036   8.436  0.6976  0.1445  0.2436
  453MOL0     H62465   8.929   4.923   8.338 -0.7950 -1.6701 -0.0746
  453MOL0     H62466   8.964   4.771   8.553 -1.4657  0.9006  2.8476
  453MOL0     H62467   9.054   4.916   8.544  0.5554  1.8046  0.0947
  453MOL0     H62468   8.912   5.016   8.725 -0.8362 -0.4794  1.9406
  453MOL0     H62469   8.774   4.921   8.662 -0.3965  3.4974  2.7804
  453MOL0     H62470   8.999   4.773   8.800 -0.5971 -2.4707  0.3840
  453MOL0     H62471   8.880   4.869   8.897  0.4613  0.6218  0.3189
  453MOL0     H62472   8.662   4.924   8.862  1.4112 -1.6887 -0.2794
  453MOL0     H62473   8.323   5.019   8.874 -0.8703  4.4619  3.5171
  453MOL0     H62474   8.475   5.059   8.937  1.8154 -0.7522 -2.8092
  453MOL0     H62475   8.360   4.952   9.032  1.7750 -0.9100 -0.0355
  453MOL0     H62476   8.110   4.507   9.137 -2.3344  1.6922  2.8249
  453MOL0     H62477   7.896   4.454   9.208  1.6055  3.0913  1.1857
  453MOL0     H62478   7.560   4.665   9.050 -4.4343  0.8275 -0.8915
  453MOL0     H62479   7.557   4.565   8.907 -0.2419 -0.1076  0.0420
  453MOL0     H62480   7.337   4.529   9.035 -0.0910 -1.5258 -0.5444
  453MOL0     H62481   7.429   4.393   9.033  1.1126 -0.2547  0.7429
  453MOL0     H62482   7.534   4.436   9.253 -1.6143 -2.8734  0.6223
  453MOL0     H62483   7.358   4.412   9.243 -2.4896  1.1953 -1.2837
  453MOL0     H62484   7.343   4.674   9.259 -1.5778 -1.3358 -0.0012
  453MOL0     H62485   7.509   4.673   9.289 -1.1742  1.3572 -0.0883
  453MOL0     H62486   7.465   4.511   9.475  0.4396 -0.0344 -0.4022
  453MOL0     H62487   7.417   4.690   9.496 -1.9405  0.8300 -0.3461
  453MOL0     H62488   7.240   4.444   9.443  2.8813 -0.8962  2.3254
  453MOL0     H62489   7.172   4.612   9.457  0.5681  1.3365  0.6505
  453MOL0     H62490   7.291   4.595   9.692 -2.0369  0.2352  0.9508
  453MOL0     H62491   7.219   4.429   9.679  2.3686 -0.8786 -1.1316
  453MOL0     H62492   7.043   4.570   9.776 -1.9297  1.8998 -0.6325
  453MOL0     H62493   7.011   4.562   9.606 -0.0139 -2.2705  0.0683
  453MOL0     H62494   7.747   4.553   8.809 -0.0925 -3.1203 -0.0184
  453MOL0     H62495   7.980   4.607   8.746 -0.2698 -0.5347 -0.7393
  453MOL0     H62496   8.406   4.514   8.842 -0.3005  1.2650 -0.2901
  453MOL0     H62497   8.641   4.522   8.771 -2.7820 -1.9244 -0.7716
  453MOL0     H62498   7.430   5.080   8.972  2.3259 -1.1774 -0.3693
  453MOL0     H62499   7.249   4.956   9.050 -1.2171  0.4494 -0.0089
  453MOL0     H62500   7.013   4.733   9.170 -1.5742 -0.2869  1.3182
  453MOL0     H62501   6.828   4.686   9.317 -2.7666  0.0584  0.5134
  453MOL0     H62502   6.502   4.491   9.095  1.6587  0.4673  1.2340
  453MOL0     H62503   6.438   4.468   9.253  0.4833  0.3398  0.8981
  453MOL0     H62504   6.259   4.574   9.126 -0.6328 -0.0502  1.5173
  453MOL0     H62505   6.372   4.690   9.063  0.8227  1.6422  1.6067
  453MOL0     H62506   6.291   4.690   9.363  0.7028 -0.1602  0.4532
  453MOL0     H62507   6.384   4.800   9.271 -2.9117  4.4993 -0.9954
  453MOL0     H62508   6.096   4.760   9.234  1.3892 -1.5585 -2.0481
  453MOL0     H62509   6.208   4.847   9.112  1.1346 -2.3432 -1.1850
  453MOL0     H62510   6.109   5.140   9.406 -0.5158  0.3035  0.1753
  453MOL0     H62511   6.577   4.658   8.970  0.2420  2.5509 -1.4771
  453MOL0     H62512   6.785   4.653   8.725  3.2431  1.1679  0.3207
  453MOL0     H62513   6.615   4.714   8.770 -0.2708  0.8475  0.9835
  453MOL0     H62514   6.743   4.824   8.750 -1.5592 -1.2691 -3.6417
  454MOL0     O62515   8.920   1.177   5.932  0.8921  0.0496  0.3331
  454MOL0     C62516   8.892   1.292   5.898 -0.7826  0.3261 -0.5686
  454MOL0     O62517   8.977   1.381   5.839  0.3253 -0.6951  0.2797
  454MOL0     C62518   9.113   1.369   5.803 -0.1433 -0.2056  0.0978
  454MOL0     C62519   9.187   1.256   5.819 -0.1348 -0.7769  0.2591
  454MOL0     C62520   9.310   1.252   5.778 -0.1460  0.1869 -0.9401
  454MOL0     C62521   9.378   1.359   5.708  0.0700 -0.0280 -0.2581
  454MOL0     O62522   9.511   1.363   5.666  0.6945  0.5381  0.6924
  454MOL0     C62523   9.600   1.307   5.771  0.4064  0.3064 -0.8254
  454MOL0     C62524   9.755   1.322   5.745 -0.1618 -0.0999 -1.0649
  454MOL0     C62525   9.855   1.285   5.865 -0.2050  0.2503  0.6695
  454MOL0     C62526  10.005   1.293   5.821 -0.1475  0.1198  0.7022
  454MOL0     C62527  10.108   1.304   5.933  0.4633 -0.7069  0.0457
  454MOL0     C62528  10.251   1.291   5.882 -0.3440 -0.1575 -0.1832
  454MOL0     C62529  10.336   1.384   5.985  0.0187 -0.3489 -0.2841
  454MOL0     C62530  10.480   1.371   5.927 -0.1829 -0.3406  0.1382
  454MOL0     N62531  10.583   1.404   6.023 -0.1730 -0.2305  0.4021
  454MOL0     C62532  10.578   1.386   6.160  0.2176 -0.6974  0.3578
  454MOL0     C62533  10.704   1.430   6.206 -0.3569  0.2711  0.9659
  454MOL0     C62534  10.760   1.450   6.342  0.1232 -1.0015 -0.5940
  454MOL0     C62535  10.787   1.308   6.401  0.4245  0.4353 -0.0035
  454MOL0     C62536  10.657   1.247   6.457  0.5830  0.3995  0.7668
  454MOL0     C62537  10.682   1.093   6.438  0.0217  0.4736  0.2109
  454MOL0     O62538  10.561   1.016   6.457  0.1835 -0.6541  0.2163
  454MOL0     C62539  10.563   0.880   6.484  0.0968  0.0265  0.1493
  454MOL0     C62540  10.452   0.812   6.535  0.3704  0.3075  0.0149
  454MOL0     C62541  10.461   0.673   6.568 -0.4641  0.6461 -0.8161
  454MOL0     C62542  10.338   0.602   6.605 -0.4027  0.0112 -0.1720
  454MOL0     C62543  10.592   0.611   6.569 -0.4234  0.9629  0.5301
  454MOL0     C62544  10.606   0.477   6.595 -0.3189  0.3383  0.1793
  454MOL0     O62545  10.586   0.396   6.491  0.2628  0.2137  0.5863
  454MOL0     C62546  10.556   0.265   6.497  0.2594 -0.7238  0.0750
  454MOL0     C62547  10.520   0.183   6.609  0.4433  0.2084  0.0421
  454MOL0     C62548  10.493   0.045   6.589  0.5919 -0.5593 -1.2932
  454MOL0     C62549  10.512  -0.006   6.457  1.1423 -0.7104 -0.8733
  454MOL0     O62550  10.496  -0.139   6.448  0.3843  0.4368  0.5147
  454MOL0     C62551  10.511  -0.202   6.322 -0.4157 -0.4164  0.0637
  454MOL0     C62552  10.539  -0.357   6.334  0.1588  0.5025  1.0060
  454MOL0     C62553  10.423  -0.431   6.262  0.4762 -0.9311 -0.3582
  454MOL0     C62554  10.291  -0.446   6.336  0.1564 -0.7066  0.6289
  454MOL0     C62555  10.181  -0.519   6.247  1.7991  1.6282  1.2382
  454MOL0     C62556  10.043  -0.520   6.324 -0.2555 -0.2849 -0.8276
  454MOL0     C62557   9.923  -0.553   6.230  0.2816 -0.8242  0.2304
  454MOL0     C62558   9.890  -0.447   6.122 -0.3279 -0.5023 -1.3761
  454MOL0    Cl62559   9.725  -0.475   6.040  0.2439 -0.2979 -0.3277
  454MOL0     C62560  10.528   0.081   6.348  0.4150 -0.8094 -0.1980
  454MOL0     C62561  10.550   0.215   6.369  0.4280  0.3524  0.4961
  454MOL0     O62562  10.639   0.453   6.711 -0.0739 -0.3437  0.1431
  454MOL0     C62563  10.704   0.671   6.515 -0.5680  0.4442  0.0995
  454MOL0     C62564  10.690   0.810   6.473 -0.3452 -0.0204  0.6367
  454MOL0     N62565  10.772   1.462   6.090  0.2375  0.4678  0.0651
  454MOL0     N62566  10.690   1.465   5.988  0.7193  0.3801  0.0884
  454MOL0     C62567   9.299   1.476   5.691 -1.0007  0.1660  0.4781
  454MOL0     C62568   9.173   1.484   5.746 -1.5864 -0.0801 -0.0146
  454MOL0     C62569   8.760   1.333   5.924 -0.1017 -0.8847 -0.0518
  454MOL0     C62570   8.733   1.416   6.033  0.0264  0.1285  0.2038
  454MOL0     C62571   8.606   1.450   6.069  0.0073  1.3088  0.6689
  454MOL0     C62572   8.497   1.409   5.992 -0.8743  0.7104  0.1839
  454MOL0     O62573   8.372   1.447   6.010  0.7079  0.1590 -0.2296
  454MOL0     C62574   8.316   1.492   6.142  0.3971  0.6671 -0.1273
  454MOL0     C62575   8.297   1.366   6.226 -0.1759 -0.4962  0.4846
  454MOL0     C62576   8.229   1.390   6.366  0.0784  0.0832  0.4875
  454MOL0     C62577   8.077   1.396   6.373  0.4350  0.0873  0.3882
  454MOL0     C62578   8.009   1.264   6.356  0.4060 -0.4581  1.3011
  454MOL0     C62579   7.949   1.160   6.326  0.2694 -0.6407  0.5485
  454MOL0     C62580   8.523   1.328   5.877 -0.5306  0.0681  0.5976
  454MOL0     C62581   8.652   1.286   5.847 -0.2725  0.4920  0.6573
  454MOL0     C62582   8.675   1.205   5.719 -0.7948  0.0024 -0.3707
  454MOL0     H62583   9.149   1.171   5.874 -0.5172 -2.0198 -1.8021
  454MOL0     H62584   9.361   1.156   5.786  1.2080  0.7933 -1.7750
  454MOL0     H62585   9.583   1.199   5.778  1.2476  0.2593  1.4392
  454MOL0     H62586   9.571   1.354   5.866  1.5079 -2.1442  0.8461
  454MOL0     H62587   9.795   1.270   5.658  2.5471 -2.7113  1.5221
  454MOL0     H62588   9.774   1.429   5.731  2.9104 -0.4833 -0.4043
  454MOL0     H62589   9.835   1.350   5.950  3.0599  0.5167  1.3468
  454MOL0     H62590   9.821   1.183   5.886 -1.5758  0.6970  0.7203
  454MOL0     H62591  10.020   1.213   5.748  0.9664  2.9711 -2.4668
  454MOL0     H62592  10.018   1.379   5.755 -1.4488  0.5405  0.9667
  454MOL0     H62593  10.073   1.236   6.012 -0.4979  2.7455  2.8391
  454MOL0     H62594  10.080   1.402   5.971  1.6534 -0.3063 -0.0819
  454MOL0     H62595  10.287   1.188   5.878  0.1038 -0.0174  0.0959
  454MOL0     H62596  10.250   1.336   5.782  2.8666  5.1341  1.7241
  454MOL0     H62597  10.336   1.338   6.084  1.8316 -0.1356 -0.1505
  454MOL0     H62598  10.306   1.488   5.997  1.2566 -0.1822  1.8675
  454MOL0     H62599  10.496   1.266   5.899 -1.3900 -0.0656 -1.7730
  454MOL0     H62600  10.478   1.435   5.839  2.0014 -2.7072 -1.7877
  454MOL0     H62601  10.485   1.362   6.210 -0.1395  0.7178  0.4306
  454MOL0     H62602  10.692   1.504   6.408  2.0401 -3.9214  4.2849
  454MOL0     H62603  10.847   1.516   6.333  0.6299 -1.7751 -1.6585
  454MOL0     H62604  10.837   1.240   6.330  2.4293 -0.1705  1.8783
  454MOL0     H62605  10.849   1.321   6.490 -0.4370 -4.1738  1.5870
  454MOL0     H62606  10.639   1.266   6.563  0.7223 -1.2579  1.1205
  454MOL0     H62607  10.569   1.278   6.401  2.0835 -0.7976 -2.5552
  454MOL0     H62608  10.719   1.064   6.340 -4.1268 -2.2689 -0.8235
  454MOL0     H62609  10.745   1.063   6.522 -1.0559  1.0406  1.2549
  454MOL0     H62610  10.355   0.860   6.551 -1.3203 -3.1148  0.9370
  454MOL0     H62611  10.259   0.634   6.538 -2.0934  0.1370  1.7713
  454MOL0     H62612  10.310   0.627   6.708  0.7598  2.0845 -0.3102
  454MOL0     H62613  10.347   0.493   6.591  1.5249  0.3810 -2.3993
  454MOL0     H62614  10.508   0.222   6.710  0.0768  1.3485 -0.4349
  454MOL0     H62615  10.468  -0.012   6.678 -1.7947  3.5423  0.9798
  454MOL0     H62616  10.426  -0.165   6.263  0.0481  1.5731  0.5710
  454MOL0     H62617  10.597  -0.158   6.271 -0.7446 -0.3937 -0.4798
  454MOL0     H62618  10.625  -0.378   6.270 -0.7122 -2.4649  0.6734
  454MOL0     H62619  10.567  -0.396   6.433  1.8167  0.7781  0.6854
  454MOL0     H62620  10.460  -0.533   6.249  2.6013 -0.6746  2.5569
  454MOL0     H62621  10.411  -0.394   6.160 -0.4470  0.5666  0.2632
  454MOL0     H62622  10.259  -0.343   6.354  0.1323 -0.2483 -1.7735
  454MOL0     H62623  10.306  -0.494   6.434  2.1039 -0.4187  0.5063
  454MOL0     H62624  10.175  -0.469   6.150  1.4591 -0.1264  0.3042
  454MOL0     H62625  10.209  -0.622   6.221 -0.5886  1.2517 -0.1739
  454MOL0     H62626  10.029  -0.425   6.376 -1.4097 -1.2537  0.7359
  454MOL0     H62627  10.047  -0.601   6.398  0.9239  0.7888  0.3164
  454MOL0     H62628   9.837  -0.573   6.295  1.7838 -2.0596  1.9208
  454MOL0     H62629   9.947  -0.649   6.183 -2.1192 -1.4330  0.0804
  454MOL0     H62630   9.970  -0.454   6.048  5.2742  1.5282  3.7103
  454MOL0     H62631   9.886  -0.349   6.169  3.1006 -0.6468 -0.5327
  454MOL0     H62632  10.535   0.032   6.251  0.2670 -3.7218  1.1680
  454MOL0     H62633  10.579   0.272   6.281 -0.8811  0.4817  0.1343
  454MOL0     H62634  10.794   0.610   6.517 -1.2975 -0.6946  2.6856
  454MOL0     H62635  10.770   0.855   6.416  1.2423 -2.3217  0.8796
  454MOL0     H62636   9.337   1.567   5.646 -0.4067 -1.0420 -1.5946
  454MOL0     H62637   9.112   1.573   5.731  0.3898  1.6324  1.5661
  454MOL0     H62638   8.803   1.448   6.110 -0.7768  1.5297  0.3786
  454MOL0     H62639   8.590   1.516   6.153  1.4837  0.6310  1.5070
  454MOL0     H62640   8.369   1.570   6.196 -2.4378  0.7429  2.8295
  454MOL0     H62641   8.224   1.546   6.120 -0.3081 -0.7270 -0.7515
  454MOL0     H62642   8.395   1.320   6.244  0.7031  1.3332  0.6227
  454MOL0     H62643   8.226   1.297   6.180 -2.0574  1.3292  0.4581
  454MOL0     H62644   8.258   1.314   6.438 -1.1809 -0.1803  0.7348
  454MOL0     H62645   8.252   1.490   6.402 -0.5274  0.6756 -0.7109
  454MOL0     H62646   8.037   1.473   6.307 -2.9146 -1.4566  0.4384
  454MOL0     H62647   8.059   1.445   6.469 -1.7081  0.9662 -0.4050
  454MOL0     H62648   7.894   1.086   6.270  0.6278  1.7654 -3.3975
  454MOL0     H62649   8.446   1.308   5.803 -1.4176 -0.4001  1.6183
  454MOL0     H62650   8.578   1.175   5.678 -0.7740  0.3935 -0.7123
  454MOL0     H62651   8.732   1.256   5.641  0.2507 -0.6127 -0.0282
  454MOL0     H62652   8.731   1.114   5.743  0.3322  1.1258  1.6023
  455MOL0     O62653   5.169   0.050   3.555 -0.6094  0.6405 -0.5277
  455MOL0     C62654   5.289   0.016   3.566  0.0369  0.9989  0.2995
  455MOL0     O62655   5.336  -0.107   3.607  0.1270 -1.0061 -0.1732
  455MOL0     C62656   5.255  -0.222   3.586 -0.1539 -0.1975 -0.3881
  455MOL0     C62657   5.124  -0.231   3.625 -1.1093 -0.0620  0.3057
  455MOL0     C62658   5.061  -0.352   3.624  0.9456 -0.5665 -0.2526
  455MOL0     C62659   5.119  -0.466   3.567 -0.1059 -0.5575 -0.0272
  455MOL0     O62660   5.059  -0.588   3.546 -0.6688 -0.3320  0.1618
  455MOL0     C62661   4.930  -0.618   3.603  0.0620 -1.2216  0.9960
  455MOL0     C62662   4.882  -0.754   3.568  0.7806  0.3786 -0.2637
  455MOL0     C62663   4.781  -0.816   3.664  0.0138 -0.2208  0.4420
  455MOL0     C62664   4.733  -0.960   3.621  0.4788 -0.1178 -0.0999
  455MOL0     C62665   4.637  -1.012   3.735 -0.3424  0.8615  0.1219
  455MOL0     C62666   4.557  -1.135   3.699  0.3168  0.3593  0.3949
  455MOL0     C62667   4.479  -1.187   3.819  0.6697  0.6551  0.2712
  455MOL0     C62668   4.346  -1.112   3.859 -0.4009  0.7544 -0.1543
  455MOL0     N62669   4.297  -1.161   3.991  0.0118 -0.1781  0.2273
  455MOL0     C62670   4.370  -1.170   4.106  0.4412  0.2173  0.4927
  455MOL0     C62671   4.283  -1.212   4.200 -0.5176 -0.8615  0.5572
  455MOL0     C62672   4.285  -1.206   4.351  0.3587 -0.7192 -0.3860
  455MOL0     C62673   4.329  -1.066   4.397 -0.8431  0.0369  0.3718
  455MOL0     C62674   4.240  -0.951   4.345 -0.0039  1.3144  0.8866
  455MOL0     C62675   4.196  -0.852   4.449 -1.7103 -0.6173  0.3424
  455MOL0     O62676   4.314  -0.781   4.494  0.2485 -0.9178 -0.1402
  455MOL0     C62677   4.294  -0.703   4.604 -0.3235  0.7555  0.0766
  455MOL0     C62678   4.220  -0.580   4.597 -0.4877  0.7690 -0.9533
  455MOL0     C62679   4.210  -0.495   4.710  0.3736 -0.1122  0.5774
  455MOL0     C62680   4.131  -0.369   4.709  0.1329 -0.9149 -0.6602
  455MOL0     C62681   4.273  -0.536   4.833  0.2549  0.6102 -0.4135
  455MOL0     C62682   4.262  -0.454   4.954  0.7298 -0.3554 -0.1547
  455MOL0     O62683   4.393  -0.411   5.008  1.2991 -0.3543 -0.3008
  455MOL0     C62684   4.380  -0.293   5.089 -0.1498 -0.1513 -0.3857
  455MOL0     C62685   4.463  -0.180   5.051 -0.7419  0.6734 -0.9967
  455MOL0     C62686   4.440  -0.072   5.132  0.1056 -0.2795  0.3954
  455MOL0     C62687   4.349  -0.068   5.244  0.0163 -0.2954  0.0179
  455MOL0     O62688   4.318   0.052   5.305 -0.5819  1.1378  0.2283
  455MOL0     C62689   4.319   0.038   5.450  1.0600  0.9554 -0.0951
  455MOL0     C62690   4.390   0.167   5.507  0.0688  0.3340 -1.1540
  455MOL0     C62691   4.372   0.170   5.654  0.3281 -0.0015 -1.0674
  455MOL0     C62692   4.433   0.303   5.716  0.1404  0.6604  0.6946
  455MOL0     C62693   4.432   0.311   5.864  0.1647 -0.6924 -0.4945
  455MOL0     C62694   4.291   0.366   5.911 -0.0803  0.4421  0.2950
  455MOL0     C62695   4.303   0.402   6.057 -0.5723  0.2929  0.0810
  455MOL0     C62696   4.160   0.424   6.103 -0.7210 -0.8009 -0.0390
  455MOL0    Cl62697   4.173   0.510   6.262  0.3338 -0.2119  0.6141
  455MOL0     C62698   4.268  -0.179   5.265  0.3034  0.2538  0.6859
  455MOL0     C62699   4.293  -0.299   5.196 -0.3283  0.0812  0.2423
  455MOL0     O62700   4.149  -0.425   4.989  0.2191 -0.8360  0.8636
  455MOL0     C62701   4.336  -0.658   4.836 -0.0373 -0.5349 -0.5548
  455MOL0     C62702   4.348  -0.745   4.725 -0.2654  0.1100 -0.0324
  455MOL0     N62703   4.171  -1.256   4.134 -0.1129  0.6468 -0.3479
  455MOL0     N62704   4.180  -1.220   4.014 -0.6905  0.1800  0.4031
  455MOL0     C62705   5.248  -0.447   3.528  0.0553  1.2972 -0.0331
  455MOL0     C62706   5.321  -0.328   3.538 -0.6004 -1.0152 -0.7684
  455MOL0     C62707   5.371   0.140   3.546  0.7899 -0.2347 -0.4371
  455MOL0     C62708   5.300   0.261   3.513  0.9083  0.3712  0.0476
  455MOL0     C62709   5.367   0.377   3.487 -0.1464 -0.3474 -0.5498
  455MOL0     C62710   5.511   0.385   3.513  0.7491  0.7185  0.4050
  455MOL0     O62711   5.581   0.501   3.488  0.7804  0.1763 -0.3800
  455MOL0     C62712   5.509   0.620   3.463  0.9823 -0.5507 -0.3675
  455MOL0     C62713   5.616   0.726   3.459  0.6933  0.6494  0.2321
  455MOL0     C62714   5.581   0.820   3.350  0.0589  0.3651  0.4661
  455MOL0     C62715   5.650   0.948   3.369  0.0049  0.4894 -0.7540
  455MOL0     C62716   5.792   0.933   3.344  0.2760 -0.8740 -0.4400
  455MOL0     C62717   5.902   0.902   3.315  0.3643 -0.7534 -0.4921
  455MOL0     C62718   5.572   0.259   3.534  0.0885 -0.3544  0.3485
  455MOL0     C62719   5.509   0.142   3.565 -0.4611 -0.5565 -1.7303
  455MOL0     C62720   5.592   0.024   3.613  0.1863 -0.4371  0.4785
  455MOL0     H62721   5.058  -0.160   3.674 -4.1028 -4.0543  2.6124
  455MOL0     H62722   4.956  -0.364   3.650  0.2794  1.7034 -1.5743
  455MOL0     H62723   4.859  -0.541   3.575  4.6597  2.8597 -0.9942
  455MOL0     H62724   4.940  -0.622   3.712 -2.3044 -0.9095  1.2627
  455MOL0     H62725   4.829  -0.749   3.473 -0.3455  2.4331  0.4302
  455MOL0     H62726   4.967  -0.823   3.567  0.2795 -0.2502 -0.3527
  455MOL0     H62727   4.839  -0.812   3.756 -2.4677  2.6466  2.0782
  455MOL0     H62728   4.693  -0.751   3.665 -0.2693 -0.5931  2.4019
  455MOL0     H62729   4.679  -0.962   3.526 -2.8753  3.4287  1.4842
  455MOL0     H62730   4.821  -1.025   3.608  1.6990  1.4774 -0.1349
  455MOL0     H62731   4.570  -0.933   3.770  0.9727  1.5191  1.2555
  455MOL0     H62732   4.702  -1.034   3.820  2.0322  4.2762 -0.6023
  455MOL0     H62733   4.481  -1.116   3.623  0.4645 -2.1068 -0.4592
  455MOL0     H62734   4.620  -1.217   3.664 -0.5699 -0.1053 -0.1363
  455MOL0     H62735   4.539  -1.182   3.910 -2.5692 -0.8529  2.7160
  455MOL0     H62736   4.448  -1.289   3.793 -0.9401  0.9789  0.7894
  455MOL0     H62737   4.364  -1.004   3.870 -0.5394  0.6574  1.1651
  455MOL0     H62738   4.272  -1.129   3.780  1.1068 -2.3811 -1.0485
  455MOL0     H62739   4.466  -1.121   4.118 -0.2190  1.8328 -0.5177
  455MOL0     H62740   4.341  -1.294   4.383  1.4093  0.0512 -0.0245
  455MOL0     H62741   4.181  -1.217   4.382  0.6042 -2.8006 -0.1980
  455MOL0     H62742   4.330  -1.079   4.506 -1.5960 -2.5084  0.1394
  455MOL0     H62743   4.430  -1.050   4.359 -0.9364 -1.0690 -0.3667
  455MOL0     H62744   4.289  -0.898   4.263  0.2761  1.5627  1.2067
  455MOL0     H62745   4.146  -0.986   4.302  1.1316 -0.2206 -0.4530
  455MOL0     H62746   4.122  -0.784   4.407 -2.6223 -0.2578  2.4294
  455MOL0     H62747   4.156  -0.897   4.540 -3.4905  2.4273  1.2118
  455MOL0     H62748   4.171  -0.558   4.502 -0.1995 -0.9818 -1.5337
  455MOL0     H62749   4.134  -0.319   4.612 -0.4713 -1.1811 -0.8173
  455MOL0     H62750   4.149  -0.293   4.786 -0.6146 -0.0030 -1.3600
  455MOL0     H62751   4.024  -0.389   4.719 -0.0543  0.2306 -0.0698
  455MOL0     H62752   4.524  -0.167   4.962  0.4052  4.8946  0.1399
  455MOL0     H62753   4.506   0.008   5.098 -2.5460  0.7315 -2.8997
  455MOL0     H62754   4.215   0.021   5.481  1.9327 -0.1021  2.4710
  455MOL0     H62755   4.376  -0.047   5.488 -0.9093 -0.8901 -0.9994
  455MOL0     H62756   4.496   0.151   5.485  0.1222 -0.5350 -0.3285
  455MOL0     H62757   4.351   0.259   5.461 -2.4586  0.8483  1.7209
  455MOL0     H62758   4.410   0.082   5.706 -1.7386 -1.7033 -2.3052
  455MOL0     H62759   4.265   0.157   5.673  0.4527 -1.8520 -1.4519
  455MOL0     H62760   4.388   0.391   5.669 -1.1716  1.0856  2.6214
  455MOL0     H62761   4.539   0.307   5.690  0.9989 -2.1483  3.2254
  455MOL0     H62762   4.458   0.212   5.901 -1.3607 -1.5909 -1.7150
  455MOL0     H62763   4.505   0.384   5.901  1.3388 -0.7662 -2.5033
  455MOL0     H62764   4.218   0.288   5.890 -1.1194  1.2770  0.7167
  455MOL0     H62765   4.292   0.454   5.846 -0.3712  0.2988  0.0991
  455MOL0     H62766   4.369   0.486   6.079  2.0376 -1.1219 -1.8194
  455MOL0     H62767   4.355   0.321   6.110  1.9209  2.4351  1.0929
  455MOL0     H62768   4.110   0.328   6.109 -0.0613 -1.0785  1.7613
  455MOL0     H62769   4.105   0.490   6.036  0.5997 -0.4785 -0.8580
  455MOL0     H62770   4.179  -0.175   5.327 -0.8570 -0.5268 -0.8522
  455MOL0     H62771   4.250  -0.394   5.226  1.7978 -1.8571 -2.3329
  455MOL0     H62772   4.395  -0.679   4.924  0.5263 -0.3935 -0.8951
  455MOL0     H62773   4.389  -0.845   4.724  1.2966  0.6414 -3.2835
  455MOL0     H62774   5.297  -0.540   3.500  1.0568  2.4374 -2.2674
  455MOL0     H62775   5.423  -0.308   3.506 -0.8470  0.4733 -0.6954
  455MOL0     H62776   5.192   0.261   3.503  0.5208  1.4694  3.0569
  455MOL0     H62777   5.305   0.465   3.469 -1.6819 -1.1534  0.4972
  455MOL0     H62778   5.470   0.609   3.361 -3.5769 -0.2368  1.0895
  455MOL0     H62779   5.427   0.645   3.531 -0.3795 -3.1228 -0.9117
  455MOL0     H62780   5.715   0.686   3.439  1.7220  2.9164  0.4342
  455MOL0     H62781   5.626   0.769   3.559 -1.4808  1.5949  0.0963
  455MOL0     H62782   5.614   0.768   3.260 -1.4051 -0.8298  0.5772
  455MOL0     H62783   5.472   0.825   3.355 -0.3273 -4.0556  0.3679
  455MOL0     H62784   5.629   0.989   3.469 -1.4608  0.4310 -1.0198
  455MOL0     H62785   5.614   1.017   3.292  0.1395 -1.9764 -3.1545
  455MOL0     H62786   6.007   0.882   3.303  1.7468  4.1719  0.9935
  455MOL0     H62787   5.680   0.261   3.547  0.2350  0.8497 -0.8457
  455MOL0     H62788   5.690   0.044   3.657  0.2892 -2.7229  1.4319
  455MOL0     H62789   5.542  -0.027   3.696 -2.1522  0.4528 -0.3005
  455MOL0     H62790   5.605  -0.048   3.531 -3.6260  1.1302 -1.7572
  456MOL0     O62791  10.012   2.238   7.487 -0.1164  0.2471 -0.4148
  456MOL0     C62792  10.038   2.227   7.603  0.3426  0.2357 -0.8648
  456MOL0     O62793   9.989   2.312   7.701  0.5592 -0.3287 -0.4147
  456MOL0     C62794   9.870   2.373   7.669 -0.0527 -0.5448 -1.2738
  456MOL0     C62795   9.747   2.316   7.710 -0.4055  0.7838  0.0757
  456MOL0     C62796   9.627   2.381   7.689  0.0138  0.8573  0.6377
  456MOL0     C62797   9.622   2.495   7.616  0.0129 -0.0890 -0.3074
  456MOL0     O62798   9.504   2.557   7.594  0.0839  0.0006  0.0657
  456MOL0     C62799   9.498   2.702   7.560 -0.0325  0.2692 -0.0613
  456MOL0     C62800   9.501   2.713   7.411  0.4656 -0.9505  0.6263
  456MOL0     C62801   9.463   2.852   7.359 -0.6973  0.6149 -0.5559
  456MOL0     C62802   9.468   2.854   7.202  0.3231  0.0550  0.1868
  456MOL0     C62803   9.402   2.977   7.135  0.7347 -0.6383 -0.3808
  456MOL0     C62804   9.472   3.114   7.164  0.2687  0.3339 -0.5557
  456MOL0     C62805   9.445   3.224   7.062  0.8272  0.0595 -0.0890
  456MOL0     C62806   9.313   3.284   7.091 -0.2068  0.5228 -0.1389
  456MOL0     N62807   9.207   3.248   6.991  0.4347  0.0228 -1.4191
  456MOL0     C62808   9.212   3.262   6.854  0.0656  0.0278 -0.3495
  456MOL0     C62809   9.112   3.183   6.806 -0.2395  0.5349 -1.1706
  456MOL0     C62810   9.076   3.184   6.665  0.3176 -0.5938 -0.5226
  456MOL0     C62811   8.995   3.314   6.629 -0.6136 -0.1791  0.6441
  456MOL0     C62812   8.910   3.293   6.502 -0.3709  0.6479  0.4936
  456MOL0     C62813   8.824   3.405   6.456 -0.6225  1.1635  0.6720
  456MOL0     O62814   8.907   3.518   6.453 -0.0646  0.5668 -0.6622
  456MOL0     C62815   8.988   3.543   6.353  0.3851 -0.3433 -0.1940
  456MOL0     C62816   8.988   3.486   6.221 -0.1397 -0.3424  0.8928
  456MOL0     C62817   9.070   3.533   6.126 -0.1854 -0.1313 -0.3483
  456MOL0     C62818   9.068   3.458   5.999  0.5692 -0.0821 -0.0273
  456MOL0     C62819   9.153   3.650   6.143 -0.2200  0.3970  0.6993
  456MOL0     C62820   9.241   3.705   6.036  0.9512  0.7084  0.3629
  456MOL0     O62821   9.341   3.766   6.085 -0.7498  0.3215  0.0122
  456MOL0     C62822   9.392   3.885   6.039  0.0598  0.3708 -0.3359
  456MOL0     C62823   9.337   3.979   5.944 -0.2533  0.2369 -0.2716
  456MOL0     C62824   9.414   4.082   5.900  0.4812 -0.0037 -0.2355
  456MOL0     C62825   9.548   4.102   5.935  0.5237  0.5773 -0.7318
  456MOL0     O62826   9.612   4.202   5.868  0.4686  0.4238 -0.5218
  456MOL0     C62827   9.748   4.230   5.911 -0.4775 -0.7738  0.0323
  456MOL0     C62828   9.784   4.367   5.860 -0.4304 -0.4826 -0.5143
  456MOL0     C62829   9.931   4.378   5.886 -0.3009 -0.7409  0.2634
  456MOL0     C62830   9.975   4.517   5.845  0.0074 -0.1077  0.3150
  456MOL0     C62831  10.102   4.568   5.913  0.2268 -0.2645  0.1698
  456MOL0     C62832  10.122   4.716   5.925  0.2264  0.4323 -0.2095
  456MOL0     C62833  10.117   4.785   5.787  0.5647  0.7621  0.5009
  456MOL0     C62834  10.146   4.933   5.779 -0.1865  0.6922 -0.1204
  456MOL0    Cl62835  10.297   4.959   5.864  0.3605 -0.1012  0.0331
  456MOL0     C62836   9.599   4.010   6.025 -0.5910 -0.7358 -0.8432
  456MOL0     C62837   9.522   3.912   6.071  0.4922  0.2893  0.1421
  456MOL0     O62838   9.209   3.696   5.925  0.1346  0.5066  0.5945
  456MOL0     C62839   9.154   3.705   6.276 -0.0255 -0.4046 -0.2090
  456MOL0     C62840   9.071   3.657   6.372  0.2919 -0.0695  0.3327
  456MOL0     N62841   9.037   3.134   6.911  0.2314 -0.2147  0.1398
  456MOL0     N62842   9.106   3.163   7.027  0.4855 -0.4943  0.7714
  456MOL0     C62843   9.745   2.546   7.559 -0.4450 -0.4437 -0.3602
  456MOL0     C62844   9.872   2.495   7.588 -0.1351  0.5513 -0.8273
  456MOL0     C62845  10.155   2.133   7.636 -0.8340  0.6579  0.5044
  456MOL0     C62846  10.277   2.154   7.561  0.4352 -0.3953 -0.4377
  456MOL0     C62847  10.394   2.086   7.584 -0.4584 -0.2476 -0.5344
  456MOL0     C62848  10.390   1.970   7.667 -0.9557  1.4688  0.7344
  456MOL0     O62849  10.503   1.895   7.672  0.5456  0.1429  0.2615
  456MOL0     C62850  10.518   1.791   7.775  0.2761  0.4961  0.5196
  456MOL0     C62851  10.663   1.732   7.765 -0.1182 -0.6354 -0.7570
  456MOL0     C62852  10.748   1.851   7.818 -0.0528  0.6837 -0.3730
  456MOL0     C62853  10.892   1.833   7.772  0.6567  0.4984 -0.2209
  456MOL0     C62854  10.968   1.945   7.816 -0.7474  0.3559 -0.6267
  456MOL0     C62855  11.055   2.015   7.856  0.6464 -0.4579 -0.0374
  456MOL0     C62856  10.270   1.941   7.737 -0.1589  0.1980 -0.1862
  456MOL0     C62857  10.158   2.023   7.721  0.1584  0.4310  0.8876
  456MOL0     C62858  10.033   1.990   7.802  0.1400  0.6142  0.1378
  456MOL0     H62859   9.752   2.221   7.763 -3.6756  0.0378 -0.6870
  456MOL0     H62860   9.534   2.333   7.720  0.3532 -1.9899 -2.3081
  456MOL0     H62861   9.584   2.746   7.611  0.3596 -0.7706  0.1958
  456MOL0     H62862   9.411   2.749   7.606  1.2024 -0.7193  3.6344
  456MOL0     H62863   9.592   2.672   7.366 -0.1736  0.3668 -2.0692
  456MOL0     H62864   9.421   2.649   7.376  1.4251 -1.3647 -0.8784
  456MOL0     H62865   9.364   2.883   7.393  0.2752  0.5892  2.6035
  456MOL0     H62866   9.536   2.923   7.400 -0.9376 -0.7166  2.4840
  456MOL0     H62867   9.570   2.866   7.166  0.1409 -1.0364 -0.7512
  456MOL0     H62868   9.426   2.762   7.161  0.6041  1.0204 -2.4721
  456MOL0     H62869   9.295   2.993   7.150  1.1542  3.3039 -0.5822
  456MOL0     H62870   9.418   2.957   7.029 -1.3162  0.8652 -1.0295
  456MOL0     H62871   9.458   3.145   7.268 -0.5685  1.0547 -0.8737
  456MOL0     H62872   9.578   3.085   7.171  0.0749 -0.5344 -1.0832
  456MOL0     H62873   9.451   3.185   6.960  1.6164  1.5327 -0.6412
  456MOL0     H62874   9.517   3.303   7.083  1.2208 -0.8825  2.3718
  456MOL0     H62875   9.285   3.253   7.192 -0.6146 -4.3320 -1.4642
  456MOL0     H62876   9.321   3.393   7.091  0.3068  0.4864 -0.2233
  456MOL0     H62877   9.277   3.320   6.790  1.2990 -2.3204 -1.3549
  456MOL0     H62878   9.015   3.095   6.648 -0.0513  0.1154 -3.4263
  456MOL0     H62879   9.167   3.182   6.605 -1.1425 -2.2056 -2.8752
  456MOL0     H62880   8.934   3.338   6.716 -0.7640 -1.5910  0.9526
  456MOL0     H62881   9.072   3.388   6.605 -0.2522 -0.1347  1.8731
  456MOL0     H62882   8.966   3.262   6.414  1.0299  2.0172  0.8430
  456MOL0     H62883   8.840   3.218   6.540  3.4092 -3.1682  0.6936
  456MOL0     H62884   8.796   3.379   6.354  2.6168  1.7056 -0.4645
  456MOL0     H62885   8.740   3.416   6.526  0.6561  1.4484  2.2272
  456MOL0     H62886   8.936   3.394   6.195 -0.6003 -0.5438  2.4208
  456MOL0     H62887   9.168   3.414   6.005  0.6197  0.2242  2.4830
  456MOL0     H62888   9.049   3.520   5.911  2.4379 -0.1460 -0.5027
  456MOL0     H62889   8.992   3.379   5.990  1.0009 -0.2185 -4.3740
  456MOL0     H62890   9.239   3.972   5.896  0.2620  1.1730 -1.5105
  456MOL0     H62891   9.381   4.148   5.820  3.2053 -0.1302 -1.5859
  456MOL0     H62892   9.757   4.235   6.020  2.5928 -0.2721 -0.1469
  456MOL0     H62893   9.820   4.150   5.890  1.7884  1.0702  0.3379
  456MOL0     H62894   9.772   4.371   5.751  1.9139 -2.6832 -0.9568
  456MOL0     H62895   9.723   4.445   5.905  2.2160  0.6883  1.2760
  456MOL0     H62896   9.988   4.306   5.827  2.2486  1.2706  0.1262
  456MOL0     H62897   9.946   4.354   5.992  2.0147  1.3457  0.4857
  456MOL0     H62898   9.900   4.587   5.882 -0.6345  0.5760 -2.1293
  456MOL0     H62899   9.977   4.545   5.740 -3.9697  0.0455  0.1186
  456MOL0     H62900  10.097   4.530   6.016  0.3226  2.1076  1.1221
  456MOL0     H62901  10.191   4.520   5.871  1.2857  1.4039  0.4398
  456MOL0     H62902  10.218   4.746   5.968  0.1137  0.2826  0.1516
  456MOL0     H62903  10.031   4.757   5.969  1.5543  1.6949  1.5041
  456MOL0     H62904  10.018   4.767   5.743  0.1037  1.8818  1.0547
  456MOL0     H62905  10.191   4.733   5.725 -0.4704  0.6151 -0.6598
  456MOL0     H62906  10.071   4.992   5.832 -0.8991  1.1762 -1.6147
  456MOL0     H62907  10.156   4.963   5.675 -0.3849 -1.0669 -0.6862
  456MOL0     H62908   9.704   3.996   6.048 -0.8804 -1.4609  0.1175
  456MOL0     H62909   9.571   3.841   6.137  2.1833 -1.4085 -2.7235
  456MOL0     H62910   9.213   3.795   6.291  1.8760 -1.3354 -1.7064
  456MOL0     H62911   9.075   3.703   6.470 -2.0339 -0.7727  0.8247
  456MOL0     H62912   9.745   2.643   7.512 -1.5247  0.2944  1.0904
  456MOL0     H62913   9.961   2.539   7.544 -0.2102  0.9978 -0.5436
  456MOL0     H62914  10.273   2.241   7.496 -0.4318  0.3638  0.5946
  456MOL0     H62915  10.490   2.118   7.543  0.6990  0.4541  2.5028
  456MOL0     H62916  10.507   1.820   7.880 -1.7437 -0.0047  0.4787
  456MOL0     H62917  10.447   1.712   7.751  2.0097 -0.7632 -0.7441
  456MOL0     H62918  10.695   1.713   7.662 -0.8183 -3.5582 -0.5196
  456MOL0     H62919  10.680   1.643   7.825 -1.0119  1.4112  2.8217
  456MOL0     H62920  10.715   1.945   7.774 -1.7009  0.7753  0.9655
  456MOL0     H62921  10.723   1.859   7.924 -1.0444 -0.5290 -0.4970
  456MOL0     H62922  10.907   1.813   7.666  1.0492 -0.5811  0.0186
  456MOL0     H62923  10.927   1.737   7.811  0.8567  0.5682 -0.2288
  456MOL0     H62924  11.146   2.070   7.874  1.2956 -0.8838 -1.8097
  456MOL0     H62925  10.273   1.858   7.807  0.8413 -2.8267 -3.4730
  456MOL0     H62926  10.046   1.895   7.855 -2.6899  1.9603  3.6501
  456MOL0     H62927  10.017   2.067   7.878  0.5518  0.0932  0.7669
  456MOL0     H62928   9.942   1.977   7.743  1.6937 -0.3536 -2.2077
  457MOL0     O62929   3.539   7.134   6.256  0.7040  0.4933  0.2253
  457MOL0     C62930   3.513   7.123   6.381 -1.0954  0.7772  0.4278
  457MOL0     O62931   3.476   7.230   6.466 -0.4706  0.9216 -0.1532
  457MOL0     C62932   3.476   7.353   6.410 -0.6394 -0.5418  0.1114
  457MOL0     C62933   3.352   7.408   6.404 -0.1050 -0.0112  0.8891
  457MOL0     C62934   3.345   7.539   6.369  0.5759 -0.0629 -0.2170
  457MOL0     C62935   3.453   7.604   6.297  0.0244  1.1688 -0.3665
  457MOL0     O62936   3.432   7.726   6.235 -0.6112  0.6053 -0.9417
  457MOL0     C62937   3.413   7.827   6.331 -0.0097 -0.2167  0.3225
  457MOL0     C62938   3.550   7.889   6.370  0.2487 -0.8598 -0.0634
  457MOL0     C62939   3.634   7.937   6.260  0.1333 -0.1078  0.2377
  457MOL0     C62940   3.765   8.003   6.307  0.2952  0.1228 -0.2056
  457MOL0     C62941   3.857   8.029   6.192  0.2633  0.1404  0.5672
  457MOL0     C62942   4.002   8.070   6.242  0.4608  0.4212 -1.1760
  457MOL0     C62943   4.086   8.115   6.130 -0.5009 -0.1217 -0.0981
  457MOL0     C62944   4.126   8.018   6.012  0.8510 -1.0311  0.1094
  457MOL0     N62945   4.180   7.902   6.082 -0.7112 -0.3149  0.0906
  457MOL0     C62946   4.173   7.773   6.037  1.1615  1.4128 -0.3545
  457MOL0     C62947   4.244   7.704   6.128 -0.1882 -0.0749  0.1270
  457MOL0     C62948   4.274   7.549   6.127 -0.5614  1.1390  0.0454
  457MOL0     C62949   4.240   7.471   6.253  0.1873 -0.7660  0.0799
  457MOL0     C62950   4.092   7.468   6.286 -0.7483  0.5873  0.5274
  457MOL0     C62951   4.063   7.349   6.376  0.1830 -1.2184  0.1516
  457MOL0     O62952   3.930   7.340   6.428 -0.9456 -0.4871  0.7570
  457MOL0     C62953   3.915   7.254   6.531 -1.0378 -0.0782  0.6160
  457MOL0     C62954   3.960   7.124   6.516  0.1228 -0.1128  0.2685
  457MOL0     C62955   3.947   7.031   6.622 -0.4379 -0.5467  0.2726
  457MOL0     C62956   3.982   6.888   6.595 -0.3099 -0.2877  0.9499
  457MOL0     C62957   3.891   7.081   6.748 -0.5081 -0.7553  0.4330
  457MOL0     C62958   3.899   6.986   6.868  0.3208 -0.7043  0.7198
  457MOL0     O62959   3.815   7.031   6.956  0.5268  0.8319 -0.2717
  457MOL0     C62960   3.808   6.944   7.067  0.7737  0.1021 -0.0371
  457MOL0     C62961   3.677   6.900   7.103  0.2290  0.0923  0.4412
  457MOL0     C62962   3.659   6.811   7.211  0.9631 -0.0088 -0.0913
  457MOL0     C62963   3.780   6.767   7.278  0.1289  1.4663  0.0247
  457MOL0     O62964   3.791   6.679   7.388 -0.2730  0.0139 -0.4365
  457MOL0     C62965   3.667   6.641   7.448 -0.2418  0.3558  0.4752
  457MOL0     C62966   3.687   6.553   7.570  0.0150  0.2062  0.6069
  457MOL0     C62967   3.789   6.602   7.678  0.2310  0.2065 -0.1369
  457MOL0     C62968   3.789   6.517   7.804 -0.1328  0.8635 -0.6256
  457MOL0     C62969   3.859   6.594   7.926 -0.5986  0.4173  0.2304
  457MOL0     C62970   3.833   6.510   8.045  0.1019 -0.6784 -0.8214
  457MOL0     C62971   3.891   6.544   8.178 -0.0183  0.5648  0.6811
  457MOL0     C62972   3.826   6.461   8.286  0.3590 -0.2632 -0.5354
  457MOL0    Cl62973   3.873   6.512   8.450  0.0967  0.3985 -0.1630
  457MOL0     C62974   3.901   6.819   7.250 -0.6988 -0.1101 -0.0703
  457MOL0     C62975   3.921   6.913   7.145 -0.3653  0.4643 -1.0556
  457MOL0     O62976   3.973   6.885   6.874 -0.6883 -0.2932 -0.3927
  457MOL0     C62977   3.819   7.203   6.742  0.2880 -0.3855  0.0621
  457MOL0     C62978   3.839   7.294   6.638  0.9042 -0.2020  0.6817
  457MOL0     N62979   4.296   7.789   6.226 -0.3899 -0.2270  0.2094
  457MOL0     N62980   4.270   7.909   6.185 -0.6057 -0.2894  0.1353
  457MOL0     C62981   3.575   7.538   6.289  0.7209  0.1555 -0.1121
  457MOL0     C62982   3.596   7.416   6.360 -0.2919  1.1298 -0.2077
  457MOL0     C62983   3.563   6.992   6.450  0.0950  0.2313 -0.1326
  457MOL0     C62984   3.535   6.977   6.587 -0.1606 -0.0350  0.1837
  457MOL0     C62985   3.570   6.859   6.655  0.9145  0.0928 -0.8387
  457MOL0     C62986   3.625   6.755   6.585 -0.4078 -0.0238  0.1084
  457MOL0     O62987   3.641   6.630   6.628  0.2800 -0.0474  0.4667
  457MOL0     C62988   3.587   6.585   6.753  0.9836 -0.1853 -0.7719
  457MOL0     C62989   3.439   6.566   6.749  0.4020  0.3155  0.1054
  457MOL0     C62990   3.378   6.543   6.886  0.4407 -0.4843  0.5154
  457MOL0     C62991   3.379   6.648   6.995  0.0724 -0.2138  0.1444
  457MOL0     C62992   3.334   6.783   6.961  0.3907 -0.0776  0.3358
  457MOL0     C62993   3.298   6.891   6.917 -0.1847 -0.1551 -0.1758
  457MOL0     C62994   3.668   6.772   6.463 -0.3044  0.7714  0.4555
  457MOL0     C62995   3.641   6.888   6.391  0.2571 -0.1714 -0.1873
  457MOL0     C62996   3.705   6.896   6.249  0.7075 -0.0664  0.9485
  457MOL0     H62997   3.268   7.352   6.444 -0.4965 -2.4439 -2.8293
  457MOL0     H62998   3.250   7.590   6.374  0.9545  0.7953 -1.3153
  457MOL0     H62999   3.351   7.792   6.414  0.3333  0.9530  1.1010
  457MOL0     H63000   3.358   7.903   6.276  2.7195  0.6180 -1.4300
  457MOL0     H63001   3.523   7.970   6.438 -1.5967 -2.7503  1.5711
  457MOL0     H63002   3.612   7.812   6.418 -1.1438 -1.7863  0.2868
  457MOL0     H63003   3.645   7.858   6.185 -0.0771 -0.3314  0.4375
  457MOL0     H63004   3.573   8.017   6.217 -0.0304  0.8537  2.1496
  457MOL0     H63005   3.741   8.100   6.351 -2.9278 -0.4017 -0.5780
  457MOL0     H63006   3.822   7.948   6.382 -1.6876  0.1640  1.4229
  457MOL0     H63007   3.819   8.116   6.136  1.3349  0.0633 -0.3267
  457MOL0     H63008   3.852   7.942   6.126  1.2003  0.1087  0.5340
  457MOL0     H63009   3.985   8.155   6.308 -1.9672 -0.6583 -0.2434
  457MOL0     H63010   4.052   7.990   6.298  1.1384  2.7621  1.8265
  457MOL0     H63011   4.180   8.155   6.168  0.9168 -2.0753 -1.3077
  457MOL0     H63012   4.019   8.181   6.075 -0.7698 -2.4543 -2.8105
  457MOL0     H63013   4.040   7.995   5.948  0.8307  2.7145 -1.4898
  457MOL0     H63014   4.198   8.063   5.943  1.5353 -2.7864 -0.3590
  457MOL0     H63015   4.143   7.735   5.940 -2.2047  2.4121  0.1708
  457MOL0     H63016   4.381   7.536   6.108 -0.9214  0.5290 -1.7965
  457MOL0     H63017   4.224   7.500   6.043 -1.1116  0.6964  0.6279
  457MOL0     H63018   4.271   7.366   6.240  1.4416 -0.4605  0.4195
  457MOL0     H63019   4.302   7.506   6.336  0.4182 -1.7481  0.3434
  457MOL0     H63020   4.064   7.568   6.323  2.8237  3.2769 -3.1358
  457MOL0     H63021   4.037   7.439   6.196  0.0227 -2.1464  0.8471
  457MOL0     H63022   4.067   7.266   6.306 -2.9617 -0.3839 -1.1955
  457MOL0     H63023   4.136   7.356   6.457  0.7098  1.0647 -0.4407
  457MOL0     H63024   4.007   7.093   6.423  0.6252  0.0722  0.4579
  457MOL0     H63025   3.928   6.808   6.647  0.5774 -2.7969 -1.7600
  457MOL0     H63026   4.089   6.884   6.619 -0.0355  1.3638  0.1542
  457MOL0     H63027   3.955   6.879   6.490 -2.0239 -2.6980  1.4996
  457MOL0     H63028   3.586   6.940   7.060  0.4888  1.8505  1.4375
  457MOL0     H63029   3.556   6.778   7.221  0.8088 -0.5732 -2.7580
  457MOL0     H63030   3.600   6.724   7.473  0.0108  1.1189 -1.1927
  457MOL0     H63031   3.605   6.587   7.376 -0.1472  1.8170 -0.7408
  457MOL0     H63032   3.595   6.532   7.625 -0.8771  0.9078 -0.5786
  457MOL0     H63033   3.727   6.458   7.532  1.1122  1.8758 -2.8382
  457MOL0     H63034   3.771   6.708   7.699  2.2379  0.3395  1.1771
  457MOL0     H63035   3.889   6.601   7.634 -0.4419 -2.1794 -1.8281
  457MOL0     H63036   3.826   6.416   7.784 -1.6592  0.3795 -1.1349
  457MOL0     H63037   3.683   6.515   7.829  0.0837  4.3320  1.1944
  457MOL0     H63038   3.967   6.594   7.911 -0.3179 -1.3855  1.8297
  457MOL0     H63039   3.812   6.692   7.930 -1.3451  0.2368 -2.3667
  457MOL0     H63040   3.839   6.403   8.025 -3.3451 -0.8765 -1.4488
  457MOL0     H63041   3.725   6.523   8.057  0.4579  0.2250  2.0580
  457MOL0     H63042   3.881   6.649   8.208 -1.9879  0.4080  0.7401
  457MOL0     H63043   3.998   6.526   8.186  0.0022 -0.1238 -0.8192
  457MOL0     H63044   3.861   6.358   8.275  1.5841  0.1120 -0.3088
  457MOL0     H63045   3.716   6.465   8.284  0.3417  2.8582  1.3469
  457MOL0     H63046   3.986   6.786   7.307 -1.0050 -1.1314 -0.1891
  457MOL0     H63047   4.023   6.950   7.134  0.1323 -0.4915  0.1336
  457MOL0     H63048   3.752   7.220   6.826 -1.3763 -3.0868 -0.5943
  457MOL0     H63049   3.786   7.389   6.637  3.4060  1.2877  0.5465
  457MOL0     H63050   3.661   7.580   6.238  0.0489 -0.4589 -1.8393
  457MOL0     H63051   3.693   7.368   6.357 -0.9973 -0.3154 -2.4966
  457MOL0     H63052   3.490   7.056   6.647 -0.1703 -0.8099  1.2325
  457MOL0     H63053   3.545   6.849   6.760 -3.4624 -2.0567 -1.8569
  457MOL0     H63054   3.629   6.485   6.770 -1.3080 -1.2669 -0.9894
  457MOL0     H63055   3.614   6.647   6.838 -0.7032  2.2248 -1.8801
  457MOL0     H63056   3.409   6.482   6.686 -0.0394 -1.1159  2.0898
  457MOL0     H63057   3.382   6.653   6.715 -2.9102 -1.1469  1.4635
  457MOL0     H63058   3.274   6.509   6.880 -1.2549  3.6269  2.2546
  457MOL0     H63059   3.436   6.458   6.921 -0.4515 -0.3139  2.5251
  457MOL0     H63060   3.481   6.634   7.033  0.1236 -2.7496 -0.7411
  457MOL0     H63061   3.321   6.615   7.082  3.9558  1.8828  3.9091
  457MOL0     H63062   3.249   6.966   6.859 -0.9453  0.1510  0.8276
  457MOL0     H63063   3.733   6.695   6.420 -1.2165  0.2467 -0.0067
  457MOL0     H63064   3.627   6.903   6.173  1.4054  0.6237  0.2659
  457MOL0     H63065   3.771   6.982   6.233  0.7707 -0.3054 -0.1673
  457MOL0     H63066   3.752   6.800   6.226  0.2101 -0.3357  1.0528
  458MOL0     O63067   5.031   3.989   3.091  0.3609  0.1802 -0.3773
  458MOL0     C63068   4.959   3.885   3.112 -1.0583  0.4038 -0.5407
  458MOL0     O63069   5.009   3.756   3.101  0.4876 -0.1397 -0.5744
  458MOL0     C63070   5.137   3.750   3.139 -0.4795 -0.0391 -0.9366
  458MOL0     C63071   5.173   3.748   3.274 -0.4397 -0.6908  0.0272
  458MOL0     C63072   5.305   3.729   3.317  0.7228  0.8367  0.3621
  458MOL0     C63073   5.403   3.703   3.234  0.3846 -0.3395  0.2626
  458MOL0     O63074   5.525   3.657   3.280 -0.0072  0.9181 -0.5110
  458MOL0     C63075   5.624   3.753   3.301  0.6408  0.1943 -0.3238
  458MOL0     C63076   5.751   3.686   3.277  0.2892  0.0058  0.5156
  458MOL0     C63077   5.881   3.767   3.336  0.4565 -1.8328 -0.7372
  458MOL0     C63078   6.008   3.686   3.321  0.5832  0.6275  0.5049
  458MOL0     C63079   6.138   3.760   3.363  0.4860  0.1618  0.3406
  458MOL0     C63080   6.263   3.676   3.362 -0.5676  0.2812  0.2960
  458MOL0     C63081   6.268   3.569   3.469  0.9064  0.7937  0.3344
  458MOL0     C63082   6.405   3.524   3.490 -0.4899  0.2646  0.1558
  458MOL0     N63083   6.396   3.429   3.607 -0.1299  0.1918  0.1739
  458MOL0     C63084   6.390   3.460   3.731  0.9366  0.0631 -0.4036
  458MOL0     C63085   6.386   3.343   3.793  0.5895 -0.4801 -0.1801
  458MOL0     C63086   6.349   3.306   3.938  0.6726 -0.4143 -0.7123
  458MOL0     C63087   6.329   3.435   4.027 -0.1085  0.5830  1.5932
  458MOL0     C63088   6.277   3.400   4.164 -0.6826 -0.7259 -0.3774
  458MOL0     C63089   6.285   3.526   4.248 -0.5266  0.0625 -0.5782
  458MOL0     O63090   6.419   3.555   4.290  1.0003 -0.3653  0.3790
  458MOL0     C63091   6.451   3.665   4.356  0.0592 -0.3351 -0.0499
  458MOL0     C63092   6.587   3.701   4.344 -0.1663 -0.4462  0.3696
  458MOL0     C63093   6.654   3.812   4.407 -0.6672 -0.1210  0.1837
  458MOL0     C63094   6.810   3.811   4.389 -0.1179  0.5611 -0.6185
  458MOL0     C63095   6.576   3.899   4.475 -0.5317  0.2473 -0.8596
  458MOL0     C63096   6.632   3.998   4.571 -0.8331  0.1270 -0.6761
  458MOL0     O63097   6.748   3.975   4.641  0.0593 -1.0180 -0.1157
  458MOL0     C63098   6.809   4.070   4.722 -0.4053  0.5959 -1.0382
  458MOL0     C63099   6.950   4.079   4.726  0.2424  0.0045  1.0362
  458MOL0     C63100   7.002   4.182   4.805 -0.0596 -1.0238  0.2891
  458MOL0     C63101   6.931   4.264   4.882  0.0531  0.3941  0.2602
  458MOL0     O63102   6.995   4.362   4.964 -0.5246 -0.1675 -0.7155
  458MOL0     C63103   7.109   4.436   4.915  0.4402  0.5393 -0.6846
  458MOL0     C63104   7.220   4.447   5.013  0.1678 -0.1231  0.5153
  458MOL0     C63105   7.262   4.315   5.090  0.1561  0.6228  0.5681
  458MOL0     C63106   7.396   4.327   5.156 -0.0499  0.5408  0.3672
  458MOL0     C63107   7.395   4.397   5.299  0.0237 -0.0558 -0.3993
  458MOL0     C63108   7.435   4.301   5.412  0.5289  0.3104  0.2461
  458MOL0     C63109   7.366   4.355   5.546  0.6027  0.2751 -0.7812
  458MOL0     C63110   7.211   4.340   5.556  0.4013  0.0582 -0.5012
  458MOL0    Cl63111   7.179   4.171   5.590 -0.0866  0.1670 -0.2835
  458MOL0     C63112   6.798   4.242   4.887 -0.0799  1.2986 -0.4701
  458MOL0     C63113   6.735   4.150   4.805 -0.2549  0.0360 -0.2848
  458MOL0     O63114   6.578   4.105   4.558  0.4427 -0.0471  0.4830
  458MOL0     C63115   6.438   3.886   4.470  1.2093  0.2600  0.4616
  458MOL0     C63116   6.369   3.775   4.408 -0.7372  0.0513 -0.6957
  458MOL0     N63117   6.373   3.239   3.707 -0.7992 -0.5903  0.1040
  458MOL0     N63118   6.389   3.296   3.590  0.3035  0.3277 -0.7580
  458MOL0     C63119   5.369   3.712   3.102  0.0465  0.6692  0.6416
  458MOL0     C63120   5.242   3.725   3.050 -0.2155  1.2184 -1.6498
  458MOL0     C63121   4.811   3.900   3.134 -0.8058  0.3912  0.2820
  458MOL0     C63122   4.738   3.776   3.108  0.9322 -0.2844  0.1953
  458MOL0     C63123   4.604   3.772   3.102 -0.0766 -0.1837  0.0959
  458MOL0     C63124   4.528   3.887   3.122  0.4468  0.0499 -0.4138
  458MOL0     O63125   4.399   3.877   3.100 -0.5168  0.8421  0.4648
  458MOL0     C63126   4.311   3.981   3.122 -0.2310  0.9220 -0.9706
  458MOL0     C63127   4.169   3.914   3.100 -1.1245  0.4321 -0.7695
  458MOL0     C63128   4.064   4.029   3.136  0.0266  0.5445  0.1353
  458MOL0     C63129   3.940   3.967   3.205 -0.3294  0.3667  0.4468
  458MOL0     C63130   3.843   4.080   3.248 -0.0831  0.1364  0.0689
  458MOL0     C63131   3.759   4.159   3.281 -0.1191 -1.6141 -0.0710
  458MOL0     C63132   4.594   4.009   3.143 -0.0618 -0.9248 -0.6953
  458MOL0     C63133   4.737   4.020   3.157  1.1818 -0.6335  0.3612
  458MOL0     C63134   4.809   4.155   3.177  0.4936  0.0678  0.8671
  458MOL0     H63135   5.104   3.789   3.348  0.6897  1.5370 -0.0774
  458MOL0     H63136   5.327   3.718   3.423 -1.5127 -1.4224  0.6643
  458MOL0     H63137   5.624   3.782   3.407 -0.2540 -0.7043 -0.0675
  458MOL0     H63138   5.606   3.841   3.238 -0.2917 -0.3697 -0.8574
  458MOL0     H63139   5.740   3.595   3.335  1.3975 -0.2429  0.3624
  458MOL0     H63140   5.755   3.671   3.169  0.7875 -1.0138  0.6635
  458MOL0     H63141   5.894   3.856   3.274 -0.6651  0.6702  2.3373
  458MOL0     H63142   5.868   3.818   3.432  3.3202 -1.9579 -0.2149
  458MOL0     H63143   6.001   3.595   3.382  2.0808  0.6320  0.7264
  458MOL0     H63144   6.020   3.655   3.217 -1.8832  0.2483  0.2692
  458MOL0     H63145   6.108   3.788   3.465 -1.9050 -3.6183  0.9039
  458MOL0     H63146   6.137   3.835   3.284 -1.7285  0.5683  0.6913
  458MOL0     H63147   6.271   3.633   3.262 -0.1735  3.3091 -1.0692
  458MOL0     H63148   6.355   3.733   3.376  0.8724 -1.6218 -0.8488
  458MOL0     H63149   6.198   3.487   3.456 -1.2770  1.5233  5.2078
  458MOL0     H63150   6.234   3.613   3.564 -1.4806  3.2381 -1.4859
  458MOL0     H63151   6.437   3.460   3.407 -0.3015 -0.0375  0.4596
  458MOL0     H63152   6.469   3.612   3.500 -1.6651  1.4368 -1.9874
  458MOL0     H63153   6.386   3.561   3.773 -3.0062 -1.0009  2.4032
  458MOL0     H63154   6.417   3.234   3.984  0.7754 -0.7674 -1.4012
  458MOL0     H63155   6.248   3.264   3.939 -0.0730  1.2817  0.8954
  458MOL0     H63156   6.429   3.476   4.041  1.0516 -1.5964  0.2855
  458MOL0     H63157   6.260   3.505   3.981  1.6838  1.7110  0.4891
  458MOL0     H63158   6.182   3.346   4.165 -1.0395 -0.1525  2.3949
  458MOL0     H63159   6.347   3.321   4.193 -1.1728  0.0039  3.2326
  458MOL0     H63160   6.246   3.612   4.193 -0.2391  0.6726  0.1590
  458MOL0     H63161   6.220   3.502   4.333 -1.3177  3.6450 -0.0497
  458MOL0     H63162   6.650   3.637   4.283 -2.4057 -0.7424 -1.7592
  458MOL0     H63163   6.842   3.721   4.443 -1.6883 -1.8094 -3.3456
  458MOL0     H63164   6.845   3.906   4.431 -3.2801  1.7573 -0.4094
  458MOL0     H63165   6.836   3.811   4.283  2.2401  0.0933 -0.1113
  458MOL0     H63166   7.003   4.008   4.663 -0.6582 -1.8251  2.2357
  458MOL0     H63167   7.110   4.183   4.794 -0.3371 -0.7037 -5.5094
  458MOL0     H63168   7.145   4.388   4.824 -1.3443 -0.9229 -0.6827
  458MOL0     H63169   7.073   4.536   4.890  1.1312  0.7641 -0.7783
  458MOL0     H63170   7.306   4.480   4.954 -1.2896 -1.0324 -2.2648
  458MOL0     H63171   7.201   4.523   5.090  2.4600  3.1237 -1.8576
  458MOL0     H63172   7.275   4.229   5.025 -1.4246 -0.2711  1.3904
  458MOL0     H63173   7.182   4.293   5.161  0.5392 -0.5083  0.6708
  458MOL0     H63174   7.473   4.371   5.091  0.0850 -0.6912 -0.3330
  458MOL0     H63175   7.429   4.224   5.173  0.8151  0.6365 -0.6295
  458MOL0     H63176   7.470   4.477   5.303  0.1619 -0.1699  3.5096
  458MOL0     H63177   7.293   4.435   5.311 -1.4638 -4.0468  1.3252
  458MOL0     H63178   7.543   4.299   5.430  0.4527  4.2892  2.2213
  458MOL0     H63179   7.391   4.202   5.400 -0.9536  1.0195 -0.4933
  458MOL0     H63180   7.390   4.462   5.540 -0.9574  0.6769 -0.2874
  458MOL0     H63181   7.418   4.316   5.635  0.5228 -0.6173 -1.1148
  458MOL0     H63182   7.166   4.374   5.462 -2.2173  0.6365  0.8732
  458MOL0     H63183   7.160   4.409   5.624 -3.1427 -1.0376 -1.8227
  458MOL0     H63184   6.741   4.319   4.940 -1.5080  1.1897 -1.7791
  458MOL0     H63185   6.627   4.138   4.808 -0.2705 -0.5383 -1.9747
  458MOL0     H63186   6.374   3.959   4.518  3.0088  2.0982  0.1705
  458MOL0     H63187   6.263   3.748   4.414  0.4127 -5.3687  1.0051
  458MOL0     H63188   5.439   3.681   3.025 -1.9858 -3.3185  0.1231
  458MOL0     H63189   5.229   3.722   2.942 -2.4893 -2.3388 -1.4506
  458MOL0     H63190   4.787   3.680   3.088 -0.9937 -1.6762  1.7995
  458MOL0     H63191   4.557   3.678   3.076 -0.1363 -0.3024  0.6358
  458MOL0     H63192   4.332   4.018   3.223 -0.2531  2.1540 -1.4052
  458MOL0     H63193   4.319   4.054   3.041  0.7246  1.1414 -0.6906
  458MOL0     H63194   4.163   3.828   3.167  0.5262 -1.6376 -3.1259
  458MOL0     H63195   4.163   3.897   2.992  1.6862  0.4507 -0.9808
  458MOL0     H63196   4.120   4.083   3.214  1.7223  0.1479 -0.7539
  458MOL0     H63197   4.035   4.099   3.058 -2.2359  2.5503  2.5803
  458MOL0     H63198   3.969   3.912   3.295 -1.5037 -4.3309 -1.7613
  458MOL0     H63199   3.893   3.905   3.129  1.2145  0.0923 -0.3089
  458MOL0     H63200   3.683   4.232   3.303 -1.0045 -2.8201  1.0306
  458MOL0     H63201   4.544   4.105   3.146 -0.8094 -1.3290  1.6851
  458MOL0     H63202   4.881   4.147   3.258  1.2154  1.2032  0.3623
  458MOL0     H63203   4.865   4.178   3.085 -0.0867  0.8271  0.6908
  458MOL0     H63204   4.748   4.244   3.195  0.8778  0.0465  2.3233
  459MOL0     O63205   6.950   5.552  10.222 -0.0872 -0.9173  0.2704
  459MOL0     C63206   7.005   5.447  10.228  0.5954 -0.1530 -0.8848
  459MOL0     O63207   6.932   5.330  10.261 -0.0495 -0.0428  0.5483
  459MOL0     C63208   6.792   5.334  10.273  0.1838  0.0704 -0.4041
  459MOL0     C63209   6.724   5.348  10.150  0.4077 -0.6757 -0.4263
  459MOL0     C63210   6.581   5.356  10.167  0.3480 -0.8863 -1.1965
  459MOL0     C63211   6.508   5.348  10.288  0.9043  0.4526  0.5158
  459MOL0     O63212   6.377   5.350  10.303  0.6533 -0.4808 -0.4904
  459MOL0     C63213   6.291   5.348  10.190 -0.6031 -0.2828  0.8516
  459MOL0     C63214   6.146   5.294  10.223  0.5819  0.5767 -0.0837
  459MOL0     C63215   6.047   5.322  10.117 -1.1762 -0.6384  0.5361
  459MOL0     C63216   5.920   5.241  10.133  0.4376 -0.9842 -0.0511
  459MOL0     C63217   5.827   5.295  10.025 -0.4980  0.8716 -0.1298
  459MOL0     C63218   5.688   5.223  10.032  0.3454  0.2862  0.3036
  459MOL0     C63219   5.623   5.230   9.892  0.3930 -0.2104  0.0443
  459MOL0     C63220   5.491   5.158   9.871 -0.2631 -0.4746 -0.1102
  459MOL0     N63221   5.407   5.199   9.988  1.1043  0.4140  0.2562
  459MOL0     C63222   5.383   5.330  10.021 -0.2619  0.6344 -0.3003
  459MOL0     C63223   5.329   5.326  10.145 -0.0318  0.0480 -0.2019
  459MOL0     C63224   5.315   5.445  10.237  0.5488 -0.5600  0.1846
  459MOL0     C63225   5.331   5.413  10.380  0.3625 -0.8243 -0.1486
  459MOL0     C63226   5.282   5.510  10.481 -0.6693 -0.3128 -0.5298
  459MOL0     C63227   5.335   5.651  10.455  0.1622  0.0036 -0.4802
  459MOL0     O63228   5.468   5.640  10.502 -0.4099 -0.2017  1.1426
  459MOL0     C63229   5.518   5.744  10.576 -0.3602 -0.7654 -0.4879
  459MOL0     C63230   5.490   5.878  10.559  0.3928  0.5177 -0.4054
  459MOL0     C63231   5.556   5.977  10.642  0.2122  0.1447 -0.5967
  459MOL0     C63232   5.513   6.121  10.625 -0.6315 -1.0091  0.0941
  459MOL0     C63233   5.657   5.929  10.735 -0.4345 -0.7036 -0.2584
  459MOL0     C63234   5.736   6.033  10.816 -0.1862 -0.3010 -0.1378
  459MOL0     O63235   5.707   6.165  10.824 -0.7698 -0.0863  0.3847
  459MOL0     C63236   5.767   6.240  10.922 -0.1195 -1.2957  0.1374
  459MOL0     C63237   5.862   6.329  10.885 -0.0402  0.5014  0.1729
  459MOL0     C63238   5.913   6.421  10.977 -0.3779  0.0892  0.7585
  459MOL0     C63239   5.876   6.424  11.104 -0.4094  0.6379 -1.0643
  459MOL0     O63240   5.904   6.540  11.181  0.0907  0.2504  0.7089
  459MOL0     C63241   5.895   6.531  11.324  0.5835  0.0394 -0.6370
  459MOL0     C63242   5.986   6.624  11.391  1.5030  0.1923 -0.7269
  459MOL0     C63243   6.120   6.651  11.315 -0.2927 -0.5571 -0.5749
  459MOL0     C63244   6.179   6.764  11.402 -0.1974  0.0087  0.6107
  459MOL0     C63245   6.338   6.758  11.411 -0.7392  0.2427  0.1316
  459MOL0     C63246   6.390   6.630  11.478 -0.1687  0.5976 -0.6166
  459MOL0     C63247   6.531   6.650  11.528 -0.0761 -0.7369 -0.0675
  459MOL0     C63248   6.660   6.636  11.441  1.1320 -0.6884  0.6916
  459MOL0    Cl63249   6.640   6.746  11.308  0.1227  0.8330  0.5172
  459MOL0     C63250   5.788   6.335  11.147  0.7893 -0.1470  0.3705
  459MOL0     C63251   5.739   6.231  11.065 -0.2023 -1.5051 -0.0616
  459MOL0     O63252   5.821   5.980  10.884 -0.1742 -0.1884  0.3332
  459MOL0     C63253   5.691   5.795  10.733  0.8837  0.1364  0.2210
  459MOL0     C63254   5.621   5.699  10.659 -0.3112 -0.1934 -0.1176
  459MOL0     N63255   5.317   5.190  10.187 -0.4273  0.3283 -0.2425
  459MOL0     N63256   5.360   5.117  10.091  0.5308  0.9456  0.6378
  459MOL0     C63257   6.585   5.326  10.405  0.1654  0.3959 -0.1190
  459MOL0     C63258   6.727   5.314  10.396 -0.0428 -0.0980 -0.3901
  459MOL0     C63259   7.155   5.437  10.206 -0.6297 -0.4624  0.6181
  459MOL0     C63260   7.208   5.312  10.227 -0.9779 -0.2070 -0.2201
  459MOL0     C63261   7.341   5.289  10.212 -0.5077  0.7299 -0.3541
  459MOL0     C63262   7.425   5.389  10.159 -0.0361  0.0611 -0.6330
  459MOL0     O63263   7.551   5.355  10.152 -0.0203 -0.3457 -0.0824
  459MOL0     C63264   7.637   5.382  10.044  1.1112  0.9670 -0.3518
  459MOL0     C63265   7.576   5.341   9.906 -0.3626  0.4148 -0.3953
  459MOL0     C63266   7.554   5.188   9.886 -0.3882  0.3819  0.2783
  459MOL0     C63267   7.670   5.091   9.859 -0.8591  0.2107 -0.3748
  459MOL0     C63268   7.733   5.119   9.734  0.6571 -0.4052  0.3325
  459MOL0     C63269   7.782   5.179   9.644  0.3768  0.9696 -0.1020
  459MOL0     C63270   7.370   5.512  10.130 -0.6113 -0.9111 -0.2348
  459MOL0     C63271   7.235   5.540  10.139 -0.4379  0.4538 -0.5739
  459MOL0     C63272   7.192   5.687  10.112  0.3336  0.2588  0.4938
  459MOL0     H63273   6.770   5.361  10.053 -2.3931  2.3167 -1.5313
  459MOL0     H63274   6.534   5.344  10.070 -1.9903 -5.0001  0.2013
  459MOL0     H63275   6.331   5.301  10.100 -0.4604 -1.3271  1.4469
  459MOL0     H63276   6.275   5.454  10.169 -1.0589 -1.0810 -4.0019
  459MOL0     H63277   6.143   5.190  10.257 -2.3618  0.0822 -1.6271
  459MOL0     H63278   6.097   5.357  10.298  0.2793  0.6701 -0.3618
  459MOL0     H63279   6.036   5.430  10.108  2.7830 -0.2600 -2.6350
  459MOL0     H63280   6.096   5.296  10.023 -3.9150 -0.0826 -1.1574
  459MOL0     H63281   5.928   5.133  10.117  0.5733 -0.6241 -2.9109
  459MOL0     H63282   5.881   5.261  10.233 -1.4317 -2.7446 -0.3619
  459MOL0     H63283   5.871   5.277   9.927  0.3411 -0.6602  0.5087
  459MOL0     H63284   5.816   5.403  10.039  1.9742  1.3977 -1.7558
  459MOL0     H63285   5.693   5.122  10.073 -1.7457 -1.0552 -2.3818
  459MOL0     H63286   5.624   5.280  10.100 -2.0793 -0.3181 -1.3588
  459MOL0     H63287   5.695   5.175   9.832  1.9547  1.8214 -0.0710
  459MOL0     H63288   5.628   5.334   9.859 -0.7301  0.5019  1.9139
  459MOL0     H63289   5.439   5.188   9.780  1.4698 -1.1128 -1.3538
  459MOL0     H63290   5.499   5.049   9.876  3.3381 -0.2603  2.5458
  459MOL0     H63291   5.399   5.423   9.967  1.4191 -1.7281 -4.3266
  459MOL0     H63292   5.218   5.493  10.221  0.8311 -0.7085 -2.4576
  459MOL0     H63293   5.392   5.512  10.197  0.6816 -0.3219  0.8402
  459MOL0     H63294   5.273   5.323  10.402  0.6686 -1.5592 -2.1348
  459MOL0     H63295   5.436   5.386  10.391  0.7689  0.3152 -1.0578
  459MOL0     H63296   5.174   5.522  10.485 -0.7817  0.5505 -3.5302
  459MOL0     H63297   5.324   5.479  10.577  0.6337  1.9796 -0.2867
  459MOL0     H63298   5.336   5.678  10.349  1.6842  2.0528 -0.0154
  459MOL0     H63299   5.273   5.722  10.510  0.3259 -1.7081  2.0936
  459MOL0     H63300   5.409   5.891  10.487  0.9569  0.5270 -1.0455
  459MOL0     H63301   5.599   6.181  10.592 -0.0389 -1.4870  0.7220
  459MOL0     H63302   5.475   6.170  10.714  1.0498  3.9021 -1.5789
  459MOL0     H63303   5.433   6.117  10.551 -0.1068 -1.0456 -0.4830
  459MOL0     H63304   5.896   6.312  10.783 -0.1282  0.8461  0.0821
  459MOL0     H63305   5.976   6.499  10.935 -1.3802  2.7973  3.8088
  459MOL0     H63306   5.790   6.556  11.345  0.2362 -1.2628 -0.7620
  459MOL0     H63307   5.926   6.433  11.360 -2.5805 -0.8790 -0.1031
  459MOL0     H63308   5.929   6.714  11.412  1.4599 -0.0297  0.1833
  459MOL0     H63309   6.017   6.565  11.478  2.3310 -0.2515 -1.3056
  459MOL0     H63310   6.100   6.683  11.212  0.9341  1.1198 -0.3412
  459MOL0     H63311   6.181   6.561  11.306 -0.1201 -0.4237 -0.7510
  459MOL0     H63312   6.133   6.775  11.501 -1.9888 -0.1237 -0.1714
  459MOL0     H63313   6.168   6.860  11.351  0.9437  0.3458  0.9729
  459MOL0     H63314   6.376   6.762  11.308 -1.9356  0.3605 -0.3222
  459MOL0     H63315   6.372   6.844  11.468 -0.1914  0.9457 -1.2100
  459MOL0     H63316   6.372   6.551  11.405 -0.8861  0.8658 -0.7418
  459MOL0     H63317   6.322   6.603  11.559  2.2395 -3.4859  0.2980
  459MOL0     H63318   6.542   6.579  11.611 -0.7498  1.2012  1.7927
  459MOL0     H63319   6.517   6.747  11.577 -0.6779 -0.8989  0.0909
  459MOL0     H63320   6.684   6.538  11.399  0.7566 -1.9087  3.1602
  459MOL0     H63321   6.749   6.670  11.494  0.8661  2.3891 -0.6367
  459MOL0     H63322   5.741   6.334  11.245 -2.0898 -1.0138 -0.9092
  459MOL0     H63323   5.660   6.159  11.079 -1.7504 -0.4254 -2.5972
  459MOL0     H63324   5.766   5.760  10.803 -1.2365 -1.5447  1.7791
  459MOL0     H63325   5.629   5.591  10.671  0.3707 -0.3012 -1.3536
  459MOL0     H63326   6.519   5.309  10.490  0.0543 -0.2077 -0.3236
  459MOL0     H63327   6.786   5.298  10.486  0.6807 -2.2019 -1.1666
  459MOL0     H63328   7.153   5.230  10.271 -0.9300  0.2960  0.8174
  459MOL0     H63329   7.388   5.192  10.213  0.4090  1.1588 -0.5654
  459MOL0     H63330   7.652   5.490  10.033  0.0450  0.9571 -2.1501
  459MOL0     H63331   7.729   5.325  10.061  0.5037 -1.3244 -3.8629
  459MOL0     H63332   7.651   5.367   9.831  3.1841 -0.6639  2.4670
  459MOL0     H63333   7.481   5.394   9.895 -0.7125 -0.3581 -1.1887
  459MOL0     H63334   7.489   5.162   9.970 -2.5665 -0.2469 -1.4785
  459MOL0     H63335   7.484   5.173   9.803  0.5226 -3.2290  0.0031
  459MOL0     H63336   7.614   4.996   9.855 -2.4427  1.0051 -5.8426
  459MOL0     H63337   7.737   5.094   9.945 -1.6500 -0.7667  0.3075
  459MOL0     H63338   7.816   5.235   9.559 -0.0605  5.2054  2.2277
  459MOL0     H63339   7.435   5.592  10.097 -4.4500  2.0565 -1.3665
  459MOL0     H63340   7.278   5.738  10.066  1.2326 -1.6181 -0.0172
  459MOL0     H63341   7.121   5.686  10.029  2.0623 -0.1729 -1.0465
  459MOL0     H63342   7.148   5.727  10.204  1.7261  2.2555  0.3595
  460MOL0     O63343   8.462   5.976  10.068  0.4128  0.8158 -0.1576
  460MOL0     C63344   8.389   6.046  10.133 -0.0128  0.2318 -0.1206
  460MOL0     O63345   8.423   6.177  10.165  0.3668 -0.5746 -0.0000
  460MOL0     C63346   8.538   6.241  10.149 -0.7003 -0.3872  0.9751
  460MOL0     C63347   8.663   6.178  10.149 -0.6116  0.2400  0.1978
  460MOL0     C63348   8.779   6.252  10.114 -0.6311 -0.6704  1.2560
  460MOL0     C63349   8.771   6.382  10.059  0.1201  1.1690  0.4496
  460MOL0     O63350   8.872   6.452  10.000 -0.0648 -0.1428 -0.2874
  460MOL0     C63351   9.006   6.415  10.050 -0.4421 -0.8124 -0.7992
  460MOL0     C63352   9.078   6.549  10.077  0.0229 -0.0737 -0.0650
  460MOL0     C63353   9.131   6.587   9.940  0.6603 -0.2230  0.2588
  460MOL0     C63354   9.263   6.525   9.888  0.6224  0.0110  0.4690
  460MOL0     C63355   9.358   6.634   9.863  0.8290  0.0445  0.9812
  460MOL0     C63356   9.324   6.707   9.733  0.8081 -0.1962 -0.2418
  460MOL0     C63357   9.361   6.628   9.610  0.1092  0.3889  1.1913
  460MOL0     C63358   9.323   6.722   9.477  0.1575 -0.1006 -0.5822
  460MOL0     N63359   9.297   6.652   9.351 -0.0066  0.5181  0.1541
  460MOL0     C63360   9.294   6.518   9.322  0.9397  0.4320  0.7978
  460MOL0     C63361   9.275   6.508   9.189  0.8584 -0.1533  0.5413
  460MOL0     C63362   9.267   6.391   9.100  0.0458  1.0510 -0.2803
  460MOL0     C63363   9.122   6.363   9.066  0.3950 -0.8526 -0.9169
  460MOL0     C63364   9.119   6.253   8.956 -0.4213  0.1416  0.0817
  460MOL0     C63365   8.978   6.228   8.908  0.4291  0.1672  0.2950
  460MOL0     O63366   8.906   6.357   8.882 -0.1258  0.7954 -0.6116
  460MOL0     C63367   8.791   6.337   8.825  0.8655  0.1619  0.2492
  460MOL0     C63368   8.704   6.226   8.833  0.2486 -0.5060  0.0591
  460MOL0     C63369   8.592   6.220   8.752 -0.8643  0.0764 -0.5184
  460MOL0     C63370   8.508   6.093   8.766  0.3632  0.0594 -0.1431
  460MOL0     C63371   8.562   6.327   8.670 -0.2334 -0.8607 -0.4485
  460MOL0     C63372   8.456   6.333   8.569 -0.0411  0.4541 -0.4110
  460MOL0     O63373   8.379   6.441   8.572  0.3514  0.3201  0.2012
  460MOL0     C63374   8.271   6.449   8.486 -0.2994 -0.2100  0.0103
  460MOL0     C63375   8.143   6.456   8.536 -0.8861  0.2675  0.6920
  460MOL0     C63376   8.032   6.456   8.458  0.1841  0.8281  0.8837
  460MOL0     C63377   8.055   6.449   8.316 -0.2819 -0.4807  0.5982
  460MOL0     O63378   7.951   6.447   8.220  0.4726 -0.5198  0.2903
  460MOL0     C63379   7.867   6.327   8.249 -0.4562  0.9907 -0.3861
  460MOL0     C63380   7.725   6.360   8.224  0.0657  0.1396 -0.3683
  460MOL0     C63381   7.707   6.369   8.068 -0.7882  0.5809  0.2439
  460MOL0     C63382   7.562   6.396   8.039  0.3655  0.0701 -0.5902
  460MOL0     C63383   7.546   6.428   7.890 -0.0015  0.6606  0.6335
  460MOL0     C63384   7.397   6.436   7.850  0.7280 -0.6232 -0.8024
  460MOL0     C63385   7.398   6.494   7.706  0.7347 -0.6542  0.0585
  460MOL0     C63386   7.268   6.574   7.673  0.0922  0.5326 -0.8191
  460MOL0    Cl63387   7.124   6.465   7.653 -0.7781  0.5061 -0.5234
  460MOL0     C63388   8.187   6.470   8.264  0.5459 -0.3496 -0.2504
  460MOL0     C63389   8.292   6.476   8.346  0.2129 -0.1386  0.7256
  460MOL0     O63390   8.440   6.240   8.494  0.3399  0.7455  0.3669
  460MOL0     C63391   8.648   6.430   8.663  0.8690  0.6040  0.6506
  460MOL0     C63392   8.759   6.442   8.740  0.8378  0.1089  0.1049
  460MOL0     N63393   9.272   6.636   9.133  0.4602 -0.0490 -0.0241
  460MOL0     N63394   9.281   6.721   9.235 -1.0934  0.1452 -0.0834
  460MOL0     C63395   8.642   6.447  10.058  0.1815 -0.4076  0.3263
  460MOL0     C63396   8.528   6.380  10.109  0.1558  0.7928 -0.3487
  460MOL0     C63397   8.267   5.985  10.183 -1.7521 -0.7541  0.0086
  460MOL0     C63398   8.278   5.848  10.219 -0.0245 -0.1903 -0.1816
  460MOL0     C63399   8.161   5.779  10.256 -0.2601  1.1175  0.5705
  460MOL0     C63400   8.035   5.837  10.255 -0.1063  0.0363  0.0940
  460MOL0     O63401   7.937   5.755  10.296  0.4598  0.1810 -0.2325
  460MOL0     C63402   7.794   5.797  10.279 -0.3438  0.3539 -0.4008
  460MOL0     C63403   7.724   5.765  10.153 -0.2471  0.0781 -0.3082
  460MOL0     C63404   7.742   5.868  10.045  0.1954  0.5484 -0.4819
  460MOL0     C63405   7.675   5.835   9.922  0.1951  0.1015  0.5723
  460MOL0     C63406   7.701   5.932   9.809  0.1798 -1.0326 -0.3905
  460MOL0     C63407   7.727   6.000   9.706  0.5660 -0.3550 -0.7041
  460MOL0     C63408   8.027   5.968  10.228  0.8378  0.5751 -0.2229
  460MOL0     C63409   8.147   6.050  10.210  0.4104 -0.2728  0.0430
  460MOL0     C63410   8.134   6.203  10.175 -0.2556  0.9759  0.3877
  460MOL0     H63411   8.679   6.072  10.164  0.5492  0.4280  0.4621
  460MOL0     H63412   8.868   6.194  10.091 -0.5158  1.0656 -4.1141
  460MOL0     H63413   9.067   6.359   9.978  0.5721 -0.0350 -0.5813
  460MOL0     H63414   9.014   6.363  10.146  2.2548  2.1807  0.8255
  460MOL0     H63415   9.004   6.623  10.109 -0.3263 -0.6350  0.4293
  460MOL0     H63416   9.151   6.530  10.157 -0.5432  0.3387  0.5595
  460MOL0     H63417   9.039   6.572   9.882 -1.4686  2.0251  2.7422
  460MOL0     H63418   9.137   6.697   9.940 -1.2005 -0.0853  0.2492
  460MOL0     H63419   9.301   6.463   9.970  3.7209  1.0078 -0.0810
  460MOL0     H63420   9.231   6.459   9.806 -2.1813  2.1200 -0.3064
  460MOL0     H63421   9.457   6.590   9.857  1.1100  0.5214  1.9766
  460MOL0     H63422   9.368   6.701   9.949  0.7615 -1.9738  2.6410
  460MOL0     H63423   9.216   6.723   9.733  0.7517 -0.5748 -0.6805
  460MOL0     H63424   9.373   6.805   9.734  1.1212 -0.2073  4.1752
  460MOL0     H63425   9.309   6.532   9.604 -0.4231  0.7621 -2.1104
  460MOL0     H63426   9.469   6.613   9.601 -0.1639 -0.8516 -0.3654
  460MOL0     H63427   9.237   6.782   9.510  0.5916  2.4578 -3.6181
  460MOL0     H63428   9.412   6.784   9.463 -1.8960  2.8134 -1.8000
  460MOL0     H63429   9.309   6.435   9.391  1.5758 -0.7325 -0.6701
  460MOL0     H63430   9.319   6.299   9.128 -0.0391  0.7660 -1.0181
  460MOL0     H63431   9.318   6.406   9.004  0.7923 -2.9902 -0.6787
  460MOL0     H63432   9.065   6.333   9.155  2.3086 -0.7957  0.3957
  460MOL0     H63433   9.097   6.456   9.015  1.9304  1.1217  1.6828
  460MOL0     H63434   9.183   6.280   8.871 -1.6779 -1.7111 -1.5678
  460MOL0     H63435   9.166   6.158   8.983 -2.1773 -1.9847 -3.5129
  460MOL0     H63436   8.997   6.173   8.815  5.4750  0.3054  0.9681
  460MOL0     H63437   8.918   6.168   8.976 -2.7139  2.2526 -0.4398
  460MOL0     H63438   8.729   6.141   8.894  0.2259  0.0417  0.8465
  460MOL0     H63439   8.570   6.012   8.807  0.7044 -0.6928 -2.0270
  460MOL0     H63440   8.465   6.052   8.675 -1.5185  2.9220 -0.6728
  460MOL0     H63441   8.419   6.100   8.829 -0.8742 -2.0315 -1.5458
  460MOL0     H63442   8.133   6.471   8.643  3.3575  0.0161  1.2849
  460MOL0     H63443   7.935   6.464   8.505  0.6951 -0.6962  2.3228
  460MOL0     H63444   7.898   6.252   8.175 -2.0877  2.3192 -2.5207
  460MOL0     H63445   7.878   6.301   8.355 -0.3538  1.8443 -0.1804
  460MOL0     H63446   7.669   6.276   8.268  1.8003 -0.4245  0.8739
  460MOL0     H63447   7.706   6.458   8.267  2.5820  0.6997 -0.4019
  460MOL0     H63448   7.738   6.286   8.003 -0.7495  2.5396 -2.4089
  460MOL0     H63449   7.765   6.455   8.035 -1.2817  0.4238 -1.0843
  460MOL0     H63450   7.528   6.481   8.099  0.6338 -0.2746  0.0637
  460MOL0     H63451   7.503   6.311   8.075  0.4271  0.2454 -0.0637
  460MOL0     H63452   7.600   6.521   7.869 -1.4784  1.2276 -0.7995
  460MOL0     H63453   7.605   6.364   7.823 -1.3694  0.6098 -0.5624
  460MOL0     H63454   7.349   6.509   7.915  0.8990 -0.0436 -1.3265
  460MOL0     H63455   7.338   6.344   7.861 -2.6458  1.5529  0.8259
  460MOL0     H63456   7.412   6.413   7.634 -5.3033 -2.1005 -0.0415
  460MOL0     H63457   7.478   6.566   7.688 -0.7893  0.8997 -0.8095
  460MOL0     H63458   7.279   6.612   7.571  0.6880 -0.9756 -1.3486
  460MOL0     H63459   7.251   6.654   7.745  0.3376  2.4325 -2.7709
  460MOL0     H63460   8.207   6.477   8.157  2.8539  2.2488  0.2397
  460MOL0     H63461   8.388   6.479   8.296 -0.8886  2.3728 -1.4252
  460MOL0     H63462   8.628   6.520   8.606 -0.1525 -0.6309 -1.0237
  460MOL0     H63463   8.827   6.527   8.742  3.4573 -1.8809  0.3943
  460MOL0     H63464   8.634   6.545  10.012  3.1121 -0.5657 -0.6826
  460MOL0     H63465   8.438   6.441  10.101  0.6299  1.7400  1.0159
  460MOL0     H63466   8.369   5.789  10.213 -0.5242 -0.9209 -0.6143
  460MOL0     H63467   8.153   5.674  10.281 -0.0398  0.8900 -0.3217
  460MOL0     H63468   7.736   5.739  10.351 -1.1791 -1.2843 -2.2866
  460MOL0     H63469   7.783   5.906  10.287 -0.2686  0.5110 -2.0671
  460MOL0     H63470   7.617   5.758  10.174 -1.1209 -0.2351 -4.2230
  460MOL0     H63471   7.752   5.666  10.117 -1.4501  0.9076 -3.9741
  460MOL0     H63472   7.695   5.958  10.086 -2.3919 -0.0481 -1.9266
  460MOL0     H63473   7.849   5.880  10.024  0.4805  0.9793  1.0642
  460MOL0     H63474   7.572   5.836   9.957  0.4063  1.3835  1.2304
  460MOL0     H63475   7.704   5.735   9.889  0.4301 -0.2221  1.7198
  460MOL0     H63476   7.745   6.065   9.623 -3.1961  1.6480 -0.1368
  460MOL0     H63477   7.934   6.024  10.227  0.9478  0.8918  2.1571
  460MOL0     H63478   8.033   6.242  10.159  0.5964  2.8887 -0.5607
  460MOL0     H63479   8.180   6.262  10.255  2.3568 -0.0051 -0.3017
  460MOL0     H63480   8.180   6.225  10.079 -1.1802  3.0515  0.3609
  461MOL0     O63481   5.709   0.265  11.208  0.2614 -0.2668 -0.2868
  461MOL0     C63482   5.819   0.265  11.152 -0.2358 -0.3644 -0.0569
  461MOL0     O63483   5.920   0.183  11.193  0.2797  1.1816  0.4767
  461MOL0     C63484   5.899   0.090  11.292 -0.2886 -0.6441 -0.2515
  461MOL0     C63485   6.009   0.048  11.373 -0.2879 -0.4868 -0.1649
  461MOL0     C63486   5.993  -0.065  11.463  0.0734 -0.5991  0.5602
  461MOL0     C63487   5.874  -0.134  11.465  0.0912  0.3665  0.5142
  461MOL0     O63488   5.858  -0.258  11.527  0.2641 -0.2485 -0.5703
  461MOL0     C63489   5.942  -0.283  11.637 -1.1229 -0.7133 -0.2270
  461MOL0     C63490   5.913  -0.422  11.700 -0.3779 -0.6251 -1.1201
  461MOL0     C63491   5.776  -0.425  11.767  0.2267  0.0130  0.1793
  461MOL0     C63492   5.782  -0.515  11.889 -0.1915  0.4358  0.4416
  461MOL0     C63493   5.842  -0.446  12.015 -1.3927  0.8875  0.2878
  461MOL0     C63494   5.952  -0.548  12.072  0.8393  0.4512 -0.7242
  461MOL0     C63495   6.007  -0.509  12.202 -0.7208 -0.0377  0.5379
  461MOL0     C63496   6.058  -0.365  12.227 -0.3364  0.0228  0.3212
  461MOL0     N63497   6.178  -0.314  12.165 -0.9652 -0.5751  0.8728
  461MOL0     C63498   6.268  -0.395  12.096  0.4499  0.2081 -0.8372
  461MOL0     C63499   6.360  -0.312  12.047  0.7735 -0.6403  0.1398
  461MOL0     C63500   6.477  -0.352  11.955  0.2853 -0.0264  0.4459
  461MOL0     C63501   6.519  -0.240  11.866 -0.3431  0.1089  0.7068
  461MOL0     C63502   6.618  -0.267  11.751  1.1015  0.1492 -0.0700
  461MOL0     C63503   6.729  -0.361  11.785  0.5814 -0.2605 -0.8439
  461MOL0     O63504   6.842  -0.311  11.713  0.5235  0.2117 -0.2283
  461MOL0     C63505   6.870  -0.359  11.587 -0.3457 -0.1547  1.0937
  461MOL0     C63506   6.988  -0.327  11.518 -0.2935 -1.2659 -0.6135
  461MOL0     C63507   7.029  -0.377  11.397 -0.4266 -0.4775  0.7351
  461MOL0     C63508   7.165  -0.323  11.334 -0.3559 -0.8073 -0.1340
  461MOL0     C63509   6.951  -0.478  11.340 -0.3689  0.4565  0.2593
  461MOL0     C63510   6.992  -0.522  11.205 -0.7221 -0.6865 -0.0087
  461MOL0     O63511   6.970  -0.434  11.099  0.6773  0.3282 -0.1893
  461MOL0     C63512   6.971  -0.462  10.964  0.5713  0.1182  0.2272
  461MOL0     C63513   6.960  -0.351  10.891  0.2158 -0.3042  0.3119
  461MOL0     C63514   6.994  -0.351  10.757  0.2851  0.8839 -0.1507
  461MOL0     C63515   7.032  -0.472  10.690  0.7567  0.1959  0.3542
  461MOL0     O63516   7.054  -0.485  10.553 -0.0604  0.6570  0.3713
  461MOL0     C63517   7.093  -0.361  10.486  0.0399 -0.7366 -0.8962
  461MOL0     C63518   7.143  -0.384  10.351  0.1425  0.9672  0.3871
  461MOL0     C63519   7.046  -0.449  10.250 -0.3927  0.1491  0.7496
  461MOL0     C63520   7.073  -0.593  10.239  0.4718  0.4444  0.9401
  461MOL0     C63521   6.988  -0.662  10.128  0.4141  0.3304 -0.2813
  461MOL0     C63522   6.844  -0.687  10.186  0.5175 -1.0992  1.1702
  461MOL0     C63523   6.767  -0.749  10.082 -0.9578 -0.5864  0.4056
  461MOL0     C63524   6.798  -0.898  10.064 -0.2987  0.0063  0.1956
  461MOL0    Cl63525   6.714  -0.982  10.190 -0.3937 -0.2403  0.3948
  461MOL0     C63526   7.020  -0.594  10.758  0.0741  0.9625 -0.1860
  461MOL0     C63527   7.001  -0.584  10.895 -0.2362 -0.5424 -0.0446
  461MOL0     O63528   7.019  -0.641  11.198 -0.6753 -0.0646  0.0513
  461MOL0     C63529   6.829  -0.520  11.396 -0.6283 -0.6458 -0.4839
  461MOL0     C63530   6.794  -0.464  11.518  0.9685  0.4014  0.5089
  461MOL0     N63531   6.328  -0.186  12.083  0.7892 -0.4978 -0.1851
  461MOL0     N63532   6.215  -0.180  12.146  0.4067  0.0030 -0.6647
  461MOL0     C63533   5.770  -0.101  11.389  0.7963 -0.0823  0.0810
  461MOL0     C63534   5.784   0.002  11.300  0.2460  0.1590 -0.6097
  461MOL0     C63535   5.848   0.336  11.023 -0.3722 -0.8840  0.4049
  461MOL0     C63536   5.977   0.332  10.974 -0.1853 -0.3041 -0.3148
  461MOL0     C63537   6.028   0.404  10.865  0.4120  0.5132  0.5601
  461MOL0     C63538   5.939   0.494  10.809 -0.4461  0.8004 -0.1452
  461MOL0     O63539   5.997   0.561  10.705 -0.3230  0.0515 -0.5982
  461MOL0     C63540   5.981   0.702  10.702  0.1173  0.0712  0.7056
  461MOL0     C63541   5.971   0.734  10.549 -0.5048  0.2725 -0.0451
  461MOL0     C63542   6.020   0.875  10.534  0.3302 -0.0905 -0.4812
  461MOL0     C63543   6.070   0.913  10.394  0.5065 -0.4857 -1.1256
  461MOL0     C63544   6.023   1.040  10.349 -0.3278  0.5749 -0.9252
  461MOL0     C63545   5.955   1.138  10.322  0.3629 -0.3248  0.4547
  461MOL0     C63546   5.802   0.500  10.845  0.1300 -0.0734 -1.3043
  461MOL0     C63547   5.756   0.420  10.951  0.1144 -0.6383 -0.2306
  461MOL0     C63548   5.609   0.450  10.985  0.7082  0.3052  0.4640
  461MOL0     H63549   6.101   0.104  11.371  0.2917 -1.3919  0.3974
  461MOL0     H63550   6.077  -0.078  11.530  1.0099  2.2224  0.0761
  461MOL0     H63551   5.928  -0.213  11.719 -0.3819 -1.3682  0.4796
  461MOL0     H63552   6.045  -0.277  11.600 -1.4271  0.6677 -0.9025
  461MOL0     H63553   5.918  -0.488  11.613 -0.7423 -0.2389 -1.4431
  461MOL0     H63554   5.995  -0.456  11.764 -0.3828  0.4258 -0.5292
  461MOL0     H63555   5.747  -0.326  11.804 -0.0496 -0.1206  0.3187
  461MOL0     H63556   5.700  -0.446  11.692  2.1597  0.3931 -2.0157
  461MOL0     H63557   5.678  -0.540  11.915  0.1584 -0.4432  1.0601
  461MOL0     H63558   5.827  -0.614  11.877 -0.5527  0.4244 -1.0272
  461MOL0     H63559   5.772  -0.429  12.097  0.7353  4.2593  1.6187
  461MOL0     H63560   5.890  -0.352  11.987 -0.1736  0.6017  1.3314
  461MOL0     H63561   5.898  -0.640  12.096 -0.2387  1.5278  1.3284
  461MOL0     H63562   6.028  -0.563  11.995  1.5452 -2.3658  0.4239
  461MOL0     H63563   6.091  -0.576  12.223 -1.9619 -2.5323 -1.8160
  461MOL0     H63564   5.929  -0.523  12.277 -3.4021  1.5011 -1.7602
  461MOL0     H63565   5.978  -0.294  12.204 -0.4837  0.0189  0.7988
  461MOL0     H63566   6.088  -0.357  12.332 -0.5987  2.5643  0.2686
  461MOL0     H63567   6.278  -0.503  12.093  3.8036  0.4635 -3.2171
  461MOL0     H63568   6.462  -0.444  11.899  0.2395  1.2820 -1.8466
  461MOL0     H63569   6.558  -0.377  12.024 -0.4356  1.7857  2.0677
  461MOL0     H63570   6.436  -0.185  11.821  0.1446  1.6180  1.6013
  461MOL0     H63571   6.583  -0.176  11.927  2.0326 -0.5706 -0.9489
  461MOL0     H63572   6.558  -0.311  11.670  0.8997  0.8538 -0.3085
  461MOL0     H63573   6.668  -0.174  11.723  0.3519  0.9269  1.1104
  461MOL0     H63574   6.746  -0.348  11.892 -0.5639 -2.0929 -0.3967
  461MOL0     H63575   6.707  -0.467  11.773 -2.7645 -0.0609  1.9786
  461MOL0     H63576   7.052  -0.245  11.550  1.8348 -1.9789 -2.7442
  461MOL0     H63577   7.178  -0.221  11.372 -3.2339 -0.5070  0.2581
  461MOL0     H63578   7.175  -0.317  11.225 -1.4598  0.1691 -0.2022
  461MOL0     H63579   7.235  -0.399  11.369 -0.2126 -1.0519 -0.9192
  461MOL0     H63580   6.935  -0.251  10.925  0.8260 -0.4070  1.0678
  461MOL0     H63581   7.004  -0.257  10.702  0.1586  0.0931 -1.5807
  461MOL0     H63582   7.017  -0.283  10.479  0.4635  0.2827  3.1856
  461MOL0     H63583   7.184  -0.334  10.540  0.3641 -3.0041 -0.1941
  461MOL0     H63584   7.174  -0.285  10.316 -0.3189  0.8950 -0.2190
  461MOL0     H63585   7.230  -0.448  10.369  0.2908  1.4829  1.6057
  461MOL0     H63586   7.068  -0.404  10.152 -0.8147  1.9758  1.4570
  461MOL0     H63587   6.939  -0.437  10.266 -0.1971  0.5076  1.8878
  461MOL0     H63588   7.047  -0.639  10.335 -2.3197  3.4536  1.8143
  461MOL0     H63589   7.181  -0.606  10.227  0.3374 -0.5705  0.6917
  461MOL0     H63590   6.980  -0.604  10.035 -0.8483 -0.1295 -0.4689
  461MOL0     H63591   7.028  -0.761  10.107 -2.7982 -1.0490 -0.5202
  461MOL0     H63592   6.797  -0.596  10.225 -0.0515 -1.9370  2.5193
  461MOL0     H63593   6.839  -0.751  10.275 -5.2129  0.2333  2.1938
  461MOL0     H63594   6.778  -0.707   9.981 -5.0580 -0.1640 -0.0519
  461MOL0     H63595   6.661  -0.740  10.109 -1.2141  2.4440 -1.1466
  461MOL0     H63596   6.904  -0.925  10.058 -0.7442 -1.7005 -0.4098
  461MOL0     H63597   6.752  -0.924   9.968 -0.5604  0.4847  0.1884
  461MOL0     H63598   7.039  -0.696  10.727  1.3721  0.5150  1.9294
  461MOL0     H63599   7.019  -0.674  10.953  1.3640 -0.1759  0.0900
  461MOL0     H63600   6.761  -0.593  11.353 -0.6146 -0.8936 -0.0883
  461MOL0     H63601   6.704  -0.494  11.571  0.1599  1.1192 -0.4203
  461MOL0     H63602   5.669  -0.142  11.390  0.5752  0.3125 -1.7893
  461MOL0     H63603   5.694   0.013  11.241 -1.8218 -2.5042  1.7141
  461MOL0     H63604   6.042   0.257  11.018 -0.8950 -1.4907 -1.2056
  461MOL0     H63605   6.132   0.391  10.837 -0.1576  0.4903 -1.8232
  461MOL0     H63606   5.882   0.726  10.740 -0.4249  0.5231 -0.9167
  461MOL0     H63607   6.052   0.756  10.766  2.3803 -0.1436 -1.4418
  461MOL0     H63608   5.867   0.724  10.516  0.2626 -5.5634 -1.8511
  461MOL0     H63609   6.036   0.668  10.491  0.8267  0.0072  1.6961
  461MOL0     H63610   5.945   0.947  10.566 -0.9251 -1.1415 -0.9962
  461MOL0     H63611   6.112   0.870  10.594  0.0734 -1.6049 -0.1821
  461MOL0     H63612   6.044   0.842  10.314  1.5737 -1.6711 -0.4654
  461MOL0     H63613   6.179   0.918  10.402  0.4984  3.1241 -1.7026
  461MOL0     H63614   5.887   1.219  10.308 -2.0710 -1.9878  1.7835
  461MOL0     H63615   5.729   0.563  10.796 -1.1447  0.4110  1.1121
  461MOL0     H63616   5.541   0.458  10.899  4.0859 -2.9314 -2.9064
  461MOL0     H63617   5.568   0.372  11.050  2.6637 -2.0656 -0.9615
  461MOL0     H63618   5.597   0.543  11.039  0.4964  3.0517 -3.8206
  462MOL0     O63619   3.934   6.584  10.207 -0.2565 -0.1916 -0.5327
  462MOL0     C63620   3.998   6.504  10.279 -0.7477 -0.3980  0.3444
  462MOL0     O63621   3.989   6.366  10.280  0.4994 -0.7844  0.0228
  462MOL0     C63622   3.876   6.304  10.245  0.4872  0.5811 -0.6123
  462MOL0     C63623   3.751   6.361  10.265  0.3430  0.2079  0.8405
  462MOL0     C63624   3.634   6.280  10.258 -0.2173 -0.8415  0.6541
  462MOL0     C63625   3.646   6.151  10.225  0.5483  0.2381 -0.6457
  462MOL0     O63626   3.540   6.071  10.197  0.0077 -0.3333 -0.0206
  462MOL0     C63627   3.524   6.021  10.062  0.2363 -0.4501 -0.6931
  462MOL0     C63628   3.407   5.921  10.057 -0.0054  0.0488  0.7780
  462MOL0     C63629   3.269   5.983  10.060  0.3839 -0.5035  0.1231
  462MOL0     C63630   3.176   5.953   9.935 -0.2867 -0.1413  0.3592
  462MOL0     C63631   3.164   5.803   9.905  0.0396 -0.1837 -0.3384
  462MOL0     C63632   3.094   5.725  10.015  0.3281  1.4036 -0.0411
  462MOL0     C63633   3.077   5.579   9.964 -0.1160 -0.0799 -0.4631
  462MOL0     C63634   2.969   5.511  10.048  0.2893 -0.7021 -1.1664
  462MOL0     N63635   2.952   5.364  10.010  0.0721 -0.2424  0.0126
  462MOL0     C63636   3.041   5.269   9.989 -0.6754  0.3123  0.9456
  462MOL0     C63637   2.972   5.161   9.941  0.6008  0.2717 -0.3878
  462MOL0     C63638   3.033   5.050   9.876  0.6504  0.3948 -0.5533
  462MOL0     C63639   2.963   4.917   9.907  0.3553  0.3895 -0.4775
  462MOL0     C63640   2.862   4.893   9.794 -0.7174 -0.3781  0.1560
  462MOL0     C63641   2.744   4.811   9.827 -0.6181  0.3553 -1.0452
  462MOL0     O63642   2.666   4.821   9.706 -0.2431 -0.0105 -0.6175
  462MOL0     C63643   2.630   4.702   9.643 -1.0572  0.0063  0.2246
  462MOL0     C63644   2.681   4.660   9.520  0.9434 -0.2177  0.0240
  462MOL0     C63645   2.639   4.540   9.454 -0.8043  0.5750  0.8680
  462MOL0     C63646   2.723   4.488   9.342 -0.0193 -0.0555 -0.1578
  462MOL0     C63647   2.543   4.460   9.520 -0.5546  0.7115  0.1614
  462MOL0     C63648   2.481   4.339   9.463  0.6122 -0.2061  1.1948
  462MOL0     O63649   2.383   4.283   9.529 -0.4533 -0.0610 -0.0538
  462MOL0     C63650   2.336   4.169   9.473  0.4153 -0.2280 -0.3957
  462MOL0     C63651   2.384   4.042   9.499  0.8587 -0.4971 -1.6698
  462MOL0     C63652   2.322   3.936   9.455  0.1872  0.6928 -0.5503
  462MOL0     C63653   2.205   3.942   9.372  0.3816  0.0683 -0.6841
  462MOL0     O63654   2.131   3.830   9.329 -0.4867  0.5697  0.4056
  462MOL0     C63655   2.174   3.688   9.342 -0.2124 -0.7176 -1.1723
  462MOL0     C63656   2.058   3.594   9.322  0.9011  0.0833 -0.2846
  462MOL0     C63657   2.113   3.442   9.332 -0.1860  0.2308 -0.2828
  462MOL0     C63658   2.009   3.325   9.330 -0.2575 -0.3928 -0.1022
  462MOL0     C63659   2.074   3.181   9.331  0.4802 -1.0356 -0.5035
  462MOL0     C63660   2.191   3.163   9.225  0.7708  0.7383  0.2510
  462MOL0     C63661   2.216   3.015   9.204 -0.2865  0.0973 -0.4579
  462MOL0     C63662   2.334   2.973   9.286 -0.4526  1.1062 -0.8274
  462MOL0    Cl63663   2.418   2.832   9.190 -0.3525 -0.6925  0.5527
  462MOL0     C63664   2.153   4.067   9.338  0.5550 -1.3599  0.2775
  462MOL0     C63665   2.231   4.175   9.384  0.0012  0.5346  0.4765
  462MOL0     O63666   2.523   4.303   9.352  0.2973 -0.1421  1.0800
  462MOL0     C63667   2.480   4.508   9.633 -0.0614 -1.0322  0.0210
  462MOL0     C63668   2.528   4.621   9.698 -0.2460  0.4321 -0.5606
  462MOL0     N63669   2.843   5.188   9.944 -0.0593 -0.0731 -0.4748
  462MOL0     N63670   2.834   5.310   9.978 -0.1632 -0.0105  0.0745
  462MOL0     C63671   3.774   6.090  10.205 -0.2446 -0.6815  1.6180
  462MOL0     C63672   3.896   6.171  10.214  0.7536  0.6626  0.2598
  462MOL0     C63673   4.113   6.561  10.344 -0.9850  1.4793  0.2776
  462MOL0     C63674   4.228   6.477  10.349  0.1526  0.7066 -0.5665
  462MOL0     C63675   4.344   6.519  10.406  0.1019 -0.3394 -0.1454
  462MOL0     C63676   4.361   6.650  10.459  0.3073 -0.7754  0.7633
  462MOL0     O63677   4.483   6.695  10.500 -0.2962  0.4047  0.1797
  462MOL0     C63678   4.596   6.601  10.506 -0.6681 -0.4112 -1.4528
  462MOL0     C63679   4.603   6.517  10.629  0.2230 -0.5943 -0.5814
  462MOL0     C63680   4.699   6.401  10.634 -0.5914 -0.5973  0.2282
  462MOL0     C63681   4.835   6.424  10.583 -0.0336 -1.3993 -0.5981
  462MOL0     C63682   4.896   6.544  10.661  0.2100 -0.6939  0.4794
  462MOL0     C63683   4.969   6.622  10.720 -0.0334  0.3054 -0.2338
  462MOL0     C63684   4.248   6.733  10.458 -0.3328 -0.0960 -1.0277
  462MOL0     C63685   4.127   6.692  10.395 -0.3040  0.3299 -0.0848
  462MOL0     C63686   4.010   6.790  10.381 -0.8179 -0.2047  0.0794
  462MOL0     H63687   3.739   6.467  10.284 -3.8872  0.9251 -3.8223
  462MOL0     H63688   3.545   6.338  10.276  0.8465  1.0398  0.0699
  462MOL0     H63689   3.618   5.970  10.042  0.6584 -0.5063  1.2629
  462MOL0     H63690   3.502   6.100   9.989 -0.8741  3.0554  3.0373
  462MOL0     H63691   3.423   5.860   9.968  1.1834 -0.4964  1.3361
  462MOL0     H63692   3.419   5.849  10.139  2.2984 -0.4471  0.0963
  462MOL0     H63693   3.218   5.949  10.151 -0.6090 -1.1796 -0.6590
  462MOL0     H63694   3.292   6.090  10.069  2.7940 -0.5363 -3.5853
  462MOL0     H63695   3.079   6.003   9.937 -0.3005 -0.1834  1.6363
  462MOL0     H63696   3.224   5.993   9.845 -0.7586 -1.9468 -0.7522
  462MOL0     H63697   3.263   5.762   9.882  1.7593  3.8910 -1.1304
  462MOL0     H63698   3.105   5.787   9.814  2.1232 -1.0580 -1.6010
  462MOL0     H63699   3.154   5.719  10.107 -1.7632 -0.5276  1.3305
  462MOL0     H63700   3.003   5.781  10.039 -0.6672 -0.3655  0.4824
  462MOL0     H63701   3.169   5.520   9.978  1.5539  3.0504  3.7652
  462MOL0     H63702   3.042   5.583   9.860  0.8615  0.4335 -0.7926
  462MOL0     H63703   3.003   5.501  10.151 -4.1699 -1.3082  0.4376
  462MOL0     H63704   2.889   5.586  10.039  1.0300  0.9649  3.3998
  462MOL0     H63705   3.148   5.285   9.985 -0.7392  1.1478  2.1286
  462MOL0     H63706   3.136   5.038   9.909  1.4378  0.9967 -2.6463
  462MOL0     H63707   3.017   5.078   9.771  0.9322 -2.6754 -1.5195
  462MOL0     H63708   3.030   4.831   9.918 -0.0369 -0.1892 -2.3546
  462MOL0     H63709   2.907   4.915  10.001  1.4220  3.9742  0.3706
  462MOL0     H63710   2.829   4.990   9.756 -0.0865  1.6625  4.2610
  462MOL0     H63711   2.912   4.842   9.711 -0.2425  2.5398 -1.4849
  462MOL0     H63712   2.770   4.708   9.855 -2.1999 -0.6052 -2.8629
  462MOL0     H63713   2.677   4.854   9.902 -0.7155 -2.2943  0.5263
  462MOL0     H63714   2.765   4.725   9.498  1.3362 -0.7463 -0.0508
  462MOL0     H63715   2.666   4.495   9.249  0.6250 -0.9615 -0.6439
  462MOL0     H63716   2.762   4.388   9.365 -0.5389 -0.0169  0.9689
  462MOL0     H63717   2.803   4.563   9.342  0.3253 -0.2786  3.3836
  462MOL0     H63718   2.466   4.031   9.570 -1.7450 -4.1440  1.1536
  462MOL0     H63719   2.366   3.838   9.467  0.8135  0.9286 -0.8749
  462MOL0     H63720   2.253   3.666   9.270 -1.2775 -1.5479 -2.1127
  462MOL0     H63721   2.198   3.671   9.448 -0.3342 -1.9806 -1.3383
  462MOL0     H63722   1.971   3.616   9.386 -1.2577 -1.4287 -2.5155
  462MOL0     H63723   2.023   3.619   9.222 -0.3868  1.5189  0.4746
  462MOL0     H63724   2.180   3.437   9.419  0.5572  1.4766 -0.7476
  462MOL0     H63725   2.172   3.440   9.240  2.1565  5.4290  0.7208
  462MOL0     H63726   1.948   3.335   9.240 -2.2841 -0.0401  1.2435
  462MOL0     H63727   1.933   3.343   9.406 -2.9558  1.0192 -2.8995
  462MOL0     H63728   2.114   3.166   9.432 -2.0321  0.7058  0.8565
  462MOL0     H63729   2.005   3.101   9.304  1.3644 -1.6666 -0.9642
  462MOL0     H63730   2.285   3.213   9.249  2.7602 -2.2418 -0.7108
  462MOL0     H63731   2.141   3.209   9.139 -2.5791  1.2607  2.2994
  462MOL0     H63732   2.242   3.012   9.098 -2.9392  0.6968 -1.1998
  462MOL0     H63733   2.134   2.948   9.231 -1.3898  2.9974  4.7572
  462MOL0     H63734   2.313   2.943   9.389 -0.1555  3.6328  0.0375
  462MOL0     H63735   2.395   3.063   9.298 -0.8915  1.0831  2.3981
  462MOL0     H63736   2.079   4.082   9.260 -0.6658 -0.2306  1.5963
  462MOL0     H63737   2.201   4.274   9.349  1.8535  0.6838 -0.8163
  462MOL0     H63738   2.396   4.461   9.684 -2.4463 -0.2251 -2.8439
  462MOL0     H63739   2.474   4.655   9.785  0.5455 -0.0795  0.1395
  462MOL0     H63740   3.786   5.983  10.190  0.8916 -0.4202  0.4438
  462MOL0     H63741   3.993   6.123  10.218  0.6037  0.4307  2.3361
  462MOL0     H63742   4.223   6.375  10.311  0.4339  0.2701  0.5260
  462MOL0     H63743   4.425   6.446  10.414  3.6529  3.2711  0.2902
  462MOL0     H63744   4.588   6.547  10.412 -0.7008 -0.5883 -1.3481
  462MOL0     H63745   4.690   6.657  10.504 -0.3341 -0.9887 -3.2087
  462MOL0     H63746   4.506   6.477  10.659 -0.2185  1.9488  1.9047
  462MOL0     H63747   4.630   6.591  10.706 -0.0345 -0.1251 -0.9374
  462MOL0     H63748   4.703   6.360  10.736  2.3150 -1.6647 -0.2203
  462MOL0     H63749   4.652   6.327  10.569  3.5585 -0.5438 -3.2625
  462MOL0     H63750   4.841   6.441  10.475 -0.1857  3.3943 -0.0576
  462MOL0     H63751   4.909   6.346  10.604  1.3491  0.5012  2.3664
  462MOL0     H63752   5.036   6.683  10.776  1.0372 -3.2930  2.8316
  462MOL0     H63753   4.253   6.836  10.492 -0.4629 -0.7560  1.0889
  462MOL0     H63754   4.009   6.821  10.277  1.6176  0.9327  0.3273
  462MOL0     H63755   3.909   6.758  10.407 -0.1558 -1.0614  1.8280
  462MOL0     H63756   4.031   6.875  10.447 -2.2197 -1.5177  2.3719
  463MOL0     O63757   1.733   1.151   6.901  0.2652  0.7204 -0.1375
  463MOL0     C63758   1.778   1.100   7.001 -0.9274  0.0876 -0.3976
  463MOL0     O63759   1.862   1.162   7.088 -0.9668  0.1949  0.6184
  463MOL0     C63760   1.889   1.296   7.074  0.3943 -0.4899  0.5267
  463MOL0     C63761   2.002   1.345   7.121 -0.3758  0.1092 -0.0262
  463MOL0     C63762   2.039   1.481   7.119 -0.7262 -0.6692  0.7898
  463MOL0     C63763   1.952   1.569   7.053  0.2857  0.7393 -0.1234
  463MOL0     O63764   1.970   1.696   7.074 -1.0244  0.1258  0.4176
  463MOL0     C63765   2.046   1.766   6.978 -0.4927 -0.2900  0.3663
  463MOL0     C63766   2.070   1.904   7.036  0.3145  0.2596  0.2336
  463MOL0     C63767   2.161   1.884   7.159 -0.4815 -0.8839 -0.0589
  463MOL0     C63768   2.215   2.014   7.219  0.1153  1.0123  0.0309
  463MOL0     C63769   2.283   2.006   7.358 -0.4309  1.4052  0.4527
  463MOL0     C63770   2.175   1.984   7.471 -0.0443  0.2518  0.6711
  463MOL0     C63771   2.109   1.841   7.484 -0.1651  0.6938  0.8407
  463MOL0     C63772   2.027   1.822   7.619  0.1157 -0.2028  0.0260
  463MOL0     N63773   2.005   1.687   7.642  0.0664  0.1391 -0.7472
  463MOL0     C63774   2.096   1.587   7.675 -0.3365  0.8263 -0.6436
  463MOL0     C63775   2.042   1.467   7.656  0.7186  0.5305 -0.0322
  463MOL0     C63776   2.110   1.333   7.668  0.2037 -0.6017 -0.7829
  463MOL0     C63777   2.102   1.260   7.529 -0.1367  0.0195  0.3091
  463MOL0     C63778   2.161   1.123   7.542 -0.0948  0.4719 -0.6049
  463MOL0     C63779   2.055   1.008   7.560  0.1401 -0.4840  0.3482
  463MOL0     O63780   1.963   0.977   7.451  0.5625 -0.1151 -0.4073
  463MOL0     C63781   2.002   0.868   7.368  0.0535 -0.4828 -0.3925
  463MOL0     C63782   1.973   0.731   7.394  0.3810  0.8212 -0.4470
  463MOL0     C63783   2.008   0.631   7.302  0.5596  0.6561  0.0602
  463MOL0     C63784   1.971   0.479   7.318  0.5948 -0.7002 -0.1880
  463MOL0     C63785   2.077   0.672   7.179 -0.9696  0.0737 -0.1081
  463MOL0     C63786   2.107   0.577   7.076 -0.5945  0.8046 -0.9793
  463MOL0     O63787   2.049   0.607   6.958 -0.1402  1.5345 -0.2841
  463MOL0     C63788   2.063   0.511   6.861 -0.0711 -0.8568  1.1185
  463MOL0     C63789   2.024   0.377   6.873 -0.6600  0.0450 -0.7007
  463MOL0     C63790   2.008   0.290   6.761 -0.6966 -0.8190  0.4967
  463MOL0     C63791   2.032   0.341   6.636 -0.5554 -0.1478  0.4015
  463MOL0     O63792   2.038   0.274   6.513 -0.1213  0.0438  0.3563
  463MOL0     C63793   2.006   0.134   6.523  0.5768 -0.8288 -0.1704
  463MOL0     C63794   1.992   0.074   6.385  0.9245  0.1818  0.3599
  463MOL0     C63795   1.865   0.120   6.311 -0.4465 -0.6663  0.1133
  463MOL0     C63796   1.751   0.022   6.334  0.4655 -0.1056  0.0628
  463MOL0     C63797   1.638   0.040   6.240  1.1898  0.7114 -0.9986
  463MOL0     C63798   1.541  -0.072   6.243  0.4635  0.2413 -0.4593
  463MOL0     C63799   1.412  -0.047   6.158 -0.8700 -0.7788  0.9611
  463MOL0     C63800   1.414  -0.103   6.012 -0.4493 -0.3423 -0.0047
  463MOL0    Cl63801   1.513   0.007   5.911 -0.3213  0.0999 -0.2742
  463MOL0     C63802   2.069   0.479   6.618 -0.1674 -0.0922  0.4965
  463MOL0     C63803   2.074   0.561   6.730  0.1134 -0.2960 -0.1347
  463MOL0     O63804   2.172   0.477   7.110 -0.5280  0.1719 -0.1554
  463MOL0     C63805   2.102   0.811   7.152 -0.0259 -0.5040 -0.2716
  463MOL0     C63806   2.066   0.909   7.247  2.1351  0.1476 -0.1903
  463MOL0     N63807   1.911   1.484   7.610  0.3115 -0.7111 -0.5195
  463MOL0     N63808   1.895   1.617   7.602  0.2741  0.7013 -0.4591
  463MOL0     C63809   1.826   1.528   7.006  0.6614 -0.1871 -0.5626
  463MOL0     C63810   1.788   1.390   7.022 -0.3301 -0.0385  0.4429
  463MOL0     C63811   1.735   0.966   7.046  0.0853 -0.5033 -0.7011
  463MOL0     C63812   1.711   0.938   7.176 -0.9484 -0.1883  0.0744
  463MOL0     C63813   1.675   0.805   7.221 -0.4495 -1.0447  0.3194
  463MOL0     C63814   1.630   0.713   7.122 -0.9316  0.2943  0.6457
  463MOL0     O63815   1.571   0.595   7.145 -0.3277 -0.8455  0.2543
  463MOL0     C63816   1.525   0.569   7.281  0.4916  0.0392  0.4145
  463MOL0     C63817   1.395   0.658   7.305 -0.1980  0.0545  0.7318
  463MOL0     C63818   1.279   0.591   7.226 -0.0284 -0.2429 -0.3792
  463MOL0     C63819   1.210   0.484   7.304  0.7331  1.3002 -0.1757
  463MOL0     C63820   1.136   0.403   7.215  0.9852  0.3554 -0.3342
  463MOL0     C63821   1.074   0.359   7.128  0.9997  0.0011  0.8875
  463MOL0     C63822   1.634   0.754   6.988 -1.3302  0.1086 -0.1774
  463MOL0     C63823   1.703   0.874   6.946  0.0370  0.4648 -0.1127
  463MOL0     C63824   1.726   0.882   6.802  0.4446 -0.5726 -0.0803
  463MOL0     H63825   2.064   1.275   7.176  0.7089 -0.2009 -1.5527
  463MOL0     H63826   2.110   1.513   7.195 -0.7984  0.9189  0.2193
  463MOL0     H63827   1.974   1.786   6.898 -1.0907 -1.2165  0.6608
  463MOL0     H63828   2.136   1.718   6.939  1.1081  0.9267  2.3511
  463MOL0     H63829   2.115   1.974   6.965  1.0173  2.0453  2.3079
  463MOL0     H63830   1.974   1.948   7.065  0.0597 -0.7983  1.0540
  463MOL0     H63831   2.100   1.828   7.231  1.7847 -0.0844  2.6491
  463MOL0     H63832   2.248   1.826   7.127  2.4171  2.0132  1.8712
  463MOL0     H63833   2.286   2.058   7.148 -1.0567 -1.2062 -2.7526
  463MOL0     H63834   2.132   2.084   7.227  0.1758  1.6087 -3.1983
  463MOL0     H63835   2.334   2.102   7.367 -2.6852  2.5842  1.2100
  463MOL0     H63836   2.349   1.918   7.361  0.3620  1.8974 -1.0433
  463MOL0     H63837   2.224   2.005   7.566 -0.6454 -1.6551  1.4290
  463MOL0     H63838   2.092   2.055   7.459 -1.5339 -1.6399 -0.7903
  463MOL0     H63839   2.186   1.764   7.485 -1.3024 -0.6392 -2.3415
  463MOL0     H63840   2.029   1.817   7.413 -1.7435 -1.0553  3.0562
  463MOL0     H63841   2.101   1.856   7.693  1.2940 -3.1306  0.3119
  463MOL0     H63842   1.945   1.894   7.612  3.6033  4.0838 -4.3656
  463MOL0     H63843   2.192   1.600   7.724 -1.3571  0.6731  1.4817
  463MOL0     H63844   2.046   1.278   7.737 -0.3274  3.3301  2.2651
  463MOL0     H63845   2.212   1.346   7.705  0.4659 -1.0402 -1.3503
  463MOL0     H63846   2.008   1.257   7.473  1.3907 -1.2136 -2.4142
  463MOL0     H63847   2.163   1.321   7.461  0.4054 -0.9298 -0.0733
  463MOL0     H63848   2.217   1.093   7.453 -2.2554 -2.0911 -1.2237
  463MOL0     H63849   2.226   1.129   7.630  0.1865 -0.5548 -0.7337
  463MOL0     H63850   2.113   0.924   7.598  1.3086  1.3076  2.7724
  463MOL0     H63851   1.986   1.051   7.633 -2.3209  0.7574 -2.5060
  463MOL0     H63852   1.921   0.701   7.484 -0.3228 -1.4228 -1.5273
  463MOL0     H63853   1.957   0.429   7.222  1.2190  1.3811 -1.4220
  463MOL0     H63854   1.879   0.476   7.377  1.2715 -0.8079  0.8904
  463MOL0     H63855   2.052   0.431   7.373  0.4407 -1.3517 -0.5158
  463MOL0     H63856   2.008   0.343   6.976  3.5610  3.8402  1.5598
  463MOL0     H63857   1.981   0.190   6.794 -1.9470 -1.2418 -1.6146
  463MOL0     H63858   2.083   0.084   6.582  2.0836  2.9044  1.3536
  463MOL0     H63859   1.907   0.127   6.570  0.3013 -0.8766 -0.7484
  463MOL0     H63860   2.079   0.098   6.324  0.4423  1.9943  0.3431
  463MOL0     H63861   1.986  -0.035   6.391  0.4587 -0.0450 -2.5142
  463MOL0     H63862   1.894   0.102   6.208  1.4190 -1.7088  0.7755
  463MOL0     H63863   1.829   0.220   6.337 -2.4866 -0.9011 -1.5227
  463MOL0     H63864   1.718   0.032   6.438  1.2411  4.2188  0.0626
  463MOL0     H63865   1.790  -0.079   6.316  1.7712 -0.1630  2.8230
  463MOL0     H63866   1.590   0.136   6.257 -1.2368 -0.2605 -1.9418
  463MOL0     H63867   1.682   0.034   6.140  0.0703 -3.0210 -1.4273
  463MOL0     H63868   1.521  -0.094   6.348  2.9946 -0.7581 -0.1127
  463MOL0     H63869   1.598  -0.157   6.203  0.9950  1.2860 -2.0493
  463MOL0     H63870   1.396   0.062   6.157  3.8693  0.1201  0.4745
  463MOL0     H63871   1.329  -0.090   6.215 -1.0116  0.2225  1.5416
  463MOL0     H63872   1.314  -0.113   5.968 -2.7691  2.8240  3.8541
  463MOL0     H63873   1.463  -0.200   6.028 -1.1650 -0.4876  1.4989
  463MOL0     H63874   2.084   0.496   6.512 -0.6078 -2.4162  0.0147
  463MOL0     H63875   2.092   0.668   6.725  0.5456 -0.3609  0.0248
  463MOL0     H63876   2.127   0.831   7.048 -2.4248  1.9237 -0.4797
  463MOL0     H63877   2.082   1.014   7.223 -2.4424  0.2855 -4.1157
  463MOL0     H63878   1.752   1.604   6.983  0.1053 -1.4625 -3.4600
  463MOL0     H63879   1.687   1.362   6.998 -0.5541 -0.2613  1.5944
  463MOL0     H63880   1.745   1.001   7.258  2.4583 -2.7659  0.8979
  463MOL0     H63881   1.675   0.789   7.328 -3.5905  2.3474  1.0482
  463MOL0     H63882   1.501   0.462   7.280  2.2352 -0.3771 -0.2556
  463MOL0     H63883   1.598   0.581   7.362  1.3137  0.2412 -0.3428
  463MOL0     H63884   1.397   0.764   7.280  0.2877  0.7901  3.5804
  463MOL0     H63885   1.385   0.656   7.414 -1.0440  1.6381  0.7167
  463MOL0     H63886   1.205   0.663   7.189  0.7350  0.8087  0.0910
  463MOL0     H63887   1.333   0.550   7.140  0.4044  1.3532 -0.8979
  463MOL0     H63888   1.142   0.531   7.377  1.4982  0.4943  1.0906
  463MOL0     H63889   1.283   0.427   7.362  2.2733  0.2712 -2.9273
  463MOL0     H63890   1.013   0.312   7.053 -1.3411  0.9233  2.1287
  463MOL0     H63891   1.590   0.681   6.921 -1.4137  0.0811 -0.0918
  463MOL0     H63892   1.642   0.938   6.760 -0.8418  0.8637  3.9715
  463MOL0     H63893   1.826   0.917   6.775  0.7048 -0.5262  0.8905
  463MOL0     H63894   1.734   0.785   6.752  0.4721 -0.4718 -0.2742
  464MOL0     O63895   7.101   1.968   1.219  0.3265  0.2298  0.2054
  464MOL0     C63896   7.123   2.084   1.246  1.1078 -0.1158 -0.5616
  464MOL0     O63897   7.029   2.188   1.267 -0.1306  1.6543  0.5877
  464MOL0     C63898   6.899   2.136   1.296 -0.4671  0.3108  0.9771
  464MOL0     C63899   6.825   2.088   1.187 -0.1632  0.3777 -0.3294
  464MOL0     C63900   6.692   2.063   1.194 -0.5428 -0.5343 -0.5324
  464MOL0     C63901   6.630   2.072   1.327 -0.6196 -0.4922  0.5083
  464MOL0     O63902   6.495   2.042   1.351 -0.9711  0.4324 -0.3724
  464MOL0     C63903   6.423   1.973   1.243 -0.0199  0.1355 -0.2744
  464MOL0     C63904   6.294   1.924   1.301  1.0139  0.1755 -0.4776
  464MOL0     C63905   6.301   1.793   1.391  0.6765  0.1603  0.0711
  464MOL0     C63906   6.168   1.769   1.459 -1.0209  0.0703  0.8403
  464MOL0     C63907   6.145   1.626   1.496  0.7814  0.1809  0.1321
  464MOL0     C63908   6.037   1.608   1.600  0.9693  0.5821 -0.1792
  464MOL0     C63909   6.017   1.451   1.618  0.7386  0.2855  0.1631
  464MOL0     C63910   5.890   1.400   1.546 -0.1221 -0.8568 -0.6120
  464MOL0     N63911   5.919   1.255   1.534 -0.0636 -0.5158  0.0619
  464MOL0     C63912   5.989   1.217   1.425  0.1737  0.6019 -0.5710
  464MOL0     C63913   6.001   1.081   1.437  0.4576 -0.3468  0.1104
  464MOL0     C63914   6.095   0.996   1.348 -0.3489 -0.6268 -0.2613
  464MOL0     C63915   6.025   0.895   1.253 -0.5409 -0.1721  1.0685
  464MOL0     C63916   5.976   0.770   1.330  0.4432 -0.8080  0.3754
  464MOL0     C63917   5.823   0.748   1.311  0.5483  0.4589 -0.4299
  464MOL0     O63918   5.768   0.633   1.365 -0.1116 -0.0622  0.4302
  464MOL0     C63919   5.750   0.618   1.498 -0.2524  0.1364  0.3739
  464MOL0     C63920   5.731   0.487   1.529 -0.7287 -0.3312  0.1778
  464MOL0     C63921   5.733   0.447   1.658  0.1380 -0.3187 -0.8057
  464MOL0     C63922   5.715   0.296   1.680  0.0412  0.1722 -0.1560
  464MOL0     C63923   5.748   0.546   1.763  1.0029 -0.1961  0.4291
  464MOL0     C63924   5.747   0.519   1.912  0.5039 -0.2943 -0.2426
  464MOL0     O63925   5.759   0.626   1.998  0.2840  0.3167 -0.3776
  464MOL0     C63926   5.725   0.614   2.125 -1.0329 -0.1731 -0.5233
  464MOL0     C63927   5.647   0.720   2.173 -0.4441 -1.4531  0.4113
  464MOL0     C63928   5.593   0.726   2.298  0.4830  0.1538 -0.8221
  464MOL0     C63929   5.625   0.621   2.388 -0.9754 -0.4744 -0.6360
  464MOL0     O63930   5.576   0.600   2.516  0.0359  0.6200  0.6034
  464MOL0     C63931   5.451   0.678   2.554 -0.2899  0.1528 -1.1170
  464MOL0     C63932   5.379   0.580   2.637  0.5321  0.3287 -0.3038
  464MOL0     C63933   5.323   0.483   2.549 -0.1339  0.6161  0.2470
  464MOL0     C63934   5.214   0.399   2.608 -0.1297 -0.6563 -1.3780
  464MOL0     C63935   5.269   0.270   2.655  0.0472  0.3380 -0.3829
  464MOL0     C63936   5.171   0.176   2.737  0.7978  0.2174  0.8307
  464MOL0     C63937   5.255   0.047   2.784  0.7222  0.0700 -0.2256
  464MOL0     C63938   5.308  -0.042   2.675  0.5328 -0.0171  0.2188
  464MOL0    Cl63939   5.333  -0.202   2.740 -0.0587 -0.1038  0.2773
  464MOL0     C63940   5.724   0.522   2.341  0.6718  0.8580  0.2349
  464MOL0     C63941   5.767   0.514   2.210 -0.1487 -0.2570 -0.0043
  464MOL0     O63942   5.729   0.398   1.952 -0.2654 -0.5646 -0.0098
  464MOL0     C63943   5.775   0.674   1.729  0.4113  0.7312  0.8605
  464MOL0     C63944   5.778   0.718   1.595 -0.4188 -0.1960  0.0214
  464MOL0     N63945   5.922   1.048   1.552  0.7329 -0.4722 -0.1820
  464MOL0     N63946   5.864   1.148   1.595  0.1988 -0.2851 -0.3779
  464MOL0     C63947   6.713   2.096   1.439  0.1699  0.4166  0.7382
  464MOL0     C63948   6.845   2.141   1.425  0.0663 -0.6990 -0.0672
  464MOL0     C63949   7.262   2.123   1.278  0.4620 -0.3739  0.1282
  464MOL0     C63950   7.359   2.112   1.182 -0.9203  1.1266 -0.6987
  464MOL0     C63951   7.488   2.170   1.201  0.2392  0.9113  0.3675
  464MOL0     C63952   7.510   2.248   1.319 -0.5203  0.3397 -0.7018
  464MOL0     O63953   7.625   2.324   1.343  0.2418  0.2026 -0.5434
  464MOL0     C63954   7.605   2.455   1.296  0.0743 -0.5895  0.2398
  464MOL0     C63955   7.663   2.485   1.158 -0.3010  0.4402 -0.0335
  464MOL0     C63956   7.808   2.469   1.150 -0.8057 -1.2389 -0.3759
  464MOL0     C63957   7.855   2.488   1.004 -0.4087 -0.0149 -0.2034
  464MOL0     C63958   8.002   2.463   0.972 -0.6639 -0.5311 -0.2814
  464MOL0     C63959   8.117   2.425   0.958  0.6417 -0.0482 -0.5788
  464MOL0     C63960   7.413   2.260   1.414  0.1529  0.3221 -0.3706
  464MOL0     C63961   7.293   2.191   1.399  0.8698 -0.5999 -0.1894
  464MOL0     C63962   7.196   2.196   1.513 -0.1036  1.2158  0.3913
  464MOL0     H63963   6.888   2.077   1.099  1.1695 -4.1056  0.9297
  464MOL0     H63964   6.643   2.037   1.101 -0.1462  4.0710 -2.2991
  464MOL0     H63965   6.476   1.885   1.206 -0.9249 -0.5593  0.0495
  464MOL0     H63966   6.401   2.051   1.169 -1.3725  0.5951  0.5673
  464MOL0     H63967   6.250   2.010   1.353  0.8006 -1.1828  1.7050
  464MOL0     H63968   6.230   1.896   1.216 -3.4373 -1.7662  3.0495
  464MOL0     H63969   6.336   1.700   1.345 -0.3227  0.9153 -2.4048
  464MOL0     H63970   6.377   1.819   1.465  0.1923  3.6837 -0.4862
  464MOL0     H63971   6.167   1.841   1.542  0.0044  2.5869 -1.1771
  464MOL0     H63972   6.090   1.807   1.391 -0.2104 -0.5156 -0.4366
  464MOL0     H63973   6.236   1.575   1.529  0.1733 -2.4282 -1.8524
  464MOL0     H63974   6.127   1.558   1.412 -0.6890 -3.7928  3.3309
  464MOL0     H63975   6.065   1.662   1.692  0.4614  1.7776 -0.6987
  464MOL0     H63976   5.945   1.649   1.559 -0.0938 -1.2858  0.2551
  464MOL0     H63977   6.015   1.422   1.723 -0.9407  2.1691  0.7107
  464MOL0     H63978   6.102   1.402   1.570 -0.9589 -0.6052 -2.1018
  464MOL0     H63979   5.802   1.407   1.611  1.5665 -3.2239  2.2144
  464MOL0     H63980   5.875   1.458   1.455  2.5403  0.5506 -0.2795
  464MOL0     H63981   6.032   1.285   1.352 -0.9287  0.2463 -1.5776
  464MOL0     H63982   6.162   0.938   1.411  0.4538  3.3426  3.0135
  464MOL0     H63983   6.155   1.067   1.291  0.3198 -1.2334 -0.3142
  464MOL0     H63984   5.950   0.952   1.198 -0.1556 -1.0250 -0.3820
  464MOL0     H63985   6.097   0.856   1.181 -3.4075  2.2899 -3.6132
  464MOL0     H63986   6.032   0.679   1.308  3.4625  0.6290  1.5784
  464MOL0     H63987   5.993   0.781   1.437 -0.2048  0.1734  0.3895
  464MOL0     H63988   5.770   0.838   1.344  1.8358  1.4206 -0.9010
  464MOL0     H63989   5.813   0.744   1.202 -0.6154 -0.2022 -0.3121
  464MOL0     H63990   5.710   0.413   1.451 -0.2662 -0.5039  0.2136
  464MOL0     H63991   5.722   0.242   1.586  1.7634  0.7967 -0.4111
  464MOL0     H63992   5.621   0.271   1.731  2.1102 -0.8148  3.4663
  464MOL0     H63993   5.797   0.255   1.739 -2.2568 -2.1533  1.6358
  464MOL0     H63994   5.639   0.805   2.106  1.4620 -1.2069  0.4433
  464MOL0     H63995   5.530   0.806   2.335  1.0218  0.4042 -0.4372
  464MOL0     H63996   5.484   0.755   2.624 -1.8389 -2.3248  2.6528
  464MOL0     H63997   5.397   0.706   2.463 -3.5567 -2.7613 -0.2833
  464MOL0     H63998   5.442   0.535   2.714  0.8515  0.0004 -0.7501
  464MOL0     H63999   5.309   0.639   2.696  1.3252  0.8700  0.1153
  464MOL0     H64000   5.401   0.420   2.506  2.0862  0.5829  3.9185
  464MOL0     H64001   5.269   0.543   2.476  0.2812  1.1892  0.4000
  464MOL0     H64002   5.139   0.379   2.531 -3.6279  2.4926  0.8241
  464MOL0     H64003   5.164   0.458   2.685  1.1454 -1.4596  0.1278
  464MOL0     H64004   5.311   0.211   2.573  1.7494  3.5364 -2.0070
  464MOL0     H64005   5.350   0.291   2.726  0.5995 -2.1700 -0.1707
  464MOL0     H64006   5.090   0.142   2.671  0.5353 -3.9204  2.9397
  464MOL0     H64007   5.140   0.233   2.825 -0.9432  0.5793  0.0386
  464MOL0     H64008   5.189  -0.017   2.844  0.6787 -1.8888 -2.2350
  464MOL0     H64009   5.338   0.080   2.846  0.3717 -0.9290  0.7927
  464MOL0     H64010   5.409  -0.004   2.656  1.3128 -0.8256  2.4679
  464MOL0     H64011   5.242  -0.039   2.588  2.9294  2.1389 -1.7148
  464MOL0     H64012   5.761   0.446   2.409 -0.4457  0.3135  0.2606
  464MOL0     H64013   5.828   0.431   2.175  2.5666  1.4725  0.2626
  464MOL0     H64014   5.807   0.750   1.800 -0.6743  2.7609 -0.6822
  464MOL0     H64015   5.806   0.821   1.573  0.3819 -0.1465  1.2040
  464MOL0     H64016   6.671   2.089   1.539  1.7837 -0.2601  1.4153
  464MOL0     H64017   6.909   2.183   1.501  2.2881 -1.0799 -1.6105
  464MOL0     H64018   7.349   2.054   1.091 -0.7044  0.8340 -0.5398
  464MOL0     H64019   7.562   2.159   1.122  2.4831 -1.5047  2.6024
  464MOL0     H64020   7.501   2.486   1.282  1.1128  2.0268 -3.0705
  464MOL0     H64021   7.646   2.521   1.374 -3.2804 -0.2531  1.8699
  464MOL0     H64022   7.645   2.592   1.144 -4.6578  0.6157  4.1342
  464MOL0     H64023   7.615   2.441   1.069  0.0256  2.4457 -1.2617
  464MOL0     H64024   7.852   2.537   1.223  0.2122 -1.0020 -1.1983
  464MOL0     H64025   7.829   2.367   1.186  0.6789 -0.6254  0.5636
  464MOL0     H64026   7.832   2.589   0.971 -1.8607  0.2480  1.4716
  464MOL0     H64027   7.799   2.414   0.946  0.1412 -3.4293  3.1685
  464MOL0     H64028   8.218   2.391   0.945  1.0060 -0.4828  2.5382
  464MOL0     H64029   7.420   2.338   1.489  0.1472  0.8613 -0.9236
  464MOL0     H64030   7.129   2.276   1.482  0.1849  2.0496  1.8380
  464MOL0     H64031   7.156   2.095   1.529  4.3775 -0.8157  0.4811
  464MOL0     H64032   7.241   2.221   1.609 -0.7883  0.5176  0.9069
  465MOL0     O64033   0.986   1.619   2.286 -0.2804  0.2176 -0.4307
  465MOL0     C64034   0.928   1.513   2.325 -0.0417  0.5828  0.2162
  465MOL0     O64035   0.846   1.431   2.238 -0.5467  0.1455  0.4800
  465MOL0     C64036   0.886   1.436   2.110  0.0019 -0.6890  0.5041
  465MOL0     C64037   0.979   1.343   2.056 -0.2114  0.6749 -0.3489
  465MOL0     C64038   1.026   1.352   1.925  0.4677  0.7623 -0.7669
  465MOL0     C64039   0.964   1.445   1.834 -0.6456 -0.0243  0.3345
  465MOL0     O64040   0.994   1.454   1.696 -0.8844 -0.4010 -0.1181
  465MOL0     C64041   1.123   1.408   1.644 -0.3124  0.1593 -0.4381
  465MOL0     C64042   1.158   1.478   1.524  0.3739 -0.6912  0.6611
  465MOL0     C64043   1.064   1.443   1.410 -0.7001 -0.5929 -0.1905
  465MOL0     C64044   1.118   1.330   1.326 -0.5159 -0.3041  0.5970
  465MOL0     C64045   1.014   1.271   1.233 -0.6493 -0.3404  0.4342
  465MOL0     C64046   1.033   1.127   1.220 -0.2720  0.9269  0.3375
  465MOL0     C64047   1.159   1.072   1.152  0.8305 -0.7728  0.2690
  465MOL0     C64048   1.149   0.929   1.116 -0.6606  0.4946 -0.4437
  465MOL0     N64049   1.273   0.881   1.068  0.2365  0.8040  0.5197
  465MOL0     C64050   1.367   0.809   1.138  0.8909 -0.0941 -1.1906
  465MOL0     C64051   1.479   0.808   1.067  0.5915  0.7695 -0.1043
  465MOL0     C64052   1.603   0.735   1.085  0.6239  0.2051 -0.1331
  465MOL0     C64053   1.714   0.829   1.120 -1.4917  0.0728 -0.4195
  465MOL0     C64054   1.851   0.790   1.048 -0.2904  0.1874 -0.8495
  465MOL0     C64055   1.861   0.817   0.899 -0.5019  0.1639  0.4051
  465MOL0     O64056   1.993   0.805   0.843  0.2543 -0.4373  0.0470
  465MOL0     C64057   2.009   0.824   0.718 -0.3091  1.1559 -0.2824
  465MOL0     C64058   1.982   0.724   0.626  1.0541  0.0492  0.2147
  465MOL0     C64059   1.988   0.748   0.493 -0.8997 -0.4907 -0.2597
  465MOL0     C64060   1.961   0.612   0.416  0.1396 -0.8863  0.3354
  465MOL0     C64061   2.018   0.878   0.446 -0.3216  0.6278  0.3375
  465MOL0     C64062   2.020   0.903   0.301  0.3157 -0.2036  0.2300
  465MOL0     O64063   2.121   0.977   0.258  0.2342 -0.3928 -0.5114
  465MOL0     C64064   2.141   1.009   0.127  0.7145  0.1152 -0.0302
  465MOL0     C64065   2.058   1.108   0.071  0.2227 -0.2110 -0.2543
  465MOL0     C64066   2.095   1.160  -0.050  0.4853 -0.3467 -0.8887
  465MOL0     C64067   2.201   1.097  -0.125  1.1590  0.4298 -0.2957
  465MOL0     O64068   2.252   1.129  -0.249 -0.1505  0.3049  0.9453
  465MOL0     C64069   2.202   1.249  -0.301  0.9525 -1.1732 -0.1521
  465MOL0     C64070   2.274   1.288  -0.429  0.0592  0.1891  0.7004
  465MOL0     C64071   2.420   1.321  -0.416  0.0691  0.4808  0.4395
  465MOL0     C64072   2.489   1.327  -0.556  0.5139  0.8092 -0.4725
  465MOL0     C64073   2.510   1.190  -0.630 -0.9175 -0.1235 -0.4714
  465MOL0     C64074   2.579   1.228  -0.758  0.1491 -1.3283  0.2958
  465MOL0     C64075   2.653   1.111  -0.834  0.0487 -0.1058  0.1517
  465MOL0     C64076   2.586   1.064  -0.968 -0.0907 -0.2382 -2.0463
  465MOL0    Cl64077   2.663   0.910  -1.041  0.0552 -0.3793 -0.0901
  465MOL0     C64078   2.277   0.990  -0.066  0.8184 -0.5796 -0.1392
  465MOL0     C64079   2.247   0.955   0.067 -0.2972  0.3533  0.5218
  465MOL0     O64080   1.926   0.865   0.231  0.9920  0.0782 -0.2126
  465MOL0     C64081   2.058   0.976   0.540  0.1857  0.8591  0.5608
  465MOL0     C64082   2.047   0.952   0.675  0.2190 -0.4885 -0.0328
  465MOL0     N64083   1.451   0.886   0.955 -0.2484  0.4300 -0.9561
  465MOL0     N64084   1.332   0.924   0.948 -0.1943 -0.3529 -0.0464
  465MOL0     C64085   0.871   1.536   1.883 -0.1012 -0.2268 -0.1482
  465MOL0     C64086   0.837   1.536   2.023  0.5422  0.5619 -0.2523
  465MOL0     C64087   0.953   1.463   2.465 -0.5290 -0.2768  0.2157
  465MOL0     C64088   0.905   1.334   2.512  0.4115 -0.0444 -1.4953
  465MOL0     C64089   0.927   1.283   2.644  0.5375  0.0732  0.1337
  465MOL0     C64090   0.992   1.356   2.746  0.0962  0.2949  1.4159
  465MOL0     O64091   1.018   1.297   2.862  0.0734  0.9086  0.0504
  465MOL0     C64092   1.109   1.346   2.964 -0.4865  0.0447 -0.7004
  465MOL0     C64093   1.050   1.455   3.053 -0.0777 -0.7712  0.3864
  465MOL0     C64094   0.922   1.428   3.136 -0.2050  0.5141  0.2363
  465MOL0     C64095   0.875   1.569   3.188 -0.1388  0.1040 -0.4749
  465MOL0     C64096   0.722   1.571   3.221 -0.3805  1.2206 -0.2745
  465MOL0     C64097   0.602   1.582   3.240  0.6625 -0.3573 -0.3182
  465MOL0     C64098   1.040   1.481   2.707  0.2012 -0.3767 -0.1374
  465MOL0     C64099   1.025   1.535   2.575 -1.1007  0.0218 -0.9461
  465MOL0     C64100   1.077   1.680   2.562  0.0609  1.0940  0.1837
  465MOL0     H64101   1.022   1.270   2.125  2.6735  2.7293  0.2268
  465MOL0     H64102   1.099   1.282   1.886 -1.8033 -2.7404  0.7374
  465MOL0     H64103   1.106   1.301   1.627  1.9007 -0.1082 -1.3941
  465MOL0     H64104   1.208   1.422   1.712 -0.3678 -0.2636 -0.2779
  465MOL0     H64105   1.146   1.585   1.547 -1.2690 -0.0054 -2.6173
  465MOL0     H64106   1.259   1.467   1.484  0.4401  3.9270 -1.0901
  465MOL0     H64107   0.967   1.424   1.456 -1.4000  1.9630 -0.4618
  465MOL0     H64108   1.062   1.528   1.341 -0.1321 -2.4654 -2.6807
  465MOL0     H64109   1.208   1.352   1.267 -1.5308  5.5020  0.6244
  465MOL0     H64110   1.165   1.262   1.397  2.5057  1.3229  0.3352
  465MOL0     H64111   1.030   1.321   1.138 -1.9825  0.6130  0.6861
  465MOL0     H64112   0.913   1.290   1.272 -0.5984 -0.1779  0.4884
  465MOL0     H64113   1.017   1.091   1.323  0.3813 -0.1470  0.0860
  465MOL0     H64114   0.949   1.089   1.161 -0.0100 -0.4382  0.7908
  465MOL0     H64115   1.240   1.083   1.225  1.0614  0.2106 -0.1226
  465MOL0     H64116   1.186   1.138   1.070  0.7522  0.8296  1.4807
  465MOL0     H64117   1.131   0.864   1.203  0.5788 -0.2711 -0.7404
  465MOL0     H64118   1.067   0.907   1.046 -1.1151 -1.7133  0.6790
  465MOL0     H64119   1.355   0.750   1.229  1.1029  1.0810 -0.3720
  465MOL0     H64120   1.629   0.677   0.996 -1.1980 -1.8781  0.6007
  465MOL0     H64121   1.582   0.653   1.155  0.1604 -0.8695 -1.4779
  465MOL0     H64122   1.684   0.931   1.096 -1.6311  0.1264 -0.0151
  465MOL0     H64123   1.725   0.811   1.227  1.5857 -3.1143 -1.0904
  465MOL0     H64124   1.940   0.833   1.096 -0.1686  1.4242 -2.1198
  465MOL0     H64125   1.861   0.683   1.064 -4.7298 -0.5554 -1.8725
  465MOL0     H64126   1.788   0.751   0.850  0.6659 -0.4997 -0.4981
  465MOL0     H64127   1.822   0.916   0.875  0.4389  0.8344  1.5218
  465MOL0     H64128   1.958   0.624   0.661  3.5312 -0.5852  0.2343
  465MOL0     H64129   1.917   0.630   0.317 -0.9507  1.7997  1.2236
  465MOL0     H64130   1.904   0.535   0.470  0.6751 -0.5758  1.3588
  465MOL0     H64131   2.057   0.571   0.385  0.6711 -0.4538  1.3858
  465MOL0     H64132   1.976   1.141   0.135  0.3030 -1.3043  0.4431
  465MOL0     H64133   2.034   1.245  -0.079  1.2267  1.0186  1.3308
  465MOL0     H64134   2.094   1.241  -0.315  1.3497 -3.4689 -2.9485
  465MOL0     H64135   2.227   1.331  -0.234  2.2255  2.0707 -4.1712
  465MOL0     H64136   2.268   1.199  -0.493  2.6293  1.3397 -1.3115
  465MOL0     H64137   2.216   1.370  -0.473 -0.2714  0.1848  1.1141
  465MOL0     H64138   2.474   1.241  -0.364 -0.7286  0.1490  0.7617
  465MOL0     H64139   2.435   1.421  -0.375 -1.6383  0.7106  0.5505
  465MOL0     H64140   2.586   1.375  -0.539  0.8135 -0.5887  2.3179
  465MOL0     H64141   2.434   1.394  -0.623 -5.5507  0.0901  2.9982
  465MOL0     H64142   2.577   1.125  -0.573 -0.4494  1.6352  1.0638
  465MOL0     H64143   2.417   1.133  -0.642 -1.1828 -0.6170  3.0080
  465MOL0     H64144   2.655   1.305  -0.746  0.1109 -1.0426 -1.1037
  465MOL0     H64145   2.489   1.263  -0.808  0.0529  1.5959  2.2617
  465MOL0     H64146   2.662   1.021  -0.773  1.6504  0.2816  0.5331
  465MOL0     H64147   2.759   1.134  -0.844  0.4346 -1.3104  1.1914
  465MOL0     H64148   2.594   1.145  -1.040  4.9767  0.3871 -1.1448
  465MOL0     H64149   2.480   1.053  -0.941 -0.2769  1.3785 -1.9840
  465MOL0     H64150   2.363   0.937  -0.105  1.0821 -0.6583  0.5356
  465MOL0     H64151   2.311   0.879   0.110  1.6519  1.9565  0.5794
  465MOL0     H64152   2.083   1.074   0.501  1.7698 -0.6913 -2.7134
  465MOL0     H64153   2.070   1.036   0.740  1.3994 -1.1577  0.4505
  465MOL0     H64154   0.830   1.615   1.819 -0.0119 -0.7062 -0.8084
  465MOL0     H64155   0.768   1.614   2.052 -1.1049 -2.1432  4.0860
  465MOL0     H64156   0.850   1.263   2.451 -1.8751 -0.1054  0.4942
  465MOL0     H64157   0.907   1.177   2.655  4.6112 -0.9505 -0.5680
  465MOL0     H64158   1.136   1.271   3.039  2.5700  1.7646  0.0862
  465MOL0     H64159   1.201   1.391   2.926  1.3197 -1.1663  1.9137
  465MOL0     H64160   1.017   1.538   2.989  3.0265  0.2648 -0.0545
  465MOL0     H64161   1.130   1.502   3.110  1.5921 -2.5680 -0.3397
  465MOL0     H64162   0.847   1.384   3.069  0.4859  0.0272 -0.2418
  465MOL0     H64163   0.935   1.369   3.227 -0.6033  2.0802  1.3564
  465MOL0     H64164   0.905   1.647   3.117  1.9908 -2.1324 -2.2034
  465MOL0     H64165   0.931   1.592   3.280  0.3279 -0.6720 -0.5508
  465MOL0     H64166   0.498   1.597   3.259  0.9006  0.2643  0.5404
  465MOL0     H64167   1.090   1.551   2.772 -2.9832  2.7187 -0.7343
  465MOL0     H64168   1.158   1.687   2.635  1.2205 -0.8727 -0.8273
  465MOL0     H64169   1.121   1.706   2.466  2.3659  1.1305  1.1950
  465MOL0     H64170   0.998   1.750   2.589  0.9476  0.7361  4.3141
  466MOL0     O64171  10.195   2.249   8.533  0.4358 -0.0051  0.0692
  466MOL0     C64172  10.090   2.205   8.484  0.2740 -0.5133 -0.4737
  466MOL0     O64173  10.071   2.169   8.351  0.0916  0.9287  0.2033
  466MOL0     C64174  10.173   2.198   8.267 -0.6880  0.7133 -0.0907
  466MOL0     C64175  10.135   2.295   8.173  0.0910 -0.7422 -0.0599
  466MOL0     C64176  10.209   2.311   8.062  0.1354  0.5791  0.4279
  466MOL0     C64177  10.327   2.232   8.042  0.3224  0.2851 -0.0543
  466MOL0     O64178  10.401   2.255   7.929 -0.3321  0.1473 -0.3945
  466MOL0     C64179  10.529   2.195   7.908 -0.2316  0.4394  0.1086
  466MOL0     C64180  10.649   2.235   8.008  0.7112 -0.0411 -0.2102
  466MOL0     C64181  10.674   2.387   8.011 -0.1310 -0.0767 -1.0169
  466MOL0     C64182  10.794   2.421   8.104 -0.7901 -1.2990 -0.0316
  466MOL0     C64183  10.822   2.579   8.127  0.3206  0.4283  0.3524
  466MOL0     C64184  10.942   2.598   8.220 -1.1428 -0.5570 -0.1338
  466MOL0     C64185  10.951   2.747   8.271  0.4889  0.6425 -0.0825
  466MOL0     C64186  11.083   2.785   8.344  0.3530 -0.5406 -0.0180
  466MOL0     N64187  11.196   2.793   8.252  0.0022  0.0230 -0.2350
  466MOL0     C64188  11.275   2.701   8.196 -0.4995 -0.0210 -0.2255
  466MOL0     C64189  11.377   2.757   8.128 -0.7639  0.4906  0.7777
  466MOL0     C64190  11.468   2.684   8.030  0.0892 -0.3933 -0.6086
  466MOL0     C64191  11.420   2.715   7.886  0.1397 -0.3825  0.1487
  466MOL0     C64192  11.511   2.639   7.789 -0.9339 -0.3175  0.4260
  466MOL0     C64193  11.458   2.651   7.650  0.3387  0.5430  1.3178
  466MOL0     O64194  11.489   2.782   7.593  0.5535  0.5900  0.2595
  466MOL0     C64195  11.571   2.771   7.484 -0.6907 -0.1332 -1.1916
  466MOL0     C64196  11.699   2.820   7.490 -0.0834 -0.4269  0.4798
  466MOL0     C64197  11.781   2.824   7.377  0.5451 -0.3669  0.5462
  466MOL0     C64198  11.923   2.874   7.408 -0.8327  0.5215  0.4239
  466MOL0     C64199  11.737   2.765   7.252  0.5906  0.0169  0.7372
  466MOL0     C64200  11.824   2.776   7.128 -0.3170  0.8153  0.3706
  466MOL0     O64201  11.816   2.667   7.042  0.0322 -0.6612  0.1645
  466MOL0     C64202  11.865   2.670   6.913  0.2138  1.0387  0.0872
  466MOL0     C64203  11.849   2.546   6.871  0.0741 -0.1138  0.4263
  466MOL0     C64204  11.884   2.504   6.738 -0.0752  0.4174  0.6030
  466MOL0     C64205  11.943   2.597   6.653 -0.4757 -0.4364 -0.3826
  466MOL0     O64206  11.926   2.577   6.518 -0.7168 -0.6227  1.0050
  466MOL0     C64207  12.016   2.657   6.437  0.3878  0.1933  0.7007
  466MOL0     C64208  12.040   2.586   6.304  0.2505 -0.3177 -0.3927
  466MOL0     C64209  11.919   2.523   6.241 -0.4125  1.0451  0.3457
  466MOL0     C64210  11.912   2.538   6.090 -0.4013 -0.4452  0.0122
  466MOL0     C64211  11.780   2.482   6.037 -0.4010  0.7238 -0.5963
  466MOL0     C64212  11.769   2.485   5.883 -0.2810  1.0911  0.0907
  466MOL0     C64213  11.629   2.475   5.828 -0.4919 -0.2019 -0.8856
  466MOL0     C64214  11.611   2.497   5.682 -0.6193 -0.3514  0.0020
  466MOL0    Cl64215  11.717   2.396   5.571  0.3234 -0.1146  0.0778
  466MOL0     C64216  11.976   2.734   6.709 -0.7036  0.4931  0.9064
  466MOL0     C64217  11.933   2.770   6.835 -0.1011  0.1227 -0.4067
  466MOL0     O64218  11.890   2.875   7.108 -0.1894 -0.2015 -0.1307
  466MOL0     C64219  11.612   2.708   7.251  0.4030  0.0566 -0.0351
  466MOL0     C64220  11.538   2.701   7.370  0.2804 -0.3743 -0.5294
  466MOL0     N64221  11.359   2.893   8.134 -0.3695 -0.3012  0.6520
  466MOL0     N64222  11.248   2.913   8.204 -0.1388  0.0577  0.3470
  466MOL0     C64223  10.361   2.128   8.131 -0.3972  0.0916 -0.4345
  466MOL0     C64224  10.271   2.105   8.242 -0.1313  0.7112  0.3895
  466MOL0     C64225   9.992   2.198   8.595 -0.0402  0.3703  0.7109
  466MOL0     C64226  10.014   2.285   8.702 -0.3878  0.2898 -1.1303
  466MOL0     C64227   9.922   2.303   8.804 -0.0536 -0.5246  0.2175
  466MOL0     C64228   9.805   2.225   8.813  0.0715  0.1522 -0.7217
  466MOL0     O64229   9.723   2.265   8.918  0.3070  0.5076  0.4026
  466MOL0     C64230   9.580   2.223   8.916 -0.2455  0.3800  0.9461
  466MOL0     C64231   9.490   2.288   8.809  0.5727  1.0249 -0.0549
  466MOL0     C64232   9.353   2.238   8.828 -1.2721  0.2383 -0.1681
  466MOL0     C64233   9.257   2.258   8.715 -0.3901  0.2112  0.0192
  466MOL0     C64234   9.277   2.378   8.636  0.0301 -0.7651  0.3891
  466MOL0     C64235   9.285   2.470   8.556 -0.2856  0.1391 -1.0287
  466MOL0     C64236   9.775   2.132   8.718  0.8330 -0.3071 -0.3062
  466MOL0     C64237   9.869   2.122   8.603  0.4859  0.1078 -1.8234
  466MOL0     C64238   9.845   2.014   8.504 -0.7052 -0.5732 -0.6809
  466MOL0     H64239  10.047   2.353   8.200  1.0917  1.3409 -1.0549
  466MOL0     H64240  10.196   2.396   7.996  3.0185  0.9885  0.2371
  466MOL0     H64241  10.558   2.207   7.803 -1.5228 -0.9904 -0.4481
  466MOL0     H64242  10.533   2.086   7.913 -0.2732  0.4658  0.7680
  466MOL0     H64243  10.626   2.182   8.100  5.3200 -1.5731  0.3265
  466MOL0     H64244  10.735   2.176   7.977  1.8551  0.2974  2.0943
  466MOL0     H64245  10.692   2.432   7.913 -1.3304  2.0557 -0.3244
  466MOL0     H64246  10.590   2.431   8.065  1.3615 -0.5378  1.8814
  466MOL0     H64247  10.784   2.370   8.201  1.5146  0.2246  1.1023
  466MOL0     H64248  10.888   2.381   8.065 -0.6557 -0.4157 -0.6311
  466MOL0     H64249  10.730   2.616   8.172 -1.3952 -1.4285 -1.3890
  466MOL0     H64250  10.840   2.623   8.028  1.9187  1.4416  1.0496
  466MOL0     H64251  10.928   2.537   8.310  0.4874 -1.1584 -0.2634
  466MOL0     H64252  11.027   2.560   8.163 -1.3705 -1.3135  0.0196
  466MOL0     H64253  10.872   2.771   8.343  0.7093 -2.1665  1.2156
  466MOL0     H64254  10.955   2.815   8.185  1.2401 -0.9300 -1.3360
  466MOL0     H64255  11.079   2.878   8.401 -0.8734 -1.0738  0.8040
  466MOL0     H64256  11.105   2.697   8.405 -1.0285 -0.3182  0.8379
  466MOL0     H64257  11.242   2.597   8.199  2.6375 -1.1196 -0.4003
  466MOL0     H64258  11.470   2.577   8.051 -0.4648 -0.2351  0.3006
  466MOL0     H64259  11.567   2.722   8.055  0.7970 -2.1512 -0.5735
  466MOL0     H64260  11.314   2.698   7.865  0.2766  0.6422 -1.5492
  466MOL0     H64261  11.447   2.820   7.873  0.7086 -0.3040  1.6651
  466MOL0     H64262  11.614   2.677   7.792 -0.3032 -1.4502 -3.0496
  466MOL0     H64263  11.511   2.536   7.824 -1.7504  0.2334  2.1804
  466MOL0     H64264  11.503   2.574   7.586  0.4945  2.2476 -0.6957
  466MOL0     H64265  11.349   2.639   7.654  0.5143 -0.9184  3.0301
  466MOL0     H64266  11.739   2.856   7.584 -0.4856 -1.7980  1.2070
  466MOL0     H64267  11.995   2.809   7.359 -2.8027 -1.6898  0.2666
  466MOL0     H64268  11.948   2.877   7.515  1.8901  0.1658 -0.1449
  466MOL0     H64269  11.931   2.973   7.361 -2.0191  1.8620  2.8274
  466MOL0     H64270  11.792   2.470   6.924 -3.8324  1.2407 -1.4003
  466MOL0     H64271  11.861   2.410   6.690  0.3349 -0.2129  1.6207
  466MOL0     H64272  11.964   2.750   6.412 -1.5929 -0.3663  2.4005
  466MOL0     H64273  12.112   2.687   6.481 -0.6075  1.1208  2.3324
  466MOL0     H64274  12.097   2.651   6.236 -0.7126 -0.7045 -1.6097
  466MOL0     H64275  12.117   2.512   6.326  0.8989  0.2516 -0.7101
  466MOL0     H64276  11.841   2.586   6.285 -1.8852 -0.9508  0.6999
  466MOL0     H64277  11.921   2.416   6.258 -0.9397  0.3489 -3.1119
  466MOL0     H64278  11.998   2.495   6.038  0.0413 -0.0273  0.3793
  466MOL0     H64279  11.917   2.645   6.064  0.3338  0.0435  1.9745
  466MOL0     H64280  11.772   2.375   6.061 -1.6507  0.8056 -0.5884
  466MOL0     H64281  11.700   2.533   6.091 -1.2496 -0.8443 -0.2966
  466MOL0     H64282  11.838   2.420   5.829 -0.3066 -1.1792  2.5942
  466MOL0     H64283  11.795   2.588   5.855 -0.0242  0.6703 -1.2378
  466MOL0     H64284  11.567   2.551   5.877  0.0361 -1.6694  2.3590
  466MOL0     H64285  11.586   2.377   5.850  1.4913 -0.5987  1.6276
  466MOL0     H64286  11.637   2.601   5.658 -4.4069  0.5043 -1.1691
  466MOL0     H64287  11.506   2.489   5.653 -1.2086  1.8441  1.2750
  466MOL0     H64288  12.030   2.807   6.650  0.3704 -1.3122 -0.4482
  466MOL0     H64289  11.954   2.867   6.878  2.1184 -0.2903 -0.4734
  466MOL0     H64290  11.579   2.676   7.153 -0.2050  0.6564 -0.0286
  466MOL0     H64291  11.440   2.654   7.376  0.0199  0.4005  2.2663
  466MOL0     H64292  10.447   2.062   8.142 -1.8250 -1.8080 -0.0329
  466MOL0     H64293  10.285   2.027   8.315 -1.6035  0.5549  0.5289
  466MOL0     H64294  10.101   2.350   8.698  0.8172 -1.1548  0.2026
  466MOL0     H64295   9.945   2.390   8.864  1.8227 -0.3727 -0.6238
  466MOL0     H64296   9.575   2.118   8.885 -2.2547  1.3912 -2.7599
  466MOL0     H64297   9.547   2.227   9.020  1.3973 -2.8818  1.7125
  466MOL0     H64298   9.534   2.266   8.712 -0.8139  0.1355 -0.5119
  466MOL0     H64299   9.482   2.397   8.819 -2.4145  0.8784  0.1772
  466MOL0     H64300   9.362   2.131   8.853  1.3691  0.8977  2.1910
  466MOL0     H64301   9.305   2.280   8.917 -1.1242  2.2191 -0.9785
  466MOL0     H64302   9.153   2.255   8.750 -0.7018  1.4463 -0.7254
  466MOL0     H64303   9.272   2.182   8.638  3.2634  2.7406 -2.0722
  466MOL0     H64304   9.297   2.548   8.483  0.6473 -0.3954 -1.4612
  466MOL0     H64305   9.686   2.070   8.719  1.0640 -0.7729 -2.5775
  466MOL0     H64306   9.766   1.944   8.530 -2.4462  1.0180 -1.3798
  466MOL0     H64307   9.816   2.060   8.408  1.4674  1.8374 -0.3079
  466MOL0     H64308   9.940   1.963   8.491  0.2719  1.1171 -0.4913
  467MOL0     O64309   2.307   7.955   5.193  0.2395  0.2412  0.3317
  467MOL0     C64310   2.394   7.924   5.114 -0.1398 -0.1517  0.5474
  467MOL0     O64311   2.376   7.901   4.981 -0.2374 -0.2248 -0.2150
  467MOL0     C64312   2.266   7.971   4.933  0.3373  0.2189  0.0097
  467MOL0     C64313   2.137   7.913   4.934  0.2845  0.7834  0.1018
  467MOL0     C64314   2.031   7.967   4.852 -0.2571  0.1130 -0.2343
  467MOL0     C64315   2.056   8.082   4.783 -0.7136 -0.0566  1.6059
  467MOL0     O64316   1.954   8.135   4.707 -0.2877 -0.2060  0.4785
  467MOL0     C64317   1.977   8.225   4.599  0.2888 -0.2765  0.4158
  467MOL0     C64318   1.850   8.230   4.514  0.3378 -1.1879 -0.2406
  467MOL0     C64319   1.833   8.344   4.417  0.1120  0.1349  0.2072
  467MOL0     C64320   1.701   8.328   4.344  0.1355 -0.1053  1.7286
  467MOL0     C64321   1.680   8.454   4.263 -0.6036 -0.3929 -1.1698
  467MOL0     C64322   1.776   8.473   4.149  0.2297 -0.1542  1.4015
  467MOL0     C64323   1.734   8.598   4.052 -0.4747  0.7975  0.2088
  467MOL0     C64324   1.850   8.689   4.024  0.0879 -0.4318 -0.1750
  467MOL0     N64325   1.950   8.622   3.940  0.1501  0.2981 -0.1768
  467MOL0     C64326   1.922   8.601   3.804 -0.6781  0.2171 -0.5367
  467MOL0     C64327   2.014   8.508   3.765 -0.0114 -0.2077  0.1518
  467MOL0     C64328   2.019   8.460   3.633 -0.9445  0.6776  0.9768
  467MOL0     C64329   1.945   8.320   3.627  0.1552  0.1376  0.3613
  467MOL0     C64330   1.940   8.265   3.481 -0.3167  0.2169 -0.0357
  467MOL0     C64331   1.865   8.366   3.385 -0.0283  0.4509  0.0302
  467MOL0     O64332   1.805   8.275   3.292  0.5255 -0.1624  0.2339
  467MOL0     C64333   1.742   8.334   3.185  0.5714 -1.4149  0.1932
  467MOL0     C64334   1.638   8.275   3.128 -0.0929  0.0045  0.6700
  467MOL0     C64335   1.575   8.340   3.019 -0.0421  0.2118  0.7330
  467MOL0     C64336   1.473   8.264   2.942  0.3145  0.2811  0.1431
  467MOL0     C64337   1.622   8.468   2.972  0.3731 -0.8243 -0.9434
  467MOL0     C64338   1.568   8.554   2.865  1.6182  0.6525  0.5997
  467MOL0     O64339   1.648   8.607   2.772  0.0324 -0.0942 -0.0327
  467MOL0     C64340   1.616   8.709   2.696 -0.9557 -1.4600 -0.1125
  467MOL0     C64341   1.671   8.831   2.739  0.8179 -1.2668  0.0165
  467MOL0     C64342   1.622   8.952   2.694 -0.5110  0.1208 -0.2200
  467MOL0     C64343   1.527   8.946   2.591  0.5669  0.6385 -0.2963
  467MOL0     O64344   1.468   9.065   2.558 -0.4043 -1.0699  0.1542
  467MOL0     C64345   1.411   9.078   2.430 -0.0179  0.2634 -0.7030
  467MOL0     C64346   1.398   9.228   2.411  0.3680 -1.0237 -0.8098
  467MOL0     C64347   1.307   9.272   2.294 -0.2158  0.1478 -0.4030
  467MOL0     C64348   1.160   9.275   2.339 -0.6236 -1.0505 -0.3121
  467MOL0     C64349   1.057   9.327   2.241 -0.6080 -0.0869  0.0420
  467MOL0     C64350   1.075   9.480   2.214  0.9305  0.4832  1.7353
  467MOL0     C64351   1.017   9.513   2.076  0.1934  0.7064 -0.6867
  467MOL0     C64352   1.082   9.642   2.018  0.2736 -0.4050  0.7201
  467MOL0    Cl64353   1.006   9.787   2.105 -0.0348  0.0195 -0.4865
  467MOL0     C64354   1.495   8.819   2.526  0.8361  0.4931  0.4175
  467MOL0     C64355   1.533   8.702   2.586 -0.0906  0.0157  0.1229
  467MOL0     O64356   1.446   8.584   2.880  0.0686  0.0026  0.3465
  467MOL0     C64357   1.733   8.524   3.025 -0.9595  0.0618 -0.5576
  467MOL0     C64358   1.793   8.465   3.135  1.1457  0.9972  0.2532
  467MOL0     N64359   2.100   8.492   3.874 -0.2701 -0.4187 -1.2021
  467MOL0     N64360   2.060   8.559   3.980 -0.4972  0.4726 -0.0843
  467MOL0     C64361   2.180   8.134   4.786  0.0319 -0.3346  0.4935
  467MOL0     C64362   2.288   8.087   4.859 -0.8543 -0.2717 -0.0277
  467MOL0     C64363   2.535   7.939   5.155 -0.6736  1.1160 -0.9197
  467MOL0     C64364   2.620   8.001   5.069  0.1747 -0.8227  0.0458
  467MOL0     C64365   2.754   8.013   5.100  0.2788 -1.1316  0.4761
  467MOL0     C64366   2.806   7.986   5.226  0.4715  1.4055 -0.0633
  467MOL0     O64367   2.934   8.009   5.258  0.1807 -0.1565  0.1202
  467MOL0     C64368   3.002   7.941   5.370 -0.3167  0.4286 -0.0954
  467MOL0     C64369   3.150   7.997   5.393  0.6396  1.1390  1.0399
  467MOL0     C64370   3.229   7.937   5.510  0.3862  0.4292  0.5594
  467MOL0     C64371   3.324   7.828   5.478 -0.0135  0.0286 -0.3063
  467MOL0     C64372   3.446   7.875   5.408  0.2891  0.0164  0.2248
  467MOL0     C64373   3.538   7.900   5.328  0.3748 -0.3972 -0.3310
  467MOL0     C64374   2.721   7.916   5.313 -0.3345  0.1011 -0.8379
  467MOL0     C64375   2.586   7.896   5.286  0.7928 -0.8594 -0.6260
  467MOL0     C64376   2.493   7.837   5.390 -0.5387  1.1979  0.4863
  467MOL0     H64377   2.127   7.829   5.002 -0.4641  1.4199  0.7996
  467MOL0     H64378   1.941   7.906   4.853  1.2073 -2.3346  3.0303
  467MOL0     H64379   2.061   8.191   4.538 -1.0473 -4.1695  0.4607
  467MOL0     H64380   1.985   8.326   4.639 -1.6367 -1.7272  5.3320
  467MOL0     H64381   1.825   8.136   4.465 -1.9601  1.4047 -4.7153
  467MOL0     H64382   1.779   8.258   4.592 -0.6880 -0.2198 -1.4806
  467MOL0     H64383   1.836   8.443   4.464 -0.9508  1.3883 -2.2242
  467MOL0     H64384   1.921   8.339   4.352 -0.9330 -4.5719 -1.2244
  467MOL0     H64385   1.703   8.235   4.287  1.9961  0.0533  1.4737
  467MOL0     H64386   1.617   8.327   4.415 -1.6607  0.0216 -0.2960
  467MOL0     H64387   1.679   8.539   4.331  2.8047 -3.5294  3.4115
  467MOL0     H64388   1.582   8.451   4.214  0.0328  0.6787 -2.6009
  467MOL0     H64389   1.882   8.489   4.170  0.9393  1.6041 -2.6209
  467MOL0     H64390   1.767   8.376   4.100  0.5918 -0.2508  1.5260
  467MOL0     H64391   1.654   8.661   4.093 -1.4063  0.2983 -0.8015
  467MOL0     H64392   1.690   8.562   3.959 -0.7007  1.3900  0.0858
  467MOL0     H64393   1.821   8.781   3.971  2.3034  0.3448 -0.1228
  467MOL0     H64394   1.896   8.734   4.112  1.6082 -2.8145  0.3342
  467MOL0     H64395   1.853   8.658   3.743  1.9361  2.5988 -1.4965
  467MOL0     H64396   2.125   8.456   3.607 -1.2218 -3.2409 -0.3389
  467MOL0     H64397   1.966   8.521   3.560 -0.4281  0.2465  0.2314
  467MOL0     H64398   1.981   8.246   3.699 -2.7644  0.7776  2.6259
  467MOL0     H64399   1.844   8.339   3.662 -2.1229 -0.9565 -4.6760
  467MOL0     H64400   2.045   8.255   3.453  0.5692  1.1086  2.6272
  467MOL0     H64401   1.895   8.166   3.491 -1.7908  0.9356  0.9644
  467MOL0     H64402   1.799   8.429   3.445 -0.2407 -1.4157  1.8908
  467MOL0     H64403   1.940   8.420   3.328 -2.0475 -1.5226 -5.0402
  467MOL0     H64404   1.610   8.178   3.168 -3.1224  2.0999  4.3463
  467MOL0     H64405   1.456   8.317   2.847 -1.3454  0.9656  0.8016
  467MOL0     H64406   1.373   8.265   2.986  0.4704  2.1648  0.5168
  467MOL0     H64407   1.504   8.159   2.932  0.4209  0.4840 -2.6140
  467MOL0     H64408   1.745   8.815   2.817  0.8543  1.6655  0.6985
  467MOL0     H64409   1.653   9.054   2.713  0.5032  0.1845 -2.0038
  467MOL0     H64410   1.467   9.034   2.347 -2.4085 -2.1757 -1.1753
  467MOL0     H64411   1.316   9.026   2.443  0.6415 -0.6505  0.6976
  467MOL0     H64412   1.351   9.263   2.503  0.3698  0.5305 -1.3747
  467MOL0     H64413   1.498   9.272   2.408  0.7727 -1.9420 -2.4365
  467MOL0     H64414   1.326   9.203   2.211  1.8248  0.4525 -0.2374
  467MOL0     H64415   1.331   9.371   2.254 -0.1769 -1.4137 -4.8129
  467MOL0     H64416   1.138   9.336   2.427 -2.4572 -2.9529  0.6323
  467MOL0     H64417   1.144   9.168   2.356 -0.8382 -1.2322 -1.5598
  467MOL0     H64418   1.073   9.261   2.155  2.3798 -3.2944  2.7325
  467MOL0     H64419   0.956   9.307   2.277 -0.7691 -0.7736 -0.7626
  467MOL0     H64420   1.184   9.489   2.212  1.1044 -0.7951 -2.4426
  467MOL0     H64421   1.025   9.552   2.279  0.4927  1.3231  0.4864
  467MOL0     H64422   0.913   9.538   2.099  0.7193  2.5478 -0.1068
  467MOL0     H64423   1.002   9.431   2.006 -2.5544  0.4005  0.1241
  467MOL0     H64424   1.075   9.658   1.910  1.4230 -0.1151  0.6847
  467MOL0     H64425   1.188   9.644   2.043 -0.5236 -2.0521  5.2565
  467MOL0     H64426   1.436   8.800   2.437 -0.5495 -0.8085  1.5514
  467MOL0     H64427   1.507   8.599   2.566 -1.6008  0.4171 -0.0748
  467MOL0     H64428   1.776   8.622   3.007  1.1993 -0.0745  2.9043
  467MOL0     H64429   1.870   8.520   3.187  1.5296  1.2189 -0.5402
  467MOL0     H64430   2.203   8.227   4.735  1.4206 -1.5096 -1.1274
  467MOL0     H64431   2.388   8.124   4.841 -0.7555  1.2566  2.9612
  467MOL0     H64432   2.600   8.035   4.968  1.6555 -3.0238 -1.0757
  467MOL0     H64433   2.809   8.079   5.033 -1.5794 -0.7869 -0.7823
  467MOL0     H64434   2.940   7.967   5.456 -3.6748 -2.0742 -1.5203
  467MOL0     H64435   3.001   7.833   5.348  1.5671  0.4288 -0.3453
  467MOL0     H64436   3.141   8.105   5.411  0.1318  1.4115 -0.6635
  467MOL0     H64437   3.216   7.996   5.305 -0.4886 -1.1396  0.1532
  467MOL0     H64438   3.275   8.021   5.564 -0.7987  0.6044  1.3457
  467MOL0     H64439   3.155   7.896   5.580  0.7759 -1.3792 -0.0440
  467MOL0     H64440   3.273   7.748   5.423  1.2439 -2.1865  1.5793
  467MOL0     H64441   3.356   7.791   5.576 -4.0516  3.3585  2.6444
  467MOL0     H64442   3.607   7.927   5.250 -0.4756 -2.5222 -1.9293
  467MOL0     H64443   2.755   7.873   5.406 -2.1047  2.6651  1.1061
  467MOL0     H64444   2.552   7.773   5.457  2.8956  1.2480 -2.2556
  467MOL0     H64445   2.432   7.909   5.448 -1.6155 -0.2829  1.2704
  467MOL0     H64446   2.423   7.770   5.339 -1.1206  2.6307 -0.6982
  468MOL0     O64447   6.672   8.325   2.470 -0.5950  0.4162  0.0406
  468MOL0     C64448   6.590   8.403   2.424  0.8752  0.2926 -0.7545
  468MOL0     O64449   6.508   8.487   2.500  0.7646 -0.4293 -0.3294
  468MOL0     C64450   6.517   8.493   2.642  0.1548 -0.2161 -1.0202
  468MOL0     C64451   6.401   8.508   2.716  1.0431 -0.4885 -0.1258
  468MOL0     C64452   6.399   8.539   2.852 -0.1966  0.2390 -0.1994
  468MOL0     C64453   6.516   8.554   2.920 -0.8567 -0.4023 -0.0803
  468MOL0     O64454   6.514   8.599   3.049  0.1385 -0.1345  0.2549
  468MOL0     C64455   6.632   8.675   3.090 -0.8387  0.3061 -0.5633
  468MOL0     C64456   6.609   8.772   3.201 -0.7331 -0.8579  0.1820
  468MOL0     C64457   6.596   8.688   3.325  0.2520  0.2657  0.9228
  468MOL0     C64458   6.575   8.775   3.446  0.3152  0.4520 -0.1508
  468MOL0     C64459   6.626   8.707   3.583 -0.3096 -0.5986  0.4226
  468MOL0     C64460   6.776   8.735   3.590 -0.2732  0.8941  0.7360
  468MOL0     C64461   6.823   8.872   3.637 -0.4691 -0.0846  0.6033
  468MOL0     C64462   6.752   8.929   3.758 -0.5851  0.0969 -0.4029
  468MOL0     N64463   6.800   9.058   3.807 -0.2669  0.9607  0.0688
  468MOL0     C64464   6.795   9.167   3.734 -0.6956 -0.7516 -0.4981
  468MOL0     C64465   6.824   9.266   3.827 -0.0892  0.3633  0.4495
  468MOL0     C64466   6.820   9.418   3.808 -0.2169  0.4157  0.0760
  468MOL0     C64467   6.960   9.472   3.807 -0.0592 -0.2124  0.9530
  468MOL0     C64468   6.972   9.622   3.774 -0.2727  1.2233 -0.2722
  468MOL0     C64469   6.884   9.708   3.864 -0.3467 -0.2903  0.1110
  468MOL0     O64470   6.922   9.708   4.003  0.0890  0.6268  0.0323
  468MOL0     C64471   7.039   9.779   4.027  0.2284  1.1795 -0.3348
  468MOL0     C64472   7.160   9.718   4.048 -0.1019 -0.2849 -0.3714
  468MOL0     C64473   7.281   9.795   4.079 -0.9254 -1.0049 -0.2000
  468MOL0     C64474   7.414   9.721   4.105  0.4090  0.3016  0.2925
  468MOL0     C64475   7.280   9.934   4.067  0.5823 -0.3019 -0.1116
  468MOL0     C64476   7.395  10.024   4.065  0.2897  1.1631 -0.6734
  468MOL0     O64477   7.359  10.153   4.100  0.2420 -0.7251 -0.6347
  468MOL0     C64478   7.443  10.259   4.104 -0.7914 -0.5327 -0.6476
  468MOL0     C64479   7.423  10.347   4.208 -0.0437  0.0587  0.5768
  468MOL0     C64480   7.512  10.448   4.239 -0.5905 -0.8296 -0.1430
  468MOL0     C64481   7.631  10.471   4.166 -0.6041 -0.7685  0.3642
  468MOL0     O64482   7.704  10.572   4.216 -0.8584  0.5972 -0.3964
  468MOL0     C64483   7.818  10.617   4.137  0.6389 -0.8295  0.4508
  468MOL0     C64484   7.848  10.770   4.170 -0.0765  0.5446 -0.7675
  468MOL0     C64485   7.968  10.830   4.096 -0.7349  0.3265  0.3034
  468MOL0     C64486   7.955  10.836   3.943  0.2258 -0.1807  0.4501
  468MOL0     C64487   8.098  10.841   3.881 -0.0108 -0.4139 -1.0149
  468MOL0     C64488   8.109  10.808   3.739  0.0614 -0.2535 -0.0167
  468MOL0     C64489   8.249  10.766   3.691  0.2551  0.2081  0.6606
  468MOL0     C64490   8.250  10.775   3.533  0.3466  0.0102  0.3966
  468MOL0    Cl64491   8.355  10.680   3.429 -0.0961 -0.1282  0.4760
  468MOL0     C64492   7.645  10.385   4.051 -0.5987 -0.2895 -0.3510
  468MOL0     C64493   7.558  10.277   4.028  0.0621  1.6095 -0.2534
  468MOL0     O64494   7.514   9.985   4.052  0.0847  0.2285 -0.2697
  468MOL0     C64495   7.148   9.988   4.049  0.2725  0.3159 -0.2897
  468MOL0     C64496   7.027   9.919   4.030  0.1327 -0.5336 -0.2110
  468MOL0     N64497   6.851   9.208   3.949 -0.0103 -1.2004  0.0003
  468MOL0     N64498   6.831   9.080   3.937 -0.0038 -0.7305 -0.0397
  468MOL0     C64499   6.636   8.525   2.851  0.1038  0.4039  0.7833
  468MOL0     C64500   6.635   8.483   2.710  0.3508  0.7645 -0.1622
  468MOL0     C64501   6.571   8.413   2.273 -0.1524 -0.4731  0.0306
  468MOL0     C64502   6.519   8.537   2.218  0.8547 -0.1890  0.2271
  468MOL0     C64503   6.464   8.549   2.104  0.8498 -0.7238  0.0475
  468MOL0     C64504   6.445   8.439   2.024  0.1077  0.6718  0.5452
  468MOL0     O64505   6.373   8.468   1.907  0.0402  0.4113  0.1644
  468MOL0     C64506   6.377   8.362   1.805 -0.0580 -0.2352  0.3374
  468MOL0     C64507   6.329   8.425   1.674  0.2741  0.6660  0.2894
  468MOL0     C64508   6.298   8.324   1.555  0.4883 -0.0637  0.4856
  468MOL0     C64509   6.163   8.242   1.582  0.6098 -0.7448  0.3299
  468MOL0     C64510   6.033   8.313   1.562 -0.6119 -0.8361  0.7614
  468MOL0     C64511   5.934   8.379   1.530  0.1472 -1.1846  0.3262
  468MOL0     C64512   6.506   8.318   2.061 -0.5214 -0.6905  0.6212
  468MOL0     C64513   6.573   8.305   2.185 -0.3654  0.3852  0.2989
  468MOL0     C64514   6.617   8.160   2.213  0.3692 -0.4778  0.6225
  468MOL0     H64515   6.301   8.490   2.676 -0.4735 -1.1470  3.5439
  468MOL0     H64516   6.311   8.555   2.914 -0.8034 -0.9537 -0.7198
  468MOL0     H64517   6.666   8.721   2.997 -1.5667  0.1448 -0.9134
  468MOL0     H64518   6.713   8.609   3.123  1.6719  2.4261 -2.0361
  468MOL0     H64519   6.692   8.843   3.210 -2.2846  1.1700 -0.7484
  468MOL0     H64520   6.526   8.841   3.183 -1.0341  0.1390  4.3059
  468MOL0     H64521   6.504   8.633   3.301 -1.7259  3.8174 -0.3582
  468MOL0     H64522   6.685   8.625   3.328 -0.1011 -0.5380 -1.8789
  468MOL0     H64523   6.607   8.879   3.436  1.2164  0.0171 -2.2147
  468MOL0     H64524   6.466   8.786   3.453  0.0574 -1.2354 -1.0282
  468MOL0     H64525   6.605   8.600   3.589 -2.9016 -0.1783  0.2149
  468MOL0     H64526   6.572   8.748   3.669  0.4038 -1.2710  1.2092
  468MOL0     H64527   6.826   8.668   3.661  1.8014 -0.5376 -1.8440
  468MOL0     H64528   6.821   8.714   3.492 -4.0166  1.2127 -1.2219
  468MOL0     H64529   6.806   8.930   3.546 -1.3681 -2.4287 -0.8146
  468MOL0     H64530   6.931   8.872   3.654 -0.8430  1.4205  3.7491
  468MOL0     H64531   6.644   8.936   3.740 -0.7027 -1.1908 -0.3390
  468MOL0     H64532   6.776   8.854   3.835 -0.6075 -0.0365 -0.5243
  468MOL0     H64533   6.757   9.173   3.633 -1.9391 -3.7093 -0.3065
  468MOL0     H64534   6.760   9.454   3.892  0.3958 -0.3360  0.8429
  468MOL0     H64535   6.772   9.434   3.711 -0.4235 -0.0245  0.1047
  468MOL0     H64536   7.001   9.462   3.908 -0.0676 -3.2817  0.7543
  468MOL0     H64537   7.017   9.403   3.743  1.8255 -0.9287  3.2246
  468MOL0     H64538   7.077   9.646   3.793 -0.6199  1.2621  1.7250
  468MOL0     H64539   6.958   9.634   3.666  4.7308  0.8568 -1.2305
  468MOL0     H64540   6.903   9.812   3.834  2.6171 -0.1244  2.0742
  468MOL0     H64541   6.777   9.696   3.851 -0.8003  2.5535  0.5828
  468MOL0     H64542   7.152   9.610   4.057 -1.1930 -0.1304  0.8532
  468MOL0     H64543   7.389   9.615   4.112  1.3192  0.1692  2.1679
  468MOL0     H64544   7.445   9.748   4.206 -2.1312  2.6241  0.5856
  468MOL0     H64545   7.494   9.746   4.035  1.1615 -0.5952  0.8041
  468MOL0     H64546   7.339  10.344   4.277  1.1694 -1.3391  2.0809
  468MOL0     H64547   7.472  10.503   4.324 -0.4468 -1.1614  0.1428
  468MOL0     H64548   7.894  10.545   4.170  0.3391 -2.8485 -2.7702
  468MOL0     H64549   7.788  10.593   4.034  0.8082  1.1951 -0.1197
  468MOL0     H64550   7.753  10.820   4.151 -0.2567  1.7523  2.6456
  468MOL0     H64551   7.863  10.767   4.278 -1.3017  0.3375 -0.5860
  468MOL0     H64552   8.047  10.756   4.115 -2.6645 -1.6373  1.1007
  468MOL0     H64553   8.000  10.921   4.148  2.7139 -0.8158  0.4622
  468MOL0     H64554   7.886  10.919   3.927 -1.9153 -2.0945 -0.8805
  468MOL0     H64555   7.902  10.749   3.905 -0.2134  0.4469 -0.3891
  468MOL0     H64556   8.137  10.942   3.900 -0.4522 -0.4124 -0.0509
  468MOL0     H64557   8.167  10.771   3.929  1.2281  0.6480 -1.1963
  468MOL0     H64558   8.068  10.887   3.674 -0.5696  1.4676  2.3116
  468MOL0     H64559   8.042  10.722   3.726  1.1688 -1.1712  0.2368
  468MOL0     H64560   8.273  10.662   3.715 -0.2385 -0.4141 -1.3889
  468MOL0     H64561   8.326  10.836   3.724 -0.4086  1.1271  0.3045
  468MOL0     H64562   8.239  10.879   3.499 -1.4958 -0.2242  0.1574
  468MOL0     H64563   8.154  10.726   3.513 -1.1301  2.3710  1.2527
  468MOL0     H64564   7.736  10.393   3.992  1.2412  1.8233  2.5213
  468MOL0     H64565   7.555  10.215   3.940 -1.6597 -0.6415  1.2799
  468MOL0     H64566   7.117  10.092   4.053 -0.9873  0.0757 -2.3928
  468MOL0     H64567   6.942   9.977   3.995  1.6862  1.5076 -0.8648
  468MOL0     H64568   6.733   8.523   2.899  1.4163 -2.2732 -1.6628
  468MOL0     H64569   6.738   8.470   2.678  0.3089 -2.6812  0.6510
  468MOL0     H64570   6.526   8.626   2.279  1.4517 -2.2390  3.4183
  468MOL0     H64571   6.438   8.652   2.082  2.8611  0.2496  1.8945
  468MOL0     H64572   6.480   8.328   1.789  0.2713  1.7326 -2.5130
  468MOL0     H64573   6.315   8.283   1.849 -1.5666  0.4604 -0.4606
  468MOL0     H64574   6.408   8.494   1.645  2.0588 -1.9318 -1.5095
  468MOL0     H64575   6.241   8.488   1.688  0.4929  0.9954  0.1887
  468MOL0     H64576   6.287   8.386   1.466 -0.7783  3.3141  2.8007
  468MOL0     H64577   6.381   8.254   1.539 -0.3170 -0.6867 -1.2104
  468MOL0     H64578   6.157   8.197   1.682 -1.7368  0.2345  0.6975
  468MOL0     H64579   6.166   8.160   1.510  0.0943  0.3589 -0.9898
  468MOL0     H64580   5.874   8.458   1.490 -0.3819 -1.2690  0.9386
  468MOL0     H64581   6.521   8.233   1.996  1.0590 -0.4595  0.6389
  468MOL0     H64582   6.658   8.143   2.313 -0.1884 -0.0973  0.9242
  468MOL0     H64583   6.534   8.091   2.193  0.6919 -1.0791  1.3151
  468MOL0     H64584   6.696   8.139   2.141  0.5901 -2.4249  1.3852
  469MOL0     O64585   4.771  10.488  10.089  0.6606  0.3655 -0.1405
  469MOL0     C64586   4.763  10.404  10.004 -0.7893  0.0351  0.2734
  469MOL0     O64587   4.826  10.407   9.885 -0.1634  0.6034 -0.7856
  469MOL0     C64588   4.911  10.516   9.865  0.0767 -0.5372 -0.3322
  469MOL0     C64589   5.041  10.490   9.890 -0.0721  0.0751 -0.0097
  469MOL0     C64590   5.131  10.590   9.899  0.3640  1.0297 -0.4926
  469MOL0     C64591   5.101  10.725   9.885  0.8418 -0.6798 -0.1382
  469MOL0     O64592   5.194  10.825   9.881 -0.4328  0.6163 -1.0949
  469MOL0     C64593   5.326  10.798   9.881 -0.0339  0.0415 -0.7374
  469MOL0     C64594   5.403  10.922   9.857  0.0225  0.3792  0.2995
  469MOL0     C64595   5.531  10.921   9.917  0.2560 -0.8510 -0.3071
  469MOL0     C64596   5.629  10.817   9.865 -0.4840 -0.3692  0.3817
  469MOL0     C64597   5.776  10.849   9.919  0.1379 -0.4117 -0.3748
  469MOL0     C64598   5.790  10.865  10.076  0.6801  0.4129 -0.1103
  469MOL0     C64599   5.921  10.823  10.125  0.2175 -0.1401 -0.7368
  469MOL0     C64600   6.024  10.940  10.130  0.0040  0.5090  0.4649
  469MOL0     N64601   6.166  10.900  10.152 -0.0980 -0.1505 -0.3219
  469MOL0     C64602   6.237  10.915  10.270  0.5241  0.6607  0.8135
  469MOL0     C64603   6.366  10.891  10.246 -0.2034 -0.0540 -0.4736
  469MOL0     C64604   6.485  10.910  10.338  0.4246  0.0615 -0.3376
  469MOL0     C64605   6.453  10.984  10.471 -0.2288 -1.1957 -0.1484
  469MOL0     C64606   6.591  11.018  10.537 -0.9905 -1.3352 -0.0323
  469MOL0     C64607   6.578  11.063  10.685  0.4379  0.1135 -0.1824
  469MOL0     O64608   6.495  11.180  10.692  0.6401  0.5159 -0.3188
  469MOL0     C64609   6.474  11.236  10.818  0.7194 -0.1500 -1.4795
  469MOL0     C64610   6.544  11.188  10.935  0.6249 -0.0411 -0.9099
  469MOL0     C64611   6.524  11.257  11.069  0.7467  0.2487  0.3429
  469MOL0     C64612   6.602  11.207  11.183  0.7195  0.1477 -0.6053
  469MOL0     C64613   6.456  11.378  11.078 -0.1900 -0.3134 -0.1597
  469MOL0     C64614   6.447  11.483  11.192 -0.0805  0.0950 -0.7273
  469MOL0     O64615   6.509  11.457  11.305 -0.3020 -0.5543  0.0741
  469MOL0     C64616   6.472  11.527  11.413  0.8079 -0.8885  0.1285
  469MOL0     C64617   6.380  11.466  11.501  0.4326  0.3193 -0.9206
  469MOL0     C64618   6.331  11.542  11.613 -1.6090  0.0404 -0.3903
  469MOL0     C64619   6.373  11.673  11.633 -0.7460 -0.5536  0.4347
  469MOL0     O64620   6.321  11.754  11.728  0.0592  0.5285 -0.4356
  469MOL0     C64621   6.262  11.695  11.852  0.1597 -0.4829 -0.6469
  469MOL0     C64622   6.221  11.819  11.936  0.0373  0.2059 -0.5957
  469MOL0     C64623   6.149  11.795  12.067  0.1660  0.0259 -0.1483
  469MOL0     C64624   6.127  11.925  12.147 -0.0687 -0.8551 -1.1710
  469MOL0     C64625   5.997  12.005  12.105 -0.3972  0.5547 -0.1489
  469MOL0     C64626   5.974  12.125  12.203  0.2979  0.9292  0.8872
  469MOL0     C64627   5.954  12.078  12.344  0.4293  0.1026  0.1685
  469MOL0     C64628   5.928  12.186  12.445 -0.0236 -0.9911  0.6522
  469MOL0    Cl64629   6.061  12.308  12.416  0.2041  0.2995 -0.4359
  469MOL0     C64630   6.470  11.717  11.552 -0.4101 -1.0123  0.2672
  469MOL0     C64631   6.531  11.644  11.450 -0.4906 -0.5699 -0.5848
  469MOL0     O64632   6.379  11.583  11.177  1.4334 -0.6116 -0.0050
  469MOL0     C64633   6.386  11.410  10.962 -0.1802 -0.2329  0.2054
  469MOL0     C64634   6.393  11.345  10.836 -1.3109 -0.2844  0.9420
  469MOL0     N64635   6.373  10.836  10.117  0.1090  0.1799 -0.9942
  469MOL0     N64636   6.253  10.836  10.070  0.7032  0.4709 -0.8261
  469MOL0     C64637   4.967  10.752   9.860 -0.9952  0.3504  0.2525
  469MOL0     C64638   4.870  10.651   9.864 -1.0395  0.3592 -0.4390
  469MOL0     C64639   4.691  10.276  10.038 -0.7266  0.3603  0.6499
  469MOL0     C64640   4.619  10.214   9.937 -0.1898  0.4184 -0.0851
  469MOL0     C64641   4.555  10.089   9.973 -0.8729 -0.5562  1.1049
  469MOL0     C64642   4.567  10.036  10.100 -0.8559  0.1935 -0.6029
  469MOL0     O64643   4.496   9.920  10.132 -0.2260  0.1941  0.2941
  469MOL0     C64644   4.365   9.902  10.077  0.0097 -0.3565 -0.1113
  469MOL0     C64645   4.291   9.776  10.122 -0.1318  0.3038 -0.9139
  469MOL0     C64646   4.385   9.652  10.116  0.7521 -0.0550  0.4358
  469MOL0     C64647   4.329   9.516  10.165  0.6991  0.4115  0.1291
  469MOL0     C64648   4.450   9.422  10.170  0.4662  0.0144 -0.2170
  469MOL0     C64649   4.560   9.369  10.171  0.1834  1.0407 -0.0416
  469MOL0     C64650   4.641  10.102  10.196  0.8744  0.7062 -0.3956
  469MOL0     C64651   4.692  10.228  10.172  0.6268 -0.0064 -0.4207
  469MOL0     C64652   4.762  10.290  10.291  0.7904  0.0114  0.1575
  469MOL0     H64653   5.082  10.390   9.902  2.5914  0.9233 -1.3206
  469MOL0     H64654   5.233  10.551   9.906 -0.0664 -0.1140 -0.2761
  469MOL0     H64655   5.357  10.718   9.812 -3.2152 -0.0829 -2.1958
  469MOL0     H64656   5.367  10.758   9.974  3.0509 -0.1792 -2.0582
  469MOL0     H64657   5.409  10.938   9.749  0.8296 -0.5826  0.1900
  469MOL0     H64658   5.342  11.001   9.901 -0.5732 -0.1944  0.5264
  469MOL0     H64659   5.569  11.023   9.905 -2.1855  0.2040  0.3222
  469MOL0     H64660   5.529  10.906  10.026  1.2690 -1.4727 -0.3667
  469MOL0     H64661   5.610  10.715   9.899  0.6881 -1.6789 -2.5265
  469MOL0     H64662   5.631  10.815   9.755  3.5184 -0.8909  0.2916
  469MOL0     H64663   5.803  10.947   9.877 -1.2351  0.9161  1.6579
  469MOL0     H64664   5.847  10.778   9.876  0.6907 -0.5195  0.6840
  469MOL0     H64665   5.778  10.971  10.101 -1.5969  0.3312 -0.6646
  469MOL0     H64666   5.715  10.819  10.140  0.7593  2.6028  1.6931
  469MOL0     H64667   5.958  10.732  10.075  2.9245  0.4457  0.0981
  469MOL0     H64668   5.909  10.798  10.231 -1.0161 -2.4638 -1.3357
  469MOL0     H64669   6.029  10.992  10.034  0.1314  0.0907  0.2429
  469MOL0     H64670   5.988  11.008  10.208 -0.5269 -1.2868  1.8697
  469MOL0     H64671   6.183  10.953  10.357  3.3173 -0.4032  3.1747
  469MOL0     H64672   6.560  10.965  10.281 -1.7840  0.1474 -3.4210
  469MOL0     H64673   6.541  10.821  10.366  0.1667 -0.0999 -0.3413
  469MOL0     H64674   6.398  11.078  10.455 -0.5697 -1.5109 -0.8382
  469MOL0     H64675   6.393  10.916  10.533  0.1348 -1.9714 -0.6385
  469MOL0     H64676   6.656  10.932  10.521  0.2858 -0.2006 -1.1842
  469MOL0     H64677   6.631  11.101  10.478  2.6255 -2.1860  1.0027
  469MOL0     H64678   6.539  10.980  10.744 -0.0977 -1.5871 -2.7623
  469MOL0     H64679   6.678  11.099  10.707  0.9684 -1.2817 -0.2107
  469MOL0     H64680   6.603  11.097  10.937  0.1394 -0.4830  3.3944
  469MOL0     H64681   6.692  11.266  11.204  0.5240  0.5602 -0.8868
  469MOL0     H64682   6.650  11.112  11.162  0.1118 -0.2292 -0.3136
  469MOL0     H64683   6.540  11.211  11.273  0.7216  1.6425 -0.6336
  469MOL0     H64684   6.343  11.364  11.495 -0.4641  0.3017  2.6691
  469MOL0     H64685   6.252  11.494  11.670 -1.9120  2.3904  1.3394
  469MOL0     H64686   6.171  11.634  11.844  1.1896 -1.8553 -2.4864
  469MOL0     H64687   6.341  11.638  11.903 -0.0144 -1.3665 -1.3443
  469MOL0     H64688   6.316  11.868  11.956  0.5132 -0.9441  0.0620
  469MOL0     H64689   6.150  11.884  11.885 -0.7807  0.3510  0.6803
  469MOL0     H64690   6.207  11.722  12.124 -0.7175 -0.1381  0.5510
  469MOL0     H64691   6.051  11.749  12.057 -0.8513  2.4025 -2.2034
  469MOL0     H64692   6.221  11.980  12.144 -0.6191  0.0613 -2.1607
  469MOL0     H64693   6.127  11.890  12.251  2.7230  1.8088 -0.1236
  469MOL0     H64694   6.002  12.040  12.001  2.2613 -2.0198 -1.0393
  469MOL0     H64695   5.925  11.923  12.100  2.8013 -2.4429 -0.9922
  469MOL0     H64696   5.896  12.188  12.161  1.3445  3.9114  3.0796
  469MOL0     H64697   6.070  12.177  12.188  2.0757 -1.8845  1.6513
  469MOL0     H64698   6.039  12.027  12.390  0.1403 -2.3964 -1.8531
  469MOL0     H64699   5.873  12.004  12.349  1.2127 -0.7750  0.0756
  469MOL0     H64700   5.930  12.146  12.547 -2.3188  1.6301  1.8448
  469MOL0     H64701   5.831  12.234  12.432 -0.7885 -2.2912  1.4118
  469MOL0     H64702   6.525  11.808  11.572 -0.3443 -0.6564 -1.3905
  469MOL0     H64703   6.612  11.692  11.396  0.7820 -0.4699  1.3044
  469MOL0     H64704   6.338  11.507  10.956  1.3771  0.5192 -0.6308
  469MOL0     H64705   6.332  11.385  10.755 -1.5120 -1.2042  0.6134
  469MOL0     H64706   4.945  10.857   9.841  0.1818  0.4030 -0.9929
  469MOL0     H64707   4.765  10.672   9.850 -0.6248  3.2187  0.0645
  469MOL0     H64708   4.618  10.263   9.840 -1.4724  1.4707  0.4286
  469MOL0     H64709   4.504  10.031   9.897  0.4477 -1.6751  1.0312
  469MOL0     H64710   4.300   9.986  10.100 -2.2010 -0.8811 -3.6008
  469MOL0     H64711   4.372   9.895   9.968  0.3583  1.5062 -0.2354
  469MOL0     H64712   4.204   9.763  10.057 -1.0482  3.2901 -0.4567
  469MOL0     H64713   4.259   9.788  10.226 -0.8486 -0.2142 -1.0665
  469MOL0     H64714   4.414   9.643  10.011  1.6383 -1.3996  0.7613
  469MOL0     H64715   4.478   9.678  10.168  0.3291  0.4085  0.9781
  469MOL0     H64716   4.260   9.482  10.087  3.8115  0.1456 -2.7391
  469MOL0     H64717   4.289   9.516  10.267 -0.5464 -1.3401 -0.3043
  469MOL0     H64718   4.666   9.359  10.186 -0.1164 -1.7425  0.7373
  469MOL0     H64719   4.649  10.049  10.290  0.3595  0.2933 -0.5790
  469MOL0     H64720   4.764  10.214  10.370 -3.1804 -1.6390 -1.0976
  469MOL0     H64721   4.869  10.304  10.271  1.0430 -3.2349 -1.4319
  469MOL0     H64722   4.709  10.380  10.322  0.2104 -1.1457  2.8164
  470MOL0     O64723   5.548   3.885   1.705 -0.2314 -0.2042  0.5633
  470MOL0     C64724   5.548   4.004   1.726  0.5297 -0.1522  0.5219
  470MOL0     O64725   5.437   4.063   1.762 -0.0436  0.6332  1.1389
  470MOL0     C64726   5.319   3.978   1.792 -0.5875  0.1369 -0.3943
  470MOL0     C64727   5.255   3.897   1.708  0.6619 -0.0390  0.3922
  470MOL0     C64728   5.148   3.822   1.755  0.9071 -1.0799 -0.1500
  470MOL0     C64729   5.086   3.836   1.884 -0.1307 -0.3372 -0.8508
  470MOL0     O64730   4.986   3.754   1.927  0.1805  0.0168 -0.1701
  470MOL0     C64731   4.965   3.621   1.860  0.4144 -0.2239 -0.1965
  470MOL0     C64732   4.889   3.516   1.939  0.3051  0.3420  0.2022
  470MOL0     C64733   4.909   3.373   1.877  0.4670  0.3059 -0.0751
  470MOL0     C64734   4.845   3.262   1.964  0.9737 -0.2629  0.0282
  470MOL0     C64735   4.912   3.127   1.937  0.0307  0.4678  0.1085
  470MOL0     C64736   5.056   3.109   1.999 -0.7294 -0.6208  1.4982
  470MOL0     C64737   5.052   3.058   2.140  0.7472  0.6577 -1.2568
  470MOL0     C64738   5.185   3.108   2.208  0.1921  0.6416 -0.1194
  470MOL0     N64739   5.227   3.054   2.337 -0.1313 -0.1548 -1.0435
  470MOL0     C64740   5.222   3.120   2.457 -0.1074 -0.3257  0.6969
  470MOL0     C64741   5.285   3.048   2.545  0.7791  0.7719 -0.4197
  470MOL0     C64742   5.284   3.067   2.702  0.4594  0.1960  0.8380
  470MOL0     C64743   5.208   2.962   2.772  0.2202 -0.2788 -0.7660
  470MOL0     C64744   5.241   2.947   2.925  1.0512  0.1487  0.2735
  470MOL0     C64745   5.362   2.869   2.969  0.0642 -0.6743 -0.1280
  470MOL0     O64746   5.361   2.858   3.108  0.3442 -0.1486 -1.1358
  470MOL0     C64747   5.386   2.736   3.161  0.4179 -0.5610  0.2488
  470MOL0     C64748   5.307   2.695   3.268  0.2138 -0.2901 -0.0472
  470MOL0     C64749   5.338   2.573   3.330 -0.2624  0.4900  0.4349
  470MOL0     C64750   5.237   2.514   3.441  1.2119 -0.5358  0.3946
  470MOL0     C64751   5.457   2.502   3.293 -0.0769 -0.1537  0.2486
  470MOL0     C64752   5.498   2.369   3.356  0.5952 -0.5603 -1.4957
  470MOL0     O64753   5.625   2.348   3.359 -0.2965  0.0783 -0.5896
  470MOL0     C64754   5.668   2.229   3.401  0.4313 -0.3267  0.6656
  470MOL0     C64755   5.634   2.175   3.528 -0.2545  0.1136 -0.3071
  470MOL0     C64756   5.674   2.050   3.556  0.6988 -0.5439 -0.1877
  470MOL0     C64757   5.746   1.976   3.460  0.1934  0.1757 -0.5930
  470MOL0     O64758   5.791   1.849   3.488  0.0128 -0.5930  0.1028
  470MOL0     C64759   5.756   1.778   3.612  0.4923 -0.1802  0.4629
  470MOL0     C64760   5.753   1.626   3.597  0.0233 -0.1110 -0.4649
  470MOL0     C64761   5.886   1.584   3.563 -0.8255  0.1350  0.6404
  470MOL0     C64762   5.900   1.429   3.563 -0.2219  0.4841 -0.8981
  470MOL0     C64763   6.027   1.376   3.488 -0.1534 -0.6073 -0.0455
  470MOL0     C64764   6.022   1.390   3.344  0.0508 -0.7137  0.3564
  470MOL0     C64765   5.902   1.337   3.264  0.9174 -1.3244  0.0304
  470MOL0     C64766   5.886   1.355   3.115 -0.7313 -0.3027  0.5117
  470MOL0    Cl64767   5.834   1.524   3.091  0.7116  0.0487  0.3307
  470MOL0     C64768   5.789   2.026   3.339  0.9915  0.4337  0.6954
  470MOL0     C64769   5.745   2.155   3.309  0.4597  0.0448  0.3548
  470MOL0     O64770   5.409   2.290   3.371 -0.3876 -0.7460 -0.2298
  470MOL0     C64771   5.522   2.553   3.176  0.1399  0.2244  0.0833
  470MOL0     C64772   5.480   2.663   3.119 -0.2082 -0.1211 -0.2496
  470MOL0     N64773   5.339   2.936   2.475 -0.4204  0.5197 -0.1956
  470MOL0     N64774   5.301   2.947   2.355  0.3601  0.3865 -0.6639
  470MOL0     C64775   5.146   3.935   1.975  0.6043  0.2663  0.0547
  470MOL0     C64776   5.267   3.999   1.929 -0.4165  0.8881  1.0107
  470MOL0     C64777   5.678   4.072   1.714 -0.7788  0.7194 -0.0994
  470MOL0     C64778   5.778   4.043   1.614  0.5318 -0.4102 -0.6875
  470MOL0     C64779   5.910   4.110   1.618  0.7617  0.5098 -0.3648
  470MOL0     C64780   5.934   4.205   1.717  0.4668 -0.7140  0.9847
  470MOL0     O64781   6.060   4.256   1.703 -0.2033 -0.3844  0.0587
  470MOL0     C64782   6.147   4.230   1.814  0.9056 -0.4225  0.3736
  470MOL0     C64783   6.197   4.357   1.881  0.4872  0.1274 -0.0843
  470MOL0     C64784   6.258   4.333   2.010 -0.2664 -0.4922 -0.2275
  470MOL0     C64785   6.410   4.352   2.015  0.0631 -0.2587  0.9706
  470MOL0     C64786   6.486   4.253   1.936 -0.3875  0.0134 -0.7930
  470MOL0     C64787   6.556   4.169   1.877  0.3292  0.4541 -0.2446
  470MOL0     C64788   5.841   4.231   1.818  0.7926  0.9379  0.2158
  470MOL0     C64789   5.713   4.173   1.816 -0.0832 -0.2638  1.1620
  470MOL0     C64790   5.638   4.189   1.946 -0.4998 -0.9911  0.5121
  470MOL0     H64791   5.294   3.891   1.606  2.5816 -0.8686  1.1248
  470MOL0     H64792   5.092   3.754   1.692 -0.2335  1.5658 -2.2098
  470MOL0     H64793   5.060   3.568   1.851 -2.3688 -5.9272 -0.5890
  470MOL0     H64794   4.920   3.623   1.760  0.3317 -3.6628 -0.3439
  470MOL0     H64795   4.921   3.529   2.042  0.6218 -2.7057  0.5890
  470MOL0     H64796   4.780   3.525   1.948  0.1790  0.4241 -1.2148
  470MOL0     H64797   4.868   3.366   1.775 -1.0449 -3.6206  0.6061
  470MOL0     H64798   5.015   3.363   1.854  0.5275 -0.6188  0.5805
  470MOL0     H64799   4.862   3.280   2.071  2.8201 -0.0556 -0.2724
  470MOL0     H64800   4.738   3.271   1.941  0.6039 -1.4588  1.1397
  470MOL0     H64801   4.921   3.117   1.828 -0.7136 -3.6322  0.2720
  470MOL0     H64802   4.845   3.046   1.967 -0.3119  1.0555  0.9641
  470MOL0     H64803   5.093   3.030   1.933  1.2085  3.0004 -2.2086
  470MOL0     H64804   5.108   3.203   1.982 -0.1675 -0.8329  1.9915
  470MOL0     H64805   5.038   2.949   2.140 -2.9404  1.0188 -1.3622
  470MOL0     H64806   4.958   3.086   2.188 -1.6721 -1.3506 -4.4242
  470MOL0     H64807   5.253   3.079   2.128 -0.0706 -1.9649  0.5085
  470MOL0     H64808   5.170   3.216   2.222  1.5979  0.8307  0.0948
  470MOL0     H64809   5.162   3.210   2.472 -2.4685 -1.7421  0.2416
  470MOL0     H64810   5.245   3.160   2.743  1.5896  0.2413  1.8777
  470MOL0     H64811   5.388   3.066   2.737  0.8633 -0.0958 -0.3371
  470MOL0     H64812   5.100   2.977   2.760  0.2401 -0.6776 -1.4620
  470MOL0     H64813   5.234   2.868   2.723  1.1423  0.5186 -1.8771
  470MOL0     H64814   5.245   3.049   2.965  1.8852 -0.5380  2.0475
  470MOL0     H64815   5.162   2.894   2.977  1.0139 -1.8863 -1.7058
  470MOL0     H64816   5.360   2.766   2.931 -0.1778 -0.3823 -0.9306
  470MOL0     H64817   5.453   2.915   2.929 -0.1961 -1.3556 -1.5756
  470MOL0     H64818   5.228   2.761   3.302  1.9671  0.7208  2.3618
  470MOL0     H64819   5.292   2.464   3.522  0.2901  1.1729  2.1373
  470MOL0     H64820   5.172   2.436   3.399  1.4251 -0.0276 -0.9371
  470MOL0     H64821   5.171   2.591   3.482 -1.3109  1.1528 -5.7314
  470MOL0     H64822   5.578   2.245   3.589 -0.3541  0.0875 -0.3698
  470MOL0     H64823   5.657   2.012   3.656 -0.1225 -1.2794 -0.5911
  470MOL0     H64824   5.834   1.814   3.679 -0.1464  0.3401  0.9430
  470MOL0     H64825   5.659   1.797   3.659  2.0419 -0.4324  4.0816
  470MOL0     H64826   5.709   1.588   3.690 -2.7248  2.4869 -0.5613
  470MOL0     H64827   5.692   1.595   3.513  2.4535 -0.5976 -2.1549
  470MOL0     H64828   5.958   1.623   3.635 -0.2742  3.7674 -1.6231
  470MOL0     H64829   5.912   1.612   3.460 -1.4243 -0.7133  0.2369
  470MOL0     H64830   5.803   1.383   3.538  0.7109 -2.2146  0.0901
  470MOL0     H64831   5.917   1.408   3.668 -0.3498  2.3998 -0.4575
  470MOL0     H64832   6.111   1.422   3.542 -1.9894  2.4248  0.4394
  470MOL0     H64833   6.031   1.267   3.497  0.6058 -0.6073 -0.3279
  470MOL0     H64834   6.113   1.340   3.312  1.3156  1.6743  0.0140
  470MOL0     H64835   6.050   1.494   3.325  6.4365 -1.8098  1.4191
  470MOL0     H64836   5.815   1.384   3.310  0.7784  0.1444 -1.6281
  470MOL0     H64837   5.886   1.229   3.271 -0.3284 -1.3406 -2.0465
  470MOL0     H64838   5.812   1.294   3.063  1.8436 -3.6517  0.4870
  470MOL0     H64839   5.979   1.339   3.062 -1.7292  0.0617 -1.4247
  470MOL0     H64840   5.844   1.970   3.264 -0.1216  0.6304 -0.3041
  470MOL0     H64841   5.777   2.194   3.213 -1.2927  1.2238  0.2232
  470MOL0     H64842   5.607   2.499   3.136  1.6572  2.1694  0.5095
  470MOL0     H64843   5.543   2.698   3.037  1.0591 -2.0845 -0.1619
  470MOL0     H64844   5.108   3.954   2.074 -0.7506  0.2858 -0.4513
  470MOL0     H64845   5.310   4.061   2.007  0.2713  2.2329 -0.4006
  470MOL0     H64846   5.764   3.945   1.570  0.8571  0.2086 -2.2169
  470MOL0     H64847   5.990   4.071   1.555 -0.8414 -3.6744 -0.1534
  470MOL0     H64848   6.088   4.175   1.888  0.1723  0.2904  0.3304
  470MOL0     H64849   6.238   4.174   1.791  3.3522  3.6285 -0.8257
  470MOL0     H64850   6.105   4.410   1.909  0.8564  0.1441  1.1845
  470MOL0     H64851   6.258   4.413   1.810 -1.5302  3.5497  0.6585
  470MOL0     H64852   6.201   4.393   2.082 -3.7138 -1.3394 -2.0589
  470MOL0     H64853   6.241   4.227   2.027  0.1616 -0.3591  1.2028
  470MOL0     H64854   6.444   4.346   2.118 -2.3170  4.0700  2.2571
  470MOL0     H64855   6.442   4.445   1.967 -2.9322  1.4053  1.8838
  470MOL0     H64856   6.615   4.097   1.825  0.4898  0.5158 -0.1489
  470MOL0     H64857   5.878   4.297   1.896  1.3756  1.8250 -0.7867
  470MOL0     H64858   5.606   4.093   1.987  0.7826 -1.1340  1.2723
  470MOL0     H64859   5.685   4.242   2.030 -2.7953  0.5983  0.9003
  470MOL0     H64860   5.548   4.247   1.925 -0.3534 -2.2052 -4.7212
  471MOL0     O64861   3.099   8.881   4.145  0.5456  0.1618  0.3937
  471MOL0     C64862   2.990   8.873   4.191  0.5322  0.1221  0.5638
  471MOL0     O64863   2.869   8.875   4.124  0.4243  0.4280  0.1257
  471MOL0     C64864   2.872   8.836   3.995  0.3387  0.7867  0.1446
  471MOL0     C64865   2.858   8.699   3.963  0.1102 -0.3133  0.4721
  471MOL0     C64866   2.872   8.652   3.836  0.9036 -0.2170  0.6852
  471MOL0     C64867   2.890   8.744   3.727  0.2633  0.5417  0.0882
  471MOL0     O64868   2.905   8.702   3.590  0.6830 -0.7009 -0.3453
  471MOL0     C64869   2.791   8.633   3.532  0.2478  0.4961  0.5333
  471MOL0     C64870   2.810   8.627   3.377 -0.1161 -0.5749 -1.4632
  471MOL0     C64871   2.919   8.534   3.338 -0.1114  0.0637 -0.4660
  471MOL0     C64872   2.888   8.509   3.185  0.2398 -0.2818 -0.2331
  471MOL0     C64873   3.016   8.456   3.119  0.1155 -0.3337  1.1535
  471MOL0     C64874   3.128   8.565   3.100  0.1472 -1.0551  0.5182
  471MOL0     C64875   3.203   8.554   2.959  0.2832 -0.0822  0.1083
  471MOL0     C64876   3.299   8.439   2.957  1.0370 -0.2458  0.6446
  471MOL0     N64877   3.353   8.400   2.826 -0.4891 -0.2257  0.5330
  471MOL0     C64878   3.268   8.342   2.740  0.5441 -0.2263  0.2037
  471MOL0     C64879   3.347   8.303   2.637  1.3047 -0.0361  0.1884
  471MOL0     C64880   3.302   8.254   2.492 -0.8248 -0.6285  0.0890
  471MOL0     C64881   3.357   8.114   2.455 -0.2158 -0.0959 -0.2631
  471MOL0     C64882   3.283   8.010   2.527  1.2658 -0.6408  0.7516
  471MOL0     C64883   3.138   7.986   2.479 -0.0305 -1.6771  0.3968
  471MOL0     O64884   3.042   8.073   2.543 -0.3015  0.7662  0.0582
  471MOL0     C64885   3.000   8.066   2.672  0.2064  0.6978 -0.4389
  471MOL0     C64886   2.918   8.167   2.709 -0.7309 -0.0185 -0.4540
  471MOL0     C64887   2.865   8.171   2.838 -0.2902 -0.5916 -0.5596
  471MOL0     C64888   2.769   8.284   2.863  1.3477  0.0325 -0.2984
  471MOL0     C64889   2.910   8.075   2.935  0.2040 -0.5863 -0.0865
  471MOL0     C64890   2.863   8.077   3.077  0.5378  0.0997  1.1436
  471MOL0     O64891   2.736   8.034   3.113  0.3622  0.5645 -0.4201
  471MOL0     C64892   2.693   8.077   3.228 -0.9441  0.1859 -0.1365
  471MOL0     C64893   2.752   8.040   3.360  0.1696  0.1518  0.6027
  471MOL0     C64894   2.690   8.093   3.465 -0.4769 -0.2090  0.3580
  471MOL0     C64895   2.584   8.185   3.465 -0.6666 -0.0628 -0.6591
  471MOL0     O64896   2.534   8.225   3.584 -0.3640 -0.4295 -0.2517
  471MOL0     C64897   2.480   8.361   3.579  0.5759  0.3019  0.3094
  471MOL0     C64898   2.430   8.409   3.719  0.0963 -0.4804 -0.1466
  471MOL0     C64899   2.554   8.429   3.807 -0.4352  0.1229 -0.7298
  471MOL0     C64900   2.524   8.463   3.950 -0.0389 -0.6386 -0.2754
  471MOL0     C64901   2.654   8.434   4.037 -0.0901 -0.9954  0.5265
  471MOL0     C64902   2.642   8.310   4.118  0.3551  0.2340 -1.6844
  471MOL0     C64903   2.614   8.179   4.040 -0.3486 -0.4717 -0.2311
  471MOL0     C64904   2.623   8.054   4.121  0.1630  0.8582 -0.8297
  471MOL0    Cl64905   2.622   7.913   4.018  0.0853 -0.8288 -0.2046
  471MOL0     C64906   2.541   8.227   3.342  0.1737 -0.1302  0.4390
  471MOL0     C64907   2.587   8.173   3.229 -0.2055 -0.9828  0.1148
  471MOL0     O64908   2.952   8.113   3.153 -1.3799 -0.4524 -0.5559
  471MOL0     C64909   3.000   7.976   2.893 -0.0712 -0.1266  0.1063
  471MOL0     C64910   3.044   7.975   2.762  0.8546 -0.0783 -0.2920
  471MOL0     N64911   3.481   8.330   2.675  0.5364 -0.9523  0.1336
  471MOL0     N64912   3.480   8.404   2.786  0.5151  1.0682  1.2082
  471MOL0     C64913   2.907   8.878   3.754 -0.7737 -0.9220 -0.3966
  471MOL0     C64914   2.900   8.924   3.889  0.0468  0.3239  0.6181
  471MOL0     C64915   2.977   8.874   4.337  0.3188  0.2202  0.4521
  471MOL0     C64916   2.885   8.785   4.390  0.4611 -0.3984  0.6767
  471MOL0     C64917   2.859   8.783   4.527  0.6869 -0.1934  0.6464
  471MOL0     C64918   2.921   8.878   4.609  0.3488 -0.9428  0.9148
  471MOL0     O64919   2.908   8.858   4.744  0.1634 -0.4727  0.2014
  471MOL0     C64920   2.998   8.936   4.832  1.1170  0.2254  0.7068
  471MOL0     C64921   2.966   8.925   4.986 -0.5615 -0.1428  0.3567
  471MOL0     C64922   3.086   8.998   5.047 -0.1538  0.8104  1.0777
  471MOL0     C64923   3.044   9.041   5.190 -0.3766  0.2651  0.1545
  471MOL0     C64924   2.992   8.942   5.285  0.8290 -0.4375 -0.3838
  471MOL0     C64925   2.950   8.854   5.364  1.0654  0.5734  0.8094
  471MOL0     C64926   3.016   8.958   4.552 -0.0341  0.1292  0.1224
  471MOL0     C64927   3.049   8.958   4.421  0.7359 -0.2496  0.3584
  471MOL0     C64928   3.159   9.051   4.382 -0.0546  0.6531  0.0038
  471MOL0     H64929   2.842   8.633   4.048  1.7579 -0.8607  0.3956
  471MOL0     H64930   2.861   8.544   3.834 -2.0379 -0.0964  2.9002
  471MOL0     H64931   2.697   8.679   3.563 -0.8036 -0.5690 -0.9602
  471MOL0     H64932   2.788   8.530   3.569 -1.1144 -1.1785 -3.6598
  471MOL0     H64933   2.720   8.579   3.335  1.4825 -2.1663 -3.2881
  471MOL0     H64934   2.825   8.729   3.341 -3.6014  0.5747 -0.0624
  471MOL0     H64935   3.009   8.594   3.351 -0.8208  0.9213  0.6755
  471MOL0     H64936   2.911   8.443   3.398 -1.7339  1.0077  0.8399
  471MOL0     H64937   2.810   8.432   3.190  0.6554 -0.7099 -0.2761
  471MOL0     H64938   2.847   8.597   3.136 -3.0460  0.4098  3.2854
  471MOL0     H64939   2.999   8.413   3.020  2.1861  0.2927  0.4637
  471MOL0     H64940   3.060   8.376   3.180  1.0445 -1.5255 -0.9778
  471MOL0     H64941   3.086   8.666   3.091 -1.5811 -1.6790  1.2290
  471MOL0     H64942   3.189   8.564   3.190 -0.0040  1.8012  0.7293
  471MOL0     H64943   3.246   8.651   2.934  2.7556 -1.5809 -1.9481
  471MOL0     H64944   3.122   8.546   2.886  0.5653  0.1905 -0.2388
  471MOL0     H64945   3.375   8.466   3.031  2.0845 -1.0870 -0.0709
  471MOL0     H64946   3.259   8.348   3.003 -1.0142  1.1841  1.8080
  471MOL0     H64947   3.161   8.355   2.751  1.0151  2.7020  2.8875
  471MOL0     H64948   3.353   8.324   2.425 -1.1886  0.4340  0.8951
  471MOL0     H64949   3.195   8.266   2.476 -0.7967 -2.1424 -1.4470
  471MOL0     H64950   3.365   8.094   2.348  1.3675 -0.2504 -0.1447
  471MOL0     H64951   3.462   8.097   2.481 -0.1965  0.6015  0.1369
  471MOL0     H64952   3.323   7.912   2.497 -1.2228 -1.4078 -0.2903
  471MOL0     H64953   3.291   8.016   2.636 -2.7180 -1.5810  1.2460
  471MOL0     H64954   3.122   7.997   2.371 -1.0400  0.0905  0.6910
  471MOL0     H64955   3.102   7.884   2.497 -0.8650 -1.3940  0.3408
  471MOL0     H64956   2.893   8.243   2.636 -2.1370  2.2546  2.1918
  471MOL0     H64957   2.815   8.383   2.862 -1.1665  1.4081  2.8827
  471MOL0     H64958   2.740   8.279   2.969  0.3478  0.2461 -0.5468
  471MOL0     H64959   2.674   8.266   2.813  0.7514  2.4849 -0.1859
  471MOL0     H64960   2.844   7.982   3.366 -0.7038 -1.6328 -1.6189
  471MOL0     H64961   2.733   8.067   3.562 -2.8241 -0.5993  1.3687
  471MOL0     H64962   2.553   8.426   3.530  0.7208  0.3909  0.6404
  471MOL0     H64963   2.389   8.367   3.520  1.0133 -1.5472 -0.6250
  471MOL0     H64964   2.370   8.499   3.702  3.0492  0.9824 -4.5648
  471MOL0     H64965   2.371   8.333   3.770 -2.9826  3.6990  3.2271
  471MOL0     H64966   2.617   8.512   3.772 -2.9119  3.1102  1.3224
  471MOL0     H64967   2.625   8.346   3.801 -1.8250 -1.4308  2.2560
  471MOL0     H64968   2.434   8.406   3.978  0.4066 -2.9400 -3.0640
  471MOL0     H64969   2.500   8.568   3.965  0.4238 -0.9369  3.9947
  471MOL0     H64970   2.745   8.426   3.977  1.1997 -0.8144  2.3939
  471MOL0     H64971   2.676   8.515   4.106 -1.9335  1.0598 -1.1703
  471MOL0     H64972   2.560   8.331   4.188  2.9667 -2.8803  2.8216
  471MOL0     H64973   2.736   8.294   4.172 -1.0800  1.4724  1.4640
  471MOL0     H64974   2.690   8.171   3.961  1.1408  3.2094  0.6074
  471MOL0     H64975   2.515   8.187   3.995 -0.1909  0.7327 -0.4155
  471MOL0     H64976   2.541   8.036   4.192  0.1970 -0.8317 -1.1798
  471MOL0     H64977   2.718   8.057   4.174  0.0851 -0.1174 -0.6259
  471MOL0     H64978   2.452   8.288   3.331  0.3747 -0.2799 -3.4103
  471MOL0     H64979   2.539   8.193   3.134 -1.2310 -1.9317  0.4234
  471MOL0     H64980   3.033   7.899   2.962 -0.8440 -1.4643 -0.9649
  471MOL0     H64981   3.118   7.898   2.741 -0.9644 -2.0879  0.3495
  471MOL0     H64982   2.916   8.959   3.682 -1.7108 -0.6320 -0.1945
  471MOL0     H64983   2.906   9.028   3.918  1.0534 -0.2258  2.5526
  471MOL0     H64984   2.836   8.713   4.326  1.1424  1.2839 -1.8662
  471MOL0     H64985   2.787   8.716   4.572 -1.9713  1.3408 -1.0420
  471MOL0     H64986   3.098   8.895   4.817  0.4920 -1.0817 -0.0304
  471MOL0     H64987   2.995   9.041   4.800 -0.1653 -1.3390 -5.7021
  471MOL0     H64988   2.958   8.822   5.022 -1.0474 -1.0516 -2.1048
  471MOL0     H64989   2.871   8.970   5.017 -1.4311 -1.8645  0.2855
  471MOL0     H64990   3.176   8.937   5.053 -0.4836  0.2490  0.4377
  471MOL0     H64991   3.105   9.087   4.986 -0.3292 -1.8121 -3.1589
  471MOL0     H64992   2.987   9.132   5.169 -0.9268 -0.7417 -3.2355
  471MOL0     H64993   3.140   9.059   5.240 -0.4150  2.1009 -0.3653
  471MOL0     H64994   2.893   8.783   5.419  1.1763 -0.0885  0.0831
  471MOL0     H64995   3.084   9.012   4.618  2.1344 -3.2583  0.9469
  471MOL0     H64996   3.146   9.150   4.427  0.9724  0.7513  0.1046
  471MOL0     H64997   3.261   9.017   4.400  0.6340  0.6181 -3.3522
  471MOL0     H64998   3.149   9.070   4.275 -0.8786  1.9318  0.2808
  472MOL0     O64999  10.950   6.813   7.087  0.4692  0.0988 -0.6216
  472MOL0     C65000  10.902   6.802   7.200  0.5895  0.0606  0.0866
  472MOL0     O65001  10.774   6.847   7.243  0.4874  0.5628  0.4019
  472MOL0     C65002  10.699   6.887   7.132  0.9292  0.5816 -0.4412
  472MOL0     C65003  10.726   7.002   7.054 -0.5032  0.0156  0.2643
  472MOL0     C65004  10.635   7.050   6.964  1.4191 -0.4719  0.6553
  472MOL0     C65005  10.505   6.989   6.954 -0.7398 -0.0465 -0.1868
  472MOL0     O65006  10.403   7.020   6.863 -0.3638 -0.2548  1.0220
  472MOL0     C65007  10.392   7.151   6.802  0.1707 -1.0001  0.9629
  472MOL0     C65008  10.401   7.260   6.906  0.0152 -0.1081  1.0364
  472MOL0     C65009  10.482   7.377   6.849  0.1086  0.6114  0.4443
  472MOL0     C65010  10.545   7.467   6.966  0.2637  1.1680  0.7045
  472MOL0     C65011  10.590   7.597   6.901 -0.0757 -0.2582 -1.5773
  472MOL0     C65012  10.659   7.692   7.000  0.7818 -0.0138  0.9273
  472MOL0     C65013  10.704   7.833   6.948 -0.5951  0.2788 -0.4791
  472MOL0     C65014  10.670   7.954   7.036  0.0885  0.1699  0.8370
  472MOL0     N65015  10.743   8.072   7.009  0.1852  0.3805 -0.9669
  472MOL0     C65016  10.702   8.174   6.933 -0.1483 -0.9096 -0.5845
  472MOL0     C65017  10.809   8.254   6.921  0.1123  0.6121  0.4757
  472MOL0     C65018  10.805   8.383   6.838 -0.1023  0.2914 -0.5558
  472MOL0     C65019  10.813   8.331   6.692 -1.1472  0.4369  0.8047
  472MOL0     C65020  10.948   8.280   6.647  0.3992  0.8819 -0.0616
  472MOL0     C65021  11.053   8.396   6.649 -0.3549 -0.0920  0.1411
  472MOL0     O65022  11.019   8.499   6.553 -0.4925  0.8471 -0.2032
  472MOL0     C65023  11.108   8.591   6.518 -0.0134 -0.5999  0.2477
  472MOL0     C65024  11.077   8.684   6.412 -0.9482 -0.4364 -0.2129
  472MOL0     C65025  11.176   8.772   6.364  0.2396 -0.3434  0.4991
  472MOL0     C65026  11.113   8.842   6.232  0.4845 -0.5211 -1.2305
  472MOL0     C65027  11.309   8.779   6.422  0.3235 -0.3274  0.0317
  472MOL0     C65028  11.416   8.864   6.370 -0.3705 -0.5448 -0.8749
  472MOL0     O65029  11.385   8.941   6.267 -0.8673 -0.0485  0.1982
  472MOL0     C65030  11.486   9.022   6.221  0.0624 -0.1941  0.9146
  472MOL0     C65031  11.534   9.004   6.084  0.0495  0.3362 -0.0145
  472MOL0     C65032  11.627   9.079   6.025  0.6146 -0.8991  0.8147
  472MOL0     C65033  11.673   9.188   6.107  0.8149 -0.8126 -0.3087
  472MOL0     O65034  11.754   9.287   6.043  0.0659 -0.4008 -0.5800
  472MOL0     C65035  11.739   9.425   6.070  0.8597  0.2649 -0.5721
  472MOL0     C65036  11.590   9.454   6.010  0.0282  1.0297  0.2387
  472MOL0     C65037  11.584   9.598   5.950  0.9856  0.0357 -0.4585
  472MOL0     C65038  11.625   9.589   5.805  0.5397 -0.5110  0.6371
  472MOL0     C65039  11.587   9.726   5.742 -0.2958  0.8449 -0.7344
  472MOL0     C65040  11.690   9.833   5.755  1.0712 -0.2969 -0.1648
  472MOL0     C65041  11.806   9.833   5.645 -0.5686 -0.2902 -0.0115
  472MOL0     C65042  11.933   9.761   5.701  0.3844  0.1783 -0.4057
  472MOL0    Cl65043  12.059   9.772   5.578  0.1370  0.4880  0.1062
  472MOL0     C65044  11.635   9.207   6.240 -0.5025  0.5426 -0.7974
  472MOL0     C65045  11.540   9.123   6.297  0.1874 -0.0764  0.3420
  472MOL0     O65046  11.526   8.848   6.417 -0.1931 -0.7804 -0.5082
  472MOL0     C65047  11.328   8.712   6.547  0.0162  1.0272 -0.5673
  472MOL0     C65048  11.224   8.620   6.594 -0.1814  0.8972  0.6107
  472MOL0     N65049  10.921   8.191   6.993 -0.1594  1.1354  0.5865
  472MOL0     N65050  10.874   8.086   7.041 -0.1315 -0.4696 -0.7072
  472MOL0     C65051  10.480   6.880   7.031 -0.4504 -0.2986  0.2270
  472MOL0     C65052  10.573   6.835   7.124  0.1515 -0.4836 -0.2985
  472MOL0     C65053  10.987   6.756   7.303  0.4529  0.2185 -0.2044
  472MOL0     C65054  11.007   6.628   7.316 -0.5898 -0.2712  0.7605
  472MOL0     C65055  11.099   6.582   7.417 -0.7314  0.4848 -0.0688
  472MOL0     C65056  11.163   6.671   7.503 -0.9101  1.1875  0.0154
  472MOL0     O65057  11.255   6.633   7.601 -0.6186  0.1689  0.3826
  472MOL0     C65058  11.388   6.593   7.559 -0.5490 -0.0788  0.3146
  472MOL0     C65059  11.437   6.465   7.615 -1.0801 -0.7528 -0.0168
  472MOL0     C65060  11.590   6.451   7.602 -0.3585  0.1078 -0.0270
  472MOL0     C65061  11.673   6.552   7.691 -0.0297  0.8667 -0.7990
  472MOL0     C65062  11.642   6.564   7.827 -0.2304 -0.4750 -0.5714
  472MOL0     C65063  11.617   6.585   7.941 -0.1486  0.5588 -1.4687
  472MOL0     C65064  11.129   6.806   7.498 -0.4235 -0.4977  0.0415
  472MOL0     C65065  11.048   6.850   7.395  0.2386  0.2819  0.2991
  472MOL0     C65066  11.014   6.991   7.393  0.2632 -0.1612 -0.4299
  472MOL0     H65067  10.818   7.053   7.080 -0.4733 -0.0741  0.3320
  472MOL0     H65068  10.652   7.140   6.907  0.0212 -0.8495 -0.4296
  472MOL0     H65069  10.297   7.157   6.747  0.9489 -1.0605 -0.4243
  472MOL0     H65070  10.473   7.159   6.729 -1.7027  0.5631 -1.1117
  472MOL0     H65071  10.296   7.289   6.921 -0.0651  0.1607  0.0260
  472MOL0     H65072  10.432   7.231   7.007  1.0912 -0.0577  0.7314
  472MOL0     H65073  10.560   7.345   6.779 -0.8715 -0.7974 -0.0416
  472MOL0     H65074  10.418   7.432   6.779  0.7455  3.2977  1.8410
  472MOL0     H65075  10.468   7.469   7.044 -0.0184 -1.9208  0.6393
  472MOL0     H65076  10.630   7.413   7.009  1.6015  2.2996 -0.4055
  472MOL0     H65077  10.505   7.654   6.863  1.2373  3.4978  0.5771
  472MOL0     H65078  10.659   7.574   6.819  3.0896  2.5237  0.0259
  472MOL0     H65079  10.587   7.711   7.080  1.8851  1.2690  1.6568
  472MOL0     H65080  10.747   7.634   7.030  0.4758 -0.6241  0.6517
  472MOL0     H65081  10.658   7.848   6.849  1.2543 -4.9417 -2.4579
  472MOL0     H65082  10.812   7.828   6.930 -0.8017 -1.7418 -1.4837
  472MOL0     H65083  10.564   7.980   7.030 -0.3104 -0.9511  2.4283
  472MOL0     H65084  10.681   7.919   7.139 -1.1434 -0.6765  0.7080
  472MOL0     H65085  10.599   8.196   6.907 -0.7814 -0.6542  1.8208
  472MOL0     H65086  10.881   8.451   6.878  3.5385 -4.7550  2.2449
  472MOL0     H65087  10.709   8.430   6.862  0.7882  2.1199 -0.3939
  472MOL0     H65088  10.746   8.245   6.677  0.5326 -0.6502 -0.8935
  472MOL0     H65089  10.790   8.413   6.624  0.6882  0.2223 -0.1363
  472MOL0     H65090  10.983   8.197   6.708 -0.1760  0.9270  0.3419
  472MOL0     H65091  10.939   8.240   6.545 -0.7015  1.8176 -0.3523
  472MOL0     H65092  11.062   8.439   6.749  0.3256  2.8298 -1.0846
  472MOL0     H65093  11.155   8.364   6.627 -0.4162  0.2709 -0.7227
  472MOL0     H65094  10.977   8.693   6.370  0.2945  2.0871 -2.9264
  472MOL0     H65095  11.178   8.840   6.144  1.1333  0.0293 -0.7757
  472MOL0     H65096  11.108   8.946   6.264  2.3792 -0.7777  0.0817
  472MOL0     H65097  11.017   8.795   6.208 -0.3576  1.4187 -1.8195
  472MOL0     H65098  11.500   8.918   6.027 -0.6558 -0.5954  1.7352
  472MOL0     H65099  11.646   9.052   5.921 -2.2322 -2.8341  0.6840
  472MOL0     H65100  11.742   9.449   6.177 -1.3158 -1.1031 -0.1507
  472MOL0     H65101  11.817   9.483   6.020  0.3105  0.7364 -0.8852
  472MOL0     H65102  11.575   9.375   5.935 -0.9492  0.1270  1.3324
  472MOL0     H65103  11.520   9.440   6.094  0.9335 -1.8061  0.6202
  472MOL0     H65104  11.644   9.669   6.008 -1.1007  0.2825  1.5552
  472MOL0     H65105  11.480   9.617   5.980  0.8734 -0.7307 -0.3538
  472MOL0     H65106  11.560   9.512   5.762 -1.1577  0.3635  1.5200
  472MOL0     H65107  11.727   9.555   5.787 -0.3116 -3.8419  1.4872
  472MOL0     H65108  11.580   9.709   5.634  0.8706 -3.9028 -0.3113
  472MOL0     H65109  11.485   9.753   5.771 -0.0299  0.0101  1.1577
  472MOL0     H65110  11.736   9.836   5.854  1.6322 -0.3576 -0.4198
  472MOL0     H65111  11.631   9.923   5.742 -0.2538 -0.5782  2.9709
  472MOL0     H65112  11.823   9.937   5.617 -0.7733 -0.2232  0.1101
  472MOL0     H65113  11.785   9.775   5.555 -2.0678 -1.6659  1.1453
  472MOL0     H65114  11.923   9.654   5.717  0.9469  0.1049 -0.5496
  472MOL0     H65115  11.972   9.813   5.788  2.5643 -2.4437  0.2939
  472MOL0     H65116  11.683   9.281   6.303 -1.4815  2.5033 -2.2593
  472MOL0     H65117  11.506   9.143   6.397 -1.4252  0.1260 -0.2207
  472MOL0     H65118  11.415   8.739   6.605 -0.0200  2.8254 -1.2796
  472MOL0     H65119  11.239   8.561   6.684  1.1100  0.2541  0.0032
  472MOL0     H65120  10.383   6.832   7.023 -0.7721  0.2266  0.8844
  472MOL0     H65121  10.549   6.761   7.199  0.8545 -4.1593 -3.4103
  472MOL0     H65122  10.969   6.559   7.241  2.8569 -1.0185 -0.4810
  472MOL0     H65123  11.116   6.476   7.433 -1.5001  0.4883  0.8320
  472MOL0     H65124  11.402   6.575   7.452  2.9087  0.5356  0.5403
  472MOL0     H65125  11.457   6.675   7.583  0.5384 -0.9591  0.2652
  472MOL0     H65126  11.385   6.392   7.553 -1.4291 -0.1499 -0.4406
  472MOL0     H65127  11.398   6.450   7.716 -2.0522 -1.6401 -0.4972
  472MOL0     H65128  11.622   6.356   7.647 -2.0516  0.0490  1.1226
  472MOL0     H65129  11.625   6.448   7.498  3.2712  0.1891  1.0401
  472MOL0     H65130  11.665   6.653   7.648 -1.5999  1.1647  0.0828
  472MOL0     H65131  11.776   6.518   7.686  0.5572  2.2891  0.6544
  472MOL0     H65132  11.583   6.593   8.043  1.0045 -5.4354 -0.2515
  472MOL0     H65133  11.157   6.873   7.579 -1.2001  2.0861 -1.7269
  472MOL0     H65134  11.099   7.057   7.409 -1.6904  1.6278  4.1772
  472MOL0     H65135  10.972   7.019   7.295 -2.8378 -1.4407  0.4266
  472MOL0     H65136  10.943   7.017   7.472  0.7830 -5.2345  2.0693
  473MOL0     O65137   2.004   2.158   8.087  0.3863  0.0534 -0.4313
  473MOL0     C65138   2.081   2.123   7.999 -0.7625 -0.2999 -0.8928
  473MOL0     O65139   2.059   2.020   7.923 -0.2400 -0.0795  0.2205
  473MOL0     C65140   1.972   1.917   7.957  1.0266 -0.3522 -0.6141
  473MOL0     C65141   2.017   1.783   7.991 -0.1387 -0.5778 -0.6456
  473MOL0     C65142   1.922   1.677   7.991 -0.0158  0.4183 -0.6249
  473MOL0     C65143   1.791   1.696   7.951 -0.6535  0.2341  0.6140
  473MOL0     O65144   1.706   1.592   7.954  0.5902 -0.0283  0.2309
  473MOL0     C65145   1.595   1.579   7.870 -0.9856  0.1297  0.2226
  473MOL0     C65146   1.533   1.444   7.878 -0.4663 -0.7424 -0.1368
  473MOL0     C65147   1.503   1.384   8.019  0.3477 -0.2875 -0.5533
  473MOL0     C65148   1.399   1.467   8.106  0.5143  0.0848 -0.4474
  473MOL0     C65149   1.436   1.448   8.255 -0.0137  0.0176  0.3809
  473MOL0     C65150   1.328   1.368   8.341 -0.5913 -0.0187  1.0653
  473MOL0     C65151   1.375   1.300   8.472  0.7457 -0.5337  0.9939
  473MOL0     C65152   1.468   1.387   8.559  0.0543 -0.3258  0.1960
  473MOL0     N65153   1.534   1.329   8.671  0.0728 -0.3667 -0.2855
  473MOL0     C65154   1.483   1.315   8.798 -0.5318 -0.6242  1.0800
  473MOL0     C65155   1.580   1.277   8.887  0.8466  0.4962  0.4266
  473MOL0     C65156   1.580   1.261   9.040 -0.0229 -0.6020  0.4497
  473MOL0     C65157   1.480   1.339   9.115 -0.1079 -0.6473  0.0506
  473MOL0     C65158   1.341   1.281   9.115 -0.3484 -0.6941  0.6345
  473MOL0     C65159   1.267   1.330   9.242 -0.0916  0.9218  0.1581
  473MOL0     O65160   1.149   1.252   9.244  0.6215 -0.2828  0.1619
  473MOL0     C65161   1.090   1.235   9.374  0.5580 -0.3358 -0.3018
  473MOL0     C65162   1.072   1.339   9.464  1.0503  0.2991  0.2601
  473MOL0     C65163   1.012   1.311   9.594  0.0648  0.6901  0.3373
  473MOL0     C65164   1.024   1.437   9.691  0.7088 -0.8251  0.9502
  473MOL0     C65165   0.951   1.188   9.623  0.8688  0.2371 -0.0021
  473MOL0     C65166   0.879   1.160   9.752 -0.5787 -0.3324  0.2236
  473MOL0     O65167   0.900   1.238   9.866 -0.1014  0.2421  0.1735
  473MOL0     C65168   0.821   1.225   9.973  0.1771 -0.2606  0.0876
  473MOL0     C65169   0.816   1.102  10.036  0.5205 -1.3996  0.4934
  473MOL0     C65170   0.718   1.075  10.138 -0.2831 -1.2289 -0.3811
  473MOL0     C65171   0.629   1.180  10.184  0.3188  0.0376  0.0953
  473MOL0     O65172   0.565   1.177  10.305 -0.2402  0.2706  0.1402
  473MOL0     C65173   0.447   1.101  10.284  0.5082 -0.4561 -0.5784
  473MOL0     C65174   0.395   1.096  10.424  0.0856 -0.5219 -0.7941
  473MOL0     C65175   0.266   1.014  10.445 -0.3091 -0.2073 -0.3305
  473MOL0     C65176   0.214   1.033  10.593  1.3478 -0.4910  0.0414
  473MOL0     C65177   0.103   0.927  10.619 -0.9140  0.2411  0.1484
  473MOL0     C65178   0.075   0.923  10.770 -0.1257 -0.0980  0.6190
  473MOL0     C65179  -0.036   0.809  10.813  0.3829  0.3182  0.7364
  473MOL0     C65180  -0.181   0.856  10.814  0.1215  0.2036 -0.4066
  473MOL0    Cl65181  -0.243   0.895  10.645 -0.1911 -0.2647  0.2723
  473MOL0     C65182   0.659   1.312  10.136  0.2958  0.9079 -0.1566
  473MOL0     C65183   0.750   1.333  10.020 -0.7061 -0.5647 -0.4525
  473MOL0     O65184   0.796   1.072   9.746 -0.2683 -0.7223 -0.1820
  473MOL0     C65185   0.960   1.093   9.516  0.2805 -0.8369 -0.3547
  473MOL0     C65186   1.036   1.110   9.405 -0.4955 -1.2702 -1.3393
  473MOL0     N65187   1.687   1.259   8.797  0.0016 -0.3708 -0.1890
  473MOL0     N65188   1.661   1.297   8.679 -0.4767 -0.1928 -0.4970
  473MOL0     C65189   1.752   1.824   7.913 -0.0812 -0.3344  0.4464
  473MOL0     C65190   1.844   1.926   7.909  0.3605 -0.1494  0.3638
  473MOL0     C65191   2.207   2.201   7.986 -0.1006  0.0193  0.5345
  473MOL0     C65192   2.259   2.217   7.854  0.2609  0.4559 -0.9155
  473MOL0     C65193   2.378   2.285   7.834  0.7812  0.1252  0.0838
  473MOL0     C65194   2.446   2.327   7.949  0.2725 -0.8849  0.8880
  473MOL0     O65195   2.560   2.394   7.956  0.8042  0.5485 -0.4586
  473MOL0     C65196   2.616   2.474   7.849  0.4502 -0.5243 -0.3362
  473MOL0     C65197   2.582   2.622   7.854 -0.5889 -0.2584  0.3101
  473MOL0     C65198   2.673   2.704   7.751  1.2738 -0.0008  0.2440
  473MOL0     C65199   2.619   2.844   7.741 -0.7874  0.2662  0.3184
  473MOL0     C65200   2.511   2.851   7.637  0.6922 -0.3530  0.3076
  473MOL0     C65201   2.431   2.861   7.552  0.2936  0.0393 -0.5735
  473MOL0     C65202   2.393   2.318   8.076 -0.2940  0.0517 -0.5149
  473MOL0     C65203   2.284   2.254   8.097  0.0974  0.4118 -1.0909
  473MOL0     C65204   2.243   2.241   8.244 -0.1800  0.0558 -0.1242
  473MOL0     H65205   2.124   1.766   7.993 -0.4521 -2.7118  2.0051
  473MOL0     H65206   1.953   1.578   8.022 -0.1186  1.0172  1.5594
  473MOL0     H65207   1.617   1.590   7.764 -2.8053 -0.7624 -0.2888
  473MOL0     H65208   1.528   1.658   7.905 -1.5317 -0.6789  1.0551
  473MOL0     H65209   1.440   1.454   7.822 -0.7546  0.3868  0.5182
  473MOL0     H65210   1.603   1.373   7.832  2.6119  2.2312 -0.4251
  473MOL0     H65211   1.457   1.284   8.017  2.0842 -1.1277  0.0500
  473MOL0     H65212   1.604   1.378   8.059  1.2383 -0.0335 -2.6425
  473MOL0     H65213   1.400   1.574   8.087 -3.6542  0.5540  1.1122
  473MOL0     H65214   1.302   1.425   8.079 -0.3601  0.6661  1.6256
  473MOL0     H65215   1.458   1.544   8.303  2.8140  0.2790 -1.1880
  473MOL0     H65216   1.530   1.392   8.252  0.9672  1.5532 -2.9232
  473MOL0     H65217   1.248   1.434   8.377 -0.2581 -1.4617  4.9978
  473MOL0     H65218   1.287   1.285   8.282  2.4448  0.5896 -2.1978
  473MOL0     H65219   1.421   1.204   8.448  0.6950 -0.7218  1.6162
  473MOL0     H65220   1.281   1.284   8.525  0.7247  1.8982  1.8416
  473MOL0     H65221   1.540   1.435   8.492  0.9405  1.4625  2.2823
  473MOL0     H65222   1.397   1.463   8.594 -1.1225 -0.1241 -2.3602
  473MOL0     H65223   1.377   1.326   8.815 -0.8925 -0.4240 -1.0747
  473MOL0     H65224   1.668   1.312   9.081  0.1719 -0.5061 -0.0754
  473MOL0     H65225   1.587   1.156   9.069 -0.2470 -0.8274 -0.2925
  473MOL0     H65226   1.514   1.350   9.218 -0.6244  0.0375  0.1563
  473MOL0     H65227   1.485   1.443   9.082 -1.3020 -1.3812 -2.8380
  473MOL0     H65228   1.285   1.300   9.024  0.3241  2.5333  0.7922
  473MOL0     H65229   1.356   1.174   9.136  2.4404 -0.6820 -0.8332
  473MOL0     H65230   1.331   1.317   9.330  0.0650 -1.6055 -0.2566
  473MOL0     H65231   1.246   1.437   9.237 -0.1924  0.8729 -0.5524
  473MOL0     H65232   1.121   1.434   9.447  0.3769  0.0463 -4.2307
  473MOL0     H65233   0.924   1.482   9.697  1.1969  0.3904  0.4634
  473MOL0     H65234   1.081   1.519   9.645  0.3112  0.3048  2.3974
  473MOL0     H65235   1.059   1.415   9.792 -0.8381 -1.3318  1.4044
  473MOL0     H65236   0.874   1.020   9.996  0.6650 -1.9763  1.8366
  473MOL0     H65237   0.715   0.981  10.192  0.8320 -2.9385 -3.0679
  473MOL0     H65238   0.378   1.162  10.225  2.4795  2.7334  0.1733
  473MOL0     H65239   0.462   1.000  10.246  4.0912 -0.2029 -0.2298
  473MOL0     H65240   0.466   1.034  10.479 -0.8887 -1.4871 -0.5733
  473MOL0     H65241   0.390   1.195  10.470  0.5518 -0.3696 -1.0648
  473MOL0     H65242   0.291   0.909  10.430 -1.0624 -0.8992  2.6701
  473MOL0     H65243   0.204   1.053  10.364  1.2637  0.9603 -1.0471
  473MOL0     H65244   0.177   1.136  10.597  0.1229 -0.8079 -1.7771
  473MOL0     H65245   0.295   1.012  10.664  0.6237 -2.8221  0.2556
  473MOL0     H65246   0.018   0.965  10.561 -0.5020  0.1248 -0.5419
  473MOL0     H65247   0.142   0.830  10.586  1.4137  0.9110  0.7222
  473MOL0     H65248   0.045   1.023  10.804  1.8754  0.8597 -0.2528
  473MOL0     H65249   0.161   0.894  10.831  1.1233  2.0214 -0.0259
  473MOL0     H65250  -0.003   0.775  10.912 -0.5220  1.5108  1.4753
  473MOL0     H65251  -0.019   0.731  10.739 -2.4174 -0.2488  0.5917
  473MOL0     H65252  -0.175   0.942  10.882  0.3879  1.3147 -1.7806
  473MOL0     H65253  -0.248   0.786  10.865  0.8291  1.3441  2.2495
  473MOL0     H65254   0.585   1.372  10.188 -1.1835  1.0975 -2.3504
  473MOL0     H65255   0.752   1.433   9.979  0.9139 -0.9207 -1.3058
  473MOL0     H65256   0.914   0.995   9.523 -0.4726 -0.5935 -1.7225
  473MOL0     H65257   1.053   1.022   9.344  3.1307 -0.2580 -2.0174
  473MOL0     H65258   1.654   1.837   7.868  0.7029  1.8983 -0.8094
  473MOL0     H65259   1.827   2.023   7.862 -0.3510  0.6668  2.2082
  473MOL0     H65260   2.221   2.170   7.764  0.9595  2.0047 -2.0607
  473MOL0     H65261   2.415   2.299   7.733 -1.7189  1.1800 -0.7680
  473MOL0     H65262   2.724   2.460   7.860  0.6091 -1.3045 -2.5486
  473MOL0     H65263   2.596   2.435   7.749  1.9806 -0.1154 -0.8318
  473MOL0     H65264   2.604   2.656   7.956  4.1358  1.2371 -0.9163
  473MOL0     H65265   2.478   2.650   7.836 -0.6920 -0.5826  0.4063
  473MOL0     H65266   2.777   2.708   7.787  1.3733  0.2119 -0.0624
  473MOL0     H65267   2.665   2.654   7.654 -1.5790  1.1417 -0.1826
  473MOL0     H65268   2.703   2.910   7.714 -1.1607  0.4473 -0.4363
  473MOL0     H65269   2.583   2.883   7.836 -2.8056  2.3555 -1.1789
  473MOL0     H65270   2.357   2.848   7.476 -0.9046  0.7967  0.4213
  473MOL0     H65271   2.445   2.358   8.163 -1.6768 -1.3290  1.0220
  473MOL0     H65272   2.335   2.222   8.300  1.8174  1.3904 -2.7397
  473MOL0     H65273   2.192   2.332   8.275 -1.6086  0.9904 -4.4689
  473MOL0     H65274   2.176   2.156   8.264 -0.2326 -0.3032 -1.7093
  474MOL0     O65275   3.735  10.910   2.337 -0.3882  0.0219 -0.2656
  474MOL0     C65276   3.701  10.811   2.277  0.4109  0.7224 -0.3281
  474MOL0     O65277   3.742  10.690   2.314  0.1468  0.3622 -0.6059
  474MOL0     C65278   3.826  10.661   2.427 -0.2919 -0.0596  0.0120
  474MOL0     C65279   3.926  10.752   2.478  0.7041  0.6275 -1.2037
  474MOL0     C65280   3.998  10.723   2.591  0.5105 -0.9447 -0.3672
  474MOL0     C65281   3.977  10.605   2.656 -0.9169  0.6327 -0.5492
  474MOL0     O65282   4.051  10.570   2.767 -0.3658 -0.8649 -0.2046
  474MOL0     C65283   4.192  10.569   2.752 -0.8817 -0.5978  0.2078
  474MOL0     C65284   4.255  10.443   2.670  0.2379 -1.3352 -0.2310
  474MOL0     C65285   4.388  10.411   2.746  0.8571  0.1559 -0.1831
  474MOL0     C65286   4.490  10.325   2.661 -0.3719 -0.2783  0.1442
  474MOL0     C65287   4.626  10.288   2.732  0.4075 -0.2366 -0.3850
  474MOL0     C65288   4.612  10.206   2.869 -0.3501  0.0726  1.0076
  474MOL0     C65289   4.737  10.221   2.965 -0.3151 -0.9146  0.7688
  474MOL0     C65290   4.865  10.216   2.886  0.2719  0.9595  0.1120
  474MOL0     N65291   4.985  10.248   2.965 -0.3312 -0.2487 -0.2463
  474MOL0     C65292   5.036  10.177   3.075  0.0178 -0.6933  0.7857
  474MOL0     C65293   5.131  10.253   3.134 -0.4028 -0.8895 -0.0351
  474MOL0     C65294   5.205  10.219   3.261  0.2223  0.7220  0.7488
  474MOL0     C65295   5.154  10.284   3.391  0.7348  0.7638  0.4494
  474MOL0     C65296   5.166  10.441   3.388  0.3789  0.1380 -0.2237
  474MOL0     C65297   5.134  10.516   3.521 -0.4624  1.0133 -0.1073
  474MOL0     O65298   5.190  10.449   3.634 -0.9873  0.0990 -1.7157
  474MOL0     C65299   5.104  10.415   3.728  0.2951  0.3225 -0.8181
  474MOL0     C65300   5.058  10.290   3.736 -0.2020 -0.7231  0.7802
  474MOL0     C65301   4.965  10.257   3.834 -0.5546  0.6097 -0.0751
  474MOL0     C65302   4.929  10.109   3.830 -0.7800 -0.0274 -0.1208
  474MOL0     C65303   4.912  10.353   3.923 -0.6106 -0.4778 -0.3247
  474MOL0     C65304   4.803  10.328   4.018  0.0825 -0.3692  0.1161
  474MOL0     O65305   4.732  10.207   4.005 -0.6023  0.1735 -0.1439
  474MOL0     C65306   4.640  10.159   4.092  0.1324  1.3831 -0.1270
  474MOL0     C65307   4.631  10.188   4.237 -0.0219 -0.3233  0.4193
  474MOL0     C65308   4.527  10.140   4.310 -1.2506 -0.0948 -1.2028
  474MOL0     C65309   4.438  10.052   4.252 -0.2701 -0.0574 -0.1939
  474MOL0     O65310   4.338   9.995   4.326  0.3455 -1.0208 -0.6136
  474MOL0     C65311   4.195  10.025   4.299  0.3541  0.3290  1.1276
  474MOL0     C65312   4.103   9.996   4.412  0.1189 -0.9521  0.1011
  474MOL0     C65313   4.087   9.853   4.445  0.8393 -0.1795 -0.9378
  474MOL0     C65314   4.001   9.828   4.569 -0.5761 -0.4411  0.1916
  474MOL0     C65315   4.004   9.679   4.605  0.7544 -0.3005  0.2478
  474MOL0     C65316   3.893   9.649   4.713  0.7224 -0.6725 -0.1737
  474MOL0     C65317   3.922   9.528   4.809  0.0274  0.0490  0.5057
  474MOL0     C65318   3.780   9.485   4.863  1.0241  0.2023 -0.5342
  474MOL0    Cl65319   3.694   9.612   4.969 -0.7653  0.0587  0.5005
  474MOL0     C65320   4.433  10.036   4.113  0.5009  0.6619 -0.2471
  474MOL0     C65321   4.532  10.082   4.040 -0.0086 -0.4531  1.0768
  474MOL0     O65322   4.783  10.412   4.110  0.5841 -0.1509 -0.1019
  474MOL0     C65323   4.956  10.485   3.901 -0.0153 -0.4381  0.9974
  474MOL0     C65324   5.055  10.507   3.813  0.6183  0.5564 -1.0478
  474MOL0     N65325   5.146  10.362   3.048 -0.3154 -0.3118  0.6522
  474MOL0     N65326   5.055  10.365   2.959 -0.2781  0.1036 -0.1563
  474MOL0     C65327   3.883  10.508   2.606 -0.6677 -0.0966 -0.4621
  474MOL0     C65328   3.814  10.542   2.494 -0.1145  0.8927 -0.4264
  474MOL0     C65329   3.614  10.819   2.158 -0.1650  0.4830  0.1545
  474MOL0     C65330   3.612  10.704   2.065 -0.3187  0.1799  1.7415
  474MOL0     C65331   3.543  10.706   1.944 -1.4469  0.5786 -0.7302
  474MOL0     C65332   3.468  10.812   1.904  0.3689 -0.0055 -0.3164
  474MOL0     O65333   3.419  10.789   1.776  0.1545  0.5984 -0.4036
  474MOL0     C65334   3.344  10.900   1.722 -0.0721 -0.3258 -0.1366
  474MOL0     C65335   3.325  10.892   1.567 -0.5163 -0.0365  0.0577
  474MOL0     C65336   3.300  10.748   1.511  1.3983  1.0560 -1.6872
  474MOL0     C65337   3.165  10.696   1.576  0.1939 -0.1918  0.1481
  474MOL0     C65338   3.121  10.581   1.492 -0.6156  0.0876 -0.0175
  474MOL0     C65339   3.102  10.463   1.456 -0.6039  0.5866  1.1824
  474MOL0     C65340   3.468  10.920   1.988  0.7632  0.0479 -0.6548
  474MOL0     C65341   3.537  10.921   2.109  0.4957  1.2447 -0.8503
  474MOL0     C65342   3.529  11.055   2.184 -1.3847 -0.5958 -0.3517
  474MOL0     H65343   3.939  10.847   2.427 -0.1737  0.8326 -1.0606
  474MOL0     H65344   4.062  10.806   2.622 -0.6578 -0.3741  0.6439
  474MOL0     H65345   4.232  10.580   2.853  0.3062  0.6372 -0.3690
  474MOL0     H65346   4.234  10.662   2.712  2.0738 -0.8637  2.3257
  474MOL0     H65347   4.184  10.361   2.681 -1.7316  0.4459  1.2723
  474MOL0     H65348   4.280  10.461   2.565  1.1776 -2.2938 -0.1863
  474MOL0     H65349   4.441  10.504   2.768  3.2193 -1.1773  0.0798
  474MOL0     H65350   4.374  10.349   2.835  1.0202 -2.5398 -1.9240
  474MOL0     H65351   4.453  10.222   2.651  0.1049 -0.6353  1.7821
  474MOL0     H65352   4.511  10.364   2.561  2.1229 -2.9941 -0.5354
  474MOL0     H65353   4.672  10.386   2.747 -0.8463  0.2761  0.2651
  474MOL0     H65354   4.695  10.243   2.661 -0.7621 -1.9374 -0.4879
  474MOL0     H65355   4.529  10.249   2.926  2.2371  4.1310  2.1081
  474MOL0     H65356   4.587  10.100   2.854  5.6172 -1.2441 -2.8366
  474MOL0     H65357   4.728  10.139   3.037 -1.0609 -1.1718  0.3952
  474MOL0     H65358   4.722  10.309   3.028 -1.8042  0.4586 -1.3727
  474MOL0     H65359   4.865  10.115   2.843 -0.0319  0.9541  0.1197
  474MOL0     H65360   4.873  10.295   2.811  2.4278 -0.6521 -1.4959
  474MOL0     H65361   4.991  10.088   3.118 -0.2158 -1.2188 -0.5015
  474MOL0     H65362   5.309  10.252   3.256  0.0585  1.0886 -0.6172
  474MOL0     H65363   5.198  10.111   3.271 -0.1222  0.5249 -1.2682
  474MOL0     H65364   5.046  10.276   3.411  0.6356  2.6287  0.8344
  474MOL0     H65365   5.210  10.238   3.473 -1.9698 -0.7723  1.5634
  474MOL0     H65366   5.274  10.452   3.379  0.4567 -1.1257 -1.1284
  474MOL0     H65367   5.104  10.480   3.307  0.4344 -0.7497 -0.7045
  474MOL0     H65368   5.171  10.619   3.531 -1.6904  1.3645  1.2125
  474MOL0     H65369   5.026  10.533   3.521 -0.5923  0.3464 -1.5770
  474MOL0     H65370   5.112  10.224   3.669  1.5797  0.9598  0.4319
  474MOL0     H65371   4.829  10.100   3.787 -0.9337  0.4688  0.1253
  474MOL0     H65372   4.934  10.061   3.928  0.4667  0.6448  0.1724
  474MOL0     H65373   4.990  10.045   3.766 -4.9657 -1.7973 -2.7299
  474MOL0     H65374   4.694  10.251   4.299 -2.6018  3.7271 -0.6619
  474MOL0     H65375   4.511  10.154   4.416 -1.8193  1.5363 -1.4871
  474MOL0     H65376   4.194  10.131   4.271  1.8879 -0.1937 -1.1463
  474MOL0     H65377   4.169   9.968   4.210  2.9006 -0.2767  0.6899
  474MOL0     H65378   4.153  10.036   4.501 -0.6608 -0.3379  0.2700
  474MOL0     H65379   4.007  10.042   4.387 -0.4794 -0.5683  2.7942
  474MOL0     H65380   4.183   9.805   4.465  1.1276  1.1837  1.2251
  474MOL0     H65381   4.037   9.806   4.359 -0.6528 -2.6646  1.1536
  474MOL0     H65382   3.903   9.874   4.557  0.2912  0.8421 -3.1448
  474MOL0     H65383   4.059   9.881   4.646 -0.7146  1.3013 -0.8483
  474MOL0     H65384   3.977   9.621   4.516 -4.7424  0.7360  0.8648
  474MOL0     H65385   4.105   9.659   4.642  1.5955  4.0999  0.8831
  474MOL0     H65386   3.795   9.635   4.668 -0.1752 -1.2289  1.8199
  474MOL0     H65387   3.890   9.737   4.778 -0.0091  1.1794 -2.5936
  474MOL0     H65388   3.993   9.543   4.891  1.5273  1.4181 -0.9469
  474MOL0     H65389   3.968   9.459   4.737 -1.2315 -1.8789  1.4766
  474MOL0     H65390   3.789   9.404   4.937 -2.7326 -0.5621 -0.7278
  474MOL0     H65391   3.714   9.464   4.778 -0.0001 -1.5369  0.6172
  474MOL0     H65392   4.352   9.979   4.070 -0.3635  2.7386 -1.5086
  474MOL0     H65393   4.548  10.065   3.934  0.6373  1.7332  0.7567
  474MOL0     H65394   4.917  10.575   3.949 -1.4353 -0.0649 -0.7363
  474MOL0     H65395   5.099  10.606   3.813 -0.2694  1.2934 -6.7430
  474MOL0     H65396   3.865  10.411   2.652 -1.4622  0.2555 -0.0168
  474MOL0     H65397   3.743  10.468   2.458 -3.1372  2.9596  0.8316
  474MOL0     H65398   3.662  10.611   2.094  1.5817  0.2092 -0.9993
  474MOL0     H65399   3.547  10.611   1.891  2.8961 -0.4313  1.0099
  474MOL0     H65400   3.244  10.907   1.766 -1.2339 -0.4304 -2.5833
  474MOL0     H65401   3.398  10.991   1.749 -1.4926  0.5603 -0.1247
  474MOL0     H65402   3.425  10.905   1.527  0.8696 -0.5005  3.0517
  474MOL0     H65403   3.266  10.972   1.523  1.0597  0.4631 -1.1919
  474MOL0     H65404   3.299  10.750   1.402 -0.0574  1.1639 -1.6972
  474MOL0     H65405   3.370  10.669   1.541 -1.5336 -1.6375 -1.3663
  474MOL0     H65406   3.093  10.777   1.583  0.8077  0.1994  3.0983
  474MOL0     H65407   3.175  10.666   1.681 -0.8190 -2.2782 -0.3047
  474MOL0     H65408   3.091  10.364   1.418 -0.4411  1.4311 -1.2758
  474MOL0     H65409   3.407  11.008   1.971  0.4508 -0.0840 -0.2351
  474MOL0     H65410   3.506  11.036   2.289 -1.6871  0.9831 -0.1062
  474MOL0     H65411   3.623  11.110   2.175 -2.4007  1.4638  0.8615
  474MOL0     H65412   3.454  11.125   2.147 -1.1227  1.4068  2.5575
  475MOL0     O65413   0.194   3.399   8.934 -0.2873 -0.6122 -0.0928
  475MOL0     C65414   0.180   3.369   8.817  1.2377 -0.4559 -0.0991
  475MOL0     O65415   0.279   3.317   8.736  0.0081 -0.6290  0.7371
  475MOL0     C65416   0.396   3.266   8.792  1.0546  1.2941  0.7936
  475MOL0     C65417   0.506   3.251   8.707  0.4271 -0.6107 -0.7488
  475MOL0     C65418   0.629   3.208   8.754 -0.0387  0.4673  0.0819
  475MOL0     C65419   0.637   3.143   8.877 -0.0632 -0.0684  0.3683
  475MOL0     O65420   0.752   3.070   8.909 -0.7721 -0.0916 -0.6104
  475MOL0     C65421   0.756   2.978   9.023  0.5120 -0.7483  0.7017
  475MOL0     C65422   0.893   2.913   9.006 -0.8873  0.2886  0.2005
  475MOL0     C65423   0.913   2.818   8.888 -0.5430  1.0048  0.9147
  475MOL0     C65424   0.994   2.694   8.937  0.3356  0.4847  0.2733
  475MOL0     C65425   1.003   2.596   8.822 -0.5167  1.5901 -0.4018
  475MOL0     C65426   0.875   2.528   8.766  1.2176  0.9029  0.5693
  475MOL0     C65427   0.811   2.426   8.863 -0.1187 -0.0223 -0.0522
  475MOL0     C65428   0.682   2.368   8.813  0.6604  0.8700 -0.4805
  475MOL0     N65429   0.620   2.294   8.923  0.4588 -0.1033  0.0458
  475MOL0     C65430   0.544   2.353   9.028  0.9851 -0.6260  0.0487
  475MOL0     C65431   0.497   2.243   9.097 -0.0136  0.4637  0.0684
  475MOL0     C65432   0.406   2.254   9.223  0.2395 -0.4216 -0.2610
  475MOL0     C65433   0.478   2.319   9.348  0.5252  0.6660 -0.3153
  475MOL0     C65434   0.398   2.311   9.475 -0.1988 -0.1737 -0.8260
  475MOL0     C65435   0.456   2.399   9.594 -0.0428  0.1064  0.1531
  475MOL0     O65436   0.602   2.413   9.589  0.1774 -0.2748 -0.6894
  475MOL0     C65437   0.658   2.387   9.718  0.6343 -0.3816  0.3785
  475MOL0     C65438   0.773   2.319   9.730 -0.2794 -0.0892  0.4820
  475MOL0     C65439   0.848   2.301   9.847 -0.2065 -0.1738  0.2569
  475MOL0     C65440   0.971   2.208   9.847 -0.0279 -0.3150  0.3753
  475MOL0     C65441   0.788   2.357   9.964  0.5940 -0.7780  0.1108
  475MOL0     C65442   0.847   2.365  10.095 -0.4780  0.5823  0.1125
  475MOL0     O65443   0.974   2.315  10.099 -0.1113  0.3399  0.3334
  475MOL0     C65444   1.022   2.251  10.210  0.0153 -0.2314 -0.3408
  475MOL0     C65445   1.114   2.331  10.288  0.0581  0.4870 -0.4576
  475MOL0     C65446   1.181   2.267  10.388  1.1267 -0.3854 -0.0617
  475MOL0     C65447   1.153   2.139  10.427 -0.2405 -1.4040 -0.9459
  475MOL0     O65448   1.216   2.083  10.526 -0.1206 -0.6024  0.0554
  475MOL0     C65449   1.307   1.984  10.476 -0.6434  0.6590 -0.3003
  475MOL0     C65450   1.312   1.878  10.585  0.1621  0.9375 -0.9493
  475MOL0     C65451   1.231   1.752  10.554  0.1441  0.2057  0.9658
  475MOL0     C65452   1.243   1.643  10.663 -0.6829 -0.5212 -1.2067
  475MOL0     C65453   1.114   1.577  10.680 -0.3664 -1.2971 -0.2436
  475MOL0     C65454   0.987   1.666  10.714 -0.1646  0.5892  0.1061
  475MOL0     C65455   1.015   1.766  10.830  0.2198 -0.0836 -0.2181
  475MOL0     C65456   0.883   1.847  10.853  0.6307  0.3907  0.2036
  475MOL0    Cl65457   0.901   1.945  11.005 -0.0217 -0.1427  0.4222
  475MOL0     C65458   1.050   2.068  10.365  0.5227  0.7821 -1.2225
  475MOL0     C65459   0.986   2.123  10.255  0.3007 -0.4677 -0.1100
  475MOL0     O65460   0.776   2.410  10.187  0.3930  0.8100  0.7922
  475MOL0     C65461   0.677   2.447   9.944 -0.1928  0.2072 -0.5693
  475MOL0     C65462   0.623   2.472   9.823 -0.5785  0.3507 -0.2837
  475MOL0     N65463   0.582   2.137   9.065  0.8791 -0.0457 -0.3555
  475MOL0     N65464   0.641   2.169   8.955  0.1719  0.9377  0.7898
  475MOL0     C65465   0.526   3.146   8.954  0.0599 -1.5140  0.0528
  475MOL0     C65466   0.408   3.221   8.921 -0.7367  0.5549  0.3364
  475MOL0     C65467   0.071   3.425   8.736 -0.5209  0.5418 -0.7657
  475MOL0     C65468   0.087   3.454   8.599 -0.0625 -0.5809  0.4402
  475MOL0     C65469  -0.012   3.525   8.532 -0.0521 -0.2359 -0.9936
  475MOL0     C65470  -0.146   3.525   8.567 -1.0170  0.6647  1.1190
  475MOL0     O65471  -0.231   3.573   8.464 -0.9724 -0.3471  0.2472
  475MOL0     C65472  -0.374   3.567   8.483 -0.2299 -0.0967 -0.7861
  475MOL0     C65473  -0.414   3.435   8.426  1.0675 -1.0966 -0.3035
  475MOL0     C65474  -0.570   3.439   8.403  0.3278 -0.3382 -0.2623
  475MOL0     C65475  -0.646   3.303   8.401 -0.5879  0.5705 -0.1371
  475MOL0     C65476  -0.634   3.220   8.277  0.3186 -0.2563  0.3808
  475MOL0     C65477  -0.616   3.142   8.188  0.4080 -0.1033 -0.8808
  475MOL0     C65478  -0.170   3.468   8.693 -0.2361 -0.5956 -0.1376
  475MOL0     C65479  -0.066   3.425   8.779 -0.0885 -0.2000 -0.5603
  475MOL0     C65480  -0.117   3.408   8.925  0.5053 -0.3859 -0.4030
  475MOL0     H65481   0.496   3.281   8.603  0.7565 -1.0887 -0.9213
  475MOL0     H65482   0.714   3.203   8.686  0.4000  2.8271  0.3696
  475MOL0     H65483   0.679   2.906   8.994  1.6866 -0.4073 -4.2428
  475MOL0     H65484   0.744   3.038   9.114  4.5019  1.2222  0.1458
  475MOL0     H65485   0.972   2.989   9.013  0.1392 -0.7665  0.4244
  475MOL0     H65486   0.909   2.853   9.095  3.9444  2.4874  1.1326
  475MOL0     H65487   0.813   2.791   8.852  0.4755 -0.6492 -0.8860
  475MOL0     H65488   0.966   2.875   8.811 -1.0070 -0.0371 -0.2266
  475MOL0     H65489   1.092   2.724   8.975 -0.6728  2.6373  1.3706
  475MOL0     H65490   0.945   2.644   9.021  0.7547  0.4682  0.5102
  475MOL0     H65491   1.064   2.518   8.868 -2.2682  0.4528  0.0543
  475MOL0     H65492   1.061   2.640   8.740  0.3105 -0.9044 -1.2494
  475MOL0     H65493   0.801   2.601   8.732 -1.8568 -1.2243  2.1933
  475MOL0     H65494   0.902   2.467   8.679 -1.3582 -0.5319  0.6600
  475MOL0     H65495   0.779   2.477   8.955 -2.4005 -0.4528 -0.5507
  475MOL0     H65496   0.878   2.341   8.877  1.2627  0.7162 -1.8409
  475MOL0     H65497   0.621   2.448   8.770 -1.2484 -0.9234 -1.3206
  475MOL0     H65498   0.697   2.288   8.740  0.2873 -0.8972  1.2873
  475MOL0     H65499   0.502   2.452   9.044  1.9043 -0.6930  3.5955
  475MOL0     H65500   0.370   2.154   9.251 -2.6467  0.5002 -0.3605
  475MOL0     H65501   0.319   2.315   9.196 -0.6840 -2.2015 -1.5254
  475MOL0     H65502   0.571   2.262   9.356  1.9155  1.5660 -5.8067
  475MOL0     H65503   0.503   2.424   9.327  2.9067  0.0292 -1.0043
  475MOL0     H65504   0.298   2.342   9.444 -0.1880 -0.4509 -1.1482
  475MOL0     H65505   0.394   2.208   9.513  1.2017 -0.3661 -1.1576
  475MOL0     H65506   0.417   2.501   9.593  0.7555  0.4391 -1.9543
  475MOL0     H65507   0.412   2.349   9.680 -0.9435  0.1933 -0.2405
  475MOL0     H65508   0.810   2.271   9.640  4.6399  0.2793  1.9986
  475MOL0     H65509   0.982   2.163   9.748  5.6195 -0.1252  0.5483
  475MOL0     H65510   0.965   2.133   9.927  2.0773 -0.7433  0.2072
  475MOL0     H65511   1.055   2.277   9.854 -0.9510  0.7344  1.3570
  475MOL0     H65512   1.132   2.430  10.249 -0.6117  1.1086  0.7310
  475MOL0     H65513   1.258   2.324  10.438 -1.2785  2.1191  1.0876
  475MOL0     H65514   1.286   1.938  10.379 -1.3036  0.0368  0.1319
  475MOL0     H65515   1.406   2.029  10.476  1.1196 -2.8000 -1.6289
  475MOL0     H65516   1.417   1.853  10.603 -0.3442  0.4958  1.7472
  475MOL0     H65517   1.279   1.924  10.678 -0.0155  2.4180 -1.7178
  475MOL0     H65518   1.274   1.713  10.461  0.0974  2.5480 -0.1008
  475MOL0     H65519   1.128   1.777  10.528 -0.2767 -2.2656 -0.0398
  475MOL0     H65520   1.256   1.686  10.762 -0.4357 -1.4899 -0.8149
  475MOL0     H65521   1.324   1.573  10.640  0.8987  0.7160  0.3525
  475MOL0     H65522   1.093   1.526  10.586 -1.3509 -2.1932  0.4324
  475MOL0     H65523   1.128   1.501  10.758  2.2753 -0.2364  0.4150
  475MOL0     H65524   0.903   1.603  10.744  0.4115  0.6353  1.9034
  475MOL0     H65525   0.949   1.716  10.624  2.2192  1.5862 -0.4252
  475MOL0     H65526   1.094   1.839  10.807  0.3181 -0.2684 -0.4663
  475MOL0     H65527   1.048   1.711  10.919  3.4098  1.8016 -0.0611
  475MOL0     H65528   0.799   1.778  10.865  1.0764  0.2521  3.4389
  475MOL0     H65529   0.873   1.916  10.768  1.1163  1.9531  1.3679
  475MOL0     H65530   1.027   1.969  10.401 -0.0404  1.9362  1.9432
  475MOL0     H65531   0.903   2.072  10.206 -1.9762 -0.5909  3.4723
  475MOL0     H65532   0.645   2.518  10.019  1.1095 -0.1135  0.3268
  475MOL0     H65533   0.547   2.548   9.826 -0.2715  0.6337  1.9463
  475MOL0     H65534   0.540   3.103   9.053  1.2354 -1.2119  0.0333
  475MOL0     H65535   0.324   3.219   8.990 -1.6755  1.2507 -0.7484
  475MOL0     H65536   0.181   3.443   8.545  0.1022  3.7059 -0.4376
  475MOL0     H65537   0.025   3.564   8.437 -2.5773  3.0378 -0.8049
  475MOL0     H65538  -0.404   3.567   8.588  2.6674  0.6964  0.1352
  475MOL0     H65539  -0.426   3.651   8.438 -0.8650 -0.7318 -1.2626
  475MOL0     H65540  -0.402   3.347   8.490  0.0893 -0.9066  0.1712
  475MOL0     H65541  -0.370   3.417   8.328  0.0522  0.8318 -1.1602
  475MOL0     H65542  -0.622   3.489   8.485  0.3375 -1.2801  0.3342
  475MOL0     H65543  -0.590   3.503   8.317  0.1272  0.0164  0.0435
  475MOL0     H65544  -0.753   3.324   8.404 -1.7065 -4.2711  1.4637
  475MOL0     H65545  -0.609   3.247   8.487  1.2639  0.2827 -1.0745
  475MOL0     H65546  -0.589   3.064   8.120  6.0330 -0.0518  0.7363
  475MOL0     H65547  -0.271   3.458   8.733 -0.3264 -0.3492 -0.3002
  475MOL0     H65548  -0.200   3.338   8.917 -0.0518  0.4918 -3.3655
  475MOL0     H65549  -0.044   3.378   9.002 -0.0360  1.2014  0.7845
  475MOL0     H65550  -0.159   3.500   8.966  2.8427  0.4775  0.2500
  476MOL0     O65551   8.613   0.322   4.828  0.5165  0.3597 -0.3034
  476MOL0     C65552   8.493   0.301   4.849  0.5891  0.4611 -0.0051
  476MOL0     O65553   8.436   0.177   4.872  0.0486  0.2684 -0.1329
  476MOL0     C65554   8.511   0.063   4.845  0.0795 -0.3482 -0.6115
  476MOL0     C65555   8.457  -0.033   4.752  0.5654  0.5769  0.0851
  476MOL0     C65556   8.514  -0.155   4.729 -0.6756 -0.4243 -0.5676
  476MOL0     C65557   8.636  -0.186   4.805  0.7361  0.3260 -0.0474
  476MOL0     O65558   8.710  -0.300   4.783 -0.1906  0.6901 -0.6351
  476MOL0     C65559   8.634  -0.422   4.786  0.4363 -1.1105  0.4466
  476MOL0     C65560   8.720  -0.526   4.849 -0.2649  0.0022  0.6662
  476MOL0     C65561   8.754  -0.510   4.998  0.2467  0.2463 -0.4239
  476MOL0     C65562   8.642  -0.555   5.095 -0.4304  0.4739 -0.5421
  476MOL0     C65563   8.679  -0.546   5.239  0.3809  0.0810  1.1255
  476MOL0     C65564   8.715  -0.409   5.289  0.5523 -0.4199 -0.2917
  476MOL0     C65565   8.709  -0.419   5.443 -0.7689  0.6659 -0.6126
  476MOL0     C65566   8.759  -0.297   5.513  0.2847  0.5209 -0.4599
  476MOL0     N65567   8.900  -0.300   5.518 -0.3063 -0.2480  0.2268
  476MOL0     C65568   8.976  -0.197   5.461 -0.3627  0.5584  0.3401
  476MOL0     C65569   9.105  -0.232   5.500 -0.7411 -0.2812  0.2737
  476MOL0     C65570   9.233  -0.164   5.445 -0.3849  0.2011 -0.5178
  476MOL0     C65571   9.245  -0.160   5.292  0.4926  0.0845 -0.7490
  476MOL0     C65572   9.223  -0.306   5.230  0.8176 -0.5971 -0.2408
  476MOL0     C65573   9.201  -0.312   5.080  0.6764  0.5380  0.2780
  476MOL0     O65574   9.270  -0.211   5.013  0.5414 -0.0025  0.6192
  476MOL0     C65575   9.193  -0.159   4.910  0.6680  0.6755  0.3505
  476MOL0     C65576   9.138  -0.244   4.808  0.4222  0.2090 -0.1925
  476MOL0     C65577   9.063  -0.195   4.701 -0.6776 -0.4913  0.2508
  476MOL0     C65578   9.006  -0.281   4.612 -0.5606 -0.0336  0.0395
  476MOL0     C65579   9.046  -0.054   4.695 -0.9645 -0.1245  1.7635
  476MOL0     C65580   8.983   0.029   4.592  0.0383 -0.4738  0.2112
  476MOL0     O65581   8.927   0.144   4.647  0.2398 -0.9672 -0.3518
  476MOL0     C65582   8.847   0.216   4.563 -0.2684  0.7089 -0.5856
  476MOL0     C65583   8.711   0.205   4.586  0.3093 -0.1826  0.2450
  476MOL0     C65584   8.615   0.286   4.518 -1.0215  0.4169 -1.2850
  476MOL0     C65585   8.655   0.382   4.428 -0.4963  0.3900 -0.0399
  476MOL0     O65586   8.563   0.446   4.346 -0.3820 -0.0455 -0.7913
  476MOL0     C65587   8.430   0.396   4.344 -0.1204 -0.1891 -0.3386
  476MOL0     C65588   8.347   0.495   4.253 -0.0445  0.6137 -0.2931
  476MOL0     C65589   8.328   0.628   4.325 -0.2696  0.3332 -1.2311
  476MOL0     C65590   8.249   0.730   4.235  0.7642 -0.3425  0.1443
  476MOL0     C65591   8.235   0.870   4.299 -0.0313 -0.9403  0.2869
  476MOL0     C65592   8.141   0.944   4.206 -0.0413 -0.0689  0.5376
  476MOL0     C65593   8.091   1.082   4.253 -0.5121  0.1363  0.4474
  476MOL0     C65594   8.005   1.151   4.141 -0.5807 -0.3314 -0.5278
  476MOL0    Cl65595   8.008   1.331   4.170 -0.5277  0.1568 -1.1289
  476MOL0     C65596   8.787   0.406   4.414  0.7493  0.5554 -0.9484
  476MOL0     C65597   8.880   0.338   4.489 -1.1999  0.8792 -0.1694
  476MOL0     O65598   8.990   0.007   4.468  0.5913  0.0609 -0.1003
  476MOL0     C65599   9.119   0.028   4.783 -0.5062 -0.5253  0.0829
  476MOL0     C65600   9.179  -0.025   4.892 -0.2530  0.0848  0.0778
  476MOL0     N65601   9.101  -0.336   5.588  1.1138  0.4153 -1.0484
  476MOL0     N65602   8.974  -0.373   5.606  0.1449  0.1989 -0.5485
  476MOL0     C65603   8.698  -0.085   4.885 -0.2714 -0.2090  0.8903
  476MOL0     C65604   8.631   0.035   4.906 -0.3686 -0.8642 -0.5917
  476MOL0     C65605   8.409   0.421   4.879  0.2615 -0.7179 -0.6791
  476MOL0     C65606   8.384   0.513   4.782 -0.1442 -0.0173 -0.0030
  476MOL0     C65607   8.336   0.636   4.817 -0.7769 -0.5402  1.2954
  476MOL0     C65608   8.288   0.666   4.948  0.9443  0.6158 -0.2392
  476MOL0     O65609   8.240   0.791   4.980 -0.0345  0.7654 -0.1057
  476MOL0     C65610   8.194   0.825   5.114  0.5059  0.4879  0.3938
  476MOL0     C65611   8.136   0.962   5.117  0.3322 -1.1948  1.0183
  476MOL0     C65612   8.243   1.068   5.059 -0.5452  0.5285  0.1367
  476MOL0     C65613   8.343   1.109   5.163 -0.2595 -0.2453 -0.1637
  476MOL0     C65614   8.291   1.170   5.289  0.1813 -0.6729 -0.8594
  476MOL0     C65615   8.245   1.212   5.390 -0.6547 -0.4875  0.5369
  476MOL0     C65616   8.302   0.564   5.040  0.0819  1.0474  0.4854
  476MOL0     C65617   8.359   0.440   5.008  0.5902 -0.0819  0.8193
  476MOL0     C65618   8.387   0.338   5.116 -0.0588  0.4270 -1.3493
  476MOL0     H65619   8.360  -0.013   4.709  1.3265  1.4121 -1.3291
  476MOL0     H65620   8.451  -0.209   4.659 -1.5457  2.0662 -1.8230
  476MOL0     H65621   8.607  -0.458   4.687  0.0023  1.2384 -0.3591
  476MOL0     H65622   8.536  -0.407   4.831  0.3494 -0.6468  0.1105
  476MOL0     H65623   8.657  -0.615   4.838 -0.3327 -0.1874  2.3175
  476MOL0     H65624   8.815  -0.538   4.795 -0.2365 -3.2479  1.1792
  476MOL0     H65625   8.845  -0.565   5.024 -0.8184 -1.7989 -0.8459
  476MOL0     H65626   8.772  -0.402   5.008 -3.4312  0.8889  0.6390
  476MOL0     H65627   8.550  -0.500   5.078 -1.6517 -0.5843  2.1075
  476MOL0     H65628   8.620  -0.662   5.090 -1.1568  0.3900  2.5219
  476MOL0     H65629   8.772  -0.601   5.257  1.2600  1.1838  0.0913
  476MOL0     H65630   8.601  -0.588   5.303  1.2371 -2.3166  0.6987
  476MOL0     H65631   8.814  -0.386   5.249 -0.0394  2.8512 -0.1853
  476MOL0     H65632   8.642  -0.333   5.261  1.4283 -0.0841 -1.7715
  476MOL0     H65633   8.763  -0.504   5.485 -3.1011 -0.2309  0.8120
  476MOL0     H65634   8.608  -0.448   5.473 -0.0081 -1.9744 -0.3831
  476MOL0     H65635   8.734  -0.205   5.460  3.8315  0.2298 -3.0422
  476MOL0     H65636   8.730  -0.305   5.618  1.4984  0.2261 -0.1342
  476MOL0     H65637   8.949  -0.118   5.391 -1.6526  1.1682  1.4962
  476MOL0     H65638   9.326  -0.191   5.498 -0.9970 -2.3365 -0.6229
  476MOL0     H65639   9.216  -0.060   5.474 -0.2152 -0.3504  1.8171
  476MOL0     H65640   9.167  -0.092   5.255 -0.0681  1.1855  2.1917
  476MOL0     H65641   9.338  -0.108   5.269  0.3695  0.2917 -0.7864
  476MOL0     H65642   9.312  -0.357   5.268 -0.1943 -0.0650  3.2477
  476MOL0     H65643   9.129  -0.342   5.271  0.7495  0.1152  0.2539
  476MOL0     H65644   9.220  -0.412   5.042  1.3075 -0.7163  3.5518
  476MOL0     H65645   9.092  -0.301   5.072 -0.1461 -0.2297  6.0822
  476MOL0     H65646   9.152  -0.351   4.796 -0.9790  0.1332 -1.5845
  476MOL0     H65647   9.042  -0.260   4.511  1.2098 -3.0551 -0.0741
  476MOL0     H65648   8.897  -0.289   4.616 -0.7202  1.8067  0.2355
  476MOL0     H65649   9.040  -0.384   4.626 -3.1116 -0.6329  2.9917
  476MOL0     H65650   8.673   0.132   4.657  0.9127  0.1649  0.9313
  476MOL0     H65651   8.511   0.268   4.541 -0.8905  2.1144  0.9740
  476MOL0     H65652   8.434   0.289   4.317  2.3975 -0.7734  1.9083
  476MOL0     H65653   8.391   0.398   4.446 -1.1990 -1.0064 -0.7149
  476MOL0     H65654   8.401   0.510   4.159 -0.7405 -1.7428 -1.1353
  476MOL0     H65655   8.247   0.463   4.222  0.7784 -0.7739 -1.6350
  476MOL0     H65656   8.428   0.666   4.347  0.8315 -2.3962 -1.1798
  476MOL0     H65657   8.275   0.606   4.418 -0.3968 -2.0865 -1.8096
  476MOL0     H65658   8.154   0.677   4.223  2.5726 -3.8499  0.1761
  476MOL0     H65659   8.311   0.747   4.146  0.6898  1.1565  0.3549
  476MOL0     H65660   8.219   0.866   4.407  1.0600  2.8423  0.7250
  476MOL0     H65661   8.331   0.922   4.297 -2.0626  3.2771  0.9135
  476MOL0     H65662   8.049   0.886   4.189  0.3132  0.1486 -2.8693
  476MOL0     H65663   8.168   0.956   4.101  1.0481 -0.6662  0.7333
  476MOL0     H65664   8.179   1.145   4.269  1.6688 -2.5561 -0.1104
  476MOL0     H65665   8.033   1.080   4.346 -2.5520 -1.4335 -0.7778
  476MOL0     H65666   7.904   1.110   4.144 -0.9624  0.6357  0.2210
  476MOL0     H65667   8.042   1.127   4.041 -2.5818  0.5494 -1.5467
  476MOL0     H65668   8.819   0.479   4.341  0.0639  1.8086 -0.0466
  476MOL0     H65669   8.988   0.348   4.481 -0.7711 -2.4451  0.0883
  476MOL0     H65670   9.126   0.134   4.760  1.7651 -0.1687  2.0655
  476MOL0     H65671   9.226   0.042   4.964 -0.5091  0.2353  0.1055
  476MOL0     H65672   8.799  -0.094   4.924 -0.1456 -1.7054  0.2777
  476MOL0     H65673   8.661   0.115   4.974 -4.0144  0.3442 -0.1726
  476MOL0     H65674   8.414   0.504   4.678 -2.8929  4.2176 -1.4548
  476MOL0     H65675   8.337   0.709   4.737  3.2448  0.4613  2.0406
  476MOL0     H65676   8.115   0.753   5.137  0.4183  0.3244 -0.3632
  476MOL0     H65677   8.279   0.814   5.181  1.4897  0.9990 -0.7227
  476MOL0     H65678   8.099   0.983   5.218 -3.5938 -2.5777  0.0692
  476MOL0     H65679   8.046   0.976   5.056  0.5453  1.6148  1.2205
  476MOL0     H65680   8.300   1.026   4.976 -0.9613 -0.0313  0.1270
  476MOL0     H65681   8.174   1.147   5.026 -1.3026  0.2766  1.0541
  476MOL0     H65682   8.410   1.180   5.114 -0.6551 -2.0530 -3.5957
  476MOL0     H65683   8.401   1.020   5.189  4.5986  2.3639 -0.8966
  476MOL0     H65684   8.194   1.244   5.478 -3.3066 -2.8132 -0.0184
  476MOL0     H65685   8.274   0.573   5.144  2.5082  0.0018  1.2848
  476MOL0     H65686   8.333   0.384   5.200 -1.7930  0.1126 -2.2479
  476MOL0     H65687   8.347   0.237   5.104  0.1762  0.1837 -0.2260
  476MOL0     H65688   8.494   0.332   5.138 -0.3636 -1.8467 -0.1675
  477MOL0     O65689   9.787   2.246   9.741 -0.0649  0.0911  0.2049
  477MOL0     C65690   9.729   2.256   9.630  0.0132 -0.0246  0.1312
  477MOL0     O65691   9.620   2.345   9.601 -0.4915 -0.0424  0.1195
  477MOL0     C65692   9.564   2.406   9.711  0.6423 -1.0608  1.2481
  477MOL0     C65693   9.644   2.487   9.795  0.3243 -0.8051  0.6511
  477MOL0     C65694   9.576   2.534   9.911 -0.4455  0.4354 -0.2988
  477MOL0     C65695   9.452   2.496   9.948 -0.8159  0.2154  0.0563
  477MOL0     O65696   9.408   2.508  10.078 -0.6207  0.5947 -0.2136
  477MOL0     C65697   9.335   2.631  10.091  0.0733  0.0889 -0.4367
  477MOL0     C65698   9.285   2.645  10.238  0.4501  0.5201  0.6549
  477MOL0     C65699   9.218   2.781  10.257 -0.6185 -0.9153  0.1327
  477MOL0     C65700   9.144   2.794  10.389 -0.5816  0.6042 -0.0616
  477MOL0     C65701   9.103   2.946  10.425  0.8101 -0.1445 -0.1738
  477MOL0     C65702   9.008   2.930  10.546  0.5943 -0.0252 -0.0738
  477MOL0     C65703   8.953   3.062  10.607 -0.4317  0.3165 -0.4412
  477MOL0     C65704   8.914   3.040  10.746  0.1679 -0.1349  0.0124
  477MOL0     N65705   8.826   3.152  10.795  0.2144 -0.0222  0.2490
  477MOL0     C65706   8.869   3.275  10.817  0.5646 -0.0719 -0.0803
  477MOL0     C65707   8.764   3.332  10.871  0.5242  0.2443 -0.4289
  477MOL0     C65708   8.777   3.473  10.929  0.1680 -1.1196 -0.3614
  477MOL0     C65709   8.657   3.557  10.890  0.1833 -0.2033 -0.5408
  477MOL0     C65710   8.664   3.598  10.743 -0.3764 -0.3995  0.2308
  477MOL0     C65711   8.537   3.666  10.692 -0.1855 -0.2367 -0.2584
  477MOL0     O65712   8.529   3.787  10.754  1.0017 -0.3006 -0.1189
  477MOL0     C65713   8.432   3.877  10.723  0.4206  0.0990  0.0848
  477MOL0     C65714   8.416   3.988  10.803  0.6496 -0.0352 -0.0403
  477MOL0     C65715   8.300   4.076  10.783  0.3351  0.3036  0.0993
  477MOL0     C65716   8.272   4.195  10.873 -0.4176  0.1067  0.4525
  477MOL0     C65717   8.220   4.063  10.671  0.8573 -0.3072 -0.3781
  477MOL0     C65718   8.106   4.165  10.623 -0.3595  0.2520 -0.5834
  477MOL0     O65719   8.098   4.198  10.493  0.4393  0.9189 -0.2735
  477MOL0     C65720   8.055   4.322  10.449  0.0773 -0.4956  0.0414
  477MOL0     C65721   7.961   4.322  10.340 -0.0384 -0.1870 -0.5278
  477MOL0     C65722   7.897   4.431  10.300 -0.3577 -0.2803 -0.1152
  477MOL0     C65723   7.934   4.558  10.352  0.1474  0.0368 -0.2174
  477MOL0     O65724   7.881   4.675  10.307 -0.0807  0.5362 -0.9775
  477MOL0     C65725   7.755   4.689  10.239  0.1863 -0.9348  1.0889
  477MOL0     C65726   7.715   4.836  10.226 -0.4542  0.5565  0.8507
  477MOL0     C65727   7.664   4.917  10.351  0.2764 -0.2826  0.8298
  477MOL0     C65728   7.782   4.979  10.431 -0.6985  0.7252  0.3125
  477MOL0     C65729   7.756   5.073  10.552  0.0945  0.0691 -0.7059
  477MOL0     C65730   7.664   5.183  10.519  0.2815 -1.1146 -0.3141
  477MOL0     C65731   7.651   5.282  10.631  0.1170 -0.5572  0.0626
  477MOL0     C65732   7.585   5.401  10.587 -0.1500 -0.3684  0.6605
  477MOL0    Cl65733   7.689   5.503  10.483 -0.5347  0.2473 -0.1377
  477MOL0     C65734   8.030   4.558  10.456  0.1389 -0.3013  0.2073
  477MOL0     C65735   8.086   4.444  10.509 -0.2122 -0.7854 -0.5600
  477MOL0     O65736   8.027   4.198  10.709 -0.3573 -0.5572  0.0840
  477MOL0     C65737   8.251   3.957  10.586  0.9113 -0.7706  0.3749
  477MOL0     C65738   8.348   3.859  10.613 -0.2492 -0.1657 -0.1837
  477MOL0     N65739   8.661   3.248  10.893 -0.1881 -0.6015 -0.0924
  477MOL0     N65740   8.700   3.139  10.835 -0.4257 -0.0350  0.7407
  477MOL0     C65741   9.378   2.420   9.859 -0.3968 -0.0896  1.1426
  477MOL0     C65742   9.431   2.385   9.736 -0.4501  0.4538  0.1458
  477MOL0     C65743   9.789   2.174   9.515 -0.3210 -1.2642  0.6012
  477MOL0     C65744   9.732   2.203   9.387 -0.6287  1.1921  1.3076
  477MOL0     C65745   9.785   2.145   9.270 -0.4481 -0.1232  0.1161
  477MOL0     C65746   9.893   2.056   9.278  0.2420 -0.5446 -0.1451
  477MOL0     O65747   9.950   1.997   9.156  0.0623 -0.3818  0.7187
  477MOL0     C65748   9.895   1.873   9.118  0.7406  0.0971  0.2264
  477MOL0     C65749   9.933   1.865   8.967  0.1899 -0.3233  0.7231
  477MOL0     C65750   9.980   1.718   8.939  0.6852 -0.6595 -0.5596
  477MOL0     C65751  10.003   1.701   8.787 -0.2755 -0.2369 -0.5070
  477MOL0     C65752   9.872   1.663   8.723 -0.4578 -0.1497 -0.1734
  477MOL0     C65753   9.769   1.629   8.662 -0.0247  0.3766  0.3797
  477MOL0     C65754   9.947   2.027   9.404  1.2600  0.0938  0.1265
  477MOL0     C65755   9.898   2.084   9.524  0.2717  0.3792  0.5666
  477MOL0     C65756   9.957   2.038   9.656  1.0141 -0.3223  0.1540
  477MOL0     H65757   9.752   2.493   9.793  0.5643 -1.9500  3.7329
  477MOL0     H65758   9.636   2.581   9.988 -2.5148 -0.4891  2.0186
  477MOL0     H65759   9.251   2.625  10.021 -0.7443 -0.0413  0.5336
  477MOL0     H65760   9.397   2.722  10.092  2.5812 -1.4601  2.8036
  477MOL0     H65761   9.203   2.575  10.259  1.2483  0.2610  3.2061
  477MOL0     H65762   9.376   2.633  10.297  1.7690 -2.4158 -1.6755
  477MOL0     H65763   9.293   2.860  10.247 -2.0209  0.1784 -3.3341
  477MOL0     H65764   9.162   2.808  10.167  0.5742  0.5921 -0.1987
  477MOL0     H65765   9.057   2.730  10.372  0.2913 -0.6908  0.2143
  477MOL0     H65766   9.202   2.765  10.477 -0.0903  4.7045  1.1831
  477MOL0     H65767   9.064   3.002  10.339  3.1662  0.3106 -1.0232
  477MOL0     H65768   9.189   3.001  10.464 -0.1339  1.4822 -0.2827
  477MOL0     H65769   8.926   2.867  10.513 -0.6273  1.8058 -0.6803
  477MOL0     H65770   9.055   2.866  10.621  0.8101 -1.4803 -1.4095
  477MOL0     H65771   8.873   3.110  10.548  0.0301 -1.6951 -2.8526
  477MOL0     H65772   9.035   3.134  10.614 -1.5810  1.5358  1.4075
  477MOL0     H65773   8.866   2.943  10.763  1.4303 -1.4714 -3.3044
  477MOL0     H65774   9.004   3.040  10.808 -0.0806 -0.9999  0.3952
  477MOL0     H65775   8.961   3.331  10.807 -1.0591  2.6839 -0.5152
  477MOL0     H65776   8.869   3.523  10.894  1.7464 -3.2675  0.4919
  477MOL0     H65777   8.781   3.475  11.038 -0.8861 -2.6700 -0.2749
  477MOL0     H65778   8.561   3.511  10.913  0.8759 -1.0893  0.6541
  477MOL0     H65779   8.671   3.644  10.955  0.2061  3.1398 -4.5460
  477MOL0     H65780   8.747   3.666  10.721 -0.2728 -1.4302 -3.3120
  477MOL0     H65781   8.675   3.505  10.687 -1.5141 -0.6153  0.3455
  477MOL0     H65782   8.543   3.683  10.584 -1.4465 -1.9778 -0.6554
  477MOL0     H65783   8.450   3.604  10.714 -0.7169 -0.0647 -1.7554
  477MOL0     H65784   8.479   4.014  10.888  1.2532  0.8956 -0.7560
  477MOL0     H65785   8.361   4.196  10.937  2.7608 -1.0203 -3.4962
  477MOL0     H65786   8.178   4.181  10.926  0.2821 -1.3850  1.3767
  477MOL0     H65787   8.266   4.289  10.817  2.3829  0.2726  0.3025
  477MOL0     H65788   7.930   4.227  10.297  0.5714  0.8243 -3.4560
  477MOL0     H65789   7.818   4.425  10.226 -1.3763 -0.8666  0.9859
  477MOL0     H65790   7.757   4.645  10.139 -3.1614 -0.6613  0.8135
  477MOL0     H65791   7.679   4.634  10.294 -2.2325  0.7692 -0.3759
  477MOL0     H65792   7.788   4.887  10.164  2.2503 -1.5750  2.0703
  477MOL0     H65793   7.633   4.846  10.154  2.0912  2.5601 -2.0240
  477MOL0     H65794   7.592   4.866  10.416 -1.8064 -1.2693 -2.0377
  477MOL0     H65795   7.618   5.008  10.311  3.1163  0.6274 -0.6334
  477MOL0     H65796   7.825   5.055  10.365 -0.3780  2.6600  2.6111
  477MOL0     H65797   7.862   4.909  10.455 -0.3639  0.2983 -1.9222
  477MOL0     H65798   7.723   5.012  10.637  0.6978  3.4222  2.1504
  477MOL0     H65799   7.845   5.117  10.597 -0.7293  1.7954 -0.6983
  477MOL0     H65800   7.566   5.139  10.498 -1.3177  0.4924  3.0163
  477MOL0     H65801   7.694   5.245  10.434 -1.2486  2.1283  1.3337
  477MOL0     H65802   7.748   5.311  10.674 -0.9922 -0.0949  2.3799
  477MOL0     H65803   7.585   5.245  10.709 -0.7888  2.0635  0.6565
  477MOL0     H65804   7.555   5.457  10.676 -0.8478 -3.7494  2.7304
  477MOL0     H65805   7.495   5.381  10.528  0.7541  0.4045 -1.0574
  477MOL0     H65806   8.064   4.659  10.479  0.9322 -0.0808 -1.7647
  477MOL0     H65807   8.156   4.448  10.592  1.1484 -1.3453 -1.6446
  477MOL0     H65808   8.199   3.943  10.492 -2.4789  1.2946  1.7187
  477MOL0     H65809   8.365   3.789  10.532 -0.9743  1.8545 -2.1806
  477MOL0     H65810   9.283   2.383   9.894 -0.5227  0.7297  1.7120
  477MOL0     H65811   9.376   2.320   9.669 -0.8099  0.9510 -0.0444
  477MOL0     H65812   9.646   2.265   9.361 -0.9047  0.0351 -0.7652
  477MOL0     H65813   9.754   2.177   9.171  2.8915  3.5790  0.0401
  477MOL0     H65814   9.947   1.793   9.173  1.2028  1.7285  2.2614
  477MOL0     H65815   9.790   1.866   9.148  1.6386 -0.6799  3.5907
  477MOL0     H65816  10.028   1.917   8.949  1.7389 -2.6518  1.5842
  477MOL0     H65817   9.859   1.907   8.898  1.5645  0.8547 -0.1027
  477MOL0     H65818  10.064   1.692   9.003  0.8831  0.6143 -0.2925
  477MOL0     H65819   9.902   1.648   8.973 -1.2315  2.1353  1.1532
  477MOL0     H65820  10.062   1.613   8.761 -1.2929 -1.3111  0.6786
  477MOL0     H65821  10.049   1.796   8.757  1.1688 -0.5007  0.7392
  477MOL0     H65822   9.679   1.593   8.617 -0.2054 -0.6438  1.5120
  477MOL0     H65823  10.033   1.961   9.409 -1.1385 -3.2026  0.3007
  477MOL0     H65824  10.016   1.948   9.640 -0.0105 -1.0282  0.2502
  477MOL0     H65825  10.007   2.125   9.700  0.1316  0.1946  0.1558
  477MOL0     H65826   9.877   2.002   9.722  0.0474  3.2336  1.1904
  478MOL0     O65827   8.251   8.033   4.505 -0.4960 -0.9682  0.1118
  478MOL0     C65828   8.236   7.968   4.606 -0.2306  0.2228 -0.3851
  478MOL0     O65829   8.244   8.024   4.737 -0.5844  0.0329  0.2489
  478MOL0     C65830   8.209   8.150   4.759  0.1192 -0.0070  0.0884
  478MOL0     C65831   8.259   8.214   4.867  0.5495 -0.1506  0.3056
  478MOL0     C65832   8.224   8.344   4.904  0.6948  0.3106 -0.4680
  478MOL0     C65833   8.122   8.411   4.834  0.4932 -0.0695 -0.5179
  478MOL0     O65834   8.086   8.544   4.858 -0.2220 -0.1297  0.3907
  478MOL0     C65835   8.044   8.564   4.994 -0.9158  0.6593  0.3160
  478MOL0     C65836   8.001   8.711   5.002  0.5097  0.5141  0.0276
  478MOL0     C65837   7.907   8.729   5.111 -0.1927 -0.6660 -0.5385
  478MOL0     C65838   7.863   8.873   5.125 -0.8936 -0.9208 -0.1832
  478MOL0     C65839   7.770   8.875   5.246 -0.4176  0.8122  0.1092
  478MOL0     C65840   7.736   9.020   5.272  0.4644 -0.7039  0.8064
  478MOL0     C65841   7.665   9.087   5.151  1.0477 -0.0046  0.8311
  478MOL0     C65842   7.570   9.208   5.188 -0.7971 -0.0306 -0.4664
  478MOL0     N65843   7.473   9.167   5.289 -0.3981 -0.2208  0.6284
  478MOL0     C65844   7.480   9.179   5.427  0.1837 -0.9705 -0.6510
  478MOL0     C65845   7.387   9.098   5.474  0.4065  0.0572 -0.2692
  478MOL0     C65846   7.339   9.071   5.618 -0.2517  0.2270 -0.2698
  478MOL0     C65847   7.329   9.216   5.691  0.0993  0.4587  0.0513
  478MOL0     C65848   7.440   9.235   5.803  0.7673 -0.1837  0.0449
  478MOL0     C65849   7.436   9.149   5.928  0.0432  0.6784 -0.4885
  478MOL0     O65850   7.477   9.227   6.050 -0.2989  0.1517  0.0357
  478MOL0     C65851   7.563   9.169   6.146 -0.8151  0.0742 -0.0281
  478MOL0     C65852   7.570   9.031   6.166 -1.5868  0.3901  0.4600
  478MOL0     C65853   7.654   8.973   6.272  0.3938 -0.2720  0.3446
  478MOL0     C65854   7.658   8.826   6.283  0.1162  0.6859 -0.4916
  478MOL0     C65855   7.734   9.060   6.352  0.2846  0.3152  0.5122
  478MOL0     C65856   7.816   9.017   6.481 -1.2554  0.3418 -0.7452
  478MOL0     O65857   7.779   8.892   6.528  0.0935 -0.6829  0.8629
  478MOL0     C65858   7.846   8.844   6.639  0.0676 -0.7889 -0.2656
  478MOL0     C65859   7.776   8.869   6.766  0.4049 -0.0621  0.6627
  478MOL0     C65860   7.825   8.809   6.885  0.1142 -0.5960  0.4330
  478MOL0     C65861   7.954   8.742   6.882 -0.4256  0.5131 -0.6931
  478MOL0     O65862   8.020   8.701   6.993  0.4802 -0.0425 -0.7409
  478MOL0     C65863   7.937   8.610   7.077 -0.6316 -0.6076 -0.3815
  478MOL0     C65864   8.026   8.586   7.203  0.2607  0.0139 -0.7837
  478MOL0     C65865   8.047   8.707   7.299  0.2340  0.4634  0.9015
  478MOL0     C65866   8.157   8.814   7.263  0.7428  0.7620 -0.6759
  478MOL0     C65867   8.294   8.812   7.327 -0.1750  0.3095  0.2433
  478MOL0     C65868   8.389   8.700   7.272 -0.8774  0.0652 -0.6180
  478MOL0     C65869   8.427   8.731   7.124 -0.0339 -0.5895  0.0066
  478MOL0     C65870   8.550   8.660   7.062 -0.1155  0.5032 -0.7782
  478MOL0    Cl65871   8.506   8.488   7.020  0.0393 -0.5163  0.2140
  478MOL0     C65872   8.027   8.742   6.756  0.2751 -0.0393 -0.0950
  478MOL0     C65873   7.976   8.800   6.645 -0.4144 -1.0490  0.8016
  478MOL0     O65874   7.895   9.096   6.534  0.6488  0.9467 -0.6462
  478MOL0     C65875   7.711   9.191   6.331  0.0213 -0.7672 -0.2453
  478MOL0     C65876   7.626   9.248   6.239 -0.8672  0.8861 -0.0826
  478MOL0     N65877   7.331   9.032   5.370 -0.2478  0.7076 -0.3432
  478MOL0     N65878   7.376   9.083   5.261 -0.1392 -0.3882  1.1165
  478MOL0     C65879   8.070   8.338   4.735  0.3783 -0.4521  0.2319
  478MOL0     C65880   8.101   8.210   4.694  0.0652 -0.5993 -0.4195
  478MOL0     C65881   8.209   7.818   4.610  1.2219  0.2689  0.6996
  478MOL0     C65882   8.169   7.757   4.733 -0.0474 -0.3095 -0.1655
  478MOL0     C65883   8.154   7.618   4.745  0.7462  0.5146 -0.2373
  478MOL0     C65884   8.155   7.530   4.633 -0.4797  0.1584 -0.3007
  478MOL0     O65885   8.145   7.393   4.652  0.1401  0.6685 -0.1213
  478MOL0     C65886   8.098   7.343   4.783  0.4108 -0.0506  0.7322
  478MOL0     C65887   8.067   7.188   4.779 -0.3436 -0.6299 -0.6561
  478MOL0     C65888   8.016   7.139   4.918 -0.0120  0.3823 -0.3842
  478MOL0     C65889   7.873   7.170   4.944 -0.6135 -1.5584  0.4910
  478MOL0     C65890   7.878   7.302   5.002 -0.7003 -1.0874  0.4534
  478MOL0     C65891   7.884   7.417   5.052  1.4029 -0.1527 -1.3322
  478MOL0     C65892   8.181   7.589   4.512 -0.8709 -0.2328  0.0555
  478MOL0     C65893   8.198   7.735   4.496  0.2712  0.7836 -0.0622
  478MOL0     C65894   8.221   7.785   4.360 -0.2611  0.2558 -0.0394
  478MOL0     H65895   8.335   8.155   4.917 -2.2039 -2.2222  2.3671
  478MOL0     H65896   8.286   8.400   4.973  2.9139  1.6236 -3.3340
  478MOL0     H65897   8.129   8.550   5.061  0.0822  4.0081 -0.0610
  478MOL0     H65898   7.976   8.480   5.013  1.2430 -0.6641  2.6731
  478MOL0     H65899   8.093   8.765   5.023  1.6683 -2.2359  2.9564
  478MOL0     H65900   7.955   8.745   4.909  2.9777  2.8738 -0.4554
  478MOL0     H65901   7.819   8.665   5.096 -0.4519 -0.5509  0.4182
  478MOL0     H65902   7.947   8.698   5.208  1.1010  4.3805  0.8756
  478MOL0     H65903   7.943   8.943   5.149 -0.2473 -1.0614 -1.7577
  478MOL0     H65904   7.813   8.900   5.031  3.0033  0.4055 -2.0943
  478MOL0     H65905   7.809   8.827   5.337  0.2109  0.8094 -0.1527
  478MOL0     H65906   7.680   8.816   5.228  2.0095 -4.9380  3.5601
  478MOL0     H65907   7.667   9.025   5.357 -1.4092 -0.4116 -0.6543
  478MOL0     H65908   7.830   9.061   5.308 -0.6098 -1.9465  5.6858
  478MOL0     H65909   7.601   9.013   5.102 -0.5692  3.4243 -2.8886
  478MOL0     H65910   7.746   9.121   5.086  2.1304  2.5536  3.3055
  478MOL0     H65911   7.625   9.284   5.245 -0.3426 -0.7792  0.1084
  478MOL0     H65912   7.523   9.251   5.099  0.9501  1.6594 -0.6406
  478MOL0     H65913   7.546   9.228   5.498 -1.8274 -2.9381  2.8958
  478MOL0     H65914   7.409   9.014   5.680  1.0087  1.1427 -0.7946
  478MOL0     H65915   7.242   9.021   5.618  0.7468 -1.9301  1.9791
  478MOL0     H65916   7.340   9.301   5.624 -4.1487  3.1896  2.3140
  478MOL0     H65917   7.226   9.227   5.727 -0.6064 -1.5982 -1.1476
  478MOL0     H65918   7.541   9.224   5.763  1.0538 -0.7079  0.8959
  478MOL0     H65919   7.425   9.338   5.837  0.2008 -0.2218 -0.0754
  478MOL0     H65920   7.341   9.098   5.948  0.0723  0.2287 -1.4580
  478MOL0     H65921   7.509   9.070   5.911 -0.4179 -0.3140  1.7837
  478MOL0     H65922   7.518   8.967   6.096  1.4890 -2.9906  0.9536
  478MOL0     H65923   7.594   8.774   6.210  0.2697  0.0307 -0.1678
  478MOL0     H65924   7.626   8.805   6.385 -1.9040 -0.4086 -1.2912
  478MOL0     H65925   7.758   8.784   6.270  0.8707  1.9965  0.8887
  478MOL0     H65926   7.683   8.925   6.761 -0.1594 -0.9684  0.8025
  478MOL0     H65927   7.769   8.822   6.977  1.7072 -0.0591  1.3592
  478MOL0     H65928   7.842   8.662   7.097 -2.0317 -2.8783 -0.7066
  478MOL0     H65929   7.916   8.519   7.021 -2.1170 -1.2857  1.1759
  478MOL0     H65930   7.965   8.519   7.265 -1.7842  2.5619  0.1316
  478MOL0     H65931   8.118   8.537   7.170 -0.0339 -0.4862 -0.8881
  478MOL0     H65932   8.065   8.664   7.398 -1.0440 -1.2171  0.4499
  478MOL0     H65933   7.950   8.753   7.323  1.1367  1.4446  2.9224
  478MOL0     H65934   8.104   8.900   7.305  1.0516  0.7097 -0.1666
  478MOL0     H65935   8.157   8.813   7.154 -0.1143 -0.9133 -0.6971
  478MOL0     H65936   8.320   8.918   7.321 -2.7348  1.1689  2.2606
  478MOL0     H65937   8.271   8.787   7.431 -0.7985  1.6607  0.4594
  478MOL0     H65938   8.353   8.597   7.277 -2.5317  0.5105 -2.1070
  478MOL0     H65939   8.481   8.696   7.330  0.4220 -3.3915 -2.6096
  478MOL0     H65940   8.445   8.839   7.116  2.6382 -0.9082  0.5215
  478MOL0     H65941   8.337   8.714   7.065 -0.6974  0.5240  0.6579
  478MOL0     H65942   8.646   8.665   7.115 -0.8699 -4.6619  1.7113
  478MOL0     H65943   8.568   8.704   6.963 -1.0359 -1.4250 -1.8752
  478MOL0     H65944   8.118   8.686   6.738  1.0429  1.2508 -0.3911
  478MOL0     H65945   8.040   8.779   6.559 -1.1399  2.5294 -0.8374
  478MOL0     H65946   7.755   9.268   6.392 -0.0100 -1.0104  0.0874
  478MOL0     H65947   7.601   9.353   6.236 -1.3460  0.7549 -2.8305
  478MOL0     H65948   7.985   8.385   4.686  0.6108  2.1570  2.1625
  478MOL0     H65949   8.045   8.154   4.619 -1.2008 -0.3957  0.3436
  478MOL0     H65950   8.164   7.809   4.828  1.4879 -1.3388  0.4934
  478MOL0     H65951   8.129   7.583   4.844 -0.2379 -0.3281 -0.7583
  478MOL0     H65952   8.158   7.372   4.870  1.5405  1.3518 -0.4628
  478MOL0     H65953   8.000   7.389   4.797 -0.3401 -1.9084  1.9807
  478MOL0     H65954   8.164   7.138   4.764  0.1518 -0.7810  2.4091
  478MOL0     H65955   8.000   7.165   4.696 -0.1414  1.6251 -1.4898
  478MOL0     H65956   8.026   7.030   4.918  2.7897  0.5759 -0.7165
  478MOL0     H65957   8.073   7.159   5.009 -0.9390  0.8111  0.1203
  478MOL0     H65958   7.836   7.106   5.025 -1.0611  1.1132  2.5471
  478MOL0     H65959   7.816   7.175   4.851  0.2553  0.5582  0.0174
  478MOL0     H65960   7.874   7.514   5.095 -0.0506  1.2176 -4.5139
  478MOL0     H65961   8.195   7.525   4.426 -1.7175 -4.9951  3.0841
  478MOL0     H65962   8.308   7.849   4.340 -0.5848  0.3112 -1.4043
  478MOL0     H65963   8.222   7.710   4.280  0.5559  2.5089 -2.2789
  478MOL0     H65964   8.132   7.843   4.331 -1.0265 -2.2026 -3.2195
  479MOL0     O65965   5.120   3.228   9.321 -0.4493  0.4330  0.3780
  479MOL0     C65966   5.032   3.270   9.396 -0.0079 -1.6704  0.2810
  479MOL0     O65967   4.969   3.390   9.379  0.6177 -0.5022  0.2381
  479MOL0     C65968   4.998   3.479   9.271  0.0790 -0.9901 -0.9217
  479MOL0     C65969   5.121   3.498   9.201 -0.9576  0.6256  0.1688
  479MOL0     C65970   5.137   3.595   9.099  0.4143 -0.4718 -0.1961
  479MOL0     C65971   5.032   3.676   9.066  1.0118 -0.3703 -0.0505
  479MOL0     O65972   5.023   3.774   8.970 -0.8867 -1.2437 -0.0004
  479MOL0     C65973   5.146   3.842   8.943 -0.0687 -0.3372  0.1391
  479MOL0     C65974   5.139   3.990   8.907 -0.2805 -0.0561  0.4506
  479MOL0     C65975   5.124   4.074   9.031 -0.0772  0.0025  0.4595
  479MOL0     C65976   5.006   4.037   9.118 -0.3076 -0.1759  0.6420
  479MOL0     C65977   4.993   4.159   9.203  0.0864 -0.0600 -0.2387
  479MOL0     C65978   4.914   4.280   9.135 -0.2481  0.7178  0.0524
  479MOL0     C65979   4.829   4.376   9.219 -0.1674  0.7745  0.5826
  479MOL0     C65980   4.900   4.469   9.307 -0.0357 -0.2042 -0.3380
  479MOL0     N65981   5.002   4.414   9.397  0.5843  0.3703  0.0787
  479MOL0     C65982   4.971   4.335   9.512 -0.7175 -0.0211  0.5761
  479MOL0     C65983   5.089   4.320   9.577  0.8301  0.3070 -0.3446
  479MOL0     C65984   5.128   4.247   9.700  0.6563  0.0696  0.0235
  479MOL0     C65985   5.265   4.183   9.697 -1.4543  0.5813  0.2771
  479MOL0     C65986   5.381   4.282   9.747 -0.4679 -0.2750 -0.2730
  479MOL0     C65987   5.527   4.235   9.740  0.0807  1.0945 -0.4953
  479MOL0     O65988   5.540   4.104   9.802 -0.2848  0.3040 -1.0954
  479MOL0     C65989   5.659   4.041   9.807 -0.6119 -0.2053 -0.1112
  479MOL0     C65990   5.773   4.080   9.746  0.0995  0.0739 -0.0129
  479MOL0     C65991   5.887   4.005   9.719  0.8742 -0.1227  0.2962
  479MOL0     C65992   6.002   4.064   9.637  0.4682 -0.1337  0.8100
  479MOL0     C65993   5.883   3.875   9.770  0.4364  0.6191 -0.2739
  479MOL0     C65994   5.994   3.776   9.752  0.3293 -0.2545  0.0077
  479MOL0     O65995   5.995   3.657   9.832  0.0358 -0.1939 -0.1268
  479MOL0     C65996   6.099   3.574   9.826  0.1534  0.1311  0.3302
  479MOL0     C65997   6.141   3.526   9.950  1.0961  0.4237  0.1681
  479MOL0     C65998   6.252   3.441   9.962 -1.2010  0.9632 -0.3448
  479MOL0     C65999   6.322   3.403   9.849 -1.5613  0.0756  0.6150
  479MOL0     O66000   6.436   3.328   9.869  0.1636 -0.3995  0.4872
  479MOL0     C66001   6.489   3.252   9.761  1.3369  0.1620  0.0332
  479MOL0     C66002   6.592   3.146   9.813 -0.1312 -0.8815  0.2393
  479MOL0     C66003   6.717   3.203   9.876 -0.2845  0.0271 -0.4449
  479MOL0     C66004   6.706   3.237  10.034  1.1297  0.1635  0.7233
  479MOL0     C66005   6.728   3.118  10.119 -0.3058  0.4754 -0.7952
  479MOL0     C66006   6.638   3.119  10.240  0.5164  0.5474  0.3337
  479MOL0     C66007   6.686   2.998  10.319  0.0822 -0.6374 -0.0986
  479MOL0     C66008   6.574   2.936  10.400 -0.5957  1.1044  0.8918
  479MOL0    Cl66009   6.644   2.805  10.497  0.2048  0.3117  0.3898
  479MOL0     C66010   6.259   3.439   9.720 -0.7003 -0.6172  0.9920
  479MOL0     C66011   6.163   3.526   9.715 -0.7272  0.5164  0.1192
  479MOL0     O66012   6.077   3.812   9.675 -0.2230  0.2345  0.5665
  479MOL0     C66013   5.771   3.835   9.861 -0.4583 -0.9101 -1.0385
  479MOL0     C66014   5.655   3.918   9.865  0.5252  0.8916  0.5682
  479MOL0     N66015   5.177   4.400   9.511  0.0671 -0.5969  0.3100
  479MOL0     N66016   5.130   4.458   9.411 -0.8465  0.6341  0.9443
  479MOL0     C66017   4.906   3.648   9.127  0.3482  0.2466  0.2283
  479MOL0     C66018   4.892   3.555   9.221  0.2026 -0.6133 -0.2264
  479MOL0     C66019   4.976   3.166   9.486  0.8586 -0.1951 -0.6206
  479MOL0     C66020   5.045   3.043   9.517  0.4393 -0.2921 -0.1741
  479MOL0     C66021   4.997   2.954   9.616  0.1440 -0.5327 -0.2257
  479MOL0     C66022   4.878   2.979   9.683  0.3051 -0.2681  0.3316
  479MOL0     O66023   4.828   2.896   9.782 -0.2216  0.8061 -0.8850
  479MOL0     C66024   4.898   2.787   9.847  0.1330  0.3382 -0.1493
  479MOL0     C66025   4.874   2.663   9.757  0.3943 -0.1000  0.3944
  479MOL0     C66026   4.960   2.536   9.804  0.3066  0.1502 -0.0238
  479MOL0     C66027   4.874   2.434   9.877 -0.1599  0.3738 -0.3026
  479MOL0     C66028   4.960   2.330   9.933 -1.0249 -0.4047 -0.0383
  479MOL0     C66029   5.035   2.254   9.980 -0.3198  0.4806 -0.0974
  479MOL0     C66030   4.812   3.096   9.647 -0.1105  0.1004 -0.2929
  479MOL0     C66031   4.860   3.197   9.560  0.2908  0.8060  0.3465
  479MOL0     C66032   4.776   3.315   9.559 -0.4861 -0.1383 -0.9822
  479MOL0     H66033   5.198   3.424   9.220 -1.4198 -0.2323 -1.1093
  479MOL0     H66034   5.229   3.605   9.041 -0.3242  0.3663 -1.2748
  479MOL0     H66035   5.181   3.791   8.852 -2.0717  0.8418 -1.3753
  479MOL0     H66036   5.220   3.827   9.022 -0.6431 -1.1773  0.5368
  479MOL0     H66037   5.232   4.021   8.859 -1.4363  3.9876  0.4398
  479MOL0     H66038   5.065   4.012   8.830 -0.7400 -3.8441 -0.4210
  479MOL0     H66039   5.210   4.052   9.096  0.0030  1.6762  0.9842
  479MOL0     H66040   5.123   4.179   9.002  0.5764  0.3070  1.4722
  479MOL0     H66041   4.911   4.016   9.067 -0.5250  0.4489  0.7786
  479MOL0     H66042   5.037   3.956   9.186 -0.3552  0.0241  0.9057
  479MOL0     H66043   5.093   4.187   9.237 -0.1443 -2.5570  2.9758
  479MOL0     H66044   4.946   4.122   9.295 -0.9078  0.8173 -0.3748
  479MOL0     H66045   4.980   4.342   9.075 -1.7761  0.0580 -2.4675
  479MOL0     H66046   4.851   4.228   9.062 -0.8274  0.3858  0.7739
  479MOL0     H66047   4.761   4.308   9.270 -1.8068  1.9796  0.0998
  479MOL0     H66048   4.770   4.438   9.151  2.3702  0.8187 -1.7338
  479MOL0     H66049   4.939   4.552   9.246 -1.3691  0.0786 -0.8298
  479MOL0     H66050   4.825   4.513   9.373  1.9316  2.5035  0.2698
  479MOL0     H66051   4.876   4.289   9.536  0.5198 -2.6296  0.9097
  479MOL0     H66052   5.050   4.173   9.723 -1.4985  2.2009  0.0464
  479MOL0     H66053   5.133   4.329   9.773  0.6866  0.2356 -0.1633
  479MOL0     H66054   5.265   4.086   9.748  0.9061 -0.3561 -1.3217
  479MOL0     H66055   5.286   4.167   9.591 -2.3902  0.2324  0.1325
  479MOL0     H66056   5.371   4.379   9.699 -0.1515  0.7455  1.6159
  479MOL0     H66057   5.372   4.300   9.855 -2.3716 -1.4209 -0.2072
  479MOL0     H66058   5.553   4.225   9.634 -2.1944 -0.9351 -0.9475
  479MOL0     H66059   5.594   4.305   9.789  2.2811 -0.7382 -0.7083
  479MOL0     H66060   5.769   4.174   9.691 -2.3383 -0.2120 -0.4170
  479MOL0     H66061   6.002   4.024   9.535 -1.4616  1.7889 -0.0071
  479MOL0     H66062   6.091   4.047   9.698  1.0175  0.7363  0.2770
  479MOL0     H66063   5.983   4.170   9.617  0.3926  0.0341  1.7061
  479MOL0     H66064   6.087   3.556  10.039 -0.4753 -0.5173 -0.4134
  479MOL0     H66065   6.280   3.401  10.059 -2.3673 -0.2534 -0.4810
  479MOL0     H66066   6.405   3.202   9.712  2.3247 -1.5833  0.0349
  479MOL0     H66067   6.529   3.316   9.682 -1.1640 -0.5160 -1.8969
  479MOL0     H66068   6.554   3.069   9.881  0.1402 -0.6652  0.6455
  479MOL0     H66069   6.619   3.093   9.722 -4.1019  0.6544 -2.0625
  479MOL0     H66070   6.752   3.290   9.819  1.2408 -1.6721 -2.2302
  479MOL0     H66071   6.795   3.131   9.850 -1.3588 -0.1278 -3.7195
  479MOL0     H66072   6.603   3.272  10.047  0.9771  1.2244 -2.4889
  479MOL0     H66073   6.780   3.315  10.055 -2.1270  3.4476  1.0481
  479MOL0     H66074   6.719   3.027  10.058  1.3647  0.7525 -1.4814
  479MOL0     H66075   6.836   3.117  10.135 -0.6579 -0.2234  2.0714
  479MOL0     H66076   6.538   3.111  10.198  1.1001 -3.8923 -0.7130
  479MOL0     H66077   6.646   3.215  10.292 -0.6677  0.8620 -0.0416
  479MOL0     H66078   6.772   3.027  10.380 -0.3429  1.7715 -0.5083
  479MOL0     H66079   6.711   2.917  10.251 -3.9123 -1.4053 -0.8896
  479MOL0     H66080   6.497   2.910  10.327 -0.8118  0.7115  1.2565
  479MOL0     H66081   6.529   3.009  10.468 -2.1333 -0.5808  1.7390
  479MOL0     H66082   6.307   3.418   9.625  0.9977  1.7196  1.2457
  479MOL0     H66083   6.132   3.560   9.617 -1.5338 -0.4766  0.0123
  479MOL0     H66084   5.773   3.735   9.904  1.3695 -1.0959 -1.4717
  479MOL0     H66085   5.566   3.884   9.917  1.6104 -0.7217  1.4497
  479MOL0     H66086   4.823   3.716   9.110 -2.5324 -2.0609  3.6742
  479MOL0     H66087   4.795   3.554   9.270 -2.2378 -0.6584 -4.5272
  479MOL0     H66088   5.135   3.035   9.456 -0.2861 -0.4608 -1.2604
  479MOL0     H66089   5.055   2.871   9.656 -0.7439 -0.7496  0.6326
  479MOL0     H66090   5.003   2.815   9.859  0.5558 -1.3691  0.3359
  479MOL0     H66091   4.856   2.761   9.944 -1.6762  0.7450 -0.7798
  479MOL0     H66092   4.883   2.692   9.652 -0.2500  0.0407  0.3724
  479MOL0     H66093   4.771   2.626   9.762  0.6915 -1.9887 -3.3174
  479MOL0     H66094   5.018   2.491   9.722  1.8829 -0.9513  1.6229
  479MOL0     H66095   5.031   2.581   9.873  1.4676  0.6652 -1.5062
  479MOL0     H66096   4.799   2.394   9.808  0.2493 -0.5579 -0.2192
  479MOL0     H66097   4.822   2.466   9.968  1.6201  0.2824  0.7819
  479MOL0     H66098   5.101   2.184  10.026 -3.5895 -2.9897 -0.2680
  479MOL0     H66099   4.717   3.107   9.699 -0.0168 -0.8670  0.0953
  479MOL0     H66100   4.837   3.402   9.581 -0.7424 -0.3497  0.7567
  479MOL0     H66101   4.729   3.336   9.463  0.9837 -1.8036 -2.1419
  479MOL0     H66102   4.700   3.317   9.638 -1.3705  0.7961 -1.8245
  480MOL0     O66103   7.533   3.102   1.965 -0.3295 -0.0393  0.2188
  480MOL0     C66104   7.496   3.133   2.075  0.8177  0.8341  0.0536
  480MOL0     O66105   7.366   3.171   2.105  0.2001 -0.2352 -0.2974
  480MOL0     C66106   7.280   3.224   2.010 -0.9153 -0.4301  0.7803
  480MOL0     C66107   7.320   3.315   1.919 -0.9692 -0.7569  0.1981
  480MOL0     C66108   7.249   3.362   1.809  0.5869 -1.0911 -0.1521
  480MOL0     C66109   7.122   3.314   1.802 -0.3191 -0.8094  0.6800
  480MOL0     O66110   7.037   3.333   1.695 -0.5098 -1.0080  0.8907
  480MOL0     C66111   7.085   3.391   1.568  0.4297  0.1227 -0.0871
  480MOL0     C66112   7.058   3.542   1.555  0.4817  0.3117 -0.2339
  480MOL0     C66113   7.106   3.590   1.415  0.2714  0.3974  0.1966
  480MOL0     C66114   7.080   3.740   1.403 -0.0356  0.3332  0.6539
  480MOL0     C66115   7.121   3.803   1.267  1.4025 -0.8382  0.9872
  480MOL0     C66116   7.044   3.933   1.244  0.5900  0.4474  0.0003
  480MOL0     C66117   6.983   3.942   1.101  0.1882 -1.0495  0.0410
  480MOL0     C66118   6.922   4.069   1.061 -0.6059 -0.0560 -0.3960
  480MOL0     N66119   6.906   4.095   0.919  1.2294 -0.0730  0.3423
  480MOL0     C66120   6.996   4.155   0.835 -0.1242  0.8589  1.2052
  480MOL0     C66121   6.942   4.129   0.704 -0.1927 -0.5731 -0.6926
  480MOL0     C66122   6.996   4.176   0.576 -0.7239  0.3636 -0.1069
  480MOL0     C66123   6.876   4.245   0.493  0.5469 -0.1564  0.1617
  480MOL0     C66124   6.916   4.262   0.343 -0.2053  0.1343  0.0131
  480MOL0     C66125   7.032   4.364   0.321 -0.0359 -0.2190 -0.5302
  480MOL0     O66126   7.021   4.481   0.402  0.5449  0.0250  0.0241
  480MOL0     C66127   7.149   4.523   0.425  0.5731  0.3931 -0.7435
  480MOL0     C66128   7.233   4.580   0.320 -0.4251 -0.3858  0.3906
  480MOL0     C66129   7.358   4.632   0.353 -0.1373 -1.4950 -0.5503
  480MOL0     C66130   7.435   4.687   0.236 -0.2055 -0.2672  0.0567
  480MOL0     C66131   7.409   4.639   0.486 -0.3405  0.7932 -0.1302
  480MOL0     C66132   7.543   4.682   0.529 -0.8654 -0.1073 -0.6004
  480MOL0     O66133   7.578   4.813   0.493  0.6804  0.5707 -0.8489
  480MOL0     C66134   7.701   4.852   0.522  0.6394  0.0441 -0.4976
  480MOL0     C66135   7.730   4.906   0.648  0.0087  1.0987 -0.1668
  480MOL0     C66136   7.853   4.961   0.674  0.2660  0.6516  0.8488
  480MOL0     C66137   7.960   4.953   0.579 -0.1823  0.0531 -0.1133
  480MOL0     O66138   8.080   5.013   0.601  1.3877 -0.6000 -0.6220
  480MOL0     C66139   8.130   5.044   0.732  0.0035  0.3522  0.9863
  480MOL0     C66140   8.275   5.074   0.734 -0.0726  0.3337  0.2004
  480MOL0     C66141   8.288   5.219   0.678  0.1690 -0.5885  0.0713
  480MOL0     C66142   8.417   5.282   0.718 -0.4430 -1.1958 -0.9087
  480MOL0     C66143   8.445   5.402   0.627 -0.4672  0.4375  0.5906
  480MOL0     C66144   8.556   5.480   0.688  0.7739  0.3534 -0.8417
  480MOL0     C66145   8.655   5.546   0.597  0.6318 -0.0639  0.6707
  480MOL0     C66146   8.799   5.530   0.635 -0.1921  0.5643 -0.3238
  480MOL0    Cl66147   8.858   5.364   0.597  0.7486 -0.4583  0.2527
  480MOL0     C66148   7.932   4.912   0.456 -0.7247 -0.2971  0.3683
  480MOL0     C66149   7.805   4.863   0.424  0.2179  0.0614  0.4073
  480MOL0     O66150   7.605   4.615   0.614 -0.1471 -0.0032 -0.4544
  480MOL0     C66151   7.326   4.585   0.590 -1.5299 -1.4058  0.3040
  480MOL0     C66152   7.201   4.527   0.560  0.4601  0.7145 -0.3828
  480MOL0     N66153   6.826   4.055   0.732  0.4315 -0.0768  1.4151
  480MOL0     N66154   6.803   4.047   0.852  0.3813 -0.9336  0.0718
  480MOL0     C66155   7.075   3.229   1.895 -0.3724  0.3496  0.3220
  480MOL0     C66156   7.157   3.168   1.988 -0.4804 -0.4563  0.3424
  480MOL0     C66157   7.602   3.108   2.172 -0.5721 -0.7934  0.8092
  480MOL0     C66158   7.743   3.099   2.135  0.2870 -0.3158 -0.6092
  480MOL0     C66159   7.844   3.071   2.233  0.1710 -1.2557 -0.4893
  480MOL0     C66160   7.818   3.052   2.372 -0.3943  0.0754  0.7131
  480MOL0     O66161   7.911   3.013   2.469  0.1648 -0.5423 -0.5482
  480MOL0     C66162   8.044   3.066   2.480  0.0421  0.9264 -0.2548
  480MOL0     C66163   8.142   2.980   2.403  0.9518  0.6514  1.0102
  480MOL0     C66164   8.285   2.980   2.465 -0.1601  0.0565 -0.4582
  480MOL0     C66165   8.377   2.876   2.394  0.7577 -0.2395  0.2057
  480MOL0     C66166   8.513   2.913   2.425 -0.7029 -0.4943  0.1091
  480MOL0     C66167   8.631   2.928   2.453  1.0592 -0.8960 -0.5370
  480MOL0     C66168   7.687   3.066   2.401  0.9049 -0.4382  0.1086
  480MOL0     C66169   7.583   3.086   2.313  0.2102 -0.1230 -0.2048
  480MOL0     C66170   7.438   3.084   2.369 -0.9106 -0.4976 -0.0716
  480MOL0     H66171   7.425   3.339   1.914 -0.4308 -2.9778 -0.1065
  480MOL0     H66172   7.296   3.421   1.731  0.8681 -2.2214 -0.8643
  480MOL0     H66173   7.026   3.340   1.491  1.5759 -0.6464 -0.4855
  480MOL0     H66174   7.190   3.374   1.542 -0.1806 -0.2922 -2.5106
  480MOL0     H66175   6.962   3.589   1.578  0.9302  1.4651 -0.6603
  480MOL0     H66176   7.116   3.591   1.634 -1.8626  1.0575  1.1429
  480MOL0     H66177   7.215   3.585   1.418  0.4762  1.6205 -2.3398
  480MOL0     H66178   7.078   3.521   1.335  6.0507 -2.2662 -0.0294
  480MOL0     H66179   6.972   3.757   1.411 -0.5768 -1.1001 -2.3440
  480MOL0     H66180   7.132   3.803   1.476  1.2906  2.7475 -2.1536
  480MOL0     H66181   7.114   3.745   1.174  1.3204  1.1574 -0.3112
  480MOL0     H66182   7.229   3.817   1.267  1.4388 -0.5111 -1.9584
  480MOL0     H66183   6.963   3.953   1.314 -0.1705  2.1404 -1.2882
  480MOL0     H66184   7.107   4.020   1.265 -2.1628  2.0527  2.2376
  480MOL0     H66185   6.903   3.868   1.098  0.3436 -1.2308  0.3721
  480MOL0     H66186   7.055   3.938   1.019 -1.0820  1.1584 -1.3048
  480MOL0     H66187   6.817   4.071   1.091 -1.1899 -0.9783 -2.2560
  480MOL0     H66188   6.980   4.149   1.109 -1.1121 -1.0471  2.0082
  480MOL0     H66189   7.091   4.203   0.855  0.7370 -0.3686  0.2387
  480MOL0     H66190   7.037   4.102   0.507 -2.6360 -1.6630  0.8173
  480MOL0     H66191   7.068   4.253   0.608  1.1744 -1.4387  0.1624
  480MOL0     H66192   6.793   4.175   0.507  1.3637 -1.1653  0.0925
  480MOL0     H66193   6.843   4.347   0.512  0.9417  0.4305 -2.0563
  480MOL0     H66194   6.943   4.168   0.295 -1.2128  1.1197 -2.6632
  480MOL0     H66195   6.827   4.293   0.287  0.2245  2.1669  0.3815
  480MOL0     H66196   7.118   4.309   0.358  0.6273  2.1759  1.7330
  480MOL0     H66197   7.043   4.388   0.215 -1.3428 -2.5420 -1.2641
  480MOL0     H66198   7.192   4.572   0.221 -2.5551  2.1389  0.9807
  480MOL0     H66199   7.537   4.646   0.234  0.4171  1.1696  0.7734
  480MOL0     H66200   7.452   4.794   0.246  1.1363 -0.6223  2.3344
  480MOL0     H66201   7.386   4.664   0.141  2.4079 -0.6048 -1.3159
  480MOL0     H66202   7.644   4.907   0.715 -0.0606  1.4301 -0.2563
  480MOL0     H66203   7.864   5.003   0.774 -1.5095  2.7560  0.2137
  480MOL0     H66204   8.058   5.106   0.788 -5.2998 -3.4394 -0.8569
  480MOL0     H66205   8.127   4.954   0.794  2.1498  2.3931  4.4578
  480MOL0     H66206   8.313   5.083   0.836 -0.4362  0.0907  0.3610
  480MOL0     H66207   8.335   5.001   0.679 -2.3256 -1.9079  0.5047
  480MOL0     H66208   8.208   5.288   0.707  2.0327  0.7059  2.4781
  480MOL0     H66209   8.284   5.216   0.569  2.1956 -1.3683 -0.0050
  480MOL0     H66210   8.485   5.198   0.706  1.5670 -0.5602  3.8006
  480MOL0     H66211   8.416   5.305   0.825  0.1044 -0.3650 -1.0728
  480MOL0     H66212   8.470   5.357   0.531 -2.9565 -2.2496  1.0456
  480MOL0     H66213   8.359   5.470   0.620  2.4052  5.1378  4.5862
  480MOL0     H66214   8.613   5.415   0.755  0.5786 -1.1292 -2.0401
  480MOL0     H66215   8.509   5.552   0.755 -2.4980 -1.2592 -1.1922
  480MOL0     H66216   8.638   5.654   0.596 -0.9078 -0.2763  0.9755
  480MOL0     H66217   8.650   5.520   0.491  0.6875  2.6688 -0.0641
  480MOL0     H66218   8.808   5.538   0.744 -0.1508  1.2292 -0.3713
  480MOL0     H66219   8.870   5.604   0.598  2.1737 -0.0399  2.6045
  480MOL0     H66220   8.020   4.906   0.393  1.0179  2.8227  2.2612
  480MOL0     H66221   7.785   4.831   0.322 -1.4734 -0.0682  0.7441
  480MOL0     H66222   7.362   4.598   0.691  3.5427  2.3570 -1.5274
  480MOL0     H66223   7.144   4.491   0.645  3.0230  2.4534  2.3035
  480MOL0     H66224   6.973   3.191   1.889  0.4323 -2.0691  0.7781
  480MOL0     H66225   7.112   3.108   2.067 -0.0365  0.8719  1.6406
  480MOL0     H66226   7.764   3.108   2.029 -1.9304 -0.9893 -1.1539
  480MOL0     H66227   7.949   3.069   2.205  0.4566 -1.0762  0.5003
  480MOL0     H66228   8.059   3.162   2.430  3.1425  0.8334  0.2905
  480MOL0     H66229   8.076   3.092   2.581 -0.0256 -0.0959  0.0350
  480MOL0     H66230   8.143   3.019   2.301  0.9538  0.1695  0.8224
  480MOL0     H66231   8.126   2.871   2.402  1.5408  0.5657  0.3712
  480MOL0     H66232   8.312   3.086   2.463 -1.9012  0.5168 -1.9564
  480MOL0     H66233   8.277   2.953   2.571 -0.1194 -1.2109 -0.7635
  480MOL0     H66234   8.353   2.866   2.287 -1.7424 -4.2929  0.9449
  480MOL0     H66235   8.342   2.780   2.434  0.4194 -0.9115 -1.5975
  480MOL0     H66236   8.737   2.942   2.466  1.0326 -2.6228  2.6017
  480MOL0     H66237   7.655   3.045   2.502 -0.7717 -0.4440 -0.4028
  480MOL0     H66238   7.390   3.182   2.356  0.5203 -0.1636 -4.1822
  480MOL0     H66239   7.383   3.019   2.301 -1.0160 -1.9234  1.3182
  480MOL0     H66240   7.423   3.056   2.474 -0.0454  0.6016  0.3649
  481MOL0     O66241   1.077   6.314   8.611 -0.5259  1.0960  0.3403
  481MOL0     C66242   0.987   6.263   8.545 -0.2606 -0.5515  0.7182
  481MOL0     O66243   0.850   6.244   8.581  0.3431 -0.6454 -0.3294
  481MOL0     C66244   0.803   6.306   8.692  0.7109 -0.3106 -0.1944
  481MOL0     C66245   0.717   6.237   8.777 -0.0504  0.1637 -0.9381
  481MOL0     C66246   0.651   6.312   8.875  0.1439  0.2750  0.5885
  481MOL0     C66247   0.676   6.450   8.891 -0.2104  0.5283 -0.0022
  481MOL0     O66248   0.614   6.509   8.993  0.1191  0.3719  0.1283
  481MOL0     C66249   0.621   6.651   9.018 -0.4877 -0.3249  0.4087
  481MOL0     C66250   0.538   6.731   8.917  0.0831 -0.3924  0.4422
  481MOL0     C66251   0.494   6.862   8.973 -0.3631  0.1265 -0.0339
  481MOL0     C66252   0.611   6.954   9.003  0.5442  0.9478  0.7853
  481MOL0     C66253   0.597   7.100   9.015 -0.5203 -0.2298  0.5895
  481MOL0     C66254   0.733   7.176   8.993 -1.1831 -0.7175  1.4047
  481MOL0     C66255   0.771   7.187   8.841 -0.1242 -0.3890 -0.4113
  481MOL0     C66256   0.902   7.256   8.815  0.6758 -0.0589  0.5860
  481MOL0     N66257   0.903   7.298   8.672 -0.0256 -0.0295 -0.2816
  481MOL0     C66258   1.003   7.264   8.577  0.0354  0.1264 -0.8859
  481MOL0     C66259   0.992   7.343   8.470  0.2227 -0.7600 -0.0488
  481MOL0     C66260   1.088   7.353   8.347 -0.6308 -0.6870 -0.5385
  481MOL0     C66261   1.108   7.213   8.286  0.4637  0.1892 -1.2450
  481MOL0     C66262   1.202   7.215   8.180 -0.0860  0.0274  0.5852
  481MOL0     C66263   1.241   7.068   8.132  0.1258  0.0085 -0.0985
  481MOL0     O66264   1.316   7.015   8.246  0.0493 -0.2451 -0.5128
  481MOL0     C66265   1.368   6.888   8.231 -0.7918  0.0255 -0.2083
  481MOL0     C66266   1.348   6.801   8.116 -0.3370  0.4486 -0.2925
  481MOL0     C66267   1.405   6.672   8.112 -0.0688 -0.3014  0.0913
  481MOL0     C66268   1.371   6.578   7.999  0.5959  0.4122 -0.0668
  481MOL0     C66269   1.508   6.641   8.207  0.4508  0.2918  0.3312
  481MOL0     C66270   1.608   6.524   8.195 -0.5370  0.3988 -0.8721
  481MOL0     O66271   1.560   6.422   8.124 -0.3495  0.3182  0.0389
  481MOL0     C66272   1.641   6.309   8.101 -0.0852 -0.8864 -0.4544
  481MOL0     C66273   1.692   6.275   7.975  0.5817 -0.5079  0.6822
  481MOL0     C66274   1.771   6.156   7.965 -0.3893 -0.1112  0.4792
  481MOL0     C66275   1.785   6.060   8.072  0.1722  0.0266 -0.2320
  481MOL0     O66276   1.868   5.953   8.055  0.0256  0.1004 -0.4274
  481MOL0     C66277   1.982   5.959   8.139  0.4347  0.0249  1.0519
  481MOL0     C66278   2.100   6.015   8.066  0.5028 -0.3304 -1.3895
  481MOL0     C66279   2.130   5.938   7.937  0.9605  0.1930  0.6006
  481MOL0     C66280   2.280   5.964   7.899  0.3917 -0.7575 -0.0458
  481MOL0     C66281   2.317   5.901   7.760 -0.2895  0.0743 -0.4250
  481MOL0     C66282   2.321   5.743   7.783  0.1458 -0.2386 -0.2337
  481MOL0     C66283   2.349   5.669   7.653  0.4461 -0.5032  0.2583
  481MOL0     C66284   2.218   5.638   7.567 -0.3673  0.1994 -0.7341
  481MOL0    Cl66285   2.131   5.492   7.610  0.0683  0.2179  0.0464
  481MOL0     C66286   1.724   6.098   8.191 -0.0172 -0.2091 -0.1264
  481MOL0     C66287   1.650   6.212   8.208  0.1821 -0.6194  0.0879
  481MOL0     O66288   1.723   6.534   8.242 -0.5370  0.7146  0.0059
  481MOL0     C66289   1.519   6.719   8.324  0.1642  1.1104 -0.4256
  481MOL0     C66290   1.449   6.845   8.334 -0.4945 -0.0978  0.8237
  481MOL0     N66291   0.868   7.413   8.482  0.2313 -0.5501  0.0603
  481MOL0     N66292   0.820   7.382   8.605  0.5810  0.3826 -0.0339
  481MOL0     C66293   0.768   6.515   8.808  0.2661 -0.1736 -0.0672
  481MOL0     C66294   0.831   6.445   8.705  0.5562  0.5214  0.2846
  481MOL0     C66295   1.022   6.227   8.404  0.0374  0.1069  0.4346
  481MOL0     C66296   1.157   6.217   8.374 -0.3918  0.0182  0.7781
  481MOL0     C66297   1.203   6.156   8.259 -0.0827 -0.3624 -0.5955
  481MOL0     C66298   1.114   6.134   8.154  0.4641  1.6933 -0.6891
  481MOL0     O66299   1.164   6.089   8.028 -0.0464 -0.2546  0.9210
  481MOL0     C66300   1.079   6.045   7.918 -0.7897 -0.1187 -1.2902
  481MOL0     C66301   1.151   5.940   7.834 -0.0971 -0.2013  0.0277
  481MOL0     C66302   1.070   5.878   7.718  0.0358  0.3798 -1.1821
  481MOL0     C66303   0.943   5.818   7.777 -1.3057 -0.4711  0.3531
  481MOL0     C66304   0.967   5.712   7.881  0.5786  0.8063 -0.5803
  481MOL0     C66305   0.981   5.629   7.963  0.4552 -0.5526 -0.2854
  481MOL0     C66306   0.975   6.150   8.171 -0.5315 -0.3540 -0.2698
  481MOL0     C66307   0.928   6.189   8.302 -0.3543 -0.9049 -0.4664
  481MOL0     C66308   0.781   6.195   8.313  0.5017  0.4604 -0.5434
  481MOL0     H66309   0.696   6.134   8.751 -0.3303  0.1438 -0.6436
  481MOL0     H66310   0.586   6.271   8.952 -1.6261 -0.7320 -1.3630
  481MOL0     H66311   0.727   6.678   9.015 -0.6983  0.7584  1.5406
  481MOL0     H66312   0.577   6.671   9.116 -0.1348 -2.2890  1.0160
  481MOL0     H66313   0.600   6.749   8.828 -2.5557 -1.0953 -1.6718
  481MOL0     H66314   0.449   6.678   8.883 -1.5133  1.3362  1.7497
  481MOL0     H66315   0.434   6.900   8.889  0.3212 -4.0782 -2.7451
  481MOL0     H66316   0.440   6.844   9.066 -1.5223  1.0905 -0.5005
  481MOL0     H66317   0.655   6.933   9.101  3.1442  3.0905  0.1874
  481MOL0     H66318   0.687   6.945   8.926 -0.8961  1.5913 -0.7731
  481MOL0     H66319   0.573   7.114   9.121 -0.1430 -2.0418  0.9459
  481MOL0     H66320   0.523   7.139   8.943 -1.2146 -1.7758  0.4107
  481MOL0     H66321   0.719   7.279   9.026 -3.1874 -0.3740 -0.2924
  481MOL0     H66322   0.801   7.114   9.052  0.8254 -1.2428 -1.2581
  481MOL0     H66323   0.701   7.256   8.794 -2.3795 -1.2342  1.4723
  481MOL0     H66324   0.769   7.085   8.801 -0.5083 -1.6010  2.4234
  481MOL0     H66325   0.888   7.350   8.868 -0.5645  0.0432  0.1133
  481MOL0     H66326   0.996   7.207   8.841  2.2504  1.5764 -1.6819
  481MOL0     H66327   1.101   7.220   8.591 -0.6788 -2.0315 -2.0523
  481MOL0     H66328   1.176   7.385   8.404 -1.6726 -2.7121  2.4573
  481MOL0     H66329   1.058   7.430   8.275  0.7580  0.1297 -0.2798
  481MOL0     H66330   1.144   7.156   8.372 -0.3262  2.7405  0.9300
  481MOL0     H66331   1.010   7.168   8.268  1.1655 -1.2321 -1.5988
  481MOL0     H66332   1.164   7.266   8.091  0.1106  1.1203  1.0988
  481MOL0     H66333   1.296   7.263   8.211  2.4973 -1.0583 -4.4352
  481MOL0     H66334   1.155   7.006   8.105  2.8393 -3.6519 -1.2389
  481MOL0     H66335   1.299   7.066   8.039 -0.2038 -0.3881 -0.3020
  481MOL0     H66336   1.282   6.843   8.041  0.0935  3.2077  0.7537
  481MOL0     H66337   1.323   6.486   8.034  1.8424  0.6266  2.4166
  481MOL0     H66338   1.466   6.550   7.951  2.5827  0.7494  3.3184
  481MOL0     H66339   1.303   6.620   7.924 -2.5395  0.4846  2.6056
  481MOL0     H66340   1.693   6.346   7.894  1.6270  0.3658  1.4318
  481MOL0     H66341   1.827   6.127   7.877  1.5705  0.9631  1.3043
  481MOL0     H66342   1.955   6.000   8.237  0.7894 -0.9856  1.5820
  481MOL0     H66343   2.016   5.858   8.164  2.7224  0.5056  0.1169
  481MOL0     H66344   2.076   6.116   8.032 -1.8348 -0.3690 -0.0480
  481MOL0     H66345   2.183   6.014   8.136  0.1091  2.3896 -0.7558
  481MOL0     H66346   2.060   5.974   7.862  0.3954  4.3573  2.8686
  481MOL0     H66347   2.106   5.832   7.952 -0.8296  0.3518 -0.8202
  481MOL0     H66348   2.349   5.936   7.979  4.2056 -0.1877 -2.8629
  481MOL0     H66349   2.290   6.071   7.877 -0.1465 -0.7461 -0.2460
  481MOL0     H66350   2.241   5.931   7.687  1.8481  1.3335 -2.2810
  481MOL0     H66351   2.416   5.941   7.736  1.4228 -1.1855  3.6938
  481MOL0     H66352   2.222   5.706   7.812  0.7759 -3.9108 -2.1888
  481MOL0     H66353   2.391   5.722   7.865 -0.8480 -0.4646  0.5768
  481MOL0     H66354   2.403   5.579   7.682 -0.0002 -0.8621 -0.0166
  481MOL0     H66355   2.411   5.733   7.589 -1.3764  0.4678 -0.6238
  481MOL0     H66356   2.258   5.626   7.466 -0.2254 -0.2163 -0.6315
  481MOL0     H66357   2.154   5.726   7.580 -3.5938 -2.1439  1.0872
  481MOL0     H66358   1.730   6.037   8.280 -0.7595  0.4477  0.3937
  481MOL0     H66359   1.606   6.242   8.302 -0.1011 -1.6906  0.3085
  481MOL0     H66360   1.573   6.684   8.412  3.1084  0.9057 -2.1722
  481MOL0     H66361   1.472   6.906   8.421  2.9165  1.2368 -0.8559
  481MOL0     H66362   0.786   6.621   8.819 -1.0647  0.1862 -1.1502
  481MOL0     H66363   0.897   6.503   8.641  2.6865  1.2664  2.9525
  481MOL0     H66364   1.229   6.231   8.455  0.2415 -4.5012  1.2902
  481MOL0     H66365   1.307   6.126   8.250 -0.9909 -4.5860  0.6410
  481MOL0     H66366   0.981   6.010   7.952  0.2040 -3.1839 -1.2137
  481MOL0     H66367   1.054   6.136   7.863 -1.6461  2.1892  2.5371
  481MOL0     H66368   1.178   5.860   7.904 -1.4754  0.3729  1.2585
  481MOL0     H66369   1.235   5.995   7.790 -0.3875 -1.6585 -2.5212
  481MOL0     H66370   1.035   5.956   7.650  1.3441  2.6670  0.6086
  481MOL0     H66371   1.123   5.795   7.669  0.8832  0.5886 -0.6335
  481MOL0     H66372   0.886   5.778   7.693 -0.9561 -0.9225  0.3256
  481MOL0     H66373   0.875   5.888   7.826  0.0051  0.1540  1.3429
  481MOL0     H66374   0.989   5.560   8.045  2.7507 -0.1922 -0.1407
  481MOL0     H66375   0.898   6.135   8.095 -1.9526 -7.0436  1.8480
  481MOL0     H66376   0.718   6.109   8.341 -2.0470  1.9544 -1.3415
  481MOL0     H66377   0.762   6.284   8.374  1.6261  0.1921  0.2258
  481MOL0     H66378   0.726   6.219   8.222  0.6753 -0.4360 -0.8984
  482MOL0     O66379   4.381   2.620   1.365 -0.9996  0.0464  0.8658
  482MOL0     C66380   4.423   2.524   1.300  0.4398  0.2332  0.2965
  482MOL0     O66381   4.537   2.456   1.329 -0.3430  0.0508  0.0037
  482MOL0     C66382   4.624   2.493   1.426  0.4716  0.6212 -0.0980
  482MOL0     C66383   4.665   2.399   1.520  1.0894 -0.1784 -0.8689
  482MOL0     C66384   4.742   2.439   1.640  0.8958  0.5777  0.0142
  482MOL0     C66385   4.787   2.571   1.649 -0.3520 -0.7166  0.3282
  482MOL0     O66386   4.870   2.619   1.751  0.3438 -0.3355  0.2360
  482MOL0     C66387   5.005   2.582   1.756  0.4652 -1.1813 -0.0820
  482MOL0     C66388   5.064   2.546   1.901 -0.5242  0.1650 -0.4721
  482MOL0     C66389   4.995   2.647   2.002 -0.1900  0.2136  0.6743
  482MOL0     C66390   4.901   2.576   2.088 -0.1276 -0.5228 -0.0408
  482MOL0     C66391   4.838   2.646   2.201 -0.7864 -0.3139  0.1352
  482MOL0     C66392   4.783   2.787   2.178 -0.2234 -0.3266  0.3309
  482MOL0     C66393   4.679   2.794   2.067  0.4960  0.7147 -0.2994
  482MOL0     C66394   4.585   2.909   2.085  0.9738 -0.2584  0.4966
  482MOL0     N66395   4.487   2.931   1.970 -0.2397  0.2900  0.3440
  482MOL0     C66396   4.468   2.847   1.856 -1.3187  0.8495 -0.0025
  482MOL0     C66397   4.401   2.921   1.771  0.0347  1.0504 -0.3977
  482MOL0     C66398   4.354   2.878   1.634 -0.7690  0.0710  0.0267
  482MOL0     C66399   4.273   2.985   1.552 -0.5250 -0.5110  0.1879
  482MOL0     C66400   4.226   2.924   1.414  0.0854 -0.2694  0.5840
  482MOL0     C66401   4.125   3.015   1.350 -0.4795 -0.5763 -0.1658
  482MOL0     O66402   4.064   2.970   1.230  0.1331 -0.3277 -0.4906
  482MOL0     C66403   3.950   3.034   1.199 -0.0847  0.1414  1.0952
  482MOL0     C66404   3.926   3.164   1.232  0.2621  0.4894 -0.0152
  482MOL0     C66405   3.809   3.228   1.191 -0.4807  0.1774  0.1796
  482MOL0     C66406   3.782   3.362   1.253 -0.2071 -0.2863 -0.5227
  482MOL0     C66407   3.712   3.165   1.108 -0.1400  0.5788 -0.2560
  482MOL0     C66408   3.586   3.219   1.056 -1.3791 -0.6897  0.4256
  482MOL0     O66409   3.555   3.182   0.924 -0.0992  0.2445  0.7238
  482MOL0     C66410   3.425   3.204   0.871 -0.3204 -0.3331 -0.1579
  482MOL0     C66411   3.334   3.304   0.909 -0.0469  0.7607  0.5226
  482MOL0     C66412   3.211   3.326   0.839 -0.2121  0.1113 -0.8385
  482MOL0     C66413   3.168   3.230   0.734 -1.1718  0.8021  0.3008
  482MOL0     O66414   3.042   3.233   0.682 -0.3208 -0.1041  0.2456
  482MOL0     C66415   2.944   3.302   0.750 -0.1287 -0.0550  0.2396
  482MOL0     C66416   2.910   3.420   0.657  0.2096  0.6476 -0.2966
  482MOL0     C66417   2.783   3.476   0.722 -0.1599 -0.0193  0.1859
  482MOL0     C66418   2.746   3.623   0.692  0.1223 -0.9826 -0.6206
  482MOL0     C66419   2.776   3.683   0.549 -0.4233  1.0393 -1.6671
  482MOL0     C66420   2.780   3.831   0.541  0.4545 -0.5238 -0.3948
  482MOL0     C66421   2.802   3.880   0.397  0.2609 -0.4038 -1.2234
  482MOL0     C66422   2.668   3.897   0.307 -0.4498  0.2257  0.1588
  482MOL0    Cl66423   2.708   3.922   0.128 -0.3182  0.5340  0.0754
  482MOL0     C66424   3.269   3.144   0.693 -0.4566 -0.4387  0.1825
  482MOL0     C66425   3.398   3.134   0.749  0.6354 -0.7241  0.1695
  482MOL0     O66426   3.522   3.288   1.132 -0.3000  0.6212 -0.3054
  482MOL0     C66427   3.740   3.029   1.076  0.1338 -0.9969  0.2378
  482MOL0     C66428   3.857   2.968   1.116  0.0996 -0.3600  0.6431
  482MOL0     N66429   4.374   3.043   1.832  0.5040 -0.1985  0.3935
  482MOL0     N66430   4.427   3.046   1.947 -0.1046 -0.4782 -1.0523
  482MOL0     C66431   4.760   2.657   1.547 -0.5238 -0.3933 -0.3026
  482MOL0     C66432   4.676   2.625   1.439  0.5340 -0.6052  0.3366
  482MOL0     C66433   4.346   2.473   1.179 -0.2587 -1.0048 -0.6424
  482MOL0     C66434   4.386   2.358   1.115  0.3818 -0.5539  0.4043
  482MOL0     C66435   4.322   2.303   1.009 -0.6665 -0.8486  0.0337
  482MOL0     C66436   4.214   2.371   0.947  0.4636 -0.1054 -0.2906
  482MOL0     O66437   4.135   2.316   0.849  0.5821  0.4872  0.2021
  482MOL0     C66438   4.178   2.184   0.800  0.0373 -0.0391 -0.0544
  482MOL0     C66439   4.077   2.112   0.703 -0.3362 -0.2097  0.9049
  482MOL0     C66440   3.936   2.086   0.768 -0.5829 -0.7287 -0.0112
  482MOL0     C66441   3.841   2.013   0.657 -1.2321 -0.8576 -0.5761
  482MOL0     C66442   3.720   1.955   0.717 -0.5133  0.3084  0.9286
  482MOL0     C66443   3.628   1.891   0.767 -0.1011 -0.8643 -0.4711
  482MOL0     C66444   4.176   2.503   1.000 -0.3834  0.2848 -0.2594
  482MOL0     C66445   4.242   2.548   1.113 -0.2642  0.2949  0.4144
  482MOL0     C66446   4.215   2.700   1.137 -0.8466  0.8046  0.8548
  482MOL0     H66447   4.619   2.301   1.512  2.2194 -0.6411 -1.9523
  482MOL0     H66448   4.759   2.367   1.719 -0.3554  0.0286 -0.2029
  482MOL0     H66449   5.072   2.658   1.715  2.8007 -2.7525  0.6120
  482MOL0     H66450   5.018   2.492   1.695  0.2839 -2.4091  1.6155
  482MOL0     H66451   5.049   2.440   1.921  2.5215 -0.6447 -1.8766
  482MOL0     H66452   5.171   2.568   1.901 -0.3507 -0.6097  0.5212
  482MOL0     H66453   5.075   2.677   2.071 -1.2576  1.6937  1.3272
  482MOL0     H66454   4.944   2.733   1.957  0.8592  0.0199 -0.9480
  482MOL0     H66455   4.825   2.534   2.022 -0.6684  2.6368 -1.6298
  482MOL0     H66456   4.953   2.496   2.142  3.4250  1.2988 -0.4337
  482MOL0     H66457   4.921   2.656   2.272  1.3585  1.5333 -2.3906
  482MOL0     H66458   4.764   2.584   2.252 -1.0995 -0.5019 -0.5341
  482MOL0     H66459   4.719   2.814   2.262  1.3125 -0.5138  1.6034
  482MOL0     H66460   4.872   2.849   2.159  2.8594 -4.0990  1.2724
  482MOL0     H66461   4.616   2.705   2.069  0.2332  0.7741 -2.9205
  482MOL0     H66462   4.719   2.803   1.966  1.5969  0.5371  0.1050
  482MOL0     H66463   4.523   2.887   2.172  0.7724 -1.4620  0.0693
  482MOL0     H66464   4.646   2.998   2.101 -1.3365  1.3098  1.0157
  482MOL0     H66465   4.514   2.750   1.840 -3.6513 -0.7161  2.0209
  482MOL0     H66466   4.285   2.795   1.647 -1.6524  0.7056 -0.5310
  482MOL0     H66467   4.438   2.845   1.572  2.0043  2.3607  2.2580
  482MOL0     H66468   4.192   3.025   1.614  0.6271 -0.4604  1.7046
  482MOL0     H66469   4.337   3.068   1.522 -2.1860  1.3085  1.4752
  482MOL0     H66470   4.321   2.918   1.359  1.0553 -1.6027  2.3242
  482MOL0     H66471   4.181   2.825   1.428  1.2234 -1.1816 -1.6456
  482MOL0     H66472   4.040   3.029   1.417 -2.5178 -2.3876 -2.1854
  482MOL0     H66473   4.175   3.111   1.335 -0.3704 -0.2184  2.1902
  482MOL0     H66474   3.996   3.225   1.288 -0.4665 -0.7798  2.4192
  482MOL0     H66475   3.691   3.355   1.314 -1.2094  0.5744 -1.8606
  482MOL0     H66476   3.767   3.435   1.174  1.7824  1.2925  0.4779
  482MOL0     H66477   3.862   3.403   1.315 -2.7248  1.8274  1.5827
  482MOL0     H66478   3.348   3.382   0.983 -0.9865  2.0219 -0.5957
  482MOL0     H66479   3.144   3.410   0.855 -0.2100 -0.0467  0.0385
  482MOL0     H66480   2.859   3.232   0.755 -0.4158  0.2543 -0.1907
  482MOL0     H66481   2.960   3.329   0.854 -0.6682 -4.0046  1.5067
  482MOL0     H66482   2.990   3.494   0.650  0.4084  1.2184  4.5105
  482MOL0     H66483   2.885   3.386   0.556  0.7143 -1.6709  0.3144
  482MOL0     H66484   2.787   3.463   0.831 -1.0342  1.6106  0.4339
  482MOL0     H66485   2.698   3.419   0.683  2.4172 -2.8632 -1.7793
  482MOL0     H66486   2.799   3.674   0.772 -0.5964 -0.3983 -0.5058
  482MOL0     H66487   2.641   3.629   0.722  1.0212 -0.7665  2.8069
  482MOL0     H66488   2.870   3.644   0.508 -2.0441 -2.5753 -2.3562
  482MOL0     H66489   2.693   3.637   0.494 -0.7217 -3.7156  2.0537
  482MOL0     H66490   2.863   3.865   0.603  2.5824 -0.0293 -3.2952
  482MOL0     H66491   2.699   3.895   0.578  2.0054  3.4389 -3.1316
  482MOL0     H66492   2.870   3.808   0.350  3.1950  0.2565  1.6719
  482MOL0     H66493   2.859   3.973   0.400  2.4302 -1.7056  0.2761
  482MOL0     H66494   2.616   3.989   0.334  0.8824  1.8702 -2.4479
  482MOL0     H66495   2.598   3.814   0.323  1.0229 -0.7341  2.1159
  482MOL0     H66496   3.243   3.072   0.617 -0.2023  0.1609 -0.4778
  482MOL0     H66497   3.466   3.060   0.709  1.0994 -0.9576  1.3499
  482MOL0     H66498   3.669   2.975   1.014 -1.3143 -1.0357  1.8830
  482MOL0     H66499   3.883   2.871   1.076 -2.5270 -1.2383  0.8825
  482MOL0     H66500   4.798   2.757   1.566 -0.5242 -0.4541  0.0328
  482MOL0     H66501   4.650   2.698   1.363 -3.1970  1.1083  2.9747
  482MOL0     H66502   4.466   2.296   1.154 -1.0329 -1.3912  2.0955
  482MOL0     H66503   4.366   2.210   0.977  0.4667  0.0882 -1.2853
  482MOL0     H66504   4.273   2.195   0.747  0.0282 -0.2138 -0.1069
  482MOL0     H66505   4.198   2.121   0.887  2.3265  0.6054 -0.0423
  482MOL0     H66506   4.114   2.011   0.681 -2.6013 -0.4722 -2.5863
  482MOL0     H66507   4.068   2.166   0.609 -2.2444  0.1821  1.2698
  482MOL0     H66508   3.949   2.025   0.858 -1.5707  0.6419  1.1191
  482MOL0     H66509   3.887   2.182   0.787 -0.6209 -0.8142  0.3295
  482MOL0     H66510   3.892   1.921   0.626 -0.2576  0.0113 -1.6399
  482MOL0     H66511   3.826   2.084   0.576 -1.1649  1.2763  1.1655
  482MOL0     H66512   3.537   1.855   0.810  1.1430 -0.8215  2.4388
  482MOL0     H66513   4.095   2.552   0.947  1.5055  2.3908 -1.3132
  482MOL0     H66514   4.310   2.755   1.136  0.6129 -1.5810  0.4750
  482MOL0     H66515   4.153   2.748   1.061 -1.1497  0.8067  1.1042
  482MOL0     H66516   4.169   2.726   1.233 -3.1474  2.9820 -0.7016
  483MOL0     O66517   7.004   7.801   9.460 -0.7064 -0.5791 -0.7101
  483MOL0     C66518   7.107   7.772   9.534 -0.2446  1.1538  0.6410
  483MOL0     O66519   7.118   7.651   9.586  0.3419 -0.5034 -1.1546
  483MOL0     C66520   7.006   7.572   9.606  0.1216 -0.2397 -0.6517
  483MOL0     C66521   6.884   7.624   9.653 -0.0769 -1.1761  0.2022
  483MOL0     C66522   6.771   7.551   9.659 -0.5247  0.6037 -0.5884
  483MOL0     C66523   6.777   7.417   9.629 -0.2185  0.3957  0.4235
  483MOL0     O66524   6.659   7.332   9.611 -0.2172  0.4091 -0.8312
  483MOL0     C66525   6.568   7.351   9.506  0.6652  1.2164 -0.0107
  483MOL0     C66526   6.424   7.293   9.539 -0.3490 -1.7188  0.7392
  483MOL0     C66527   6.365   7.389   9.638  0.7189 -0.0918 -0.0555
  483MOL0     C66528   6.207   7.350   9.655  0.8574 -0.1553  0.7523
  483MOL0     C66529   6.134   7.445   9.758 -0.1942 -0.4565  0.3494
  483MOL0     C66530   6.195   7.407   9.895  0.5945  0.0593  0.8742
  483MOL0     C66531   6.110   7.439  10.011  0.4388  0.2029  0.0006
  483MOL0     C66532   6.179   7.466  10.131  0.0393 -0.1001  0.1534
  483MOL0     N66533   6.254   7.352  10.192 -0.4037  0.3389  0.8939
  483MOL0     C66534   6.394   7.357  10.218 -0.1479 -0.1384  0.1236
  483MOL0     C66535   6.408   7.239  10.284  0.6991 -1.0008  0.3018
  483MOL0     C66536   6.529   7.217  10.360 -0.6257  0.2315  0.1183
  483MOL0     C66537   6.671   7.243  10.289  0.8628  1.0091  0.2091
  483MOL0     C66538   6.682   7.151  10.162  0.2079 -0.0524 -0.3927
  483MOL0     C66539   6.781   7.211  10.074  0.2785 -0.6166 -0.1414
  483MOL0     O66540   6.749   7.350  10.024  0.2043 -0.3089  1.1778
  483MOL0     C66541   6.858   7.426  10.007  0.5333 -0.4046  1.3072
  483MOL0     C66542   6.995   7.391   9.994 -0.7731 -0.0899  0.4855
  483MOL0     C66543   7.092   7.497   9.975  0.0321  1.0182  0.2354
  483MOL0     C66544   7.242   7.453   9.955  0.2272  0.0264  0.5130
  483MOL0     C66545   7.055   7.634   9.970 -0.3685 -0.0733 -0.9530
  483MOL0     C66546   7.153   7.745   9.955  0.4257 -0.0308  0.2707
  483MOL0     O66547   7.109   7.854   9.889 -0.0912 -0.8086 -0.3575
  483MOL0     C66548   7.167   7.977   9.913 -0.4886 -0.6655 -0.2414
  483MOL0     C66549   7.236   8.020  10.031  0.4231 -0.0803 -0.5770
  483MOL0     C66550   7.275   8.153  10.055  0.2959 -0.3959  0.1475
  483MOL0     C66551   7.245   8.247   9.961  0.2734 -0.3717  0.2758
  483MOL0     O66552   7.292   8.372   9.959  0.0928  0.9405  0.7137
  483MOL0     C66553   7.317   8.432  10.086 -0.2124 -0.2739  0.2898
  483MOL0     C66554   7.339   8.583  10.088 -0.1454 -1.0630 -0.1513
  483MOL0     C66555   7.426   8.639   9.982  0.0333 -0.2684 -0.4263
  483MOL0     C66556   7.434   8.791   9.975  0.2653 -1.0126 -0.0541
  483MOL0     C66557   7.502   8.841   9.848 -0.7325 -0.2229  0.3767
  483MOL0     C66558   7.647   8.788   9.822  1.2312 -0.2967  0.1026
  483MOL0     C66559   7.740   8.832   9.939 -0.2401  0.3197  0.2143
  483MOL0     C66560   7.858   8.913   9.872 -0.2702 -0.1200  0.8688
  483MOL0    Cl66561   7.968   8.806   9.764  0.1368 -0.1909 -0.2118
  483MOL0     C66562   7.181   8.213   9.842  0.4511 -0.3810 -0.0538
  483MOL0     C66563   7.137   8.076   9.819 -0.8624  0.2094 -0.2548
  483MOL0     O66564   7.260   7.736  10.008 -0.6365  0.2667  0.5121
  483MOL0     C66565   6.918   7.666   9.993 -0.0707 -0.0729  0.3803
  483MOL0     C66566   6.827   7.561  10.004 -0.2591  0.8317 -0.9329
  483MOL0     N66567   6.283   7.182  10.303  0.0323  0.3937  0.8219
  483MOL0     N66568   6.186   7.247  10.255 -0.0845  0.3801 -0.1711
  483MOL0     C66569   6.899   7.355   9.604 -0.0160  0.5507 -0.0290
  483MOL0     C66570   7.016   7.439   9.594 -0.0441  0.1547 -0.4816
  483MOL0     C66571   7.226   7.859   9.534 -0.3634 -0.3133  1.1067
  483MOL0     C66572   7.332   7.817   9.604  0.8571 -0.2768 -0.7139
  483MOL0     C66573   7.461   7.871   9.596 -0.8436 -0.1263 -0.1613
  483MOL0     C66574   7.480   7.982   9.513 -0.5121 -0.1656  0.1247
  483MOL0     O66575   7.596   8.046   9.518  0.2172 -0.3201  0.5663
  483MOL0     C66576   7.596   8.147   9.619  0.3988 -0.2691 -0.7269
  483MOL0     C66577   7.700   8.262   9.586 -0.1304 -0.1514  0.0566
  483MOL0     C66578   7.694   8.352   9.717 -0.2030 -0.1693  0.4394
  483MOL0     C66579   7.783   8.467   9.710 -0.7764 -1.6072  0.9346
  483MOL0     C66580   7.921   8.423   9.684 -0.0447  0.6578  0.4006
  483MOL0     C66581   8.032   8.368   9.671 -0.6302 -0.5264 -0.1179
  483MOL0     C66582   7.371   8.031   9.438 -0.4659  1.0434  0.5194
  483MOL0     C66583   7.248   7.964   9.429 -0.0563 -0.7112  0.5914
  483MOL0     C66584   7.153   8.028   9.330  0.1634  0.0136 -0.6123
  483MOL0     H66585   6.862   7.730   9.664 -4.6651 -1.8296 -0.6481
  483MOL0     H66586   6.678   7.592   9.697 -0.4074  0.2566  0.0870
  483MOL0     H66587   6.608   7.285   9.428  0.7932 -0.0535  1.0983
  483MOL0     H66588   6.570   7.456   9.475  1.3325  0.5007 -2.7230
  483MOL0     H66589   6.360   7.285   9.451  1.6311 -0.2222 -0.9227
  483MOL0     H66590   6.429   7.192   9.580  0.4685 -1.2954  1.7420
  483MOL0     H66591   6.413   7.377   9.736 -1.0281  3.7385  1.5031
  483MOL0     H66592   6.383   7.494   9.609  2.7740 -0.9566 -2.2780
  483MOL0     H66593   6.155   7.349   9.559  1.3026 -0.6156  0.5141
  483MOL0     H66594   6.202   7.247   9.692  1.0298 -1.4905 -2.6305
  483MOL0     H66595   6.031   7.409   9.765  0.0200 -0.9469  1.1308
  483MOL0     H66596   6.136   7.554   9.745  0.2395 -0.0468  3.0598
  483MOL0     H66597   6.227   7.302   9.899  0.5035 -0.0808 -1.1666
  483MOL0     H66598   6.290   7.459   9.908  0.6040  0.6818 -1.2872
  483MOL0     H66599   6.018   7.383  10.027 -2.1765  3.8861 -0.8153
  483MOL0     H66600   6.066   7.535   9.982 -0.8320 -0.8768 -1.8012
  483MOL0     H66601   6.252   7.545  10.113  3.5489 -3.2276 -0.5718
  483MOL0     H66602   6.106   7.492  10.208 -0.8041 -2.0045  0.0597
  483MOL0     H66603   6.459   7.443  10.209 -1.6183  1.3445  2.7160
  483MOL0     H66604   6.538   7.109  10.371 -2.7311 -0.0109 -0.2558
  483MOL0     H66605   6.526   7.264  10.459  2.0083 -2.0116  1.4022
  483MOL0     H66606   6.676   7.350  10.270 -3.4080  1.3447 -0.0938
  483MOL0     H66607   6.756   7.222  10.354  1.7906 -0.2887 -1.3342
  483MOL0     H66608   6.712   7.048  10.182  1.2201  0.2435 -0.3196
  483MOL0     H66609   6.592   7.137  10.101 -0.4249  1.4659  0.1609
  483MOL0     H66610   6.870   7.223  10.137 -0.5329 -2.4888  1.4807
  483MOL0     H66611   6.809   7.139   9.997  2.8051 -2.5798  2.4020
  483MOL0     H66612   7.019   7.286   9.982  0.3522  0.2031  0.0266
  483MOL0     H66613   7.288   7.445  10.054 -3.0558 -0.4897  2.1505
  483MOL0     H66614   7.279   7.527   9.883 -0.8239 -1.4165 -1.6415
  483MOL0     H66615   7.248   7.357   9.902  0.2755  0.6498 -0.6560
  483MOL0     H66616   7.277   7.946  10.098 -0.9326  2.2701  3.1840
  483MOL0     H66617   7.327   8.177  10.148 -1.7205  2.9450  0.5480
  483MOL0     H66618   7.235   8.417  10.156  0.4277  2.4383  1.7505
  483MOL0     H66619   7.412   8.397  10.128  0.4600  0.9211 -0.1935
  483MOL0     H66620   7.243   8.636  10.086  1.4008  2.0349  0.4698
  483MOL0     H66621   7.384   8.610  10.185 -0.4756 -0.9958 -0.0162
  483MOL0     H66622   7.399   8.601   9.883 -2.5156  0.1168  0.0683
  483MOL0     H66623   7.525   8.596  10.001 -0.2737  0.0772  2.3107
  483MOL0     H66624   7.477   8.833  10.067  0.3027  2.4455 -1.4816
  483MOL0     H66625   7.331   8.828   9.968 -0.3041 -2.1560  1.6983
  483MOL0     H66626   7.443   8.824   9.757 -1.4892 -0.2437  0.8655
  483MOL0     H66627   7.511   8.950   9.854 -1.1898 -0.2262  1.3722
  483MOL0     H66628   7.680   8.822   9.723  1.7634  0.4972  0.5456
  483MOL0     H66629   7.624   8.681   9.821 -2.3008  0.3302 -1.4331
  483MOL0     H66630   7.779   8.742   9.988  0.4717  1.4444  1.7714
  483MOL0     H66631   7.695   8.894  10.016 -0.8504  0.5735 -0.3386
  483MOL0     H66632   7.921   8.969   9.941 -1.7486  3.1174 -0.1832
  483MOL0     H66633   7.821   8.998   9.813  3.2794  0.6583 -0.5032
  483MOL0     H66634   7.176   8.277   9.755 -2.3052 -2.2308 -1.3859
  483MOL0     H66635   7.080   8.046   9.732  1.0207 -0.9139 -1.1695
  483MOL0     H66636   6.879   7.767   9.988 -1.5287 -0.6665 -1.5422
  483MOL0     H66637   6.726   7.601  10.005  0.7616  3.6004 -0.0966
  483MOL0     H66638   6.902   7.249   9.580 -5.1781 -0.7834  3.5124
  483MOL0     H66639   7.112   7.394   9.569  0.8611  2.1158 -0.6985
  483MOL0     H66640   7.315   7.732   9.670 -3.0647  1.4887  0.9242
  483MOL0     H66641   7.546   7.837   9.655 -1.3418 -0.7858  0.2011
  483MOL0     H66642   7.494   8.187   9.627  0.1387 -1.2352  1.5015
  483MOL0     H66643   7.602   8.101   9.718 -0.4443  0.0135 -0.5289
  483MOL0     H66644   7.670   8.320   9.498 -0.1811 -0.3886 -0.0847
  483MOL0     H66645   7.799   8.214   9.588 -0.4098 -0.8823 -1.5953
  483MOL0     H66646   7.592   8.389   9.732 -0.8281 -2.6417  3.3259
  483MOL0     H66647   7.721   8.285   9.799 -0.0114  0.1413  0.6326
  483MOL0     H66648   7.790   8.531   9.799  0.4827  1.3323 -1.1472
  483MOL0     H66649   7.748   8.527   9.626 -1.0370  0.6208  2.5331
  483MOL0     H66650   8.124   8.317   9.654  1.1205  2.5268 -0.4652
  483MOL0     H66651   7.384   8.130   9.398  3.1726  0.6833  0.5263
  483MOL0     H66652   7.215   8.096   9.270 -0.1827  1.2623  0.4069
  483MOL0     H66653   7.097   7.964   9.261 -0.8349 -0.2806  0.4483
  483MOL0     H66654   7.076   8.082   9.385 -1.4402 -2.0776 -0.6962
  484MOL0     O66655  11.292   7.812   6.135 -0.3499 -0.2975 -0.4309
  484MOL0     C66656  11.182   7.796   6.102 -0.6909  0.4231 -0.0623
  484MOL0     O66657  11.098   7.704   6.159 -0.3768  0.1447 -0.3229
  484MOL0     C66658  11.132   7.605   6.253 -0.3699  0.2241 -0.0719
  484MOL0     C66659  11.259   7.576   6.303  0.1869  0.0018 -0.3688
  484MOL0     C66660  11.280   7.471   6.399  0.5723  0.5076 -0.4614
  484MOL0     C66661  11.167   7.391   6.446 -0.8077  0.6536  0.3380
  484MOL0     O66662  11.184   7.276   6.515 -0.2056 -0.1105  0.5565
  484MOL0     C66663  11.309   7.207   6.502  0.9229 -0.5162  0.2018
  484MOL0     C66664  11.315   7.071   6.568 -1.5911  0.3138  0.4611
  484MOL0     C66665  11.244   6.963   6.484  0.2875 -0.1740  0.1518
  484MOL0     C66666  11.241   6.833   6.566 -0.1233  0.5009  0.4432
  484MOL0     C66667  11.119   6.843   6.669 -0.1526  0.4268  0.2649
  484MOL0     C66668  10.976   6.848   6.604 -0.9165  0.3214 -1.0646
  484MOL0     C66669  10.868   6.839   6.714  0.8312 -0.5345 -0.4568
  484MOL0     C66670  10.733   6.895   6.666 -0.0972 -0.2422  0.2641
  484MOL0     N66671  10.738   7.040   6.623  0.8338  1.1876 -0.3732
  484MOL0     C66672  10.682   7.088   6.506 -0.3587  0.4820 -0.8247
  484MOL0     C66673  10.716   7.221   6.506 -0.5371  0.3181 -0.1929
  484MOL0     C66674  10.656   7.321   6.405  0.9911 -0.1493 -1.1919
  484MOL0     C66675  10.502   7.313   6.401 -0.4166  1.8863 -0.7092
  484MOL0     C66676  10.450   7.404   6.299  0.1291 -0.2129 -0.5498
  484MOL0     C66677  10.437   7.548   6.339  0.0063  0.2738  0.2257
  484MOL0     O66678  10.363   7.560   6.457 -0.4441  0.3605 -1.1186
  484MOL0     C66679  10.377   7.687   6.510  0.5356 -0.0343 -0.0528
  484MOL0     C66680  10.330   7.709   6.639 -0.2078  0.9472 -1.0405
  484MOL0     C66681  10.322   7.833   6.699  0.3392  0.3567 -0.8882
  484MOL0     C66682  10.262   7.844   6.844  0.6271 -0.2563  0.6527
  484MOL0     C66683  10.343   7.943   6.620  0.8422 -0.5681  0.4611
  484MOL0     C66684  10.334   8.084   6.667 -0.9778 -1.0492 -0.7884
  484MOL0     O66685  10.294   8.176   6.577 -0.6575  0.5619 -0.4165
  484MOL0     C66686  10.252   8.295   6.641 -0.1208  0.6551 -0.0568
  484MOL0     C66687  10.329   8.403   6.643 -1.3272  0.0824 -0.2776
  484MOL0     C66688  10.287   8.519   6.715  0.2876  0.2542  0.0848
  484MOL0     C66689  10.160   8.524   6.778  0.1357  1.0033  0.3072
  484MOL0     O66690  10.137   8.643   6.833  0.1246 -0.7223  0.3376
  484MOL0     C66691  10.047   8.650   6.942  0.8894 -0.2024 -0.7895
  484MOL0     C66692  10.069   8.792   7.001  0.1757  0.2115 -0.7524
  484MOL0     C66693  10.001   8.906   6.926 -0.0116  0.6664  0.2143
  484MOL0     C66694   9.920   9.000   7.019  0.2364 -1.0749  0.0608
  484MOL0     C66695   9.848   8.949   7.146  0.0113 -0.0145  0.1090
  484MOL0     C66696   9.735   9.050   7.170 -0.5484 -0.0494 -0.5521
  484MOL0     C66697   9.650   9.024   7.302 -0.0871  1.2543  0.2629
  484MOL0     C66698   9.595   8.885   7.319  1.1455  0.0107  0.1351
  484MOL0    Cl66699   9.716   8.755   7.370 -0.0610 -0.1971 -0.0714
  484MOL0     C66700  10.086   8.403   6.793  0.0734 -1.0320  0.7342
  484MOL0     C66701  10.131   8.290   6.716  0.2215 -0.4495  0.0749
  484MOL0     O66702  10.388   8.103   6.780  0.1877 -0.2016  0.7031
  484MOL0     C66703  10.399   7.929   6.485 -1.1841  0.4756  0.8742
  484MOL0     C66704  10.410   7.803   6.429 -1.2264  0.2923 -0.3928
  484MOL0     N66705  10.791   7.247   6.618 -0.3853 -0.0827  0.5115
  484MOL0     N66706  10.803   7.139   6.693  0.5455 -0.9264  0.5577
  484MOL0     C66707  11.043   7.419   6.395  0.2771 -0.1482  0.1734
  484MOL0     C66708  11.032   7.531   6.302 -0.7044  0.9474  0.3480
  484MOL0     C66709  11.107   7.888   6.009 -0.3426  0.1746 -0.2397
  484MOL0     C66710  10.974   7.861   5.982  0.5168  0.4476  1.2012
  484MOL0     C66711  10.891   7.936   5.904 -0.7301 -0.2196 -0.3866
  484MOL0     C66712  10.937   8.047   5.848 -0.5566 -0.1178  1.6834
  484MOL0     O66713  10.866   8.117   5.753  0.0423 -0.2978  0.6045
  484MOL0     C66714  10.921   8.210   5.660 -0.8035 -0.2415  0.3386
  484MOL0     C66715  10.816   8.228   5.554  0.6203 -0.0455 -1.2422
  484MOL0     C66716  10.806   8.121   5.437  0.1029 -0.1790  0.3133
  484MOL0     C66717  10.668   8.054   5.428  0.3547 -0.5171 -0.1325
  484MOL0     C66718  10.634   7.963   5.321  0.5902 -0.7670  0.1801
  484MOL0     C66719  10.601   7.882   5.233 -0.5561 -0.1028  1.0031
  484MOL0     C66720  11.061   8.095   5.884 -0.1934 -0.6662 -0.6848
  484MOL0     C66721  11.148   8.016   5.961  0.0129  0.4571 -0.2637
  484MOL0     C66722  11.283   8.079   5.998  0.2201  0.9629 -0.0971
  484MOL0     H66723  11.350   7.627   6.273 -1.1192  0.9985 -2.9280
  484MOL0     H66724  11.386   7.459   6.418  0.4164  2.9814  2.8106
  484MOL0     H66725  11.375   7.274   6.558 -0.3185 -0.6192  1.8429
  484MOL0     H66726  11.317   7.195   6.393  0.1588  1.1433 -0.0677
  484MOL0     H66727  11.415   7.028   6.570 -0.9021  1.7247 -0.9820
  484MOL0     H66728  11.280   7.082   6.671 -1.9495  1.2469  0.2513
  484MOL0     H66729  11.144   7.002   6.462 -0.3622 -1.3037  0.9823
  484MOL0     H66730  11.282   6.940   6.384 -3.5125 -2.5933 -0.9255
  484MOL0     H66731  11.212   6.754   6.497 -1.9262 -0.7258  2.4864
  484MOL0     H66732  11.338   6.807   6.610 -0.8306 -1.3465  0.9912
  484MOL0     H66733  11.125   6.927   6.739  0.2434 -2.5911  4.1843
  484MOL0     H66734  11.130   6.747   6.721  1.1698 -1.0847 -2.5943
  484MOL0     H66735  10.967   6.943   6.551 -0.2530 -0.2362 -2.2174
  484MOL0     H66736  10.962   6.762   6.538 -0.0545 -3.6186  3.3309
  484MOL0     H66737  10.899   6.901   6.799  3.3181 -2.9357  0.5135
  484MOL0     H66738  10.864   6.735   6.746 -0.0388 -0.7881 -1.3185
  484MOL0     H66739  10.688   6.831   6.590 -1.2912  2.5298 -1.5095
  484MOL0     H66740  10.664   6.910   6.749  1.1057 -0.7727  1.4058
  484MOL0     H66741  10.622   7.035   6.432  0.3522  0.3250 -1.2973
  484MOL0     H66742  10.704   7.322   6.306 -1.0904  1.0600 -2.2427
  484MOL0     H66743  10.689   7.420   6.439 -0.8957  0.0431  0.2249
  484MOL0     H66744  10.466   7.211   6.385 -1.8952  2.2982 -0.1453
  484MOL0     H66745  10.466   7.348   6.498  0.8439 -1.9286  1.3515
  484MOL0     H66746  10.497   7.381   6.203 -3.3994 -0.7090 -2.3577
  484MOL0     H66747  10.345   7.373   6.288 -0.6325  0.4353  3.3192
  484MOL0     H66748  10.539   7.588   6.348 -0.6641  2.5632 -1.4315
  484MOL0     H66749  10.386   7.593   6.253  0.4848 -2.3251 -1.5322
  484MOL0     H66750  10.290   7.631   6.703 -0.3113  1.8502  0.0190
  484MOL0     H66751  10.317   7.910   6.911 -0.0130  1.8429 -0.8026
  484MOL0     H66752  10.262   7.744   6.890  1.4506 -0.4118  0.3271
  484MOL0     H66753  10.160   7.883   6.839  0.7850  0.2616  1.3620
  484MOL0     H66754  10.427   8.419   6.599 -0.2349  2.1367  2.5797
  484MOL0     H66755  10.344   8.611   6.711 -0.4382  0.6632 -1.6497
  484MOL0     H66756   9.943   8.643   6.907 -0.3801 -1.8519  2.8990
  484MOL0     H66757  10.064   8.563   7.005 -0.8642 -1.6335 -2.1456
  484MOL0     H66758  10.007   8.773   7.089 -1.2934 -0.5578 -1.9196
  484MOL0     H66759  10.175   8.805   7.022  0.6954 -4.6954  0.8851
  484MOL0     H66760   9.933   8.875   6.846 -0.7358  1.8791  0.3411
  484MOL0     H66761  10.076   8.960   6.868  0.6948 -0.6441 -0.1428
  484MOL0     H66762   9.855   9.056   6.951  0.5193 -1.2969 -0.3936
  484MOL0     H66763   9.993   9.070   7.063 -1.3956 -1.7962  4.4179
  484MOL0     H66764   9.807   8.849   7.130 -1.4576  0.3435  1.4430
  484MOL0     H66765   9.923   8.937   7.225  1.2730 -2.7423 -1.3528
  484MOL0     H66766   9.666   9.036   7.087  1.0807 -1.8288 -1.6736
  484MOL0     H66767   9.758   9.156   7.181  0.2055 -0.3325  0.9673
  484MOL0     H66768   9.565   9.093   7.303 -1.5227 -0.4195 -0.4273
  484MOL0     H66769   9.714   9.043   7.389  2.5236  0.1306 -1.2818
  484MOL0     H66770   9.551   8.856   7.224 -0.8483 -0.8526  1.2658
  484MOL0     H66771   9.518   8.883   7.396  3.9436  0.1538  3.1625
  484MOL0     H66772   9.988   8.416   6.839 -1.4951  2.6391 -2.9350
  484MOL0     H66773  10.060   8.208   6.703 -1.3017  0.6831  0.8802
  484MOL0     H66774  10.441   8.003   6.418  4.6442 -1.7426  1.5527
  484MOL0     H66775  10.441   7.802   6.325  1.6834  0.4957  0.3815
  484MOL0     H66776  10.964   7.353   6.428  1.2050 -1.3011  0.1971
  484MOL0     H66777  10.928   7.544   6.272 -1.1457  0.0694  1.4195
  484MOL0     H66778  10.931   7.767   6.015  1.5765 -0.2591  0.6340
  484MOL0     H66779  10.791   7.896   5.888 -0.6429 -0.0910 -1.3438
  484MOL0     H66780  10.934   8.308   5.705  1.3379 -1.1026  1.7604
  484MOL0     H66781  11.018   8.188   5.614 -0.6425  2.8974 -1.0945
  484MOL0     H66782  10.825   8.330   5.517  3.5793  1.4921  3.0185
  484MOL0     H66783  10.716   8.222   5.599  0.3879  0.7778 -1.6277
  484MOL0     H66784  10.812   8.182   5.346 -0.3698  2.5021  1.9664
  484MOL0     H66785  10.886   8.048   5.453  0.7123  0.6861  1.3835
  484MOL0     H66786  10.597   8.137   5.431  2.3029  1.2213 -0.4965
  484MOL0     H66787  10.672   7.988   5.516  0.1913  1.1785  1.1992
  484MOL0     H66788  10.567   7.807   5.163 -3.0445  2.5457 -0.8571
  484MOL0     H66789  11.110   8.184   5.846 -1.0812  0.7978  1.4319
  484MOL0     H66790  11.285   8.186   5.978 -0.9319  1.0824  0.3347
  484MOL0     H66791  11.315   8.057   6.101 -0.9463  2.3993  0.6184
  484MOL0     H66792  11.363   8.032   5.940  1.4929  1.0482  1.5047
  485MOL0     O66793   7.524   7.883  10.389  0.0099 -0.4957 -0.1383
  485MOL0     C66794   7.568   7.994  10.435  0.5961 -1.1843 -0.0711
  485MOL0     O66795   7.555   8.035  10.572  0.0751 -0.2368 -0.0871
  485MOL0     C66796   7.475   7.965  10.654  0.6970  0.1895  0.2208
  485MOL0     C66797   7.332   7.946  10.639  0.2495 -0.1961  0.1292
  485MOL0     C66798   7.272   7.850  10.726  0.8408 -0.7300 -0.7185
  485MOL0     C66799   7.348   7.788  10.824 -0.5559 -0.0951  0.0277
  485MOL0     O66800   7.297   7.719  10.930  0.4997  0.5993  0.6178
  485MOL0     C66801   7.173   7.641  10.904 -0.3038 -0.5604 -1.0153
  485MOL0     C66802   7.137   7.554  11.018 -0.0142  0.7462 -0.5810
  485MOL0     C66803   7.252   7.453  11.059  0.5403 -0.8113  0.5670
  485MOL0     C66804   7.354   7.519  11.157 -1.3434 -0.1540 -0.6629
  485MOL0     C66805   7.474   7.425  11.149 -0.1138  0.8055  0.0304
  485MOL0     C66806   7.582   7.441  11.265  0.7024  0.2924 -1.3709
  485MOL0     C66807   7.605   7.590  11.304 -0.4495  1.0243 -0.7193
  485MOL0     C66808   7.725   7.593  11.405 -0.3160 -1.0633  0.7413
  485MOL0     N66809   7.687   7.591  11.546  1.1417  0.4200 -0.6214
  485MOL0     C66810   7.663   7.487  11.629 -0.1921 -0.3884 -0.8078
  485MOL0     C66811   7.653   7.534  11.757 -0.5086 -0.5559  0.3502
  485MOL0     C66812   7.615   7.478  11.891 -0.8912 -0.0763  0.1200
  485MOL0     C66813   7.643   7.325  11.898 -0.0426 -0.0942  0.0952
  485MOL0     C66814   7.532   7.265  11.992  0.5042  0.7458 -0.2636
  485MOL0     C66815   7.585   7.135  12.049 -0.3643  0.3401  0.0047
  485MOL0     O66816   7.624   7.039  11.947  0.0867  0.8255  0.2190
  485MOL0     C66817   7.748   6.986  11.935 -0.3748 -0.4191 -0.0505
  485MOL0     C66818   7.859   7.024  12.017 -0.2247  0.1034  0.4463
  485MOL0     C66819   7.986   6.965  12.005  0.1660 -0.2653 -0.4004
  485MOL0     C66820   8.106   7.018  12.090 -0.7912  0.8467  0.4892
  485MOL0     C66821   8.003   6.870  11.909  0.1738 -0.4679 -0.2035
  485MOL0     C66822   8.137   6.808  11.897 -0.9136  0.4346 -0.1511
  485MOL0     O66823   8.200   6.819  11.768  0.7868  0.0092 -0.0918
  485MOL0     C66824   8.329   6.773  11.753 -0.4072 -0.5581  0.0371
  485MOL0     C66825   8.363   6.660  11.681  0.0786  0.8614 -0.2144
  485MOL0     C66826   8.496   6.622  11.648 -0.6006  0.9493 -0.0717
  485MOL0     C66827   8.599   6.700  11.687 -0.5154  0.4448 -0.6672
  485MOL0     O66828   8.731   6.677  11.666  0.6538 -0.2973  0.1099
  485MOL0     C66829   8.777   6.602  11.560 -1.0647 -0.2599  0.5090
  485MOL0     C66830   8.929   6.579  11.587  0.6368  0.3972 -0.0745
  485MOL0     C66831   9.011   6.668  11.499 -0.6115 -0.5638  0.3846
  485MOL0     C66832   9.022   6.821  11.524 -0.2740  0.0186 -0.8558
  485MOL0     C66833   9.094   6.893  11.414 -1.3422  0.4116 -0.6325
  485MOL0     C66834   9.192   6.991  11.473  0.4431 -0.8390  0.1880
  485MOL0     C66835   9.254   7.064  11.356  0.2212  0.1030 -0.8559
  485MOL0     C66836   9.375   7.153  11.394  0.4244 -0.1512  0.0470
  485MOL0    Cl66837   9.518   7.047  11.443 -0.1415 -0.2734 -0.3278
  485MOL0     C66838   8.569   6.814  11.757 -0.5625 -0.2416 -0.6107
  485MOL0     C66839   8.442   6.855  11.787  0.6113  0.3237  0.2253
  485MOL0     O66840   8.187   6.746  11.994  0.2755 -0.7285  0.7511
  485MOL0     C66841   7.889   6.820  11.835 -0.2029 -0.1289  1.3197
  485MOL0     C66842   7.765   6.884  11.847  0.4704  0.4280  0.8337
  485MOL0     N66843   7.685   7.668  11.746 -0.1429  0.4583 -0.2670
  485MOL0     N66844   7.703   7.702  11.621  0.2198 -1.4130 -0.4506
  485MOL0     C66845   7.482   7.807  10.836 -0.6121 -0.6905  0.8613
  485MOL0     C66846   7.543   7.898  10.745  0.2113 -0.6710 -1.0783
  485MOL0     C66847   7.663   8.083  10.360 -0.4420 -0.2124 -0.9835
  485MOL0     C66848   7.718   8.197  10.429  0.3255 -0.1279 -0.1492
  485MOL0     C66849   7.800   8.283  10.360 -0.3916 -0.0408 -0.7265
  485MOL0     C66850   7.821   8.268  10.225 -0.9342 -0.0933  0.9604
  485MOL0     O66851   7.894   8.370  10.165  0.3056  0.1877 -0.0428
  485MOL0     C66852   7.986   8.354  10.058 -0.0280 -0.8072  1.0741
  485MOL0     C66853   8.120   8.289  10.115  0.2164 -0.1296  1.2708
  485MOL0     C66854   8.187   8.382  10.218 -0.2101  0.6809  0.5293
  485MOL0     C66855   8.334   8.346  10.247 -0.1709  0.5483  0.6773
  485MOL0     C66856   8.438   8.408  10.160  0.0737 -0.3477  0.2822
  485MOL0     C66857   8.517   8.474  10.095 -0.2239 -0.3665 -0.2556
  485MOL0     C66858   7.769   8.159  10.156 -1.1426 -0.0805 -0.3561
  485MOL0     C66859   7.692   8.068  10.224  0.4267  0.1401 -0.5878
  485MOL0     C66860   7.623   7.974  10.127 -0.8238 -0.2567  0.5384
  485MOL0     H66861   7.269   7.993  10.563 -1.0023  4.0395  3.3814
  485MOL0     H66862   7.166   7.827  10.725  0.9795 -1.3998 -0.6520
  485MOL0     H66863   7.179   7.569  10.822  1.7039  1.2300 -2.5465
  485MOL0     H66864   7.084   7.704  10.896 -1.0877 -1.4769  0.1906
  485MOL0     H66865   7.111   7.615  11.105 -1.0881 -0.5746  0.0584
  485MOL0     H66866   7.056   7.490  10.980  0.4065 -0.9153  1.1906
  485MOL0     H66867   7.205   7.368  11.110  0.3006  0.3160  2.2893
  485MOL0     H66868   7.295   7.428  10.962 -1.3656  0.5583 -0.7222
  485MOL0     H66869   7.393   7.619  11.133  1.7660 -0.8909  0.8356
  485MOL0     H66870   7.318   7.541  11.257  0.8351  1.9473 -0.2378
  485MOL0     H66871   7.526   7.448  11.055  1.0715 -0.3360  0.3768
  485MOL0     H66872   7.434   7.324  11.152 -1.0735  1.1657  3.6882
  485MOL0     H66873   7.535   7.408  11.358  0.7312 -0.6588 -1.6860
  485MOL0     H66874   7.674   7.384  11.243  1.0911  0.4915 -0.3139
  485MOL0     H66875   7.516   7.643  11.338 -2.2534 -2.1911 -0.0688
  485MOL0     H66876   7.647   7.638  11.215  0.9438 -0.1240 -0.7149
  485MOL0     H66877   7.792   7.514  11.369 -1.3449 -0.9801 -1.6064
  485MOL0     H66878   7.784   7.685  11.394  1.7267 -1.8359  3.9671
  485MOL0     H66879   7.665   7.386  11.591  3.3399 -0.4322 -0.8183
  485MOL0     H66880   7.510   7.500  11.912 -1.6393 -2.0347 -1.2090
  485MOL0     H66881   7.670   7.538  11.964 -0.7152 -1.7866  1.4511
  485MOL0     H66882   7.639   7.279  11.799 -1.0165  0.5835 -0.1865
  485MOL0     H66883   7.740   7.294  11.939  0.4169 -0.2385 -1.0556
  485MOL0     H66884   7.516   7.342  12.067 -0.3485 -0.9998  1.4389
  485MOL0     H66885   7.442   7.238  11.934 -0.7851  0.1397  1.9144
  485MOL0     H66886   7.667   7.161  12.117  1.8659 -1.3399 -1.8652
  485MOL0     H66887   7.508   7.085  12.109 -1.6751 -1.2697 -2.8057
  485MOL0     H66888   7.855   7.105  12.090  3.0970 -0.9745  1.9790
  485MOL0     H66889   8.096   7.113  12.144  1.9002  2.2017 -1.1539
  485MOL0     H66890   8.199   7.018  12.032  0.1495  0.5386  1.9332
  485MOL0     H66891   8.115   6.942  12.167 -2.3460 -0.5097 -0.6036
  485MOL0     H66892   8.282   6.597  11.647 -0.5263  1.3492  0.2989
  485MOL0     H66893   8.522   6.539  11.584 -0.1473  1.0903 -0.0759
  485MOL0     H66894   8.724   6.510  11.533 -3.5611  1.7380 -2.0182
  485MOL0     H66895   8.755   6.650  11.465 -1.5785 -2.8977 -0.8067
  485MOL0     H66896   8.960   6.590  11.691  1.6992 -0.2108 -0.3164
  485MOL0     H66897   8.946   6.476  11.555 -5.6557 -1.3712  0.8884
  485MOL0     H66898   8.984   6.645  11.395 -0.9160  2.5770 -0.3583
  485MOL0     H66899   9.113   6.629  11.502 -0.3147  0.1790  0.3120
  485MOL0     H66900   9.076   6.835  11.618  2.5368 -0.0788 -2.3386
  485MOL0     H66901   8.923   6.866  11.536 -1.2993 -2.0065 -1.3603
  485MOL0     H66902   9.145   6.825  11.346 -1.7781 -0.0635 -0.4897
  485MOL0     H66903   9.022   6.956  11.360 -1.8211  0.5014  0.0969
  485MOL0     H66904   9.262   6.940  11.539  0.8494  0.9795  1.2070
  485MOL0     H66905   9.139   7.064  11.535  0.9956 -0.8146  0.6370
  485MOL0     H66906   9.183   7.137  11.317 -0.3766  1.7167  2.8193
  485MOL0     H66907   9.293   6.997  11.279  1.1585 -2.0252  1.3492
  485MOL0     H66908   9.350   7.224  11.474 -0.6490 -0.7042  0.2073
  485MOL0     H66909   9.397   7.218  11.309  1.2986 -1.4722 -0.7661
  485MOL0     H66910   8.647   6.879  11.796 -0.4069  0.2524 -1.7205
  485MOL0     H66911   8.432   6.955  11.829 -1.6433 -0.1265  0.9471
  485MOL0     H66912   7.918   6.742  11.765  2.0479  0.4958  1.4639
  485MOL0     H66913   7.683   6.845  11.787  0.2492  1.7441  0.2338
  485MOL0     H66914   7.548   7.756  10.906  3.9399  2.4955 -0.6147
  485MOL0     H66915   7.651   7.909  10.743  0.1808  0.8795  1.5775
  485MOL0     H66916   7.684   8.222  10.529  1.0251  0.8163 -0.1358
  485MOL0     H66917   7.826   8.380  10.402  0.9264 -1.0144  0.8620
  485MOL0     H66918   7.939   8.287   9.987 -2.0181  0.2929  1.2881
  485MOL0     H66919   8.005   8.442   9.996 -1.3397 -1.5823 -0.4903
  485MOL0     H66920   8.186   8.270  10.029  2.0316  3.0128  1.8246
  485MOL0     H66921   8.092   8.199  10.171  0.5263  0.8725  3.1271
  485MOL0     H66922   8.191   8.486  10.182  3.0761  1.3711  2.4840
  485MOL0     H66923   8.126   8.374  10.308 -0.6755  1.3873  0.2940
  485MOL0     H66924   8.343   8.237  10.253 -2.3011  0.3385  0.8867
  485MOL0     H66925   8.362   8.386  10.345  0.1012  2.4163 -0.1089
  485MOL0     H66926   8.599   8.511  10.037 -1.1498  2.0209 -0.1649
  485MOL0     H66927   7.804   8.149  10.054  2.4965 -0.2903  0.7570
  485MOL0     H66928   7.516   7.990  10.140 -1.0705 -0.6818 -0.8277
  485MOL0     H66929   7.651   8.000  10.024 -0.8319 -1.8969  0.1002
  485MOL0     H66930   7.646   7.869  10.148  2.1890  0.3561  0.7745
  486MOL0     O66931   4.478   1.191   7.968  0.6356 -0.7523 -0.2044
  486MOL0     C66932   4.537   1.302   7.966 -0.3513  0.6922  0.2357
  486MOL0     O66933   4.649   1.326   7.899 -0.6941  0.3937  0.3180
  486MOL0     C66934   4.742   1.228   7.878 -0.0416  0.7121 -0.1580
  486MOL0     C66935   4.817   1.169   7.979  0.1334 -0.1121  0.8256
  486MOL0     C66936   4.892   1.060   7.959 -1.1287  0.6057  0.1697
  486MOL0     C66937   4.906   0.999   7.834  0.3364  0.6198  0.3702
  486MOL0     O66938   4.993   0.888   7.826  0.1555 -0.3870 -0.1475
  486MOL0     C66939   5.061   0.847   7.710  0.4354 -0.2387 -1.0196
  486MOL0     C66940   5.183   0.772   7.744  0.5536 -0.3646 -0.6036
  486MOL0     C66941   5.241   0.719   7.612 -0.2656  0.4774  0.0744
  486MOL0     C66942   5.368   0.640   7.633  0.1989 -0.8678  0.1637
  486MOL0     C66943   5.423   0.574   7.509 -0.2674 -0.0921  0.3430
  486MOL0     C66944   5.530   0.660   7.446  0.0083 -0.2063 -0.7227
  486MOL0     C66945   5.531   0.663   7.300 -0.1695  0.8521 -0.0422
  486MOL0     C66946   5.669   0.730   7.271  0.4010  0.1268  0.8960
  486MOL0     N66947   5.704   0.731   7.125 -0.2648 -0.1763  0.2731
  486MOL0     C66948   5.824   0.772   7.073 -0.0260 -0.4713 -0.7806
  486MOL0     C66949   5.822   0.756   6.936  0.4243  0.2570 -0.3247
  486MOL0     C66950   5.925   0.788   6.831 -0.8129  0.6467  0.1089
  486MOL0     C66951   5.924   0.924   6.782  0.3333 -0.3310 -0.2645
  486MOL0     C66952   5.964   1.033   6.889 -0.8098  0.6399  0.6846
  486MOL0     C66953   5.957   1.178   6.828 -0.1141 -0.4845 -0.4101
  486MOL0     O66954   5.828   1.206   6.774 -0.2284  0.6605 -0.1047
  486MOL0     C66955   5.735   1.250   6.860  0.1566  0.2559  0.3634
  486MOL0     C66956   5.637   1.165   6.906 -0.3781 -1.3577 -0.9332
  486MOL0     C66957   5.528   1.212   6.990 -0.4397 -0.1811  0.2165
  486MOL0     C66958   5.427   1.117   7.050  0.2989 -0.1147 -0.2739
  486MOL0     C66959   5.534   1.353   7.027  0.5790  0.2398 -0.4598
  486MOL0     C66960   5.438   1.425   7.115  0.2628  0.1677  0.2639
  486MOL0     O66961   5.301   1.404   7.098 -0.3903  0.1704 -0.2527
  486MOL0     C66962   5.212   1.467   7.172  0.8989  0.1794 -0.9180
  486MOL0     C66963   5.207   1.443   7.315  0.7416 -0.4813  0.3745
  486MOL0     C66964   5.114   1.506   7.398 -0.0693  0.5581 -0.2427
  486MOL0     C66965   5.034   1.604   7.347 -0.8636  0.5854  0.1173
  486MOL0     O66966   4.937   1.655   7.429  0.7238 -0.9061 -0.0823
  486MOL0     C66967   4.966   1.799   7.458 -0.3207  1.0168 -0.3454
  486MOL0     C66968   5.061   1.833   7.574 -0.4125 -0.0881 -0.1153
  486MOL0     C66969   4.990   1.790   7.706  0.2401 -0.6586 -0.2635
  486MOL0     C66970   5.065   1.820   7.836 -0.2779  0.3991 -0.1960
  486MOL0     C66971   5.172   1.717   7.865  0.0944  0.0380 -1.2662
  486MOL0     C66972   5.107   1.582   7.899 -0.0168 -0.7587  0.7143
  486MOL0     C66973   5.212   1.489   7.965 -0.4692  0.2249 -1.0624
  486MOL0     C66974   5.179   1.345   7.988 -0.2260  1.1364  0.6524
  486MOL0    Cl66975   5.059   1.335   8.125 -0.0794  0.1051  0.0159
  486MOL0     C66976   5.043   1.638   7.208  0.7001  0.5177  0.2358
  486MOL0     C66977   5.138   1.572   7.129  0.0536  0.8599 -0.3141
  486MOL0     O66978   5.485   1.476   7.212 -0.4624 -0.6220 -0.3176
  486MOL0     C66979   5.631   1.434   6.972 -0.9032  0.0016 -0.5285
  486MOL0     C66980   5.733   1.387   6.893 -0.1396 -0.9488 -0.4467
  486MOL0     N66981   5.697   0.706   6.905 -1.1402 -0.0774 -0.8418
  486MOL0     N66982   5.629   0.697   7.014 -0.8423  0.2350 -0.4582
  486MOL0     C66983   4.845   1.061   7.729 -0.4191 -0.3328 -0.3315
  486MOL0     C66984   4.767   1.183   7.749  0.7887  2.0384 -1.1157
  486MOL0     C66985   4.462   1.419   8.018 -0.3359 -0.1174  0.5521
  486MOL0     C66986   4.327   1.421   8.042  0.9562 -0.0807  0.2756
  486MOL0     C66987   4.263   1.528   8.096 -0.1103  0.3890 -0.1862
  486MOL0     C66988   4.334   1.646   8.126  0.4058 -0.4779 -0.1961
  486MOL0     O66989   4.289   1.758   8.190 -0.1905  0.1364 -0.1437
  486MOL0     C66990   4.168   1.756   8.264  0.7359  0.1131 -0.4702
  486MOL0     C66991   4.042   1.775   8.176  0.3600  0.5189 -0.0600
  486MOL0     C66992   4.031   1.920   8.137 -0.0071  0.2673  0.0632
  486MOL0     C66993   3.948   1.957   8.021 -0.0475  0.1744 -0.5202
  486MOL0     C66994   3.988   1.904   7.902  0.1464  1.2165  0.9991
  486MOL0     C66995   4.018   1.856   7.786 -0.1812  0.9367  0.2591
  486MOL0     C66996   4.464   1.658   8.086 -0.1234 -0.5687  0.1350
  486MOL0     C66997   4.535   1.544   8.045  0.6097  0.3513 -0.4995
  486MOL0     C66998   4.687   1.570   8.044 -0.3733  1.1044 -0.8580
  486MOL0     H66999   4.803   1.214   8.077 -4.2072  1.4680 -0.3201
  486MOL0     H67000   4.945   1.006   8.037 -0.1479 -1.1681 -1.6304
  486MOL0     H67001   5.085   0.930   7.644 -1.4788  0.9818 -0.2818
  486MOL0     H67002   4.981   0.786   7.665 -0.0887 -0.3814  0.0511
  486MOL0     H67003   5.253   0.847   7.783 -1.6800  1.7615 -0.4192
  486MOL0     H67004   5.166   0.697   7.822  1.4730  0.3605  0.3356
  486MOL0     H67005   5.169   0.650   7.567 -0.7602  0.1028  1.3849
  486MOL0     H67006   5.258   0.806   7.548  0.7989  0.9416  0.9559
  486MOL0     H67007   5.440   0.711   7.675 -0.0102 -1.9966  2.5916
  486MOL0     H67008   5.343   0.561   7.704  1.1242 -0.3478  1.1058
  486MOL0     H67009   5.350   0.556   7.429  1.0232  0.2971 -0.9832
  486MOL0     H67010   5.470   0.483   7.546 -0.4346  0.5310  2.1546
  486MOL0     H67011   5.528   0.763   7.482  0.5215 -0.0079 -1.2440
  486MOL0     H67012   5.628   0.630   7.485  0.0855  0.2646 -0.5433
  486MOL0     H67013   5.442   0.717   7.266 -0.8091  0.5387  1.0638
  486MOL0     H67014   5.536   0.557   7.273  1.7178  0.1415  2.7351
  486MOL0     H67015   5.692   0.823   7.323 -1.9665  1.6947 -0.6925
  486MOL0     H67016   5.752   0.666   7.302  2.3490  1.8776 -0.5017
  486MOL0     H67017   5.913   0.806   7.125 -2.0723 -1.6036  3.9714
  486MOL0     H67018   5.910   0.707   6.759 -0.4012  0.6039  0.0689
  486MOL0     H67019   6.027   0.762   6.861 -1.0191  1.1218  1.2854
  486MOL0     H67020   5.993   0.929   6.697 -1.7205 -2.5014 -2.1961
  486MOL0     H67021   5.822   0.934   6.745  0.3827 -1.0620 -0.6228
  486MOL0     H67022   5.901   1.010   6.975  0.5557 -5.3926  0.5031
  486MOL0     H67023   6.068   1.015   6.916 -0.6999  0.1939  0.0090
  486MOL0     H67024   5.987   1.251   6.904  0.0629 -1.2736  0.2903
  486MOL0     H67025   6.038   1.191   6.756 -0.4117 -0.4373 -0.7370
  486MOL0     H67026   5.633   1.058   6.887  0.7582 -1.6960  0.5877
  486MOL0     H67027   5.349   1.073   6.988  1.3295 -1.8832 -0.3853
  486MOL0     H67028   5.374   1.165   7.132  0.5818  0.0889 -0.2077
  486MOL0     H67029   5.476   1.028   7.091 -3.0272 -2.1562 -0.3663
  486MOL0     H67030   5.279   1.364   7.332  2.2438  0.2886 -1.9240
  486MOL0     H67031   5.117   1.493   7.506  1.2627  0.2234 -0.3100
  486MOL0     H67032   5.007   1.844   7.367  2.5932 -2.2363 -0.8351
  486MOL0     H67033   4.875   1.844   7.498 -1.1325 -0.9489  0.1325
  486MOL0     H67034   5.148   1.769   7.556  0.7426  1.3188  0.2386
  486MOL0     H67035   5.102   1.934   7.578  0.7858 -0.5670  0.0681
  486MOL0     H67036   4.968   1.683   7.694 -2.0946 -0.1066 -1.3820
  486MOL0     H67037   4.894   1.843   7.714 -1.1848 -3.1220  0.1781
  486MOL0     H67038   4.995   1.818   7.920  0.5998  0.5424  0.5626
  486MOL0     H67039   5.116   1.916   7.841  1.0981 -0.3278  0.5583
  486MOL0     H67040   5.238   1.701   7.780 -0.0135  1.7864 -1.7109
  486MOL0     H67041   5.228   1.740   7.956 -2.2047  0.9820 -0.0071
  486MOL0     H67042   5.066   1.531   7.811  3.2088 -0.1036 -1.3347
  486MOL0     H67043   5.039   1.602   7.982  1.3497 -0.2230  1.7426
  486MOL0     H67044   5.249   1.541   8.054 -2.3466  0.0449 -0.1119
  486MOL0     H67045   5.292   1.492   7.891  0.5582  1.7414  0.0682
  486MOL0     H67046   5.269   1.292   8.023 -1.0660  1.0509  2.8979
  486MOL0     H67047   5.135   1.290   7.905  1.3401  2.5498 -1.1933
  486MOL0     H67048   4.978   1.716   7.170  2.1995  1.2128 -1.0426
  486MOL0     H67049   5.154   1.591   7.024 -0.5460 -1.2239 -0.8329
  486MOL0     H67050   5.630   1.540   6.998 -1.7756 -0.4862  1.5707
  486MOL0     H67051   5.800   1.447   6.834  2.3133 -3.1807 -0.1075
  486MOL0     H67052   4.852   1.043   7.622  2.3468 -1.4201 -0.0692
  486MOL0     H67053   4.718   1.221   7.660  2.4668  0.7273 -2.6525
  486MOL0     H67054   4.264   1.334   8.023 -0.1055  0.0117  2.9521
  486MOL0     H67055   4.156   1.516   8.113  0.2960 -0.0188  2.4376
  486MOL0     H67056   4.155   1.657   8.310 -0.9611 -1.1871 -3.4379
  486MOL0     H67057   4.178   1.836   8.337  0.6935 -0.1318 -0.1950
  486MOL0     H67058   3.954   1.748   8.235 -0.9269  0.9953 -1.7071
  486MOL0     H67059   4.046   1.699   8.098  3.2140 -1.1767  1.5318
  486MOL0     H67060   3.988   1.979   8.219 -3.0598 -1.3373 -0.2255
  486MOL0     H67061   4.135   1.951   8.129 -0.1954  0.8512 -0.1348
  486MOL0     H67062   3.940   2.066   8.011  1.5006  0.3904  0.3584
  486MOL0     H67063   3.846   1.918   8.026 -0.4499  0.4824 -3.9681
  486MOL0     H67064   4.037   1.800   7.697  4.4209  1.5324  0.6514
  486MOL0     H67065   4.513   1.754   8.100  1.0360 -1.3358  1.7113
  486MOL0     H67066   4.727   1.592   7.944 -0.6873 -1.1940 -1.5552
  486MOL0     H67067   4.724   1.643   8.116  0.5060 -0.7610  0.6815
  486MOL0     H67068   4.731   1.473   8.070  0.3854  1.6422 -0.0595
  487MOL0     O67069   2.940   8.641  11.549  0.3319  0.2164  0.5715
  487MOL0     C67070   2.913   8.756  11.529 -0.0585 -1.6836  0.8086
  487MOL0     O67071   2.975   8.843  11.433  0.7168  0.4069  0.8778
  487MOL0     C67072   3.042   8.790  11.324  0.9090 -0.1361  0.6735
  487MOL0     C67073   3.123   8.884  11.263  0.4506  0.9564 -0.0069
  487MOL0     C67074   3.180   8.859  11.135 -1.0032 -1.0827 -0.8570
  487MOL0     C67075   3.170   8.736  11.075  0.8275  0.6598 -0.4525
  487MOL0     O67076   3.233   8.717  10.956 -0.6758  0.1287  0.2422
  487MOL0     C67077   3.156   8.680  10.839 -0.0234 -0.4631  0.1436
  487MOL0     C67078   3.213   8.705  10.696 -1.0893 -0.7078  0.1170
  487MOL0     C67079   3.310   8.823  10.699  0.4011  0.2880  0.5165
  487MOL0     C67080   3.376   8.867  10.567  0.1450 -0.6228  0.0554
  487MOL0     C67081   3.484   8.972  10.586  0.7625  0.4203 -0.0926
  487MOL0     C67082   3.575   8.998  10.468  0.7745 -0.0572 -0.2660
  487MOL0     C67083   3.662   9.120  10.467  0.3678 -0.0671  0.4072
  487MOL0     C67084   3.776   9.113  10.359  0.8113  1.4543  0.1308
  487MOL0     N67085   3.722   9.107  10.214  0.1287 -0.7189 -0.2038
  487MOL0     C67086   3.672   8.999  10.137  0.5244 -0.5721  0.9045
  487MOL0     C67087   3.642   9.054  10.020  0.2275  0.0900  0.2767
  487MOL0     C67088   3.566   8.995   9.896  1.0412  0.1774 -0.6430
  487MOL0     C67089   3.427   9.064   9.896  0.0413  0.2513 -0.3818
  487MOL0     C67090   3.323   9.016   9.791 -0.6678  0.0380  0.2699
  487MOL0     C67091   3.190   9.106   9.789 -0.0323  0.3124 -1.2767
  487MOL0     O67092   3.093   9.034   9.716 -0.9161 -0.4158  0.4013
  487MOL0     C67093   2.968   9.094   9.732  0.1094  1.4232  0.9591
  487MOL0     C67094   2.875   9.025   9.664 -0.4690 -0.1506  0.3120
  487MOL0     C67095   2.743   9.059   9.668  0.4421  0.5990 -1.3211
  487MOL0     C67096   2.642   8.961   9.606  0.1233 -1.3991 -0.3192
  487MOL0     C67097   2.698   9.170   9.747 -0.5943  0.2668 -0.8772
  487MOL0     C67098   2.561   9.214   9.768  0.2730  0.5502  0.7967
  487MOL0     O67099   2.468   9.115   9.784 -0.3411 -0.0810 -0.0746
  487MOL0     C67100   2.355   9.129   9.856  0.0917 -1.0641  0.6111
  487MOL0     C67101   2.324   9.231   9.955 -0.0769 -0.2896  0.7791
  487MOL0     C67102   2.207   9.224  10.034 -0.7776 -0.1332 -0.2548
  487MOL0     C67103   2.119   9.120  10.022  0.1645 -0.0572  0.9078
  487MOL0     O67104   1.996   9.108  10.085 -0.9652 -0.5342  1.3501
  487MOL0     C67105   1.929   9.217  10.141  0.6445  0.4070  0.4337
  487MOL0     C67106   1.854   9.300  10.038  0.7688  0.7283  0.0323
  487MOL0     C67107   1.890   9.443  10.020 -0.1892  0.0579 -0.1465
  487MOL0     C67108   1.828   9.499   9.890  0.7944 -0.0184 -0.0493
  487MOL0     C67109   1.872   9.652   9.859 -0.4648  1.7112 -0.8479
  487MOL0     C67110   2.014   9.655   9.802  0.0951  0.4138  0.5815
  487MOL0     C67111   2.042   9.793   9.746 -0.4016 -0.5400  0.6437
  487MOL0     C67112   2.185   9.829   9.709 -0.2292  0.1786 -0.5434
  487MOL0    Cl67113   2.275   9.891   9.859  0.1341  0.0846 -0.1900
  487MOL0     C67114   2.151   9.006   9.937  0.0818 -0.7363 -0.5615
  487MOL0     C67115   2.268   9.017   9.863  1.2323  0.1060  0.5269
  487MOL0     O67116   2.539   9.331   9.777  0.0523 -0.7919 -0.2963
  487MOL0     C67117   2.802   9.248   9.809  0.6150 -0.5541 -0.3433
  487MOL0     C67118   2.936   9.203   9.802  0.5709 -0.7672  0.6006
  487MOL0     N67119   3.687   9.185  10.019  0.0722 -0.1225 -0.2983
  487MOL0     N67120   3.732   9.219  10.135 -0.9135  0.2211 -0.9757
  487MOL0     C67121   3.090   8.637  11.138  0.7546 -0.5739  0.0586
  487MOL0     C67122   3.018   8.669  11.256  0.4375  0.0945  0.1204
  487MOL0     C67123   2.805   8.828  11.614  0.2607 -0.6610  0.9776
  487MOL0     C67124   2.811   8.970  11.616  0.1540  0.1725 -0.0857
  487MOL0     C67125   2.719   9.038  11.704  0.8020 -0.5457 -0.7712
  487MOL0     C67126   2.627   8.971  11.788 -0.9419  0.4699  0.2975
  487MOL0     O67127   2.521   9.033  11.859 -0.4841 -0.3407  0.5937
  487MOL0     C67128   2.550   9.161  11.920  0.3553  0.4680 -0.0526
  487MOL0     C67129   2.444   9.260  11.890 -0.5988 -0.6256 -1.0616
  487MOL0     C67130   2.444   9.289  11.738  0.4908  0.8810 -0.5814
  487MOL0     C67131   2.544   9.397  11.689 -1.0713 -0.2320 -0.0791
  487MOL0     C67132   2.526   9.410  11.542  0.8957  0.2679  1.1831
  487MOL0     C67133   2.503   9.428  11.424  0.9085  0.4362 -0.5076
  487MOL0     C67134   2.624   8.831  11.775  0.2671  0.0437 -0.2474
  487MOL0     C67135   2.718   8.757  11.698 -0.8147  1.1329  0.2977
  487MOL0     C67136   2.710   8.603  11.696  1.3176 -0.3035  0.4922
  487MOL0     H67137   3.142   8.983  11.304 -0.9599  2.6303 -3.0113
  487MOL0     H67138   3.240   8.939  11.091 -0.7563 -0.2048  0.9556
  487MOL0     H67139   3.067   8.743  10.838 -0.6590 -1.3237  0.6948
  487MOL0     H67140   3.127   8.575  10.847  0.6557 -1.1748 -4.1763
  487MOL0     H67141   3.256   8.609  10.665 -0.8833 -0.8165  0.7225
  487MOL0     H67142   3.141   8.724  10.616  2.4951  1.4119 -2.9353
  487MOL0     H67143   3.245   8.905  10.732 -0.3861 -0.6834  1.4701
  487MOL0     H67144   3.388   8.808  10.774  0.3850  1.8485  0.8702
  487MOL0     H67145   3.421   8.779  10.521  2.3854 -1.3391  3.3577
  487MOL0     H67146   3.301   8.899  10.494 -1.6424 -3.1732  0.6731
  487MOL0     H67147   3.541   8.934  10.672 -0.8393 -0.0407  0.8060
  487MOL0     H67148   3.443   9.071  10.605  3.4179  1.2569  1.8796
  487MOL0     H67149   3.649   8.918  10.463  0.3168 -0.4434 -1.5125
  487MOL0     H67150   3.511   8.983  10.380 -3.0139 -1.5094  2.4496
  487MOL0     H67151   3.713   9.136  10.563  0.4685 -2.3135  0.7886
  487MOL0     H67152   3.598   9.207  10.450 -1.0814 -0.8520  1.6509
  487MOL0     H67153   3.837   9.203  10.373  2.4905  0.2879  0.5089
  487MOL0     H67154   3.835   9.023  10.377 -1.3184 -0.2600 -1.0688
  487MOL0     H67155   3.658   8.893  10.158  0.0629 -0.3537  1.7779
  487MOL0     H67156   3.552   8.887   9.905  0.6698  0.2835  0.1442
  487MOL0     H67157   3.622   9.018   9.805  1.0918 -0.2962 -0.7383
  487MOL0     H67158   3.382   9.043   9.993 -2.6516 -0.4471 -1.6873
  487MOL0     H67159   3.446   9.170   9.878  2.4271  0.5227  2.8986
  487MOL0     H67160   3.356   9.017   9.687  0.3267 -1.4477  0.5525
  487MOL0     H67161   3.280   8.917   9.808 -1.8912 -0.1258 -3.0815
  487MOL0     H67162   3.172   9.121   9.896  0.9143 -0.8069 -0.9446
  487MOL0     H67163   3.199   9.204   9.742  0.3397  0.1445 -1.5594
  487MOL0     H67164   2.923   8.945   9.608  1.9889 -1.7503  4.2445
  487MOL0     H67165   2.616   8.900   9.693  3.3304 -1.4935  0.6860
  487MOL0     H67166   2.687   8.907   9.522  1.2358  1.0650 -1.4079
  487MOL0     H67167   2.550   9.010   9.573  0.6341  1.5814  2.2250
  487MOL0     H67168   2.388   9.319   9.960 -1.8222  1.3327 -2.0436
  487MOL0     H67169   2.200   9.309  10.101 -1.3941  1.7264 -2.5566
  487MOL0     H67170   1.857   9.175  10.212 -0.2176 -0.3531 -0.8603
  487MOL0     H67171   2.004   9.282  10.188 -1.3825  1.5638  2.2431
  487MOL0     H67172   1.830   9.241   9.949  0.1151  0.0264  0.6505
  487MOL0     H67173   1.753   9.296  10.081 -1.3334  3.1612 -4.0942
  487MOL0     H67174   1.998   9.441   9.999 -0.3155 -1.8585 -0.7651
  487MOL0     H67175   1.870   9.494  10.115 -0.6055 -1.3639  0.5673
  487MOL0     H67176   1.719   9.507   9.903  0.9496  0.9330  0.7633
  487MOL0     H67177   1.855   9.448   9.797 -1.2473  0.8059 -1.1777
  487MOL0     H67178   1.793   9.671   9.786 -0.4283 -2.8555 -2.3865
  487MOL0     H67179   1.866   9.716   9.947 -1.0482 -0.8186  1.0809
  487MOL0     H67180   2.026   9.575   9.728 -0.6714 -1.3898  2.3277
  487MOL0     H67181   2.083   9.634   9.884 -0.3278  2.5100  1.5442
  487MOL0     H67182   2.030   9.870   9.822  1.8419  1.3371 -0.7462
  487MOL0     H67183   1.978   9.805   9.658 -1.2555  0.0893  1.3346
  487MOL0     H67184   2.173   9.915   9.643  0.6626  0.8367  0.1196
  487MOL0     H67185   2.239   9.752   9.654  0.1783  0.4926 -0.5847
  487MOL0     H67186   2.089   8.917   9.932 -1.9861  0.5573  0.4218
  487MOL0     H67187   2.283   8.929   9.801 -0.1703  0.9784 -1.1347
  487MOL0     H67188   2.768   9.339   9.858  0.1001 -0.7522 -0.3212
  487MOL0     H67189   3.017   9.258   9.848  1.3996 -0.3200 -1.3054
  487MOL0     H67190   3.089   8.539  11.094 -1.9101 -0.4458 -0.2987
  487MOL0     H67191   2.954   8.595  11.304 -0.7011 -0.1849 -1.7390
  487MOL0     H67192   2.870   9.027  11.545 -2.5015  2.1340 -0.8970
  487MOL0     H67193   2.717   9.146  11.704 -1.3004 -0.5277 -0.9233
  487MOL0     H67194   2.565   9.152  12.028  0.3762 -0.8408 -0.1523
  487MOL0     H67195   2.646   9.206  11.892  0.2018  0.3917 -0.7198
  487MOL0     H67196   2.483   9.352  11.935  1.3664 -0.1426 -3.5314
  487MOL0     H67197   2.355   9.226  11.944  0.5217 -1.7364  0.1289
  487MOL0     H67198   2.458   9.204  11.671  2.6813  3.9153 -4.3708
  487MOL0     H67199   2.343   9.325  11.716 -0.8589 -0.4238  2.7903
  487MOL0     H67200   2.641   9.362  11.725  0.1996  3.2330  0.2543
  487MOL0     H67201   2.521   9.497  11.727  1.0661  1.3367 -2.5564
  487MOL0     H67202   2.488   9.452  11.321  1.3879 -1.3191 -1.0218
  487MOL0     H67203   2.541   8.795  11.835  0.7081  2.3598  1.9575
  487MOL0     H67204   2.712   8.554  11.599  1.7106 -2.5785  1.5809
  487MOL0     H67205   2.785   8.561  11.763 -0.6179  1.5582  4.1520
  487MOL0     H67206   2.618   8.568  11.743  3.6837 -4.2317  2.6999
  488MOL0     O67207   7.161   0.667   3.168 -0.2615  0.6495  0.6913
  488MOL0     C67208   7.161   0.753   3.084 -0.7806 -0.7678  0.0911
  488MOL0     O67209   7.078   0.861   3.086  0.6782 -0.3174  0.2419
  488MOL0     C67210   6.971   0.855   3.170  0.4920 -0.3832  0.7930
  488MOL0     C67211   6.864   0.781   3.131  1.2932 -0.8730 -0.3586
  488MOL0     C67212   6.764   0.761   3.228  0.7379 -1.0872  0.8116
  488MOL0     C67213   6.759   0.831   3.350 -0.5769 -0.6225 -0.0853
  488MOL0     O67214   6.660   0.817   3.444  0.4215 -0.1891 -0.6266
  488MOL0     C67215   6.592   0.688   3.439  0.1607 -0.4512 -0.7726
  488MOL0     C67216   6.500   0.650   3.564  0.9686  0.1782  0.0444
  488MOL0     C67217   6.435   0.515   3.539 -0.9239  0.2236  0.1106
  488MOL0     C67218   6.531   0.404   3.513  0.2142  0.1918 -0.3734
  488MOL0     C67219   6.442   0.268   3.482  0.9567 -0.6747  0.7479
  488MOL0     C67220   6.521   0.136   3.514 -0.6541 -0.1908 -0.6505
  488MOL0     C67221   6.443   0.017   3.478  0.2872  0.1124  0.7221
  488MOL0     C67222   6.313   0.010   3.560  0.1036 -0.3817 -0.0349
  488MOL0     N67223   6.261  -0.126   3.555  0.4505  0.3865  0.3791
  488MOL0     C67224   6.325  -0.238   3.602 -0.6000 -0.7711 -0.9148
  488MOL0     C67225   6.233  -0.330   3.571 -0.1243  0.9746 -0.2332
  488MOL0     C67226   6.219  -0.478   3.613  0.5956 -0.5480 -0.4487
  488MOL0     C67227   6.230  -0.566   3.496  0.7256 -0.2710 -0.7542
  488MOL0     C67228   6.240  -0.718   3.543 -0.0034 -0.7941 -0.4496
  488MOL0     C67229   6.163  -0.816   3.465 -0.3719 -0.3076 -0.9250
  488MOL0     O67230   6.227  -0.838   3.336 -0.2274  0.3474 -0.6886
  488MOL0     C67231   6.205  -0.954   3.264  0.4299 -0.4195 -0.1924
  488MOL0     C67232   6.113  -1.049   3.310 -0.2385  0.0898  0.1022
  488MOL0     C67233   6.094  -1.176   3.242 -0.6665 -0.7900 -0.4892
  488MOL0     C67234   5.998  -1.284   3.291 -0.2489 -0.6451 -0.6085
  488MOL0     C67235   6.183  -1.202   3.140  1.0262 -0.6804  0.0514
  488MOL0     C67236   6.189  -1.325   3.057  0.9918 -0.1404  0.2424
  488MOL0     O67237   6.072  -1.403   3.047 -0.1755 -0.0485 -0.1702
  488MOL0     C67238   6.074  -1.530   2.993  0.4998 -0.4050  1.2912
  488MOL0     C67239   5.999  -1.631   3.055  0.0698  0.2451 -0.7151
  488MOL0     C67240   6.004  -1.763   3.001  1.5747 -0.0280 -0.3862
  488MOL0     C67241   6.053  -1.781   2.873  0.0165  0.2742 -0.8068
  488MOL0     O67242   6.041  -1.908   2.816 -0.0872 -0.4649 -0.1320
  488MOL0     C67243   6.073  -2.013   2.912  0.2757  1.3803  0.3487
  488MOL0     C67244   6.107  -2.130   2.825  0.1907  0.2099 -0.9454
  488MOL0     C67245   6.150  -2.252   2.918 -0.1758 -0.3938  0.1734
  488MOL0     C67246   6.195  -2.371   2.827 -0.4975 -0.2158 -0.3953
  488MOL0     C67247   6.265  -2.475   2.920  0.7303 -0.2676 -0.7133
  488MOL0     C67248   6.178  -2.533   3.032 -0.3272 -0.1848 -0.4532
  488MOL0     C67249   6.266  -2.633   3.108 -0.2995  0.3536  0.3283
  488MOL0     C67250   6.193  -2.729   3.194 -0.5252  0.1489  0.9622
  488MOL0    Cl67251   6.273  -2.893   3.203 -0.2459  0.1036  0.0936
  488MOL0     C67252   6.130  -1.674   2.811 -0.0217  1.0578  0.0001
  488MOL0     C67253   6.138  -1.556   2.871  0.1046 -0.8074  0.7113
  488MOL0     O67254   6.299  -1.368   3.026  0.3272 -0.3493 -0.8897
  488MOL0     C67255   6.280  -1.100   3.098 -0.8852  0.8250  1.7286
  488MOL0     C67256   6.284  -0.980   3.154  0.6458  0.5524  0.0843
  488MOL0     N67257   6.136  -0.277   3.494  0.5451 -0.1161  0.3644
  488MOL0     N67258   6.153  -0.158   3.472 -0.1106 -0.1400  0.6451
  488MOL0     C67259   6.868   0.914   3.387 -0.4327  1.2050  0.6352
  488MOL0     C67260   6.973   0.921   3.295  0.5668  0.1512 -0.3327
  488MOL0     C67261   7.259   0.744   2.960 -0.7135  0.5504 -0.4792
  488MOL0     C67262   7.262   0.852   2.873 -0.0294 -0.1610  0.1743
  488MOL0     C67263   7.357   0.850   2.774  0.2256  0.1642 -0.6369
  488MOL0     C67264   7.431   0.737   2.742 -1.3352 -0.5006  0.3597
  488MOL0     O67265   7.538   0.744   2.648 -0.2320 -0.5690  0.7865
  488MOL0     C67266   7.497   0.800   2.523 -0.4378  0.6336  0.5043
  488MOL0     C67267   7.371   0.734   2.458 -0.1224 -1.0835  0.8219
  488MOL0     C67268   7.342   0.790   2.311 -0.4043  0.0054 -0.2577
  488MOL0     C67269   7.392   0.706   2.196  0.5548  0.4941 -0.1159
  488MOL0     C67270   7.533   0.703   2.188  0.3913 -0.8677  0.7083
  488MOL0     C67271   7.649   0.721   2.184  0.6670  0.3757  0.2105
  488MOL0     C67272   7.442   0.627   2.835  0.2183 -0.8033 -1.4727
  488MOL0     C67273   7.354   0.639   2.941 -0.1274 -0.6441  0.3038
  488MOL0     C67274   7.359   0.525   3.027  0.1251  0.5133  0.6389
  488MOL0     H67275   6.854   0.723   3.039 -1.4388 -1.1259 -0.0069
  488MOL0     H67276   6.680   0.701   3.195 -0.0340  1.0272 -1.3171
  488MOL0     H67277   6.669   0.610   3.444  0.0868 -0.4607  0.9565
  488MOL0     H67278   6.531   0.670   3.350 -2.6892 -6.0837  1.7793
  488MOL0     H67279   6.552   0.633   3.658 -1.6335  0.3090  1.6045
  488MOL0     H67280   6.424   0.726   3.584  1.3972  0.0065  2.6937
  488MOL0     H67281   6.380   0.482   3.627 -0.0921 -1.0948  0.1588
  488MOL0     H67282   6.361   0.528   3.459 -0.3015 -0.8076 -0.6631
  488MOL0     H67283   6.605   0.404   3.432  2.2946 -0.3099  1.4101
  488MOL0     H67284   6.581   0.384   3.609  2.1419  0.0952 -1.3405
  488MOL0     H67285   6.414   0.266   3.376  1.0083 -1.4799  0.7438
  488MOL0     H67286   6.351   0.277   3.543 -0.6477 -2.2581 -1.2417
  488MOL0     H67287   6.609   0.134   3.449 -0.6739  2.7156 -0.9190
  488MOL0     H67288   6.544   0.151   3.620 -0.7422  2.9453 -0.9755
  488MOL0     H67289   6.509  -0.070   3.478  1.5826  1.0168 -1.4183
  488MOL0     H67290   6.422   0.028   3.371  5.6587  1.1726 -0.4726
  488MOL0     H67291   6.328   0.043   3.663  4.0965  0.7205 -0.8151
  488MOL0     H67292   6.249   0.085   3.512 -2.7579 -1.3728  1.9395
  488MOL0     H67293   6.424  -0.254   3.643 -0.8908  1.9778  1.1684
  488MOL0     H67294   6.122  -0.496   3.660  0.3872 -2.2879 -1.4732
  488MOL0     H67295   6.289  -0.507   3.692  0.0037 -1.2139 -0.1631
  488MOL0     H67296   6.139  -0.555   3.437 -0.6585  0.4126  1.3890
  488MOL0     H67297   6.318  -0.536   3.439 -0.1086  1.7174 -1.0901
  488MOL0     H67298   6.348  -0.735   3.535  0.0199 -0.2012 -1.5175
  488MOL0     H67299   6.195  -0.720   3.643 -1.4780 -1.2501 -1.1148
  488MOL0     H67300   6.152  -0.907   3.524 -1.0343 -0.9893 -2.0704
  488MOL0     H67301   6.061  -0.784   3.445 -0.9144 -0.6465  1.0806
  488MOL0     H67302   6.043  -1.020   3.387  1.7853 -2.3281  3.0780
  488MOL0     H67303   6.050  -1.370   3.333 -2.5121 -0.5909  2.7038
  488MOL0     H67304   5.930  -1.312   3.210 -1.9736  1.9837 -0.1965
  488MOL0     H67305   5.935  -1.243   3.371  1.6186 -1.0552  1.1410
  488MOL0     H67306   5.951  -1.613   3.151  0.6126 -0.5077 -0.2938
  488MOL0     H67307   5.953  -1.835   3.063 -0.2883  0.0542 -1.7378
  488MOL0     H67308   6.150  -1.984   2.984 -0.7801  0.7144  1.8080
  488MOL0     H67309   5.976  -2.033   2.959  1.6775 -1.8286  2.2385
  488MOL0     H67310   6.025  -2.166   2.762 -1.0067  0.6989  0.2832
  488MOL0     H67311   6.193  -2.091   2.770  1.1613  0.5199  0.7313
  488MOL0     H67312   6.068  -2.274   2.987 -0.0181  1.7630  1.1367
  488MOL0     H67313   6.233  -2.221   2.982 -0.2227  1.2935 -0.5292
  488MOL0     H67314   6.278  -2.345   2.761  0.9791  1.5905  2.0132
  488MOL0     H67315   6.123  -2.439   2.781 -0.3605 -2.6029  2.6245
  488MOL0     H67316   6.305  -2.556   2.859 -0.2049 -0.1284 -1.5415
  488MOL0     H67317   6.357  -2.439   2.966  0.2683  2.7768 -1.9392
  488MOL0     H67318   6.093  -2.593   2.998 -1.5764 -0.4502  2.8083
  488MOL0     H67319   6.145  -2.456   3.102 -1.1704 -1.2524  0.3559
  488MOL0     H67320   6.340  -2.577   3.165 -3.0958  3.4561  1.2521
  488MOL0     H67321   6.338  -2.690   3.049 -1.5481 -2.6233  1.4611
  488MOL0     H67322   6.089  -2.730   3.157  0.9867  0.6869 -4.1089
  488MOL0     H67323   6.198  -2.680   3.291 -3.1982  0.7340  0.8826
  488MOL0     H67324   6.184  -1.705   2.722  3.2711 -3.1164  2.9990
  488MOL0     H67325   6.193  -1.476   2.823  2.5246 -2.4934  0.4293
  488MOL0     H67326   6.354  -1.112   3.020 -1.2400  1.1314  1.3391
  488MOL0     H67327   6.356  -0.908   3.117  1.1368 -0.8595 -1.8457
  488MOL0     H67328   6.878   0.956   3.486 -2.8509 -2.7686  2.7956
  488MOL0     H67329   7.056   0.977   3.335  1.4456 -0.3675 -1.3657
  488MOL0     H67330   7.205   0.942   2.897 -0.6718 -1.1347  2.5550
  488MOL0     H67331   7.360   0.949   2.729  0.4782  0.2782 -0.3693
  488MOL0     H67332   7.481   0.907   2.531 -0.8290  0.6016  0.1911
  488MOL0     H67333   7.582   0.768   2.461 -1.3595 -3.0622  0.8951
  488MOL0     H67334   7.281   0.750   2.519 -0.8254 -0.3090 -0.3653
  488MOL0     H67335   7.383   0.626   2.454 -0.3778 -1.0846 -0.3126
  488MOL0     H67336   7.236   0.809   2.291 -0.3307 -0.3701 -1.0476
  488MOL0     H67337   7.402   0.880   2.299  2.2161 -1.5036  0.8328
  488MOL0     H67338   7.356   0.753   2.104 -0.7151 -2.5745 -1.3346
  488MOL0     H67339   7.347   0.607   2.199  2.1873 -0.3170 -1.2471
  488MOL0     H67340   7.756   0.721   2.176  0.5518  1.4509 -1.9999
  488MOL0     H67341   7.509   0.543   2.823  2.7493  0.6235  1.2710
  488MOL0     H67342   7.266   0.468   3.022 -1.6778  3.2175  0.8080
  488MOL0     H67343   7.442   0.455   3.019  1.1358  1.4311  2.3186
  488MOL0     H67344   7.363   0.555   3.132 -1.1526 -1.7314  1.3963
  489MOL0     O67345   2.180   1.576   5.705 -0.7820  0.4875 -0.5201
  489MOL0     C67346   2.152   1.672   5.633  1.5314  0.8742  0.0281
  489MOL0     O67347   2.150   1.661   5.493  0.3492  0.2829 -0.2339
  489MOL0     C67348   2.231   1.576   5.423  0.7001  0.3555 -0.2625
  489MOL0     C67349   2.322   1.482   5.465 -0.3403  0.8761 -0.1854
  489MOL0     C67350   2.391   1.400   5.377  0.0324 -0.6960  0.4301
  489MOL0     C67351   2.372   1.409   5.242 -0.1649  0.8027  0.6979
  489MOL0     O67352   2.426   1.320   5.152 -0.2088 -0.2583  0.1376
  489MOL0     C67353   2.369   1.186   5.145  0.5047 -0.0083  0.0224
  489MOL0     C67354   2.465   1.094   5.073  0.5298  0.2215  0.6434
  489MOL0     C67355   2.482   1.152   4.930  0.8144 -0.7374  0.3192
  489MOL0     C67356   2.596   1.082   4.849 -0.0506  0.7934 -0.0279
  489MOL0     C67357   2.600   1.159   4.710 -0.3938  0.0471 -0.3573
  489MOL0     C67358   2.702   1.085   4.627 -0.1579 -0.4780  0.0181
  489MOL0     C67359   2.760   1.195   4.535 -0.7929  1.3597  0.2759
  489MOL0     C67360   2.885   1.134   4.468  0.1731  0.3700 -0.6327
  489MOL0     N67361   2.930   1.199   4.346  0.4421 -0.8602 -0.2013
  489MOL0     C67362   2.994   1.320   4.343 -0.4348  0.5802  0.2441
  489MOL0     C67363   3.002   1.360   4.214 -0.5221 -0.1366 -0.0034
  489MOL0     C67364   3.065   1.487   4.154 -0.0813 -0.5541 -0.4667
  489MOL0     C67365   3.164   1.454   4.049  0.1913 -0.5175  0.8891
  489MOL0     C67366   3.122   1.505   3.909  0.0220 -0.7100  0.3323
  489MOL0     C67367   3.226   1.504   3.804 -0.0573 -1.0102  0.6305
  489MOL0     O67368   3.159   1.562   3.687 -0.2474 -0.6536  0.0748
  489MOL0     C67369   3.239   1.624   3.590  0.6583 -0.1526  0.2108
  489MOL0     C67370   3.377   1.602   3.578  1.3423  1.0830 -0.4607
  489MOL0     C67371   3.451   1.665   3.482 -0.1802 -0.1883  0.4494
  489MOL0     C67372   3.602   1.641   3.474  1.7898 -0.4447  0.0728
  489MOL0     C67373   3.393   1.762   3.393 -0.3218 -0.6770  0.2938
  489MOL0     C67374   3.468   1.831   3.276 -0.3177  0.0812 -1.6228
  489MOL0     O67375   3.395   1.874   3.171  0.6969 -0.3792  0.9075
  489MOL0     C67376   3.458   1.952   3.080 -0.3355  0.0314 -0.8223
  489MOL0     C67377   3.440   1.928   2.944 -0.9843  0.7526  0.7155
  489MOL0     C67378   3.479   2.006   2.836  0.4009  0.4488  0.7118
  489MOL0     C67379   3.537   2.129   2.872 -0.5215  0.1085  0.9354
  489MOL0     O67380   3.551   2.218   2.761  0.0440 -0.1763 -0.7249
  489MOL0     C67381   3.669   2.307   2.757 -0.8518 -0.0891 -0.0042
  489MOL0     C67382   3.686   2.344   2.612 -0.5975  0.5907 -0.9854
  489MOL0     C67383   3.559   2.404   2.553  0.1210 -0.0425  0.9060
  489MOL0     C67384   3.590   2.399   2.398 -0.2410  0.7449  0.0977
  489MOL0     C67385   3.497   2.480   2.296  0.4044  0.9630  0.0947
  489MOL0     C67386   3.345   2.456   2.338  0.1892 -0.0031  0.2640
  489MOL0     C67387   3.242   2.510   2.247 -0.0730  0.6474 -0.1088
  489MOL0     C67388   3.256   2.663   2.210  0.1278  0.0940 -0.3099
  489MOL0    Cl67389   3.266   2.762   2.356  0.5137  0.5628 -0.3147
  489MOL0     C67390   3.569   2.158   3.007 -0.8475  0.4498  0.2017
  489MOL0     C67391   3.539   2.068   3.117  0.5824  0.7025  1.1329
  489MOL0     O67392   3.587   1.855   3.290  0.2400  0.0266 -0.4692
  489MOL0     C67393   3.249   1.776   3.396  0.2184 -0.5014 -0.9164
  489MOL0     C67394   3.173   1.709   3.503 -0.2665 -0.0804 -0.1631
  489MOL0     N67395   2.919   1.277   4.143 -0.0056 -0.5128  0.6746
  489MOL0     N67396   2.877   1.179   4.223  0.3099 -1.1534 -0.8401
  489MOL0     C67397   2.282   1.503   5.190 -0.3641 -0.2657  1.3195
  489MOL0     C67398   2.223   1.593   5.282  0.5076  0.2848 -0.7919
  489MOL0     C67399   2.076   1.778   5.705 -0.4744  0.4503 -0.6170
  489MOL0     C67400   2.011   1.761   5.836 -0.0308  0.7353 -0.0914
  489MOL0     C67401   1.959   1.874   5.894  0.4522 -0.0371 -0.0758
  489MOL0     C67402   1.958   2.005   5.842  0.7599  0.8139  1.5066
  489MOL0     O67403   1.910   2.112   5.898 -0.4642 -0.0520 -0.7295
  489MOL0     C67404   1.835   2.215   5.836 -0.6297 -0.0500 -0.6031
  489MOL0     C67405   1.710   2.172   5.765  0.0079  0.3004 -0.2181
  489MOL0     C67406   1.616   2.086   5.851  0.6000 -1.3551 -0.5525
  489MOL0     C67407   1.605   2.124   6.004  0.5306  0.4637  0.6880
  489MOL0     C67408   1.561   2.259   6.008  0.9239 -1.5356 -0.7161
  489MOL0     C67409   1.534   2.381   6.007  0.7586  0.6169  0.1053
  489MOL0     C67410   2.015   2.017   5.715 -0.4549 -0.3274  0.1831
  489MOL0     C67411   2.081   1.904   5.653 -0.2133  0.1171  0.7413
  489MOL0     C67412   2.158   1.931   5.521 -0.4460  0.3754  0.5853
  489MOL0     H67413   2.328   1.462   5.572  2.1451  2.6981  0.1223
  489MOL0     H67414   2.452   1.321   5.419 -0.3014 -1.1873  0.0016
  489MOL0     H67415   2.280   1.200   5.083  0.6562 -0.0547 -0.2097
  489MOL0     H67416   2.348   1.158   5.248 -1.4498 -0.3001 -0.4157
  489MOL0     H67417   2.563   1.089   5.120  0.7107  1.0306  0.3617
  489MOL0     H67418   2.421   0.994   5.070  0.9980  0.0370 -0.2565
  489MOL0     H67419   2.393   1.126   4.873  1.1783 -1.6823  0.1661
  489MOL0     H67420   2.495   1.261   4.929 -3.0316 -0.1081  1.9766
  489MOL0     H67421   2.700   1.091   4.883 -0.0487 -0.5344  0.3514
  489MOL0     H67422   2.572   0.975   4.852 -3.3828  1.4200 -0.1387
  489MOL0     H67423   2.614   1.267   4.724  2.9929 -0.3806  0.2289
  489MOL0     H67424   2.502   1.160   4.662 -1.0350 -1.1692  0.8535
  489MOL0     H67425   2.787   1.041   4.681  0.2806  1.6255  1.1358
  489MOL0     H67426   2.651   1.012   4.564  3.7008 -1.8886 -1.8321
  489MOL0     H67427   2.795   1.290   4.575  2.0949  1.2063 -1.5683
  489MOL0     H67428   2.680   1.208   4.461 -0.7909 -0.6431 -0.1565
  489MOL0     H67429   2.959   1.132   4.549 -0.4279 -0.1647 -0.0835
  489MOL0     H67430   2.868   1.031   4.434  2.0762 -0.1912 -0.0243
  489MOL0     H67431   3.033   1.367   4.433 -1.7714 -0.3426  1.3498
  489MOL0     H67432   3.122   1.542   4.230  1.9717 -1.6282 -1.1487
  489MOL0     H67433   2.984   1.543   4.107  0.1142 -0.2367 -0.4311
  489MOL0     H67434   3.258   1.501   4.078  0.9401 -0.7865 -0.9765
  489MOL0     H67435   3.191   1.348   4.043 -0.6218 -0.6792 -0.4636
  489MOL0     H67436   3.036   1.446   3.875 -1.2663  0.3110  1.6876
  489MOL0     H67437   3.091   1.608   3.928  1.2746  0.0467 -1.4524
  489MOL0     H67438   3.313   1.564   3.829  0.2780 -0.0763 -2.3051
  489MOL0     H67439   3.258   1.404   3.775 -0.2628 -1.7355  2.7386
  489MOL0     H67440   3.423   1.526   3.640  0.1949  0.0675 -0.8026
  489MOL0     H67441   3.619   1.555   3.540 -1.3425  0.0703  1.7452
  489MOL0     H67442   3.662   1.730   3.492 -2.3891  2.9659 -1.1444
  489MOL0     H67443   3.612   1.601   3.373 -0.9911 -1.1169 -0.0305
  489MOL0     H67444   3.396   1.839   2.902 -0.6910  1.6322 -1.6054
  489MOL0     H67445   3.471   1.967   2.735  0.6425  0.8209  0.5475
  489MOL0     H67446   3.650   2.400   2.812  0.5752 -0.2177  0.7535
  489MOL0     H67447   3.762   2.262   2.793  0.3300  1.5545 -0.8663
  489MOL0     H67448   3.777   2.404   2.604 -0.2363  0.1215 -0.4735
  489MOL0     H67449   3.713   2.253   2.559 -0.6905  2.1244 -3.8456
  489MOL0     H67450   3.570   2.507   2.590  2.5842  0.7368 -1.5912
  489MOL0     H67451   3.469   2.352   2.586 -0.6619  0.5754 -0.1748
  489MOL0     H67452   3.584   2.296   2.360 -1.2894  1.0095 -0.4721
  489MOL0     H67453   3.698   2.416   2.391 -0.0306 -0.0383  1.1811
  489MOL0     H67454   3.516   2.587   2.305  0.3778  0.9364  0.4886
  489MOL0     H67455   3.505   2.441   2.194  1.0897  0.6175  0.2807
  489MOL0     H67456   3.330   2.512   2.431  0.7785  0.2834  0.1873
  489MOL0     H67457   3.335   2.350   2.367 -0.9277  0.1180  0.3738
  489MOL0     H67458   3.144   2.497   2.293 -0.0534  1.4180  0.1742
  489MOL0     H67459   3.255   2.464   2.149 -0.0031  0.4393 -0.0011
  489MOL0     H67460   3.175   2.694   2.144  1.8792  1.2967 -2.0317
  489MOL0     H67461   3.337   2.687   2.140 -1.4708  4.7125 -0.9437
  489MOL0     H67462   3.625   2.250   3.016 -0.4901  0.1706  0.9601
  489MOL0     H67463   3.552   2.091   3.222 -0.3472  1.2082  1.1460
  489MOL0     H67464   3.193   1.854   3.346 -6.8163 -2.8695  1.9990
  489MOL0     H67465   3.066   1.719   3.516  0.2611  3.8969  2.9892
  489MOL0     H67466   2.289   1.509   5.082  1.6389  0.1163  1.4303
  489MOL0     H67467   2.159   1.671   5.243 -3.0726 -1.9229  0.1837
  489MOL0     H67468   2.016   1.668   5.891  0.9990  0.6663 -0.2805
  489MOL0     H67469   1.916   1.862   5.992  1.5347  0.2562  0.4475
  489MOL0     H67470   1.808   2.283   5.918 -1.2147 -1.6111  0.5639
  489MOL0     H67471   1.909   2.251   5.765 -0.8869 -1.0931 -1.4155
  489MOL0     H67472   1.725   2.110   5.676 -5.0287 -1.0958 -0.4254
  489MOL0     H67473   1.663   2.254   5.709  0.1163  0.2547 -0.3774
  489MOL0     H67474   1.514   2.107   5.818  0.6785 -1.3367 -0.7845
  489MOL0     H67475   1.622   1.979   5.831 -3.1188 -1.5051 -1.5075
  489MOL0     H67476   1.702   2.130   6.053 -0.5605  2.3839  2.7507
  489MOL0     H67477   1.537   2.055   6.056 -1.6043 -1.2551 -3.8424
  489MOL0     H67478   1.494   2.480   6.017 -5.5624 -1.3425 -0.8266
  489MOL0     H67479   2.023   2.117   5.674  1.2074  0.1381  1.5114
  489MOL0     H67480   2.250   1.873   5.509 -0.0364  1.1727 -0.2165
  489MOL0     H67481   2.099   1.926   5.429 -1.0546  0.7682  0.9500
  489MOL0     H67482   2.199   2.032   5.531  2.4568 -0.8487  2.5656
  490MOL0     O67483   4.885  11.155   5.810 -0.0872  0.4550  0.1600
  490MOL0     C67484   5.004  11.120   5.821  0.5164  0.1291 -0.2350
  490MOL0     O67485   5.074  11.018   5.753 -0.0284 -0.0967  0.3120
  490MOL0     C67486   4.994  10.937   5.672 -0.6290  0.6054 -0.1889
  490MOL0     C67487   4.893  10.860   5.731  0.7332 -0.0609  0.0192
  490MOL0     C67488   4.810  10.786   5.650 -0.5563 -0.6572 -0.9281
  490MOL0     C67489   4.825  10.790   5.517 -0.0924  0.8674  0.9685
  490MOL0     O67490   4.734  10.713   5.449 -0.0923 -0.5804  0.5074
  490MOL0     C67491   4.741  10.715   5.308 -0.1347  0.4271 -0.6529
  490MOL0     C67492   4.677  10.578   5.267  0.0936 -0.2269 -1.2945
  490MOL0     C67493   4.639  10.576   5.131  0.1771  0.6079  0.8169
  490MOL0     C67494   4.534  10.471   5.093 -0.0026 -0.7118  0.1317
  490MOL0     C67495   4.526  10.455   4.937 -0.2391  0.3326 -0.5887
  490MOL0     C67496   4.424  10.560   4.879  0.2631 -0.5403  0.1183
  490MOL0     C67497   4.276  10.515   4.912  0.7367  0.2329 -0.3289
  490MOL0     C67498   4.217  10.413   4.818  0.2374 -0.0952  0.2846
  490MOL0     N67499   4.250  10.273   4.847  0.3219 -0.8962 -0.3181
  490MOL0     C67500   4.224  10.195   4.964 -0.6624  0.4135 -0.6681
  490MOL0     C67501   4.258  10.068   4.939  0.5986  0.3216 -0.1778
  490MOL0     C67502   4.251   9.960   5.041 -0.1067 -0.6358  0.4578
  490MOL0     C67503   4.139   9.870   5.002 -1.1513  0.2450 -0.1004
  490MOL0     C67504   4.130   9.756   5.103  0.8818 -0.0562 -0.1017
  490MOL0     C67505   4.100   9.800   5.245  0.7829  0.9078 -0.1425
  490MOL0     O67506   4.001   9.717   5.313 -0.6841 -0.4574 -0.1651
  490MOL0     C67507   4.020   9.585   5.325  0.7179  0.4785  0.7020
  490MOL0     C67508   3.911   9.508   5.321 -0.9494 -0.5222  0.1504
  490MOL0     C67509   3.915   9.375   5.353 -0.2588 -0.2964  0.8451
  490MOL0     C67510   3.778   9.307   5.356  0.2989 -0.3489  0.3035
  490MOL0     C67511   4.030   9.311   5.389 -0.2970  0.3278  0.3002
  490MOL0     C67512   4.040   9.175   5.455  0.7512  0.2920 -0.8371
  490MOL0     O67513   4.153   9.154   5.527 -0.3639 -1.2464 -0.3030
  490MOL0     C67514   4.183   9.039   5.602  0.0211  0.2191 -0.0559
  490MOL0     C67515   4.089   8.955   5.666 -0.3937 -0.2623 -0.0168
  490MOL0     C67516   4.121   8.829   5.720 -0.1967 -0.3469  0.7040
  490MOL0     C67517   4.253   8.781   5.710 -1.0182  0.8145  0.2622
  490MOL0     O67518   4.297   8.641   5.716  0.7053 -0.0078  0.3779
  490MOL0     C67519   4.201   8.549   5.752  1.1932  0.1279  0.5422
  490MOL0     C67520   4.184   8.540   5.903  0.8707  1.0993  0.0649
  490MOL0     C67521   4.106   8.415   5.957 -0.3156  0.9386  0.3288
  490MOL0     C67522   3.954   8.427   5.932 -0.8362  0.3429 -0.1580
  490MOL0     C67523   3.874   8.525   6.016 -0.9607  1.7674  0.3554
  490MOL0     C67524   3.728   8.487   5.997 -0.8293  0.9607  0.3189
  490MOL0     C67525   3.661   8.577   6.098  0.2456 -0.9766  0.4157
  490MOL0     C67526   3.511   8.594   6.070  0.0964  0.2078 -0.7726
  490MOL0    Cl67527   3.429   8.519   6.211  0.2889  0.5053  0.1718
  490MOL0     C67528   4.352   8.871   5.667 -0.4773 -0.1828 -0.5937
  490MOL0     C67529   4.317   8.995   5.616 -0.7570  0.0090 -0.6709
  490MOL0     O67530   3.960   9.088   5.433 -0.2263  0.9650 -0.1005
  490MOL0     C67531   4.150   9.389   5.390 -0.1247 -0.6699 -0.4751
  490MOL0     C67532   4.143   9.530   5.357 -0.6889  0.4969  0.8863
  490MOL0     N67533   4.321  10.072   4.811 -0.6261 -0.2115 -0.7114
  490MOL0     N67534   4.308  10.193   4.760 -0.8218  0.9511 -0.4664
  490MOL0     C67535   4.921  10.866   5.447 -0.5608  0.3473  0.4971
  490MOL0     C67536   5.008  10.937   5.529  0.6827  0.4604  0.5332
  490MOL0     C67537   5.088  11.202   5.907 -0.0727  0.1653 -0.2262
  490MOL0     C67538   5.229  11.192   5.893  0.4261  0.1557 -0.6972
  490MOL0     C67539   5.313  11.265   5.975  0.1954 -0.5296  0.1104
  490MOL0     C67540   5.263  11.347   6.077  0.0401  0.3256  0.0952
  490MOL0     O67541   5.343  11.402   6.179 -0.2673 -0.4651 -0.3931
  490MOL0     C67542   5.487  11.415   6.148  0.1054  0.2755  1.0795
  490MOL0     C67543   5.572  11.299   6.196 -0.1196  0.4027 -0.4950
  490MOL0     C67544   5.577  11.296   6.351  0.3538 -0.2958  0.6993
  490MOL0     C67545   5.445  11.228   6.407 -0.4567 -1.1540 -0.1689
  490MOL0     C67546   5.465  11.125   6.505  0.3160 -0.0839  0.0055
  490MOL0     C67547   5.493  11.047   6.589  0.1771 -0.0493 -1.1345
  490MOL0     C67548   5.126  11.357   6.091  0.2573  0.4585 -0.0924
  490MOL0     C67549   5.032  11.297   6.002 -0.3821 -0.4030 -0.0192
  490MOL0     C67550   4.888  11.340   6.022  0.1362  1.1939  0.1767
  490MOL0     H67551   4.872  10.867   5.837  2.4889 -3.1710  0.7002
  490MOL0     H67552   4.738  10.721   5.699  1.6653 -0.7159  2.5649
  490MOL0     H67553   4.834  10.726   5.251  0.9572 -2.4755  0.3702
  490MOL0     H67554   4.676  10.795   5.272 -0.9439  0.4596  0.8190
  490MOL0     H67555   4.757  10.503   5.277  1.7612  1.4028 -1.8431
  490MOL0     H67556   4.592  10.562   5.334  1.2383 -0.8568  0.0774
  490MOL0     H67557   4.616  10.677   5.096 -0.8665  0.6732  1.6270
  490MOL0     H67558   4.726  10.542   5.074  0.9637  0.1241  2.2633
  490MOL0     H67559   4.561  10.376   5.140 -0.8951 -0.7463  0.5993
  490MOL0     H67560   4.440  10.508   5.134 -1.2892 -2.3462 -1.2094
  490MOL0     H67561   4.483  10.359   4.906  1.3527  0.1216 -2.3090
  490MOL0     H67562   4.628  10.463   4.900  0.7044 -0.9731  1.5208
  490MOL0     H67563   4.446  10.657   4.923  0.0334  0.2348 -1.4066
  490MOL0     H67564   4.433  10.566   4.770  4.2165 -1.5693  0.2225
  490MOL0     H67565   4.210  10.602   4.907 -1.2998 -1.2882 -1.9130
  490MOL0     H67566   4.273  10.468   5.011  2.4308 -0.6368 -0.6607
  490MOL0     H67567   4.109  10.423   4.832  0.0611 -0.7131 -0.5463
  490MOL0     H67568   4.248  10.440   4.717  2.3917 -1.4046  0.5354
  490MOL0     H67569   4.178  10.226   5.057 -0.9212 -1.8723  0.0161
  490MOL0     H67570   4.235  10.006   5.139 -0.6193 -0.9087  0.5056
  490MOL0     H67571   4.345   9.904   5.037 -1.2815 -2.6486 -1.7167
  490MOL0     H67572   4.040   9.916   4.994 -1.4802 -0.5483 -0.8906
  490MOL0     H67573   4.158   9.832   4.901 -2.9922  2.9692 -1.6005
  490MOL0     H67574   4.046   9.696   5.067  0.4305  1.4572 -1.6765
  490MOL0     H67575   4.215   9.687   5.113  0.8311 -0.4351 -2.0304
  490MOL0     H67576   4.188   9.801   5.310  0.2522 -0.1835  0.6313
  490MOL0     H67577   4.072   9.905   5.234  1.2964  0.9018 -1.7481
  490MOL0     H67578   3.819   9.565   5.313 -0.9648 -0.2836  1.6959
  490MOL0     H67579   3.712   9.384   5.314  3.2865  0.7816 -2.7985
  490MOL0     H67580   3.755   9.288   5.461 -0.8661  0.3595  0.1899
  490MOL0     H67581   3.773   9.212   5.303  1.7871 -0.4666  0.3228
  490MOL0     H67582   3.987   8.983   5.688  0.1642  1.3523  0.6618
  490MOL0     H67583   4.037   8.775   5.762  0.3248 -2.9287 -1.3031
  490MOL0     H67584   4.101   8.580   5.719  1.1290 -1.7742 -1.2587
  490MOL0     H67585   4.216   8.449   5.711 -1.4075 -0.7854  1.5831
  490MOL0     H67586   4.277   8.526   5.958  0.5574  2.6782  1.0986
  490MOL0     H67587   4.149   8.636   5.942  1.3615  2.4325 -2.5488
  490MOL0     H67588   4.136   8.394   6.060  0.9733 -1.2008 -0.3981
  490MOL0     H67589   4.144   8.334   5.894  1.6333 -1.5835  4.3225
  490MOL0     H67590   3.911   8.326   5.940 -1.3511  0.5450 -0.3488
  490MOL0     H67591   3.944   8.439   5.824 -1.7483 -0.0260 -0.1293
  490MOL0     H67592   3.904   8.514   6.121 -0.1516 -0.9056 -0.0811
  490MOL0     H67593   3.894   8.628   5.986 -2.5784  1.3145 -2.6390
  490MOL0     H67594   3.721   8.378   5.997  2.2899  0.6713 -0.1525
  490MOL0     H67595   3.695   8.510   5.895  0.7800 -0.5826 -0.5889
  490MOL0     H67596   3.703   8.678   6.100 -0.3607 -0.6985 -0.4974
  490MOL0     H67597   3.681   8.533   6.196  2.1219 -2.7012 -0.6467
  490MOL0     H67598   3.476   8.547   5.978 -1.7024  2.3743 -1.2578
  490MOL0     H67599   3.497   8.702   6.063 -0.2318  0.5339  2.8515
  490MOL0     H67600   4.457   8.847   5.659  0.3491  3.0605 -0.5733
  490MOL0     H67601   4.387   9.051   5.555  0.9375 -0.4302  0.7935
  490MOL0     H67602   4.247   9.357   5.427  0.5398  2.6751  1.0441
  490MOL0     H67603   4.234   9.590   5.347  0.2535 -1.0848 -0.5039
  490MOL0     H67604   4.936  10.877   5.340 -1.4276 -4.0347 -0.2659
  490MOL0     H67605   5.090  11.002   5.500 -0.4949  1.2943 -1.0967
  490MOL0     H67606   5.278  11.123   5.824  1.7980 -1.2807  1.5692
  490MOL0     H67607   5.420  11.252   5.968  0.0454 -1.4572 -0.7174
  490MOL0     H67608   5.501  11.430   6.040 -0.9598 -2.1567  0.5422
  490MOL0     H67609   5.519  11.511   6.190 -0.0298  1.4412 -1.3334
  490MOL0     H67610   5.677  11.315   6.173  0.6863 -0.9705  1.8972
  490MOL0     H67611   5.537  11.207   6.148  0.6424  0.2996 -0.8577
  490MOL0     H67612   5.671  11.265   6.396 -0.0333 -0.5031  1.3808
  490MOL0     H67613   5.577  11.398   6.390 -1.2341 -0.3652  0.9384
  490MOL0     H67614   5.384  11.179   6.331  1.7385 -2.4192 -1.1930
  490MOL0     H67615   5.386  11.308   6.454  2.4944  1.4275 -0.5195
  490MOL0     H67616   5.502  10.980   6.672  1.0868 -0.0940 -1.2542
  490MOL0     H67617   5.109  11.430   6.169  2.2346  2.0322 -1.0379
  490MOL0     H67618   4.869  11.409   6.105 -1.3710 -1.6086  2.3335
  490MOL0     H67619   4.845  11.381   5.930 -1.8258 -0.3482  0.3446
  490MOL0     H67620   4.823  11.255   6.042 -1.3284  2.4566  0.9889
  491MOL0     O67621   5.389   1.741   6.815  0.0889  0.0269  0.7372
  491MOL0     C67622   5.367   1.654   6.729 -0.7544 -0.4605 -0.0997
  491MOL0     O67623   5.441   1.639   6.611  0.6641  0.5448  0.3164
  491MOL0     C67624   5.550   1.720   6.595 -0.7354  0.9801  0.5261
  491MOL0     C67625   5.564   1.849   6.623 -1.2289 -1.0175 -0.0301
  491MOL0     C67626   5.683   1.920   6.606  0.3609  0.7271 -0.4298
  491MOL0     C67627   5.803   1.855   6.567  0.5162 -0.2409  0.2239
  491MOL0     O67628   5.924   1.917   6.562  0.2760  0.4890  1.4061
  491MOL0     C67629   5.943   2.028   6.650  0.4681 -0.0858 -0.3015
  491MOL0     C67630   6.085   2.013   6.708 -0.5499 -0.2046 -0.2416
  491MOL0     C67631   6.208   2.060   6.616 -1.2683 -0.2852  0.7714
  491MOL0     C67632   6.343   2.026   6.691 -0.3962  0.7952  0.3703
  491MOL0     C67633   6.470   2.047   6.601  0.0225  0.6773  0.3944
  491MOL0     C67634   6.480   1.978   6.459 -0.7408 -0.1857 -0.4662
  491MOL0     C67635   6.583   2.045   6.378 -0.0187  0.4467  0.7424
  491MOL0     C67636   6.723   2.001   6.435  0.1244  0.3317  0.3530
  491MOL0     N67637   6.808   2.118   6.428 -0.4695 -0.0069  0.7843
  491MOL0     C67638   6.824   2.212   6.529  0.7033  0.3033  0.0926
  491MOL0     C67639   6.926   2.288   6.496 -0.4021 -0.7120  0.2417
  491MOL0     C67640   6.974   2.421   6.546 -0.0826  0.0061 -0.1518
  491MOL0     C67641   6.964   2.530   6.430  0.2680  0.6824  0.1312
  491MOL0     C67642   6.836   2.615   6.421 -0.3918 -0.5442  0.2316
  491MOL0     C67643   6.707   2.539   6.381  0.3208  0.2762 -0.7889
  491MOL0     O67644   6.602   2.639   6.382  0.4694 -0.7551  0.1662
  491MOL0     C67645   6.470   2.598   6.386  1.1569  0.2949 -0.0702
  491MOL0     C67646   6.370   2.690   6.403  1.3860  0.6654  0.3561
  491MOL0     C67647   6.227   2.660   6.392  0.4949  0.5937 -0.0919
  491MOL0     C67648   6.130   2.768   6.431  0.3256  0.1144  0.2976
  491MOL0     C67649   6.184   2.529   6.358  0.9226  0.4063 -0.2067
  491MOL0     C67650   6.050   2.488   6.322  0.2335 -1.2218  0.1141
  491MOL0     O67651   6.023   2.357   6.311  0.2511 -0.3581  0.2067
  491MOL0     C67652   5.894   2.310   6.352 -1.0011  0.4772 -0.6817
  491MOL0     C67653   5.839   2.359   6.467 -0.6131 -0.8298  0.6748
  491MOL0     C67654   5.713   2.317   6.510  0.3682 -0.1838 -0.7876
  491MOL0     C67655   5.642   2.218   6.433  0.1664  0.7520 -0.2842
  491MOL0     O67656   5.507   2.202   6.464 -0.1993  0.1232  0.2121
  491MOL0     C67657   5.438   2.119   6.371  0.7741 -0.1747  0.8614
  491MOL0     C67658   5.291   2.114   6.421  0.3728  0.4821 -1.2833
  491MOL0     C67659   5.203   1.999   6.361 -0.0285 -0.2488  0.7043
  491MOL0     C67660   5.267   1.859   6.371  0.6098  0.4465  0.6089
  491MOL0     C67661   5.205   1.750   6.284 -0.4438 -0.7794 -0.1262
  491MOL0     C67662   5.302   1.627   6.250  0.1045  0.7044  0.7307
  491MOL0     C67663   5.239   1.498   6.197 -0.4439  0.0204 -0.2869
  491MOL0     C67664   5.147   1.520   6.069  0.0307  0.4686 -0.1918
  491MOL0    Cl67665   5.254   1.585   5.936  0.5462  0.2188 -0.4311
  491MOL0     C67666   5.698   2.166   6.314  0.3123  0.3356 -0.4335
  491MOL0     C67667   5.828   2.202   6.290 -0.0492 -0.6895  0.6905
  491MOL0     O67668   5.967   2.575   6.304 -0.3391  0.0096  0.4500
  491MOL0     C67669   6.285   2.435   6.342 -0.3045 -0.0053  0.2448
  491MOL0     C67670   6.413   2.465   6.359 -0.8607  0.0051  0.7180
  491MOL0     N67671   6.983   2.238   6.379 -0.1334  0.2082 -0.0807
  491MOL0     N67672   6.917   2.135   6.336  0.6557  0.8526 -0.2472
  491MOL0     C67673   5.791   1.714   6.556  0.3529 -0.1382 -0.2234
  491MOL0     C67674   5.668   1.650   6.566 -0.1690  0.0851  0.0410
  491MOL0     C67675   5.255   1.554   6.747 -0.1884 -0.4775 -0.4309
  491MOL0     C67676   5.121   1.603   6.785  0.7796 -0.5654  0.1885
  491MOL0     C67677   5.016   1.520   6.796  0.5167  0.7470  0.1698
  491MOL0     C67678   5.023   1.384   6.773 -0.1384  0.5745  0.3750
  491MOL0     O67679   4.909   1.310   6.784  0.2073  0.3861 -0.1788
  491MOL0     C67680   4.921   1.193   6.865 -0.1351  0.0025  0.1081
  491MOL0     C67681   4.982   1.218   7.015 -0.3519 -0.4755 -0.2361
  491MOL0     C67682   4.980   1.084   7.081  0.1917  0.1766  0.5475
  491MOL0     C67683   5.015   1.097   7.228  0.2001  0.0999  0.4888
  491MOL0     C67684   4.974   0.973   7.294  0.6308 -0.1259 -0.0532
  491MOL0     C67685   4.936   0.883   7.369 -0.4911  0.0374  0.4008
  491MOL0     C67686   5.149   1.335   6.746 -0.5391  0.5492  0.5141
  491MOL0     C67687   5.270   1.416   6.739 -0.0312  0.5999  0.4152
  491MOL0     C67688   5.392   1.342   6.696 -0.5433 -0.2134  0.1626
  491MOL0     H67689   5.475   1.899   6.660 -2.6776 -2.7319 -1.0174
  491MOL0     H67690   5.685   2.026   6.631 -3.1415  0.2265  2.8688
  491MOL0     H67691   5.872   2.029   6.732 -1.4333  2.0901 -1.8308
  491MOL0     H67692   5.949   2.128   6.606  3.6846  1.9178  4.0207
  491MOL0     H67693   6.096   2.085   6.789  2.3844 -0.9402  0.1297
  491MOL0     H67694   6.094   1.905   6.723 -1.2850 -0.0382  1.6799
  491MOL0     H67695   6.198   2.010   6.519 -2.2360  2.4122 -0.6239
  491MOL0     H67696   6.201   2.169   6.620  0.5985 -0.1554  2.5540
  491MOL0     H67697   6.353   2.078   6.787  0.6793  1.4471 -0.0847
  491MOL0     H67698   6.339   1.922   6.726  0.9612  1.1253  1.6034
  491MOL0     H67699   6.557   2.028   6.663 -0.1748 -0.2284  0.4011
  491MOL0     H67700   6.472   2.155   6.583 -0.6368  0.3125 -2.4579
  491MOL0     H67701   6.517   1.876   6.470  0.9802  0.1054 -2.7856
  491MOL0     H67702   6.379   1.988   6.418 -1.2077  1.9183  0.9745
  491MOL0     H67703   6.558   2.151   6.369  1.6428  0.9113  1.0587
  491MOL0     H67704   6.589   2.018   6.272  2.7013  2.9391  0.0917
  491MOL0     H67705   6.734   1.957   6.535  3.1475  0.2715  0.0753
  491MOL0     H67706   6.765   1.934   6.359  0.3031  2.5488 -1.6206
  491MOL0     H67707   6.749   2.223   6.607  2.3168 -4.1330  2.6619
  491MOL0     H67708   7.077   2.412   6.583 -0.0030  1.7174  0.1436
  491MOL0     H67709   6.911   2.433   6.635 -3.3934 -1.6130 -2.0940
  491MOL0     H67710   7.050   2.595   6.449  2.0631 -2.1026  2.3642
  491MOL0     H67711   6.972   2.483   6.332  1.7644  1.1339  0.0140
  491MOL0     H67712   6.826   2.670   6.515  0.6361  2.3267 -1.2144
  491MOL0     H67713   6.863   2.691   6.347  1.2465 -0.3619  0.9654
  491MOL0     H67714   6.728   2.502   6.280  1.5461  1.0530 -0.8319
  491MOL0     H67715   6.693   2.449   6.442 -0.9248  1.7051  1.1309
  491MOL0     H67716   6.407   2.784   6.444  2.3377  0.1053  0.8229
  491MOL0     H67717   6.184   2.853   6.473  0.6427 -1.3078  2.9971
  491MOL0     H67718   6.052   2.730   6.497 -0.3052  2.1740  0.8251
  491MOL0     H67719   6.075   2.810   6.346 -3.3745 -1.3582  1.7381
  491MOL0     H67720   5.892   2.436   6.523 -2.1004 -0.1659  1.2157
  491MOL0     H67721   5.663   2.370   6.590  0.8412  0.7672 -1.1019
  491MOL0     H67722   5.427   2.165   6.272  0.7197  1.6092  1.6473
  491MOL0     H67723   5.493   2.025   6.362  0.1632 -0.5722  1.2511
  491MOL0     H67724   5.310   2.088   6.525  2.2451  2.0167 -1.1694
  491MOL0     H67725   5.233   2.207   6.418 -0.4894  0.2525  2.7347
  491MOL0     H67726   5.161   2.025   6.263 -0.5303  1.2383  1.2936
  491MOL0     H67727   5.108   2.003   6.415 -0.7484  0.0738 -0.5272
  491MOL0     H67728   5.268   1.815   6.471  3.7273 -1.0239  0.0562
  491MOL0     H67729   5.371   1.869   6.338 -0.1341  3.6956 -1.1919
  491MOL0     H67730   5.114   1.710   6.330  0.0494 -0.5425  1.0826
  491MOL0     H67731   5.184   1.801   6.189  1.5367 -2.6390 -1.6503
  491MOL0     H67732   5.359   1.607   6.342  0.6177  0.8438  0.4472
  491MOL0     H67733   5.385   1.656   6.185 -1.2435  0.3209 -1.2131
  491MOL0     H67734   5.180   1.463   6.281  0.4011  2.8918  1.6324
  491MOL0     H67735   5.314   1.425   6.165  0.1440  0.3217  0.3919
  491MOL0     H67736   5.068   1.592   6.091 -3.3863 -2.8697 -0.4666
  491MOL0     H67737   5.112   1.419   6.043 -1.4860  0.9270 -0.0259
  491MOL0     H67738   5.642   2.100   6.248 -0.2365 -2.4800  2.5896
  491MOL0     H67739   5.882   2.141   6.218 -0.6738 -0.4472  0.0045
  491MOL0     H67740   6.265   2.336   6.303  1.6714  0.5199 -2.3840
  491MOL0     H67741   6.497   2.397   6.347 -0.5660  0.7102 -1.9382
  491MOL0     H67742   5.870   1.643   6.531  1.0122  1.0957 -1.8276
  491MOL0     H67743   5.665   1.543   6.548  0.2324  0.1965 -0.7186
  491MOL0     H67744   5.099   1.706   6.812 -0.0687 -1.1518  1.9448
  491MOL0     H67745   4.929   1.574   6.833  1.6200  1.9455  1.1455
  491MOL0     H67746   4.817   1.162   6.877 -0.5277 -0.0029 -2.6945
  491MOL0     H67747   4.973   1.107   6.823  1.2391 -2.2567  5.5981
  491MOL0     H67748   4.929   1.291   7.077 -0.7391 -2.4598  1.9162
  491MOL0     H67749   5.084   1.250   6.994 -0.6086  1.0990  0.7518
  491MOL0     H67750   4.878   1.048   7.066  0.5330 -0.5844 -0.0208
  491MOL0     H67751   5.043   1.010   7.031 -0.7160 -0.0815 -0.2536
  491MOL0     H67752   4.955   1.177   7.274 -2.8202 -1.8294  0.1891
  491MOL0     H67753   5.121   1.112   7.247  0.1869 -0.5372  1.0904
  491MOL0     H67754   4.885   0.810   7.428 -2.4679  0.2467 -0.9371
  491MOL0     H67755   5.162   1.228   6.736 -0.4292  0.4966  1.2112
  491MOL0     H67756   5.388   1.300   6.595 -0.1648  1.7201 -0.7052
  491MOL0     H67757   5.472   1.416   6.710  0.9404 -1.8201  0.4726
  491MOL0     H67758   5.420   1.260   6.762 -0.3942 -0.7488 -0.5573
  492MOL0     O67759   3.278   9.014   3.136 -0.3972  0.2907 -0.8248
  492MOL0     C67760   3.272   9.131   3.114  0.2096 -0.8588 -0.1956
  492MOL0     O67761   3.193   9.227   3.176  0.8388  0.2415  0.3060
  492MOL0     C67762   3.088   9.199   3.267  0.4364 -0.7553 -0.6476
  492MOL0     C67763   3.048   9.311   3.351 -0.5994  0.4526 -0.0556
  492MOL0     C67764   2.936   9.293   3.434 -0.6950 -0.0252 -0.7775
  492MOL0     C67765   2.885   9.168   3.456 -0.5641 -0.5786  0.2727
  492MOL0     O67766   2.785   9.138   3.546 -1.1336 -0.1953 -0.3491
  492MOL0     C67767   2.651   9.150   3.486 -0.5151  0.8517  0.4323
  492MOL0     C67768   2.550   9.194   3.593  0.2051  1.2102  0.6412
  492MOL0     C67769   2.415   9.212   3.542  0.3765  1.1834  0.3634
  492MOL0     C67770   2.315   9.249   3.653 -0.1262 -0.0182 -0.2975
  492MOL0     C67771   2.183   9.297   3.600 -0.2837 -0.2819 -0.7719
  492MOL0     C67772   2.090   9.328   3.717  0.0242 -1.1329  0.6236
  492MOL0     C67773   2.117   9.462   3.798  0.0721  0.0939  0.3730
  492MOL0     C67774   1.983   9.529   3.826 -0.6500 -0.0967  0.2805
  492MOL0     N67775   1.993   9.644   3.920  0.0955 -0.3526  0.0539
  492MOL0     C67776   2.055   9.767   3.900 -1.4003  0.6189 -0.6988
  492MOL0     C67777   2.003   9.844   4.002  0.4644 -0.0001  1.1471
  492MOL0     C67778   2.056   9.979   4.053 -0.7019  0.0974  0.5347
  492MOL0     C67779   2.121   9.957   4.186  0.1889  0.2838 -1.0430
  492MOL0     C67780   2.173  10.096   4.233 -0.4907 -0.7812  0.1445
  492MOL0     C67781   2.257  10.090   4.361 -0.4438  0.4698  0.5918
  492MOL0     O67782   2.310  10.220   4.393 -0.5928  0.2443  0.6190
  492MOL0     C67783   2.363  10.231   4.520  0.4389  0.9478 -0.0201
  492MOL0     C67784   2.412  10.353   4.558  0.0155 -0.4980  0.0351
  492MOL0     C67785   2.470  10.384   4.684  0.1207 -0.0224  0.2572
  492MOL0     C67786   2.488  10.531   4.721  0.7366  0.3044 -0.5384
  492MOL0     C67787   2.486  10.276   4.774 -0.0522 -0.2207 -0.1773
  492MOL0     C67788   2.551  10.297   4.913  0.4858  0.3602  0.0568
  492MOL0     O67789   2.572  10.181   4.979 -0.2931 -0.1723  0.1760
  492MOL0     C67790   2.637  10.181   5.096 -0.1857  0.4562  0.8386
  492MOL0     C67791   2.714  10.062   5.121 -1.1674  0.3976  0.8244
  492MOL0     C67792   2.743  10.030   5.256  0.2064 -0.1340 -0.4072
  492MOL0     C67793   2.715  10.119   5.354  0.4502 -0.9449 -1.2600
  492MOL0     O67794   2.758  10.086   5.480 -0.0937  0.1020 -0.0734
  492MOL0     C67795   2.672  10.111   5.596  0.3423 -0.5733 -0.6625
  492MOL0     C67796   2.720  10.054   5.730  0.2533 -0.2038  0.7123
  492MOL0     C67797   2.759   9.908   5.716  0.5972  0.4948 -0.2569
  492MOL0     C67798   2.631   9.824   5.679  0.1605  0.6761 -0.1141
  492MOL0     C67799   2.644   9.673   5.655 -0.0664 -0.1861 -0.4222
  492MOL0     C67800   2.685   9.591   5.782  0.7789  0.2879  0.4637
  492MOL0     C67801   2.652   9.436   5.757 -1.4102  0.6683 -0.9159
  492MOL0     C67802   2.668   9.370   5.890 -0.3136  0.4950 -0.9460
  492MOL0    Cl67803   2.612   9.199   5.886  0.0304 -0.2372 -0.1966
  492MOL0     C67804   2.650  10.244   5.325 -0.3152  0.0241 -0.1100
  492MOL0     C67805   2.614  10.264   5.196  1.1076 -0.4607  0.6774
  492MOL0     O67806   2.597  10.407   4.936  0.2894 -0.0958 -0.4081
  492MOL0     C67807   2.446  10.146   4.735 -0.7146 -0.3818  0.2205
  492MOL0     C67808   2.387  10.119   4.603 -0.1718 -0.7547  0.9378
  492MOL0     N67809   1.906   9.778   4.069  0.2154  0.6213 -0.0139
  492MOL0     N67810   1.907   9.662   4.006  0.0789  0.6803 -1.5349
  492MOL0     C67811   2.937   9.063   3.384 -0.2638 -0.3234  0.0295
  492MOL0     C67812   3.038   9.072   3.294  0.8279  0.2819 -0.0054
  492MOL0     C67813   3.353   9.193   2.996  0.0784  0.4634  0.2187
  492MOL0     C67814   3.487   9.142   2.993 -0.2819  0.1804  0.1693
  492MOL0     C67815   3.578   9.195   2.899 -0.0502  0.0355 -0.4106
  492MOL0     C67816   3.537   9.299   2.808 -0.9547 -0.6674  0.3600
  492MOL0     O67817   3.612   9.343   2.707  0.0791  0.1081 -0.3997
  492MOL0     C67818   3.755   9.329   2.711 -0.7499 -0.8225  0.1094
  492MOL0     C67819   3.823   9.456   2.647  0.0492  0.4755 -0.2764
  492MOL0     C67820   3.789   9.492   2.513 -0.2070  0.3083  0.3647
  492MOL0     C67821   3.846   9.622   2.462 -0.5178  0.3693  0.6635
  492MOL0     C67822   3.751   9.730   2.478 -0.8484 -0.1455  0.0687
  492MOL0     C67823   3.684   9.827   2.488  0.6593 -0.4643  0.3199
  492MOL0     C67824   3.414   9.351   2.817  0.2762  0.4517  1.3954
  492MOL0     C67825   3.314   9.296   2.904  0.7007  0.4657  0.3258
  492MOL0     C67826   3.167   9.341   2.884 -0.3814 -0.4255 -0.0922
  492MOL0     H67827   3.094   9.409   3.350  1.9729 -0.6097  1.7002
  492MOL0     H67828   2.909   9.383   3.488  0.0719  0.1151 -0.6073
  492MOL0     H67829   2.634   9.049   3.449  2.4427 -0.4969  2.2649
  492MOL0     H67830   2.655   9.221   3.403  0.6341 -0.1679 -0.4182
  492MOL0     H67831   2.545   9.113   3.665 -0.6008 -1.3467 -2.0788
  492MOL0     H67832   2.591   9.280   3.647  2.2099  1.4317 -1.0617
  492MOL0     H67833   2.416   9.289   3.464 -2.5015  0.2959 -0.6461
  492MOL0     H67834   2.379   9.122   3.491  0.7736  1.3189 -0.1712
  492MOL0     H67835   2.295   9.168   3.724 -2.0259  0.9982  0.4008
  492MOL0     H67836   2.356   9.316   3.730  0.5582 -1.6788  0.8274
  492MOL0     H67837   2.126   9.215   3.556 -1.4683  0.5196 -0.7915
  492MOL0     H67838   2.187   9.377   3.526  1.0481  2.1686  1.7647
  492MOL0     H67839   1.988   9.327   3.678 -1.1453  3.6571  2.7761
  492MOL0     H67840   2.111   9.259   3.800  0.0814 -1.5888  0.2343
  492MOL0     H67841   2.181   9.532   3.744 -2.7680  1.8189 -0.9612
  492MOL0     H67842   2.166   9.445   3.894  1.2495 -1.2974 -0.4269
  492MOL0     H67843   1.951   9.576   3.732  0.5057  0.7402  0.2892
  492MOL0     H67844   1.910   9.455   3.861 -0.8154 -0.3315 -0.5434
  492MOL0     H67845   2.143   9.788   3.840  0.9922 -1.7299  1.6799
  492MOL0     H67846   1.977  10.053   4.047 -1.0325 -0.3204 -0.5923
  492MOL0     H67847   2.145  10.004   3.994  0.3401 -0.1442  1.9608
  492MOL0     H67848   2.050   9.934   4.266  1.4017  4.4266  1.5915
  492MOL0     H67849   2.207   9.890   4.190  0.1169  0.2391  0.9401
  492MOL0     H67850   2.244  10.134   4.160  4.1381 -4.3674  2.2811
  492MOL0     H67851   2.091  10.165   4.257 -1.3166 -0.6710 -2.6926
  492MOL0     H67852   2.195  10.058   4.445  1.3100  1.8542  2.5254
  492MOL0     H67853   2.342  10.022   4.347 -2.0494 -1.7350  1.0307
  492MOL0     H67854   2.394  10.427   4.481  0.1372 -4.2449 -4.0106
  492MOL0     H67855   2.595  10.550   4.705  1.6538 -2.2674  1.8374
  492MOL0     H67856   2.457  10.556   4.823  0.7316  1.2859 -0.7645
  492MOL0     H67857   2.431  10.594   4.652 -0.9704  0.5174  0.9890
  492MOL0     H67858   2.749  10.001   5.038 -2.1716  4.6359 -3.0761
  492MOL0     H67859   2.798   9.944   5.292 -0.0136 -1.5007 -3.0657
  492MOL0     H67860   2.653  10.216   5.619  2.3451 -0.4013  0.4349
  492MOL0     H67861   2.575  10.065   5.574 -0.3563  0.6245 -0.1671
  492MOL0     H67862   2.811  10.105   5.762 -1.1394  1.8356  1.6441
  492MOL0     H67863   2.638  10.071   5.800  1.3736  1.7846  1.6232
  492MOL0     H67864   2.790   9.851   5.804  1.6241  1.7303  0.2182
  492MOL0     H67865   2.838   9.889   5.642  0.9120  0.8615 -0.0194
  492MOL0     H67866   2.575   9.863   5.594 -1.3406 -0.9898  0.0381
  492MOL0     H67867   2.559   9.841   5.760  0.5362 -0.3750  0.4546
  492MOL0     H67868   2.541   9.648   5.628 -0.8832 -0.1557  2.3902
  492MOL0     H67869   2.717   9.645   5.578 -0.3642 -2.7443  0.1241
  492MOL0     H67870   2.627   9.622   5.869  0.1787 -0.5020  0.3597
  492MOL0     H67871   2.788   9.626   5.795  0.1652  4.0619 -3.0048
  492MOL0     H67872   2.721   9.388   5.687 -0.1003  0.1356  0.6675
  492MOL0     H67873   2.545   9.428   5.735 -1.7093  1.2999  0.2457
  492MOL0     H67874   2.613   9.426   5.966 -0.5846  1.5071 -1.8608
  492MOL0     H67875   2.775   9.379   5.912 -0.9860  0.8089  2.8974
  492MOL0     H67876   2.640  10.327   5.393  0.6074  0.1496 -0.1270
  492MOL0     H67877   2.571  10.360   5.169  2.1202 -0.1406  0.1644
  492MOL0     H67878   2.471  10.056   4.791  0.4366 -1.7271 -2.2810
  492MOL0     H67879   2.357  10.022   4.567 -0.8156  0.0176 -0.7020
  492MOL0     H67880   2.897   8.963   3.398 -2.0056  0.3908  0.3985
  492MOL0     H67881   3.051   8.989   3.225 -2.7637  1.2053 -2.0246
  492MOL0     H67882   3.534   9.074   3.064  1.9676  1.3106 -0.1403
  492MOL0     H67883   3.677   9.153   2.892 -0.1419 -0.4120  0.8520
  492MOL0     H67884   3.792   9.327   2.814 -2.0273  0.8036  0.6440
  492MOL0     H67885   3.789   9.241   2.656  3.6516  0.5875  0.1921
  492MOL0     H67886   3.931   9.439   2.648  0.1941  0.4852 -3.8137
  492MOL0     H67887   3.783   9.536   2.710  0.2689 -2.1491  3.5216
  492MOL0     H67888   3.845   9.415   2.459 -1.9587 -0.8739  0.1341
  492MOL0     H67889   3.683   9.479   2.490  0.1555 -1.0291 -0.6776
  492MOL0     H67890   3.858   9.595   2.357 -3.6673 -2.3525  0.8203
  492MOL0     H67891   3.937   9.646   2.518 -0.4304 -2.0696  1.6819
  492MOL0     H67892   3.632   9.921   2.488  1.5823  0.0804 -1.3938
  492MOL0     H67893   3.392   9.426   2.742  1.1855  1.4491  2.1081
  492MOL0     H67894   3.137   9.412   2.962 -0.3080 -1.8650  1.3146
  492MOL0     H67895   3.142   9.344   2.778  4.7087  0.6842 -1.5388
  492MOL0     H67896   3.111   9.253   2.919 -0.1625 -2.6105 -4.5958
  493MOL0     O67897   5.307   5.043   5.583  0.4578 -0.4184  0.2810
  493MOL0     C67898   5.208   4.990   5.533  0.2255 -2.1842  0.6646
  493MOL0     O67899   5.132   4.892   5.589 -0.0124 -0.2358  0.7642
  493MOL0     C67900   5.174   4.836   5.705 -0.2113 -0.8048  0.0241
  493MOL0     C67901   5.080   4.792   5.798 -0.6649  0.7728 -0.8179
  493MOL0     C67902   5.119   4.724   5.919 -0.1521 -0.3265  0.7344
  493MOL0     C67903   5.245   4.701   5.950 -0.2631 -0.7464  0.1153
  493MOL0     O67904   5.298   4.642   6.057  0.5025  0.0420  0.3490
  493MOL0     C67905   5.238   4.664   6.185  0.0363 -0.0692  0.3379
  493MOL0     C67906   5.353   4.716   6.279  0.5297 -0.1346  0.2766
  493MOL0     C67907   5.395   4.861   6.254 -0.0226  0.4433  0.3110
  493MOL0     C67908   5.520   4.886   6.351  0.0885 -0.1003 -0.2869
  493MOL0     C67909   5.477   4.897   6.496  0.3279  0.6852  0.1433
  493MOL0     C67910   5.604   4.911   6.580 -0.6957  0.1856  0.1715
  493MOL0     C67911   5.658   5.053   6.563 -0.1333 -0.8209 -0.5391
  493MOL0     C67912   5.611   5.147   6.665 -0.2994  1.2192 -0.2952
  493MOL0     N67913   5.675   5.278   6.657 -0.2203 -0.2061  0.2761
  493MOL0     C67914   5.808   5.301   6.657  0.6196 -0.3676 -0.1240
  493MOL0     C67915   5.825   5.423   6.619  0.4703  0.1183  0.2602
  493MOL0     C67916   5.957   5.500   6.606 -0.5328 -1.0824  0.0629
  493MOL0     C67917   5.968   5.619   6.708  0.3561 -0.0673 -0.6289
  493MOL0     C67918   5.877   5.734   6.665  0.8075 -0.0675 -0.4677
  493MOL0     C67919   5.881   5.837   6.781  0.1090 -0.3731 -0.0137
  493MOL0     O67920   5.820   5.954   6.727  0.1466  0.3392  0.3185
  493MOL0     C67921   5.830   6.073   6.789  0.5526  0.2896  0.1795
  493MOL0     C67922   5.729   6.160   6.778 -0.2364 -0.0269  0.0997
  493MOL0     C67923   5.723   6.288   6.847 -0.1879  0.0872  0.1178
  493MOL0     C67924   5.596   6.371   6.825 -1.0541  1.0252 -0.7044
  493MOL0     C67925   5.838   6.318   6.917  0.1821  0.5543 -0.0323
  493MOL0     C67926   5.847   6.437   7.003 -0.4248 -0.0414 -0.2609
  493MOL0     O67927   5.968   6.484   7.030 -0.4544  0.2068 -0.3936
  493MOL0     C67928   5.967   6.587   7.122 -0.0443 -0.3733  0.3683
  493MOL0     C67929   5.953   6.725   7.091  0.2373 -0.0205  0.4708
  493MOL0     C67930   5.940   6.815   7.195 -0.6977  0.6950  0.9502
  493MOL0     C67931   5.948   6.777   7.320  0.0603 -0.3144 -0.0662
  493MOL0     O67932   5.927   6.881   7.408 -0.1177 -0.2565 -0.3242
  493MOL0     C67933   6.017   6.897   7.507 -0.3740 -0.2132 -1.0801
  493MOL0     C67934   6.102   7.031   7.497  0.3177 -0.2584 -0.2150
  493MOL0     C67935   6.014   7.152   7.513 -0.8822  0.1172 -0.1641
  493MOL0     C67936   6.082   7.268   7.446  0.4571  0.3928  0.4235
  493MOL0     C67937   6.019   7.396   7.479  1.0415 -0.8808  0.8523
  493MOL0     C67938   6.091   7.525   7.412  0.7604 -0.2204 -0.1581
  493MOL0     C67939   6.206   7.580   7.500  0.1397 -0.8621 -0.4561
  493MOL0     C67940   6.142   7.666   7.614  0.2368  0.0898 -0.0865
  493MOL0    Cl67941   6.271   7.753   7.705  0.2411 -0.7502 -0.2527
  493MOL0     C67942   5.961   6.647   7.365  0.1312  0.2024  0.5784
  493MOL0     C67943   5.971   6.547   7.256 -0.2368  0.7686 -1.0719
  493MOL0     O67944   5.744   6.468   7.071  0.0583 -0.1927  0.2394
  493MOL0     C67945   5.941   6.230   6.926 -0.7951 -0.2637  0.1232
  493MOL0     C67946   5.933   6.113   6.856 -0.2819 -0.6825  0.0389
  493MOL0     N67947   5.694   5.480   6.612  0.4360 -0.0256  0.5645
  493MOL0     N67948   5.610   5.392   6.627 -0.4923  0.1204 -0.3008
  493MOL0     C67949   5.341   4.750   5.858 -0.0260  0.1190  0.4917
  493MOL0     C67950   5.314   4.807   5.736  0.6423  0.3435 -0.2881
  493MOL0     C67951   5.171   5.013   5.390  0.4528 -0.4002 -0.1754
  493MOL0     C67952   5.268   5.078   5.313 -0.3844 -0.1720 -0.0746
  493MOL0     C67953   5.257   5.074   5.179 -0.9170 -1.2455  0.4899
  493MOL0     C67954   5.147   5.036   5.113  1.4081 -0.6659 -0.4095
  493MOL0     O67955   5.141   5.061   4.973  0.7000 -0.1189  0.1678
  493MOL0     C67956   5.167   5.186   4.919 -0.8036 -0.9099  0.3016
  493MOL0     C67957   5.115   5.176   4.767 -0.1008 -1.2097  0.2286
  493MOL0     C67958   5.183   5.077   4.684 -0.1311 -0.8079  0.9671
  493MOL0     C67959   5.300   5.127   4.617 -0.6821 -0.0183 -0.1804
  493MOL0     C67960   5.351   5.040   4.510 -0.2285 -0.1710  0.8579
  493MOL0     C67961   5.390   4.971   4.424  1.6569  0.6779  0.2507
  493MOL0     C67962   5.044   4.991   5.179  0.6301 -0.0421 -0.5820
  493MOL0     C67963   5.054   4.979   5.320  0.0633 -0.6075 -0.7619
  493MOL0     C67964   4.937   4.923   5.393  0.3659  0.1448 -0.1382
  493MOL0     H67965   4.974   4.806   5.779 -1.0270 -2.1865 -1.3376
  493MOL0     H67966   5.038   4.694   5.986 -1.9495 -1.5673 -1.8526
  493MOL0     H67967   5.203   4.569   6.225  2.5981 -1.4278 -0.4508
  493MOL0     H67968   5.152   4.732   6.178  0.0790 -0.0195  0.2944
  493MOL0     H67969   5.324   4.705   6.384  1.8845  0.4617  0.7341
  493MOL0     H67970   5.436   4.648   6.260 -1.1544 -2.1755 -0.1886
  493MOL0     H67971   5.430   4.881   6.152 -0.9088 -2.5467 -0.6995
  493MOL0     H67972   5.310   4.926   6.274 -0.8945 -1.0062  1.5724
  493MOL0     H67973   5.596   4.809   6.337 -2.0782 -2.7893  1.5623
  493MOL0     H67974   5.561   4.977   6.308  3.8131 -1.9527 -1.0729
  493MOL0     H67975   5.415   4.816   6.535  0.5728 -0.8981 -2.5191
  493MOL0     H67976   5.408   4.982   6.498  0.9374  1.1638  1.1070
  493MOL0     H67977   5.579   4.880   6.682 -0.9294 -1.6168 -0.4135
  493MOL0     H67978   5.685   4.840   6.564 -0.3389  0.3401  1.1950
  493MOL0     H67979   5.650   5.108   6.468  0.2375 -0.3500 -0.3037
  493MOL0     H67980   5.763   5.044   6.592  0.3274  1.8833 -1.0302
  493MOL0     H67981   5.502   5.144   6.663 -0.3278 -1.2844  1.1722
  493MOL0     H67982   5.641   5.111   6.764 -1.4980  4.7115  1.5252
  493MOL0     H67983   5.889   5.229   6.648 -0.5113 -1.5086 -1.5419
  493MOL0     H67984   5.955   5.537   6.504 -3.5730 -3.2888 -0.8068
  493MOL0     H67985   6.043   5.434   6.621  0.5053  0.5396  1.8312
  493MOL0     H67986   5.955   5.587   6.812 -0.8186 -0.9764 -1.0435
  493MOL0     H67987   6.071   5.656   6.698  0.5540  0.6187  2.8067
  493MOL0     H67988   5.908   5.783   6.573 -2.5332  0.1514 -1.6144
  493MOL0     H67989   5.771   5.707   6.654 -0.2350  1.0542  4.3541
  493MOL0     H67990   5.836   5.803   6.874  2.1243 -1.0199  0.7780
  493MOL0     H67991   5.985   5.845   6.815  0.7312 -3.1440 -1.0288
  493MOL0     H67992   5.649   6.116   6.719  1.3830  0.2835 -2.4655
  493MOL0     H67993   5.561   6.425   6.914  1.0736  1.7774 -0.2538
  493MOL0     H67994   5.510   6.310   6.797 -0.7429 -1.8135  3.5734
  493MOL0     H67995   5.617   6.447   6.749 -2.6524  0.8088 -1.4059
  493MOL0     H67996   5.943   6.766   6.990 -2.5711 -1.3507  0.1144
  493MOL0     H67997   5.913   6.919   7.179 -1.0493  0.2738 -1.5118
  493MOL0     H67998   5.964   6.910   7.602  1.6551 -2.0994  0.4178
  493MOL0     H67999   6.087   6.813   7.518 -1.2135 -0.7647  0.4920
  493MOL0     H68000   6.180   7.025   7.573  1.6745 -0.9197 -1.6123
  493MOL0     H68001   6.150   7.025   7.399  2.3356 -1.7496  0.8067
  493MOL0     H68002   5.990   7.171   7.618  2.2746 -1.1204  0.9194
  493MOL0     H68003   5.915   7.138   7.469 -0.7988  0.6384 -0.5198
  493MOL0     H68004   6.097   7.253   7.339  5.5194  2.1852  0.6032
  493MOL0     H68005   6.188   7.280   7.472  0.8692  3.6578 -2.0815
  493MOL0     H68006   5.920   7.391   7.433 -0.6215 -1.8392  4.2197
  493MOL0     H68007   6.011   7.406   7.588  4.3614 -1.9071  1.3002
  493MOL0     H68008   6.016   7.599   7.381  0.6206 -0.3944 -0.2343
  493MOL0     H68009   6.132   7.499   7.314 -1.7181 -1.0912 -1.0368
  493MOL0     H68010   6.262   7.638   7.426 -3.6105  1.6814 -1.6722
  493MOL0     H68011   6.260   7.497   7.545  0.6457 -1.1436 -1.5564
  493MOL0     H68012   6.078   7.602   7.675  0.0017 -0.7714 -1.1888
  493MOL0     H68013   6.079   7.747   7.575 -2.0791 -1.7586 -0.3512
  493MOL0     H68014   5.954   6.618   7.469  2.4229  1.6555  1.2164
  493MOL0     H68015   5.953   6.446   7.290  0.3568  1.5291  1.7479
  493MOL0     H68016   6.034   6.252   6.977 -1.6142  2.4744  0.6105
  493MOL0     H68017   6.020   6.050   6.871  0.7747 -0.0080 -2.6854
  493MOL0     H68018   5.448   4.740   5.867  0.0240 -0.1566 -0.2825
  493MOL0     H68019   5.395   4.829   5.668  0.3508 -1.6443 -1.3659
  493MOL0     H68020   5.361   5.111   5.357 -0.3584 -1.7207  1.1421
  493MOL0     H68021   5.334   5.115   5.114 -3.6841  2.8970 -0.5608
  493MOL0     H68022   5.112   5.262   4.976 -0.3238 -0.3562  0.0443
  493MOL0     H68023   5.275   5.203   4.922 -1.1289  1.4202  2.2129
  493MOL0     H68024   5.117   5.274   4.720  1.2650 -1.4335 -0.2126
  493MOL0     H68025   5.008   5.154   4.770  0.0182 -1.7649  0.7136
  493MOL0     H68026   5.190   4.986   4.743 -1.1036  0.0398  2.4574
  493MOL0     H68027   5.110   5.051   4.606  1.6365  1.4513 -1.6268
  493MOL0     H68028   5.378   5.150   4.690 -1.4323  0.2140  0.5741
  493MOL0     H68029   5.270   5.224   4.574 -0.6556  1.1131  2.2014
  493MOL0     H68030   5.417   4.900   4.348  3.1255  1.5264 -0.0651
  493MOL0     H68031   4.956   4.962   5.122  0.2278  0.0390 -0.0153
  493MOL0     H68032   4.916   4.985   5.480  0.7403  1.4609 -0.9541
  493MOL0     H68033   4.850   4.929   5.327 -0.7086 -0.6222  1.1634
  493MOL0     H68034   4.957   4.817   5.415 -1.1755 -0.7167 -2.4484
  494MOL0     O68035  10.998   0.096   5.376 -0.2334 -0.4886  0.9216
  494MOL0     C68036  11.009   0.214   5.410 -0.1420  0.6739 -0.2249
  494MOL0     O68037  11.029   0.318   5.327 -0.4125 -0.0006 -0.5524
  494MOL0     C68038  10.982   0.318   5.201  0.9539  0.4520  0.2136
  494MOL0     C68039  10.866   0.242   5.158  0.1911 -0.4273  0.3155
  494MOL0     C68040  10.820   0.250   5.023  0.0714 -0.2302  0.2512
  494MOL0     C68041  10.890   0.328   4.936 -0.2750 -0.6819  0.2828
  494MOL0     O68042  10.860   0.340   4.803  0.4945  0.0028 -0.1641
  494MOL0     C68043  10.915   0.231   4.723  0.4870 -0.0690 -1.0848
  494MOL0     C68044  11.067   0.246   4.679 -0.1059 -0.7215 -0.6161
  494MOL0     C68045  11.083   0.384   4.600  0.4313  0.7617  0.1921
  494MOL0     C68046  11.223   0.404   4.544  0.6007 -1.0759  0.8762
  494MOL0     C68047  11.271   0.294   4.447 -0.6544 -0.1554 -0.0102
  494MOL0     C68048  11.211   0.316   4.313  0.1219 -0.0036  0.1706
  494MOL0     C68049  11.299   0.243   4.209  0.8864 -0.2924  0.1553
  494MOL0     C68050  11.226   0.242   4.077 -0.4135  0.7742  0.0511
  494MOL0     N68051  11.308   0.173   3.975 -0.2845 -0.2131 -0.1393
  494MOL0     C68052  11.419   0.227   3.914  0.1217  0.6994  0.5742
  494MOL0     C68053  11.453   0.138   3.818 -0.5625  0.5310 -0.0970
  494MOL0     C68054  11.588   0.144   3.742  1.4515  0.7059  0.1458
  494MOL0     C68055  11.720   0.130   3.833 -0.4927  0.4738 -0.9644
  494MOL0     C68056  11.792   0.002   3.800  0.4064 -0.3636  0.1366
  494MOL0     C68057  11.712  -0.117   3.849  0.1277 -0.1602  0.4281
  494MOL0     O68058  11.804  -0.230   3.848  0.5881 -0.4451 -0.7176
  494MOL0     C68059  11.749  -0.359   3.856 -0.6851 -0.3515  0.0513
  494MOL0     C68060  11.628  -0.385   3.913 -0.9081  0.1014 -0.2239
  494MOL0     C68061  11.570  -0.511   3.913 -1.0298  0.6877  1.6133
  494MOL0     C68062  11.422  -0.521   3.950  0.2925 -0.2705  0.0172
  494MOL0     C68063  11.643  -0.619   3.868  0.7409  0.5632 -0.2604
  494MOL0     C68064  11.598  -0.768   3.871  0.5229  0.5934  0.1769
  494MOL0     O68065  11.701  -0.855   3.859 -0.6525  0.1835 -0.2170
  494MOL0     C68066  11.694  -0.986   3.893  0.1749  0.7671  0.6587
  494MOL0     C68067  11.812  -1.060   3.867 -0.0201  0.4091 -0.6167
  494MOL0     C68068  11.834  -1.186   3.932  0.1159  0.3635 -0.6345
  494MOL0     C68069  11.735  -1.245   4.006  0.9631 -0.2746 -0.6011
  494MOL0     O68070  11.754  -1.372   4.049 -0.2407  0.8227 -0.1463
  494MOL0     C68071  11.837  -1.470   3.974  1.1726 -0.2194 -0.0306
  494MOL0     C68072  11.754  -1.600   3.976  0.0385  1.2281  0.4238
  494MOL0     C68073  11.815  -1.727   3.906 -0.2513 -0.0659  0.1486
  494MOL0     C68074  11.829  -1.697   3.764 -0.1262 -0.3025 -0.5770
  494MOL0     C68075  11.872  -1.831   3.693  0.4728 -0.4718  1.1007
  494MOL0     C68076  11.951  -1.810   3.555  0.1018  0.2726 -0.0618
  494MOL0     C68077  12.087  -1.746   3.571 -0.6201 -0.8328 -0.0234
  494MOL0     C68078  12.185  -1.798   3.464  0.1280 -0.2905 -0.5717
  494MOL0    Cl68079  12.236  -1.975   3.474  0.1798 -0.0052  0.1481
  494MOL0     C68080  11.619  -1.172   4.032 -0.0481  0.2333 -0.0233
  494MOL0     C68081  11.597  -1.046   3.973 -0.2322 -0.2575 -0.2109
  494MOL0     O68082  11.476  -0.804   3.875  0.0657 -0.1914  0.2674
  494MOL0     C68083  11.772  -0.598   3.813 -0.3088 -0.0454  0.0899
  494MOL0     C68084  11.821  -0.465   3.804  0.1864 -0.4014 -0.0107
  494MOL0     N68085  11.365   0.032   3.829  0.0395  0.0136 -0.3069
  494MOL0     N68086  11.287   0.049   3.935 -0.4112  0.5480 -0.8996
  494MOL0     C68087  11.009   0.394   4.982 -0.0926  0.4606 -0.5144
  494MOL0     C68088  11.050   0.392   5.113  0.5098  0.6343  0.2964
  494MOL0     C68089  11.026   0.238   5.551  0.6522 -0.0966  0.2073
  494MOL0     C68090  11.154   0.276   5.596  0.3432 -0.2201 -0.6414
  494MOL0     C68091  11.176   0.288   5.733 -0.5660 -0.1940 -0.1991
  494MOL0     C68092  11.066   0.266   5.823 -0.5739 -0.6666 -0.0219
  494MOL0     O68093  11.086   0.284   5.958  0.7919 -0.0141 -0.2684
  494MOL0     C68094  10.984   0.267   6.046  0.2107 -1.1161  0.3984
  494MOL0     C68095  11.028   0.283   6.195 -0.8594 -0.0214  0.3735
  494MOL0     C68096  10.911   0.285   6.287  0.6198 -0.4143 -0.3638
  494MOL0     C68097  10.932   0.299   6.437  0.3620 -0.5457 -0.1853
  494MOL0     C68098  11.000   0.422   6.487  0.0468  0.0203 -1.5126
  494MOL0     C68099  11.039   0.520   6.541  0.2880 -0.1051 -0.6151
  494MOL0     C68100  10.942   0.229   5.776  0.1576 -0.1013  0.4917
  494MOL0     C68101  10.920   0.212   5.636 -0.2919  0.4081 -1.4771
  494MOL0     C68102  10.777   0.184   5.600  0.5217 -0.4684 -0.6893
  494MOL0     H68103  10.795   0.188   5.219 -3.7120  4.5973  0.9168
  494MOL0     H68104  10.728   0.206   4.988 -1.5653  1.5894  1.9914
  494MOL0     H68105  10.849   0.231   4.636  1.7424 -0.4582 -2.0691
  494MOL0     H68106  10.906   0.140   4.782  2.9901  0.8118  0.8489
  494MOL0     H68107  11.139   0.234   4.760  0.9208 -1.5839 -1.6219
  494MOL0     H68108  11.088   0.160   4.615 -0.5296  0.4074 -2.3276
  494MOL0     H68109  11.003   0.386   4.525 -1.1879  3.4823  1.8207
  494MOL0     H68110  11.065   0.475   4.658 -0.6403 -0.2404  1.5148
  494MOL0     H68111  11.241   0.501   4.497  2.5122 -0.0173  3.4992
  494MOL0     H68112  11.292   0.413   4.628  2.0941  1.8336 -0.5157
  494MOL0     H68113  11.253   0.194   4.486 -1.6529  1.6151  4.7108
  494MOL0     H68114  11.379   0.312   4.442 -0.6668 -0.0493  0.1147
  494MOL0     H68115  11.112   0.269   4.311  0.5765 -1.2337 -4.4753
  494MOL0     H68116  11.213   0.420   4.280  1.8334  0.0253  0.2905
  494MOL0     H68117  11.310   0.141   4.248 -0.2289 -0.2655  0.5511
  494MOL0     H68118  11.396   0.291   4.193  0.1535  1.2523  0.1351
  494MOL0     H68119  11.126   0.198   4.085 -1.3892  2.8046 -0.4025
  494MOL0     H68120  11.189   0.340   4.045 -1.8476 -0.1058 -1.1290
  494MOL0     H68121  11.474   0.313   3.951  1.3996  0.4946 -0.7649
  494MOL0     H68122  11.583   0.237   3.684  0.3071  0.2110 -0.6027
  494MOL0     H68123  11.586   0.065   3.666 -0.3151  0.1436  0.7339
  494MOL0     H68124  11.786   0.217   3.828 -0.3121  0.4947  0.9301
  494MOL0     H68125  11.688   0.127   3.938  1.1060  1.2688 -0.4200
  494MOL0     H68126  11.810  -0.006   3.693  0.6801 -1.7300  0.2714
  494MOL0     H68127  11.893   0.004   3.840  1.6361 -0.8362 -2.7292
  494MOL0     H68128  11.660  -0.101   3.944  1.1427  1.5757  0.7361
  494MOL0     H68129  11.632  -0.147   3.781 -0.2823 -4.5513  2.5207
  494MOL0     H68130  11.570  -0.298   3.941 -1.6518  0.6231 -3.0658
  494MOL0     H68131  11.351  -0.520   3.867 -0.9097 -1.6542  0.9751
  494MOL0     H68132  11.386  -0.432   4.003  0.4432 -0.8693  1.1601
  494MOL0     H68133  11.392  -0.602   4.017 -0.8744  1.5606  1.8425
  494MOL0     H68134  11.887  -1.009   3.808  1.4791 -0.0167  0.8577
  494MOL0     H68135  11.925  -1.238   3.906  0.4185  1.1883 -1.2767
  494MOL0     H68136  11.873  -1.439   3.875  2.6505  0.3938  0.6590
  494MOL0     H68137  11.924  -1.482   4.039  0.2866  3.2550  2.0391
  494MOL0     H68138  11.739  -1.626   4.081 -0.0638  3.2281  0.9366
  494MOL0     H68139  11.653  -1.590   3.935  0.1263 -1.1316 -0.5493
  494MOL0     H68140  11.748  -1.810   3.926 -3.9886  2.3242 -1.2205
  494MOL0     H68141  11.909  -1.760   3.951  0.1532  2.7561  1.6158
  494MOL0     H68142  11.909  -1.622   3.760 -1.5140  1.2048 -2.8816
  494MOL0     H68143  11.735  -1.665   3.717  0.5962  0.9041 -1.2598
  494MOL0     H68144  11.926  -1.886   3.771 -1.4276  0.3460  3.1104
  494MOL0     H68145  11.782  -1.887   3.666 -0.9129  1.9275  0.4522
  494MOL0     H68146  11.889  -1.758   3.482 -0.3788 -2.8401 -2.0555
  494MOL0     H68147  11.962  -1.910   3.513 -1.5603  0.9059 -2.1382
  494MOL0     H68148  12.132  -1.783   3.665  3.2232 -3.3727 -2.5548
  494MOL0     H68149  12.079  -1.638   3.582 -1.9638 -0.9765  0.5449
  494MOL0     H68150  12.277  -1.739   3.456  1.5832 -2.4461 -0.8452
  494MOL0     H68151  12.148  -1.786   3.361  0.8785  2.0180 -0.6140
  494MOL0     H68152  11.554  -1.220   4.105  1.4171  0.8865  1.8151
  494MOL0     H68153  11.510  -0.988   4.001 -1.2288 -1.3361 -0.9971
  494MOL0     H68154  11.832  -0.685   3.789 -3.9162 -3.0910  1.1591
  494MOL0     H68155  11.916  -0.463   3.753 -0.3654  0.6304 -1.0557
  494MOL0     H68156  11.071   0.452   4.915 -0.2871  0.5622 -0.6062
  494MOL0     H68157  11.136   0.452   5.140  2.8492 -1.5173 -1.8045
  494MOL0     H68158  11.243   0.296   5.537  0.5960 -1.7243 -0.7994
  494MOL0     H68159  11.271   0.295   5.785 -0.4244 -0.0636 -0.4756
  494MOL0     H68160  10.906   0.341   6.026  0.7409 -0.8474 -0.7474
  494MOL0     H68161  10.942   0.166   6.037 -2.0580 -0.0468 -3.2131
  494MOL0     H68162  11.072   0.383   6.185  0.9784 -0.5208  2.5853
  494MOL0     H68163  11.101   0.206   6.222 -0.2025  1.0197  1.7115
  494MOL0     H68164  10.839   0.359   6.251  0.5213  0.4677  1.5144
  494MOL0     H68165  10.859   0.189   6.277  2.9615 -2.0285  1.6422
  494MOL0     H68166  10.999   0.218   6.467  2.2457  0.3368 -1.7890
  494MOL0     H68167  10.837   0.296   6.492 -0.3076  1.0527 -1.1561
  494MOL0     H68168  11.076   0.612   6.583 -0.9578  0.4841 -0.7757
  494MOL0     H68169  10.849   0.215   5.829  0.3695 -1.8364  0.4645
  494MOL0     H68170  10.725   0.276   5.573 -2.2953 -0.9192  2.5577
  494MOL0     H68171  10.767   0.126   5.508  1.2271 -2.8163  0.6163
  494MOL0     H68172  10.716   0.137   5.678 -2.6294  1.4053 -1.8577
  495MOL0     O68173   0.606   9.764  10.526 -0.6849  0.1911  0.1592
  495MOL0     C68174   0.675   9.665  10.534 -0.5545 -0.1518 -0.3097
  495MOL0     O68175   0.799   9.648  10.471 -0.3076 -1.0637 -0.3163
  495MOL0     C68176   0.859   9.731  10.375  0.4907  0.1065 -0.5498
  495MOL0     C68177   0.796   9.828  10.285 -0.5715  0.0895  0.5830
  495MOL0     C68178   0.862   9.891  10.187 -0.5708  0.4029 -0.3903
  495MOL0     C68179   0.997   9.858  10.163  0.7160  0.4062 -0.1847
  495MOL0     O68180   1.055   9.918  10.051 -0.6138 -0.6752  0.3238
  495MOL0     C68181   1.186   9.965  10.081  0.8195  0.1638  1.0454
  495MOL0     C68182   1.236  10.067   9.972  0.1407 -0.2114  0.0642
  495MOL0     C68183   1.137  10.183   9.975 -0.4705  0.7895 -0.0080
  495MOL0     C68184   1.117  10.203   9.826 -0.0521 -0.0219 -0.6057
  495MOL0     C68185   1.040  10.338   9.805 -0.8358 -0.3273  0.3428
  495MOL0     C68186   1.011  10.377   9.658 -0.2829  0.7770  0.6237
  495MOL0     C68187   1.134  10.380   9.562 -0.3030 -0.2552 -0.2466
  495MOL0     C68188   1.240  10.492   9.595 -0.1438  0.1818  0.8055
  495MOL0     N68189   1.348  10.453   9.691  0.9345 -0.4656  0.2843
  495MOL0     C68190   1.431  10.342   9.675  0.7736 -0.2350 -1.5343
  495MOL0     C68191   1.515  10.353   9.780  0.2237  0.9543  0.3307
  495MOL0     C68192   1.644  10.271   9.806 -0.3697 -0.0750  0.0944
  495MOL0     C68193   1.759  10.373   9.800 -0.2742 -0.0353  0.1489
  495MOL0     C68194   1.906  10.308   9.785  0.4473 -0.3848 -0.0079
  495MOL0     C68195   1.995  10.391   9.699  1.0477  0.4508  0.7221
  495MOL0     O68196   2.118  10.329   9.702  0.4769  0.1826  0.6252
  495MOL0     C68197   2.235  10.386   9.667 -0.8634  0.0550  0.4640
  495MOL0     C68198   2.350  10.311   9.666  0.2750  0.2528  0.0646
  495MOL0     C68199   2.478  10.358   9.626 -0.0425  0.6688 -0.2870
  495MOL0     C68200   2.581  10.258   9.661  0.6100  1.1575 -0.5268
  495MOL0     C68201   2.484  10.492   9.562  0.8794  0.8630  0.9168
  495MOL0     C68202   2.610  10.550   9.505  0.1857 -0.1906 -1.5898
  495MOL0     O68203   2.722  10.468   9.494 -0.3128  0.5375  0.2778
  495MOL0     C68204   2.819  10.518   9.413  0.7173 -0.4019 -0.0744
  495MOL0     C68205   2.913  10.596   9.482 -0.0062 -0.4910 -0.1250
  495MOL0     C68206   3.031  10.628   9.412 -0.3792 -0.1861  0.3319
  495MOL0     C68207   3.051  10.582   9.288  0.0152 -0.5655  1.0689
  495MOL0     O68208   3.174  10.615   9.224 -0.4113 -0.7467 -0.5831
  495MOL0     C68209   3.183  10.606   9.081  0.0865  0.7860 -0.3708
  495MOL0     C68210   3.307  10.672   9.038 -0.1208 -0.1282 -0.6605
  495MOL0     C68211   3.284  10.823   9.039  0.1452 -0.3779 -0.8865
  495MOL0     C68212   3.403  10.890   8.961  0.1983  0.5383 -0.7517
  495MOL0     C68213   3.426  11.028   9.021  0.2127 -0.3307  0.2339
  495MOL0     C68214   3.553  11.093   8.964 -0.0071 -0.7232 -0.7515
  495MOL0     C68215   3.690  11.033   9.020 -0.3326 -0.4908 -1.2225
  495MOL0     C68216   3.738  11.140   9.125 -0.0420  0.0057  0.4645
  495MOL0    Cl68217   3.823  11.270   9.047 -0.0705 -0.6213 -0.1336
  495MOL0     C68218   2.955  10.508   9.221  0.0854 -0.2729  0.4200
  495MOL0     C68219   2.833  10.470   9.279 -1.1490  0.3974  0.9630
  495MOL0     O68220   2.593  10.662   9.452 -0.0725  0.7841  0.1289
  495MOL0     C68221   2.366  10.563   9.557 -0.5826 -1.0227 -0.8570
  495MOL0     C68222   2.243  10.518   9.615 -0.0173  0.2452 -0.3188
  495MOL0     N68223   1.473  10.452   9.876 -0.4568 -0.5287  0.0367
  495MOL0     N68224   1.370  10.517   9.814 -0.1181  0.5478  0.2683
  495MOL0     C68225   1.064   9.769  10.244 -0.2087  0.0173  0.1301
  495MOL0     C68226   0.994   9.713  10.352  0.4365  0.4872  0.0950
  495MOL0     C68227   0.631   9.550  10.618  0.3987  0.8815  0.2539
  495MOL0     C68228   0.718   9.443  10.617 -0.0881 -0.3213  0.1893
  495MOL0     C68229   0.694   9.338  10.708  0.2717  0.2676 -0.0518
  495MOL0     C68230   0.590   9.338  10.805  0.2389 -0.2715 -0.1603
  495MOL0     O68231   0.563   9.232  10.886  0.6584 -0.3882 -0.8049
  495MOL0     C68232   0.612   9.094  10.879  1.2645 -0.3747  0.8250
  495MOL0     C68233   0.499   9.005  10.927  0.2611  0.6994 -0.0590
  495MOL0     C68234   0.468   9.019  11.077 -0.4621 -1.2892 -0.1728
  495MOL0     C68235   0.334   8.994  11.140 -0.0083  1.0883  0.3386
  495MOL0     C68236   0.278   8.862  11.100 -0.2198 -0.3142 -0.0349
  495MOL0     C68237   0.232   8.761  11.050  0.7106  0.1563 -0.6421
  495MOL0     C68238   0.516   9.459  10.816  1.7946  1.2834 -0.1878
  495MOL0     C68239   0.532   9.561  10.726  0.8538 -0.3735  0.5956
  495MOL0     C68240   0.437   9.672  10.757 -0.2684 -1.1079  0.7047
  495MOL0     H68241   0.691   9.855  10.293 -0.1073  1.5285  3.2391
  495MOL0     H68242   0.809   9.957  10.118  0.8367  0.0029 -1.9339
  495MOL0     H68243   1.264   9.890  10.067  5.1291  4.3626  0.0870
  495MOL0     H68244   1.198  10.012  10.180  0.2077  2.0664  0.2676
  495MOL0     H68245   1.330  10.110  10.006 -1.6221  1.6191  3.1591
  495MOL0     H68246   1.240  10.010   9.879  0.1392 -0.1574  0.0313
  495MOL0     H68247   1.042  10.154  10.021 -1.5464 -0.7375 -2.9194
  495MOL0     H68248   1.176  10.273  10.024 -1.0392  0.6681  0.6851
  495MOL0     H68249   1.214  10.219   9.779  1.3787  1.7209  2.5856
  495MOL0     H68250   1.060  10.125   9.775 -0.9449 -0.6032  1.1943
  495MOL0     H68251   1.104  10.420   9.839 -0.1353 -0.9495  0.5643
  495MOL0     H68252   0.944  10.347   9.857 -0.6497  1.8525  0.3956
  495MOL0     H68253   0.965  10.287   9.614 -1.1830  2.6650 -2.5979
  495MOL0     H68254   0.952  10.466   9.639 -0.4380  0.7505  0.9622
  495MOL0     H68255   1.092  10.398   9.462 -3.0374  0.9304  1.0149
  495MOL0     H68256   1.185  10.284   9.549  2.0807  1.1823 -2.6382
  495MOL0     H68257   1.286  10.513   9.498 -2.7700  1.6911 -0.2103
  495MOL0     H68258   1.192  10.580   9.639 -0.5650 -0.6952  2.1458
  495MOL0     H68259   1.442  10.274   9.592  1.1181  0.5513 -2.1450
  495MOL0     H68260   1.662  10.194   9.729 -1.8003  0.6867 -1.0518
  495MOL0     H68261   1.642  10.224   9.905 -0.1161 -1.5230 -0.5527
  495MOL0     H68262   1.752  10.435   9.709 -0.6579  0.9955  0.8626
  495MOL0     H68263   1.749  10.448   9.879  3.1865  0.5619  0.2154
  495MOL0     H68264   1.950  10.289   9.883 -1.2212  0.8721  1.0343
  495MOL0     H68265   1.889  10.212   9.735  0.3679 -0.6799  0.5820
  495MOL0     H68266   1.945  10.409   9.603 -2.8623 -3.0464  1.8348
  495MOL0     H68267   2.013  10.487   9.749  0.4896  0.3459  1.1221
  495MOL0     H68268   2.344  10.213   9.713  2.2459  0.8267  1.6528
  495MOL0     H68269   2.575  10.177   9.589 -2.7294  0.8755 -0.0963
  495MOL0     H68270   2.557  10.209   9.756  2.2887  0.5791 -0.3563
  495MOL0     H68271   2.680  10.301   9.683  0.7692 -0.3726  2.1997
  495MOL0     H68272   2.900  10.624   9.586  2.4983  1.8999 -0.3419
  495MOL0     H68273   3.108  10.685   9.464 -0.2589 -0.2529  0.2259
  495MOL0     H68274   3.202  10.499   9.069 -2.4423  0.2556 -0.1693
  495MOL0     H68275   3.092  10.625   9.023  1.0029 -1.1429 -2.6013
  495MOL0     H68276   3.394  10.640   9.095  0.0224 -0.0096 -0.8128
  495MOL0     H68277   3.336  10.640   8.937  0.4734 -2.5300  0.2010
  495MOL0     H68278   3.291  10.858   9.142 -0.3824  0.2917 -1.0703
  495MOL0     H68279   3.183  10.847   9.006 -0.1971  2.9004  2.0138
  495MOL0     H68280   3.382  10.898   8.854 -1.1777  1.8151 -0.4130
  495MOL0     H68281   3.500  10.847   8.985  0.6483  3.0362  2.6084
  495MOL0     H68282   3.330  11.078   9.005  0.1279 -0.8901 -1.1282
  495MOL0     H68283   3.436  11.030   9.130 -2.1084 -2.5285  0.5955
  495MOL0     H68284   3.542  11.198   8.992  0.2791 -0.8510 -0.1439
  495MOL0     H68285   3.562  11.089   8.855  3.0458 -1.7600 -0.5608
  495MOL0     H68286   3.762  11.004   8.944 -0.6562 -0.5221 -1.5216
  495MOL0     H68287   3.673  10.938   9.073  1.4316 -0.5384 -0.6961
  495MOL0     H68288   3.818  11.098   9.188  0.2301 -0.0843  0.0611
  495MOL0     H68289   3.651  11.166   9.186  0.4442  0.6420  0.9028
  495MOL0     H68290   2.967  10.478   9.117  1.3358  0.5911  0.2859
  495MOL0     H68291   2.752  10.421   9.225  0.7144 -0.4267 -1.2465
  495MOL0     H68292   2.354  10.658   9.506 -0.8721 -0.7661 -0.3086
  495MOL0     H68293   2.160  10.588   9.621 -2.0825 -2.2068  2.3184
  495MOL0     H68294   1.166   9.732  10.237 -0.9652 -2.4673  1.0868
  495MOL0     H68295   1.045   9.630  10.399 -0.2258  0.7915  1.3750
  495MOL0     H68296   0.804   9.436  10.551  0.1876  2.1297  0.1649
  495MOL0     H68297   0.760   9.254  10.690 -2.4688 -2.6067  2.2654
  495MOL0     H68298   0.639   9.066  10.777 -1.1309 -0.6163  0.2093
  495MOL0     H68299   0.704   9.086  10.938  1.4846 -1.3347  0.3673
  495MOL0     H68300   0.530   8.904  10.899 -2.2997 -0.5202  1.1694
  495MOL0     H68301   0.413   9.028  10.864 -1.7270 -0.8727  1.9221
  495MOL0     H68302   0.534   8.945  11.124  0.8947 -1.4070 -2.1175
  495MOL0     H68303   0.488   9.124  11.101 -3.0099 -1.0705  1.3456
  495MOL0     H68304   0.264   9.066  11.098  0.3519  1.3399  0.1621
  495MOL0     H68305   0.341   9.014  11.247  0.0329  2.7379  0.0493
  495MOL0     H68306   0.174   8.675  11.023  0.5200 -0.1203  0.5847
  495MOL0     H68307   0.454   9.470  10.904  4.0350 -1.7200  1.9606
  495MOL0     H68308   0.394   9.707  10.663  3.1683 -1.1824 -1.0583
  495MOL0     H68309   0.359   9.639  10.827 -0.1513 -2.4360  0.2416
  495MOL0     H68310   0.484   9.753  10.813  1.5723 -0.4498 -1.6679
  496MOL0     O68311   2.976  10.915   4.249 -0.5738 -0.5215 -0.0644
  496MOL0     C68312   2.940  10.867   4.143  0.6849 -1.0039  0.3865
  496MOL0     O68313   2.911  10.741   4.112  0.2178  0.2603 -0.2931
  496MOL0     C68314   2.929  10.644   4.212  0.4483 -0.6473 -0.1189
  496MOL0     C68315   2.805  10.604   4.266 -0.2739 -0.8313 -0.2102
  496MOL0     C68316   2.800  10.503   4.357  0.0851 -0.1098 -1.0589
  496MOL0     C68317   2.923  10.438   4.400 -0.5422 -0.2355 -0.3234
  496MOL0     O68318   2.931  10.341   4.491  0.3984 -0.1296 -0.7802
  496MOL0     C68319   2.818  10.257   4.514 -1.0196  0.3579 -0.1029
  496MOL0     C68320   2.849  10.195   4.651  0.2376  0.5441 -0.1345
  496MOL0     C68321   2.757  10.073   4.682 -0.4420 -0.5064 -1.2324
  496MOL0     C68322   2.848   9.953   4.705 -0.4924 -0.4610 -0.5819
  496MOL0     C68323   2.770   9.842   4.760  0.4209  0.2534  0.6860
  496MOL0     C68324   2.700   9.755   4.646 -0.4749 -0.3664 -0.0449
  496MOL0     C68325   2.592   9.666   4.688  0.0691  0.1611  0.9907
  496MOL0     C68326   2.457   9.738   4.691 -0.3368  0.5008 -0.4904
  496MOL0     N68327   2.378   9.714   4.572  0.1168 -0.6519  0.6887
  496MOL0     C68328   2.276   9.629   4.555  0.0212 -0.0311  0.1833
  496MOL0     C68329   2.213   9.661   4.444  0.4182 -0.4793 -0.3002
  496MOL0     C68330   2.082   9.604   4.400 -0.0474 -0.1937  0.6268
  496MOL0     C68331   2.098   9.516   4.268  0.1345 -0.6333  0.1362
  496MOL0     C68332   2.136   9.375   4.304 -0.3664 -0.4293 -0.7974
  496MOL0     C68333   2.103   9.268   4.196 -0.1625 -0.6293  0.3943
  496MOL0     O68334   1.970   9.213   4.189  0.0043 -0.0105  0.8419
  496MOL0     C68335   1.947   9.128   4.295  0.8966  0.6207 -0.4316
  496MOL0     C68336   1.976   8.991   4.297 -0.5900 -0.1577 -0.0030
  496MOL0     C68337   1.955   8.906   4.407  0.3070  1.1108 -0.3919
  496MOL0     C68338   1.976   8.761   4.381  0.1017  0.0086  0.3674
  496MOL0     C68339   1.899   8.965   4.520 -1.1610  0.6624  0.0843
  496MOL0     C68340   1.874   8.891   4.645 -0.4232  0.0736  0.9316
  496MOL0     O68341   1.897   8.968   4.752  0.7568  0.8005 -0.3924
  496MOL0     C68342   1.862   8.917   4.881 -0.1174 -0.1291  0.7369
  496MOL0     C68343   1.735   8.894   4.921  0.2925 -0.2272 -0.0138
  496MOL0     C68344   1.706   8.854   5.055 -0.1194 -0.5644 -1.0581
  496MOL0     C68345   1.816   8.814   5.141  1.2474  0.3407  0.3454
  496MOL0     O68346   1.772   8.780   5.271 -0.1269  0.1181  0.1335
  496MOL0     C68347   1.876   8.729   5.361  1.1823 -0.0022 -0.5910
  496MOL0     C68348   1.815   8.713   5.503  0.0846  0.4748 -0.6189
  496MOL0     C68349   1.930   8.687   5.604 -0.2375 -0.3818 -0.2930
  496MOL0     C68350   1.888   8.689   5.746  0.0527  0.1649 -0.8182
  496MOL0     C68351   2.014   8.651   5.831  1.4433  0.6296  0.5925
  496MOL0     C68352   1.966   8.609   5.974  0.3413 -0.1310  0.5444
  496MOL0     C68353   1.879   8.703   6.055 -0.3321 -0.6606 -0.0111
  496MOL0     C68354   1.992   8.792   6.117  1.1036 -0.7458 -0.6239
  496MOL0    Cl68355   2.055   8.734   6.279  0.4600 -0.1876 -0.5490
  496MOL0     C68356   1.941   8.824   5.089  0.2608 -0.3546 -0.4080
  496MOL0     C68357   1.962   8.881   4.965 -0.7997  0.6253 -0.0707
  496MOL0     O68358   1.842   8.769   4.639  0.4070  0.7507 -0.1354
  496MOL0     C68359   1.862   9.100   4.513 -0.1362  0.6303  0.1180
  496MOL0     C68360   1.878   9.176   4.400  0.5064  0.1942  0.9264
  496MOL0     N68361   2.297   9.749   4.376 -0.4344  0.3706 -0.1783
  496MOL0     N68362   2.389   9.781   4.459 -0.6823  0.2810 -0.2873
  496MOL0     C68363   3.038  10.474   4.349 -0.2183 -0.4631 -0.4844
  496MOL0     C68364   3.047  10.581   4.259  0.4893 -0.9057 -0.0765
  496MOL0     C68365   2.900  10.957   4.032 -0.4356  0.5824 -1.3344
  496MOL0     C68366   2.794  10.920   3.948  0.0827  1.0863 -1.0759
  496MOL0     C68367   2.749  10.983   3.829  1.3440 -0.6012 -1.1598
  496MOL0     C68368   2.821  11.100   3.790  0.7479 -0.7829 -0.6918
  496MOL0     O68369   2.783  11.192   3.696 -0.3112  0.2632  0.3756
  496MOL0     C68370   2.676  11.277   3.732  0.4649 -0.6348 -0.1494
  496MOL0     C68371   2.619  11.364   3.616  0.3551  0.6996  0.4729
  496MOL0     C68372   2.629  11.283   3.480  0.1666 -0.4113 -0.2312
  496MOL0     C68373   2.549  11.362   3.370 -0.3070 -0.0889 -0.8595
  496MOL0     C68374   2.554  11.298   3.235  0.2288 -0.0602 -0.0229
  496MOL0     C68375   2.560  11.263   3.119 -0.8940  1.0105 -0.3969
  496MOL0     C68376   2.933  11.143   3.871  0.8291 -0.6280 -0.7141
  496MOL0     C68377   2.963  11.077   3.994  0.5320 -1.2411 -0.0688
  496MOL0     C68378   3.073  11.143   4.072 -0.8566  0.3694 -0.8701
  496MOL0     H68379   2.717  10.655   4.231 -0.2288  1.0463  2.1518
  496MOL0     H68380   2.703  10.471   4.394 -0.4922  2.8192  0.2437
  496MOL0     H68381   2.816  10.177   4.439 -1.3353 -1.3033  1.5967
  496MOL0     H68382   2.723  10.310   4.517 -0.8226  1.1152 -3.3533
  496MOL0     H68383   2.948  10.149   4.658 -0.6164 -1.1567  2.0936
  496MOL0     H68384   2.840  10.282   4.716 -1.3685  1.9196 -2.0636
  496MOL0     H68385   2.705  10.089   4.777 -3.1085 -0.9485 -2.5155
  496MOL0     H68386   2.686  10.059   4.600 -0.2146  4.4244 -2.5936
  496MOL0     H68387   2.897   9.935   4.608 -2.2913 -0.0610 -1.6062
  496MOL0     H68388   2.907   9.981   4.792 -2.2448 -2.3567  1.3412
  496MOL0     H68389   2.692   9.870   4.831  0.9081 -0.0122  1.3367
  496MOL0     H68390   2.840   9.778   4.815  0.0212 -0.5367  0.2879
  496MOL0     H68391   2.649   9.818   4.574 -0.1962 -2.6090 -2.3585
  496MOL0     H68392   2.767   9.698   4.581 -2.8919  0.4153 -3.4461
  496MOL0     H68393   2.613   9.617   4.783  0.3619 -2.3007 -0.2660
  496MOL0     H68394   2.563   9.583   4.623 -3.0835  0.7305  1.4794
  496MOL0     H68395   2.396   9.714   4.779  1.7542 -0.5815  0.7723
  496MOL0     H68396   2.479   9.845   4.682 -3.7556  1.1324 -2.9402
  496MOL0     H68397   2.245   9.554   4.627 -0.1787 -0.7925 -0.6800
  496MOL0     H68398   2.017   9.683   4.361 -0.4891 -1.2809 -0.9800
  496MOL0     H68399   2.022   9.552   4.476 -1.3776 -0.2658 -0.4167
  496MOL0     H68400   1.998   9.515   4.222  0.7449 -0.7231 -1.2204
  496MOL0     H68401   2.169   9.562   4.200 -1.8484  1.5123 -0.6205
  496MOL0     H68402   2.245   9.372   4.318 -0.3917 -0.0789 -0.4933
  496MOL0     H68403   2.084   9.334   4.391  1.6295 -1.7884 -0.1752
  496MOL0     H68404   2.124   9.311   4.098 -1.0608  0.3157  0.6082
  496MOL0     H68405   2.180   9.190   4.208  1.0492  0.5614  0.6086
  496MOL0     H68406   2.021   8.962   4.203  1.1656 -0.3203  0.8526
  496MOL0     H68407   2.033   8.742   4.289 -0.9414 -3.7078  0.3625
  496MOL0     H68408   1.877   8.716   4.377 -0.1094  0.3654  1.3776
  496MOL0     H68409   2.031   8.716   4.464 -3.2311 -1.2027  2.1017
  496MOL0     H68410   1.653   8.924   4.857  0.5145  1.1144  0.3042
  496MOL0     H68411   1.605   8.845   5.092  0.0145  2.2209  0.2351
  496MOL0     H68412   1.918   8.640   5.314  0.3952 -0.9109  0.3938
  496MOL0     H68413   1.952   8.806   5.378  1.8053 -0.5657 -0.7904
  496MOL0     H68414   1.760   8.805   5.525 -0.3585 -0.2616  1.5551
  496MOL0     H68415   1.747   8.628   5.501  2.1884 -1.3035 -3.1283
  496MOL0     H68416   1.997   8.772   5.587 -1.4173  1.0326  1.7396
  496MOL0     H68417   1.979   8.592   5.580  1.6837  0.2581  0.9148
  496MOL0     H68418   1.811   8.612   5.755 -0.0506  0.0346 -2.5124
  496MOL0     H68419   1.841   8.786   5.764 -1.6346 -0.5513 -1.2080
  496MOL0     H68420   2.067   8.570   5.778  0.8998  0.5146  0.2129
  496MOL0     H68421   2.073   8.742   5.818 -2.2718  2.9241 -2.0101
  496MOL0     H68422   2.061   8.595   6.026  0.3758  1.6556  1.0459
  496MOL0     H68423   1.920   8.510   5.967  0.7806 -0.3535  0.7352
  496MOL0     H68424   1.820   8.654   6.133 -0.0089 -0.2703  0.4873
  496MOL0     H68425   1.814   8.762   5.989 -2.9502  1.9004  4.3938
  496MOL0     H68426   1.959   8.896   6.122  4.2423  0.3438 -0.3852
  496MOL0     H68427   2.075   8.809   6.048  1.1763 -0.0235 -0.3652
  496MOL0     H68428   2.024   8.811   5.158 -0.1463  2.6612  0.8182
  496MOL0     H68429   2.066   8.892   4.938 -0.9280  1.0878 -0.3832
  496MOL0     H68430   1.807   9.140   4.597  0.7794 -2.4395  2.3386
  496MOL0     H68431   1.850   9.280   4.387 -1.6319 -0.5656 -1.4422
  496MOL0     H68432   3.137  10.430   4.362  1.0477  2.4444  0.5875
  496MOL0     H68433   3.143  10.609   4.216 -0.0148  2.5408  0.7029
  496MOL0     H68434   2.735  10.834   3.978 -3.5215  2.7031 -2.9023
  496MOL0     H68435   2.651  10.952   3.794  0.5359 -2.4678  2.3050
  496MOL0     H68436   2.591  11.220   3.771  0.0727 -0.7843 -1.2008
  496MOL0     H68437   2.712  11.334   3.818 -0.6736  1.8970 -1.2195
  496MOL0     H68438   2.687  11.450   3.615  2.7981 -0.9452  3.9760
  496MOL0     H68439   2.521  11.403   3.644  0.1141 -1.3776  2.8701
  496MOL0     H68440   2.732  11.260   3.451  0.4802 -0.8851  1.1877
  496MOL0     H68441   2.573  11.191   3.503  1.3249 -1.7027 -2.2846
  496MOL0     H68442   2.579  11.466   3.354 -4.0904  0.9525 -2.1591
  496MOL0     H68443   2.446  11.378   3.403 -1.8895 -0.6180 -4.9131
  496MOL0     H68444   2.586  11.222   3.023 -1.4226 -0.6155  0.1276
  496MOL0     H68445   2.977  11.240   3.849  0.3835 -0.9425 -3.2426
  496MOL0     H68446   3.036  11.185   4.166  0.2224 -2.2016  0.8134
  496MOL0     H68447   3.148  11.068   4.099 -1.3982 -2.2673 -5.5778
  496MOL0     H68448   3.131  11.222   4.022 -2.5063  2.0071 -0.2970
  497MOL0     O68449   2.903  10.612   0.502  0.2803 -0.4427 -0.2825
  497MOL0     C68450   2.879  10.566   0.613 -0.0095  1.8320 -0.4118
  497MOL0     O68451   2.893  10.627   0.740 -0.6084 -0.3623 -0.6831
  497MOL0     C68452   2.902  10.759   0.761  0.4285 -0.2702 -0.1815
  497MOL0     C68453   2.844  10.843   0.667 -0.8104 -0.0609 -0.4949
  497MOL0     C68454   2.834  10.982   0.711  0.6286  0.7744  0.4889
  497MOL0     C68455   2.898  11.035   0.819  0.9079  0.1484 -0.2537
  497MOL0     O68456   2.880  11.175   0.827 -0.1113  0.1206 -0.3110
  497MOL0     C68457   2.927  11.249   0.941 -0.0028  0.1563  0.4357
  497MOL0     C68458   2.901  11.392   0.914  0.1431  0.3074  0.1762
  497MOL0     C68459   2.972  11.446   0.788 -0.4126 -0.6150 -0.2892
  497MOL0     C68460   2.952  11.596   0.769 -0.1969 -1.7301  0.8187
  497MOL0     C68461   3.056  11.672   0.689  0.9262 -0.2557 -0.4348
  497MOL0     C68462   3.070  11.807   0.746 -0.0099 -1.8987 -0.7379
  497MOL0     C68463   3.173  11.896   0.665 -0.1827 -0.0990  0.1398
  497MOL0     C68464   3.316  11.891   0.699  0.1719 -0.6293  0.3880
  497MOL0     N68465   3.336  11.935   0.838  0.0101  0.1447 -0.2697
  497MOL0     C68466   3.372  11.841   0.935  0.3676 -0.3608  1.1306
  497MOL0     C68467   3.406  11.907   1.044 -0.0801  0.1049  0.6877
  497MOL0     C68468   3.462  11.851   1.175 -0.8100 -0.2494  0.1241
  497MOL0     C68469   3.598  11.774   1.162  0.0239  0.1045 -0.5520
  497MOL0     C68470   3.718  11.866   1.164 -0.4232 -0.1089  1.0767
  497MOL0     C68471   3.848  11.786   1.176 -0.3815 -0.3764 -0.1443
  497MOL0     O68472   3.945  11.851   1.086 -0.0058 -0.6417  0.4723
  497MOL0     C68473   4.076  11.887   1.107 -0.3260  0.0545  0.3488
  497MOL0     C68474   4.144  11.921   0.996  0.0288 -0.3362 -0.0475
  497MOL0     C68475   4.283  11.934   0.995 -0.3829 -0.3272  0.3482
  497MOL0     C68476   4.352  11.952   0.861 -0.6625 -0.6070  0.9175
  497MOL0     C68477   4.350  11.932   1.117  0.7211  0.2459  0.3956
  497MOL0     C68478   4.498  11.951   1.129 -0.0236 -0.9797 -0.7742
  497MOL0     O68479   4.543  11.925   1.250  0.8965 -0.0004 -0.1123
  497MOL0     C68480   4.643  11.835   1.276  0.0692 -0.1532  0.7830
  497MOL0     C68481   4.711  11.843   1.400 -0.5731 -0.4716 -0.1773
  497MOL0     C68482   4.789  11.731   1.435  0.5193 -0.4100  0.6200
  497MOL0     C68483   4.800  11.623   1.351 -0.4250  0.1674 -0.1261
  497MOL0     O68484   4.878  11.527   1.393 -0.2209  0.2691 -0.3204
  497MOL0     C68485   4.813  11.427   1.482  0.7906 -0.8691  0.6929
  497MOL0     C68486   4.917  11.376   1.580  0.0213  0.7500  0.5617
  497MOL0     C68487   4.850  11.287   1.681 -0.5984  0.0550 -0.0515
  497MOL0     C68488   4.955  11.233   1.782  1.2359  0.5306 -0.0919
  497MOL0     C68489   4.896  11.112   1.854  0.6454  0.4037  0.1474
  497MOL0     C68490   5.001  11.050   1.941 -0.3389  0.0386  0.2669
  497MOL0     C68491   4.952  10.942   2.028  0.0948  0.7676  0.4749
  497MOL0     C68492   5.061  10.847   2.098 -0.0727 -0.1564  0.1466
  497MOL0    Cl68493   4.997  10.732   2.220  0.3665 -0.0415 -0.3183
  497MOL0     C68494   4.730  11.612   1.232  0.3238  0.5118 -0.5235
  497MOL0     C68495   4.650  11.718   1.191  0.4730 -0.3251  0.4643
  497MOL0     O68496   4.568  11.968   1.030  0.0299 -0.3504 -0.1225
  497MOL0     C68497   4.274  11.899   1.236 -0.4523 -0.0412 -0.7306
  497MOL0     C68498   4.140  11.881   1.226 -1.5318  1.1480 -0.0521
  497MOL0     N68499   3.393  12.037   1.015  0.1025  0.3239  0.1052
  497MOL0     N68500   3.352  12.054   0.898 -0.2112 -0.8029  0.8163
  497MOL0     C68501   2.982  10.951   0.899  0.0899  0.3099  0.7861
  497MOL0     C68502   2.961  10.807   0.878 -0.2804  0.0996 -0.1572
  497MOL0     C68503   2.823  10.424   0.632  0.7776 -0.6854  0.1719
  497MOL0     C68504   2.706  10.406   0.717 -0.7037 -0.8755 -0.4924
  497MOL0     C68505   2.656  10.281   0.739  0.7221  0.4836 -0.0609
  497MOL0     C68506   2.714  10.166   0.690  0.3907  0.0060  0.4373
  497MOL0     O68507   2.655  10.041   0.711 -0.4131  0.3304 -0.7887
  497MOL0     C68508   2.691   9.972   0.827  0.2922  0.2763 -0.0473
  497MOL0     C68509   2.578   9.862   0.856  0.8233 -0.1141 -0.1129
  497MOL0     C68510   2.575   9.759   0.745  0.5342  0.0188  0.3031
  497MOL0     C68511   2.473   9.648   0.768  0.6613  0.4526 -0.0518
  497MOL0     C68512   2.481   9.534   0.679  0.3568  0.7900  0.2939
  497MOL0     C68513   2.509   9.437   0.617  0.8026  0.4926  0.2738
  497MOL0     C68514   2.832  10.170   0.608  0.9290 -1.1664 -1.3251
  497MOL0     C68515   2.884  10.305   0.584  0.5014  0.2962  0.9625
  497MOL0     C68516   3.013  10.308   0.495  1.1005  0.1696  0.9662
  497MOL0     H68517   2.793  10.803   0.580 -2.0408 -4.1673  1.8027
  497MOL0     H68518   2.785  11.054   0.647  0.1781  1.5026  1.6185
  497MOL0     H68519   3.033  11.242   0.967 -0.1346  1.1636  1.2718
  497MOL0     H68520   2.863  11.217   1.024  0.6503 -0.4021  0.7308
  497MOL0     H68521   2.799  11.431   0.922  0.6375  1.6836  0.0536
  497MOL0     H68522   2.930  11.445   1.005 -1.2029 -0.2717  0.9855
  497MOL0     H68523   3.077  11.418   0.801 -1.2091 -2.7416  2.7227
  497MOL0     H68524   2.938  11.397   0.696 -4.6264  0.0230  0.6937
  497MOL0     H68525   2.853  11.609   0.724 -1.5501 -3.9844  2.8773
  497MOL0     H68526   2.942  11.651   0.862  0.9592 -0.6606  0.3376
  497MOL0     H68527   3.027  11.670   0.583  0.8113 -0.0192 -0.4102
  497MOL0     H68528   3.150  11.619   0.698 -0.6452 -3.0046  0.9693
  497MOL0     H68529   2.976  11.863   0.749 -0.3175 -2.4149  1.9446
  497MOL0     H68530   3.106  11.812   0.849  0.9655 -0.9642 -1.1058
  497MOL0     H68531   3.154  12.003   0.679 -0.7890 -0.1901  0.0704
  497MOL0     H68532   3.163  11.872   0.558 -0.2570  0.3102  0.0516
  497MOL0     H68533   3.350  11.787   0.688  0.2631 -0.3873 -2.4200
  497MOL0     H68534   3.366  11.960   0.630  0.5128  0.4314  1.6473
  497MOL0     H68535   3.376  11.733   0.920  0.3608 -0.2674  0.4081
  497MOL0     H68536   3.400  11.777   1.228  0.1242 -0.0814  1.4854
  497MOL0     H68537   3.472  11.937   1.241 -2.2780  0.5036 -0.5825
  497MOL0     H68538   3.609  11.698   1.241 -0.2288  0.5930 -0.0363
  497MOL0     H68539   3.593  11.713   1.071  0.3989 -2.6870  1.1723
  497MOL0     H68540   3.702  11.927   1.075 -5.0250 -0.6062  1.3265
  497MOL0     H68541   3.711  11.922   1.258 -0.7890 -4.8865  4.2696
  497MOL0     H68542   3.893  11.795   1.275 -2.1586  0.5742  0.6407
  497MOL0     H68543   3.829  11.683   1.145 -2.2878 -0.3077  0.6174
  497MOL0     H68544   4.094  11.941   0.902  2.5056  2.0173 -1.0032
  497MOL0     H68545   4.430  11.877   0.844  0.9568  0.3053  3.6047
  497MOL0     H68546   4.402  12.049   0.865  3.7926 -2.6828  1.3883
  497MOL0     H68547   4.284  11.934   0.777 -2.0118 -0.8926  2.0431
  497MOL0     H68548   4.713  11.926   1.470 -0.5244 -0.1694 -0.5374
  497MOL0     H68549   4.840  11.739   1.531 -1.8932  1.6883  1.8374
  497MOL0     H68550   4.730  11.481   1.529 -1.3805 -0.6775 -3.0415
  497MOL0     H68551   4.762  11.352   1.422 -0.6024  1.3433 -1.0540
  497MOL0     H68552   4.998  11.318   1.536 -1.5883 -1.8554  0.8089
  497MOL0     H68553   4.955  11.469   1.622  2.4270  0.3282 -0.5177
  497MOL0     H68554   4.784  11.208   1.644 -0.8538 -0.6493  1.7727
  497MOL0     H68555   4.782  11.353   1.736  1.3376  2.7535 -0.6921
  497MOL0     H68556   4.981  11.301   1.864 -4.7397  0.8215  2.0259
  497MOL0     H68557   5.048  11.216   1.727  3.3140 -0.1260  3.3517
  497MOL0     H68558   4.812  11.139   1.919  1.1108 -1.5562  1.6664
  497MOL0     H68559   4.872  11.036   1.779  2.3044  0.4792 -0.5236
  497MOL0     H68560   5.029  11.125   2.016 -1.1918  0.0042  0.6307
  497MOL0     H68561   5.095  11.021   1.892 -0.7045 -1.0756  0.1934
  497MOL0     H68562   4.877  10.872   1.989  0.2016 -0.2115  1.9214
  497MOL0     H68563   4.905  11.003   2.106  3.3536  4.5519 -0.2292
  497MOL0     H68564   5.133  10.919   2.138 -0.4110  2.1277 -2.9400
  497MOL0     H68565   5.116  10.786   2.025  2.7542  0.8256  1.3116
  497MOL0     H68566   4.726  11.524   1.169  1.9903  0.1860 -0.2345
  497MOL0     H68567   4.592  11.708   1.100  0.4023 -0.9755  0.5704
  497MOL0     H68568   4.325  11.911   1.332  0.6251 -0.4339 -1.2355
  497MOL0     H68569   4.090  11.861   1.321  1.2828  1.1555  1.5249
  497MOL0     H68570   3.035  11.003   0.978 -0.6440  0.7556  0.9975
  497MOL0     H68571   3.016  10.741   0.944  0.8228  0.5936 -0.5609
  497MOL0     H68572   2.666  10.494   0.766 -3.8023 -2.4742  0.1184
  497MOL0     H68573   2.561  10.271   0.791  0.1241  3.1377 -0.4991
  497MOL0     H68574   2.787   9.921   0.823 -0.4944 -1.2405 -0.1130
  497MOL0     H68575   2.688  10.034   0.917 -0.5629  1.7597 -1.0582
  497MOL0     H68576   2.479   9.908   0.855  0.3565 -1.0885 -0.0099
  497MOL0     H68577   2.597   9.803   0.946  1.5988 -2.2561 -1.6037
  497MOL0     H68578   2.543   9.815   0.657 -1.9831  0.9385  1.6859
  497MOL0     H68579   2.670   9.711   0.721 -0.4059 -0.5777 -2.5533
  497MOL0     H68580   2.379   9.703   0.775  1.7814  2.5288 -0.5514
  497MOL0     H68581   2.478   9.601   0.867  1.9322 -3.5964 -1.8351
  497MOL0     H68582   2.502   9.342   0.567 -2.5078  1.9907 -2.5618
  497MOL0     H68583   2.882  10.082   0.569  0.9352 -0.7780 -2.2320
  497MOL0     H68584   3.000  10.250   0.403  0.9286  0.0989  1.0350
  497MOL0     H68585   3.029  10.408   0.455  1.4842 -0.2574  0.0226
  497MOL0     H68586   3.093  10.256   0.549 -0.2390 -3.5718 -0.3441
  498MOL0     O68587   2.777   7.636   1.617  0.2595  0.0003  0.9218
  498MOL0     C68588   2.715   7.543   1.668  0.3880 -0.1044 -0.2856
  498MOL0     O68589   2.578   7.513   1.644 -1.0533  0.2670  0.0226
  498MOL0     C68590   2.494   7.600   1.583 -0.3914  0.3729  0.5632
  498MOL0     C68591   2.495   7.742   1.589 -0.3021  0.1988 -0.1168
  498MOL0     C68592   2.388   7.810   1.534  0.2845  0.6314  0.3897
  498MOL0     C68593   2.287   7.741   1.460 -0.2994 -0.2693  0.2323
  498MOL0     O68594   2.189   7.820   1.411  0.1978 -0.1310  0.2029
  498MOL0     C68595   2.050   7.772   1.422 -0.8371 -0.1292  0.5339
  498MOL0     C68596   1.935   7.879   1.390 -0.8302  0.0310  0.1938
  498MOL0     C68597   1.808   7.804   1.417  0.4564 -0.5060  0.8547
  498MOL0     C68598   1.684   7.897   1.440 -0.3423 -0.5081  0.7721
  498MOL0     C68599   1.550   7.839   1.399  0.1813 -0.1546 -0.5136
  498MOL0     C68600   1.440   7.948   1.383 -0.4692  0.8021  0.1141
  498MOL0     C68601   1.424   8.033   1.514 -0.0535 -0.7983  0.8377
  498MOL0     C68602   1.291   8.111   1.503 -0.3927 -0.2541  0.1709
  498MOL0     N68603   1.175   8.033   1.466 -0.6797 -0.1282 -0.7043
  498MOL0     C68604   1.134   7.910   1.520 -1.1988 -0.0191 -0.0937
  498MOL0     C68605   1.001   7.908   1.491 -0.3258 -0.6506  0.0696
  498MOL0     C68606   0.905   7.803   1.543  0.1593 -0.5201  0.1036
  498MOL0     C68607   0.876   7.814   1.685 -0.3827 -0.4221  0.2455
  498MOL0     C68608   0.758   7.721   1.720  0.4877 -0.2486 -0.5218
  498MOL0     C68609   0.727   7.721   1.868 -0.1672 -0.2067 -0.1981
  498MOL0     O68610   0.816   7.616   1.929 -0.5926 -0.2244  1.0037
  498MOL0     C68611   0.790   7.596   2.057  0.4911  0.8459 -0.7267
  498MOL0     C68612   0.885   7.517   2.123  0.5593 -0.1581 -0.3387
  498MOL0     C68613   0.868   7.458   2.255 -0.8782 -0.8129  0.4939
  498MOL0     C68614   0.964   7.346   2.305  0.4727 -0.2996  0.8872
  498MOL0     C68615   0.755   7.511   2.330  0.2622  0.4166  0.1772
  498MOL0     C68616   0.720   7.468   2.472 -0.6003 -0.1501 -0.0695
  498MOL0     O68617   0.695   7.571   2.562  0.2599 -0.1108 -0.5546
  498MOL0     C68618   0.658   7.546   2.682 -0.0780  0.2073  0.0732
  498MOL0     C68619   0.579   7.445   2.734  0.6787 -0.5593 -0.2436
  498MOL0     C68620   0.521   7.454   2.860  0.5056  0.7818 -0.2131
  498MOL0     C68621   0.546   7.568   2.937  0.3362  0.1874 -0.3030
  498MOL0     O68622   0.492   7.571   3.064 -0.4205  0.3251 -0.8594
  498MOL0     C68623   0.446   7.691   3.115  0.1178  0.4297 -0.2033
  498MOL0     C68624   0.419   7.670   3.265 -1.3301 -0.4244 -0.2119
  498MOL0     C68625   0.354   7.792   3.314 -0.1420 -0.3128 -0.3507
  498MOL0     C68626   0.309   7.776   3.455  0.6120  0.4346 -0.3660
  498MOL0     C68627   0.260   7.921   3.503 -0.1804 -0.5254  0.1708
  498MOL0     C68628   0.173   7.917   3.630 -0.2840 -0.1712 -0.2175
  498MOL0     C68629   0.271   7.872   3.746  0.4203 -0.9017  0.4633
  498MOL0     C68630   0.198   7.878   3.873 -1.1169  0.0017 -0.0687
  498MOL0    Cl68631   0.028   7.812   3.868  0.3177 -0.6347  0.1195
  498MOL0     C68632   0.617   7.675   2.886 -0.8829 -0.0790  0.7579
  498MOL0     C68633   0.675   7.663   2.759 -0.1305  0.4784  1.8069
  498MOL0     O68634   0.734   7.345   2.498  0.0544 -0.0952  0.0731
  498MOL0     C68635   0.672   7.605   2.265 -0.5126 -0.1884 -0.5356
  498MOL0     C68636   0.695   7.657   2.138  0.5583 -0.6144  0.2550
  498MOL0     N68637   0.976   8.000   1.390 -0.7175  0.2869  0.3783
  498MOL0     N68638   1.076   8.074   1.374  0.1154 -0.0530  0.8189
  498MOL0     C68639   2.287   7.599   1.452 -0.2206 -0.4618  0.1727
  498MOL0     C68640   2.390   7.531   1.514  0.1573 -0.4759  0.0806
  498MOL0     C68641   2.783   7.468   1.768 -0.0842  0.6640  0.2575
  498MOL0     C68642   2.702   7.413   1.880  0.3391 -0.1273  0.8094
  498MOL0     C68643   2.760   7.337   1.980 -0.8049 -0.2639  0.0871
  498MOL0     C68644   2.892   7.307   1.978  0.3821 -0.2819  0.7149
  498MOL0     O68645   2.964   7.237   2.067 -0.0863 -0.0665  0.0520
  498MOL0     C68646   2.937   7.259   2.206  0.3684  0.6036 -0.3690
  498MOL0     C68647   3.041   7.186   2.288 -0.5751 -0.5573  0.1974
  498MOL0     C68648   2.989   7.124   2.426  0.7801 -0.5771 -0.2322
  498MOL0     C68649   3.076   7.028   2.505  0.4050  0.7378  1.0743
  498MOL0     C68650   3.203   7.078   2.543 -0.2747  0.4299  0.9087
  498MOL0     C68651   3.298   7.137   2.586 -0.2058  0.9825 -0.5554
  498MOL0     C68652   2.967   7.358   1.871  0.4975  0.8002 -0.0220
  498MOL0     C68653   2.924   7.436   1.775  0.0206 -0.7388  1.0194
  498MOL0     C68654   3.011   7.467   1.654 -0.2330  0.5357  0.7660
  498MOL0     H68655   2.564   7.802   1.648 -1.5512  1.1795  0.3942
  498MOL0     H68656   2.376   7.918   1.529  0.7287  0.6956  0.6648
  498MOL0     H68657   2.030   7.728   1.520 -0.1534 -2.1606 -0.1911
  498MOL0     H68658   2.036   7.689   1.352 -3.2934  1.6839 -1.2799
  498MOL0     H68659   1.956   7.962   1.459  0.7015  0.4251 -0.6921
  498MOL0     H68660   1.949   7.911   1.287 -2.3053 -1.4456 -0.5135
  498MOL0     H68661   1.780   7.739   1.335 -1.4841  0.6719  0.5289
  498MOL0     H68662   1.817   7.753   1.513  4.4241 -0.7620  0.5043
  498MOL0     H68663   1.675   7.917   1.547 -0.5573 -4.0384  1.5214
  498MOL0     H68664   1.700   7.992   1.388  2.0498  0.5592  3.2233
  498MOL0     H68665   1.516   7.770   1.477  0.8985 -3.3210 -2.7748
  498MOL0     H68666   1.561   7.776   1.310  0.6524  1.1948 -1.4520
  498MOL0     H68667   1.474   8.017   1.305  2.2443 -1.1161 -0.5494
  498MOL0     H68668   1.341   7.916   1.347 -0.2071  0.8657 -0.6927
  498MOL0     H68669   1.511   8.096   1.533 -0.7499 -0.3271  2.6763
  498MOL0     H68670   1.408   7.967   1.600  0.5181 -0.7207  1.0062
  498MOL0     H68671   1.291   8.149   1.605  1.8285 -1.6918  0.7659
  498MOL0     H68672   1.305   8.195   1.435 -1.1826 -1.8761 -2.1309
  498MOL0     H68673   1.180   7.848   1.597 -1.3459 -2.0629 -1.5722
  498MOL0     H68674   0.944   7.702   1.531  0.4413 -0.4830  0.7014
  498MOL0     H68675   0.818   7.808   1.476 -0.1141 -2.1773  0.2987
  498MOL0     H68676   0.964   7.797   1.748  0.6446  1.9706 -0.4322
  498MOL0     H68677   0.849   7.915   1.715 -0.1894 -0.8909  2.1065
  498MOL0     H68678   0.671   7.759   1.666  1.9027  0.3765 -2.5126
  498MOL0     H68679   0.772   7.616   1.693  4.3859  0.4390 -1.8462
  498MOL0     H68680   0.748   7.822   1.905  0.8290  0.1879 -1.7546
  498MOL0     H68681   0.625   7.680   1.873  0.1354 -0.8320  1.2842
  498MOL0     H68682   0.979   7.495   2.072  1.0932 -0.1479  0.6013
  498MOL0     H68683   0.908   7.252   2.310  2.3660 -1.4726  0.9245
  498MOL0     H68684   1.015   7.386   2.393  2.6535  0.6282 -0.6895
  498MOL0     H68685   1.040   7.323   2.230 -0.3821 -2.6469  0.6666
  498MOL0     H68686   0.577   7.344   2.694  1.5768 -2.2413  3.5501
  498MOL0     H68687   0.465   7.375   2.909  1.0814  0.6517  0.2400
  498MOL0     H68688   0.515   7.775   3.103  0.3209 -0.0014 -2.4927
  498MOL0     H68689   0.354   7.722   3.065  0.3620  2.6316  0.5973
  498MOL0     H68690   0.344   7.591   3.279 -0.6719 -1.2358 -1.1290
  498MOL0     H68691   0.501   7.647   3.334 -2.2714  3.1954  2.4425
  498MOL0     H68692   0.262   7.821   3.262 -1.2785  0.9181  2.1881
  498MOL0     H68693   0.427   7.874   3.307 -0.1634 -0.3416 -1.0133
  498MOL0     H68694   0.395   7.738   3.510 -0.2066 -2.6049 -0.9996
  498MOL0     H68695   0.228   7.702   3.452  3.9648 -3.5499 -2.9139
  498MOL0     H68696   0.345   7.989   3.510  0.3278 -0.7802 -2.4983
  498MOL0     H68697   0.195   7.953   3.421  0.1833  0.1541  0.1408
  498MOL0     H68698   0.083   7.860   3.607  0.3075 -0.3038 -2.4634
  498MOL0     H68699   0.135   8.019   3.644 -0.6703 -0.3875  0.3369
  498MOL0     H68700   0.360   7.933   3.730 -0.9724  1.3707  1.0271
  498MOL0     H68701   0.304   7.770   3.725  3.5211  0.1880 -0.3823
  498MOL0     H68702   0.194   7.980   3.913 -1.0412 -0.6285  1.6238
  498MOL0     H68703   0.258   7.821   3.945  3.4269  3.9638 -0.2712
  498MOL0     H68704   0.642   7.771   2.930  1.6949 -0.5960  0.5884
  498MOL0     H68705   0.731   7.743   2.712  0.3914 -0.9442 -0.1009
  498MOL0     H68706   0.574   7.630   2.305  0.3216  1.0563  0.8519
  498MOL0     H68707   0.624   7.726   2.095  0.2960 -1.9812 -1.6302
  498MOL0     H68708   2.214   7.532   1.407 -0.7884  1.6312 -2.2962
  498MOL0     H68709   2.388   7.424   1.496 -0.8188 -0.2062 -1.7440
  498MOL0     H68710   2.594   7.423   1.889  0.1457 -0.0504 -1.1370
  498MOL0     H68711   2.712   7.319   2.075  0.9318 -0.3472  0.9929
  498MOL0     H68712   2.923   7.363   2.237 -0.2264  0.6444 -0.7452
  498MOL0     H68713   2.836   7.219   2.218 -0.7326  3.1169 -0.5075
  498MOL0     H68714   3.127   7.251   2.300 -1.9883  1.3437  0.4558
  498MOL0     H68715   3.061   7.093   2.234  1.9832  0.8964 -1.5725
  498MOL0     H68716   2.975   7.202   2.501 -1.4283 -0.4698 -0.7025
  498MOL0     H68717   2.891   7.078   2.410  1.4538 -3.1238  2.1574
  498MOL0     H68718   3.081   6.937   2.444  0.7353  2.9032 -2.4154
  498MOL0     H68719   3.015   6.997   2.591 -0.7048 -0.9727 -0.2668
  498MOL0     H68720   3.382   7.190   2.626  2.7411 -2.5486 -1.5440
  498MOL0     H68721   3.066   7.314   1.858  0.9133  0.0595  4.2484
  498MOL0     H68722   2.954   7.463   1.560  0.0156 -2.5696  0.6640
  498MOL0     H68723   3.042   7.572   1.660  2.3755 -0.1590  0.5414
  498MOL0     H68724   3.105   7.411   1.647  0.4093  1.7230 -1.1201
  499MOL0     O68725  10.324  11.254   7.046  0.3799 -1.1203  0.1038
  499MOL0     C68726  10.278  11.251   7.161 -0.0867  0.2021  0.4677
  499MOL0     O68727  10.196  11.156   7.219 -0.1223 -0.5503 -0.2957
  499MOL0     C68728  10.183  11.030   7.172  0.1631 -1.2887  0.9426
  499MOL0     C68729  10.078  10.957   7.230 -0.4092 -0.0723 -0.2645
  499MOL0     C68730  10.079  10.819   7.194 -0.2985 -0.3517  0.1910
  499MOL0     C68731  10.155  10.765   7.078 -1.1324 -0.0206  0.7889
  499MOL0     O68732  10.137  10.632   7.047 -0.2583 -0.6471 -0.0615
  499MOL0     C68733  10.236  10.559   6.975 -1.2840  1.4149  0.8101
  499MOL0     C68734  10.200  10.413   6.938  0.9244  0.0236  1.1337
  499MOL0     C68735  10.106  10.393   6.809 -0.4206 -0.4383 -0.2189
  499MOL0     C68736  10.119  10.245   6.758 -0.5613 -0.4284 -0.5735
  499MOL0     C68737  10.033  10.222   6.636  0.6086 -0.1355 -0.3846
  499MOL0     C68738  10.073  10.308   6.512 -0.3699 -0.0323 -1.5134
  499MOL0     C68739  10.208  10.258   6.466  0.3534 -0.8653  0.0462
  499MOL0     C68740  10.217  10.284   6.315 -0.4685 -0.0523  0.3217
  499MOL0     N68741  10.358  10.229   6.279 -0.3668  0.4373 -0.5703
  499MOL0     C68742  10.385  10.092   6.252  0.5972  1.1313  0.4556
  499MOL0     C68743  10.516  10.094   6.209 -0.1095  0.1160 -0.1339
  499MOL0     C68744  10.599   9.977   6.184  0.0376  0.7044 -0.2073
  499MOL0     C68745  10.735  10.011   6.109  0.5740  0.5971  0.2386
  499MOL0     C68746  10.807   9.895   6.040 -0.7911 -0.9739 -0.1026
  499MOL0     C68747  10.771   9.872   5.892 -0.4316 -0.5398  0.6130
  499MOL0     O68748  10.633   9.847   5.903  0.2407  0.1362 -1.1379
  499MOL0     C68749  10.546   9.863   5.806  0.2511  0.0317 -0.1772
  499MOL0     C68750  10.587   9.844   5.672  0.9771 -0.6619 -0.8517
  499MOL0     C68751  10.489   9.832   5.569  1.2149 -0.4187 -0.7067
  499MOL0     C68752  10.535   9.761   5.439  0.1476 -0.7088 -0.5557
  499MOL0     C68753  10.347   9.849   5.597  0.7637  0.0386 -0.3110
  499MOL0     C68754  10.235   9.826   5.497  0.6446 -0.6255  0.0362
  499MOL0     O68755  10.103   9.830   5.545 -0.3634 -0.2807 -0.4043
  499MOL0     C68756   9.993   9.781   5.477 -0.3729  1.8319  0.1065
  499MOL0     C68757   9.989   9.643   5.443  0.1847 -0.4659  0.4976
  499MOL0     C68758   9.883   9.603   5.361  0.9033 -0.3673 -0.1708
  499MOL0     C68759   9.780   9.688   5.324 -0.3468 -0.0931  0.1785
  499MOL0     O68760   9.680   9.652   5.236  0.4123 -0.1905 -0.3353
  499MOL0     C68761   9.661   9.520   5.195  0.7978  0.6337  0.8492
  499MOL0     C68762   9.581   9.546   5.061  0.3574 -0.0875  0.7712
  499MOL0     C68763   9.538   9.413   4.995  0.5127  0.2683  0.5394
  499MOL0     C68764   9.607   9.401   4.858  0.1426  0.7533 -0.3114
  499MOL0     C68765   9.600   9.261   4.788  0.1111 -0.5678 -0.1625
  499MOL0     C68766   9.477   9.182   4.789  1.1245  1.4967 -0.0626
  499MOL0     C68767   9.419   9.164   4.643 -0.1427 -0.0337 -0.1097
  499MOL0     C68768   9.280   9.083   4.637  0.8934  0.3091 -0.0972
  499MOL0    Cl68769   9.160   9.106   4.773  0.0557  0.1359 -0.5873
  499MOL0     C68770   9.778   9.820   5.371 -0.2776 -0.1622 -0.5128
  499MOL0     C68771   9.887   9.864   5.438 -0.4615 -0.1585 -1.0090
  499MOL0     O68772  10.263   9.782   5.387 -0.4790  0.2319 -0.2068
  499MOL0     C68773  10.313   9.886   5.732 -0.3195  0.7657 -0.4284
  499MOL0     C68774  10.409   9.891   5.834 -0.3559 -0.2277  0.2462
  499MOL0     N68775  10.559  10.222   6.203 -0.4714 -0.6651  0.2658
  499MOL0     N68776  10.463  10.307   6.238  0.7078  0.1424 -0.3380
  499MOL0     C68777  10.244  10.851   7.017  0.3893  0.3745  0.4694
  499MOL0     C68778  10.261  10.981   7.063 -0.0845  0.3445  1.3658
  499MOL0     C68779  10.296  11.376   7.250 -0.1494 -1.0324  0.4058
  499MOL0     C68780  10.288  11.358   7.397  0.9498  0.5829  0.0200
  499MOL0     C68781  10.312  11.465   7.489 -0.4765  0.6145  0.3476
  499MOL0     C68782  10.347  11.582   7.439 -0.5401  0.6828 -0.0153
  499MOL0     O68783  10.378  11.684   7.533  0.0457 -0.6187 -0.2701
  499MOL0     C68784  10.460  11.799   7.493  0.5268 -0.1314 -0.4262
  499MOL0     C68785  10.474  11.879   7.618 -0.4559  0.6460  0.4246
  499MOL0     C68786  10.522  12.025   7.593 -0.0009  0.5402  0.3090
  499MOL0     C68787  10.587  12.102   7.713  0.3812  0.1124 -0.1273
  499MOL0     C68788  10.714  12.157   7.679  1.0330 -0.1999  0.4863
  499MOL0     C68789  10.816  12.205   7.647 -0.5622  0.3534 -0.1007
  499MOL0     C68790  10.341  11.613   7.307  0.4832  0.0731  0.5704
  499MOL0     C68791  10.306  11.512   7.211 -0.1962  0.2977  0.2932
  499MOL0     C68792  10.309  11.553   7.063  0.6898 -0.5937 -1.0200
  499MOL0     H68793   9.997  10.993   7.294 -1.6330 -0.4443 -1.5625
  499MOL0     H68794  10.018  10.740   7.237 -1.4605  0.9458  1.0180
  499MOL0     H68795  10.325  10.545   7.036 -0.5419  3.0475  0.1665
  499MOL0     H68796  10.261  10.620   6.888 -3.3230  3.1457  1.3574
  499MOL0     H68797  10.296  10.377   6.900 -1.0728 -2.2393 -2.3289
  499MOL0     H68798  10.171  10.344   7.018 -3.7982 -1.9406 -1.8155
  499MOL0     H68799  10.005  10.418   6.841  0.8702  2.2680  2.1164
  499MOL0     H68800  10.144  10.456   6.728  1.0417  0.6964  1.2932
  499MOL0     H68801  10.224  10.219   6.744  0.3994  2.6821 -0.0008
  499MOL0     H68802  10.095  10.184   6.846  1.7770  0.8765  1.0899
  499MOL0     H68803   9.931  10.242   6.672  0.4242 -0.9255 -0.4290
  499MOL0     H68804  10.040  10.116   6.607 -2.0033  0.0653 -2.1706
  499MOL0     H68805  10.002  10.277   6.434 -0.5382 -0.5468 -1.1568
  499MOL0     H68806  10.075  10.417   6.516  2.5440 -0.0288 -1.3601
  499MOL0     H68807  10.221  10.151   6.490  2.3873 -0.3999  1.2458
  499MOL0     H68808  10.284  10.313   6.523  1.6269 -3.1955  0.7563
  499MOL0     H68809  10.134  10.238   6.261 -1.8899  1.0356  1.4897
  499MOL0     H68810  10.198  10.390   6.294  0.6338 -0.1159 -1.1425
  499MOL0     H68811  10.313  10.013   6.270  0.7026  1.1660  1.0730
  499MOL0     H68812  10.541   9.919   6.112  0.4582  0.7835 -0.6090
  499MOL0     H68813  10.615   9.909   6.269  2.2259  0.3163 -0.8658
  499MOL0     H68814  10.726  10.089   6.033  0.7779 -1.1786 -1.6714
  499MOL0     H68815  10.797  10.044   6.193  0.8385 -0.1198  0.3319
  499MOL0     H68816  10.915   9.911   6.041 -0.9680  1.0194 -2.7578
  499MOL0     H68817  10.790   9.804   6.099  5.0412 -1.3213  1.6849
  499MOL0     H68818  10.784   9.964   5.834  0.5160  0.0896  1.7951
  499MOL0     H68819  10.823   9.780   5.863  0.9421  0.6071 -0.6773
  499MOL0     H68820  10.693   9.827   5.658  1.0516  0.6310 -2.1480
  499MOL0     H68821  10.641   9.735   5.445  0.2733 -0.9482 -2.8212
  499MOL0     H68822  10.498   9.829   5.362 -0.1132 -1.0027 -0.6932
  499MOL0     H68823  10.480   9.669   5.416 -2.3883  0.2514  1.1742
  499MOL0     H68824  10.070   9.575   5.465  0.3176  0.1277  1.9514
  499MOL0     H68825   9.880   9.500   5.326  1.4450 -0.2597 -0.5492
  499MOL0     H68826   9.751   9.461   5.179 -0.1551 -0.5084 -0.5417
  499MOL0     H68827   9.589   9.473   5.263 -2.7434  0.4473 -2.6644
  499MOL0     H68828   9.487   9.601   5.074 -0.6649 -1.2530 -1.1813
  499MOL0     H68829   9.632   9.609   4.988 -1.9170  1.1978  0.1772
  499MOL0     H68830   9.431   9.423   4.976  0.9667  2.3942 -1.2437
  499MOL0     H68831   9.546   9.328   5.064  2.3404 -0.4561 -0.4811
  499MOL0     H68832   9.712   9.432   4.857 -0.1894  1.9322 -0.8878
  499MOL0     H68833   9.547   9.468   4.795 -0.9959 -0.7780 -0.9303
  499MOL0     H68834   9.627   9.290   4.686 -1.6372  3.4575  0.3521
  499MOL0     H68835   9.666   9.184   4.830  1.5612 -0.3353 -1.8630
  499MOL0     H68836   9.391   9.228   4.837  0.2910  0.5433 -0.6088
  499MOL0     H68837   9.492   9.086   4.840 -0.0115  1.2689 -0.1345
  499MOL0     H68838   9.482   9.117   4.566 -1.9932 -1.9307 -0.5709
  499MOL0     H68839   9.395   9.263   4.604 -0.9452 -0.2854 -0.2976
  499MOL0     H68840   9.307   8.977   4.639  2.9506  0.7626  3.5364
  499MOL0     H68841   9.221   9.102   4.547 -1.0278 -2.1210  0.5282
  499MOL0     H68842   9.712   9.898   5.334  2.8768  1.8393 -2.4083
  499MOL0     H68843   9.882   9.969   5.465 -3.8232 -1.0693  2.9545
  499MOL0     H68844  10.209   9.903   5.759  0.6280  2.0682  2.9166
  499MOL0     H68845  10.381   9.892   5.938 -1.0796  0.2550  0.0531
  499MOL0     H68846  10.293  10.821   6.924  0.9600  0.5298  0.7175
  499MOL0     H68847  10.344  11.030   7.012 -0.0177 -1.2467 -0.1575
  499MOL0     H68848  10.273  11.256   7.429  1.4366  0.6497  0.4819
  499MOL0     H68849  10.304  11.452   7.597 -0.5544 -3.5759 -0.0169
  499MOL0     H68850  10.561  11.769   7.464 -0.0261 -0.8341 -1.7307
  499MOL0     H68851  10.406  11.849   7.412  0.3992 -1.4011 -1.1405
  499MOL0     H68852  10.544  11.830   7.687 -1.6016 -0.4489  0.8547
  499MOL0     H68853  10.373  11.881   7.658 -1.3410 -1.1701 -1.5290
  499MOL0     H68854  10.574  12.037   7.498  1.5008 -1.1479  0.8656
  499MOL0     H68855  10.428  12.082   7.582 -2.3024 -2.5185  2.4404
  499MOL0     H68856  10.603  12.032   7.796 -2.4755  0.8909  1.1964
  499MOL0     H68857  10.515  12.171   7.757 -3.5105 -1.2868 -3.7232
  499MOL0     H68858  10.912  12.242   7.615 -0.7245 -0.1014 -1.1607
  499MOL0     H68859  10.345  11.714   7.268 -1.6705 -1.4944 -4.5748
  499MOL0     H68860  10.406  11.552   7.014  1.3886  0.6467  0.2464
  499MOL0     H68861  10.231  11.499   7.008 -0.7376  1.8573 -1.5561
  499MOL0     H68862  10.288  11.660   7.057  2.6506 -0.2030 -1.5275
  500MOL0     O68863   8.629  10.301   0.537 -0.0526 -0.3498  0.3215
  500MOL0     C68864   8.725  10.369   0.485 -1.0035 -0.2248  0.5411
  500MOL0     O68865   8.861  10.366   0.524  1.0694  0.3971 -0.4951
  500MOL0     C68866   8.900  10.275   0.618 -0.3685 -0.1320  0.9168
  500MOL0     C68867   8.926  10.145   0.568 -0.2086 -0.1288  0.2520
  500MOL0     C68868   8.973  10.048   0.654  0.9922  0.7709  0.3386
  500MOL0     C68869   8.994  10.079   0.790  0.4847 -1.0510 -0.0589
  500MOL0     O68870   9.031   9.989   0.881 -0.2722  0.4217 -0.0473
  500MOL0     C68871   8.932   9.914   0.940 -0.6056 -0.0704  0.4354
  500MOL0     C68872   8.819   9.986   1.021 -0.4130  0.4118  0.0674
  500MOL0     C68873   8.729   9.884   1.093  0.9039 -0.0002 -0.0214
  500MOL0     C68874   8.633   9.811   0.985  0.0223 -1.1830 -0.2404
  500MOL0     C68875   8.515   9.764   1.061 -0.4930 -0.6632  0.7734
  500MOL0     C68876   8.412   9.891   1.075  0.9136  0.6432 -0.4219
  500MOL0     C68877   8.298   9.841   1.171  0.9531  0.4228 -1.2907
  500MOL0     C68878   8.215   9.957   1.239 -0.3295 -0.3242  0.6523
  500MOL0     N68879   8.136  10.040   1.142 -0.2869 -1.0570  0.1330
  500MOL0     C68880   8.172  10.168   1.091 -0.5944  0.3318 -0.5344
  500MOL0     C68881   8.097  10.192   0.991  0.6623 -0.9131 -0.1533
  500MOL0     C68882   8.105  10.297   0.877 -0.6619 -0.3269  1.1024
  500MOL0     C68883   8.144  10.228   0.735  0.4241  0.7751 -0.6416
  500MOL0     C68884   8.292  10.176   0.733  0.2174  0.1795 -0.9109
  500MOL0     C68885   8.352  10.127   0.597  1.0349  0.7078  1.2376
  500MOL0     O68886   8.269  10.017   0.563 -0.2195 -0.9600 -0.1503
  500MOL0     C68887   8.327   9.895   0.577  0.7515  0.4130  0.3856
  500MOL0     C68888   8.285   9.814   0.678  0.3206  0.1868  0.4179
  500MOL0     C68889   8.323   9.680   0.717 -1.3507 -0.0036 -0.4879
  500MOL0     C68890   8.244   9.594   0.816 -0.5126 -0.1734 -0.6302
  500MOL0     C68891   8.450   9.640   0.658  0.3228 -0.0263 -0.2982
  500MOL0     C68892   8.526   9.519   0.702 -0.2636 -1.4244  0.0453
  500MOL0     O68893   8.631   9.489   0.621  0.2758  0.0444 -0.8523
  500MOL0     C68894   8.636   9.369   0.563  0.8161  0.9389 -0.2187
  500MOL0     C68895   8.569   9.241   0.592  0.1115  0.1609 -0.2694
  500MOL0     C68896   8.602   9.128   0.510  0.8522 -0.4480 -0.6287
  500MOL0     C68897   8.700   9.137   0.412 -0.4719  0.7949 -0.0298
  500MOL0     O68898   8.721   9.040   0.321  0.3833 -0.3632 -0.1612
  500MOL0     C68899   8.678   8.904   0.344  0.3208 -0.5906  0.2276
  500MOL0     C68900   8.775   8.808   0.287  0.4046 -0.7387  0.7839
  500MOL0     C68901   8.729   8.664   0.310 -0.4540  0.7855 -1.0962
  500MOL0     C68902   8.759   8.611   0.456 -0.1275  0.5084 -0.1357
  500MOL0     C68903   8.721   8.456   0.448  0.5352  0.3047 -1.0970
  500MOL0     C68904   8.775   8.387   0.573 -0.3029  0.2448  0.7751
  500MOL0     C68905   8.746   8.234   0.573 -0.3043  0.0702  0.7464
  500MOL0     C68906   8.817   8.151   0.674 -0.8125 -0.3622  0.4817
  500MOL0    Cl68907   9.000   8.174   0.668  0.2509  0.1126  0.7542
  500MOL0     C68908   8.769   9.256   0.392  0.2960  0.7887 -0.7742
  500MOL0     C68909   8.722   9.365   0.456  1.4499 -1.0594  0.0830
  500MOL0     O68910   8.500   9.462   0.806 -0.5709  0.6159 -0.4421
  500MOL0     C68911   8.494   9.719   0.552 -0.4940 -0.1342  0.7954
  500MOL0     C68912   8.440   9.844   0.516  0.4403 -0.2633 -0.5705
  500MOL0     N68913   8.008  10.084   0.978  0.7553 -0.3704 -0.2374
  500MOL0     N68914   8.023  10.008   1.085 -0.8527  0.1004  0.2340
  500MOL0     C68915   8.982  10.217   0.832 -0.7952 -0.3488  0.0557
  500MOL0     C68916   8.918  10.312   0.751 -0.3662  0.2235 -0.3440
  500MOL0     C68917   8.681  10.469   0.382 -1.0913  0.2613  0.0490
  500MOL0     C68918   8.710  10.599   0.410 -0.3387 -0.4094 -0.2883
  500MOL0     C68919   8.655  10.702   0.337  0.3161 -0.3509  0.0941
  500MOL0     C68920   8.572  10.670   0.226 -0.1047 -1.1244 -0.3530
  500MOL0     O68921   8.522  10.762   0.135 -1.1559 -0.2255 -0.5810
  500MOL0     C68922   8.452  10.880   0.172  1.6279  0.6743 -0.3251
  500MOL0     C68923   8.315  10.839   0.226 -0.4188  0.2681 -0.7575
  500MOL0     C68924   8.219  10.778   0.120  0.9037 -0.1463 -0.2001
  500MOL0     C68925   8.205  10.885   0.016  0.1170 -0.4733 -0.5672
  500MOL0     C68926   8.101  10.852  -0.080 -0.1721 -0.0646  0.0389
  500MOL0     C68927   8.016  10.834  -0.163  0.0095 -0.0683 -0.2649
  500MOL0     C68928   8.561  10.530   0.190  1.1776  0.1928 -0.3709
  500MOL0     C68929   8.609  10.429   0.271  0.5345  0.0828 -0.3160
  500MOL0     C68930   8.596  10.285   0.230 -0.5002  0.3155 -0.4261
  500MOL0     H68931   8.917  10.131   0.461 -1.9624 -0.3320  0.3858
  500MOL0     H68932   9.001   9.944   0.636 -1.3421 -0.0839  1.3730
  500MOL0     H68933   8.970   9.826   0.993 -1.1662 -1.5252 -1.4454
  500MOL0     H68934   8.879   9.877   0.852 -2.9028  2.2794  0.7164
  500MOL0     H68935   8.873  10.044   1.097  0.8631 -1.2050  0.4582
  500MOL0     H68936   8.758  10.054   0.960 -0.0587  0.7592  0.0939
  500MOL0     H68937   8.789   9.801   1.132  1.9027  0.0252 -1.4462
  500MOL0     H68938   8.688   9.936   1.180  0.8370 -0.4129  0.1971
  500MOL0     H68939   8.616   9.877   0.899  3.1305  1.9589  1.3122
  500MOL0     H68940   8.685   9.728   0.937 -3.1474 -2.7379 -1.3241
  500MOL0     H68941   8.544   9.713   1.153 -3.1916 -0.5748  1.7718
  500MOL0     H68942   8.464   9.694   0.995 -1.7485  2.0936 -1.4094
  500MOL0     H68943   8.460   9.975   1.127  1.6143  0.8030 -1.3113
  500MOL0     H68944   8.362   9.934   0.988 -1.9225  0.8232  1.1728
  500MOL0     H68945   8.338   9.799   1.264 -2.9663  0.2122  0.4826
  500MOL0     H68946   8.226   9.771   1.128  0.0369  1.0947 -0.8801
  500MOL0     H68947   8.151   9.904   1.311  0.7430 -2.2432  0.2648
  500MOL0     H68948   8.276  10.035   1.286  0.8738  0.1672 -1.6027
  500MOL0     H68949   8.257  10.230   1.115 -0.0762 -0.5782  0.0311
  500MOL0     H68950   8.173  10.376   0.910 -1.3268  0.5862  0.3687
  500MOL0     H68951   8.015  10.358   0.859 -0.8549 -0.6831  0.8487
  500MOL0     H68952   8.076  10.151   0.697  3.9153 -2.2071 -1.3886
  500MOL0     H68953   8.149  10.314   0.668  3.4039  0.5649 -0.8379
  500MOL0     H68954   8.343  10.264   0.772 -0.0032  0.8824 -2.1487
  500MOL0     H68955   8.306  10.087   0.794  0.0062  1.4484  1.0818
  500MOL0     H68956   8.353  10.204   0.520 -0.2395 -1.1098 -0.7258
  500MOL0     H68957   8.458  10.097   0.604  0.3031 -2.3141  0.8155
  500MOL0     H68958   8.203   9.850   0.739 -0.3404  3.0372 -1.9389
  500MOL0     H68959   8.265   9.488   0.803  1.4586  0.2822 -1.5842
  500MOL0     H68960   8.138   9.616   0.799 -0.3367  0.3790 -1.0213
  500MOL0     H68961   8.267   9.619   0.920 -1.3652 -1.1317 -0.1952
  500MOL0     H68962   8.501   9.233   0.676  2.5077  0.0368  1.7628
  500MOL0     H68963   8.549   9.036   0.534  1.8183 -0.5306  1.4197
  500MOL0     H68964   8.666   8.889   0.452 -2.3525 -0.3440  0.0252
  500MOL0     H68965   8.578   8.902   0.299 -0.0647  1.0635  0.9324
  500MOL0     H68966   8.771   8.822   0.179 -0.3685 -0.1475  0.8782
  500MOL0     H68967   8.877   8.813   0.325  1.4263 -0.7313 -1.7801
  500MOL0     H68968   8.787   8.603   0.241 -0.5698 -2.1675  1.1997
  500MOL0     H68969   8.623   8.643   0.294 -0.8527  2.0844 -0.2830
  500MOL0     H68970   8.701   8.662   0.534 -1.1365 -1.0360  0.1463
  500MOL0     H68971   8.865   8.625   0.479  1.2166 -1.9508 -3.9946
  500MOL0     H68972   8.613   8.444   0.436  0.3523  0.2396  0.3766
  500MOL0     H68973   8.779   8.419   0.364 -0.7996 -2.3879 -0.9285
  500MOL0     H68974   8.727   8.432   0.660  1.8587 -0.5992  2.5119
  500MOL0     H68975   8.882   8.404   0.585 -0.1715 -0.1262  0.1825
  500MOL0     H68976   8.779   8.190   0.478  0.7670 -2.2107  2.0720
  500MOL0     H68977   8.640   8.209   0.577  0.0542 -2.1016 -1.0849
  500MOL0     H68978   8.800   8.051   0.633 -4.8688 -0.2723  1.5734
  500MOL0     H68979   8.771   8.162   0.772  0.4387  2.0536  0.8784
  500MOL0     H68980   8.841   9.274   0.313  0.4862  1.4566 -0.4601
  500MOL0     H68981   8.765   9.460   0.427  0.1463 -1.1033 -2.2693
  500MOL0     H68982   8.582   9.697   0.492  0.8772  0.6561  2.4247
  500MOL0     H68983   8.485   9.895   0.431  0.8752  0.3627  0.0291
  500MOL0     H68984   9.000  10.235   0.938 -0.3198 -2.4747  0.3677
  500MOL0     H68985   8.894  10.414   0.780  0.2262  0.9029 -2.0957
  500MOL0     H68986   8.768  10.626   0.498 -1.0320  1.2134 -0.2821
  500MOL0     H68987   8.669  10.805   0.365  2.3133 -0.6677  0.3867
  500MOL0     H68988   8.487  10.924   0.265 -1.9428 -2.4481  2.8580
  500MOL0     H68989   8.443  10.949   0.088  0.2381 -0.8653 -1.5108
  500MOL0     H68990   8.265  10.931   0.257 -1.2777  1.1633 -4.3356
  500MOL0     H68991   8.333  10.788   0.321  3.0990  4.1395  0.9838
  500MOL0     H68992   8.261  10.687   0.076  1.1004 -0.7995  1.2658
  500MOL0     H68993   8.122  10.740   0.154 -0.0886 -0.1933 -2.8355
  500MOL0     H68994   8.301  10.894  -0.036  1.2095  2.3407  1.7085
  500MOL0     H68995   8.174  10.978   0.064 -0.7699 -1.9306  1.8918
  500MOL0     H68996   7.944  10.821  -0.242 -2.0563  0.9234  1.3661
  500MOL0     H68997   8.496  10.503   0.107  1.0859  1.9265 -0.9017
  500MOL0     H68998   8.521  10.245   0.298  0.1359  3.0860  2.1109
  500MOL0     H68999   8.568  10.277   0.125 -1.2206  4.4004 -0.7270
  500MOL0     H69000   8.689  10.230   0.249 -0.4029  0.3624 -0.7662
  501MOL0     O69001   1.276   0.304  10.505  0.4141  0.5416  0.2929
  501MOL0     C69002   1.374   0.270  10.442 -0.3190 -0.3804 -0.5719
  501MOL0     O69003   1.396   0.303  10.317 -0.0388  0.1085 -0.3951
  501MOL0     C69004   1.295   0.377  10.252 -0.1874 -0.3312  0.1663
  501MOL0     C69005   1.282   0.519  10.288 -0.2048  0.6093  0.3376
  501MOL0     C69006   1.191   0.602  10.205  0.5202 -0.3485  0.2444
  501MOL0     C69007   1.123   0.533  10.096 -0.9981 -0.6575  0.7908
  501MOL0     O69008   1.029   0.609  10.029 -0.1428 -0.0572 -0.2865
  501MOL0     C69009   0.901   0.594  10.086 -0.2643  0.9111 -0.1798
  501MOL0     C69010   0.793   0.685  10.018 -0.1325 -0.3843  0.9009
  501MOL0     C69011   0.761   0.624   9.877  1.3770 -0.6202  0.1787
  501MOL0     C69012   0.696   0.731   9.784 -0.2094  0.7782 -0.1691
  501MOL0     C69013   0.541   0.744   9.818 -0.0464 -0.5347  0.5985
  501MOL0     C69014   0.492   0.887   9.853 -0.1287  0.1003 -0.3791
  501MOL0     C69015   0.359   0.876   9.913  0.9253  0.6832 -1.2479
  501MOL0     C69016   0.268   0.998   9.890 -0.0900 -0.3526  0.4289
  501MOL0     N69017   0.133   0.982   9.941  0.1629 -0.0406  0.1933
  501MOL0     C69018   0.086   1.022  10.069 -0.2679 -0.3158 -0.1738
  501MOL0     C69019  -0.037   0.961  10.068  0.2457 -0.3011  0.1200
  501MOL0     C69020  -0.127   0.949  10.188 -0.0603  0.2357 -0.4476
  501MOL0     C69021  -0.270   0.990  10.162 -0.1179 -0.1503  0.1734
  501MOL0     C69022  -0.366   0.962  10.289  0.2958  0.1120  0.2565
  501MOL0     C69023  -0.506   0.992  10.252 -0.2899 -0.1482  0.3588
  501MOL0     O69024  -0.544   0.894  10.160 -0.1605  0.3640 -0.0773
  501MOL0     C69025  -0.603   0.772  10.196  0.3399  0.3913  0.4682
  501MOL0     C69026  -0.649   0.756  10.319 -0.9041  1.0917 -0.7819
  501MOL0     C69027  -0.721   0.643  10.363 -0.2332  0.4733  0.6474
  501MOL0     C69028  -0.780   0.650  10.503  0.4880 -0.1628  0.2763
  501MOL0     C69029  -0.740   0.532  10.282 -0.1575 -0.6272  0.2755
  501MOL0     C69030  -0.794   0.403  10.334 -0.2660 -0.5255 -0.5070
  501MOL0     O69031  -0.892   0.345  10.252 -0.2178 -0.2014 -0.5191
  501MOL0     C69032  -0.947   0.234  10.307  0.7421 -0.4448 -0.0779
  501MOL0     C69033  -0.892   0.106  10.282  0.1054  0.2959 -0.3189
  501MOL0     C69034  -0.943   0.001  10.360  0.4256  0.0207  0.8819
  501MOL0     C69035  -1.069   0.003  10.420  0.4638 -0.1618  0.1479
  501MOL0     O69036  -1.128  -0.101  10.481  1.0233 -0.7200 -0.2003
  501MOL0     C69037  -1.269  -0.113  10.494  0.8671 -0.0345  0.5079
  501MOL0     C69038  -1.288  -0.083  10.637 -0.3178  1.0235  0.0241
  501MOL0     C69039  -1.432  -0.055  10.669  0.0759  0.2027 -0.5239
  501MOL0     C69040  -1.474  -0.106  10.811  0.6178 -0.3416 -0.1544
  501MOL0     C69041  -1.626  -0.095  10.827  0.4298 -0.9647  0.0823
  501MOL0     C69042  -1.700  -0.158  10.945  1.1534 -1.2331 -0.2718
  501MOL0     C69043  -1.646  -0.133  11.081  0.0516  0.2827  0.4662
  501MOL0     C69044  -1.634  -0.258  11.170 -0.8337 -0.0842 -0.4319
  501MOL0    Cl69045  -1.564  -0.224  11.327 -0.0477 -0.2956 -0.0752
  501MOL0     C69046  -1.122   0.135  10.431  0.0294  0.6292 -0.7737
  501MOL0     C69047  -1.062   0.250  10.381  1.0877  0.5783 -0.4823
  501MOL0     O69048  -0.745   0.355  10.438  0.2867  0.0061  0.8628
  501MOL0     C69049  -0.686   0.542  10.148  0.2710 -0.3298 -0.2725
  501MOL0     C69050  -0.635   0.667  10.105  0.1632  0.1989  1.1371
  501MOL0     N69051  -0.070   0.903   9.949 -0.3357 -0.1654 -0.1489
  501MOL0     N69052   0.030   0.924   9.868 -0.5929  0.3398 -0.0799
  501MOL0     C69053   1.147   0.400  10.066  0.3214 -0.8917  1.0547
  501MOL0     C69054   1.233   0.328  10.146  0.2847  0.8997  0.2297
  501MOL0     C69055   1.452   0.165  10.503  1.0710 -0.1649 -0.2302
  501MOL0     C69056   1.388   0.077  10.597  0.2978 -0.0636  0.5170
  501MOL0     C69057   1.468  -0.017  10.661 -0.3836  0.0491  0.4764
  501MOL0     C69058   1.597  -0.032  10.640 -0.2219 -0.1494  0.3292
  501MOL0     O69059   1.685  -0.123  10.704 -0.0496  0.5504  0.9301
  501MOL0     C69060   1.671  -0.140  10.853  0.3952  1.1631  0.3608
  501MOL0     C69061   1.691  -0.011  10.935  1.0006  1.7155  0.2638
  501MOL0     C69062   1.820   0.068  10.901  0.0824 -0.3151  0.2325
  501MOL0     C69063   1.942  -0.019  10.947 -0.2658  0.6227 -0.0927
  501MOL0     C69064   1.956  -0.029  11.095  0.0568 -0.1704 -0.5769
  501MOL0     C69065   1.963  -0.030  11.215  0.2287  0.5402 -0.5317
  501MOL0     C69066   1.655   0.049  10.543 -0.5688  0.4289 -0.2604
  501MOL0     C69067   1.589   0.145  10.476  1.4355  0.5806  0.1749
  501MOL0     C69068   1.674   0.231  10.382  0.4889  0.1797 -0.3035
  501MOL0     H69069   1.344   0.562  10.366  2.1139  3.1995 -2.6935
  501MOL0     H69070   1.177   0.709  10.222  1.0699 -0.3444  0.6955
  501MOL0     H69071   0.910   0.626  10.191 -3.7207 -1.9370  1.2054
  501MOL0     H69072   0.860   0.493  10.086 -0.0740  0.8341 -0.7368
  501MOL0     H69073   0.710   0.711  10.084 -0.2485  0.8547  0.2960
  501MOL0     H69074   0.845   0.779   9.997  2.0586 -1.0611  2.8635
  501MOL0     H69075   0.858   0.588   9.841  0.3995 -1.6536 -1.5829
  501MOL0     H69076   0.693   0.539   9.893  1.5677 -0.6125  1.0897
  501MOL0     H69077   0.741   0.831   9.780  0.9350  0.2567 -0.7745
  501MOL0     H69078   0.703   0.695   9.681  0.3673 -1.1555  0.5047
  501MOL0     H69079   0.508   0.676   9.898  2.0592  1.2261  3.1592
  501MOL0     H69080   0.498   0.703   9.726 -1.1343 -3.3826  2.2371
  501MOL0     H69081   0.564   0.928   9.924  0.9652 -3.3936  0.7282
  501MOL0     H69082   0.476   0.950   9.764 -0.2773 -0.2260 -0.5843
  501MOL0     H69083   0.377   0.866  10.021  2.3575 -1.8820 -1.6453
  501MOL0     H69084   0.314   0.784   9.877  1.5685 -1.4233  2.6914
  501MOL0     H69085   0.315   1.086   9.933 -0.8552  1.6039 -2.4721
  501MOL0     H69086   0.262   1.020   9.783  0.9154  0.3082  0.5009
  501MOL0     H69087   0.132   1.063  10.158 -1.4829  0.1263  0.2731
  501MOL0     H69088  -0.091   1.022  10.261 -1.2143 -2.3803  3.0453
  501MOL0     H69089  -0.119   0.851  10.236 -0.6580  1.3128  2.0135
  501MOL0     H69090  -0.279   1.095  10.130 -0.6274 -1.0667 -3.1080
  501MOL0     H69091  -0.304   0.927  10.079  2.6619  0.5815 -1.6964
  501MOL0     H69092  -0.355   0.857  10.316  1.8090 -0.2417 -1.5038
  501MOL0     H69093  -0.342   1.025  10.375  1.9300 -0.5993  0.3624
  501MOL0     H69094  -0.572   0.999  10.339 -0.9055 -0.4781 -0.0760
  501MOL0     H69095  -0.517   1.089  10.203  0.9219  0.2564  0.8558
  501MOL0     H69096  -0.645   0.835  10.394  0.2267  1.6331 -1.3878
  501MOL0     H69097  -0.862   0.579  10.513  1.6368 -1.8658 -1.5955
  501MOL0     H69098  -0.808   0.751  10.534  2.0569  0.7136 -1.0342
  501MOL0     H69099  -0.702   0.618  10.573  0.5347  0.3376  0.4548
  501MOL0     H69100  -0.813   0.088  10.209 -1.3175 -3.8558 -1.1122
  501MOL0     H69101  -0.888  -0.092  10.356  0.1271 -0.1120 -0.2899
  501MOL0     H69102  -1.315  -0.042  10.425  1.8463  0.9220  0.8088
  501MOL0     H69103  -1.298  -0.216  10.470 -1.1691  0.3291  1.2979
  501MOL0     H69104  -1.244  -0.169  10.689 -1.6800  0.6460  0.5990
  501MOL0     H69105  -1.222  -0.001  10.665 -0.2953  1.6082 -1.6129
  501MOL0     H69106  -1.491  -0.108  10.594  0.5282  0.5317 -1.1146
  501MOL0     H69107  -1.462   0.050  10.663 -1.3264 -0.0707  1.0798
  501MOL0     H69108  -1.427  -0.056  10.896  0.4112 -1.3121  0.5599
  501MOL0     H69109  -1.439  -0.210  10.819 -1.9101 -1.1108  3.0266
  501MOL0     H69110  -1.647   0.010  10.847 -0.7458 -1.1122 -0.3114
  501MOL0     H69111  -1.685  -0.137  10.745  2.5404  1.3575 -2.8586
  501MOL0     H69112  -1.697  -0.266  10.930  1.2549 -1.4391  1.0981
  501MOL0     H69113  -1.800  -0.114  10.941  1.1105 -1.4415 -1.7763
  501MOL0     H69114  -1.699  -0.051  11.130  2.2135  2.5414 -0.7368
  501MOL0     H69115  -1.545  -0.093  11.071 -0.2716  0.4525 -3.4476
  501MOL0     H69116  -1.572  -0.342  11.140 -1.6688 -2.6752  4.1362
  501MOL0     H69117  -1.730  -0.308  11.183  0.8354 -3.3337  0.3520
  501MOL0     H69118  -1.197   0.151  10.508  1.4081 -0.4324  0.8628
  501MOL0     H69119  -1.087   0.355  10.397  5.3982  2.1511 -2.6090
  501MOL0     H69120  -0.702   0.462  10.076  0.5013  0.6378 -1.4226
  501MOL0     H69121  -0.602   0.671  10.002 -1.7124 -0.2394  0.4742
  501MOL0     H69122   1.087   0.353   9.989  0.0404  2.5371 -1.0282
  501MOL0     H69123   1.239   0.226  10.110 -2.4127  0.8452 -0.3206
  501MOL0     H69124   1.282   0.065  10.616  0.7301 -1.9992  1.9770
  501MOL0     H69125   1.432  -0.090  10.733  0.6914 -0.9073  0.0621
  501MOL0     H69126   1.574  -0.186  10.873  0.1679  2.1681  1.7133
  501MOL0     H69127   1.746  -0.215  10.879 -0.5625 -0.3009 -0.9468
  501MOL0     H69128   1.703  -0.051  11.037  0.1627  0.3058 -0.1601
  501MOL0     H69129   1.601   0.050  10.930  0.6198  1.3231  1.6394
  501MOL0     H69130   1.830   0.089  10.794  1.7420 -0.6691  0.2892
  501MOL0     H69131   1.815   0.161  10.959  0.9546 -1.3162  2.0018
  501MOL0     H69132   2.027   0.031  10.900 -2.5917  3.4293 -1.6392
  501MOL0     H69133   1.936  -0.118  10.902 -0.9998 -0.8214  2.9431
  501MOL0     H69134   1.953  -0.035  11.321 -0.4111  1.8986 -0.5136
  501MOL0     H69135   1.759   0.032  10.515  0.3701  3.1919  1.0878
  501MOL0     H69136   1.777   0.194  10.384  0.4971  0.2165  0.1217
  501MOL0     H69137   1.650   0.231  10.275 -0.0073  0.3245 -0.1960
  501MOL0     H69138   1.683   0.336  10.411  5.3763 -0.1354  0.1239
  502MOL0     O69139   8.090   4.912   2.341 -0.5657 -0.4398  0.0738
  502MOL0     C69140   8.184   4.849   2.292  0.3577 -0.0625  0.0382
  502MOL0     O69141   8.178   4.729   2.206 -0.6508  0.1131 -0.4466
  502MOL0     C69142   8.054   4.678   2.211  0.5238  0.1477  0.6169
  502MOL0     C69143   8.019   4.561   2.280  0.0533 -0.5032  0.1176
  502MOL0     C69144   7.879   4.522   2.289 -0.9169 -0.6290 -0.0102
  502MOL0     C69145   7.785   4.611   2.238  0.0672  0.0261 -0.4407
  502MOL0     O69146   7.651   4.583   2.248  0.1334 -0.1872 -0.4138
  502MOL0     C69147   7.609   4.447   2.275  0.5455  0.8138  0.2536
  502MOL0     C69148   7.452   4.436   2.249  0.1009 -0.5961  0.2690
  502MOL0     C69149   7.370   4.560   2.314  0.6981  0.0585 -0.3827
  502MOL0     C69150   7.215   4.525   2.351  0.6656  0.5732  0.5539
  502MOL0     C69151   7.129   4.488   2.224 -0.3685 -1.1311 -0.3615
  502MOL0     C69152   6.989   4.445   2.278  0.5023  0.2361  0.0288
  502MOL0     C69153   6.883   4.400   2.180  1.4539  0.4228 -0.1898
  502MOL0     C69154   6.748   4.349   2.235 -0.3016 -0.1588  0.3162
  502MOL0     N69155   6.658   4.450   2.297  0.0251  0.0848  0.2235
  502MOL0     C69156   6.598   4.559   2.232 -0.0270 -0.1889 -0.2705
  502MOL0     C69157   6.499   4.592   2.317 -0.2129 -0.0972  0.0549
  502MOL0     C69158   6.387   4.702   2.291  0.7676  0.0290 -0.6833
  502MOL0     C69159   6.389   4.810   2.404 -0.1694  0.1463  1.3778
  502MOL0     C69160   6.465   4.945   2.348 -0.5302  1.0772  0.0083
  502MOL0     C69161   6.498   5.049   2.455 -0.3294 -0.7690  0.0680
  502MOL0     O69162   6.387   5.144   2.476  0.2169 -1.0213 -0.1027
  502MOL0     C69163   6.334   5.226   2.380  0.7699 -0.3939  0.0064
  502MOL0     C69164   6.198   5.254   2.368  0.4722  0.1227 -0.3944
  502MOL0     C69165   6.140   5.334   2.281 -0.2507 -0.6695  0.9006
  502MOL0     C69166   5.992   5.354   2.281 -0.2707  0.1701 -0.6786
  502MOL0     C69167   6.231   5.383   2.169  0.4584 -0.3932 -0.5741
  502MOL0     C69168   6.177   5.450   2.050 -0.7925 -0.4763  0.4639
  502MOL0     O69169   6.054   5.420   1.999  0.0230  0.7985  0.5759
  502MOL0     C69170   6.019   5.486   1.885  0.1042 -1.1071 -0.0079
  502MOL0     C69171   6.039   5.421   1.762 -0.7646 -0.0118  0.4018
  502MOL0     C69172   6.011   5.497   1.645  0.9175  1.2823 -0.1362
  502MOL0     C69173   5.961   5.630   1.648  0.3203  0.8657 -0.7062
  502MOL0     O69174   5.926   5.703   1.536  0.7306 -0.0885  0.0681
  502MOL0     C69175   5.996   5.667   1.420 -1.1872 -0.1021  0.4160
  502MOL0     C69176   5.987   5.764   1.307  1.1041  0.0816  0.6800
  502MOL0     C69177   5.841   5.776   1.261 -0.5962 -0.3730  0.8528
  502MOL0     C69178   5.822   5.861   1.136 -0.3361  0.9840  0.2665
  502MOL0     C69179   5.679   5.890   1.103  0.2034 -0.6859 -0.2336
  502MOL0     C69180   5.659   5.961   0.964  0.3895  0.1990 -0.6201
  502MOL0     C69181   5.520   5.946   0.916  0.0722 -0.4203  1.1041
  502MOL0     C69182   5.508   5.986   0.763  0.0246 -0.3234 -0.2997
  502MOL0    Cl69183   5.548   6.161   0.742  0.2453  0.1138 -0.0995
  502MOL0     C69184   5.959   5.687   1.768 -0.0428 -0.7048  0.0785
  502MOL0     C69185   5.978   5.621   1.882 -0.5242  0.0186  0.3843
  502MOL0     O69186   6.260   5.524   1.994 -0.3864  0.4021 -0.0249
  502MOL0     C69187   6.370   5.373   2.186 -1.0711  0.6064  0.2093
  502MOL0     C69188   6.420   5.284   2.289  0.3011 -0.4003 -0.1804
  502MOL0     N69189   6.513   4.504   2.428 -0.8128  0.0822 -0.0415
  502MOL0     N69190   6.614   4.424   2.418  0.2436  0.6668 -0.0108
  502MOL0     C69191   7.822   4.723   2.166 -0.3962 -0.0626  0.5137
  502MOL0     C69192   7.956   4.754   2.151  0.5205 -0.1183  1.1345
  502MOL0     C69193   8.328   4.908   2.290 -0.0276 -0.2094  0.0101
  502MOL0     C69194   8.429   4.814   2.266 -0.1178 -0.4072 -0.5611
  502MOL0     C69195   8.560   4.858   2.275  0.7262  0.6316  0.3085
  502MOL0     C69196   8.593   4.989   2.324 -0.6287 -0.7567 -0.3749
  502MOL0     O69197   8.732   5.013   2.345 -0.7390 -0.2486  0.7166
  502MOL0     C69198   8.760   5.116   2.437 -0.0861 -0.3770 -0.6400
  502MOL0     C69199   8.825   5.230   2.352  0.3776  0.1043  0.1006
  502MOL0     C69200   8.822   5.375   2.420 -0.6114  0.8405  0.3518
  502MOL0     C69201   8.686   5.429   2.423 -0.7569 -0.4734  0.8737
  502MOL0     C69202   8.690   5.547   2.513 -0.7268 -0.1001  1.0290
  502MOL0     C69203   8.677   5.642   2.579  0.9887  0.3086 -0.2591
  502MOL0     C69204   8.488   5.085   2.334 -0.6462  0.3607 -0.4207
  502MOL0     C69205   8.356   5.044   2.321 -0.3603  0.5047 -0.6781
  502MOL0     C69206   8.242   5.147   2.329 -0.2624  0.2073 -0.6492
  502MOL0     H69207   8.088   4.498   2.337  0.0298 -2.7568 -2.1781
  502MOL0     H69208   7.849   4.438   2.351  0.6047  0.5136  2.4467
  502MOL0     H69209   7.625   4.423   2.380 -3.0367  3.5003  1.6046
  502MOL0     H69210   7.665   4.377   2.213 -0.0683  0.7954 -0.2950
  502MOL0     H69211   7.423   4.442   2.144  0.0939  1.7315  0.3463
  502MOL0     H69212   7.414   4.339   2.282  0.2380 -0.3931  1.0394
  502MOL0     H69213   7.434   4.594   2.396  0.7222  2.5968 -1.3519
  502MOL0     H69214   7.368   4.648   2.248  1.7358  2.5634  2.6742
  502MOL0     H69215   7.229   4.438   2.416  0.9484  1.0775  1.1940
  502MOL0     H69216   7.167   4.605   2.409 -2.1231 -0.9117  0.4273
  502MOL0     H69217   7.184   4.411   2.169  3.4486  0.5950  0.6737
  502MOL0     H69218   7.148   4.567   2.151  1.9488 -1.8531 -0.6408
  502MOL0     H69219   7.011   4.357   2.340 -0.3142  0.4041  0.5691
  502MOL0     H69220   6.947   4.515   2.351  0.0534  0.3124 -0.3040
  502MOL0     H69221   6.931   4.314   2.131  1.7164  0.4959 -0.0621
  502MOL0     H69222   6.854   4.467   2.098  0.4243  1.0613  0.6780
  502MOL0     H69223   6.703   4.315   2.142 -0.0008 -2.8599  1.0634
  502MOL0     H69224   6.753   4.255   2.292 -2.7748 -1.0128 -0.7600
  502MOL0     H69225   6.598   4.597   2.131 -4.6986  2.6696  0.5067
  502MOL0     H69226   6.296   4.645   2.311  0.7390  1.1098  2.9073
  502MOL0     H69227   6.385   4.751   2.193  0.5521 -3.3951 -2.5396
  502MOL0     H69228   6.283   4.835   2.405 -0.1974  0.0180  1.7528
  502MOL0     H69229   6.423   4.774   2.502  0.4997  1.1293  1.5173
  502MOL0     H69230   6.561   4.919   2.303 -0.4276  0.0959  0.7568
  502MOL0     H69231   6.398   4.994   2.277  1.5296  1.4073 -1.8181
  502MOL0     H69232   6.527   5.019   2.556  1.3474  3.8362  1.2125
  502MOL0     H69233   6.577   5.109   2.409 -0.6631  1.5116  2.2174
  502MOL0     H69234   6.142   5.204   2.447  2.8684  1.2010  2.1268
  502MOL0     H69235   5.944   5.288   2.354  1.3426  0.2795  0.5388
  502MOL0     H69236   5.964   5.324   2.180 -1.1426 -0.8292 -0.1643
  502MOL0     H69237   5.953   5.454   2.302 -0.5641 -0.2739  1.0943
  502MOL0     H69238   6.062   5.315   1.763 -3.1945 -0.6179 -0.7338
  502MOL0     H69239   6.021   5.438   1.554 -1.4090 -1.4348  1.1927
  502MOL0     H69240   6.104   5.662   1.437 -1.5540 -1.5633  2.8909
  502MOL0     H69241   5.968   5.570   1.378  2.4447 -0.5585 -1.3852
  502MOL0     H69242   6.024   5.860   1.344 -2.0008  1.6175  0.1551
  502MOL0     H69243   6.059   5.727   1.234 -0.5809  2.8862 -2.6949
  502MOL0     H69244   5.782   5.820   1.342 -1.6496  0.7840 -0.4889
  502MOL0     H69245   5.797   5.679   1.236  0.9540 -0.6557 -1.0223
  502MOL0     H69246   5.858   5.812   1.045 -1.9452  1.0707 -0.4436
  502MOL0     H69247   5.879   5.952   1.155  3.2586  0.2308 -4.8420
  502MOL0     H69248   5.610   5.805   1.099 -1.1087  0.3198  0.3111
  502MOL0     H69249   5.649   5.957   1.183 -1.0406 -2.0167  0.4583
  502MOL0     H69250   5.738   5.925   0.898  3.0491  2.3703  1.0948
  502MOL0     H69251   5.678   6.063   1.001 -0.8223  0.3968 -0.4923
  502MOL0     H69252   5.456   6.019   0.966  1.1099  1.4278 -0.1053
  502MOL0     H69253   5.483   5.848   0.946  1.0311 -0.3541  2.5879
  502MOL0     H69254   5.403   5.977   0.734 -0.3534 -0.7531  1.1164
  502MOL0     H69255   5.577   5.923   0.708  0.3935  1.9266 -2.6068
  502MOL0     H69256   5.923   5.789   1.776 -0.4998 -1.0024  2.8904
  502MOL0     H69257   5.976   5.677   1.975 -2.0585  0.3713  0.1610
  502MOL0     H69258   6.435   5.399   2.103 -1.3419  1.1156  0.1550
  502MOL0     H69259   6.528   5.278   2.304  0.1976  0.3902  0.9477
  502MOL0     H69260   7.743   4.788   2.128 -1.5446 -0.9276  1.3901
  502MOL0     H69261   7.973   4.848   2.099  4.6488  0.7189  3.4943
  502MOL0     H69262   8.406   4.711   2.242 -0.8250 -0.5020  0.4470
  502MOL0     H69263   8.645   4.795   2.249 -0.3672 -0.1988 -1.4255
  502MOL0     H69264   8.679   5.126   2.509  1.0425  2.5924  0.3678
  502MOL0     H69265   8.833   5.086   2.512 -1.9222  0.1253  1.4541
  502MOL0     H69266   8.775   5.231   2.255 -1.4076  1.9277  0.9576
  502MOL0     H69267   8.930   5.204   2.335  0.1278 -1.8882  1.2840
  502MOL0     H69268   8.875   5.369   2.516  1.6937 -1.6841 -0.9618
  502MOL0     H69269   8.877   5.435   2.347 -0.9083  2.4310  1.3801
  502MOL0     H69270   8.621   5.352   2.465 -1.5975  0.2110  0.8464
  502MOL0     H69271   8.653   5.452   2.321  1.0991 -4.1000 -0.7317
  502MOL0     H69272   8.675   5.716   2.657 -2.8745 -0.0847  0.2158
  502MOL0     H69273   8.521   5.187   2.350  2.9364 -1.0204  2.2163
  502MOL0     H69274   8.284   5.248   2.327 -4.2498  2.0563 -0.7114
  502MOL0     H69275   8.167   5.144   2.249 -0.2134  2.2623 -0.8319
  502MOL0     H69276   8.182   5.141   2.421 -1.7793  1.2704 -1.5215
  503MOL0     O69277   1.992  10.046   5.975 -0.1857  0.2296 -0.1786
  503MOL0     C69278   1.884  10.049   6.030  1.2434  0.2381 -1.0292
  503MOL0     O69279   1.810   9.940   6.082  0.2548  0.5559  0.5462
  503MOL0     C69280   1.841   9.812   6.039  0.4011 -0.0467 -0.1172
  503MOL0     C69281   1.874   9.774   5.911 -0.3709  0.1059 -0.2535
  503MOL0     C69282   1.879   9.643   5.874 -0.5535 -0.0674  0.6053
  503MOL0     C69283   1.853   9.541   5.956 -0.4708  0.5120  0.4135
  503MOL0     O69284   1.870   9.410   5.922  0.2585 -0.8678  0.2589
  503MOL0     C69285   1.794   9.300   5.989 -0.8670 -0.5427  1.3953
  503MOL0     C69286   1.788   9.181   5.892 -0.1525 -0.1349 -0.6251
  503MOL0     C69287   1.716   9.219   5.759  0.6900  0.9845 -1.0065
  503MOL0     C69288   1.704   9.104   5.663 -0.0342  0.5853 -0.0430
  503MOL0     C69289   1.624   9.124   5.537  0.0110 -0.1507  0.8110
  503MOL0     C69290   1.669   9.249   5.448  0.4721  0.3516 -0.5560
  503MOL0     C69291   1.801   9.221   5.379  0.7513  0.6167  1.0703
  503MOL0     C69292   1.786   9.120   5.256 -0.1027  0.8155  0.1554
  503MOL0     N69293   1.899   9.147   5.179  0.0657 -0.8957  0.0499
  503MOL0     C69294   1.880   9.186   5.051  0.5343  0.2241 -0.3238
  503MOL0     C69295   2.000   9.223   4.999  0.3451  0.7673  0.3037
  503MOL0     C69296   2.034   9.246   4.854 -0.2780 -0.3552 -0.3338
  503MOL0     C69297   2.065   9.396   4.834  0.1978 -0.1027  0.5533
  503MOL0     C69298   2.189   9.436   4.924 -0.4786  0.3031  0.2148
  503MOL0     C69299   2.328   9.366   4.893  0.7712 -0.4453 -0.3670
  503MOL0     O69300   2.412   9.426   4.987  0.3952 -0.1255 -0.3884
  503MOL0     C69301   2.545   9.408   4.961 -0.2406 -0.8653  0.9324
  503MOL0     C69302   2.630   9.472   5.053 -0.4669  0.5491  0.5817
  503MOL0     C69303   2.770   9.464   5.044 -0.0196  0.1308 -1.1774
  503MOL0     C69304   2.834   9.540   5.157 -0.6700 -1.3466  0.4445
  503MOL0     C69305   2.835   9.391   4.940  1.1337 -0.4533  0.5776
  503MOL0     C69306   2.971   9.403   4.899 -0.4934 -0.6708  0.3256
  503MOL0     O69307   3.016   9.314   4.801 -0.8581  0.4865 -0.1944
  503MOL0     C69308   3.131   9.338   4.744 -1.3219 -0.1707  0.0587
  503MOL0     C69309   3.155   9.431   4.651 -0.2607  0.2961 -0.3229
  503MOL0     C69310   3.277   9.457   4.594  0.4332  0.8860  0.4088
  503MOL0     C69311   3.387   9.385   4.615  0.6808  0.2341 -0.6474
  503MOL0     O69312   3.500   9.419   4.549 -0.3567 -0.2577 -0.1858
  503MOL0     C69313   3.603   9.314   4.526  0.6685 -0.0172  0.2050
  503MOL0     C69314   3.722   9.376   4.441  1.4141  0.5645  0.2658
  503MOL0     C69315   3.851   9.295   4.450 -0.3433 -0.3581 -0.1228
  503MOL0     C69316   3.951   9.338   4.334 -0.4908  0.0029  0.4781
  503MOL0     C69317   4.077   9.261   4.352 -0.1206 -0.4142  0.1023
  503MOL0     C69318   4.178   9.268   4.237 -0.0287  0.8295  0.3120
  503MOL0     C69319   4.287   9.393   4.241  0.9161  0.2251 -0.3036
  503MOL0     C69320   4.234   9.537   4.230  0.1615 -0.1662 -0.0772
  503MOL0    Cl69321   4.350   9.657   4.151  0.2260  0.6377  0.0494
  503MOL0     C69322   3.366   9.269   4.700  0.5543  0.1852 -0.0364
  503MOL0     C69323   3.242   9.251   4.762  0.4261 -0.9802  0.1573
  503MOL0     O69324   3.039   9.492   4.950 -0.6501 -0.5065 -0.2426
  503MOL0     C69325   2.744   9.318   4.848 -0.7148 -0.9774  0.0023
  503MOL0     C69326   2.605   9.328   4.858  0.4960  0.1441 -0.2291
  503MOL0     N69327   2.093   9.192   5.102  0.3829  0.1287 -0.3888
  503MOL0     N69328   2.025   9.159   5.209 -0.0265 -0.3543  0.1155
  503MOL0     C69329   1.807   9.580   6.078 -0.0828 -0.6013  0.4626
  503MOL0     C69330   1.790   9.710   6.118 -1.8505 -0.5265 -0.0819
  503MOL0     C69331   1.827  10.182   6.055  0.0272 -0.2722  0.5703
  503MOL0     C69332   1.923  10.278   6.106  0.7714 -0.1704 -0.0825
  503MOL0     C69333   1.876  10.408   6.119 -0.3776 -0.1289 -0.8120
  503MOL0     C69334   1.747  10.449   6.096 -0.1595  0.0314  0.6064
  503MOL0     O69335   1.714  10.575   6.138 -0.1848 -0.6073 -0.2151
  503MOL0     C69336   1.588  10.642   6.094 -0.6471 -0.2258 -0.1283
  503MOL0     C69337   1.593  10.789   6.138 -0.4059 -0.8433 -0.4324
  503MOL0     C69338   1.581  10.793   6.290 -0.7304  0.7633 -0.9934
  503MOL0     C69339   1.574  10.935   6.356  1.1707 -0.0310  0.0208
  503MOL0     C69340   1.674  11.024   6.305  0.1140 -0.9038  0.3141
  503MOL0     C69341   1.751  11.118   6.272 -0.2008 -0.4282  0.0276
  503MOL0     C69342   1.657  10.355   6.060  0.8271  0.1931 -0.1689
  503MOL0     C69343   1.690  10.220   6.045  0.1794 -0.1545  0.3902
  503MOL0     C69344   1.570  10.126   5.999 -0.7371  1.4028 -0.6906
  503MOL0     H69345   1.907   9.842   5.833  3.3788 -1.0822  0.0923
  503MOL0     H69346   1.909   9.617   5.773 -0.7423 -2.1065  1.0233
  503MOL0     H69347   1.693   9.331   6.019 -2.6244 -4.5133  0.2543
  503MOL0     H69348   1.844   9.277   6.083 -1.6619 -0.5558  1.8314
  503MOL0     H69349   1.886   9.133   5.881  0.2516  0.0518  1.6163
  503MOL0     H69350   1.725   9.102   5.934 -3.6132  0.1294 -4.6478
  503MOL0     H69351   1.612   9.249   5.777  0.3318  0.6076 -2.2836
  503MOL0     H69352   1.780   9.297   5.717  2.9194 -0.2820 -0.1442
  503MOL0     H69353   1.805   9.072   5.635 -0.1680  0.1898 -0.0867
  503MOL0     H69354   1.662   9.017   5.715  0.6175  0.1293 -0.2667
  503MOL0     H69355   1.515   9.131   5.543 -0.1624 -0.4438 -1.2695
  503MOL0     H69356   1.644   9.037   5.475  1.9611  0.9795 -0.2571
  503MOL0     H69357   1.592   9.279   5.377 -1.7501  2.7916  2.6060
  503MOL0     H69358   1.696   9.338   5.506  1.5878 -1.1037  1.2801
  503MOL0     H69359   1.864   9.187   5.462 -1.4351 -1.1312  2.1154
  503MOL0     H69360   1.840   9.319   5.348  0.6178  1.1130  2.4049
  503MOL0     H69361   1.796   9.019   5.296 -1.1071  1.6119  2.6385
  503MOL0     H69362   1.691   9.130   5.202 -0.0304 -1.4862 -0.4923
  503MOL0     H69363   1.799   9.183   4.979  1.5920 -1.4904 -1.5188
  503MOL0     H69364   1.940   9.238   4.799 -1.2805  3.4253  0.5344
  503MOL0     H69365   2.115   9.181   4.820  0.0001  0.5978 -1.5337
  503MOL0     H69366   2.094   9.417   4.730  2.5357 -1.5428  0.8329
  503MOL0     H69367   1.973   9.449   4.861 -0.4196 -0.7727 -0.1660
  503MOL0     H69368   2.210   9.543   4.910 -1.8420  0.6059  0.3779
  503MOL0     H69369   2.170   9.437   5.031 -0.9644  1.8270  0.1458
  503MOL0     H69370   2.319   9.257   4.901 -3.1161 -0.1068  2.4972
  503MOL0     H69371   2.359   9.404   4.795  0.5368 -3.5900 -1.8045
  503MOL0     H69372   2.586   9.532   5.131 -1.4935  1.6278 -0.7796
  503MOL0     H69373   2.770   9.564   5.243 -3.0524  1.4653 -1.8703
  503MOL0     H69374   2.865   9.637   5.117  1.1550 -1.1509  2.1716
  503MOL0     H69375   2.932   9.496   5.176  0.6423  0.2804 -1.9918
  503MOL0     H69376   3.067   9.494   4.658 -0.7769 -0.5203  4.6266
  503MOL0     H69377   3.286   9.552   4.543  1.8381 -0.5194 -2.1519
  503MOL0     H69378   3.642   9.280   4.622  0.9153  1.1078  0.5146
  503MOL0     H69379   3.546   9.239   4.470 -2.3653  3.0128 -1.1661
  503MOL0     H69380   3.686   9.405   4.341  1.9303 -1.5329 -0.5777
  503MOL0     H69381   3.750   9.475   4.479 -2.0313  3.1842 -3.1035
  503MOL0     H69382   3.822   9.190   4.444  1.1618 -0.7365 -1.3956
  503MOL0     H69383   3.902   9.317   4.544  3.6190  2.2719 -2.5882
  503MOL0     H69384   3.963   9.445   4.314  1.3111 -0.5987 -2.3078
  503MOL0     H69385   3.912   9.297   4.240  0.2476  1.9908 -0.7708
  503MOL0     H69386   4.127   9.301   4.440  0.6761  1.9866 -1.3381
  503MOL0     H69387   4.038   9.162   4.374 -1.1205  0.1706  1.0728
  503MOL0     H69388   4.115   9.266   4.148  2.7736  1.4859 -1.8024
  503MOL0     H69389   4.231   9.172   4.238  2.1324  1.9669  0.0206
  503MOL0     H69390   4.364   9.383   4.164 -0.0465 -1.4636 -1.1038
  503MOL0     H69391   4.340   9.393   4.337 -0.3995  1.5755  0.4588
  503MOL0     H69392   4.221   9.588   4.326  1.7411  3.7027 -1.6877
  503MOL0     H69393   4.145   9.533   4.167  0.7948 -3.2380 -0.9233
  503MOL0     H69394   3.455   9.207   4.714  1.1242  1.4263  2.2301
  503MOL0     H69395   3.244   9.170   4.834 -3.0337 -0.1719  1.3785
  503MOL0     H69396   2.796   9.257   4.775  1.7840  1.8523 -0.7829
  503MOL0     H69397   2.542   9.271   4.791 -0.9631  2.5577 -1.0320
  503MOL0     H69398   1.788   9.512   6.160 -2.8363 -0.7504 -0.2197
  503MOL0     H69399   1.754   9.741   6.215  1.8950 -0.1568  1.3701
  503MOL0     H69400   2.028  10.258   6.125  0.5888  0.7249  2.1589
  503MOL0     H69401   1.954  10.471   6.160  0.1368 -0.5990 -1.0608
  503MOL0     H69402   1.587  10.634   5.985  2.6636 -0.3961 -0.2558
  503MOL0     H69403   1.497  10.607   6.143  0.1761 -0.9672  0.9237
  503MOL0     H69404   1.510  10.848   6.099  1.4793  1.4662 -1.1226
  503MOL0     H69405   1.688  10.831   6.106 -0.2440 -2.0824 -1.6722
  503MOL0     H69406   1.503  10.723   6.320  0.1630 -0.5328 -1.5729
  503MOL0     H69407   1.676  10.752   6.325 -0.7374 -0.1936 -2.0422
  503MOL0     H69408   1.577  10.929   6.465 -1.1748  2.1589  0.2917
  503MOL0     H69409   1.478  10.979   6.328 -0.3129 -3.1910 -0.3693
  503MOL0     H69410   1.810  11.202   6.242  0.9005 -1.3834 -0.5453
  503MOL0     H69411   1.555  10.392   6.056  1.1629  1.7363  2.5255
  503MOL0     H69412   1.538  10.151   5.897 -0.7220 -0.4997 -1.2052
  503MOL0     H69413   1.608  10.023   5.990 -3.3019  0.4542 -1.7078
  503MOL0     H69414   1.490  10.140   6.073 -1.0294 -2.7956  0.0612
  504MOL0     O69415   7.163   2.593   0.721  0.1204  0.2844  0.4110
  504MOL0     C69416   7.136   2.670   0.817  0.2144 -0.5145  0.2536
  504MOL0     O69417   7.111   2.806   0.805 -1.2431  0.3370  0.5168
  504MOL0     C69418   7.118   2.864   0.687  0.0372  0.2017 -0.3827
  504MOL0     C69419   7.239   2.865   0.621 -0.0839  0.6889  0.8535
  504MOL0     C69420   7.254   2.938   0.493 -0.0766  0.2265 -0.1238
  504MOL0     C69421   7.155   3.015   0.438  0.5583  0.6131  0.2712
  504MOL0     O69422   7.175   3.088   0.324  0.1569  0.0136 -0.0275
  504MOL0     C69423   7.061   3.152   0.272 -0.0816 -1.2909 -0.3553
  504MOL0     C69424   7.046   3.290   0.348  0.2806 -0.4591  0.2495
  504MOL0     C69425   6.927   3.358   0.287  0.2675  0.4244  0.3885
  504MOL0     C69426   6.963   3.421   0.143 -0.0331  0.9118 -0.2815
  504MOL0     C69427   6.851   3.420   0.043  0.0172  1.1337  0.4822
  504MOL0     C69428   6.855   3.287  -0.034  0.2148  0.7338 -0.5019
  504MOL0     C69429   6.739   3.280  -0.142  0.2069  0.0542 -0.2691
  504MOL0     C69430   6.699   3.134  -0.183 -0.8589 -0.5120  0.0389
  504MOL0     N69431   6.627   3.048  -0.094  1.0725  0.0806 -0.2926
  504MOL0     C69432   6.690   2.966  -0.016  0.0028  0.5610 -0.5604
  504MOL0     C69433   6.595   2.887   0.038 -0.1497  1.1037  0.9301
  504MOL0     C69434   6.633   2.763   0.110 -0.4013 -0.1311 -0.9493
  504MOL0     C69435   6.695   2.779   0.242 -0.6171  0.3672  0.0538
  504MOL0     C69436   6.740   2.651   0.303  0.1685  0.7572  0.4065
  504MOL0     C69437   6.845   2.658   0.421 -0.6283  0.5538 -0.6577
  504MOL0     O69438   6.796   2.760   0.507  0.7901 -0.3720 -0.3890
  504MOL0     C69439   6.716   2.715   0.610 -0.7167  0.4785 -0.9027
  504MOL0     C69440   6.766   2.611   0.700  0.4119  0.3340 -1.6988
  504MOL0     C69441   6.686   2.550   0.799  0.4044 -0.2389  0.4811
  504MOL0     C69442   6.730   2.434   0.880  0.6140  0.0922  0.2124
  504MOL0     C69443   6.559   2.600   0.817 -0.2216  0.1207  0.4338
  504MOL0     C69444   6.467   2.544   0.918  0.7602 -0.2743 -0.5190
  504MOL0     O69445   6.424   2.425   0.913  0.5799  0.0699  0.8071
  504MOL0     C69446   6.304   2.391   0.974 -0.3441  0.5527  0.6312
  504MOL0     C69447   6.289   2.355   1.105  0.1708  0.2444 -0.6334
  504MOL0     C69448   6.159   2.328   1.146  0.1121  0.1304  0.3507
  504MOL0     C69449   6.045   2.316   1.065 -1.6078 -0.0821 -0.1073
  504MOL0     O69450   5.921   2.296   1.102  0.1184  0.6836 -0.3130
  504MOL0     C69451   5.897   2.157   1.135 -0.5076 -0.0098  0.2655
  504MOL0     C69452   5.759   2.136   1.203 -0.1091  0.6860  0.1069
  504MOL0     C69453   5.648   2.197   1.099  0.3730 -0.4086  0.0673
  504MOL0     C69454   5.614   2.113   0.975 -0.3707  0.4959 -0.4098
  504MOL0     C69455   5.504   2.171   0.882 -0.4949 -1.1519 -0.8193
  504MOL0     C69456   5.559   2.295   0.803  0.1336  0.3466  0.6135
  504MOL0     C69457   5.456   2.386   0.725  0.2058 -0.2149 -0.1321
  504MOL0     C69458   5.434   2.339   0.583 -0.2112 -0.2601 -0.4707
  504MOL0    Cl69459   5.370   2.474   0.486  0.3009 -0.0090  0.0770
  504MOL0     C69460   6.070   2.359   0.933  0.6380  0.7648  0.7425
  504MOL0     C69461   6.196   2.386   0.880  0.3433  0.0755 -0.1144
  504MOL0     O69462   6.445   2.627   1.005  0.2059 -0.4573 -0.3360
  504MOL0     C69463   6.505   2.702   0.734  0.4197 -0.1049  0.4821
  504MOL0     C69464   6.585   2.743   0.628 -0.7756  0.2327  0.1202
  504MOL0     N69465   6.476   2.934  -0.008 -0.9700 -0.3847  0.4885
  504MOL0     N69466   6.490   3.029  -0.089 -0.2477  0.0380 -0.0517
  504MOL0     C69467   7.036   3.014   0.519  0.2473  0.1803 -0.8211
  504MOL0     C69468   7.023   2.952   0.640 -0.1383  0.4581  0.4540
  504MOL0     C69469   7.098   2.621   0.957  0.9218 -0.7926 -0.3018
  504MOL0     C69470   6.987   2.685   1.030 -0.4983 -0.3485  0.3099
  504MOL0     C69471   6.938   2.651   1.156  0.2636 -0.4838 -1.1468
  504MOL0     C69472   7.009   2.549   1.227 -0.1931 -0.1106  0.4779
  504MOL0     O69473   6.995   2.529   1.360 -0.0002  0.1431 -0.4995
  504MOL0     C69474   6.884   2.587   1.445  0.0251  0.0205 -0.7236
  504MOL0     C69475   6.753   2.519   1.421  0.1469 -0.4984  1.2991
  504MOL0     C69476   6.638   2.609   1.434 -0.6334  0.3240  0.8979
  504MOL0     C69477   6.501   2.556   1.379 -0.5085 -0.3299 -0.1730
  504MOL0     C69478   6.459   2.442   1.455 -0.2129 -0.2782  0.1957
  504MOL0     C69479   6.411   2.349   1.519  0.3177  0.1916  0.1966
  504MOL0     C69480   7.115   2.482   1.164 -0.1492  0.8888 -0.8107
  504MOL0     C69481   7.161   2.516   1.034 -0.1282  0.2395 -0.0348
  504MOL0     C69482   7.294   2.463   0.980  1.0722 -0.0100  0.1842
  504MOL0     H69483   7.320   2.807   0.662 -0.9545  0.2700  2.0219
  504MOL0     H69484   7.345   2.949   0.434 -2.0296  0.6774 -3.3066
  504MOL0     H69485   6.970   3.092   0.273 -1.5492  0.6988 -2.6574
  504MOL0     H69486   7.076   3.163   0.164  1.6391 -0.5961 -0.0840
  504MOL0     H69487   7.044   3.284   0.457  0.1112  3.1608  0.5576
  504MOL0     H69488   7.129   3.358   0.324 -3.5387  4.1489 -1.6001
  504MOL0     H69489   6.859   3.276   0.264  1.7299 -1.0478  1.0634
  504MOL0     H69490   6.878   3.435   0.348  0.5046  1.1399 -0.3060
  504MOL0     H69491   6.995   3.523   0.166  0.8491  0.5014  0.3697
  504MOL0     H69492   7.054   3.372   0.109  0.0733 -0.6943  2.0656
  504MOL0     H69493   6.863   3.498  -0.033  0.7587 -0.2869 -0.9214
  504MOL0     H69494   6.759   3.410   0.101 -1.2258  1.2430 -1.3829
  504MOL0     H69495   6.952   3.270  -0.083  0.5441 -0.4521  0.4971
  504MOL0     H69496   6.852   3.209   0.042  1.3202 -1.1392 -2.2755
  504MOL0     H69497   6.779   3.337  -0.226 -1.3238 -1.0309 -1.7915
  504MOL0     H69498   6.651   3.328  -0.098  0.5554  2.4004 -1.9735
  504MOL0     H69499   6.641   3.160  -0.272 -2.3179 -1.2446  0.7272
  504MOL0     H69500   6.788   3.089  -0.227 -0.2829  1.8361 -1.4066
  504MOL0     H69501   6.797   2.950  -0.010 -0.2000 -1.3620 -1.2465
  504MOL0     H69502   6.698   2.718   0.035  0.3721 -0.2644 -0.2193
  504MOL0     H69503   6.543   2.713   0.146  0.0146  1.6776  3.1830
  504MOL0     H69504   6.785   2.841   0.235 -1.7076  2.4353  2.4952
  504MOL0     H69505   6.629   2.824   0.316 -1.3528 -0.5839 -0.0087
  504MOL0     H69506   6.652   2.594   0.336 -0.6011  1.0146 -1.1465
  504MOL0     H69507   6.794   2.597   0.225 -0.3168  4.5576 -2.8748
  504MOL0     H69508   6.853   2.563   0.475 -0.9961  0.5196 -0.6637
  504MOL0     H69509   6.944   2.673   0.377 -0.0042 -1.4169 -0.0460
  504MOL0     H69510   6.868   2.577   0.691  0.4880  0.2066 -0.4355
  504MOL0     H69511   6.837   2.416   0.860  0.2096  0.0731 -2.2683
  504MOL0     H69512   6.678   2.343   0.849  1.3292 -0.2984  0.1146
  504MOL0     H69513   6.720   2.450   0.988 -2.4534  0.1599 -0.0144
  504MOL0     H69514   6.369   2.357   1.178  0.7801 -2.3062 -1.1523
  504MOL0     H69515   6.133   2.308   1.250 -0.1945 -1.4092 -0.0081
  504MOL0     H69516   5.910   2.092   1.048 -0.0863 -0.4453  0.6452
  504MOL0     H69517   5.968   2.126   1.212 -2.1951 -0.1700  1.8175
  504MOL0     H69518   5.747   2.030   1.228  3.7400  0.4427  1.6172
  504MOL0     H69519   5.766   2.197   1.294 -3.7927 -1.2517  1.9147
  504MOL0     H69520   5.669   2.303   1.084  2.8299 -0.6560  1.2124
  504MOL0     H69521   5.549   2.191   1.144 -0.9705  0.2162 -2.5834
  504MOL0     H69522   5.596   2.009   1.006 -0.5465  0.7275  0.2838
  504MOL0     H69523   5.699   2.111   0.906 -0.2645  2.8230 -0.4024
  504MOL0     H69524   5.465   2.092   0.817  1.1466 -3.0322  0.3813
  504MOL0     H69525   5.422   2.217   0.940  1.0091  2.3957 -1.2354
  504MOL0     H69526   5.644   2.260   0.744  2.0041  1.3835  2.5363
  504MOL0     H69527   5.589   2.368   0.880 -1.0163  1.8258 -0.2929
  504MOL0     H69528   5.490   2.489   0.714 -2.0126  0.7486  1.5139
  504MOL0     H69529   5.365   2.405   0.782  0.1682 -0.9348  0.0608
  504MOL0     H69530   5.365   2.254   0.583 -2.5270  1.5065 -0.8300
  504MOL0     H69531   5.530   2.315   0.537  0.0125  2.1138 -1.3815
  504MOL0     H69532   5.979   2.345   0.876  1.5165 -1.5755 -0.2125
  504MOL0     H69533   6.212   2.410   0.776 -1.4850 -0.7291 -0.6278
  504MOL0     H69534   6.410   2.754   0.740  1.1314  1.1921  0.9790
  504MOL0     H69535   6.551   2.803   0.544 -2.0472  1.0379  1.1752
  504MOL0     H69536   6.952   3.079   0.495  0.6612  1.0473 -0.0131
  504MOL0     H69537   6.932   2.968   0.697 -2.1936 -0.1684 -2.4234
  504MOL0     H69538   6.934   2.765   0.980  0.8782  1.4272  1.6124
  504MOL0     H69539   6.857   2.708   1.201  1.0976  1.8775 -2.5072
  504MOL0     H69540   6.908   2.576   1.551 -0.9123  1.4866 -0.3360
  504MOL0     H69541   6.885   2.695   1.427  1.7678  0.5433  1.9046
  504MOL0     H69542   6.752   2.430   1.485  2.7491 -1.2118  0.4800
  504MOL0     H69543   6.757   2.481   1.319 -1.1628  1.2763  0.5418
  504MOL0     H69544   6.632   2.632   1.541  0.6886  0.8068  0.8911
  504MOL0     H69545   6.672   2.695   1.376  0.2872 -0.6255  0.0004
  504MOL0     H69546   6.511   2.541   1.271 -1.0171  0.3824 -0.3256
  504MOL0     H69547   6.429   2.637   1.393 -0.5807 -0.1277 -1.5374
  504MOL0     H69548   6.364   2.268   1.572  2.4209  0.3413  2.4674
  504MOL0     H69549   7.185   2.426   1.225 -1.6746  0.6087  0.7675
  504MOL0     H69550   7.382   2.527   0.992  1.6786 -0.4295 -1.7249
  504MOL0     H69551   7.324   2.373   1.035 -0.0929  0.0753  0.9872
  504MOL0     H69552   7.276   2.449   0.873 -2.4538 -3.2769  0.9754
  505MOL0     O69553   4.314   4.305   3.260  0.1528  0.1743  0.1257
  505MOL0     C69554   4.385   4.407   3.237 -1.0053 -0.2086 -0.0848
  505MOL0     O69555   4.362   4.495   3.131 -0.2708  0.8343  0.4221
  505MOL0     C69556   4.260   4.455   3.048 -0.0501 -0.1490 -1.3956
  505MOL0     C69557   4.131   4.512   3.063  0.5681 -0.3112  0.0373
  505MOL0     C69558   4.021   4.464   2.999 -0.7657 -0.4402 -0.4208
  505MOL0     C69559   4.038   4.351   2.919  0.0830 -0.9678  0.3758
  505MOL0     O69560   3.943   4.286   2.838 -0.4010  0.7946 -0.4413
  505MOL0     C69561   3.802   4.319   2.846  0.3651 -0.0934  0.0050
  505MOL0     C69562   3.711   4.223   2.774 -0.6839  0.5364  0.3242
  505MOL0     C69563   3.759   4.193   2.625 -0.7095  0.5305 -0.0890
  505MOL0     C69564   3.663   4.093   2.572 -0.3642 -0.7430  0.4071
  505MOL0     C69565   3.683   4.047   2.426 -0.6135  0.1767  0.2946
  505MOL0     C69566   3.577   3.947   2.368 -0.5458 -0.0902  0.8794
  505MOL0     C69567   3.583   3.794   2.410 -0.8727  0.2056  0.3328
  505MOL0     C69568   3.455   3.716   2.367 -0.1721 -0.0102 -0.4634
  505MOL0     N69569   3.349   3.759   2.457  1.1575 -0.0850  0.1810
  505MOL0     C69570   3.293   3.681   2.558 -0.4740 -0.0987  0.1645
  505MOL0     C69571   3.182   3.751   2.592 -0.2409  0.3166 -0.4749
  505MOL0     C69572   3.117   3.730   2.726 -0.8069 -0.5417  0.1264
  505MOL0     C69573   3.154   3.843   2.821  0.5198  0.7028  0.7312
  505MOL0     C69574   3.304   3.854   2.872 -1.1231 -0.3286  0.2532
  505MOL0     C69575   3.366   3.997   2.868  0.3854 -0.6183 -0.5727
  505MOL0     O69576   3.274   4.079   2.934 -0.8645  0.2482 -0.9808
  505MOL0     C69577   3.312   4.218   2.925  0.6835 -0.0873  0.8875
  505MOL0     C69578   3.227   4.311   2.852 -0.0413  1.3644 -1.1029
  505MOL0     C69579   3.244   4.444   2.851 -0.7799  0.2442 -0.6758
  505MOL0     C69580   3.149   4.519   2.771 -0.0239  0.8166  0.1627
  505MOL0     C69581   3.347   4.504   2.925  0.0241 -1.1892 -0.2372
  505MOL0     C69582   3.355   4.644   2.963 -0.4767  0.3607 -0.0182
  505MOL0     O69583   3.463   4.677   3.052 -0.6360  0.0303  0.4202
  505MOL0     C69584   3.516   4.811   3.036 -0.6437 -0.1433 -0.3524
  505MOL0     C69585   3.624   4.833   2.951  0.0394  0.2222  0.3378
  505MOL0     C69586   3.674   4.965   2.935  0.2546  0.4131 -0.4284
  505MOL0     C69587   3.627   5.068   3.007  0.3118  0.0978  0.2702
  505MOL0     O69588   3.692   5.191   3.002 -0.1906  0.8715  0.5432
  505MOL0     C69589   3.679   5.285   3.106 -0.0759  0.0289  0.3042
  505MOL0     C69590   3.766   5.407   3.071  0.7059 -0.5913  0.2802
  505MOL0     C69591   3.744   5.531   3.152 -0.0367  0.6231  0.0137
  505MOL0     C69592   3.827   5.643   3.104 -0.9707  0.2397 -0.0080
  505MOL0     C69593   3.775   5.705   2.973  0.4956  1.1665  0.8463
  505MOL0     C69594   3.837   5.842   2.948  0.8859 -0.4919 -0.1352
  505MOL0     C69595   3.756   5.949   3.020  0.1012  0.0004  0.0037
  505MOL0     C69596   3.628   5.980   2.939  0.5891  0.4230  0.5180
  505MOL0    Cl69597   3.578   6.140   3.005 -0.0946 -0.4144 -0.1350
  505MOL0     C69598   3.508   5.049   3.080 -0.3282 -0.4991  0.4721
  505MOL0     C69599   3.460   4.920   3.097  0.5285 -1.3630  0.5371
  505MOL0     O69600   3.276   4.720   2.925 -0.0076 -0.8846  0.3807
  505MOL0     C69601   3.440   4.411   2.970 -1.1546  0.0277  0.5835
  505MOL0     C69602   3.422   4.270   2.984 -0.0548  0.2222  0.3532
  505MOL0     N69603   3.159   3.854   2.504 -0.6490  0.0415  0.1983
  505MOL0     N69604   3.252   3.858   2.418 -0.4414  0.2383 -0.3238
  505MOL0     C69605   4.167   4.303   2.885  0.1009 -0.0260  0.1141
  505MOL0     C69606   4.279   4.351   2.950 -1.6990 -1.0189  0.0101
  505MOL0     C69607   4.506   4.436   3.318  0.1219  0.0347  0.5153
  505MOL0     C69608   4.606   4.487   3.239  0.1691 -0.3893  0.4999
  505MOL0     C69609   4.735   4.501   3.286 -0.2452 -0.5566 -0.4049
  505MOL0     C69610   4.777   4.454   3.407  0.2106 -0.1720  0.5903
  505MOL0     O69611   4.911   4.475   3.439 -0.0612 -0.0477 -0.3954
  505MOL0     C69612   4.981   4.400   3.543  0.4546 -0.0515  0.1806
  505MOL0     C69613   4.977   4.255   3.520 -0.0101  0.9977 -0.1148
  505MOL0     C69614   5.055   4.176   3.628  0.1575 -0.2478  0.1529
  505MOL0     C69615   5.026   4.218   3.772 -0.6712 -1.1953 -0.0001
  505MOL0     C69616   5.092   4.129   3.867  0.5358  0.1657 -0.5682
  505MOL0     C69617   5.150   4.042   3.931  0.6378  0.2801  0.3223
  505MOL0     C69618   4.678   4.403   3.488  0.6878 -0.0065 -0.2758
  505MOL0     C69619   4.541   4.391   3.453 -0.0167 -0.6432  0.4494
  505MOL0     C69620   4.439   4.352   3.549  0.3549  0.4741  0.3581
  505MOL0     H69621   4.105   4.604   3.115  0.2695 -0.5256  0.2736
  505MOL0     H69622   3.925   4.510   3.020  0.4960  0.9053  3.1442
  505MOL0     H69623   3.777   4.421   2.817  1.2476  0.7029  1.8871
  505MOL0     H69624   3.780   4.318   2.954 -0.1140  0.4980 -0.0838
  505MOL0     H69625   3.710   4.132   2.836 -0.8390  0.0724 -0.3441
  505MOL0     H69626   3.606   4.253   2.774 -1.5845 -2.2183 -1.3844
  505MOL0     H69627   3.768   4.289   2.573  1.4197  0.8431  0.7282
  505MOL0     H69628   3.861   4.154   2.627  0.6919  3.8517 -0.0791
  505MOL0     H69629   3.653   4.008   2.641 -0.6185 -0.5719  0.5789
  505MOL0     H69630   3.564   4.139   2.572  0.4418  1.0523  0.6028
  505MOL0     H69631   3.773   3.985   2.419 -1.8382 -1.6700  0.2140
  505MOL0     H69632   3.690   4.137   2.365  1.0149 -0.1711 -0.0885
  505MOL0     H69633   3.477   3.990   2.376 -1.5289 -1.8960 -0.9028
  505MOL0     H69634   3.598   3.956   2.261 -1.0648 -2.3084  0.5455
  505MOL0     H69635   3.596   3.790   2.518  0.0821  0.4711  0.2391
  505MOL0     H69636   3.669   3.750   2.359 -0.8230 -1.0858  1.4943
  505MOL0     H69637   3.458   3.734   2.259 -1.4490 -2.1799 -0.9130
  505MOL0     H69638   3.471   3.608   2.374  2.3603  0.3996  1.6032
  505MOL0     H69639   3.339   3.600   2.613 -3.8951 -4.5881 -2.8778
  505MOL0     H69640   3.131   3.630   2.768 -1.4540 -0.2344  1.1256
  505MOL0     H69641   3.010   3.740   2.706 -0.5275  1.0091 -0.7125
  505MOL0     H69642   3.119   3.922   2.754  3.3867  0.2577 -1.4653
  505MOL0     H69643   3.083   3.845   2.904  2.1201 -1.0124  2.2241
  505MOL0     H69644   3.301   3.812   2.973 -4.2197  0.7829  0.7396
  505MOL0     H69645   3.374   3.795   2.812  0.3984 -1.5022  3.0240
  505MOL0     H69646   3.462   3.997   2.921  1.1188  3.0161 -1.5665
  505MOL0     H69647   3.385   4.022   2.764  1.4595  1.5127  0.0657
  505MOL0     H69648   3.146   4.262   2.800 -0.1711 -0.1692  0.4227
  505MOL0     H69649   3.066   4.457   2.737 -0.0252  1.0192 -0.2164
  505MOL0     H69650   3.200   4.557   2.681  0.6695 -0.0273  0.1845
  505MOL0     H69651   3.107   4.603   2.827 -4.1273  0.9013 -2.6497
  505MOL0     H69652   3.675   4.748   2.908 -0.4895 -0.3439  0.8145
  505MOL0     H69653   3.768   4.977   2.881  0.6907 -3.7527 -0.9475
  505MOL0     H69654   3.580   5.331   3.109 -0.6110 -1.1101  2.1893
  505MOL0     H69655   3.695   5.241   3.205 -0.5706 -1.9517 -0.4455
  505MOL0     H69656   3.870   5.371   3.073  1.1770  0.6430 -0.6835
  505MOL0     H69657   3.746   5.438   2.968  0.2341 -1.2621  0.1672
  505MOL0     H69658   3.787   5.495   3.246 -3.4558 -5.4346 -0.2352
  505MOL0     H69659   3.638   5.550   3.171 -0.5437  1.3719 -3.0331
  505MOL0     H69660   3.931   5.612   3.089 -1.1415 -0.7108  0.6836
  505MOL0     H69661   3.832   5.719   3.182  1.7753 -1.9778  2.1977
  505MOL0     H69662   3.809   5.638   2.894  1.4318 -1.0969  3.0322
  505MOL0     H69663   3.667   5.697   2.962  0.7102  0.7073 -1.2770
  505MOL0     H69664   3.840   5.866   2.841 -0.0240  3.3107  0.5519
  505MOL0     H69665   3.944   5.844   2.974  0.9373  0.7794 -0.3873
  505MOL0     H69666   3.813   6.043   3.017 -1.0186  0.6796 -2.6085
  505MOL0     H69667   3.720   5.930   3.122 -2.7685  0.2507 -0.8725
  505MOL0     H69668   3.550   5.908   2.964 -1.7317  3.0801  1.3551
  505MOL0     H69669   3.632   5.984   2.829  0.6625 -0.8314  0.4594
  505MOL0     H69670   3.465   5.131   3.136 -0.0213  0.6448 -0.9133
  505MOL0     H69671   3.377   4.914   3.166  1.0289  2.7267  1.7772
  505MOL0     H69672   3.539   4.434   3.010 -0.4979 -3.6145  1.4653
  505MOL0     H69673   3.506   4.217   3.028  0.7397  1.0977 -0.0551
  505MOL0     H69674   4.176   4.235   2.802  0.8764  0.9977 -0.6693
  505MOL0     H69675   4.370   4.298   2.924 -1.0051 -0.3324  0.9740
  505MOL0     H69676   4.578   4.525   3.142 -4.8938  1.3045  2.2918
  505MOL0     H69677   4.805   4.546   3.216 -1.5192  0.1067 -1.3078
  505MOL0     H69678   5.088   4.426   3.549  0.3768  0.0128  2.0004
  505MOL0     H69679   4.931   4.427   3.636 -0.4233  2.6494 -0.9840
  505MOL0     H69680   5.033   4.237   3.428  0.1203  4.8705 -0.9720
  505MOL0     H69681   4.877   4.213   3.504  0.4911 -1.5897  2.7039
  505MOL0     H69682   5.015   4.075   3.614  0.4750 -0.4968  0.9735
  505MOL0     H69683   5.163   4.180   3.609  0.3994 -1.5137  1.1064
  505MOL0     H69684   4.921   4.234   3.800 -1.0692 -0.2319 -1.9194
  505MOL0     H69685   5.073   4.315   3.789  0.2980 -1.4121 -1.3227
  505MOL0     H69686   5.199   3.962   3.982  0.2426 -0.8411 -1.0039
  505MOL0     H69687   4.704   4.380   3.591 -2.2667 -1.1229  0.3075
  505MOL0     H69688   4.454   4.404   3.644  1.6606 -1.0905  1.0458
  505MOL0     H69689   4.342   4.376   3.505  0.5543 -0.4950 -0.6696
  505MOL0     H69690   4.453   4.249   3.581 -0.4596  0.0741 -0.5424
  506MOL0     O69691   8.373   2.811  10.051 -0.0557 -0.4507  0.1719
  506MOL0     C69692   8.254   2.831  10.011 -0.9371 -0.0191  0.4814
  506MOL0     O69693   8.223   2.913   9.908  0.2124 -0.0425 -0.6452
  506MOL0     C69694   8.309   3.019   9.890  0.9948  0.8832 -0.1598
  506MOL0     C69695   8.425   3.001   9.819 -0.7046 -0.4585  0.6875
  506MOL0     C69696   8.494   3.113   9.780 -0.1757  0.7065  0.7937
  506MOL0     C69697   8.465   3.246   9.817 -0.4918  0.8836 -0.1767
  506MOL0     O69698   8.531   3.351   9.754  0.7943  0.0701  0.8269
  506MOL0     C69699   8.518   3.482   9.809  0.0053  1.1041  0.1223
  506MOL0     C69700   8.607   3.566   9.731 -0.5649 -0.4252  0.3547
  506MOL0     C69701   8.745   3.561   9.797  0.5503 -0.3940 -0.4666
  506MOL0     C69702   8.840   3.647   9.710 -0.3017 -0.3530 -0.1472
  506MOL0     C69703   8.985   3.680   9.758 -0.5904 -0.5362  0.1918
  506MOL0     C69704   8.998   3.729   9.904  0.3059 -0.6973 -0.6757
  506MOL0     C69705   9.142   3.774   9.947  0.3121  0.8846  1.2353
  506MOL0     C69706   9.249   3.676   9.900 -0.6542 -0.2647 -0.4699
  506MOL0     N69707   9.248   3.558   9.982 -0.2557 -0.3134  0.9275
  506MOL0     C69708   9.221   3.431   9.949 -0.7199  1.0486 -0.5199
  506MOL0     C69709   9.251   3.351  10.057  0.3261 -0.5850  0.9112
  506MOL0     C69710   9.233   3.205  10.071 -0.1598  0.9090  0.0605
  506MOL0     C69711   9.078   3.180  10.060  0.4839 -0.6121 -0.6964
  506MOL0     C69712   8.999   3.266  10.162 -0.4384  0.8870  0.8355
  506MOL0     C69713   8.851   3.201  10.178  0.3791 -0.1790 -0.4226
  506MOL0     O69714   8.789   3.255  10.298  0.9383 -0.0348 -0.4187
  506MOL0     C69715   8.661   3.208  10.327 -0.1401  0.0800 -0.7222
  506MOL0     C69716   8.624   3.228  10.459  0.0865 -0.3856 -0.1681
  506MOL0     C69717   8.494   3.201  10.501  0.0637 -1.0901 -0.2781
  506MOL0     C69718   8.459   3.237  10.648 -0.7753 -0.3084  0.7329
  506MOL0     C69719   8.394   3.147  10.411  0.4702  0.7439  0.3710
  506MOL0     C69720   8.250   3.103  10.440 -0.8761 -0.2651  0.0935
  506MOL0     O69721   8.176   3.077  10.335  0.1053  0.0475  0.3101
  506MOL0     C69722   8.045   3.082  10.352  1.1902  0.1861  1.4368
  506MOL0     C69723   7.981   2.959  10.325 -0.2882 -0.2295 -0.4133
  506MOL0     C69724   7.842   2.947  10.317  0.4613 -0.5531  0.4246
  506MOL0     C69725   7.762   3.061  10.339  0.0625 -1.3011 -0.5759
  506MOL0     O69726   7.627   3.054  10.301  0.6017 -0.3403  0.2783
  506MOL0     C69727   7.554   3.174  10.295  0.1279 -0.7517  0.3330
  506MOL0     C69728   7.596   3.258  10.171  0.1161 -0.1724 -0.1109
  506MOL0     C69729   7.505   3.378  10.148  0.0279 -0.4020  0.7957
  506MOL0     C69730   7.563   3.454  10.028  0.0453  0.3207 -1.0552
  506MOL0     C69731   7.506   3.587  10.023  0.0358 -0.4522 -0.8064
  506MOL0     C69732   7.558   3.673   9.906  0.0144 -0.5989  0.6307
  506MOL0     C69733   7.485   3.818   9.893  0.1106  0.3926 -0.4861
  506MOL0     C69734   7.531   3.915   9.998 -0.2183  0.6992  0.2548
  506MOL0    Cl69735   7.433   4.054  10.029  0.3273 -0.0425  0.4161
  506MOL0     C69736   7.826   3.176  10.383 -0.9032  0.1255 -0.0070
  506MOL0     C69737   7.965   3.188  10.395  0.4765 -0.7561  0.3307
  506MOL0     O69738   8.220   3.095  10.557 -0.5691  0.3363  0.5188
  506MOL0     C69739   8.433   3.133  10.282  1.0338 -0.4329  0.3483
  506MOL0     C69740   8.557   3.166  10.234 -0.4330  0.5733  0.1893
  506MOL0     N69741   9.313   3.429  10.143  0.5415 -0.0496  0.0592
  506MOL0     N69742   9.303   3.556  10.105 -0.2122  0.6135 -0.5966
  506MOL0     C69743   8.356   3.253   9.910  0.9089 -0.7026 -0.3045
  506MOL0     C69744   8.278   3.145   9.943  0.5854 -0.3107 -0.9163
  506MOL0     C69745   8.148   2.743  10.057 -0.3600 -0.3101 -0.5613
  506MOL0     C69746   8.019   2.767  10.007 -0.5656 -0.0074 -0.1080
  506MOL0     C69747   7.911   2.683  10.044 -0.2995 -0.3510 -0.1613
  506MOL0     C69748   7.918   2.589  10.144  0.5117 -0.3863 -0.7058
  506MOL0     O69749   7.805   2.539  10.194  0.8678 -1.0926  0.0367
  506MOL0     C69750   7.793   2.399  10.193 -0.1270  0.1741 -0.5342
  506MOL0     C69751   7.824   2.346  10.332 -0.8949 -0.3809 -0.0669
  506MOL0     C69752   7.908   2.219  10.343  0.1638 -0.0467  0.0380
  506MOL0     C69753   7.814   2.104  10.327 -0.8701 -0.2187 -0.2072
  506MOL0     C69754   7.784   2.073  10.188 -0.7420 -0.8223 -0.1714
  506MOL0     C69755   7.757   2.070  10.070  0.0910  0.7408  0.6879
  506MOL0     C69756   8.042   2.570  10.197 -0.7054  0.0107 -0.0622
  506MOL0     C69757   8.154   2.636  10.156 -0.4296 -0.2288 -0.3459
  506MOL0     C69758   8.286   2.580  10.201  0.3912 -0.3495 -0.0627
  506MOL0     H69759   8.454   2.899   9.797  2.4130  0.6039 -0.5545
  506MOL0     H69760   8.577   3.084   9.716  0.2860  2.6907  0.4237
  506MOL0     H69761   8.560   3.476   9.910 -0.8026 -1.0371  0.3971
  506MOL0     H69762   8.415   3.518   9.802 -0.0664  0.9254  0.2608
  506MOL0     H69763   8.609   3.530   9.627 -0.4216  2.6288 -0.7999
  506MOL0     H69764   8.565   3.667   9.734 -1.3328 -0.5238 -2.8759
  506MOL0     H69765   8.736   3.590   9.902 -0.4269  0.7255 -0.8362
  506MOL0     H69766   8.788   3.463   9.819  1.7830  0.8953  3.6517
  506MOL0     H69767   8.850   3.606   9.609 -1.5122 -3.0936  0.7449
  506MOL0     H69768   8.785   3.739   9.691  1.0852  0.1137 -2.1701
  506MOL0     H69769   9.041   3.739   9.685 -0.7292 -1.5628 -0.7802
  506MOL0     H69770   9.034   3.582   9.761 -0.8915 -0.7900 -1.7836
  506MOL0     H69771   8.926   3.811   9.917  0.7720 -0.4449  0.4642
  506MOL0     H69772   8.961   3.662   9.982 -2.6573  2.9495  1.4015
  506MOL0     H69773   9.139   3.795  10.054 -4.0456  3.6092  0.8369
  506MOL0     H69774   9.165   3.866   9.892 -1.4554  0.3643 -0.5081
  506MOL0     H69775   9.246   3.642   9.796 -1.9913  3.1824 -1.6763
  506MOL0     H69776   9.345   3.727   9.913  0.1447 -1.4561 -1.4429
  506MOL0     H69777   9.164   3.398   9.863 -1.8766 -0.6570  0.8273
  506MOL0     H69778   9.261   3.164  10.168  1.6285  0.8848 -0.4386
  506MOL0     H69779   9.293   3.151   9.997 -0.2016  0.8881  0.0422
  506MOL0     H69780   9.048   3.205   9.958  1.1480 -1.3056 -1.0736
  506MOL0     H69781   9.072   3.071  10.069 -0.6215 -0.6739 -1.8392
  506MOL0     H69782   9.050   3.268  10.258  0.6803  0.4786  0.2606
  506MOL0     H69783   8.986   3.366  10.120  1.3663  0.9308  0.3291
  506MOL0     H69784   8.786   3.225  10.093 -3.4079  0.5794  2.3889
  506MOL0     H69785   8.851   3.092  10.192  2.2250 -0.5964 -3.0111
  506MOL0     H69786   8.686   3.247  10.546 -0.7523 -0.7912  0.5399
  506MOL0     H69787   8.543   3.297  10.683 -0.1067 -0.9541  0.2880
  506MOL0     H69788   8.450   3.155  10.719  1.0546  1.5541  3.3011
  506MOL0     H69789   8.367   3.295  10.646 -1.1682 -0.4295  5.2079
  506MOL0     H69790   8.037   2.875  10.284 -2.5256 -3.2776  2.2638
  506MOL0     H69791   7.803   2.852  10.280 -1.6476  1.5794 -3.4268
  506MOL0     H69792   7.452   3.148  10.265  0.3510  0.9288 -2.2377
  506MOL0     H69793   7.550   3.233  10.387  0.7999 -1.3827  0.7724
  506MOL0     H69794   7.703   3.279  10.169 -0.1351  1.8137  2.3918
  506MOL0     H69795   7.579   3.194  10.084 -1.3446  1.7126 -1.2873
  506MOL0     H69796   7.498   3.442  10.236 -3.1824  0.6842 -0.1055
  506MOL0     H69797   7.400   3.354  10.127 -0.0912 -2.4786  3.2417
  506MOL0     H69798   7.546   3.395   9.937  1.8911 -0.1327 -1.1489
  506MOL0     H69799   7.671   3.450  10.041 -0.0015  0.2000 -0.7007
  506MOL0     H69800   7.398   3.574  10.010  0.0111 -0.5683 -0.5133
  506MOL0     H69801   7.519   3.635  10.121  1.6071 -2.6044  0.1306
  506MOL0     H69802   7.524   3.613   9.820 -0.4403 -0.4375  0.6962
  506MOL0     H69803   7.666   3.675   9.893 -0.0290  0.7407  0.3331
  506MOL0     H69804   7.379   3.803   9.913  0.4710 -0.2074  1.1432
  506MOL0     H69805   7.506   3.864   9.796 -1.2750  1.0604 -0.4890
  506MOL0     H69806   7.631   3.951   9.973  0.2558 -1.9253 -2.1583
  506MOL0     H69807   7.530   3.859  10.092  0.2314 -1.5983 -1.0321
  506MOL0     H69808   7.768   3.266  10.404  2.3276  1.6881  3.2486
  506MOL0     H69809   7.996   3.287  10.426 -0.1557 -0.1059 -1.0396
  506MOL0     H69810   8.360   3.105  10.206  0.6625 -0.1436  0.5914
  506MOL0     H69811   8.586   3.153  10.130  2.0325 -2.7205  1.1146
  506MOL0     H69812   8.329   3.352   9.946  2.3438 -0.9319  1.5338
  506MOL0     H69813   8.182   3.165   9.988  0.7560 -0.4603 -0.4833
  506MOL0     H69814   7.997   2.851   9.941 -2.1956 -1.0467 -0.9612
  506MOL0     H69815   7.809   2.698  10.009 -1.0523  1.0254  2.3372
  506MOL0     H69816   7.692   2.372  10.162 -0.2690  1.1805 -0.9881
  506MOL0     H69817   7.858   2.341  10.126 -1.7220  0.0046 -1.9996
  506MOL0     H69818   7.730   2.339  10.388 -0.0720  1.6660  1.7481
  506MOL0     H69819   7.865   2.426  10.395  2.8378 -2.0524 -0.0866
  506MOL0     H69820   7.982   2.210  10.263 -1.6511  1.9206 -2.0011
  506MOL0     H69821   7.961   2.228  10.438 -1.1500  3.1580  0.5737
  506MOL0     H69822   7.719   2.108  10.381 -1.6857 -2.1090 -1.3825
  506MOL0     H69823   7.865   2.016  10.368 -0.7867 -1.0619 -2.0191
  506MOL0     H69824   7.738   2.084   9.965  0.2052 -0.1070  0.5463
  506MOL0     H69825   8.066   2.488  10.264 -3.3338 -2.7156 -2.1766
  506MOL0     H69826   8.346   2.553  10.114 -0.7690 -1.3593 -0.5741
  506MOL0     H69827   8.348   2.649  10.259 -0.2418  1.4563 -1.4217
  506MOL0     H69828   8.267   2.490  10.259 -2.9843  2.4351  3.7354
  507MOL0     O69829   2.006   6.928   0.465 -0.5655  0.7816 -0.4883
  507MOL0     C69830   2.075   7.016   0.424  0.0521  0.1038  0.0577
  507MOL0     O69831   2.029   7.124   0.355 -0.3081  0.1563  0.3472
  507MOL0     C69832   1.896   7.134   0.321 -0.1712 -0.9175 -0.3700
  507MOL0     C69833   1.824   7.236   0.384  0.2731  0.2561 -0.7179
  507MOL0     C69834   1.686   7.255   0.346 -0.0124  0.5008  0.7741
  507MOL0     C69835   1.626   7.171   0.253 -0.6920  0.1156 -0.0025
  507MOL0     O69836   1.495   7.177   0.224  0.2044 -0.3441 -0.0566
  507MOL0     C69837   1.478   7.263   0.108 -0.5198 -0.1675  0.2626
  507MOL0     C69838   1.338   7.323   0.096  0.6836  1.8542 -0.3854
  507MOL0     C69839   1.234   7.210   0.064  0.2032 -0.0887 -0.1896
  507MOL0     C69840   1.164   7.144   0.181  0.5121  0.2783  0.8179
  507MOL0     C69841   1.084   7.006   0.172  0.2595  0.1713  0.0989
  507MOL0     C69842   0.986   6.998   0.065  0.2477 -0.0615  0.0702
  507MOL0     C69843   0.937   6.864   0.050  0.0580  0.2179 -0.6830
  507MOL0     C69844   1.018   6.767  -0.028 -0.4646 -0.1011  0.1115
  507MOL0     N69845   0.954   6.641  -0.079 -0.1115 -1.1263  0.2917
  507MOL0     C69846   0.838   6.637  -0.136  0.2395 -0.7971  0.2526
  507MOL0     C69847   0.790   6.515  -0.120 -0.2231 -1.1302  0.8037
  507MOL0     C69848   0.655   6.467  -0.173 -0.6609  1.3068  0.7298
  507MOL0     C69849   0.573   6.393  -0.053 -0.5932 -0.1247 -0.1993
  507MOL0     C69850   0.449   6.314  -0.124  0.2356  0.5662  0.1372
  507MOL0     C69851   0.343   6.266  -0.035  0.2500  0.5838 -0.8682
  507MOL0     O69852   0.244   6.196  -0.118  0.1594 -0.1695 -0.0954
  507MOL0     C69853   0.116   6.240  -0.080  0.1335  0.4668  0.0149
  507MOL0     C69854   0.073   6.210   0.047  0.2695  0.5071  0.5834
  507MOL0     C69855  -0.056   6.255   0.081  0.6272 -0.3557 -0.0594
  507MOL0     C69856  -0.083   6.228   0.222 -0.6855  0.2004 -0.3608
  507MOL0     C69857  -0.148   6.306  -0.013  0.0849 -0.1325 -0.0266
  507MOL0     C69858  -0.290   6.352   0.026  0.4967 -0.4598  1.2414
  507MOL0     O69859  -0.319   6.462  -0.046  0.4707  0.4339 -0.2795
  507MOL0     C69860  -0.413   6.553  -0.010 -0.4719 -0.8550 -0.3594
  507MOL0     C69861  -0.401   6.672  -0.081 -0.1026  1.3342  0.6874
  507MOL0     C69862  -0.486   6.782  -0.059  0.0103 -0.1453  0.6111
  507MOL0     C69863  -0.597   6.770   0.016 -0.7539 -0.1457 -0.2085
  507MOL0     O69864  -0.700   6.853   0.025  0.3324  0.1460  0.2597
  507MOL0     C69865  -0.740   6.932  -0.093 -0.0407  0.4055  0.4305
  507MOL0     C69866  -0.774   6.838  -0.215 -0.7100  0.0230  0.1231
  507MOL0     C69867  -0.693   6.834  -0.345  0.5103 -0.3932  0.4703
  507MOL0     C69868  -0.664   6.969  -0.413  0.6215  1.0392 -0.0178
  507MOL0     C69869  -0.799   7.053  -0.445 -0.0398 -0.7027  0.2674
  507MOL0     C69870  -0.901   6.966  -0.527 -0.5113 -0.5412  0.6538
  507MOL0     C69871  -1.004   7.058  -0.587  0.4587 -0.4707  0.1593
  507MOL0     C69872  -1.128   6.979  -0.604  0.9805 -0.2646  0.5940
  507MOL0    Cl69873  -1.123   6.817  -0.691  0.2173 -0.0698  0.0423
  507MOL0     C69874  -0.599   6.663   0.105 -0.1318  0.4996  0.4740
  507MOL0     C69875  -0.507   6.555   0.094 -0.9566  0.9352  0.0879
  507MOL0     O69876  -0.366   6.300   0.107 -0.6266 -0.0891 -0.0739
  507MOL0     C69877  -0.099   6.337  -0.140 -1.4886  0.2947  0.5567
  507MOL0     C69878   0.028   6.296  -0.173 -0.5943 -0.1430 -0.2898
  507MOL0     N69879   0.878   6.446  -0.038 -0.5419  0.4646  0.2798
  507MOL0     N69880   0.980   6.524  -0.018 -0.4698 -0.3568 -0.3089
  507MOL0     C69881   1.706   7.083   0.182  0.9874 -0.3739  0.1805
  507MOL0     C69882   1.834   7.061   0.223 -1.0528  0.2548 -0.1683
  507MOL0     C69883   2.212   7.003   0.446  0.4186 -0.1564  0.0213
  507MOL0     C69884   2.261   7.021   0.575 -0.2549 -0.9525 -0.5230
  507MOL0     C69885   2.402   7.036   0.592  0.1818  0.3111 -0.6068
  507MOL0     C69886   2.484   7.019   0.485  0.0390  0.7565  0.2161
  507MOL0     O69887   2.616   7.012   0.507  0.6887  0.2004  0.0214
  507MOL0     C69888   2.687   7.122   0.570 -0.2494  0.1489 -0.2957
  507MOL0     C69889   2.708   7.117   0.725 -0.2255  0.3541  0.9064
  507MOL0     C69890   2.711   7.258   0.795  0.4916 -0.1459 -0.9999
  507MOL0     C69891   2.824   7.348   0.764 -0.2121  0.4493 -0.2760
  507MOL0     C69892   2.952   7.283   0.776 -0.8283  0.0843  0.2171
  507MOL0     C69893   3.072   7.254   0.786 -0.3559 -0.4453  0.2252
  507MOL0     C69894   2.434   6.990   0.363 -0.1426  0.5483 -0.6757
  507MOL0     C69895   2.302   6.980   0.331 -0.7679 -0.6410 -0.7790
  507MOL0     C69896   2.267   6.928   0.193  0.6912  0.9016 -0.6316
  507MOL0     H69897   1.873   7.287   0.467 -0.2105 -1.8459  0.9309
  507MOL0     H69898   1.643   7.344   0.390  0.0921  1.2154 -0.5121
  507MOL0     H69899   1.502   7.213   0.014  2.5247  0.5651  0.5425
  507MOL0     H69900   1.538   7.354   0.104 -1.1268  0.2456  0.2888
  507MOL0     H69901   1.310   7.386   0.181  0.9488 -1.5734  2.4710
  507MOL0     H69902   1.343   7.389   0.010 -1.1096  1.1090 -1.1183
  507MOL0     H69903   1.156   7.249  -0.001  0.0400 -2.3973 -1.4704
  507MOL0     H69904   1.283   7.129   0.009 -0.6861 -0.6957 -0.1165
  507MOL0     H69905   1.225   7.152   0.271  1.4524 -0.5864  0.2784
  507MOL0     H69906   1.084   7.215   0.203 -0.4259  0.1033 -1.6553
  507MOL0     H69907   1.041   6.992   0.272  0.0354 -1.7318 -0.2270
  507MOL0     H69908   1.167   6.934   0.167 -0.3723 -0.7334  1.7311
  507MOL0     H69909   0.913   7.079   0.079  1.6031  0.9912  1.2620
  507MOL0     H69910   1.029   7.024  -0.033 -1.5226 -0.8141 -0.9608
  507MOL0     H69911   0.849   6.884  -0.012 -0.7928  1.1826  0.7795
  507MOL0     H69912   0.893   6.827   0.143 -2.2109  2.9778 -0.4839
  507MOL0     H69913   1.073   6.800  -0.116 -3.7422 -2.6745 -3.1871
  507MOL0     H69914   1.092   6.730   0.043 -0.6173  0.8873  0.8137
  507MOL0     H69915   0.782   6.708  -0.197  0.9741  0.9209  1.5188
  507MOL0     H69916   0.668   6.389  -0.249 -0.6992 -0.7031  2.6567
  507MOL0     H69917   0.596   6.547  -0.217 -1.8052 -0.5076 -1.2506
  507MOL0     H69918   0.642   6.326  -0.001  0.7846  0.0614 -1.6863
  507MOL0     H69919   0.540   6.468   0.019 -0.2985 -1.2759  1.1891
  507MOL0     H69920   0.409   6.381  -0.200  1.7294  1.3322 -0.0111
  507MOL0     H69921   0.496   6.228  -0.174 -1.5649  0.6607 -1.8305
  507MOL0     H69922   0.392   6.214   0.047  2.0786  1.0303 -1.6277
  507MOL0     H69923   0.300   6.363  -0.009 -2.6287  0.3885 -4.1048
  507MOL0     H69924   0.142   6.175   0.124  0.8493  2.9763  1.2839
  507MOL0     H69925  -0.103   6.322   0.274 -1.1253 -0.5731  0.9083
  507MOL0     H69926  -0.019   6.169   0.287 -1.2660  1.5119  1.5101
  507MOL0     H69927  -0.176   6.171   0.227 -1.2214  1.1668  1.3893
  507MOL0     H69928  -0.323   6.682  -0.156  0.2367  0.8337  0.9692
  507MOL0     H69929  -0.472   6.875  -0.112 -3.4260 -0.2161 -0.6863
  507MOL0     H69930  -0.827   6.996  -0.076  2.3975  3.5812  2.0098
  507MOL0     H69931  -0.662   7.004  -0.119  2.5635 -2.7319 -1.1238
  507MOL0     H69932  -0.791   6.733  -0.190  1.3230 -1.4104 -3.7639
  507MOL0     H69933  -0.872   6.877  -0.245 -0.5256  0.0477 -0.4474
  507MOL0     H69934  -0.750   6.766  -0.411  3.0240  1.0512 -3.5683
  507MOL0     H69935  -0.599   6.780  -0.332  2.7699  3.4542  1.6317
  507MOL0     H69936  -0.610   6.944  -0.504 -0.3641 -0.9564 -0.1064
  507MOL0     H69937  -0.604   7.032  -0.346  0.8082  2.5931 -1.5877
  507MOL0     H69938  -0.838   7.105  -0.357 -1.5172  1.0208 -1.3194
  507MOL0     H69939  -0.779   7.140  -0.507 -3.0287 -0.5103 -0.5542
  507MOL0     H69940  -0.950   6.896  -0.458 -2.8137  0.5368  0.2044
  507MOL0     H69941  -0.853   6.905  -0.605  1.1975 -1.7921  2.5800
  507MOL0     H69942  -0.967   7.097  -0.683 -0.4834  1.1141  0.4044
  507MOL0     H69943  -1.021   7.152  -0.533 -1.9231  1.8020 -3.9237
  507MOL0     H69944  -1.195   7.054  -0.647 -0.6706 -2.1234 -0.2298
  507MOL0     H69945  -1.169   6.949  -0.508 -1.5687 -2.3475 -1.0012
  507MOL0     H69946  -0.658   6.641   0.193  2.7127 -3.5424  1.6604
  507MOL0     H69947  -0.501   6.478   0.170 -0.4212  1.3941  0.5201
  507MOL0     H69948  -0.164   6.395  -0.205 -1.3876 -0.7203 -0.4907
  507MOL0     H69949   0.056   6.328  -0.273  4.9533 -3.1965 -0.1218
  507MOL0     H69950   1.670   7.012   0.108  1.1109 -1.8641  1.4671
  507MOL0     H69951   1.899   6.990   0.172 -0.0860 -0.4811  1.9510
  507MOL0     H69952   2.191   7.039   0.656 -0.8721 -1.2239 -0.9906
  507MOL0     H69953   2.431   7.075   0.689 -4.7764  0.7890  0.9800
  507MOL0     H69954   2.776   7.145   0.512 -0.8221  3.1180 -0.1691
  507MOL0     H69955   2.626   7.211   0.553 -2.7006 -1.2856  0.3465
  507MOL0     H69956   2.805   7.073   0.749  0.9535  2.1184 -0.4193
  507MOL0     H69957   2.628   7.063   0.778 -1.0725 -0.2903 -0.9524
  507MOL0     H69958   2.619   7.311   0.770 -0.0716 -2.4865 -4.5640
  507MOL0     H69959   2.713   7.245   0.904  2.9929  1.4787 -0.7761
  507MOL0     H69960   2.825   7.444   0.816  2.8391  1.8698 -2.6454
  507MOL0     H69961   2.803   7.377   0.661  0.1910  2.0080  0.0631
  507MOL0     H69962   3.177   7.242   0.806  0.1256  3.0957  0.4132
  507MOL0     H69963   2.506   6.979   0.283 -0.3921 -3.9579 -0.5325
  507MOL0     H69964   2.219   6.830   0.197  3.4645 -0.5362  1.2818
  507MOL0     H69965   2.207   7.004   0.142 -2.5861 -0.4969  0.8296
  507MOL0     H69966   2.363   6.899   0.149  1.1313  0.0675  0.7875
  508MOL0     O69967   5.963   9.875   3.523  0.1297  0.2125 -0.3785
  508MOL0     C69968   6.046   9.787   3.542 -0.9593 -0.6331 -0.2175
  508MOL0     O69969   6.063   9.723   3.664  0.2873 -0.0806 -0.0154
  508MOL0     C69970   6.012   9.784   3.779  0.0293  0.7024 -0.3830
  508MOL0     C69971   6.104   9.844   3.875 -0.2097  0.6625  0.1872
  508MOL0     C69972   6.061   9.903   3.995  0.0934  1.0267 -0.7778
  508MOL0     C69973   5.928   9.896   4.036  0.0888  0.3340 -0.3563
  508MOL0     O69974   5.898   9.947   4.158 -0.1950  0.5646 -0.1150
  508MOL0     C69975   5.782  10.032   4.147 -0.2593 -0.3634 -0.9130
  508MOL0     C69976   5.671   9.966   4.250  0.5911 -0.1572 -0.6495
  508MOL0     C69977   5.724   9.919   4.393 -0.2227 -0.7284  0.7561
  508MOL0     C69978   5.803  10.025   4.476 -0.0657  0.7141 -0.2577
  508MOL0     C69979   5.824   9.980   4.623  0.4085 -0.9395 -0.2104
  508MOL0     C69980   5.887  10.092   4.703 -0.2321  0.3726  0.1462
  508MOL0     C69981   5.927  10.042   4.840 -0.0446  0.3345 -0.3527
  508MOL0     C69982   5.950  10.163   4.930 -0.2260  1.0461  0.2494
  508MOL0     N69983   6.083  10.232   4.902  0.4776 -0.4777  0.5046
  508MOL0     C69984   6.201  10.192   4.965  0.1466 -0.3652 -0.4350
  508MOL0     C69985   6.287  10.299   4.984  0.1858  0.4133  1.1916
  508MOL0     C69986   6.410  10.303   5.062  0.2500 -0.1537 -0.3938
  508MOL0     C69987   6.520  10.281   4.969 -0.1936  0.1153  0.4257
  508MOL0     C69988   6.658  10.304   5.034 -0.6330  0.0546 -0.2300
  508MOL0     C69989   6.754  10.315   4.915  0.2011  0.5062 -0.8528
  508MOL0     O69990   6.886  10.364   4.958  0.6276  0.5759 -0.4013
  508MOL0     C69991   6.985  10.359   4.867  0.3788  0.3926  0.2842
  508MOL0     C69992   6.976  10.314   4.733  0.7623 -0.5767 -0.3922
  508MOL0     C69993   7.093  10.318   4.655 -0.7772 -0.4075  0.5034
  508MOL0     C69994   7.095  10.273   4.505 -0.8258  0.9521  0.0415
  508MOL0     C69995   7.218  10.356   4.705  0.8955 -0.1205  0.0902
  508MOL0     C69996   7.347  10.371   4.628 -0.4341 -0.5622  0.0001
  508MOL0     O69997   7.472  10.381   4.701 -0.0620  0.0638 -0.2647
  508MOL0     C69998   7.592  10.389   4.639  0.7967  0.7254 -0.3814
  508MOL0     C69999   7.636  10.278   4.570 -0.5253 -0.1906  0.0518
  508MOL0     C70000   7.757  10.288   4.487 -0.6563  0.7759 -0.2922
  508MOL0     C70001   7.845  10.403   4.502  0.2630  0.2362  0.4670
  508MOL0     O70002   7.967  10.421   4.441 -0.1856  0.2941  1.2709
  508MOL0     C70003   8.032  10.314   4.368 -0.2995  0.0060 -0.4860
  508MOL0     C70004   8.146  10.383   4.287 -0.2730 -0.2701 -0.1856
  508MOL0     C70005   8.230  10.493   4.363  0.0851 -0.1338 -0.0700
  508MOL0     C70006   8.320  10.568   4.267  0.7098  0.6706 -0.2782
  508MOL0     C70007   8.431  10.656   4.330  0.3625  1.0974 -0.6561
  508MOL0     C70008   8.499  10.599   4.457  0.5592 -0.7386 -0.4504
  508MOL0     C70009   8.617  10.683   4.515  0.2558  0.0074  0.1549
  508MOL0     C70010   8.665  10.627   4.649 -0.2385 -0.4097  0.5084
  508MOL0    Cl70011   8.770  10.765   4.718  0.0977 -0.0495  0.3389
  508MOL0     C70012   7.799  10.504   4.593 -0.0618 -0.1165 -1.0021
  508MOL0     C70013   7.676  10.491   4.666 -0.1692 -0.0018 -0.1727
  508MOL0     O70014   7.345  10.388   4.508 -0.0883  0.4793 -1.1558
  508MOL0     C70015   7.222  10.387   4.840 -0.3881 -0.0185  0.7195
  508MOL0     C70016   7.112  10.385   4.919  0.2827 -1.1438 -0.0215
  508MOL0     N70017   6.212  10.398   4.920 -0.2216 -1.2675 -0.4679
  508MOL0     N70018   6.098  10.363   4.867 -0.7698 -0.5948 -0.2990
  508MOL0     C70019   5.832   9.838   3.951 -0.4960  0.3217 -0.3009
  508MOL0     C70020   5.878   9.777   3.825  0.8561 -0.2968  0.6846
  508MOL0     C70021   6.122   9.746   3.431 -0.6127  0.3769 -0.5678
  508MOL0     C70022   6.139   9.597   3.410  0.1367  0.2225 -0.1503
  508MOL0     C70023   6.215   9.560   3.301 -0.3861 -0.0167  0.9167
  508MOL0     C70024   6.289   9.647   3.221  0.1200 -0.3186 -0.7111
  508MOL0     O70025   6.381   9.604   3.121  0.1425 -0.8570 -0.5462
  508MOL0     C70026   6.448   9.477   3.144  0.0632  0.6696  1.1924
  508MOL0     C70027   6.550   9.474   3.268 -0.2835 -0.5718 -0.0576
  508MOL0     C70028   6.656   9.370   3.258  0.4997  0.6903  0.8637
  508MOL0     C70029   6.599   9.227   3.259 -0.7734 -0.1872 -0.5894
  508MOL0     C70030   6.541   9.191   3.388  1.2860 -0.4836  0.2807
  508MOL0     C70031   6.500   9.167   3.499 -0.8776  0.6256 -0.6019
  508MOL0     C70032   6.278   9.789   3.248  0.4120  0.1913 -0.0603
  508MOL0     C70033   6.189   9.838   3.347 -0.8176 -0.6091  0.2721
  508MOL0     C70034   6.200   9.981   3.380  0.0473 -0.1604  0.3576
  508MOL0     H70035   6.212   9.851   3.869 -0.1759  2.1646  1.6158
  508MOL0     H70036   6.130   9.941   4.069 -1.0275  0.7619  0.4653
  508MOL0     H70037   5.728  10.045   4.053 -0.7131  1.1812 -0.4807
  508MOL0     H70038   5.819  10.131   4.177 -0.1223 -0.5142 -0.5798
  508MOL0     H70039   5.590  10.035   4.275 -1.1010 -2.1575 -0.2460
  508MOL0     H70040   5.623   9.886   4.193  0.1990 -0.4177  0.0291
  508MOL0     H70041   5.636   9.891   4.451  0.4998 -1.5311  1.4969
  508MOL0     H70042   5.786   9.830   4.375  0.2093 -0.2038 -0.4518
  508MOL0     H70043   5.899  10.050   4.431 -0.7996 -1.9107 -3.7742
  508MOL0     H70044   5.745  10.118   4.472 -1.8790 -0.3689 -0.2451
  508MOL0     H70045   5.884   9.888   4.625  2.3773  0.2846 -0.1653
  508MOL0     H70046   5.725   9.964   4.666  0.2622 -1.2867 -0.6601
  508MOL0     H70047   5.980  10.123   4.655  1.2084 -0.8955  2.0118
  508MOL0     H70048   5.821  10.179   4.697  0.8824  1.1659 -1.7807
  508MOL0     H70049   6.018   9.984   4.828  0.9150  0.5649  4.0547
  508MOL0     H70050   5.851   9.980   4.887  1.6058 -1.6056 -0.1333
  508MOL0     H70051   5.873  10.237   4.905  0.0459  0.6291 -2.0145
  508MOL0     H70052   5.947  10.140   5.037 -1.4764 -2.8974 -0.5090
  508MOL0     H70053   6.215  10.093   5.009  2.4116  0.2925  0.5053
  508MOL0     H70054   6.399  10.217   5.128 -1.8715 -1.4583 -2.2829
  508MOL0     H70055   6.427  10.397   5.115  4.2849 -0.6103 -0.5753
  508MOL0     H70056   6.523  10.179   4.929  0.3543 -0.0819  0.9508
  508MOL0     H70057   6.497  10.350   4.888 -0.4957  0.0362  0.4439
  508MOL0     H70058   6.660  10.386   5.107  0.2729  0.0023 -0.1768
  508MOL0     H70059   6.701  10.217   5.084  1.4702  0.0123 -1.9664
  508MOL0     H70060   6.768  10.221   4.862  0.6431  0.4088 -0.5699
  508MOL0     H70061   6.732  10.395   4.843  1.4917  2.3856  0.7074
  508MOL0     H70062   6.886  10.273   4.689  0.3813  1.1037 -1.3002
  508MOL0     H70063   7.178  10.205   4.486 -0.5008  1.4745 -0.4593
  508MOL0     H70064   7.098  10.366   4.447  0.7023  2.0352  1.7441
  508MOL0     H70065   7.001  10.222   4.484 -0.3047  0.1099 -0.3163
  508MOL0     H70066   7.576  10.188   4.560 -1.5863  0.7191 -2.8021
  508MOL0     H70067   7.780  10.205   4.420 -0.7704 -1.4477  2.2253
  508MOL0     H70068   8.068  10.250   4.449 -1.7132 -1.3399 -0.8810
  508MOL0     H70069   7.970  10.254   4.301  0.4828  0.1325 -1.3441
  508MOL0     H70070   8.216  10.303   4.260  1.3675  1.4390 -1.2455
  508MOL0     H70071   8.100  10.429   4.200 -0.3225 -0.8222 -0.4512
  508MOL0     H70072   8.297  10.431   4.424  2.8344 -1.2945 -3.9168
  508MOL0     H70073   8.170  10.568   4.416  1.1128  1.9618 -1.7506
  508MOL0     H70074   8.253  10.637   4.215 -1.0737 -1.0015 -0.3179
  508MOL0     H70075   8.355  10.503   4.186  1.4121  0.6715  0.0205
  508MOL0     H70076   8.510  10.661   4.255  0.8873 -0.8521 -0.2835
  508MOL0     H70077   8.391  10.755   4.352 -0.3556  0.4368  1.1983
  508MOL0     H70078   8.529  10.496   4.434 -2.7310 -2.1651  1.0870
  508MOL0     H70079   8.431  10.586   4.542 -0.3420  2.5732 -0.5318
  508MOL0     H70080   8.584  10.785   4.538  5.0424  1.5818  1.1707
  508MOL0     H70081   8.694  10.705   4.440  0.9934  1.4023  1.2549
  508MOL0     H70082   8.718  10.533   4.630 -1.9099 -1.0367 -1.4721
  508MOL0     H70083   8.581  10.601   4.715 -2.4169  0.4715 -1.7384
  508MOL0     H70084   7.863  10.589   4.612  1.8645 -2.0510  1.9659
  508MOL0     H70085   7.638  10.557   4.743 -2.6040 -3.5722  1.9299
  508MOL0     H70086   7.322  10.405   4.879  0.2395 -1.1545 -0.3130
  508MOL0     H70087   7.124  10.405   5.025  0.3508  2.3111 -0.5621
  508MOL0     H70088   5.735   9.826   3.998  1.0635  0.9463  3.4283
  508MOL0     H70089   5.808   9.729   3.757  1.8477 -2.0450  0.8504
  508MOL0     H70090   6.103   9.521   3.478 -3.5705 -0.6365 -2.7330
  508MOL0     H70091   6.226   9.458   3.264  0.8936  1.0430 -1.9693
  508MOL0     H70092   6.370   9.401   3.143  0.8583 -0.4423 -3.8587
  508MOL0     H70093   6.509   9.455   3.056 -1.4083  1.0526  0.0465
  508MOL0     H70094   6.498   9.471   3.364 -2.7834 -1.5637 -1.3460
  508MOL0     H70095   6.602   9.569   3.254  4.3608 -2.6990  0.8949
  508MOL0     H70096   6.694   9.384   3.156 -1.8918  0.3928 -0.1279
  508MOL0     H70097   6.733   9.375   3.336  1.1754 -5.5656  1.0685
  508MOL0     H70098   6.669   9.145   3.243 -3.0307 -2.2136 -0.7001
  508MOL0     H70099   6.520   9.225   3.183 -0.3488 -1.3012 -1.0222
  508MOL0     H70100   6.495   9.136   3.601  0.4560 -1.0548 -0.9941
  508MOL0     H70101   6.343   9.861   3.197 -0.6293  1.2181  0.0231
  508MOL0     H70102   6.281  10.023   3.319  3.4179 -2.0112  3.1763
  508MOL0     H70103   6.112  10.041   3.355 -0.3159  1.1785  4.1552
  508MOL0     H70104   6.204   9.999   3.488  3.6069  1.5287  0.0624
  509MOL0     O70105   7.335   5.111   7.441  0.0970  0.7163  0.6814
  509MOL0     C70106   7.320   5.070   7.552  0.2753  0.7916 -0.1820
  509MOL0     O70107   7.260   4.955   7.594 -0.2959 -0.2694  0.0953
  509MOL0     C70108   7.218   4.867   7.501 -0.3426 -0.6771 -0.2416
  509MOL0     C70109   7.304   4.828   7.396 -0.1526 -0.7704 -0.3582
  509MOL0     C70110   7.270   4.730   7.306  0.2437  0.6617 -0.0847
  509MOL0     C70111   7.140   4.678   7.296  0.0406  0.2992 -0.0587
  509MOL0     O70112   7.102   4.590   7.196  0.1759 -0.0584 -0.0825
  509MOL0     C70113   6.959   4.566   7.172  0.5241  0.3760  0.7181
  509MOL0     C70114   6.949   4.469   7.048  0.1225 -0.4097  0.9706
  509MOL0     C70115   6.972   4.572   6.930 -0.9545 -0.7487  0.1506
  509MOL0     C70116   6.998   4.498   6.795 -0.1818  0.0737  0.1490
  509MOL0     C70117   6.971   4.585   6.675 -0.2406 -0.3806  0.6846
  509MOL0     C70118   6.938   4.496   6.554  0.8283 -1.1413 -0.2813
  509MOL0     C70119   6.897   4.570   6.420  0.5306  0.1051 -0.5515
  509MOL0     C70120   6.924   4.474   6.307 -0.7979  0.3927  0.3043
  509MOL0     N70121   6.869   4.338   6.337 -0.4886  0.1049 -0.5029
  509MOL0     C70122   6.938   4.221   6.333  0.7374  0.6955  0.3274
  509MOL0     C70123   6.837   4.129   6.324  0.1387  0.0930 -0.4527
  509MOL0     C70124   6.858   3.989   6.292  0.3114  0.3822  0.8007
  509MOL0     C70125   6.907   3.917   6.416  0.0407 -0.2379 -0.1519
  509MOL0     C70126   6.955   3.773   6.373  0.6658  0.1943  1.1769
  509MOL0     C70127   6.973   3.703   6.498 -0.3578 -0.3601 -0.7051
  509MOL0     O70128   7.020   3.567   6.479 -0.2673  0.2486  0.1005
  509MOL0     C70129   6.949   3.482   6.394 -0.0080 -0.1102 -0.5202
  509MOL0     C70130   6.987   3.454   6.264  0.6892  0.0973 -0.6009
  509MOL0     C70131   6.918   3.364   6.184  0.8314  0.7451  1.6749
  509MOL0     C70132   6.959   3.356   6.043  0.2212  0.8153  0.3570
  509MOL0     C70133   6.793   3.313   6.225 -0.4033  0.0631 -0.0031
  509MOL0     C70134   6.704   3.223   6.152  0.5805 -0.7103  0.5607
  509MOL0     O70135   6.572   3.226   6.184 -0.0128 -0.0380  0.0459
  509MOL0     C70136   6.491   3.121   6.140 -0.0554  0.0600  0.5153
  509MOL0     C70137   6.495   2.989   6.183  0.2708 -0.0521 -0.3781
  509MOL0     C70138   6.419   2.892   6.120 -0.2813  1.4957 -0.5609
  509MOL0     C70139   6.331   2.930   6.017  0.3861  0.2599 -0.1978
  509MOL0     O70140   6.240   2.843   5.965  0.6322  1.0755  0.9293
  509MOL0     C70141   6.168   2.772   6.061  0.2854  0.8734  0.0412
  509MOL0     C70142   6.046   2.705   5.988  1.0013  0.2956 -0.4947
  509MOL0     C70143   5.917   2.773   5.998  0.1270  0.2539 -0.4345
  509MOL0     C70144   5.818   2.701   5.905  0.3602 -1.4858 -0.4178
  509MOL0     C70145   5.681   2.754   5.947  0.5185  0.8154 -0.7484
  509MOL0     C70146   5.661   2.893   5.886  0.0319 -0.2544  0.8073
  509MOL0     C70147   5.511   2.924   5.863  0.7782 -0.7894 -0.3521
  509MOL0     C70148   5.482   3.052   5.790 -0.0742 -0.2870 -0.1414
  509MOL0    Cl70149   5.316   3.091   5.740 -0.5772  0.4278  0.4982
  509MOL0     C70150   6.326   3.062   5.979 -0.1100  0.0002 -0.2011
  509MOL0     C70151   6.404   3.160   6.037 -0.4211  0.4078 -0.5080
  509MOL0     O70152   6.769   3.137   6.091  0.1474  0.1385  0.7344
  509MOL0     C70153   6.748   3.347   6.357  0.1016 -0.0857  1.0848
  509MOL0     C70154   6.829   3.422   6.438  0.9910 -0.1366  0.3360
  509MOL0     N70155   6.717   4.193   6.307 -0.2711  0.1292 -0.5066
  509MOL0     N70156   6.739   4.315   6.322 -0.7757 -1.4725 -0.7800
  509MOL0     C70157   7.050   4.719   7.405 -0.1986  0.0157  0.6502
  509MOL0     C70158   7.095   4.808   7.495 -0.6530 -1.7448 -1.0341
  509MOL0     C70159   7.365   5.157   7.655  1.5749 -0.3947 -0.5942
  509MOL0     C70160   7.332   5.294   7.644 -0.2656  0.0266  0.2652
  509MOL0     C70161   7.358   5.378   7.747  1.2782  0.0494  0.7080
  509MOL0     C70162   7.419   5.335   7.867 -0.9322 -0.1816 -0.1010
  509MOL0     O70163   7.441   5.436   7.952  0.6101  0.2211 -0.0291
  509MOL0     C70164   7.512   5.400   8.070  0.2842  0.1191  0.4200
  509MOL0     C70165   7.665   5.400   8.052  0.0122  0.1408  0.2791
  509MOL0     C70166   7.736   5.541   8.018  0.2085  0.6111 -0.0634
  509MOL0     C70167   7.703   5.582   7.873 -0.2445 -0.3398 -0.1750
  509MOL0     C70168   7.738   5.479   7.781 -0.2499  0.1120 -0.0234
  509MOL0     C70169   7.744   5.388   7.705 -0.3299 -1.1629 -0.9053
  509MOL0     C70170   7.471   5.199   7.880  0.4670 -0.0883 -0.2433
  509MOL0     C70171   7.435   5.107   7.776 -0.1573 -0.3403 -0.6052
  509MOL0     C70172   7.479   4.965   7.780  0.7225 -0.0576 -0.5294
  509MOL0     H70173   7.401   4.875   7.402 -0.5300  0.1543 -1.1439
  509MOL0     H70174   7.348   4.705   7.235  0.4805  2.4923 -0.5082
  509MOL0     H70175   6.912   4.660   7.140  0.3593  0.3089  0.7636
  509MOL0     H70176   6.907   4.517   7.255 -2.0082 -2.0368 -2.0287
  509MOL0     H70177   7.032   4.397   7.052  3.1269  2.7949  3.7517
  509MOL0     H70178   6.851   4.422   7.047  0.1142 -0.4476 -1.2269
  509MOL0     H70179   6.884   4.636   6.916  2.0621  3.2076 -2.9925
  509MOL0     H70180   7.064   4.629   6.945 -0.7091  0.0450 -3.5496
  509MOL0     H70181   7.104   4.473   6.799  0.0350  0.6619 -1.5053
  509MOL0     H70182   6.927   4.415   6.785 -0.8767  0.9393 -3.1213
  509MOL0     H70183   7.063   4.641   6.654 -0.8624  0.9791  1.4278
  509MOL0     H70184   6.887   4.652   6.694 -2.3152 -2.7142  0.2013
  509MOL0     H70185   7.015   4.419   6.548  1.4642 -0.5007 -0.4933
  509MOL0     H70186   6.841   4.449   6.570 -1.7753  2.8102 -2.6754
  509MOL0     H70187   6.949   4.666   6.419  1.1105 -0.1299 -3.4786
  509MOL0     H70188   6.788   4.581   6.424  0.1701 -2.9872  0.3577
  509MOL0     H70189   6.878   4.502   6.211 -1.6170 -3.5703 -0.6345
  509MOL0     H70190   7.032   4.469   6.319 -1.0133 -1.0855  1.9681
  509MOL0     H70191   7.045   4.204   6.331  0.8739  0.5508  3.6930
  509MOL0     H70192   6.929   3.987   6.208 -0.6799  0.1340 -0.0499
  509MOL0     H70193   6.759   3.956   6.261  0.6795 -1.3292  1.3370
  509MOL0     H70194   6.987   3.987   6.443 -1.8509  2.6340 -1.6036
  509MOL0     H70195   6.840   3.912   6.502  0.1245  1.1852  0.0116
  509MOL0     H70196   6.883   3.720   6.310 -1.1478  3.1036  0.5972
  509MOL0     H70197   7.053   3.770   6.325 -0.1779 -2.7968 -0.6246
  509MOL0     H70198   7.049   3.748   6.562  0.5323 -0.9181 -1.3449
  509MOL0     H70199   6.878   3.702   6.553 -1.8364  0.6961 -3.0289
  509MOL0     H70200   7.076   3.502   6.224 -0.9547  3.3774 -0.6068
  509MOL0     H70201   6.950   3.252   6.007  1.1353  0.5485  0.8723
  509MOL0     H70202   7.065   3.376   6.027  1.0835 -3.4227 -0.7050
  509MOL0     H70203   6.901   3.414   5.970  0.4163 -0.6993 -1.0667
  509MOL0     H70204   6.569   2.957   6.255 -1.9113 -3.6087  0.5171
  509MOL0     H70205   6.423   2.787   6.146 -0.7485  0.9672 -2.4648
  509MOL0     H70206   6.218   2.687   6.109 -1.8349  0.5049  1.8068
  509MOL0     H70207   6.142   2.843   6.141 -1.0456 -1.3531  1.7345
  509MOL0     H70208   6.072   2.685   5.883 -3.0935 -1.5130 -1.3659
  509MOL0     H70209   6.038   2.606   6.034  1.2272 -0.4820 -2.0352
  509MOL0     H70210   5.930   2.874   5.960 -0.4714  1.3089  1.9834
  509MOL0     H70211   5.900   2.780   6.106  1.9796  0.3379 -0.1172
  509MOL0     H70212   5.815   2.594   5.925 -0.8572 -1.1813  1.2183
  509MOL0     H70213   5.838   2.723   5.800  2.1361  3.5270  0.7053
  509MOL0     H70214   5.604   2.688   5.906  2.6572 -1.9145 -0.6676
  509MOL0     H70215   5.677   2.757   6.056 -1.7281 -0.5602 -0.7193
  509MOL0     H70216   5.714   2.891   5.791 -0.7255  0.4450  0.3563
  509MOL0     H70217   5.708   2.970   5.947  0.9669  1.9454 -2.4553
  509MOL0     H70218   5.462   2.918   5.961 -1.5260  0.9778 -1.3025
  509MOL0     H70219   5.469   2.844   5.802  1.7739  0.1091 -2.2901
  509MOL0     H70220   5.541   3.057   5.698 -3.5034 -3.4396 -2.8399
  509MOL0     H70221   5.508   3.133   5.859  1.4573 -0.7165 -0.1874
  509MOL0     H70222   6.254   3.085   5.901 -0.9994  0.2130  0.6643
  509MOL0     H70223   6.392   3.265   6.012 -0.2280  0.6776  0.4636
  509MOL0     H70224   6.649   3.321   6.392 -2.0853  2.8293 -2.3052
  509MOL0     H70225   6.787   3.434   6.537  1.3097 -2.7380  0.8610
  509MOL0     H70226   6.952   4.676   7.423  0.7346 -1.8780  1.5349
  509MOL0     H70227   7.028   4.839   7.574  1.6857  0.4015  0.2809
  509MOL0     H70228   7.284   5.324   7.552 -0.4551 -0.5211  0.1821
  509MOL0     H70229   7.324   5.481   7.741 -2.0973 -0.9463  0.2915
  509MOL0     H70230   7.476   5.474   8.143  1.0135 -1.2136  2.2308
  509MOL0     H70231   7.484   5.303   8.113  3.2973 -1.3721 -0.7075
  509MOL0     H70232   7.688   5.323   7.978  3.3462 -1.6003  2.9026
  509MOL0     H70233   7.714   5.368   8.144  3.4565  0.1842 -1.4015
  509MOL0     H70234   7.717   5.607   8.103  1.5195  0.2970  0.4851
  509MOL0     H70235   7.844   5.526   8.022  0.3632  0.6603 -2.4703
  509MOL0     H70236   7.752   5.675   7.843  0.1279 -0.3354  0.4467
  509MOL0     H70237   7.597   5.607   7.859 -0.9484 -1.3244  2.7285
  509MOL0     H70238   7.749   5.298   7.648 -0.1914 -2.9013  1.6921
  509MOL0     H70239   7.512   5.161   7.972  0.4471 -0.1880 -0.2753
  509MOL0     H70240   7.392   4.899   7.778 -0.7029  1.7490 -0.7855
  509MOL0     H70241   7.528   4.940   7.685  0.2917  1.3231 -1.1454
  509MOL0     H70242   7.552   4.945   7.859 -1.9182  2.1896  2.7525
  510MOL0     O70243   1.235   9.439   1.564  0.8269  0.3459 -0.1603
  510MOL0     C70244   1.280   9.367   1.480  0.2679  0.7447 -0.2943
  510MOL0     O70245   1.407   9.360   1.428  0.7635 -0.1757 -0.3267
  510MOL0     C70246   1.502   9.447   1.482 -0.0061 -0.4869 -0.1154
  510MOL0     C70247   1.477   9.581   1.497 -0.9896  0.6619  0.0309
  510MOL0     C70248   1.586   9.659   1.535  0.8997 -0.4254 -0.5872
  510MOL0     C70249   1.706   9.606   1.580  1.1764 -0.8064  0.1598
  510MOL0     O70250   1.795   9.702   1.630  0.4496 -0.4334  0.7333
  510MOL0     C70251   1.835   9.690   1.759 -0.2901 -0.2895  0.5473
  510MOL0     C70252   1.986   9.666   1.761 -0.7088 -0.0854  0.1637
  510MOL0     C70253   2.068   9.789   1.711  1.1075  0.1262  0.0073
  510MOL0     C70254   2.056   9.904   1.827  0.6202  0.4503 -0.0712
  510MOL0     C70255   2.150  10.016   1.803 -1.2594 -0.4313 -0.2330
  510MOL0     C70256   2.132  10.114   1.921  0.0434  0.0805  0.8528
  510MOL0     C70257   2.002  10.195   1.925  0.1246  0.2100  0.4189
  510MOL0     C70258   2.020  10.315   2.020 -0.8544  0.4206  0.0371
  510MOL0     N70259   1.901  10.400   2.038  1.1634 -0.4427 -0.4374
  510MOL0     C70260   1.799  10.423   1.953  0.5851  0.4606 -0.5953
  510MOL0     C70261   1.706  10.488   2.030  0.2662 -0.3189  0.9491
  510MOL0     C70262   1.580  10.533   1.963 -0.1231 -0.0068  0.5793
  510MOL0     C70263   1.504  10.642   2.031  0.4719 -0.1754  0.4832
  510MOL0     C70264   1.368  10.693   1.972  0.5131  0.6540  0.2747
  510MOL0     C70265   1.248  10.599   1.997 -0.2070  0.5385 -0.6630
  510MOL0     O70266   1.233  10.562   2.128 -0.9010  0.1521  0.6898
  510MOL0     C70267   1.165  10.645   2.205  0.0737  0.4365  0.3818
  510MOL0     C70268   1.099  10.764   2.175  1.1907 -0.7450 -1.2778
  510MOL0     C70269   1.016  10.837   2.275 -0.2513 -0.9561  0.1910
  510MOL0     C70270   0.957  10.968   2.242  0.3144  0.3767  0.4724
  510MOL0     C70271   0.995  10.786   2.399  0.2732  0.6211 -0.6189
  510MOL0     C70272   0.901  10.834   2.506 -0.3679  0.7161  0.5962
  510MOL0     O70273   0.918  10.772   2.622  0.8570 -0.3259 -0.6190
  510MOL0     C70274   0.822  10.776   2.719  0.4835 -1.1032  0.0167
  510MOL0     C70275   0.833  10.858   2.830 -0.7372  0.7833  0.4279
  510MOL0     C70276   0.734  10.853   2.921 -0.2715  0.7634  0.0254
  510MOL0     C70277   0.616  10.775   2.915  0.5113  0.2492  0.0423
  510MOL0     O70278   0.527  10.792   3.016  0.0343 -0.2476  0.0868
  510MOL0     C70279   0.480  10.667   3.073  0.4593  2.0109  0.1871
  510MOL0     C70280   0.472  10.666   3.228  0.3292 -0.4122  0.1007
  510MOL0     C70281   0.567  10.772   3.291 -0.6930 -0.5564 -0.4634
  510MOL0     C70282   0.720  10.732   3.289  0.1696  0.2231 -0.7394
  510MOL0     C70283   0.811  10.845   3.335 -0.2246 -0.6524 -0.2114
  510MOL0     C70284   0.958  10.816   3.311 -0.0066  0.2135  0.8211
  510MOL0     C70285   1.002  10.764   3.173  0.8398 -0.1558  0.4344
  510MOL0     C70286   1.156  10.777   3.145  0.3784 -0.1702 -1.5545
  510MOL0    Cl70287   1.205  10.800   2.979 -0.1373  0.1900  0.5068
  510MOL0     C70288   0.596  10.705   2.801  1.0415  0.3242  0.2489
  510MOL0     C70289   0.708  10.702   2.706  0.3192 -0.8604  0.1413
  510MOL0     O70290   0.844  10.941   2.494 -0.1099 -0.1884  0.5669
  510MOL0     C70291   1.067  10.664   2.425  0.6369  0.2703 -0.1387
  510MOL0     C70292   1.143  10.595   2.335 -1.4466 -0.1402  0.2489
  510MOL0     N70293   1.750  10.505   2.152  0.0853 -0.4069 -0.1630
  510MOL0     N70294   1.871  10.458   2.155  0.2971 -0.1720 -0.3570
  510MOL0     C70295   1.730   9.466   1.579  0.0843 -0.8915  0.2224
  510MOL0     C70296   1.622   9.382   1.530  0.0439  0.0298 -0.3801
  510MOL0     C70297   1.177   9.287   1.414  0.9084 -0.4601 -0.2031
  510MOL0     C70298   1.058   9.351   1.370  0.5381 -0.8604  0.4987
  510MOL0     C70299   0.958   9.287   1.299  0.3182 -0.0399 -0.0012
  510MOL0     C70300   0.972   9.154   1.264  0.0365 -0.0414 -0.6838
  510MOL0     O70301   0.874   9.093   1.198  0.7815 -1.3851 -0.3106
  510MOL0     C70302   0.891   9.016   1.084 -0.2593  0.0666  0.6132
  510MOL0     C70303   0.907   9.101   0.961 -0.2539 -0.4704  0.4163
  510MOL0     C70304   0.790   9.199   0.951 -0.6445  1.2438  0.0093
  510MOL0     C70305   0.816   9.296   0.836  0.0274 -0.4537  0.3832
  510MOL0     C70306   0.774   9.240   0.707  0.5042 -0.0521  0.5487
  510MOL0     C70307   0.756   9.210   0.585 -1.2288  0.2744  0.0411
  510MOL0     C70308   1.091   9.083   1.311  0.1993 -0.6581  0.4908
  510MOL0     C70309   1.191   9.159   1.385 -0.4830  0.9808  0.1139
  510MOL0     C70310   1.312   9.076   1.428 -0.4087  0.2544 -0.2281
  510MOL0     H70311   1.382   9.625   1.469 -1.5934 -0.0996  0.8365
  510MOL0     H70312   1.559   9.763   1.547 -3.0991 -1.2403 -1.0434
  510MOL0     H70313   1.804   9.600   1.814  0.9457 -0.7368  0.5354
  510MOL0     H70314   1.821   9.772   1.829  3.1410  0.3292  0.6628
  510MOL0     H70315   2.017   9.641   1.863  2.8449 -0.5324 -0.9107
  510MOL0     H70316   2.004   9.587   1.688 -1.7867  2.7155 -3.4282
  510MOL0     H70317   2.176   9.772   1.711  1.7548  3.5969 -0.6697
  510MOL0     H70318   2.036   9.822   1.612  0.9108 -1.4795 -0.4948
  510MOL0     H70319   1.953   9.941   1.835  0.3840 -0.2372  0.1486
  510MOL0     H70320   2.072   9.858   1.925 -1.1072 -0.5189 -0.1962
  510MOL0     H70321   2.133  10.077   1.714 -1.0371  1.1081  0.7465
  510MOL0     H70322   2.255   9.987   1.799  0.3520  4.4995 -1.3171
  510MOL0     H70323   2.139  10.059   2.015 -2.2899 -1.3858  0.2622
  510MOL0     H70324   2.216  10.183   1.928  1.4921 -1.5552  0.2817
  510MOL0     H70325   1.911  10.141   1.951 -0.4731  0.3287 -1.3017
  510MOL0     H70326   1.982  10.233   1.825  2.1342 -4.4857 -2.0450
  510MOL0     H70327   2.068  10.286   2.114 -2.1524  0.2986  0.6766
  510MOL0     H70328   2.097  10.386   1.990 -1.9350  1.2651 -0.7971
  510MOL0     H70329   1.788  10.394   1.849 -2.4771 -1.2911  0.1054
  510MOL0     H70330   1.523  10.443   1.935 -0.6886  1.6210 -4.5755
  510MOL0     H70331   1.615  10.579   1.871  2.4111  0.0250  1.4818
  510MOL0     H70332   1.491  10.623   2.138 -2.3398 -2.1380 -0.0904
  510MOL0     H70333   1.577  10.724   2.025 -1.3587  1.4250 -1.5586
  510MOL0     H70334   1.348  10.790   2.017  0.1032  0.2343  1.0278
  510MOL0     H70335   1.381  10.729   1.870 -0.1147  1.6437  0.5359
  510MOL0     H70336   1.158  10.644   1.955  0.0520  2.2021  0.4758
  510MOL0     H70337   1.255  10.507   1.938  1.6529  0.7050 -0.7808
  510MOL0     H70338   1.099  10.812   2.077 -1.4222  0.2978 -0.8489
  510MOL0     H70339   0.991  11.055   2.300  2.0659  2.2188 -2.9670
  510MOL0     H70340   0.848  10.967   2.244  0.1543  3.9792  0.7395
  510MOL0     H70341   0.976  10.979   2.135 -2.9013 -4.3990 -0.8831
  510MOL0     H70342   0.909  10.934   2.849 -2.1576  2.3499  0.0883
  510MOL0     H70343   0.756  10.903   3.015 -2.4363  3.6824 -0.8796
  510MOL0     H70344   0.389  10.635   3.020  2.1744 -1.0672 -1.1761
  510MOL0     H70345   0.556  10.590   3.055 -1.2831  0.0228  0.9442
  510MOL0     H70346   0.373  10.677   3.272  0.9661 -3.0088  2.4707
  510MOL0     H70347   0.499  10.572   3.276 -0.5816  0.0377  1.5745
  510MOL0     H70348   0.541  10.791   3.395  0.0224  0.5420 -0.4606
  510MOL0     H70349   0.559  10.863   3.229 -1.2692 -0.5723 -0.4153
  510MOL0     H70350   0.748  10.712   3.185  0.2805  1.9989 -1.0666
  510MOL0     H70351   0.731  10.641   3.350 -1.7536 -0.8435 -1.8958
  510MOL0     H70352   0.796  10.939   3.281  1.5414  0.2456  0.7628
  510MOL0     H70353   0.794  10.869   3.441 -0.1648 -0.0161 -0.3420
  510MOL0     H70354   0.984  10.747   3.392  1.5620 -0.2437 -0.0437
  510MOL0     H70355   1.021  10.903   3.329  1.2272 -1.0704  3.3439
  510MOL0     H70356   0.954  10.829   3.099  0.5931  0.2063  0.8996
  510MOL0     H70357   0.972  10.659   3.164  3.0056 -0.8659  0.9794
  510MOL0     H70358   1.213  10.701   3.198 -0.2244 -0.2339 -0.9912
  510MOL0     H70359   1.184  10.875   3.186 -1.7681  1.6520 -4.0533
  510MOL0     H70360   0.501  10.659   2.776  3.0628 -2.4580 -3.2479
  510MOL0     H70361   0.693  10.642   2.617  0.2212 -2.2978  1.0922
  510MOL0     H70362   1.047  10.606   2.514  0.8003 -5.1512 -3.1412
  510MOL0     H70363   1.200  10.510   2.372 -1.8313 -0.7227 -0.4617
  510MOL0     H70364   1.827   9.425   1.606  1.4955  0.9992 -1.6636
  510MOL0     H70365   1.622   9.274   1.536  0.8566 -0.1172 -2.3385
  510MOL0     H70366   1.056   9.458   1.391  3.2837 -0.4937 -0.5662
  510MOL0     H70367   0.874   9.347   1.264  2.3830  3.9253  1.2930
  510MOL0     H70368   0.985   8.961   1.093  0.0662  0.2011 -1.4562
  510MOL0     H70369   0.816   8.937   1.073  1.2606 -1.2021 -1.4047
  510MOL0     H70370   0.902   9.047   0.866  0.3876 -1.1807  0.7854
  510MOL0     H70371   1.004   9.150   0.956  0.0221 -1.1429 -1.9135
  510MOL0     H70372   0.691   9.154   0.941 -0.0695 -0.6307  2.0021
  510MOL0     H70373   0.779   9.250   1.047 -1.8351 -0.9045  1.0852
  510MOL0     H70374   0.923   9.318   0.831  0.4096 -1.2109  3.3901
  510MOL0     H70375   0.751   9.383   0.854 -0.7771 -0.7984 -0.7357
  510MOL0     H70376   0.731   9.176   0.487 -4.3630  1.1173  0.4558
  510MOL0     H70377   1.098   8.977   1.287 -4.5840 -0.7670 -1.4447
  510MOL0     H70378   1.382   9.072   1.344  0.1777 -0.6913  0.2858
  510MOL0     H70379   1.359   9.118   1.518  1.0997  0.4876 -1.0909
  510MOL0     H70380   1.295   8.969   1.445  1.5680  0.1669  1.6522
  511MOL0     O70381   8.968   9.501   2.580 -0.3931  0.3868 -0.7463
  511MOL0     C70382   9.043   9.412   2.610 -0.6865 -0.2629 -0.4177
  511MOL0     O70383   9.138   9.421   2.712  0.6206  0.2061 -0.7563
  511MOL0     C70384   9.167   9.545   2.768 -0.1216 -0.0873  0.1024
  511MOL0     C70385   9.207   9.542   2.902 -0.0499  0.0682  0.4941
  511MOL0     C70386   9.255   9.648   2.967 -0.9975  0.2000 -0.5521
  511MOL0     C70387   9.271   9.768   2.899  0.7605 -0.0277 -0.4039
  511MOL0     O70388   9.325   9.878   2.966  0.2071 -0.2058  0.4243
  511MOL0     C70389   9.263   9.999   2.934  0.1674  0.0149 -0.4819
  511MOL0     C70390   9.258  10.095   3.063 -0.2785  0.0117  0.0537
  511MOL0     C70391   9.157  10.032   3.168  0.1010 -0.5489 -0.9684
  511MOL0     C70392   9.140  10.112   3.296  0.8354 -0.3630  0.1869
  511MOL0     C70393   9.115  10.257   3.279 -0.2460 -0.1026 -0.5520
  511MOL0     C70394   9.080  10.298   3.417  0.7027 -0.1960 -0.6910
  511MOL0     C70395   9.060  10.452   3.410  0.4930  0.0681 -0.0429
  511MOL0     C70396   9.036  10.486   3.561  0.4468  0.6107  0.1278
  511MOL0     N70397   9.023  10.623   3.599 -0.3421  0.7168  0.1541
  511MOL0     C70398   8.973  10.664   3.720  0.1450 -0.2313  0.3120
  511MOL0     C70399   8.978  10.798   3.720 -0.2852 -0.1218 -0.6480
  511MOL0     C70400   8.940  10.892   3.839 -0.8824  0.3254  0.0216
  511MOL0     C70401   9.033  11.022   3.838  0.0360  0.2501 -0.2909
  511MOL0     C70402   8.998  11.120   3.945  0.2267  0.0831  0.1302
  511MOL0     C70403   8.864  11.181   3.926  0.9869  0.0398 -0.5273
  511MOL0     O70404   8.832  11.196   3.783 -0.2787  0.5888  0.9174
  511MOL0     C70405   8.717  11.244   3.744 -0.7476 -0.0193 -2.0041
  511MOL0     C70406   8.691  11.298   3.627 -0.9189 -0.4749  0.7724
  511MOL0     C70407   8.566  11.351   3.585 -0.9691  0.5865  0.1171
  511MOL0     C70408   8.542  11.411   3.447 -0.0040 -0.0390  0.2068
  511MOL0     C70409   8.455  11.359   3.675  0.3368 -0.5919 -0.1264
  511MOL0     C70410   8.317  11.406   3.651  1.1614  0.7309 -0.9522
  511MOL0     O70411   8.291  11.535   3.604 -0.0640 -0.0940  0.0027
  511MOL0     C70412   8.162  11.590   3.615 -0.6834  0.1128  0.0976
  511MOL0     C70413   8.094  11.595   3.736 -0.5603 -0.5066 -0.0204
  511MOL0     C70414   7.956  11.609   3.737  0.2262 -0.6007 -0.3219
  511MOL0     C70415   7.889  11.629   3.621  0.7566 -0.1136 -0.9514
  511MOL0     O70416   7.747  11.644   3.634 -0.5244  0.1065 -0.7415
  511MOL0     C70417   7.667  11.675   3.522  0.4094  0.6349  0.6153
  511MOL0     C70418   7.520  11.632   3.559  1.3384  0.6995 -0.8681
  511MOL0     C70419   7.470  11.676   3.702  0.0449  0.2342 -0.7484
  511MOL0     C70420   7.481  11.827   3.712  0.2542 -0.5745  0.3095
  511MOL0     C70421   7.398  11.877   3.827 -0.4990  1.9095  0.4907
  511MOL0     C70422   7.396  12.026   3.845  0.3216 -0.2712 -0.1665
  511MOL0     C70423   7.276  12.063   3.936  0.1092  1.0697  1.1699
  511MOL0     C70424   7.293  12.193   4.010 -1.1097 -0.4495  0.1181
  511MOL0    Cl70425   7.409  12.155   4.146 -0.2416  0.5834  0.2812
  511MOL0     C70426   7.965  11.657   3.507 -0.1246 -0.2986  0.6367
  511MOL0     C70427   8.101  11.638   3.504  0.8920  0.4605 -0.6903
  511MOL0     O70428   8.233  11.332   3.695  0.2466  0.0610 -0.0733
  511MOL0     C70429   8.482  11.314   3.810  0.4296 -0.6207  0.5784
  511MOL0     C70430   8.608  11.256   3.836 -0.0903  0.3591 -0.0533
  511MOL0     N70431   9.039  10.837   3.607  1.3237 -0.7860  0.7227
  511MOL0     N70432   9.062  10.735   3.529  0.1368  0.2677 -0.2569
  511MOL0     C70433   9.226   9.779   2.765  0.1077 -0.6867 -0.1692
  511MOL0     C70434   9.182   9.669   2.698 -0.9299  0.5175 -0.9386
  511MOL0     C70435   9.023   9.272   2.542 -0.8000  0.6974 -0.1597
  511MOL0     C70436   9.104   9.168   2.609  0.1455 -0.3967  0.8305
  511MOL0     C70437   9.107   9.046   2.543 -0.1975  0.0282 -0.9341
  511MOL0     C70438   9.044   9.014   2.428  0.0866 -0.1342  1.3110
  511MOL0     O70439   9.056   8.889   2.383 -0.0768  0.1847  0.4038
  511MOL0     C70440   9.188   8.869   2.314  0.5422  0.4261 -0.4530
  511MOL0     C70441   9.194   8.929   2.173  0.1219 -0.6384  1.1061
  511MOL0     C70442   9.089   8.857   2.079 -0.2415 -0.7386 -0.5097
  511MOL0     C70443   9.067   8.923   1.944  0.1546 -0.0163 -0.7201
  511MOL0     C70444   8.949   8.865   1.877 -0.3572 -0.7690 -0.2692
  511MOL0     C70445   8.869   8.802   1.804 -0.5784 -0.1082 -0.5432
  511MOL0     C70446   8.962   9.110   2.379  0.7388 -0.4423  0.6419
  511MOL0     C70447   8.953   9.243   2.427  0.1683  0.2213 -0.2554
  511MOL0     C70448   8.858   9.339   2.356 -0.3310 -0.6927 -0.9280
  511MOL0     H70449   9.209   9.441   2.941  1.7492 -0.0839  0.1113
  511MOL0     H70450   9.299   9.638   3.066  0.7930  1.4482 -1.1699
  511MOL0     H70451   9.168   9.990   2.881  0.8550  3.0312 -2.5238
  511MOL0     H70452   9.325  10.059   2.867 -1.3875  0.7762 -1.2850
  511MOL0     H70453   9.350  10.125   3.113 -0.5794  3.0701 -0.9731
  511MOL0     H70454   9.229  10.195   3.030 -2.1171 -0.5724 -0.2161
  511MOL0     H70455   9.060  10.004   3.127  1.4556 -3.0420 -2.7443
  511MOL0     H70456   9.204   9.941   3.206 -0.0314 -0.3097 -0.2108
  511MOL0     H70457   9.059  10.072   3.357 -2.4812  0.0383 -3.5455
  511MOL0     H70458   9.232  10.101   3.355  1.7946  0.4285 -1.1104
  511MOL0     H70459   9.035  10.282   3.209  1.5794 -3.7240 -4.3997
  511MOL0     H70460   9.204  10.308   3.241  0.3013 -0.8302 -0.2648
  511MOL0     H70461   8.986  10.255   3.453  0.0705  3.4512  2.8232
  511MOL0     H70462   9.158  10.269   3.488  1.3862  1.2650 -0.8079
  511MOL0     H70463   8.976  10.487   3.350 -2.0853  0.7348  3.6312
  511MOL0     H70464   9.148  10.506   3.373 -1.0405  1.1274 -2.3777
  511MOL0     H70465   8.949  10.429   3.594  2.1331 -1.1928  1.7486
  511MOL0     H70466   9.115  10.445   3.625 -0.8271 -2.6388 -0.2021
  511MOL0     H70467   8.934  10.603   3.801 -1.4611  1.2224  0.7032
  511MOL0     H70468   8.950  10.844   3.937 -1.6299 -2.2148 -1.0675
  511MOL0     H70469   8.840  10.934   3.823 -1.0241 -0.7481 -2.2664
  511MOL0     H70470   9.138  10.992   3.850 -0.2450 -0.5435  0.2524
  511MOL0     H70471   9.022  11.074   3.743 -1.8513  3.2326  1.4139
  511MOL0     H70472   9.018  11.095   4.050  0.6809  2.5284  0.6929
  511MOL0     H70473   9.063  11.205   3.924  0.8502 -0.3941  0.1160
  511MOL0     H70474   8.789  11.128   3.986  0.1314 -0.9482 -2.3994
  511MOL0     H70475   8.861  11.277   3.979  3.3519 -0.6768  1.0952
  511MOL0     H70476   8.774  11.287   3.558 -0.2616 -1.3987  1.6805
  511MOL0     H70477   8.498  11.510   3.462 -0.2263 -0.4600  2.8127
  511MOL0     H70478   8.482  11.345   3.384  0.9530 -1.8182  1.0818
  511MOL0     H70479   8.639  11.430   3.401 -0.3142  3.2647  0.6520
  511MOL0     H70480   8.134  11.598   3.836 -2.0743  3.4623  0.6270
  511MOL0     H70481   7.900  11.597   3.829  1.9568  4.0150  1.6118
  511MOL0     H70482   7.682  11.782   3.506 -0.2923  0.3164 -3.2267
  511MOL0     H70483   7.699  11.619   3.433  0.5580  1.5753  0.0711
  511MOL0     H70484   7.447  11.674   3.489  1.2754 -1.3080 -2.0546
  511MOL0     H70485   7.517  11.524   3.546 -3.4574  0.5529 -0.6461
  511MOL0     H70486   7.533  11.624   3.775 -0.2386 -0.5709 -1.0674
  511MOL0     H70487   7.369  11.642   3.723  0.8960 -1.5423  0.7436
  511MOL0     H70488   7.449  11.872   3.617 -0.2903 -2.9763 -0.7246
  511MOL0     H70489   7.583  11.866   3.717 -0.2752  0.7562  1.2787
  511MOL0     H70490   7.298  11.842   3.801 -0.3693  1.0082  1.1425
  511MOL0     H70491   7.428  11.823   3.918 -2.0827  0.8718  0.4380
  511MOL0     H70492   7.379  12.085   3.755  0.3096  0.6536  0.4190
  511MOL0     H70493   7.490  12.065   3.886 -0.1931 -1.8364  2.8543
  511MOL0     H70494   7.266  11.983   4.011  2.5719 -1.5721 -1.0644
  511MOL0     H70495   7.199  12.067   3.859  4.3077 -1.7473 -3.7651
  511MOL0     H70496   7.198  12.236   4.045  0.3528  1.9110  1.4535
  511MOL0     H70497   7.338  12.264   3.940  2.7317 -4.6851 -2.2713
  511MOL0     H70498   7.906  11.669   3.417 -2.5828 -2.3056  1.8464
  511MOL0     H70499   8.141  11.673   3.410 -0.0675  0.0166 -1.2841
  511MOL0     H70500   8.409  11.326   3.889 -0.3074  0.8245 -0.2750
  511MOL0     H70501   8.625  11.229   3.940  1.7557  3.5175  0.5926
  511MOL0     H70502   9.232   9.867   2.702 -0.6340  0.5945  1.4745
  511MOL0     H70503   9.181   9.681   2.590  1.4282  0.1989 -1.0476
  511MOL0     H70504   9.154   9.190   2.703 -1.3529 -1.1102  1.8351
  511MOL0     H70505   9.159   8.960   2.585 -1.3912 -0.0483  0.4397
  511MOL0     H70506   9.276   8.900   2.370 -0.3725  0.0727  1.2282
  511MOL0     H70507   9.195   8.761   2.305  1.5586  0.6440 -3.0132
  511MOL0     H70508   9.291   8.894   2.135 -0.5368 -1.2379 -0.0898
  511MOL0     H70509   9.192   9.038   2.163  2.7975 -0.6843 -1.5002
  511MOL0     H70510   9.101   8.751   2.058  0.9655 -0.1384 -3.1917
  511MOL0     H70511   8.998   8.857   2.141  0.9997 -2.2778  1.4405
  511MOL0     H70512   9.157   8.899   1.888  2.0168  2.3161  1.0465
  511MOL0     H70513   9.053   9.031   1.960 -1.6237 -0.4570  1.1189
  511MOL0     H70514   8.804   8.739   1.748 -0.6500 -1.2948  0.8225
  511MOL0     H70515   8.899   9.083   2.294 -0.6183  1.6103  0.9291
  511MOL0     H70516   8.821   9.296   2.262 -1.6711  2.0996 -1.8006
  511MOL0     H70517   8.766   9.365   2.410  0.9797  1.8494  0.2683
  511MOL0     H70518   8.903   9.438   2.341 -2.0649  0.0247 -1.7824
  512MOL0     O70519   5.123  11.515   0.794 -0.4798  0.8908  0.4148
  512MOL0     C70520   5.152  11.632   0.808 -0.4137 -0.7235  0.6261
  512MOL0     O70521   5.065  11.733   0.815 -0.9651 -0.1656  0.1777
  512MOL0     C70522   4.940  11.717   0.762 -0.2155  0.4575 -0.5716
  512MOL0     C70523   4.829  11.660   0.834  0.0938 -1.0589 -0.7074
  512MOL0     C70524   4.709  11.639   0.773  0.2502 -0.5089 -0.2835
  512MOL0     C70525   4.688  11.694   0.644 -0.1290  0.0882 -0.4790
  512MOL0     O70526   4.572  11.679   0.573  0.4890  0.7490 -0.2273
  512MOL0     C70527   4.522  11.542   0.556 -0.9547  0.1926 -0.2699
  512MOL0     C70528   4.407  11.537   0.475 -0.5553 -0.2407  0.0028
  512MOL0     C70529   4.444  11.535   0.322 -0.5322  0.2526 -0.7848
  512MOL0     C70530   4.385  11.405   0.246  0.0394  0.6397 -0.8566
  512MOL0     C70531   4.229  11.401   0.245 -0.3934  0.0828 -0.3961
  512MOL0     C70532   4.162  11.342   0.120 -0.1158  1.2317  0.7063
  512MOL0     C70533   4.061  11.242   0.162  0.0347  0.5203  0.5152
  512MOL0     C70534   3.995  11.160   0.059  0.3792 -0.2612 -1.3134
  512MOL0     N70535   3.905  11.074   0.124  0.2432  0.4553 -0.4983
  512MOL0     C70536   3.924  10.935   0.117 -0.6605 -0.4212  0.1689
  512MOL0     C70537   3.802  10.891   0.157  0.5600 -0.2468  0.1221
  512MOL0     C70538   3.763  10.747   0.144 -0.1629  0.1940  0.2874
  512MOL0     C70539   3.722  10.718  -0.002 -0.2421  0.4792 -0.1628
  512MOL0     C70540   3.701  10.570  -0.021  0.1273 -0.5749  0.8742
  512MOL0     C70541   3.677  10.547  -0.164 -0.3585 -0.5311 -0.0451
  512MOL0     O70542   3.539  10.593  -0.182  0.0284 -0.8539 -0.0301
  512MOL0     C70543   3.482  10.572  -0.305  0.3427 -1.2346 -0.6822
  512MOL0     C70544   3.378  10.664  -0.329  0.0137 -0.1387  0.6056
  512MOL0     C70545   3.284  10.646  -0.443 -0.1817 -0.0293  0.4918
  512MOL0     C70546   3.169  10.737  -0.474  0.3436 -0.5447 -0.9179
  512MOL0     C70547   3.314  10.541  -0.544  0.2748  0.1981 -1.4487
  512MOL0     C70548   3.243  10.502  -0.674 -1.2903 -1.2239  0.0800
  512MOL0     O70549   3.124  10.561  -0.696 -0.4927 -0.0425  0.5023
  512MOL0     C70550   3.063  10.526  -0.812  0.3169 -1.2233  0.1554
  512MOL0     C70551   2.927  10.488  -0.803  0.2707 -0.9648  0.2835
  512MOL0     C70552   2.841  10.477  -0.917  0.3122 -0.4581 -0.1073
  512MOL0     C70553   2.907  10.485  -1.046  0.4003  0.7377 -0.8147
  512MOL0     O70554   2.836  10.476  -1.161 -0.2401  0.4791 -0.7577
  512MOL0     C70555   2.692  10.494  -1.169  1.2276  0.5387 -0.3554
  512MOL0     C70556   2.633  10.391  -1.260  0.4190 -0.0905 -0.6078
  512MOL0     C70557   2.597  10.276  -1.164  0.1490 -0.1300 -0.5399
  512MOL0     C70558   2.542  10.154  -1.255 -0.6595 -0.2340 -0.3779
  512MOL0     C70559   2.469  10.062  -1.164  0.5921  0.4341  0.0031
  512MOL0     C70560   2.395   9.949  -1.237 -0.6960 -1.0245 -0.7506
  512MOL0     C70561   2.245   9.980  -1.267 -0.5331 -0.2198  0.4725
  512MOL0     C70562   2.249  10.013  -1.423  0.7725 -1.2193 -0.0116
  512MOL0    Cl70563   2.083  10.097  -1.458  0.3465  0.2476 -0.1380
  512MOL0     C70564   3.038  10.530  -1.051 -0.4188  0.3659 -1.0528
  512MOL0     C70565   3.116  10.550  -0.941  0.0498  0.3333  0.4093
  512MOL0     O70566   3.307  10.436  -0.757  0.2796  0.1683  0.4302
  512MOL0     C70567   3.420  10.458  -0.504 -0.0236  0.4771 -1.1838
  512MOL0     C70568   3.483  10.461  -0.381  0.3349  0.3157  0.3583
  512MOL0     N70569   3.716  10.989   0.179  0.3441 -0.4987 -0.3542
  512MOL0     N70570   3.779  11.106   0.166  1.0184 -0.8061  0.4955
  512MOL0     C70571   4.796  11.764   0.586 -0.9294  0.1349  0.3510
  512MOL0     C70572   4.925  11.769   0.639 -0.0070  0.5220  0.0483
  512MOL0     C70573   5.289  11.672   0.834 -0.6457 -0.1392 -0.1184
  512MOL0     C70574   5.335  11.789   0.780 -1.0648 -0.8749  1.0855
  512MOL0     C70575   5.463  11.845   0.814  0.7581 -0.7306  1.0094
  512MOL0     C70576   5.553  11.786   0.912 -0.2324 -0.3440  0.0432
  512MOL0     O70577   5.679  11.839   0.946  0.0592  0.1064 -0.0571
  512MOL0     C70578   5.753  11.760   1.042  0.3389  0.8979 -0.3879
  512MOL0     C70579   5.873  11.827   1.086 -0.1188  0.3497  0.6368
  512MOL0     C70580   5.835  11.945   1.179 -0.3117 -0.1482 -0.4380
  512MOL0     C70581   5.954  11.996   1.259 -0.6038 -0.0905  0.5740
  512MOL0     C70582   6.065  12.048   1.174  0.2255  0.6728 -0.0552
  512MOL0     C70583   6.133  12.101   1.089 -0.5744 -0.3736 -0.0643
  512MOL0     C70584   5.500  11.660   0.967 -0.4182  0.0666  0.3463
  512MOL0     C70585   5.368  11.602   0.930 -0.8504  0.8925  0.6889
  512MOL0     C70586   5.309  11.492   1.012  0.1330  0.7454  0.9433
  512MOL0     H70587   4.841  11.637   0.939  1.1912 -2.7071 -1.1415
  512MOL0     H70588   4.623  11.599   0.826 -0.2775  2.0804  0.9305
  512MOL0     H70589   4.493  11.512   0.657 -0.2268 -1.5631 -0.5395
  512MOL0     H70590   4.601  11.472   0.529 -1.6328  0.0332 -1.9394
  512MOL0     H70591   4.347  11.454   0.512 -0.5610 -0.7715 -1.1513
  512MOL0     H70592   4.337  11.620   0.487  0.4872  0.8593 -1.1103
  512MOL0     H70593   4.408  11.624   0.270  0.2309  1.5900  0.8874
  512MOL0     H70594   4.553  11.532   0.312 -0.5270  1.3285 -1.2524
  512MOL0     H70595   4.419  11.416   0.143  0.6639  2.9208 -0.4583
  512MOL0     H70596   4.425  11.306   0.269  2.1414  1.3020 -1.4603
  512MOL0     H70597   4.201  11.504   0.269 -2.7178  0.7078 -4.7881
  512MOL0     H70598   4.194  11.340   0.329  3.0895 -0.3180  0.9660
  512MOL0     H70599   4.121  11.430   0.070  0.2822 -0.4832 -2.9246
  512MOL0     H70600   4.241  11.294   0.062 -0.9990  2.0539 -1.2523
  512MOL0     H70601   3.975  11.277   0.220 -1.7369 -1.0690 -1.0084
  512MOL0     H70602   4.102  11.162   0.224 -0.0188  0.5095  0.5365
  512MOL0     H70603   3.943  11.225  -0.012 -1.5567 -0.5212 -0.1876
  512MOL0     H70604   4.075  11.107   0.007  1.2623  0.3467 -0.6183
  512MOL0     H70605   4.004  10.871   0.080 -0.7322 -1.8968  2.3852
  512MOL0     H70606   3.673  10.724   0.202  1.4436  0.0153  2.8211
  512MOL0     H70607   3.841  10.678   0.176 -2.5280 -4.0056 -2.0487
  512MOL0     H70608   3.624  10.762  -0.025 -2.7792 -4.0309  0.6769
  512MOL0     H70609   3.802  10.751  -0.068  2.0293 -1.0159  1.6824
  512MOL0     H70610   3.790  10.513   0.008  0.5340  0.1985  1.1728
  512MOL0     H70611   3.614  10.532   0.033  1.9485 -3.7565  1.8761
  512MOL0     H70612   3.747  10.592  -0.235  2.7156 -1.7325  2.0204
  512MOL0     H70613   3.682  10.439  -0.181  1.7294 -0.1735 -2.1366
  512MOL0     H70614   3.354  10.755  -0.275  0.5315 -0.5205  1.4826
  512MOL0     H70615   3.145  10.815  -0.401  0.0501 -2.1510  0.7579
  512MOL0     H70616   3.080  10.675  -0.487  0.5224 -0.9391 -0.2903
  512MOL0     H70617   3.192  10.790  -0.567 -0.6060  2.3900  0.4155
  512MOL0     H70618   2.880  10.483  -0.706  1.3921  2.4513  1.1165
  512MOL0     H70619   2.739  10.443  -0.907 -0.4053 -0.7459 -5.5834
  512MOL0     H70620   2.632  10.499  -1.077 -0.9469 -2.7129 -1.4026
  512MOL0     H70621   2.667  10.591  -1.213 -1.4104  0.0019 -0.2376
  512MOL0     H70622   2.538  10.429  -1.300  0.3106  1.2194  0.7923
  512MOL0     H70623   2.710  10.385  -1.337  1.0955 -0.0457  0.0571
  512MOL0     H70624   2.519  10.299  -1.091 -1.0186 -2.9482 -0.7585
  512MOL0     H70625   2.691  10.250  -1.115 -0.7725 -3.6839 -0.3797
  512MOL0     H70626   2.626  10.100  -1.301  0.0981 -0.1262  0.8463
  512MOL0     H70627   2.477  10.201  -1.329 -1.5541  1.0982  1.1921
  512MOL0     H70628   2.537  10.021  -1.089 -2.0924  1.0107  2.9938
  512MOL0     H70629   2.393  10.117  -1.108 -0.3496 -0.9770  0.1694
  512MOL0     H70630   2.392   9.868  -1.164  0.6906  0.4105  1.0081
  512MOL0     H70631   2.456   9.912  -1.320  1.3085  1.1804 -0.3771
  512MOL0     H70632   2.205  10.064  -1.210 -2.9526 -0.8427 -0.1568
  512MOL0     H70633   2.188   9.894  -1.230  0.3048 -0.7486  0.5591
  512MOL0     H70634   2.267   9.927  -1.489  0.7980 -1.0325 -0.2490
  512MOL0     H70635   2.328  10.080  -1.457 -2.3732  1.7790 -2.1307
  512MOL0     H70636   3.088  10.541  -1.147  2.6820  1.2787  0.5273
  512MOL0     H70637   3.214  10.596  -0.942 -0.6703  2.0402  1.8515
  512MOL0     H70638   3.453  10.380  -0.572  0.2723  1.2846 -1.9885
  512MOL0     H70639   3.542  10.371  -0.370  0.0154 -0.0371 -0.6471
  512MOL0     H70640   4.779  11.812   0.490 -0.0076  0.4826  0.3527
  512MOL0     H70641   5.003  11.826   0.590  1.8285 -1.3597  0.6540
  512MOL0     H70642   5.272  11.845   0.710  1.4807  0.6918 -0.1148
  512MOL0     H70643   5.491  11.925   0.746 -3.4712  0.8620  0.8491
  512MOL0     H70644   5.693  11.729   1.128 -0.3736  0.0325 -1.1650
  512MOL0     H70645   5.781  11.667   0.993 -1.1297 -0.7556  1.7233
  512MOL0     H70646   5.940  11.849   1.003 -3.4898  1.4944 -2.0064
  512MOL0     H70647   5.926  11.759   1.153 -0.8985  0.5665  1.4945
  512MOL0     H70648   5.793  12.022   1.113 -0.8521  0.9244  1.1120
  512MOL0     H70649   5.762  11.917   1.255 -3.5593  3.1135 -2.0254
  512MOL0     H70650   5.986  11.921   1.333  0.6809  1.6631  1.8859
  512MOL0     H70651   5.936  12.095   1.301 -4.2190  0.7921 -2.5200
  512MOL0     H70652   6.190  12.166   1.026  1.4267 -1.5827  0.4346
  512MOL0     H70653   5.548  11.601   1.045  0.3654 -1.1966 -1.0203
  512MOL0     H70654   5.373  11.471   1.098 -0.2069 -0.1513  0.9814
  512MOL0     H70655   5.209  11.528   1.040  0.7944  2.3627  1.3667
  512MOL0     H70656   5.302  11.395   0.963 -0.3789  0.1612  2.1474
  513MOL0     O70657  10.657   4.433   4.010  0.2684 -0.0224 -0.3906
  513MOL0     C70658  10.590   4.396   3.919  0.8058 -0.0687 -0.2238
  513MOL0     O70659  10.616   4.417   3.788  0.4214 -0.1772  0.4555
  513MOL0     C70660  10.727   4.486   3.750 -0.0612 -0.4197 -0.0378
  513MOL0     C70661  10.820   4.426   3.660  0.7800  0.3903 -0.8299
  513MOL0     C70662  10.918   4.499   3.614 -0.2787  0.3231 -0.2451
  513MOL0     C70663  10.936   4.635   3.656 -0.8071  0.0146  0.5828
  513MOL0     O70664  11.038   4.701   3.596 -0.0554 -0.2042  0.0208
  513MOL0     C70665  11.022   4.840   3.596 -0.9428  0.5397 -0.4845
  513MOL0     C70666  11.148   4.903   3.540 -0.4350 -0.4789  0.0923
  513MOL0     C70667  11.138   4.909   3.387 -0.5891  0.3924  0.1314
  513MOL0     C70668  11.149   5.058   3.353  0.0388 -0.1372  0.4107
  513MOL0     C70669  11.173   5.090   3.209  0.4947  0.0067 -0.4838
  513MOL0     C70670  11.066   5.041   3.114 -0.4941  0.0381  0.0827
  513MOL0     C70671  11.115   5.064   2.967  0.2536  0.2607 -0.6424
  513MOL0     C70672  10.998   5.085   2.851  0.0421 -0.4885  0.0087
  513MOL0     N70673  10.889   4.984   2.853 -0.2404 -0.8855 -0.3861
  513MOL0     C70674  10.913   4.851   2.838 -0.2932 -0.1606 -0.5572
  513MOL0     C70675  10.792   4.800   2.881  1.0389  0.9570 -0.0878
  513MOL0     C70676  10.760   4.655   2.909 -0.5489  0.1438 -0.8422
  513MOL0     C70677  10.853   4.589   3.011  0.4124  0.0745  0.0990
  513MOL0     C70678  10.868   4.673   3.144  1.7853 -0.8259 -0.0241
  513MOL0     C70679  10.984   4.629   3.229  0.5120  0.0257  0.1504
  513MOL0     O70680  11.094   4.668   3.150  0.3816  0.1576  0.2831
  513MOL0     C70681  11.221   4.613   3.168  0.9519 -0.4241 -0.2283
  513MOL0     C70682  11.324   4.669   3.089 -0.1689 -0.3522  0.4019
  513MOL0     C70683  11.457   4.631   3.112  0.5177  0.9113 -0.3576
  513MOL0     C70684  11.559   4.689   3.026  0.4878 -0.0389 -0.0005
  513MOL0     C70685  11.482   4.526   3.204 -0.3317  0.0709  0.1174
  513MOL0     C70686  11.629   4.500   3.242 -0.2952  1.2337  0.2459
  513MOL0     O70687  11.665   4.368   3.247 -0.0071  0.7663 -0.2848
  513MOL0     C70688  11.796   4.340   3.267  0.2682 -0.1568  0.6975
  513MOL0     C70689  11.853   4.341   3.397  0.0080 -0.0820 -0.9084
  513MOL0     C70690  11.992   4.318   3.414 -0.1959 -0.7697 -0.7131
  513MOL0     C70691  12.072   4.293   3.301 -0.5565  1.2742 -0.1389
  513MOL0     O70692  12.204   4.264   3.325  0.0441  0.7628 -0.1314
  513MOL0     C70693  12.288   4.222   3.213  1.1530 -0.4989 -0.1380
  513MOL0     C70694  12.429   4.188   3.251 -0.2897  1.0540  0.0024
  513MOL0     C70695  12.426   4.077   3.358  0.7259 -0.3232  0.0585
  513MOL0     C70696  12.527   3.973   3.316  0.1780 -0.5757  0.5648
  513MOL0     C70697  12.676   4.009   3.306 -0.0491 -1.0758 -1.0419
  513MOL0     C70698  12.765   3.887   3.337  0.0898 -0.3173  0.7261
  513MOL0     C70699  12.714   3.741   3.295  0.1586 -0.0647  0.7116
  513MOL0     C70700  12.827   3.641   3.268 -0.5490  0.0760 -0.8025
  513MOL0    Cl70701  12.962   3.637   3.384 -0.3572 -0.0396  0.3638
  513MOL0     C70702  12.017   4.300   3.168 -0.2979  0.5200 -0.2119
  513MOL0     C70703  11.875   4.321   3.157  0.4406  0.1594  0.7681
  513MOL0     O70704  11.704   4.593   3.271  0.8345 -0.1410 -0.3319
  513MOL0     C70705  11.379   4.464   3.280 -0.7166 -0.1335  0.4532
  513MOL0     C70706  11.249   4.507   3.260 -0.1948 -0.2817 -0.2857
  513MOL0     N70707  10.691   4.895   2.883 -0.0992 -0.2492  0.3689
  513MOL0     N70708  10.749   5.012   2.869  0.5543 -0.2168  0.0996
  513MOL0     C70709  10.846   4.691   3.745  0.4188  0.4664  0.2234
  513MOL0     C70710  10.741   4.616   3.786  0.1428 -0.0591 -0.8306
  513MOL0     C70711  10.477   4.309   3.944 -0.6852 -0.9210 -0.0662
  513MOL0     C70712  10.450   4.214   3.838 -0.3214  0.3618 -0.0551
  513MOL0     C70713  10.345   4.120   3.864  0.2932  0.1823  0.2518
  513MOL0     C70714  10.260   4.124   3.975  0.5419 -0.6734 -0.4303
  513MOL0     O70715  10.140   4.062   4.012  0.4544  0.9652 -0.5064
  513MOL0     C70716  10.095   3.947   3.946  0.0711  0.0099  0.3770
  513MOL0     C70717   9.954   3.915   3.975 -0.5607 -0.0149  1.0362
  513MOL0     C70718   9.949   3.837   4.107 -0.1595 -0.1165 -0.6496
  513MOL0     C70719   9.956   3.683   4.069 -0.7752 -1.0188  0.9428
  513MOL0     C70720  10.004   3.587   4.159  0.5314  0.4117  0.1998
  513MOL0     C70721  10.044   3.507   4.233  0.2469 -0.3110 -0.4302
  513MOL0     C70722  10.293   4.212   4.075 -1.1473  1.1902 -0.3016
  513MOL0     C70723  10.401   4.306   4.064  0.1505 -0.3751  0.4702
  513MOL0     C70724  10.417   4.406   4.180 -0.5378  0.2888 -0.3820
  513MOL0     H70725  10.799   4.327   3.620  1.6209  0.8989 -2.6377
  513MOL0     H70726  10.977   4.451   3.536  1.9504  0.4171  1.2712
  513MOL0     H70727  11.024   4.876   3.699  3.1396  1.5071 -0.7180
  513MOL0     H70728  10.933   4.874   3.543  0.0409 -0.9607 -3.2887
  513MOL0     H70729  11.156   4.998   3.595 -0.9628  0.2306 -1.0285
  513MOL0     H70730  11.243   4.857   3.567  0.4326  1.0659 -0.2054
  513MOL0     H70731  11.219   4.854   3.338 -0.4424  1.9578 -1.4897
  513MOL0     H70732  11.043   4.866   3.355  0.8844 -2.5634 -0.6131
  513MOL0     H70733  11.052   5.100   3.381 -2.3609 -2.5866 -3.3701
  513MOL0     H70734  11.231   5.113   3.400  2.3040  0.9015 -4.1854
  513MOL0     H70735  11.264   5.049   3.165 -0.6388  0.0784 -3.0607
  513MOL0     H70736  11.171   5.199   3.206  1.8722  0.0153 -1.5920
  513MOL0     H70737  11.033   4.940   3.140  0.8207 -0.2362  0.7589
  513MOL0     H70738  10.981   5.109   3.125 -0.4041  0.4522 -1.4633
  513MOL0     H70739  11.176   4.977   2.940 -1.8194 -1.7746  0.8131
  513MOL0     H70740  11.169   5.159   2.967 -3.5006  2.6561  2.0588
  513MOL0     H70741  10.953   5.184   2.841  0.7557 -0.0162  1.2245
  513MOL0     H70742  11.042   5.074   2.752 -2.0807 -1.8613 -0.8662
  513MOL0     H70743  11.002   4.791   2.820  0.4455  1.5498 -3.2888
  513MOL0     H70744  10.770   4.603   2.813 -0.0662 -3.5605  1.0433
  513MOL0     H70745  10.659   4.631   2.944  0.4804  0.0782  2.3780
  513MOL0     H70746  10.808   4.493   3.038 -1.1513  0.4312 -1.0808
  513MOL0     H70747  10.947   4.577   2.956  0.8754 -1.8250  1.2070
  513MOL0     H70748  10.856   4.779   3.120 -1.3497 -1.3129 -0.9962
  513MOL0     H70749  10.777   4.646   3.197  0.6311 -4.5215 -3.3554
  513MOL0     H70750  10.970   4.651   3.335 -3.8101 -4.1001  0.7688
  513MOL0     H70751  10.983   4.520   3.241 -0.3268  0.0896  0.7262
  513MOL0     H70752  11.307   4.742   3.010  2.4986 -0.7483 -0.6479
  513MOL0     H70753  11.605   4.605   2.972  1.3790  1.2386 -1.3037
  513MOL0     H70754  11.632   4.736   3.091 -0.5765 -0.4764  1.5759
  513MOL0     H70755  11.526   4.759   2.949  0.3193  2.6640  2.3857
  513MOL0     H70756  11.774   4.360   3.469 -1.1376 -1.0940 -1.8346
  513MOL0     H70757  12.038   4.318   3.512 -0.3228 -2.1759 -0.6359
  513MOL0     H70758  12.248   4.135   3.160 -1.2801  1.1888 -1.2861
  513MOL0     H70759  12.298   4.297   3.135  0.6469  0.0162  0.2830
  513MOL0     H70760  12.465   4.147   3.155 -1.8832  3.6250 -1.8000
  513MOL0     H70761  12.478   4.278   3.290 -2.3168  2.6530 -1.0140
  513MOL0     H70762  12.323   4.040   3.359 -0.4194  2.5367 -1.1532
  513MOL0     H70763  12.453   4.128   3.451  2.5315  2.8448 -2.0297
  513MOL0     H70764  12.494   3.945   3.216 -0.4368  0.0833  0.5828
  513MOL0     H70765  12.506   3.894   3.390 -3.1370  1.2405  1.7743
  513MOL0     H70766  12.696   4.070   3.218  0.2171  0.6674  0.1826
  513MOL0     H70767  12.704   4.090   3.374 -2.6804  0.8000 -2.0251
  513MOL0     H70768  12.796   3.885   3.442  2.3039 -2.2822  0.1188
  513MOL0     H70769  12.858   3.902   3.281  0.9989 -3.2199  1.2422
  513MOL0     H70770  12.657   3.748   3.202 -3.3048 -3.2673  2.3276
  513MOL0     H70771  12.639   3.711   3.369 -3.1137  1.0517 -1.9329
  513MOL0     H70772  12.873   3.656   3.170  3.0335  0.5545  0.7752
  513MOL0     H70773  12.782   3.542   3.273 -1.6202  0.5825 -0.0266
  513MOL0     H70774  12.080   4.281   3.082  2.4120  2.2603  1.2144
  513MOL0     H70775  11.816   4.321   3.065  1.1036  4.5288  0.1360
  513MOL0     H70776  11.410   4.384   3.347  2.5529  1.4182  0.9991
  513MOL0     H70777  11.180   4.447   3.318 -4.8513  1.7530 -3.1849
  513MOL0     H70778  10.853   4.793   3.780  0.4824  0.1601  1.1287
  513MOL0     H70779  10.665   4.668   3.843 -1.1016 -1.2993 -1.3033
  513MOL0     H70780  10.520   4.199   3.757 -1.7206  2.1725 -1.7109
  513MOL0     H70781  10.308   4.051   3.789 -0.2008  2.3681 -1.6096
  513MOL0     H70782  10.104   3.967   3.839  1.0780 -2.3373 -0.0528
  513MOL0     H70783  10.164   3.862   3.955 -0.6235 -0.7839 -1.2131
  513MOL0     H70784   9.912   3.853   3.895  0.0176  1.3151 -0.3383
  513MOL0     H70785   9.894   4.006   3.970 -0.7092 -0.1636 -0.8172
  513MOL0     H70786  10.031   3.866   4.174 -2.0827 -3.9892  3.9925
  513MOL0     H70787   9.854   3.839   4.162 -0.1845  1.7197 -0.7038
  513MOL0     H70788  10.027   3.675   3.986 -2.1905  0.4082 -0.4997
  513MOL0     H70789   9.853   3.657   4.043 -0.0314 -0.4455 -3.3462
  513MOL0     H70790  10.079   3.435   4.305  2.7485  1.8549  0.6937
  513MOL0     H70791  10.237   4.214   4.168  1.1960 -2.6694  1.4375
  513MOL0     H70792  10.332   4.421   4.248 -0.4732 -0.4339 -0.1287
  513MOL0     H70793  10.493   4.356   4.241 -1.6108 -1.5858 -0.4942
  513MOL0     H70794  10.451   4.505   4.149 -1.0312  0.5736 -0.0230
  514MOL0     O70795   5.724   1.869  10.177 -0.1917 -0.0692 -0.7904
  514MOL0     C70796   5.639   1.949  10.137 -0.1295  0.6049 -0.5098
  514MOL0     O70797   5.602   2.061  10.206  0.2666  0.1548  0.5492
  514MOL0     C70798   5.675   2.092  10.324  0.2084 -0.3881 -0.2556
  514MOL0     C70799   5.661   2.011  10.439 -0.4948  0.1276  0.3543
  514MOL0     C70800   5.748   2.031  10.550 -0.4473  0.3201  0.6204
  514MOL0     C70801   5.847   2.133  10.553  0.8686  0.4654 -0.4505
  514MOL0     O70802   5.924   2.167  10.661  0.0250  0.2076  0.1052
  514MOL0     C70803   6.011   2.052  10.705  0.2780 -0.2797  0.0553
  514MOL0     C70804   6.080   2.098  10.830 -0.5759  0.9117  0.2346
  514MOL0     C70805   6.171   1.987  10.885 -0.1408  0.5875  0.3213
  514MOL0     C70806   6.142   1.969  11.035 -0.2863  0.0471 -0.7976
  514MOL0     C70807   6.257   1.904  11.120 -0.0548  0.1784  0.2906
  514MOL0     C70808   6.261   1.743  11.104 -0.3360  0.0352  0.3622
  514MOL0     C70809   6.330   1.705  10.967 -0.3525 -0.5331 -0.4192
  514MOL0     C70810   6.352   1.557  10.933  0.4149 -0.0449  0.2078
  514MOL0     N70811   6.425   1.494  11.044  0.8249  0.4717  0.6334
  514MOL0     C70812   6.549   1.509  11.075 -0.4721  0.7789 -0.5213
  514MOL0     C70813   6.569   1.424  11.182 -0.2430 -0.2155 -0.5246
  514MOL0     C70814   6.700   1.413  11.261 -0.0263 -0.5798 -0.5173
  514MOL0     C70815   6.701   1.492  11.386  0.9818  0.3311  0.4111
  514MOL0     C70816   6.757   1.633  11.367  0.1407  0.0625 -0.2268
  514MOL0     C70817   6.649   1.731  11.330 -1.2689  0.0864 -0.7612
  514MOL0     O70818   6.590   1.772  11.447 -0.2988  0.2625  0.3451
  514MOL0     C70819   6.563   1.904  11.447  0.3671 -0.1287 -0.0093
  514MOL0     C70820   6.519   1.972  11.335  0.5955 -0.7455  0.6280
  514MOL0     C70821   6.479   2.103  11.346 -0.4614  0.2990  0.0459
  514MOL0     C70822   6.473   2.193  11.218 -0.1884  0.5037  0.2672
  514MOL0     C70823   6.468   2.161  11.475  0.6488  0.2442 -0.2175
  514MOL0     C70824   6.402   2.291  11.504 -0.3850  0.2334 -0.1687
  514MOL0     O70825   6.293   2.319  11.432 -0.1166 -0.4918 -0.1970
  514MOL0     C70826   6.219   2.424  11.458 -0.2280 -0.6206  1.5283
  514MOL0     C70827   6.249   2.554  11.502  0.3090 -0.1376  0.0261
  514MOL0     C70828   6.142   2.658  11.520  0.3720  0.5344 -0.3751
  514MOL0     C70829   6.012   2.630  11.468 -0.1639 -0.8226  0.6412
  514MOL0     O70830   5.922   2.734  11.470 -0.4637 -0.1977  0.2561
  514MOL0     C70831   5.819   2.721  11.573  0.0604 -0.1065  0.7127
  514MOL0     C70832   5.815   2.860  11.657  0.4805  0.3692  0.2790
  514MOL0     C70833   5.766   2.971  11.565 -0.2191  0.2859 -0.2562
  514MOL0     C70834   5.615   2.960  11.538  0.0546 -0.1094 -0.1048
  514MOL0     C70835   5.570   2.909  11.397 -0.0069 -0.7982  0.1476
  514MOL0     C70836   5.560   3.032  11.293  1.2302 -0.2084 -1.5992
  514MOL0     C70837   5.511   2.995  11.156 -1.1336  1.1586 -0.3079
  514MOL0     C70838   5.632   2.948  11.084  0.8507  0.8547 -0.4359
  514MOL0    Cl70839   5.583   2.900  10.930  0.0768 -0.6597  0.2507
  514MOL0     C70840   5.990   2.506  11.437 -0.7763  0.7873  1.1460
  514MOL0     C70841   6.085   2.404  11.424  0.9405 -0.5113 -0.5185
  514MOL0     O70842   6.441   2.350  11.604  1.7090  0.2822  0.1508
  514MOL0     C70843   6.511   2.094  11.587 -0.0751 -0.6165 -0.0398
  514MOL0     C70844   6.562   1.970  11.570  0.4710  0.7765 -0.0455
  514MOL0     N70845   6.448   1.345  11.208  0.6756 -0.3506 -0.5644
  514MOL0     N70846   6.361   1.392  11.117  0.3243 -0.0140 -0.8726
  514MOL0     C70847   5.841   2.225  10.444 -0.4206 -0.0468  0.5193
  514MOL0     C70848   5.759   2.202  10.328 -0.2380 -0.7359 -1.1754
  514MOL0     C70849   5.566   1.919  10.000  0.0250 -0.2881 -1.4449
  514MOL0     C70850   5.482   2.010   9.955  0.6900 -0.2540 -1.0830
  514MOL0     C70851   5.401   1.997   9.843  0.6949  0.5949 -0.1821
  514MOL0     C70852   5.434   1.898   9.746 -0.9074 -0.0394 -0.4652
  514MOL0     O70853   5.364   1.912   9.621 -0.5102 -0.0756 -0.6053
  514MOL0     C70854   5.367   1.791   9.539  1.0042  0.4110  1.3505
  514MOL0     C70855   5.241   1.762   9.457  0.6379 -0.0445 -0.5773
  514MOL0     C70856   5.240   1.852   9.329 -0.5050  0.4092  1.1945
  514MOL0     C70857   5.267   1.993   9.352 -0.5587  1.2911 -0.5801
  514MOL0     C70858   5.218   2.070   9.235  0.1519  0.2683 -0.1817
  514MOL0     C70859   5.195   2.135   9.136  0.8272 -0.8502  0.2000
  514MOL0     C70860   5.532   1.801   9.785  0.3216 -1.0631 -0.3606
  514MOL0     C70861   5.597   1.812   9.914  0.0820 -0.2554 -0.2198
  514MOL0     C70862   5.680   1.692   9.967  0.6993 -0.4076  0.9544
  514MOL0     H70863   5.611   1.914  10.438 -2.6870  1.2120 -0.5821
  514MOL0     H70864   5.748   1.964  10.636 -1.2484  0.3441  0.6487
  514MOL0     H70865   6.082   2.044  10.622 -1.2759 -0.1744 -1.3360
  514MOL0     H70866   5.951   1.964  10.729  0.8376 -0.0855  2.3912
  514MOL0     H70867   6.133   2.192  10.811  0.0316  0.4559 -0.3221
  514MOL0     H70868   6.008   2.118  10.911  0.2659  1.5098  0.8584
  514MOL0     H70869   6.148   1.895  10.831 -2.8493  1.1146  0.4253
  514MOL0     H70870   6.275   2.018  10.872  0.7921 -2.1171  0.6285
  514MOL0     H70871   6.121   2.063  11.087 -3.2853 -2.2153  2.6448
  514MOL0     H70872   6.051   1.908  11.044 -0.1149 -0.3509 -1.6986
  514MOL0     H70873   6.236   1.943  11.221  2.7797  1.0435  0.6199
  514MOL0     H70874   6.346   1.950  11.076  1.2668 -1.9690  0.5939
  514MOL0     H70875   6.303   1.707  11.198 -0.4555  2.6906  1.5285
  514MOL0     H70876   6.165   1.690  11.101  0.2727 -1.2096  1.6780
  514MOL0     H70877   6.430   1.749  10.969  0.1320 -1.6260  0.9676
  514MOL0     H70878   6.262   1.744  10.890 -0.6772  0.1791  0.2107
  514MOL0     H70879   6.258   1.502  10.928  0.0998  0.4933  0.0434
  514MOL0     H70880   6.405   1.554  10.837 -1.8578  1.3063 -1.1954
  514MOL0     H70881   6.618   1.582  11.033 -0.2206 -0.5202 -2.5250
  514MOL0     H70882   6.784   1.424  11.192 -1.5505  1.1480 -2.2136
  514MOL0     H70883   6.714   1.313  11.304  1.1673  0.7634  2.4344
  514MOL0     H70884   6.607   1.497  11.442  0.7198 -2.7441  0.4387
  514MOL0     H70885   6.766   1.443  11.459 -1.2025 -0.5208  1.9101
  514MOL0     H70886   6.790   1.666  11.466  0.1274  2.4457 -0.9476
  514MOL0     H70887   6.839   1.624  11.295  3.2077  1.1191  2.8322
  514MOL0     H70888   6.698   1.816  11.280 -2.7373  0.7525 -1.1130
  514MOL0     H70889   6.567   1.690  11.270 -3.2671 -1.1110  2.5331
  514MOL0     H70890   6.527   1.928  11.236  0.5020  0.4252  0.0788
  514MOL0     H70891   6.528   2.282  11.250  4.2043 -1.4691 -1.1468
  514MOL0     H70892   6.377   2.217  11.172 -0.6764 -2.2579 -0.3552
  514MOL0     H70893   6.527   2.144  11.137 -0.0506  4.6985 -2.4805
  514MOL0     H70894   6.352   2.567  11.531  0.1021 -3.4852  3.0266
  514MOL0     H70895   6.170   2.758  11.552 -0.7991  1.6556 -2.6338
  514MOL0     H70896   5.729   2.700  11.515  1.0243  1.0996 -1.3544
  514MOL0     H70897   5.833   2.632  11.636 -1.1045 -1.9204 -1.4461
  514MOL0     H70898   5.757   2.850  11.750  2.2990 -0.3618  1.3875
  514MOL0     H70899   5.917   2.882  11.690  0.7207  1.0218 -0.8825
  514MOL0     H70900   5.826   2.982  11.474 -2.1528 -2.4751 -2.0554
  514MOL0     H70901   5.786   3.062  11.621  2.3765 -0.8946  0.8822
  514MOL0     H70902   5.568   3.058  11.536 -3.0001 -1.4112  1.4478
  514MOL0     H70903   5.561   2.897  11.610 -1.3914  0.1289 -0.9446
  514MOL0     H70904   5.635   2.824  11.375  0.8696 -0.2330  0.4690
  514MOL0     H70905   5.465   2.879  11.398  0.4420 -2.5939 -1.0524
  514MOL0     H70906   5.659   3.080  11.291  1.4010 -0.3563  0.4932
  514MOL0     H70907   5.489   3.109  11.325  2.2807 -0.1180  0.7915
  514MOL0     H70908   5.470   3.082  11.104  2.6298  1.3968 -3.3144
  514MOL0     H70909   5.436   2.915  11.157 -2.3426  1.9574 -4.7838
  514MOL0     H70910   5.670   2.863  11.142  0.0217 -0.1421 -1.3118
  514MOL0     H70911   5.705   3.030  11.092 -1.2282  2.7200  0.4633
  514MOL0     H70912   5.892   2.477  11.398 -0.4539  0.5076  0.5254
  514MOL0     H70913   6.052   2.307  11.387 -0.7457  1.0859 -3.6190
  514MOL0     H70914   6.480   2.129  11.685 -1.1012 -1.2385 -0.1346
  514MOL0     H70915   6.589   1.908  11.654  0.4449 -1.5884 -1.6741
  514MOL0     H70916   5.892   2.320  10.454  0.1688 -0.5222  2.2497
  514MOL0     H70917   5.757   2.274  10.247 -0.9327  2.7585  1.6758
  514MOL0     H70918   5.448   2.090  10.021  2.2986  0.8012 -1.4746
  514MOL0     H70919   5.324   2.071   9.819  0.1877  0.3739  0.6963
  514MOL0     H70920   5.455   1.801   9.475  0.8858  0.2951  1.1712
  514MOL0     H70921   5.386   1.695   9.588 -0.2520 -0.4694  0.1834
  514MOL0     H70922   5.151   1.794   9.510  1.0383  1.4119 -0.7430
  514MOL0     H70923   5.233   1.654   9.439  0.6940 -0.1003 -0.2809
  514MOL0     H70924   5.326   1.823   9.267 -1.1721 -1.0179  0.9040
  514MOL0     H70925   5.147   1.831   9.275 -1.4613  1.2723  2.4654
  514MOL0     H70926   5.375   2.005   9.362 -0.5710  0.6714  0.5508
  514MOL0     H70927   5.219   2.029   9.443 -1.9898  0.3185 -0.8977
  514MOL0     H70928   5.163   2.176   9.042  2.2919 -0.0079  0.0339
  514MOL0     H70929   5.558   1.722   9.715  1.5243 -0.6510 -0.4139
  514MOL0     H70930   5.656   1.662  10.069  1.2292 -0.3410  1.1000
  514MOL0     H70931   5.664   1.611   9.895 -0.1527  1.1614 -0.7185
  514MOL0     H70932   5.786   1.719   9.969  0.1503  2.4506 -1.1879
  515MOL0     O70933   7.498   9.714   0.709  0.1497  0.0281  0.1976
  515MOL0     C70934   7.419   9.723   0.618  0.1317  0.4395 -0.3314
  515MOL0     O70935   7.296   9.793   0.633  0.0359  0.6574 -0.0672
  515MOL0     C70936   7.294   9.876   0.740  0.2444 -0.4947  0.3477
  515MOL0     C70937   7.284  10.020   0.719 -1.0840  0.0212  0.6210
  515MOL0     C70938   7.254  10.100   0.833  0.4812  0.0988  0.6965
  515MOL0     C70939   7.271  10.061   0.961 -0.4662 -0.1493  0.1580
  515MOL0     O70940   7.254  10.137   1.078 -0.5126  0.2422  0.7724
  515MOL0     C70941   7.256  10.278   1.061 -0.2463 -0.4723 -0.2747
  515MOL0     C70942   7.242  10.344   1.204  0.2217  0.7195 -0.6341
  515MOL0     C70943   7.376  10.344   1.273 -0.2028 -0.0563  0.1683
  515MOL0     C70944   7.389  10.452   1.384 -0.1071  0.5044 -0.0775
  515MOL0     C70945   7.432  10.392   1.517  0.4280 -0.8630  0.6408
  515MOL0     C70946   7.423  10.490   1.633  0.1794 -0.6145 -0.6072
  515MOL0     C70947   7.516  10.616   1.626 -0.9158  0.4904 -0.1315
  515MOL0     C70948   7.669  10.575   1.647  0.1730 -0.1344 -0.7941
  515MOL0     N70949   7.737  10.693   1.610  0.1131  0.1102  0.0887
  515MOL0     C70950   7.826  10.706   1.499 -0.1744 -0.2413  0.0024
  515MOL0     C70951   7.838  10.842   1.487 -0.0209  0.3134  0.6858
  515MOL0     C70952   7.918  10.913   1.380 -0.3075 -0.6437 -0.8253
  515MOL0     C70953   7.868  11.055   1.334 -0.0450 -0.0405 -0.1155
  515MOL0     C70954   7.947  11.094   1.210  0.2402  0.5266  0.2964
  515MOL0     C70955   7.868  11.181   1.104 -0.3939  0.1329 -0.8188
  515MOL0     O70956   7.779  11.113   1.015  0.4641  0.7635  0.3272
  515MOL0     C70957   7.820  11.038   0.915 -0.0031 -0.6172 -0.8124
  515MOL0     C70958   7.717  10.991   0.848  0.5864  0.7130  0.7813
  515MOL0     C70959   7.730  10.896   0.748  0.0053  0.1399  0.1772
  515MOL0     C70960   7.602  10.866   0.667  0.4736  0.2476  0.3661
  515MOL0     C70961   7.859  10.846   0.725 -0.1133 -0.4258  0.1563
  515MOL0     C70962   7.884  10.733   0.633  0.3007 -1.0924 -0.0676
  515MOL0     O70963   7.993  10.658   0.642  0.1287  0.1637 -0.1953
  515MOL0     C70964   8.055  10.595   0.539  0.0597  0.3874 -0.5772
  515MOL0     C70965   8.185  10.607   0.506 -0.7894  0.3594 -0.3438
  515MOL0     C70966   8.234  10.520   0.409 -0.4731  0.3011 -0.5604
  515MOL0     C70967   8.168  10.407   0.370 -0.5527  0.9314  0.7906
  515MOL0     O70968   8.241  10.327   0.278 -0.5181 -0.0349 -0.7127
  515MOL0     C70969   8.164  10.249   0.194 -0.1093  0.5556 -0.2911
  515MOL0     C70970   8.258  10.215   0.070 -0.3475 -0.9053  0.3554
  515MOL0     C70971   8.278  10.333  -0.025 -0.4962  0.4972  1.0012
  515MOL0     C70972   8.382  10.306  -0.136 -0.0457  0.4413  0.2317
  515MOL0     C70973   8.402  10.402  -0.256 -0.0692  1.0904  0.4284
  515MOL0     C70974   8.288  10.369  -0.354 -0.8577  0.1313  0.1951
  515MOL0     C70975   8.316  10.456  -0.485 -0.1667 -0.3169 -0.3388
  515MOL0     C70976   8.221  10.583  -0.489 -0.0211 -0.1045  0.3901
  515MOL0    Cl70977   8.239  10.646  -0.658  0.5604  0.4811  0.0444
  515MOL0     C70978   8.033  10.385   0.415  0.4041 -0.3399  0.5618
  515MOL0     C70979   7.969  10.492   0.495 -0.7175  0.0460 -0.0011
  515MOL0     O70980   7.819  10.744   0.536 -0.0808 -0.0774  0.4379
  515MOL0     C70981   7.970  10.897   0.800  0.2508  0.4975  0.2665
  515MOL0     C70982   7.949  10.993   0.894 -0.2240 -0.8828  0.3002
  515MOL0     N70983   7.781  10.900   1.592 -0.1163  0.8651 -1.3575
  515MOL0     N70984   7.732  10.818   1.670  0.3363 -0.4751 -0.6263
  515MOL0     C70985   7.292   9.923   0.982  0.5822 -0.6288 -0.0242
  515MOL0     C70986   7.296   9.830   0.874 -0.1327 -0.0414  0.3476
  515MOL0     C70987   7.449   9.680   0.483  0.0952  0.5005  0.2921
  515MOL0     C70988   7.418   9.765   0.373  0.0424 -0.8315 -0.6219
  515MOL0     C70989   7.477   9.746   0.250  0.2073 -0.4391  0.6411
  515MOL0     C70990   7.567   9.641   0.232 -0.0799 -0.7182 -1.5929
  515MOL0     O70991   7.647   9.614   0.121  0.5407  0.5147  0.0423
  515MOL0     C70992   7.623   9.679  -0.005  0.0503  0.8569 -0.4546
  515MOL0     C70993   7.541   9.577  -0.086  0.3736  0.9664  0.8453
  515MOL0     C70994   7.470   9.652  -0.203 -0.8422 -0.0233  0.6299
  515MOL0     C70995   7.326   9.706  -0.162 -0.2006  0.3655 -0.3674
  515MOL0     C70996   7.226   9.595  -0.150 -0.0029 -0.2471 -0.1028
  515MOL0     C70997   7.154   9.501  -0.148 -0.7725  0.1251 -0.1967
  515MOL0     C70998   7.607   9.563   0.342  0.2271  0.2285 -0.1459
  515MOL0     C70999   7.529   9.564   0.461 -0.5577 -0.1951 -0.3129
  515MOL0     C71000   7.568   9.459   0.567 -0.1601  0.7716  0.9238
  515MOL0     H71001   7.277  10.047   0.614  0.0949 -0.8209  0.3046
  515MOL0     H71002   7.224  10.196   0.790  1.1374 -0.5177 -1.2472
  515MOL0     H71003   7.165  10.300   1.003  0.8159  0.4286 -1.6573
  515MOL0     H71004   7.342  10.319   1.007  0.9823  0.4037  2.2324
  515MOL0     H71005   7.209  10.446   1.181  0.4033  0.5946 -1.5210
  515MOL0     H71006   7.159  10.301   1.260 -0.2734 -0.6094 -2.3023
  515MOL0     H71007   7.401  10.247   1.317  0.1787  0.3944  0.9669
  515MOL0     H71008   7.453  10.367   1.198 -1.7276  2.5638 -0.7357
  515MOL0     H71009   7.458  10.530   1.350 -0.5649  0.0938 -2.0881
  515MOL0     H71010   7.291  10.490   1.415 -0.1033  1.3746 -1.0860
  515MOL0     H71011   7.533  10.357   1.496  1.7998  2.3285  1.3124
  515MOL0     H71012   7.361  10.309   1.528 -1.6733  0.4153 -1.9064
  515MOL0     H71013   7.327  10.542   1.646  0.0805 -0.5501 -1.5322
  515MOL0     H71014   7.424  10.440   1.730  0.7726  0.2905 -0.1381
  515MOL0     H71015   7.493  10.669   1.719  1.1220 -1.0650  1.3451
  515MOL0     H71016   7.511  10.670   1.531  1.0469  1.3946  0.2358
  515MOL0     H71017   7.689  10.542   1.749  0.5995  1.8629 -0.1894
  515MOL0     H71018   7.689  10.477   1.600 -0.8232 -1.0513  0.6242
  515MOL0     H71019   7.871  10.630   1.436 -1.5516 -1.2939  0.2353
  515MOL0     H71020   7.912  10.857   1.286 -4.3635  1.9021 -2.3933
  515MOL0     H71021   8.019  10.921   1.419 -0.5615 -0.6911 -0.1454
  515MOL0     H71022   7.761  11.044   1.314  0.1673 -2.3222 -0.2348
  515MOL0     H71023   7.872  11.135   1.408  0.3466  0.1875 -0.3771
  515MOL0     H71024   8.040  11.137   1.248  0.5432  0.8338 -0.7599
  515MOL0     H71025   7.968  11.008   1.146 -1.3244  1.4913 -1.6437
  515MOL0     H71026   7.802  11.246   1.162 -2.4266 -2.8708  0.4476
  515MOL0     H71027   7.942  11.244   1.052  3.2183 -0.9189  2.5532
  515MOL0     H71028   7.624  11.031   0.887  0.5681  1.2836  0.1602
  515MOL0     H71029   7.623  10.906   0.568  1.2023 -0.4272  0.2359
  515MOL0     H71030   7.513  10.919   0.702 -0.7152 -1.8876  0.7520
  515MOL0     H71031   7.586  10.757   0.671 -0.6177  0.1971 -2.6839
  515MOL0     H71032   8.237  10.694   0.544 -2.5967  2.1841 -1.8387
  515MOL0     H71033   8.327  10.543   0.358  1.3492  0.1570  2.4668
  515MOL0     H71034   8.152  10.151   0.242  0.8877  1.1499  1.2404
  515MOL0     H71035   8.070  10.292   0.158  0.9764 -0.0642 -4.4313
  515MOL0     H71036   8.347  10.156   0.094 -1.0052 -1.3034  1.9223
  515MOL0     H71037   8.205  10.141   0.009  1.8092 -2.0403 -0.2522
  515MOL0     H71038   8.301  10.424   0.030  0.9446 -0.9760  2.9682
  515MOL0     H71039   8.178  10.360  -0.058 -0.4102 -0.4700 -0.1375
  515MOL0     H71040   8.369  10.203  -0.170 -1.8540  1.0394 -1.0164
  515MOL0     H71041   8.475  10.302  -0.078 -0.4342 -0.9965  0.8063
  515MOL0     H71042   8.390  10.502  -0.213  2.0196  0.7257  2.0274
  515MOL0     H71043   8.506  10.389  -0.290  1.1074  3.0604  2.9472
  515MOL0     H71044   8.190  10.391  -0.310 -0.4762  3.0335 -0.1981
  515MOL0     H71045   8.298  10.263  -0.379  1.2590  0.6871 -1.6806
  515MOL0     H71046   8.301  10.404  -0.580  2.2426  1.7964 -2.0246
  515MOL0     H71047   8.417  10.499  -0.491 -1.1266  1.9052 -2.4218
  515MOL0     H71048   8.254  10.647  -0.407  2.2474 -1.3366  0.5104
  515MOL0     H71049   8.116  10.559  -0.465  0.8731 -5.4979  0.3037
  515MOL0     H71050   7.980  10.299   0.376 -0.6128 -0.8757  2.9611
  515MOL0     H71051   7.865  10.477   0.524 -0.5702 -1.2445 -0.0776
  515MOL0     H71052   8.071  10.860   0.788 -0.2176 -1.1746  1.0794
  515MOL0     H71053   8.035  11.026   0.952 -0.4107 -0.7085  0.4808
  515MOL0     H71054   7.282   9.887   1.083 -0.8051  1.3033  0.5948
  515MOL0     H71055   7.313   9.723   0.887 -0.2298 -0.3811 -1.9367
  515MOL0     H71056   7.368   9.859   0.388 -2.1476 -2.4014  3.1189
  515MOL0     H71057   7.462   9.826   0.179 -0.4250  2.2530  3.6065
  515MOL0     H71058   7.573   9.777  -0.008 -0.3441  0.6986  0.4930
  515MOL0     H71059   7.712   9.700  -0.065  0.9269 -0.9739  0.1465
  515MOL0     H71060   7.469   9.521  -0.025 -1.6135  2.3958 -0.0783
  515MOL0     H71061   7.601   9.496  -0.129 -1.0694  0.6253 -0.6536
  515MOL0     H71062   7.527   9.739  -0.235  0.4670 -0.5966  1.3153
  515MOL0     H71063   7.462   9.602  -0.300 -0.4177  2.2974 -0.6569
  515MOL0     H71064   7.296   9.782  -0.234  1.9524  0.2167 -1.5065
  515MOL0     H71065   7.332   9.740  -0.058 -3.4210 -2.5032  0.9847
  515MOL0     H71066   7.106   9.406  -0.148  2.6211 -1.7704  0.7506
  515MOL0     H71067   7.685   9.489   0.337  1.5596  1.6372 -4.2211
  515MOL0     H71068   7.660   9.500   0.610 -0.1699 -0.4125  2.1569
  515MOL0     H71069   7.491   9.457   0.645  1.3890  1.9920  2.5705
  515MOL0     H71070   7.584   9.361   0.521 -0.2892  2.6210 -3.5939
  516MOL0     O71071   9.871   2.466   4.675 -0.3693 -0.3527 -0.6095
  516MOL0     C71072   9.975   2.447   4.745 -0.4546 -0.2960 -0.0904
  516MOL0     O71073  10.070   2.543   4.756  0.1307  0.2454 -0.0876
  516MOL0     C71074  10.047   2.673   4.717 -0.4074 -0.5204 -0.6912
  516MOL0     C71075  10.107   2.716   4.602 -0.1640  0.3114  0.4636
  516MOL0     C71076  10.095   2.848   4.558 -0.0330  0.8762 -0.0231
  516MOL0     C71077  10.022   2.943   4.635 -0.6347 -0.4972  0.0845
  516MOL0     O71078  10.008   3.072   4.583  0.7987 -0.1438 -0.0987
  516MOL0     C71079   9.876   3.116   4.568  0.4458  0.5364  0.2983
  516MOL0     C71080   9.867   3.250   4.482 -0.2281  0.2378  0.0354
  516MOL0     C71081   9.730   3.310   4.501  0.4747 -0.6167 -0.2095
  516MOL0     C71082   9.728   3.434   4.409 -0.3754 -0.1137 -0.1861
  516MOL0     C71083   9.603   3.506   4.404 -0.2978  0.3419 -0.3396
  516MOL0     C71084   9.612   3.619   4.315  0.8426  0.0578  0.0161
  516MOL0     C71085   9.636   3.760   4.377  0.0074  0.3202 -0.1554
  516MOL0     C71086   9.706   3.763   4.517 -0.7870 -0.3034 -0.5410
  516MOL0     N71087   9.733   3.902   4.565  0.1454 -0.3920  0.2667
  516MOL0     C71088   9.842   3.977   4.523 -0.4915 -0.8477  1.0960
  516MOL0     C71089   9.859   4.073   4.614  0.2263  1.3110 -1.3123
  516MOL0     C71090   9.974   4.169   4.631 -0.1269 -0.9528 -0.6604
  516MOL0     C71091  10.049   4.173   4.768 -0.5671 -1.0012 -1.3889
  516MOL0     C71092  10.192   4.099   4.755 -0.7375 -0.1742 -0.5152
  516MOL0     C71093  10.266   4.115   4.887  0.4602 -0.2500  0.7717
  516MOL0     O71094  10.244   4.007   4.987  0.3789  0.0253  0.3658
  516MOL0     C71095  10.294   3.887   4.964  0.5056  0.8360  0.7332
  516MOL0     C71096  10.411   3.853   4.891  1.3316  0.8876  0.5232
  516MOL0     C71097  10.459   3.715   4.879 -0.1894  0.3073  0.1777
  516MOL0     C71098  10.585   3.685   4.797  0.0497  0.7785 -0.0625
  516MOL0     C71099  10.376   3.619   4.936 -0.5457  0.3801 -0.5266
  516MOL0     C71100  10.411   3.471   4.947 -0.0959  0.7524 -0.1160
  516MOL0     O71101  10.536   3.427   4.951  0.1324 -0.7673 -0.5087
  516MOL0     C71102  10.558   3.299   4.986 -0.8234 -0.1024 -0.0043
  516MOL0     C71103  10.479   3.221   5.072 -0.1939 -0.2448 -0.3802
  516MOL0     C71104  10.523   3.091   5.101 -0.2745 -0.3494 -0.0126
  516MOL0     C71105  10.644   3.039   5.055 -0.6867 -0.4348  0.3335
  516MOL0     O71106  10.674   2.907   5.079 -0.5589 -0.5720  0.1710
  516MOL0     C71107  10.696   2.881   5.220  0.3297  0.1650 -0.6849
  516MOL0     C71108  10.676   2.743   5.260  0.6774  0.0343 -1.0179
  516MOL0     C71109  10.544   2.672   5.210  0.0150  0.4987  0.1752
  516MOL0     C71110  10.429   2.723   5.299  0.2283  0.0044  0.4193
  516MOL0     C71111  10.290   2.689   5.236  0.0501  0.4560 -0.1970
  516MOL0     C71112  10.249   2.784   5.126 -0.2312  0.7748  0.3192
  516MOL0     C71113  10.197   2.908   5.182  0.0814  0.6544 -0.8276
  516MOL0     C71114  10.193   3.018   5.076  0.4216 -0.1489 -0.5114
  516MOL0    Cl71115  10.111   3.160   5.130 -0.3172  0.5795  0.0146
  516MOL0     C71116  10.733   3.123   4.982  0.2398  0.0204  0.2848
  516MOL0     C71117  10.681   3.252   4.953 -0.2999  1.0032  0.1458
  516MOL0     O71118  10.306   3.404   4.942 -0.2399  0.3465  0.1808
  516MOL0     C71119  10.269   3.658   5.016  1.0336  0.0085 -0.0521
  516MOL0     C71120  10.218   3.790   5.022 -0.3544  0.9633  0.6996
  516MOL0     N71121   9.768   4.049   4.722  0.3149 -0.1097  0.4385
  516MOL0     N71122   9.695   3.946   4.682  0.3492  0.3199 -0.4287
  516MOL0     C71123   9.963   2.899   4.754 -0.7350  0.1935 -0.1744
  516MOL0     C71124   9.981   2.769   4.792 -0.0181  0.4559 -0.1331
  516MOL0     C71125  10.001   2.309   4.788 -0.7650  0.1701 -1.3129
  516MOL0     C71126   9.890   2.214   4.775  0.7272 -0.8459 -0.3960
  516MOL0     C71127   9.887   2.097   4.845 -0.7251 -0.3728  0.1070
  516MOL0     C71128   9.991   2.061   4.925  0.5105 -0.4627  0.1011
  516MOL0     O71129   9.993   1.955   5.000 -0.0177  0.3644  0.3009
  516MOL0     C71130   9.874   1.896   5.053 -0.0292  0.3721  0.7551
  516MOL0     C71131   9.864   1.924   5.202  0.4862 -0.1927 -0.5585
  516MOL0     C71132   9.725   1.899   5.265 -0.1454 -0.1799 -0.9053
  516MOL0     C71133   9.693   1.750   5.291  0.1357 -0.3660  0.9658
  516MOL0     C71134   9.667   1.680   5.173  0.6228 -0.1514  0.5068
  516MOL0     C71135   9.640   1.606   5.074 -0.0357 -0.6785 -0.1748
  516MOL0     C71136  10.101   2.148   4.941  0.1390 -0.3343  0.4861
  516MOL0     C71137  10.113   2.267   4.867  0.1773  0.2276  0.4875
  516MOL0     C71138  10.224   2.365   4.903  0.7303  0.1259 -0.6321
  516MOL0     H71139  10.138   2.646   4.525 -0.5519  1.2014 -0.5352
  516MOL0     H71140  10.133   2.883   4.462  2.0024  1.0542  0.7861
  516MOL0     H71141   9.828   3.153   4.659  0.4905  1.1472  0.0829
  516MOL0     H71142   9.806   3.041   4.532 -0.0025 -0.4490  3.0685
  516MOL0     H71143   9.939   3.322   4.521  0.4359  0.6028 -1.7940
  516MOL0     H71144   9.891   3.218   4.381 -2.9405  3.8343 -2.0115
  516MOL0     H71145   9.653   3.235   4.477  0.3990 -0.9201  0.8825
  516MOL0     H71146   9.709   3.343   4.603 -3.4563 -2.8505 -0.0829
  516MOL0     H71147   9.809   3.500   4.443 -0.8136 -1.6755  4.6710
  516MOL0     H71148   9.748   3.401   4.307 -1.1979 -1.5075  0.0766
  516MOL0     H71149   9.555   3.539   4.496  0.7654 -0.5174  0.5485
  516MOL0     H71150   9.526   3.447   4.353  2.2407 -3.6832  0.0451
  516MOL0     H71151   9.683   3.609   4.233  2.3387  0.1595  1.2462
  516MOL0     H71152   9.518   3.624   4.261 -0.2129 -0.5054  1.7210
  516MOL0     H71153   9.543   3.817   4.381  0.7993  1.9304 -2.4850
  516MOL0     H71154   9.698   3.818   4.308  0.4310 -0.0776 -0.1170
  516MOL0     H71155   9.651   3.710   4.595 -0.4166  1.9278  1.3610
  516MOL0     H71156   9.803   3.713   4.517  0.5045  2.0378  0.0273
  516MOL0     H71157   9.897   3.951   4.433  0.2460 -1.2652  1.6560
  516MOL0     H71158   9.943   4.269   4.602  2.5411 -0.7225 -3.1556
  516MOL0     H71159  10.035   4.157   4.542 -1.9145 -5.0131 -1.6075
  516MOL0     H71160  10.049   4.277   4.803 -1.4444 -1.3841 -0.1846
  516MOL0     H71161   9.993   4.110   4.838  0.3245 -3.4333 -2.7597
  516MOL0     H71162  10.172   3.992   4.744  1.4296 -1.0979  2.9039
  516MOL0     H71163  10.255   4.140   4.675  0.8765 -0.1871  0.6870
  516MOL0     H71164  10.370   4.141   4.866  0.3200  0.4958  0.9544
  516MOL0     H71165  10.234   4.208   4.935 -1.3854 -0.7207  0.5259
  516MOL0     H71166  10.461   3.939   4.847 -0.9226  1.5321 -0.9370
  516MOL0     H71167  10.552   3.674   4.694 -2.3545  1.6064  0.5572
  516MOL0     H71168  10.635   3.588   4.802  0.0908  0.3150 -5.0218
  516MOL0     H71169  10.663   3.760   4.806  1.0035 -0.2693  0.7225
  516MOL0     H71170  10.387   3.250   5.122  0.1766  0.8156 -0.2907
  516MOL0     H71171  10.462   3.028   5.166  3.1144  0.9652  5.0142
  516MOL0     H71172  10.799   2.891   5.256  0.1121 -2.1438  0.8174
  516MOL0     H71173  10.634   2.942   5.287 -0.1030 -2.2543  1.3039
  516MOL0     H71174  10.760   2.689   5.216  0.2489  1.3188 -3.6586
  516MOL0     H71175  10.677   2.726   5.368 -0.7868  0.5337 -0.8999
  516MOL0     H71176  10.573   2.566   5.218  4.9928  1.0728 -4.2589
  516MOL0     H71177  10.516   2.683   5.105 -0.1786 -0.4251  0.1185
  516MOL0     H71178  10.430   2.830   5.320 -2.3192 -0.0980  1.4254
  516MOL0     H71179  10.439   2.672   5.395  3.0986 -0.6411 -0.1103
  516MOL0     H71180  10.288   2.590   5.188  0.6086  1.4069 -2.2823
  516MOL0     H71181  10.199   2.686   5.297  0.8541  0.1978  1.0422
  516MOL0     H71182  10.167   2.734   5.073  0.4803 -1.9436  1.6189
  516MOL0     H71183  10.334   2.807   5.062  0.7287  1.5503  1.8280
  516MOL0     H71184  10.250   2.951   5.268 -1.7856  1.0985  0.1656
  516MOL0     H71185  10.103   2.883   5.233 -0.1630 -1.2047 -2.0831
  516MOL0     H71186  10.140   2.975   4.990 -0.9505 -2.7189  1.4610
  516MOL0     H71187  10.291   3.049   5.039  0.9842 -1.7061 -0.4143
  516MOL0     H71188  10.831   3.086   4.954 -1.1226 -2.7975 -1.2196
  516MOL0     H71189  10.738   3.327   4.900  0.0426 -0.9407 -2.4595
  516MOL0     H71190  10.222   3.587   5.084 -1.3726  2.2885  0.8200
  516MOL0     H71191  10.127   3.812   5.077 -2.8070 -2.1076 -1.7336
  516MOL0     H71192   9.902   2.967   4.813  0.1425  4.1845 -3.3835
  516MOL0     H71193   9.938   2.734   4.885 -0.1357 -1.6331 -0.9049
  516MOL0     H71194   9.800   2.228   4.717  0.9456  1.4243 -0.2629
  516MOL0     H71195   9.792   2.044   4.842 -1.6379  1.2335 -1.5940
  516MOL0     H71196   9.785   1.935   5.002 -0.7267  1.7125  2.8886
  516MOL0     H71197   9.885   1.788   5.041 -1.0945  0.4619 -1.6934
  516MOL0     H71198   9.872   2.033   5.207  0.4164 -0.2374  2.8951
  516MOL0     H71199   9.947   1.874   5.253 -0.1855 -0.6122  0.1474
  516MOL0     H71200   9.720   1.953   5.359 -2.7697  1.9822 -2.1355
  516MOL0     H71201   9.648   1.944   5.200 -0.9760 -0.6347 -0.2604
  516MOL0     H71202   9.602   1.751   5.353  0.7061  1.2888  1.8522
  516MOL0     H71203   9.774   1.696   5.341 -2.2871 -4.8129  0.5269
  516MOL0     H71204   9.628   1.533   4.996 -1.9565 -1.4934  0.7940
  516MOL0     H71205  10.179   2.122   5.011 -0.7950 -0.3936  1.5463
  516MOL0     H71206  10.310   2.312   4.944  1.9062  2.1301 -0.3511
  516MOL0     H71207  10.253   2.418   4.811  1.2884  5.0429  2.0422
  516MOL0     H71208  10.198   2.416   4.996  1.5528 -0.2158 -0.1989
  517MOL0     O71209   7.360   9.560   6.319 -0.1328 -0.0780 -0.6272
  517MOL0     C71210   7.281   9.479   6.286  0.1419  0.1050 -0.3957
  517MOL0     O71211   7.242   9.365   6.364 -0.3800  0.8267 -0.8975
  517MOL0     C71212   7.281   9.357   6.494 -0.2179  0.7332  0.1341
  517MOL0     C71213   7.401   9.304   6.524  0.0515 -0.2619 -0.1341
  517MOL0     C71214   7.428   9.275   6.659  0.3475 -0.2394  0.2063
  517MOL0     C71215   7.343   9.313   6.761  0.6626  0.0186 -0.3870
  517MOL0     O71216   7.384   9.280   6.889 -0.6550  0.1509 -0.1567
  517MOL0     C71217   7.290   9.295   6.993  0.6568  0.0253  0.3790
  517MOL0     C71218   7.328   9.204   7.107 -0.2409  0.0807 -0.4611
  517MOL0     C71219   7.325   9.054   7.066 -0.3081  0.0724 -0.7878
  517MOL0     C71220   7.346   8.967   7.188 -0.3887  0.1312  0.0913
  517MOL0     C71221   7.364   8.821   7.162 -0.3415  0.5452  0.7955
  517MOL0     C71222   7.238   8.735   7.102 -0.6172 -0.4403 -0.6917
  517MOL0     C71223   7.111   8.752   7.189 -0.0608 -0.2816  0.4616
  517MOL0     C71224   7.115   8.680   7.322  0.5377  0.5766 -0.2258
  517MOL0     N71225   7.163   8.542   7.313 -0.3640  0.1043 -0.3231
  517MOL0     C71226   7.078   8.441   7.269 -0.2976  0.1023  0.8209
  517MOL0     C71227   7.156   8.333   7.266  0.9686 -0.9367 -0.5803
  517MOL0     C71228   7.133   8.196   7.209 -0.8055  0.0705  1.0195
  517MOL0     C71229   7.136   8.208   7.057 -0.1419  0.3102  1.4769
  517MOL0     C71230   7.111   8.067   6.998  0.6526  0.2349 -0.0056
  517MOL0     C71231   7.110   8.075   6.849  0.1857 -0.9248 -0.3489
  517MOL0     O71232   7.099   7.934   6.799  0.5481 -0.5840  0.6263
  517MOL0     C71233   7.120   7.916   6.665 -0.5683  0.2906 -0.4730
  517MOL0     C71234   7.102   8.012   6.572  0.2867 -0.9666  0.5445
  517MOL0     C71235   7.147   7.996   6.436  0.0982 -0.0509  0.5645
  517MOL0     C71236   7.143   8.115   6.339  0.0026 -0.3170  1.0699
  517MOL0     C71237   7.163   7.863   6.391 -0.2868 -0.5418 -0.2316
  517MOL0     C71238   7.194   7.851   6.249  0.5855 -0.2327  0.1438
  517MOL0     O71239   7.313   7.900   6.203 -0.3167 -0.2472 -1.0291
  517MOL0     C71240   7.346   7.883   6.075  0.3283 -0.4756 -1.0543
  517MOL0     C71241   7.337   7.767   5.999 -0.1969 -0.3745 -0.1078
  517MOL0     C71242   7.378   7.761   5.868 -0.2644 -0.4164 -0.1775
  517MOL0     C71243   7.452   7.863   5.814 -0.0933 -0.1071  0.0040
  517MOL0     O71244   7.532   7.862   5.703  0.9294  0.7166 -0.3133
  517MOL0     C71245   7.538   7.745   5.630  0.0179 -0.6473  1.1595
  517MOL0     C71246   7.652   7.765   5.529  0.0355 -0.1902 -0.5203
  517MOL0     C71247   7.787   7.762   5.600  0.2794 -1.0412 -0.0043
  517MOL0     C71248   7.895   7.708   5.505  0.4449  0.1844 -0.3691
  517MOL0     C71249   8.040   7.728   5.544 -1.2566 -0.0500 -0.8077
  517MOL0     C71250   8.134   7.633   5.473  0.5203  0.4151 -0.0125
  517MOL0     C71251   8.126   7.642   5.321 -0.2364 -1.5192  0.2493
  517MOL0     C71252   8.213   7.538   5.264  0.5420 -0.1860 -0.0438
  517MOL0    Cl71253   8.208   7.526   5.083 -0.4473  0.0809  0.0471
  517MOL0     C71254   7.466   7.974   5.894 -0.1507  1.1474  0.2853
  517MOL0     C71255   7.419   7.987   6.026 -0.5336  0.4044 -0.0960
  517MOL0     O71256   7.103   7.814   6.177 -0.4918 -0.2499 -0.1682
  517MOL0     C71257   7.172   7.755   6.482  1.2285  0.1094  0.9442
  517MOL0     C71258   7.170   7.792   6.615 -0.3353 -0.2800  0.3233
  517MOL0     N71259   7.286   8.367   7.301 -0.9635  0.8025  0.3343
  517MOL0     N71260   7.295   8.497   7.333  0.7262  0.9570  0.2925
  517MOL0     C71261   7.226   9.378   6.723  0.6206 -1.4574 -0.8965
  517MOL0     C71262   7.192   9.401   6.589  0.0326  0.1403  0.6693
  517MOL0     C71263   7.223   9.498   6.149 -0.1549 -1.5695  0.7060
  517MOL0     C71264   7.271   9.610   6.072 -0.2872  0.1444 -0.4907
  517MOL0     C71265   7.231   9.632   5.942  0.1628 -0.0399 -0.4250
  517MOL0     C71266   7.139   9.545   5.884 -0.2135 -0.0296  0.4976
  517MOL0     O71267   7.088   9.549   5.758 -0.3448 -0.6335  0.6578
  517MOL0     C71268   7.158   9.643   5.666  0.0087  0.9194  0.1932
  517MOL0     C71269   7.105   9.647   5.529  0.8629 -0.1533 -0.9433
  517MOL0     C71270   7.182   9.747   5.440 -0.0186  0.8513  0.7332
  517MOL0     C71271   7.142   9.760   5.287 -0.1961  0.0925  0.2844
  517MOL0     C71272   7.030   9.856   5.267 -0.7646  1.1212 -0.9808
  517MOL0     C71273   6.950   9.939   5.251  0.9607  0.3069  0.4926
  517MOL0     C71274   7.096   9.433   5.953  0.7595  0.4174 -0.7810
  517MOL0     C71275   7.130   9.403   6.083  0.0220 -0.7873 -0.1609
  517MOL0     C71276   7.074   9.281   6.137 -0.5132  1.0662  0.1372
  517MOL0     H71277   7.461   9.272   6.439 -0.8561  0.5094 -1.1030
  517MOL0     H71278   7.530   9.245   6.680  1.8734  3.5811 -0.8429
  517MOL0     H71279   7.192   9.260   6.959  0.9289 -1.0750  0.6994
  517MOL0     H71280   7.293   9.400   7.025  1.2761  0.2057 -0.2444
  517MOL0     H71281   7.429   9.225   7.142 -0.7153 -1.3334  2.0189
  517MOL0     H71282   7.270   9.212   7.200  0.5212 -0.8175  0.1076
  517MOL0     H71283   7.237   9.015   7.015 -1.8530 -0.4566  2.0944
  517MOL0     H71284   7.414   9.044   7.003  0.4296  0.1002  0.2269
  517MOL0     H71285   7.435   9.002   7.241 -1.4915 -1.5684  3.2993
  517MOL0     H71286   7.258   8.984   7.251 -0.8176 -0.2724 -0.3822
  517MOL0     H71287   7.388   8.782   7.262 -0.5103  2.6243  1.6803
  517MOL0     H71288   7.451   8.799   7.099  0.2529  1.1279  1.3966
  517MOL0     H71289   7.221   8.764   6.998  0.3994  3.5149  0.0753
  517MOL0     H71290   7.271   8.631   7.107 -1.5081 -0.6816  1.4228
  517MOL0     H71291   7.038   8.705   7.123 -0.7648 -0.6143  1.4636
  517MOL0     H71292   7.086   8.858   7.206 -3.5983 -1.3633  3.2282
  517MOL0     H71293   7.187   8.721   7.393 -0.3454  0.6740  0.6407
  517MOL0     H71294   7.013   8.675   7.362 -1.0374  1.5654 -3.7735
  517MOL0     H71295   6.975   8.452   7.236 -0.9625 -2.7961  1.6991
  517MOL0     H71296   7.037   8.155   7.242 -0.4159 -0.1164  1.9681
  517MOL0     H71297   7.221   8.139   7.241  0.1307  3.0086  4.4255
  517MOL0     H71298   7.055   8.273   7.022 -1.7325 -2.3328 -0.0455
  517MOL0     H71299   7.232   8.235   7.012 -0.5160  2.2904  1.7707
  517MOL0     H71300   7.197   8.007   7.030  0.0681 -0.5530  0.1033
  517MOL0     H71301   7.022   8.032   7.050  1.9871 -0.8126  1.7189
  517MOL0     H71302   7.029   8.140   6.815 -0.0216 -0.0786  1.5994
  517MOL0     H71303   7.192   8.128   6.800  0.1769  1.4353  1.9646
  517MOL0     H71304   7.071   8.110   6.606 -0.3627 -1.3369  1.0534
  517MOL0     H71305   7.245   8.148   6.317 -0.9203  1.1279 -1.4961
  517MOL0     H71306   7.098   8.208   6.375 -2.0482 -0.4397 -0.9601
  517MOL0     H71307   7.091   8.085   6.247  2.3067  2.6981 -1.4406
  517MOL0     H71308   7.292   7.679   6.044 -0.1134 -0.3937 -0.0629
  517MOL0     H71309   7.370   7.671   5.807 -0.2781 -0.1632 -0.5551
  517MOL0     H71310   7.548   7.660   5.699  1.7053  0.0996  1.9039
  517MOL0     H71311   7.448   7.739   5.569  1.6628  2.5741 -1.9523
  517MOL0     H71312   7.636   7.678   5.465 -1.1106  2.2887 -3.9096
  517MOL0     H71313   7.639   7.858   5.473  2.9554  1.3364  1.0915
  517MOL0     H71314   7.789   7.700   5.690  0.4415 -0.5919  0.3090
  517MOL0     H71315   7.810   7.862   5.638 -1.3597 -1.1463  1.3947
  517MOL0     H71316   7.883   7.754   5.407 -1.7029  0.1282 -0.1788
  517MOL0     H71317   7.861   7.605   5.490  1.8907 -0.2589 -0.8418
  517MOL0     H71318   8.075   7.827   5.512 -0.2602 -1.1090 -3.1986
  517MOL0     H71319   8.059   7.719   5.651  0.8762 -4.7178 -1.3700
  517MOL0     H71320   8.124   7.534   5.520 -1.3496  1.7012  2.5705
  517MOL0     H71321   8.235   7.661   5.503  0.3206  1.1490 -0.0121
  517MOL0     H71322   8.155   7.746   5.302 -2.7283 -0.5507  1.3375
  517MOL0     H71323   8.030   7.626   5.272 -0.0850  1.6320 -1.3276
  517MOL0     H71324   8.173   7.443   5.300  0.9845 -0.4264 -0.1795
  517MOL0     H71325   8.316   7.558   5.295  0.5924  4.2739 -2.2440
  517MOL0     H71326   7.522   8.062   5.865 -0.0710  1.4841  1.4140
  517MOL0     H71327   7.452   8.062   6.097 -2.4456  0.1223  1.1865
  517MOL0     H71328   7.183   7.647   6.471 -2.8630 -0.3005 -0.7511
  517MOL0     H71329   7.187   7.718   6.693 -1.5055  1.4707  2.3602
  517MOL0     H71330   7.154   9.419   6.793  0.6233  0.1944 -1.8142
  517MOL0     H71331   7.098   9.449   6.562  1.4641  2.6763 -0.1492
  517MOL0     H71332   7.351   9.668   6.117 -0.0131  0.4281 -1.3184
  517MOL0     H71333   7.283   9.710   5.888  1.6707 -1.2580 -0.8150
  517MOL0     H71334   7.174   9.746   5.697  2.7261  1.2990 -2.0799
  517MOL0     H71335   7.251   9.585   5.662 -0.4184  0.0029  2.2154
  517MOL0     H71336   6.999   9.676   5.530  0.9541  0.1974  0.4903
  517MOL0     H71337   7.116   9.546   5.487 -2.8908 -1.3094  0.3899
  517MOL0     H71338   7.170   9.841   5.494  0.0150  1.4824 -0.3337
  517MOL0     H71339   7.289   9.726   5.442  0.1483  1.3179 -1.3727
  517MOL0     H71340   7.128   9.666   5.234 -0.4393  0.5592 -0.5100
  517MOL0     H71341   7.222   9.800   5.224  0.8242 -3.4575 -0.8880
  517MOL0     H71342   6.879  10.015   5.226  1.1800  0.2200 -0.4061
  517MOL0     H71343   7.033   9.357   5.906  3.3610 -2.6964  0.3388
  517MOL0     H71344   7.145   9.220   6.194 -1.0059  2.4905  2.4265
  517MOL0     H71345   7.003   9.313   6.213  0.9184  3.0574  0.7220
  517MOL0     H71346   7.011   9.214   6.077 -1.7225 -0.6928  3.1547
  518MOL0     O71347   5.410   5.673  11.357 -0.4859 -0.3530 -0.5833
  518MOL0     C71348   5.465   5.609  11.267 -0.2867  0.2144  0.1211
  518MOL0     O71349   5.574   5.535  11.277  0.0055 -0.2589  0.3405
  518MOL0     C71350   5.650   5.570  11.386  0.1758  0.6008 -0.6329
  518MOL0     C71351   5.637   5.495  11.506  0.1091 -0.3876  1.1942
  518MOL0     C71352   5.725   5.518  11.612  0.0112  0.8127 -0.5060
  518MOL0     C71353   5.827   5.614  11.610  0.2657  0.4196 -0.0213
  518MOL0     O71354   5.910   5.621  11.718 -0.3353  0.0697  0.5454
  518MOL0     C71355   6.041   5.670  11.674  0.2942 -0.7116 -0.2173
  518MOL0     C71356   6.156   5.613  11.768 -0.7021 -0.6386  1.2882
  518MOL0     C71357   6.122   5.620  11.922 -0.3590  0.6378  0.0575
  518MOL0     C71358   6.242   5.599  11.999 -0.6454  0.7623  0.3355
  518MOL0     C71359   6.213   5.497  12.110  0.1820  0.7055 -0.4611
  518MOL0     C71360   6.096   5.526  12.205 -0.1782 -0.3724 -0.6467
  518MOL0     C71361   6.145   5.572  12.348 -0.2125 -0.6569 -0.4724
  518MOL0     C71362   6.220   5.473  12.436 -0.2090  0.4711 -0.4492
  518MOL0     N71363   6.253   5.531  12.565 -0.0980  0.5418 -0.5194
  518MOL0     C71364   6.355   5.623  12.592  0.1369  0.4749  0.1105
  518MOL0     C71365   6.340   5.647  12.724 -0.7441 -0.6067 -0.1619
  518MOL0     C71366   6.407   5.758  12.808  0.2226 -0.6186 -0.1969
  518MOL0     C71367   6.500   5.715  12.912 -0.1521  0.0845  0.1482
  518MOL0     C71368   6.437   5.700  13.054 -0.1201 -0.1882  1.0825
  518MOL0     C71369   6.520   5.603  13.150  0.2450 -0.1289 -0.9185
  518MOL0     O71370   6.562   5.488  13.085 -0.7017 -1.2583 -0.2358
  518MOL0     C71371   6.649   5.397  13.127  0.3692  0.4531  0.2750
  518MOL0     C71372   6.684   5.388  13.264 -0.3937  0.4501  0.3655
  518MOL0     C71373   6.787   5.297  13.295  1.4637 -0.0420 -0.4339
  518MOL0     C71374   6.825   5.315  13.438 -0.1068  0.1664 -0.0886
  518MOL0     C71375   6.841   5.207  13.195  1.1322  0.0749 -1.2700
  518MOL0     C71376   6.953   5.107  13.218 -0.8674 -0.0806  0.0981
  518MOL0     O71377   7.028   5.074  13.114  1.4135  0.0580  0.2619
  518MOL0     C71378   7.116   4.976  13.117 -1.0331  0.5360 -0.0813
  518MOL0     C71379   7.090   4.852  13.053 -0.1407  0.0094 -0.6846
  518MOL0     C71380   7.176   4.747  13.041 -0.1652  0.0501  0.0274
  518MOL0     C71381   7.301   4.763  13.099  0.4844 -1.0015 -0.6776
  518MOL0     O71382   7.392   4.667  13.058 -0.8002  0.5553 -0.0055
  518MOL0     C71383   7.528   4.718  13.029  0.6896 -0.3917  0.0635
  518MOL0     C71384   7.622   4.607  12.974 -0.2913  0.2783  0.3082
  518MOL0     C71385   7.651   4.503  13.082  1.1978  0.4784  0.7165
  518MOL0     C71386   7.775   4.419  13.054 -1.3393  0.5508 -0.3089
  518MOL0     C71387   7.832   4.335  13.159  0.2809  0.1402  0.0960
  518MOL0     C71388   7.869   4.418  13.285  0.9042 -0.4071 -0.4287
  518MOL0     C71389   7.965   4.346  13.377  0.1334 -0.3917 -0.0530
  518MOL0     C71390   7.992   4.442  13.493  0.6307  0.5557  0.7192
  518MOL0    Cl71391   8.067   4.353  13.633 -0.1485  0.0391 -0.1488
  518MOL0     C71392   7.337   4.884  13.166  0.6829  0.1766  0.0753
  518MOL0     C71393   7.240   4.991  13.180  0.0021  1.0325  0.0563
  518MOL0     O71394   6.958   5.051  13.328  0.6482  0.5754  0.7892
  518MOL0     C71395   6.784   5.214  13.066  0.0453  0.1231 -0.7132
  518MOL0     C71396   6.690   5.307  13.029  0.2161 -1.3699  0.4476
  518MOL0     N71397   6.263   5.546  12.777 -0.1697 -0.2768  0.0712
  518MOL0     N71398   6.211   5.480  12.683 -0.0684  0.3261 -0.1756
  518MOL0     C71399   5.827   5.702  11.495 -0.1550 -0.1457 -0.6129
  518MOL0     C71400   5.752   5.668  11.380  0.1534 -0.4037  0.0297
  518MOL0     C71401   5.375   5.596  11.150 -0.2605  0.1322  0.5706
  518MOL0     C71402   5.437   5.604  11.018  0.6669  0.1150 -0.0885
  518MOL0     C71403   5.354   5.584  10.904  0.1666 -1.1587  0.0664
  518MOL0     C71404   5.224   5.548  10.912  0.2357  0.4956  0.2965
  518MOL0     O71405   5.162   5.532  10.789 -0.3373  0.7550 -1.1285
  518MOL0     C71406   5.097   5.648  10.755 -0.3328 -0.5712 -0.2624
  518MOL0     C71407   5.004   5.717  10.864 -0.0747 -0.0250  1.0587
  518MOL0     C71408   4.900   5.791  10.785 -1.0611  0.5172 -0.2124
  518MOL0     C71409   4.930   5.940  10.766  0.8993  0.3046 -0.5117
  518MOL0     C71410   4.909   6.017  10.889 -0.1433  0.3717  0.0940
  518MOL0     C71411   4.881   6.087  10.981  0.0598 -0.6542  0.4404
  518MOL0     C71412   5.164   5.518  11.030 -0.4318  0.2268  0.4443
  518MOL0     C71413   5.240   5.543  11.148  0.1987 -0.6186  0.6554
  518MOL0     C71414   5.168   5.501  11.269  0.1102  0.1899 -0.0079
  518MOL0     H71415   5.566   5.413  11.512 -0.8390  0.4171  1.2250
  518MOL0     H71416   5.723   5.452  11.698 -2.3626  2.8322  1.1273
  518MOL0     H71417   6.029   5.778  11.680 -2.0107 -0.6194 -3.7671
  518MOL0     H71418   6.061   5.644  11.570 -0.1010 -0.7198 -0.2912
  518MOL0     H71419   6.177   5.511  11.734 -0.1027  0.1359 -0.8415
  518MOL0     H71420   6.248   5.671  11.760 -2.5776  2.4394 -0.0786
  518MOL0     H71421   6.079   5.712  11.961  0.8037  0.8944  0.7765
  518MOL0     H71422   6.045   5.542  11.935 -1.0510  0.7232 -2.8074
  518MOL0     H71423   6.319   5.566  11.929 -1.2154 -0.5758  0.3147
  518MOL0     H71424   6.280   5.692  12.042 -0.5446  0.9036 -0.0571
  518MOL0     H71425   6.304   5.491  12.171  0.2365  2.1580 -0.3623
  518MOL0     H71426   6.212   5.397  12.067  0.4264  0.4263  0.1624
  518MOL0     H71427   6.013   5.592  12.176 -2.3990 -1.2537  3.0074
  518MOL0     H71428   6.035   5.436  12.216 -3.0227  1.5797  0.9342
  518MOL0     H71429   6.055   5.594  12.406  2.9054  1.6055  4.2035
  518MOL0     H71430   6.206   5.663  12.337 -0.9012 -0.3951 -2.3755
  518MOL0     H71431   6.147   5.392  12.444 -0.3797  0.2108 -3.5822
  518MOL0     H71432   6.309   5.426  12.394 -0.9416 -1.1227 -0.2891
  518MOL0     H71433   6.413   5.670  12.513  0.2961 -1.3619 -0.9351
  518MOL0     H71434   6.328   5.822  12.849 -0.9550 -1.7843 -0.5795
  518MOL0     H71435   6.468   5.823  12.745 -1.6332 -0.5447 -2.0155
  518MOL0     H71436   6.525   5.611  12.887 -0.4082 -0.2651  1.2542
  518MOL0     H71437   6.581   5.786  12.929 -1.0167  0.7748  1.5583
  518MOL0     H71438   6.450   5.789  13.116 -1.0165 -1.4361  3.1810
  518MOL0     H71439   6.332   5.672  13.053 -0.3278  0.5943  1.0811
  518MOL0     H71440   6.604   5.664  13.185 -0.1527 -0.2843  0.3845
  518MOL0     H71441   6.450   5.572  13.229  3.1427  1.5963  2.6656
  518MOL0     H71442   6.638   5.449  13.341 -2.2657 -0.7920  0.3004
  518MOL0     H71443   6.759   5.384  13.491 -2.1580 -0.0983 -2.1035
  518MOL0     H71444   6.922   5.365  13.431  0.9189 -1.8148 -1.2513
  518MOL0     H71445   6.830   5.220  13.492  2.0970 -1.3183 -2.6259
  518MOL0     H71446   6.988   4.855  13.016 -0.1636  1.9114 -0.5936
  518MOL0     H71447   7.142   4.664  12.980  2.7077 -0.8419 -0.5237
  518MOL0     H71448   7.519   4.780  12.939  2.2156 -1.0488 -0.5779
  518MOL0     H71449   7.572   4.782  13.106 -1.9525  3.0658 -1.0095
  518MOL0     H71450   7.578   4.569  12.882 -0.6798  0.1480  0.5418
  518MOL0     H71451   7.712   4.661  12.946 -1.0822  1.9424  0.8031
  518MOL0     H71452   7.568   4.431  13.085 -0.9075  2.6716 -0.8081
  518MOL0     H71453   7.645   4.545  13.183 -1.2688 -0.8200  1.1946
  518MOL0     H71454   7.846   4.498  13.029 -0.3492  0.0236  0.7088
  518MOL0     H71455   7.770   4.360  12.962  0.2131 -0.7859  0.4038
  518MOL0     H71456   7.773   4.249  13.193  2.7116 -1.8837 -0.5153
  518MOL0     H71457   7.928   4.300  13.121 -0.3815 -1.5575 -0.1215
  518MOL0     H71458   7.780   4.462  13.330  1.3590 -0.4241  0.5175
  518MOL0     H71459   7.928   4.503  13.249  0.2248  0.0932 -0.3628
  518MOL0     H71460   8.060   4.319  13.330  0.4220  1.0929 -0.3851
  518MOL0     H71461   7.906   4.264  13.420  0.2110 -1.8615 -2.5731
  518MOL0     H71462   7.893   4.472  13.528 -0.6646 -2.3537 -0.0739
  518MOL0     H71463   8.048   4.531  13.463 -1.0510  1.0012 -1.3513
  518MOL0     H71464   7.439   4.908  13.192 -0.1570  1.5626  2.4259
  518MOL0     H71465   7.268   5.086  13.225  0.3951  1.0128 -0.1434
  518MOL0     H71466   6.820   5.144  12.991 -2.1047 -0.0130 -1.6888
  518MOL0     H71467   6.650   5.320  12.929 -2.5865 -4.6181  0.9766
  518MOL0     H71468   5.901   5.782  11.491  0.2576 -0.5137 -0.4869
  518MOL0     H71469   5.755   5.734  11.294 -4.6281  3.2491  2.1689
  518MOL0     H71470   5.537   5.641  11.001  0.5830  0.3436 -0.0818
  518MOL0     H71471   5.400   5.595  10.806  0.5112  2.7117  0.5061
  518MOL0     H71472   5.177   5.716  10.725  3.2263 -4.8952 -1.5228
  518MOL0     H71473   5.043   5.624  10.662  0.7068  1.0214 -1.3360
  518MOL0     H71474   5.061   5.776  10.936 -0.7691  0.5727  1.1240
  518MOL0     H71475   4.950   5.641  10.921  0.5816 -0.0513  1.6520
  518MOL0     H71476   4.876   5.747  10.688  0.3758 -0.3579 -0.1908
  518MOL0     H71477   4.810   5.794  10.848 -0.3513  2.7307  0.7870
  518MOL0     H71478   4.845   5.975  10.706 -0.7515  0.4773  1.7814
  518MOL0     H71479   5.018   5.946  10.702  1.2520 -0.3734 -0.0914
  518MOL0     H71480   4.831   6.150  11.052 -0.5553 -0.3405 -0.2492
  518MOL0     H71481   5.065   5.474  11.030 -0.6217  0.2791 -3.8444
  518MOL0     H71482   5.069   5.468  11.234  0.6073  1.7352 -3.1802
  518MOL0     H71483   5.230   5.423  11.314 -2.9807 -1.5316  1.6432
  518MOL0     H71484   5.159   5.582  11.342 -1.8433  2.4334 -2.5170
  519MOL0     O71485   9.758   1.346   4.227  0.0239  0.3157  0.0124
  519MOL0     C71486   9.770   1.415   4.130 -0.0396 -0.0677 -0.5829
  519MOL0     O71487   9.800   1.375   4.009  0.8537  0.0362  0.6243
  519MOL0     C71488   9.835   1.237   3.999 -0.3321 -0.6309 -0.0232
  519MOL0     C71489   9.964   1.213   3.939  0.0807 -0.2739  0.2045
  519MOL0     C71490  10.000   1.072   3.933  0.5954 -0.3397 -0.2010
  519MOL0     C71491   9.920   0.965   3.976 -0.4797 -0.3001  0.6293
  519MOL0     O71492   9.951   0.832   3.982  0.0817 -0.1774 -0.1207
  519MOL0     C71493  10.071   0.782   3.919 -0.4564 -0.5468  0.0720
  519MOL0     C71494  10.067   0.782   3.756  0.2371  1.2318  0.0116
  519MOL0     C71495  10.113   0.652   3.687  0.1716 -0.4529 -0.1088
  519MOL0     C71496  10.267   0.630   3.668  0.1866 -0.7290  0.6352
  519MOL0     C71497  10.326   0.713   3.547 -0.3158 -0.8005  0.9959
  519MOL0     C71498  10.267   0.688   3.401 -0.3729 -0.0022  0.2789
  519MOL0     C71499  10.301   0.543   3.346  0.1291 -0.7312 -0.0773
  519MOL0     C71500  10.208   0.500   3.231  0.3673 -0.4879  0.0018
  519MOL0     N71501  10.223   0.590   3.112  0.5475  0.6467  0.3149
  519MOL0     C71502  10.322   0.587   3.021 -0.0604 -0.3812 -0.4611
  519MOL0     C71503  10.289   0.657   2.914  0.3220  0.3978 -0.1129
  519MOL0     C71504  10.380   0.682   2.796  0.6783 -0.7400 -0.6297
  519MOL0     C71505  10.375   0.834   2.759  0.3011 -0.2484  1.0071
  519MOL0     C71506  10.443   0.926   2.862 -0.6712  0.3774 -0.1327
  519MOL0     C71507  10.357   0.963   2.981  1.5648 -1.0205  0.4272
  519MOL0     O71508  10.420   1.070   3.049 -0.4922 -0.4949 -0.2681
  519MOL0     C71509  10.384   1.095   3.179  0.3194  0.0569  0.8645
  519MOL0     C71510  10.487   1.063   3.272 -0.9006  0.0756  0.3587
  519MOL0     C71511  10.472   1.052   3.406 -0.0183 -0.0155  0.0932
  519MOL0     C71512  10.596   1.008   3.484 -0.2046  0.3108 -1.1550
  519MOL0     C71513  10.341   1.101   3.460 -0.6682 -0.7186 -0.6433
  519MOL0     C71514  10.305   1.123   3.597  0.0541  0.0030  0.7942
  519MOL0     O71515  10.400   1.090   3.687  0.2007  0.5990 -0.1923
  519MOL0     C71516  10.391   1.096   3.818 -0.8870 -0.9623 -0.7985
  519MOL0     C71517  10.358   1.218   3.888  0.2632 -0.1254 -0.2519
  519MOL0     C71518  10.366   1.222   4.019 -0.1825 -0.2823  0.3211
  519MOL0     C71519  10.407   1.112   4.097 -0.6080  0.5345  0.6599
  519MOL0     O71520  10.408   1.121   4.239  0.5030  0.2142  0.0078
  519MOL0     C71521  10.477   1.019   4.306 -0.3549  1.1826 -1.1346
  519MOL0     C71522  10.392   0.910   4.366  1.0639  0.4887 -0.5536
  519MOL0     C71523  10.480   0.829   4.465  0.3629 -0.3233 -0.1243
  519MOL0     C71524  10.389   0.720   4.522 -0.6550 -0.4336 -0.1721
  519MOL0     C71525  10.446   0.664   4.654  0.9752 -0.2487  0.2093
  519MOL0     C71526  10.378   0.532   4.675 -0.0983 -0.3265  0.2850
  519MOL0     C71527  10.389   0.480   4.817  0.8852  0.7394  0.0629
  519MOL0     C71528  10.530   0.429   4.857  0.5930  0.5187 -0.4538
  519MOL0    Cl71529  10.537   0.401   5.029  0.0272 -0.0519 -0.2103
  519MOL0     C71530  10.434   0.991   4.029  0.2993 -0.5928  0.2995
  519MOL0     C71531  10.429   0.982   3.889 -0.5675 -0.9632 -0.2715
  519MOL0     O71532  10.190   1.170   3.623  0.0123 -0.2720  0.0502
  519MOL0     C71533  10.242   1.130   3.369 -0.3619  0.6189 -0.2820
  519MOL0     C71534  10.258   1.125   3.231 -0.9903  0.0258 -1.2141
  519MOL0     N71535  10.155   0.692   2.934  0.2270 -0.2681 -0.3248
  519MOL0     N71536  10.116   0.642   3.045  0.1542  0.2752 -0.0387
  519MOL0     C71537   9.794   0.999   4.028 -0.2874  0.3587 -0.0762
  519MOL0     C71538   9.756   1.137   4.044  1.4139  0.2611  0.2317
  519MOL0     C71539   9.757   1.561   4.152 -0.3324  0.9426  0.6284
  519MOL0     C71540   9.745   1.648   4.033  1.0875  0.5129 -1.5878
  519MOL0     C71541   9.728   1.790   4.045  0.7202 -0.3524  0.7367
  519MOL0     C71542   9.736   1.846   4.165  0.0803 -0.0320  0.3342
  519MOL0     O71543   9.711   1.976   4.173  0.1919 -0.3150  0.0038
  519MOL0     C71544   9.579   2.013   4.240 -0.1124 -0.4678  0.4418
  519MOL0     C71545   9.606   2.093   4.369  0.0812  0.0383 -0.1648
  519MOL0     C71546   9.669   2.231   4.350 -1.0457  1.5220  0.5972
  519MOL0     C71547   9.562   2.341   4.354  0.1431  1.2304  0.3165
  519MOL0     C71548   9.515   2.345   4.489  0.0400 -0.0508  0.3940
  519MOL0     C71549   9.465   2.362   4.594  0.6972 -0.3467 -0.3928
  519MOL0     C71550   9.762   1.769   4.272  0.7217  0.0992 -0.3526
  519MOL0     C71551   9.769   1.626   4.272 -0.7688  0.9488 -0.0402
  519MOL0     C71552   9.805   1.565   4.408 -0.9855  0.0059  0.1147
  519MOL0     H71553  10.024   1.302   3.924 -2.6916  1.7040 -0.0071
  519MOL0     H71554  10.095   1.034   3.897  1.3605 -2.8508  3.8199
  519MOL0     H71555  10.077   0.678   3.951  1.8534 -0.2511  0.7441
  519MOL0     H71556  10.162   0.839   3.939 -0.6978  0.3529 -1.1919
  519MOL0     H71557   9.962   0.796   3.731 -0.8398  0.5618  3.5666
  519MOL0     H71558  10.124   0.865   3.714  1.5223  0.6732  0.5993
  519MOL0     H71559  10.070   0.572   3.747 -0.1977 -0.4131 -0.3202
  519MOL0     H71560  10.071   0.643   3.586 -5.1605  2.4193  1.4977
  519MOL0     H71561  10.327   0.650   3.757  2.2904 -3.2111 -0.0928
  519MOL0     H71562  10.282   0.525   3.639  1.7049  0.1228 -1.9921
  519MOL0     H71563  10.435   0.706   3.546 -0.1595  1.2132  0.6406
  519MOL0     H71564  10.312   0.820   3.565 -2.0239 -0.1560 -3.0792
  519MOL0     H71565  10.159   0.705   3.398 -0.5843 -1.2164  0.4862
  519MOL0     H71566  10.316   0.763   3.338  0.2897 -0.4192  0.2808
  519MOL0     H71567  10.290   0.461   3.418  1.8819  0.4126  1.5837
  519MOL0     H71568  10.403   0.537   3.307  0.1520 -1.6014  0.0951
  519MOL0     H71569  10.213   0.397   3.196 -0.5916 -0.6285  0.2510
  519MOL0     H71570  10.102   0.516   3.257  1.3668  0.8877  4.0048
  519MOL0     H71571  10.423   0.551   3.040  0.8960  1.8128 -1.1470
  519MOL0     H71572  10.349   0.613   2.716 -1.1106 -1.8047  0.9094
  519MOL0     H71573  10.480   0.660   2.837  0.9947  4.4305  2.1686
  519MOL0     H71574  10.430   0.852   2.666  1.6933 -1.4488  1.5615
  519MOL0     H71575  10.274   0.870   2.739  0.4664 -1.8443 -4.3180
  519MOL0     H71576  10.539   0.887   2.896 -0.2629  1.0170 -0.5288
  519MOL0     H71577  10.454   1.024   2.814 -2.3597  0.0905 -1.1873
  519MOL0     H71578  10.265   1.008   2.942  2.3114  0.4171  0.2750
  519MOL0     H71579  10.310   0.881   3.036 -1.4973 -0.8765 -1.6963
  519MOL0     H71580  10.585   1.043   3.229 -1.0715 -3.3337  1.2486
  519MOL0     H71581  10.567   0.905   3.510 -0.5495  0.7490  0.2970
  519MOL0     H71582  10.601   1.067   3.576 -2.3110 -0.4898 -0.4612
  519MOL0     H71583  10.693   1.018   3.436  2.7501  3.0766  4.4481
  519MOL0     H71584  10.321   1.310   3.843 -4.1655  0.1968  3.3489
  519MOL0     H71585  10.342   1.316   4.066 -0.2689  0.7708 -1.7237
  519MOL0     H71586  10.556   0.976   4.242 -0.0264  3.4323 -2.3628
  519MOL0     H71587  10.542   1.068   4.379  2.2002 -0.9645 -1.7719
  519MOL0     H71588  10.307   0.955   4.419  0.7009 -0.6147 -0.1795
  519MOL0     H71589  10.358   0.843   4.287  2.5067  0.4780 -1.1827
  519MOL0     H71590  10.516   0.898   4.541 -2.0259  1.0392 -0.1256
  519MOL0     H71591  10.566   0.791   4.409  1.0239  1.0710 -0.0964
  519MOL0     H71592  10.382   0.640   4.448  1.2122  0.0448 -0.9298
  519MOL0     H71593  10.289   0.758   4.542 -0.8995 -0.9852 -0.3497
  519MOL0     H71594  10.550   0.632   4.644  1.0867 -0.5422  2.0015
  519MOL0     H71595  10.440   0.738   4.734  4.2361  1.9111 -1.3093
  519MOL0     H71596  10.417   0.468   4.595  0.9371  0.0527  0.4749
  519MOL0     H71597  10.271   0.530   4.654  0.1087 -0.9954 -0.8272
  519MOL0     H71598  10.321   0.398   4.842  0.9714  0.3596 -0.9077
  519MOL0     H71599  10.370   0.566   4.882  2.7974  0.9422  0.4081
  519MOL0     H71600  10.603   0.506   4.830  1.8596 -1.0328 -1.6616
  519MOL0     H71601  10.557   0.347   4.790  0.8390 -0.6007  0.9811
  519MOL0     H71602  10.469   0.903   4.081 -0.4708 -0.8343  0.4234
  519MOL0     H71603  10.459   0.890   3.840  4.9394  1.1334 -1.5132
  519MOL0     H71604  10.136   1.141   3.391 -0.6249 -0.5166 -0.8632
  519MOL0     H71605  10.168   1.144   3.173 -2.0824  1.0988  0.7302
  519MOL0     H71606   9.721   0.930   4.071 -0.4053  0.9284  0.6456
  519MOL0     H71607   9.657   1.157   4.083  0.7467 -1.4994 -0.4395
  519MOL0     H71608   9.738   1.597   3.937 -0.0564  0.0094 -1.2456
  519MOL0     H71609   9.695   1.839   3.954 -1.1742 -0.1915  1.4783
  519MOL0     H71610   9.510   2.071   4.179  0.5751  1.5431  1.4827
  519MOL0     H71611   9.535   1.918   4.271 -1.4006  1.3555  5.2119
  519MOL0     H71612   9.683   2.039   4.424  0.2433 -1.0747 -1.4229
  519MOL0     H71613   9.507   2.100   4.415 -1.1062 -0.0764 -2.5710
  519MOL0     H71614   9.739   2.257   4.430 -1.2835  0.5889  1.1202
  519MOL0     H71615   9.723   2.210   4.257 -1.2587 -1.8680  1.1028
  519MOL0     H71616   9.483   2.330   4.278  0.9400  3.5447 -0.9657
  519MOL0     H71617   9.612   2.437   4.337 -0.5856  1.3865 -1.1344
  519MOL0     H71618   9.432   2.378   4.695 -4.1567 -0.0987 -1.7693
  519MOL0     H71619   9.777   1.824   4.364  1.9214 -1.3800  0.3804
  519MOL0     H71620   9.881   1.487   4.403 -0.3229  0.4027  2.5720
  519MOL0     H71621   9.841   1.641   4.478 -3.0755 -0.1148  1.4276
  519MOL0     H71622   9.724   1.512   4.459  0.7403 -0.6981  2.2558
  520MOL0     O71623   1.028   9.438   6.045  0.9073  0.3519 -0.2093
  520MOL0     C71624   1.078   9.436   5.926  0.3963  0.3874  1.0944
  520MOL0     O71625   1.191   9.510   5.889  0.1389  0.0219  0.0810
  520MOL0     C71626   1.226   9.618   5.972 -0.4979  0.1332 -0.3855
  520MOL0     C71627   1.359   9.657   5.957 -0.7212  0.1145  0.6537
  520MOL0     C71628   1.403   9.760   6.028 -1.2543 -0.0218 -0.3744
  520MOL0     C71629   1.327   9.844   6.115 -0.3145  0.2218  0.5664
  520MOL0     O71630   1.381   9.937   6.197 -0.0687  0.0664 -0.8356
  520MOL0     C71631   1.507   9.898   6.258 -0.3683  0.0773  0.4827
  520MOL0     C71632   1.513   9.914   6.407  0.1068 -0.1619  0.0273
  520MOL0     C71633   1.561  10.058   6.446  0.1946  0.2451 -0.3921
  520MOL0     C71634   1.615  10.055   6.591 -1.0509 -0.6463  0.6736
  520MOL0     C71635   1.514  10.003   6.692  0.7254  0.3303 -0.4646
  520MOL0     C71636   1.551  10.039   6.834 -0.1599  0.1234 -1.1247
  520MOL0     C71637   1.470   9.964   6.939  0.8553  0.3275 -0.6482
  520MOL0     C71638   1.509  10.023   7.079  0.0236 -0.2003 -0.3698
  520MOL0     N71639   1.506  10.164   7.107  0.2658  0.1079 -0.6449
  520MOL0     C71640   1.387  10.218   7.159  0.1502  1.0190  0.7143
  520MOL0     C71641   1.423  10.335   7.213  0.2076 -0.5434  1.3047
  520MOL0     C71642   1.329  10.414   7.301 -0.1408 -0.2149  0.6150
  520MOL0     C71643   1.367  10.557   7.304 -0.0260  0.6943 -0.2363
  520MOL0     C71644   1.259  10.645   7.367  0.0318 -0.0616  0.1025
  520MOL0     C71645   1.334  10.772   7.396  0.0265  0.4112 -0.1631
  520MOL0     O71646   1.253  10.887   7.425  0.5718  0.3244  0.7577
  520MOL0     C71647   1.216  10.974   7.325 -0.8498 -0.2901  0.5907
  520MOL0     C71648   1.100  11.047   7.352 -0.6596 -0.7041  0.4434
  520MOL0     C71649   1.063  11.159   7.279  0.1533  0.8175 -0.0854
  520MOL0     C71650   0.950  11.237   7.340  0.3717  0.3835 -0.7884
  520MOL0     C71651   1.124  11.183   7.154  0.2035  1.2414 -0.6709
  520MOL0     C71652   1.073  11.293   7.067 -0.4258 -0.4144 -0.2420
  520MOL0     O71653   1.008  11.395   7.125  0.1233  0.4208 -0.0837
  520MOL0     C71654   0.980  11.513   7.054 -0.4652 -0.4670 -0.3556
  520MOL0     C71655   1.075  11.602   7.001 -0.4265 -0.8389  0.8677
  520MOL0     C71656   1.035  11.718   6.922  0.4564 -0.8161 -0.7138
  520MOL0     C71657   0.907  11.736   6.886 -0.6427 -0.0716 -0.0144
  520MOL0     O71658   0.860  11.847   6.815  0.3407  0.6373  0.3770
  520MOL0     C71659   0.932  11.879   6.696  0.1578  0.6847 -0.7205
  520MOL0     C71660   0.912  12.028   6.677 -0.2021 -0.1277 -0.3608
  520MOL0     C71661   0.983  12.095   6.796  0.3524 -0.3247  0.1793
  520MOL0     C71662   0.956  12.247   6.776  0.9388  0.3384 -0.7745
  520MOL0     C71663   1.051  12.331   6.866 -0.0194  0.7270 -0.6371
  520MOL0     C71664   1.201  12.338   6.825  0.6683  1.2614  0.0276
  520MOL0     C71665   1.219  12.423   6.695  0.1374  0.7050 -0.3054
  520MOL0     C71666   1.361  12.449   6.662  0.4004 -1.0553 -0.2552
  520MOL0    Cl71667   1.384  12.556   6.506 -0.2385 -0.4701 -0.5981
  520MOL0     C71668   0.805  11.648   6.930 -0.6974 -0.8637  0.1637
  520MOL0     C71669   0.846  11.537   7.003 -0.0563 -0.1583 -0.5017
  520MOL0     O71670   1.102  11.288   6.944 -0.1302 -0.3413 -0.6343
  520MOL0     C71671   1.215  11.088   7.103  0.3024  0.5194  0.2358
  520MOL0     C71672   1.264  10.991   7.197  1.0018 -0.1142  1.1884
  520MOL0     N71673   1.558  10.352   7.200 -0.0376  0.7525  0.3509
  520MOL0     N71674   1.611  10.245   7.147 -1.1183  0.4311 -0.6756
  520MOL0     C71675   1.191   9.816   6.110 -0.3132  0.2252 -0.8645
  520MOL0     C71676   1.142   9.704   6.047 -0.2728  0.4148  0.4548
  520MOL0     C71677   1.010   9.340   5.829  0.2043 -0.3844 -0.2560
  520MOL0     C71678   0.894   9.268   5.871  0.9816  0.1544  0.4723
  520MOL0     C71679   0.836   9.171   5.790 -1.0254  0.0215 -1.0194
  520MOL0     C71680   0.896   9.133   5.666 -0.9155 -0.0869  0.3751
  520MOL0     O71681   0.836   9.032   5.603  0.1786  0.6764 -0.4911
  520MOL0     C71682   0.899   8.991   5.476  0.3948  0.4198 -0.9942
  520MOL0     C71683   0.821   8.869   5.418  0.1401  0.1995  0.4716
  520MOL0     C71684   0.731   8.936   5.320  0.3174 -0.8222 -0.8718
  520MOL0     C71685   0.627   8.835   5.255 -0.0496 -0.7815  0.6432
  520MOL0     C71686   0.530   8.773   5.342  0.6960  0.4474  0.3585
  520MOL0     C71687   0.450   8.720   5.417  0.7872  0.0857  0.3167
  520MOL0     C71688   1.009   9.207   5.622 -0.0983 -0.0270  0.8122
  520MOL0     C71689   1.064   9.309   5.697  0.0839  0.4361  0.7421
  520MOL0     C71690   1.198   9.363   5.633 -0.2782  0.0533  0.3215
  520MOL0     H71691   1.433   9.606   5.896 -0.5863  0.0805  0.8452
  520MOL0     H71692   1.511   9.767   6.022 -1.3907  2.6466 -1.2726
  520MOL0     H71693   1.591   9.958   6.223 -1.5027  3.1599  2.5852
  520MOL0     H71694   1.518   9.789   6.261  0.0561  0.1311  1.3795
  520MOL0     H71695   1.419   9.909   6.463  1.6555 -2.1993  2.6926
  520MOL0     H71696   1.585   9.844   6.450  1.6095  1.5311  0.3905
  520MOL0     H71697   1.644  10.082   6.379  0.0557 -0.5791 -0.8820
  520MOL0     H71698   1.477  10.126   6.430 -0.8073 -1.6356 -4.3285
  520MOL0     H71699   1.702   9.990   6.596 -1.9593 -1.9076  0.5226
  520MOL0     H71700   1.642  10.156   6.623 -0.7825 -0.8385  1.0626
  520MOL0     H71701   1.501   9.894   6.691 -1.2676  0.3367  3.5930
  520MOL0     H71702   1.414  10.043   6.680  0.3954 -0.8795 -2.0623
  520MOL0     H71703   1.657  10.016   6.850 -0.4302 -0.3848 -0.0176
  520MOL0     H71704   1.520  10.144   6.836 -1.4065 -0.2199 -1.5975
  520MOL0     H71705   1.497   9.858   6.937  0.4637 -0.0270  3.9371
  520MOL0     H71706   1.365   9.980   6.912  1.6235  1.1836 -3.4931
  520MOL0     H71707   1.432   9.986   7.148 -2.1059  2.1311 -1.3780
  520MOL0     H71708   1.605   9.986   7.117 -0.6473 -1.1341  0.4892
  520MOL0     H71709   1.287  10.180   7.145 -0.2477  1.8565  1.2135
  520MOL0     H71710   1.325  10.362   7.397  2.4842  0.4718  1.1789
  520MOL0     H71711   1.232  10.416   7.251  0.7269  3.5401 -1.2995
  520MOL0     H71712   1.453  10.549   7.371 -0.3750 -0.5051  0.0897
  520MOL0     H71713   1.388  10.586   7.201 -3.7762  0.1779 -1.2911
  520MOL0     H71714   1.175  10.662   7.298 -0.2198 -0.4295  0.3174
  520MOL0     H71715   1.223  10.603   7.461 -0.0777 -0.9685 -0.3307
  520MOL0     H71716   1.406  10.766   7.478 -0.7650  0.9052  0.5873
  520MOL0     H71717   1.395  10.788   7.307  1.2290  2.7830  0.9952
  520MOL0     H71718   1.060  11.033   7.452 -0.0312 -2.4128  0.4960
  520MOL0     H71719   0.913  11.185   7.429  1.6788 -2.4700 -1.7978
  520MOL0     H71720   0.881  11.244   7.256 -0.1785 -4.5891 -1.0173
  520MOL0     H71721   0.980  11.341   7.360 -2.9626  1.5249 -1.0692
  520MOL0     H71722   1.177  11.583   7.031  0.3461  1.4198 -0.0995
  520MOL0     H71723   1.125  11.772   6.894  0.9764 -1.1113  0.3343
  520MOL0     H71724   1.037  11.853   6.710 -0.6649 -2.5701  0.4089
  520MOL0     H71725   0.894  11.827   6.607  3.3963  0.6783 -2.2442
  520MOL0     H71726   0.946  12.061   6.578  1.2932  0.7448  0.3941
  520MOL0     H71727   0.807  12.059   6.679 -0.6900 -1.7113 -0.0966
  520MOL0     H71728   1.089  12.069   6.792 -0.1030 -2.1997 -1.9466
  520MOL0     H71729   0.940  12.072   6.893  0.5379  0.9083  0.5643
  520MOL0     H71730   0.849  12.256   6.794  0.8498  0.6502 -1.4204
  520MOL0     H71731   0.979  12.278   6.673 -0.0592  1.4000 -0.6893
  520MOL0     H71732   1.016  12.432   6.887  1.6921  0.8433  2.2347
  520MOL0     H71733   1.034  12.279   6.961  1.9839  1.8338  0.3965
  520MOL0     H71734   1.242  12.238   6.808  2.4667  1.8095  0.8508
  520MOL0     H71735   1.263  12.382   6.904 -0.7073  4.2640 -0.4103
  520MOL0     H71736   1.172  12.521   6.712 -0.7301  1.0805 -3.9985
  520MOL0     H71737   1.158  12.383   6.613 -0.2681 -0.4139  0.5152
  520MOL0     H71738   1.407  12.351   6.648  1.3816 -0.5065 -0.9947
  520MOL0     H71739   1.411  12.487   6.752 -1.5620  1.3790 -0.0722
  520MOL0     H71740   0.701  11.678   6.915 -0.6979 -1.5080 -1.3142
  520MOL0     H71741   0.779  11.466   7.050  2.1318  1.3578  5.9437
  520MOL0     H71742   1.254  11.097   7.002  0.9501  1.2978  0.5355
  520MOL0     H71743   1.355  10.935   7.175  0.4434 -0.9270  0.8872
  520MOL0     H71744   1.131   9.884   6.169  0.3797 -2.2556  3.0093
  520MOL0     H71745   1.038   9.675   6.049 -1.3467  3.8877  0.2700
  520MOL0     H71746   0.839   9.307   5.956 -0.6293  2.6162 -1.5462
  520MOL0     H71747   0.747   9.139   5.844  0.3505  0.0825  1.4560
  520MOL0     H71748   0.895   9.075   5.406 -1.8337 -0.2739 -1.7648
  520MOL0     H71749   1.004   8.969   5.498  0.5775  2.3199  0.3911
  520MOL0     H71750   0.765   8.811   5.491 -1.4186 -3.0418 -2.9944
  520MOL0     H71751   0.893   8.805   5.367 -1.3056 -1.7497  0.7656
  520MOL0     H71752   0.670   9.018   5.360 -1.1262  0.3800 -4.9725
  520MOL0     H71753   0.788   8.982   5.239 -1.6550  1.4319 -1.1193
  520MOL0     H71754   0.685   8.753   5.211 -4.1034 -3.1170 -0.9335
  520MOL0     H71755   0.585   8.886   5.168  1.7752  2.0631  1.2838
  520MOL0     H71756   0.387   8.684   5.496 -3.3569  1.4611 -2.0325
  520MOL0     H71757   1.070   9.189   5.535 -1.9374 -0.3539 -0.4705
  520MOL0     H71758   1.203   9.470   5.654 -4.4096  1.1268 -2.7732
  520MOL0     H71759   1.289   9.310   5.662  1.1920  1.8215 -0.8120
  520MOL0     H71760   1.193   9.345   5.525 -0.9806  1.3032  0.1252
  521MOL0     O71761   4.364   3.698   5.492 -0.0646 -0.1799  0.6815
  521MOL0     C71762   4.486   3.665   5.473 -0.7501 -0.5989  0.1698
  521MOL0     O71763   4.542   3.603   5.355  0.3281  0.0369  0.0545
  521MOL0     C71764   4.468   3.605   5.236 -0.5169  0.5117  0.2027
  521MOL0     C71765   4.528   3.552   5.117 -0.3892 -0.1577 -0.2454
  521MOL0     C71766   4.471   3.552   4.995 -0.0552 -0.2267  0.5279
  521MOL0     C71767   4.343   3.615   4.977  0.0743  0.2342  0.6192
  521MOL0     O71768   4.281   3.632   4.858  0.3744  0.2802 -0.0180
  521MOL0     C71769   4.326   3.564   4.741  0.1413 -0.4882  0.0792
  521MOL0     C71770   4.220   3.576   4.631 -0.1621  0.8945  0.9644
  521MOL0     C71771   4.183   3.708   4.578  0.3591 -0.6994  0.6660
  521MOL0     C71772   4.282   3.761   4.473  0.2286 -0.2189  0.2253
  521MOL0     C71773   4.228   3.887   4.410  0.3638 -0.9758  0.0170
  521MOL0     C71774   4.327   3.964   4.332 -0.7333 -0.1012  0.0378
  521MOL0     C71775   4.270   4.104   4.298 -0.5972  0.2759  0.4221
  521MOL0     C71776   4.393   4.198   4.258  0.7174  0.1442  0.5459
  521MOL0     N71777   4.327   4.312   4.186  0.3270 -0.7624  0.1537
  521MOL0     C71778   4.263   4.425   4.242 -0.8661  0.1845 -0.3373
  521MOL0     C71779   4.191   4.480   4.139 -0.5093  0.0202  0.2979
  521MOL0     C71780   4.117   4.604   4.148  1.0660 -0.9216  0.4154
  521MOL0     C71781   3.962   4.588   4.127 -0.6093 -0.0505 -0.2096
  521MOL0     C71782   3.929   4.563   3.982 -0.3043  0.0984  0.8790
  521MOL0     C71783   3.902   4.416   3.950 -1.5242  0.0725 -0.6949
  521MOL0     O71784   3.822   4.361   4.056 -0.1649  0.0509  1.3674
  521MOL0     C71785   3.789   4.235   4.029  0.5985  0.4300 -0.7623
  521MOL0     C71786   3.651   4.201   4.039  0.6332 -0.4819 -0.5399
  521MOL0     C71787   3.608   4.073   4.003 -0.0485  1.4272  0.0389
  521MOL0     C71788   3.456   4.044   4.011  1.0376 -0.5718 -0.3937
  521MOL0     C71789   3.703   3.966   3.983  0.7976  0.0860  0.9322
  521MOL0     C71790   3.671   3.812   3.958 -0.1721 -1.1311 -0.7161
  521MOL0     O71791   3.760   3.731   4.011 -0.2259  0.5400  0.3485
  521MOL0     C71792   3.734   3.599   3.999  0.3950  0.4073 -0.0366
  521MOL0     C71793   3.663   3.536   4.103  0.0815  0.2140  1.1406
  521MOL0     C71794   3.639   3.394   4.097  0.7915 -0.3479  0.4186
  521MOL0     C71795   3.665   3.316   3.989 -0.1615 -0.9315 -0.0922
  521MOL0     O71796   3.643   3.182   3.967 -0.3991 -0.1266  0.1910
  521MOL0     C71797   3.602   3.100   4.072  1.4016  0.0715 -0.3000
  521MOL0     C71798   3.447   3.107   4.078 -1.5297  0.0550  0.2564
  521MOL0     C71799   3.359   3.017   3.984 -0.2844 -0.8324  0.6733
  521MOL0     C71800   3.389   2.871   4.014 -0.0601  0.1706 -0.2916
  521MOL0     C71801   3.337   2.784   3.913  0.5067  0.0678 -0.6752
  521MOL0     C71802   3.182   2.756   3.895 -0.0967 -0.7011  0.3090
  521MOL0     C71803   3.105   2.655   3.975  0.1568 -0.7620  0.2428
  521MOL0     C71804   3.011   2.727   4.063  0.7969  0.4190 -0.7443
  521MOL0    Cl71805   2.914   2.594   4.144 -0.1408 -0.0159 -0.6706
  521MOL0     C71806   3.718   3.384   3.872  0.5219 -0.2843 -0.6704
  521MOL0     C71807   3.756   3.525   3.885 -0.7315 -0.3271  0.9385
  521MOL0     O71808   3.590   3.774   3.875  0.8147 -0.2173 -0.4997
  521MOL0     C71809   3.838   3.996   3.986 -0.8595 -0.1528 -0.5347
  521MOL0     C71810   3.877   4.126   4.014 -1.0355  0.0449  0.2071
  521MOL0     N71811   4.219   4.406   4.016 -0.6815 -0.7505 -0.5832
  521MOL0     N71812   4.302   4.312   4.053 -0.3713 -1.0062  0.3566
  521MOL0     C71813   4.286   3.666   5.090  0.3012  0.1867  0.3446
  521MOL0     C71814   4.348   3.670   5.212  0.2211  0.4757  0.0055
  521MOL0     C71815   4.573   3.678   5.595 -0.7132  0.4976 -0.0654
  521MOL0     C71816   4.537   3.761   5.699 -0.0455  0.9085 -0.1528
  521MOL0     C71817   4.615   3.780   5.818  0.3005  0.9053 -0.3912
  521MOL0     C71818   4.724   3.698   5.838 -0.3719 -0.3415 -0.1306
  521MOL0     O71819   4.795   3.707   5.951 -0.3075 -0.4245 -0.2038
  521MOL0     C71820   4.805   3.594   6.037  0.9148 -0.2642  0.6347
  521MOL0     C71821   4.826   3.604   6.191  0.1921 -0.7774  1.0351
  521MOL0     C71822   4.695   3.641   6.270  0.3031  0.1601 -0.1359
  521MOL0     C71823   4.628   3.525   6.346 -0.5892 -0.1763  0.3007
  521MOL0     C71824   4.717   3.462   6.439  0.3121  0.0424  0.2453
  521MOL0     C71825   4.791   3.413   6.531 -0.2093 -0.2092 -0.2396
  521MOL0     C71826   4.757   3.602   5.740  0.6806 -0.1268  0.4064
  521MOL0     C71827   4.684   3.591   5.621 -0.1471  0.0461 -0.4037
  521MOL0     C71828   4.729   3.480   5.530 -0.8982 -0.1237 -0.4127
  521MOL0     H71829   4.627   3.509   5.128 -1.5574 -3.4358 -1.3145
  521MOL0     H71830   4.528   3.510   4.913  0.3302  1.9920 -0.4141
  521MOL0     H71831   4.339   3.458   4.764 -0.8356 -1.7634 -4.4169
  521MOL0     H71832   4.422   3.607   4.710  0.1298 -1.0055 -0.6897
  521MOL0     H71833   4.252   3.506   4.553 -0.3963 -1.2645  2.7149
  521MOL0     H71834   4.123   3.532   4.656  0.1536 -0.0127  0.6323
  521MOL0     H71835   4.082   3.701   4.537  0.5592 -1.7695  0.3273
  521MOL0     H71836   4.189   3.776   4.663 -0.8696 -0.1442  0.3324
  521MOL0     H71837   4.378   3.778   4.522  1.1206 -2.2012 -0.7271
  521MOL0     H71838   4.303   3.686   4.397  1.1610  0.7752 -0.5309
  521MOL0     H71839   4.197   3.950   4.494  1.9043 -1.1694  0.7722
  521MOL0     H71840   4.142   3.861   4.348  0.0818 -0.0359  0.0019
  521MOL0     H71841   4.412   3.977   4.399 -1.6020 -0.3084  1.2187
  521MOL0     H71842   4.350   3.916   4.237  1.5171  0.0972  0.4441
  521MOL0     H71843   4.202   4.147   4.372 -0.6706  1.4927 -0.3081
  521MOL0     H71844   4.198   4.092   4.216 -0.3506 -1.3286  0.4223
  521MOL0     H71845   4.443   4.230   4.350  2.3591  2.3278 -0.9620
  521MOL0     H71846   4.460   4.146   4.189 -2.6482 -1.0704 -2.0255
  521MOL0     H71847   4.267   4.461   4.345 -0.8228  0.9436 -0.5948
  521MOL0     H71848   4.151   4.679   4.076 -3.2577  2.3377  1.3553
  521MOL0     H71849   4.141   4.649   4.244  2.2261 -1.9649  0.6452
  521MOL0     H71850   3.933   4.515   4.202 -1.0380  0.9358  0.6045
  521MOL0     H71851   3.918   4.680   4.166  1.8112  0.0915  2.5066
  521MOL0     H71852   3.837   4.615   3.951 -0.3585 -0.4203  0.1365
  521MOL0     H71853   4.011   4.597   3.918 -0.7160  0.3318  0.4620
  521MOL0     H71854   3.866   4.419   3.847  2.1940  0.5174 -2.1368
  521MOL0     H71855   3.994   4.357   3.951 -1.5787 -0.5099 -5.3693
  521MOL0     H71856   3.576   4.274   4.071  0.0674 -0.9031 -0.8878
  521MOL0     H71857   3.402   4.138   4.024  1.0501 -0.6852  0.5630
  521MOL0     H71858   3.428   3.978   4.094 -1.3242  1.7048  0.7497
  521MOL0     H71859   3.415   4.001   3.920 -3.8896  0.7140  0.9446
  521MOL0     H71860   3.630   3.594   4.189 -3.9441 -1.4773  0.9920
  521MOL0     H71861   3.592   3.349   4.184 -2.7508  1.2353 -0.5033
  521MOL0     H71862   3.641   3.001   4.045  1.7532  0.5329 -1.5906
  521MOL0     H71863   3.647   3.120   4.169  0.2272 -1.2475  0.5469
  521MOL0     H71864   3.424   3.064   4.176 -2.4243 -0.1292 -0.0276
  521MOL0     H71865   3.407   3.208   4.077  1.4254  1.3497 -2.1146
  521MOL0     H71866   3.384   3.037   3.880  0.8552 -1.7758  0.7394
  521MOL0     H71867   3.254   3.035   4.009  0.6436  3.0372  2.5389
  521MOL0     H71868   3.351   2.844   4.113 -1.4033  3.8067  0.3649
  521MOL0     H71869   3.498   2.870   4.007  0.1708  1.6415  2.1733
  521MOL0     H71870   3.377   2.822   3.819  2.6884 -0.2852  0.0486
  521MOL0     H71871   3.395   2.693   3.933 -0.7196 -0.0001  3.8575
  521MOL0     H71872   3.171   2.717   3.794 -1.6145 -0.7866  0.4829
  521MOL0     H71873   3.133   2.854   3.891 -0.5416 -0.9536 -0.6804
  521MOL0     H71874   3.172   2.584   4.024  0.2376 -2.4564 -2.1434
  521MOL0     H71875   3.050   2.586   3.911  1.7583 -0.4685 -1.5461
  521MOL0     H71876   2.950   2.794   4.002 -0.9220 -2.2858 -2.2245
  521MOL0     H71877   3.054   2.775   4.152 -1.0061  1.6708 -0.5000
  521MOL0     H71878   3.742   3.327   3.783  3.3872  1.2316 -0.9797
  521MOL0     H71879   3.805   3.572   3.801  2.1098 -0.1171  2.5770
  521MOL0     H71880   3.912   3.917   3.983  0.5096  0.8709  2.3352
  521MOL0     H71881   3.983   4.141   4.034 -0.8778 -1.2244  0.4081
  521MOL0     H71882   4.190   3.713   5.073 -1.5025 -3.5594 -1.0740
  521MOL0     H71883   4.296   3.734   5.283 -1.8156  0.6419 -1.5340
  521MOL0     H71884   4.445   3.819   5.698 -0.8691 -0.3162  0.5402
  521MOL0     H71885   4.577   3.847   5.895  0.1241  0.2081  0.1306
  521MOL0     H71886   4.721   3.526   6.020  0.2236  0.8026 -0.3936
  521MOL0     H71887   4.891   3.536   6.002 -0.9827 -2.0534 -1.3864
  521MOL0     H71888   4.902   3.681   6.209  0.3286 -0.0553 -2.1114
  521MOL0     H71889   4.857   3.508   6.232  1.5817  0.3897  2.9158
  521MOL0     H71890   4.725   3.721   6.339  1.1388  0.9294 -1.3427
  521MOL0     H71891   4.624   3.684   6.199 -1.0118  0.5960  1.3690
  521MOL0     H71892   4.582   3.449   6.282  0.7031 -0.1605 -0.6823
  521MOL0     H71893   4.552   3.573   6.407 -2.0483  1.3092 -2.4861
  521MOL0     H71894   4.852   3.350   6.592  0.4218  0.2545 -0.3808
  521MOL0     H71895   4.852   3.552   5.749  2.9370  3.7591  0.1462
  521MOL0     H71896   4.800   3.521   5.458  1.5171 -0.8081  1.4420
  521MOL0     H71897   4.787   3.411   5.592 -1.7249 -1.6214 -1.2210
  521MOL0     H71898   4.656   3.415   5.480  0.6442 -1.5483 -0.9380
  522MOL0     O71899  10.254   5.265   6.468  0.0947  0.2860  0.1479
  522MOL0     C71900  10.174   5.215   6.389  1.5815 -0.6046  0.6781
  522MOL0     O71901  10.172   5.240   6.252 -0.5974 -0.3579 -0.0429
  522MOL0     C71902  10.247   5.355   6.212 -0.1508 -0.3630  0.2562
  522MOL0     C71903  10.379   5.349   6.169 -0.2284  0.4057  0.3374
  522MOL0     C71904  10.441   5.472   6.129 -0.9424 -0.2583 -0.1779
  522MOL0     C71905  10.374   5.595   6.156  0.3317  0.1325  0.0285
  522MOL0     O71906  10.458   5.705   6.158  0.5431 -0.3454 -0.2938
  522MOL0     C71907  10.394   5.827   6.125  0.4205  0.2933 -0.8471
  522MOL0     C71908  10.397   5.865   5.977 -0.5687 -0.5689  1.1443
  522MOL0     C71909  10.285   5.784   5.900 -1.2146  0.8217  0.1120
  522MOL0     C71910  10.327   5.805   5.756  0.8184 -0.7356 -0.5371
  522MOL0     C71911  10.207   5.772   5.652  1.0143  0.3098 -0.1905
  522MOL0     C71912  10.264   5.785   5.504 -0.2089 -0.1213 -0.2153
  522MOL0     C71913  10.160   5.840   5.401  0.1367  0.9078 -1.2628
  522MOL0     C71914  10.040   5.739   5.393 -0.2181  0.0244 -1.0934
  522MOL0     N71915   9.946   5.791   5.299 -0.1215 -0.6426  0.5972
  522MOL0     C71916   9.812   5.748   5.313  0.8318  0.1865 -0.9717
  522MOL0     C71917   9.763   5.800   5.197 -0.0931  0.1348 -0.0898
  522MOL0     C71918   9.613   5.783   5.149 -0.9013 -0.0630 -0.8247
  522MOL0     C71919   9.591   5.640   5.102 -0.8636 -0.3804  0.6098
  522MOL0     C71920   9.441   5.615   5.082 -0.2169 -0.3821 -0.0446
  522MOL0     C71921   9.423   5.505   4.988  0.1856 -0.7736  1.6148
  522MOL0     O71922   9.498   5.390   5.029  0.8693  0.0950 -0.5117
  522MOL0     C71923   9.427   5.275   5.046 -0.0954  0.9601 -0.2029
  522MOL0     C71924   9.333   5.223   4.968  0.2299 -1.4398 -0.2602
  522MOL0     C71925   9.255   5.112   4.999  0.9530 -0.2771 -0.3342
  522MOL0     C71926   9.155   5.072   4.889  0.1968 -0.5699 -0.3529
  522MOL0     C71927   9.287   5.030   5.109  0.0811 -0.0153 -0.3249
  522MOL0     C71928   9.223   4.905   5.141 -0.7581 -0.5847  0.0170
  522MOL0     O71929   9.307   4.828   5.222 -0.4167 -0.8758  0.4833
  522MOL0     C71930   9.296   4.694   5.258  1.1453  0.2606 -0.0906
  522MOL0     C71931   9.394   4.638   5.336 -0.5856 -0.5905 -0.2009
  522MOL0     C71932   9.390   4.513   5.402 -0.1677 -0.3199 -0.2717
  522MOL0     C71933   9.276   4.434   5.374 -0.3096 -0.5671  0.8767
  522MOL0     O71934   9.244   4.310   5.423 -0.3889 -0.2244 -0.4311
  522MOL0     C71935   9.361   4.224   5.420 -1.0507  0.0538  0.9741
  522MOL0     C71936   9.405   4.213   5.266  0.7430  0.1413 -1.2713
  522MOL0     C71937   9.295   4.140   5.191  0.7505 -0.8902 -0.6610
  522MOL0     C71938   9.337   4.115   5.054 -0.3978 -0.0545 -0.0307
  522MOL0     C71939   9.224   4.050   4.975 -0.0777 -0.0635 -0.1304
  522MOL0     C71940   9.188   3.909   5.020  0.5228 -0.6663 -0.1999
  522MOL0     C71941   9.095   3.838   4.919  1.4089  0.5876 -0.5869
  522MOL0     C71942   9.082   3.686   4.962  0.9922 -0.1807 -0.1985
  522MOL0    Cl71943   8.978   3.597   4.847 -0.6965 -0.4967  0.1258
  522MOL0     C71944   9.178   4.486   5.284  0.2325 -0.4875 -1.0873
  522MOL0     C71945   9.179   4.616   5.236  0.0408 -0.2011 -0.4850
  522MOL0     O71946   9.112   4.880   5.108 -0.6191  0.9972 -0.3516
  522MOL0     C71947   9.397   5.075   5.184 -1.2373 -0.4880 -0.0345
  522MOL0     C71948   9.469   5.192   5.150 -0.8248  0.2599  0.4372
  522MOL0     N71949   9.861   5.866   5.125  0.6598 -0.8224 -0.3429
  522MOL0     N71950   9.964   5.870   5.189  0.0131  0.8222  0.2602
  522MOL0     C71951  10.247   5.599   6.203 -0.2774  0.2066 -0.2823
  522MOL0     C71952  10.187   5.477   6.227 -0.0324 -0.3781  0.7367
  522MOL0     C71953  10.085   5.102   6.445 -1.6552 -1.1268  0.2279
  522MOL0     C71954  10.116   4.974   6.412  0.1671 -0.1366 -0.2335
  522MOL0     C71955  10.055   4.867   6.480 -0.5872 -1.2738  0.7124
  522MOL0     C71956   9.947   4.885   6.565  0.1761 -0.3387 -1.0144
  522MOL0     O71957   9.867   4.796   6.635  0.4370 -0.2135  0.0410
  522MOL0     C71958   9.887   4.657   6.607  0.8663 -0.5023 -0.5692
  522MOL0     C71959   9.769   4.573   6.658  0.9359  1.3060 -0.0041
  522MOL0     C71960   9.795   4.427   6.654  0.2378  0.6613  0.1108
  522MOL0     C71961   9.676   4.337   6.715 -0.8089 -0.3002 -0.3582
  522MOL0     C71962   9.540   4.340   6.661 -0.9200  0.2273  0.3045
  522MOL0     C71963   9.438   4.347   6.594  0.3233 -0.3172 -0.0776
  522MOL0     C71964   9.904   5.016   6.588 -0.1483  0.1223  0.5095
  522MOL0     C71965   9.973   5.127   6.528 -0.7487  0.3683 -0.1851
  522MOL0     C71966   9.925   5.262   6.563  0.0380  0.2867  0.1940
  522MOL0     H71967  10.423   5.250   6.157 -1.2008  0.2336 -2.5548
  522MOL0     H71968  10.542   5.492   6.096  0.8565 -0.7764  4.2582
  522MOL0     H71969  10.457   5.908   6.165 -0.6007  2.0025 -2.5385
  522MOL0     H71970  10.294   5.843   6.167  0.2816 -2.3871 -0.0240
  522MOL0     H71971  10.381   5.974   5.980 -0.4680 -0.5686  1.8169
  522MOL0     H71972  10.495   5.857   5.929 -1.2897 -2.5319 -0.1458
  522MOL0     H71973  10.272   5.677   5.913 -2.2121 -0.2362 -6.3715
  522MOL0     H71974  10.185   5.828   5.913 -1.6915  1.5699 -4.4359
  522MOL0     H71975  10.350   5.912   5.744 -0.6251 -0.3598 -0.1351
  522MOL0     H71976  10.407   5.739   5.721  2.6239  2.0007 -2.0233
  522MOL0     H71977  10.117   5.826   5.685  0.1922 -2.1395  1.9716
  522MOL0     H71978  10.175   5.668   5.659  0.3837  0.2139 -3.1644
  522MOL0     H71979  10.348   5.856   5.505 -0.7437  0.7588 -3.7520
  522MOL0     H71980  10.302   5.691   5.463 -0.2148 -1.0338  1.7607
  522MOL0     H71981  10.202   5.865   5.303  3.4092 -1.6959 -0.7364
  522MOL0     H71982  10.115   5.932   5.438  1.1047  0.1174  2.3285
  522MOL0     H71983  10.064   5.638   5.359  0.1483  0.4602 -2.1945
  522MOL0     H71984  10.006   5.721   5.495  2.6728  1.0739  0.1677
  522MOL0     H71985   9.766   5.695   5.395  1.7660  4.4522  2.6985
  522MOL0     H71986   9.590   5.853   5.068  1.6697 -1.1698 -2.6479
  522MOL0     H71987   9.552   5.809   5.237  1.9689  3.0995  0.4710
  522MOL0     H71988   9.641   5.628   5.006  0.3203 -1.1195  1.2978
  522MOL0     H71989   9.623   5.558   5.166 -0.5679  0.2560  1.2953
  522MOL0     H71990   9.399   5.584   5.179 -0.2611  3.2397  1.2490
  522MOL0     H71991   9.382   5.697   5.041 -3.3798 -3.2189 -1.6844
  522MOL0     H71992   9.315   5.500   4.973  0.1806  1.7924  0.3068
  522MOL0     H71993   9.467   5.539   4.894 -4.8827  3.5988  0.3851
  522MOL0     H71994   9.318   5.268   4.870  0.8235  0.6268  0.5245
  522MOL0     H71995   9.057   5.088   4.934  1.1046 -3.6911  3.1633
  522MOL0     H71996   9.168   4.967   4.864 -0.9687 -1.2271  1.6394
  522MOL0     H71997   9.167   5.132   4.797  0.1158 -0.1311 -0.0814
  522MOL0     H71998   9.473   4.706   5.368 -0.4913 -0.2598 -1.1101
  522MOL0     H71999   9.477   4.474   5.455  0.1788 -1.7427 -1.7883
  522MOL0     H72000   9.445   4.265   5.476  0.3168 -1.6039  0.2117
  522MOL0     H72001   9.338   4.128   5.467  0.1446  0.0518  1.5973
  522MOL0     H72002   9.412   4.309   5.215 -1.0669  0.5910 -0.7694
  522MOL0     H72003   9.494   4.150   5.262  1.0501  0.4691 -0.1009
  522MOL0     H72004   9.195   4.185   5.195  0.9315 -0.4045 -1.5321
  522MOL0     H72005   9.285   4.042   5.240  0.1598 -0.1866  0.6778
  522MOL0     H72006   9.433   4.063   5.051  0.2286  1.0905 -0.8224
  522MOL0     H72007   9.357   4.213   5.009  2.3473  0.6531  2.3458
  522MOL0     H72008   9.144   4.125   4.972  1.6409  1.9625  1.1301
  522MOL0     H72009   9.254   4.040   4.871 -1.6536  2.1898 -0.8943
  522MOL0     H72010   9.137   3.914   5.117 -2.1356 -2.2645 -1.3818
  522MOL0     H72011   9.282   3.855   5.027  2.3418  2.2787 -0.3599
  522MOL0     H72012   9.132   3.831   4.817 -1.3403  1.1050 -1.7031
  522MOL0     H72013   8.995   3.881   4.926  2.3464  2.6193  3.0775
  522MOL0     H72014   9.040   3.670   5.061 -1.8973  0.7829 -1.1643
  522MOL0     H72015   9.177   3.632   4.965  1.0950  0.0462  1.6389
  522MOL0     H72016   9.086   4.431   5.267 -1.0245  0.6983  1.3292
  522MOL0     H72017   9.092   4.661   5.189 -1.2897 -1.4044  0.7117
  522MOL0     H72018   9.435   5.018   5.268  1.1154  1.5860  0.4164
  522MOL0     H72019   9.548   5.235   5.211 -2.6773  2.7145  1.2472
  522MOL0     H72020  10.187   5.689   6.205 -1.1412 -0.3171 -1.5515
  522MOL0     H72021  10.084   5.468   6.260  0.3433 -2.2700  1.5331
  522MOL0     H72022  10.200   4.950   6.347  0.3434  1.1953 -0.5250
  522MOL0     H72023  10.089   4.765   6.466 -1.9708 -1.7906  0.9679
  522MOL0     H72024   9.874   4.638   6.500 -2.1417 -1.3576 -0.1647
  522MOL0     H72025   9.978   4.614   6.650  1.5135 -0.5974 -1.9817
  522MOL0     H72026   9.682   4.595   6.595  0.6602 -0.4986 -0.2854
  522MOL0     H72027   9.733   4.608   6.756  2.7602 -1.7933  1.9256
  522MOL0     H72028   9.815   4.392   6.552  2.3254  3.3199 -0.4972
  522MOL0     H72029   9.886   4.410   6.713 -1.5039  0.8287  3.0583
  522MOL0     H72030   9.671   4.350   6.824  1.3119  2.2382 -0.4605
  522MOL0     H72031   9.708   4.235   6.693 -2.1815 -0.9800  0.6141
  522MOL0     H72032   9.354   4.360   6.529  0.3627  1.0463  0.1167
  522MOL0     H72033   9.829   5.037   6.664  0.2234  1.2968  0.5717
  522MOL0     H72034   9.972   5.298   6.656  0.7250 -2.3061  0.9456
  522MOL0     H72035   9.938   5.329   6.477 -0.3298  1.5105  1.0636
  522MOL0     H72036   9.817   5.258   6.580 -0.7403 -0.8065 -3.9302
  523MOL0     O72037  10.012   5.996   8.159  0.4994 -0.2895 -0.2815
  523MOL0     C72038   9.920   6.062   8.113  0.1547  2.3119  0.4402
  523MOL0     O72039   9.801   6.001   8.068  0.5002 -0.5811  0.4222
  523MOL0     C72040   9.789   5.867   8.078 -0.8686 -0.3376  0.6628
  523MOL0     C72041   9.835   5.790   7.974  1.0780  0.8813  0.6068
  523MOL0     C72042   9.825   5.647   7.973  0.5631  0.2058 -0.4331
  523MOL0     C72043   9.782   5.585   8.088  0.1481 -0.9769  0.1908
  523MOL0     O72044   9.776   5.460   8.085  0.9447 -0.2129  0.4458
  523MOL0     C72045   9.901   5.402   8.141 -1.0050  0.7758  0.6114
  523MOL0     C72046   9.904   5.254   8.101 -0.5886 -1.0668 -0.2035
  523MOL0     C72047   9.878   5.235   7.951 -0.2735  0.5222  0.4174
  523MOL0     C72048   9.976   5.320   7.862 -0.0823 -0.2178  0.0671
  523MOL0     C72049   9.943   5.293   7.712  0.2257 -0.3181 -1.6302
  523MOL0     C72050  10.026   5.380   7.615 -0.9602  0.1493 -1.2197
  523MOL0     C72051   9.966   5.391   7.477  0.3624  0.1524  0.3146
  523MOL0     C72052  10.066   5.474   7.405  0.1539  0.2019 -0.7024
  523MOL0     N72053  10.062   5.614   7.435 -0.1256 -0.2720  0.4998
  523MOL0     C72054  10.162   5.676   7.504 -0.4578 -0.5354  0.6638
  523MOL0     C72055  10.123   5.806   7.528 -1.0692 -0.5654  0.3026
  523MOL0     C72056  10.192   5.921   7.596 -0.7687  0.9723  0.6861
  523MOL0     C72057  10.119   5.980   7.714 -0.6546  0.3138  0.4579
  523MOL0     C72058  10.195   6.102   7.775 -1.0311  0.0691 -0.6093
  523MOL0     C72059  10.129   6.230   7.751  0.0442 -0.2646  0.5005
  523MOL0     O72060  10.143   6.259   7.611 -0.0843  1.0920 -0.3219
  523MOL0     C72061  10.105   6.377   7.559  0.6315 -0.2220  1.5278
  523MOL0     C72062  10.147   6.396   7.428  0.2788  0.3985 -0.2551
  523MOL0     C72063  10.105   6.511   7.354 -0.0687  0.5695 -0.0996
  523MOL0     C72064  10.159   6.533   7.218 -0.1155 -0.4704  0.4436
  523MOL0     C72065  10.029   6.614   7.425  0.4899  0.3021  1.4453
  523MOL0     C72066   9.977   6.740   7.366  0.5219  0.2990  0.0403
  523MOL0     O72067   9.848   6.777   7.394  0.6119  0.0718  0.0678
  523MOL0     C72068   9.798   6.902   7.377 -0.4780 -0.2339 -0.8260
  523MOL0     C72069   9.838   6.986   7.271  0.1329  0.6856 -0.2516
  523MOL0     C72070   9.799   7.114   7.251 -1.0727 -0.3833  0.1310
  523MOL0     C72071   9.746   7.186   7.361 -0.0592  0.4892 -0.1076
  523MOL0     O72072   9.713   7.318   7.367 -0.0806  0.4845  0.7431
  523MOL0     C72073   9.786   7.410   7.286  0.1989  0.3619 -0.0403
  523MOL0     C72074   9.764   7.552   7.330  0.2054  0.1413  0.5020
  523MOL0     C72075   9.806   7.598   7.469 -0.5478 -0.4802  0.4108
  523MOL0     C72076   9.952   7.662   7.465  0.7620  0.7564 -0.0025
  523MOL0     C72077   9.992   7.702   7.610 -0.8712  0.2488  0.5990
  523MOL0     C72078  10.130   7.755   7.581  0.0129 -0.0811 -0.4536
  523MOL0     C72079  10.198   7.805   7.704  0.1622 -1.7159  0.6571
  523MOL0     C72080  10.224   7.704   7.810  0.3268  0.0310 -0.6678
  523MOL0    Cl72081  10.352   7.591   7.738 -0.2994 -0.5892 -0.1648
  523MOL0     C72082   9.706   7.113   7.472  0.9129  0.8190 -0.0257
  523MOL0     C72083   9.731   6.975   7.476 -0.0883 -0.1563 -1.0992
  523MOL0     O72084  10.054   6.797   7.290 -0.2473  0.4184 -0.5012
  523MOL0     C72085   9.986   6.593   7.556 -0.6534  0.9818  0.3984
  523MOL0     C72086  10.023   6.474   7.622 -0.3420 -0.7018  0.0022
  523MOL0     N72087   9.995   5.812   7.461 -0.6632 -0.1831 -0.2060
  523MOL0     N72088   9.966   5.708   7.401 -0.6646 -0.1986  0.1410
  523MOL0     C72089   9.750   5.652   8.201  0.3326 -0.4649 -0.2052
  523MOL0     C72090   9.756   5.794   8.192 -0.8063 -0.1125 -0.8059
  523MOL0     C72091   9.955   6.207   8.089 -0.3623  0.9094  0.0478
  523MOL0     C72092   9.851   6.296   8.048 -0.1539  1.1639  0.6393
  523MOL0     C72093   9.868   6.430   8.017 -0.0609 -0.1894 -0.0511
  523MOL0     C72094   9.995   6.474   8.018  0.0983  0.5044  0.2157
  523MOL0     O72095   9.996   6.593   7.950  0.4406  0.1996  0.1966
  523MOL0     C72096  10.113   6.645   7.889  0.4902 -0.0633  0.3111
  523MOL0     C72097  10.201   6.730   7.985  0.8094  0.2151  0.4515
  523MOL0     C72098  10.116   6.816   8.084 -0.2625 -0.1788  0.4175
  523MOL0     C72099  10.026   6.920   8.014  0.3866  0.6064 -0.4349
  523MOL0     C72100   9.943   7.000   8.110 -0.2376 -0.4568  0.1753
  523MOL0     C72101   9.883   7.071   8.185  0.2299 -0.1609  1.0010
  523MOL0     C72102  10.101   6.400   8.061 -0.2475 -0.2253  0.6986
  523MOL0     C72103  10.084   6.265   8.092 -0.7585 -1.4088 -0.3862
  523MOL0     C72104  10.206   6.198   8.151 -0.7314 -0.8917  1.1977
  523MOL0     H72105   9.873   5.839   7.885 -0.7440  1.4783  0.1050
  523MOL0     H72106   9.852   5.596   7.881  1.6110  1.4632 -0.8560
  523MOL0     H72107   9.897   5.413   8.250  1.6124  2.6089  0.6204
  523MOL0     H72108   9.993   5.457   8.120  0.4816 -2.4573 -2.3463
  523MOL0     H72109   9.997   5.198   8.118 -1.0185 -1.4428  1.0150
  523MOL0     H72110   9.832   5.203   8.166 -3.0588  0.0894 -1.8871
  523MOL0     H72111   9.885   5.129   7.924  0.5873  1.0241 -1.5123
  523MOL0     H72112   9.776   5.265   7.922  2.1446  5.5333 -4.8441
  523MOL0     H72113   9.976   5.426   7.890 -2.8057  0.1233 -0.9312
  523MOL0     H72114  10.079   5.285   7.872  0.8108  1.8055 -1.2097
  523MOL0     H72115   9.837   5.310   7.695 -0.6587 -1.1334  2.1364
  523MOL0     H72116   9.952   5.185   7.700 -1.7661 -1.0674  2.1961
  523MOL0     H72117  10.027   5.481   7.657 -1.1401 -0.6496  0.8416
  523MOL0     H72118  10.128   5.343   7.629 -1.6919 -0.8093  3.8313
  523MOL0     H72119   9.869   5.440   7.484 -0.8823 -2.1809  0.6285
  523MOL0     H72120   9.953   5.293   7.429  0.0930  0.6667 -0.6860
  523MOL0     H72121  10.162   5.421   7.400  0.0020 -0.7898  3.2908
  523MOL0     H72122  10.042   5.466   7.299  0.0187 -2.8674 -0.5161
  523MOL0     H72123  10.254   5.626   7.531 -1.5195 -1.6360  2.4506
  523MOL0     H72124  10.213   5.999   7.522  1.8630  0.0898  0.3988
  523MOL0     H72125  10.287   5.874   7.625 -0.8362  1.8680  2.5544
  523MOL0     H72126  10.014   6.008   7.705 -0.4650  0.5250 -1.4063
  523MOL0     H72127  10.123   5.905   7.793 -0.2425 -0.6092 -0.4196
  523MOL0     H72128  10.184   6.098   7.883  0.2372  1.7048 -0.3649
  523MOL0     H72129  10.299   6.090   7.742 -0.9087 -1.3322  0.2042
  523MOL0     H72130  10.024   6.217   7.778 -0.6657  0.3798 -1.7398
  523MOL0     H72131  10.154   6.313   7.818 -0.7681 -0.0417  0.5286
  523MOL0     H72132  10.200   6.317   7.376 -0.7313 -1.0551  0.8470
  523MOL0     H72133  10.239   6.607   7.228 -1.4572  1.0543  0.2518
  523MOL0     H72134  10.087   6.573   7.146  0.3407 -0.6588 -0.1330
  523MOL0     H72135  10.212   6.445   7.178 -2.5837 -2.6922  1.7138
  523MOL0     H72136   9.883   6.936   7.186 -0.2538  0.0056 -0.0678
  523MOL0     H72137   9.829   7.167   7.161 -1.8752 -0.7721 -0.3655
  523MOL0     H72138   9.893   7.387   7.287  0.4385  1.3718  1.5949
  523MOL0     H72139   9.759   7.397   7.181  1.6712  1.7019 -0.6288
  523MOL0     H72140   9.819   7.609   7.255  3.7246 -0.6161  2.3000
  523MOL0     H72141   9.658   7.579   7.328  0.7189  2.3926  0.9280
  523MOL0     H72142   9.796   7.510   7.534 -1.8035  1.0948  2.4659
  523MOL0     H72143   9.736   7.673   7.506 -0.7668 -0.1943 -0.5468
  523MOL0     H72144   9.970   7.730   7.381 -0.6885 -0.7727 -1.6494
  523MOL0     H72145  10.012   7.576   7.430 -2.5877 -2.3333  1.2267
  523MOL0     H72146   9.938   7.784   7.658  0.9204  1.9189 -0.0729
  523MOL0     H72147   9.987   7.619   7.681  0.3896 -0.4891 -0.1315
  523MOL0     H72148  10.136   7.830   7.501  0.6428  0.5228  0.1510
  523MOL0     H72149  10.195   7.675   7.546  2.3710  1.9766 -1.0690
  523MOL0     H72150  10.151   7.895   7.744  0.8005 -0.7814 -0.6324
  523MOL0     H72151  10.301   7.839   7.684 -0.5683  0.8387  0.8582
  523MOL0     H72152  10.127   7.665   7.844  1.4909 -0.2582  2.6692
  523MOL0     H72153  10.276   7.739   7.899  1.6093 -0.2876 -1.2695
  523MOL0     H72154   9.655   7.167   7.551 -0.2087  0.1973 -0.3077
  523MOL0     H72155   9.709   6.926   7.570  1.1273  1.3296  0.0123
  523MOL0     H72156   9.925   6.661   7.613 -2.0008 -2.3833  3.3946
  523MOL0     H72157   9.992   6.456   7.725 -3.0325  0.0049 -0.5988
  523MOL0     H72158   9.729   5.604   8.297  3.9219 -0.4407  0.7318
  523MOL0     H72159   9.737   5.856   8.279 -0.2518  0.0626 -0.8029
  523MOL0     H72160   9.759   6.243   8.023 -0.1530  1.2394  0.4732
  523MOL0     H72161   9.785   6.482   7.970  0.8070 -0.0225 -1.4397
  523MOL0     H72162  10.180   6.570   7.846 -0.1714  0.1080 -1.0354
  523MOL0     H72163  10.078   6.714   7.812 -0.5138 -1.8019 -0.8290
  523MOL0     H72164  10.266   6.799   7.930  0.5884 -0.2496 -0.4112
  523MOL0     H72165  10.266   6.679   8.058 -0.3144  2.7804  3.4940
  523MOL0     H72166  10.070   6.745   8.153  0.0338 -3.2227 -2.3135
  523MOL0     H72167  10.189   6.876   8.140 -0.4259  0.4374 -0.0182
  523MOL0     H72168   9.944   6.882   7.952 -0.4037  1.4083  0.0980
  523MOL0     H72169  10.077   6.989   7.946 -1.3108  4.2767  1.7169
  523MOL0     H72170   9.825   7.138   8.246 -0.9552 -1.1113  0.9650
  523MOL0     H72171  10.188   6.464   8.072 -1.2718  1.3380 -0.0332
  523MOL0     H72172  10.271   6.151   8.077  2.3734  2.5353  1.4837
  523MOL0     H72173  10.265   6.277   8.197 -5.9938  2.9593  2.2502
  523MOL0     H72174  10.174   6.131   8.231 -1.4239  1.4606  2.9926
  524MOL0     O72175   6.132   1.481   0.490 -0.5721 -0.8859 -0.2061
  524MOL0     C72176   6.241   1.499   0.554  0.6962 -0.2380 -0.7695
  524MOL0     O72177   6.358   1.459   0.511 -0.2219 -0.2551  0.1346
  524MOL0     C72178   6.363   1.373   0.409  0.7630 -0.1243  0.3591
  524MOL0     C72179   6.338   1.235   0.423  1.0668 -0.2178 -0.1597
  524MOL0     C72180   6.356   1.142   0.317  0.4978 -0.5530  0.3510
  524MOL0     C72181   6.417   1.179   0.200  0.4119  0.3818 -0.0516
  524MOL0     O72182   6.427   1.071   0.110 -0.1202 -0.3845 -0.0527
  524MOL0     C72183   6.435   1.106  -0.029 -0.3441 -0.6049 -0.5144
  524MOL0     C72184   6.379   0.991  -0.113  0.6146 -0.4204 -0.2544
  524MOL0     C72185   6.367   1.035  -0.259  0.4983 -0.4843  0.6663
  524MOL0     C72186   6.316   0.925  -0.343 -0.1328  0.5051  1.0710
  524MOL0     C72187   6.319   0.937  -0.501 -0.4637 -0.2516 -0.8538
  524MOL0     C72188   6.357   0.806  -0.546  0.0001  0.4545 -0.4426
  524MOL0     C72189   6.388   0.818  -0.700 -0.6052 -0.3963 -0.0355
  524MOL0     C72190   6.389   0.670  -0.757  0.1193 -0.2574 -0.3076
  524MOL0     N72191   6.396   0.678  -0.905  0.3564 -0.3422 -0.8049
  524MOL0     C72192   6.353   0.586  -0.995  0.6044 -0.1074  0.6563
  524MOL0     C72193   6.387   0.626  -1.122 -0.0032 -0.5212  0.2749
  524MOL0     C72194   6.346   0.536  -1.245 -0.5203 -0.3496  0.5448
  524MOL0     C72195   6.397   0.601  -1.386  0.2797 -0.1078  0.7751
  524MOL0     C72196   6.403   0.489  -1.491 -0.3410  0.8683 -0.6959
  524MOL0     C72197   6.260   0.451  -1.545 -0.4918 -0.0943 -0.8634
  524MOL0     O72198   6.289   0.376  -1.663 -0.2033 -0.1321  0.2684
  524MOL0     C72199   6.310   0.449  -1.776 -0.6994  0.4986 -0.3558
  524MOL0     C72200   6.346   0.365  -1.880 -1.6576  0.0978 -0.0497
  524MOL0     C72201   6.372   0.415  -2.008 -0.4830 -0.3495  1.5097
  524MOL0     C72202   6.405   0.314  -2.116 -0.4244  0.0310  0.6678
  524MOL0     C72203   6.360   0.553  -2.031 -0.3766  0.4212 -0.3410
  524MOL0     C72204   6.351   0.619  -2.169 -0.8778  0.2630 -0.0164
  524MOL0     O72205   6.426   0.739  -2.193  0.6203  0.4103  0.8032
  524MOL0     C72206   6.458   0.794  -2.317 -0.3916 -0.2318 -0.6442
  524MOL0     C72207   6.556   0.899  -2.315  0.2723  0.4578 -0.3882
  524MOL0     C72208   6.592   0.968  -2.434  0.5265  0.7995 -0.1339
  524MOL0     C72209   6.530   0.938  -2.552  0.3443  0.2339 -0.4524
  524MOL0     O72210   6.576   1.002  -2.664 -0.7259  0.2315 -0.0579
  524MOL0     C72211   6.526   0.953  -2.787 -0.1095 -0.1785  0.3223
  524MOL0     C72212   6.554   1.046  -2.901  0.0028 -0.2354  0.1244
  524MOL0     C72213   6.699   1.059  -2.942  0.3225 -0.3286  0.6155
  524MOL0     C72214   6.758   0.944  -3.024  0.0990 -0.7064  0.0665
  524MOL0     C72215   6.890   0.956  -3.080 -0.1981 -0.1083 -0.4165
  524MOL0     C72216   6.899   1.076  -3.183  0.8167  0.9473  0.1281
  524MOL0     C72217   7.004   1.062  -3.290 -0.3094 -0.2889  0.4560
  524MOL0     C72218   7.025   1.184  -3.372  0.2561 -0.4383  0.0382
  524MOL0    Cl72219   7.073   1.335  -3.267  0.2425  0.0035  0.3815
  524MOL0     C72220   6.434   0.837  -2.550 -0.1487 -0.6905 -0.1185
  524MOL0     C72221   6.395   0.776  -2.433 -0.1347 -1.4261 -0.1395
  524MOL0     O72222   6.279   0.561  -2.252  0.0692  0.4402 -0.3652
  524MOL0     C72223   6.324   0.643  -1.925  1.6940 -1.1451 -0.0186
  524MOL0     C72224   6.297   0.586  -1.801 -0.0696 -0.5791 -0.5857
  524MOL0     N72225   6.446   0.750  -1.113  0.2188  0.8318  0.3948
  524MOL0     N72226   6.448   0.780  -0.982  0.0507  0.6393  0.5504
  524MOL0     C72227   6.438   1.322   0.183 -0.1790  0.7745 -0.0890
  524MOL0     C72228   6.416   1.410   0.290 -0.1339  0.2550 -0.2587
  524MOL0     C72229   6.239   1.594   0.668 -0.0021  0.0758 -0.4906
  524MOL0     C72230   6.127   1.682   0.673 -0.7059 -0.6178 -1.2490
  524MOL0     C72231   6.135   1.793   0.766 -0.4929 -0.9625  0.8634
  524MOL0     C72232   6.235   1.802   0.858  0.7647  0.1614  0.5424
  524MOL0     O72233   6.232   1.909   0.943 -0.3775  0.4947  0.4080
  524MOL0     C72234   6.238   2.034   0.877 -0.7411  0.2162  0.6366
  524MOL0     C72235   6.364   2.042   0.783 -0.0085  0.9038 -0.8666
  524MOL0     C72236   6.498   2.074   0.859  0.2549  0.0080 -0.5418
  524MOL0     C72237   6.618   2.054   0.777 -0.6508 -0.1664  0.1826
  524MOL0     C72238   6.629   2.160   0.672  0.0538 -0.2088 -0.7394
  524MOL0     C72239   6.649   2.238   0.586  1.0492  0.0035  0.7537
  524MOL0     C72240   6.339   1.713   0.868 -0.2241  0.2998  0.3189
  524MOL0     C72241   6.340   1.605   0.774 -0.2027  1.2392  0.4504
  524MOL0     C72242   6.454   1.502   0.773 -0.2423  0.5061  0.0705
  524MOL0     H72243   6.295   1.203   0.517 -2.9599  0.4137 -1.5761
  524MOL0     H72244   6.313   1.043   0.325 -2.2772  0.6416  1.6432
  524MOL0     H72245   6.539   1.122  -0.057 -0.2120  0.6691  0.5862
  524MOL0     H72246   6.383   1.201  -0.044  1.1272  0.4031  0.4996
  524MOL0     H72247   6.451   0.909  -0.098  0.2442 -0.6355  0.3861
  524MOL0     H72248   6.282   0.953  -0.081 -1.3235  0.6396 -4.2216
  524MOL0     H72249   6.306   1.124  -0.277  1.6914 -0.5118 -6.5128
  524MOL0     H72250   6.466   1.073  -0.286  0.7647  1.1428  3.4686
  524MOL0     H72251   6.376   0.838  -0.318 -1.0493 -2.0360 -4.1115
  524MOL0     H72252   6.213   0.895  -0.322  0.2065 -2.9094 -1.3764
  524MOL0     H72253   6.395   1.011  -0.527  3.4319 -2.1944  3.4641
  524MOL0     H72254   6.227   0.981  -0.540 -1.0454 -2.7063 -2.4890
  524MOL0     H72255   6.444   0.767  -0.493  0.0241  0.5552 -0.4069
  524MOL0     H72256   6.271   0.738  -0.542  0.4306 -0.0388  2.4597
  524MOL0     H72257   6.489   0.858  -0.716 -0.3875 -1.3310 -1.1246
  524MOL0     H72258   6.317   0.879  -0.756  0.9599 -0.0660 -1.7748
  524MOL0     H72259   6.471   0.607  -0.720 -0.7437 -0.3146  1.6646
  524MOL0     H72260   6.309   0.601  -0.729  0.8629 -1.6630 -1.5305
  524MOL0     H72261   6.301   0.493  -0.978 -1.0688  0.5734 -0.4824
  524MOL0     H72262   6.238   0.521  -1.254 -0.1847 -2.2747 -0.7516
  524MOL0     H72263   6.384   0.434  -1.248 -2.4385 -1.0787 -1.1900
  524MOL0     H72264   6.338   0.690  -1.411  0.1735 -0.6615 -1.0644
  524MOL0     H72265   6.497   0.638  -1.364  0.8791 -2.3726  2.2404
  524MOL0     H72266   6.461   0.523  -1.577  1.3422 -0.6779 -0.2487
  524MOL0     H72267   6.455   0.401  -1.452  3.3957  3.3718  0.5783
  524MOL0     H72268   6.210   0.396  -1.465  0.2956 -0.2999 -0.5050
  524MOL0     H72269   6.211   0.547  -1.563  1.0536  0.7868 -0.6063
  524MOL0     H72270   6.351   0.257  -1.872 -2.6885 -0.5994 -5.1473
  524MOL0     H72271   6.324   0.267  -2.173 -0.1788  2.1151 -1.5384
  524MOL0     H72272   6.451   0.228  -2.066 -1.5640 -0.9846  0.0253
  524MOL0     H72273   6.471   0.368  -2.185 -1.8596  1.4553  0.3464
  524MOL0     H72274   6.617   0.933  -2.233 -1.0666 -2.4522  2.0123
  524MOL0     H72275   6.662   1.051  -2.423 -0.7719  1.9949 -0.6339
  524MOL0     H72276   6.571   0.856  -2.811  1.0118  0.8364 -1.8956
  524MOL0     H72277   6.417   0.941  -2.783 -0.3315  1.2888 -0.7255
  524MOL0     H72278   6.502   1.012  -2.991 -0.5691 -2.0662  1.0775
  524MOL0     H72279   6.536   1.146  -2.862  0.7953 -0.2049  0.4343
  524MOL0     H72280   6.754   1.077  -2.849 -4.1238 -0.8893  3.6416
  524MOL0     H72281   6.704   1.154  -2.997  0.9401 -0.0922  1.0642
  524MOL0     H72282   6.693   0.914  -3.107 -1.1441 -1.1142  1.1487
  524MOL0     H72283   6.745   0.854  -2.962 -0.3469 -1.6543 -1.3525
  524MOL0     H72284   6.973   0.962  -3.009  1.6473 -0.8872 -2.4241
  524MOL0     H72285   6.915   0.861  -3.128  1.3225 -0.0751  0.2396
  524MOL0     H72286   6.934   1.164  -3.128  1.7807  0.6999 -0.0685
  524MOL0     H72287   6.802   1.075  -3.234 -1.0513 -3.4157  3.1485
  524MOL0     H72288   6.963   0.990  -3.362 -4.2053  4.0432 -2.1695
  524MOL0     H72289   7.101   1.029  -3.250  0.4865 -1.1691 -2.0374
  524MOL0     H72290   6.936   1.214  -3.428  2.6100  3.1761 -2.1166
  524MOL0     H72291   7.102   1.159  -3.445  0.1002 -0.6627 -0.0500
  524MOL0     H72292   6.379   0.802  -2.636  2.6867  2.1635 -3.3612
  524MOL0     H72293   6.312   0.706  -2.437 -0.5252 -0.9703 -0.0827
  524MOL0     H72294   6.316   0.749  -1.947  1.2088 -0.5307  2.7925
  524MOL0     H72295   6.271   0.655  -1.721  0.0239  1.1250 -1.9690
  524MOL0     H72296   6.487   1.350   0.090  2.0020 -1.2368  0.3546
  524MOL0     H72297   6.458   1.510   0.289  4.7132 -1.5015  0.4114
  524MOL0     H72298   6.042   1.675   0.606 -0.3583 -3.7533 -1.5010
  524MOL0     H72299   6.058   1.868   0.780  2.6667  2.3760  2.2091
  524MOL0     H72300   6.150   2.060   0.818 -0.3289 -0.0359 -0.0911
  524MOL0     H72301   6.241   2.102   0.963 -2.3155  0.7882  0.2667
  524MOL0     H72302   6.348   2.118   0.706  0.4553  0.3827 -1.4869
  524MOL0     H72303   6.385   1.953   0.723  0.2831  0.9941 -0.9006
  524MOL0     H72304   6.511   2.175   0.898 -0.6966  0.2405 -0.7820
  524MOL0     H72305   6.487   2.010   0.947 -2.2854  0.1563 -0.6736
  524MOL0     H72306   6.627   1.957   0.727 -3.4826  1.8114 -4.9295
  524MOL0     H72307   6.709   2.064   0.835 -0.4359 -2.0630  0.2501
  524MOL0     H72308   6.643   2.327   0.526 -1.5282  0.0920  1.0309
  524MOL0     H72309   6.411   1.740   0.946 -1.2050  6.4610 -0.3445
  524MOL0     H72310   6.432   1.397   0.751 -2.1110  1.0476 -0.7799
  524MOL0     H72311   6.536   1.536   0.710  1.6362 -0.4386  1.8649
  524MOL0     H72312   6.492   1.494   0.876  0.7064 -1.5512 -0.3825
  525MOL0     O72313   2.462   3.431   9.255  0.7328 -0.5878  0.6439
  525MOL0     C72314   2.508   3.342   9.321  0.5188  0.2654 -0.8501
  525MOL0     O72315   2.490   3.342   9.452 -0.8706 -0.2234 -0.4311
  525MOL0     C72316   2.480   3.459   9.529 -0.8063  0.3818 -0.4231
  525MOL0     C72317   2.403   3.451   9.650 -0.0998  0.5628 -0.7858
  525MOL0     C72318   2.419   3.557   9.742  0.7202 -0.7402 -0.1666
  525MOL0     C72319   2.485   3.680   9.699  0.6336  0.2422  0.5543
  525MOL0     O72320   2.494   3.802   9.768 -0.1707 -0.7681 -0.5230
  525MOL0     C72321   2.517   3.803   9.910  0.2589  0.2688 -0.1496
  525MOL0     C72322   2.511   3.947   9.949  0.0632  0.1638 -0.1976
  525MOL0     C72323   2.515   3.985  10.091 -1.2584 -0.5825 -0.3646
  525MOL0     C72324   2.659   3.955  10.142 -0.3225  1.2993  0.1303
  525MOL0     C72325   2.677   4.025  10.280  0.4390  0.4466  0.0850
  525MOL0     C72326   2.588   3.971  10.385  0.5931 -0.8775  0.1581
  525MOL0     C72327   2.645   4.007  10.529  0.5836  0.7737  0.5710
  525MOL0     C72328   2.668   4.161  10.559  0.4170 -0.0105 -1.2613
  525MOL0     N72329   2.540   4.237  10.560  0.1599  0.3591  1.0838
  525MOL0     C72330   2.499   4.334  10.467  0.2128  0.1243 -0.2830
  525MOL0     C72331   2.395   4.395  10.521  1.0311  0.6190 -0.1400
  525MOL0     C72332   2.312   4.509  10.461  0.8647  0.0727  0.5718
  525MOL0     C72333   2.164   4.473  10.425  1.4177 -0.0770  0.7227
  525MOL0     C72334   2.169   4.394  10.289 -0.2481  0.6786  0.8182
  525MOL0     C72335   2.028   4.333  10.254 -0.4872 -0.2373  0.7040
  525MOL0     O72336   1.972   4.247  10.352  0.5625 -0.5823 -0.0241
  525MOL0     C72337   2.039   4.137  10.389 -0.3045 -1.0082 -0.8102
  525MOL0     C72338   2.067   4.107  10.517  0.7063  0.2815 -0.1726
  525MOL0     C72339   2.133   3.989  10.559  0.6725  0.1932  0.2007
  525MOL0     C72340   2.152   3.962  10.704 -0.2500 -0.0668  0.6389
  525MOL0     C72341   2.170   3.889  10.461  0.8795  0.4069  0.3852
  525MOL0     C72342   2.232   3.753  10.489 -0.1941 -0.0700 -0.3920
  525MOL0     O72343   2.350   3.734  10.421  0.6432 -0.9585  0.1195
  525MOL0     C72344   2.412   3.612  10.456  0.1162 -0.1585  0.3260
  525MOL0     C72345   2.363   3.499  10.397 -0.3014  0.5918 -0.1341
  525MOL0     C72346   2.423   3.375  10.418  0.5316  0.8867  0.5282
  525MOL0     C72347   2.533   3.369  10.502  0.0460 -0.7539 -0.8497
  525MOL0     O72348   2.606   3.249  10.522  0.1990 -0.3842 -0.3955
  525MOL0     C72349   2.546   3.128  10.533  0.4056 -0.3247  0.0589
  525MOL0     C72350   2.640   3.014  10.564  0.7348  0.2552 -0.0646
  525MOL0     C72351   2.561   2.888  10.597  0.5924  0.1418 -0.6904
  525MOL0     C72352   2.481   2.820  10.481 -0.7353 -0.2363 -0.1834
  525MOL0     C72353   2.576   2.782  10.365 -0.0020 -0.4447  0.1624
  525MOL0     C72354   2.691   2.691  10.396 -0.3091  0.4862  0.5171
  525MOL0     C72355   2.647   2.540  10.407  0.4400  0.9573  0.0849
  525MOL0     C72356   2.774   2.453  10.437  0.5517 -1.2750 -0.6418
  525MOL0    Cl72357   2.869   2.467  10.304  0.1657  0.3609  0.0675
  525MOL0     C72358   2.579   3.487  10.558  0.1334  0.0433  0.4764
  525MOL0     C72359   2.516   3.608  10.547  0.1796  0.4151  0.3371
  525MOL0     O72360   2.179   3.668  10.559 -0.4090  0.6888  0.1452
  525MOL0     C72361   2.133   3.929  10.327 -0.4720  0.1837 -0.1986
  525MOL0     C72362   2.065   4.041  10.294 -0.2159  0.1625  0.5253
  525MOL0     N72363   2.364   4.333  10.643  0.4276 -0.2053 -0.0783
  525MOL0     N72364   2.447   4.236  10.663 -0.1880  0.7118  0.3203
  525MOL0     C72365   2.551   3.682   9.575 -0.3764  0.1672  0.7359
  525MOL0     C72366   2.551   3.573   9.485  0.5218  0.5580  0.1997
  525MOL0     C72367   2.591   3.242   9.243  0.1450 -0.5648  0.3633
  525MOL0     C72368   2.667   3.157   9.329 -0.1372  0.7569 -0.6169
  525MOL0     C72369   2.756   3.063   9.278  0.3630 -0.0215 -0.0450
  525MOL0     C72370   2.770   3.046   9.142 -0.5606 -0.3262  0.6054
  525MOL0     O72371   2.865   2.950   9.107  0.0074  0.2254  0.4905
  525MOL0     C72372   2.973   2.997   9.022  0.0550  0.0049 -0.6241
  525MOL0     C72373   3.065   2.884   8.955 -0.0144 -0.8477 -0.0433
  525MOL0     C72374   2.979   2.812   8.849  0.4461  0.4762 -0.4444
  525MOL0     C72375   3.037   2.681   8.800  0.0083  0.0131  0.4953
  525MOL0     C72376   3.111   2.703   8.673 -0.4365 -0.1659 -0.1265
  525MOL0     C72377   3.157   2.709   8.558  0.0051  0.2275  0.4316
  525MOL0     C72378   2.695   3.124   9.053  0.7798 -0.9089  0.7401
  525MOL0     C72379   2.599   3.215   9.101 -0.8705 -0.3163 -0.4687
  525MOL0     C72380   2.526   3.298   8.993 -0.6139  0.4656 -1.2129
  525MOL0     H72381   2.352   3.362   9.683 -0.5968  1.1499  0.0671
  525MOL0     H72382   2.379   3.560   9.843 -3.2601  2.7796 -1.5356
  525MOL0     H72383   2.610   3.760   9.947 -0.4252  0.0653  1.4256
  525MOL0     H72384   2.427   3.762   9.956 -1.2158  0.4573 -2.6399
  525MOL0     H72385   2.589   4.002   9.895 -0.6257  1.9912  0.5933
  525MOL0     H72386   2.420   3.989   9.905  1.1781  0.1788 -2.6983
  525MOL0     H72387   2.496   4.092  10.103 -1.2924 -0.7046  0.8470
  525MOL0     H72388   2.442   3.920  10.139 -1.2630 -0.9985 -0.9230
  525MOL0     H72389   2.675   3.847  10.142 -2.5104  0.8948 -1.5317
  525MOL0     H72390   2.733   3.988  10.068 -0.7578 -1.3935 -1.6587
  525MOL0     H72391   2.673   4.133  10.265  0.7819  0.7031  1.6551
  525MOL0     H72392   2.781   4.004  10.307  0.5976  0.5977 -0.3925
  525MOL0     H72393   2.485   4.004  10.368  1.3275  0.8179 -1.2504
  525MOL0     H72394   2.602   3.862  10.384  2.5324 -0.6591 -0.2339
  525MOL0     H72395   2.731   3.940  10.547 -0.2605 -0.4458  0.2042
  525MOL0     H72396   2.568   3.971  10.598 -0.0925 -1.9756 -1.4242
  525MOL0     H72397   2.687   4.159  10.667 -2.6632 -2.4202 -0.5868
  525MOL0     H72398   2.745   4.209  10.499 -0.3731  1.6854 -0.9711
  525MOL0     H72399   2.543   4.366  10.373 -1.5029  0.0446 -1.1567
  525MOL0     H72400   2.363   4.558  10.379  2.8051  2.0311  2.8023
  525MOL0     H72401   2.306   4.586  10.539 -1.3016  0.3495  0.1946
  525MOL0     H72402   2.126   4.405  10.502  2.7371 -2.4610 -0.6250
  525MOL0     H72403   2.097   4.559  10.414 -0.8862 -2.0579 -2.1336
  525MOL0     H72404   2.192   4.456  10.202 -3.7584  0.9804 -0.0081
  525MOL0     H72405   2.242   4.312  10.287 -1.0164 -0.1622  3.4582
  525MOL0     H72406   1.957   4.416  10.244  2.4311  2.4428  0.8247
  525MOL0     H72407   2.035   4.276  10.161  5.7163 -0.3427  0.8091
  525MOL0     H72408   2.036   4.173  10.597  0.4560 -1.4971  1.2668
  525MOL0     H72409   2.251   3.920  10.728  0.7769  2.4455  1.1257
  525MOL0     H72410   2.067   3.910  10.748 -0.6550  0.4794  0.5197
  525MOL0     H72411   2.148   4.060  10.752 -2.5654 -1.2511  3.0738
  525MOL0     H72412   2.275   3.505  10.335 -0.0804 -1.9457 -0.7884
  525MOL0     H72413   2.384   3.287  10.368 -1.9706  4.2360 -4.2028
  525MOL0     H72414   2.486   3.129  10.624  0.4720  2.3218  0.1512
  525MOL0     H72415   2.483   3.112  10.444 -1.9677 -0.0770  1.6067
  525MOL0     H72416   2.716   2.995  10.487  2.2783 -6.5181  2.4058
  525MOL0     H72417   2.690   3.052  10.654 -2.5807  2.1006  1.1749
  525MOL0     H72418   2.504   2.891  10.690  2.5578 -1.5064  0.6577
  525MOL0     H72419   2.643   2.818  10.620  1.1212  0.3032 -2.0176
  525MOL0     H72420   2.408   2.891  10.440  0.0793  0.7479  0.0353
  525MOL0     H72421   2.433   2.735  10.531 -1.1265 -0.2538 -0.5822
  525MOL0     H72422   2.529   2.728  10.283  1.4440 -3.3433  1.1000
  525MOL0     H72423   2.609   2.879  10.326  0.2347  0.5615  2.6382
  525MOL0     H72424   2.755   2.725  10.479  1.7880  5.4217 -2.6760
  525MOL0     H72425   2.754   2.699  10.307 -1.4176 -0.1452 -0.3354
  525MOL0     H72426   2.611   2.507  10.309  0.1463 -1.3477  0.9086
  525MOL0     H72427   2.585   2.516  10.494  0.7137  2.4716  0.7303
  525MOL0     H72428   2.734   2.351  10.448 -0.8660 -0.6557  0.1646
  525MOL0     H72429   2.840   2.466  10.523  2.2820  1.2246 -2.2174
  525MOL0     H72430   2.679   3.477  10.599  0.8425 -0.3199 -1.2477
  525MOL0     H72431   2.546   3.698  10.598 -0.8093  0.5972  0.6008
  525MOL0     H72432   2.150   3.864  10.242  1.4417  0.0981  0.2042
  525MOL0     H72433   2.039   4.064  10.192  1.9498 -1.1253 -0.3790
  525MOL0     H72434   2.598   3.774   9.543  3.3619 -1.8898 -0.2764
  525MOL0     H72435   2.614   3.574   9.397 -0.0192 -0.8448 -0.2259
  525MOL0     H72436   2.654   3.167   9.436 -3.2495  0.7306 -0.9071
  525MOL0     H72437   2.792   2.988   9.347  0.7784  0.1879 -0.0253
  525MOL0     H72438   2.922   3.064   8.953 -1.0227 -1.3974 -1.2451
  525MOL0     H72439   3.035   3.051   9.094  1.4822 -3.2491  0.8104
  525MOL0     H72440   3.103   2.815   9.031 -1.6063  0.0807  1.7069
  525MOL0     H72441   3.150   2.926   8.901  1.3894  0.0129  2.6479
  525MOL0     H72442   2.893   2.784   8.909  0.4379 -0.9274 -1.0860
  525MOL0     H72443   2.950   2.872   8.762 -0.6121 -1.0221 -1.1670
  525MOL0     H72444   2.963   2.603   8.782 -0.8545  0.1242  3.1291
  525MOL0     H72445   3.103   2.643   8.879  0.4400 -0.2014  0.0392
  525MOL0     H72446   3.186   2.688   8.457  2.1847 -3.0037  1.5835
  525MOL0     H72447   2.696   3.103   8.946 -2.2281  0.7523  0.2791
  525MOL0     H72448   2.540   3.276   8.886 -0.1093 -1.0060 -0.8732
  525MOL0     H72449   2.420   3.294   9.020 -0.1755  1.0763  0.7849
  525MOL0     H72450   2.562   3.399   9.012 -1.0131  0.1048  1.9122
  526MOL0     O72451   0.666   5.069   3.217  1.1810  0.4732  0.3255
  526MOL0     C72452   0.616   5.089   3.334  0.8276  0.0454  0.2718
  526MOL0     O72453   0.597   5.214   3.391  0.4467  0.4181  0.9088
  526MOL0     C72454   0.670   5.308   3.333  0.3499 -0.5840 -0.2837
  526MOL0     C72455   0.792   5.334   3.392 -0.6025 -0.3065  0.0452
  526MOL0     C72456   0.879   5.434   3.334  0.6778  0.3399  0.0653
  526MOL0     C72457   0.845   5.507   3.219 -0.6506  0.1326  0.7916
  526MOL0     O72458   0.920   5.612   3.170  0.8895 -0.3328  0.4543
  526MOL0     C72459   1.058   5.577   3.170 -0.4597 -0.3888 -0.2811
  526MOL0     C72460   1.154   5.679   3.103 -0.8319  0.8969 -0.5244
  526MOL0     C72461   1.097   5.747   2.971 -0.0472  0.0948 -0.0566
  526MOL0     C72462   1.208   5.810   2.884  0.0745 -0.3469  0.4928
  526MOL0     C72463   1.170   5.815   2.729  0.2537  0.7448 -0.0878
  526MOL0     C72464   1.288   5.878   2.656 -0.5684 -0.9896 -0.2563
  526MOL0     C72465   1.397   5.774   2.630  0.7533 -0.5347  0.3561
  526MOL0     C72466   1.502   5.771   2.736 -0.1982 -1.2718  0.3507
  526MOL0     N72467   1.615   5.836   2.671  0.2708 -0.7067  0.0963
  526MOL0     C72468   1.658   5.970   2.699 -0.4454  0.3680 -0.5633
  526MOL0     C72469   1.778   5.976   2.626  0.3298 -0.2588  0.1445
  526MOL0     C72470   1.888   6.078   2.642  0.1872 -0.4450 -1.1492
  526MOL0     C72471   1.942   6.140   2.517 -1.1440  0.2863 -0.1675
  526MOL0     C72472   2.024   6.272   2.532  1.5879  0.4181 -0.0883
  526MOL0     C72473   2.110   6.267   2.667  0.4449  0.5450 -0.5137
  526MOL0     O72474   2.211   6.177   2.630  0.3259  0.3152  0.3928
  526MOL0     C72475   2.308   6.166   2.727  0.0202  0.6693  0.0266
  526MOL0     C72476   2.430   6.231   2.719 -0.2179  1.2059  0.4592
  526MOL0     C72477   2.525   6.217   2.826  0.9628 -0.7666  0.2542
  526MOL0     C72478   2.649   6.304   2.812  0.6621 -0.0973 -0.2656
  526MOL0     C72479   2.500   6.131   2.937  0.6288 -1.0473  0.4037
  526MOL0     C72480   2.561   6.130   3.070  0.2441  0.5350  0.1930
  526MOL0     O72481   2.524   6.032   3.161  0.3087  0.5562  0.0114
  526MOL0     C72482   2.557   6.051   3.293 -0.4283 -0.0154 -0.8636
  526MOL0     C72483   2.587   5.936   3.366  0.3953 -0.4136 -0.0931
  526MOL0     C72484   2.602   5.941   3.503 -0.5984  0.8067  0.2494
  526MOL0     C72485   2.597   6.064   3.575 -0.6325 -0.6674 -0.5401
  526MOL0     O72486   2.624   6.087   3.711 -0.1842 -0.2795  0.0297
  526MOL0     C72487   2.646   5.978   3.799 -0.1769  0.5407  0.4438
  526MOL0     C72488   2.650   6.039   3.945  0.2106 -1.1679 -0.4476
  526MOL0     C72489   2.550   6.148   3.968 -0.0168 -0.2194 -0.9906
  526MOL0     C72490   2.543   6.181   4.118 -0.4549 -0.7730 -0.8637
  526MOL0     C72491   2.477   6.320   4.148  0.6024 -1.1638  0.2409
  526MOL0     C72492   2.491   6.356   4.299 -0.0257  0.0732  0.4933
  526MOL0     C72493   2.441   6.497   4.341  0.3967  0.1359  0.9719
  526MOL0     C72494   2.406   6.508   4.484  1.5336 -0.9960  0.3716
  526MOL0    Cl72495   2.231   6.465   4.501 -0.1006  0.4814  0.1749
  526MOL0     C72496   2.563   6.182   3.506  0.5566  0.8464  0.2578
  526MOL0     C72497   2.541   6.170   3.366  0.3522 -0.2604  0.6282
  526MOL0     O72498   2.658   6.203   3.075  0.4256 -0.2112 -0.8379
  526MOL0     C72499   2.373   6.063   2.934 -0.3120  0.5791  0.1582
  526MOL0     C72500   2.289   6.078   2.833  1.0644  0.3336 -0.4656
  526MOL0     N72501   1.799   5.849   2.563  0.0583 -0.5546 -0.5201
  526MOL0     N72502   1.699   5.768   2.591  0.8353  0.3034 -0.4063
  526MOL0     C72503   0.720   5.475   3.164  0.2654  0.1165 -0.8712
  526MOL0     C72504   0.629   5.380   3.218 -0.0756  0.4270 -0.2281
  526MOL0     C72505   0.547   4.984   3.396  0.1722 -0.4187 -1.4404
  526MOL0     C72506   0.403   4.986   3.390 -0.7340  0.1839  0.0210
  526MOL0     C72507   0.324   4.881   3.438  0.6284  0.2251  0.4693
  526MOL0     C72508   0.391   4.786   3.513 -0.6749  0.2801  0.4798
  526MOL0     O72509   0.328   4.678   3.576 -1.0046 -0.0098  0.2337
  526MOL0     C72510   0.181   4.669   3.598  0.0158 -0.0150  0.4707
  526MOL0     C72511   0.129   4.746   3.710  0.0767 -0.1900  0.1014
  526MOL0     C72512  -0.028   4.747   3.716  0.7047 -0.5619  0.0336
  526MOL0     C72513  -0.087   4.759   3.859 -0.5684 -0.5892  0.5194
  526MOL0     C72514  -0.091   4.637   3.935  0.0487  1.1974  0.5726
  526MOL0     C72515  -0.118   4.536   4.002  0.1038 -0.8168  0.5170
  526MOL0     C72516   0.531   4.793   3.527 -0.2607  0.0199 -1.2566
  526MOL0     C72517   0.614   4.888   3.468 -0.5029 -0.1769  0.1247
  526MOL0     C72518   0.767   4.891   3.488  0.2487 -0.5326  0.0976
  526MOL0     H72519   0.822   5.283   3.483 -2.7759 -1.1725  0.3426
  526MOL0     H72520   0.978   5.438   3.377  2.2520  0.1570 -3.1967
  526MOL0     H72521   1.068   5.487   3.109 -1.6724 -3.2376  3.3549
  526MOL0     H72522   1.095   5.544   3.268 -0.0531  2.2679  0.5403
  526MOL0     H72523   1.179   5.752   3.180 -0.2006  0.7278 -0.5608
  526MOL0     H72524   1.244   5.623   3.075 -2.1327 -1.3380 -0.4385
  526MOL0     H72525   1.037   5.675   2.915 -0.5228 -1.1201  1.8878
  526MOL0     H72526   1.038   5.835   3.001  1.9005  0.9091  1.6868
  526MOL0     H72527   1.224   5.909   2.926  1.1410 -1.6309  3.3900
  526MOL0     H72528   1.300   5.755   2.906  0.4495 -0.0030 -0.2103
  526MOL0     H72529   1.081   5.877   2.718 -1.7790 -1.7032  1.3064
  526MOL0     H72530   1.165   5.710   2.699  3.8313  0.6247 -0.7609
  526MOL0     H72531   1.268   5.919   2.557  0.1973 -2.1093 -0.9021
  526MOL0     H72532   1.330   5.955   2.721  1.3346  0.2294 -2.7989
  526MOL0     H72533   1.441   5.791   2.532  0.0333 -0.2368  0.0721
  526MOL0     H72534   1.348   5.676   2.626 -0.2576 -0.0761  0.8335
  526MOL0     H72535   1.479   5.819   2.831 -1.9851 -1.5734  0.1060
  526MOL0     H72536   1.524   5.665   2.751  0.5179 -1.1426  0.2697
  526MOL0     H72537   1.634   6.034   2.783 -1.2933 -2.1834  1.2706
  526MOL0     H72538   1.976   6.037   2.693 -2.1142 -1.5996  2.2257
  526MOL0     H72539   1.860   6.156   2.713  4.3052  2.5512 -2.4305
  526MOL0     H72540   2.008   6.061   2.481 -0.6721 -0.0294  1.3169
  526MOL0     H72541   1.868   6.133   2.437 -1.4405 -1.4049  0.2247
  526MOL0     H72542   2.087   6.278   2.443  0.0455 -0.8589 -1.3233
  526MOL0     H72543   1.957   6.359   2.536  1.0756  0.1632 -2.0069
  526MOL0     H72544   2.152   6.367   2.685  3.3050 -0.7782  0.7265
  526MOL0     H72545   2.065   6.239   2.762  2.3831 -1.8926 -0.2064
  526MOL0     H72546   2.460   6.293   2.634  0.0738  0.2543 -0.1451
  526MOL0     H72547   2.667   6.338   2.709  0.6594  0.6811 -0.0144
  526MOL0     H72548   2.742   6.251   2.835  0.2464 -0.4930  0.5011
  526MOL0     H72549   2.645   6.392   2.876 -1.1457 -0.8652  0.7383
  526MOL0     H72550   2.583   5.839   3.318  2.2355 -0.0455 -1.0845
  526MOL0     H72551   2.609   5.851   3.563  0.1409  2.2514  2.4729
  526MOL0     H72552   2.558   5.914   3.795 -0.5398  1.0573 -0.0432
  526MOL0     H72553   2.736   5.917   3.783 -0.8265 -0.0951 -0.9026
  526MOL0     H72554   2.634   5.964   4.023  4.5631 -0.9907  0.8951
  526MOL0     H72555   2.740   6.098   3.966  1.9038 -3.6364 -0.2943
  526MOL0     H72556   2.454   6.118   3.926 -0.0569 -0.9941 -0.3817
  526MOL0     H72557   2.593   6.227   3.906  0.0025 -0.2795 -1.0527
  526MOL0     H72558   2.644   6.187   4.161 -1.2484 -2.9157  1.5433
  526MOL0     H72559   2.493   6.110   4.184  3.9470 -1.0087  2.6729
  526MOL0     H72560   2.530   6.390   4.083 -1.0003 -1.7691 -1.8244
  526MOL0     H72561   2.369   6.329   4.129  0.1721  1.1262  3.0577
  526MOL0     H72562   2.597   6.348   4.325  0.4892  2.7984 -0.4898
  526MOL0     H72563   2.425   6.289   4.354 -0.8216  0.0568 -0.4589
  526MOL0     H72564   2.356   6.526   4.278  0.9926 -1.4108 -0.6358
  526MOL0     H72565   2.524   6.567   4.324  0.3976  0.7449  3.1749
  526MOL0     H72566   2.426   6.611   4.513 -3.6497  0.3408  0.2148
  526MOL0     H72567   2.471   6.461   4.558  2.0234 -1.1706 -0.1617
  526MOL0     H72568   2.547   6.273   3.562 -3.5101 -1.8393  4.1499
  526MOL0     H72569   2.493   6.256   3.321 -1.4002  0.0939  2.9877
  526MOL0     H72570   2.336   5.998   3.013 -3.1767  2.0273  0.0973
  526MOL0     H72571   2.192   6.036   2.854  0.7044  1.3090 -0.0952
  526MOL0     H72572   0.679   5.541   3.088 -2.8619  0.6667  1.1389
  526MOL0     H72573   0.529   5.360   3.183 -0.2275  0.7057  0.0476
  526MOL0     H72574   0.370   5.072   3.332 -0.1074  0.8950  0.7090
  526MOL0     H72575   0.219   4.892   3.410  0.9157  1.1847 -0.3109
  526MOL0     H72576   0.138   4.712   3.507 -0.4338 -2.7518 -0.6969
  526MOL0     H72577   0.151   4.564   3.605 -0.4069  0.1921  2.4465
  526MOL0     H72578   0.160   4.850   3.695  1.7085 -0.6573 -0.0201
  526MOL0     H72579   0.170   4.717   3.807  1.5097  1.7682  0.1334
  526MOL0     H72580  -0.060   4.838   3.665 -1.1957 -0.9759  0.4076
  526MOL0     H72581  -0.073   4.664   3.661 -2.1730  0.2165  1.0382
  526MOL0     H72582  -0.193   4.783   3.844 -0.0942  0.2830 -2.0214
  526MOL0     H72583  -0.042   4.841   3.916 -0.1564 -0.4865  0.0499
  526MOL0     H72584  -0.139   4.453   4.065  0.8994 -0.7606  0.8653
  526MOL0     H72585   0.566   4.715   3.594 -1.7823  0.6227  0.2936
  526MOL0     H72586   0.801   4.799   3.536 -2.9209 -0.4358  2.8646
  526MOL0     H72587   0.808   4.889   3.387  0.4081 -2.4859  0.1753
  526MOL0     H72588   0.793   4.983   3.542  0.5677 -0.3907 -0.2903
  527MOL0     O72589   8.518   7.525   1.405  0.7649  0.1620  0.7850
  527MOL0     C72590   8.595   7.547   1.501  0.4243  0.5803  0.3704
  527MOL0     O72591   8.579   7.639   1.585 -0.8614 -0.0269 -0.0485
  527MOL0     C72592   8.489   7.733   1.554  0.1900  0.2426  0.3887
  527MOL0     C72593   8.363   7.733   1.617 -1.0232  0.0963  0.2315
  527MOL0     C72594   8.284   7.850   1.610  0.2784  0.6800 -0.1140
  527MOL0     C72595   8.317   7.961   1.535  0.2343 -0.4440  0.0029
  527MOL0     O72596   8.236   8.069   1.538  0.0538  0.6384  0.3272
  527MOL0     C72597   8.244   8.174   1.442 -0.1093  0.1864 -0.0843
  527MOL0     C72598   8.136   8.276   1.468 -0.6382 -0.0263  0.5421
  527MOL0     C72599   8.152   8.389   1.367 -0.2189 -0.3245  0.7178
  527MOL0     C72600   8.031   8.485   1.359  0.1552  0.5298 -0.3626
  527MOL0     C72601   7.940   8.425   1.253 -0.4351 -0.3234  0.0573
  527MOL0     C72602   7.807   8.506   1.258  0.1046 -0.6095 -0.4909
  527MOL0     C72603   7.690   8.440   1.172  0.1070 -0.0065 -0.0572
  527MOL0     C72604   7.559   8.519   1.179  0.6034 -0.2690  0.3399
  527MOL0     N72605   7.438   8.435   1.149  1.0358  0.2311 -0.3602
  527MOL0     C72606   7.345   8.448   1.048 -0.6714  0.3659  0.5802
  527MOL0     C72607   7.240   8.373   1.077  0.3969  0.4832  0.2055
  527MOL0     C72608   7.117   8.383   0.990  0.2229  0.4782  0.5774
  527MOL0     C72609   6.985   8.357   1.048 -1.0278  0.6562 -0.0607
  527MOL0     C72610   6.954   8.219   1.115  0.0420  0.1293 -0.3668
  527MOL0     C72611   6.973   8.094   1.022  0.1296 -0.8525  1.0341
  527MOL0     O72612   6.884   7.989   1.070 -0.3614 -0.1623 -1.0905
  527MOL0     C72613   6.851   7.882   0.985  0.4294 -0.1527 -0.3980
  527MOL0     C72614   6.756   7.798   1.041  0.1380  0.7623 -0.2421
  527MOL0     C72615   6.716   7.677   0.984 -0.9641  0.7423 -0.3848
  527MOL0     C72616   6.608   7.603   1.053  0.9785  0.2611  0.5098
  527MOL0     C72617   6.766   7.637   0.858 -0.4145  0.3403 -0.5639
  527MOL0     C72618   6.740   7.508   0.785  0.9914 -0.3758 -0.8817
  527MOL0     O72619   6.825   7.483   0.683 -0.3268  0.7523 -0.2433
  527MOL0     C72620   6.812   7.385   0.588 -0.6216  0.3225 -0.7873
  527MOL0     C72621   6.863   7.424   0.467  0.6286  0.2555 -0.1282
  527MOL0     C72622   6.856   7.336   0.358  0.0807  0.5416 -0.6056
  527MOL0     C72623   6.818   7.206   0.372  0.6295  0.5100 -0.1810
  527MOL0     O72624   6.809   7.120   0.259  0.0007  0.7325  0.1919
  527MOL0     C72625   6.741   6.992   0.266  0.4635  0.2539  0.0967
  527MOL0     C72626   6.748   6.929   0.124  0.5870  0.6051 -0.7372
  527MOL0     C72627   6.710   7.025   0.015 -0.4136  1.3652 -0.6863
  527MOL0     C72628   6.561   7.067   0.011 -0.6223  0.4637  0.2015
  527MOL0     C72629   6.534   7.159  -0.110  0.3157 -0.4030 -0.2963
  527MOL0     C72630   6.612   7.295  -0.111  0.1814 -0.8022 -0.4909
  527MOL0     C72631   6.597   7.366  -0.245  0.2845  0.2866 -0.0801
  527MOL0     C72632   6.651   7.287  -0.366 -0.2919  0.1189  0.1662
  527MOL0    Cl72633   6.622   7.407  -0.505  0.5317  0.2210 -0.5458
  527MOL0     C72634   6.771   7.165   0.496  0.0083 -0.8859  1.0245
  527MOL0     C72635   6.770   7.253   0.605 -0.0100  0.1587  0.0640
  527MOL0     O72636   6.634   7.448   0.810  0.6929 -0.1635  0.1971
  527MOL0     C72637   6.875   7.722   0.808 -0.5747  0.7227 -0.2534
  527MOL0     C72638   6.917   7.837   0.864  0.6342 -0.6567 -1.1196
  527MOL0     N72639   7.276   8.296   1.194  0.3529 -0.5133  0.5382
  527MOL0     N72640   7.396   8.336   1.239 -0.1815 -1.0825 -0.3739
  527MOL0     C72641   8.434   7.947   1.452 -0.9819  0.6813 -0.2700
  527MOL0     C72642   8.519   7.839   1.466  0.4144 -0.1850  0.1865
  527MOL0     C72643   8.706   7.461   1.517  0.9157  0.7652 -0.3516
  527MOL0     C72644   8.710   7.390   1.646  0.2354  0.0529 -0.3803
  527MOL0     C72645   8.805   7.289   1.665  0.0617 -0.2130  0.6903
  527MOL0     C72646   8.893   7.264   1.564 -0.7972 -0.0115  1.0836
  527MOL0     O72647   8.982   7.163   1.593  0.0387  0.1909  0.2719
  527MOL0     C72648   9.059   7.106   1.480 -0.5196  0.4822  0.5540
  527MOL0     C72649   9.117   6.979   1.534 -0.4618 -0.3181  0.1789
  527MOL0     C72650   9.083   6.843   1.456  1.5316  0.4880 -0.5922
  527MOL0     C72651   9.196   6.743   1.490 -0.3326 -0.7783 -0.6210
  527MOL0     C72652   9.216   6.713   1.637 -0.2287  0.3577 -0.0059
  527MOL0     C72653   9.242   6.678   1.751  1.0709  0.8020 -0.4699
  527MOL0     C72654   8.891   7.334   1.445  0.4986 -0.2688  0.2635
  527MOL0     C72655   8.801   7.435   1.417  0.4003  0.3042 -0.6861
  527MOL0     C72656   8.810   7.507   1.282  0.6962  0.9054 -0.1045
  527MOL0     H72657   8.331   7.650   1.680 -0.2819  0.5182  1.1847
  527MOL0     H72658   8.204   7.862   1.683  0.6049  2.8677 -0.0404
  527MOL0     H72659   8.224   8.131   1.343 -1.2548  0.0761  0.1904
  527MOL0     H72660   8.345   8.216   1.432 -0.9521  1.9860 -1.8324
  527MOL0     H72661   8.036   8.234   1.479  0.0093 -1.9009 -0.2580
  527MOL0     H72662   8.153   8.316   1.568  1.4338  0.5422  0.0055
  527MOL0     H72663   8.237   8.444   1.410  1.2743 -1.3257 -0.8145
  527MOL0     H72664   8.176   8.353   1.266 -0.4461  1.1104  0.1374
  527MOL0     H72665   7.988   8.493   1.459 -1.0176  2.3684 -0.9623
  527MOL0     H72666   8.068   8.583   1.328  5.0689 -0.6355  0.8943
  527MOL0     H72667   7.910   8.320   1.257 -0.0780 -0.6317 -3.0249
  527MOL0     H72668   7.998   8.431   1.161  1.6620  0.6085  1.3385
  527MOL0     H72669   7.768   8.507   1.360  1.9218  2.2599  0.2785
  527MOL0     H72670   7.818   8.610   1.227 -0.9482 -1.0251 -2.4517
  527MOL0     H72671   7.675   8.341   1.218  0.6103 -0.3478 -0.6084
  527MOL0     H72672   7.710   8.417   1.066  0.3308 -0.5003  0.0851
  527MOL0     H72673   7.556   8.573   1.274  1.1699  0.6115 -0.1260
  527MOL0     H72674   7.560   8.591   1.097  0.3232 -2.9056 -2.1225
  527MOL0     H72675   7.367   8.510   0.962  0.1347  2.0889  1.9497
  527MOL0     H72676   7.135   8.313   0.908  1.4676  2.2017 -0.7063
  527MOL0     H72677   7.117   8.487   0.954 -0.4547  0.1623 -0.3680
  527MOL0     H72678   6.973   8.429   1.129  1.4265 -0.1360  1.0836
  527MOL0     H72679   6.907   8.379   0.974 -0.3739  0.8153 -0.7188
  527MOL0     H72680   7.022   8.205   1.200  2.1945  4.4332 -1.1000
  527MOL0     H72681   6.854   8.223   1.158 -0.3571 -5.2684 -0.1273
  527MOL0     H72682   6.947   8.124   0.920  2.7325 -1.4432  0.1261
  527MOL0     H72683   7.079   8.067   1.022  0.4505  0.2195  3.0768
  527MOL0     H72684   6.717   7.829   1.138  2.8982 -0.4247  1.3486
  527MOL0     H72685   6.630   7.499   1.079 -3.1842 -0.7530  0.5363
  527MOL0     H72686   6.519   7.603   0.990  1.1138  2.9675  0.2131
  527MOL0     H72687   6.583   7.654   1.147 -2.7252 -1.0401  0.3737
  527MOL0     H72688   6.918   7.515   0.443  1.5390 -0.2993 -0.2268
  527MOL0     H72689   6.899   7.362   0.262  1.1463  1.1945  0.0090
  527MOL0     H72690   6.791   6.918   0.330 -0.2278 -0.5347 -0.2604
  527MOL0     H72691   6.640   7.014   0.302 -0.5619 -3.3838 -0.1360
  527MOL0     H72692   6.849   6.887   0.121  1.0266  1.0724  2.8307
  527MOL0     H72693   6.681   6.842   0.122 -0.9252  1.6309  1.1531
  527MOL0     H72694   6.734   6.978  -0.081 -1.3604  1.3540 -0.9355
  527MOL0     H72695   6.780   7.109   0.019  3.5591 -1.5570 -2.1788
  527MOL0     H72696   6.536   7.107   0.110  1.8262  2.3251  0.1848
  527MOL0     H72697   6.507   6.975  -0.010 -2.7844  1.1137  2.3785
  527MOL0     H72698   6.557   7.103  -0.201  0.9829  0.7107 -0.8298
  527MOL0     H72699   6.432   7.196  -0.103  0.3297 -0.5961  1.4548
  527MOL0     H72700   6.718   7.282  -0.090  0.1749  1.6267  1.5896
  527MOL0     H72701   6.577   7.358  -0.028  0.3755  1.8994 -2.3245
  527MOL0     H72702   6.644   7.465  -0.247  1.1271 -0.0454 -4.3671
  527MOL0     H72703   6.492   7.386  -0.269 -0.1563 -0.5434  1.0524
  527MOL0     H72704   6.591   7.196  -0.376  0.7486 -1.1224  3.6941
  527MOL0     H72705   6.757   7.260  -0.361  0.6698  2.2213 -4.1003
  527MOL0     H72706   6.743   7.064   0.525  2.0446 -1.6479  0.5114
  527MOL0     H72707   6.739   7.205   0.698  2.8417 -1.0099  0.5102
  527MOL0     H72708   6.929   7.699   0.717 -0.9201  0.0452 -0.2983
  527MOL0     H72709   6.999   7.898   0.825  0.5912 -0.0728 -0.3051
  527MOL0     H72710   8.474   8.022   1.384  1.7767 -0.4707 -0.0305
  527MOL0     H72711   8.608   7.836   1.404  0.4109 -0.5707  0.2006
  527MOL0     H72712   8.628   7.414   1.713 -2.3379 -1.2208 -2.8791
  527MOL0     H72713   8.816   7.257   1.768  0.9694 -1.1110  0.3278
  527MOL0     H72714   8.987   7.069   1.407 -1.1441  0.1734  1.3032
  527MOL0     H72715   9.135   7.175   1.442 -1.1812  0.5876 -0.6316
  527MOL0     H72716   9.081   6.967   1.636 -2.4973  1.1841 -0.3099
  527MOL0     H72717   9.226   6.985   1.534 -0.4571  0.6101  2.3073
  527MOL0     H72718   8.990   6.798   1.491  2.0622 -1.7674 -1.8416
  527MOL0     H72719   9.076   6.871   1.351 -0.8433  0.5483 -0.4519
  527MOL0     H72720   9.295   6.775   1.455 -0.0097  0.7626  1.4809
  527MOL0     H72721   9.166   6.646   1.451  0.9167 -1.3553 -0.2213
  527MOL0     H72722   9.285   6.642   1.842  1.8792  2.6418 -0.0777
  527MOL0     H72723   8.976   7.305   1.382  3.3085  1.4392  2.9832
  527MOL0     H72724   8.750   7.599   1.292 -0.4144  0.5425 -2.7740
  527MOL0     H72725   8.907   7.548   1.256  0.6046  1.4801  0.4190
  527MOL0     H72726   8.777   7.450   1.195  2.4020 -1.8231  0.9389
  528MOL0     O72727   6.366   4.995   8.925 -0.8399  1.0739  0.4529
  528MOL0     C72728   6.396   4.975   8.807  0.0343 -0.1573  0.6457
  528MOL0     O72729   6.366   4.868   8.734  0.3262  0.9039  0.6037
  528MOL0     C72730   6.289   4.765   8.783 -0.0204  0.9385  0.5582
  528MOL0     C72731   6.171   4.793   8.856  0.2238 -0.3628  0.2586
  528MOL0     C72732   6.083   4.700   8.901  0.1365  0.7375  0.4245
  528MOL0     C72733   6.104   4.569   8.855  0.1614 -0.2797 -1.4286
  528MOL0     O72734   6.017   4.480   8.916  0.4362  0.4446 -0.2044
  528MOL0     C72735   6.054   4.338   8.940 -0.0297  0.0864  0.9341
  528MOL0     C72736   5.937   4.267   9.008 -0.2343  0.7006  0.5365
  528MOL0     C72737   5.962   4.135   9.089 -0.5567 -0.3665 -0.4468
  528MOL0     C72738   6.041   4.033   9.017 -0.3971 -0.0770  0.3193
  528MOL0     C72739   6.090   3.918   9.100  0.7118  0.7046 -0.0443
  528MOL0     C72740   6.099   3.799   9.007 -0.1167  0.0257  0.5554
  528MOL0     C72741   6.102   3.666   9.086 -0.1782  0.2849  0.4270
  528MOL0     C72742   6.233   3.670   9.182  1.0041  0.3742 -1.0723
  528MOL0     N72743   6.253   3.540   9.260  0.1626 -0.6660  0.4010
  528MOL0     C72744   6.164   3.445   9.297 -1.2236 -0.2130 -0.7029
  528MOL0     C72745   6.230   3.370   9.387  0.0811  0.6167  0.5183
  528MOL0     C72746   6.180   3.237   9.454 -0.1085 -0.0492 -0.3751
  528MOL0     C72747   6.214   3.108   9.375  0.5286 -0.4397 -0.8294
  528MOL0     C72748   6.108   3.048   9.291 -0.0889 -0.3773  0.4021
  528MOL0     C72749   6.049   3.145   9.175  0.1691  0.3412  0.4786
  528MOL0     O72750   5.996   3.053   9.079 -0.1890 -0.5077  0.6492
  528MOL0     C72751   5.987   3.100   8.952  0.4259  0.2009  0.4293
  528MOL0     C72752   5.916   3.215   8.911 -2.1850 -0.1944  0.1990
  528MOL0     C72753   5.919   3.261   8.785  0.0910 -0.2870 -0.5004
  528MOL0     C72754   5.846   3.393   8.768 -0.1917  0.4363 -1.3026
  528MOL0     C72755   5.977   3.175   8.685  0.0136 -0.7632 -0.5220
  528MOL0     C72756   5.981   3.222   8.540  0.1057  0.1722  0.7462
  528MOL0     O72757   5.987   3.121   8.452 -0.2090  0.1325 -0.5128
  528MOL0     C72758   6.038   3.144   8.331 -0.9737 -0.2621 -0.5386
  528MOL0     C72759   6.039   3.269   8.258  0.3999  0.1787 -0.6595
  528MOL0     C72760   6.082   3.282   8.127  0.6995 -0.1673 -1.1130
  528MOL0     C72761   6.131   3.164   8.063  0.1081 -0.0588 -0.0077
  528MOL0     O72762   6.172   3.145   7.936 -0.1829 -0.2380  0.0995
  528MOL0     C72763   6.238   3.259   7.881 -0.0450  0.3558 -0.4482
  528MOL0     C72764   6.365   3.323   7.950 -0.2153 -0.5089 -0.2231
  528MOL0     C72765   6.493   3.238   7.929 -0.0134  0.0927  0.3835
  528MOL0     C72766   6.602   3.325   7.859  0.0132  0.1852 -1.1910
  528MOL0     C72767   6.680   3.412   7.954  0.2617  0.5360 -0.2108
  528MOL0     C72768   6.805   3.466   7.886 -1.1095  0.1889  0.7897
  528MOL0     C72769   6.927   3.504   7.976 -0.3139 -0.3461  0.2482
  528MOL0     C72770   7.019   3.597   7.905 -0.2234 -0.0727 -0.2203
  528MOL0    Cl72771   7.097   3.495   7.795  0.4153 -0.6168 -0.1736
  528MOL0     C72772   6.128   3.039   8.136 -0.5612 -0.2033 -0.4938
  528MOL0     C72773   6.090   3.029   8.269 -0.6639  0.1766  0.4633
  528MOL0     O72774   5.969   3.335   8.511  0.8963  0.3921  0.2058
  528MOL0     C72775   6.038   3.059   8.713  0.3331  0.2299 -0.6027
  528MOL0     C72776   6.057   3.024   8.852  0.8214 -0.0025  0.6492
  528MOL0     N72777   6.358   3.413   9.401 -0.4431 -0.1945  0.1029
  528MOL0     N72778   6.374   3.511   9.328 -0.3728  0.7052 -1.1159
  528MOL0     C72779   6.215   4.536   8.785  0.2822 -0.5107  0.5721
  528MOL0     C72780   6.300   4.633   8.737  0.4951 -0.7905  0.7170
  528MOL0     C72781   6.481   5.075   8.747 -0.2990 -0.8636 -0.6972
  528MOL0     C72782   6.531   5.179   8.826 -0.5843  0.7180 -0.6453
  528MOL0     C72783   6.601   5.289   8.771 -0.0844 -0.7507  0.1185
  528MOL0     C72784   6.609   5.293   8.631 -0.1278 -0.6879  0.8498
  528MOL0     O72785   6.660   5.405   8.566 -0.1773 -0.2054  0.3404
  528MOL0     C72786   6.578   5.517   8.553  0.6702 -0.1762  0.0236
  528MOL0     C72787   6.627   5.628   8.452  0.3579  0.7096  0.3490
  528MOL0     C72788   6.694   5.744   8.529  0.0821  0.9286 -0.8582
  528MOL0     C72789   6.730   5.858   8.436  0.1195  0.1370  0.4743
  528MOL0     C72790   6.780   5.967   8.515 -1.0608 -0.5850 -0.8051
  528MOL0     C72791   6.796   6.060   8.587  0.9029 -0.7004  0.3088
  528MOL0     C72792   6.558   5.194   8.552 -0.2231  0.5961  0.4643
  528MOL0     C72793   6.495   5.082   8.603  0.5398 -0.4537 -0.1666
  528MOL0     C72794   6.446   4.975   8.504 -0.0466  0.6472 -0.5128
  528MOL0     H72795   6.151   4.897   8.883  1.3430  0.3283 -1.4167
  528MOL0     H72796   5.998   4.727   8.963 -1.1104  1.9969 -1.6814
  528MOL0     H72797   6.147   4.327   8.996  0.4578 -0.2474  0.0841
  528MOL0     H72798   6.079   4.286   8.847 -1.1393  1.8504 -0.4190
  528MOL0     H72799   5.890   4.340   9.075  2.1642  1.2565  1.7710
  528MOL0     H72800   5.864   4.241   8.932 -0.7527  0.7513  1.0082
  528MOL0     H72801   5.995   4.166   9.189 -0.9287 -0.4473 -0.2990
  528MOL0     H72802   5.866   4.085   9.106 -0.4498 -0.7400 -0.9159
  528MOL0     H72803   5.973   3.995   8.940 -1.8910  2.3785  0.3188
  528MOL0     H72804   6.129   4.085   8.979 -0.3826  0.5821  1.2026
  528MOL0     H72805   6.014   3.899   9.176 -1.1815  0.2277 -1.9503
  528MOL0     H72806   6.187   3.944   9.143  0.8687 -0.7070  0.5252
  528MOL0     H72807   6.007   3.796   8.948 -0.8182  0.9878  1.5596
  528MOL0     H72808   6.185   3.814   8.941 -1.7056 -1.9087 -2.1411
  528MOL0     H72809   6.119   3.591   9.008 -2.1894  1.5527 -1.3084
  528MOL0     H72810   6.013   3.628   9.136  0.4326 -1.4873  0.2698
  528MOL0     H72811   6.326   3.704   9.136  0.9500  0.0989 -1.3901
  528MOL0     H72812   6.213   3.750   9.253  3.7841 -0.9630  1.4270
  528MOL0     H72813   6.063   3.418   9.267 -0.9084 -0.8372 -1.2338
  528MOL0     H72814   6.073   3.224   9.473  0.0573 -1.7088 -0.3849
  528MOL0     H72815   6.222   3.240   9.556 -0.3968 -0.0115 -0.2576
  528MOL0     H72816   6.301   3.123   9.310 -0.1865  0.8055 -1.5345
  528MOL0     H72817   6.263   3.032   9.437 -0.7821  0.4005  1.3837
  528MOL0     H72818   6.154   2.961   9.243 -0.0372 -1.7553  2.7960
  528MOL0     H72819   6.024   3.001   9.345  0.0826 -2.1237 -0.7595
  528MOL0     H72820   5.975   3.216   9.211  0.5915  1.0174  0.0577
  528MOL0     H72821   6.132   3.205   9.133 -0.5645  1.7369  0.9664
  528MOL0     H72822   5.865   3.271   8.989 -0.3261  2.0086 -0.0653
  528MOL0     H72823   5.737   3.385   8.766 -0.6024  2.2670  3.0828
  528MOL0     H72824   5.880   3.467   8.695  0.5060  2.1458  0.6706
  528MOL0     H72825   5.847   3.433   8.869 -0.7613 -2.1641 -0.1769
  528MOL0     H72826   5.981   3.357   8.283 -1.4863 -0.8322 -1.3174
  528MOL0     H72827   6.064   3.373   8.070 -1.7806 -0.7910 -1.4373
  528MOL0     H72828   6.263   3.219   7.783  1.7913  1.3735 -0.4312
  528MOL0     H72829   6.161   3.332   7.853  0.2296 -0.2494 -2.9773
  528MOL0     H72830   6.389   3.426   7.923  2.9386 -1.0273  0.1848
  528MOL0     H72831   6.351   3.319   8.058  0.1350 -0.9062 -0.1893
  528MOL0     H72832   6.473   3.165   7.850  1.8659  1.8084 -1.8093
  528MOL0     H72833   6.533   3.182   8.013 -0.1457 -0.1232  0.3049
  528MOL0     H72834   6.556   3.376   7.774  2.1036 -1.6423 -3.5987
  528MOL0     H72835   6.676   3.259   7.813  1.6913  0.6038  0.7637
  528MOL0     H72836   6.631   3.505   7.986 -0.7361  0.7136 -2.0736
  528MOL0     H72837   6.714   3.360   8.043 -0.3218  1.8012  0.7920
  528MOL0     H72838   6.779   3.559   7.835  1.0225  0.6783  0.4724
  528MOL0     H72839   6.841   3.400   7.806 -3.3359  0.6349 -0.6652
  528MOL0     H72840   6.977   3.410   8.002 -1.8514 -1.2117  0.1827
  528MOL0     H72841   6.882   3.553   8.062  1.9094  0.8747  0.7903
  528MOL0     H72842   7.087   3.638   7.980  1.2078 -1.9923 -0.3995
  528MOL0     H72843   6.980   3.683   7.849 -3.5013  0.2629  2.2713
  528MOL0     H72844   6.169   2.950   8.091 -1.6641 -2.5635  2.8018
  528MOL0     H72845   6.114   2.934   8.315  0.7031 -1.1821 -2.7563
  528MOL0     H72846   6.086   2.981   8.654 -0.0175  1.1067 -2.1024
  528MOL0     H72847   6.121   2.941   8.883 -0.1806 -0.4555  1.5688
  528MOL0     H72848   6.214   4.432   8.757  0.0619 -0.8712  1.8179
  528MOL0     H72849   6.390   4.616   8.678  0.3620  0.2939  0.1783
  528MOL0     H72850   6.527   5.164   8.934 -2.0623  0.9678 -0.6393
  528MOL0     H72851   6.639   5.377   8.821 -1.2179  0.2956 -0.7690
  528MOL0     H72852   6.483   5.478   8.515 -0.5531  0.3762  2.3543
  528MOL0     H72853   6.574   5.570   8.649  0.3872  1.3948 -0.8125
  528MOL0     H72854   6.543   5.675   8.401  0.1636  0.0621  0.0668
  528MOL0     H72855   6.703   5.585   8.387 -1.8069 -3.3464  0.1334
  528MOL0     H72856   6.625   5.773   8.609 -1.4145  1.8376 -2.4131
  528MOL0     H72857   6.785   5.708   8.577 -0.2085 -1.0433 -1.6743
  528MOL0     H72858   6.650   5.884   8.367  1.1372 -0.8191 -1.1344
  528MOL0     H72859   6.805   5.810   8.373 -2.4430 -1.0087 -1.9030
  528MOL0     H72860   6.796   6.146   8.651  2.5313 -0.8179  0.5222
  528MOL0     H72861   6.583   5.195   8.446 -0.0670 -2.2736  0.4091
  528MOL0     H72862   6.497   4.883   8.535  0.3058  0.4672 -1.5768
  528MOL0     H72863   6.339   4.953   8.506  0.3337 -1.3147  0.4436
  528MOL0     H72864   6.472   4.994   8.399  0.7149 -1.4630 -0.7540
  529MOL0     O72865  11.444   6.962   7.306 -0.1285  0.0691 -0.5829
  529MOL0     C72866  11.412   6.885   7.218 -0.0728 -0.0766  0.3545
  529MOL0     O72867  11.322   6.910   7.119  0.2169  0.9217 -0.1501
  529MOL0     C72868  11.279   7.031   7.074 -0.0499  0.0622  0.7618
  529MOL0     C72869  11.323   7.148   7.127  0.0149  0.3130  0.0336
  529MOL0     C72870  11.279   7.272   7.088  0.1165  0.2131  0.3500
  529MOL0     C72871  11.193   7.278   6.977  0.1007  0.0610  0.5162
  529MOL0     O72872  11.146   7.410   6.943 -0.6222  0.3954  0.0303
  529MOL0     C72873  11.070   7.422   6.813 -0.4787  0.1293  0.7868
  529MOL0     C72874  10.994   7.555   6.813  0.1291  0.0312  0.6755
  529MOL0     C72875  10.971   7.604   6.661 -0.3734 -0.0267  0.4639
  529MOL0     C72876  10.916   7.752   6.669 -0.0571 -0.7571  0.5051
  529MOL0     C72877  10.933   7.820   6.533 -0.2348  0.6942  1.3627
  529MOL0     C72878  10.852   7.942   6.525  0.0468 -0.1841  0.5279
  529MOL0     C72879  10.891   8.030   6.408  0.1564 -0.6575 -0.3413
  529MOL0     C72880  10.896   7.965   6.275 -0.4333  1.0629 -0.6786
  529MOL0     N72881  10.764   7.926   6.216  0.6710  0.1417 -0.1287
  529MOL0     C72882  10.693   8.029   6.149 -0.1538 -0.0016  0.1840
  529MOL0     C72883  10.596   7.963   6.087  0.1704  0.4481  0.8755
  529MOL0     C72884  10.495   8.026   5.995  0.2864  0.8795  0.6945
  529MOL0     C72885  10.528   7.999   5.842 -0.6141 -1.0549  0.4429
  529MOL0     C72886  10.413   8.036   5.742 -0.0337 -0.4789 -0.1068
  529MOL0     C72887  10.398   8.192   5.732  0.2881 -0.4203 -0.8605
  529MOL0     O72888  10.289   8.228   5.633 -1.1252  0.3092  0.0788
  529MOL0     C72889  10.171   8.256   5.697 -0.0330  0.3367  0.1424
  529MOL0     C72890  10.100   8.177   5.779 -0.2884 -0.0580  0.6475
  529MOL0     C72891   9.991   8.227   5.851  0.7592  0.0071 -0.4701
  529MOL0     C72892   9.917   8.139   5.948  0.5770  0.4580  0.7273
  529MOL0     C72893   9.947   8.357   5.826 -0.7977 -0.0155  0.2922
  529MOL0     C72894   9.842   8.419   5.902  0.1527  0.2700 -0.4164
  529MOL0     O72895   9.731   8.444   5.829 -0.2728  0.6792 -0.3260
  529MOL0     C72896   9.603   8.453   5.889 -0.4156 -0.2363  0.4977
  529MOL0     C72897   9.500   8.494   5.804 -0.2944 -0.4309  0.0923
  529MOL0     C72898   9.375   8.481   5.852 -0.5453 -0.2552 -0.1851
  529MOL0     C72899   9.342   8.450   5.979  0.1501 -0.2695 -0.3606
  529MOL0     O72900   9.214   8.431   6.022  0.1190 -0.2325 -0.3008
  529MOL0     C72901   9.125   8.378   5.926  0.5114 -0.4023 -0.1098
  529MOL0     C72902   8.990   8.322   5.983 -0.2191 -0.1177  0.3114
  529MOL0     C72903   9.032   8.192   6.051 -0.0415  0.2661  0.1047
  529MOL0     C72904   8.906   8.157   6.142 -0.3757  0.1283 -0.0034
  529MOL0     C72905   8.913   8.005   6.181  0.6465 -0.5101 -0.6677
  529MOL0     C72906   9.056   7.964   6.233  0.4066 -0.2039 -0.5356
  529MOL0     C72907   9.054   7.824   6.297 -0.7709  0.5009 -0.5890
  529MOL0     C72908   9.197   7.760   6.313 -1.2881 -0.6552 -0.2593
  529MOL0    Cl72909   9.290   7.858   6.421  0.3475 -0.3251 -0.2204
  529MOL0     C72910   9.453   8.425   6.071  0.2234  0.7189  0.6164
  529MOL0     C72911   9.577   8.422   6.020 -0.1386 -0.0603 -0.2518
  529MOL0     O72912   9.878   8.447   6.020 -0.6133 -0.1030  0.0595
  529MOL0     C72913  10.010   8.439   5.729  0.1026 -0.1618 -0.6679
  529MOL0     C72914  10.122   8.384   5.664 -0.3531 -0.8307 -0.5545
  529MOL0     N72915  10.592   7.829   6.127 -0.3569 -0.2421  0.5991
  529MOL0     N72916  10.699   7.807   6.202 -1.1516  0.2721 -0.7714
  529MOL0     C72917  11.144   7.158   6.919 -0.0929 -0.1870 -0.2429
  529MOL0     C72918  11.184   7.035   6.976  0.3850  0.0138 -0.7347
  529MOL0     C72919  11.481   6.744   7.214  0.2695  0.0466  0.2122
  529MOL0     C72920  11.421   6.650   7.136  0.1375 -1.1453  0.4902
  529MOL0     C72921  11.478   6.524   7.108  0.4846 -0.6314 -0.5172
  529MOL0     C72922  11.610   6.496   7.162 -0.2555  0.6135  0.0063
  529MOL0     O72923  11.683   6.381   7.129  0.0122 -0.4571 -0.2109
  529MOL0     C72924  11.666   6.322   7.008 -0.0116  0.1496 -0.8659
  529MOL0     C72925  11.759   6.200   6.988  0.3300 -1.0537 -0.5195
  529MOL0     C72926  11.721   6.127   6.873 -0.5473 -0.0133  0.9789
  529MOL0     C72927  11.819   6.010   6.851  0.0487 -0.4125 -0.7087
  529MOL0     C72928  11.773   5.896   6.930 -0.2253 -0.4513  1.3626
  529MOL0     C72929  11.734   5.797   6.995 -0.4261  0.0159 -0.6289
  529MOL0     C72930  11.667   6.592   7.246  0.1335  0.6900  0.4530
  529MOL0     C72931  11.608   6.713   7.279  0.1074  0.3854 -0.0581
  529MOL0     C72932  11.697   6.799   7.366 -0.7968 -0.3400  0.2925
  529MOL0     H72933  11.390   7.154   7.213  0.3587 -0.6674 -0.1550
  529MOL0     H72934  11.303   7.363   7.143 -0.2673 -0.3292  1.4564
  529MOL0     H72935  11.009   7.335   6.790 -2.3048  0.6161  3.3435
  529MOL0     H72936  11.129   7.420   6.721 -1.3718 -3.7017  0.1262
  529MOL0     H72937  10.890   7.539   6.844  0.3612  1.0547  2.1297
  529MOL0     H72938  11.043   7.631   6.875 -2.1617  2.9769 -0.8056
  529MOL0     H72939  11.065   7.610   6.605 -1.3286 -0.1682 -1.2368
  529MOL0     H72940  10.898   7.543   6.607 -1.8005 -0.7507  3.0311
  529MOL0     H72941  10.810   7.744   6.697 -0.4811  0.3956 -0.6269
  529MOL0     H72942  10.961   7.824   6.737  0.2344 -1.2986  0.8878
  529MOL0     H72943  10.900   7.747   6.459 -1.0076 -0.9271  3.2286
  529MOL0     H72944  11.037   7.836   6.501 -0.6813 -0.9177 -1.1702
  529MOL0     H72945  10.746   7.919   6.522 -0.6564  2.7527 -0.4469
  529MOL0     H72946  10.851   8.008   6.612 -0.5281 -0.6823  0.8985
  529MOL0     H72947  10.990   8.074   6.425  0.1964 -0.7426 -0.3517
  529MOL0     H72948  10.819   8.112   6.402  0.4479 -0.2226  1.5397
  529MOL0     H72949  10.943   8.039   6.210  0.8867  2.1438  1.4117
  529MOL0     H72950  10.954   7.872   6.281 -1.8329  0.2429  0.8641
  529MOL0     H72951  10.709   8.136   6.138  0.0590 -0.1293 -0.8032
  529MOL0     H72952  10.490   8.131   6.023  4.5206  0.5778  3.3460
  529MOL0     H72953  10.395   7.987   6.018  0.7910 -1.4891 -0.7389
  529MOL0     H72954  10.616   8.057   5.815 -1.2559  0.4350  1.3964
  529MOL0     H72955  10.567   7.898   5.828 -0.8609 -1.0134 -0.6034
  529MOL0     H72956  10.440   7.984   5.649 -0.3094  0.4669 -0.7276
  529MOL0     H72957  10.317   7.993   5.773  0.2853 -1.1408  0.0003
  529MOL0     H72958  10.373   8.228   5.832 -2.5189  0.4908 -1.8037
  529MOL0     H72959  10.493   8.235   5.700 -1.2109  3.2289 -0.8345
  529MOL0     H72960  10.132   8.075   5.795 -2.6280 -0.6174  2.2933
  529MOL0     H72961   9.833   8.085   5.903 -0.1690  2.5084 -0.5078
  529MOL0     H72962   9.890   8.194   6.039  0.3405  2.7096 -0.6335
  529MOL0     H72963   9.985   8.060   5.979 -0.1263  0.0042  1.1503
  529MOL0     H72964   9.528   8.527   5.704  4.1516  1.6021  1.6923
  529MOL0     H72965   9.294   8.504   5.784 -2.0042 -0.2550  1.4985
  529MOL0     H72966   9.098   8.442   5.841 -0.7932 -1.7025 -0.7162
  529MOL0     H72967   9.167   8.288   5.880  1.6032 -0.5939  1.2059
  529MOL0     H72968   8.957   8.405   6.046  2.6556  1.7191 -0.4308
  529MOL0     H72969   8.910   8.312   5.909  3.1743  0.6054 -3.8736
  529MOL0     H72970   9.120   8.212   6.112 -0.8449  0.0791  1.3725
  529MOL0     H72971   9.039   8.112   5.977 -0.4277  1.7512 -1.5931
  529MOL0     H72972   8.818   8.171   6.078  0.1449 -2.1244 -1.3106
  529MOL0     H72973   8.911   8.231   6.222  4.8355 -0.8236  0.9156
  529MOL0     H72974   8.826   8.005   6.246 -0.9530 -0.6950 -2.6918
  529MOL0     H72975   8.873   7.936   6.106  2.8097 -1.8057 -0.7235
  529MOL0     H72976   9.078   8.039   6.310  2.8461 -1.9265  0.5592
  529MOL0     H72977   9.134   7.961   6.157  1.0030 -1.6661  0.1091
  529MOL0     H72978   9.001   7.759   6.226 -2.6507 -3.4912  3.9103
  529MOL0     H72979   9.012   7.815   6.398  3.1156 -0.9173  1.0736
  529MOL0     H72980   9.245   7.760   6.215  0.9862  0.4419  0.7717
  529MOL0     H72981   9.192   7.658   6.352 -2.7851 -1.3540 -2.1254
  529MOL0     H72982   9.429   8.398   6.174 -2.8013 -0.2917 -0.2644
  529MOL0     H72983   9.668   8.398   6.075  2.3014  3.4697 -2.3683
  529MOL0     H72984   9.967   8.532   5.693 -2.2570 -2.1430 -3.3804
  529MOL0     H72985  10.176   8.442   5.590 -1.9740  0.4560 -0.7982
  529MOL0     H72986  11.056   7.156   6.855 -0.5534  0.2469  0.3631
  529MOL0     H72987  11.143   6.938   6.950  1.8494 -0.9870  0.5712
  529MOL0     H72988  11.320   6.672   7.102  1.7653  0.2669 -4.0389
  529MOL0     H72989  11.434   6.461   7.032  4.0214 -4.8048  0.4911
  529MOL0     H72990  11.565   6.281   6.999 -0.6010  1.3747 -0.0283
  529MOL0     H72991  11.669   6.394   6.926 -0.5609  2.8495  1.3150
  529MOL0     H72992  11.757   6.137   7.078  0.1947 -0.9321 -0.4371
  529MOL0     H72993  11.864   6.231   6.990  0.0861 -0.1291  2.4570
  529MOL0     H72994  11.619   6.088   6.883  0.1728 -2.2369  0.2579
  529MOL0     H72995  11.722   6.180   6.777  3.2539 -2.8318 -0.7790
  529MOL0     H72996  11.920   6.037   6.883  0.6599  0.8009 -3.3371
  529MOL0     H72997  11.826   5.984   6.745  1.1768 -0.0481 -0.7363
  529MOL0     H72998  11.723   5.727   7.075 -3.8562  1.9657  0.8287
  529MOL0     H72999  11.768   6.567   7.279  0.9642  1.9994 -0.9560
  529MOL0     H73000  11.698   6.906   7.344 -2.1429 -0.6379 -1.4070
  529MOL0     H73001  11.670   6.804   7.472  0.0250  0.3557  0.4856
  529MOL0     H73002  11.796   6.758   7.343 -1.2710 -2.2844  1.4504
  530MOL0     O73003  10.382   8.489   2.055  0.0158  0.2592  0.5760
  530MOL0     C73004  10.398   8.594   1.987 -0.8424  0.1456 -0.8592
  530MOL0     O73005  10.508   8.678   1.991 -0.5801  0.7981 -0.9064
  530MOL0     C73006  10.511   8.791   1.919 -0.3967  0.1567 -0.6389
  530MOL0     C73007  10.525   8.767   1.781  0.2268 -0.7012 -0.1545
  530MOL0     C73008  10.506   8.871   1.692  0.3996 -0.3229  0.2897
  530MOL0     C73009  10.481   9.005   1.746 -0.2838 -0.4082  0.7944
  530MOL0     O73010  10.444   9.102   1.668  0.4365 -0.1003  0.1234
  530MOL0     C73011  10.516   9.229   1.655  1.2003 -0.8361 -0.2126
  530MOL0     C73012  10.619   9.223   1.538  0.7113  0.1960  0.2466
  530MOL0     C73013  10.532   9.199   1.407 -0.2125 -0.6107 -1.6476
  530MOL0     C73014  10.630   9.215   1.295 -0.5513 -0.5558  0.0312
  530MOL0     C73015  10.564   9.175   1.164 -0.9330  0.4177  0.6259
  530MOL0     C73016  10.664   9.213   1.055 -0.0300  0.5425  0.0135
  530MOL0     C73017  10.605   9.188   0.916  1.2010  0.4039 -0.1933
  530MOL0     C73018  10.687   9.216   0.799  0.9298  0.4914 -0.0876
  530MOL0     N73019  10.701   9.357   0.763  0.4140  0.1464 -0.1001
  530MOL0     C73020  10.808   9.435   0.807 -0.4746  0.1294 -0.5129
  530MOL0     C73021  10.782   9.559   0.755  0.3116  0.2974  0.0821
  530MOL0     C73022  10.878   9.676   0.767 -0.5758 -0.2631  0.1704
  530MOL0     C73023  10.899   9.754   0.634 -0.1132 -1.3130  0.1512
  530MOL0     C73024  10.977   9.891   0.652  0.6220  0.5337  0.7670
  530MOL0     C73025  10.990   9.965   0.514 -0.0493  0.7425 -0.2626
  530MOL0     O73026  11.076  10.075   0.535 -0.6479 -0.1131 -0.7137
  530MOL0     C73027  11.020  10.193   0.580  0.6592 -0.3425  1.1606
  530MOL0     C73028  10.886  10.205   0.605 -0.9896 -0.7205 -0.3567
  530MOL0     C73029  10.827  10.332   0.634  0.2292  1.1114  0.7382
  530MOL0     C73030  10.681  10.334   0.666  0.8221  0.6741 -0.1477
  530MOL0     C73031  10.901  10.450   0.627  1.1347  0.2346  0.1314
  530MOL0     C73032  10.839  10.584   0.644 -0.6884 -0.2445  0.2031
  530MOL0     O73033  10.913  10.691   0.604  0.1117  0.0553 -0.5828
  530MOL0     C73034  10.865  10.823   0.619  0.3288  0.8652 -0.7649
  530MOL0     C73035  10.868  10.873   0.749 -0.4719 -0.7981 -1.2320
  530MOL0     C73036  10.845  11.005   0.773  0.4497 -0.7587  0.3086
  530MOL0     C73037  10.822  11.093   0.669 -0.5982 -0.2729  0.0967
  530MOL0     O73038  10.815  11.225   0.694 -0.2694  0.3033 -0.3101
  530MOL0     C73039  10.692  11.261   0.766 -0.2496  0.0122  0.0799
  530MOL0     C73040  10.662  11.404   0.731 -0.3696 -0.0568 -1.2895
  530MOL0     C73041  10.612  11.425   0.584  0.6312 -0.2186  0.5243
  530MOL0     C73042  10.570  11.557   0.527 -0.6612 -0.0875  0.4265
  530MOL0     C73043  10.668  11.667   0.560 -0.7638 -0.2893 -0.4047
  530MOL0     C73044  10.616  11.811   0.532 -0.4533  0.0745 -0.1327
  530MOL0     C73045  10.580  11.853   0.383 -0.5762  0.0294  0.3271
  530MOL0     C73046  10.470  11.944   0.368  0.0651  0.5990  0.0468
  530MOL0    Cl73047  10.454  12.015   0.201  0.6854 -0.1364  0.0122
  530MOL0     C73048  10.822  11.045   0.536 -0.2265 -0.9773  1.0697
  530MOL0     C73049  10.859  10.911   0.509  0.1354 -0.2115  0.0815
  530MOL0     O73050  10.723  10.602   0.679 -0.2796 -0.5861 -0.6512
  530MOL0     C73051  11.034  10.433   0.619  0.8725  0.0041 -0.5956
  530MOL0     C73052  11.089  10.309   0.591 -0.4551  0.5790 -0.4470
  530MOL0     N73053  10.662   9.544   0.683 -0.4615 -1.2164  0.5293
  530MOL0     N73054  10.616   9.427   0.688  0.3988  0.1556 -0.5663
  530MOL0     C73055  10.479   9.024   1.880 -0.0199  0.0154 -0.1011
  530MOL0     C73056  10.483   8.916   1.966  0.0796  0.2548 -0.4760
  530MOL0     C73057  10.294   8.607   1.886  0.0113 -0.1228  0.3413
  530MOL0     C73058  10.208   8.722   1.889 -1.4946  0.3623 -0.2761
  530MOL0     C73059  10.088   8.725   1.822 -0.8454 -0.1637  0.7083
  530MOL0     C73060  10.064   8.626   1.722 -0.3930  0.0750 -0.1647
  530MOL0     O73061   9.944   8.634   1.650 -0.0579 -0.3820  0.0055
  530MOL0     C73062   9.835   8.558   1.685 -0.3280 -0.6540 -1.2185
  530MOL0     C73063   9.756   8.607   1.810  1.1326 -0.2942 -0.1487
  530MOL0     C73064   9.672   8.740   1.785  0.1219 -0.8174  0.2525
  530MOL0     C73065   9.711   8.860   1.866 -0.0262 -0.3902 -0.9491
  530MOL0     C73066   9.607   8.957   1.895 -0.0219 -0.4513 -0.4896
  530MOL0     C73067   9.516   9.026   1.933  0.2074  0.2441  0.0155
  530MOL0     C73068  10.149   8.521   1.719 -0.2495 -0.5565  0.9891
  530MOL0     C73069  10.260   8.512   1.794 -0.3800  0.4131 -0.0389
  530MOL0     C73070  10.336   8.386   1.779  0.2509  0.0176  0.8976
  530MOL0     H73071  10.542   8.667   1.742 -1.4104 -1.4324  0.9117
  530MOL0     H73072  10.517   8.860   1.585  1.3320  1.6488  0.1426
  530MOL0     H73073  10.576   9.247   1.744  1.4710  0.7720 -0.6824
  530MOL0     H73074  10.443   9.307   1.632 -0.7990 -2.6344 -0.3420
  530MOL0     H73075  10.673   9.317   1.529  2.9708 -1.0164  0.4638
  530MOL0     H73076  10.694   9.145   1.554 -1.8911 -2.0734  2.5537
  530MOL0     H73077  10.475   9.106   1.411 -0.8378 -0.1974  0.2716
  530MOL0     H73078  10.455   9.276   1.407  0.5943  0.4049  2.2283
  530MOL0     H73079  10.676   9.314   1.293 -1.3230 -0.0431  2.9320
  530MOL0     H73080  10.714   9.148   1.316 -0.1807 -0.3177 -0.6685
  530MOL0     H73081  10.475   9.234   1.139 -0.9429  0.5730  1.0168
  530MOL0     H73082  10.538   9.069   1.165 -1.0000  0.4157  2.6031
  530MOL0     H73083  10.690   9.318   1.072 -0.0068  0.5771 -0.2305
  530MOL0     H73084  10.756   9.154   1.061  0.3788  1.2979  1.8560
  530MOL0     H73085  10.509   9.240   0.905  0.8017  0.0136  1.2641
  530MOL0     H73086  10.572   9.083   0.910 -3.5956  1.3737  3.1316
  530MOL0     H73087  10.788   9.180   0.822  1.0955  0.9565 -0.0886
  530MOL0     H73088  10.662   9.141   0.724  1.7331 -1.7367  1.7235
  530MOL0     H73089  10.899   9.416   0.865  1.6186  3.0601 -2.5588
  530MOL0     H73090  10.971   9.633   0.804  1.6095  2.9390 -1.1434
  530MOL0     H73091  10.824   9.734   0.842 -2.8461 -1.9136 -0.0879
  530MOL0     H73092  10.941   9.697   0.551  1.5277  2.0824 -1.5884
  530MOL0     H73093  10.800   9.786   0.602  1.3009  2.9388 -0.6988
  530MOL0     H73094  10.928   9.955   0.726 -0.5917  0.7456 -0.1755
  530MOL0     H73095  11.082   9.871   0.675  0.6924 -0.3110 -0.2044
  530MOL0     H73096  11.055   9.908   0.447  0.3850 -1.3152  1.7871
  530MOL0     H73097  10.895   9.988   0.465  0.6802  2.3538 -0.9986
  530MOL0     H73098  10.831  10.112   0.616 -4.0684  1.0507  0.5970
  530MOL0     H73099  10.654  10.365   0.767 -2.0521  1.4260 -1.0410
  530MOL0     H73100  10.634  10.237   0.646 -2.3922  1.6064  2.0994
  530MOL0     H73101  10.627  10.395   0.592 -4.2048 -2.0160  0.7991
  530MOL0     H73102  10.894  10.812   0.835  0.1744  2.5352  1.1301
  530MOL0     H73103  10.849  11.041   0.875  5.0349 -0.3239  0.1825
  530MOL0     H73104  10.606  11.208   0.724  1.2427 -1.7295 -0.9124
  530MOL0     H73105  10.702  11.243   0.873 -0.1760 -1.6085 -0.1807
  530MOL0     H73106  10.595  11.456   0.801 -0.9583  1.0229 -2.6081
  530MOL0     H73107  10.753  11.462   0.749  1.4412 -2.4046 -2.3558
  530MOL0     H73108  10.525  11.359   0.577 -2.2723  3.0794  2.2509
  530MOL0     H73109  10.690  11.398   0.512 -2.5086  1.5793 -4.0614
  530MOL0     H73110  10.478  11.583   0.579  0.0303 -0.1403  1.7335
  530MOL0     H73111  10.552  11.556   0.419 -0.9910 -2.1801  0.4591
  530MOL0     H73112  10.683  11.656   0.668 -2.1472 -0.5206 -0.2183
  530MOL0     H73113  10.761  11.633   0.511 -1.0250  1.2718 -2.0695
  530MOL0     H73114  10.697  11.872   0.572 -0.6000 -1.0289  2.0246
  530MOL0     H73115  10.527  11.832   0.593  0.2330  3.6782 -0.1381
  530MOL0     H73116  10.554  11.763   0.326 -2.8539 -0.0009  1.3074
  530MOL0     H73117  10.663  11.901   0.331 -1.6022  2.7180  1.0366
  530MOL0     H73118  10.493  12.025   0.438  6.3358 -1.9220  1.5610
  530MOL0     H73119  10.374  11.895   0.388  0.6525  0.0687  1.7209
  530MOL0     H73120  10.785  11.110   0.458 -1.5655 -3.1580 -0.2138
  530MOL0     H73121  10.869  10.876   0.407  3.0421 -5.9129  1.8799
  530MOL0     H73122  11.098  10.520   0.613  1.2072 -0.3122 -2.4036
  530MOL0     H73123  11.196  10.307   0.575 -0.4313 -0.7481 -0.2532
  530MOL0     H73124  10.457   9.121   1.923  0.0312 -0.5053  1.1435
  530MOL0     H73125  10.457   8.926   2.071  1.8438 -0.8900  0.0986
  530MOL0     H73126  10.220   8.807   1.956  2.7554 -0.6071  0.4811
  530MOL0     H73127  10.020   8.808   1.840 -0.3979 -0.1550  2.5650
  530MOL0     H73128   9.773   8.553   1.595  0.1760 -0.7170 -1.5686
  530MOL0     H73129   9.875   8.458   1.704 -1.8286 -1.0436  0.1576
  530MOL0     H73130   9.819   8.612   1.899  0.3421 -2.3531  0.5902
  530MOL0     H73131   9.689   8.526   1.840  0.3105  0.7767  1.0267
  530MOL0     H73132   9.676   8.765   1.679  1.6551 -0.6375  0.3265
  530MOL0     H73133   9.567   8.722   1.811 -0.2462  2.9903  1.9973
  530MOL0     H73134   9.794   8.915   1.820  3.9133 -3.2525  2.1095
  530MOL0     H73135   9.750   8.822   1.960 -1.3546  0.3179 -0.0673
  530MOL0     H73136   9.436   9.095   1.954  1.4022  1.9407 -0.7535
  530MOL0     H73137  10.119   8.429   1.668 -0.6746  0.1021  0.0132
  530MOL0     H73138  10.353   8.361   1.674 -0.6011  0.7743  0.5680
  530MOL0     H73139  10.434   8.390   1.826 -0.5430 -0.9013  2.7479
  530MOL0     H73140  10.277   8.309   1.830 -3.1801  0.3470 -2.1423
  531MOL0     O73141   0.004   3.963   5.464  0.5711  0.3722  0.3874
  531MOL0     C73142   0.049   3.942   5.351  0.0609 -0.9101  0.3980
  531MOL0     O73143  -0.016   3.905   5.246 -0.3047 -0.1987 -0.8155
  531MOL0     C73144  -0.154   3.869   5.244 -0.4221  0.3620 -0.8417
  531MOL0     C73145  -0.258   3.941   5.303 -0.2127 -0.5473  0.2118
  531MOL0     C73146  -0.392   3.906   5.297 -0.5706 -0.0709  0.9495
  531MOL0     C73147  -0.430   3.803   5.214 -0.2668 -0.3346  0.8245
  531MOL0     O73148  -0.556   3.750   5.215 -0.0470 -0.3223 -0.0893
  531MOL0     C73149  -0.612   3.771   5.088 -0.0600  0.6465 -0.2119
  531MOL0     C73150  -0.765   3.791   5.104  0.1379  1.0661 -0.0513
  531MOL0     C73151  -0.831   3.662   5.138  0.0113 -0.3845  0.6273
  531MOL0     C73152  -0.958   3.681   5.225 -0.4592 -0.6788 -0.2959
  531MOL0     C73153  -0.941   3.683   5.381  0.3870 -0.5051  1.1827
  531MOL0     C73154  -0.882   3.550   5.438  0.2714 -0.9115  0.7416
  531MOL0     C73155  -0.963   3.421   5.418 -0.4590 -0.1487  0.1944
  531MOL0     C73156  -1.105   3.431   5.491  0.0947  0.5402  0.2616
  531MOL0     N73157  -1.150   3.296   5.512  1.2133 -0.2151 -0.0695
  531MOL0     C73158  -1.236   3.262   5.617  0.2794 -0.5915  0.1897
  531MOL0     C73159  -1.283   3.137   5.579  1.5064 -1.4593  0.8179
  531MOL0     C73160  -1.393   3.060   5.642 -1.2393  0.9118 -0.0807
  531MOL0     C73161  -1.523   3.145   5.675 -0.1603 -0.2023 -0.2755
  531MOL0     C73162  -1.642   3.078   5.754  0.2314  1.1922 -0.6696
  531MOL0     C73163  -1.611   2.956   5.842 -0.4525 -0.7954 -0.9719
  531MOL0     O73164  -1.566   3.016   5.968 -0.0727 -0.0642 -0.1858
  531MOL0     C73165  -1.584   2.946   6.075  0.7139 -0.6003 -0.0767
  531MOL0     C73166  -1.712   2.935   6.117 -0.1523 -0.0721  0.1932
  531MOL0     C73167  -1.743   2.867   6.237  0.0066 -0.3439  0.1152
  531MOL0     C73168  -1.895   2.850   6.261 -0.1295 -0.3984 -0.3694
  531MOL0     C73169  -1.642   2.812   6.319  0.6573 -1.1069 -0.0673
  531MOL0     C73170  -1.667   2.737   6.447  0.0344  0.0926 -0.1816
  531MOL0     O73171  -1.558   2.693   6.517  0.4467 -0.3315 -0.2378
  531MOL0     C73172  -1.572   2.618   6.634 -0.5232 -1.0284 -0.5228
  531MOL0     C73173  -1.688   2.552   6.689  1.0445 -0.6805  0.2648
  531MOL0     C73174  -1.680   2.480   6.800 -0.1843 -0.9330  0.2895
  531MOL0     C73175  -1.561   2.464   6.862 -0.7590  0.3075 -0.1754
  531MOL0     O73176  -1.545   2.387   6.979 -0.2641 -0.5691 -0.0869
  531MOL0     C73177  -1.651   2.317   7.049  0.2998  0.3206  0.3342
  531MOL0     C73178  -1.664   2.184   6.981  0.4740  0.5981  0.7246
  531MOL0     C73179  -1.786   2.114   7.038 -1.2270 -0.4194  0.5200
  531MOL0     C73180  -1.808   1.976   6.970 -1.2278  0.5579  1.3378
  531MOL0     C73181  -1.854   1.853   7.045  0.1721  0.1039 -0.1730
  531MOL0     C73182  -2.008   1.852   7.074  0.3698  0.7433 -0.6814
  531MOL0     C73183  -2.043   1.714   7.143 -0.0023 -0.4773 -0.5371
  531MOL0     C73184  -2.193   1.699   7.154 -0.5845  0.7057  0.4521
  531MOL0    Cl73185  -2.255   1.560   7.241  0.7672  0.1571  0.7257
  531MOL0     C73186  -1.444   2.514   6.810 -0.1262 -0.7911 -0.8028
  531MOL0     C73187  -1.446   2.595   6.699  0.5094  0.6371 -0.3335
  531MOL0     O73188  -1.782   2.723   6.479  1.1235 -0.2604  0.3078
  531MOL0     C73189  -1.513   2.819   6.277 -0.0507 -0.0247  0.0307
  531MOL0     C73190  -1.481   2.892   6.158 -0.2877  0.4641  0.7405
  531MOL0     N73191  -1.210   3.099   5.462  0.0357 -0.1804 -0.8875
  531MOL0     N73192  -1.130   3.194   5.430 -0.4461  0.4808  0.6776
  531MOL0     C73193  -0.328   3.728   5.151 -0.1826  1.0474  0.4033
  531MOL0     C73194  -0.195   3.772   5.158 -0.8246  0.2008  1.1357
  531MOL0     C73195   0.190   3.978   5.323  0.0010 -0.3345 -1.2066
  531MOL0     C73196   0.227   4.016   5.189  0.0578 -0.2674 -0.6797
  531MOL0     C73197   0.360   4.051   5.160  0.3053  0.3197  0.2463
  531MOL0     C73198   0.461   4.037   5.258  0.6710 -0.6368 -0.8312
  531MOL0     O73199   0.590   4.078   5.241  0.1666 -0.1035 -0.6192
  531MOL0     C73200   0.599   4.200   5.155 -1.0986 -0.1703  0.6139
  531MOL0     C73201   0.515   4.315   5.214  0.3754 -0.0863 -0.1136
  531MOL0     C73202   0.559   4.454   5.151 -0.3991 -0.6265  0.4037
  531MOL0     C73203   0.482   4.579   5.209  1.0385 -0.3072  0.1489
  531MOL0     C73204   0.565   4.651   5.309  0.6241 -0.6148 -0.4796
  531MOL0     C73205   0.622   4.693   5.408  0.3151  0.2409  0.1006
  531MOL0     C73206   0.430   4.003   5.388 -0.0776 -0.8076  0.6146
  531MOL0     C73207   0.291   3.979   5.424  1.1047 -0.1596 -1.1367
  531MOL0     C73208   0.265   3.974   5.568  1.2141 -0.1514 -0.0664
  531MOL0     H73209  -0.231   4.033   5.355 -0.1414  0.8360 -2.1263
  531MOL0     H73210  -0.466   3.956   5.357  0.2483  0.9770  1.1117
  531MOL0     H73211  -0.612   3.676   5.035 -0.8535  0.6754 -0.2778
  531MOL0     H73212  -0.559   3.848   5.031  2.0600 -0.0005  0.7741
  531MOL0     H73213  -0.793   3.861   5.184 -0.1581 -1.4892  2.2005
  531MOL0     H73214  -0.795   3.831   5.007  1.2148 -1.0498 -1.3242
  531MOL0     H73215  -0.861   3.623   5.040  0.9356  2.5672 -0.9713
  531MOL0     H73216  -0.765   3.600   5.198  3.3837  0.1994 -2.1409
  531MOL0     H73217  -1.004   3.770   5.182 -2.7564 -1.5976  0.1510
  531MOL0     H73218  -1.033   3.606   5.200 -0.8276  0.2838 -2.3241
  531MOL0     H73219  -1.038   3.684   5.432 -1.7761 -0.6749 -2.5996
  531MOL0     H73220  -0.880   3.774   5.391  0.7125 -0.6972  0.9488
  531MOL0     H73221  -0.780   3.549   5.400  1.2321 -1.9532  3.1164
  531MOL0     H73222  -0.877   3.552   5.548 -0.3739  1.7743  0.7756
  531MOL0     H73223  -0.901   3.338   5.452  0.0710 -0.2209 -0.8773
  531MOL0     H73224  -0.974   3.412   5.309  0.3409 -1.5405  0.2069
  531MOL0     H73225  -1.107   3.495   5.580 -1.9089 -1.6512  1.9516
  531MOL0     H73226  -1.180   3.473   5.423 -0.4757 -1.0067 -0.1055
  531MOL0     H73227  -1.275   3.312   5.705 -0.1756 -2.0938  0.8696
  531MOL0     H73228  -1.345   3.015   5.729 -2.3546 -1.6222 -0.6881
  531MOL0     H73229  -1.406   2.981   5.568  4.7684  1.3094 -2.1149
  531MOL0     H73230  -1.489   3.234   5.729 -1.9966  0.9793 -0.9755
  531MOL0     H73231  -1.556   3.188   5.580  0.3133 -2.7507 -1.6860
  531MOL0     H73232  -1.683   3.153   5.822 -1.3065  0.3640 -0.6531
  531MOL0     H73233  -1.726   3.056   5.687 -1.3252 -0.2227  1.6184
  531MOL0     H73234  -1.688   2.880   5.855 -1.1110 -0.1700 -1.1193
  531MOL0     H73235  -1.530   2.898   5.796  1.3922  2.7563 -2.6636
  531MOL0     H73236  -1.795   2.981   6.065  0.5657  2.3235  1.0164
  531MOL0     H73237  -1.924   2.880   6.362 -2.0613 -2.6398 -0.1679
  531MOL0     H73238  -1.911   2.746   6.230  0.2654  0.0619 -2.2625
  531MOL0     H73239  -1.953   2.913   6.192 -1.4452 -1.7438 -0.5330
  531MOL0     H73240  -1.790   2.563   6.652  0.3186  2.0057  2.6579
  531MOL0     H73241  -1.762   2.436   6.856  2.6348 -4.7396  1.8288
  531MOL0     H73242  -1.619   2.308   7.153  0.0244 -0.0421  0.3903
  531MOL0     H73243  -1.749   2.366   7.051 -1.2394 -2.5055  0.1211
  531MOL0     H73244  -1.684   2.208   6.876  0.9744 -0.5119  0.3547
  531MOL0     H73245  -1.570   2.130   6.996  0.0265 -0.4285 -0.0059
  531MOL0     H73246  -1.875   2.176   7.024  0.1571  1.2813 -1.3932
  531MOL0     H73247  -1.772   2.110   7.146 -0.6159  1.3469  0.5355
  531MOL0     H73248  -1.713   1.941   6.928 -2.2092 -1.6435  0.7987
  531MOL0     H73249  -1.868   1.991   6.879  1.6107 -3.1353 -1.4497
  531MOL0     H73250  -1.835   1.764   6.985  0.7661 -0.3278  0.6446
  531MOL0     H73251  -1.794   1.851   7.136  0.8744  0.6471 -0.6136
  531MOL0     H73252  -2.063   1.863   6.980  0.2202 -3.4392 -1.2823
  531MOL0     H73253  -2.019   1.935   7.144  1.3330  0.8783 -0.6788
  531MOL0     H73254  -1.997   1.702   7.241 -0.1371 -4.1688 -0.7905
  531MOL0     H73255  -2.010   1.637   7.073 -2.0822 -1.1450 -0.8622
  531MOL0     H73256  -2.246   1.710   7.058 -2.9226  1.3071  1.7204
  531MOL0     H73257  -2.220   1.792   7.206  0.7973  2.4785 -1.7794
  531MOL0     H73258  -1.347   2.502   6.858 -0.9039  2.0747  1.8305
  531MOL0     H73259  -1.355   2.634   6.656  1.7142 -1.9314 -0.3295
  531MOL0     H73260  -1.435   2.772   6.336 -0.0162 -0.3140 -0.2417
  531MOL0     H73261  -1.375   2.908   6.139 -0.5483 -1.5954 -4.1815
  531MOL0     H73262  -0.345   3.644   5.085  1.0409  1.3173 -0.2718
  531MOL0     H73263  -0.119   3.716   5.105 -0.5329  0.6336  1.0888
  531MOL0     H73264   0.151   4.019   5.111 -1.6673  5.9830  0.6804
  531MOL0     H73265   0.391   4.080   5.060  0.3660 -1.1869 -0.1976
  531MOL0     H73266   0.703   4.233   5.155  0.8664 -5.3722  1.2357
  531MOL0     H73267   0.582   4.177   5.049 -0.2487 -3.0563  0.9969
  531MOL0     H73268   0.543   4.334   5.318 -1.1188  0.4175  0.2185
  531MOL0     H73269   0.407   4.302   5.211  0.4134 -0.7153  0.7024
  531MOL0     H73270   0.668   4.464   5.153 -0.4030 -0.5292  0.1411
  531MOL0     H73271   0.533   4.454   5.045 -0.1046 -1.5080  0.3224
  531MOL0     H73272   0.408   4.551   5.285 -0.4156  1.9861 -0.3493
  531MOL0     H73273   0.438   4.637   5.128 -4.3699 -0.5492  2.4659
  531MOL0     H73274   0.649   4.726   5.507 -0.4062 -1.7656  1.0127
  531MOL0     H73275   0.504   4.007   5.468  1.1403 -2.1236 -0.3962
  531MOL0     H73276   0.221   3.883   5.610  0.1600  1.2339  2.0244
  531MOL0     H73277   0.356   3.990   5.626  0.5142  2.7534  0.4257
  531MOL0     H73278   0.194   4.058   5.580 -0.3900 -1.2308 -1.4422
  532MOL0     O73279   5.480   9.508   8.850 -0.3663 -0.0522 -0.1084
  532MOL0     C73280   5.374   9.522   8.791 -0.0740 -0.1900 -0.2962
  532MOL0     O73281   5.278   9.620   8.820  0.5791  0.3860  0.0348
  532MOL0     C73282   5.304   9.699   8.933  0.5963 -0.3823 -0.2009
  532MOL0     C73283   5.293   9.653   9.065  0.3747  0.5134  0.9805
  532MOL0     C73284   5.320   9.732   9.183 -0.7007  0.4463 -0.2290
  532MOL0     C73285   5.339   9.867   9.168  0.0288  0.4440 -0.6204
  532MOL0     O73286   5.358   9.949   9.277 -0.0990  0.1958  0.4172
  532MOL0     C73287   5.356   9.905   9.410 -0.3241 -0.3228  0.1461
  532MOL0     C73288   5.413  10.025   9.485 -0.3399  0.5081 -0.1925
  532MOL0     C73289   5.568  10.007   9.494  0.6349  0.1958 -0.3982
  532MOL0     C73290   5.617  10.124   9.572 -0.2158 -0.9509  0.0221
  532MOL0     C73291   5.768  10.135   9.581 -0.1665  1.1285  0.6127
  532MOL0     C73292   5.812  10.254   9.665 -0.8370  0.1504  0.7671
  532MOL0     C73293   5.960  10.258   9.697 -0.5270 -0.4342  0.1536
  532MOL0     C73294   6.005  10.404   9.745  0.9694  0.5860 -0.3635
  532MOL0     N73295   5.945  10.423   9.879  0.5420 -0.0885 -0.0188
  532MOL0     C73296   5.998  10.360   9.992  0.0225 -0.1819  0.4304
  532MOL0     C73297   5.930  10.382  10.098  0.5871 -0.5010  0.3165
  532MOL0     C73298   5.925  10.323  10.234  0.8663 -0.3599  0.1167
  532MOL0     C73299   5.798  10.229  10.256 -0.0800  0.2877  0.6729
  532MOL0     C73300   5.826  10.131  10.375  0.2536  0.3905  0.5388
  532MOL0     C73301   5.691  10.065  10.422  0.4182  0.7032  0.0027
  532MOL0     O73302   5.622  10.177  10.483 -0.5439  0.5222  0.0824
  532MOL0     C73303   5.661  10.222  10.602 -0.7026  0.0733 -0.2419
  532MOL0     C73304   5.614  10.348  10.624 -0.3919 -0.4221  0.2207
  532MOL0     C73305   5.657  10.417  10.742 -0.7264  0.7859 -0.1590
  532MOL0     C73306   5.609  10.560  10.762 -0.1860  0.0930 -0.4922
  532MOL0     C73307   5.728  10.343  10.843  0.0394  0.0269 -0.2096
  532MOL0     C73308   5.800  10.408  10.961 -0.4154  0.4904  0.4045
  532MOL0     O73309   5.825  10.323  11.071  0.3802 -0.0583 -0.3809
  532MOL0     C73310   5.924  10.364  11.152  0.3691  0.0354 -0.0643
  532MOL0     C73311   5.906  10.480  11.233 -0.2132 -0.2788 -0.2675
  532MOL0     C73312   6.009  10.516  11.317 -0.3600 -0.2782 -0.5290
  532MOL0     C73313   6.136  10.455  11.328 -0.1886 -0.3428  0.4230
  532MOL0     O73314   6.227  10.503  11.416  0.3341 -0.1041 -0.0644
  532MOL0     C73315   6.291  10.409  11.506 -0.1868 -1.5665 -0.7204
  532MOL0     C73316   6.352  10.503  11.616 -0.1900  0.1339  0.4354
  532MOL0     C73317   6.383  10.438  11.739 -1.3007 -0.3892  0.0112
  532MOL0     C73318   6.436  10.296  11.735  1.1468  0.0168  0.1867
  532MOL0     C73319   6.483  10.237  11.866 -0.0128 -0.1517 -0.0006
  532MOL0     C73320   6.613  10.304  11.926 -0.2801  0.6727  0.1983
  532MOL0     C73321   6.655  10.227  12.057  0.1529 -0.3926  0.1120
  532MOL0     C73322   6.796  10.271  12.100 -0.3303 -0.7975 -1.4589
  532MOL0    Cl73323   6.922  10.198  11.996 -0.2024 -0.8133 -0.4406
  532MOL0     C73324   6.153  10.344  11.240 -0.1512 -0.2179 -0.7744
  532MOL0     C73325   6.052  10.301  11.153  0.4259 -0.0395  1.1793
  532MOL0     O73326   5.850  10.517  10.937 -0.0142  0.0853 -0.4437
  532MOL0     C73327   5.756  10.210  10.826  0.4402 -0.2438  0.6316
  532MOL0     C73328   5.726  10.153  10.701 -0.5828  0.0602 -0.1381
  532MOL0     N73329   5.827  10.460  10.058  1.0346  0.3405  0.2430
  532MOL0     N73330   5.829  10.483   9.925  0.2425  0.4132  0.9357
  532MOL0     C73331   5.339   9.918   9.040  0.8666  0.8570  0.4875
  532MOL0     C73332   5.333   9.834   8.927  0.7229  0.2352 -0.3717
  532MOL0     C73333   5.353   9.437   8.674  0.0287 -0.9346 -1.2570
  532MOL0     C73334   5.227   9.448   8.604  0.4431  0.4283  0.2140
  532MOL0     C73335   5.199   9.358   8.499  0.8539 -0.7233  0.0186
  532MOL0     C73336   5.292   9.264   8.450  0.1901 -0.2263 -0.7176
  532MOL0     O73337   5.243   9.170   8.362  0.5616  0.4050 -0.1423
  532MOL0     C73338   5.142   9.076   8.420  0.5026  0.5030  0.5605
  532MOL0     C73339   5.106   8.966   8.311  0.5448 -0.3092  0.6140
  532MOL0     C73340   4.986   8.885   8.352 -0.1826  1.1274 -0.7253
  532MOL0     C73341   4.913   8.818   8.232 -0.3548 -0.1378  0.4611
  532MOL0     C73342   4.857   8.924   8.153 -0.2913  0.6761  0.1602
  532MOL0     C73343   4.826   8.999   8.066  0.7149  0.0571 -0.6754
  532MOL0     C73344   5.423   9.262   8.518  0.0806  0.6293  0.2560
  532MOL0     C73345   5.451   9.330   8.636 -0.0719 -0.4607  0.0447
  532MOL0     C73346   5.590   9.296   8.703 -0.6626 -0.2178  0.9503
  532MOL0     H73347   5.273   9.548   9.080  0.4791 -0.2293 -3.0556
  532MOL0     H73348   5.325   9.680   9.278 -2.0892 -1.5829 -1.2046
  532MOL0     H73349   5.417   9.816   9.427  0.2723  0.2268  0.9704
  532MOL0     H73350   5.252   9.880   9.433  0.1836 -2.8514  0.0364
  532MOL0     H73351   5.386  10.118   9.434  1.2398  0.8844 -0.3750
  532MOL0     H73352   5.381  10.027   9.589 -0.1271 -2.6053  0.0307
  532MOL0     H73353   5.588   9.918   9.555  2.1650 -0.5401 -1.8987
  532MOL0     H73354   5.621   9.990   9.400  4.6332  0.9226  1.5086
  532MOL0     H73355   5.575  10.219   9.537  0.1147 -0.4717  0.8991
  532MOL0     H73356   5.575  10.115   9.672 -2.0634 -2.7704 -0.8451
  532MOL0     H73357   5.813  10.117   9.483  2.5128  1.1176  1.7576
  532MOL0     H73358   5.794  10.043   9.633  0.1097  0.2244 -1.0538
  532MOL0     H73359   5.784  10.342   9.606 -3.6126 -2.2871 -1.8894
  532MOL0     H73360   5.748  10.253   9.754 -1.6082 -0.5979  0.2188
  532MOL0     H73361   6.017  10.237   9.606 -1.5684 -2.3184 -0.1283
  532MOL0     H73362   5.990  10.178   9.766  3.0812 -0.1814 -0.9375
  532MOL0     H73363   6.112  10.421   9.755  1.3448 -1.5191 -0.3621
  532MOL0     H73364   5.963  10.468   9.666 -1.4487  0.0709  0.4029
  532MOL0     H73365   6.085  10.295   9.997 -0.4177 -0.7597  0.6622
  532MOL0     H73366   5.924  10.404  10.308 -2.0516 -0.0478 -0.1682
  532MOL0     H73367   6.009  10.253  10.246  1.0698 -0.0734  0.3852
  532MOL0     H73368   5.726  10.303  10.290  1.0314  0.6652  2.2810
  532MOL0     H73369   5.776  10.177  10.162 -0.3381 -3.3520  2.5500
  532MOL0     H73370   5.906  10.063  10.344 -2.6317 -2.0330 -2.2749
  532MOL0     H73371   5.864  10.185  10.462 -1.6745  1.0427  1.0159
  532MOL0     H73372   5.641  10.034  10.330  1.2442  0.1772 -0.2832
  532MOL0     H73373   5.702   9.980  10.490 -0.1870 -0.2393 -1.0624
  532MOL0     H73374   5.556  10.406  10.552  0.4683  2.2552  1.5273
  532MOL0     H73375   5.574  10.576  10.864  1.1038  1.9536 -0.2882
  532MOL0     H73376   5.519  10.564  10.700 -0.0602  0.5944 -0.6463
  532MOL0     H73377   5.691  10.628  10.736  0.5787 -1.0085 -1.0572
  532MOL0     H73378   5.817  10.541  11.217 -0.8930 -1.4754 -1.1918
  532MOL0     H73379   6.007  10.611  11.371  2.0737  2.1434 -4.2105
  532MOL0     H73380   6.224  10.336  11.553 -3.8084  2.3117  0.7370
  532MOL0     H73381   6.372  10.366  11.446  1.5595  2.7293 -1.8163
  532MOL0     H73382   6.443  10.540  11.567 -0.0962 -2.0751 -1.2312
  532MOL0     H73383   6.286  10.586  11.641  0.8832  0.3157  2.9753
  532MOL0     H73384   6.291  10.445  11.798 -1.3869  2.5061 -0.2852
  532MOL0     H73385   6.450  10.510  11.788 -0.4772 -0.4740 -0.9577
  532MOL0     H73386   6.499  10.284  11.646 -1.3974  1.3731 -1.9239
  532MOL0     H73387   6.353  10.230  11.706  1.2918  0.2747 -0.8363
  532MOL0     H73388   6.405  10.246  11.942 -1.1696  0.7084 -1.2570
  532MOL0     H73389   6.505  10.130  11.854 -1.0223 -0.3780  0.1081
  532MOL0     H73390   6.592  10.409  11.948  0.5537  0.9473 -0.2591
  532MOL0     H73391   6.685  10.286  11.846 -1.6468 -1.1716 -0.7117
  532MOL0     H73392   6.643  10.119  12.050  0.8566 -0.4639 -0.0682
  532MOL0     H73393   6.591  10.258  12.141  2.2127  0.7170  1.3619
  532MOL0     H73394   6.827  10.230  12.197 -1.4877 -0.6977 -1.0331
  532MOL0     H73395   6.793  10.380  12.106 -2.0095 -0.8862  0.3589
  532MOL0     H73396   6.252  10.298  11.241 -1.4882 -3.3445 -1.2546
  532MOL0     H73397   6.042  10.217  11.084 -4.5137 -1.0958  2.7642
  532MOL0     H73398   5.808  10.138  10.890  0.1905 -3.2264 -2.2347
  532MOL0     H73399   5.772  10.058  10.676  2.1700  2.0825 -3.6970
  532MOL0     H73400   5.351  10.026   9.036  0.4343  0.8629 -1.1355
  532MOL0     H73401   5.346   9.879   8.829  6.7232 -0.0449 -0.0220
  532MOL0     H73402   5.158   9.527   8.633 -0.9175 -0.9273  0.8335
  532MOL0     H73403   5.102   9.360   8.451 -0.1766 -1.3076  1.9783
  532MOL0     H73404   5.186   9.027   8.507 -1.0310 -0.1198  1.0124
  532MOL0     H73405   5.048   9.126   8.444 -0.0990 -0.9626  1.3704
  532MOL0     H73406   5.192   8.899   8.296  1.1316  0.6955 -0.7338
  532MOL0     H73407   5.097   9.023   8.219 -1.2374  0.8119  1.4248
  532MOL0     H73408   5.040   8.809   8.409  2.8658  2.6566 -1.3391
  532MOL0     H73409   4.913   8.936   8.416 -2.2508 -1.5771 -0.7966
  532MOL0     H73410   4.827   8.760   8.266  0.1896 -2.1965 -1.3948
  532MOL0     H73411   4.965   8.741   8.174 -1.7950 -3.1126  2.8235
  532MOL0     H73412   4.795   9.073   7.995 -1.9212  1.7300  1.9558
  532MOL0     H73413   5.485   9.176   8.492 -1.4821 -0.5620  0.3049
  532MOL0     H73414   5.649   9.388   8.704  2.2028 -1.8814 -1.3725
  532MOL0     H73415   5.567   9.251   8.800  0.8157 -2.7426  0.2121
  532MOL0     H73416   5.634   9.223   8.635 -0.2315  3.2815 -2.9734
  533MOL0     O73417   5.968   8.448  10.752  0.5172  0.4968  0.1453
  533MOL0     C73418   5.925   8.497  10.654 -0.1298  0.5226  0.5712
  533MOL0     O73419   5.798   8.520  10.632  0.1486  0.1737 -0.8480
  533MOL0     C73420   5.703   8.478  10.722  0.2630 -0.6654 -0.2397
  533MOL0     C73421   5.594   8.410  10.675  1.7450 -0.0301  0.6054
  533MOL0     C73422   5.490   8.362  10.765  0.0782  0.4338  0.7614
  533MOL0     C73423   5.494   8.398  10.898  0.3359 -0.1439  0.1438
  533MOL0     O73424   5.395   8.361  10.992 -0.0437  0.9372  0.4837
  533MOL0     C73425   5.421   8.242  11.068 -0.1733  0.6073  0.4350
  533MOL0     C73426   5.283   8.169  11.081 -0.0673 -0.1454 -0.3127
  533MOL0     C73427   5.193   8.231  11.190  0.8187 -0.6357  0.5230
  533MOL0     C73428   5.041   8.197  11.166 -0.3903 -0.2632 -0.0821
  533MOL0     C73429   5.012   8.050  11.211 -0.4631 -0.1815  0.3787
  533MOL0     C73430   4.874   8.022  11.172 -0.6370  0.2102 -0.3655
  533MOL0     C73431   4.821   7.897  11.233 -0.3127  1.2051  0.2237
  533MOL0     C73432   4.682   7.865  11.159 -0.5366  0.5684  0.4810
  533MOL0     N73433   4.692   7.802  11.032  0.2484 -0.0495  0.3245
  533MOL0     C73434   4.772   7.696  10.998 -0.5896  0.3533  0.1169
  533MOL0     C73435   4.747   7.671  10.875  0.3546 -0.1683  0.0015
  533MOL0     C73436   4.837   7.589  10.771 -0.4585 -0.6814 -0.0109
  533MOL0     C73437   4.953   7.674  10.715  0.3128  0.1153 -0.8777
  533MOL0     C73438   5.037   7.608  10.615  0.1534  0.5998 -0.2766
  533MOL0     C73439   5.136   7.697  10.550 -0.9778 -1.0024  0.0034
  533MOL0     O73440   5.198   7.617  10.443  0.2974  0.3090 -0.7185
  533MOL0     C73441   5.119   7.592  10.326 -0.0002  0.5547 -0.4683
  533MOL0     C73442   5.183   7.492  10.248  0.1114 -0.2418  0.0129
  533MOL0     C73443   5.124   7.443  10.124 -0.7620  0.4832  0.2623
  533MOL0     C73444   5.184   7.326  10.056 -0.4481  0.5263  0.2797
  533MOL0     C73445   5.003   7.497  10.085  0.4147  0.4811  0.0129
  533MOL0     C73446   4.931   7.458   9.960  0.7721 -0.1223  0.3509
  533MOL0     O73447   4.793   7.460   9.962  0.2699 -0.6481  0.8181
  533MOL0     C73448   4.722   7.428   9.852 -0.3446 -1.1864  0.0810
  533MOL0     C73449   4.763   7.463   9.721  1.0799 -0.5783 -0.1186
  533MOL0     C73450   4.684   7.408   9.612 -0.0481  0.0595  0.9852
  533MOL0     C73451   4.560   7.337   9.644  0.0932  0.5542 -0.6948
  533MOL0     O73452   4.475   7.291   9.547 -0.5050 -0.3089 -0.7607
  533MOL0     C73453   4.531   7.208   9.441  0.4881 -1.0375  0.3722
  533MOL0     C73454   4.515   7.051   9.466  0.1557 -0.3305 -0.0740
  533MOL0     C73455   4.558   6.978   9.335  0.2660 -0.3687 -0.1066
  533MOL0     C73456   4.476   6.849   9.319 -0.8242 -0.5505 -0.4310
  533MOL0     C73457   4.556   6.743   9.242  0.7008 -0.5506 -0.2624
  533MOL0     C73458   4.563   6.776   9.091  0.4349  0.2457  0.0481
  533MOL0     C73459   4.640   6.661   9.032 -0.3808 -0.3686 -0.3850
  533MOL0     C73460   4.688   6.676   8.895 -0.1543  0.1613 -0.0192
  533MOL0    Cl73461   4.814   6.544   8.860 -0.6118 -0.1049 -0.0423
  533MOL0     C73462   4.525   7.321   9.777 -0.8686  0.0909  0.7581
  533MOL0     C73463   4.601   7.362   9.874  0.0007 -1.0500  0.3718
  533MOL0     O73464   5.001   7.433   9.862 -0.3263  0.1603  0.1721
  533MOL0     C73465   4.933   7.580  10.171  0.6867 -0.7056  0.4944
  533MOL0     C73466   4.987   7.636  10.288  0.5476  0.5235  0.4948
  533MOL0     N73467   4.639   7.754  10.839 -0.5319  0.3875 -0.2592
  533MOL0     N73468   4.606   7.833  10.933 -0.2622 -0.0410  1.1518
  533MOL0     C73469   5.597   8.476  10.938  0.6119 -0.7261  0.2812
  533MOL0     C73470   5.709   8.516  10.856 -0.0146 -0.2999  0.6743
  533MOL0     C73471   6.017   8.548  10.555 -0.9228 -0.6979 -0.5307
  533MOL0     C73472   5.954   8.631  10.459 -0.1491 -0.0371  0.8641
  533MOL0     C73473   6.014   8.670  10.336  0.3211  0.0425 -0.0928
  533MOL0     C73474   6.152   8.646  10.321  0.0214  0.2862  0.1773
  533MOL0     O73475   6.211   8.699  10.208  0.4712  0.3263 -0.4406
  533MOL0     C73476   6.355   8.691  10.221  0.4009  0.0686  0.4472
  533MOL0     C73477   6.429   8.769  10.108 -0.5852 -0.6019  0.0458
  533MOL0     C73478   6.580   8.753  10.114  0.3878  0.9548  0.2619
  533MOL0     C73479   6.655   8.828  10.005 -1.7399 -0.4384  1.1720
  533MOL0     C73480   6.797   8.778   9.991 -0.7432  0.1080 -0.5563
  533MOL0     C73481   6.908   8.734   9.972 -0.0935 -1.4224 -0.6009
  533MOL0     C73482   6.218   8.585  10.427  1.2978 -0.0897  0.2095
  533MOL0     C73483   6.149   8.531  10.540 -0.5525  1.0744 -1.3096
  533MOL0     C73484   6.235   8.465  10.651  0.4716 -0.1942 -0.0718
  533MOL0     H73485   5.585   8.386  10.570 -3.5154 -0.7078  0.9501
  533MOL0     H73486   5.419   8.294  10.720 -1.8513  2.6452  0.2532
  533MOL0     H73487   5.449   8.265  11.171 -0.2172 -2.2132  1.1795
  533MOL0     H73488   5.492   8.174  11.018 -1.2354 -0.0771 -0.1911
  533MOL0     H73489   5.225   8.186  10.990 -2.3939  1.2721  1.3221
  533MOL0     H73490   5.287   8.061  11.094 -4.0826 -0.3802  0.2331
  533MOL0     H73491   5.217   8.205  11.294 -1.1923  2.3261  1.8682
  533MOL0     H73492   5.195   8.341  11.188 -5.0018 -0.1805  1.9255
  533MOL0     H73493   4.983   8.271  11.221 -0.3284 -0.7856  0.7042
  533MOL0     H73494   5.020   8.219  11.061 -1.4263 -1.0277 -0.0479
  533MOL0     H73495   5.018   8.031  11.319 -0.4871  0.4158  0.4871
  533MOL0     H73496   5.079   7.980  11.159 -0.5119 -1.1517  1.5733
  533MOL0     H73497   4.821   8.113  11.201 -0.3452 -0.3507  2.1220
  533MOL0     H73498   4.859   8.023  11.064 -0.5364 -3.2704 -0.4954
  533MOL0     H73499   4.792   7.921  11.335  0.4891  1.8644  0.3100
  533MOL0     H73500   4.894   7.816  11.237 -1.2550 -0.0317 -3.3832
  533MOL0     H73501   4.628   7.806  11.234 -0.2637  3.0335  2.7457
  533MOL0     H73502   4.621   7.955  11.164 -4.0398 -1.6676  3.5852
  533MOL0     H73503   4.850   7.659  11.063 -1.2800 -0.9595  0.2332
  533MOL0     H73504   4.780   7.543  10.690 -1.3385  3.3070 -1.8934
  533MOL0     H73505   4.889   7.503  10.815  0.0039 -1.6663 -2.3001
  533MOL0     H73506   4.908   7.755  10.658  0.8117  1.1132  0.1271
  533MOL0     H73507   5.016   7.710  10.797  0.6960 -3.3280  0.5360
  533MOL0     H73508   5.099   7.529  10.658  0.9357  0.1936 -2.0670
  533MOL0     H73509   4.968   7.554  10.551 -2.1713  1.2373  1.5359
  533MOL0     H73510   5.101   7.794  10.513  0.3236 -0.8271 -0.8205
  533MOL0     H73511   5.214   7.720  10.624 -2.2118  4.2499  0.0302
  533MOL0     H73512   5.276   7.445  10.278 -1.9681 -2.9341  3.0707
  533MOL0     H73513   5.111   7.247  10.070  1.4618 -1.0908  1.6568
  533MOL0     H73514   5.280   7.299  10.101 -0.6539 -2.7610 -0.9724
  533MOL0     H73515   5.208   7.357   9.954 -1.6734  3.2007  0.7180
  533MOL0     H73516   4.854   7.515   9.694  0.7817  1.0302  1.7431
  533MOL0     H73517   4.698   7.429   9.507  1.8162 -0.0861  1.1781
  533MOL0     H73518   4.486   7.236   9.346  4.2660  3.2428 -0.5123
  533MOL0     H73519   4.635   7.237   9.424 -0.4910  1.8258 -1.2819
  533MOL0     H73520   4.583   7.039   9.551  0.1926 -0.8494 -0.1775
  533MOL0     H73521   4.413   7.021   9.491 -0.2827  0.2595 -1.0863
  533MOL0     H73522   4.662   6.950   9.355  1.0009  1.2291 -1.3640
  533MOL0     H73523   4.537   7.039   9.246  0.9636 -0.4900 -0.3665
  533MOL0     H73524   4.387   6.873   9.260  0.1561 -0.2264 -1.8208
  533MOL0     H73525   4.451   6.808   9.417  1.8116  0.0157  0.5521
  533MOL0     H73526   4.656   6.738   9.285  0.6577  1.9666  0.2761
  533MOL0     H73527   4.497   6.652   9.253 -0.7116  0.4243  0.6729
  533MOL0     H73528   4.608   6.872   9.062 -2.0102  1.0826 -1.2610
  533MOL0     H73529   4.458   6.779   9.061  0.0006  2.8599  1.5123
  533MOL0     H73530   4.583   6.571   9.059  1.2078 -1.0735  0.7956
  533MOL0     H73531   4.734   6.649   9.086 -2.1653  2.4334  3.9180
  533MOL0     H73532   4.737   6.774   8.883  1.9106 -0.7686  0.3342
  533MOL0     H73533   4.604   6.672   8.826  0.2677  3.4317 -0.8880
  533MOL0     H73534   4.427   7.277   9.794 -1.6462 -0.1040 -3.2087
  533MOL0     H73535   4.568   7.349   9.976 -1.7996  0.6690  0.0721
  533MOL0     H73536   4.840   7.627  10.141  1.0648  0.2704  0.7950
  533MOL0     H73537   4.927   7.704  10.348 -0.2507  1.2781 -1.0959
  533MOL0     H73538   5.603   8.531  11.032  1.5156  2.3510 -1.4435
  533MOL0     H73539   5.787   8.581  10.895  1.9162 -1.8634 -0.3547
  533MOL0     H73540   5.853   8.667  10.476 -0.2654 -0.5141  1.2129
  533MOL0     H73541   5.960   8.722  10.258  1.3711 -2.7351 -2.8738
  533MOL0     H73542   6.389   8.729  10.318  0.7855  0.3585  0.2011
  533MOL0     H73543   6.383   8.586  10.211  0.1787  0.2628 -4.1399
  533MOL0     H73544   6.403   8.875  10.114 -3.0600 -0.7153 -4.3924
  533MOL0     H73545   6.407   8.734  10.006 -0.2244 -0.1478 -0.1919
  533MOL0     H73546   6.620   8.776  10.213  0.2955 -2.1213  1.1074
  533MOL0     H73547   6.596   8.648  10.090 -2.7914 -0.4036  3.2183
  533MOL0     H73548   6.655   8.932  10.038 -2.0660  1.4523 -3.8914
  533MOL0     H73549   6.613   8.803   9.907 -0.2422 -0.9540  0.6271
  533MOL0     H73550   6.996   8.675   9.961  0.8422 -0.2281  0.2272
  533MOL0     H73551   6.326   8.572  10.423  1.0457 -2.1432 -2.4468
  533MOL0     H73552   6.210   8.362  10.678  1.4616 -0.1451  1.0898
  533MOL0     H73553   6.340   8.467  10.619  0.8147 -1.6511  0.8756
  533MOL0     H73554   6.235   8.519  10.746 -2.7199 -0.8926  0.4394
  534MOL0     O73555   0.427   4.132   6.508  0.0239  0.1660 -0.0507
  534MOL0     C73556   0.472   4.048   6.438 -0.0370  0.5421 -0.0346
  534MOL0     O73557   0.469   4.046   6.305  0.3976 -0.0063 -0.2179
  534MOL0     C73558   0.446   4.165   6.243  0.0732  0.0684  0.7766
  534MOL0     C73559   0.326   4.189   6.184  1.4345  0.1230  0.0062
  534MOL0     C73560   0.312   4.289   6.087 -0.4995 -0.6008  0.1673
  534MOL0     C73561   0.429   4.367   6.049  0.7174 -0.4108  0.7290
  534MOL0     O73562   0.430   4.457   5.943 -0.5478 -0.5634  0.1857
  534MOL0     C73563   0.344   4.438   5.831 -0.1812 -0.0171  0.9608
  534MOL0     C73564   0.395   4.540   5.728  0.1561  0.4917  1.0275
  534MOL0     C73565   0.343   4.510   5.585  0.7772 -0.7286 -0.6294
  534MOL0     C73566   0.193   4.541   5.576 -0.8237 -0.4238 -0.1759
  534MOL0     C73567   0.139   4.531   5.427  0.3615  0.1807 -0.4154
  534MOL0     C73568   0.154   4.388   5.388  0.7022  0.9241 -0.2458
  534MOL0     C73569   0.068   4.354   5.266 -0.0796 -0.4388 -0.3205
  534MOL0     C73570   0.114   4.431   5.143 -0.2761  0.1262  1.1028
  534MOL0     N73571   0.067   4.368   5.025 -0.0931 -0.4959 -0.7621
  534MOL0     C73572  -0.045   4.392   4.963  0.2413  0.5191 -0.3413
  534MOL0     C73573  -0.024   4.322   4.846 -0.4107  1.0034 -0.5033
  534MOL0     C73574  -0.118   4.314   4.731 -0.2176  0.5924 -0.6875
  534MOL0     C73575  -0.131   4.456   4.680  0.1634  0.5513 -0.0394
  534MOL0     C73576  -0.193   4.486   4.544  0.0352  0.2744  0.9102
  534MOL0     C73577  -0.160   4.389   4.430 -0.4557 -0.4478  1.3641
  534MOL0     O73578  -0.021   4.344   4.439 -0.3886 -0.9443 -0.8046
  534MOL0     C73579   0.017   4.241   4.361 -1.4919 -0.2399  0.2471
  534MOL0     C73580  -0.061   4.184   4.263 -0.0496  1.2679  0.4386
  534MOL0     C73581  -0.015   4.083   4.175  0.8183  0.2943 -0.6315
  534MOL0     C73582  -0.105   4.031   4.073 -0.4241  0.1111  0.0424
  534MOL0     C73583   0.124   4.037   4.189  0.6285 -0.1678 -0.4326
  534MOL0     C73584   0.180   3.926   4.104 -0.2204  0.0502  0.6365
  534MOL0     O73585   0.301   3.948   4.044  0.1476 -0.5645  0.1837
  534MOL0     C73586   0.363   3.848   3.966  0.8929  0.6058 -0.4174
  534MOL0     C73587   0.499   3.821   3.986 -0.0056 -0.3337 -0.3264
  534MOL0     C73588   0.564   3.718   3.919 -0.3036  0.7679  0.0340
  534MOL0     C73589   0.494   3.636   3.827  0.0408 -0.8894  0.7126
  534MOL0     O73590   0.572   3.550   3.762 -0.2054 -0.0026 -0.8721
  534MOL0     C73591   0.532   3.410   3.772  0.3024  0.2715  0.1364
  534MOL0     C73592   0.619   3.320   3.676 -0.1967 -0.3270  0.0013
  534MOL0     C73593   0.767   3.367   3.663 -0.1899 -0.9009  0.1932
  534MOL0     C73594   0.850   3.307   3.560  0.1593  0.4776  0.6185
  534MOL0     C73595   1.006   3.349   3.555  0.0435 -0.1816  0.4357
  534MOL0     C73596   1.075   3.272   3.443  0.5149  0.7591 -0.9574
  534MOL0     C73597   1.232   3.289   3.424 -0.4239 -0.9632 -0.6181
  534MOL0     C73598   1.294   3.224   3.293  0.0755  0.2261 -0.6018
  534MOL0    Cl73599   1.245   3.035   3.274 -0.3881 -0.4876  0.2196
  534MOL0     C73600   0.362   3.673   3.798  0.2461 -0.1278 -1.0519
  534MOL0     C73601   0.298   3.774   3.867 -0.6527 -0.0316  0.6722
  534MOL0     O73602   0.133   3.815   4.115 -0.6426 -0.9275 -0.4283
  534MOL0     C73603   0.204   4.089   4.290 -0.3813  0.2339 -0.3264
  534MOL0     C73604   0.143   4.185   4.377 -0.5435  0.5441  0.1702
  534MOL0     N73605   0.094   4.252   4.844  0.3739 -0.9239 -0.5287
  534MOL0     N73606   0.146   4.289   4.949  0.6713  0.3424  0.2915
  534MOL0     C73607   0.545   4.344   6.117 -0.0562  0.3559 -0.1842
  534MOL0     C73608   0.556   4.243   6.209 -0.8422 -1.1293 -0.0625
  534MOL0     C73609   0.534   3.938   6.524 -0.1275  0.3145 -0.4178
  534MOL0     C73610   0.480   3.807   6.516 -0.8581 -0.3881  0.0223
  534MOL0     C73611   0.516   3.700   6.590 -0.4163  0.4995 -0.8827
  534MOL0     C73612   0.603   3.733   6.697 -0.1360  0.3094  0.3361
  534MOL0     O73613   0.631   3.643   6.785 -0.0500  0.2757 -0.2399
  534MOL0     C73614   0.742   3.559   6.766 -0.1196  0.1229  0.7496
  534MOL0     C73615   0.699   3.418   6.787  0.0313 -0.4825 -0.6891
  534MOL0     C73616   0.814   3.316   6.783 -0.2829 -0.4041 -0.6685
  534MOL0     C73617   0.901   3.328   6.909  0.2239  0.5522  0.0926
  534MOL0     C73618   0.897   3.211   6.994  0.3816  0.6317  1.2088
  534MOL0     C73619   0.897   3.105   7.051  0.8507  0.1433 -0.5409
  534MOL0     C73620   0.667   3.864   6.706  0.3056 -1.2648  0.1742
  534MOL0     C73621   0.631   3.967   6.625 -0.2086 -0.1079 -0.5831
  534MOL0     C73622   0.688   4.103   6.650 -0.3117 -0.6863  0.2651
  534MOL0     H73623   0.253   4.117   6.219  1.2507 -0.0813 -0.7782
  534MOL0     H73624   0.219   4.300   6.033 -0.1131  4.4340  0.0741
  534MOL0     H73625   0.241   4.462   5.860 -0.7057 -1.2601  0.2199
  534MOL0     H73626   0.351   4.334   5.796 -1.8963 -0.2319  1.1795
  534MOL0     H73627   0.356   4.639   5.754 -1.1200  0.2937 -0.0158
  534MOL0     H73628   0.504   4.539   5.724  0.2232  0.8927  2.2352
  534MOL0     H73629   0.404   4.573   5.519  0.6007  0.8731  0.6597
  534MOL0     H73630   0.351   4.402   5.570 -3.1645 -1.3555  0.7176
  534MOL0     H73631   0.137   4.474   5.642  1.1069 -1.7229  0.1983
  534MOL0     H73632   0.166   4.641   5.611 -0.5053 -0.1611 -0.6702
  534MOL0     H73633   0.185   4.607   5.362  2.6374  3.3850  4.3305
  534MOL0     H73634   0.035   4.562   5.417  1.0120  1.8388 -3.6925
  534MOL0     H73635   0.259   4.360   5.376 -0.2389 -3.2540 -0.5719
  534MOL0     H73636   0.120   4.310   5.457  0.7387 -0.9730 -2.2270
  534MOL0     H73637  -0.035   4.390   5.276  0.1885  0.8532 -1.8886
  534MOL0     H73638   0.058   4.247   5.245 -0.5006 -0.1381 -1.7186
  534MOL0     H73639   0.073   4.530   5.161 -3.0797 -0.3580 -1.7831
  534MOL0     H73640   0.222   4.442   5.128 -0.3775 -1.6175 -1.7842
  534MOL0     H73641  -0.138   4.443   4.986  0.7319  1.3865 -0.2339
  534MOL0     H73642  -0.210   4.262   4.759  0.3082  1.1900  2.4711
  534MOL0     H73643  -0.069   4.257   4.651 -1.8623 -1.0332 -0.5867
  534MOL0     H73644  -0.180   4.518   4.756  1.4127  3.3092 -1.3612
  534MOL0     H73645  -0.030   4.495   4.694 -0.3048  1.3415  1.3506
  534MOL0     H73646  -0.302   4.489   4.549  0.0352  0.0713  1.1012
  534MOL0     H73647  -0.164   4.586   4.510 -1.2010  0.1040 -0.7121
  534MOL0     H73648  -0.238   4.312   4.433  0.0758 -1.3954 -3.2317
  534MOL0     H73649  -0.181   4.438   4.334 -4.4391  0.2652  2.4042
  534MOL0     H73650  -0.161   4.227   4.257 -0.6032  0.5510  3.3213
  534MOL0     H73651  -0.063   4.025   3.973  0.9404  1.8294  0.4482
  534MOL0     H73652  -0.201   4.081   4.055 -0.4127  0.2749  0.4165
  534MOL0     H73653  -0.131   3.928   4.097 -0.1682  0.4884  2.1664
  534MOL0     H73654   0.546   3.886   4.060 -1.5055 -1.9118  2.1838
  534MOL0     H73655   0.666   3.683   3.930 -1.3120 -2.7559 -0.4658
  534MOL0     H73656   0.553   3.387   3.877  0.4960 -0.1848  0.0017
  534MOL0     H73657   0.425   3.393   3.762  0.2196 -2.9296  3.7671
  534MOL0     H73658   0.624   3.216   3.710  1.1497 -0.7413 -1.3674
  534MOL0     H73659   0.563   3.319   3.582 -1.3535  1.1857  0.6369
  534MOL0     H73660   0.816   3.367   3.761 -4.7278 -0.2535  2.7095
  534MOL0     H73661   0.759   3.471   3.630 -1.8258 -1.7343 -2.2543
  534MOL0     H73662   0.810   3.334   3.462 -0.7133  2.2044  1.4048
  534MOL0     H73663   0.846   3.199   3.573 -0.0216  0.3424 -0.4718
  534MOL0     H73664   0.994   3.457   3.541  0.0419 -0.3316 -0.8464
  534MOL0     H73665   1.068   3.338   3.645  1.5591  1.5186 -0.3132
  534MOL0     H73666   1.032   3.298   3.345  0.5492  2.1886 -0.6216
  534MOL0     H73667   1.061   3.167   3.470 -2.9363  0.3595 -3.6043
  534MOL0     H73668   1.280   3.254   3.516 -2.7893  0.6544  1.3405
  534MOL0     H73669   1.241   3.398   3.416 -1.8584 -0.8217 -0.5090
  534MOL0     H73670   1.401   3.239   3.271 -0.3383 -1.7613 -4.7830
  534MOL0     H73671   1.244   3.257   3.202  1.1012 -5.2054 -3.5324
  534MOL0     H73672   0.315   3.606   3.727  4.9061 -3.3515 -1.5688
  534MOL0     H73673   0.200   3.814   3.844 -0.1240  1.5163  0.9983
  534MOL0     H73674   0.302   4.045   4.308 -0.4414  0.3584  0.3092
  534MOL0     H73675   0.208   4.212   4.460  1.9291  0.3291 -1.5884
  534MOL0     H73676   0.626   4.404   6.078  0.1150  1.1299  1.2867
  534MOL0     H73677   0.643   4.226   6.273 -0.5694  2.9974  0.9020
  534MOL0     H73678   0.412   3.806   6.432  0.3684  3.3377 -1.1912
  534MOL0     H73679   0.467   3.604   6.582  0.5516 -0.0121 -0.8077
  534MOL0     H73680   0.778   3.574   6.664 -0.0912  1.0062  0.8868
  534MOL0     H73681   0.825   3.573   6.837  0.4635 -1.3159  0.3887
  534MOL0     H73682   0.623   3.395   6.713 -2.1368  3.3380  0.0781
  534MOL0     H73683   0.656   3.406   6.887  1.5425 -1.8150 -0.1623
  534MOL0     H73684   0.769   3.217   6.785  0.0597 -0.5715  1.5103
  534MOL0     H73685   0.875   3.323   6.693  0.5506  3.4668  0.0007
  534MOL0     H73686   0.875   3.419   6.966  0.6002  0.9853 -0.4210
  534MOL0     H73687   1.007   3.336   6.884  0.2282 -0.1902 -0.1442
  534MOL0     H73688   0.902   3.019   7.115  0.7014 -1.1882 -2.2687
  534MOL0     H73689   0.731   3.882   6.792 -1.8233  1.1576  1.3841
  534MOL0     H73690   0.635   4.177   6.710 -2.7367  0.0555 -2.5783
  534MOL0     H73691   0.779   4.095   6.709 -1.0196  2.0263  1.8768
  534MOL0     H73692   0.711   4.149   6.554 -0.8027  2.5007  1.5652
  535MOL0     O73693  10.055  11.567   8.107 -0.3530  0.1149  0.3056
  535MOL0     C73694   9.975  11.522   8.026 -0.2191  0.2905  0.2454
  535MOL0     O73695   9.997  11.418   7.930  0.4807 -0.4760  0.3127
  535MOL0     C73696  10.124  11.360   7.912 -0.7167 -0.2448 -0.7009
  535MOL0     C73697  10.258  11.419   7.936 -0.5204 -0.4190  0.4443
  535MOL0     C73698  10.373  11.349   7.918  0.8965 -1.3818 -0.1276
  535MOL0     C73699  10.367  11.215   7.890  0.6906  0.0870 -0.6894
  535MOL0     O73700  10.476  11.126   7.888  0.3452 -0.6077 -0.0477
  535MOL0     C73701  10.582  11.167   7.807 -0.3814  0.3113 -0.3764
  535MOL0     C73702  10.563  11.168   7.658  0.4717 -0.2466 -0.0374
  535MOL0     C73703  10.505  11.034   7.623  0.4193  0.0176  0.1728
  535MOL0     C73704  10.518  11.002   7.480  1.1983 -0.2195 -0.1878
  535MOL0     C73705  10.530  10.852   7.453  0.1059  0.3992 -0.3226
  535MOL0     C73706  10.410  10.762   7.495 -0.4054  0.1185  0.5055
  535MOL0     C73707  10.433  10.625   7.437  1.1360  0.3829 -0.3732
  535MOL0     C73708  10.293  10.549   7.459  0.1658 -0.0627  1.1023
  535MOL0     N73709  10.300  10.409   7.412 -0.5678  0.2726  0.2448
  535MOL0     C73710  10.408  10.333   7.410  0.2075 -0.4379 -0.8229
  535MOL0     C73711  10.366  10.224   7.333  0.5397  0.2410  0.1956
  535MOL0     C73712  10.442  10.119   7.280 -0.3767  0.3269 -0.0632
  535MOL0     C73713  10.480  10.145   7.135  0.5131 -0.7812 -0.4809
  535MOL0     C73714  10.544  10.033   7.051  0.3747 -0.1263 -0.2952
  535MOL0     C73715  10.685  10.007   7.107  0.4394  0.1389 -0.9847
  535MOL0     O73716  10.703   9.951   7.243  0.2328 -1.0777 -1.2391
  535MOL0     C73717  10.629   9.842   7.284 -0.4896  0.0025 -0.6008
  535MOL0     C73718  10.598   9.735   7.195 -0.5382  0.8582 -0.0137
  535MOL0     C73719  10.532   9.619   7.255 -0.1711  0.1643  0.3457
  535MOL0     C73720  10.483   9.506   7.171 -0.4065 -0.6519 -0.1156
  535MOL0     C73721  10.516   9.608   7.397  0.4909  0.3475  0.1240
  535MOL0     C73722  10.493   9.487   7.463 -0.9554  0.3427  1.0791
  535MOL0     O73723  10.602   9.397   7.488  0.2775 -0.3243  0.4649
  535MOL0     C73724  10.569   9.309   7.591 -0.4329 -0.3755  0.0766
  535MOL0     C73725  10.565   9.329   7.728  0.8373 -0.2947  0.0055
  535MOL0     C73726  10.532   9.230   7.819  0.7507  0.1623 -0.2195
  535MOL0     C73727  10.507   9.098   7.784  0.5018 -0.0337  0.9521
  535MOL0     O73728  10.468   9.004   7.874 -0.5995 -1.2136  0.2703
  535MOL0     C73729  10.469   8.866   7.833 -0.8985  1.3808 -0.3871
  535MOL0     C73730  10.440   8.793   7.966  0.4537  0.0955 -0.2018
  535MOL0     C73731  10.297   8.831   8.031 -0.5682 -0.1088 -0.2094
  535MOL0     C73732  10.171   8.763   7.961 -0.2184 -0.4490  0.0338
  535MOL0     C73733  10.044   8.801   8.049  0.3175  0.0222 -0.4394
  535MOL0     C73734   9.969   8.926   8.009 -0.1098  0.5153  0.8298
  535MOL0     C73735   9.854   8.955   8.094  0.5225 -0.1025  0.1551
  535MOL0     C73736   9.770   9.067   8.046  0.0198 -0.0314  0.4508
  535MOL0    Cl73737   9.669   9.029   7.903  0.1731  0.0658  0.3611
  535MOL0     C73738  10.512   9.069   7.642  0.0922  0.3586  0.5294
  535MOL0     C73739  10.537   9.177   7.549  0.1887  0.4231  0.0312
  535MOL0     O73740  10.379   9.483   7.517 -0.0774  0.5791  0.2247
  535MOL0     C73741  10.530   9.727   7.477 -0.1898  0.1770  0.5528
  535MOL0     C73742  10.586   9.837   7.418  0.8274 -1.0110 -0.1368
  535MOL0     N73743  10.233  10.230   7.306 -0.2563 -0.0720 -0.6731
  535MOL0     N73744  10.191  10.336   7.365 -0.8346 -0.1468 -0.0502
  535MOL0     C73745  10.249  11.157   7.870  1.0638 -0.3169 -1.0639
  535MOL0     C73746  10.130  11.223   7.889 -0.3675  0.3350 -0.5897
  535MOL0     C73747   9.841  11.579   8.033  0.2882 -2.0598  0.2703
  535MOL0     C73748   9.777  11.603   7.907  0.3818  0.4871  0.5864
  535MOL0     C73749   9.642  11.634   7.907  0.8022  0.7615 -0.0548
  535MOL0     C73750   9.560  11.665   8.016 -0.8314 -0.1736  0.0417
  535MOL0     O73751   9.428  11.709   8.021  0.1925  1.4066  0.3530
  535MOL0     C73752   9.358  11.682   7.897  0.5828 -0.1588 -0.2424
  535MOL0     C73753   9.208  11.691   7.920  0.0988  1.0178  0.3751
  535MOL0     C73754   9.177  11.837   7.973  0.0513 -0.0945 -0.8312
  535MOL0     C73755   9.027  11.866   7.962  0.6112 -0.7728  0.2712
  535MOL0     C73756   9.004  12.005   8.008  0.1959 -0.2446 -0.2571
  535MOL0     C73757   8.993  12.123   8.040  0.7740  1.2030 -0.0979
  535MOL0     C73758   9.628  11.659   8.143 -1.1108 -0.3561  0.6989
  535MOL0     C73759   9.767  11.617   8.147 -0.3577  0.0177  0.3666
  535MOL0     C73760   9.821  11.615   8.281  0.1063 -0.0027 -0.0830
  535MOL0     H73761  10.264  11.526   7.953 -4.8005  0.0512 -0.0358
  535MOL0     H73762  10.473  11.387   7.938  0.4764 -0.0384 -0.4791
  535MOL0     H73763  10.668  11.103   7.830 -0.3001  0.4201 -0.3765
  535MOL0     H73764  10.607  11.266   7.846 -2.8037  1.4380 -1.4338
  535MOL0     H73765  10.492  11.241   7.619 -0.5404 -2.0585 -1.7851
  535MOL0     H73766  10.660  11.175   7.609  1.1938 -1.7337  1.0781
  535MOL0     H73767  10.532  10.951   7.689 -0.0696  0.9442  1.5889
  535MOL0     H73768  10.397  11.042   7.638  0.2984 -1.9010  0.5681
  535MOL0     H73769  10.431  11.043   7.429 -0.7545 -0.0416  2.9679
  535MOL0     H73770  10.607  11.054   7.444  0.5087  0.6605 -0.6610
  535MOL0     H73771  10.626  10.809   7.483 -1.0632 -3.8249 -1.9343
  535MOL0     H73772  10.534  10.839   7.344  2.2990  3.1563 -0.7012
  535MOL0     H73773  10.409  10.750   7.603  4.1646 -1.1800  0.5724
  535MOL0     H73774  10.318  10.803   7.451  0.7908 -1.1844 -3.6431
  535MOL0     H73775  10.512  10.586   7.502 -1.4579 -3.2819  0.8809
  535MOL0     H73776  10.462  10.618   7.332 -0.0930 -0.7741 -0.6542
  535MOL0     H73777  10.263  10.546   7.564 -1.4074 -1.2329  0.6594
  535MOL0     H73778  10.216  10.612   7.412  0.0336 -1.9964 -1.4674
  535MOL0     H73779  10.505  10.357   7.453 -1.6042  2.4005  2.1120
  535MOL0     H73780  10.407  10.019   7.307 -0.5821  0.5679  0.5697
  535MOL0     H73781  10.540  10.118   7.329 -0.9660 -1.3903  1.2028
  535MOL0     H73782  10.387  10.161   7.079  0.2589 -1.0431 -0.1434
  535MOL0     H73783  10.540  10.236   7.127  0.1782 -0.5826 -0.7766
  535MOL0     H73784  10.491   9.938   7.045  2.1839 -1.1445 -5.6095
  535MOL0     H73785  10.563  10.071   6.951  0.1332  2.5504  0.5943
  535MOL0     H73786  10.730   9.935   7.037  2.2138 -4.2848  4.0002
  535MOL0     H73787  10.741  10.101   7.102 -0.9708  1.1071  0.4090
  535MOL0     H73788  10.613   9.738   7.088  3.1554  2.3228  0.4189
  535MOL0     H73789  10.561   9.431   7.188  3.2565  3.5133  5.1518
  535MOL0     H73790  10.485   9.546   7.069  1.7738  0.5560  0.3155
  535MOL0     H73791  10.391   9.454   7.198  0.4407 -0.7790  2.9545
  535MOL0     H73792  10.591   9.430   7.757 -0.1776 -0.7574  2.8525
  535MOL0     H73793  10.515   9.254   7.923 -2.4204  0.8282 -0.7754
  535MOL0     H73794  10.390   8.844   7.761 -0.8474 -1.7008  0.3697
  535MOL0     H73795  10.565   8.830   7.794 -2.6084 -2.1257 -1.7045
  535MOL0     H73796  10.433   8.684   7.958 -3.7561  0.2142 -0.0021
  535MOL0     H73797  10.530   8.822   8.022  0.9998  2.0079 -1.9479
  535MOL0     H73798  10.276   8.938   8.030 -3.4511 -0.5649  0.7480
  535MOL0     H73799  10.291   8.807   8.137  1.5884 -1.6670 -0.3767
  535MOL0     H73800  10.177   8.654   7.957 -1.5145 -0.5772  1.0147
  535MOL0     H73801  10.150   8.796   7.859  2.9222  3.3502  0.3877
  535MOL0     H73802   9.968   8.723   8.055  1.0375 -0.5992  1.1668
  535MOL0     H73803  10.061   8.824   8.154  0.8091  2.3505 -0.9773
  535MOL0     H73804   9.935   8.907   7.906  3.5422 -0.2213 -0.4156
  535MOL0     H73805  10.043   9.006   8.011 -0.0184  0.4292  0.8850
  535MOL0     H73806   9.881   8.971   8.199  1.1877 -1.1999  0.1640
  535MOL0     H73807   9.789   8.867   8.090  0.9974 -0.4072 -1.8429
  535MOL0     H73808   9.828   9.158   8.026 -0.0252 -0.2141 -0.5927
  535MOL0     H73809   9.702   9.095   8.127 -0.0398  1.1226  0.0274
  535MOL0     H73810  10.509   8.969   7.599 -0.8831  1.1666 -1.4113
  535MOL0     H73811  10.539   9.153   7.443  0.3179 -0.9090  0.3151
  535MOL0     H73812  10.509   9.736   7.583 -1.3368  1.5888  0.2508
  535MOL0     H73813  10.607   9.927   7.475  1.0295 -0.3388 -1.2554
  535MOL0     H73814  10.258  11.049   7.861  0.1521 -0.4282 -0.7154
  535MOL0     H73815  10.036  11.170   7.869 -1.9615  3.7802 -3.3265
  535MOL0     H73816   9.834  11.582   7.817 -2.2756 -4.3595 -0.2793
  535MOL0     H73817   9.611  11.634   7.803  2.3783 -0.9057 -0.5829
  535MOL0     H73818   9.377  11.764   7.828 -0.5780  0.5483  0.2496
  535MOL0     H73819   9.395  11.588   7.855  0.5554  0.2395 -1.1820
  535MOL0     H73820   9.161  11.617   7.986 -0.8324  1.1524 -0.1086
  535MOL0     H73821   9.162  11.669   7.824 -0.3126 -2.5329  1.2390
  535MOL0     H73822   9.202  11.834   8.079 -4.2346 -1.1589  0.3302
  535MOL0     H73823   9.239  11.916   7.929  0.4290  0.2896  0.3701
  535MOL0     H73824   8.966  11.795   8.020 -0.1352  0.9094  1.6119
  535MOL0     H73825   8.982  11.868   7.862 -2.0456  1.7110  1.3896
  535MOL0     H73826   8.977  12.217   8.089 -0.1389  1.1864 -0.3504
  535MOL0     H73827   9.579  11.663   8.240  2.3618  0.2357  2.5958
  535MOL0     H73828   9.847  11.714   8.320  1.9871  0.1259 -1.5292
  535MOL0     H73829   9.743  11.579   8.349  2.6486 -0.3710  2.8601
  535MOL0     H73830   9.904  11.544   8.292  1.0867  1.1322  0.0161
  536MOL0     O73831   2.888   0.097   7.360  0.1111  0.5736  0.3662
  536MOL0     C73832   2.866   0.182   7.277  0.8628 -0.4315 -0.1345
  536MOL0     O73833   2.737   0.232   7.252 -0.2888  0.1780 -0.0708
  536MOL0     C73834   2.623   0.201   7.328  0.4347 -0.1876 -0.2813
  536MOL0     C73835   2.492   0.212   7.272  0.2444 -0.3504 -0.3914
  536MOL0     C73836   2.374   0.170   7.344 -0.7748 -0.0491  0.8391
  536MOL0     C73837   2.389   0.141   7.478  0.4758  0.1633 -0.1053
  536MOL0     O73838   2.291   0.078   7.549 -0.0216 -0.1324  0.4815
  536MOL0     C73839   2.177   0.169   7.560 -0.3534 -0.5753  0.9499
  536MOL0     C73840   2.185   0.250   7.683  0.1643  0.7252 -1.0260
  536MOL0     C73841   2.305   0.354   7.680  0.5772  0.9455  0.4018
  536MOL0     C73842   2.320   0.476   7.777  0.0411 -0.6343  0.5193
  536MOL0     C73843   2.228   0.600   7.740 -0.0219  0.1127 -0.5742
  536MOL0     C73844   2.265   0.714   7.830  0.2988  0.0422  1.1466
  536MOL0     C73845   2.394   0.791   7.794 -0.1140 -0.3105 -0.4061
  536MOL0     C73846   2.456   0.860   7.914  0.1191  0.1864  0.1485
  536MOL0     N73847   2.579   0.931   7.877  0.1463  0.6705  1.2214
  536MOL0     C73848   2.690   0.878   7.816  0.7473 -0.0230  0.7842
  536MOL0     C73849   2.777   0.984   7.816  0.4095  0.1098 -0.6268
  536MOL0     C73850   2.914   0.975   7.764 -0.8376 -0.4922  0.1967
  536MOL0     C73851   2.941   1.082   7.656  0.4795  0.3905 -0.4803
  536MOL0     C73852   2.846   1.077   7.538 -0.4614 -0.3108 -0.0159
  536MOL0     C73853   2.875   1.183   7.427 -0.3678  0.2539  0.3965
  536MOL0     O73854   2.984   1.138   7.354 -0.3240  0.4245 -0.3239
  536MOL0     C73855   3.094   1.218   7.349 -0.6502  0.3846  1.2532
  536MOL0     C73856   3.076   1.355   7.314  0.0053 -0.4641 -0.3139
  536MOL0     C73857   3.189   1.429   7.294  0.0087 -0.2877  0.3326
  536MOL0     C73858   3.167   1.576   7.266 -0.0668 -0.5664  0.2413
  536MOL0     C73859   3.312   1.370   7.295  0.3215 -0.6611 -0.7439
  536MOL0     C73860   3.439   1.440   7.246  0.7470  0.2900 -0.3143
  536MOL0     O73861   3.534   1.351   7.195  0.3144 -0.3108 -1.0369
  536MOL0     C73862   3.657   1.395   7.144 -0.2046  0.0030  0.5812
  536MOL0     C73863   3.731   1.286   7.107  0.1349 -0.1759  0.4565
  536MOL0     C73864   3.860   1.302   7.056 -0.2806 -0.0660 -0.2921
  536MOL0     C73865   3.911   1.437   7.043  0.7226 -0.4429 -0.2003
  536MOL0     O73866   4.033   1.467   7.003 -1.0596 -0.9278 -0.7797
  536MOL0     C73867   4.105   1.365   6.929 -0.6928 -0.2161  0.2762
  536MOL0     C73868   4.226   1.428   6.872 -0.0406  0.6022  0.1689
  536MOL0     C73869   4.271   1.348   6.746  0.0215 -0.0556 -0.3887
  536MOL0     C73870   4.401   1.394   6.689  0.4767 -0.3043  0.2378
  536MOL0     C73871   4.423   1.353   6.545  0.1983 -0.9503  0.4341
  536MOL0     C73872   4.572   1.387   6.482 -0.1251 -0.7238  0.2226
  536MOL0     C73873   4.601   1.527   6.469  0.6451 -1.1667  0.2163
  536MOL0     C73874   4.740   1.530   6.402  0.2908  0.4721  0.9292
  536MOL0    Cl73875   4.802   1.681   6.329 -0.1034 -0.0556  0.5874
  536MOL0     C73876   3.828   1.542   7.077  0.2429  0.6015 -0.1941
  536MOL0     C73877   3.703   1.524   7.125  0.1175  0.6059 -0.6822
  536MOL0     O73878   3.465   1.552   7.293 -0.0273  0.1298 -0.2990
  536MOL0     C73879   3.329   1.239   7.344 -0.1325 -0.1249 -0.3231
  536MOL0     C73880   3.221   1.165   7.361  0.0820 -0.2621  0.0442
  536MOL0     N73881   2.718   1.089   7.877 -0.2984 -0.4634  0.2425
  536MOL0     N73882   2.602   1.056   7.918  0.0797  0.1982  1.1181
  536MOL0     C73883   2.515   0.151   7.539  0.5615 -0.2394  0.3057
  536MOL0     C73884   2.629   0.187   7.465 -1.0683  1.1112  0.0642
  536MOL0     C73885   2.970   0.234   7.194 -0.1644  0.8562  0.5368
  536MOL0     C73886   2.941   0.301   7.079 -0.4150 -0.3552 -0.4642
  536MOL0     C73887   3.036   0.359   6.990 -0.4057 -0.9742  0.6088
  536MOL0     C73888   3.164   0.362   7.029 -0.2161  0.3848  1.1151
  536MOL0     O73889   3.247   0.442   6.957 -0.4227 -1.0411 -0.5830
  536MOL0     C73890   3.359   0.505   7.019 -0.9661  0.5601  0.8815
  536MOL0     C73891   3.331   0.636   7.086 -0.1292 -0.3212  0.1570
  536MOL0     C73892   3.220   0.639   7.191 -0.0477 -0.8496  0.1939
  536MOL0     C73893   3.251   0.578   7.329 -0.2165 -0.7855  0.3368
  536MOL0     C73894   3.217   0.669   7.437  0.2764  0.1667 -0.1285
  536MOL0     C73895   3.188   0.759   7.517  0.9848 -0.1206  0.7419
  536MOL0     C73896   3.201   0.295   7.145  0.1583  0.0615 -0.3983
  536MOL0     C73897   3.106   0.234   7.224 -1.0553  0.6033 -0.1137
  536MOL0     C73898   3.168   0.188   7.358  0.0358 -0.3795 -0.5241
  536MOL0     H73899   2.472   0.231   7.168 -0.9369 -2.3409 -0.5891
  536MOL0     H73900   2.280   0.168   7.291 -1.4989  6.6168  0.9537
  536MOL0     H73901   2.089   0.106   7.548  0.5871 -1.6184 -0.8882
  536MOL0     H73902   2.158   0.241   7.480  1.1013  0.5581  1.5729
  536MOL0     H73903   2.088   0.299   7.692 -0.2206  0.3059 -2.5595
  536MOL0     H73904   2.179   0.187   7.772 -1.1953  1.7124 -0.3811
  536MOL0     H73905   2.393   0.300   7.715 -0.0987  1.2645  2.7631
  536MOL0     H73906   2.316   0.375   7.573 -1.1897 -0.3287 -0.0849
  536MOL0     H73907   2.303   0.450   7.882  0.2813 -2.0104  0.2378
  536MOL0     H73908   2.421   0.514   7.763  0.4990 -2.5899 -2.6692
  536MOL0     H73909   2.125   0.568   7.759  0.1949 -0.3412 -0.1779
  536MOL0     H73910   2.233   0.632   7.635 -0.1596  3.5688  0.3373
  536MOL0     H73911   2.180   0.783   7.819 -0.9977 -1.2680  2.4502
  536MOL0     H73912   2.263   0.674   7.932 -2.1804 -0.7329  0.8801
  536MOL0     H73913   2.366   0.861   7.715 -1.2946 -0.2308  0.0654
  536MOL0     H73914   2.479   0.729   7.762  1.4716  1.9602 -0.8624
  536MOL0     H73915   2.386   0.933   7.955  0.1121  0.7700 -0.8746
  536MOL0     H73916   2.469   0.783   7.991  0.7061 -2.2795 -2.2515
  536MOL0     H73917   2.710   0.778   7.780 -0.6340 -0.3979  0.9758
  536MOL0     H73918   2.931   0.879   7.714  3.4693 -0.4191  1.1631
  536MOL0     H73919   2.989   0.975   7.843 -1.6320  0.6005  0.9726
  536MOL0     H73920   2.959   1.187   7.683  1.4816  0.4167 -1.1830
  536MOL0     H73921   3.039   1.057   7.614  2.0686 -1.4557  3.7261
  536MOL0     H73922   2.832   0.977   7.496 -0.7275  0.3752 -1.6388
  536MOL0     H73923   2.757   1.100   7.597  1.0228  2.0828  1.4526
  536MOL0     H73924   2.785   1.191   7.365  1.1994  2.3177 -1.8079
  536MOL0     H73925   2.892   1.282   7.471 -1.0264  1.1836 -1.3152
  536MOL0     H73926   2.980   1.405   7.307 -2.1783 -4.4871 -3.4417
  536MOL0     H73927   3.063   1.609   7.274 -0.0336  1.0385 -3.7148
  536MOL0     H73928   3.195   1.592   7.161 -0.2656  2.0458  0.5075
  536MOL0     H73929   3.231   1.635   7.333  0.0822 -2.2674  1.6497
  536MOL0     H73930   3.689   1.189   7.129 -0.0431  0.0333  1.0517
  536MOL0     H73931   3.906   1.211   7.017  2.0873  1.3240 -0.9353
  536MOL0     H73932   4.147   1.290   6.996  3.0952  0.9519 -0.5340
  536MOL0     H73933   4.042   1.328   6.847  0.9609  3.1153 -2.7832
  536MOL0     H73934   4.209   1.530   6.836  0.0718  0.5607 -0.0032
  536MOL0     H73935   4.302   1.425   6.951 -2.9283 -2.4408  3.1556
  536MOL0     H73936   4.200   1.360   6.664 -0.6167 -0.7115  0.0518
  536MOL0     H73937   4.268   1.240   6.767 -2.3839 -0.2014 -1.1595
  536MOL0     H73938   4.478   1.350   6.753  1.5911  3.3972  1.7226
  536MOL0     H73939   4.412   1.503   6.691  1.7401 -0.4076 -0.2214
  536MOL0     H73940   4.400   1.246   6.546 -1.4276 -0.6721  3.2284
  536MOL0     H73941   4.350   1.401   6.479 -2.5245 -2.4313  2.1800
  536MOL0     H73942   4.585   1.327   6.392  0.8591  1.6331 -1.2917
  536MOL0     H73943   4.646   1.346   6.551 -1.1595 -1.7264  0.7881
  536MOL0     H73944   4.609   1.582   6.563 -1.0950 -0.4822  0.0093
  536MOL0     H73945   4.523   1.581   6.414 -0.3685 -0.4084  2.3026
  536MOL0     H73946   4.744   1.446   6.331  3.4559  0.4457  1.0070
  536MOL0     H73947   4.820   1.511   6.473 -1.7644 -3.0955  2.5459
  536MOL0     H73948   3.846   1.649   7.077 -2.6613  1.1978  0.6417
  536MOL0     H73949   3.633   1.601   7.153 -2.8627 -2.0684 -0.1655
  536MOL0     H73950   3.425   1.194   7.371 -1.8531 -2.8125  1.8384
  536MOL0     H73951   3.238   1.060   7.381 -0.1254 -0.0283  1.5829
  536MOL0     H73952   2.543   0.119   7.638 -0.5337 -0.0764  0.6715
  536MOL0     H73953   2.726   0.200   7.512 -0.6741 -1.5917  0.1730
  536MOL0     H73954   2.845   0.303   7.027 -1.8231  2.4518  1.9329
  536MOL0     H73955   3.009   0.388   6.889  0.0987 -4.0113 -0.5126
  536MOL0     H73956   3.409   0.445   7.096  3.0011 -1.2887 -2.7516
  536MOL0     H73957   3.438   0.505   6.943  1.3893 -0.0219  3.1873
  536MOL0     H73958   3.295   0.693   6.999 -0.6222 -0.5279  0.2208
  536MOL0     H73959   3.428   0.682   7.108 -0.2906  0.7386 -1.1853
  536MOL0     H73960   3.202   0.747   7.201 -0.8541 -0.8894 -0.6912
  536MOL0     H73961   3.128   0.600   7.147  0.1267 -0.1997 -0.7823
  536MOL0     H73962   3.357   0.554   7.341 -0.3250 -0.4546  2.2131
  536MOL0     H73963   3.193   0.487   7.346  1.2466 -2.4170 -2.6036
  536MOL0     H73964   3.158   0.825   7.596 -1.6873 -0.8281  0.4071
  536MOL0     H73965   3.303   0.292   7.184  1.1134  3.9282 -2.0878
  536MOL0     H73966   3.179   0.079   7.357 -0.6004 -0.4702 -3.1862
  536MOL0     H73967   3.260   0.247   7.374 -1.4081  2.0408 -0.6700
  536MOL0     H73968   3.091   0.209   7.433 -4.0382 -3.6068 -3.4002
  537MOL0     O73969  11.350   9.624   3.178  0.0959  0.4787 -0.2719
  537MOL0     C73970  11.341   9.503   3.169 -0.9877 -0.4314 -0.8296
  537MOL0     O73971  11.252   9.427   3.228  0.0095  1.1493  0.2298
  537MOL0     C73972  11.172   9.468   3.339  0.7236  1.0243  0.4823
  537MOL0     C73973  11.213   9.533   3.460  0.7801  1.2515 -0.2324
  537MOL0     C73974  11.110   9.570   3.543  0.3107 -0.0046 -0.0913
  537MOL0     C73975  10.971   9.547   3.519 -0.5201  0.0193 -0.7778
  537MOL0     O73976  10.860   9.575   3.602 -0.6108  0.0928  0.6475
  537MOL0     C73977  10.880   9.661   3.716  0.3902  0.2003  0.5070
  537MOL0     C73978  10.756   9.668   3.799  0.6673 -0.1013 -1.0688
  537MOL0     C73979  10.803   9.681   3.940  0.5632 -0.1116 -0.8523
  537MOL0     C73980  10.685   9.714   4.031 -0.4906 -0.9528  0.6612
  537MOL0     C73981  10.606   9.588   4.067 -0.1550  0.1513  0.4260
  537MOL0     C73982  10.673   9.525   4.198  0.1691  0.3739 -0.0340
  537MOL0     C73983  10.622   9.383   4.226 -0.2145  0.3408  0.9792
  537MOL0     C73984  10.573   9.354   4.365  0.0401  0.4853 -0.1677
  537MOL0     N73985  10.555   9.199   4.385 -0.4704 -0.3285 -0.9360
  537MOL0     C73986  10.608   9.088   4.321  0.1843 -0.9133  0.4614
  537MOL0     C73987  10.566   8.976   4.383 -0.1110  0.3506  0.1882
  537MOL0     C73988  10.615   8.829   4.352  0.1987  0.1063 -0.5416
  537MOL0     C73989  10.501   8.734   4.312  0.2189 -0.9189 -0.0087
  537MOL0     C73990  10.550   8.609   4.258 -0.6785  0.3730 -0.6171
  537MOL0     C73991  10.453   8.529   4.166 -0.4809  0.2403  0.7340
  537MOL0     O73992  10.459   8.390   4.175 -0.4155  0.7054 -0.1772
  537MOL0     C73993  10.390   8.317   4.086 -0.2170  0.5741  0.2056
  537MOL0     C73994  10.388   8.180   4.111  0.5563 -0.2413 -0.6205
  537MOL0     C73995  10.318   8.096   4.034  0.0221  0.3138 -0.0919
  537MOL0     C73996  10.318   7.948   4.060  0.3579  0.8790 -1.0815
  537MOL0     C73997  10.252   8.159   3.926  0.5990  0.0953  0.7108
  537MOL0     C73998  10.193   8.083   3.817 -0.8866  0.3183  0.8453
  537MOL0     O73999  10.080   8.131   3.756  0.3720 -0.5138  0.2590
  537MOL0     C74000   9.993   8.055   3.675  0.1170  0.2305  0.4217
  537MOL0     C74001   9.897   8.127   3.609  0.4890  0.1333  0.9264
  537MOL0     C74002   9.812   8.058   3.508  0.4810  0.2510 -0.1292
  537MOL0     C74003   9.821   7.917   3.497 -0.0760  0.2941 -0.3753
  537MOL0     O74004   9.731   7.857   3.416 -0.7867  0.3394  0.0556
  537MOL0     C74005   9.655   7.745   3.460 -0.2797  0.2998 -1.6389
  537MOL0     C74006   9.529   7.729   3.374  0.4955  0.2447 -0.1326
  537MOL0     C74007   9.556   7.684   3.229 -0.3940  0.0784 -0.3693
  537MOL0     C74008   9.572   7.527   3.206 -0.4544 -0.2751  0.3016
  537MOL0     C74009   9.653   7.496   3.085 -0.4170  0.5272 -0.3982
  537MOL0     C74010   9.678   7.346   3.080  0.1189 -0.0194  0.1646
  537MOL0     C74011   9.791   7.305   2.992  0.1314 -0.1832 -0.2080
  537MOL0     C74012   9.920   7.312   3.059 -0.9474 -0.0859  1.2929
  537MOL0    Cl74013  10.054   7.308   2.949 -0.1849 -0.1365  0.4171
  537MOL0     C74014   9.901   7.844   3.588 -0.5337 -1.1589 -0.0633
  537MOL0     C74015   9.990   7.907   3.671 -0.1355 -0.3929 -0.7250
  537MOL0     O74016  10.241   7.971   3.795  0.3637  0.1877  0.5136
  537MOL0     C74017  10.251   8.293   3.893 -0.6654 -0.3740  0.6067
  537MOL0     C74018  10.310   8.375   3.986 -0.1532 -0.1250  0.3314
  537MOL0     N74019  10.484   9.017   4.474  0.7277 -0.0429 -0.2610
  537MOL0     N74020  10.481   9.146   4.480  0.0283  0.5122 -0.0117
  537MOL0     C74021  10.941   9.475   3.413  0.1493 -0.6241 -0.7520
  537MOL0     C74022  11.035   9.438   3.314 -0.1613  0.0340 -0.2601
  537MOL0     C74023  11.450   9.445   3.088 -0.8948  0.6513  1.0237
  537MOL0     C74024  11.497   9.501   2.960 -0.2280  0.5881  0.1052
  537MOL0     C74025  11.598   9.435   2.888 -0.0044  0.5252 -0.1967
  537MOL0     C74026  11.653   9.308   2.941  0.0799 -0.4533 -0.6308
  537MOL0     O74027  11.752   9.233   2.886  0.8930 -0.7553 -0.2125
  537MOL0     C74028  11.835   9.315   2.799  0.1922 -0.5047  0.9948
  537MOL0     C74029  11.965   9.235   2.774  0.1489 -0.6602  0.0444
  537MOL0     C74030  11.935   9.111   2.680  0.4677  0.5229 -0.3201
  537MOL0     C74031  11.987   8.976   2.727 -0.1949  0.4165  0.6831
  537MOL0     C74032  11.983   8.890   2.610  0.3055  0.3024 -0.5116
  537MOL0     C74033  11.992   8.842   2.501 -0.3006 -0.2741 -0.1503
  537MOL0     C74034  11.599   9.248   3.050  0.8457  0.5302  0.4207
  537MOL0     C74035  11.504   9.317   3.126  0.2491 -0.2646  0.2826
  537MOL0     C74036  11.453   9.242   3.254 -0.4941 -0.3293  0.3049
  537MOL0     H74037  11.320   9.543   3.475  1.1749 -0.3977 -1.6406
  537MOL0     H74038  11.136   9.628   3.631  1.6063  0.2664 -0.6319
  537MOL0     H74039  10.908   9.757   3.670  0.3037 -0.4733 -0.9957
  537MOL0     H74040  10.968   9.618   3.764 -0.5887  0.1864  2.3735
  537MOL0     H74041  10.697   9.758   3.783 -1.1062 -0.7880  1.1129
  537MOL0     H74042  10.694   9.579   3.789 -0.0642  0.4274 -1.3192
  537MOL0     H74043  10.836   9.580   3.967 -0.5017 -0.1846  0.2632
  537MOL0     H74044  10.873   9.765   3.936 -1.5958  2.2300  3.1069
  537MOL0     H74045  10.723   9.769   4.118  0.6441  0.5486 -0.7156
  537MOL0     H74046  10.613   9.787   3.991  2.3784  1.7064 -0.0396
  537MOL0     H74047  10.612   9.517   3.984  0.4258 -0.4587  0.9773
  537MOL0     H74048  10.499   9.612   4.071  0.0044  1.0426 -0.4275
  537MOL0     H74049  10.777   9.503   4.172 -0.2509 -0.2534 -1.1857
  537MOL0     H74050  10.670   9.598   4.280 -3.0066  1.5772 -1.0893
  537MOL0     H74051  10.703   9.314   4.203  0.9815  2.0610 -0.2592
  537MOL0     H74052  10.541   9.362   4.155  1.6003 -1.0260 -0.8053
  537MOL0     H74053  10.645   9.389   4.440 -0.2191  1.3314 -0.2992
  537MOL0     H74054  10.494   9.425   4.390  0.3744 -0.1972  3.3074
  537MOL0     H74055  10.659   9.082   4.225 -3.4721 -0.9434 -1.6740
  537MOL0     H74056  10.683   8.787   4.427 -0.6824  0.3034  0.3965
  537MOL0     H74057  10.672   8.856   4.263  1.5927  1.7038  0.7635
  537MOL0     H74058  10.435   8.719   4.398  0.4027 -1.4742  0.0390
  537MOL0     H74059  10.438   8.792   4.244  2.1017  4.6094  2.4316
  537MOL0     H74060  10.644   8.626   4.206  2.2068  0.5332  4.1115
  537MOL0     H74061  10.573   8.537   4.338 -5.8578 -0.5429  0.4217
  537MOL0     H74062  10.355   8.568   4.196 -0.6702  0.6992 -0.4522
  537MOL0     H74063  10.477   8.561   4.065 -0.8639  0.8478  0.8302
  537MOL0     H74064  10.438   8.144   4.200 -1.7492  1.8620  1.6992
  537MOL0     H74065  10.224   7.897   4.036  0.1787  0.3916  0.5139
  537MOL0     H74066  10.320   7.932   4.168 -1.9751  0.4676 -1.0448
  537MOL0     H74067  10.403   7.904   4.006 -0.1372 -0.4337 -0.8267
  537MOL0     H74068   9.888   8.235   3.615 -1.7940  0.1967 -1.4694
  537MOL0     H74069   9.739   8.112   3.448  1.1672  0.1991 -1.0373
  537MOL0     H74070   9.725   7.662   3.470 -0.4479  0.3672  0.7396
  537MOL0     H74071   9.602   7.762   3.554 -4.6489  0.2734 -3.8047
  537MOL0     H74072   9.456   7.660   3.416  1.0117  0.7040  1.6104
  537MOL0     H74073   9.476   7.825   3.377  1.7099  0.9369 -0.0812
  537MOL0     H74074   9.648   7.735   3.198  1.0438 -1.4399  1.1809
  537MOL0     H74075   9.477   7.718   3.162 -0.3790  3.4673  1.1088
  537MOL0     H74076   9.476   7.478   3.219 -1.1813  0.8588 -0.5536
  537MOL0     H74077   9.630   7.491   3.291  0.5035 -2.1139 -1.0705
  537MOL0     H74078   9.604   7.523   2.991 -1.2021  0.0392 -0.1345
  537MOL0     H74079   9.745   7.555   3.098  0.3837 -0.8315  0.4229
  537MOL0     H74080   9.584   7.311   3.037  2.4305 -2.4542 -3.4979
  537MOL0     H74081   9.691   7.306   3.181 -0.6832  0.8880  0.6456
  537MOL0     H74082   9.797   7.359   2.897  1.6907  2.9946  1.5243
  537MOL0     H74083   9.778   7.199   2.968  2.7245  0.0461 -3.4776
  537MOL0     H74084   9.938   7.225   3.123 -2.7011 -0.8928  0.7433
  537MOL0     H74085   9.919   7.409   3.110  0.1830  1.0151 -0.6847
  537MOL0     H74086   9.905   7.737   3.569  1.4751 -1.6255  2.4681
  537MOL0     H74087  10.043   7.835   3.732 -1.4026 -1.8484 -1.2640
  537MOL0     H74088  10.204   8.337   3.806 -2.6036 -2.9957  0.1942
  537MOL0     H74089  10.304   8.481   3.964  2.5268  0.1728  0.7282
  537MOL0     H74090  10.835   9.455   3.400 -0.8494  2.7779  0.8380
  537MOL0     H74091  10.994   9.388   3.227 -1.3163  0.1408  0.2068
  537MOL0     H74092  11.459   9.598   2.931  0.3726  0.0981 -2.5438
  537MOL0     H74093  11.632   9.477   2.794  2.2309 -0.4338  0.1395
  537MOL0     H74094  11.781   9.324   2.704 -1.3330 -0.6900  1.7999
  537MOL0     H74095  11.871   9.411   2.838  3.8588 -0.6096 -1.6064
  537MOL0     H74096  12.013   9.206   2.868  2.1047  0.3219 -0.5900
  537MOL0     H74097  12.034   9.303   2.723 -1.1726  0.7253  0.0109
  537MOL0     H74098  11.828   9.101   2.660  0.4949  0.0189 -0.2288
  537MOL0     H74099  11.976   9.134   2.581  0.1829 -1.0792 -0.8456
  537MOL0     H74100  11.930   8.944   2.814 -0.2355 -1.3240  0.0498
  537MOL0     H74101  12.095   8.976   2.748 -0.1571  0.8620  0.4943
  537MOL0     H74102  11.998   8.807   2.400 -4.3321 -1.6175 -0.1236
  537MOL0     H74103  11.638   9.149   3.068  2.4765  0.3662 -3.0401
  537MOL0     H74104  11.452   9.296   3.348 -3.6559 -2.0773  1.4256
  537MOL0     H74105  11.356   9.198   3.226 -1.2415  1.0866  0.5502
  537MOL0     H74106  11.512   9.153   3.276 -1.0257 -0.9357 -0.6159
  538MOL0     O74107   9.506  10.261   1.275  0.4065  0.5221  0.4978
  538MOL0     C74108   9.419  10.329   1.221  0.0504  0.3373  0.5815
  538MOL0     O74109   9.333  10.285   1.126  0.0443 -0.0930  0.3876
  538MOL0     C74110   9.325  10.145   1.109 -0.1424 -0.8296 -0.9668
  538MOL0     C74111   9.415  10.082   1.022  0.0431  0.5200  0.6872
  538MOL0     C74112   9.401   9.951   0.988 -0.4236 -0.1955 -0.5749
  538MOL0     C74113   9.301   9.876   1.056  0.4209  0.2988  0.9847
  538MOL0     O74114   9.280   9.741   1.029  0.1549 -0.1487 -0.0926
  538MOL0     C74115   9.312   9.682   0.905  0.3291 -0.3035 -0.3122
  538MOL0     C74116   9.418   9.570   0.920  0.4613 -1.2634 -0.6106
  538MOL0     C74117   9.393   9.458   0.827 -0.1295  0.0337  0.7185
  538MOL0     C74118   9.498   9.347   0.840 -0.4084 -0.2678 -0.0989
  538MOL0     C74119   9.474   9.253   0.723 -0.0386 -0.0153 -0.4492
  538MOL0     C74120   9.564   9.124   0.717 -0.1306 -0.2282  0.1740
  538MOL0     C74121   9.525   9.035   0.591 -0.6075 -0.2676 -0.1358
  538MOL0     C74122   9.544   9.106   0.450 -0.1294 -0.7412  0.2981
  538MOL0     N74123   9.473   9.058   0.335 -0.4385  0.6862 -0.1784
  538MOL0     C74124   9.469   9.130   0.218  0.0979 -0.8601 -0.2417
  538MOL0     C74125   9.428   9.043   0.121  0.5504 -0.3570 -0.4909
  538MOL0     C74126   9.440   9.078  -0.023 -0.6369  0.3549 -0.2087
  538MOL0     C74127   9.293   9.098  -0.077  0.8044 -0.4296  1.2336
  538MOL0     C74128   9.222   8.966  -0.109  0.7544 -0.6377 -0.0279
  538MOL0     C74129   9.068   8.985  -0.081  0.3514  0.5399 -0.1287
  538MOL0     O74130   8.989   8.878  -0.136 -0.2448  0.7944 -1.0148
  538MOL0     C74131   8.849   8.882  -0.128  0.2366  0.2953 -0.3244
  538MOL0     C74132   8.773   8.996  -0.073  0.2755  1.3032  0.6916
  538MOL0     C74133   8.634   8.983  -0.059  0.2973  0.6341 -0.0870
  538MOL0     C74134   8.560   9.104   0.001  0.0774  0.4867  0.1712
  538MOL0     C74135   8.562   8.872  -0.119 -1.0170  0.7148 -0.7195
  538MOL0     C74136   8.430   8.835  -0.079  0.0595 -0.2385  1.1788
  538MOL0     O74137   8.386   8.897   0.026 -0.0011  0.0297  0.0408
  538MOL0     C74138   8.264   8.853   0.086 -0.4073  0.2369  0.5598
  538MOL0     C74139   8.267   8.793   0.213 -0.1441  0.5888  0.6000
  538MOL0     C74140   8.150   8.769   0.286  0.1581  0.5785  1.7791
  538MOL0     C74141   8.026   8.796   0.221 -0.3553 -0.3378 -0.0747
  538MOL0     O74142   7.908   8.776   0.292 -0.3800  0.2849  0.8232
  538MOL0     C74143   7.800   8.720   0.217  0.6151  0.3660 -0.0753
  538MOL0     C74144   7.674   8.804   0.175 -0.2840  0.1830  0.1212
  538MOL0     C74145   7.572   8.815   0.288  0.7892  0.0623  0.1845
  538MOL0     C74146   7.473   8.927   0.248 -0.2944  0.3260  0.4105
  538MOL0     C74147   7.342   8.910   0.313  0.3845  0.0864  0.9614
  538MOL0     C74148   7.286   9.048   0.327 -0.3699  0.3930  0.3689
  538MOL0     C74149   7.267   9.128   0.195  0.7270 -0.9166  1.0010
  538MOL0     C74150   7.192   9.261   0.225  0.4099  0.0525  0.1039
  538MOL0    Cl74151   7.299   9.344   0.326  0.0540 -0.6541 -0.2910
  538MOL0     C74152   8.021   8.861   0.098  0.2240  0.0473 -0.4991
  538MOL0     C74153   8.139   8.883   0.032 -0.4021  0.3254  0.0067
  538MOL0     O74154   8.380   8.737  -0.139  0.0608  0.0734  0.9601
  538MOL0     C74155   8.640   8.773  -0.188 -0.3321  0.4468  0.0463
  538MOL0     C74156   8.776   8.773  -0.177 -1.3003 -0.0548  0.9031
  538MOL0     N74157   9.416   8.920   0.171  0.5225  0.3524 -1.2825
  538MOL0     N74158   9.445   8.927   0.302 -0.0177  0.2696 -1.3077
  538MOL0     C74159   9.215   9.943   1.150  0.8371  0.4392  0.1582
  538MOL0     C74160   9.226  10.080   1.174 -1.1492 -0.6300 -0.6862
  538MOL0     C74161   9.376  10.456   1.293 -0.2876 -0.0175 -0.2947
  538MOL0     C74162   9.423  10.484   1.420 -0.2002 -0.3102  0.6614
  538MOL0     C74163   9.393  10.594   1.496  0.7653  0.4266  0.3890
  538MOL0     C74164   9.310  10.691   1.438 -0.2701 -0.8944 -0.0799
  538MOL0     O74165   9.295  10.799   1.515  0.2052 -0.2153 -0.3015
  538MOL0     C74166   9.204  10.893   1.464 -0.5827  1.2080  0.3901
  538MOL0     C74167   9.210  11.017   1.555  0.4982  0.8665 -0.6604
  538MOL0     C74168   9.168  10.978   1.700 -0.5953 -0.3902  0.7981
  538MOL0     C74169   9.135  11.084   1.804 -0.4547 -0.1598  0.5104
  538MOL0     C74170   9.014  11.156   1.760  0.0966  0.6246  0.8623
  538MOL0     C74171   8.899  11.199   1.735 -0.2825  0.3596 -0.7067
  538MOL0     C74172   9.275  10.674   1.306  1.3434  0.3415 -0.1420
  538MOL0     C74173   9.297  10.553   1.225 -0.3689 -0.5169 -0.0116
  538MOL0     C74174   9.246  10.548   1.077 -0.7436 -1.4704 -0.4021
  538MOL0     H74175   9.496  10.138   0.976  0.9074 -0.9583  0.3408
  538MOL0     H74176   9.480   9.913   0.923 -0.2734  0.4886 -0.7915
  538MOL0     H74177   9.355   9.745   0.827 -2.2902 -2.4477 -3.7933
  538MOL0     H74178   9.221   9.638   0.864 -1.4587  1.7757  1.1466
  538MOL0     H74179   9.518   9.614   0.909 -0.4744  0.8068 -1.2582
  538MOL0     H74180   9.398   9.528   1.019 -1.0315 -2.1201 -1.2434
  538MOL0     H74181   9.299   9.406   0.844 -1.3514  0.4888 -3.6273
  538MOL0     H74182   9.396   9.506   0.729  0.0343 -1.5844 -0.0872
  538MOL0     H74183   9.597   9.390   0.857 -0.8012  1.7591 -2.4016
  538MOL0     H74184   9.484   9.292   0.934  2.4388  3.7842  3.0946
  538MOL0     H74185   9.484   9.307   0.629  2.2714 -0.2566 -0.4076
  538MOL0     H74186   9.373   9.209   0.722 -0.8686  1.8058 -0.9957
  538MOL0     H74187   9.670   9.150   0.704 -0.2921 -0.9414 -3.8971
  538MOL0     H74188   9.547   9.070   0.810 -0.7768 -1.0899 -0.4306
  538MOL0     H74189   9.422   9.001   0.604 -1.3946 -0.1548 -4.6877
  538MOL0     H74190   9.587   8.946   0.590 -1.8127 -1.1332 -1.8305
  538MOL0     H74191   9.519   9.212   0.456  0.9009 -0.5589  2.1444
  538MOL0     H74192   9.649   9.120   0.424 -0.2692 -0.1587  0.0322
  538MOL0     H74193   9.485   9.236   0.204 -0.9074 -0.7718 -0.8194
  538MOL0     H74194   9.462   8.985  -0.078  2.6980 -0.5242  2.2372
  538MOL0     H74195   9.517   9.151  -0.050 -2.3500  2.2197 -0.2546
  538MOL0     H74196   9.241   9.157  -0.000 -0.9820 -1.5364  0.9463
  538MOL0     H74197   9.277   9.165  -0.163 -0.1411  0.1431  1.8342
  538MOL0     H74198   9.244   8.946  -0.214 -2.3168  3.6113 -1.7715
  538MOL0     H74199   9.266   8.884  -0.051 -2.7719 -4.6979 -2.4962
  538MOL0     H74200   9.050   8.993   0.026  0.4974 -0.2803 -0.0357
  538MOL0     H74201   9.039   9.081  -0.124 -0.9767  0.4288  0.4613
  538MOL0     H74202   8.813   9.087  -0.030 -1.4493  2.1954  0.4847
  538MOL0     H74203   8.453   9.119  -0.019  0.1751  0.8517 -0.0737
  538MOL0     H74204   8.611   9.193  -0.036  0.8727  0.6492  1.6224
  538MOL0     H74205   8.577   9.104   0.109  0.6062 -2.5326  0.1897
  538MOL0     H74206   8.360   8.776   0.267  0.4408  2.0097  0.0896
  538MOL0     H74207   8.175   8.731   0.384  0.1500 -0.3410  1.4296
  538MOL0     H74208   7.843   8.668   0.131  1.3108 -0.0271  0.5056
  538MOL0     H74209   7.766   8.634   0.274  1.5883 -0.2211 -0.3648
  538MOL0     H74210   7.715   8.902   0.151 -1.0681  0.4983  0.0647
  538MOL0     H74211   7.623   8.766   0.086 -1.7321 -0.4162  1.1677
  538MOL0     H74212   7.612   8.849   0.383  0.5382  0.4910  0.1399
  538MOL0     H74213   7.525   8.716   0.294  0.7345 -0.4286 -4.3779
  538MOL0     H74214   7.459   8.953   0.142  0.5299 -0.4277  0.1013
  538MOL0     H74215   7.517   9.020   0.285 -1.5689  2.1617 -2.3042
  538MOL0     H74216   7.279   8.854   0.242  0.8633  2.6440 -1.6495
  538MOL0     H74217   7.344   8.856   0.409 -2.1745 -1.5677  0.2009
  538MOL0     H74218   7.346   9.096   0.404  0.8927 -1.4351  0.5832
  538MOL0     H74219   7.184   9.025   0.359 -0.7840  1.1187 -0.4010
  538MOL0     H74220   7.196   9.064   0.141  3.4396 -2.2513 -1.2515
  538MOL0     H74221   7.350   9.147   0.126 -2.6911  0.6030 -3.1774
  538MOL0     H74222   7.102   9.243   0.285  2.9025 -2.3964  3.5075
  538MOL0     H74223   7.168   9.330   0.143 -2.6201  2.9113  3.0728
  538MOL0     H74224   7.927   8.892   0.053  0.5391  2.4759  0.3695
  538MOL0     H74225   8.127   8.941  -0.059 -2.4450 -0.3697 -0.2261
  538MOL0     H74226   8.597   8.684  -0.233  1.4612 -0.6696  0.4291
  538MOL0     H74227   8.823   8.706  -0.248 -4.1430  0.0016 -1.1557
  538MOL0     H74228   9.148   9.879   1.206 -2.4222  2.3734 -1.2740
  538MOL0     H74229   9.158  10.126   1.245  3.9391  2.5365  2.8775
  538MOL0     H74230   9.485  10.405   1.461 -1.0448 -0.4350  1.7351
  538MOL0     H74231   9.419  10.590   1.601  0.7965 -1.3915  0.3421
  538MOL0     H74232   9.214  10.923   1.359 -2.0009 -1.3301 -0.5669
  538MOL0     H74233   9.102  10.853   1.466 -1.5995  3.4541 -1.0353
  538MOL0     H74234   9.135  11.091   1.526 -3.4677 -2.2661  0.7401
  538MOL0     H74235   9.312  11.057   1.559  0.3811  1.0351  2.1518
  538MOL0     H74236   9.095  10.897   1.692 -1.1273  0.0796  0.8270
  538MOL0     H74237   9.253  10.929   1.749 -0.4477 -3.1011 -1.8814
  538MOL0     H74238   9.216  11.158   1.804 -0.8441  0.4350 -3.1678
  538MOL0     H74239   9.106  11.037   1.899 -4.0629  0.7651  0.0227
  538MOL0     H74240   8.802  11.241   1.719  0.0900  2.0868  1.1207
  538MOL0     H74241   9.206  10.742   1.257  1.9744 -0.6312 -2.5247
  538MOL0     H74242   9.319  10.509   1.005  1.5685  3.8581 -1.4044
  538MOL0     H74243   9.155  10.491   1.055 -0.0454 -2.6199 -0.4401
  538MOL0     H74244   9.235  10.649   1.037 -0.2241 -0.0268  2.7572
  539MOL0     O74245   3.168   7.450  11.044  0.6684  0.1016 -0.4761
  539MOL0     C74246   3.077   7.386  11.104  0.7989 -0.2645 -0.1822
  539MOL0     O74247   3.030   7.265  11.067  0.3291  1.2196 -1.0762
  539MOL0     C74248   3.113   7.199  10.973 -0.0806 -0.5884 -0.0160
  539MOL0     C74249   3.056   7.168  10.850 -1.0253 -0.3672  0.0592
  539MOL0     C74250   3.129   7.093  10.759 -0.2876 -0.6455 -1.0359
  539MOL0     C74251   3.260   7.053  10.788 -0.1019  1.3588  0.4939
  539MOL0     O74252   3.324   6.970  10.696  0.2377  0.2890 -0.0829
  539MOL0     C74253   3.469   6.980  10.679  0.0406 -0.9895  0.1254
  539MOL0     C74254   3.509   6.950  10.534  0.7113  0.0546 -0.6089
  539MOL0     C74255   3.484   6.811  10.493 -1.0218  1.0402 -0.8028
  539MOL0     C74256   3.552   6.778  10.358 -0.2720 -0.8736 -0.0959
  539MOL0     C74257   3.458   6.795  10.235 -0.0019  1.7229 -0.1709
  539MOL0     C74258   3.530   6.835  10.098  0.4833 -1.1757  0.0649
  539MOL0     C74259   3.634   6.746  10.037  0.0788 -0.5290 -0.3291
  539MOL0     C74260   3.663   6.789   9.897  0.4418 -0.6437 -0.5295
  539MOL0     N74261   3.705   6.929   9.882 -0.2927 -0.7775 -0.4193
  539MOL0     C74262   3.831   6.984   9.906 -0.0116  0.8737 -0.0308
  539MOL0     C74263   3.816   7.108   9.865  0.5395 -1.1189  0.4840
  539MOL0     C74264   3.926   7.207   9.875 -0.2690 -0.3553  0.3755
  539MOL0     C74265   3.960   7.266   9.743 -0.1875 -0.7341 -0.6943
  539MOL0     C74266   3.910   7.408   9.705  0.0364  0.2805  0.5007
  539MOL0     C74267   3.919   7.509   9.810  0.0687  0.3591  0.3489
  539MOL0     O74268   3.907   7.635   9.749  0.0888  0.8333 -0.7160
  539MOL0     C74269   3.780   7.688   9.738  0.3541  0.1354  0.2329
  539MOL0     C74270   3.656   7.632   9.772 -1.0864 -0.4500 -0.2756
  539MOL0     C74271   3.538   7.688   9.735 -0.0538 -0.2729  0.1719
  539MOL0     C74272   3.420   7.603   9.784  0.5388  1.2547  0.1861
  539MOL0     C74273   3.530   7.803   9.658 -0.8061  1.2173  0.3924
  539MOL0     C74274   3.399   7.858   9.617 -0.0722  0.7022 -0.0198
  539MOL0     O74275   3.428   7.956   9.518 -0.4443 -0.1249 -0.3684
  539MOL0     C74276   3.319   8.030   9.475 -0.3449 -0.7680 -0.0043
  539MOL0     C74277   3.336   8.168   9.486 -0.1965  0.4660 -0.6774
  539MOL0     C74278   3.239   8.257   9.454 -0.9355  0.7563  0.2998
  539MOL0     C74279   3.117   8.209   9.403 -0.0645  0.6884 -0.9343
  539MOL0     O74280   3.023   8.304   9.363  0.7638 -0.4388  0.0416
  539MOL0     C74281   2.919   8.268   9.271 -0.7138 -0.2589 -0.1927
  539MOL0     C74282   2.908   8.389   9.171  0.9322 -0.1974  0.1121
  539MOL0     C74283   2.827   8.498   9.243 -1.1221 -0.2534 -0.0216
  539MOL0     C74284   2.880   8.637   9.213 -0.1799 -0.7293  0.7939
  539MOL0     C74285   2.835   8.747   9.322  0.4657  0.0100 -0.1083
  539MOL0     C74286   2.895   8.885   9.277 -0.3664  1.1628 -0.0520
  539MOL0     C74287   3.042   8.899   9.297 -0.4304 -0.1820 -0.6184
  539MOL0     C74288   3.101   9.035   9.280 -0.8971  1.0018  1.0892
  539MOL0    Cl74289   3.117   9.054   9.089 -0.0096 -0.1571 -0.2568
  539MOL0     C74290   3.100   8.073   9.391 -0.3716  0.8489  0.2709
  539MOL0     C74291   3.201   7.976   9.427 -0.5058  0.5453  0.4961
  539MOL0     O74292   3.289   7.832   9.663 -0.0332  0.0085  0.0342
  539MOL0     C74293   3.655   7.865   9.618  0.2175 -1.0597  0.5005
  539MOL0     C74294   3.775   7.808   9.669  0.5136 -0.6171 -0.2166
  539MOL0     N74295   3.684   7.142   9.826 -0.2697 -0.2641 -0.9219
  539MOL0     N74296   3.619   7.026   9.835 -0.1639  0.4486  0.1498
  539MOL0     C74297   3.317   7.082  10.918  0.0146 -0.0307  0.7095
  539MOL0     C74298   3.237   7.161  11.001 -0.4859  0.2316  0.4499
  539MOL0     C74299   3.025   7.447  11.225  0.0731  0.1082 -0.8625
  539MOL0     C74300   3.090   7.565  11.273 -0.6924  0.3376 -0.5258
  539MOL0     C74301   3.044   7.641  11.382 -0.1199  0.1809  0.6039
  539MOL0     C74302   2.925   7.602  11.440 -0.3247  0.0444  0.8418
  539MOL0     O74303   2.855   7.671  11.533  0.0158  1.0341  0.3013
  539MOL0     C74304   2.901   7.797  11.575 -0.0415 -0.0063  0.6819
  539MOL0     C74305   2.789   7.846  11.673 -0.9838  0.3579  0.1170
  539MOL0     C74306   2.814   7.995  11.740 -0.1968 -0.3291  1.2124
  539MOL0     C74307   2.945   7.998  11.818  1.1255 -0.2587 -0.1482
  539MOL0     C74308   2.990   8.126  11.871  0.1320 -0.1962  0.3497
  539MOL0     C74309   3.029   8.238  11.912  0.5499  0.1737  0.2486
  539MOL0     C74310   2.867   7.486  11.402  0.4625  0.7690  0.6742
  539MOL0     C74311   2.906   7.403  11.291 -0.2831 -0.0671 -0.3662
  539MOL0     C74312   2.820   7.284  11.252  0.3125 -1.0108 -0.8358
  539MOL0     H74313   2.955   7.202  10.827 -1.3204 -1.4309 -0.2628
  539MOL0     H74314   3.097   7.095  10.655  0.7017 -1.4979 -1.3723
  539MOL0     H74315   3.514   6.908  10.748 -2.0269 -0.4749  2.1277
  539MOL0     H74316   3.502   7.082  10.702  0.9003 -0.9952 -0.9529
  539MOL0     H74317   3.443   7.010  10.471 -0.2008 -0.5502 -0.2661
  539MOL0     H74318   3.613   6.980  10.523  1.2471 -1.8547 -1.0847
  539MOL0     H74319   3.533   6.753  10.571  0.5432  2.5966 -0.5653
  539MOL0     H74320   3.382   6.777  10.471  0.0817 -1.6063 -2.2818
  539MOL0     H74321   3.630   6.852  10.340 -2.3372  0.3726 -7.0531
  539MOL0     H74322   3.595   6.678  10.363  2.9326  0.4470  2.0271
  539MOL0     H74323   3.388   6.877  10.255 -1.3426  0.0431  2.6058
  539MOL0     H74324   3.395   6.705  10.234 -2.7370  3.4521  1.8299
  539MOL0     H74325   3.453   6.856  10.023 -0.4502  0.7677  1.4508
  539MOL0     H74326   3.570   6.935  10.117 -0.9564  0.3487 -3.9097
  539MOL0     H74327   3.602   6.642  10.046  1.2799 -0.9541 -0.8030
  539MOL0     H74328   3.728   6.757  10.091  0.1937  1.4903 -0.8619
  539MOL0     H74329   3.746   6.725   9.865  0.2273 -2.0735  1.5675
  539MOL0     H74330   3.589   6.760   9.822  2.3090  0.3775 -2.9000
  539MOL0     H74331   3.924   6.942   9.944 -0.8988  1.4061  2.9770
  539MOL0     H74332   4.012   7.155   9.917 -3.0270 -1.3789  5.7291
  539MOL0     H74333   3.882   7.271   9.953 -1.3889 -1.1753  0.4446
  539MOL0     H74334   4.068   7.255   9.730  0.3659 -0.3072  2.6109
  539MOL0     H74335   3.912   7.218   9.657  2.3340 -0.9793 -2.0605
  539MOL0     H74336   3.966   7.436   9.615 -1.2656  1.6923  0.0942
  539MOL0     H74337   3.805   7.409   9.675  0.1360  0.9198  0.1582
  539MOL0     H74338   3.843   7.475   9.880  0.6702 -1.0541  0.3456
  539MOL0     H74339   4.019   7.504   9.855 -0.5273 -1.7587  1.5893
  539MOL0     H74340   3.658   7.537   9.824 -1.6845 -0.3673 -0.0965
  539MOL0     H74341   3.366   7.658   9.861 -1.9756 -1.5710  0.6161
  539MOL0     H74342   3.440   7.499   9.812  1.4873  0.7205 -2.2244
  539MOL0     H74343   3.357   7.589   9.696  0.2445 -1.0755  0.6988
  539MOL0     H74344   3.423   8.217   9.531 -0.3315 -0.0307  0.1463
  539MOL0     H74345   3.263   8.363   9.460 -3.5393  1.4461 -0.1910
  539MOL0     H74346   2.949   8.187   9.204 -1.5141  0.8667 -2.0122
  539MOL0     H74347   2.821   8.250   9.316 -0.4996 -0.5377  0.1615
  539MOL0     H74348   3.005   8.420   9.131 -0.4427  1.8098 -1.9602
  539MOL0     H74349   2.847   8.353   9.087  0.5943 -1.7562  0.9926
  539MOL0     H74350   2.840   8.488   9.351 -2.0006 -3.3149 -0.1113
  539MOL0     H74351   2.718   8.493   9.231 -1.5146  2.4222  1.6936
  539MOL0     H74352   2.849   8.669   9.113 -1.7732 -2.5781  0.6197
  539MOL0     H74353   2.988   8.623   9.222 -0.1310 -1.3538 -0.5165
  539MOL0     H74354   2.729   8.772   9.326  0.7841  1.3559  0.7634
  539MOL0     H74355   2.859   8.713   9.423 -0.2679 -0.2638 -0.0232
  539MOL0     H74356   2.846   8.968   9.328  2.2118  2.8906 -0.1960
  539MOL0     H74357   2.861   8.889   9.174 -1.8335  3.4196  0.4441
  539MOL0     H74358   3.103   8.837   9.231  1.3371  1.9182 -1.0576
  539MOL0     H74359   3.071   8.862   9.396  1.2934 -1.3597 -1.5009
  539MOL0     H74360   3.200   9.033   9.328 -1.6044  0.0096  2.5708
  539MOL0     H74361   3.041   9.118   9.317 -1.7127  1.2703 -0.7193
  539MOL0     H74362   3.010   8.030   9.347  0.2011  0.8109 -0.8927
  539MOL0     H74363   3.197   7.869   9.410  3.3851  0.6055 -2.2782
  539MOL0     H74364   3.665   7.958   9.563  0.0821 -1.5395 -0.3649
  539MOL0     H74365   3.866   7.859   9.640 -1.8191  2.8268 -2.2297
  539MOL0     H74366   3.411   7.038  10.949 -0.0496 -1.4982 -1.0076
  539MOL0     H74367   3.258   7.185  11.105  1.2714 -0.2439  0.2379
  539MOL0     H74368   3.185   7.594  11.229 -0.2037 -2.2074 -1.3554
  539MOL0     H74369   3.110   7.722  11.414  1.1535 -0.6157  0.0484
  539MOL0     H74370   2.997   7.782  11.626 -0.2125  0.2081  1.0723
  539MOL0     H74371   2.919   7.864  11.490 -0.0944 -1.0576 -0.1799
  539MOL0     H74372   2.784   7.773  11.754 -2.1698  0.6743  0.3541
  539MOL0     H74373   2.691   7.836  11.626 -0.0928 -0.2606 -1.7046
  539MOL0     H74374   2.832   8.068  11.660  4.6113 -0.2987  1.9786
  539MOL0     H74375   2.733   8.039  11.798  0.3261  1.7654  0.4463
  539MOL0     H74376   3.026   7.953  11.760 -1.4405 -3.7329 -1.3796
  539MOL0     H74377   2.915   7.946  11.910 -2.3328  2.8118  0.6703
  539MOL0     H74378   3.072   8.315  11.972 -1.6853  0.9981  0.9065
  539MOL0     H74379   2.786   7.455  11.468  0.0966 -0.9721 -0.5098
  539MOL0     H74380   2.747   7.249  11.326  0.9433  1.2423  0.9672
  539MOL0     H74381   2.767   7.280  11.156 -0.0931 -2.0485 -0.5825
  539MOL0     H74382   2.889   7.199  11.254  0.4845 -0.8496  0.7074
  540MOL0     O74383  11.104   1.589   0.630  0.3588 -0.4990  0.0977
  540MOL0     C74384  11.050   1.559   0.738  0.0274  1.0156 -0.1004
  540MOL0     O74385  11.012   1.426   0.769  0.2094 -0.0542 -0.1648
  540MOL0     C74386  11.029   1.319   0.678 -0.4373  0.1458  0.9447
  540MOL0     C74387  11.140   1.308   0.586  0.2944 -0.0010 -0.8281
  540MOL0     C74388  11.151   1.192   0.506 -0.7815 -0.4464  0.1562
  540MOL0     C74389  11.058   1.083   0.522  0.9256  0.1217 -0.3309
  540MOL0     O74390  11.055   0.967   0.448 -0.4640  0.2854  0.1246
  540MOL0     C74391  11.181   0.915   0.387  0.5352 -0.7956  0.8883
  540MOL0     C74392  11.280   0.866   0.498  0.0285 -0.7823  0.3532
  540MOL0     C74393  11.215   0.824   0.630  0.1953 -0.5911 -0.4046
  540MOL0     C74394  11.319   0.758   0.732 -0.2062  0.4230  0.3408
  540MOL0     C74395  11.261   0.786   0.870 -0.2288  0.7897  0.0487
  540MOL0     C74396  11.351   0.752   0.981  0.7322 -0.4714  0.5248
  540MOL0     C74397  11.295   0.786   1.116  0.3716  0.0548  0.1370
  540MOL0     C74398  11.345   0.700   1.233  0.1989 -0.1174  0.0097
  540MOL0     N74399  11.490   0.716   1.252 -0.0232 -0.3569  1.0643
  540MOL0     C74400  11.552   0.818   1.310  0.6097  0.0181  1.0221
  540MOL0     C74401  11.682   0.810   1.277  0.1256  0.0712  0.2032
  540MOL0     C74402  11.787   0.903   1.306 -0.2600 -1.1024 -0.8014
  540MOL0     C74403  11.765   0.969   1.442 -0.6866 -0.3766 -0.2931
  540MOL0     C74404  11.885   1.050   1.481  0.4985 -0.0508 -0.4055
  540MOL0     C74405  11.852   1.193   1.527  0.0176  0.1662 -0.4597
  540MOL0     O74406  11.965   1.240   1.600  0.0665  1.1709  0.3525
  540MOL0     C74407  11.969   1.368   1.612 -0.4517 -0.1630 -0.1151
  540MOL0     C74408  12.045   1.435   1.524 -0.7759 -0.1614  0.6064
  540MOL0     C74409  12.040   1.578   1.509 -0.6180  0.6443 -0.1353
  540MOL0     C74410  12.152   1.636   1.429  1.1152  0.4774 -0.4859
  540MOL0     C74411  11.944   1.655   1.585  0.4065  1.1145 -0.0911
  540MOL0     C74412  11.928   1.801   1.550 -1.3691  0.1197 -0.6618
  540MOL0     O74413  11.850   1.867   1.632 -0.1778 -0.9544  0.2151
  540MOL0     C74414  11.732   1.906   1.587  0.7775  0.5298  0.8751
  540MOL0     C74415  11.712   1.923   1.444  0.4902 -1.0847 -0.3556
  540MOL0     C74416  11.588   1.963   1.401 -0.1782 -0.6394  0.2123
  540MOL0     C74417  11.493   2.000   1.499  0.1184  0.8081 -1.0514
  540MOL0     O74418  11.376   2.051   1.438  0.1519 -0.5318 -0.7873
  540MOL0     C74419  11.258   2.073   1.522  0.4494  0.6272  0.4849
  540MOL0     C74420  11.203   1.948   1.579  0.5655  0.2600 -0.4692
  540MOL0     C74421  11.110   1.960   1.701 -0.1295  0.5026  0.4404
  540MOL0     C74422  10.985   2.043   1.684 -0.6503  0.3205 -0.1714
  540MOL0     C74423  10.892   2.031   1.804 -0.0379 -0.3806 -0.1844
  540MOL0     C74424  10.772   2.133   1.800  0.2475 -0.4974 -0.3526
  540MOL0     C74425  10.679   2.095   1.921 -1.1452  0.4386  0.7657
  540MOL0     C74426  10.532   2.090   1.890  0.0851 -0.8220  0.4340
  540MOL0    Cl74427  10.442   2.093   2.035 -0.3044 -0.2095  0.4635
  540MOL0     C74428  11.513   1.982   1.643 -0.7700 -0.3166  1.0609
  540MOL0     C74429  11.632   1.927   1.683  0.3460  0.6142 -0.3998
  540MOL0     O74430  11.996   1.863   1.460 -0.1066 -0.1064 -0.2115
  540MOL0     C74431  11.859   1.589   1.671 -0.8167  0.2462 -0.4549
  540MOL0     C74432  11.872   1.447   1.686 -0.2659  0.7439  1.1605
  540MOL0     N74433  11.695   0.689   1.202  0.3307  0.4071 -0.0937
  540MOL0     N74434  11.574   0.638   1.180 -0.0655  0.4680  0.7631
  540MOL0     C74435  10.948   1.101   0.598  0.5364  0.3756  0.0607
  540MOL0     C74436  10.934   1.215   0.683  0.0763 -0.7349  0.7834
  540MOL0     C74437  11.017   1.672   0.829 -0.0906  0.3416 -0.1164
  540MOL0     C74438  11.078   1.794   0.794 -0.4501 -0.0708  0.1125
  540MOL0     C74439  11.041   1.904   0.860  0.7881 -0.5339 -0.6677
  540MOL0     C74440  10.951   1.912   0.962 -0.3062 -0.5975  0.4466
  540MOL0     O74441  10.956   2.026   1.032  0.4170  1.4415  0.9331
  540MOL0     C74442  10.835   2.081   1.082 -0.5977  0.4547  0.1389
  540MOL0     C74443  10.809   2.213   1.007  1.0809 -0.8262 -0.4865
  540MOL0     C74444  10.705   2.307   1.068 -0.9962  0.0101  0.3835
  540MOL0     C74445  10.724   2.455   1.051  0.5325  0.3074  0.3807
  540MOL0     C74446  10.719   2.506   0.913 -0.0983  0.0580  1.0411
  540MOL0     C74447  10.712   2.535   0.796  0.3705 -0.0024 -0.1837
  540MOL0     C74448  10.897   1.790   1.003  0.2241  0.3034  0.5174
  540MOL0     C74449  10.923   1.674   0.932  1.4535 -0.7773 -0.0186
  540MOL0     C74450  10.835   1.555   0.972  0.5975  0.3994  0.2998
  540MOL0     H74451  11.213   1.387   0.573 -2.1838  2.2065 -2.3799
  540MOL0     H74452  11.241   1.194   0.446  0.0001  1.8750  1.2538
  540MOL0     H74453  11.230   0.991   0.326  2.9831 -0.5291  2.9929
  540MOL0     H74454  11.159   0.827   0.326 -0.3106 -0.5978  0.8950
  540MOL0     H74455  11.351   0.792   0.461  0.4618 -1.0611  1.6746
  540MOL0     H74456  11.340   0.956   0.516 -1.5427  0.9410 -2.2779
  540MOL0     H74457  11.159   0.903   0.681  3.4937  1.1669  0.7235
  540MOL0     H74458  11.138   0.748   0.611  1.4107 -1.4571 -2.1283
  540MOL0     H74459  11.330   0.652   0.706 -1.1979 -0.0550  1.7386
  540MOL0     H74460  11.416   0.808   0.730 -0.1895  0.4600  1.3789
  540MOL0     H74461  11.168   0.733   0.892 -0.2648  1.8149  2.6708
  540MOL0     H74462  11.234   0.892   0.879  2.3298  1.4411  0.8887
  540MOL0     H74463  11.348   0.643   0.992  0.2344 -0.4792  0.3408
  540MOL0     H74464  11.454   0.787   0.968 -0.3880  2.3872 -1.7792
  540MOL0     H74465  11.186   0.792   1.107  0.3806 -2.2597 -4.2360
  540MOL0     H74466  11.335   0.884   1.145  2.0972 -0.1079 -1.4630
  540MOL0     H74467  11.291   0.736   1.321  1.7503  3.5466 -0.3779
  540MOL0     H74468  11.332   0.593   1.211  0.7466  0.0166 -1.0150
  540MOL0     H74469  11.511   0.903   1.365  0.9672  0.8200  0.0691
  540MOL0     H74470  11.795   0.983   1.232  2.3059 -0.7390 -0.2308
  540MOL0     H74471  11.884   0.853   1.305  0.4042 -0.4236 -6.9789
  540MOL0     H74472  11.682   1.038   1.421 -0.2934 -0.4921 -2.5062
  540MOL0     H74473  11.744   0.907   1.530 -0.7031  1.0293  0.7337
  540MOL0     H74474  11.941   0.994   1.556  0.7951  0.0541 -0.5457
  540MOL0     H74475  11.951   1.050   1.394 -0.3229 -0.5420 -1.0512
  540MOL0     H74476  11.821   1.251   1.440 -1.4878 -1.0883 -0.8074
  540MOL0     H74477  11.765   1.200   1.593 -0.1535  0.7814 -0.7447
  540MOL0     H74478  12.116   1.381   1.463 -1.8465 -1.1908  0.2293
  540MOL0     H74479  12.102   1.693   1.350  0.4739  2.1349  1.0457
  540MOL0     H74480  12.214   1.559   1.382 -1.0905  0.4640 -3.7147
  540MOL0     H74481  12.222   1.702   1.482  1.8883  0.9573 -2.0335
  540MOL0     H74482  11.790   1.905   1.371  2.6377  2.5835  0.7857
  540MOL0     H74483  11.560   1.970   1.296  2.8678 -2.8671 -0.8820
  540MOL0     H74484  11.266   2.154   1.595 -2.0980  0.2310  1.2935
  540MOL0     H74485  11.191   2.106   1.442 -0.5061 -3.8196 -0.8384
  540MOL0     H74486  11.156   1.881   1.506 -0.6803 -1.3720  1.7231
  540MOL0     H74487  11.290   1.892   1.613  0.1671 -1.9958 -2.8251
  540MOL0     H74488  11.165   1.984   1.792  0.9711 -1.8425  0.4901
  540MOL0     H74489  11.067   1.861   1.722 -0.9880  0.9489  0.8108
  540MOL0     H74490  10.940   2.006   1.591 -2.0954 -1.7727  1.2830
  540MOL0     H74491  11.028   2.144   1.680  1.2272 -0.4296  0.2747
  540MOL0     H74492  10.870   1.929   1.838 -3.1426  0.3403  0.2354
  540MOL0     H74493  10.956   2.068   1.885  2.9268  1.5983 -3.2025
  540MOL0     H74494  10.724   2.111   1.705 -4.9453  1.8486  1.3739
  540MOL0     H74495  10.792   2.240   1.811 -0.5645 -0.4743  1.3847
  540MOL0     H74496  10.705   2.169   1.998  2.2088  2.8918 -2.3771
  540MOL0     H74497  10.717   2.006   1.972  0.7501  0.6804 -0.1313
  540MOL0     H74498  10.510   2.003   1.828  0.2359  0.2002 -1.1144
  540MOL0     H74499  10.509   2.174   1.823 -0.6181  0.0355  1.7096
  540MOL0     H74500  11.436   2.005   1.715  1.1533  1.2467  2.7046
  540MOL0     H74501  11.643   1.885   1.782 -2.6215  1.0914  0.2289
  540MOL0     H74502  11.769   1.636   1.709  0.1331  1.0730  0.8447
  540MOL0     H74503  11.816   1.384   1.754  1.5675 -0.1974  1.8490
  540MOL0     H74504  10.864   1.032   0.591  1.5199 -0.7198 -2.6730
  540MOL0     H74505  10.857   1.215   0.760  1.5962 -1.7017  2.3773
  540MOL0     H74506  11.155   1.800   0.718 -1.7387  3.6868 -1.1055
  540MOL0     H74507  11.099   1.995   0.848 -0.0879  0.4089  1.5464
  540MOL0     H74508  10.748   2.016   1.077  1.8284 -3.1777  0.8215
  540MOL0     H74509  10.855   2.094   1.189  0.6465 -1.1071  0.1285
  540MOL0     H74510  10.796   2.194   0.900  1.9706 -1.8315 -0.4277
  540MOL0     H74511  10.897   2.275   1.029  0.2343  0.3174 -0.1978
  540MOL0     H74512  10.605   2.280   1.033  0.0435 -4.1755  0.1291
  540MOL0     H74513  10.715   2.297   1.177 -0.0744 -0.5722  0.2524
  540MOL0     H74514  10.817   2.488   1.096  3.4854 -2.0101 -3.3972
  540MOL0     H74515  10.634   2.500   1.094 -1.7123 -0.6309 -2.9181
  540MOL0     H74516  10.705   2.570   0.695  1.3062 -1.0500 -0.6322
  540MOL0     H74517  10.829   1.789   1.088 -1.5264  2.7035 -0.7297
  540MOL0     H74518  10.779   1.525   0.882  1.3279 -0.5780  0.1533
  540MOL0     H74519  10.896   1.473   1.011  0.7892 -0.5445 -1.7993
  540MOL0     H74520  10.757   1.580   1.045  1.0257  1.0999  0.5220
  541MOL0     O74521   4.145   1.245   5.287 -0.5668 -0.1681  0.0083
  541MOL0     C74522   4.092   1.257   5.180  0.2125 -0.7042  1.2602
  541MOL0     O74523   3.977   1.334   5.152 -0.3097  0.5940  0.5435
  541MOL0     C74524   3.923   1.400   5.256  0.0341 -0.8114 -1.5776
  541MOL0     C74525   3.844   1.322   5.344  0.1967 -0.5308 -0.0953
  541MOL0     C74526   3.770   1.386   5.449 -0.1267 -0.4159 -0.4229
  541MOL0     C74527   3.755   1.524   5.450 -0.7847 -0.2295  0.3235
  541MOL0     O74528   3.659   1.591   5.527 -0.2990 -1.0097 -0.7052
  541MOL0     C74529   3.708   1.680   5.622 -0.6728 -0.2167 -0.2917
  541MOL0     C74530   3.600   1.729   5.722 -0.8496 -0.3552 -0.1104
  541MOL0     C74531   3.495   1.624   5.755 -0.9737 -0.3028 -0.4081
  541MOL0     C74532   3.388   1.686   5.839 -0.3453 -0.6739  0.9974
  541MOL0     C74533   3.277   1.587   5.875 -0.1582 -0.6936  1.1883
  541MOL0     C74534   3.147   1.658   5.927  0.0414  0.5688 -0.2697
  541MOL0     C74535   3.165   1.725   6.064 -0.0408  0.0101 -0.5435
  541MOL0     C74536   3.026   1.765   6.121  0.4713  0.4324 -0.4723
  541MOL0     N74537   2.967   1.877   6.044 -0.3451 -0.4645  0.4861
  541MOL0     C74538   2.990   2.013   6.048 -0.4579  0.3178  0.5472
  541MOL0     C74539   2.910   2.072   5.959 -0.7668  0.3845 -1.0251
  541MOL0     C74540   2.894   2.221   5.967 -0.2688 -0.0842 -0.3092
  541MOL0     C74541   2.952   2.269   5.831 -0.5335 -0.3607 -0.2349
  541MOL0     C74542   2.840   2.297   5.743 -0.8745 -0.6361  0.2596
  541MOL0     C74543   2.893   2.320   5.599  0.0550 -0.9371 -0.7918
  541MOL0     O74544   2.963   2.451   5.596  0.2870  0.3697 -0.0170
  541MOL0     C74545   2.943   2.539   5.493 -0.7905  0.5998  0.7891
  541MOL0     C74546   3.042   2.624   5.460 -0.3407  0.3546  0.2481
  541MOL0     C74547   3.020   2.738   5.372 -0.1954 -0.2240  0.7738
  541MOL0     C74548   3.139   2.829   5.336 -0.1650 -0.1394  0.1358
  541MOL0     C74549   2.901   2.756   5.307 -0.0587 -0.9551 -0.0307
  541MOL0     C74550   2.868   2.849   5.191 -1.0915  0.6085  0.8012
  541MOL0     O74551   2.982   2.902   5.121  0.9923 -0.3159  1.2802
  541MOL0     C74552   2.961   2.990   5.012  0.2448  0.1821  0.1267
  541MOL0     C74553   2.926   3.122   5.015 -0.0124 -0.2590  0.1671
  541MOL0     C74554   2.918   3.202   4.904  0.7101 -0.1338  0.2416
  541MOL0     C74555   2.927   3.148   4.780 -0.5809 -0.1417 -0.3871
  541MOL0     O74556   2.911   3.211   4.659  0.5753 -1.1693  0.2523
  541MOL0     C74557   2.963   3.343   4.649  0.7589  0.0301 -0.3628
  541MOL0     C74558   3.003   3.335   4.504 -0.4940  0.5174 -0.1213
  541MOL0     C74559   3.004   3.485   4.442 -0.3015  0.9859  0.1657
  541MOL0     C74560   3.031   3.474   4.287  0.2461  1.1031  0.8469
  541MOL0     C74561   3.067   3.599   4.221 -0.5467 -0.9575  1.1993
  541MOL0     C74562   3.105   3.558   4.073 -0.3578 -0.3632 -0.2086
  541MOL0     C74563   3.244   3.503   4.053 -0.7424 -0.4565  0.3354
  541MOL0     C74564   3.270   3.478   3.898 -0.7646 -0.9517  0.1815
  541MOL0    Cl74565   3.215   3.618   3.792  0.7047 -0.1616 -0.0769
  541MOL0     C74566   2.972   3.014   4.772 -0.6909 -0.9297 -0.5912
  541MOL0     C74567   2.987   2.934   4.891  0.3753  0.2111  0.7848
  541MOL0     O74568   2.752   2.879   5.164 -0.3785  0.2531 -0.3057
  541MOL0     C74569   2.797   2.662   5.339 -1.1364 -0.7156 -0.3431
  541MOL0     C74570   2.823   2.559   5.430  0.6447  0.5536  0.1029
  541MOL0     N74571   2.830   1.970   5.904 -0.5838  0.4320 -0.0663
  541MOL0     N74572   2.873   1.857   5.953 -0.2997 -0.5312  0.4971
  541MOL0     C74573   3.811   1.598   5.342  0.1268  1.3471  0.4627
  541MOL0     C74574   3.910   1.537   5.267 -1.2665 -0.3214 -0.3330
  541MOL0     C74575   4.158   1.187   5.075  0.9195  1.4000 -0.4913
  541MOL0     C74576   4.079   1.090   5.003 -0.6283 -0.9291 -0.1150
  541MOL0     C74577   4.139   1.004   4.913  0.0166 -0.4745  0.7907
  541MOL0     C74578   4.274   1.011   4.877 -0.6601 -0.4759 -0.0044
  541MOL0     O74579   4.325   0.925   4.782  0.1848  0.0423 -0.0570
  541MOL0     C74580   4.451   0.952   4.720 -0.6495 -0.0346  0.5475
  541MOL0     C74581   4.573   0.880   4.783  0.5750 -0.0045  0.0618
  541MOL0     C74582   4.706   0.895   4.694  0.2661  0.2577 -1.0231
  541MOL0     C74583   4.739   1.039   4.677  0.0022 -0.6964 -0.0644
  541MOL0     C74584   4.749   1.107   4.803  1.0034  0.4212  0.5326
  541MOL0     C74585   4.759   1.147   4.916 -0.6855  1.1006  0.1797
  541MOL0     C74586   4.354   1.106   4.949 -0.0266  0.3264 -0.3510
  541MOL0     C74587   4.298   1.192   5.048 -0.7106  0.2522 -0.2853
  541MOL0     C74588   4.401   1.282   5.124  0.3793  0.4328 -0.4911
  541MOL0     H74589   3.841   1.214   5.338  4.0077 -1.0011  2.6534
  541MOL0     H74590   3.726   1.327   5.529  2.5496 -2.8661 -0.6082
  541MOL0     H74591   3.770   1.760   5.580  1.9261 -3.0088 -2.1697
  541MOL0     H74592   3.770   1.628   5.696 -3.0214 -1.4650  0.9025
  541MOL0     H74593   3.643   1.760   5.818 -2.3281  0.7134  0.2528
  541MOL0     H74594   3.547   1.819   5.692 -0.0292  1.0415  2.3208
  541MOL0     H74595   3.453   1.582   5.663  1.3121  1.9131 -2.6170
  541MOL0     H74596   3.541   1.540   5.809 -2.1453 -1.3228 -0.9436
  541MOL0     H74597   3.432   1.734   5.927  2.0771  0.0218 -0.5095
  541MOL0     H74598   3.340   1.764   5.779  2.2986 -0.6391 -1.2814
  541MOL0     H74599   3.318   1.511   5.942  1.9483  0.7965  1.7033
  541MOL0     H74600   3.245   1.533   5.786 -0.5251 -2.9821  2.6308
  541MOL0     H74601   3.114   1.723   5.845 -4.4193 -1.6448 -0.5872
  541MOL0     H74602   3.064   1.589   5.945  0.8576  0.2257  2.5430
  541MOL0     H74603   3.233   1.810   6.058 -1.0476  0.8216 -0.6735
  541MOL0     H74604   3.194   1.648   6.137  0.2613 -0.0395 -0.7154
  541MOL0     H74605   2.949   1.687   6.131  1.4667 -0.3780  1.3791
  541MOL0     H74606   3.045   1.788   6.226  0.3756 -1.5906  0.0235
  541MOL0     H74607   3.053   2.065   6.119  0.6705 -1.5272  0.9913
  541MOL0     H74608   2.955   2.261   6.049  1.3697 -3.8045  0.4859
  541MOL0     H74609   2.787   2.242   5.978 -0.6370 -1.2164 -1.4601
  541MOL0     H74610   3.003   2.364   5.848 -1.7997  0.7394 -2.1969
  541MOL0     H74611   3.014   2.196   5.778  0.3927  1.3307 -1.5713
  541MOL0     H74612   2.770   2.214   5.728 -1.0564 -0.3383 -0.6674
  541MOL0     H74613   2.784   2.380   5.787  1.2083  0.6410  0.6389
  541MOL0     H74614   2.956   2.238   5.563 -2.9564 -2.5608 -2.7740
  541MOL0     H74615   2.804   2.314   5.535 -1.6698 -2.1079  1.5787
  541MOL0     H74616   3.128   2.602   5.523 -0.6223  2.2932  1.4147
  541MOL0     H74617   3.179   2.796   5.240 -0.9875  1.8446 -0.9539
  541MOL0     H74618   3.218   2.820   5.411 -1.9747  0.1558  2.1811
  541MOL0     H74619   3.109   2.933   5.319 -0.7840 -0.8080 -3.9268
  541MOL0     H74620   2.911   3.167   5.112 -0.3226  0.5513 -0.2528
  541MOL0     H74621   2.900   3.308   4.914 -0.1377 -0.4661  3.0504
  541MOL0     H74622   2.890   3.421   4.674  0.0958 -0.8871  0.6605
  541MOL0     H74623   3.051   3.370   4.708  1.8328 -0.9401 -1.4581
  541MOL0     H74624   3.087   3.266   4.491 -0.7355 -0.1471  1.5618
  541MOL0     H74625   2.925   3.279   4.452 -0.1086  1.4103 -1.7297
  541MOL0     H74626   3.090   3.538   4.483  0.5423 -0.7450  0.7061
  541MOL0     H74627   2.911   3.535   4.471 -1.1355  1.5809 -3.0782
  541MOL0     H74628   2.940   3.436   4.240  1.5145 -2.6260  0.9953
  541MOL0     H74629   3.111   3.405   4.260 -1.0217 -0.5171  1.0433
  541MOL0     H74630   2.972   3.653   4.219  0.4931  0.9845 -1.5689
  541MOL0     H74631   3.141   3.659   4.276 -0.6190 -1.4014  1.7955
  541MOL0     H74632   3.103   3.648   4.011  1.0840 -1.2030 -1.5752
  541MOL0     H74633   3.028   3.494   4.030 -0.9609 -0.1804  0.5930
  541MOL0     H74634   3.264   3.401   4.087  0.5789 -1.2480 -2.5074
  541MOL0     H74635   3.316   3.579   4.086  0.7874 -0.9083 -1.7816
  541MOL0     H74636   3.222   3.383   3.874 -0.0991 -1.3496  0.4072
  541MOL0     H74637   3.377   3.473   3.877 -1.2074 -0.5610 -2.4443
  541MOL0     H74638   2.986   2.981   4.669  1.9594 -0.2763 -0.5182
  541MOL0     H74639   3.018   2.830   4.884 -0.0690  0.1794 -1.8952
  541MOL0     H74640   2.705   2.682   5.285 -0.7617 -0.2971 -0.8372
  541MOL0     H74641   2.741   2.488   5.433  2.0269 -1.3079 -2.5835
  541MOL0     H74642   3.789   1.703   5.325  3.6948  1.8417 -2.0200
  541MOL0     H74643   3.947   1.610   5.195 -2.9870  0.3143 -0.6296
  541MOL0     H74644   3.970   1.092   5.004 -0.6330  1.2309  0.0706
  541MOL0     H74645   4.088   0.930   4.852  0.5768  0.0307 -0.3146
  541MOL0     H74646   4.449   0.915   4.617 -2.5276 -3.1008  1.5576
  541MOL0     H74647   4.455   1.062   4.714 -1.1598 -0.0704 -1.0136
  541MOL0     H74648   4.560   0.772   4.788  2.2897 -0.2708 -0.3543
  541MOL0     H74649   4.585   0.907   4.888 -0.4405 -1.7190  0.6559
  541MOL0     H74650   4.790   0.843   4.740  1.7095 -0.0360 -3.7963
  541MOL0     H74651   4.685   0.847   4.598  0.1142 -1.3123 -0.2477
  541MOL0     H74652   4.660   1.082   4.614  0.2157 -2.2300 -1.4357
  541MOL0     H74653   4.839   1.043   4.632  0.5655  1.3823  1.2157
  541MOL0     H74654   4.762   1.183   5.017 -0.0826  0.1100  0.5247
  541MOL0     H74655   4.456   1.131   4.922  0.5394  0.5176  1.7817
  541MOL0     H74656   4.491   1.220   5.132 -0.4045 -0.6773 -0.0777
  541MOL0     H74657   4.420   1.372   5.064 -1.8683  3.2081  2.5778
  541MOL0     H74658   4.361   1.311   5.221 -4.6219 -1.1489 -1.7828
  542MOL0     O74659   8.630   7.814   2.422 -0.1430  0.4035  0.3289
  542MOL0     C74660   8.515   7.780   2.413  0.3600  0.1133  0.7269
  542MOL0     O74661   8.410   7.861   2.433 -0.1566  0.2427  0.2454
  542MOL0     C74662   8.424   7.971   2.502 -0.4134 -0.7874  0.0323
  542MOL0     C74663   8.400   7.970   2.640 -0.0765  0.0904 -0.3835
  542MOL0     C74664   8.415   8.092   2.712  0.3719  1.6665  1.2120
  542MOL0     C74665   8.449   8.216   2.650 -1.3136  0.2448 -0.1412
  542MOL0     O74666   8.460   8.342   2.705  0.7119  0.3074  0.4495
  542MOL0     C74667   8.492   8.343   2.845 -0.1650 -0.5964  0.3418
  542MOL0     C74668   8.516   8.490   2.867 -0.0175 -0.0535  0.2692
  542MOL0     C74669   8.467   8.545   2.999 -0.2120  0.7574  0.2444
  542MOL0     C74670   8.528   8.690   3.024  0.3367  0.6476  0.9699
  542MOL0     C74671   8.473   8.795   3.115 -0.7062  0.7013 -0.3259
  542MOL0     C74672   8.455   8.734   3.256 -0.0882  0.2811  0.1672
  542MOL0     C74673   8.400   8.835   3.353  0.3404  0.2706  0.0946
  542MOL0     C74674   8.389   8.776   3.493  0.1310 -0.3146 -0.1914
  542MOL0     N74675   8.331   8.645   3.513 -0.0653 -0.3170  0.2456
  542MOL0     C74676   8.228   8.592   3.448 -0.3861 -1.2162 -0.1099
  542MOL0     C74677   8.227   8.464   3.465  0.4277  1.2661 -0.5409
  542MOL0     C74678   8.154   8.347   3.395  0.4792 -0.0050 -0.0301
  542MOL0     C74679   8.049   8.377   3.289 -0.0329  0.5902  0.2623
  542MOL0     C74680   8.114   8.440   3.160  0.0498 -0.1131 -1.0230
  542MOL0     C74681   8.019   8.465   3.039 -0.3567 -0.5090 -1.0147
  542MOL0     O74682   8.095   8.483   2.927  0.2417  0.2719  0.3956
  542MOL0     C74683   8.083   8.389   2.830  0.6002  0.6744  0.9385
  542MOL0     C74684   8.085   8.425   2.690 -0.3922  0.2870  0.5824
  542MOL0     C74685   8.086   8.330   2.590  0.7970 -0.0362 -0.0015
  542MOL0     C74686   8.083   8.388   2.440 -0.0553  0.0946 -0.0968
  542MOL0     C74687   8.099   8.191   2.619 -0.2380 -1.3829 -0.3793
  542MOL0     C74688   8.101   8.085   2.523  0.5126  0.2215  0.3686
  542MOL0     O74689   8.071   7.959   2.567  0.2382 -0.4849 -0.3985
  542MOL0     C74690   8.053   7.851   2.482 -0.3686 -0.7474 -0.3750
  542MOL0     C74691   7.976   7.856   2.367 -0.2224  0.6469 -0.8275
  542MOL0     C74692   7.945   7.742   2.302  0.2748 -0.0022  0.8266
  542MOL0     C74693   7.977   7.614   2.357  0.8875  0.5826  0.2000
  542MOL0     O74694   7.936   7.489   2.323 -0.0136  0.3726  0.2601
  542MOL0     C74695   7.915   7.479   2.183  0.3409  0.1970  0.1894
  542MOL0     C74696   7.830   7.355   2.168 -0.2269  0.9172  0.5358
  542MOL0     C74697   7.773   7.342   2.030 -0.2149  0.2758 -0.3466
  542MOL0     C74698   7.885   7.286   1.936 -0.8569 -0.0424  0.0733
  542MOL0     C74699   7.912   7.137   1.968 -0.3524 -0.1017  0.0569
  542MOL0     C74700   7.995   7.059   1.847 -0.5124 -0.3664  0.4088
  542MOL0     C74701   8.043   6.925   1.894  0.0393 -0.3588 -0.0986
  542MOL0     C74702   8.101   6.832   1.779  0.8507 -0.0760 -0.2787
  542MOL0    Cl74703   8.256   6.900   1.715 -0.1790  0.0180  0.0442
  542MOL0     C74704   8.052   7.610   2.475  0.5173 -0.6531 -0.0662
  542MOL0     C74705   8.090   7.732   2.533 -0.5832 -0.6757  0.2302
  542MOL0     O74706   8.128   8.117   2.409  0.2605 -0.6882 -0.2962
  542MOL0     C74707   8.098   8.155   2.755 -0.7113 -0.5793 -0.0892
  542MOL0     C74708   8.092   8.249   2.859 -0.0021 -1.1669  0.7245
  542MOL0     N74709   8.329   8.441   3.562 -0.5549 -0.5428  0.1322
  542MOL0     N74710   8.394   8.551   3.590  0.3014 -1.0656  0.1976
  542MOL0     C74711   8.457   8.215   2.505 -0.0574 -0.0351 -0.3763
  542MOL0     C74712   8.459   8.094   2.440  0.7313 -0.6704 -0.3470
  542MOL0     C74713   8.488   7.644   2.357  0.0763 -0.5316 -0.0045
  542MOL0     C74714   8.357   7.633   2.311 -1.0785 -0.6896 -0.1711
  542MOL0     C74715   8.315   7.511   2.275 -0.2803  0.0623 -0.7904
  542MOL0     C74716   8.402   7.401   2.273 -0.3874 -0.2834 -0.4487
  542MOL0     O74717   8.372   7.278   2.219 -0.4121 -0.9694 -0.2379
  542MOL0     C74718   8.287   7.197   2.299  0.9173 -0.8728 -0.8327
  542MOL0     C74719   8.372   7.083   2.352 -0.0625 -0.3384  0.2171
  542MOL0     C74720   8.270   6.985   2.431 -1.2409  0.2949  1.3044
  542MOL0     C74721   8.316   6.843   2.435 -0.0973  0.2043 -0.1134
  542MOL0     C74722   8.192   6.758   2.443 -0.3354  0.4202 -0.3499
  542MOL0     C74723   8.095   6.678   2.428  0.4003  0.1942  0.3350
  542MOL0     C74724   8.535   7.414   2.327  0.3248 -1.0120  1.1033
  542MOL0     C74725   8.577   7.535   2.375 -0.5567  0.4347 -0.9827
  542MOL0     C74726   8.718   7.543   2.436 -1.0229 -0.1845 -1.8206
  542MOL0     H74727   8.367   7.874   2.679 -1.0401 -0.3955 -2.2651
  542MOL0     H74728   8.396   8.091   2.819 -1.7840 -1.2154  0.9031
  542MOL0     H74729   8.584   8.285   2.860  0.8475  0.7730 -0.3608
  542MOL0     H74730   8.407   8.308   2.904 -0.3487  2.4166  2.0523
  542MOL0     H74731   8.624   8.509   2.866 -0.1886  1.0222  0.7828
  542MOL0     H74732   8.478   8.554   2.787  0.9854  1.1736  0.7291
  542MOL0     H74733   8.358   8.536   3.008  0.0286 -2.2938  1.0478
  542MOL0     H74734   8.498   8.472   3.074  2.0870  1.4361  0.0132
  542MOL0     H74735   8.632   8.670   3.051 -0.0642 -2.0148  0.8945
  542MOL0     H74736   8.534   8.738   2.926  0.0272 -1.7201 -0.2943
  542MOL0     H74737   8.373   8.822   3.079 -0.7168  0.7729 -0.2435
  542MOL0     H74738   8.545   8.877   3.114  1.2747 -0.9094  1.5341
  542MOL0     H74739   8.396   8.642   3.246 -0.3462  0.1240  2.4557
  542MOL0     H74740   8.553   8.706   3.297 -0.9064 -2.1268  0.6393
  542MOL0     H74741   8.299   8.859   3.319  0.5621  0.0759 -0.7255
  542MOL0     H74742   8.458   8.928   3.360  0.9387 -0.2492  2.9948
  542MOL0     H74743   8.494   8.774   3.524 -0.3571  0.7416  1.6583
  542MOL0     H74744   8.339   8.849   3.556  2.6038  1.7000 -0.4105
  542MOL0     H74745   8.159   8.656   3.393 -0.1647 -2.2227 -1.6359
  542MOL0     H74746   8.111   8.282   3.471  1.4255 -1.3698 -0.6179
  542MOL0     H74747   8.231   8.282   3.351 -3.3805 -1.6748 -5.5117
  542MOL0     H74748   7.999   8.284   3.259 -1.1626  1.1392  0.4396
  542MOL0     H74749   7.972   8.445   3.324 -0.5104  1.1404 -1.7162
  542MOL0     H74750   8.139   8.545   3.182 -1.5312 -0.3852  2.8694
  542MOL0     H74751   8.213   8.401   3.138  0.2631  0.2015 -0.6450
  542MOL0     H74752   7.946   8.385   3.028 -0.4409 -0.8566  1.5592
  542MOL0     H74753   7.965   8.560   3.049  1.7788  0.5386  1.8419
  542MOL0     H74754   8.081   8.531   2.665  0.1260  0.4830  1.2756
  542MOL0     H74755   7.996   8.360   2.379  1.4963 -3.3257 -0.9078
  542MOL0     H74756   8.170   8.361   2.380 -0.4768  0.6530 -0.9919
  542MOL0     H74757   8.092   8.497   2.451  0.7652  0.1733 -1.3352
  542MOL0     H74758   7.940   7.950   2.324 -1.3840 -0.4176 -2.2954
  542MOL0     H74759   7.878   7.747   2.216  0.3684 -2.6143  0.5357
  542MOL0     H74760   7.858   7.560   2.137 -0.9153 -1.1431 -0.6841
  542MOL0     H74761   8.016   7.460   2.145  0.1504 -0.1970 -0.1233
  542MOL0     H74762   7.886   7.265   2.194 -2.3067  0.2032  2.8885
  542MOL0     H74763   7.743   7.351   2.235  0.3813  1.6757  1.4064
  542MOL0     H74764   7.741   7.441   1.995  1.1320  0.9833  0.3322
  542MOL0     H74765   7.689   7.272   2.028  0.6045 -0.7380 -2.2034
  542MOL0     H74766   7.972   7.352   1.945  0.5590 -2.0278  1.9347
  542MOL0     H74767   7.847   7.286   1.834  1.1260 -3.8905 -0.8651
  542MOL0     H74768   7.970   7.124   2.060  0.3018 -0.1779 -0.3617
  542MOL0     H74769   7.817   7.085   1.983 -0.5505  0.3254  0.3223
  542MOL0     H74770   8.085   7.107   1.809 -1.0618 -0.5144 -1.1180
  542MOL0     H74771   7.919   7.045   1.770 -1.5998  3.7640  0.4690
  542MOL0     H74772   7.961   6.877   1.947 -1.8826  2.6699 -0.0736
  542MOL0     H74773   8.119   6.945   1.971 -1.0883  0.3366  0.8707
  542MOL0     H74774   8.030   6.820   1.696  1.1078 -1.3539 -0.3322
  542MOL0     H74775   8.123   6.735   1.823  0.4674  0.2868  0.7352
  542MOL0     H74776   8.065   7.521   2.536 -0.9304  0.6420  2.2692
  542MOL0     H74777   8.153   7.740   2.621  1.2269  0.2951 -1.0870
  542MOL0     H74778   8.084   8.057   2.801  1.5527  0.8199  4.1054
  542MOL0     H74779   8.097   8.212   2.961  1.1838 -3.1214  0.0121
  542MOL0     H74780   8.457   8.308   2.449  0.4444  0.5258  0.5474
  542MOL0     H74781   8.463   8.084   2.332  0.0429  2.1270 -0.7058
  542MOL0     H74782   8.280   7.709   2.300 -2.8822 -2.2651  0.9206
  542MOL0     H74783   8.211   7.512   2.243 -0.2338 -1.2142 -1.0686
  542MOL0     H74784   8.237   7.256   2.376  0.8734  0.0814 -1.5732
  542MOL0     H74785   8.205   7.161   2.236  0.3913 -1.2320  0.0455
  542MOL0     H74786   8.448   7.120   2.422  0.1168  0.2209 -0.2706
  542MOL0     H74787   8.428   7.032   2.273  3.2260  0.6164  1.7521
  542MOL0     H74788   8.256   7.020   2.534 -2.6322  1.6334  0.7019
  542MOL0     H74789   8.178   6.982   2.372  1.5514 -2.5573 -3.6400
  542MOL0     H74790   8.380   6.819   2.520  4.5334 -0.1774 -3.3133
  542MOL0     H74791   8.377   6.809   2.350 -0.6381 -3.2401  0.7255
  542MOL0     H74792   8.006   6.622   2.412 -1.3958  2.3754  2.0346
  542MOL0     H74793   8.605   7.331   2.323 -2.0166 -3.0815  0.1653
  542MOL0     H74794   8.747   7.441   2.461 -1.1031  0.1646 -0.1796
  542MOL0     H74795   8.792   7.595   2.373 -0.7862  2.1272  0.2290
  542MOL0     H74796   8.712   7.583   2.537  1.5120 -2.6351 -0.5653
  543MOL0     O74797  10.605   7.323   3.370  0.2658 -0.8530  0.1030
  543MOL0     C74798  10.540   7.287   3.468 -0.3726 -0.0337  0.6891
  543MOL0     O74799  10.414   7.324   3.503 -0.0843 -0.3698 -0.2993
  543MOL0     C74800  10.352   7.423   3.434 -0.6986 -0.8936 -0.0753
  543MOL0     C74801  10.359   7.553   3.484 -0.0650 -0.0032  0.3207
  543MOL0     C74802  10.301   7.666   3.421 -0.1152 -0.6981  0.0717
  543MOL0     C74803  10.251   7.652   3.288 -1.0765 -1.2133  0.3630
  543MOL0     O74804  10.204   7.758   3.205 -0.4493 -0.1900 -0.3520
  543MOL0     C74805  10.148   7.872   3.269  0.4058 -0.5159 -0.6760
  543MOL0     C74806  10.099   7.966   3.152  0.1725 -0.9329  0.1077
  543MOL0     C74807  10.025   8.094   3.207 -1.3700 -0.0843  0.7678
  543MOL0     C74808  10.069   8.205   3.112 -0.6697  0.1698  1.2325
  543MOL0     C74809   9.986   8.334   3.120  0.7448  1.4011  0.3727
  543MOL0     C74810  10.040   8.442   3.031 -0.4505  0.3802 -0.6295
  543MOL0     C74811   9.994   8.594   3.061  0.2394 -0.8159  0.1368
  543MOL0     C74812  10.116   8.680   3.095 -0.2414  0.5021 -0.4558
  543MOL0     N74813  10.084   8.822   3.136 -0.3336  1.1950 -0.1023
  543MOL0     C74814  10.073   8.925   3.045  0.9052 -0.1024  0.2178
  543MOL0     C74815  10.025   9.029   3.117  0.8962 -0.6370 -0.7530
  543MOL0     C74816   9.961   9.163   3.073 -0.2473  0.3965 -0.5329
  543MOL0     C74817   9.945   9.264   3.184 -0.3537  0.0860 -0.6858
  543MOL0     C74818   9.889   9.393   3.135  0.8341  1.0301 -0.2850
  543MOL0     C74819   9.895   9.518   3.221 -0.1409  0.3563 -0.0600
  543MOL0     O74820   9.866   9.633   3.142 -0.0304 -0.6176 -0.1512
  543MOL0     C74821   9.874   9.763   3.188 -0.3636  0.4183  0.0649
  543MOL0     C74822   9.923   9.784   3.317  0.1413  0.2923  0.9003
  543MOL0     C74823   9.939   9.920   3.359 -0.1417 -0.4969 -0.2177
  543MOL0     C74824  10.006   9.936   3.495  0.8665 -0.3205 -0.4108
  543MOL0     C74825   9.923  10.028   3.272 -1.4609 -0.6857 -0.3547
  543MOL0     C74826   9.954  10.170   3.294 -0.4965 -0.1398 -0.9759
  543MOL0     O74827   9.939  10.213   3.428 -0.0153 -0.0846 -0.2390
  543MOL0     C74828   9.959  10.344   3.457  0.2261 -0.8742  0.4123
  543MOL0     C74829  10.045  10.374   3.562 -0.8083 -0.4290 -0.2448
  543MOL0     C74830  10.080  10.508   3.584  0.6732  0.6510 -0.2398
  543MOL0     C74831  10.003  10.611   3.510 -0.2906 -0.8850 -0.0358
  543MOL0     O74832  10.033  10.745   3.534  0.8008  0.4430 -0.6542
  543MOL0     C74833   9.927  10.838   3.575  0.5760 -0.0579 -0.0284
  543MOL0     C74834   9.908  10.833   3.725  0.4021 -0.1910 -0.8010
  543MOL0     C74835   9.817  10.948   3.767 -0.1607 -0.5270  0.1110
  543MOL0     C74836   9.835  10.996   3.914  0.1389  0.4833 -0.7476
  543MOL0     C74837   9.761  11.130   3.941  0.4138  0.4328 -0.1719
  543MOL0     C74838   9.607  11.108   3.973  0.1822  0.0601 -0.1400
  543MOL0     C74839   9.587  11.054   4.119 -0.1441 -0.5247 -0.8923
  543MOL0     C74840   9.447  11.102   4.173 -0.6355  0.9360  0.9753
  543MOL0    Cl74841   9.322  11.098   4.038  0.6451 -0.1694 -0.3312
  543MOL0     C74842   9.907  10.571   3.413 -0.2879 -0.1837 -0.0958
  543MOL0     C74843   9.899  10.440   3.385  1.0223  0.4041  0.4795
  543MOL0     O74844   9.981  10.239   3.194 -0.3831 -0.1699  0.4224
  543MOL0     C74845   9.879   9.993   3.140  1.6447  0.1156  0.5042
  543MOL0     C74846   9.852   9.861   3.101  0.3741 -0.4586 -0.3042
  543MOL0     N74847  10.007   8.984   3.248 -0.2787  0.1260 -0.2614
  543MOL0     N74848  10.039   8.864   3.259  0.3214  0.5561 -0.0570
  543MOL0     C74849  10.256   7.521   3.229 -0.7398 -0.3842  0.4495
  543MOL0     C74850  10.294   7.408   3.305 -0.1916 -0.1422  0.3531
  543MOL0     C74851  10.597   7.178   3.555 -0.1531  0.6171 -0.1689
  543MOL0     C74852  10.650   7.075   3.477  0.3969  0.4546 -0.3680
  543MOL0     C74853  10.684   6.955   3.540 -0.4540  0.2638 -0.3657
  543MOL0     C74854  10.669   6.927   3.675 -0.5685 -0.3698  0.0246
  543MOL0     O74855  10.715   6.823   3.745 -0.4139  0.2814 -0.0500
  543MOL0     C74856  10.758   6.705   3.675  0.8508  0.2416  0.3418
  543MOL0     C74857  10.895   6.717   3.618 -1.0276  0.4556 -0.2444
  543MOL0     C74858  10.998   6.735   3.727  0.1791  0.3041 -0.1590
  543MOL0     C74859  11.070   6.611   3.774  0.5981 -0.3747  0.4633
  543MOL0     C74860  11.106   6.517   3.666  0.2908 -0.0603 -0.1439
  543MOL0     C74861  11.131   6.424   3.591  0.1680  0.0088  1.0488
  543MOL0     C74862  10.630   7.030   3.754  0.4768  0.0055 -0.0882
  543MOL0     C74863  10.587   7.159   3.699 -0.0088  0.8611  1.6952
  543MOL0     C74864  10.529   7.264   3.790 -1.2723  0.1520  0.2985
  543MOL0     H74865  10.407   7.565   3.581  0.4973  2.7796 -0.2097
  543MOL0     H74866  10.311   7.754   3.483 -0.4867 -2.2327  2.4517
  543MOL0     H74867  10.225   7.921   3.329 -0.8512  0.6154  0.0817
  543MOL0     H74868  10.064   7.850   3.335  1.2456 -0.3869  0.4634
  543MOL0     H74869  10.175   7.995   3.080 -1.8535  3.0537 -0.7254
  543MOL0     H74870  10.031   7.907   3.091  0.7260  0.2933 -1.7614
  543MOL0     H74871   9.916   8.084   3.199 -1.2696  0.4720 -2.7593
  543MOL0     H74872  10.052   8.123   3.309  2.7234  2.0735 -0.6911
  543MOL0     H74873  10.177   8.223   3.113 -0.1120 -0.9727 -4.2853
  543MOL0     H74874  10.064   8.164   3.011 -0.6688  1.8666  0.5118
  543MOL0     H74875  10.002   8.372   3.221 -1.8676  3.7281  0.0542
  543MOL0     H74876   9.877   8.332   3.107  0.5724  0.9990  1.7869
  543MOL0     H74877  10.149   8.433   3.029 -0.2782  1.7319  1.0050
  543MOL0     H74878  10.010   8.420   2.928  4.1272 -2.2723 -1.7112
  543MOL0     H74879   9.922   8.615   3.140 -2.0562 -3.1574 -1.1476
  543MOL0     H74880   9.944   8.631   2.971  0.5728 -1.4376 -0.3168
  543MOL0     H74881  10.145   8.625   3.185 -0.5500 -1.3287 -1.4325
  543MOL0     H74882  10.181   8.675   3.007  2.0853 -0.9175  1.2229
  543MOL0     H74883  10.097   8.924   2.939  1.4771 -0.2393  0.3491
  543MOL0     H74884   9.865   9.149   3.022 -1.7119 -2.2300  2.6040
  543MOL0     H74885  10.033   9.205   3.001  0.8231  3.9073  2.2943
  543MOL0     H74886   9.878   9.220   3.259  0.0336 -3.3144 -2.1543
  543MOL0     H74887  10.044   9.283   3.227  1.0848  2.2697 -4.4633
  543MOL0     H74888   9.935   9.412   3.037  0.9805  4.4268  0.3270
  543MOL0     H74889   9.781   9.377   3.133  1.1759 -1.9584  0.5020
  543MOL0     H74890   9.840   9.511   3.315  3.5982  1.8184  2.4886
  543MOL0     H74891  10.000   9.531   3.251  0.5841  1.0806 -2.6658
  543MOL0     H74892   9.956   9.704   3.382 -0.5451 -0.0622  0.8256
  543MOL0     H74893   9.943   9.989   3.567  0.2400 -0.9308 -0.4967
  543MOL0     H74894  10.099   9.989   3.470  0.7211 -0.7113 -1.8905
  543MOL0     H74895  10.032   9.836   3.531 -0.3623 -0.5327 -0.0852
  543MOL0     H74896  10.105  10.303   3.618  1.1071  0.2320 -1.4032
  543MOL0     H74897  10.148  10.540   3.662  1.1369 -0.2925 -0.2378
  543MOL0     H74898   9.959  10.940   3.554 -0.5078  0.5165  0.9990
  543MOL0     H74899   9.832  10.824   3.523  0.3901  0.4110  0.1787
  543MOL0     H74900   9.864  10.742   3.766  0.4138  0.3715  0.5140
  543MOL0     H74901  10.006  10.853   3.770  0.2781  3.7655 -1.8537
  543MOL0     H74902   9.712  10.922   3.751 -0.6450 -2.2838  4.6186
  543MOL0     H74903   9.855  11.035   3.712  1.9919 -1.9088 -0.7397
  543MOL0     H74904   9.938  11.006   3.948  0.4483  0.6204 -1.7074
  543MOL0     H74905   9.782  10.919   3.971  3.2326  0.7490  2.8740
  543MOL0     H74906   9.815  11.183   4.020 -1.7170 -1.7643  2.9410
  543MOL0     H74907   9.765  11.181   3.844 -2.4122 -2.8630 -2.2312
  543MOL0     H74908   9.560  11.041   3.900  1.2720 -3.3056  2.0317
  543MOL0     H74909   9.572  11.212   3.980  1.5880  0.4725  1.4571
  543MOL0     H74910   9.669  11.092   4.181 -1.2571 -1.0791  1.0058
  543MOL0     H74911   9.585  10.945   4.116 -0.2398 -0.5079 -1.7345
  543MOL0     H74912   9.473  11.203   4.207 -0.3260 -0.0108  3.9079
  543MOL0     H74913   9.418  11.042   4.261 -0.5102 -1.3988 -0.4874
  543MOL0     H74914   9.863  10.651   3.353 -3.4949  0.7960  3.1900
  543MOL0     H74915   9.831  10.418   3.304 -0.9090 -1.7172  2.5402
  543MOL0     H74916   9.840  10.064   3.068  0.4067 -1.4197 -0.4285
  543MOL0     H74917   9.838   9.846   2.995  1.4611  0.3630 -0.5793
  543MOL0     H74918  10.223   7.521   3.125  1.0129 -1.7772 -0.1501
  543MOL0     H74919  10.281   7.313   3.254 -1.0964  0.9894 -1.6641
  543MOL0     H74920  10.653   7.086   3.369  2.4092  2.3448 -0.1961
  543MOL0     H74921  10.714   6.875   3.474 -1.4370 -0.5433  0.1409
  543MOL0     H74922  10.746   6.624   3.748  0.2889  0.4511  0.4881
  543MOL0     H74923  10.678   6.682   3.605 -1.2696 -0.0943  2.7335
  543MOL0     H74924  10.907   6.803   3.551  0.4486  2.5345  2.4701
  543MOL0     H74925  10.905   6.623   3.564 -0.4760  0.6269 -0.4425
  543MOL0     H74926  11.074   6.801   3.684  0.5145 -0.3550 -0.6039
  543MOL0     H74927  10.947   6.778   3.814  0.3947  0.2991 -0.0270
  543MOL0     H74928  11.011   6.545   3.838  1.5321 -0.4177  1.2953
  543MOL0     H74929  11.158   6.642   3.829  1.7263  0.6033 -1.7492
  543MOL0     H74930  11.143   6.340   3.526 -0.4699 -0.2755  1.2941
  543MOL0     H74931  10.626   7.012   3.861  0.0095 -0.1425 -0.1286
  543MOL0     H74932  10.617   7.293   3.849  0.6545 -0.4238 -2.1281
  543MOL0     H74933  10.476   7.343   3.735  1.2352  1.2368 -0.7060
  543MOL0     H74934  10.451   7.229   3.858 -3.1107  0.2244 -1.6632
  544MOL0     O74935  10.869   3.835   7.942  0.0602  0.1807 -0.0459
  544MOL0     C74936  10.939   3.739   7.950  0.5701 -0.2008  0.9744
  544MOL0     O74937  10.894   3.617   7.942  0.1900 -1.1299  0.2996
  544MOL0     C74938  10.762   3.580   7.933  1.0863 -0.3678  0.6233
  544MOL0     C74939  10.742   3.445   7.914  0.5936 -0.4075  0.2951
  544MOL0     C74940  10.617   3.379   7.917 -0.9457 -0.6551  0.1840
  544MOL0     C74941  10.508   3.452   7.912  0.7260 -0.5950 -0.2482
  544MOL0     O74942  10.381   3.392   7.921 -0.0644 -1.4051  0.7093
  544MOL0     C74943  10.267   3.471   7.873  0.2004 -0.2283  0.3143
  544MOL0     C74944  10.205   3.417   7.743 -0.1887 -0.4289  0.1212
  544MOL0     C74945  10.136   3.278   7.767 -1.8214 -0.9791 -0.3783
  544MOL0     C74946  10.169   3.182   7.659  0.5517  0.1939  0.5053
  544MOL0     C74947  10.052   3.090   7.610  0.8563 -1.2322  0.1254
  544MOL0     C74948  10.065   2.965   7.676  0.1473  0.2377  0.1125
  544MOL0     C74949   9.935   2.873   7.645  0.7340  0.9194 -0.4689
  544MOL0     C74950   9.832   2.872   7.757  0.0452 -1.1896 -0.2310
  544MOL0     N74951   9.848   2.754   7.836  0.4858  0.2121  0.1016
  544MOL0     C74952   9.745   2.674   7.884 -0.9090  0.8440  0.7987
  544MOL0     C74953   9.809   2.593   7.973  0.9688 -0.1342  0.6976
  544MOL0     C74954   9.729   2.482   8.044  0.0587  0.2662 -0.5768
  544MOL0     C74955   9.747   2.504   8.199  0.2385  0.9548  0.1458
  544MOL0     C74956   9.690   2.389   8.278 -0.1422 -0.0052 -0.8579
  544MOL0     C74957   9.692   2.432   8.429 -0.2331 -0.3228  0.8581
  544MOL0     O74958   9.623   2.562   8.434 -0.6007 -0.4653 -0.0599
  544MOL0     C74959   9.608   2.627   8.555  0.0836  1.1168  0.2544
  544MOL0     C74960   9.664   2.597   8.676  0.0393  0.2139  0.0639
  544MOL0     C74961   9.635   2.684   8.783 -0.6984 -1.0398 -0.4211
  544MOL0     C74962   9.710   2.664   8.914  0.0178  0.1143 -0.3391
  544MOL0     C74963   9.544   2.798   8.766  0.0776 -0.0190  0.1515
  544MOL0     C74964   9.523   2.894   8.868  0.0001  0.2235 -0.1485
  544MOL0     O74965   9.636   2.952   8.915  0.4134  0.0175 -0.7701
  544MOL0     C74966   9.640   3.024   9.033 -0.5080 -0.5120 -0.6690
  544MOL0     C74967   9.755   3.102   9.047  0.5995  0.1026  0.0562
  544MOL0     C74968   9.772   3.166   9.165 -0.2377 -0.6747 -0.7538
  544MOL0     C74969   9.684   3.163   9.274  0.7674 -0.0769  0.7767
  544MOL0     O74970   9.732   3.216   9.392  0.0306  0.0901  0.2373
  544MOL0     C74971   9.682   3.174   9.507  0.2246  0.2328  0.5362
  544MOL0     C74972   9.759   3.241   9.621  0.3606 -0.0470  0.6878
  544MOL0     C74973   9.852   3.140   9.685 -1.0542  0.7436 -0.6883
  544MOL0     C74974   9.919   3.212   9.803 -0.4532  0.3200  0.7844
  544MOL0     C74975  10.013   3.117   9.870  0.1354  0.2296 -0.3564
  544MOL0     C74976  10.096   3.181   9.984  0.1416 -1.0721 -0.3499
  544MOL0     C74977  10.199   3.091  10.053 -0.4618  0.0139 -0.5339
  544MOL0     C74978  10.304   3.170  10.129  0.0220  0.2940  0.0449
  544MOL0    Cl74979  10.435   3.054  10.176  0.0309  0.1548 -0.6346
  544MOL0     C74980   9.565   3.080   9.264  0.8115 -0.3596  0.4820
  544MOL0     C74981   9.545   3.021   9.142  0.4643  0.8537  0.8022
  544MOL0     O74982   9.409   2.913   8.897  0.3406  0.1706  0.2674
  544MOL0     C74983   9.499   2.833   8.637 -0.0746  0.3565 -0.4551
  544MOL0     C74984   9.537   2.743   8.533  0.5135  0.3486 -0.1444
  544MOL0     N74985   9.946   2.610   7.967  0.4376 -0.2871 -0.0634
  544MOL0     N74986   9.973   2.703   7.874  0.6452 -0.3070 -1.2018
  544MOL0     C74987  10.523   3.596   7.941 -0.2662  0.3634  0.0039
  544MOL0     C74988  10.646   3.662   7.944  0.5811  0.1072  0.1171
  544MOL0     C74989  11.084   3.743   7.976 -0.8413 -0.1733 -1.2323
  544MOL0     C74990  11.170   3.635   7.986  1.2151 -0.1469 -0.2388
  544MOL0     C74991  11.302   3.647   8.047  0.3414 -0.0387  0.4428
  544MOL0     C74992  11.362   3.769   8.062  0.1643 -0.0330  0.7571
  544MOL0     O74993  11.485   3.789   8.119  0.1957  1.2414  0.5713
  544MOL0     C74994  11.582   3.681   8.116 -0.0839 -0.3224  0.3869
  544MOL0     C74995  11.727   3.715   8.136 -0.6710 -1.4665 -0.1828
  544MOL0     C74996  11.773   3.797   8.257 -0.1520  0.5097  0.9301
  544MOL0     C74997  11.923   3.836   8.254  0.0026  0.2294 -0.9246
  544MOL0     C74998  11.947   3.954   8.166  0.4308 -0.2208  0.8368
  544MOL0     C74999  11.966   4.053   8.095  0.7068 -1.0763 -0.9091
  544MOL0     C75000  11.283   3.883   8.037  0.1228 -0.1589 -0.7799
  544MOL0     C75001  11.150   3.872   8.003  0.3778  0.2709  0.5054
  544MOL0     C75002  11.089   4.007   7.972  0.7442  0.3587 -0.8072
  544MOL0     H75003  10.828   3.381   7.895 -0.6094 -0.7464 -7.0028
  544MOL0     H75004  10.626   3.272   7.902  0.2499 -0.1861 -3.0961
  544MOL0     H75005  10.299   3.573   7.849  1.2229 -0.3616  1.0498
  544MOL0     H75006  10.180   3.471   7.939 -1.2276  1.2768 -1.4587
  544MOL0     H75007  10.122   3.478   7.706 -0.2468  0.3258  1.4340
  544MOL0     H75008  10.282   3.418   7.665 -0.9309  0.5178 -0.6253
  544MOL0     H75009  10.164   3.228   7.860  4.0258 -0.7607 -1.6110
  544MOL0     H75010  10.028   3.292   7.756 -1.7091  2.9373  1.7509
  544MOL0     H75011  10.191   3.236   7.567 -2.8262 -0.9947 -1.1281
  544MOL0     H75012  10.253   3.120   7.694  1.2925 -0.5247 -2.3003
  544MOL0     H75013  10.057   3.071   7.502  2.2990 -0.2634 -0.0170
  544MOL0     H75014   9.955   3.133   7.636  0.4437 -1.5848 -0.7820
  544MOL0     H75015  10.158   2.918   7.643  0.2246 -0.8789  1.8297
  544MOL0     H75016  10.069   2.981   7.784  0.5263 -0.2993  0.1827
  544MOL0     H75017   9.961   2.768   7.631 -2.4875  0.2807 -2.8274
  544MOL0     H75018   9.886   2.904   7.553  0.5966 -0.9083 -1.0514
  544MOL0     H75019   9.852   2.961   7.818 -3.0827 -2.2323  2.6076
  544MOL0     H75020   9.726   2.875   7.728 -0.7113  0.7708  2.2854
  544MOL0     H75021   9.642   2.652   7.857  0.3051 -4.7225 -0.5313
  544MOL0     H75022   9.775   2.385   8.026  2.4905  0.7952  2.0001
  544MOL0     H75023   9.623   2.485   8.018 -0.2651  0.4110  0.6852
  544MOL0     H75024   9.855   2.514   8.217  0.5952 -1.8511  0.0644
  544MOL0     H75025   9.699   2.598   8.225 -0.9479  0.4776 -0.2415
  544MOL0     H75026   9.592   2.357   8.242 -0.6369 -1.4719  1.5222
  544MOL0     H75027   9.765   2.309   8.282  0.5795  0.5876 -2.2210
  544MOL0     H75028   9.645   2.350   8.485 -5.4866  0.3798 -1.8431
  544MOL0     H75029   9.792   2.461   8.463 -0.8248  1.0288  1.5438
  544MOL0     H75030   9.737   2.519   8.695  3.1127  3.2889  1.8900
  544MOL0     H75031   9.631   2.665   8.989  0.4457  2.1713  0.1466
  544MOL0     H75032   9.776   2.745   8.946  0.4535 -1.0724  1.9981
  544MOL0     H75033   9.773   2.574   8.911 -1.4534 -0.9588 -0.2222
  544MOL0     H75034   9.810   3.112   8.954 -2.7515 -3.8279 -2.6982
  544MOL0     H75035   9.864   3.222   9.178  0.0824 -1.8317  2.8886
  544MOL0     H75036   9.574   3.189   9.516  0.1129  1.0350 -1.5820
  544MOL0     H75037   9.702   3.067   9.517  2.9904  0.6536  0.3488
  544MOL0     H75038   9.819   3.322   9.578  0.8337  0.0813  1.5473
  544MOL0     H75039   9.680   3.275   9.688 -0.5255 -4.1775  2.0229
  544MOL0     H75040   9.927   3.103   9.614 -1.5309  2.3841 -2.1308
  544MOL0     H75041   9.802   3.051   9.724  1.1974 -0.5723 -0.6165
  544MOL0     H75042   9.849   3.251   9.876 -4.3172 -1.3750 -1.7095
  544MOL0     H75043   9.976   3.303   9.779  0.7367  0.3947  3.5196
  544MOL0     H75044   9.952   3.035   9.909  0.4408 -2.0625 -4.1653
  544MOL0     H75045  10.079   3.062   9.803  0.0711  1.7460 -1.7223
  544MOL0     H75046  10.031   3.230  10.057 -0.2508  0.6979 -1.8292
  544MOL0     H75047  10.148   3.265   9.938 -1.9074  0.4516 -0.0438
  544MOL0     H75048  10.249   3.022   9.984 -1.1367 -1.6659  0.6220
  544MOL0     H75049  10.151   3.030  10.129 -0.1817  0.9690  0.4315
  544MOL0     H75050  10.260   3.206  10.222 -0.2852 -2.1205  0.8996
  544MOL0     H75051  10.355   3.247  10.069  0.2774  0.8111  0.9162
  544MOL0     H75052   9.506   3.053   9.350  1.5849  0.3944  1.2776
  544MOL0     H75053   9.460   2.954   9.140 -0.7804  2.4181 -0.1262
  544MOL0     H75054   9.429   2.916   8.636 -1.5333 -0.6822  2.4615
  544MOL0     H75055   9.496   2.756   8.434 -0.7261 -0.1507  0.2799
  544MOL0     H75056  10.438   3.662   7.958 -2.0469 -1.8518  0.3245
  544MOL0     H75057  10.654   3.769   7.958  0.0171  0.2957 -0.8805
  544MOL0     H75058  11.138   3.538   7.950  0.3661  0.2012 -0.4615
  544MOL0     H75059  11.358   3.554   8.056  0.5543 -0.3411 -2.7575
  544MOL0     H75060  11.557   3.613   8.199  1.9686 -0.6634  0.7731
  544MOL0     H75061  11.567   3.623   8.024  2.0453 -2.7061  1.4246
  544MOL0     H75062  11.761   3.777   8.053 -0.5012  0.0892  0.9974
  544MOL0     H75063  11.782   3.621   8.127 -1.8398 -2.3325  1.2652
  544MOL0     H75064  11.710   3.885   8.272  0.0658  0.8579 -0.0650
  544MOL0     H75065  11.749   3.732   8.341 -1.5144  0.7893  0.7815
  544MOL0     H75066  11.989   3.751   8.230 -0.5679 -0.6270  0.4421
  544MOL0     H75067  11.952   3.865   8.355 -1.5398  1.1637 -0.7251
  544MOL0     H75068  11.969   4.144   8.039  0.9370 -0.2884  0.3383
  544MOL0     H75069  11.327   3.975   8.074  0.4593 -0.1916 -1.0971
  544MOL0     H75070  11.042   4.011   7.873 -0.3156 -5.5237 -0.9009
  544MOL0     H75071  11.003   4.010   8.040  1.7940 -1.8615  0.7022
  544MOL0     H75072  11.160   4.087   7.995  2.6113 -1.7317  1.1020
  545MOL0     O75073   0.051  11.101   1.953 -1.0633  0.2370 -0.7141
  545MOL0     C75074  -0.064  11.109   1.904 -1.0921 -0.3088  0.4626
  545MOL0     O75075  -0.164  11.009   1.909 -0.0694  0.6266  0.3930
  545MOL0     C75076  -0.118  10.888   1.964  0.2227 -1.5189 -0.0951
  545MOL0     C75077  -0.093  10.882   2.105  0.1137  1.3020 -0.8877
  545MOL0     C75078  -0.059  10.753   2.161  0.2081 -0.5067 -0.0057
  545MOL0     C75079  -0.045  10.640   2.087  0.1563  0.7588 -0.1908
  545MOL0     O75080  -0.016  10.526   2.151  0.2799  0.6009 -0.4773
  545MOL0     C75081  -0.105  10.422   2.123 -0.5542 -0.6476 -0.0631
  545MOL0     C75082  -0.054  10.308   2.210  0.6049 -0.0635 -0.3533
  545MOL0     C75083   0.016  10.196   2.116  0.7909  0.5473 -0.5881
  545MOL0     C75084   0.014  10.059   2.181  0.9051  1.0580 -0.7545
  545MOL0     C75085   0.056   9.950   2.082 -0.0086  0.0467  0.5945
  545MOL0     C75086   0.206   9.930   2.089 -1.2722  0.1282  0.4837
  545MOL0     C75087   0.249   9.797   2.041 -0.1264 -0.0282  0.5768
  545MOL0     C75088   0.191   9.751   1.912 -0.3348  0.7156  1.0778
  545MOL0     N75089   0.257   9.623   1.874  0.3886  0.9121 -0.1973
  545MOL0     C75090   0.203   9.511   1.934 -0.3285  1.3121 -0.3008
  545MOL0     C75091   0.233   9.409   1.848 -1.1184 -0.5336 -0.6091
  545MOL0     C75092   0.214   9.264   1.875 -0.5497 -0.8132 -0.2130
  545MOL0     C75093   0.141   9.193   1.754 -0.5473  0.1779  0.7810
  545MOL0     C75094   0.071   9.063   1.802  0.8947 -1.0082  0.0604
  545MOL0     C75095  -0.033   9.009   1.701  0.8671  0.1719  0.0914
  545MOL0     O75096  -0.067   8.874   1.751 -0.2979 -0.7065 -0.3082
  545MOL0     C75097  -0.155   8.804   1.679  0.4292  0.6125  0.5420
  545MOL0     C75098  -0.209   8.707   1.757  0.4444  0.9551  0.3190
  545MOL0     C75099  -0.272   8.594   1.702  0.2279  0.1668 -0.8993
  545MOL0     C75100  -0.323   8.492   1.801  0.2659  0.2658  1.1413
  545MOL0     C75101  -0.305   8.602   1.561 -0.5477  0.0564 -0.3487
  545MOL0     C75102  -0.380   8.510   1.479  0.4850  0.1488  0.5953
  545MOL0     O75103  -0.339   8.485   1.353  0.2330  0.0848 -0.1243
  545MOL0     C75104  -0.435   8.464   1.252 -0.5152 -0.0183 -0.5723
  545MOL0     C75105  -0.384   8.451   1.129  0.2021  0.1062 -0.2646
  545MOL0     C75106  -0.474   8.435   1.023  0.0909  0.0461  0.4008
  545MOL0     C75107  -0.613   8.433   1.042 -0.1959  0.9263 -0.0372
  545MOL0     O75108  -0.697   8.424   0.931  0.0061  0.8814  0.1684
  545MOL0     C75109  -0.827   8.375   0.955 -0.0856 -0.3267 -0.1773
  545MOL0     C75110  -0.881   8.285   0.850 -0.3502  0.3412  0.2773
  545MOL0     C75111  -0.776   8.168   0.827 -0.1520  0.4916 -0.0341
  545MOL0     C75112  -0.837   8.043   0.764  0.2445  0.4328  0.5146
  545MOL0     C75113  -0.737   7.918   0.740 -0.1794 -0.5280  0.9300
  545MOL0     C75114  -0.799   7.783   0.696  1.4901  0.1481 -0.0079
  545MOL0     C75115  -0.755   7.672   0.793 -0.2554  0.2056  0.0427
  545MOL0     C75116  -0.817   7.534   0.762 -0.5929  0.6960 -0.3164
  545MOL0    Cl75117  -0.761   7.426   0.883 -0.2840  0.4262 -0.1861
  545MOL0     C75118  -0.656   8.440   1.171  0.2370  0.0490  0.0694
  545MOL0     C75119  -0.571   8.467   1.278  0.3031 -0.6265  0.3826
  545MOL0     O75120  -0.460   8.446   1.547  0.0431  0.2865 -0.0393
  545MOL0     C75121  -0.257   8.712   1.485 -0.5209 -0.2282 -0.5009
  545MOL0     C75122  -0.183   8.815   1.545 -0.5228  0.0506  0.2989
  545MOL0     N75123   0.288   9.469   1.732 -0.1885 -0.3237 -0.1960
  545MOL0     N75124   0.303   9.597   1.753  0.1991  0.2383  0.7351
  545MOL0     C75125  -0.066  10.658   1.944 -0.6404  0.3122 -0.6838
  545MOL0     C75126  -0.105  10.770   1.886 -0.5825 -0.7458 -0.8583
  545MOL0     C75127  -0.079  11.196   1.792 -0.6767  0.1948  0.4872
  545MOL0     C75128  -0.125  11.149   1.668 -0.0798 -1.1309 -0.6204
  545MOL0     C75129  -0.150  11.240   1.564  0.0763 -0.5278  0.0495
  545MOL0     C75130  -0.107  11.368   1.579  0.6567 -0.0235 -0.2181
  545MOL0     O75131  -0.129  11.467   1.488  0.0264 -0.2767  0.4639
  545MOL0     C75132  -0.156  11.440   1.347 -0.2685  0.2108  0.3205
  545MOL0     C75133  -0.124  11.558   1.256  0.5125  0.2396 -0.2060
  545MOL0     C75134  -0.133  11.516   1.104 -0.3241  0.8626 -0.2793
  545MOL0     C75135  -0.060  11.610   1.007  0.2134 -0.5057 -0.2747
  545MOL0     C75136   0.083  11.625   1.042 -1.0609 -0.2708 -0.0152
  545MOL0     C75137   0.200  11.630   1.069 -0.2587  0.0622 -0.4354
  545MOL0     C75138  -0.056  11.412   1.695 -0.1304  0.2661 -0.6862
  545MOL0     C75139  -0.044  11.330   1.799 -0.5944  0.0282 -1.0916
  545MOL0     C75140   0.005  11.400   1.935  0.7407 -0.8402 -0.3772
  545MOL0     H75141  -0.100  10.963   2.177 -2.3982  1.5370 -1.3119
  545MOL0     H75142  -0.033  10.736   2.266 -0.0232  4.1860  1.0124
  545MOL0     H75143  -0.130  10.404   2.018 -2.5314  3.7711 -0.5758
  545MOL0     H75144  -0.202  10.451   2.165 -1.1155  0.1454 -1.8005
  545MOL0     H75145   0.012  10.358   2.282  0.5850 -0.9629  0.3014
  545MOL0     H75146  -0.145  10.274   2.259  0.0841 -0.6406 -1.6685
  545MOL0     H75147  -0.038  10.195   2.021 -1.1202 -0.8596  0.4388
  545MOL0     H75148   0.122  10.222   2.107  0.7228  0.6095 -1.2307
  545MOL0     H75149   0.085  10.066   2.263 -1.2363  1.4244  1.1845
  545MOL0     H75150  -0.085  10.040   2.225  0.9400 -1.2511 -1.5399
  545MOL0     H75151   0.021   9.971   1.981 -0.1503 -1.5190  0.3030
  545MOL0     H75152   0.010   9.853   2.103  1.1403 -0.4120  1.0546
  545MOL0     H75153   0.246  10.012   2.029 -4.2592  1.2150 -0.2155
  545MOL0     H75154   0.233   9.950   2.193 -0.5051 -1.8003  0.6967
  545MOL0     H75155   0.237   9.716   2.113 -0.0758  0.5575  1.2596
  545MOL0     H75156   0.358   9.806   2.032 -0.4239  3.6960 -1.5636
  545MOL0     H75157   0.084   9.729   1.907 -0.6504  2.4379 -1.3184
  545MOL0     H75158   0.219   9.812   1.826  0.3495 -3.2553 -1.8362
  545MOL0     H75159   0.157   9.508   2.033 -2.2603 -3.2445 -1.0338
  545MOL0     H75160   0.140   9.252   1.954 -0.9876 -0.2782 -0.5335
  545MOL0     H75161   0.308   9.217   1.905 -1.7752 -1.7265  2.5039
  545MOL0     H75162   0.066   9.268   1.725 -1.5889 -0.9580  0.4554
  545MOL0     H75163   0.204   9.177   1.666 -1.8460 -1.3054  0.0527
  545MOL0     H75164   0.157   8.996   1.799  1.1179 -0.6898 -0.8398
  545MOL0     H75165   0.027   9.067   1.902  1.0477  0.8746  0.0929
  545MOL0     H75166  -0.119   9.077   1.699  0.9288  0.3885 -3.9435
  545MOL0     H75167   0.020   9.002   1.605  1.6214 -0.1719  0.5282
  545MOL0     H75168  -0.179   8.712   1.861  0.5951  0.5042  0.3007
  545MOL0     H75169  -0.278   8.396   1.777  3.9958  2.3197 -1.1054
  545MOL0     H75170  -0.431   8.476   1.794  0.3570 -0.2809  0.9413
  545MOL0     H75171  -0.296   8.522   1.903  2.8200 -1.9479  1.2315
  545MOL0     H75172  -0.280   8.460   1.100  1.0727 -1.2132  2.1684
  545MOL0     H75173  -0.431   8.427   0.923 -1.6025  0.0532 -0.3658
  545MOL0     H75174  -0.829   8.313   1.045  1.2909  1.0961  0.8866
  545MOL0     H75175  -0.896   8.456   0.978  1.8650  2.3093 -2.9197
  545MOL0     H75176  -0.973   8.234   0.883  0.9924 -1.6509  1.1502
  545MOL0     H75177  -0.892   8.339   0.756 -1.5112  1.1824  0.8725
  545MOL0     H75178  -0.747   8.140   0.929 -2.0438  3.0636  1.3281
  545MOL0     H75179  -0.692   8.197   0.764  1.0238 -0.7286  0.8895
  545MOL0     H75180  -0.875   8.076   0.666 -0.0039 -1.4952 -0.0790
  545MOL0     H75181  -0.911   8.001   0.832  3.1989 -2.4157  2.2423
  545MOL0     H75182  -0.677   7.952   0.655 -2.3176 -1.9186 -1.2499
  545MOL0     H75183  -0.670   7.914   0.827  1.6075 -1.1432 -0.4097
  545MOL0     H75184  -0.761   7.750   0.599  0.2267  1.7440 -1.0784
  545MOL0     H75185  -0.908   7.785   0.694  1.3152  2.9628  2.9924
  545MOL0     H75186  -0.781   7.693   0.898 -3.0095 -3.4195  0.2775
  545MOL0     H75187  -0.647   7.674   0.780 -0.5656 -0.6887 -3.3690
  545MOL0     H75188  -0.808   7.483   0.666  0.5364 -0.1037  0.1976
  545MOL0     H75189  -0.925   7.549   0.769 -0.3441  2.4901  0.4784
  545MOL0     H75190  -0.758   8.454   1.204  1.5874  2.4982  3.8794
  545MOL0     H75191  -0.606   8.491   1.377  1.1675 -0.8528  0.7550
  545MOL0     H75192  -0.275   8.727   1.379  0.9684  2.6608 -0.4427
  545MOL0     H75193  -0.146   8.898   1.486 -0.2034 -0.7027 -0.5816
  545MOL0     H75194  -0.057  10.580   1.870  0.3689  2.1363 -2.5684
  545MOL0     H75195  -0.131  10.765   1.781  0.0201 -3.2942 -0.9621
  545MOL0     H75196  -0.154  11.044   1.669 -0.0320 -1.2337  2.7882
  545MOL0     H75197  -0.207  11.196   1.483 -0.9871 -1.5158  1.2949
  545MOL0     H75198  -0.101  11.352   1.312  0.1506  0.6422 -0.1140
  545MOL0     H75199  -0.262  11.415   1.339 -0.0241 -0.6772 -0.4039
  545MOL0     H75200  -0.024  11.586   1.289 -0.8766  1.3784  3.6157
  545MOL0     H75201  -0.188  11.644   1.280 -2.0283 -2.7113  5.5728
  545MOL0     H75202  -0.098  11.414   1.088 -3.1282 -0.2977  0.3668
  545MOL0     H75203  -0.238  11.532   1.078 -0.5629  0.3757  0.3680
  545MOL0     H75204  -0.113  11.705   1.016  1.4511  0.1990 -0.2214
  545MOL0     H75205  -0.065  11.568   0.906  1.8160 -1.4645  0.0048
  545MOL0     H75206   0.306  11.616   1.076 -0.2564  0.9132  2.3578
  545MOL0     H75207  -0.023  11.515   1.694 -2.2413  0.9878 -0.4969
  545MOL0     H75208   0.039  11.504   1.929  1.0348 -0.7600  1.8701
  545MOL0     H75209  -0.074  11.395   2.011 -1.1760 -1.1988 -2.3040
  545MOL0     H75210   0.096  11.347   1.966  3.0938  2.3483 -1.2533
  546MOL0     O75211   6.182   4.438  11.305 -0.2966 -0.6058 -0.4251
  546MOL0     C75212   6.146   4.525  11.230  0.4030 -0.2458  0.1888
  546MOL0     O75213   6.213   4.558  11.113 -0.2482  0.2148 -0.0999
  546MOL0     C75214   6.288   4.463  11.045 -0.5120  0.3029  0.1786
  546MOL0     C75215   6.352   4.342  11.090  0.5821  0.1110  0.3522
  546MOL0     C75216   6.443   4.263  11.006 -0.0381 -0.3178 -0.0182
  546MOL0     C75217   6.452   4.293  10.872 -1.0541  0.2410 -0.0413
  546MOL0     O75218   6.521   4.214  10.776 -0.4211  0.4657 -1.5349
  546MOL0     C75219   6.525   4.071  10.797 -0.8341  0.9500  0.1990
  546MOL0     C75220   6.631   4.015  10.693  1.2122  0.9790  0.2692
  546MOL0     C75221   6.765   4.086  10.697 -0.4032  0.0014 -0.2444
  546MOL0     C75222   6.883   4.019  10.621 -0.1583 -0.3247  0.6667
  546MOL0     C75223   6.894   4.058  10.468  0.0330 -0.0258  1.0057
  546MOL0     C75224   7.029   3.991  10.419  0.5604  0.3840 -1.0934
  546MOL0     C75225   7.044   3.997  10.259 -0.8885 -0.4897 -0.6049
  546MOL0     C75226   7.006   4.132  10.198  0.1117 -0.1914  0.7381
  546MOL0     N75227   7.052   4.147  10.059 -0.5319  0.2472  0.0485
  546MOL0     C75228   7.050   4.059   9.958 -0.1838  0.7438 -1.2387
  546MOL0     C75229   7.091   4.127   9.858  1.3528 -0.4411  0.6117
  546MOL0     C75230   7.080   4.061   9.720 -0.3613 -0.2090 -0.2537
  546MOL0     C75231   7.218   4.049   9.648  0.0503  0.6253 -0.6325
  546MOL0     C75232   7.193   4.049   9.496 -0.1946  0.3236  0.0101
  546MOL0     C75233   7.105   3.950   9.435 -1.2641  0.1317 -0.9250
  546MOL0     O75234   7.175   3.824   9.450 -0.2250  0.1009  0.4180
  546MOL0     C75235   7.102   3.705   9.473 -0.4953  0.3416 -0.1857
  546MOL0     C75236   6.991   3.670   9.397 -0.7931  0.4248 -0.8110
  546MOL0     C75237   6.918   3.551   9.430  0.2843 -0.9965 -0.0285
  546MOL0     C75238   6.785   3.547   9.359 -0.0964  0.5796 -0.6143
  546MOL0     C75239   6.957   3.462   9.522 -0.8455  0.7541  0.1129
  546MOL0     C75240   6.895   3.325   9.558  0.0148 -0.1521  0.2525
  546MOL0     O75241   6.794   3.276   9.476 -0.1913  1.1229 -0.0038
  546MOL0     C75242   6.762   3.139   9.485  0.0324  0.9278  0.2311
  546MOL0     C75243   6.868   3.044   9.481  0.5474 -0.4508 -0.2112
  546MOL0     C75244   6.843   2.908   9.491 -0.8858 -0.8488  0.0306
  546MOL0     C75245   6.711   2.870   9.493  0.3422  0.0379 -0.5647
  546MOL0     O75246   6.675   2.742   9.525 -0.5465 -0.3601 -0.8359
  546MOL0     C75247   6.725   2.665   9.630 -0.7531  0.2331 -0.8829
  546MOL0     C75248   6.616   2.581   9.700  0.4169  0.3364  0.4984
  546MOL0     C75249   6.541   2.485   9.610  0.4569  0.5935 -0.7601
  546MOL0     C75250   6.389   2.475   9.641 -0.1019  0.4277  1.2733
  546MOL0     C75251   6.319   2.400   9.528 -1.1086  0.1481 -0.6771
  546MOL0     C75252   6.276   2.264   9.559 -0.7227  0.5933 -0.4280
  546MOL0     C75253   6.257   2.187   9.424 -0.0846 -0.1822 -0.1991
  546MOL0     C75254   6.205   2.048   9.451  0.8300 -0.6633 -0.4505
  546MOL0    Cl75255   6.313   1.962   9.552  0.1076 -0.4948  0.1641
  546MOL0     C75256   6.609   2.962   9.470  0.3782 -0.3139 -0.4633
  546MOL0     C75257   6.632   3.098   9.464 -0.6322  0.0530  0.7981
  546MOL0     O75258   6.935   3.266   9.653 -0.2263 -0.1307  0.5449
  546MOL0     C75259   7.072   3.509   9.595 -0.7213 -0.0774 -0.5202
  546MOL0     C75260   7.143   3.620   9.572 -0.0415  0.0665  0.0389
  546MOL0     N75261   7.103   4.259   9.884 -0.3376 -0.7086  0.0381
  546MOL0     N75262   7.093   4.270  10.010  0.6998  0.3942  0.3105
  546MOL0     C75263   6.387   4.409  10.827 -0.0214  0.6156  0.4792
  546MOL0     C75264   6.298   4.483  10.909  0.6437 -0.3286 -0.7612
  546MOL0     C75265   6.008   4.586  11.260 -0.7022 -0.1203  0.9027
  546MOL0     C75266   6.001   4.717  11.295  0.9118  0.0169 -0.5967
  546MOL0     C75267   5.876   4.769  11.331  0.5566  0.1426 -0.2012
  546MOL0     C75268   5.765   4.690  11.352  0.2571  0.6130 -0.1286
  546MOL0     O75269   5.638   4.745  11.377  0.0834  0.3128  0.2599
  546MOL0     C75270   5.532   4.676  11.439 -0.3651  0.6418  0.2555
  546MOL0     C75271   5.432   4.758  11.522  0.8139 -0.1449  0.1177
  546MOL0     C75272   5.483   4.836  11.649  0.0964 -0.0687  0.0212
  546MOL0     C75273   5.548   4.967  11.624 -1.2267 -1.1482  0.1743
  546MOL0     C75274   5.545   5.048  11.748 -0.0739 -0.6518 -0.0598
  546MOL0     C75275   5.541   5.118  11.843 -0.6904 -1.1041 -0.3379
  546MOL0     C75276   5.777   4.560  11.326  0.7112  0.3737  0.3848
  546MOL0     C75277   5.888   4.503  11.268 -0.3286 -0.7657  0.2320
  546MOL0     C75278   5.887   4.355  11.228 -0.2343 -0.5229  0.0741
  546MOL0     H75279   6.366   4.328  11.196  0.6168 -1.7749  0.1208
  546MOL0     H75280   6.486   4.183  11.064 -2.1129 -0.4850  1.4021
  546MOL0     H75281   6.432   4.021  10.770 -0.6216 -0.4097  1.8741
  546MOL0     H75282   6.547   4.042  10.900 -0.1683 -1.9499 -0.6674
  546MOL0     H75283   6.648   3.907  10.693 -1.6583  0.4348 -1.6099
  546MOL0     H75284   6.592   4.022  10.591  2.0248 -2.4608 -0.4023
  546MOL0     H75285   6.749   4.190  10.668  1.4590 -0.0806 -1.7640
  546MOL0     H75286   6.810   4.075  10.796 -0.6709  0.6984 -0.0413
  546MOL0     H75287   6.984   4.048  10.650  1.2527  1.0157 -4.5364
  546MOL0     H75288   6.871   3.910  10.620 -1.5946 -0.2127 -1.5543
  546MOL0     H75289   6.885   4.167  10.463 -1.2954 -0.1712 -0.4087
  546MOL0     H75290   6.811   4.020  10.407  0.4832 -0.7284  0.8186
  546MOL0     H75291   7.109   4.049  10.466 -0.6965  0.2426  1.4010
  546MOL0     H75292   7.036   3.887  10.453  1.5179  0.2464 -1.6740
  546MOL0     H75293   6.987   3.929  10.196 -0.0343 -1.3141 -0.5115
  546MOL0     H75294   7.147   3.968  10.236 -1.8895 -5.6336  0.2110
  546MOL0     H75295   6.897   4.140  10.195 -0.2251 -3.5518 -2.3845
  546MOL0     H75296   7.035   4.220  10.256  3.9949 -0.8653  0.1237
  546MOL0     H75297   7.024   3.953   9.965  1.4703  0.2948 -1.4457
  546MOL0     H75298   7.011   4.110   9.650  2.3904 -0.7772 -3.6672
  546MOL0     H75299   7.034   3.962   9.732 -2.4595  0.9503  1.9567
  546MOL0     H75300   7.268   4.140   9.681 -3.7046  2.7867 -0.3779
  546MOL0     H75301   7.282   3.964   9.676  0.8213  1.3297 -0.2324
  546MOL0     H75302   7.170   4.144   9.449 -0.1308 -0.1696 -1.0604
  546MOL0     H75303   7.289   4.027   9.447  0.7258 -1.1799  2.3392
  546MOL0     H75304   7.013   3.944   9.494  0.0749 -0.7787  1.1977
  546MOL0     H75305   7.095   3.962   9.327 -0.3566 -0.3395 -1.0692
  546MOL0     H75306   6.944   3.751   9.341  3.0456  3.6234  0.1621
  546MOL0     H75307   6.780   3.458   9.294 -0.9171  1.0246 -1.1717
  546MOL0     H75308   6.766   3.631   9.292  1.2883  0.8273 -0.7354
  546MOL0     H75309   6.708   3.546   9.436  1.4111  1.0652  0.9806
  546MOL0     H75310   6.973   3.073   9.481 -0.0157  1.8715 -1.9805
  546MOL0     H75311   6.923   2.836   9.502  0.7872 -0.4089 -5.7863
  546MOL0     H75312   6.810   2.606   9.595  1.2432  1.0646  2.1620
  546MOL0     H75313   6.762   2.737   9.704 -1.4852  1.7925 -1.9868
  546MOL0     H75314   6.650   2.530   9.791 -0.9939  1.4012  1.6844
  546MOL0     H75315   6.533   2.648   9.727 -0.3810 -1.2845  2.4025
  546MOL0     H75316   6.582   2.384   9.600 -2.4989 -0.5231 -3.1594
  546MOL0     H75317   6.553   2.529   9.511 -0.7410  3.1739  0.1541
  546MOL0     H75318   6.335   2.569   9.659 -1.1870  0.0427  0.1906
  546MOL0     H75319   6.396   2.405   9.726  1.8370 -1.2743 -0.1993
  546MOL0     H75320   6.236   2.466   9.500 -1.6206 -1.0486 -2.1559
  546MOL0     H75321   6.387   2.387   9.444  0.8054 -0.2957  0.8706
  546MOL0     H75322   6.179   2.257   9.609  0.1398 -1.3279  1.1340
  546MOL0     H75323   6.355   2.207   9.610 -3.9916 -3.3002  0.8520
  546MOL0     H75324   6.351   2.191   9.370  0.3230 -1.1998  0.4082
  546MOL0     H75325   6.179   2.247   9.375  1.0621  1.3572 -0.1987
  546MOL0     H75326   6.192   1.991   9.359 -0.6563  1.8331 -1.9248
  546MOL0     H75327   6.112   2.068   9.505  0.7049 -2.6332  0.1334
  546MOL0     H75328   6.505   2.934   9.466  0.4074 -0.4070 -0.5933
  546MOL0     H75329   6.546   3.162   9.446 -0.1112  0.7355  0.7015
  546MOL0     H75330   7.092   3.449   9.683 -2.8659 -0.8157 -0.4724
  546MOL0     H75331   7.220   3.655   9.640  1.0653  0.5294 -1.4005
  546MOL0     H75332   6.404   4.437  10.723 -2.1813  1.8517  0.4091
  546MOL0     H75333   6.242   4.559  10.854 -0.6283  0.1592  1.1119
  546MOL0     H75334   6.083   4.788  11.293  0.5649  0.5577  1.8577
  546MOL0     H75335   5.868   4.874  11.355 -1.9009 -0.1055  0.3731
  546MOL0     H75336   5.471   4.634  11.358 -1.4540 -0.7767  1.7252
  546MOL0     H75337   5.563   4.599  11.510 -0.6509  1.4073  1.2306
  546MOL0     H75338   5.349   4.692  11.549 -1.3645  0.8276 -3.5373
  546MOL0     H75339   5.382   4.830  11.457  1.0962 -0.0331  0.0235
  546MOL0     H75340   5.395   4.868  11.705 -0.4035 -2.0868  0.4471
  546MOL0     H75341   5.548   4.770  11.707  0.9365  0.7459  0.0325
  546MOL0     H75342   5.483   5.029  11.561  0.5238  4.7931  3.3969
  546MOL0     H75343   5.648   4.968  11.580 -0.7577 -0.4052  1.2109
  546MOL0     H75344   5.562   5.187  11.922  3.0595 -0.8809 -1.3585
  546MOL0     H75345   5.693   4.492  11.317  1.1548 -0.0931 -0.3650
  546MOL0     H75346   5.800   4.334  11.165 -1.3311 -0.5799  1.5585
  546MOL0     H75347   5.970   4.340  11.158 -0.3513  0.5620 -0.3240
  546MOL0     H75348   5.879   4.294  11.318  3.3352  0.1740  0.9932
  547MOL0     O75349   5.813   7.741   7.511  0.4244 -0.6538  0.7077
  547MOL0     C75350   5.708   7.682   7.503 -0.0691  0.5127 -0.2278
  547MOL0     O75351   5.596   7.721   7.427  0.0980  0.3816  0.3837
  547MOL0     C75352   5.574   7.852   7.392 -0.5813  0.3182  0.2867
  547MOL0     C75353   5.614   7.962   7.465 -0.0777 -0.1449  0.4101
  547MOL0     C75354   5.579   8.090   7.414  0.9039  0.0786  0.1623
  547MOL0     C75355   5.494   8.102   7.308  0.0072  0.4698  0.3779
  547MOL0     O75356   5.461   8.226   7.259  0.1460 -0.6472  0.1893
  547MOL0     C75357   5.563   8.321   7.240  0.5066  0.0378  0.0380
  547MOL0     C75358   5.608   8.316   7.091 -0.1054 -0.0192  1.1443
  547MOL0     C75359   5.507   8.338   6.986 -0.1294 -1.2786  0.1708
  547MOL0     C75360   5.567   8.392   6.859  1.1388  0.5179  0.0532
  547MOL0     C75361   5.642   8.279   6.799  0.9754  0.3108 -0.2444
  547MOL0     C75362   5.702   8.313   6.661  0.7522 -0.3479 -0.0230
  547MOL0     C75363   5.799   8.211   6.610 -0.4865 -0.4171 -0.8636
  547MOL0     C75364   5.737   8.069   6.598 -0.0003  0.6817 -0.7468
  547MOL0     N75365   5.843   7.990   6.543 -0.1651  0.2262 -0.2216
  547MOL0     C75366   5.946   7.953   6.627 -0.5792  1.0395 -0.4322
  547MOL0     C75367   6.034   7.888   6.543 -0.5158  0.1827  0.3152
  547MOL0     C75368   6.183   7.852   6.559  0.0257  0.1783  0.1145
  547MOL0     C75369   6.195   7.694   6.565  0.1793 -0.4788  0.8476
  547MOL0     C75370   6.327   7.655   6.613  0.0370 -0.7182 -1.1133
  547MOL0     C75371   6.337   7.588   6.749 -0.5104 -0.0019 -0.8901
  547MOL0     O75372   6.469   7.577   6.801  0.1083 -0.1708  0.3134
  547MOL0     C75373   6.492   7.503   6.916  0.8430 -0.7799 -0.7854
  547MOL0     C75374   6.590   7.398   6.909 -0.8749 -0.7122  0.0037
  547MOL0     C75375   6.610   7.313   7.020 -0.5920  0.1945 -0.1018
  547MOL0     C75376   6.733   7.225   7.001 -0.4154 -0.2856  0.7526
  547MOL0     C75377   6.525   7.329   7.135 -0.7147 -1.2713  0.2635
  547MOL0     C75378   6.551   7.237   7.249 -0.1446 -0.4057  0.8829
  547MOL0     O75379   6.680   7.207   7.283 -0.1203 -0.1193  1.2179
  547MOL0     C75380   6.708   7.107   7.372 -1.2208  0.6955 -0.2586
  547MOL0     C75381   6.780   6.988   7.330  0.0263 -0.1937  0.8485
  547MOL0     C75382   6.803   6.881   7.417  0.1275  0.2652  1.0071
  547MOL0     C75383   6.756   6.879   7.545 -0.0631  0.7445  1.0086
  547MOL0     O75384   6.794   6.785   7.637  0.1043  0.0783 -0.1578
  547MOL0     C75385   6.681   6.712   7.667 -0.1999 -0.0569 -0.0923
  547MOL0     C75386   6.716   6.572   7.640 -0.4591 -0.1546  0.1377
  547MOL0     C75387   6.595   6.472   7.635 -0.4751  0.5909 -0.0879
  547MOL0     C75388   6.623   6.329   7.686  0.2468 -1.0301  0.2175
  547MOL0     C75389   6.636   6.347   7.846 -0.3394  0.9277 -0.4895
  547MOL0     C75390   6.664   6.203   7.914  0.5656  0.3927 -0.0261
  547MOL0     C75391   6.599   6.211   8.054 -1.0007 -0.1225 -0.1020
  547MOL0     C75392   6.639   6.100   8.146 -0.2662  0.7938 -0.6799
  547MOL0    Cl75393   6.543   5.965   8.080  0.2794  0.1716 -0.4217
  547MOL0     C75394   6.685   6.992   7.583 -0.2186 -0.0750 -0.6823
  547MOL0     C75395   6.665   7.102   7.496  0.5039 -0.4355  0.7586
  547MOL0     O75396   6.451   7.185   7.293 -0.7012  0.1598  0.1073
  547MOL0     C75397   6.419   7.426   7.132 -1.1428  0.8502 -0.2034
  547MOL0     C75398   6.405   7.518   7.025 -0.3672 -0.1500  0.3545
  547MOL0     N75399   5.974   7.887   6.417 -0.1952 -0.6775  0.1036
  547MOL0     N75400   5.863   7.949   6.413  1.2144 -0.2306 -0.8240
  547MOL0     C75401   5.437   7.979   7.253 -0.7931 -0.3992  0.6191
  547MOL0     C75402   5.486   7.858   7.286 -0.2852 -0.5987 -0.3524
  547MOL0     C75403   5.698   7.550   7.537  0.8130  0.8437 -0.6460
  547MOL0     C75404   5.654   7.455   7.439 -0.2973  0.4862 -0.1590
  547MOL0     C75405   5.651   7.317   7.454 -0.8482  0.0509 -0.1946
  547MOL0     C75406   5.681   7.275   7.588  0.5916 -0.2101 -0.0728
  547MOL0     O75407   5.680   7.146   7.631 -0.1835  0.4251  0.6496
  547MOL0     C75408   5.650   7.034   7.546  0.2081 -0.1009  1.2336
  547MOL0     C75409   5.493   7.033   7.533 -0.8288  0.2115  0.5448
  547MOL0     C75410   5.427   6.931   7.441  0.2086  1.1322  0.8384
  547MOL0     C75411   5.282   6.881   7.467  0.1646  0.5885  0.6150
  547MOL0     C75412   5.169   6.972   7.469  0.1698 -0.2633 -0.3446
  547MOL0     C75413   5.063   7.037   7.459  0.1347 -0.1259  0.8069
  547MOL0     C75414   5.724   7.359   7.687  0.0637  0.5340  0.3691
  547MOL0     C75415   5.729   7.498   7.667  0.9105  0.7969 -0.8051
  547MOL0     C75416   5.760   7.590   7.794 -0.2060  0.2577  0.9757
  547MOL0     H75417   5.683   7.948   7.548  1.1623  3.1807  0.1141
  547MOL0     H75418   5.618   8.184   7.452 -3.1226  3.3218 -2.7495
  547MOL0     H75419   5.652   8.303   7.301 -1.0942 -5.1563  1.3660
  547MOL0     H75420   5.521   8.421   7.256 -0.6798  0.5338 -4.6582
  547MOL0     H75421   5.680   8.398   7.077 -0.9277  0.6090  0.4936
  547MOL0     H75422   5.658   8.223   7.063 -0.2381  0.7269 -1.8908
  547MOL0     H75423   5.460   8.240   6.975  1.7505 -2.4567  1.9734
  547MOL0     H75424   5.429   8.410   7.012 -0.0636 -1.5893  1.3011
  547MOL0     H75425   5.493   8.419   6.783  2.1519  1.3752 -0.6476
  547MOL0     H75426   5.627   8.480   6.885  0.2969  0.4964  2.2275
  547MOL0     H75427   5.572   8.194   6.798 -0.9989  1.8457 -2.0337
  547MOL0     H75428   5.721   8.233   6.859 -1.2904 -0.5823  2.2435
  547MOL0     H75429   5.612   8.319   6.600  0.1029 -3.2843  0.4879
  547MOL0     H75430   5.738   8.416   6.668 -3.2708  1.1941  0.2356
  547MOL0     H75431   5.888   8.209   6.673  0.8482 -3.1132 -2.6624
  547MOL0     H75432   5.823   8.244   6.508 -3.5415 -0.3505 -1.6764
  547MOL0     H75433   5.709   8.032   6.697  0.3347 -0.5432 -1.1068
  547MOL0     H75434   5.645   8.068   6.539 -0.4045 -3.0293 -0.2518
  547MOL0     H75435   5.953   7.976   6.733  2.5843 -1.4803  0.0873
  547MOL0     H75436   6.219   7.894   6.653 -2.8128  1.0391  0.8923
  547MOL0     H75437   6.249   7.876   6.475 -0.8892 -2.1820 -1.3796
  547MOL0     H75438   6.122   7.645   6.629 -1.2522 -2.5402 -2.1047
  547MOL0     H75439   6.170   7.654   6.466  1.9196 -2.3194  1.0795
  547MOL0     H75440   6.358   7.577   6.543  1.7163 -1.6437  0.5589
  547MOL0     H75441   6.397   7.737   6.592 -0.3157 -0.2579 -0.5344
  547MOL0     H75442   6.277   7.646   6.820 -2.7964 -0.2085 -2.5344
  547MOL0     H75443   6.290   7.490   6.740 -0.1325 -0.0805 -2.2136
  547MOL0     H75444   6.646   7.372   6.820 -1.8637 -4.1364  0.2289
  547MOL0     H75445   6.760   7.196   6.899 -0.6375 -2.7178  1.3227
  547MOL0     H75446   6.719   7.129   7.051  0.0411 -0.5232  0.4348
  547MOL0     H75447   6.814   7.282   7.049 -4.0713  3.1352  3.5164
  547MOL0     H75448   6.813   6.983   7.227 -3.4833 -0.3118 -0.3871
  547MOL0     H75449   6.877   6.810   7.382 -0.5912  0.9525 -2.2190
  547MOL0     H75450   6.664   6.723   7.774  2.0042 -4.9571  1.0326
  547MOL0     H75451   6.593   6.729   7.604  0.3407 -1.2429 -1.2298
  547MOL0     H75452   6.758   6.561   7.540 -2.7239 -3.7581 -0.6062
  547MOL0     H75453   6.798   6.540   7.705 -0.7010  0.2980  0.6842
  547MOL0     H75454   6.556   6.465   7.533 -2.2846 -2.1277  0.7170
  547MOL0     H75455   6.512   6.518   7.689 -1.2520 -2.1567  1.1936
  547MOL0     H75456   6.714   6.283   7.645 -0.8217 -0.3342 -3.2495
  547MOL0     H75457   6.542   6.257   7.676 -0.5810 -0.4330  2.1404
  547MOL0     H75458   6.721   6.410   7.875  0.2115 -0.6961  1.6166
  547MOL0     H75459   6.545   6.399   7.877 -1.0555 -0.3501 -0.3915
  547MOL0     H75460   6.770   6.176   7.909  0.7700  0.6200  2.2718
  547MOL0     H75461   6.610   6.138   7.845  3.8709 -1.2584 -1.2953
  547MOL0     H75462   6.493   6.232   8.042 -0.4632  1.6459 -2.5813
  547MOL0     H75463   6.641   6.299   8.103  3.5873 -1.5384 -0.9571
  547MOL0     H75464   6.623   6.123   8.251 -0.5918  0.3661 -0.6328
  547MOL0     H75465   6.746   6.076   8.141 -0.7144 -1.7656  0.4893
  547MOL0     H75466   6.647   6.996   7.685 -1.6600 -0.4285 -1.1881
  547MOL0     H75467   6.612   7.178   7.552  0.7838  0.5363 -0.2621
  547MOL0     H75468   6.375   7.441   7.231  2.8078 -1.7856  2.2357
  547MOL0     H75469   6.328   7.591   7.050  1.3827  0.3637  5.4808
  547MOL0     H75470   5.367   7.984   7.171 -0.9073 -0.9107  0.6818
  547MOL0     H75471   5.449   7.765   7.243  0.2451 -0.6184 -0.7727
  547MOL0     H75472   5.614   7.491   7.345  0.1558 -2.3977 -1.5645
  547MOL0     H75473   5.617   7.251   7.375  0.7431  1.0921 -1.8309
  547MOL0     H75474   5.702   7.034   7.450 -2.1635 -0.6224 -0.1458
  547MOL0     H75475   5.683   6.939   7.590 -2.5739 -1.2357  1.0899
  547MOL0     H75476   5.459   7.130   7.495  0.2835  0.1749 -0.6331
  547MOL0     H75477   5.450   7.011   7.631 -0.3886 -0.6671  0.5509
  547MOL0     H75478   5.432   6.970   7.339 -0.4384  0.0057  0.3603
  547MOL0     H75479   5.493   6.845   7.426 -1.0675  0.4652 -1.4721
  547MOL0     H75480   5.290   6.840   7.568  1.9796 -2.3232 -0.5833
  547MOL0     H75481   5.254   6.801   7.398 -0.3141  0.5524  0.8415
  547MOL0     H75482   4.968   7.087   7.461 -0.5838 -1.4272  0.1382
  547MOL0     H75483   5.762   7.318   7.780  0.0733 -0.3608 -0.0236
  547MOL0     H75484   5.773   7.549   7.895  0.5041 -0.1036  0.7446
  547MOL0     H75485   5.855   7.634   7.762 -0.4981 -1.2891 -2.4622
  547MOL0     H75486   5.679   7.662   7.802  1.3274  2.2251 -0.3004
  548MOL0     O75487   7.103   0.926   4.556 -0.7950  0.1033  0.6729
  548MOL0     C75488   7.220   0.939   4.530  0.6164 -0.8402  0.1465
  548MOL0     O75489   7.274   0.976   4.409  0.1038 -0.1628 -0.5693
  548MOL0     C75490   7.204   0.953   4.291  0.7592 -0.2157 -1.0259
  548MOL0     C75491   7.260   1.023   4.187  0.3648  0.7944  0.5509
  548MOL0     C75492   7.198   1.010   4.056  0.0129  0.8279  0.3941
  548MOL0     C75493   7.087   0.923   4.031 -0.0359  0.7512 -0.0582
  548MOL0     O75494   7.040   0.887   3.908  0.2655  0.6742 -0.7669
  548MOL0     C75495   7.137   0.848   3.817  0.0528 -0.8845  0.4192
  548MOL0     C75496   7.104   0.754   3.699 -0.7232  0.1952 -0.3227
  548MOL0     C75497   7.239   0.739   3.626  0.5503  0.6739 -0.3771
  548MOL0     C75498   7.207   0.654   3.502 -0.8325  0.0442 -0.3805
  548MOL0     C75499   7.212   0.503   3.530  0.1455  0.0076 -0.5224
  548MOL0     C75500   7.111   0.421   3.450 -0.1171  0.4659 -0.4816
  548MOL0     C75501   7.129   0.265   3.489 -0.3963  0.0673  0.3557
  548MOL0     C75502   7.023   0.183   3.414  0.0080  0.3988  0.3766
  548MOL0     N75503   7.033   0.041   3.446 -0.3073 -0.5635  1.1804
  548MOL0     C75504   7.126  -0.048   3.392  0.1576 -0.4070 -1.2446
  548MOL0     C75505   7.099  -0.161   3.460  0.5429  0.4588 -0.3874
  548MOL0     C75506   7.170  -0.292   3.489  0.3040 -1.0953 -0.0766
  548MOL0     C75507   7.242  -0.295   3.627 -0.5182 -0.2388 -0.5595
  548MOL0     C75508   7.146  -0.310   3.760  0.5451 -0.1254  0.1672
  548MOL0     C75509   7.238  -0.344   3.885  0.1126 -0.2664 -0.1692
  548MOL0     O75510   7.318  -0.223   3.918 -0.8042 -0.0633  0.5179
  548MOL0     C75511   7.292  -0.136   4.016  0.2755 -0.1704 -1.0763
  548MOL0     C75512   7.174  -0.111   4.082 -0.7940 -0.3792 -0.3697
  548MOL0     C75513   7.174  -0.038   4.199 -0.4176  0.2435 -0.6344
  548MOL0     C75514   7.051  -0.021   4.284 -0.0010  0.2128  0.5957
  548MOL0     C75515   7.292   0.026   4.244  0.2490 -0.5585 -0.0030
  548MOL0     C75516   7.319   0.084   4.379 -0.8063 -0.0624 -0.2419
  548MOL0     O75517   7.408   0.192   4.386 -0.0962  0.7853  0.2223
  548MOL0     C75518   7.439   0.253   4.507  0.7178 -1.0204  0.5289
  548MOL0     C75519   7.476   0.387   4.490 -0.1418  1.2346  0.0659
  548MOL0     C75520   7.509   0.464   4.592  0.7930 -0.9129 -1.0914
  548MOL0     C75521   7.527   0.411   4.722 -0.1871 -0.3250  0.1770
  548MOL0     O75522   7.590   0.473   4.827 -0.1941 -0.2051  0.4157
  548MOL0     C75523   7.684   0.581   4.791 -0.5279  0.3151 -0.2264
  548MOL0     C75524   7.767   0.616   4.901  0.6376  0.2831 -0.4675
  548MOL0     C75525   7.856   0.496   4.942 -0.2884 -0.4874 -1.2766
  548MOL0     C75526   7.870   0.479   5.095 -0.1145  0.5041 -0.1804
  548MOL0     C75527   7.979   0.367   5.118  1.4994  0.6186  0.8922
  548MOL0     C75528   7.932   0.224   5.095  0.7449  0.5566  0.0715
  548MOL0     C75529   7.839   0.161   5.201  0.3278  0.4602  0.7013
  548MOL0     C75530   7.901   0.026   5.260  0.7196  0.0693  0.4451
  548MOL0    Cl75531   7.773  -0.030   5.369  0.5790  0.1335 -0.1971
  548MOL0     C75532   7.483   0.282   4.743  0.1492 -0.4073 -0.3917
  548MOL0     C75533   7.433   0.206   4.637 -1.0776 -0.3511  0.2210
  548MOL0     O75534   7.271   0.028   4.483 -0.2227  0.1344 -0.4737
  548MOL0     C75535   7.406   0.016   4.171  0.0510  0.2728  0.7380
  548MOL0     C75536   7.404  -0.069   4.060 -0.3884  0.0109 -0.3307
  548MOL0     N75537   6.987  -0.144   3.540 -0.2369  0.5115  0.3860
  548MOL0     N75538   6.945  -0.030   3.523 -0.2115 -0.0995  0.1958
  548MOL0     C75539   7.024   0.862   4.147  0.1415 -0.4196  0.2401
  548MOL0     C75540   7.082   0.874   4.271  0.5335 -0.7415 -0.4614
  548MOL0     C75541   7.315   0.923   4.649  0.8715 -0.3820 -0.2773
  548MOL0     C75542   7.400   1.034   4.677  0.4117 -0.7338 -0.1842
  548MOL0     C75543   7.493   1.029   4.792 -0.4966  0.3080  0.9935
  548MOL0     C75544   7.491   0.911   4.869 -0.8901  0.1520 -0.1746
  548MOL0     O75545   7.580   0.885   4.967 -0.2922  0.4004  0.3541
  548MOL0     C75546   7.662   0.989   5.025  0.5238 -0.5600 -0.4148
  548MOL0     C75547   7.699   0.957   5.175  0.0998  0.8084  0.3321
  548MOL0     C75548   7.746   1.080   5.236 -0.8567 -0.2718 -0.8210
  548MOL0     C75549   7.762   1.071   5.392 -0.5347 -1.0264 -0.2565
  548MOL0     C75550   7.819   1.202   5.446 -0.5724  0.0851 -0.1811
  548MOL0     C75551   7.852   1.310   5.483 -0.4656  1.2145 -0.4360
  548MOL0     C75552   7.417   0.803   4.836 -0.3084 -0.4668 -0.2616
  548MOL0     C75553   7.320   0.804   4.724 -0.1386 -0.7443 -0.2820
  548MOL0     C75554   7.222   0.696   4.703 -0.2619  0.4875 -0.5176
  548MOL0     H75555   7.347   1.087   4.193  0.7248  0.6443 -2.0309
  548MOL0     H75556   7.214   1.081   3.976  0.7989  0.3934  0.1439
  548MOL0     H75557   7.229   0.812   3.864  0.9175  1.3580  0.5786
  548MOL0     H75558   7.172   0.946   3.782 -1.8119  0.5910  2.3519
  548MOL0     H75559   7.086   0.655   3.741 -1.4583  0.8177  0.8687
  548MOL0     H75560   7.020   0.791   3.640  1.5403  3.7926 -1.6245
  548MOL0     H75561   7.277   0.841   3.608  1.9712  0.2520  0.0772
  548MOL0     H75562   7.304   0.677   3.689 -1.9602  0.4146  2.1296
  548MOL0     H75563   7.115   0.696   3.460 -0.8831 -0.6166 -0.9342
  548MOL0     H75564   7.280   0.678   3.425 -0.4515 -1.1653 -0.4040
  548MOL0     H75565   7.198   0.483   3.637 -1.0638  5.0532  0.5000
  548MOL0     H75566   7.314   0.468   3.509 -0.2461 -1.5029 -0.0609
  548MOL0     H75567   7.014   0.454   3.487 -0.4430 -0.3971 -0.5391
  548MOL0     H75568   7.125   0.447   3.345  2.1398  2.8547  0.3112
  548MOL0     H75569   7.117   0.263   3.597 -1.1593 -3.1409  0.3115
  548MOL0     H75570   7.221   0.213   3.461 -1.3597 -1.4427 -0.1601
  548MOL0     H75571   6.933   0.239   3.441 -0.0511  1.8987 -2.5694
  548MOL0     H75572   7.036   0.189   3.306  1.2533 -5.5203 -0.1553
  548MOL0     H75573   7.195  -0.039   3.309  1.3345  2.6990 -0.0911
  548MOL0     H75574   7.245  -0.302   3.410  0.5373  0.9311 -0.1729
  548MOL0     H75575   7.103  -0.378   3.481 -0.4321 -0.3980 -2.1146
  548MOL0     H75576   7.317  -0.375   3.627  1.0624  1.0151 -4.3127
  548MOL0     H75577   7.307  -0.210   3.648 -0.7810 -0.4547  1.3768
  548MOL0     H75578   7.094  -0.216   3.775 -0.0522  0.2017 -3.1937
  548MOL0     H75579   7.077  -0.393   3.745  1.5227 -0.6761 -1.5397
  548MOL0     H75580   7.169  -0.366   3.968 -2.6832 -1.7873 -2.6772
  548MOL0     H75581   7.305  -0.427   3.861 -0.9104 -1.5251  1.0981
  548MOL0     H75582   7.084  -0.164   4.052  0.2560 -3.1927  1.0884
  548MOL0     H75583   7.027   0.084   4.300 -2.0609 -0.0130 -0.7248
  548MOL0     H75584   7.065  -0.069   4.382  1.5795  1.8686  1.2415
  548MOL0     H75585   6.964  -0.064   4.235 -0.2512  0.4254  0.8463
  548MOL0     H75586   7.463   0.422   4.389  0.0693 -2.4816 -1.3973
  548MOL0     H75587   7.535   0.568   4.571  1.2158 -0.7344  0.2185
  548MOL0     H75588   7.763   0.558   4.719  1.7738 -2.8060  2.9636
  548MOL0     H75589   7.632   0.669   4.751  2.3644  1.5900 -1.4740
  548MOL0     H75590   7.830   0.701   4.873  2.6096 -1.0667 -0.3327
  548MOL0     H75591   7.697   0.638   4.982 -2.3606 -0.1671 -2.7536
  548MOL0     H75592   7.957   0.527   4.913 -0.4983  0.2173 -1.2866
  548MOL0     H75593   7.830   0.399   4.899  4.4914 -3.1019  0.9825
  548MOL0     H75594   7.775   0.454   5.143  0.3015  3.4318  2.5643
  548MOL0     H75595   7.911   0.572   5.136 -0.0504  2.0892 -3.4867
  548MOL0     H75596   8.061   0.398   5.053  2.1006 -2.7284 -0.1407
  548MOL0     H75597   8.005   0.356   5.224  1.3688 -1.8831  0.7258
  548MOL0     H75598   8.018   0.158   5.085 -0.4536 -1.0451 -0.1600
  548MOL0     H75599   7.875   0.211   5.002  2.2645 -1.7371 -0.6245
  548MOL0     H75600   7.747   0.125   5.153  0.1656  0.9731  0.6284
  548MOL0     H75601   7.816   0.230   5.282 -0.4187  0.6806  0.3108
  548MOL0     H75602   7.997   0.060   5.302  1.5044 -0.2551 -0.9989
  548MOL0     H75603   7.921  -0.051   5.185 -0.5302 -0.2758  0.4462
  548MOL0     H75604   7.483   0.229   4.838  0.6828  1.4165  0.6697
  548MOL0     H75605   7.403   0.104   4.657  1.4409 -1.7781 -2.5112
  548MOL0     H75606   7.506   0.047   4.198  2.3922 -4.0931 -1.6944
  548MOL0     H75607   7.492  -0.073   3.997 -0.6115  0.2812 -0.6598
  548MOL0     H75608   6.934   0.801   4.140 -2.3224  2.9788 -0.5342
  548MOL0     H75609   7.033   0.826   4.355  2.2500 -0.9986  0.4322
  548MOL0     H75610   7.386   1.132   4.633 -0.2373  0.4220  2.3971
  548MOL0     H75611   7.571   1.104   4.801  0.0450 -0.0026 -0.8454
  548MOL0     H75612   7.755   1.003   4.970  0.3655 -1.9754 -1.0576
  548MOL0     H75613   7.606   1.083   5.019 -0.7843 -0.9920  2.6898
  548MOL0     H75614   7.777   0.880   5.177 -0.3508  0.3600  1.9382
  548MOL0     H75615   7.618   0.918   5.236  0.2125 -1.4694 -0.8744
  548MOL0     H75616   7.845   1.107   5.199 -0.4128 -0.4887  0.1656
  548MOL0     H75617   7.676   1.164   5.227 -1.4109 -0.2422  2.2929
  548MOL0     H75618   7.825   0.986   5.423  0.3872  1.1067  4.7615
  548MOL0     H75619   7.668   1.058   5.446  0.5820  2.0735  2.8744
  548MOL0     H75620   7.889   1.404   5.520 -0.4180  0.4620  1.4896
  548MOL0     H75621   7.431   0.716   4.899 -2.2191  0.1482  1.1121
  548MOL0     H75622   7.216   0.662   4.599  0.0368 -0.8337 -0.1219
  548MOL0     H75623   7.258   0.609   4.758  2.8367  1.0071 -1.5486
  548MOL0     H75624   7.120   0.719   4.737  0.5711  0.3746  2.2465
  549MOL0     O75625   7.933   4.865   5.263  0.5409  1.0124 -0.0087
  549MOL0     C75626   7.819   4.912   5.257  0.3216 -0.0174  0.2830
  549MOL0     O75627   7.780   5.009   5.173 -0.4092 -1.1438 -0.5760
  549MOL0     C75628   7.879   5.074   5.101 -0.1897  0.5852  0.3575
  549MOL0     C75629   7.897   5.031   4.968  0.7237 -0.6519 -0.4754
  549MOL0     C75630   7.990   5.088   4.887 -0.6259 -0.7498 -0.3907
  549MOL0     C75631   8.086   5.179   4.943 -0.1003 -0.0877 -0.6877
  549MOL0     O75632   8.179   5.246   4.866  0.6040 -0.2221 -0.7196
  549MOL0     C75633   8.307   5.206   4.910 -0.0792  0.3561  0.4329
  549MOL0     C75634   8.391   5.177   4.781  0.4824  0.4000 -0.3529
  549MOL0     C75635   8.530   5.146   4.828 -0.3128 -0.0747  0.3066
  549MOL0     C75636   8.616   5.274   4.814  0.7152  0.2258  0.2805
  549MOL0     C75637   8.753   5.248   4.868 -0.1320  0.2854 -0.0494
  549MOL0     C75638   8.849   5.368   4.898 -0.3669  0.3238  0.0905
  549MOL0     C75639   8.885   5.448   4.776 -0.0847  0.2419 -0.8447
  549MOL0     C75640   8.984   5.365   4.686 -0.6145 -0.2383 -0.0339
  549MOL0     N75641   9.096   5.455   4.655 -0.9184  0.3489 -0.7371
  549MOL0     C75642   9.098   5.555   4.555 -0.2105  0.6634  0.1396
  549MOL0     C75643   9.229   5.588   4.554 -0.2417  0.4345  0.7049
  549MOL0     C75644   9.283   5.696   4.466 -0.1792  0.2438 -0.2978
  549MOL0     C75645   9.439   5.682   4.455 -0.3484  0.3476  0.2651
  549MOL0     C75646   9.522   5.794   4.388  0.7482  0.0907 -0.5491
  549MOL0     C75647   9.478   5.804   4.241  0.0002 -0.0039  0.0675
  549MOL0     O75648   9.543   5.715   4.148  0.1586 -0.5144 -0.3321
  549MOL0     C75649   9.587   5.754   4.024 -0.0204 -0.2067 -0.7150
  549MOL0     C75650   9.670   5.667   3.974 -0.0720  0.5047  0.1648
  549MOL0     C75651   9.738   5.688   3.854  0.2082 -0.6711 -0.1938
  549MOL0     C75652   9.808   5.560   3.793 -0.1183  0.6147  0.3391
  549MOL0     C75653   9.715   5.812   3.788 -0.4177  0.7132  0.0115
  549MOL0     C75654   9.775   5.842   3.656 -1.1026  0.3040 -0.4256
  549MOL0     O75655   9.699   5.887   3.555  0.6088 -0.6425  1.6697
  549MOL0     C75656   9.755   5.906   3.437  0.9809 -0.8744 -0.1626
  549MOL0     C75657   9.797   5.797   3.363 -0.1835  0.3949  0.0853
  549MOL0     C75658   9.864   5.811   3.245  0.6858  0.4428  0.0051
  549MOL0     C75659   9.885   5.938   3.198  0.6901  0.4214 -0.3996
  549MOL0     O75660   9.943   5.955   3.071  0.4802  0.8805  0.4376
  549MOL0     C75661  10.018   5.845   3.021  0.0204  0.7086  0.6313
  549MOL0     C75662  10.137   5.905   2.946  0.9080  0.2360  0.5796
  549MOL0     C75663  10.093   5.967   2.812  0.3148  0.7324  0.5164
  549MOL0     C75664  10.086   5.868   2.690 -0.3735  1.3029 -1.0836
  549MOL0     C75665  10.080   5.926   2.552  0.6569 -0.1793  0.5526
  549MOL0     C75666  10.102   5.815   2.449  0.1017 -0.4998  0.2885
  549MOL0     C75667  10.089   5.890   2.319  0.5695 -0.4365  0.4552
  549MOL0     C75668  10.190   5.850   2.210  0.9520 -0.3460 -1.4473
  549MOL0    Cl75669  10.337   5.933   2.237 -0.0359  0.2049  0.6014
  549MOL0     C75670   9.834   6.050   3.274 -0.1153  0.2186  0.8078
  549MOL0     C75671   9.779   6.037   3.391  0.5960  0.3979 -1.4966
  549MOL0     O75672   9.896   5.820   3.653 -0.1460 -0.5563 -0.1641
  549MOL0     C75673   9.631   5.904   3.850 -0.1177 -0.1016 -0.0314
  549MOL0     C75674   9.567   5.875   3.964  0.2647  0.7744  0.0080
  549MOL0     N75675   9.294   5.509   4.655  0.5770  0.4382 -0.8164
  549MOL0     N75676   9.214   5.436   4.713 -0.2882  0.1084  0.4221
  549MOL0     C75677   8.076   5.225   5.082  0.0942 -1.0833 -0.6996
  549MOL0     C75678   7.961   5.171   5.157 -0.5563  0.0029 -0.6476
  549MOL0     C75679   7.726   4.893   5.368 -0.6401  0.1160 -0.5583
  549MOL0     C75680   7.681   5.002   5.452  0.0719  0.6475  0.8856
  549MOL0     C75681   7.603   4.976   5.561  0.5037  0.4349 -1.1265
  549MOL0     C75682   7.555   4.849   5.593 -0.5146 -0.0332 -0.2171
  549MOL0     O75683   7.475   4.810   5.699  0.0709 -0.1344 -0.4569
  549MOL0     C75684   7.411   4.924   5.778  0.1020  0.0083  0.6267
  549MOL0     C75685   7.346   4.857   5.900 -0.5752  0.1166 -0.0520
  549MOL0     C75686   7.261   4.733   5.857 -0.7049 -0.2514 -1.2442
  549MOL0     C75687   7.136   4.722   5.939 -0.2597 -0.5317 -0.7701
  549MOL0     C75688   7.181   4.681   6.075  0.2326  0.2116  0.6450
  549MOL0     C75689   7.217   4.647   6.187 -0.4624 -0.4008 -0.4344
  549MOL0     C75690   7.596   4.737   5.512  0.2620 -0.6075 -1.2772
  549MOL0     C75691   7.683   4.760   5.400 -0.3075  0.7890  0.3452
  549MOL0     C75692   7.720   4.654   5.304  0.5419  0.1945  0.1857
  549MOL0     H75693   7.830   4.956   4.927 -1.8415  0.8102  0.8040
  549MOL0     H75694   8.006   5.065   4.782  3.2351  1.8447 -0.5600
  549MOL0     H75695   8.300   5.111   4.963  0.7861  0.1797  0.2422
  549MOL0     H75696   8.376   5.274   4.961  2.9608 -2.0887 -0.1408
  549MOL0     H75697   8.350   5.105   4.710  0.4341  3.0205 -3.1929
  549MOL0     H75698   8.382   5.262   4.713  0.3144  1.1688  0.6114
  549MOL0     H75699   8.525   5.114   4.932  0.3805  1.1288  0.7270
  549MOL0     H75700   8.581   5.059   4.785  0.5342  0.2282  0.6780
  549MOL0     H75701   8.627   5.306   4.710 -0.3970  1.5004  0.5211
  549MOL0     H75702   8.568   5.362   4.857 -0.8187 -0.0098 -0.8679
  549MOL0     H75703   8.792   5.173   4.799 -1.3284 -1.2936  0.9085
  549MOL0     H75704   8.731   5.203   4.965 -0.2292  3.3762  1.4797
  549MOL0     H75705   8.810   5.427   4.981 -0.5020 -0.3786  0.5304
  549MOL0     H75706   8.942   5.322   4.934 -0.5938 -0.6675 -0.5706
  549MOL0     H75707   8.954   5.523   4.816  2.9655 -1.2306 -2.9402
  549MOL0     H75708   8.802   5.497   4.725 -0.7092  0.6556  0.5058
  549MOL0     H75709   9.017   5.270   4.728 -0.7764 -0.1692  0.2510
  549MOL0     H75710   8.930   5.344   4.593  0.9623  0.3414 -1.1286
  549MOL0     H75711   9.014   5.584   4.493  0.2495 -3.4484 -2.7970
  549MOL0     H75712   9.248   5.790   4.511 -0.0123 -0.8542  2.3534
  549MOL0     H75713   9.240   5.687   4.366 -0.7553  0.6869 -0.0990
  549MOL0     H75714   9.478   5.672   4.557 -1.0206  0.6525  0.5623
  549MOL0     H75715   9.464   5.588   4.407  4.3032  0.2782  2.3577
  549MOL0     H75716   9.494   5.887   4.438 -2.0258 -0.1219 -1.4984
  549MOL0     H75717   9.630   5.776   4.388  0.2156 -4.4116 -0.8162
  549MOL0     H75718   9.372   5.778   4.234 -0.0662 -0.8565  3.0390
  549MOL0     H75719   9.484   5.909   4.210  0.0948  0.0434  0.2444
  549MOL0     H75720   9.698   5.575   4.024  0.3632  0.7723  0.4172
  549MOL0     H75721   9.725   5.492   3.769  2.1952 -2.0518 -0.7457
  549MOL0     H75722   9.868   5.504   3.866 -0.5009  0.3641  0.4635
  549MOL0     H75723   9.863   5.572   3.700 -0.4495  0.2481  0.0906
  549MOL0     H75724   9.791   5.702   3.414  0.9917 -0.5499 -1.4657
  549MOL0     H75725   9.888   5.718   3.195  2.7415  0.4033  0.9946
  549MOL0     H75726  10.071   5.783   3.093  3.4444  2.4629 -0.1607
  549MOL0     H75727   9.969   5.773   2.955 -0.3125  1.5521 -0.0636
  549MOL0     H75728  10.186   5.981   3.008  3.4962  1.9979 -3.1809
  549MOL0     H75729  10.208   5.822   2.936 -2.6902 -3.2519  1.5457
  549MOL0     H75730  10.161   6.052   2.794  1.3751  0.2978  2.1844
  549MOL0     H75731   9.995   6.011   2.829 -0.7462  0.2565 -3.4490
  549MOL0     H75732  10.006   5.795   2.701  2.5325 -1.9328  0.5711
  549MOL0     H75733  10.166   5.794   2.701 -0.2510  1.4811 -0.7452
  549MOL0     H75734   9.982   5.969   2.530  1.4637  1.1814 -0.5622
  549MOL0     H75735  10.156   6.003   2.534  1.4719 -1.4295 -1.7534
  549MOL0     H75736  10.033   5.730   2.451 -1.6465  0.7543 -1.6378
  549MOL0     H75737  10.201   5.769   2.456  0.2194 -0.4435 -0.8784
  549MOL0     H75738  10.097   5.998   2.335 -4.6377 -0.0903  2.4670
  549MOL0     H75739   9.987   5.866   2.290  0.4622 -0.4815  0.8607
  549MOL0     H75740  10.146   5.875   2.113 -4.4441 -0.3248  0.6652
  549MOL0     H75741  10.217   5.744   2.212 -1.0973 -0.8953 -0.2643
  549MOL0     H75742   9.850   6.150   3.235  1.0334 -0.2074  0.1521
  549MOL0     H75743   9.734   6.115   3.452  1.8063  0.0158 -0.0309
  549MOL0     H75744   9.619   6.007   3.818 -0.9193  0.5242  2.1248
  549MOL0     H75745   9.493   5.940   4.011 -2.0369 -2.2190  0.8125
  549MOL0     H75746   8.154   5.285   5.128  0.1316  1.3913 -3.6482
  549MOL0     H75747   7.954   5.195   5.262  4.0585  0.2174 -0.1841
  549MOL0     H75748   7.721   5.102   5.439  2.1347 -0.4933 -3.5462
  549MOL0     H75749   7.574   5.068   5.612  1.8033 -0.1805  0.8015
  549MOL0     H75750   7.490   4.994   5.809  1.9890 -2.5197  1.9128
  549MOL0     H75751   7.337   4.971   5.713  0.8926 -2.0085 -1.8850
  549MOL0     H75752   7.277   4.927   5.949  0.6541  1.5483 -0.2920
  549MOL0     H75753   7.432   4.833   5.964  0.5245  1.8488 -0.7675
  549MOL0     H75754   7.224   4.749   5.755  0.5326  3.2879 -1.2765
  549MOL0     H75755   7.318   4.640   5.846 -0.4087 -0.2779  0.2593
  549MOL0     H75756   7.071   4.643   5.899  0.7779 -1.7578 -0.1245
  549MOL0     H75757   7.079   4.815   5.928 -1.7943 -1.2259  0.8049
  549MOL0     H75758   7.258   4.628   6.284  0.3497  1.2449 -0.4250
  549MOL0     H75759   7.570   4.639   5.550  2.7256 -1.4898 -1.7002
  549MOL0     H75760   7.829   4.644   5.309  0.4270 -1.0770  0.4160
  549MOL0     H75761   7.678   4.557   5.329 -3.2185  1.2045 -1.5276
  549MOL0     H75762   7.687   4.688   5.205  0.6887  0.8240  0.3458
  550MOL0     O75763   5.031   5.805   5.727  0.6116  0.5698 -0.3231
  550MOL0     C75764   4.957   5.806   5.829  0.4728 -0.8923 -0.4635
  550MOL0     O75765   4.982   5.871   5.953  0.2975 -0.0072 -0.6916
  550MOL0     C75766   5.094   5.953   5.972  0.7282  0.1525 -0.8879
  550MOL0     C75767   5.168   6.022   5.879 -1.1600  0.3364 -0.5955
  550MOL0     C75768   5.269   6.111   5.901 -0.0395  0.2894 -0.4338
  550MOL0     C75769   5.323   6.114   6.038 -0.2045 -0.0492  1.5325
  550MOL0     O75770   5.444   6.181   6.070  0.2101 -0.1354  0.0932
  550MOL0     C75771   5.457   6.310   6.014  0.0303 -0.2994  0.0021
  550MOL0     C75772   5.552   6.404   6.081  0.7331  0.2345  0.1552
  550MOL0     C75773   5.702   6.358   6.089  0.4745  0.0683  0.3487
  550MOL0     C75774   5.774   6.342   5.952 -0.5375 -1.1016  0.3497
  550MOL0     C75775   5.922   6.319   5.955 -1.0241  1.9276 -0.6004
  550MOL0     C75776   5.975   6.265   5.821  0.0625  1.2239  0.3229
  550MOL0     C75777   6.126   6.254   5.800  0.0736 -0.5108 -0.0755
  550MOL0     C75778   6.196   6.126   5.856  0.3489 -0.3252 -0.2417
  550MOL0     N75779   6.333   6.104   5.817 -0.0636  0.2355 -0.5870
  550MOL0     C75780   6.440   6.183   5.847  0.8442 -0.2887  0.2248
  550MOL0     C75781   6.545   6.134   5.768  0.2506  0.0917 -0.5729
  550MOL0     C75782   6.683   6.202   5.787  0.0770  0.1892 -0.0324
  550MOL0     C75783   6.765   6.230   5.663  0.3860  0.0360 -0.5202
  550MOL0     C75784   6.691   6.319   5.563  0.2419 -0.6875  0.9275
  550MOL0     C75785   6.780   6.317   5.441  0.0500 -0.5128  0.0631
  550MOL0     O75786   6.731   6.410   5.343  0.3462  0.1307 -0.7252
  550MOL0     C75787   6.688   6.353   5.235  0.2314 -0.0040  0.9779
  550MOL0     C75788   6.561   6.277   5.234 -0.5125  0.5892 -0.3639
  550MOL0     C75789   6.520   6.213   5.112  0.1547 -0.1574 -0.2791
  550MOL0     C75790   6.389   6.147   5.117 -0.2593  1.0563  1.0151
  550MOL0     C75791   6.598   6.227   4.992  0.3853  0.1294 -0.3401
  550MOL0     C75792   6.558   6.173   4.855  0.7483  0.3612  0.9197
  550MOL0     O75793   6.649   6.200   4.755  0.1932 -0.7020 -0.2903
  550MOL0     C75794   6.647   6.128   4.644 -0.0301 -0.2725  1.0540
  550MOL0     C75795   6.771   6.081   4.594 -0.1192  0.1675 -0.9652
  550MOL0     C75796   6.781   6.009   4.478  0.4617  0.2528  0.1240
  550MOL0     C75797   6.666   5.994   4.392 -0.1120  0.9735 -0.2156
  550MOL0     O75798   6.680   5.914   4.275  0.0453 -0.2404 -0.2778
  550MOL0     C75799   6.572   5.856   4.199  0.3081 -0.2999  0.8282
  550MOL0     C75800   6.608   5.800   4.060 -0.5277  0.0732 -0.3892
  550MOL0     C75801   6.731   5.869   3.992 -0.2195 -0.4689 -0.2141
  550MOL0     C75802   6.773   5.797   3.865  1.7069 -0.6856  0.2269
  550MOL0     C75803   6.903   5.849   3.802 -0.6827  0.3124 -0.7772
  550MOL0     C75804   6.914   5.790   3.667 -0.0713  0.8337  0.3471
  550MOL0     C75805   7.039   5.837   3.600 -0.1855 -0.4258  0.2741
  550MOL0     C75806   7.085   5.724   3.502  0.3963 -0.4527  0.1750
  550MOL0    Cl75807   7.014   5.736   3.346  0.4646  0.1571 -0.0061
  550MOL0     C75808   6.550   6.051   4.427 -0.1049 -0.6094  0.1533
  550MOL0     C75809   6.543   6.121   4.550 -0.5266  0.1494  0.6625
  550MOL0     O75810   6.462   6.101   4.841 -0.5456  0.4036  0.6256
  550MOL0     C75811   6.720   6.291   5.002 -0.0196  0.4041 -0.4300
  550MOL0     C75812   6.763   6.350   5.116  0.0082 -0.9422  0.9166
  550MOL0     N75813   6.501   6.026   5.698  0.4005 -0.0357 -0.4091
  550MOL0     N75814   6.375   6.010   5.726  0.8056 -0.1514  0.2697
  550MOL0     C75815   5.259   6.045   6.142  0.6828  0.1735  0.9178
  550MOL0     C75816   5.141   5.966   6.106  0.2670  1.2644  1.2662
  550MOL0     C75817   4.817   5.731   5.823 -0.4119  0.8291 -0.0829
  550MOL0     C75818   4.746   5.712   5.943  0.3811 -1.5334 -0.4270
  550MOL0     C75819   4.624   5.650   5.947 -0.2512 -0.3533  0.0345
  550MOL0     C75820   4.560   5.607   5.836  0.4047 -0.2124  0.1737
  550MOL0     O75821   4.451   5.537   5.867 -0.4725  0.1347  0.6047
  550MOL0     C75822   4.371   5.473   5.764  0.6949 -0.6408 -0.4752
  550MOL0     C75823   4.261   5.403   5.831 -0.2471 -0.9519 -0.1970
  550MOL0     C75824   4.163   5.334   5.738 -0.0589  0.3715  0.1942
  550MOL0     C75825   4.076   5.437   5.663  0.3938 -0.1343 -0.6142
  550MOL0     C75826   3.985   5.510   5.768 -0.2263  0.2070 -1.1011
  550MOL0     C75827   3.891   5.556   5.828  0.1200  0.6734  1.2264
  550MOL0     C75828   4.627   5.614   5.711  0.1188 -0.8221  1.1382
  550MOL0     C75829   4.755   5.676   5.710 -0.1705  0.2689  0.2803
  550MOL0     C75830   4.831   5.694   5.582  0.8403  0.0831  0.2165
  550MOL0     H75831   5.148   6.010   5.773  0.4583  3.1594 -1.3506
  550MOL0     H75832   5.327   6.156   5.821  0.6392  2.2747  1.0695
  550MOL0     H75833   5.360   6.356   6.032 -1.4122 -3.5745  1.4185
  550MOL0     H75834   5.478   6.312   5.906 -1.5279  1.1659 -0.3138
  550MOL0     H75835   5.546   6.500   6.027  1.9311  1.3002  1.8257
  550MOL0     H75836   5.503   6.402   6.179  1.0275 -3.4954  0.3469
  550MOL0     H75837   5.758   6.430   6.149 -1.4715 -0.3294  2.8308
  550MOL0     H75838   5.703   6.272   6.156 -1.0646  0.5000  0.9679
  550MOL0     H75839   5.723   6.253   5.913 -1.7138 -0.1000 -0.4633
  550MOL0     H75840   5.754   6.429   5.889 -1.7021 -0.5166  1.4920
  550MOL0     H75841   5.933   6.243   6.032 -1.3041  0.2778 -2.1152
  550MOL0     H75842   5.984   6.404   5.986  1.7864 -0.7355  1.7349
  550MOL0     H75843   5.924   6.168   5.822  0.9968  0.7149  0.0659
  550MOL0     H75844   5.927   6.327   5.746  1.9218  1.6409 -0.5862
  550MOL0     H75845   6.181   6.342   5.835  0.2405  0.0904 -1.7523
  550MOL0     H75846   6.134   6.248   5.691  1.4906 -3.7265  0.0854
  550MOL0     H75847   6.189   6.138   5.964  2.4094 -2.6114  0.2286
  550MOL0     H75848   6.154   6.033   5.817  3.8810 -1.7150 -1.1789
  550MOL0     H75849   6.446   6.270   5.911  0.7837  0.2449 -0.4850
  550MOL0     H75850   6.747   6.145   5.855  2.5745  1.6589 -1.0312
  550MOL0     H75851   6.672   6.296   5.841 -2.7603  0.4140 -0.8168
  550MOL0     H75852   6.868   6.260   5.682  0.6802 -0.2459 -1.5603
  550MOL0     H75853   6.787   6.131   5.622 -1.2100 -0.3179 -0.6014
  550MOL0     H75854   6.595   6.267   5.553  0.0159 -0.8377  3.2310
  550MOL0     H75855   6.673   6.424   5.589  1.8121  0.2103 -1.2788
  550MOL0     H75856   6.884   6.337   5.469 -0.0950 -1.2639  1.1902
  550MOL0     H75857   6.789   6.218   5.396  1.2871 -0.9954  1.2925
  550MOL0     H75858   6.504   6.277   5.326  1.2400 -0.3705  0.7675
  550MOL0     H75859   6.323   6.194   5.043  0.7275  1.0085  0.0869
  550MOL0     H75860   6.356   6.156   5.221  1.9833  1.0264  1.7770
  550MOL0     H75861   6.398   6.043   5.086 -1.7809  1.2499 -0.1940
  550MOL0     H75862   6.861   6.083   4.655  0.0003 -0.4151 -1.1087
  550MOL0     H75863   6.875   5.960   4.452 -0.0972  0.7744 -3.4185
  550MOL0     H75864   6.536   5.772   4.259  0.6449  1.4270  3.6528
  550MOL0     H75865   6.490   5.928   4.195  1.7571  1.5862  2.8990
  550MOL0     H75866   6.635   5.694   4.069 -2.1932 -0.6156 -2.6175
  550MOL0     H75867   6.512   5.806   4.008 -1.5986  3.0440  1.6740
  550MOL0     H75868   6.813   5.893   4.059 -0.2021 -0.3081 -0.2915
  550MOL0     H75869   6.706   5.968   3.951  2.0897 -0.5493 -2.0185
  550MOL0     H75870   6.690   5.817   3.797  0.8508  0.5284  1.5777
  550MOL0     H75871   6.766   5.688   3.878 -1.5079 -0.8856 -2.1366
  550MOL0     H75872   6.907   5.957   3.786  0.3023  0.5964  1.0407
  550MOL0     H75873   6.989   5.833   3.868 -0.1327 -3.8857 -2.2040
  550MOL0     H75874   6.827   5.819   3.608  1.5720  3.7104 -0.8394
  550MOL0     H75875   6.919   5.685   3.697  0.0857  1.3578  2.3192
  550MOL0     H75876   7.122   5.850   3.671  0.8712  2.9650 -1.3945
  550MOL0     H75877   7.006   5.925   3.545 -2.0179  0.1607  2.1903
  550MOL0     H75878   7.067   5.624   3.541 -3.3617 -0.5014 -1.2760
  550MOL0     H75879   7.194   5.737   3.498  0.8152 -3.1953  0.6764
  550MOL0     H75880   6.467   6.053   4.357 -1.4393  4.0335  1.5138
  550MOL0     H75881   6.451   6.169   4.583 -0.2908 -0.1083  1.7391
  550MOL0     H75882   6.785   6.294   4.915 -3.6615  1.2919 -3.4300
  550MOL0     H75883   6.861   6.392   5.100 -0.1398 -1.7319 -3.1774
  550MOL0     H75884   5.297   6.057   6.243  0.4180 -0.9659  1.1727
  550MOL0     H75885   5.080   5.913   6.177 -0.3511  0.7031  0.3363
  550MOL0     H75886   4.795   5.744   6.035  1.8683 -3.0099 -0.6525
  550MOL0     H75887   4.578   5.635   6.044  1.3373 -3.3507  0.4287
  550MOL0     H75888   4.325   5.557   5.711 -0.0984 -0.9586 -0.3082
  550MOL0     H75889   4.428   5.403   5.703 -0.2928 -1.7800 -0.1237
  550MOL0     H75890   4.217   5.471   5.903 -0.4459 -0.9684 -0.3020
  550MOL0     H75891   4.288   5.317   5.894  0.3237 -1.4754 -1.1324
  550MOL0     H75892   4.225   5.277   5.668  2.0888 -0.3002  2.5080
  550MOL0     H75893   4.096   5.264   5.788  0.2796 -0.2250 -0.1696
  550MOL0     H75894   4.005   5.381   5.601  0.4447 -1.1226  0.1885
  550MOL0     H75895   4.140   5.504   5.605  2.7627 -1.7960 -0.0876
  550MOL0     H75896   3.806   5.604   5.874 -1.1743  0.7544 -1.1129
  550MOL0     H75897   4.568   5.587   5.624 -0.9659  4.0975  0.0360
  550MOL0     H75898   4.920   5.632   5.597 -1.2663 -3.0792  0.5509
  550MOL0     H75899   4.775   5.660   5.495 -0.1873 -1.6679  1.4879
  550MOL0     H75900   4.858   5.800   5.576 -0.5149  0.6602  2.7324
  551MOL0     O75901   2.677  10.034   8.540 -0.3097 -0.6586 -0.5187
  551MOL0     C75902   2.763   9.949   8.562  0.4840 -1.0606  0.0997
  551MOL0     O75903   2.841   9.933   8.685  1.0596  0.3814  0.6145
  551MOL0     C75904   2.800   9.986   8.801 -0.2473  0.5485  0.8276
  551MOL0     C75905   2.667   9.965   8.841 -0.2913 -0.5459 -0.3624
  551MOL0     C75906   2.619  10.027   8.968  0.0687  0.2219  0.8506
  551MOL0     C75907   2.701  10.102   9.044 -0.0438 -0.0344 -0.2345
  551MOL0     O75908   2.659  10.167   9.165 -0.2460  0.3689  0.1270
  551MOL0     C75909   2.514  10.171   9.171  0.7271  0.2195  0.1875
  551MOL0     C75910   2.475  10.260   9.292 -0.3632  0.7934  0.7932
  551MOL0     C75911   2.330  10.288   9.270 -0.2065  0.6336 -0.1975
  551MOL0     C75912   2.228  10.173   9.321 -0.0458  0.3282  0.3510
  551MOL0     C75913   2.085  10.224   9.309 -0.6601 -1.1423 -0.0039
  551MOL0     C75914   1.988  10.153   9.400 -0.0747  0.1421  0.9744
  551MOL0     C75915   1.838  10.166   9.358 -0.5936  0.2123  0.3586
  551MOL0     C75916   1.784  10.309   9.368 -0.4561  0.2438 -0.6948
  551MOL0     N75917   1.650  10.329   9.299 -0.5173  0.0377 -0.4734
  551MOL0     C75918   1.592  10.256   9.189 -0.1365 -0.1500 -1.2357
  551MOL0     C75919   1.469  10.308   9.178  0.5332 -0.1949 -0.4732
  551MOL0     C75920   1.383  10.261   9.062 -0.1596 -0.1723 -0.6199
  551MOL0     C75921   1.241  10.279   9.112 -0.2083  0.0088 -0.4251
  551MOL0     C75922   1.200  10.193   9.233 -0.1738  0.6222 -0.0965
  551MOL0     C75923   1.140  10.058   9.195  0.6689  0.5251 -0.6093
  551MOL0     O75924   1.188   9.949   9.276  0.3471  0.7419  0.1633
  551MOL0     C75925   1.320   9.912   9.275 -0.6047  0.3951 -1.0469
  551MOL0     C75926   1.390   9.907   9.393  0.5100 -0.1582 -0.1779
  551MOL0     C75927   1.530   9.895   9.398 -0.1095  0.1585 -0.1671
  551MOL0     C75928   1.588   9.904   9.534 -0.2137  0.3269 -0.6559
  551MOL0     C75929   1.607   9.864   9.278  0.5206 -0.0741 -0.2119
  551MOL0     C75930   1.755   9.834   9.274  0.3905 -0.0893 -0.5113
  551MOL0     O75931   1.823   9.881   9.173 -1.1081  0.3383 -0.6150
  551MOL0     C75932   1.947   9.816   9.150  0.8121 -1.1916 -0.2021
  551MOL0     C75933   1.966   9.679   9.134  0.3585  0.3995  0.2074
  551MOL0     C75934   2.086   9.622   9.096  0.6016 -0.2944 -0.5214
  551MOL0     C75935   2.178   9.707   9.053 -0.7099 -0.7006 -1.2504
  551MOL0     O75936   2.290   9.647   8.997  0.1240  0.5753  0.6037
  551MOL0     C75937   2.419   9.706   8.960  0.1405  0.1408  0.3110
  551MOL0     C75938   2.517   9.600   8.905 -0.4324  0.2450 -0.6117
  551MOL0     C75939   2.632   9.578   9.008 -0.1673  0.5252 -0.0502
  551MOL0     C75940   2.752   9.500   8.956 -0.6687  0.8088 -0.5015
  551MOL0     C75941   2.857   9.591   8.902 -0.9334 -0.3209  0.9763
  551MOL0     C75942   2.974   9.525   8.830  0.0501  0.1165 -0.0848
  551MOL0     C75943   2.940   9.494   8.688 -0.0422 -0.1759  0.8325
  551MOL0     C75944   3.060   9.424   8.622 -0.1160 -0.2372 -0.9471
  551MOL0    Cl75945   3.042   9.247   8.627 -0.1567 -0.4175 -0.0113
  551MOL0     C75946   2.162   9.841   9.060  0.0798 -0.0221  0.4051
  551MOL0     C75947   2.049   9.896   9.117 -0.4901 -0.4580  0.6761
  551MOL0     O75948   1.803   9.773   9.369 -0.2181 -0.3326 -0.7418
  551MOL0     C75949   1.527   9.857   9.158 -0.0626 -0.7516  0.4355
  551MOL0     C75950   1.388   9.878   9.158  0.0930  0.6893  0.4650
  551MOL0     N75951   1.446  10.401   9.276 -0.2388  1.3047  0.0615
  551MOL0     N75952   1.551  10.422   9.341  0.0168 -0.6264 -0.0496
  551MOL0     C75953   2.837  10.114   9.008 -0.5858  0.1054 -0.5962
  551MOL0     C75954   2.887  10.056   8.884  0.8959 -0.4149 -0.1225
  551MOL0     C75955   2.810   9.864   8.450 -0.6373 -0.5130 -0.3588
  551MOL0     C75956   2.948   9.837   8.451 -0.0900 -0.7373 -0.0306
  551MOL0     C75957   3.009   9.767   8.345  0.0848 -0.7302  0.4366
  551MOL0     C75958   2.933   9.725   8.227 -0.4714 -0.5752  0.1036
  551MOL0     O75959   2.987   9.666   8.120  0.2557 -0.5177 -0.3567
  551MOL0     C75960   3.130   9.664   8.104 -0.3720  0.4534 -0.7840
  551MOL0     C75961   3.148   9.630   7.963  0.2743  0.0881  0.4371
  551MOL0     C75962   3.137   9.745   7.864 -0.0943  0.0701 -0.1533
  551MOL0     C75963   3.146   9.711   7.715 -1.0402  0.0391 -0.4444
  551MOL0     C75964   3.264   9.635   7.684 -0.6345 -0.0089 -0.3790
  551MOL0     C75965   3.368   9.578   7.690 -0.6393 -0.5076  0.1742
  551MOL0     C75966   2.796   9.765   8.229 -0.1664  1.1738 -0.3891
  551MOL0     C75967   2.726   9.821   8.332  0.0277 -1.6179 -0.5835
  551MOL0     C75968   2.584   9.870   8.320 -0.3283  0.4774  0.3466
  551MOL0     H75969   2.598   9.900   8.789 -1.8102  1.2139 -0.6232
  551MOL0     H75970   2.521   9.987   8.992  0.3702 -1.2292 -0.1473
  551MOL0     H75971   2.479  10.069   9.186 -0.9766 -0.0402 -4.1693
  551MOL0     H75972   2.466  10.221   9.086 -2.0692  0.7543  1.9736
  551MOL0     H75973   2.487  10.195   9.379 -1.5986  1.6148  1.5927
  551MOL0     H75974   2.528  10.355   9.301  1.9997 -0.3976  0.4803
  551MOL0     H75975   2.325  10.374   9.337  1.8350  0.3150  0.4494
  551MOL0     H75976   2.296  10.310   9.168 -0.4299 -0.2353 -0.3167
  551MOL0     H75977   2.244  10.087   9.256  0.8434  2.9554 -3.2236
  551MOL0     H75978   2.244  10.145   9.425  0.8295  0.9872  0.3991
  551MOL0     H75979   2.057  10.228   9.203  0.6754  2.4175 -0.3597
  551MOL0     H75980   2.085  10.323   9.355 -1.7550 -0.2676 -1.7712
  551MOL0     H75981   2.030  10.052   9.408 -0.7361 -0.1359  1.0324
  551MOL0     H75982   1.996  10.192   9.502  1.0294  0.0664  0.9374
  551MOL0     H75983   1.770  10.094   9.406 -2.3965 -1.3262 -3.9740
  551MOL0     H75984   1.837  10.140   9.252  2.9180 -0.0350  0.2585
  551MOL0     H75985   1.779  10.343   9.472  0.0946 -0.5849 -0.3850
  551MOL0     H75986   1.860  10.377   9.328 -1.3924  2.4522  1.0265
  551MOL0     H75987   1.636  10.185   9.119  1.4037 -0.9980  0.5092
  551MOL0     H75988   1.405  10.156   9.037  2.7758  0.3312 -0.5253
  551MOL0     H75989   1.402  10.315   8.969 -0.3563 -0.7553 -1.0066
  551MOL0     H75990   1.232  10.378   9.159 -0.9955 -1.7347  3.5485
  551MOL0     H75991   1.170  10.270   9.030 -2.3569 -4.4978  1.5540
  551MOL0     H75992   1.284  10.181   9.302  1.2134 -1.6475 -2.0294
  551MOL0     H75993   1.120  10.243   9.288 -0.2875  1.7700 -1.2748
  551MOL0     H75994   1.031  10.062   9.184  0.2388 -2.7318  1.1081
  551MOL0     H75995   1.157  10.032   9.089 -7.4316 -0.1280 -2.4203
  551MOL0     H75996   1.346   9.928   9.490 -1.0420  1.3272 -1.1346
  551MOL0     H75997   1.697   9.918   9.534  0.8849 -5.5445 -2.7935
  551MOL0     H75998   1.578   9.800   9.565 -0.2704  0.6873  0.5901
  551MOL0     H75999   1.543   9.966   9.612  3.1987 -0.4210  2.1779
  551MOL0     H76000   1.877   9.617   9.146 -0.6025  1.3951 -1.3199
  551MOL0     H76001   2.096   9.518   9.067  3.7574  0.1301 -1.3353
  551MOL0     H76002   2.396   9.773   8.876 -0.9661  1.0347  1.2892
  551MOL0     H76003   2.462   9.759   9.046 -2.0343  2.3048  0.1622
  551MOL0     H76004   2.464   9.507   8.881  1.4498 -0.9463 -0.3252
  551MOL0     H76005   2.565   9.628   8.811 -0.6558  2.9314  0.0052
  551MOL0     H76006   2.587   9.520   9.089 -1.1346 -1.5284 -1.9582
  551MOL0     H76007   2.675   9.675   9.036  0.9761  0.2676 -0.8325
  551MOL0     H76008   2.719   9.431   8.878 -2.7233  1.2697 -0.0985
  551MOL0     H76009   2.787   9.442   9.042 -0.8801  2.0341  0.4449
  551MOL0     H76010   2.809   9.663   8.834 -1.6186 -0.3169  1.4515
  551MOL0     H76011   2.901   9.644   8.987  1.1688  0.5091 -0.5546
  551MOL0     H76012   3.004   9.436   8.885 -0.8334 -0.3606 -0.3535
  551MOL0     H76013   3.061   9.590   8.814  0.9837 -1.0704 -0.0438
  551MOL0     H76014   2.932   9.583   8.625 -0.7388 -1.0836 -0.4144
  551MOL0     H76015   2.848   9.434   8.689 -2.0940  2.7662  2.2812
  551MOL0     H76016   3.160   9.444   8.660 -1.6154  2.3118  2.1169
  551MOL0     H76017   3.062   9.450   8.515 -1.6328  3.2857 -0.2619
  551MOL0     H76018   2.236   9.905   9.014 -0.0325 -0.7419 -0.8279
  551MOL0     H76019   2.039  10.003   9.128  0.8295 -0.4405  2.1230
  551MOL0     H76020   1.576   9.828   9.066 -0.1298  2.8028 -0.8456
  551MOL0     H76021   1.323   9.858   9.073 -0.2917 -0.7514  1.0617
  551MOL0     H76022   2.897  10.182   9.067 -0.3483 -1.0586  0.5426
  551MOL0     H76023   2.991  10.077   8.864  1.0977 -1.4398 -0.1900
  551MOL0     H76024   3.008   9.874   8.533  1.7338 -3.8617  0.2211
  551MOL0     H76025   3.115   9.742   8.352  0.4745  0.5675 -0.5269
  551MOL0     H76026   3.171   9.761   8.131  1.5009 -0.8448  1.3238
  551MOL0     H76027   3.169   9.591   8.175 -0.3583  0.8585 -0.3708
  551MOL0     H76028   3.075   9.554   7.935 -1.5694  2.1384 -0.6456
  551MOL0     H76029   3.249   9.588   7.956 -0.9797 -3.1452  0.2700
  551MOL0     H76030   3.037   9.787   7.876  0.9789  2.0743  2.7094
  551MOL0     H76031   3.211   9.824   7.875 -1.7370  1.4171  1.9921
  551MOL0     H76032   3.147   9.787   7.637 -0.2815 -2.3740 -2.9518
  551MOL0     H76033   3.058   9.658   7.677 -3.1587  3.8880 -1.3576
  551MOL0     H76034   3.463   9.529   7.688 -0.1979  0.3654 -0.6506
  551MOL0     H76035   2.739   9.751   8.138 -1.4518 -0.3434  0.5909
  551MOL0     H76036   2.584   9.979   8.310  2.6980  1.1888  5.0483
  551MOL0     H76037   2.536   9.807   8.244  1.6188 -2.3343  1.2918
  551MOL0     H76038   2.530   9.841   8.411  0.4851 -1.6309  0.2092
  552MOL0     O76039   6.106   3.726   6.453 -0.1754  0.3105  0.0174
  552MOL0     C76040   6.008   3.672   6.396 -0.1065  0.4756 -0.5303
  552MOL0     O76041   5.994   3.535   6.403 -0.0240 -0.4410  0.4303
  552MOL0     C76042   6.104   3.462   6.428  0.2714  0.7758 -0.5356
  552MOL0     C76043   6.115   3.407   6.549 -0.3077 -0.3233 -0.4588
  552MOL0     C76044   6.236   3.337   6.586  0.3175 -0.1469 -0.5911
  552MOL0     C76045   6.344   3.331   6.501 -0.7738  0.4889  0.0559
  552MOL0     O76046   6.452   3.265   6.554  0.4839  1.0504  0.0644
  552MOL0     C76047   6.456   3.126   6.508 -0.5726 -1.0234 -0.0594
  552MOL0     C76048   6.541   3.050   6.612  0.6821  0.2840  0.2739
  552MOL0     C76049   6.655   3.133   6.663  0.5390  0.1384 -0.5025
  552MOL0     C76050   6.723   3.040   6.767 -0.9916  0.0005 -0.5350
  552MOL0     C76051   6.805   3.123   6.865  0.2428  0.0363 -1.1468
  552MOL0     C76052   6.909   3.215   6.804 -0.0643  0.1357  0.0024
  552MOL0     C76053   7.005   3.146   6.710 -0.3282 -0.0623  0.0054
  552MOL0     C76054   7.083   3.267   6.644 -0.6873 -0.1444 -0.5652
  552MOL0     N76055   7.219   3.285   6.687 -0.0430 -0.2608 -0.5602
  552MOL0     C76056   7.287   3.406   6.704  0.1796 -0.5445  0.3686
  552MOL0     C76057   7.415   3.370   6.737  1.0538  0.9548 -0.2554
  552MOL0     C76058   7.529   3.462   6.767 -0.3139 -0.4054  0.3237
  552MOL0     C76059   7.659   3.378   6.766 -0.1421 -0.0620 -0.1451
  552MOL0     C76060   7.782   3.472   6.776 -0.3531 -0.7073 -0.4372
  552MOL0     C76061   7.912   3.422   6.703  0.0381  0.3716  0.2265
  552MOL0     O76062   7.901   3.415   6.563  0.5507  0.5159 -0.0415
  552MOL0     C76063   8.016   3.432   6.497  0.0813 -0.3870  0.1122
  552MOL0     C76064   8.146   3.413   6.545  0.6021 -0.3304  0.1185
  552MOL0     C76065   8.248   3.424   6.458 -0.1472 -0.9247 -0.1627
  552MOL0     C76066   8.388   3.441   6.519  0.5351  0.3744 -0.1170
  552MOL0     C76067   8.234   3.451   6.318  0.2524 -0.5793 -0.2245
  552MOL0     C76068   8.338   3.468   6.212 -0.9613  0.6430  0.3277
  552MOL0     O76069   8.473   3.436   6.229  0.1830  0.0982 -0.4461
  552MOL0     C76070   8.550   3.432   6.120 -0.1972 -0.5384 -0.3502
  552MOL0     C76071   8.566   3.315   6.066 -0.1807 -0.2359  0.1717
  552MOL0     C76072   8.651   3.294   5.954  0.3215 -0.1561  1.6644
  552MOL0     C76073   8.733   3.402   5.909 -0.7646 -0.4525 -0.1812
  552MOL0     O76074   8.811   3.398   5.797  0.1546  0.7036 -0.7264
  552MOL0     C76075   8.737   3.346   5.683 -0.0922  0.5016  0.3067
  552MOL0     C76076   8.818   3.380   5.563 -0.6728  0.1851 -1.1902
  552MOL0     C76077   8.770   3.314   5.435 -0.7909  0.5154 -0.8699
  552MOL0     C76078   8.620   3.338   5.413 -0.1615  0.1352 -1.0485
  552MOL0     C76079   8.570   3.482   5.444 -0.3997  0.3078 -0.8359
  552MOL0     C76080   8.583   3.570   5.314  0.1422 -0.2898 -0.3321
  552MOL0     C76081   8.723   3.616   5.284 -0.7763  0.1964  0.7491
  552MOL0     C76082   8.739   3.745   5.203  0.3589  0.0966  0.4626
  552MOL0    Cl76083   8.654   3.760   5.056  0.3509  0.1394 -0.3062
  552MOL0     C76084   8.723   3.527   5.975 -1.0151  0.1530 -0.4540
  552MOL0     C76085   8.630   3.539   6.076  0.8062 -0.1626 -0.0562
  552MOL0     O76086   8.301   3.514   6.105  0.3772 -0.2926  0.2450
  552MOL0     C76087   8.105   3.480   6.273 -0.1099  0.0955 -0.1120
  552MOL0     C76088   7.997   3.463   6.363 -0.2620 -0.1753  0.6193
  552MOL0     N76089   7.414   3.231   6.743  0.1234 -0.2749 -0.2772
  552MOL0     N76090   7.302   3.186   6.731  0.0788 -0.0163  1.3101
  552MOL0     C76091   6.332   3.391   6.374 -0.2768  0.7875 -0.4077
  552MOL0     C76092   6.210   3.448   6.345  0.3116 -0.3979  0.3870
  552MOL0     C76093   5.908   3.759   6.333  0.2145 -0.1194  0.2511
  552MOL0     C76094   5.773   3.705   6.323  0.5742  0.2389  0.2731
  552MOL0     C76095   5.672   3.770   6.262 -0.1176 -0.3424  0.1836
  552MOL0     C76096   5.700   3.899   6.212 -0.9725  0.0284  0.4410
  552MOL0     O76097   5.588   3.970   6.175 -0.3618 -0.0425 -0.1407
  552MOL0     C76098   5.594   4.052   6.058  0.6675 -0.4587 -0.1506
  552MOL0     C76099   5.526   4.186   6.084  1.4281 -0.8144 -0.2421
  552MOL0     C76100   5.457   4.251   5.967 -0.1010 -0.1517  0.0905
  552MOL0     C76101   5.459   4.402   5.974 -0.7998  0.5310  0.3197
  552MOL0     C76102   5.596   4.447   5.941  0.1300 -1.0104 -0.3869
  552MOL0     C76103   5.700   4.486   5.910  0.1635  0.6755 -0.2706
  552MOL0     C76104   5.825   3.950   6.218  0.3947 -0.5021  0.0360
  552MOL0     C76105   5.930   3.887   6.279  1.0804 -0.0780  0.3192
  552MOL0     C76106   6.069   3.954   6.282  0.1984  0.1789 -0.0282
  552MOL0     H76107   6.040   3.414   6.627  1.7400 -3.0021  1.9508
  552MOL0     H76108   6.225   3.288   6.682 -5.9920  1.8779  0.1667
  552MOL0     H76109   6.505   3.113   6.411  0.9803 -0.1532  0.5814
  552MOL0     H76110   6.354   3.086   6.512 -1.8573  1.9449 -0.8126
  552MOL0     H76111   6.474   3.028   6.695  1.1372  1.2346  0.9161
  552MOL0     H76112   6.584   2.959   6.570 -2.0322 -1.4254  1.0149
  552MOL0     H76113   6.732   3.159   6.590  1.5930 -4.1856 -1.2127
  552MOL0     H76114   6.609   3.217   6.717 -0.5123  0.4466 -1.8413
  552MOL0     H76115   6.655   2.975   6.824  0.2407 -1.3046 -0.5027
  552MOL0     H76116   6.792   2.972   6.718 -0.4522  0.8459 -0.9738
  552MOL0     H76117   6.859   3.065   6.940 -0.8271  0.5541  0.0817
  552MOL0     H76118   6.732   3.184   6.920 -0.7597 -1.6213 -0.5765
  552MOL0     H76119   6.851   3.293   6.754 -1.6961 -0.5574  0.7507
  552MOL0     H76120   6.964   3.244   6.894 -1.9134 -2.2584  2.0359
  552MOL0     H76121   6.949   3.090   6.635  1.3396 -2.5722  0.5091
  552MOL0     H76122   7.072   3.074   6.758 -0.5569 -0.6519 -0.5462
  552MOL0     H76123   7.071   3.267   6.535  0.2977 -2.2204 -0.7124
  552MOL0     H76124   7.036   3.359   6.680  0.8816  0.2676  0.5497
  552MOL0     H76125   7.252   3.509   6.701  0.7971 -0.3509 -1.6727
  552MOL0     H76126   7.522   3.510   6.865  0.9532  1.0311 -0.2598
  552MOL0     H76127   7.533   3.537   6.687 -0.5155 -0.6904  0.0440
  552MOL0     H76128   7.671   3.311   6.851 -1.1203 -0.2196 -0.1186
  552MOL0     H76129   7.663   3.322   6.673  1.2516  0.6304 -0.5345
  552MOL0     H76130   7.755   3.572   6.741 -1.2867 -0.1682  1.6409
  552MOL0     H76131   7.806   3.485   6.882  0.4667 -1.0385 -0.5754
  552MOL0     H76132   7.994   3.485   6.737  2.8595 -2.2280 -1.3257
  552MOL0     H76133   7.934   3.320   6.736 -0.6318  0.4079  0.8199
  552MOL0     H76134   8.156   3.419   6.653  1.4953  1.4017 -0.0243
  552MOL0     H76135   8.454   3.367   6.473 -0.5244  1.0871 -2.9944
  552MOL0     H76136   8.389   3.443   6.628  0.6738 -3.7863  0.1153
  552MOL0     H76137   8.432   3.537   6.489  0.1506 -0.3120 -3.2204
  552MOL0     H76138   8.515   3.234   6.118  0.5782  0.6871  2.4937
  552MOL0     H76139   8.656   3.194   5.912 -1.8464 -0.7542  2.7026
  552MOL0     H76140   8.742   3.238   5.700  1.4727  0.0274 -2.4957
  552MOL0     H76141   8.636   3.388   5.674 -0.4769 -0.7081 -1.7250
  552MOL0     H76142   8.824   3.489   5.560 -1.3204  0.4704  2.9051
  552MOL0     H76143   8.919   3.343   5.578 -1.0830 -0.3552  0.3866
  552MOL0     H76144   8.794   3.208   5.442 -2.3541  0.0642 -1.7398
  552MOL0     H76145   8.823   3.330   5.341 -0.8820 -3.0125 -1.6723
  552MOL0     H76146   8.559   3.285   5.487  2.6119 -0.9536  0.6128
  552MOL0     H76147   8.588   3.304   5.314 -0.7537  1.4618 -1.3345
  552MOL0     H76148   8.464   3.479   5.470 -0.1670 -1.7794  0.0458
  552MOL0     H76149   8.626   3.530   5.525 -0.4223  0.9213 -1.1813
  552MOL0     H76150   8.520   3.659   5.330  0.6904  0.1704 -0.6962
  552MOL0     H76151   8.537   3.517   5.230 -0.1029  0.7471 -0.8728
  552MOL0     H76152   8.785   3.532   5.252 -1.3595 -0.1977  0.6353
  552MOL0     H76153   8.763   3.643   5.383 -0.6283 -0.4949  0.8834
  552MOL0     H76154   8.846   3.760   5.187  1.1522 -3.2976  1.7320
  552MOL0     H76155   8.698   3.827   5.262 -1.2900 -1.4407  1.5506
  552MOL0     H76156   8.790   3.609   5.951 -1.3614  1.1150  1.6105
  552MOL0     H76157   8.630   3.629   6.138  0.6629 -0.9112  1.0580
  552MOL0     H76158   8.068   3.490   6.171 -1.5744  2.0603  0.5508
  552MOL0     H76159   7.896   3.475   6.327  0.5342  3.8397 -0.8535
  552MOL0     H76160   6.414   3.386   6.303  1.8011 -1.6732  1.9169
  552MOL0     H76161   6.190   3.492   6.247  1.0213 -2.7934 -0.9252
  552MOL0     H76162   5.756   3.606   6.363  2.6864  0.0697  0.8532
  552MOL0     H76163   5.568   3.743   6.272 -0.2741 -0.4617 -1.4282
  552MOL0     H76164   5.695   4.079   6.026  0.1622  0.2923 -1.1652
  552MOL0     H76165   5.542   4.003   5.976 -1.4966  0.3885  0.6397
  552MOL0     H76166   5.593   4.253   6.139  0.8022 -0.8554  0.6044
  552MOL0     H76167   5.438   4.170   6.147  2.3865 -0.1345  1.3708
  552MOL0     H76168   5.504   4.228   5.871  0.1341  0.1776  0.1246
  552MOL0     H76169   5.351   4.224   5.970 -0.2347 -0.6137 -3.8200
  552MOL0     H76170   5.420   4.444   6.067 -0.4151  3.6215 -0.8010
  552MOL0     H76171   5.390   4.444   5.901  0.6036 -0.0845 -1.4347
  552MOL0     H76172   5.795   4.520   5.874  2.1392  0.7621  4.2629
  552MOL0     H76173   5.836   4.054   6.191  1.7168 -0.9272 -1.2101
  552MOL0     H76174   6.114   3.968   6.380  0.6135 -3.4823  0.4304
  552MOL0     H76175   6.138   3.886   6.231  0.5347 -0.2318  0.9724
  552MOL0     H76176   6.077   4.051   6.232  3.9306  0.0771  0.1418
  553MOL0     O76177   2.587   1.404  10.394 -0.2378 -0.3706 -0.2356
  553MOL0     C76178   2.547   1.459  10.498 -0.2666 -0.5375 -0.6675
  553MOL0     O76179   2.415   1.486  10.527 -0.0199  0.0279 -0.8177
  553MOL0     C76180   2.316   1.469  10.424  0.2237  0.1164 -0.2755
  553MOL0     C76181   2.222   1.375  10.426  0.3038 -0.4502 -0.3082
  553MOL0     C76182   2.113   1.370  10.338  0.8328  0.3803 -0.3941
  553MOL0     C76183   2.113   1.454  10.223 -0.0180 -0.4896  0.0155
  553MOL0     O76184   2.010   1.456  10.129  0.5146 -0.0863  0.0020
  553MOL0     C76185   1.907   1.359  10.135 -0.7516 -1.2422  0.3689
  553MOL0     C76186   1.821   1.379  10.005  0.5418  0.0744 -0.0476
  553MOL0     C76187   1.898   1.341   9.881  0.4601  0.2570 -0.4396
  553MOL0     C76188   1.828   1.375   9.745  0.5371 -0.6689 -0.6056
  553MOL0     C76189   1.884   1.287   9.633  0.2724 -0.5511 -0.9695
  553MOL0     C76190   1.866   1.356   9.497 -0.5453  0.2731 -0.2402
  553MOL0     C76191   1.961   1.276   9.397 -0.0343 -0.4683  0.1805
  553MOL0     C76192   1.927   1.301   9.252 -0.5150 -0.2653 -0.9767
  553MOL0     N76193   1.997   1.400   9.188 -0.2767  0.7658  0.5407
  553MOL0     C76194   1.943   1.451   9.065 -1.0085 -0.1555 -0.3339
  553MOL0     C76195   1.988   1.579   9.054  0.3586 -0.8936 -0.3617
  553MOL0     C76196   1.965   1.679   8.946  0.9040  0.4228  0.1478
  553MOL0     C76197   2.050   1.808   8.955 -0.6939 -0.2209  0.7997
  553MOL0     C76198   2.008   1.893   8.828  0.0899  0.2764  0.3307
  553MOL0     C76199   2.101   2.014   8.805 -0.2268 -0.5389  0.3799
  553MOL0     O76200   2.230   1.970   8.777  0.1855  0.3281  0.0409
  553MOL0     C76201   2.327   2.045   8.706  0.4418  0.6244 -0.1649
  553MOL0     C76202   2.309   2.189   8.683  0.2851  0.6506  0.0782
  553MOL0     C76203   2.400   2.267   8.609  0.8640 -0.4391  0.3202
  553MOL0     C76204   2.346   2.400   8.569 -0.5373 -0.3346 -0.0901
  553MOL0     C76205   2.512   2.208   8.542  0.8275  0.9671 -0.3679
  553MOL0     C76206   2.612   2.289   8.463  0.3610 -0.5260 -0.2342
  553MOL0     O76207   2.602   2.422   8.476  0.3491  0.1336  0.6465
  553MOL0     C76208   2.683   2.496   8.404 -0.5207 -0.5936  1.3071
  553MOL0     C76209   2.705   2.493   8.263  0.7281 -0.0178  0.2951
  553MOL0     C76210   2.804   2.557   8.198 -0.6357 -0.2475  0.2327
  553MOL0     C76211   2.881   2.651   8.267  0.3017 -0.9568 -0.7478
  553MOL0     O76212   2.985   2.729   8.214 -0.4650  0.2221  1.0880
  553MOL0     C76213   2.941   2.791   8.097 -0.4275  0.1070 -0.4963
  553MOL0     C76214   3.028   2.909   8.064 -0.1261  0.0531  0.0501
  553MOL0     C76215   2.991   3.028   8.149  0.0079  0.3956  0.5292
  553MOL0     C76216   2.966   3.156   8.068 -0.0016  0.7443  0.0887
  553MOL0     C76217   2.942   3.272   8.159 -1.2060  0.1663  0.4328
  553MOL0     C76218   2.908   3.393   8.077 -0.2755 -0.7114  0.6535
  553MOL0     C76219   2.851   3.497   8.165 -0.7412 -0.1838  0.3534
  553MOL0     C76220   2.823   3.630   8.086 -0.1149 -0.7310 -0.6845
  553MOL0    Cl76221   2.702   3.604   7.970 -0.2425  0.1190 -0.3856
  553MOL0     C76222   2.848   2.670   8.401  0.0806  1.0562  0.0196
  553MOL0     C76223   2.758   2.594   8.473  0.5953 -0.2973  0.1118
  553MOL0     O76224   2.708   2.232   8.400  0.1822 -0.4708 -0.4490
  553MOL0     C76225   2.529   2.068   8.571 -0.0375  0.3431 -0.5947
  553MOL0     C76226   2.436   1.993   8.645 -0.2809 -0.3882 -0.1773
  553MOL0     N76227   2.059   1.602   9.174  0.5687  0.1140 -0.1685
  553MOL0     N76228   2.060   1.498   9.253 -0.2978  0.1079 -0.0698
  553MOL0     C76229   2.219   1.551  10.216 -0.3403 -0.1286  1.2666
  553MOL0     C76230   2.316   1.551  10.316 -0.6403  0.6265 -0.4278
  553MOL0     C76231   2.645   1.483  10.614 -0.5859 -0.0272 -0.3517
  553MOL0     C76232   2.603   1.574  10.719 -1.8169  0.4792  0.0946
  553MOL0     C76233   2.693   1.598  10.831  0.8612  0.9104  0.0743
  553MOL0     C76234   2.816   1.536  10.831 -0.5691  0.2591  0.1903
  553MOL0     O76235   2.907   1.569  10.935 -0.1910  0.6290 -0.1541
  553MOL0     C76236   3.013   1.464  10.955 -1.0167 -1.9525  0.0630
  553MOL0     C76237   3.072   1.508  11.090  0.0983 -0.1552  0.2256
  553MOL0     C76238   3.209   1.428  11.109  0.7492  0.1317 -0.1500
  553MOL0     C76239   3.295   1.465  11.234 -0.3945 -0.4053  0.1157
  553MOL0     C76240   3.206   1.453  11.356 -0.5246  0.7899 -0.3170
  553MOL0     C76241   3.143   1.408  11.452 -0.2376 -1.2228  0.8831
  553MOL0     C76242   2.853   1.455  10.725 -0.2855  0.7425 -0.5766
  553MOL0     C76243   2.778   1.434  10.613  0.2068  0.6002 -0.0905
  553MOL0     C76244   2.840   1.356  10.496 -0.3118  0.3319  0.3992
  553MOL0     H76245   2.237   1.306  10.508 -0.2852  0.5082  0.6141
  553MOL0     H76246   2.034   1.301  10.368 -1.0185  1.4638 -2.4123
  553MOL0     H76247   1.854   1.371  10.229  0.4644  3.7539  0.7417
  553MOL0     H76248   1.961   1.265  10.143 -1.0812 -1.2380  5.2936
  553MOL0     H76249   1.729   1.319  10.009 -0.4241  1.3992 -1.1832
  553MOL0     H76250   1.798   1.484   9.987  2.0985  0.2025 -1.5767
  553MOL0     H76251   1.992   1.396   9.873  0.0410  0.8430 -1.6389
  553MOL0     H76252   1.914   1.233   9.878  1.3607  0.2848  1.6247
  553MOL0     H76253   1.721   1.349   9.750 -0.1356  1.6585 -1.6022
  553MOL0     H76254   1.843   1.482   9.728  1.7057 -0.5397  0.9810
  553MOL0     H76255   1.837   1.188   9.624 -2.6313 -0.1439  4.8058
  553MOL0     H76256   1.990   1.280   9.660 -0.3327 -0.7333  1.6536
  553MOL0     H76257   1.761   1.357   9.467 -0.2388  0.2517 -1.3462
  553MOL0     H76258   1.897   1.461   9.497  0.3554  0.1368  3.4700
  553MOL0     H76259   1.947   1.169   9.410  0.5933 -0.7574 -1.2782
  553MOL0     H76260   2.067   1.291   9.420  0.9195 -2.7495 -2.2438
  553MOL0     H76261   1.944   1.205   9.202 -0.1983 -2.5685  3.1116
  553MOL0     H76262   1.819   1.322   9.245 -0.7291  0.1070  2.1621
  553MOL0     H76263   1.877   1.410   8.989 -1.3296  0.9633 -0.6720
  553MOL0     H76264   1.858   1.705   8.949  0.6290 -0.7603  1.3232
  553MOL0     H76265   1.979   1.617   8.857 -0.7825 -2.4796  1.7644
  553MOL0     H76266   2.028   1.861   9.048 -0.8537 -1.7590  1.6769
  553MOL0     H76267   2.152   1.773   8.937 -0.1418  1.2562  0.9520
  553MOL0     H76268   2.002   1.821   8.747 -1.5156  0.2087  0.4850
  553MOL0     H76269   1.909   1.939   8.837 -0.0570  0.5003 -1.9565
  553MOL0     H76270   2.070   2.073   8.718  3.7230  0.8880 -0.2469
  553MOL0     H76271   2.100   2.072   8.898  1.5698 -0.6563  0.5002
  553MOL0     H76272   2.230   2.244   8.733 -1.8792  1.3082 -3.6811
  553MOL0     H76273   2.245   2.418   8.607  0.4138 -1.9289  3.6055
  553MOL0     H76274   2.348   2.415   8.460 -4.0468  1.6507 -0.0156
  553MOL0     H76275   2.411   2.477   8.612 -0.3365 -0.3921 -0.2869
  553MOL0     H76276   2.634   2.438   8.203 -2.1688  0.3736  3.0890
  553MOL0     H76277   2.829   2.508   8.105 -0.1552 -0.6566  0.5732
  553MOL0     H76278   2.940   2.724   8.011 -2.0601 -1.7278  0.8693
  553MOL0     H76279   2.839   2.828   8.112 -0.9612 -1.0883 -1.0889
  553MOL0     H76280   3.134   2.885   8.074 -0.0369 -0.2835 -1.4366
  553MOL0     H76281   3.001   2.937   7.961 -0.1771 -0.0977  0.0219
  553MOL0     H76282   3.073   3.049   8.219  1.1225 -1.3510 -0.1792
  553MOL0     H76283   2.904   3.008   8.212  1.5157 -0.4832  2.4558
  553MOL0     H76284   2.869   3.142   8.019 -1.8350 -3.3051  4.1276
  553MOL0     H76285   3.036   3.172   7.985  1.1849 -2.9570  0.1828
  553MOL0     H76286   2.868   3.252   8.237 -1.5461 -1.1727 -0.1974
  553MOL0     H76287   3.034   3.284   8.217 -1.8681  0.5233  1.4318
  553MOL0     H76288   2.840   3.372   7.994 -1.5275 -0.0683  1.4832
  553MOL0     H76289   2.991   3.446   8.028 -1.7211  2.1852  1.1144
  553MOL0     H76290   2.916   3.517   8.251 -1.5059 -0.1173  0.9227
  553MOL0     H76291   2.760   3.463   8.214  0.2195 -0.9369  1.7075
  553MOL0     H76292   2.915   3.664   8.038  0.4350 -1.4858 -0.1952
  553MOL0     H76293   2.787   3.713   8.148 -1.2087 -1.8329  0.2383
  553MOL0     H76294   2.877   2.763   8.449  1.6744  0.5208  0.1324
  553MOL0     H76295   2.734   2.625   8.574  0.1974 -0.4388  0.0625
  553MOL0     H76296   2.618   2.024   8.528 -1.1509  0.9127 -3.7462
  553MOL0     H76297   2.463   1.888   8.647 -0.0625 -0.3663 -1.3992
  553MOL0     H76298   2.220   1.609  10.124  1.6829 -1.5170  0.3483
  553MOL0     H76299   2.387   1.632  10.327 -1.0003  0.7873  0.7895
  553MOL0     H76300   2.502   1.614  10.720 -2.6088 -1.3384 -1.0456
  553MOL0     H76301   2.672   1.665  10.913  1.3403  1.1403  0.0086
  553MOL0     H76302   2.968   1.365  10.960  1.8612 -3.3140  3.1632
  553MOL0     H76303   3.083   1.469  10.871 -2.8346  0.1881 -1.4538
  553MOL0     H76304   2.998   1.482  11.166  0.2253 -0.2311  0.3252
  553MOL0     H76305   3.085   1.615  11.105 -1.8495  0.1693 -0.2054
  553MOL0     H76306   3.188   1.321  11.108  1.2317  0.0256 -1.6871
  553MOL0     H76307   3.277   1.451  11.026  3.4312 -1.9059  1.2989
  553MOL0     H76308   3.335   1.566  11.217  0.2255 -0.2611  2.2071
  553MOL0     H76309   3.393   1.417  11.236  0.6000  1.1749 -2.9884
  553MOL0     H76310   3.108   1.369  11.546  1.4991 -1.3360  1.5049
  553MOL0     H76311   2.955   1.418  10.726 -0.2357  0.7976  1.6617
  553MOL0     H76312   2.780   1.269  10.468 -0.4701  0.2026  1.1030
  553MOL0     H76313   2.835   1.425  10.411  0.1535 -0.0089  0.0916
  553MOL0     H76314   2.940   1.314  10.510  0.6886  2.3773 -0.2513
  554MOL0     O76315  11.420   7.545   9.274 -0.4333 -0.0768 -0.4504
  554MOL0     C76316  11.529   7.584   9.251 -0.8271 -0.7188  0.3648
  554MOL0     O76317  11.640   7.498   9.250  0.3652 -0.5919  0.0280
  554MOL0     C76318  11.631   7.382   9.187  0.1492  0.6162 -0.1083
  554MOL0     C76319  11.526   7.339   9.099 -0.5327 -0.3033  0.5035
  554MOL0     C76320  11.531   7.214   9.038 -0.3223  0.1241  0.7420
  554MOL0     C76321  11.644   7.135   9.047  0.6209 -1.0047 -0.1351
  554MOL0     O76322  11.651   7.023   8.959 -0.6044 -0.8429  0.4904
  554MOL0     C76323  11.765   6.928   8.959 -0.0454 -1.0427  0.4480
  554MOL0     C76324  11.737   6.776   8.984 -0.3108 -1.4917  0.2110
  554MOL0     C76325  11.660   6.713   8.869 -0.2468  0.4436 -0.1587
  554MOL0     C76326  11.692   6.559   8.846  0.7998  0.1120 -1.2552
  554MOL0     C76327  11.583   6.492   8.767 -0.3030 -0.6400  0.4277
  554MOL0     C76328  11.595   6.343   8.764 -0.0223 -0.8606  0.1457
  554MOL0     C76329  11.466   6.278   8.692 -0.5499 -0.2396  0.1447
  554MOL0     C76330  11.339   6.265   8.791 -0.6185  0.5895 -0.1178
  554MOL0     N76331  11.251   6.380   8.826 -0.6756  0.2789 -1.4869
  554MOL0     C76332  11.256   6.509   8.771 -0.1607  0.1298  0.1647
  554MOL0     C76333  11.178   6.583   8.850 -0.3633 -0.2647  0.6677
  554MOL0     C76334  11.154   6.735   8.834  0.8280 -0.2338 -0.2376
  554MOL0     C76335  11.146   6.828   8.962 -0.3826  0.5487  0.3583
  554MOL0     C76336  11.282   6.859   9.032  0.3163 -0.3224 -0.2068
  554MOL0     C76337  11.247   6.947   9.160  0.7648 -0.6029  0.5638
  554MOL0     O76338  11.373   7.006   9.211  0.1663  1.1442 -1.2047
  554MOL0     C76339  11.356   7.080   9.328  0.3433 -0.2129 -0.1078
  554MOL0     C76340  11.481   7.126   9.368  1.0133 -0.8023  0.2310
  554MOL0     C76341  11.503   7.212   9.473 -0.2474  0.2621 -0.5183
  554MOL0     C76342  11.644   7.249   9.512 -0.2421 -1.3715  0.0771
  554MOL0     C76343  11.395   7.243   9.556  0.9996 -0.1819  0.0565
  554MOL0     C76344  11.394   7.342   9.674  0.7444 -0.1704  0.6813
  554MOL0     O76345  11.512   7.424   9.683  0.2230  0.4308 -0.5113
  554MOL0     C76346  11.492   7.545   9.737 -0.3276 -0.5966  0.6841
  554MOL0     C76347  11.427   7.654   9.683  0.4962  0.6887 -0.0423
  554MOL0     C76348  11.423   7.779   9.741  0.7216  0.3886  1.1001
  554MOL0     C76349  11.485   7.792   9.865  0.4345 -0.0710 -0.3387
  554MOL0     O76350  11.495   7.921   9.918  0.2401  0.7487  0.2892
  554MOL0     C76351  11.598   8.010   9.858  0.1262 -0.2656  0.9846
  554MOL0     C76352  11.650   8.128   9.951 -0.8304 -1.0254 -0.0553
  554MOL0     C76353  11.664   8.263   9.872  0.3084  0.7455  0.2705
  554MOL0     C76354  11.748   8.375   9.947 -0.4806  0.4042  0.3071
  554MOL0     C76355  11.772   8.491   9.849 -0.3513  0.4724  0.7714
  554MOL0     C76356  11.656   8.595   9.864 -0.1760 -0.1009 -1.0615
  554MOL0     C76357  11.698   8.730   9.815  0.1242 -0.3795  0.9097
  554MOL0     C76358  11.594   8.841   9.827  0.5158 -0.0196  0.4714
  554MOL0    Cl76359  11.464   8.835   9.716 -0.2100  0.1759  0.2326
  554MOL0     C76360  11.544   7.684   9.925 -1.2187 -0.1572  0.1304
  554MOL0     C76361  11.560   7.572   9.855 -0.2614  0.6490 -0.5222
  554MOL0     O76362  11.302   7.338   9.755  0.0353 -0.5920 -0.2373
  554MOL0     C76363  11.265   7.184   9.523 -1.4820 -0.1332 -0.2677
  554MOL0     C76364  11.248   7.103   9.411 -0.1387  0.5268  0.1887
  554MOL0     N76365  11.117   6.502   8.945  0.9652  1.2985  0.7272
  554MOL0     N76366  11.172   6.383   8.933  0.2465 -0.2607 -0.7475
  554MOL0     C76367  11.743   7.173   9.135 -1.2851  0.9433 -0.6915
  554MOL0     C76368  11.741   7.290   9.206  0.0219  0.0584  0.5567
  554MOL0     C76369  11.559   7.729   9.280 -0.1961 -0.0501  0.3426
  554MOL0     C76370  11.445   7.822   9.303 -0.0318  0.2999 -0.0829
  554MOL0     C76371  11.463   7.960   9.323  0.8852 -0.2885 -0.8625
  554MOL0     C76372  11.590   8.010   9.349  0.2969 -0.4871 -0.0115
  554MOL0     O76373  11.624   8.142   9.373 -0.3005 -0.0905  0.0561
  554MOL0     C76374  11.539   8.251   9.364 -0.1211  0.8042  0.1856
  554MOL0     C76375  11.502   8.280   9.507  0.7850  1.3039  0.0574
  554MOL0     C76376  11.378   8.378   9.499  0.3718 -0.4805 -0.5907
  554MOL0     C76377  11.415   8.517   9.550  0.2664  0.1177  0.9958
  554MOL0     C76378  11.522   8.580   9.478  0.4686 -0.9971  0.9415
  554MOL0     C76379  11.620   8.634   9.435 -0.5516 -0.4319  0.5463
  554MOL0     C76380  11.695   7.929   9.340 -0.8673  1.3095 -0.2783
  554MOL0     C76381  11.689   7.791   9.302  0.6541  0.7206 -0.0178
  554MOL0     C76382  11.817   7.714   9.314  0.7603  0.3974 -0.3546
  554MOL0     H76383  11.432   7.394   9.097 -1.8554 -2.0578  4.0530
  554MOL0     H76384  11.452   7.158   8.989  0.7130 -1.3861  0.7366
  554MOL0     H76385  11.843   6.953   9.032 -0.9809  2.3751  0.4620
  554MOL0     H76386  11.810   6.940   8.860 -1.9304 -1.4170 -0.5011
  554MOL0     H76387  11.836   6.730   8.973  0.3946  0.3699 -1.9669
  554MOL0     H76388  11.691   6.751   9.080  0.0072  0.2513  0.8394
  554MOL0     H76389  11.554   6.713   8.896 -0.9477 -5.1248 -1.6222
  554MOL0     H76390  11.666   6.767   8.774  1.0157  0.6630  0.0277
  554MOL0     H76391  11.789   6.545   8.798  2.0736  0.4695  1.1251
  554MOL0     H76392  11.701   6.506   8.941  5.7109 -1.3118 -2.2315
  554MOL0     H76393  11.586   6.535   8.666  0.9215  0.6340  0.9676
  554MOL0     H76394  11.499   6.530   8.824  0.0875 -2.6416  2.4892
  554MOL0     H76395  11.689   6.318   8.715 -0.3936 -2.3579  0.1519
  554MOL0     H76396  11.592   6.303   8.866 -3.5362 -2.5335 -0.4477
  554MOL0     H76397  11.494   6.179   8.656  2.0786  0.0194  1.2229
  554MOL0     H76398  11.427   6.327   8.603 -2.5843 -1.2997  0.3983
  554MOL0     H76399  11.287   6.175   8.757  1.6798 -0.2114 -1.7591
  554MOL0     H76400  11.384   6.239   8.887 -0.9942 -0.4047 -0.1934
  554MOL0     H76401  11.300   6.551   8.681 -2.3592  1.8506 -0.2105
  554MOL0     H76402  11.050   6.751   8.802 -0.0588 -1.6754  1.7004
  554MOL0     H76403  11.228   6.781   8.768  1.7614 -1.5369 -0.1486
  554MOL0     H76404  11.104   6.925   8.931  0.1428  1.1172  1.3688
  554MOL0     H76405  11.072   6.777   9.024 -0.3781  2.0272  1.6358
  554MOL0     H76406  11.326   6.764   9.063 -1.4264 -1.4589 -1.0430
  554MOL0     H76407  11.345   6.921   8.967 -2.2197  1.9952 -0.6688
  554MOL0     H76408  11.170   7.019   9.131  1.1857 -0.3192  0.1503
  554MOL0     H76409  11.208   6.876   9.233  0.1600  0.0797  0.9171
  554MOL0     H76410  11.554   7.088   9.297  0.2528 -2.8335  0.4582
  554MOL0     H76411  11.721   7.200   9.450  3.3286 -1.1678  3.8694
  554MOL0     H76412  11.677   7.227   9.615  1.0903 -2.2273 -0.4982
  554MOL0     H76413  11.660   7.353   9.483 -0.2809 -0.8127  1.8980
  554MOL0     H76414  11.397   7.637   9.580 -1.0969 -1.6794  0.7297
  554MOL0     H76415  11.379   7.859   9.681 -0.7264 -1.9131 -1.1192
  554MOL0     H76416  11.686   7.953   9.829 -0.3130  0.6958 -2.7554
  554MOL0     H76417  11.561   8.052   9.764  1.7237 -2.4813 -0.7336
  554MOL0     H76418  11.591   8.152  10.040  0.0753  1.1228  0.0116
  554MOL0     H76419  11.741   8.089   9.997 -0.2783  2.6047  2.2967
  554MOL0     H76420  11.569   8.303   9.834  0.0778 -1.6190 -1.9503
  554MOL0     H76421  11.709   8.234   9.776  3.1489  2.6010  0.9201
  554MOL0     H76422  11.842   8.328   9.977  2.0785  2.2926 -3.8408
  554MOL0     H76423  11.699   8.415  10.036  1.3040  1.9453  0.6552
  554MOL0     H76424  11.866   8.541   9.875  0.5626  0.4085 -2.1131
  554MOL0     H76425  11.789   8.454   9.748  0.5843 -1.4436  1.5764
  554MOL0     H76426  11.632   8.608   9.970  1.6730 -3.5611 -0.0747
  554MOL0     H76427  11.564   8.558   9.819 -0.2413  0.4774 -1.4196
  554MOL0     H76428  11.713   8.723   9.707 -3.8597 -1.9425  0.2716
  554MOL0     H76429  11.789   8.770   9.860 -1.3090  2.2699  1.6601
  554MOL0     H76430  11.655   8.929   9.804 -0.5531  1.0356  1.5716
  554MOL0     H76431  11.553   8.835   9.928 -1.7947 -1.3669 -0.4750
  554MOL0     H76432  11.574   7.689  10.029  1.1445 -0.9183 -0.4473
  554MOL0     H76433  11.622   7.497   9.904  0.3545 -0.6481 -3.0971
  554MOL0     H76434  11.179   7.188   9.589 -2.2093 -1.5875 -1.0806
  554MOL0     H76435  11.157   7.060   9.370 -0.0518 -0.1893  0.7301
  554MOL0     H76436  11.835   7.116   9.145 -0.8910  1.8510  1.3851
  554MOL0     H76437  11.821   7.329   9.269  0.2455  1.9674 -0.8175
  554MOL0     H76438  11.344   7.792   9.277 -0.3601  1.7721 -0.6293
  554MOL0     H76439  11.378   8.027   9.321  1.3694  0.4243  0.6266
  554MOL0     H76440  11.595   8.326   9.308  4.5930 -1.9844  0.5906
  554MOL0     H76441  11.450   8.224   9.306  0.7324 -4.2933  0.7673
  554MOL0     H76442  11.579   8.320   9.573 -0.8815  6.2735 -0.6209
  554MOL0     H76443  11.455   8.193   9.555 -1.1431  2.3110  0.0880
  554MOL0     H76444  11.346   8.378   9.394  0.0755 -0.7853 -0.4984
  554MOL0     H76445  11.305   8.334   9.568 -1.5956  0.7370 -1.7891
  554MOL0     H76446  11.452   8.505   9.653  2.2382  1.1724  0.4737
  554MOL0     H76447  11.327   8.578   9.567 -0.9878 -1.2867 -0.1445
  554MOL0     H76448  11.712   8.684   9.416  0.8171 -1.8032  3.0461
  554MOL0     H76449  11.797   7.964   9.355 -0.9459  2.7131 -2.4748
  554MOL0     H76450  11.824   7.652   9.403  1.6470 -1.7439 -1.8302
  554MOL0     H76451  11.830   7.648   9.227 -1.8445  0.2202 -0.6844
  554MOL0     H76452  11.909   7.768   9.340  1.7304 -0.7841 -1.2144
  555MOL0     O76453   2.456   5.728   4.668  0.9917  0.7983 -0.2551
  555MOL0     C76454   2.499   5.815   4.590 -0.0204  0.6481 -0.6920
  555MOL0     O76455   2.489   5.951   4.611 -0.1913 -0.2973 -0.5325
  555MOL0     C76456   2.435   5.997   4.727 -0.4531 -0.5318 -0.3388
  555MOL0     C76457   2.447   5.951   4.861  0.0452 -0.4481 -0.8962
  555MOL0     C76458   2.373   6.012   4.964  1.1685 -0.3447 -0.3884
  555MOL0     C76459   2.292   6.122   4.925  0.6055 -0.1554 -0.1320
  555MOL0     O76460   2.230   6.202   5.015 -0.5906 -0.2885  0.2529
  555MOL0     C76461   2.090   6.232   4.998 -0.7233  0.7532 -0.6277
  555MOL0     C76462   2.032   6.303   5.122  0.5565 -0.5703  0.3355
  555MOL0     C76463   1.888   6.332   5.140 -0.1175  0.4583  0.9752
  555MOL0     C76464   1.884   6.431   5.252  0.0608  0.1052  0.8207
  555MOL0     C76465   1.736   6.475   5.273 -0.4558 -0.4884 -0.3794
  555MOL0     C76466   1.726   6.552   5.397 -0.1573 -1.3185 -0.5797
  555MOL0     C76467   1.608   6.658   5.398 -0.3194 -0.8977 -0.0132
  555MOL0     C76468   1.460   6.617   5.434 -0.1333  0.3206  0.4236
  555MOL0     N76469   1.407   6.499   5.351  0.0697 -0.4044 -0.2446
  555MOL0     C76470   1.395   6.503   5.215 -0.0068 -0.2216 -0.3166
  555MOL0     C76471   1.359   6.376   5.180  0.0387  0.5939 -0.4010
  555MOL0     C76472   1.333   6.322   5.041  0.7987  0.1587  0.5663
  555MOL0     C76473   1.459   6.263   4.975 -0.1122  0.0172 -0.3317
  555MOL0     C76474   1.521   6.140   5.046  0.4335  0.1083  0.1976
  555MOL0     C76475   1.610   6.057   4.952  0.5525  0.3038 -0.0467
  555MOL0     O76476   1.519   6.015   4.846 -0.3204  0.1677 -0.2691
  555MOL0     C76477   1.579   5.905   4.783 -0.5502 -0.7643  0.1743
  555MOL0     C76478   1.606   5.899   4.643  0.4898 -0.4036  0.2972
  555MOL0     C76479   1.651   5.784   4.574  0.5010  0.3828 -1.3655
  555MOL0     C76480   1.677   5.796   4.432  0.8333 -0.0591 -0.1386
  555MOL0     C76481   1.648   5.657   4.654 -0.7485  0.0207 -0.2174
  555MOL0     C76482   1.683   5.519   4.602 -0.1296 -0.0332 -0.0335
  555MOL0     O76483   1.654   5.415   4.679  0.5250  0.0524 -0.5860
  555MOL0     C76484   1.686   5.291   4.643 -0.1608  0.4486 -0.1509
  555MOL0     C76485   1.593   5.193   4.624  0.8942  0.1638 -0.6754
  555MOL0     C76486   1.619   5.059   4.599 -0.1639  0.3074  0.2367
  555MOL0     C76487   1.748   5.019   4.593 -0.4836 -0.1429  0.3882
  555MOL0     O76488   1.789   4.885   4.567  1.5821  0.3432  0.0200
  555MOL0     C76489   1.698   4.798   4.499  1.6852  0.9711 -0.2379
  555MOL0     C76490   1.785   4.679   4.445  0.1479  0.1163 -0.6815
  555MOL0     C76491   1.828   4.589   4.567  0.1161  0.5293 -0.0314
  555MOL0     C76492   1.904   4.470   4.526 -1.1479 -0.5227  1.0481
  555MOL0     C76493   1.979   4.401   4.637 -0.6731 -0.1169  0.9568
  555MOL0     C76494   2.052   4.268   4.591 -1.5052  0.4081 -0.8319
  555MOL0     C76495   1.966   4.144   4.596  0.8187 -0.9883  0.2796
  555MOL0     C76496   2.028   4.021   4.532  1.0861 -0.0369 -0.5978
  555MOL0    Cl76497   1.992   4.063   4.366 -0.3609  0.1361 -0.2797
  555MOL0     C76498   1.846   5.110   4.615  1.3022  0.0175 -0.2849
  555MOL0     C76499   1.817   5.245   4.639 -0.3591  0.1582 -0.2862
  555MOL0     O76500   1.758   5.518   4.507 -0.2316 -0.0206 -0.4784
  555MOL0     C76501   1.606   5.669   4.786 -0.0081  0.1087 -0.4425
  555MOL0     C76502   1.582   5.783   4.852  0.5915  0.0270 -1.3157
  555MOL0     N76503   1.348   6.302   5.297 -0.4612  0.0700  0.1284
  555MOL0     N76504   1.372   6.375   5.398  0.0469  0.3196  0.0914
  555MOL0     C76505   2.281   6.170   4.795 -0.7301  0.2798 -0.4815
  555MOL0     C76506   2.359   6.110   4.705  1.2791  0.0683 -0.2014
  555MOL0     C76507   2.569   5.767   4.465  0.4160  0.4733  0.4407
  555MOL0     C76508   2.519   5.651   4.405  0.4734  0.3270  0.8963
  555MOL0     C76509   2.570   5.599   4.279  0.3115 -0.4511  0.8073
  555MOL0     C76510   2.650   5.678   4.203 -0.4465 -0.2291 -0.4407
  555MOL0     O76511   2.695   5.653   4.074 -0.4629  0.2520  0.2532
  555MOL0     C76512   2.675   5.518   4.017 -0.1397 -0.2872  0.9013
  555MOL0     C76513   2.741   5.506   3.870  0.1793  0.4169  1.0781
  555MOL0     C76514   2.890   5.543   3.880 -0.3851 -0.6347 -0.8289
  555MOL0     C76515   2.953   5.546   3.739  0.8092 -0.4825  0.7125
  555MOL0     C76516   2.974   5.409   3.691  0.7823 -1.0220  0.1762
  555MOL0     C76517   2.977   5.295   3.645 -0.2248  0.0837  0.0903
  555MOL0     C76518   2.693   5.797   4.252 -0.2705  0.7146 -0.1961
  555MOL0     C76519   2.646   5.847   4.382 -0.1720 -0.5066  1.1523
  555MOL0     C76520   2.690   5.984   4.414 -0.1347 -0.6993 -0.2872
  555MOL0     H76521   2.516   5.867   4.864 -0.5422 -1.0143 -2.2034
  555MOL0     H76522   2.371   5.961   5.060  1.6430 -0.4376 -0.4253
  555MOL0     H76523   2.044   6.133   5.001  1.2252 -0.3751 -3.1614
  555MOL0     H76524   2.061   6.273   4.901 -0.8605 -0.7532 -1.2562
  555MOL0     H76525   2.066   6.240   5.205 -1.2599  0.1212  1.6666
  555MOL0     H76526   2.091   6.394   5.117  1.1421 -0.9805 -0.4859
  555MOL0     H76527   1.841   6.378   5.052  0.8486 -3.0712 -1.6105
  555MOL0     H76528   1.831   6.241   5.160  0.8209 -0.4020 -0.0889
  555MOL0     H76529   1.914   6.384   5.347 -0.1429  1.2732  1.4737
  555MOL0     H76530   1.946   6.520   5.243 -0.7660  0.6169  0.1147
  555MOL0     H76531   1.667   6.390   5.264  0.7708 -1.3512 -1.9744
  555MOL0     H76532   1.712   6.548   5.196  1.3455 -0.2775 -0.7735
  555MOL0     H76533   1.713   6.495   5.490  1.8638 -0.6374  0.1752
  555MOL0     H76534   1.815   6.613   5.415 -1.3053  0.9166 -2.0099
  555MOL0     H76535   1.604   6.707   5.300 -0.3103  1.5376  1.1264
  555MOL0     H76536   1.620   6.740   5.469 -0.6612  0.5632 -1.5885
  555MOL0     H76537   1.474   6.591   5.540  3.1900 -2.2742 -0.4713
  555MOL0     H76538   1.403   6.710   5.437  0.4301  0.7667 -1.6599
  555MOL0     H76539   1.405   6.589   5.150  0.1616  0.4043  0.5249
  555MOL0     H76540   1.277   6.401   4.990 -1.6799  0.6237  3.6555
  555MOL0     H76541   1.256   6.245   5.038 -0.0902  1.0495 -0.3867
  555MOL0     H76542   1.429   6.220   4.879  0.9513 -0.3896 -0.4951
  555MOL0     H76543   1.528   6.343   4.947 -0.5887  0.2806 -0.7780
  555MOL0     H76544   1.571   6.174   5.137 -0.9888  2.4478  0.1865
  555MOL0     H76545   1.438   6.076   5.077 -0.2151  0.9496  0.2171
  555MOL0     H76546   1.677   6.125   4.899 -0.6587 -0.8453 -3.3278
  555MOL0     H76547   1.662   5.980   5.009 -0.0448  0.4401  0.6933
  555MOL0     H76548   1.604   5.999   4.599 -0.1613 -0.4516  0.2058
  555MOL0     H76549   1.590   5.762   4.376  0.6026  0.3004 -0.0064
  555MOL0     H76550   1.767   5.744   4.398 -1.5734 -4.5515 -0.3314
  555MOL0     H76551   1.682   5.900   4.398 -3.5286  0.8961  1.4909
  555MOL0     H76552   1.489   5.218   4.641  1.0732  0.2672  0.2930
  555MOL0     H76553   1.531   5.000   4.576  0.7239 -0.2672 -1.9226
  555MOL0     H76554   1.609   4.770   4.557  0.9854  0.4846 -1.4980
  555MOL0     H76555   1.651   4.847   4.413 -0.0369 -0.6967 -0.3260
  555MOL0     H76556   1.715   4.620   4.385 -1.2145 -1.3287  2.1387
  555MOL0     H76557   1.869   4.708   4.381  0.3704 -1.7946 -1.3378
  555MOL0     H76558   1.750   4.559   4.637  0.9226 -7.0835 -1.6093
  555MOL0     H76559   1.894   4.662   4.616 -0.0411  3.0256 -3.2101
  555MOL0     H76560   1.973   4.497   4.445 -0.8649 -2.7390  0.4850
  555MOL0     H76561   1.834   4.398   4.482 -0.4138  0.4953 -2.0630
  555MOL0     H76562   2.044   4.477   4.680  0.7637 -0.1862 -0.9567
  555MOL0     H76563   1.922   4.376   4.727  1.5133 -2.0405  1.8962
  555MOL0     H76564   2.130   4.235   4.660 -3.0435  1.2396  1.4117
  555MOL0     H76565   2.089   4.284   4.489  1.1532  5.4651  0.5780
  555MOL0     H76566   1.868   4.160   4.549  1.0628 -1.5358 -0.4375
  555MOL0     H76567   1.943   4.130   4.702 -2.3868 -0.2647 -0.2103
  555MOL0     H76568   1.974   3.931   4.561  1.2572  0.1389  0.3013
  555MOL0     H76569   2.134   4.008   4.556  0.3406 -2.7404  1.9100
  555MOL0     H76570   1.950   5.079   4.605  0.9333 -1.0054 -1.2180
  555MOL0     H76571   1.888   5.317   4.678 -3.3919  3.0605  0.2477
  555MOL0     H76572   1.598   5.587   4.857  0.1515  3.0392  3.2836
  555MOL0     H76573   1.548   5.784   4.955 -2.6991  0.2188 -2.2896
  555MOL0     H76574   2.223   6.260   4.779  0.1364  1.1334  1.0329
  555MOL0     H76575   2.361   6.150   4.604 -3.8444 -2.0643 -1.4790
  555MOL0     H76576   2.447   5.596   4.465 -0.7232 -2.2349 -2.5267
  555MOL0     H76577   2.527   5.510   4.234 -0.0886 -0.3662  1.0222
  555MOL0     H76578   2.704   5.438   4.085  2.4815  2.4647  3.2929
  555MOL0     H76579   2.567   5.502   4.009  0.0594 -0.8059 -1.7882
  555MOL0     H76580   2.699   5.579   3.801  0.8535  1.3611  1.6390
  555MOL0     H76581   2.733   5.407   3.823 -3.6375  2.7590 -4.3172
  555MOL0     H76582   2.898   5.642   3.928 -1.2383 -0.8908 -0.1324
  555MOL0     H76583   2.938   5.469   3.944 -0.3899  0.0986  0.0445
  555MOL0     H76584   3.052   5.593   3.746  0.6808  0.1267 -1.1389
  555MOL0     H76585   2.905   5.605   3.661 -1.2541  1.5134  3.2972
  555MOL0     H76586   2.965   5.195   3.609  0.0071  1.1995 -3.5213
  555MOL0     H76587   2.762   5.843   4.181  1.0715  1.0939  1.2918
  555MOL0     H76588   2.745   6.022   4.327  1.1549  0.2400  0.9032
  555MOL0     H76589   2.609   6.053   4.437 -1.0120 -0.2041 -4.0812
  555MOL0     H76590   2.751   5.986   4.505  1.2669 -1.7285 -1.1510
  556MOL0     O76591   4.004   4.810   2.922 -0.2880 -0.3442 -0.5956
  556MOL0     C76592   4.087   4.900   2.880  0.0766  0.1712 -0.5830
  556MOL0     O76593   4.148   5.002   2.960 -0.1487 -0.7941  0.3942
  556MOL0     C76594   4.148   4.974   3.092 -0.4326 -0.1992  0.5329
  556MOL0     C76595   4.074   5.045   3.184  0.3808  0.4304  0.2804
  556MOL0     C76596   4.085   5.021   3.319 -0.8076  0.7032  0.3361
  556MOL0     C76597   4.175   4.920   3.363 -0.9070 -0.3812 -0.0109
  556MOL0     O76598   4.176   4.881   3.493 -0.2802  0.0316  0.2854
  556MOL0     C76599   4.090   4.941   3.586  0.6141  0.0187 -0.5869
  556MOL0     C76600   4.093   4.884   3.734 -0.3566  0.8623 -0.1350
  556MOL0     C76601   4.002   4.977   3.827  0.0468 -0.4090  0.4906
  556MOL0     C76602   4.027   4.960   3.976 -0.8309  0.4299  0.7773
  556MOL0     C76603   3.975   5.079   4.059 -0.6552 -0.0630  0.1742
  556MOL0     C76604   4.019   5.087   4.208  0.1011 -0.3389  0.2274
  556MOL0     C76605   3.932   4.994   4.284 -0.6417  0.5816 -1.1127
  556MOL0     C76606   3.979   4.987   4.429  0.0790  0.5644 -0.1724
  556MOL0     N76607   3.932   5.100   4.511 -0.0744 -0.0889 -0.1666
  556MOL0     C76608   3.814   5.106   4.581  0.7495  0.8469  0.0795
  556MOL0     C76609   3.811   5.234   4.626  0.7184 -0.6010 -0.1032
  556MOL0     C76610   3.694   5.288   4.702  0.1914  0.0581 -0.1735
  556MOL0     C76611   3.565   5.288   4.623 -0.7250 -0.2842 -0.3476
  556MOL0     C76612   3.566   5.418   4.536  0.7823  1.1648  0.0265
  556MOL0     C76613   3.498   5.404   4.403 -0.0232  0.1009  1.0062
  556MOL0     O76614   3.584   5.323   4.312 -1.0249 -0.2890  0.1548
  556MOL0     C76615   3.516   5.287   4.193  0.5554  0.1249 -0.2909
  556MOL0     C76616   3.401   5.347   4.140  0.8506 -0.8464 -0.6299
  556MOL0     C76617   3.348   5.310   4.019 -0.2026  0.7354 -0.0457
  556MOL0     C76618   3.224   5.385   3.968 -0.8302 -1.0920 -0.1002
  556MOL0     C76619   3.405   5.202   3.947 -0.0208 -0.6092 -0.3421
  556MOL0     C76620   3.354   5.156   3.820  1.3745  0.7709 -0.4062
  556MOL0     O76621   3.348   5.020   3.803 -0.0313  0.4926 -0.0549
  556MOL0     C76622   3.299   4.985   3.675  0.0686 -0.3128  0.4562
  556MOL0     C76623   3.376   4.901   3.592 -0.2298 -0.5422  0.8655
  556MOL0     C76624   3.314   4.846   3.474 -0.7996 -0.3701  0.1129
  556MOL0     C76625   3.186   4.873   3.429 -0.1535 -0.2209  0.8693
  556MOL0     O76626   3.140   4.811   3.313 -0.0190 -0.3869  0.2688
  556MOL0     C76627   2.998   4.808   3.283 -0.4282  0.6852 -0.1612
  556MOL0     C76628   2.975   4.690   3.178  1.2821  0.3661 -0.2073
  556MOL0     C76629   2.984   4.555   3.260  0.1465  0.4122  0.0968
  556MOL0     C76630   2.996   4.442   3.170 -0.1074 -0.4155 -0.4340
  556MOL0     C76631   2.964   4.309   3.238  0.1641 -0.0788  0.2006
  556MOL0     C76632   3.006   4.187   3.154 -0.6579 -0.3588 -0.0428
  556MOL0     C76633   2.984   4.051   3.216  0.7944  0.5118  0.3182
  556MOL0     C76634   2.837   4.018   3.240  0.5064  0.3921  1.8496
  556MOL0    Cl76635   2.755   4.016   3.086 -0.4740 -0.1519  0.0515
  556MOL0     C76636   3.115   4.957   3.520  0.3593  1.7182  0.3981
  556MOL0     C76637   3.171   5.006   3.637 -0.5629 -0.3171  1.1033
  556MOL0     O76638   3.336   5.232   3.730  0.3328  0.6773 -0.1240
  556MOL0     C76639   3.513   5.133   3.996  0.4124 -1.0955 -0.9158
  556MOL0     C76640   3.571   5.181   4.122  0.0735 -0.1721  0.5391
  556MOL0     N76641   3.922   5.305   4.587  0.5471  0.1732 -0.2268
  556MOL0     N76642   4.000   5.214   4.527 -0.1539  0.1397  0.8361
  556MOL0     C76643   4.265   4.856   3.270  0.1883 -0.2532  0.1493
  556MOL0     C76644   4.247   4.889   3.130  0.1522  0.0057 -0.0724
  556MOL0     C76645   4.104   4.904   2.733 -0.1742 -0.8885  0.1590
  556MOL0     C76646   4.091   5.030   2.676  0.0617  0.6469 -0.3164
  556MOL0     C76647   4.111   5.039   2.538 -0.4390 -0.3031  0.1399
  556MOL0     C76648   4.139   4.932   2.457  0.3504  0.8625  0.3459
  556MOL0     O76649   4.149   4.969   2.326 -0.1814  0.0346  0.3142
  556MOL0     C76650   4.167   4.873   2.221  1.3072  0.0591 -0.0721
  556MOL0     C76651   4.259   4.948   2.119 -0.4117 -0.1719 -1.1879
  556MOL0     C76652   4.384   5.012   2.193 -0.8714  0.7632 -0.2476
  556MOL0     C76653   4.494   5.065   2.093 -0.4647  0.0870 -0.5028
  556MOL0     C76654   4.576   5.163   2.170 -0.5517  0.2846 -0.6284
  556MOL0     C76655   4.654   5.227   2.229  0.4362  0.5184  0.2849
  556MOL0     C76656   4.160   4.808   2.516 -0.3710  1.0100  0.1843
  556MOL0     C76657   4.138   4.795   2.657  0.1006 -0.4958 -0.2178
  556MOL0     C76658   4.149   4.653   2.717  0.9327 -0.6932  0.0657
  556MOL0     H76659   4.006   5.122   3.149  0.0983  2.3858  4.4853
  556MOL0     H76660   4.011   5.065   3.384 -1.9857 -2.9847  1.7466
  556MOL0     H76661   3.988   4.929   3.549  0.2942  0.5831  0.0775
  556MOL0     H76662   4.119   5.047   3.592 -1.9383  0.7722 -0.3674
  556MOL0     H76663   4.059   4.780   3.738 -0.1556  0.7152 -1.6345
  556MOL0     H76664   4.193   4.872   3.776 -0.3081 -0.8165 -0.6485
  556MOL0     H76665   4.020   5.079   3.793 -1.3019 -0.7850 -1.6060
  556MOL0     H76666   3.896   4.952   3.815  0.9169 -4.5127 -0.2761
  556MOL0     H76667   3.978   4.866   4.004 -3.3518  1.2942 -0.4385
  556MOL0     H76668   4.136   4.963   3.971 -0.8953  1.1210 -1.9769
  556MOL0     H76669   3.867   5.086   4.044 -0.3966  2.9329 -0.9505
  556MOL0     H76670   4.025   5.169   4.020  1.5700 -1.0991  0.4330
  556MOL0     H76671   4.124   5.058   4.202 -0.2890 -2.6987  2.5780
  556MOL0     H76672   4.003   5.188   4.245 -2.4360 -0.1681 -1.0868
  556MOL0     H76673   3.940   4.895   4.238 -0.0603 -1.6884  3.3701
  556MOL0     H76674   3.829   5.030   4.277 -1.4582 -0.8884  1.7964
  556MOL0     H76675   3.948   4.889   4.466 -0.5487  0.5972 -0.5936
  556MOL0     H76676   4.088   4.989   4.434  0.0209  0.4073  2.3231
  556MOL0     H76677   3.737   5.029   4.588  3.3848 -2.0055  0.0601
  556MOL0     H76678   3.704   5.388   4.745 -2.4948 -0.1722  1.1551
  556MOL0     H76679   3.670   5.223   4.787  0.3230  1.4051  0.9304
  556MOL0     H76680   3.550   5.197   4.565  2.5188 -1.0420 -0.2205
  556MOL0     H76681   3.481   5.304   4.691 -2.2877 -1.2981 -1.9761
  556MOL0     H76682   3.523   5.504   4.588 -1.1818  0.5951 -0.5604
  556MOL0     H76683   3.669   5.448   4.515  0.4698  0.7905 -2.4263
  556MOL0     H76684   3.400   5.362   4.425 -0.7841  0.9113 -0.6272
  556MOL0     H76685   3.487   5.504   4.358 -0.4338  0.8378  2.6590
  556MOL0     H76686   3.353   5.433   4.186  1.0783  1.3158 -4.0797
  556MOL0     H76687   3.155   5.314   3.920 -1.0704 -2.7457  2.5166
  556MOL0     H76688   3.256   5.458   3.893 -2.8460  1.2692  1.2112
  556MOL0     H76689   3.180   5.442   4.050  1.0588 -2.7216  2.2017
  556MOL0     H76690   3.473   4.861   3.620  0.8512  2.2119  1.3208
  556MOL0     H76691   3.379   4.787   3.411  0.8632  3.6319 -2.3061
  556MOL0     H76692   2.925   4.786   3.362 -0.5777 -2.0431 -0.9448
  556MOL0     H76693   2.961   4.899   3.235 -2.1972  2.2853  3.7639
  556MOL0     H76694   2.878   4.709   3.130  2.1391  5.1445 -0.5033
  556MOL0     H76695   3.059   4.709   3.112  0.0353  2.6861 -1.2329
  556MOL0     H76696   2.891   4.526   3.310  0.3729 -3.5798 -1.3737
  556MOL0     H76697   3.066   4.564   3.331  2.2254  0.3621 -2.1767
  556MOL0     H76698   3.098   4.437   3.132 -0.3865 -0.1516 -1.2446
  556MOL0     H76699   2.927   4.457   3.086 -1.2094 -1.6762  0.2081
  556MOL0     H76700   3.015   4.307   3.334  2.7418  0.8007 -1.0578
  556MOL0     H76701   2.855   4.309   3.247  0.0268 -1.4304 -1.0600
  556MOL0     H76702   3.113   4.191   3.129 -1.1571  3.1677 -2.3815
  556MOL0     H76703   2.957   4.177   3.057  0.0697 -5.3213 -0.1576
  556MOL0     H76704   3.025   4.055   3.318  2.7305 -1.9039 -0.2629
  556MOL0     H76705   3.030   3.969   3.161 -0.7449 -2.0263  2.5640
  556MOL0     H76706   2.780   4.071   3.318 -1.4671 -2.1370  2.2483
  556MOL0     H76707   2.835   3.913   3.269 -1.2535 -0.2260 -0.3111
  556MOL0     H76708   3.014   4.988   3.494 -0.0081 -0.6455 -1.3014
  556MOL0     H76709   3.109   5.066   3.704 -1.1017 -2.6771  2.8387
  556MOL0     H76710   3.560   5.058   3.933  0.6946 -1.6552 -0.0692
  556MOL0     H76711   3.651   5.121   4.163  1.9843  1.4290 -0.6793
  556MOL0     H76712   4.347   4.789   3.291  0.5430 -0.1521 -0.8592
  556MOL0     H76713   4.308   4.837   3.056  0.1207  1.2269 -0.9768
  556MOL0     H76714   4.076   5.112   2.746 -1.3405 -0.2886  0.5230
  556MOL0     H76715   4.121   5.141   2.501 -0.3277  0.1528  1.3540
  556MOL0     H76716   4.216   4.781   2.257  1.1077  0.6075  1.6902
  556MOL0     H76717   4.076   4.845   2.168  2.4460 -0.6944 -1.7456
  556MOL0     H76718   4.195   5.029   2.084  0.6688  1.8335  1.1318
  556MOL0     H76719   4.284   4.868   2.049  0.8977  0.2425 -1.2325
  556MOL0     H76720   4.353   5.086   2.268 -2.3730 -2.2125  2.2681
  556MOL0     H76721   4.425   4.940   2.264  0.5643  1.7561 -0.0265
  556MOL0     H76722   4.452   5.116   2.006 -0.9159  0.5399 -0.0224
  556MOL0     H76723   4.554   4.978   2.061  3.1672  1.7722  1.1356
  556MOL0     H76724   4.731   5.283   2.279  0.6026  1.9800 -1.4863
  556MOL0     H76725   4.165   4.721   2.452 -3.9316  2.5259 -2.4895
  556MOL0     H76726   4.228   4.600   2.662  1.2980 -0.1483  0.0618
  556MOL0     H76727   4.186   4.659   2.819  1.1118 -1.5466  0.0593
  556MOL0     H76728   4.048   4.612   2.718 -0.2083  1.9460  1.3364
  557MOL0     O76729   1.046   7.637   0.418 -0.7778 -0.4454 -0.9201
  557MOL0     C76730   0.945   7.606   0.488 -0.3045 -0.4435  0.1299
  557MOL0     O76731   0.898   7.689   0.582 -0.1499  0.7974 -0.5116
  557MOL0     C76732   0.964   7.785   0.650 -0.5475  0.7199 -0.2024
  557MOL0     C76733   1.106   7.790   0.660 -1.1630  0.5140 -0.7324
  557MOL0     C76734   1.164   7.871   0.757  0.1522 -0.7954 -0.4438
  557MOL0     C76735   1.086   7.965   0.832  0.8223  0.4039  0.5391
  557MOL0     O76736   1.142   8.028   0.929  0.1656 -0.6932  0.1492
  557MOL0     C76737   1.119   7.976   1.058  0.4079 -0.3756  0.5857
  557MOL0     C76738   1.123   7.830   1.086  0.4091 -0.3704  1.0420
  557MOL0     C76739   1.260   7.768   1.077 -1.1728 -0.1590 -0.3883
  557MOL0     C76740   1.262   7.612   1.086 -0.4819  0.4394  0.5891
  557MOL0     C76741   1.405   7.556   1.124 -0.4688  0.3247 -0.5331
  557MOL0     C76742   1.492   7.559   1.003 -0.4105  0.2745  0.1175
  557MOL0     C76743   1.626   7.486   1.029 -0.3445  0.2459  0.6399
  557MOL0     C76744   1.743   7.582   1.081  0.6715 -0.4104  0.4187
  557MOL0     N76745   1.864   7.506   1.121 -0.5571 -0.5187 -0.7364
  557MOL0     C76746   1.886   7.414   1.221  0.3839  0.7805  0.4007
  557MOL0     C76747   2.018   7.397   1.231 -0.1673  0.4037 -0.3411
  557MOL0     C76748   2.068   7.287   1.325 -0.5529 -0.4314 -0.4333
  557MOL0     C76749   1.978   7.271   1.450 -0.5122 -1.2516 -0.2155
  557MOL0     C76750   2.063   7.182   1.550  0.3722  0.1519 -0.6616
  557MOL0     C76751   2.011   7.187   1.688 -0.9948  0.1664 -0.6075
  557MOL0     O76752   1.877   7.142   1.697 -0.1004  0.9747  0.6575
  557MOL0     C76753   1.795   7.188   1.803  0.7333 -0.0647  0.4733
  557MOL0     C76754   1.654   7.184   1.776 -1.2538 -0.0283 -0.3055
  557MOL0     C76755   1.559   7.204   1.878  0.8480 -0.5106  0.1020
  557MOL0     C76756   1.416   7.192   1.834 -0.3169 -0.3322 -0.2812
  557MOL0     C76757   1.600   7.239   2.011 -0.0557 -0.2240 -0.0752
  557MOL0     C76758   1.511   7.272   2.126  0.5820 -0.0202 -0.6153
  557MOL0     O76759   1.558   7.353   2.230 -0.2057  0.1041  0.1189
  557MOL0     C76760   1.462   7.433   2.295  0.3699  0.5239 -0.7440
  557MOL0     C76761   1.511   7.487   2.416 -0.1282  0.0717  0.5212
  557MOL0     C76762   1.424   7.559   2.500  0.2438 -0.2502  0.0316
  557MOL0     C76763   1.298   7.600   2.449  0.0237  0.2746 -0.0032
  557MOL0     O76764   1.221   7.686   2.537  0.1777  0.4962  0.1922
  557MOL0     C76765   1.091   7.714   2.509  0.4313  0.4326  0.1819
  557MOL0     C76766   1.038   7.790   2.625 -0.1424  0.7567  0.2158
  557MOL0     C76767   1.024   7.711   2.757 -0.2216 -0.1968 -0.2333
  557MOL0     C76768   1.003   7.819   2.872  0.2241  0.0667 -0.4676
  557MOL0     C76769   0.964   7.727   2.995 -0.8567  0.4099 -0.2667
  557MOL0     C76770   0.914   7.796   3.127 -0.4502 -0.7618  0.2659
  557MOL0     C76771   0.968   7.942   3.158 -0.5464 -0.4114  0.1176
  557MOL0     C76772   0.935   7.992   3.289 -0.2332 -0.3549  0.3886
  557MOL0    Cl76773   0.993   8.168   3.309  0.0517  0.5582  0.4963
  557MOL0     C76774   1.254   7.555   2.327  0.0605 -0.1985  0.2243
  557MOL0     C76775   1.337   7.477   2.256  0.2719  1.6407 -0.2866
  557MOL0     O76776   1.392   7.225   2.125 -0.5530  0.1216 -0.5244
  557MOL0     C76777   1.739   7.260   2.033  0.1468 -0.0375  0.1498
  557MOL0     C76778   1.831   7.240   1.930  0.4550 -0.1679 -0.5117
  557MOL0     N76779   2.087   7.487   1.160 -0.9504 -0.1890 -0.4070
  557MOL0     N76780   1.997   7.549   1.095 -0.2034 -0.2200  0.7917
  557MOL0     C76781   0.947   7.965   0.809  0.8995  0.5718  0.3535
  557MOL0     C76782   0.887   7.883   0.720  0.6823  0.8204 -0.3829
  557MOL0     C76783   0.867   7.476   0.468  1.2272  0.1034  0.3538
  557MOL0     C76784   0.786   7.434   0.577  0.2123 -0.2028  0.3298
  557MOL0     C76785   0.696   7.333   0.563 -0.1814 -0.8110  1.0693
  557MOL0     C76786   0.701   7.250   0.461 -0.6978 -0.6454  0.0359
  557MOL0     O76787   0.618   7.145   0.476  0.6829  0.3812 -0.3246
  557MOL0     C76788   0.636   7.030   0.394  0.6376  0.6269  1.0867
  557MOL0     C76789   0.566   6.907   0.448  0.0672  0.3117  0.2762
  557MOL0     C76790   0.599   6.781   0.369 -0.5141  1.0480 -0.0139
  557MOL0     C76791   0.729   6.713   0.417  0.8786 -1.1611  0.7771
  557MOL0     C76792   0.713   6.652   0.542 -0.1853  0.7397 -1.1408
  557MOL0     C76793   0.710   6.582   0.640  0.3164  0.9725 -1.0823
  557MOL0     C76794   0.777   7.287   0.343 -0.2543 -0.0692 -0.6956
  557MOL0     C76795   0.863   7.399   0.344  0.5805  1.1546  0.5289
  557MOL0     C76796   0.933   7.439   0.223 -0.3968  0.5621  1.1086
  557MOL0     H76797   1.162   7.722   0.597 -3.2739  0.3232 -2.5278
  557MOL0     H76798   1.272   7.874   0.772  0.2116 -0.3791 -0.9486
  557MOL0     H76799   1.029   8.028   1.092 -0.3258 -1.1269 -0.1572
  557MOL0     H76800   1.187   8.025   1.128  0.4843  2.6274 -1.3847
  557MOL0     H76801   1.077   7.813   1.184 -0.2026  0.8402  0.9876
  557MOL0     H76802   1.055   7.777   1.019 -0.5279 -0.6439  2.1877
  557MOL0     H76803   1.319   7.792   0.988 -1.7098 -1.0533 -1.0048
  557MOL0     H76804   1.323   7.812   1.155 -0.3415 -1.8376 -0.0682
  557MOL0     H76805   1.192   7.584   1.166  0.1747 -1.9842  0.4045
  557MOL0     H76806   1.227   7.572   0.991  1.7549  1.4650 -0.7417
  557MOL0     H76807   1.382   7.456   1.162 -0.6241  0.0481 -1.3416
  557MOL0     H76808   1.449   7.619   1.202 -2.0839  1.1345 -0.2152
  557MOL0     H76809   1.438   7.523   0.915  0.6351  2.8662 -1.7196
  557MOL0     H76810   1.507   7.664   0.977 -3.1228  0.9842  1.0621
  557MOL0     H76811   1.654   7.439   0.934 -2.8877  1.2367 -0.7024
  557MOL0     H76812   1.603   7.405   1.100 -1.1123  0.3402  0.5100
  557MOL0     H76813   1.766   7.648   0.997 -0.6088 -0.9174 -0.3577
  557MOL0     H76814   1.702   7.649   1.157 -0.4597  2.1184 -2.2334
  557MOL0     H76815   1.801   7.368   1.271  0.4570  0.3490  0.1309
  557MOL0     H76816   2.173   7.304   1.353 -0.1903  0.0553 -2.0354
  557MOL0     H76817   2.069   7.194   1.267 -1.2618 -1.7310  1.5100
  557MOL0     H76818   1.952   7.371   1.487 -1.1315 -1.3055 -0.5119
  557MOL0     H76819   1.880   7.232   1.423  0.2724 -2.9680 -0.7037
  557MOL0     H76820   2.068   7.081   1.508  0.5313 -0.4601  0.7758
  557MOL0     H76821   2.168   7.212   1.551 -0.0687  1.7610  0.3538
  557MOL0     H76822   2.070   7.129   1.759 -0.7773  2.8365  1.5458
  557MOL0     H76823   2.021   7.294   1.708 -2.1675  0.2007 -0.1376
  557MOL0     H76824   1.641   7.139   1.678 -0.2483 -4.4271  1.3249
  557MOL0     H76825   1.353   7.280   1.852  2.0559  1.5511 -0.6872
  557MOL0     H76826   1.364   7.110   1.886  1.3083  0.6851  3.2924
  557MOL0     H76827   1.412   7.170   1.727 -2.1781 -0.0327 -0.3132
  557MOL0     H76828   1.605   7.467   2.465  0.2538  0.7609  0.0819
  557MOL0     H76829   1.459   7.596   2.596 -1.7089  0.4198  0.5397
  557MOL0     H76830   1.083   7.777   2.419 -3.1546 -1.3131 -0.9125
  557MOL0     H76831   1.025   7.628   2.497  0.6277  0.3149 -0.0528
  557MOL0     H76832   1.103   7.874   2.653  0.5222 -0.1938  1.6593
  557MOL0     H76833   0.936   7.827   2.610 -0.0554 -0.3846 -4.9952
  557MOL0     H76834   1.114   7.649   2.757  1.1988  1.6926 -2.3266
  557MOL0     H76835   0.933   7.651   2.748 -0.9407  0.8382 -0.0777
  557MOL0     H76836   0.912   7.876   2.855  0.6840  0.5863 -1.2287
  557MOL0     H76837   1.086   7.888   2.887  0.0678 -0.0457  1.1519
  557MOL0     H76838   0.888   7.654   2.965  0.2406 -1.6169  1.6218
  557MOL0     H76839   1.052   7.666   3.015 -1.6250 -1.5865 -2.4780
  557MOL0     H76840   0.934   7.729   3.211  1.0567  1.8311  2.1451
  557MOL0     H76841   0.807   7.809   3.107 -0.0319  0.2727 -1.5442
  557MOL0     H76842   0.924   8.008   3.083 -2.1933 -0.3554  1.0728
  557MOL0     H76843   1.076   7.944   3.145 -0.6768  0.9091 -0.9598
  557MOL0     H76844   0.973   7.933   3.373  0.8538  3.0703  2.4897
  557MOL0     H76845   0.826   7.984   3.283 -0.0792 -2.0129 -0.7961
  557MOL0     H76846   1.151   7.574   2.297  0.4972 -0.6899 -1.7704
  557MOL0     H76847   1.304   7.454   2.155  3.5320 -0.2268 -1.0678
  557MOL0     H76848   1.766   7.297   2.132 -1.2620  5.5928 -1.1965
  557MOL0     H76849   1.932   7.230   1.969 -0.8832 -2.8343  2.7612
  557MOL0     H76850   0.871   8.027   0.857 -0.9586 -1.3403  0.0353
  557MOL0     H76851   0.779   7.872   0.714  0.6877 -1.1742  1.5624
  557MOL0     H76852   0.781   7.492   0.668 -1.1899 -1.3965  1.0709
  557MOL0     H76853   0.619   7.312   0.636 -1.1065 -0.8226  0.1127
  557MOL0     H76854   0.608   7.050   0.290  1.8357  1.7342  0.9630
  557MOL0     H76855   0.743   7.008   0.389  0.1079 -2.1754 -2.8322
  557MOL0     H76856   0.457   6.919   0.447 -0.0753 -0.8405  0.4580
  557MOL0     H76857   0.591   6.889   0.553  2.9380 -2.4542 -0.7306
  557MOL0     H76858   0.527   6.705   0.400 -0.5255  1.4083  0.8710
  557MOL0     H76859   0.595   6.807   0.262  0.5505  1.0167 -0.0714
  557MOL0     H76860   0.817   6.776   0.409  0.5722 -0.8386 -0.1352
  557MOL0     H76861   0.762   6.633   0.351 -1.5976 -2.3813  0.8913
  557MOL0     H76862   0.717   6.510   0.719 -0.6714  0.8725 -1.0847
  557MOL0     H76863   0.773   7.229   0.251  1.0402 -1.3510  0.0039
  557MOL0     H76864   1.040   7.460   0.236 -0.8282  2.1516  2.3150
  557MOL0     H76865   0.914   7.367   0.143  1.7408 -2.4414  3.0769
  557MOL0     H76866   0.888   7.534   0.194  2.9360  2.0836  0.4387
  558MOL0     O76867   9.649   0.551   0.394  0.7685  0.2478 -0.6598
  558MOL0     C76868   9.626   0.624   0.493  0.5250  1.2524 -0.0073
  558MOL0     O76869   9.588   0.747   0.493 -0.9919  0.0477  0.2666
  558MOL0     C76870   9.590   0.810   0.369  0.2689  0.2751  0.5765
  558MOL0     C76871   9.521   0.759   0.256  0.4744  0.1685  0.0899
  558MOL0     C76872   9.506   0.827   0.137 -0.3329 -0.8246  0.7604
  558MOL0     C76873   9.577   0.955   0.120 -0.5610 -0.0189 -0.5636
  558MOL0     O76874   9.564   1.023   0.004  0.6166 -0.7602  0.4800
  558MOL0     C76875   9.461   1.127   0.014 -0.5887  0.6494 -0.5758
  558MOL0     C76876   9.322   1.070  -0.009 -0.1775  0.8489  1.2739
  558MOL0     C76877   9.264   1.103  -0.139  0.0772  0.4275  0.5126
  558MOL0     C76878   9.337   1.015  -0.245 -0.9082  0.1530 -0.6989
  558MOL0     C76879   9.287   1.044  -0.385  0.7594 -0.5344  0.4892
  558MOL0     C76880   9.390   1.003  -0.494 -0.2291  0.2831  0.0737
  558MOL0     C76881   9.345   1.032  -0.641 -1.3031 -0.2902  0.2608
  558MOL0     C76882   9.449   1.027  -0.752  1.1649  0.2322  0.5466
  558MOL0     N76883   9.516   0.897  -0.762 -0.1693 -0.3794  0.7135
  558MOL0     C76884   9.446   0.786  -0.805 -0.8772 -0.3108 -0.1537
  558MOL0     C76885   9.552   0.703  -0.851  0.8329  0.3496  0.1337
  558MOL0     C76886   9.529   0.566  -0.928  0.7438 -0.0127 -0.5499
  558MOL0     C76887   9.422   0.574  -1.030 -0.3197 -1.3810 -0.4552
  558MOL0     C76888   9.343   0.441  -1.023 -1.0564 -0.0373 -0.4435
  558MOL0     C76889   9.251   0.415  -0.907  0.2759 -0.8409  0.6216
  558MOL0     O76890   9.160   0.528  -0.894  0.2732  0.2192 -0.0148
  558MOL0     C76891   9.094   0.545  -0.777 -0.5887 -0.5254 -0.3867
  558MOL0     C76892   9.040   0.445  -0.699  0.6507 -0.0187 -0.1435
  558MOL0     C76893   8.982   0.468  -0.576  0.1471  0.0575  1.5692
  558MOL0     C76894   8.944   0.350  -0.487 -0.1783  0.1503 -0.6782
  558MOL0     C76895   8.953   0.608  -0.544 -0.6698  0.3057 -0.4720
  558MOL0     C76896   8.883   0.661  -0.415  0.1529  0.7196 -0.0885
  558MOL0     O76897   8.792   0.572  -0.374 -0.5454  0.3891  0.7399
  558MOL0     C76898   8.719   0.580  -0.260 -0.2115 -0.0072 -0.0066
  558MOL0     C76899   8.740   0.485  -0.164  0.1170 -0.8282  0.3324
  558MOL0     C76900   8.653   0.469  -0.054  0.4261 -0.1375  0.3639
  558MOL0     C76901   8.545   0.556  -0.038 -0.0703  0.2798 -0.3587
  558MOL0     O76902   8.468   0.535   0.072  0.2997 -0.1721  0.6502
  558MOL0     C76903   8.481   0.659   0.158  0.2781  0.0655  0.5369
  558MOL0     C76904   8.444   0.624   0.303  0.4275 -0.0036  0.4854
  558MOL0     C76905   8.291   0.607   0.333 -0.1226 -0.6310  0.8052
  558MOL0     C76906   8.212   0.724   0.278 -0.3760  0.2935  1.0582
  558MOL0     C76907   8.061   0.711   0.320  0.0600 -0.6254 -1.1905
  558MOL0     C76908   7.973   0.829   0.275  0.2761 -0.0334  0.6236
  558MOL0     C76909   7.820   0.798   0.298  0.4983 -0.3347 -0.0677
  558MOL0     C76910   7.732   0.911   0.264 -0.0812  0.6246 -0.1536
  558MOL0    Cl76911   7.557   0.871   0.308  0.0089  0.1416  0.1486
  558MOL0     C76912   8.517   0.643  -0.143  0.1310 -0.6602  0.1720
  558MOL0     C76913   8.601   0.660  -0.252 -0.1217 -0.4567  0.2466
  558MOL0     O76914   8.906   0.769  -0.365 -0.0959  0.2245 -0.6551
  558MOL0     C76915   8.993   0.710  -0.635  1.5066  0.3563 -0.5165
  558MOL0     C76916   9.065   0.675  -0.752 -0.6125 -0.3098  0.2334
  558MOL0     N76917   9.677   0.762  -0.832 -0.1069 -0.0674  0.2887
  558MOL0     N76918   9.657   0.881  -0.775 -0.2221  1.0907  0.1775
  558MOL0     C76919   9.636   1.005   0.232  0.1908 -0.2682 -0.6429
  558MOL0     C76920   9.642   0.932   0.352 -0.6461 -0.3828 -0.7406
  558MOL0     C76921   9.659   0.570   0.628  0.5193 -0.5933  0.6524
  558MOL0     C76922   9.724   0.662   0.716 -1.8923  0.2096  0.2134
  558MOL0     C76923   9.773   0.616   0.845 -0.0669 -0.1281 -0.0336
  558MOL0     C76924   9.735   0.494   0.899  0.3862 -0.2459  0.1896
  558MOL0     O76925   9.801   0.444   1.012 -0.1029 -0.9872  1.2381
  558MOL0     C76926   9.781   0.528   1.125 -1.3857  0.5480 -0.3789
  558MOL0     C76927   9.835   0.434   1.243 -0.8090 -0.3811 -0.1976
  558MOL0     C76928   9.861   0.517   1.375 -0.2918  0.4839 -0.6226
  558MOL0     C76929   9.731   0.557   1.437 -1.0822 -0.0963 -0.0095
  558MOL0     C76930   9.758   0.634   1.560 -0.0502  1.5289 -0.0883
  558MOL0     C76931   9.785   0.699   1.659 -0.3779 -1.0724 -0.8385
  558MOL0     C76932   9.660   0.415   0.814  0.8124  0.4425  0.3941
  558MOL0     C76933   9.624   0.448   0.683 -0.9362  0.2887  0.2392
  558MOL0     C76934   9.545   0.347   0.607 -0.5499  0.5453  1.4365
  558MOL0     H76935   9.468   0.665   0.271  0.5647 -0.3527 -2.4260
  558MOL0     H76936   9.456   0.785   0.050  2.7340 -2.6644 -0.2573
  558MOL0     H76937   9.478   1.223  -0.036  1.8242 -0.2114 -1.5465
  558MOL0     H76938   9.456   1.156   0.119  1.5456  1.9136 -0.7670
  558MOL0     H76939   9.303   0.965   0.019 -1.6484  0.4381 -0.9957
  558MOL0     H76940   9.258   1.123   0.062  3.6246  3.2391  3.2182
  558MOL0     H76941   9.160   1.069  -0.138 -0.5893  2.3570  1.0423
  558MOL0     H76942   9.278   1.209  -0.160  1.9311 -0.1740 -1.8113
  558MOL0     H76943   9.445   1.032  -0.238 -0.8706 -0.6155  1.2580
  558MOL0     H76944   9.327   0.907  -0.231  1.8693  0.0107  0.7691
  558MOL0     H76945   9.280   1.152  -0.396  2.1146 -0.4970 -0.3975
  558MOL0     H76946   9.187   1.001  -0.395  0.5811  0.1719 -1.1969
  558MOL0     H76947   9.485   1.055  -0.478  1.4579 -3.1998  2.8023
  558MOL0     H76948   9.411   0.896  -0.485 -3.6283 -0.3760  2.5505
  558MOL0     H76949   9.315   1.138  -0.644  2.6778  1.0759  1.9895
  558MOL0     H76950   9.261   0.971  -0.676 -0.7248 -2.1195  1.9073
  558MOL0     H76951   9.402   1.048  -0.849  1.9140  2.1605  0.5644
  558MOL0     H76952   9.519   1.105  -0.724  2.0502 -0.7754  1.2221
  558MOL0     H76953   9.338   0.777  -0.808 -1.3260  1.8917  3.4256
  558MOL0     H76954   9.502   0.498  -0.846  2.3932  0.6064  0.5756
  558MOL0     H76955   9.624   0.528  -0.967  1.8825 -0.1747  2.0977
  558MOL0     H76956   9.346   0.648  -1.006  1.4180  0.5856 -0.7803
  558MOL0     H76957   9.451   0.600  -1.133 -1.9316  1.6321 -0.2461
  558MOL0     H76958   9.285   0.434  -1.116 -2.1939 -0.0579  0.2545
  558MOL0     H76959   9.425   0.368  -1.027 -0.6756  0.2379  1.4110
  558MOL0     H76960   9.192   0.325  -0.928 -1.8766  1.1631 -2.8649
  558MOL0     H76961   9.308   0.376  -0.822 -2.0629 -3.2039  1.2266
  558MOL0     H76962   9.050   0.341  -0.728 -0.3758  0.2726 -1.6316
  558MOL0     H76963   8.959   0.366  -0.380 -0.6221  2.4212 -0.9107
  558MOL0     H76964   8.998   0.260  -0.519 -4.4394 -2.5958 -0.9554
  558MOL0     H76965   8.841   0.330  -0.519 -1.1836  3.0991  0.4435
  558MOL0     H76966   8.816   0.409  -0.182 -0.8282 -2.3320  2.2950
  558MOL0     H76967   8.678   0.385   0.010  5.5865  0.0297 -0.9441
  558MOL0     H76968   8.583   0.697   0.149  0.2163  0.5450  1.6774
  558MOL0     H76969   8.419   0.743   0.126  1.4565  0.4625 -0.8373
  558MOL0     H76970   8.506   0.537   0.326  0.3886  0.4977  2.6367
  558MOL0     H76971   8.489   0.707   0.358  0.1853  0.8911 -0.6191
  558MOL0     H76972   8.277   0.598   0.441  1.9098  1.5185  1.3356
  558MOL0     H76973   8.258   0.514   0.286  1.2222 -0.6779 -0.0765
  558MOL0     H76974   8.218   0.716   0.169 -1.2520 -1.5103  1.1065
  558MOL0     H76975   8.243   0.818   0.325  2.1390 -0.6999  1.5346
  558MOL0     H76976   8.011   0.624   0.275 -1.8133 -0.6400  0.7616
  558MOL0     H76977   8.061   0.699   0.429 -0.0145 -3.2526 -1.4110
  558MOL0     H76978   7.994   0.837   0.168 -0.6352  0.6720  0.4874
  558MOL0     H76979   7.995   0.914   0.340 -0.1849 -2.1260  3.7048
  558MOL0     H76980   7.812   0.773   0.404  3.2802  0.2240  0.3396
  558MOL0     H76981   7.787   0.712   0.238 -0.8412 -0.2867  0.5620
  558MOL0     H76982   7.746   0.918   0.156  0.1078 -1.8780 -0.3474
  558MOL0     H76983   7.772   1.003   0.308 -0.1739  0.0374  1.1948
  558MOL0     H76984   8.428   0.705  -0.144 -0.0620 -0.9387 -0.0879
  558MOL0     H76985   8.580   0.726  -0.335 -0.2518 -0.9369 -0.1053
  558MOL0     H76986   8.961   0.811  -0.611  0.7750  0.5093 -2.0175
  558MOL0     H76987   9.096   0.741  -0.832 -0.9064  0.8987  1.0932
  558MOL0     H76988   9.678   1.105   0.236  2.7699 -1.3103  1.8705
  558MOL0     H76989   9.673   0.991   0.438  0.5301  1.7403 -2.5204
  558MOL0     H76990   9.753   0.763   0.689 -2.4616  0.2728 -0.1674
  558MOL0     H76991   9.838   0.674   0.910  0.5773  0.1295 -0.8884
  558MOL0     H76992   9.857   0.606   1.113 -1.2680  0.7001  1.2212
  558MOL0     H76993   9.686   0.582   1.126 -1.3920  0.6368  2.6166
  558MOL0     H76994   9.930   0.385   1.219 -0.5637  0.5206 -1.1526
  558MOL0     H76995   9.764   0.358   1.276  1.4091 -3.0097 -1.0757
  558MOL0     H76996   9.906   0.455   1.452 -1.2659  2.8172  2.0066
  558MOL0     H76997   9.924   0.603   1.350 -0.3617  0.3037 -1.4497
  558MOL0     H76998   9.674   0.465   1.455  1.1282 -1.3679  0.8671
  558MOL0     H76999   9.679   0.630   1.374 -0.4132  0.6447  0.2862
  558MOL0     H77000   9.818   0.736   1.754 -2.5626 -1.7243  0.2334
  558MOL0     H77001   9.631   0.314   0.838 -0.1014 -0.1335 -2.6205
  558MOL0     H77002   9.582   0.338   0.504  1.6232  0.1311  2.1805
  558MOL0     H77003   9.562   0.246   0.643  1.3015  0.4487  0.4607
  558MOL0     H77004   9.439   0.373   0.599 -0.5835 -0.1393 -2.0068
  559MOL0     O77005   5.240   4.723   3.473  0.2568  0.0360 -0.2208
  559MOL0     C77006   5.322   4.800   3.435  0.5375  0.2136  0.2890
  559MOL0     O77007   5.313   4.861   3.310 -0.0691 -0.4050 -0.1724
  559MOL0     C77008   5.197   4.855   3.244  0.0261 -0.1787 -0.9081
  559MOL0     C77009   5.131   4.977   3.198  0.6729  0.2410 -0.5223
  559MOL0     C77010   5.013   4.965   3.135  0.7798 -0.0399 -0.8124
  559MOL0     C77011   4.950   4.840   3.113 -0.5893 -0.3012 -0.0902
  559MOL0     O77012   4.828   4.833   3.057 -0.1428 -0.0187 -0.2531
  559MOL0     C77013   4.722   4.922   3.099  0.0654 -0.7349  0.3383
  559MOL0     C77014   4.618   4.874   3.197  0.6560 -0.4535 -0.3266
  559MOL0     C77015   4.670   4.872   3.347  0.5415 -0.7837  0.8965
  559MOL0     C77016   4.561   4.876   3.454 -0.0621  0.9082  0.0290
  559MOL0     C77017   4.609   4.850   3.597 -0.3488 -0.1989 -0.3255
  559MOL0     C77018   4.715   4.947   3.651  0.3678 -0.0993 -0.9365
  559MOL0     C77019   4.818   4.870   3.744  0.0455 -0.2097 -0.3412
  559MOL0     C77020   4.916   4.773   3.681  0.6363  0.4280  1.3256
  559MOL0     N77021   5.013   4.708   3.777  0.0920  0.4022  0.3124
  559MOL0     C77022   5.143   4.692   3.757  0.7394 -0.4569  0.2430
  559MOL0     C77023   5.177   4.588   3.840 -0.5768  0.3242 -0.1464
  559MOL0     C77024   5.312   4.518   3.831 -1.6448  1.1470 -0.0403
  559MOL0     C77025   5.385   4.525   3.965  0.5893 -0.2392  0.3725
  559MOL0     C77026   5.346   4.412   4.065  0.1641  0.0140  0.0313
  559MOL0     C77027   5.294   4.488   4.194  0.6121 -0.6784  0.5178
  559MOL0     O77028   5.268   4.390   4.294 -0.3541  0.0762 -0.6458
  559MOL0     C77029   5.165   4.293   4.279 -0.1512  0.5527 -0.2794
  559MOL0     C77030   5.031   4.309   4.247  0.2816 -0.7189 -0.2130
  559MOL0     C77031   4.941   4.206   4.231 -0.1062  0.2225 -0.2997
  559MOL0     C77032   4.797   4.252   4.215  0.8514  0.6188  0.4789
  559MOL0     C77033   4.988   4.071   4.245  0.1627  0.2143  1.0111
  559MOL0     C77034   4.900   3.942   4.238 -0.9907  0.4770 -0.1866
  559MOL0     O77035   4.764   3.961   4.224 -0.3222  0.6484 -0.3472
  559MOL0     C77036   4.679   3.859   4.188  0.4807  0.3659 -0.0815
  559MOL0     C77037   4.606   3.886   4.079 -0.3133  0.7296 -0.6174
  559MOL0     C77038   4.504   3.801   4.034 -0.3439 -0.1429 -0.0878
  559MOL0     C77039   4.474   3.687   4.110  0.9077 -0.4053  1.1721
  559MOL0     O77040   4.375   3.597   4.069 -0.0460  0.2651  0.3877
  559MOL0     C77041   4.258   3.663   4.007  0.3198  0.0455  0.7517
  559MOL0     C77042   4.151   3.560   4.023 -0.1992  0.1174 -0.2117
  559MOL0     C77043   4.111   3.541   4.170 -0.1761  0.2337 -0.6810
  559MOL0     C77044   4.024   3.428   4.199  0.0031  0.3500 -0.8814
  559MOL0     C77045   4.089   3.291   4.201  0.1266  0.8806 -0.6610
  559MOL0     C77046   3.984   3.174   4.235 -0.1645  0.1166 -0.2558
  559MOL0     C77047   3.981   3.153   4.395 -0.1447 -0.6421  0.0593
  559MOL0     C77048   3.865   3.068   4.425 -0.5363 -0.0144 -0.7537
  559MOL0    Cl77049   3.844   2.904   4.345 -0.1925  0.0787  0.2605
  559MOL0     C77050   4.532   3.661   4.231  0.0829  0.0672 -0.5693
  559MOL0     C77051   4.645   3.750   4.270  1.4199  1.0604  0.5099
  559MOL0     O77052   4.955   3.830   4.243 -0.0428  0.1482 -0.0793
  559MOL0     C77053   5.129   4.053   4.261  0.0630 -0.4561  1.0700
  559MOL0     C77054   5.218   4.163   4.279 -0.0564 -0.3004  0.4538
  559MOL0     N77055   5.071   4.551   3.914  0.5315 -0.6070 -0.2314
  559MOL0     N77056   4.974   4.621   3.871  0.0152 -0.0126 -0.6000
  559MOL0     C77057   5.018   4.728   3.146  0.9942  0.8903 -1.0990
  559MOL0     C77058   5.141   4.732   3.214 -0.2943 -0.7438 -0.2142
  559MOL0     C77059   5.432   4.832   3.523 -0.3720 -0.9734 -0.6107
  559MOL0     C77060   5.529   4.730   3.546 -0.2192 -0.4988 -0.0201
  559MOL0     C77061   5.643   4.746   3.632 -0.4464 -0.9989 -0.8391
  559MOL0     C77062   5.651   4.872   3.703  0.0014 -0.2828 -0.6488
  559MOL0     O77063   5.753   4.894   3.788 -0.2963  0.2003  0.3812
  559MOL0     C77064   5.827   5.015   3.777  0.2227  0.3594 -0.2402
  559MOL0     C77065   5.979   4.989   3.792 -0.1300  1.0714 -0.0147
  559MOL0     C77066   6.038   4.903   3.686  0.6705 -0.6468  1.2264
  559MOL0     C77067   6.063   4.984   3.556 -0.0994  0.2298 -0.8790
  559MOL0     C77068   6.132   4.901   3.460 -0.3384 -1.1964  0.0674
  559MOL0     C77069   6.197   4.841   3.379 -0.2875 -0.6120  0.0070
  559MOL0     C77070   5.545   4.965   3.686  0.1107 -0.2359  0.4205
  559MOL0     C77071   5.447   4.954   3.582 -0.4056  0.1973 -0.4530
  559MOL0     C77072   5.340   5.060   3.561  0.0339  0.9857  0.3650
  559MOL0     H77073   5.183   5.069   3.220  4.1569 -1.2183 -1.7854
  559MOL0     H77074   4.969   5.053   3.091  4.9025  0.4366 -4.8448
  559MOL0     H77075   4.669   4.954   3.009 -1.9807 -2.6980  0.7611
  559MOL0     H77076   4.762   5.012   3.147  1.3902 -2.2657  2.2468
  559MOL0     H77077   4.536   4.944   3.182  0.9890  0.2071  0.8365
  559MOL0     H77078   4.574   4.778   3.167 -2.5991 -0.0708  2.6164
  559MOL0     H77079   4.731   4.781   3.352  2.1965  0.0535 -1.8326
  559MOL0     H77080   4.743   4.953   3.348 -0.4632  0.1331  1.6647
  559MOL0     H77081   4.522   4.978   3.454  1.7236  1.7483  3.9504
  559MOL0     H77082   4.491   4.797   3.426  0.4421  0.5613 -0.2716
  559MOL0     H77083   4.649   4.748   3.596 -3.7385 -1.6781 -0.4370
  559MOL0     H77084   4.524   4.850   3.666 -1.6904 -0.6266 -1.9108
  559MOL0     H77085   4.754   5.012   3.572 -0.2237 -0.0538 -1.2016
  559MOL0     H77086   4.671   5.012   3.728  1.7146 -0.7733  0.4475
  559MOL0     H77087   4.761   4.809   3.815 -0.6411 -0.4147 -1.0562
  559MOL0     H77088   4.858   4.953   3.804 -1.4644 -0.5036  1.1558
  559MOL0     H77089   4.852   4.699   3.632  1.5696  0.7578 -0.4882
  559MOL0     H77090   4.971   4.820   3.599  0.8615  2.3757  2.5250
  559MOL0     H77091   5.218   4.734   3.691  1.9531  0.1941  1.9743
  559MOL0     H77092   5.364   4.571   3.751 -0.2680  0.7438  0.5599
  559MOL0     H77093   5.310   4.412   3.804  3.5495  1.1609 -1.5512
  559MOL0     H77094   5.491   4.509   3.940 -0.0991 -0.7966 -2.6047
  559MOL0     H77095   5.384   4.623   4.013 -0.2620 -0.0400 -0.0398
  559MOL0     H77096   5.279   4.341   4.017 -3.1381  1.1383  2.6039
  559MOL0     H77097   5.432   4.353   4.098  0.5331 -1.8339 -3.7142
  559MOL0     H77098   5.367   4.553   4.241 -0.8008  0.5327  1.1350
  559MOL0     H77099   5.210   4.551   4.163  1.8826  1.0469  0.4782
  559MOL0     H77100   4.985   4.408   4.242  0.0097 -0.4791  3.8733
  559MOL0     H77101   4.727   4.212   4.289  0.6828  2.3439  1.3108
  559MOL0     H77102   4.764   4.216   4.117 -4.2472 -1.1335  2.5125
  559MOL0     H77103   4.783   4.361   4.214 -1.2296  0.4497 -2.3766
  559MOL0     H77104   4.637   3.963   4.010  0.7919 -1.9728 -3.4094
  559MOL0     H77105   4.462   3.820   3.936 -1.7011  1.5803  0.7665
  559MOL0     H77106   4.238   3.762   4.049 -2.8921 -0.0173 -0.2772
  559MOL0     H77107   4.281   3.683   3.902  0.4171  1.1765  0.9793
  559MOL0     H77108   4.068   3.579   3.954  2.4721 -0.5120 -3.9530
  559MOL0     H77109   4.197   3.468   3.984  1.3403 -0.8764  3.5096
  559MOL0     H77110   4.059   3.632   4.200  0.3219 -0.1318  1.3909
  559MOL0     H77111   4.197   3.534   4.238 -0.6052 -3.0640 -0.3232
  559MOL0     H77112   3.935   3.429   4.136 -0.5118  1.6155 -0.1800
  559MOL0     H77113   3.974   3.456   4.292 -0.8033  1.4007 -1.6008
  559MOL0     H77114   4.125   3.280   4.098  2.6788  2.5483 -0.0396
  559MOL0     H77115   4.171   3.282   4.274 -2.5081  0.9328  2.5192
  559MOL0     H77116   4.014   3.078   4.193 -3.9004 -1.7884  0.9252
  559MOL0     H77117   3.888   3.198   4.188 -0.2053 -2.2823 -1.5763
  559MOL0     H77118   3.990   3.249   4.447  1.9152  0.3317 -1.9267
  559MOL0     H77119   4.074   3.117   4.439 -0.6814 -0.6854  1.2111
  559MOL0     H77120   3.774   3.116   4.387  0.0164 -0.9858 -3.5098
  559MOL0     H77121   3.858   3.063   4.534  1.5091  0.0085 -0.5726
  559MOL0     H77122   4.522   3.565   4.281 -2.1078  0.6136  0.1698
  559MOL0     H77123   4.685   3.719   4.366 -1.1922 -0.4491  1.2144
  559MOL0     H77124   5.178   3.957   4.245  0.6989 -0.1599  1.2219
  559MOL0     H77125   5.326   4.154   4.272 -0.0755 -2.0304  1.8389
  559MOL0     H77126   4.971   4.633   3.123 -0.9978  2.2612 -3.1861
  559MOL0     H77127   5.181   4.634   3.237 -1.2964 -0.9092  0.9429
  559MOL0     H77128   5.514   4.629   3.509  0.4801 -1.1491  1.4149
  559MOL0     H77129   5.726   4.678   3.653 -0.1114  0.2199  2.2023
  559MOL0     H77130   5.798   5.054   3.679 -2.7836 -0.5409  0.1783
  559MOL0     H77131   5.785   5.078   3.856 -1.5566 -1.2052  0.1505
  559MOL0     H77132   6.003   4.952   3.892  0.8281  0.0090 -0.6189
  559MOL0     H77133   6.026   5.088   3.799 -0.2358  1.0487  1.1204
  559MOL0     H77134   6.133   4.859   3.718  0.0006 -2.0710  1.3653
  559MOL0     H77135   5.961   4.830   3.658  0.3018  0.7942 -1.8355
  559MOL0     H77136   6.123   5.069   3.590  1.3241 -2.1517  3.3459
  559MOL0     H77137   5.968   5.016   3.513  0.8260  1.2190 -2.2468
  559MOL0     H77138   6.268   4.792   3.315  0.8233 -1.6101  1.9267
  559MOL0     H77139   5.541   5.050   3.754  0.0315  0.3749 -0.3263
  559MOL0     H77140   5.259   5.032   3.629 -0.2885  3.4922  1.1098
  559MOL0     H77141   5.372   5.161   3.585 -1.2474  0.8929  2.8465
  559MOL0     H77142   5.309   5.057   3.456 -1.9999 -2.1117  0.9117
  560MOL0     O77143  11.313   0.082   6.422  0.4392 -0.6028 -0.0454
  560MOL0     C77144  11.325   0.197   6.373  0.5624  0.3684  0.1863
  560MOL0     O77145  11.360   0.222   6.246 -0.0000  0.2217  1.7828
  560MOL0     C77146  11.420   0.130   6.166 -0.1414 -0.0461 -0.5762
  560MOL0     C77147  11.400   0.144   6.028 -0.0661  0.6521  0.0222
  560MOL0     C77148  11.474   0.065   5.942  0.3274 -0.3037 -0.9922
  560MOL0     C77149  11.562  -0.041   5.993  0.2399  0.3626  0.6335
  560MOL0     O77150  11.624  -0.103   5.890 -0.8027  0.1474  0.6600
  560MOL0     C77151  11.566  -0.232   5.848 -1.2680  1.1021 -0.0324
  560MOL0     C77152  11.643  -0.308   5.733 -0.5229  0.6741  0.1805
  560MOL0     C77153  11.790  -0.320   5.781  0.1864 -0.3109  0.1698
  560MOL0     C77154  11.804  -0.440   5.876 -0.1305 -1.1959  0.7284
  560MOL0     C77155  11.949  -0.438   5.939  0.4008 -0.7561 -0.1757
  560MOL0     C77156  11.986  -0.531   6.067 -0.3434  0.2780 -0.3693
  560MOL0     C77157  11.868  -0.532   6.177  0.2591  0.7938  0.6950
  560MOL0     C77158  11.909  -0.597   6.312  0.2046 -1.2858 -0.1721
  560MOL0     N77159  11.952  -0.735   6.285 -0.3745 -1.0624 -0.0220
  560MOL0     C77160  12.073  -0.771   6.234  1.3247  0.1812  0.4820
  560MOL0     C77161  12.058  -0.900   6.193  0.8650 -0.4083 -0.7017
  560MOL0     C77162  12.167  -0.986   6.138  1.0470 -0.3056  0.5560
  560MOL0     C77163  12.113  -1.091   6.036 -0.0694  0.2811  0.4125
  560MOL0     C77164  12.039  -1.029   5.915 -0.8342  0.6260  0.3154
  560MOL0     C77165  12.114  -0.906   5.848  0.0279  0.5229 -0.7090
  560MOL0     O77166  12.260  -0.926   5.843 -0.2738  0.2718  0.8333
  560MOL0     C77167  12.308  -0.932   5.712  0.1867  0.5261 -1.0299
  560MOL0     C77168  12.392  -0.826   5.676  0.1310  0.6338  0.0916
  560MOL0     C77169  12.449  -0.843   5.548 -0.5106 -1.5377 -0.4079
  560MOL0     C77170  12.558  -0.741   5.510  0.2836 -0.2735  0.0484
  560MOL0     C77171  12.415  -0.948   5.458  0.3706 -0.2817  0.0172
  560MOL0     C77172  12.461  -0.959   5.314  0.8020  0.0220 -0.5294
  560MOL0     O77173  12.468  -1.080   5.266 -0.5582 -0.5127  0.3880
  560MOL0     C77174  12.450  -1.101   5.131  0.7707  0.2747  0.0929
  560MOL0     C77175  12.385  -1.224   5.110 -0.5171 -1.2474 -0.7571
  560MOL0     C77176  12.349  -1.261   4.989  1.7316 -0.1915  0.7774
  560MOL0     C77177  12.375  -1.186   4.875  0.2650 -0.6267 -0.1899
  560MOL0     O77178  12.334  -1.234   4.747  0.3460 -1.0019 -0.0444
  560MOL0     C77179  12.446  -1.269   4.670 -0.9820 -0.1085  0.0131
  560MOL0     C77180  12.463  -1.418   4.681  0.0847  0.1552  0.0697
  560MOL0     C77181  12.561  -1.466   4.571 -0.0060  0.6448 -0.0365
  560MOL0     C77182  12.702  -1.424   4.597 -1.1736  0.2009  0.6836
  560MOL0     C77183  12.805  -1.511   4.519 -0.2539 -0.1654  0.4074
  560MOL0     C77184  12.947  -1.447   4.535 -0.0572  0.8896 -0.5357
  560MOL0     C77185  13.062  -1.494   4.440 -0.2236  0.5206 -0.1397
  560MOL0     C77186  13.085  -1.644   4.437 -0.2203  0.9771 -1.2928
  560MOL0    Cl77187  13.207  -1.683   4.308  0.1611  0.4955  0.3403
  560MOL0     C77188  12.449  -1.066   4.896  0.8741 -0.7035  1.5492
  560MOL0     C77189  12.491  -1.029   5.017 -0.3930  0.3789 -0.4188
  560MOL0     O77190  12.473  -0.856   5.255  0.5725 -0.1462 -0.1731
  560MOL0     C77191  12.333  -1.051   5.510  1.2803  0.8429 -0.3157
  560MOL0     C77192  12.273  -1.040   5.637 -0.6784 -0.3189 -1.3285
  560MOL0     N77193  11.926  -0.932   6.204 -0.4083 -0.4053 -0.6132
  560MOL0     N77194  11.867  -0.831   6.258  0.3936 -0.0930 -0.7825
  560MOL0     C77195  11.569  -0.069   6.122  0.9802  0.1451 -0.0407
  560MOL0     C77196  11.503   0.022   6.206 -0.7981  0.1135  0.0842
  560MOL0     C77197  11.333   0.310   6.470  0.1197 -0.4030 -0.0605
  560MOL0     C77198  11.370   0.439   6.416  1.0519 -0.1198 -0.2344
  560MOL0     C77199  11.384   0.550   6.505  0.6335  0.4119  0.1546
  560MOL0     C77200  11.355   0.534   6.643 -0.9074 -0.1290 -0.5210
  560MOL0     O77201  11.352   0.630   6.736  0.9161  0.0719  0.2786
  560MOL0     C77202  11.424   0.753   6.726 -0.3195  0.0713 -0.8565
  560MOL0     C77203  11.340   0.891   6.703 -0.1219 -0.4432 -0.5686
  560MOL0     C77204  11.229   0.917   6.806  0.0854 -1.0504 -0.1639
  560MOL0     C77205  11.089   0.926   6.755  0.3822  0.7139  0.1646
  560MOL0     C77206  11.062   1.042   6.675  0.2429 -0.3404 -0.2195
  560MOL0     C77207  11.062   1.134   6.605  0.6287 -0.4382 -0.2051
  560MOL0     C77208  11.316   0.417   6.692  0.9842 -0.3980  0.5009
  560MOL0     C77209  11.295   0.302   6.615 -0.2129  0.3274  1.2180
  560MOL0     C77210  11.238   0.196   6.699  0.9564  0.7500 -0.6361
  560MOL0     H77211  11.340   0.223   5.983 -0.5240 -0.7298 -1.9517
  560MOL0     H77212  11.458   0.085   5.837  0.8908  0.8998 -0.8711
  560MOL0     H77213  11.463  -0.223   5.814 -1.4489 -0.1552  0.1437
  560MOL0     H77214  11.560  -0.280   5.946 -3.9753  1.4479  0.0465
  560MOL0     H77215  11.604  -0.410   5.737  3.0729 -0.8224  1.6662
  560MOL0     H77216  11.637  -0.257   5.636 -1.2341 -2.6954 -1.6909
  560MOL0     H77217  11.859  -0.341   5.699  1.5839  1.2881  0.8792
  560MOL0     H77218  11.824  -0.224   5.821 -1.9364  1.1691 -1.3369
  560MOL0     H77219  11.730  -0.425   5.955 -3.1381 -0.2207 -2.0723
  560MOL0     H77220  11.779  -0.538   5.836 -1.5803  0.2295 -2.2026
  560MOL0     H77221  11.964  -0.336   5.977  2.3695 -1.4394  1.0462
  560MOL0     H77222  12.030  -0.460   5.869  0.6580 -0.4445  0.0216
  560MOL0     H77223  12.012  -0.630   6.028 -0.1450  0.7193 -1.4065
  560MOL0     H77224  12.074  -0.490   6.118  0.1627 -0.0136 -0.9909
  560MOL0     H77225  11.780  -0.571   6.126 -0.9109  3.8115  0.1940
  560MOL0     H77226  11.847  -0.428   6.201  3.9328  2.5177 -2.4867
  560MOL0     H77227  11.987  -0.537   6.361 -1.4350  2.2093 -1.5004
  560MOL0     H77228  11.827  -0.604   6.384  0.3575 -1.1061  0.0246
  560MOL0     H77229  12.163  -0.710   6.233 -0.6438  3.3375 -1.8293
  560MOL0     H77230  12.222  -1.037   6.217 -1.7193 -2.3794  1.3126
  560MOL0     H77231  12.240  -0.919   6.091  3.5419 -2.1648  1.5595
  560MOL0     H77232  12.195  -1.146   5.989 -1.3645 -0.2799 -1.3138
  560MOL0     H77233  12.049  -1.162   6.089  1.8584 -1.5290  0.4358
  560MOL0     H77234  12.018  -1.102   5.836  0.0976  0.2932  0.3594
  560MOL0     H77235  11.937  -0.998   5.942 -1.2501  0.9824 -1.4974
  560MOL0     H77236  12.068  -0.907   5.749 -1.5074  1.6834 -0.0539
  560MOL0     H77237  12.083  -0.807   5.883 -0.3318 -0.5894  2.4221
  560MOL0     H77238  12.432  -0.757   5.749  3.2243  0.6327 -1.4371
  560MOL0     H77239  12.598  -0.667   5.580  2.5141 -1.8684  0.5890
  560MOL0     H77240  12.515  -0.686   5.425 -1.2838 -1.8706 -0.2577
  560MOL0     H77241  12.646  -0.793   5.469  0.8990  1.5100 -1.0443
  560MOL0     H77242  12.373  -1.282   5.201  0.9490 -1.3846 -0.6288
  560MOL0     H77243  12.299  -1.356   4.973  1.3689 -0.0051  0.7916
  560MOL0     H77244  12.437  -1.233   4.567  2.4124 -1.6955 -0.9809
  560MOL0     H77245  12.535  -1.219   4.709 -2.1830  2.4431 -0.2806
  560MOL0     H77246  12.506  -1.449   4.777 -1.5251  0.6022  0.9779
  560MOL0     H77247  12.364  -1.463   4.667 -2.1581  4.0215  1.9327
  560MOL0     H77248  12.535  -1.447   4.467  0.4483  1.1872 -0.0599
  560MOL0     H77249  12.548  -1.575   4.575 -0.0703  0.6798  1.6609
  560MOL0     H77250  12.728  -1.439   4.703 -2.0908 -2.0552  0.6544
  560MOL0     H77251  12.722  -1.319   4.573  1.4105 -0.5550 -0.8759
  560MOL0     H77252  12.784  -1.613   4.553  0.6052 -0.0673  1.2595
  560MOL0     H77253  12.773  -1.497   4.415 -0.6690  3.7862  0.9200
  560MOL0     H77254  12.987  -1.456   4.636  0.1727  2.4564 -0.4547
  560MOL0     H77255  12.934  -1.340   4.515  1.2037  0.8678 -1.6341
  560MOL0     H77256  13.148  -1.435   4.472 -2.0237  1.8062  2.7061
  560MOL0     H77257  13.041  -1.462   4.337 -1.9338  1.6394  0.5074
  560MOL0     H77258  12.981  -1.673   4.420 -1.0670  2.0543  1.4669
  560MOL0     H77259  13.125  -1.662   4.538 -1.1753  1.3381 -0.8380
  560MOL0     H77260  12.457  -0.998   4.812  1.5393  0.0802  2.2299
  560MOL0     H77261  12.559  -0.946   5.035  1.4135 -1.1756  0.2119
  560MOL0     H77262  12.313  -1.139   5.449  0.9937  0.0621  0.8660
  560MOL0     H77263  12.195  -1.107   5.673 -1.6866  1.1808 -0.5850
  560MOL0     H77264  11.622  -0.159   6.151 -1.3950 -1.3414  0.0110
  560MOL0     H77265  11.503  -0.010   6.310  3.3416  1.0600  0.5472
  560MOL0     H77266  11.377   0.456   6.309  0.2398 -2.0907 -0.6399
  560MOL0     H77267  11.420   0.641   6.459 -2.7127  2.6830  1.6888
  560MOL0     H77268  11.479   0.765   6.820 -3.0669  5.0018  0.5278
  560MOL0     H77269  11.490   0.749   6.640  0.3916  1.4949 -0.4161
  560MOL0     H77270  11.295   0.865   6.607 -0.4170 -3.8827  0.3459
  560MOL0     H77271  11.415   0.967   6.681 -0.7594  0.6717  0.9823
  560MOL0     H77272  11.227   0.830   6.873  1.9339 -1.9064 -1.1367
  560MOL0     H77273  11.259   1.005   6.864  1.1680 -1.0366 -0.7117
  560MOL0     H77274  11.020   0.918   6.838  2.2415 -0.2761  1.6939
  560MOL0     H77275  11.082   0.838   6.690 -0.9540  1.8159 -1.2554
  560MOL0     H77276  11.060   1.215   6.535 -0.3258 -2.6673 -2.9089
  560MOL0     H77277  11.310   0.400   6.800  2.1759 -0.4133  0.5802
  560MOL0     H77278  11.314   0.147   6.761 -0.3988  2.0226  2.1855
  560MOL0     H77279  11.157   0.230   6.764  2.6634  1.9206  1.0052
  560MOL0     H77280  11.200   0.117   6.635 -0.4373  2.1349 -1.5905
  561MOL0     O77281   3.982   5.611   0.634 -0.3563 -0.4849  0.4219
  561MOL0     C77282   3.931   5.519   0.573 -1.3171  1.0419 -0.1349
  561MOL0     O77283   3.907   5.397   0.622  0.9495  0.2139  0.3515
  561MOL0     C77284   3.936   5.366   0.754 -0.0718 -0.2855 -0.4108
  561MOL0     C77285   4.065   5.384   0.816 -0.1612  0.7944  0.6910
  561MOL0     C77286   4.092   5.335   0.945 -0.1296  0.3752 -0.0474
  561MOL0     C77287   3.994   5.290   1.026  0.2147 -0.7221 -0.0535
  561MOL0     O77288   4.030   5.258   1.154  0.1484  0.5275 -0.1518
  561MOL0     C77289   3.926   5.252   1.244 -0.2827  1.0161 -0.2231
  561MOL0     C77290   3.972   5.228   1.382 -0.8888 -0.6210  0.0075
  561MOL0     C77291   3.865   5.200   1.489  1.1156 -0.2722  0.0262
  561MOL0     C77292   3.766   5.311   1.512 -0.9370 -0.3988  0.4574
  561MOL0     C77293   3.676   5.288   1.634 -0.4247 -0.2747  0.5097
  561MOL0     C77294   3.566   5.185   1.613  0.2157 -0.0949 -0.2092
  561MOL0     C77295   3.476   5.192   1.740  0.0188  0.2087 -0.1814
  561MOL0     C77296   3.333   5.128   1.733 -0.9125  0.3183 -0.1286
  561MOL0     N77297   3.241   5.140   1.849 -0.1661 -0.3164 -0.1013
  561MOL0     C77298   3.113   5.180   1.853  0.9226  0.0304 -0.2729
  561MOL0     C77299   3.068   5.167   1.982  0.0800 -0.5243 -0.5989
  561MOL0     C77300   2.918   5.184   2.013  0.3892 -0.9207 -0.9595
  561MOL0     C77301   2.895   5.310   2.096  0.7964  0.3108 -0.1998
  561MOL0     C77302   2.832   5.417   2.006 -0.0140  0.7500 -0.1116
  561MOL0     C77303   2.767   5.520   2.091 -0.2573 -0.3749 -1.1320
  561MOL0     O77304   2.857   5.559   2.208  0.0562  0.6244 -0.6266
  561MOL0     C77305   2.959   5.650   2.183  0.6015 -0.6160 -0.6504
  561MOL0     C77306   3.034   5.703   2.289  0.7783  0.0478 -0.2543
  561MOL0     C77307   3.147   5.785   2.264 -0.3218  0.4187  0.3295
  561MOL0     C77308   3.245   5.804   2.390  0.7081 -0.6537 -0.0186
  561MOL0     C77309   3.175   5.830   2.137 -0.5727 -0.6692  0.0478
  561MOL0     C77310   3.293   5.916   2.104 -0.1143 -0.2348  0.2706
  561MOL0     O77311   3.291   5.966   1.983 -0.1207  0.0480 -0.9788
  561MOL0     C77312   3.391   6.021   1.920 -0.6339  0.0588  0.0102
  561MOL0     C77313   3.514   6.085   1.964 -0.0232 -0.4531 -0.1516
  561MOL0     C77314   3.599   6.143   1.871 -0.5857 -0.0865  0.8444
  561MOL0     C77315   3.584   6.125   1.736 -0.3319  0.3192 -0.3666
  561MOL0     O77316   3.690   6.178   1.655 -0.6546 -0.0146 -0.5603
  561MOL0     C77317   3.684   6.147   1.512 -0.3371  0.3148  0.0177
  561MOL0     C77318   3.784   6.237   1.444 -1.6601 -0.5545  0.8926
  561MOL0     C77319   3.820   6.215   1.302  0.1378 -0.0153 -0.9134
  561MOL0     C77320   3.971   6.237   1.276  0.4201 -0.3066  0.0802
  561MOL0     C77321   3.998   6.383   1.285  0.1616 -1.2093 -0.4604
  561MOL0     C77322   4.152   6.405   1.289 -0.4006 -0.0026 -0.6533
  561MOL0     C77323   4.213   6.390   1.430  0.2036  0.2491 -0.4583
  561MOL0     C77324   4.361   6.436   1.437 -0.1556 -1.0691  0.3207
  561MOL0    Cl77325   4.375   6.610   1.402  0.2101  0.0771  0.2863
  561MOL0     C77326   3.472   6.055   1.692  0.6585  1.1592  0.4798
  561MOL0     C77327   3.368   6.015   1.780  0.0152 -0.3957 -0.1094
  561MOL0     O77328   3.388   5.924   2.177 -0.6848 -0.4410  0.7371
  561MOL0     C77329   3.095   5.782   2.031  0.3193 -0.4047 -0.4665
  561MOL0     C77330   2.991   5.693   2.059 -0.0931 -0.3721 -0.1259
  561MOL0     N77331   3.176   5.129   2.056  0.1095  0.7044 -0.5352
  561MOL0     N77332   3.276   5.117   1.981  0.0452  0.2406  0.9914
  561MOL0     C77333   3.868   5.262   0.974  0.3613  0.4378  0.4508
  561MOL0     C77334   3.840   5.306   0.841  0.5382  0.5106  0.3027
  561MOL0     C77335   3.885   5.543   0.435 -0.1519 -0.1473 -0.8733
  561MOL0     C77336   3.762   5.490   0.391  0.3603  1.0304 -0.5702
  561MOL0     C77337   3.708   5.515   0.270 -0.7256  0.5578  0.1708
  561MOL0     C77338   3.775   5.601   0.181 -0.1951 -0.0954  0.2294
  561MOL0     O77339   3.712   5.635   0.066 -0.2226 -1.2889 -0.4899
  561MOL0     C77340   3.623   5.558  -0.007 -0.2885  0.1686  0.3522
  561MOL0     C77341   3.594   5.585  -0.153  0.2597 -0.1476  0.3145
  561MOL0     C77342   3.525   5.727  -0.157 -0.9092 -0.2962 -0.1226
  561MOL0     C77343   3.546   5.807  -0.277  1.0120  0.5930  0.1554
  561MOL0     C77344   3.486   5.759  -0.401 -0.1573  0.0069  0.0937
  561MOL0     C77345   3.446   5.720  -0.511 -0.1135 -0.1442 -0.3062
  561MOL0     C77346   3.883   5.666   0.228  0.5437  0.1198 -0.0886
  561MOL0     C77347   3.949   5.635   0.353  0.0552  0.0613 -0.1875
  561MOL0     C77348   4.082   5.702   0.376  0.3381 -0.5686  0.3500
  561MOL0     H77349   4.144   5.433   0.760 -2.1944  2.5120 -0.8014
  561MOL0     H77350   4.190   5.350   0.990 -0.9218 -2.6818  3.1358
  561MOL0     H77351   3.858   5.168   1.227 -0.4459  1.2846 -0.9490
  561MOL0     H77352   3.864   5.342   1.239 -1.2055  0.3399 -1.3879
  561MOL0     H77353   4.046   5.147   1.388 -1.2074 -0.8235  1.9487
  561MOL0     H77354   4.014   5.321   1.421 -1.9769 -0.6980  1.4328
  561MOL0     H77355   3.808   5.113   1.456  0.3411 -0.8211  2.5841
  561MOL0     H77356   3.916   5.174   1.582  1.4003 -1.8509 -0.5377
  561MOL0     H77357   3.833   5.395   1.529 -0.7946 -0.5714  0.7618
  561MOL0     H77358   3.715   5.333   1.417  1.3449  0.4201 -0.6454
  561MOL0     H77359   3.631   5.387   1.643 -0.5317 -0.1671 -0.8896
  561MOL0     H77360   3.731   5.261   1.724  0.2488  1.0552  0.5135
  561MOL0     H77361   3.512   5.210   1.521 -0.7761 -2.8750 -0.4659
  561MOL0     H77362   3.609   5.085   1.605  0.4616 -0.0922  0.9399
  561MOL0     H77363   3.443   5.295   1.760 -0.9103 -0.1482  0.1872
  561MOL0     H77364   3.534   5.157   1.826  0.0906 -0.2917 -0.4341
  561MOL0     H77365   3.288   5.162   1.639  1.9397 -0.1051 -1.7297
  561MOL0     H77366   3.349   5.020   1.725  3.9142  0.9713 -2.3481
  561MOL0     H77367   3.045   5.210   1.774  0.3398  1.4099  0.7252
  561MOL0     H77368   2.890   5.101   2.079  0.8051  0.4982  1.1018
  561MOL0     H77369   2.866   5.181   1.917 -0.9862 -0.3288 -0.2572
  561MOL0     H77370   2.816   5.286   2.168 -0.8432  3.7171 -0.6385
  561MOL0     H77371   2.983   5.359   2.139 -0.1775  1.7781  0.2238
  561MOL0     H77372   2.910   5.463   1.944 -1.1642  3.0440  0.0286
  561MOL0     H77373   2.751   5.379   1.944  0.1241  1.1729 -0.5636
  561MOL0     H77374   2.744   5.611   2.034 -1.1215 -1.4323 -2.5594
  561MOL0     H77375   2.682   5.473   2.141  0.4156 -2.2155 -1.6534
  561MOL0     H77376   3.011   5.668   2.389  3.6619  1.5364  1.0352
  561MOL0     H77377   3.231   5.907   2.426  3.1312 -0.0325 -0.7019
  561MOL0     H77378   3.352   5.791   2.377  0.5694 -0.1967 -2.0641
  561MOL0     H77379   3.203   5.738   2.467  1.8889 -2.3310 -0.7524
  561MOL0     H77380   3.529   6.091   2.072 -0.8169  0.9835 -0.0894
  561MOL0     H77381   3.696   6.182   1.897  1.2191 -3.5840 -0.0128
  561MOL0     H77382   3.701   6.039   1.507 -1.7768 -0.2341  3.9401
  561MOL0     H77383   3.582   6.179   1.485 -0.6709 -0.9308 -0.2756
  561MOL0     H77384   3.748   6.340   1.441 -1.5246 -0.4725 -2.9166
  561MOL0     H77385   3.875   6.235   1.505 -1.4460  1.1348  0.6712
  561MOL0     H77386   3.755   6.284   1.248  2.6024  2.9563 -0.3606
  561MOL0     H77387   3.800   6.110   1.277 -1.9158  0.4973 -1.5569
  561MOL0     H77388   4.000   6.196   1.178  3.5370  1.0147  0.3495
  561MOL0     H77389   4.030   6.174   1.343  0.4206 -0.3026  0.0833
  561MOL0     H77390   3.957   6.430   1.195  0.0045 -0.9050 -0.2313
  561MOL0     H77391   3.950   6.437   1.367  1.1573  3.7335 -2.7742
  561MOL0     H77392   4.172   6.497   1.234  0.7305  0.5046  0.5737
  561MOL0     H77393   4.207   6.333   1.227  1.2833  0.9392 -0.2934
  561MOL0     H77394   4.212   6.282   1.444  0.7111 -0.1512 -3.0381
  561MOL0     H77395   4.145   6.439   1.502 -1.4816 -1.8275 -0.5274
  561MOL0     H77396   4.428   6.379   1.373 -1.0482 -0.8895 -0.8023
  561MOL0     H77397   4.407   6.416   1.534  0.9480  1.4651  0.4104
  561MOL0     H77398   3.463   6.026   1.588 -1.0124  0.1363  0.8777
  561MOL0     H77399   3.288   5.953   1.741  0.3509 -0.5329 -0.5855
  561MOL0     H77400   3.109   5.816   1.928  1.7592  0.1348 -0.1108
  561MOL0     H77401   2.918   5.678   1.980 -0.2654 -4.6984  0.5922
  561MOL0     H77402   3.791   5.217   1.035  1.4108 -2.7115 -0.3953
  561MOL0     H77403   3.744   5.296   0.792  1.7169  0.8525 -2.2166
  561MOL0     H77404   3.705   5.426   0.459  0.2010 -1.8592 -3.2025
  561MOL0     H77405   3.620   5.461   0.237 -2.2470  3.7729 -1.4512
  561MOL0     H77406   3.645   5.451   0.000  1.8916 -0.0007 -4.7298
  561MOL0     H77407   3.532   5.583   0.049  1.0608  0.5379  2.4897
  561MOL0     H77408   3.518   5.515  -0.191  0.4719 -0.7472  0.9781
  561MOL0     H77409   3.678   5.570  -0.222  0.1795  1.1445 -0.0849
  561MOL0     H77410   3.416   5.715  -0.155 -0.8590 -0.6516  1.5128
  561MOL0     H77411   3.557   5.797  -0.079 -0.6618  0.0614 -0.5402
  561MOL0     H77412   3.650   5.811  -0.310  0.7933 -0.5754 -0.7561
  561MOL0     H77413   3.518   5.908  -0.247  2.5914  0.5699  1.8765
  561MOL0     H77414   3.400   5.688  -0.602  2.1371  1.7290 -2.2440
  561MOL0     H77415   3.921   5.742   0.161 -1.7994  0.1252 -1.5244
  561MOL0     H77416   4.073   5.809   0.396 -0.2285  0.0866 -2.7610
  561MOL0     H77417   4.160   5.653   0.435  2.9865 -1.7674 -3.6964
  561MOL0     H77418   4.114   5.687   0.272 -3.8021 -1.3992 -0.9984
  562MOL0     O77419   5.993   7.229   1.468 -0.1371 -0.1093  0.0207
  562MOL0     C77420   5.945   7.306   1.377  0.1132 -0.8214  0.1958
  562MOL0     O77421   6.014   7.414   1.319 -0.6600  0.5128 -0.3412
  562MOL0     C77422   6.146   7.420   1.360 -0.9560  0.3535  1.3007
  562MOL0     C77423   6.199   7.525   1.435  0.8991 -0.5413  0.9167
  562MOL0     C77424   6.329   7.526   1.477 -0.5391 -0.0808  0.5160
  562MOL0     C77425   6.408   7.424   1.439 -1.0184 -0.6059  0.8901
  562MOL0     O77426   6.540   7.423   1.490 -0.8840 -0.5039  0.0237
  562MOL0     C77427   6.648   7.438   1.394 -0.1095 -0.0209 -0.6063
  562MOL0     C77428   6.722   7.562   1.446  0.9600  0.1782 -0.2855
  562MOL0     C77429   6.861   7.558   1.378 -0.4179  0.1602 -0.3448
  562MOL0     C77430   6.943   7.692   1.409  0.1374 -0.5426 -1.1712
  562MOL0     C77431   7.082   7.705   1.337  0.0971 -0.6899  0.5378
  562MOL0     C77432   7.140   7.846   1.359  0.1476 -0.6947  0.8474
  562MOL0     C77433   7.286   7.874   1.295  0.7920 -0.0112 -0.0473
  562MOL0     C77434   7.327   7.997   1.371 -0.7691  0.5190 -0.4251
  562MOL0     N77435   7.468   8.011   1.345 -0.5439  0.5253 -0.1650
  562MOL0     C77436   7.523   8.017   1.222 -1.0564 -1.0969  0.2808
  562MOL0     C77437   7.658   8.056   1.230  0.3469  0.8012  0.0405
  562MOL0     C77438   7.764   8.087   1.117 -0.2018 -0.0876 -0.2158
  562MOL0     C77439   7.890   7.998   1.147 -0.8608  0.3697  0.3671
  562MOL0     C77440   7.999   8.034   1.045  0.0532  0.3651 -0.5178
  562MOL0     C77441   8.136   7.983   1.096  0.3701 -0.0313 -0.0839
  562MOL0     O77442   8.118   7.845   1.123  0.0359 -0.5617  0.2162
  562MOL0     C77443   8.128   7.754   1.027  0.4110  0.8803 -0.1079
  562MOL0     C77444   8.058   7.640   1.045  0.9410  0.1246  0.7648
  562MOL0     C77445   8.065   7.534   0.957  0.1677 -0.7496 -0.0187
  562MOL0     C77446   7.996   7.404   0.998  0.6668 -1.3416  0.2419
  562MOL0     C77447   8.123   7.552   0.823  0.0155  0.8245  0.0330
  562MOL0     C77448   8.129   7.452   0.715  0.5152 -0.1803 -0.6635
  562MOL0     O77449   8.140   7.499   0.593  0.3013  0.5405  0.1877
  562MOL0     C77450   8.162   7.416   0.487 -0.5142 -0.1697 -0.0691
  562MOL0     C77451   8.296   7.375   0.460 -0.3175  0.0132  0.2215
  562MOL0     C77452   8.316   7.295   0.345  0.8664  1.4175 -0.4767
  562MOL0     C77453   8.211   7.264   0.251  0.3183  0.7257 -0.1370
  562MOL0     O77454   8.238   7.195   0.126 -0.0805  0.3067  0.3832
  562MOL0     C77455   8.138   7.135   0.050 -0.4160 -0.8517  1.1548
  562MOL0     C77456   8.084   7.240  -0.044  0.0563 -0.3167  1.0928
  562MOL0     C77457   8.161   7.251  -0.175  0.2338  0.6749 -0.0426
  562MOL0     C77458   8.122   7.364  -0.264  0.2782 -0.5151 -0.1595
  562MOL0     C77459   8.211   7.378  -0.386 -0.0909  0.3719  0.9806
  562MOL0     C77460   8.176   7.486  -0.499  0.3434 -0.3613  0.1884
  562MOL0     C77461   8.040   7.513  -0.529  0.3540 -0.9518  0.1134
  562MOL0     C77462   8.028   7.595  -0.656  0.3060  0.5647  0.1905
  562MOL0    Cl77463   8.058   7.767  -0.640  0.4633 -0.2706 -0.1701
  562MOL0     C77464   8.081   7.307   0.276  0.0265  0.0070  0.1250
  562MOL0     C77465   8.064   7.379   0.395  0.3200 -0.6441  0.0991
  562MOL0     O77466   8.128   7.337   0.747  0.1590  0.7720 -0.5011
  562MOL0     C77467   8.184   7.677   0.805 -0.3981  0.1940  0.2476
  562MOL0     C77468   8.198   7.769   0.910  0.0784 -0.1478  0.4338
  562MOL0     N77469   7.683   8.062   1.371  0.2681 -0.7030  0.3419
  562MOL0     N77470   7.569   8.033   1.436 -0.0345  0.0487 -0.2530
  562MOL0     C77471   6.358   7.307   1.373 -0.0501 -0.5583 -0.0356
  562MOL0     C77472   6.223   7.307   1.336 -0.0901 -0.5205  0.5448
  562MOL0     C77473   5.800   7.295   1.344 -0.3798  0.1104 -0.8302
  562MOL0     C77474   5.726   7.409   1.321  0.5385 -0.7378  0.5224
  562MOL0     C77475   5.595   7.400   1.270 -0.1028 -0.1775 -0.4939
  562MOL0     C77476   5.543   7.278   1.238 -0.3501  0.6833  0.2053
  562MOL0     O77477   5.434   7.269   1.157  0.2024 -0.8082 -0.1849
  562MOL0     C77478   5.321   7.264   1.237  0.2951 -0.0145  0.2382
  562MOL0     C77479   5.257   7.122   1.236  0.0719  0.1636  0.7635
  562MOL0     C77480   5.115   7.103   1.294 -0.4663 -0.4874 -0.3536
  562MOL0     C77481   5.024   7.227   1.270  0.2254 -0.0375 -0.2845
  562MOL0     C77482   4.878   7.227   1.305 -0.6761  0.2633  0.0330
  562MOL0     C77483   4.767   7.207   1.340  0.9374  0.2152 -0.4457
  562MOL0     C77484   5.608   7.158   1.272  0.5133  0.3154  0.0377
  562MOL0     C77485   5.736   7.166   1.331  0.2190 -0.9022  0.1865
  562MOL0     C77486   5.800   7.031   1.348  0.8069 -0.8756 -0.0731
  562MOL0     H77487   6.134   7.611   1.447 -3.2023 -3.0346 -1.0783
  562MOL0     H77488   6.373   7.599   1.544  0.5700 -2.7705  2.9653
  562MOL0     H77489   6.611   7.457   1.292 -0.4771 -1.8297 -0.8423
  562MOL0     H77490   6.712   7.349   1.400 -1.1264 -0.7802 -0.8549
  562MOL0     H77491   6.673   7.654   1.411 -0.6035  1.1663  3.8308
  562MOL0     H77492   6.734   7.559   1.555 -0.9734 -2.7631 -0.0486
  562MOL0     H77493   6.915   7.472   1.418 -1.1812  0.1283  0.6491
  562MOL0     H77494   6.856   7.531   1.272 -1.5449 -2.2726  0.2582
  562MOL0     H77495   6.876   7.772   1.376 -1.8854 -1.7943 -0.3286
  562MOL0     H77496   6.945   7.710   1.517  0.4230  1.5894 -1.5047
  562MOL0     H77497   7.055   7.696   1.231 -2.3597  2.1674  0.7672
  562MOL0     H77498   7.150   7.627   1.371  1.0922 -0.2141 -0.3030
  562MOL0     H77499   7.064   7.910   1.313 -0.7737 -2.3455 -0.0655
  562MOL0     H77500   7.158   7.850   1.466  1.0679 -0.3790  0.6912
  562MOL0     H77501   7.288   7.884   1.186  3.1200 -1.8590 -0.2586
  562MOL0     H77502   7.358   7.793   1.313  1.0536  0.4278  0.9334
  562MOL0     H77503   7.281   8.091   1.340  4.0961  3.4816  0.2807
  562MOL0     H77504   7.311   7.983   1.479  2.3319 -2.7241 -0.2071
  562MOL0     H77505   7.481   8.007   1.123 -0.0919 -2.1212 -0.0488
  562MOL0     H77506   7.786   8.194   1.120 -1.0917  0.1083 -0.7151
  562MOL0     H77507   7.720   8.060   1.021 -2.0601 -4.2163  1.5624
  562MOL0     H77508   7.919   8.007   1.252  1.0559 -1.6300  0.0621
  562MOL0     H77509   7.842   7.901   1.136  0.7506 -0.6253  1.7071
  562MOL0     H77510   7.976   7.982   0.951 -1.0727 -2.8982  1.3679
  562MOL0     H77511   8.010   8.140   1.023  1.7987  0.2329 -0.4445
  562MOL0     H77512   8.223   8.010   1.035 -1.5683  0.8283 -2.6945
  562MOL0     H77513   8.146   8.018   1.199 -3.1561 -0.7592  0.6463
  562MOL0     H77514   8.006   7.636   1.140  1.4948  1.8840  1.1798
  562MOL0     H77515   7.923   7.411   1.079  0.5284  1.4547 -0.0281
  562MOL0     H77516   8.076   7.336   1.029  0.8757  0.1786  3.4452
  562MOL0     H77517   7.934   7.363   0.918  3.0490 -1.0683 -1.8639
  562MOL0     H77518   8.382   7.411   0.517  1.3646 -0.1870 -2.0565
  562MOL0     H77519   8.414   7.254   0.321  1.3698  2.8168 -0.8761
  562MOL0     H77520   8.195   7.070  -0.017  2.2577  0.4250  2.0350
  562MOL0     H77521   8.065   7.082   0.112 -1.0313 -1.7565 -0.2925
  562MOL0     H77522   7.981   7.213  -0.068 -0.2520  2.0912 -0.6880
  562MOL0     H77523   8.087   7.337   0.006  2.5116 -1.0071  2.4378
  562MOL0     H77524   8.150   7.165  -0.241 -1.4888 -1.7568  3.1094
  562MOL0     H77525   8.270   7.257  -0.160  0.5314 -0.4201 -1.5446
  562MOL0     H77526   8.122   7.456  -0.205 -2.1152  1.2118 -2.5740
  562MOL0     H77527   8.016   7.354  -0.289 -0.4382  2.9209  0.9900
  562MOL0     H77528   8.314   7.409  -0.364  0.2543  0.6434 -0.8187
  562MOL0     H77529   8.214   7.281  -0.437 -0.4313 -0.4724  2.5082
  562MOL0     H77530   8.214   7.441  -0.591 -0.0480 -1.9865  0.7851
  562MOL0     H77531   8.239   7.572  -0.476  1.4428 -1.6748  2.4943
  562MOL0     H77532   7.979   7.545  -0.444  0.8693  2.0953 -0.5603
  562MOL0     H77533   8.009   7.415  -0.568 -0.6773 -0.1352 -1.2002
  562MOL0     H77534   7.924   7.571  -0.681  0.6611 -3.1893  1.6590
  562MOL0     H77535   8.093   7.558  -0.736 -2.4257  1.8506 -2.8478
  562MOL0     H77536   7.989   7.291   0.221  1.2048  2.5507 -2.8676
  562MOL0     H77537   7.961   7.409   0.409  0.4899 -1.3111  3.8246
  562MOL0     H77538   8.233   7.709   0.714  0.4198  0.7303  0.8547
  562MOL0     H77539   8.264   7.853   0.891 -1.5579  1.8570  2.8962
  562MOL0     H77540   6.433   7.233   1.349  3.0443  1.3402  2.8997
  562MOL0     H77541   6.197   7.219   1.278  2.0607 -1.5577  1.0697
  562MOL0     H77542   5.766   7.509   1.328 -1.1839 -0.0360  1.0012
  562MOL0     H77543   5.528   7.485   1.265 -1.5114 -1.2676 -1.0418
  562MOL0     H77544   5.329   7.287   1.343  2.1040 -1.4901  0.4731
  562MOL0     H77545   5.258   7.338   1.187 -1.6243  0.6598  3.4031
  562MOL0     H77546   5.315   7.043   1.285 -3.0814 -1.1888  2.6540
  562MOL0     H77547   5.250   7.099   1.130  2.1250  1.6861  0.2337
  562MOL0     H77548   5.074   7.018   1.239  2.5343 -2.1593 -0.2410
  562MOL0     H77549   5.120   7.075   1.399  0.0644 -1.6753 -0.6737
  562MOL0     H77550   5.043   7.262   1.169  4.3617  0.5272  0.5012
  562MOL0     H77551   5.062   7.307   1.335 -0.8911  0.7360 -0.5502
  562MOL0     H77552   4.669   7.167   1.359  0.8544 -0.3442 -1.9196
  562MOL0     H77553   5.569   7.060   1.249 -0.2410  0.4469  0.7416
  562MOL0     H77554   5.783   7.001   1.452  1.4773  0.3329  0.4086
  562MOL0     H77555   5.757   6.957   1.280  1.3606 -1.8330  0.5816
  562MOL0     H77556   5.907   7.037   1.324  0.1442 -0.4267 -3.3671
  563MOL0     O77557  10.536  11.085   4.346  0.7186 -0.3059  0.3886
  563MOL0     C77558  10.640  11.029   4.361 -0.5473  0.9412 -0.8123
  563MOL0     O77559  10.665  10.902   4.315  0.2767 -0.0714  0.1878
  563MOL0     C77560  10.594  10.843   4.212 -0.3215 -0.1844 -0.5828
  563MOL0     C77561  10.598  10.709   4.194  0.4452  0.3040 -0.5245
  563MOL0     C77562  10.526  10.638   4.103 -0.5713  0.1281  0.3007
  563MOL0     C77563  10.446  10.692   4.014  0.0202  0.0929  0.0488
  563MOL0     O77564  10.386  10.624   3.914 -0.9237 -0.1938  0.0895
  563MOL0     C77565  10.485  10.550   3.827  0.5694 -1.3904 -0.2714
  563MOL0     C77566  10.482  10.401   3.852  0.1129  0.7879  0.1376
  563MOL0     C77567  10.355  10.324   3.811  0.9898  0.1458  0.9861
  563MOL0     C77568  10.374  10.176   3.811 -0.4034  0.2992 -0.7118
  563MOL0     C77569  10.272  10.098   3.729  0.3326  0.0296 -0.6838
  563MOL0     C77570  10.275   9.951   3.783 -0.5582  0.4932  0.5971
  563MOL0     C77571  10.414   9.872   3.778 -0.2031  0.4670  1.5516
  563MOL0     C77572  10.397   9.722   3.800 -0.8712 -0.1431 -0.0625
  563MOL0     N77573  10.312   9.641   3.710  0.5393 -0.0648  1.3391
  563MOL0     C77574  10.188   9.594   3.749  0.2861  0.1347  1.1149
  563MOL0     C77575  10.164   9.493   3.660 -0.0601  0.0371  0.0472
  563MOL0     C77576  10.032   9.415   3.636  0.1349 -1.1826 -0.2478
  563MOL0     C77577  10.044   9.301   3.523  0.5225 -0.1474 -0.2307
  563MOL0     C77578  10.133   9.184   3.559  0.0016 -1.6099  0.5563
  563MOL0     C77579  10.095   9.103   3.684 -0.1488  0.7516 -1.4669
  563MOL0     O77580  10.150   9.177   3.793 -0.4255  0.4826 -0.5424
  563MOL0     C77581  10.278   9.137   3.830  0.3077 -0.8593  0.2942
  563MOL0     C77582  10.314   9.017   3.876  0.2351 -0.5326  0.2578
  563MOL0     C77583  10.446   8.987   3.913 -0.1858  1.2229 -0.8465
  563MOL0     C77584  10.478   8.842   3.960 -0.5066  0.6509  0.3731
  563MOL0     C77585  10.543   9.091   3.897 -0.9512 -1.3481 -0.5092
  563MOL0     C77586  10.683   9.074   3.910  0.9791  0.3530  0.5758
  563MOL0     O77587  10.754   9.108   3.798  0.2824 -0.0783  0.5895
  563MOL0     C77588  10.886   9.127   3.818 -1.3371 -1.2258  1.0116
  563MOL0     C77589  10.953   9.104   3.703  0.0225 -1.2948 -0.2280
  563MOL0     C77590  11.096   9.134   3.702  0.0352  0.3714 -0.8571
  563MOL0     C77591  11.157   9.186   3.808 -0.0842  0.4648 -0.0410
  563MOL0     O77592  11.287   9.222   3.786 -0.1762  0.0202  0.4136
  563MOL0     C77593  11.365   9.237   3.896 -0.4030  0.3234  0.3441
  563MOL0     C77594  11.516   9.226   3.863  0.2893  0.4480 -0.1328
  563MOL0     C77595  11.545   9.343   3.772  0.1716 -0.3545  0.7801
  563MOL0     C77596  11.691   9.384   3.762  0.6440  1.0765  0.0631
  563MOL0     C77597  11.774   9.270   3.719 -0.4778 -0.4723 -0.0945
  563MOL0     C77598  11.929   9.313   3.736 -0.3850  0.0304  0.3945
  563MOL0     C77599  11.967   9.427   3.647 -0.2202 -0.1415  0.2063
  563MOL0     C77600  11.971   9.380   3.499 -0.6273 -0.0609 -0.5843
  563MOL0    Cl77601  11.812   9.403   3.435  0.3911  0.0222  0.2097
  563MOL0     C77602  11.082   9.203   3.926 -0.4652  0.0470 -0.1351
  563MOL0     C77603  10.943   9.173   3.933  0.1364  0.1605 -0.8465
  563MOL0     O77604  10.718   9.014   4.009  0.7158  0.4535 -0.6534
  563MOL0     C77605  10.506   9.208   3.837 -0.5854  0.2371  0.7978
  563MOL0     C77606  10.374   9.239   3.804 -0.6008  1.1821 -0.1236
  563MOL0     N77607  10.269   9.493   3.568 -0.5202 -0.2901  0.5980
  563MOL0     N77608  10.365   9.571   3.609  0.7477 -0.7601  0.0766
  563MOL0     C77609  10.448  10.831   4.017 -0.0013  0.4841  0.0708
  563MOL0     C77610  10.520  10.908   4.108 -0.0332  0.1785 -0.3832
  563MOL0     C77611  10.753  11.095   4.419  0.2120  0.7633 -0.0104
  563MOL0     C77612  10.877  11.049   4.400 -0.7605  1.0427  0.2872
  563MOL0     C77613  10.986  11.112   4.454  0.5569 -0.2131 -1.1153
  563MOL0     C77614  10.972  11.229   4.539  0.1545 -0.4990  1.0398
  563MOL0     O77615  11.087  11.288   4.581 -0.0510 -0.3575  0.6337
  563MOL0     C77616  11.081  11.367   4.698 -0.7284 -0.0482 -1.6956
  563MOL0     C77617  11.216  11.440   4.713  0.2957  0.3863  0.6802
  563MOL0     C77618  11.214  11.547   4.819 -0.1345  0.4996  0.2045
  563MOL0     C77619  11.342  11.622   4.834 -0.4722  0.5332 -0.3376
  563MOL0     C77620  11.469  11.540   4.835  1.3095  0.0291 -0.4262
  563MOL0     C77621  11.571  11.475   4.833 -0.5145 -0.4665 -0.4897
  563MOL0     C77622  10.846  11.284   4.546  1.1460  0.3321  0.3836
  563MOL0     C77623  10.728  11.215   4.492 -0.9368 -0.6498 -0.3705
  563MOL0     C77624  10.598  11.296   4.512  0.5543 -0.5889  0.7898
  563MOL0     H77625  10.663  10.654   4.261 -0.9016  0.0863  0.6796
  563MOL0     H77626  10.554  10.534   4.111 -0.8564  0.1022  1.0645
  563MOL0     H77627  10.588  10.582   3.845 -0.1063  0.1659  1.1503
  563MOL0     H77628  10.459  10.572   3.723  1.3321  0.9807 -0.0285
  563MOL0     H77629  10.556  10.357   3.784  0.8458  0.9839  0.8009
  563MOL0     H77630  10.514  10.372   3.952 -1.5032  4.2550  1.8454
  563MOL0     H77631  10.279  10.363   3.880  0.5561  2.0154 -0.4646
  563MOL0     H77632  10.327  10.343   3.707  2.2480  3.5186  1.1237
  563MOL0     H77633  10.472  10.158   3.765 -1.4748 -1.4999 -2.4267
  563MOL0     H77634  10.364  10.141   3.914 -2.5797  1.0306 -0.6264
  563MOL0     H77635  10.310  10.110   3.627 -1.6290  0.5170 -1.3979
  563MOL0     H77636  10.170  10.134   3.739  0.0173 -1.2389  1.2213
  563MOL0     H77637  10.238   9.959   3.885  1.4620  3.0003  1.2215
  563MOL0     H77638  10.201   9.900   3.720  0.1654 -0.7322  0.6922
  563MOL0     H77639  10.485   9.904   3.854  3.0929 -0.5979 -0.8347
  563MOL0     H77640  10.455   9.891   3.678 -1.3801 -0.4311  0.8653
  563MOL0     H77641  10.500   9.687   3.790  0.1238  1.8432  2.1032
  563MOL0     H77642  10.373   9.716   3.906  3.1148 -0.9055  0.9292
  563MOL0     H77643  10.133   9.636   3.832  1.5518  0.5530  1.7558
  563MOL0     H77644   9.946   9.479   3.612  1.0150 -0.0417 -0.4325
  563MOL0     H77645  10.006   9.371   3.732  1.5965 -0.6199  0.4338
  563MOL0     H77646   9.945   9.268   3.494  1.0226 -0.8857 -1.1463
  563MOL0     H77647  10.071   9.349   3.428  1.3371  1.4290  0.7419
  563MOL0     H77648  10.132   9.115   3.474  0.9988 -0.3980 -0.4843
  563MOL0     H77649  10.236   9.218   3.548 -0.3781 -1.2405 -4.5468
  563MOL0     H77650   9.987   9.099   3.702  0.1565 -3.3161  0.6797
  563MOL0     H77651  10.133   9.001   3.679 -0.3179  0.5951 -0.1393
  563MOL0     H77652  10.235   8.943   3.872  0.1197 -0.3516 -1.9118
  563MOL0     H77653  10.537   8.830   4.051 -2.5859  0.1612  1.7166
  563MOL0     H77654  10.536   8.796   3.880 -0.7829  1.5699 -0.3826
  563MOL0     H77655  10.389   8.780   3.972 -1.2741  0.8787 -3.1008
  563MOL0     H77656  10.894   9.063   3.622 -1.7001  0.7532 -0.1063
  563MOL0     H77657  11.153   9.115   3.612  1.4059 -3.6299  0.6253
  563MOL0     H77658  11.350   9.331   3.949 -0.4064  0.6545 -0.2351
  563MOL0     H77659  11.350   9.153   3.965  1.4995 -3.3194 -3.2547
  563MOL0     H77660  11.567   9.237   3.960 -1.4294 -0.8377  0.9742
  563MOL0     H77661  11.540   9.130   3.818 -0.8727 -0.3472  0.8732
  563MOL0     H77662  11.482   9.431   3.791 -0.5063 -0.7933  0.6105
  563MOL0     H77663  11.512   9.321   3.670 -0.1826  1.4136  0.4788
  563MOL0     H77664  11.724   9.417   3.861 -0.4249 -1.7037  1.4779
  563MOL0     H77665  11.677   9.470   3.696 -1.3622  1.4986  0.9604
  563MOL0     H77666  11.756   9.196   3.797 -3.8241  1.4404  1.1922
  563MOL0     H77667  11.751   9.240   3.616 -0.2671  0.6392 -0.4844
  563MOL0     H77668  11.982   9.219   3.721  2.1736  1.4366 -0.1013
  563MOL0     H77669  11.938   9.342   3.841 -0.0028 -1.6761  0.8597
  563MOL0     H77670  12.064   9.470   3.676 -1.3512  4.3078 -1.8396
  563MOL0     H77671  11.903   9.514   3.659 -1.5901 -0.9239 -1.0693
  563MOL0     H77672  12.007   9.278   3.487  4.3654  1.1327  1.3654
  563MOL0     H77673  12.036   9.436   3.430 -1.5899  1.1411 -0.5636
  563MOL0     H77674  11.131   9.268   3.998  0.5701  3.8085 -3.8100
  563MOL0     H77675  10.893   9.186   4.028 -0.3552  1.6382 -1.2787
  563MOL0     H77676  10.581   9.286   3.824  3.8925 -3.8473 -1.2546
  563MOL0     H77677  10.353   9.334   3.756  1.6604  1.3929 -0.8493
  563MOL0     H77678  10.372  10.868   3.948 -1.1418  1.2126  1.6381
  563MOL0     H77679  10.526  11.016   4.100  0.7087  0.1210 -0.7017
  563MOL0     H77680  10.901  10.971   4.329  0.3290 -0.3223  2.0783
  563MOL0     H77681  11.090  11.094   4.427  2.0360  0.9197  3.0187
  563MOL0     H77682  11.000  11.441   4.693 -1.8087 -1.1365 -0.8195
  563MOL0     H77683  11.057  11.301   4.782  1.3323 -0.8003 -1.6495
  563MOL0     H77684  11.247  11.487   4.619  4.2923  1.8398  2.4919
  563MOL0     H77685  11.290  11.364   4.741 -1.4376 -1.8302 -0.3643
  563MOL0     H77686  11.127  11.614   4.813 -0.9232 -0.6451 -2.4330
  563MOL0     H77687  11.212  11.485   4.909  0.4578  2.1670  1.4075
  563MOL0     H77688  11.326  11.666   4.934 -0.2980 -0.3402  0.0801
  563MOL0     H77689  11.368  11.701   4.763 -4.1639  1.7500 -0.5845
  563MOL0     H77690  11.666  11.428   4.822 -0.2110  0.6533 -3.7725
  563MOL0     H77691  10.817  11.373   4.601 -3.2185  0.9206 -2.3142
  563MOL0     H77692  10.610  11.384   4.575 -0.8751  1.5477 -1.7079
  563MOL0     H77693  10.566  11.333   4.414  3.8113  1.2751  0.2812
  563MOL0     H77694  10.524  11.229   4.556 -1.1780  1.6298  1.3970
  564MOL0     O77695   3.692   4.375   1.103 -0.0958 -0.1406  0.5049
  564MOL0     C77696   3.637   4.282   1.164  0.6198  0.7726 -0.0787
  564MOL0     O77697   3.516   4.232   1.129 -0.2831  0.6789  0.4494
  564MOL0     C77698   3.455   4.292   1.021 -0.4291  0.6936  0.9074
  564MOL0     C77699   3.419   4.219   0.911 -0.2550 -0.6561 -0.1588
  564MOL0     C77700   3.339   4.284   0.810 -0.4235  0.3057 -0.4776
  564MOL0     C77701   3.327   4.422   0.803  0.7734 -0.4510  0.0663
  564MOL0     O77702   3.276   4.493   0.690 -0.0144  0.3544 -0.2001
  564MOL0     C77703   3.301   4.437   0.555 -1.1981  0.0834 -1.0807
  564MOL0     C77704   3.259   4.526   0.442  0.1668 -0.4573  0.3106
  564MOL0     C77705   3.105   4.553   0.465 -0.3729  0.4663 -0.2977
  564MOL0     C77706   3.039   4.575   0.331 -0.3225 -0.7226  0.6778
  564MOL0     C77707   3.057   4.721   0.282 -0.8162 -0.7167 -0.4426
  564MOL0     C77708   3.053   4.726   0.135  0.6407 -1.0625 -0.1507
  564MOL0     C77709   3.012   4.874   0.098  0.3384  0.5405 -0.5805
  564MOL0     C77710   3.065   4.914  -0.037 -0.7503 -0.7216 -0.2002
  564MOL0     N77711   2.968   4.897  -0.148  0.4568 -0.8403 -0.9569
  564MOL0     C77712   2.890   5.002  -0.182  1.0603  0.2166  0.0842
  564MOL0     C77713   2.841   4.983  -0.308  0.6360  0.7151 -0.4579
  564MOL0     C77714   2.753   5.082  -0.378  0.2123  0.6628  0.3661
  564MOL0     C77715   2.851   5.203  -0.405  0.2791 -0.1466 -0.5432
  564MOL0     C77716   2.783   5.309  -0.488 -0.5559  1.4873  0.0682
  564MOL0     C77717   2.647   5.358  -0.427 -0.2376 -0.6436  0.6689
  564MOL0     O77718   2.647   5.494  -0.472 -0.0271 -0.7754  0.1201
  564MOL0     C77719   2.537   5.569  -0.423 -0.1363 -1.1623 -1.4189
  564MOL0     C77720   2.534   5.705  -0.468  0.7054 -1.6152  0.7208
  564MOL0     C77721   2.446   5.812  -0.425 -0.7276 -0.2457  0.2737
  564MOL0     C77722   2.433   5.933  -0.512  0.7536 -0.2579  0.0713
  564MOL0     C77723   2.353   5.780  -0.322  0.2123  0.1501 -0.7510
  564MOL0     C77724   2.280   5.878  -0.240 -0.1952  0.0565 -0.5487
  564MOL0     O77725   2.184   5.823  -0.153 -0.3303 -0.7680 -1.1422
  564MOL0     C77726   2.124   5.907  -0.066 -1.5478 -0.3804  0.5966
  564MOL0     C77727   2.021   6.003  -0.098  0.2714  0.1644  0.0044
  564MOL0     C77728   1.951   6.072  -0.003 -0.4189 -0.2818  0.3451
  564MOL0     C77729   1.960   6.031   0.131  0.0448  1.2814 -0.3778
  564MOL0     O77730   1.878   6.089   0.232  0.0728  0.3852  0.0209
  564MOL0     C77731   1.858   6.013   0.354  0.4713 -0.8059 -0.4653
  564MOL0     C77732   1.765   6.077   0.455 -0.4811  0.1767 -0.1583
  564MOL0     C77733   1.850   6.197   0.513  0.2393  0.2646  0.1288
  564MOL0     C77734   1.943   6.159   0.628 -0.6242  1.0665  0.2489
  564MOL0     C77735   1.892   6.081   0.753  0.6347 -0.4835 -0.9276
  564MOL0     C77736   1.998   6.051   0.853  0.3657  0.0020  0.3635
  564MOL0     C77737   1.962   6.101   0.990 -0.0738 -0.3629 -0.1453
  564MOL0     C77738   1.966   6.252   1.008 -0.1907  1.3918  0.5636
  564MOL0    Cl77739   1.872   6.305   1.149 -0.6869  0.1588  0.1909
  564MOL0     C77740   2.056   5.925   0.161 -0.2805 -1.2351  0.4692
  564MOL0     C77741   2.137   5.876   0.064  0.6920  1.0932 -0.1959
  564MOL0     O77742   2.298   5.994  -0.259  0.1399 -0.4233 -0.2425
  564MOL0     C77743   2.352   5.642  -0.274  0.2445 -0.7078 -0.0124
  564MOL0     C77744   2.442   5.539  -0.319 -0.0740  0.0443  0.2272
  564MOL0     N77745   2.899   4.863  -0.346  0.0454  0.0255 -0.2147
  564MOL0     N77746   2.981   4.824  -0.259 -0.1974 -0.2898 -0.7144
  564MOL0     C77747   3.358   4.491   0.916 -0.4749 -0.2437  0.1259
  564MOL0     C77748   3.422   4.429   1.022 -0.0686  0.0750 -0.0219
  564MOL0     C77749   3.711   4.223   1.277  0.2864  0.3104 -0.5029
  564MOL0     C77750   3.827   4.275   1.319 -0.1865  0.6519  0.7074
  564MOL0     C77751   3.903   4.241   1.431  0.2124  0.2572 -0.9812
  564MOL0     C77752   3.848   4.156   1.526  0.3354  0.0754 -0.8099
  564MOL0     O77753   3.899   4.111   1.647 -0.9552  0.0961 -0.2256
  564MOL0     C77754   4.008   4.173   1.722  0.9966 -0.1663  0.4299
  564MOL0     C77755   3.963   4.217   1.857 -0.4800 -0.2397  0.4501
  564MOL0     C77756   3.940   4.095   1.942 -0.0207 -0.2854 -1.3845
  564MOL0     C77757   3.905   4.134   2.090  0.0471 -0.4442  0.2903
  564MOL0     C77758   3.778   4.212   2.106  0.2914  0.1083 -0.8841
  564MOL0     C77759   3.675   4.261   2.096 -0.3599 -0.3437 -0.5666
  564MOL0     C77760   3.723   4.101   1.492 -0.7696  0.0585 -0.4078
  564MOL0     C77761   3.653   4.122   1.366 -0.1384  0.9506  0.1203
  564MOL0     C77762   3.525   4.043   1.339  0.3703  0.7450 -0.5504
  564MOL0     H77763   3.434   4.111   0.911  0.5269 -0.5564 -0.9040
  564MOL0     H77764   3.297   4.216   0.736 -0.3894 -2.0517  1.5553
  564MOL0     H77765   3.241   4.346   0.541 -1.1385 -0.4977  1.7207
  564MOL0     H77766   3.407   4.416   0.545 -0.7244 -0.4962  3.2944
  564MOL0     H77767   3.322   4.615   0.444  1.9097 -1.6513  0.4499
  564MOL0     H77768   3.264   4.479   0.344  0.1470  1.1141 -0.4750
  564MOL0     H77769   3.060   4.466   0.513  0.5272 -1.4849 -2.7649
  564MOL0     H77770   3.082   4.635   0.533 -0.5679  0.4769 -0.3744
  564MOL0     H77771   3.077   4.501   0.259 -0.2959 -1.2098  1.1831
  564MOL0     H77772   2.933   4.547   0.337  0.1285 -2.6112  0.5651
  564MOL0     H77773   3.146   4.773   0.319 -0.4336  0.7022 -3.1409
  564MOL0     H77774   2.971   4.775   0.324  0.3608  1.5801 -0.8127
  564MOL0     H77775   3.147   4.693   0.089  0.9897  1.2237 -1.2331
  564MOL0     H77776   2.980   4.667   0.079  0.4873  1.0849 -2.3944
  564MOL0     H77777   3.050   4.944   0.174 -0.9300  0.0561  0.5462
  564MOL0     H77778   2.903   4.873   0.085  0.5652 -4.1977 -6.5385
  564MOL0     H77779   3.079   5.022  -0.032 -1.8867 -0.6120  2.3833
  564MOL0     H77780   3.157   4.857  -0.052 -0.3761  0.2532 -1.9497
  564MOL0     H77781   2.853   5.072  -0.108 -2.9495 -4.1274  2.7222
  564MOL0     H77782   2.667   5.113  -0.317  0.2928  1.0840  0.2662
  564MOL0     H77783   2.715   5.037  -0.471  1.7723 -1.1282  0.5448
  564MOL0     H77784   2.882   5.256  -0.315 -0.5254 -2.6557  1.2974
  564MOL0     H77785   2.942   5.166  -0.453  1.4338  0.9035  0.7709
  564MOL0     H77786   2.851   5.392  -0.509 -0.2631  1.2197 -0.0598
  564MOL0     H77787   2.759   5.267  -0.586 -0.4595  2.1907 -0.2624
  564MOL0     H77788   2.558   5.309  -0.468 -1.4820  2.8886 -1.2296
  564MOL0     H77789   2.650   5.359  -0.318 -0.6482 -1.8194  0.7088
  564MOL0     H77790   2.587   5.745  -0.554  0.6240  4.1591  2.8784
  564MOL0     H77791   2.506   5.943  -0.593  1.0993 -2.3302  0.0734
  564MOL0     H77792   2.443   6.018  -0.445 -5.3971  0.4265  0.7308
  564MOL0     H77793   2.332   5.942  -0.552  1.5964  0.0601 -2.1019
  564MOL0     H77794   1.993   6.014  -0.202  0.1006 -2.0367 -0.2122
  564MOL0     H77795   1.877   6.149  -0.023 -0.7270 -0.3801  1.0627
  564MOL0     H77796   1.810   5.921   0.319 -0.0123 -0.9664  0.5848
  564MOL0     H77797   1.957   5.989   0.394  0.6536  0.4457 -0.1351
  564MOL0     H77798   1.669   6.105   0.410 -1.2414 -3.2541 -0.9607
  564MOL0     H77799   1.748   5.999   0.529 -0.5431 -1.5687 -1.9344
  564MOL0     H77800   1.771   6.269   0.539 -0.8473 -1.0595  0.5885
  564MOL0     H77801   1.906   6.243   0.431  1.9215 -0.9048  0.5691
  564MOL0     H77802   1.996   6.245   0.669 -1.6588  1.2113  1.3313
  564MOL0     H77803   2.029   6.107   0.584  0.7308  2.7970  0.7370
  564MOL0     H77804   1.805   6.139   0.786  0.4480 -1.5834  0.6308
  564MOL0     H77805   1.844   5.987   0.726  0.4391 -0.9133  0.8147
  564MOL0     H77806   2.087   6.109   0.828 -1.1354  3.6051  2.5740
  564MOL0     H77807   2.016   5.943   0.856  2.3758  0.1689 -2.0565
  564MOL0     H77808   2.038   6.060   1.058 -0.7961 -0.0247  0.8856
  564MOL0     H77809   1.866   6.057   1.020 -1.5932  1.6157 -1.8533
  564MOL0     H77810   1.925   6.298   0.917 -2.2773  1.9387  1.7022
  564MOL0     H77811   2.066   6.296   1.013 -0.0081  1.0498  0.0431
  564MOL0     H77812   2.079   5.882   0.258  1.6460  1.8693  1.5281
  564MOL0     H77813   2.217   5.805   0.086 -1.2266 -0.8697  0.8094
  564MOL0     H77814   2.281   5.608  -0.199 -0.2781 -2.2753 -1.1614
  564MOL0     H77815   2.439   5.441  -0.273  3.0105 -0.2231  0.1136
  564MOL0     H77816   3.323   4.593   0.928  0.8955  0.0215  2.4156
  564MOL0     H77817   3.438   4.476   1.118 -0.5784 -1.2416  0.7323
  564MOL0     H77818   3.871   4.347   1.251 -1.2244 -0.3419 -1.0812
  564MOL0     H77819   3.986   4.306   1.460 -1.6210  1.2573  2.5872
  564MOL0     H77820   4.080   4.091   1.729 -2.1314 -3.4181 -1.9404
  564MOL0     H77821   4.043   4.257   1.662 -1.5177  3.2962  3.3567
  564MOL0     H77822   3.872   4.276   1.843 -0.4000 -0.1971  0.0990
  564MOL0     H77823   4.042   4.285   1.894  0.7203 -0.7548 -1.0686
  564MOL0     H77824   3.866   4.026   1.901 -1.5530 -0.1981  1.0188
  564MOL0     H77825   4.034   4.039   1.949 -0.9385 -1.6212  1.0354
  564MOL0     H77826   3.982   4.201   2.130  1.6913 -1.6322 -0.7230
  564MOL0     H77827   3.912   4.047   2.155  2.0501  0.3099  1.1678
  564MOL0     H77828   3.575   4.300   2.089 -0.7471 -1.1150  0.5625
  564MOL0     H77829   3.679   4.021   1.552 -0.4201 -1.8639 -2.5659
  564MOL0     H77830   3.490   3.970   1.412 -0.8994  0.7807 -1.0999
  564MOL0     H77831   3.440   4.110   1.323  0.4674  0.7148 -1.2076
  564MOL0     H77832   3.553   3.993   1.246  3.3690  0.3630  0.4321
  565MOL0     O77833   8.803   8.242  10.002 -0.4786  0.3062 -0.4393
  565MOL0     C77834   8.742   8.194  10.097  0.2702  0.3014  0.6093
  565MOL0     O77835   8.639   8.115  10.086  0.0252 -0.1283 -0.0873
  565MOL0     C77836   8.591   8.082   9.962 -0.1166  0.3481  0.2403
  565MOL0     C77837   8.455   8.108   9.921  0.4196  0.2610  0.2209
  565MOL0     C77838   8.403   8.054   9.805  0.5972  0.2880  0.0015
  565MOL0     C77839   8.481   7.972   9.718 -0.5516 -0.6845  0.5676
  565MOL0     O77840   8.436   7.919   9.596  0.4832 -0.0810  0.4943
  565MOL0     C77841   8.299   7.895   9.572  0.3616 -0.2642 -0.6923
  565MOL0     C77842   8.220   8.000   9.482 -0.2672  0.0196  0.5306
  565MOL0     C77843   8.238   7.980   9.331 -0.3833  0.0888  0.2240
  565MOL0     C77844   8.157   7.855   9.282 -0.8663 -0.1897 -0.0903
  565MOL0     C77845   8.161   7.824   9.138  0.7439  0.2882  0.0152
  565MOL0     C77846   8.063   7.717   9.079 -0.1240  0.3758  0.6817
  565MOL0     C77847   8.094   7.574   9.142 -0.1109  0.5910 -0.6287
  565MOL0     C77848   8.248   7.518   9.157  0.8121 -0.4497  0.4834
  565MOL0     N77849   8.326   7.509   9.035 -0.2227 -0.0601 -0.0596
  565MOL0     C77850   8.347   7.388   8.977 -0.6199 -0.5956 -0.3885
  565MOL0     C77851   8.440   7.415   8.880 -0.5767 -1.0689  0.3153
  565MOL0     C77852   8.512   7.313   8.795 -0.1061  0.8044  0.4970
  565MOL0     C77853   8.657   7.337   8.815 -0.0440  0.5882  0.8508
  565MOL0     C77854   8.718   7.283   8.944  0.2957  0.1981 -0.0204
  565MOL0     C77855   8.810   7.382   9.013  0.4520 -0.0153  0.7377
  565MOL0     O77856   8.939   7.376   8.954 -0.6219 -0.7038 -0.5505
  565MOL0     C77857   9.026   7.476   8.980  0.7362  0.0541 -0.5986
  565MOL0     C77858   9.096   7.475   9.100  0.1057 -0.6181  0.5456
  565MOL0     C77859   9.200   7.559   9.125 -0.6345 -0.3193  0.9084
  565MOL0     C77860   9.277   7.538   9.247  0.0983 -0.2295  0.4215
  565MOL0     C77861   9.232   7.670   9.032 -0.5931 -0.7792 -0.1551
  565MOL0     C77862   9.330   7.786   9.055 -0.0653 -0.0181 -0.2009
  565MOL0     O77863   9.312   7.885   8.961 -0.3342  0.7893  0.1314
  565MOL0     C77864   9.363   8.008   8.992  0.5716 -0.2311 -0.2232
  565MOL0     C77865   9.280   8.123   8.995  0.6000  0.3084  0.5381
  565MOL0     C77866   9.323   8.248   9.030 -0.6502  0.1689  0.1922
  565MOL0     C77867   9.454   8.271   9.057 -0.0084  0.7685 -0.1740
  565MOL0     O77868   9.492   8.393   9.100  0.0416  0.4438  0.1990
  565MOL0     C77869   9.500   8.489   8.997  0.1445 -0.6878 -0.4107
  565MOL0     C77870   9.580   8.606   9.045  0.1642  0.8883 -0.0726
  565MOL0     C77871   9.728   8.568   9.051 -0.2220 -0.3635  1.0527
  565MOL0     C77872   9.796   8.586   9.181  0.0359  0.6499  0.4817
  565MOL0     C77873   9.941   8.543   9.195  0.3842  0.4263  0.1491
  565MOL0     C77874  10.010   8.552   9.330  0.5679  0.5947  0.2063
  565MOL0     C77875  10.160   8.511   9.330 -0.3196  0.0864  0.2551
  565MOL0     C77876  10.231   8.505   9.467  0.5046  0.1137 -0.5603
  565MOL0    Cl77877  10.385   8.426   9.447 -0.6035 -0.4733 -0.2209
  565MOL0     C77878   9.542   8.170   9.031 -0.6863  0.3964 -1.1918
  565MOL0     C77879   9.500   8.039   9.012 -0.3490 -0.2879 -1.2694
  565MOL0     O77880   9.395   7.795   9.157 -0.3882  0.0127  0.3531
  565MOL0     C77881   9.151   7.681   8.917  0.8616  0.4815 -0.1776
  565MOL0     C77882   9.056   7.572   8.887 -0.2779  0.5823  0.0909
  565MOL0     N77883   8.460   7.557   8.874 -1.0878  0.4774  1.0922
  565MOL0     N77884   8.390   7.604   8.963  0.2249 -0.5484 -1.0469
  565MOL0     C77885   8.617   7.964   9.757  0.4014  0.5286  0.6029
  565MOL0     C77886   8.669   8.010   9.878  0.0086  0.1317  0.9573
  565MOL0     C77887   8.781   8.214  10.237 -1.1389 -0.3297  0.2008
  565MOL0     C77888   8.816   8.341  10.272 -1.5233  0.2271  1.3925
  565MOL0     C77889   8.839   8.369  10.411 -0.2282 -0.2698  0.5901
  565MOL0     C77890   8.837   8.271  10.506  0.0857 -0.0741  0.2647
  565MOL0     O77891   8.842   8.325  10.637 -0.1931 -0.1269 -0.3164
  565MOL0     C77892   8.878   8.231  10.743  0.1106  0.1211 -0.5978
  565MOL0     C77893   8.935   8.301  10.870  0.8231  0.2031  1.1375
  565MOL0     C77894   8.896   8.228  10.999 -0.3704 -0.1426  0.0107
  565MOL0     C77895   8.891   8.313  11.123  0.3756  0.7320 -0.1236
  565MOL0     C77896   8.846   8.240  11.241  1.2699 -0.0323 -0.3473
  565MOL0     C77897   8.794   8.162  11.328 -0.9654 -0.8676 -0.9546
  565MOL0     C77898   8.804   8.133  10.458 -0.9904  0.0331 -0.5438
  565MOL0     C77899   8.797   8.109  10.320 -0.3453  0.6514  1.2487
  565MOL0     C77900   8.773   7.955  10.292 -0.0919 -0.4889  0.0091
  565MOL0     H77901   8.383   8.152   9.989  0.1199  0.8175 -0.4420
  565MOL0     H77902   8.295   8.067   9.806  0.7435  1.5995  0.3822
  565MOL0     H77903   8.240   7.898   9.665 -2.1777  1.6624 -2.2284
  565MOL0     H77904   8.304   7.793   9.534  4.3106 -0.4719 -0.0601
  565MOL0     H77905   8.115   7.973   9.499 -0.5047  0.2014 -0.5858
  565MOL0     H77906   8.246   8.097   9.524  2.2586 -0.5520  0.4559
  565MOL0     H77907   8.195   8.066   9.279  2.4793  1.5490  0.0718
  565MOL0     H77908   8.343   7.968   9.301  0.0529 -0.1827  1.7798
  565MOL0     H77909   8.194   7.765   9.331 -0.2420  0.9578  1.6645
  565MOL0     H77910   8.051   7.873   9.302 -1.4608 -3.7423  0.5601
  565MOL0     H77911   8.262   7.801   9.105  1.0796  0.9611  0.5390
  565MOL0     H77912   8.131   7.917   9.089 -1.5185 -0.3760  0.0190
  565MOL0     H77913   7.961   7.750   9.104 -0.6410  1.7976 -2.7375
  565MOL0     H77914   8.059   7.725   8.970  0.6048 -3.5173  0.2143
  565MOL0     H77915   8.039   7.494   9.091  0.4372  0.3188 -0.7955
  565MOL0     H77916   8.050   7.580   9.242 -0.3594  2.7655 -0.8303
  565MOL0     H77917   8.307   7.579   9.226  0.4883  4.3182 -2.9849
  565MOL0     H77918   8.243   7.416   9.198  0.9247 -0.6100  0.1061
  565MOL0     H77919   8.327   7.291   9.022  1.7193  0.1084  2.4965
  565MOL0     H77920   8.492   7.313   8.687  2.1905  0.4075  0.0243
  565MOL0     H77921   8.484   7.212   8.826  0.3994  1.5069  3.5585
  565MOL0     H77922   8.703   7.286   8.730  1.8734  1.9868  0.9708
  565MOL0     H77923   8.677   7.443   8.794  1.6485  0.8166  3.1425
  565MOL0     H77924   8.642   7.264   9.021 -1.0733  1.7096 -0.9444
  565MOL0     H77925   8.774   7.191   8.924  0.4804  0.6425 -1.6768
  565MOL0     H77926   8.768   7.483   9.015  3.2567  1.2935 -1.4266
  565MOL0     H77927   8.834   7.348   9.115 -1.6383  1.2823  1.7416
  565MOL0     H77928   9.074   7.396   9.172 -0.1755  0.5650  1.7917
  565MOL0     H77929   9.248   7.624   9.309 -2.1489  1.1749 -2.3787
  565MOL0     H77930   9.386   7.543   9.239  0.1093  3.1397  0.9467
  565MOL0     H77931   9.261   7.437   9.284 -1.0862 -0.4013 -0.4985
  565MOL0     H77932   9.173   8.112   8.979  0.4321  4.7023 -3.6639
  565MOL0     H77933   9.251   8.328   9.048  0.4657  1.0485  0.9429
  565MOL0     H77934   9.535   8.437   8.907  0.8299 -0.9810  0.0198
  565MOL0     H77935   9.402   8.512   8.955  0.0604 -2.0247 -0.9980
  565MOL0     H77936   9.574   8.683   8.968 -1.6240 -0.6246 -1.5556
  565MOL0     H77937   9.553   8.642   9.144  1.0250  0.8388  0.1944
  565MOL0     H77938   9.783   8.627   8.976 -0.3441  0.1654  1.3781
  565MOL0     H77939   9.742   8.461   9.031 -1.8908 -1.2459  4.0834
  565MOL0     H77940   9.733   8.533   9.253  0.2445 -1.7053 -0.9657
  565MOL0     H77941   9.799   8.693   9.205  1.0621  1.3623 -2.3608
  565MOL0     H77942   9.949   8.436   9.176 -0.3009  0.8132 -2.8497
  565MOL0     H77943   9.999   8.589   9.115  3.4052 -3.4790 -0.1912
  565MOL0     H77944   9.961   8.488   9.403 -1.6226  0.6410 -1.1332
  565MOL0     H77945  10.017   8.650   9.377 -0.3797  1.0747 -0.6116
  565MOL0     H77946  10.215   8.580   9.265 -1.2798 -1.1972 -2.0278
  565MOL0     H77947  10.179   8.411   9.291  0.5092 -0.4473  1.9297
  565MOL0     H77948  10.178   8.459   9.551 -0.3427  2.2227  0.1288
  565MOL0     H77949  10.235   8.608   9.504 -2.4266  0.2465 -0.3307
  565MOL0     H77950   9.646   8.197   9.011 -0.2865 -2.1573 -3.1728
  565MOL0     H77951   9.574   7.960   9.004  2.1676  1.2198  3.3154
  565MOL0     H77952   9.172   7.760   8.846  0.7368  0.9900  0.3517
  565MOL0     H77953   9.019   7.576   8.785 -0.9848  2.2484  0.3791
  565MOL0     H77954   8.690   7.918   9.691 -2.9019 -2.2187 -1.4912
  565MOL0     H77955   8.772   7.984   9.897 -0.3343 -1.5646  0.6566
  565MOL0     H77956   8.826   8.422  10.200 -0.5886  0.4106  1.7131
  565MOL0     H77957   8.857   8.471  10.443 -0.4040 -0.4996  1.4583
  565MOL0     H77958   8.789   8.183  10.784  1.3282 -0.7967  1.1157
  565MOL0     H77959   8.947   8.156  10.703 -1.3929 -2.2569  1.0153
  565MOL0     H77960   8.901   8.404  10.873 -1.9053 -0.6054  0.6385
  565MOL0     H77961   9.044   8.307  10.861  0.8924 -2.4323 -1.2492
  565MOL0     H77962   8.800   8.175  10.997  0.9752 -2.7354 -0.9214
  565MOL0     H77963   8.964   8.147  11.026  1.7059  0.9157 -1.7828
  565MOL0     H77964   8.812   8.389  11.116 -2.2817 -1.5272  2.4256
  565MOL0     H77965   8.989   8.357  11.143  0.5798  0.1212  0.2298
  565MOL0     H77966   8.767   8.094  11.406 -0.9436  2.6430  2.3988
  565MOL0     H77967   8.803   8.052  10.530  1.7095  1.3773  1.2114
  565MOL0     H77968   8.797   7.931  10.188 -3.4477  2.9448 -1.7815
  565MOL0     H77969   8.832   7.888  10.355 -0.6580  1.0193  2.2717
  565MOL0     H77970   8.667   7.938  10.310 -0.2230  0.1589 -0.1335
  566MOL0     O77971   2.511   0.082  10.423  0.0249  0.2547  0.7719
  566MOL0     C77972   2.530  -0.040  10.402  0.5237 -0.1327 -0.4933
  566MOL0     O77973   2.573  -0.119  10.507  0.7080  0.9446  0.8567
  566MOL0     C77974   2.627  -0.068  10.619  0.8465 -0.3994  0.7497
  566MOL0     C77975   2.609  -0.141  10.735  0.2351 -1.3660  1.4175
  566MOL0     C77976   2.667  -0.091  10.854  0.0823  0.2174  0.5175
  566MOL0     C77977   2.762   0.018  10.862  0.5606  0.3313  0.4859
  566MOL0     O77978   2.832   0.034  10.978  0.0921 -0.6798 -0.3754
  566MOL0     C77979   2.861   0.165  11.025 -0.5212  0.0292 -0.4546
  566MOL0     C77980   2.741   0.257  11.036 -1.0295  0.4955  0.2425
  566MOL0     C77981   2.762   0.394  11.099  0.1809 -0.6751 -0.2024
  566MOL0     C77982   2.796   0.393  11.241  0.3535 -1.1499 -0.1432
  566MOL0     C77983   2.811   0.528  11.303 -0.1416  0.3528  0.5218
  566MOL0     C77984   2.797   0.513  11.456  0.9018  0.1321  0.3002
  566MOL0     C77985   2.649   0.527  11.491 -0.2679  0.2523  0.0362
  566MOL0     C77986   2.621   0.660  11.560 -0.2517 -0.1836 -0.2158
  566MOL0     N77987   2.482   0.654  11.612  1.1823 -0.2323  0.3939
  566MOL0     C77988   2.367   0.660  11.537  0.5822  0.8497  0.0346
  566MOL0     C77989   2.273   0.615  11.623  1.3091  0.7074  0.7552
  566MOL0     C77990   2.135   0.573  11.579  0.1105 -0.9173  0.0732
  566MOL0     C77991   2.120   0.427  11.532 -0.2724  0.6320  0.3287
  566MOL0     C77992   2.177   0.421  11.394 -0.7065  1.3725 -0.9717
  566MOL0     C77993   2.203   0.278  11.340 -0.2502 -1.1081 -0.4279
  566MOL0     O77994   2.276   0.270  11.215 -0.9812 -0.4381  0.7007
  566MOL0     C77995   2.215   0.280  11.091 -0.7100 -0.0769  1.2720
  566MOL0     C77996   2.286   0.242  10.977  0.7995  0.6484  0.4630
  566MOL0     C77997   2.243   0.249  10.852  0.8667 -0.4339  1.1369
  566MOL0     C77998   2.332   0.191  10.731 -0.5643 -0.4064 -0.6316
  566MOL0     C77999   2.109   0.299  10.838 -0.5713  0.7022 -0.1245
  566MOL0     C78000   2.050   0.316  10.702 -0.3887 -0.0140  0.8823
  566MOL0     O78001   2.144   0.343  10.608  0.4134 -0.5774  0.3517
  566MOL0     C78002   2.089   0.379  10.484  0.0177 -0.0463  0.2319
  566MOL0     C78003   2.063   0.522  10.463 -0.2565 -0.4672  1.5241
  566MOL0     C78004   2.011   0.567  10.337 -0.5057  0.4169 -0.7057
  566MOL0     C78005   1.979   0.472  10.243  0.2172 -0.9940 -0.1021
  566MOL0     O78006   1.907   0.504  10.135  0.8243  0.5526 -0.3305
  566MOL0     C78007   1.962   0.484  10.004  0.0503 -0.2573 -0.9262
  566MOL0     C78008   2.093   0.572   9.988  1.0089 -0.1659 -0.1478
  566MOL0     C78009   2.231   0.511  10.021 -0.3982 -1.0357 -0.4739
  566MOL0     C78010   2.361   0.581   9.997 -0.4134  0.3102 -0.2825
  566MOL0     C78011   2.470   0.536  10.087 -0.7472 -0.3200 -0.5644
  566MOL0     C78012   2.471   0.593  10.229  0.8851  0.7181 -0.7768
  566MOL0     C78013   2.593   0.526  10.297 -0.0514  0.6496 -0.0728
  566MOL0     C78014   2.642   0.590  10.429  0.1260 -0.1545 -0.4388
  566MOL0    Cl78015   2.789   0.499  10.466 -0.5354 -0.3302  0.0499
  566MOL0     C78016   2.015   0.339  10.259 -0.1627  1.0524 -0.3957
  566MOL0     C78017   2.084   0.286  10.373 -0.4510 -0.3753  0.3908
  566MOL0     O78018   1.925   0.317  10.687  0.0681  0.1095 -0.0227
  566MOL0     C78019   2.034   0.334  10.951 -0.6490  0.4913 -0.5129
  566MOL0     C78020   2.087   0.316  11.084 -0.1558 -0.0786  0.4123
  566MOL0     N78021   2.321   0.613  11.744  0.5366 -0.5079 -0.6881
  566MOL0     N78022   2.443   0.634  11.739 -0.7143  0.2437  0.1001
  566MOL0     C78023   2.784   0.079  10.747 -0.3580 -1.0619  0.2008
  566MOL0     C78024   2.712   0.043  10.627 -0.2707  0.1559  0.0529
  566MOL0     C78025   2.516  -0.097  10.271  0.7872 -0.8241 -0.1532
  566MOL0     C78026   2.542  -0.232  10.251 -0.4271  0.2530  0.4440
  566MOL0     C78027   2.516  -0.300  10.123 -0.3324 -1.1254 -0.5126
  566MOL0     C78028   2.443  -0.238  10.017 -1.1655  0.0114 -0.4948
  566MOL0     O78029   2.423  -0.289   9.892 -0.1684  0.0345  0.1129
  566MOL0     C78030   2.360  -0.420   9.882 -0.0570 -0.3170  0.1693
  566MOL0     C78031   2.338  -0.457   9.732  0.6033 -0.5428  0.6579
  566MOL0     C78032   2.333  -0.603   9.697  0.8611 -0.2348 -0.3333
  566MOL0     C78033   2.397  -0.650   9.557 -0.4431 -0.7814  0.1606
  566MOL0     C78034   2.550  -0.653   9.550  0.1579 -0.0078  0.0858
  566MOL0     C78035   2.663  -0.687   9.532 -0.6108 -0.6037 -0.0787
  566MOL0     C78036   2.412  -0.106  10.041  0.8503 -0.0121 -0.3348
  566MOL0     C78037   2.459  -0.031  10.158 -0.2581 -0.9273 -1.1166
  566MOL0     C78038   2.449   0.122  10.156 -1.0614 -0.4558 -0.4748
  566MOL0     H78039   2.556  -0.235  10.722  1.3920 -1.8254 -0.2846
  566MOL0     H78040   2.648  -0.151  10.943 -1.5932 -1.9896 -1.2027
  566MOL0     H78041   2.935   0.212  10.959 -0.9663  2.2631  0.5343
  566MOL0     H78042   2.908   0.169  11.124 -0.5967  1.6709 -0.4588
  566MOL0     H78043   2.697   0.276  10.938  2.9486  4.1230 -1.1424
  566MOL0     H78044   2.666   0.204  11.095  0.9596 -1.3617  1.2569
  566MOL0     H78045   2.839   0.452  11.048 -0.2978 -0.4468 -0.6799
  566MOL0     H78046   2.669   0.450  11.082 -0.3242 -1.4725 -0.1438
  566MOL0     H78047   2.706   0.357  11.292  1.3249  0.8822  3.3830
  566MOL0     H78048   2.885   0.333  11.263  2.0676  0.9954 -0.7996
  566MOL0     H78049   2.745   0.597  11.250  1.7996  0.1299 -2.4467
  566MOL0     H78050   2.912   0.563  11.278 -1.0989  1.9806 -1.3886
  566MOL0     H78051   2.846   0.421  11.488  1.0122 -1.5760 -4.0436
  566MOL0     H78052   2.851   0.594  11.506  4.0681 -1.2408 -0.6947
  566MOL0     H78053   2.618   0.451  11.563  0.9832 -0.0622  0.2618
  566MOL0     H78054   2.579   0.509  11.409  1.0231 -2.0497 -0.6512
  566MOL0     H78055   2.698   0.665  11.638  0.7432 -1.9179 -1.0299
  566MOL0     H78056   2.649   0.744  11.495  2.2066 -0.9144 -0.2216
  566MOL0     H78057   2.363   0.679  11.430 -1.4004  1.3676  0.1647
  566MOL0     H78058   2.090   0.643  11.509 -1.5226  0.4638  2.3754
  566MOL0     H78059   2.086   0.580  11.677 -1.3159  0.0473 -0.6780
  566MOL0     H78060   2.169   0.359  11.602 -2.1155 -1.4187 -0.2481
  566MOL0     H78061   2.016   0.394  11.524 -0.4746  0.6103  2.5780
  566MOL0     H78062   2.112   0.483  11.331  2.9061  4.5347 -1.9830
  566MOL0     H78063   2.275   0.468  11.406 -0.5455  0.3146  4.3108
  566MOL0     H78064   2.264   0.234  11.420  1.8232  0.4495 -1.0372
  566MOL0     H78065   2.108   0.224  11.338 -0.7695 -0.3264  1.1323
  566MOL0     H78066   2.390   0.217  10.993  0.4535 -0.1922  1.5197
  566MOL0     H78067   2.289   0.131  10.650 -3.9788  3.2374 -1.9026
  566MOL0     H78068   2.415   0.139  10.778  0.4669  1.0138 -0.8144
  566MOL0     H78069   2.366   0.282  10.680  1.0428 -1.8073 -2.1561
  566MOL0     H78070   2.094   0.595  10.537 -0.6827  1.4275 -0.0818
  566MOL0     H78071   1.992   0.671  10.311 -1.9435  0.6132  0.9403
  566MOL0     H78072   1.979   0.378   9.983  0.2358 -1.0907  2.7857
  566MOL0     H78073   1.888   0.533   9.940  0.9389 -1.2994 -2.8159
  566MOL0     H78074   2.094   0.583   9.879  0.0513  1.6026 -0.0227
  566MOL0     H78075   2.083   0.670  10.036  1.2249 -0.0664 -0.3026
  566MOL0     H78076   2.234   0.411   9.977 -1.5247 -0.8718 -0.9610
  566MOL0     H78077   2.230   0.490  10.128  0.9989 -1.1568 -0.4620
  566MOL0     H78078   2.337   0.686   9.984 -0.0803  0.4692  0.3463
  566MOL0     H78079   2.394   0.542   9.900  1.6463  0.7544  0.1898
  566MOL0     H78080   2.473   0.427  10.091  2.1368 -0.2842  1.8623
  566MOL0     H78081   2.566   0.555  10.038  0.1446  1.2786  1.5932
  566MOL0     H78082   2.380   0.567  10.284  1.3466  5.2034  2.7482
  566MOL0     H78083   2.469   0.701  10.211  0.5051  0.5911 -1.5714
  566MOL0     H78084   2.675   0.533  10.226  0.7744  0.3626  0.8342
  566MOL0     H78085   2.574   0.420  10.315  1.6151  0.8133  3.6242
  566MOL0     H78086   2.566   0.580  10.507 -1.1638  2.2906 -1.2715
  566MOL0     H78087   2.659   0.697  10.410  1.6636 -0.4114 -0.6341
  566MOL0     H78088   1.997   0.267  10.180  0.1196  0.1429  0.3447
  566MOL0     H78089   2.109   0.181  10.376 -0.8010 -0.5674 -1.9580
  566MOL0     H78090   1.938   0.382  10.938 -0.2924  1.0989 -0.9384
  566MOL0     H78091   2.033   0.339  11.174  2.7422  4.8159  1.2686
  566MOL0     H78092   2.853   0.162  10.741 -1.9057  0.1858 -1.6138
  566MOL0     H78093   2.741   0.097  10.537  1.1531 -2.4565 -1.1560
  566MOL0     H78094   2.586  -0.284  10.336 -1.0668  1.0335  1.2702
  566MOL0     H78095   2.542  -0.404  10.109 -2.2891 -1.2748 -4.5073
  566MOL0     H78096   2.430  -0.485   9.934 -0.1935  2.8615  4.9517
  566MOL0     H78097   2.265  -0.434   9.933 -0.0789  0.8596  0.4887
  566MOL0     H78098   2.424  -0.417   9.678  1.3023 -1.1202  1.3152
  566MOL0     H78099   2.252  -0.401   9.694  0.6208  0.1652  1.6243
  566MOL0     H78100   2.390  -0.648   9.778  0.9758 -0.0716 -0.3228
  566MOL0     H78101   2.226  -0.625   9.709  0.9814  0.5170  3.0066
  566MOL0     H78102   2.370  -0.584   9.475 -0.8067 -2.6425 -1.2773
  566MOL0     H78103   2.370  -0.756   9.552  1.1463 -1.3139  1.7697
  566MOL0     H78104   2.769  -0.701   9.532 -0.0690  2.5079  1.1165
  566MOL0     H78105   2.354  -0.045   9.973 -1.2952 -2.0877 -0.4919
  566MOL0     H78106   2.380   0.160  10.231 -1.3611  0.6985 -1.2971
  566MOL0     H78107   2.542   0.177  10.170 -1.1491 -0.5175  0.3582
  566MOL0     H78108   2.413   0.155  10.058  2.1223 -0.3641 -1.7527
  567MOL0     O78109   5.057   0.298   7.144  0.0787  0.2306 -0.0983
  567MOL0     C78110   5.176   0.315   7.155  0.0706  0.6884 -1.0019
  567MOL0     O78111   5.235   0.345   7.271 -1.1743 -0.0031  0.0962
  567MOL0     C78112   5.149   0.367   7.376  1.1725 -0.6137 -0.0576
  567MOL0     C78113   5.160   0.302   7.497 -1.0272  0.1286 -0.6690
  567MOL0     C78114   5.075   0.328   7.607  0.3455 -0.4672 -0.1752
  567MOL0     C78115   4.979   0.426   7.608 -0.2904 -0.4241  1.1093
  567MOL0     O78116   4.918   0.450   7.725  0.0439 -0.7524 -0.6416
  567MOL0     C78117   4.791   0.518   7.719  0.5369 -0.0097  0.2804
  567MOL0     C78118   4.738   0.522   7.857  0.1669 -0.3448 -0.2933
  567MOL0     C78119   4.786   0.640   7.939 -0.8307 -0.0514 -0.1356
  567MOL0     C78120   4.738   0.628   8.087  0.2867  0.1794 -0.9955
  567MOL0     C78121   4.754   0.768   8.146 -0.1352  0.2209  0.7735
  567MOL0     C78122   4.719   0.787   8.290 -0.4895 -0.0722  0.5339
  567MOL0     C78123   4.571   0.760   8.321  0.0607 -0.3455  0.8046
  567MOL0     C78124   4.515   0.799   8.452 -0.2201 -0.1627  0.2239
  567MOL0     N78125   4.374   0.763   8.475 -0.0588 -0.1295 -0.9119
  567MOL0     C78126   4.333   0.637   8.498 -0.2046 -0.0239  0.6098
  567MOL0     C78127   4.198   0.640   8.478 -0.2366 -0.0878 -0.4754
  567MOL0     C78128   4.107   0.517   8.481  0.1270 -0.9638  0.5176
  567MOL0     C78129   3.973   0.546   8.543 -0.2061  0.3936  0.1568
  567MOL0     C78130   3.995   0.569   8.690  0.2649 -0.1084 -0.5716
  567MOL0     C78131   3.876   0.531   8.771  0.1464  0.3063  0.4110
  567MOL0     O78132   3.890   0.392   8.809 -0.1507  0.0786  0.7438
  567MOL0     C78133   3.782   0.323   8.849  0.4551 -0.5271 -1.1079
  567MOL0     C78134   3.811   0.189   8.888 -1.1384 -0.3715 -0.0077
  567MOL0     C78135   3.715   0.100   8.944 -0.3109  1.3368 -0.8984
  567MOL0     C78136   3.765  -0.051   8.945 -0.1392 -0.2056  0.5408
  567MOL0     C78137   3.597   0.150   9.001 -0.3898 -0.4681 -0.0126
  567MOL0     C78138   3.503   0.061   9.073  0.9999 -0.7293  0.3353
  567MOL0     O78139   3.547  -0.055   9.127  0.2339 -0.0201  0.2748
  567MOL0     C78140   3.446  -0.138   9.166 -0.5172  0.7741  0.1413
  567MOL0     C78141   3.444  -0.178   9.301  0.6026 -0.1079 -0.4688
  567MOL0     C78142   3.344  -0.266   9.353 -0.0949 -0.4080  0.1165
  567MOL0     C78143   3.239  -0.301   9.267 -0.1515  0.2536  0.5725
  567MOL0     O78144   3.135  -0.380   9.322  0.2700 -0.9568 -0.0390
  567MOL0     C78145   3.057  -0.462   9.227 -0.2985 -0.0371  0.5370
  567MOL0     C78146   3.021  -0.586   9.310  0.7447  0.5006 -0.0763
  567MOL0     C78147   2.945  -0.684   9.210  0.0437 -0.2870  0.4221
  567MOL0     C78148   2.862  -0.621   9.108  1.0150 -0.1709  0.0492
  567MOL0     C78149   2.779  -0.729   9.044  0.8422  0.7864  0.6060
  567MOL0     C78150   2.662  -0.770   9.137  0.5848 -0.9993 -0.2134
  567MOL0     C78151   2.577  -0.872   9.055  0.0240 -0.5938  0.2523
  567MOL0     C78152   2.453  -0.917   9.128  0.5023  0.5150 -0.2739
  567MOL0    Cl78153   2.303  -0.932   9.030  0.7374 -0.3090  0.0460
  567MOL0     C78154   3.243  -0.274   9.129  0.1017 -0.6189 -1.0068
  567MOL0     C78155   3.345  -0.190   9.078  0.1074 -0.4405 -0.5397
  567MOL0     O78156   3.391   0.114   9.096  0.9093 -0.5932  0.5769
  567MOL0     C78157   3.575   0.285   8.964  0.1570 -0.0981  0.3314
  567MOL0     C78158   3.657   0.368   8.875  0.1906 -0.2623  0.7778
  567MOL0     N78159   4.168   0.772   8.458  0.3425 -0.0345 -0.4607
  567MOL0     N78160   4.271   0.846   8.459  0.2040 -1.3374 -0.0740
  567MOL0     C78161   4.967   0.505   7.487 -0.0233 -0.2263  0.8264
  567MOL0     C78162   5.047   0.475   7.376  0.0336 -0.8880  1.1278
  567MOL0     C78163   5.251   0.328   7.021  0.0097  0.7338  0.3717
  567MOL0     C78164   5.355   0.418   7.011 -0.1113  0.4681 -1.2075
  567MOL0     C78165   5.436   0.429   6.900  0.0557  0.0117 -0.0847
  567MOL0     C78166   5.407   0.363   6.781 -0.6593  0.4936  0.2932
  567MOL0     O78167   5.486   0.361   6.664  0.1339 -0.0944  0.2001
  567MOL0     C78168   5.532   0.489   6.627 -0.1410  0.4761  1.2304
  567MOL0     C78169   5.593   0.473   6.489 -0.2116 -0.2480  0.7186
  567MOL0     C78170   5.740   0.425   6.488 -0.3402 -0.4510  0.6096
  567MOL0     C78171   5.762   0.287   6.541  0.1436 -1.2290 -0.6761
  567MOL0     C78172   5.730   0.189   6.432  0.7738 -0.5906  0.7621
  567MOL0     C78173   5.714   0.117   6.341  0.1487 -0.1415 -0.9128
  567MOL0     C78174   5.306   0.269   6.793 -0.4372 -0.3806  0.1315
  567MOL0     C78175   5.227   0.240   6.907 -0.8353 -0.2429 -0.0619
  567MOL0     C78176   5.121   0.133   6.910  0.0624  0.0070  0.3328
  567MOL0     H78177   5.242   0.232   7.512 -1.6240 -0.8053 -1.6827
  567MOL0     H78178   5.086   0.266   7.695 -0.1764  2.0968  1.8330
  567MOL0     H78179   4.724   0.460   7.655 -1.2556  0.7455  1.3853
  567MOL0     H78180   4.804   0.622   7.690 -0.0421 -0.1484 -0.5171
  567MOL0     H78181   4.629   0.512   7.864 -0.3443  4.0909  1.8142
  567MOL0     H78182   4.768   0.432   7.909 -0.8579 -1.4097 -1.4693
  567MOL0     H78183   4.895   0.643   7.936 -0.7018  1.7512  2.5627
  567MOL0     H78184   4.735   0.727   7.897 -0.7221 -1.0480 -2.4785
  567MOL0     H78185   4.634   0.599   8.106  0.2759  1.3552  1.0182
  567MOL0     H78186   4.803   0.558   8.140 -0.4944  1.4733  1.8461
  567MOL0     H78187   4.692   0.834   8.085  0.3177 -0.8636 -0.9268
  567MOL0     H78188   4.858   0.799   8.136 -0.6081  1.1818 -2.3147
  567MOL0     H78189   4.785   0.729   8.355 -0.5952 -0.8574 -0.0460
  567MOL0     H78190   4.739   0.892   8.313 -5.2671  1.5162 -1.3966
  567MOL0     H78191   4.551   0.653   8.312 -1.6262 -0.0397  0.5698
  567MOL0     H78192   4.510   0.797   8.238 -0.8876 -2.2754  0.5758
  567MOL0     H78193   4.572   0.755   8.534  0.2448  2.1783  1.2373
  567MOL0     H78194   4.511   0.909   8.455  0.6657 -0.0165 -1.7596
  567MOL0     H78195   4.398   0.553   8.519  1.9740  2.1910  3.4756
  567MOL0     H78196   4.163   0.432   8.522 -0.3522 -2.2778 -1.3672
  567MOL0     H78197   4.084   0.491   8.377  1.8997 -2.2210  0.4011
  567MOL0     H78198   3.928   0.633   8.494  0.7806  0.6047 -0.3976
  567MOL0     H78199   3.905   0.461   8.542 -0.2548  0.4031  1.2267
  567MOL0     H78200   4.082   0.522   8.736 -1.0299 -1.1632  0.8935
  567MOL0     H78201   4.019   0.676   8.698  2.7596 -0.6107 -0.6826
  567MOL0     H78202   3.870   0.596   8.859 -1.7802  0.6311  0.0932
  567MOL0     H78203   3.783   0.540   8.714  1.5356 -1.1723 -2.2734
  567MOL0     H78204   3.911   0.151   8.867 -0.0930  2.1835 -0.0008
  567MOL0     H78205   3.851  -0.071   8.880 -1.3031 -1.3637 -0.6860
  567MOL0     H78206   3.691  -0.116   8.898  0.1928  2.0731 -3.6134
  567MOL0     H78207   3.784  -0.081   9.049 -2.6699  2.6903  2.0359
  567MOL0     H78208   3.517  -0.144   9.373 -1.5816 -0.4568  2.0908
  567MOL0     H78209   3.347  -0.291   9.458 -0.7767 -0.5425  0.1073
  567MOL0     H78210   2.961  -0.413   9.209 -1.1244 -1.2707  1.4425
  567MOL0     H78211   3.116  -0.503   9.144  1.8209 -2.0506  2.8773
  567MOL0     H78212   3.104  -0.634   9.362  0.3247  1.4977  1.5768
  567MOL0     H78213   2.959  -0.554   9.395 -1.4305 -1.8577 -0.6303
  567MOL0     H78214   2.910  -0.768   9.272 -0.8983  1.2617  2.0725
  567MOL0     H78215   3.023  -0.731   9.149 -0.7282  0.3432 -1.1121
  567MOL0     H78216   2.921  -0.572   9.030  3.0390 -1.7378  0.5128
  567MOL0     H78217   2.803  -0.543   9.157  4.0422  2.2180  0.1652
  567MOL0     H78218   2.743  -0.681   8.953 -0.5853 -0.6080  0.3905
  567MOL0     H78219   2.833  -0.818   9.012  1.8689  0.7998  2.2024
  567MOL0     H78220   2.597  -0.689   9.171 -0.5712 -1.5091 -1.1395
  567MOL0     H78221   2.707  -0.824   9.221  0.3053  0.0032  0.5978
  567MOL0     H78222   2.617  -0.968   9.020 -1.0009 -2.5842  4.0106
  567MOL0     H78223   2.546  -0.812   8.969  0.7342 -1.1513 -0.4030
  567MOL0     H78224   2.441  -0.827   9.190  1.7474  1.3773 -1.2143
  567MOL0     H78225   2.473  -0.993   9.204  7.2288  0.2148 -1.7132
  567MOL0     H78226   3.178  -0.311   9.051  0.4568 -1.1265 -1.0644
  567MOL0     H78227   3.345  -0.180   8.970  1.3032 -0.8940 -0.5967
  567MOL0     H78228   3.491   0.337   9.008 -0.4429 -2.1016  1.6690
  567MOL0     H78229   3.621   0.468   8.850 -1.9934 -0.6964  1.9423
  567MOL0     H78230   4.897   0.588   7.474 -2.2617 -2.4495 -4.1065
  567MOL0     H78231   5.037   0.539   7.289  0.0696 -3.6320 -1.0745
  567MOL0     H78232   5.390   0.476   7.096 -1.7565 -1.7464  1.1522
  567MOL0     H78233   5.523   0.494   6.900  0.8857 -1.0613  0.5739
  567MOL0     H78234   5.455   0.565   6.609 -0.6680 -0.5412 -1.3037
  567MOL0     H78235   5.608   0.516   6.700 -0.2606  0.3345  1.4088
  567MOL0     H78236   5.587   0.570   6.438  1.1479  0.5862  2.0788
  567MOL0     H78237   5.547   0.398   6.424  1.0127  0.0475 -0.5406
  567MOL0     H78238   5.774   0.428   6.384 -1.5843 -1.6798  0.1302
  567MOL0     H78239   5.811   0.487   6.542 -0.5562  0.9868 -0.6722
  567MOL0     H78240   5.707   0.269   6.634  2.4306  0.2765  1.0852
  567MOL0     H78241   5.870   0.284   6.558  0.2117 -2.5418 -1.2470
  567MOL0     H78242   5.693   0.038   6.272  0.4207 -1.3688  0.3673
  567MOL0     H78243   5.295   0.220   6.698  0.2811 -0.4189  0.0618
  567MOL0     H78244   5.030   0.158   6.964 -0.7703  1.4165 -1.6124
  567MOL0     H78245   5.097   0.089   6.812 -0.7133 -1.0373  0.9763
  567MOL0     H78246   5.166   0.053   6.970 -3.2592  0.4185  3.7492
  568MOL0     O78247   6.548   1.747   0.561  0.2664 -0.0866 -0.5378
  568MOL0     C78248   6.588   1.746   0.445  0.7103  0.4026 -0.1350
  568MOL0     O78249   6.528   1.805   0.340  0.7092 -0.4277 -0.5352
  568MOL0     C78250   6.407   1.874   0.363 -0.3014 -0.9431 -0.1827
  568MOL0     C78251   6.279   1.815   0.379 -1.3090 -1.0031 -0.0685
  568MOL0     C78252   6.169   1.894   0.387  0.0529 -1.2361  0.2182
  568MOL0     C78253   6.174   2.032   0.390  0.4569 -0.2238  0.1623
  568MOL0     O78254   6.068   2.115   0.402  0.1455 -0.0268  0.1714
  568MOL0     C78255   5.976   2.115   0.288 -0.0349  0.2383 -0.6668
  568MOL0     C78256   6.024   2.213   0.174 -0.4562 -0.6424 -1.0301
  568MOL0     C78257   6.008   2.362   0.224 -0.6911  0.7744  0.0964
  568MOL0     C78258   6.142   2.425   0.273 -1.2848  0.1442  0.0779
  568MOL0     C78259   6.133   2.576   0.281  0.2888 -0.5010  0.1350
  568MOL0     C78260   6.274   2.647   0.292 -0.2573 -0.3112 -0.0502
  568MOL0     C78261   6.276   2.804   0.263  0.2311 -0.0530 -0.0192
  568MOL0     C78262   6.168   2.887   0.325  0.0555 -0.5678 -0.5957
  568MOL0     N78263   6.213   2.917   0.467  0.1345 -0.7738 -0.1461
  568MOL0     C78264   6.245   3.043   0.502  0.0962  0.1678 -0.4795
  568MOL0     C78265   6.220   3.047   0.632  0.6900 -0.1749 -1.4250
  568MOL0     C78266   6.244   3.167   0.715  0.2167  0.4156 -0.0639
  568MOL0     C78267   6.133   3.270   0.717  0.4505 -0.1315  0.4226
  568MOL0     C78268   6.090   3.330   0.585 -0.8025  0.4045 -0.2167
  568MOL0     C78269   5.989   3.444   0.606 -0.1094 -0.1589 -0.1921
  568MOL0     O78270   6.048   3.567   0.661 -0.1732 -0.0266 -1.1688
  568MOL0     C78271   5.977   3.657   0.734 -0.1538 -0.0016  0.0493
  568MOL0     C78272   5.842   3.629   0.756 -0.4506 -0.0668  0.2619
  568MOL0     C78273   5.769   3.703   0.848 -0.3186  0.6503 -0.5962
  568MOL0     C78274   5.623   3.665   0.873  0.1637  0.2244 -0.3362
  568MOL0     C78275   5.830   3.815   0.921 -0.0572 -0.2693 -0.3984
  568MOL0     C78276   5.752   3.909   1.009  1.0115 -0.7618  0.9743
  568MOL0     O78277   5.630   3.879   1.067 -0.2540  0.4418 -0.1029
  568MOL0     C78278   5.575   3.962   1.168  0.1658  0.3514  0.6619
  568MOL0     C78279   5.435   3.983   1.154  0.9371 -0.7472  0.0107
  568MOL0     C78280   5.365   4.071   1.232 -0.0896 -0.8034 -1.4395
  568MOL0     C78281   5.435   4.139   1.340 -1.1015 -0.0104 -0.2499
  568MOL0     O78282   5.371   4.213   1.436 -1.0587  0.1703 -1.2817
  568MOL0     C78283   5.235   4.163   1.468 -0.0880 -1.4162  0.6114
  568MOL0     C78284   5.158   4.274   1.542  1.4645 -0.3930  0.6083
  568MOL0     C78285   5.213   4.325   1.672 -0.8801  0.3807 -0.1555
  568MOL0     C78286   5.107   4.342   1.787  0.1393  1.0005 -0.1096
  568MOL0     C78287   5.189   4.420   1.905 -0.0571 -0.1614 -0.6087
  568MOL0     C78288   5.089   4.437   2.031 -0.1603 -0.1167  0.2960
  568MOL0     C78289   5.163   4.528   2.136  0.7550  0.8403  0.3725
  568MOL0     C78290   5.116   4.673   2.126  0.5280 -0.6786 -1.0375
  568MOL0    Cl78291   4.962   4.679   2.234 -0.2306 -0.1702 -0.7363
  568MOL0     C78292   5.574   4.125   1.351 -0.7538  0.5684 -0.3014
  568MOL0     C78293   5.648   4.041   1.259  1.1036  0.6252 -0.3342
  568MOL0     O78294   5.803   4.015   1.013  0.4994  0.1740 -0.9960
  568MOL0     C78295   5.968   3.829   0.900 -0.8075 -0.6447 -0.0346
  568MOL0     C78296   6.037   3.757   0.810 -1.3137 -0.0584  0.5478
  568MOL0     N78297   6.151   2.931   0.669  1.1797 -0.4270  0.7484
  568MOL0     N78298   6.144   2.849   0.570 -0.3563 -1.1028 -0.4745
  568MOL0     C78299   6.306   2.088   0.370 -0.6013 -0.3021  0.9658
  568MOL0     C78300   6.414   2.010   0.345  0.2516 -1.5029  0.3010
  568MOL0     C78301   6.715   1.683   0.407  0.8359 -0.8681 -1.1195
  568MOL0     C78302   6.719   1.552   0.432  0.1461  0.2848 -0.1954
  568MOL0     C78303   6.828   1.477   0.393 -0.2471  0.8371 -0.8324
  568MOL0     C78304   6.930   1.528   0.309  0.3702 -0.5618  1.4114
  568MOL0     O78305   7.040   1.451   0.268 -0.7887  0.4663  0.2017
  568MOL0     C78306   7.131   1.493   0.160 -1.6503  0.0189 -0.5465
  568MOL0     C78307   7.264   1.561   0.218  0.3029 -0.5454  0.5688
  568MOL0     C78308   7.347   1.460   0.291 -0.5314 -0.0066 -0.0189
  568MOL0     C78309   7.418   1.517   0.414 -0.6964 -0.0033  0.2182
  568MOL0     C78310   7.536   1.600   0.380  0.0246 -0.0727  0.3336
  568MOL0     C78311   7.636   1.658   0.358 -0.2404  0.1803  0.1447
  568MOL0     C78312   6.908   1.662   0.267 -0.5883 -0.2376  0.2423
  568MOL0     C78313   6.810   1.738   0.320 -0.0679 -3.0618  0.3718
  568MOL0     C78314   6.819   1.889   0.275  0.1369  0.8659  1.3091
  568MOL0     H78315   6.268   1.707   0.379 -0.1248 -1.1396  0.5694
  568MOL0     H78316   6.074   1.845   0.408 -0.3755  0.5914  2.9884
  568MOL0     H78317   5.883   2.157   0.327  0.8273  1.8648 -0.2642
  568MOL0     H78318   5.965   2.016   0.242 -0.4213  0.4111 -0.9587
  568MOL0     H78319   6.128   2.183   0.161 -0.2925 -1.4912  1.5548
  568MOL0     H78320   5.974   2.196   0.078 -0.5177  2.6902 -1.6900
  568MOL0     H78321   5.963   2.418   0.142  0.0308  1.0752 -0.1049
  568MOL0     H78322   5.924   2.368   0.294 -0.1568 -0.3014  0.8540
  568MOL0     H78323   6.191   2.387   0.363 -0.2578  1.7754  0.2374
  568MOL0     H78324   6.223   2.413   0.201 -0.2439 -0.1097  1.2660
  568MOL0     H78325   6.074   2.605   0.369 -1.2906 -1.9563 -0.3829
  568MOL0     H78326   6.078   2.609   0.193  1.1072 -4.3393 -2.0379
  568MOL0     H78327   6.321   2.622   0.388 -0.1219  0.9313  0.2263
  568MOL0     H78328   6.336   2.615   0.207  1.5328 -0.0248  1.0857
  568MOL0     H78329   6.280   2.830   0.157 -3.3574  1.1671  0.0086
  568MOL0     H78330   6.370   2.847   0.300 -0.8451  2.2156  0.2726
  568MOL0     H78331   6.152   2.982   0.272 -3.0821 -0.4392  0.3716
  568MOL0     H78332   6.070   2.838   0.332  0.0517 -0.3647  1.0852
  568MOL0     H78333   6.290   3.129   0.454 -0.9058  1.3993  0.6974
  568MOL0     H78334   6.336   3.220   0.689  0.9770 -0.8918 -0.1703
  568MOL0     H78335   6.274   3.128   0.813  2.8157  2.9478  0.2751
  568MOL0     H78336   6.045   3.214   0.750 -0.1850  0.8352  0.3768
  568MOL0     H78337   6.145   3.354   0.785  1.2319 -0.6313  0.9222
  568MOL0     H78338   6.180   3.378   0.547 -1.3581  3.1856  1.7010
  568MOL0     H78339   6.050   3.253   0.518 -0.3880 -3.2284  3.3554
  568MOL0     H78340   5.931   3.468   0.517 -4.3638 -3.6323  1.3151
  568MOL0     H78341   5.927   3.402   0.685  1.8083  1.1052  2.1188
  568MOL0     H78342   5.777   3.568   0.694 -0.0454 -0.3266  0.0866
  568MOL0     H78343   5.587   3.575   0.823 -0.5048 -0.5723  1.4989
  568MOL0     H78344   5.553   3.749   0.861  0.7682  0.4937 -2.3818
  568MOL0     H78345   5.618   3.646   0.981  0.9656 -1.5528 -0.5776
  568MOL0     H78346   5.372   3.932   1.082  1.3561 -0.7725 -0.3443
  568MOL0     H78347   5.263   4.091   1.201 -0.4813 -1.2666 -0.4650
  568MOL0     H78348   5.180   4.126   1.382  0.8932 -3.3689  0.7715
  568MOL0     H78349   5.255   4.079   1.535  1.3190 -1.4564  0.1831
  568MOL0     H78350   5.146   4.365   1.483 -0.2809  0.3503  2.0129
  568MOL0     H78351   5.057   4.235   1.559  1.1170 -1.1991 -2.6710
  568MOL0     H78352   5.271   4.413   1.643  0.6446 -1.5857 -3.7827
  568MOL0     H78353   5.300   4.271   1.709 -1.5622 -0.2958  0.4911
  568MOL0     H78354   5.077   4.239   1.807 -0.6042  0.5524 -3.0564
  568MOL0     H78355   5.019   4.398   1.754 -1.4394 -0.6028  1.1481
  568MOL0     H78356   5.267   4.350   1.937  0.8066  0.7694 -0.6497
  568MOL0     H78357   5.222   4.516   1.866 -0.8188  0.1617 -0.4681
  568MOL0     H78358   5.077   4.335   2.069  0.6541  0.0174  0.9481
  568MOL0     H78359   4.991   4.478   2.006  0.1927 -1.0361 -3.1833
  568MOL0     H78360   5.271   4.527   2.119  0.9465  0.2221  1.5379
  568MOL0     H78361   5.154   4.492   2.239 -3.0578 -0.8475 -0.3630
  568MOL0     H78362   5.099   4.699   2.021  0.2316  0.8666 -0.6215
  568MOL0     H78363   5.195   4.738   2.164 -0.6338 -0.0614  0.3793
  568MOL0     H78364   5.632   4.172   1.430 -3.4107  1.3101  1.3163
  568MOL0     H78365   5.757   4.038   1.262  1.2303  2.8655 -0.8138
  568MOL0     H78366   6.031   3.890   0.965  3.0313 -0.5992 -3.4574
  568MOL0     H78367   6.145   3.749   0.817 -1.3707 -1.5357  0.1422
  568MOL0     H78368   6.307   2.196   0.356  0.4894 -0.4944 -0.8364
  568MOL0     H78369   6.511   2.047   0.313 -0.9180 -1.2312 -3.4419
  568MOL0     H78370   6.636   1.497   0.476 -1.0128  2.1790  0.0973
  568MOL0     H78371   6.843   1.377   0.433  0.7789  0.3265 -2.4068
  568MOL0     H78372   7.158   1.413   0.092 -0.8995 -0.7422  0.6167
  568MOL0     H78373   7.082   1.566   0.095 -0.6464  0.2888 -1.0207
  568MOL0     H78374   7.239   1.644   0.285  0.3458 -1.7066  2.0828
  568MOL0     H78375   7.332   1.586   0.136 -0.8709  0.1763 -0.2070
  568MOL0     H78376   7.281   1.385   0.337  2.5923 -2.5195  0.6975
  568MOL0     H78377   7.407   1.403   0.219 -1.8899  1.0771 -2.1384
  568MOL0     H78378   7.448   1.426   0.467 -2.7335  0.3578  2.1362
  568MOL0     H78379   7.353   1.575   0.479 -1.2671 -1.6303  1.1688
  568MOL0     H78380   7.731   1.703   0.336  0.3205 -0.4684  1.1215
  568MOL0     H78381   6.966   1.718   0.194 -1.1822  1.0072  0.7092
  568MOL0     H78382   6.817   1.884   0.166 -0.0846 -2.6667  1.3785
  568MOL0     H78383   6.735   1.948   0.312 -0.3798  1.6773 -0.9860
  568MOL0     H78384   6.907   1.949   0.303  1.2788  0.4795 -1.1650
  569MOL0     O78385   0.881   9.795   9.571  0.0271 -0.1631 -0.0724
  569MOL0     C78386   0.949   9.730   9.495 -0.6916  0.2485 -0.3663
  569MOL0     O78387   0.920   9.717   9.361 -0.2442  0.1462  0.3037
  569MOL0     C78388   0.806   9.778   9.307 -0.8455  0.4179 -0.1036
  569MOL0     C78389   0.708   9.716   9.230  0.5049  0.2067  0.0381
  569MOL0     C78390   0.593   9.774   9.179 -0.3380 -0.9998 -0.0490
  569MOL0     C78391   0.581   9.920   9.201 -0.1188  0.2855  0.2586
  569MOL0     O78392   0.474   9.994   9.158 -0.2758  0.1523 -0.2538
  569MOL0     C78393   0.348   9.943   9.197  0.8047  1.3649  0.5004
  569MOL0     C78394   0.245  10.059   9.192 -0.2242 -1.0016  0.3664
  569MOL0     C78395   0.206  10.122   9.057  0.4882 -0.0924 -0.0212
  569MOL0     C78396   0.088  10.218   9.074  0.1135  0.4749  0.1723
  569MOL0     C78397  -0.057  10.161   9.041 -0.5360  0.0037  0.5763
  569MOL0     C78398  -0.174  10.265   9.048 -0.6347  0.0266  0.2101
  569MOL0     C78399  -0.182  10.378   8.928  0.4958  0.0573  0.7758
  569MOL0     C78400  -0.189  10.315   8.782  0.1582 -0.3342 -0.8416
  569MOL0     N78401  -0.203  10.423   8.690 -0.6471 -0.3439  0.2381
  569MOL0     C78402  -0.116  10.533   8.664  0.0983 -0.2094  0.4026
  569MOL0     C78403  -0.174  10.613   8.575  1.0722 -0.8386  0.2103
  569MOL0     C78404  -0.136  10.741   8.493 -0.6948 -0.9442 -0.3962
  569MOL0     C78405  -0.066  10.835   8.587 -0.6762 -0.0152  0.0548
  569MOL0     C78406   0.008  10.952   8.527 -1.3510  0.2834  0.2286
  569MOL0     C78407   0.087  11.011   8.650 -0.5387  0.1367  0.1637
  569MOL0     O78408   0.010  11.103   8.729  0.0908  0.4856 -0.7499
  569MOL0     C78409   0.078  11.181   8.812  0.2087  0.1694 -0.4180
  569MOL0     C78410   0.062  11.318   8.806 -0.3040 -0.7673 -0.2574
  569MOL0     C78411   0.134  11.404   8.900 -0.3868  0.1051 -0.4111
  569MOL0     C78412   0.157  11.545   8.870  0.3831 -0.5011  0.1056
  569MOL0     C78413   0.198  11.347   9.015  1.0497 -0.5021  0.0662
  569MOL0     C78414   0.251  11.423   9.130 -0.1437 -0.2691  0.1070
  569MOL0     O78415   0.180  11.538   9.174  0.1472 -0.1635 -0.1555
  569MOL0     C78416   0.214  11.600   9.291  0.1147  0.4269  0.3548
  569MOL0     C78417   0.344  11.652   9.312  0.3841  0.5152 -0.4351
  569MOL0     C78418   0.376  11.717   9.432  0.1187  0.2949 -0.4611
  569MOL0     C78419   0.276  11.746   9.525 -0.9534  0.6685 -1.0111
  569MOL0     O78420   0.299  11.815   9.642  0.7193  0.2672 -0.0977
  569MOL0     C78421   0.430  11.839   9.687 -0.5166  0.1844 -0.2791
  569MOL0     C78422   0.428  11.900   9.824 -0.4261 -0.2403 -0.0103
  569MOL0     C78423   0.429  11.795   9.938  0.4639  0.2243 -0.2595
  569MOL0     C78424   0.305  11.701   9.942  0.2704 -0.9194  0.0759
  569MOL0     C78425   0.322  11.577  10.028 -0.2768 -0.0756 -0.2991
  569MOL0     C78426   0.284  11.617  10.179  0.1301 -0.6333 -0.2223
  569MOL0     C78427   0.308  11.512  10.293 -0.8565 -0.4789 -0.4303
  569MOL0     C78428   0.354  11.560  10.434 -0.8865 -0.2979  0.0210
  569MOL0    Cl78429   0.262  11.708  10.481  0.3627  0.3898  0.2587
  569MOL0     C78430   0.146  11.682   9.514 -0.4971  0.1482 -0.3538
  569MOL0     C78431   0.109  11.613   9.394  0.0173 -0.9603  1.0899
  569MOL0     O78432   0.358  11.378   9.170  0.1819 -0.2566 -0.1544
  569MOL0     C78433   0.208  11.211   9.027  0.1288  0.2441  0.6439
  569MOL0     C78434   0.147  11.135   8.924  0.0191  0.2654  0.4639
  569MOL0     N78435  -0.297  10.559   8.558  0.7349  0.1152  0.6851
  569MOL0     N78436  -0.312  10.445   8.612  0.7150  0.6908 -0.1082
  569MOL0     C78437   0.680   9.987   9.274  0.5339  0.0847  0.1268
  569MOL0     C78438   0.795   9.915   9.325  0.8487 -0.6894  0.7904
  569MOL0     C78439   1.081   9.666   9.525  0.6054 -0.4325  0.1635
  569MOL0     C78440   1.148   9.580   9.431  0.6674  0.1573 -0.4487
  569MOL0     C78441   1.265   9.514   9.470  0.1518  1.3543 -0.0939
  569MOL0     C78442   1.318   9.522   9.598 -0.2409 -0.6849  0.2329
  569MOL0     O78443   1.428   9.436   9.628  0.0013  0.1408 -0.2381
  569MOL0     C78444   1.434   9.423   9.771 -0.3821 -0.0080  0.1693
  569MOL0     C78445   1.542   9.312   9.804  0.4768 -0.8473 -0.0280
  569MOL0     C78446   1.491   9.171   9.778  0.0820 -0.3746 -0.5843
  569MOL0     C78447   1.486   9.134   9.627 -0.4749  0.1564  0.2991
  569MOL0     C78448   1.445   8.993   9.598 -0.0010 -0.5316  0.0926
  569MOL0     C78449   1.394   8.883   9.577  0.5015  0.4476  0.0922
  569MOL0     C78450   1.253   9.605   9.688 -0.0967 -1.0462  1.2566
  569MOL0     C78451   1.145   9.688   9.644  0.4506 -0.0752 -0.4642
  569MOL0     C78452   1.099   9.787   9.754  0.1488 -0.1030 -0.2907
  569MOL0     H78453   0.693   9.610   9.211 -1.0716  0.4760 -0.4193
  569MOL0     H78454   0.514   9.715   9.132 -2.0080 -1.5942  3.2073
  569MOL0     H78455   0.347   9.886   9.290  0.2283 -0.5766 -0.6308
  569MOL0     H78456   0.315   9.878   9.115 -2.1779  2.1489  0.9542
  569MOL0     H78457   0.151  10.028   9.238 -1.9441 -1.3921 -3.1475
  569MOL0     H78458   0.290  10.141   9.248 -2.2322 -0.4652  1.2619
  569MOL0     H78459   0.288  10.186   9.024 -0.7032  1.0635 -0.8344
  569MOL0     H78460   0.183  10.048   8.980  2.1071 -0.7948  0.1407
  569MOL0     H78461   0.096  10.275   9.167 -1.1791 -0.0875  0.6598
  569MOL0     H78462   0.099  10.295   8.998  0.0664 -0.9098 -1.3030
  569MOL0     H78463  -0.069  10.073   9.105  0.3148  0.2209  1.0565
  569MOL0     H78464  -0.060  10.123   8.939 -0.8174  0.6770  0.3296
  569MOL0     H78465  -0.274  10.219   9.052 -0.6089  0.0748  3.2714
  569MOL0     H78466  -0.169  10.314   9.145  0.6756  1.9337 -0.7695
  569MOL0     H78467  -0.095  10.443   8.941  0.1330  0.3685  1.7681
  569MOL0     H78468  -0.272  10.435   8.953 -1.8253 -3.8985  2.3089
  569MOL0     H78469  -0.094  10.270   8.753  1.7464  2.1484  0.1449
  569MOL0     H78470  -0.274  10.246   8.778 -0.6801  0.5759  0.4020
  569MOL0     H78471  -0.018  10.553   8.705  0.3598  0.9176 -0.7037
  569MOL0     H78472  -0.227  10.793   8.463 -1.9218 -2.4687  0.5239
  569MOL0     H78473  -0.081  10.710   8.403 -2.3433 -3.5555 -0.5935
  569MOL0     H78474  -0.139  10.876   8.657 -2.8681 -2.4916 -0.6528
  569MOL0     H78475   0.004  10.765   8.635 -0.7794 -0.6005 -0.6347
  569MOL0     H78476   0.082  10.918   8.454 -4.4056 -2.5883 -1.8646
  569MOL0     H78477  -0.056  11.019   8.469  0.9121  0.7001 -1.9418
  569MOL0     H78478   0.138  10.938   8.713  1.5522  1.9392  0.6941
  569MOL0     H78479   0.177  11.061   8.613  1.6959 -0.8529  3.7769
  569MOL0     H78480   0.010  11.371   8.727  3.5164  2.5209 -0.8954
  569MOL0     H78481   0.132  11.567   8.765  0.8169  0.6592  0.2301
  569MOL0     H78482   0.264  11.562   8.881  0.3779 -1.1955  1.3704
  569MOL0     H78483   0.089  11.610   8.927 -0.4036  0.1058 -1.4566
  569MOL0     H78484   0.429  11.630   9.249 -0.8613 -1.7648 -1.4641
  569MOL0     H78485   0.482  11.741   9.436  0.1372  0.1682 -0.1168
  569MOL0     H78486   0.487  11.746   9.680 -0.5588  0.2650 -2.3783
  569MOL0     H78487   0.487  11.916   9.634 -0.3441  0.7953  0.7676
  569MOL0     H78488   0.515  11.967   9.830 -1.5793  1.3766 -0.7184
  569MOL0     H78489   0.330  11.948   9.821 -0.0606  0.4781 -2.4296
  569MOL0     H78490   0.444  11.843  10.035 -2.3800 -2.0154  1.4729
  569MOL0     H78491   0.506  11.720   9.923 -2.0971 -2.1108 -3.0983
  569MOL0     H78492   0.273  11.667   9.843 -4.0358  2.3288  0.0656
  569MOL0     H78493   0.213  11.746   9.980 -0.8809 -4.2592  1.6498
  569MOL0     H78494   0.250  11.503   9.991  0.1465  0.9800 -3.5723
  569MOL0     H78495   0.424  11.538  10.025  0.7090  2.3228 -0.7832
  569MOL0     H78496   0.179  11.644  10.168  0.4231  0.6283 -0.1204
  569MOL0     H78497   0.337  11.709  10.205 -0.9751 -0.9600  3.8537
  569MOL0     H78498   0.384  11.450  10.245 -2.6147 -0.9155 -2.8423
  569MOL0     H78499   0.218  11.450  10.293  2.5872 -6.6336 -4.7909
  569MOL0     H78500   0.459  11.586  10.420 -1.4075  1.2864 -1.1923
  569MOL0     H78501   0.344  11.481  10.509 -1.4807 -0.6217 -0.3835
  569MOL0     H78502   0.079  11.678   9.600 -1.6729 -0.0706 -1.2586
  569MOL0     H78503   0.023  11.551   9.371 -0.7462  0.3561  0.2573
  569MOL0     H78504   0.248  11.167   9.118  0.9993 -0.9884 -0.2981
  569MOL0     H78505   0.161  11.028   8.932 -1.5373  0.1339  1.6738
  569MOL0     H78506   0.677  10.095   9.282  0.5676  0.1043 -0.1285
  569MOL0     H78507   0.868   9.977   9.376  0.1593  1.7743 -1.0474
  569MOL0     H78508   1.107   9.580   9.331 -0.2381 -0.2335 -0.0806
  569MOL0     H78509   1.316   9.444   9.405  0.9462  1.7034  0.1386
  569MOL0     H78510   1.468   9.515   9.819 -2.0550 -0.2115  1.8679
  569MOL0     H78511   1.338   9.395   9.817  1.0249 -1.1217  2.6714
  569MOL0     H78512   1.569   9.335   9.907  3.3209  4.3275 -1.5376
  569MOL0     H78513   1.642   9.335   9.765  0.3017  3.4149  1.4565
  569MOL0     H78514   1.570   9.119   9.833  0.6535  0.6644 -0.3995
  569MOL0     H78515   1.400   9.146   9.834  0.3528 -0.0105  0.0317
  569MOL0     H78516   1.581   9.152   9.577 -0.7295  3.5553  0.7841
  569MOL0     H78517   1.416   9.204   9.580  0.7230  1.8443  0.9541
  569MOL0     H78518   1.346   8.790   9.555 -0.4599  1.1206 -0.7413
  569MOL0     H78519   1.294   9.631   9.785 -2.0219  2.9787  1.1714
  569MOL0     H78520   1.005   9.754   9.800  1.0904 -1.0021  1.0847
  569MOL0     H78521   1.163   9.793   9.843 -1.9665 -0.0374  1.3107
  569MOL0     H78522   1.070   9.880   9.705 -4.6922 -0.1779  1.9063
  570MOL0     O78523   6.539   9.784   1.076 -0.4592 -0.2696  0.7348
  570MOL0     C78524   6.615   9.805   1.173  0.3854  0.6469 -0.3141
  570MOL0     O78525   6.600   9.900   1.272  0.5062 -0.0703 -0.0584
  570MOL0     C78526   6.487   9.978   1.274 -0.1457 -0.2884 -0.1919
  570MOL0     C78527   6.368   9.940   1.343 -0.1240 -1.6433 -0.2346
  570MOL0     C78528   6.252  10.014   1.331  0.2206  0.5115 -0.4753
  570MOL0     C78529   6.241  10.123   1.250 -0.2081  0.0375 -0.0321
  570MOL0     O78530   6.123  10.187   1.222 -0.4286 -1.0222 -0.2184
  570MOL0     C78531   6.122  10.335   1.251 -1.1837 -0.0614  0.0261
  570MOL0     C78532   6.000  10.365   1.345 -0.0577  0.3017  0.7588
  570MOL0     C78533   5.918  10.486   1.307 -0.0372 -0.3096  0.3878
  570MOL0     C78534   5.994  10.615   1.275 -0.2937 -0.4379  0.0294
  570MOL0     C78535   5.893  10.717   1.216 -0.1275  0.4440  0.7411
  570MOL0     C78536   5.939  10.866   1.233  0.1609  1.5048 -0.7212
  570MOL0     C78537   6.077  10.892   1.171 -0.3232 -0.1545  0.0538
  570MOL0     C78538   6.078  10.897   1.018  0.5919  0.9616 -0.5123
  570MOL0     N78539   6.170  10.991   0.958 -0.3788 -0.2239 -0.7826
  570MOL0     C78540   6.274  11.052   1.022 -0.3086 -0.2390 -0.5254
  570MOL0     C78541   6.349  11.102   0.910  0.3642  0.4158 -0.5208
  570MOL0     C78542   6.484  11.159   0.911 -0.6351  0.3475  0.0236
  570MOL0     C78543   6.525  11.212   0.774 -0.5750  0.6108  0.0455
  570MOL0     C78544   6.675  11.273   0.798  0.0954  0.1864 -0.6531
  570MOL0     C78545   6.734  11.328   0.664  1.2619 -0.6725 -0.4682
  570MOL0     O78546   6.663  11.445   0.623  0.0415  1.1462 -0.4365
  570MOL0     C78547   6.679  11.559   0.691  0.4001  0.8913  0.3071
  570MOL0     C78548   6.580  11.653   0.677  0.1931  0.5153  0.1159
  570MOL0     C78549   6.598  11.788   0.715 -0.5236  0.5067  0.4540
  570MOL0     C78550   6.479  11.879   0.694 -0.9679 -0.1133  0.8243
  570MOL0     C78551   6.720  11.831   0.774  0.1194  0.4425 -0.2008
  570MOL0     C78552   6.745  11.980   0.803 -0.0853 -0.9725 -0.6965
  570MOL0     O78553   6.844  12.005   0.895  0.4253 -1.0273 -0.2057
  570MOL0     C78554   6.866  12.136   0.932  0.2956  0.5430  0.2150
  570MOL0     C78555   6.839  12.175   1.062 -0.1300  0.6180 -0.8283
  570MOL0     C78556   6.893  12.288   1.116  0.4742 -0.1974 -0.1332
  570MOL0     C78557   6.959  12.386   1.035 -0.1942 -0.4734  0.6065
  570MOL0     O78558   7.004  12.508   1.071  0.8538  0.6208 -0.5991
  570MOL0     C78559   7.021  12.550   1.208 -0.0095  0.1375  0.0369
  570MOL0     C78560   6.920  12.661   1.255 -1.2340 -0.4355 -0.6982
  570MOL0     C78561   6.946  12.680   1.406  0.3958  0.3549 -0.0981
  570MOL0     C78562   6.850  12.792   1.448 -0.7606 -0.1264  0.7131
  570MOL0     C78563   6.891  12.847   1.583 -0.2013  0.1969  0.3759
  570MOL0     C78564   6.842  12.748   1.698 -0.2373  0.0603 -0.2551
  570MOL0     C78565   6.880  12.796   1.838 -0.6582 -1.1915 -0.3114
  570MOL0     C78566   6.855  12.697   1.960  1.0787 -1.2161  0.3998
  570MOL0    Cl78567   6.942  12.546   1.961  0.0519 -0.3730  0.1932
  570MOL0     C78568   6.977  12.351   0.897 -0.2294  0.3439  0.1533
  570MOL0     C78569   6.941  12.223   0.851 -0.7699 -1.2204  0.3002
  570MOL0     O78570   6.689  12.072   0.741  0.0130 -0.2971 -0.2583
  570MOL0     C78571   6.808  11.730   0.811 -0.4348 -0.3563  0.6796
  570MOL0     C78572   6.797  11.600   0.751  0.4352  0.2385 -0.1682
  570MOL0     N78573   6.291  11.062   0.789  0.1425 -0.1914  0.5217
  570MOL0     N78574   6.176  10.994   0.821  0.7310  0.2798  0.3310
  570MOL0     C78575   6.364  10.173   1.200  0.7549  0.2803 -0.1758
  570MOL0     C78576   6.485  10.101   1.210 -0.2729 -0.3681  0.2637
  570MOL0     C78577   6.733   9.721   1.197 -0.0919  0.5054  0.3175
  570MOL0     C78578   6.808   9.743   1.316 -0.4489 -0.3098  1.1707
  570MOL0     C78579   6.923   9.659   1.353  0.4637 -0.8198 -1.2058
  570MOL0     C78580   6.959   9.555   1.269  0.6495 -0.1587  0.0163
  570MOL0     O78581   7.081   9.494   1.290 -0.7219  0.1826  0.0766
  570MOL0     C78582   7.145   9.419   1.191  0.7772  0.9663  1.3690
  570MOL0     C78583   7.104   9.265   1.180 -0.3921  1.0122 -1.2677
  570MOL0     C78584   7.229   9.175   1.165 -0.3548 -0.4220 -0.3594
  570MOL0     C78585   7.297   9.167   1.019 -0.1577  0.3895 -0.0570
  570MOL0     C78586   7.341   9.298   0.965  0.5748 -0.2291  0.0500
  570MOL0     C78587   7.395   9.400   0.917  0.4543 -0.3885  0.0569
  570MOL0     C78588   6.886   9.536   1.149  0.2019  0.0626 -0.0090
  570MOL0     C78589   6.772   9.611   1.115  0.0804  0.0469  0.8007
  570MOL0     C78590   6.728   9.589   0.969 -0.6409 -0.2051  1.1264
  570MOL0     H78591   6.385   9.850   1.401  2.5572 -0.2933  1.2819
  570MOL0     H78592   6.174   9.969   1.392 -0.1707  1.0364 -0.5869
  570MOL0     H78593   6.117  10.385   1.154  0.9694 -1.5574 -0.9411
  570MOL0     H78594   6.219  10.369   1.289 -1.7358 -0.8071  2.2027
  570MOL0     H78595   5.933  10.279   1.347  1.0543 -0.6307 -0.3477
  570MOL0     H78596   6.049  10.373   1.442  3.3097 -0.3054 -0.7226
  570MOL0     H78597   5.854  10.457   1.223  0.8873 -1.2505 -0.0167
  570MOL0     H78598   5.853  10.500   1.394  1.4779  0.0465  1.4917
  570MOL0     H78599   6.032  10.652   1.371 -0.4657 -1.3413  0.4575
  570MOL0     H78600   6.073  10.592   1.203  0.9148 -1.3746  1.5712
  570MOL0     H78601   5.793  10.707   1.258 -0.3143  0.1605  0.2407
  570MOL0     H78602   5.868  10.699   1.111 -0.9587  1.7286  0.6957
  570MOL0     H78603   5.859  10.919   1.181 -0.8020 -0.3620 -1.2288
  570MOL0     H78604   5.940  10.901   1.337 -1.9656 -0.4408  0.0542
  570MOL0     H78605   6.159  10.829   1.205  1.1179  1.5125 -0.1590
  570MOL0     H78606   6.081  10.993   1.215 -2.3422 -1.7437  4.4309
  570MOL0     H78607   6.100  10.791   0.997 -0.0686  0.3713  1.5250
  570MOL0     H78608   5.975  10.906   0.981  0.6486 -1.3078 -1.4543
  570MOL0     H78609   6.309  11.059   1.124 -0.2078  0.5618 -0.6085
  570MOL0     H78610   6.557  11.081   0.934  0.6079  1.1950 -0.9221
  570MOL0     H78611   6.491  11.239   0.985 -0.9175 -0.5703  1.0726
  570MOL0     H78612   6.524  11.129   0.702  2.6773 -1.9045  2.6287
  570MOL0     H78613   6.457  11.287   0.733  0.7483  0.3551 -2.9414
  570MOL0     H78614   6.663  11.350   0.875 -1.0843 -1.1163  0.5398
  570MOL0     H78615   6.748  11.208   0.846 -0.2376 -1.2953 -2.0759
  570MOL0     H78616   6.840  11.351   0.671  0.9747  0.1082  1.8487
  570MOL0     H78617   6.717  11.249   0.589  2.6332 -0.9798 -0.4868
  570MOL0     H78618   6.488  11.621   0.630 -0.5407  1.2003  1.0639
  570MOL0     H78619   6.476  11.962   0.765 -0.3938  0.9266 -0.3287
  570MOL0     H78620   6.379  11.835   0.686 -1.1940 -0.1111  3.0852
  570MOL0     H78621   6.495  11.930   0.598 -0.3003  0.9524  1.4833
  570MOL0     H78622   6.803  12.105   1.136 -1.4794  4.4163  2.4942
  570MOL0     H78623   6.865  12.313   1.218  1.8761  2.9087 -0.4225
  570MOL0     H78624   7.013  12.464   1.275 -3.1196  0.9031  0.8199
  570MOL0     H78625   7.122  12.589   1.224  0.0483 -0.4877  1.3337
  570MOL0     H78626   6.928  12.756   1.200 -1.4167  1.9489  3.0527
  570MOL0     H78627   6.824  12.610   1.247 -1.2484 -0.3035 -1.4105
  570MOL0     H78628   7.049  12.716   1.410  0.5986  0.2021 -2.4653
  570MOL0     H78629   6.944  12.585   1.461  2.3634  0.8174  0.8358
  570MOL0     H78630   6.748  12.753   1.439 -0.5834 -0.4103 -0.1146
  570MOL0     H78631   6.864  12.875   1.379  1.2054 -1.1034 -0.1226
  570MOL0     H78632   6.999  12.856   1.591 -0.2133 -0.5511  1.5309
  570MOL0     H78633   6.834  12.940   1.594 -4.3512 -1.7370 -2.2752
  570MOL0     H78634   6.890  12.649   1.691  0.2502 -0.0109  2.8513
  570MOL0     H78635   6.734  12.732   1.693 -0.2688  0.1829  0.0499
  570MOL0     H78636   6.838  12.893   1.867  2.3455 -0.1306  0.8495
  570MOL0     H78637   6.988  12.815   1.843 -0.6318 -1.6482  2.1943
  570MOL0     H78638   6.749  12.672   1.971  0.6574 -0.1925 -1.0689
  570MOL0     H78639   6.880  12.750   2.052  3.6332 -0.7374 -0.4922
  570MOL0     H78640   7.024  12.398   0.812 -1.7596 -2.0634 -2.1882
  570MOL0     H78641   6.970  12.191   0.751  0.9552  1.1392 -0.0389
  570MOL0     H78642   6.886  11.753   0.882  0.3305  2.3197 -0.8600
  570MOL0     H78643   6.868  11.521   0.771 -1.2862 -0.8023  2.3470
  570MOL0     H78644   6.376  10.266   1.145 -0.5352 -1.1905 -3.1807
  570MOL0     H78645   6.574  10.128   1.154  0.4710 -2.3556  0.4088
  570MOL0     H78646   6.783   9.824   1.383 -1.8293 -0.5471  0.9642
  570MOL0     H78647   6.977   9.670   1.446  2.1182 -1.5539 -2.0371
  570MOL0     H78648   7.116   9.469   1.098 -0.2355  0.0204  1.1591
  570MOL0     H78649   7.252   9.434   1.209  0.8734  1.7896  0.2770
  570MOL0     H78650   7.026   9.246   1.105 -3.6582 -2.4587  2.4825
  570MOL0     H78651   7.054   9.239   1.274 -1.3611 -1.3630 -2.3409
  570MOL0     H78652   7.309   9.213   1.230 -1.4913 -1.2203  1.5822
  570MOL0     H78653   7.211   9.077   1.210  3.2900 -0.6136  1.0345
  570MOL0     H78654   7.229   9.116   0.951  0.0913  2.6431 -2.1342
  570MOL0     H78655   7.386   9.104   1.018 -1.7370 -2.0144  0.9241
  570MOL0     H78656   7.429   9.493   0.877 -1.3749 -0.1709 -1.0989
  570MOL0     H78657   6.910   9.449   1.087  0.3260 -1.1919  1.7370
  570MOL0     H78658   6.625   9.552   0.970  0.2817 -3.0088  1.0672
  570MOL0     H78659   6.727   9.688   0.924  2.9584 -1.3157 -1.9372
  570MOL0     H78660   6.796   9.531   0.905 -0.4322 -0.8004  1.8669
  571MOL0     O78661   9.873   7.227   5.826 -0.6040  0.1427  0.1314
  571MOL0     C78662   9.802   7.269   5.915 -0.1629  0.2606 -0.5130
  571MOL0     O78663   9.791   7.402   5.958  0.5780 -0.4903  0.1196
  571MOL0     C78664   9.843   7.505   5.881  0.2561 -0.3643 -0.6337
  571MOL0     C78665   9.817   7.638   5.937  0.5115 -0.1377 -0.3199
  571MOL0     C78666   9.873   7.758   5.886 -0.8181  0.1497 -0.0076
  571MOL0     C78667   9.945   7.752   5.769 -0.3367 -0.0136 -0.0855
  571MOL0     O78668  10.004   7.867   5.721  0.0121  0.3656  0.1693
  571MOL0     C78669   9.998   7.891   5.576  1.0170 -0.3792  0.5895
  571MOL0     C78670   9.882   7.988   5.528 -0.1729  0.2454 -0.5861
  571MOL0     C78671   9.898   8.047   5.386  0.8496 -0.3896 -0.9825
  571MOL0     C78672   9.977   8.168   5.396  0.4849 -0.1762 -0.3239
  571MOL0     C78673  10.017   8.222   5.266 -0.2368 -0.3989  1.2315
  571MOL0     C78674  10.069   8.368   5.254  0.0731  1.1194  0.7016
  571MOL0     C78675  10.217   8.372   5.280  0.1174 -0.5076  0.5397
  571MOL0     C78676  10.300   8.342   5.150  0.4709 -0.0644 -0.0099
  571MOL0     N78677  10.437   8.380   5.183 -0.6649  0.4849 -0.0868
  571MOL0     C78678  10.503   8.494   5.128  0.8657 -0.0465  0.4596
  571MOL0     C78679  10.634   8.478   5.141 -0.1945 -0.7215 -0.3208
  571MOL0     C78680  10.751   8.565   5.079  0.2457  0.1378 -0.5475
  571MOL0     C78681  10.793   8.671   5.180  0.5182 -0.1268  0.5628
  571MOL0     C78682  10.881   8.794   5.134  0.7345 -0.2687  0.7661
  571MOL0     C78683  10.862   8.920   5.220 -0.0706  0.8486  1.1804
  571MOL0     O78684  10.863   8.899   5.363 -0.0693 -0.4104 -0.9478
  571MOL0     C78685  10.975   8.889   5.431 -0.6803 -0.2026 -0.4806
  571MOL0     C78686  10.962   8.873   5.566 -0.1746  0.3868  0.5817
  571MOL0     C78687  11.069   8.864   5.649  0.0316  0.7570 -0.5286
  571MOL0     C78688  11.037   8.859   5.797  0.4515  0.2191  0.5476
  571MOL0     C78689  11.201   8.869   5.603  0.5012  0.9002 -0.7055
  571MOL0     C78690  11.317   8.872   5.690 -0.0553  0.7738  0.0113
  571MOL0     O78691  11.439   8.849   5.623 -0.4724 -0.4169  0.0453
  571MOL0     C78692  11.563   8.835   5.681 -0.7124 -0.4227 -1.0456
  571MOL0     C78693  11.664   8.889   5.606 -1.2232 -1.1493  0.6695
  571MOL0     C78694  11.799   8.878   5.642  0.6354  0.0153 -0.1965
  571MOL0     C78695  11.845   8.799   5.751  0.8113  0.4852 -1.2189
  571MOL0     O78696  11.977   8.789   5.768  0.3363 -0.0735 -0.6911
  571MOL0     C78697  12.036   8.917   5.784  0.1566  0.0201 -0.2974
  571MOL0     C78698  12.177   8.902   5.860  0.7675 -0.9087  0.8682
  571MOL0     C78699  12.158   8.855   6.007 -0.2868  0.6296  0.9062
  571MOL0     C78700  12.285   8.855   6.094  0.7607  0.0699  0.4724
  571MOL0     C78701  12.338   8.991   6.127  0.1415 -0.6660  0.0000
  571MOL0     C78702  12.467   9.009   6.208  0.3451  0.4925 -0.4154
  571MOL0     C78703  12.475   9.161   6.236 -0.1819  0.2699 -0.1407
  571MOL0     C78704  12.606   9.202   6.302 -0.1940 -0.0616 -0.8223
  571MOL0    Cl78705  12.625   9.132   6.470 -0.1849  0.1830  0.5359
  571MOL0     C78706  11.748   8.754   5.842 -0.7361 -0.4690  0.6155
  571MOL0     C78707  11.607   8.753   5.801 -0.1282 -0.7345 -0.4834
  571MOL0     O78708  11.307   8.856   5.813  0.5408 -0.1085  0.2009
  571MOL0     C78709  11.217   8.883   5.463 -0.1252  0.1563 -0.5335
  571MOL0     C78710  11.103   8.898   5.380 -0.2250 -0.1207 -0.8548
  571MOL0     N78711  10.647   8.357   5.195 -0.0298 -0.0861 -0.1728
  571MOL0     N78712  10.539   8.300   5.224  0.5914  0.4878 -1.6129
  571MOL0     C78713   9.961   7.623   5.707 -0.4486 -0.3734  0.4320
  571MOL0     C78714   9.902   7.503   5.754  0.1787  0.1867 -0.1388
  571MOL0     C78715   9.729   7.164   5.994  0.0102 -0.4293 -0.0447
  571MOL0     C78716   9.632   7.192   6.089 -0.6964 -0.5155  0.0471
  571MOL0     C78717   9.582   7.095   6.181  0.1221  0.6767  1.1902
  571MOL0     C78718   9.633   6.967   6.188 -1.0612  0.1306 -0.2211
  571MOL0     O78719   9.574   6.884   6.284  0.5421  0.3140 -0.3123
  571MOL0     C78720   9.495   6.786   6.215  0.4420  0.4545 -0.9200
  571MOL0     C78721   9.348   6.828   6.218 -0.1300  0.4396 -0.2561
  571MOL0     C78722   9.256   6.743   6.117  0.3869 -0.3358  0.0515
  571MOL0     C78723   9.112   6.781   6.126 -0.2550 -0.6840 -1.0959
  571MOL0     C78724   9.068   6.735   6.258  0.0201 -0.0031 -0.3318
  571MOL0     C78725   9.042   6.699   6.372  0.1087 -0.1006  0.5592
  571MOL0     C78726   9.719   6.920   6.088  0.0067 -0.1298  1.0609
  571MOL0     C78727   9.766   7.021   5.991 -0.3900 -0.0369 -0.2581
  571MOL0     C78728   9.828   6.950   5.872  1.2088  0.4089  0.3011
  571MOL0     H78729   9.758   7.649   6.028  0.8158 -0.1382 -0.1241
  571MOL0     H78730   9.863   7.861   5.918  2.3358  1.4152 -2.5516
  571MOL0     H78731   9.983   7.793   5.530  1.2896 -0.1100 -0.0862
  571MOL0     H78732  10.094   7.926   5.537 -1.2079  3.1347 -2.5095
  571MOL0     H78733   9.794   7.923   5.523  0.9907 -1.4521  0.1133
  571MOL0     H78734   9.878   8.071   5.598 -0.1592  0.5292 -0.9187
  571MOL0     H78735   9.950   7.977   5.320  0.2766 -0.7450 -1.0641
  571MOL0     H78736   9.795   8.077   5.365  1.0508  0.0166 -1.4120
  571MOL0     H78737   9.927   8.244   5.456  1.0708 -2.0236  2.7171
  571MOL0     H78738  10.067   8.159   5.457  1.8978  5.4319 -1.0853
  571MOL0     H78739   9.925   8.219   5.208 -0.7411 -4.4583  1.9967
  571MOL0     H78740  10.089   8.149   5.229 -1.0193  0.2979 -1.9217
  571MOL0     H78741  10.054   8.383   5.147 -1.2216 -1.9883  0.3540
  571MOL0     H78742  10.006   8.432   5.317 -3.0679 -2.1807  1.2325
  571MOL0     H78743  10.241   8.294   5.352 -2.2419 -1.9226 -0.0856
  571MOL0     H78744  10.234   8.473   5.318 -0.0009 -0.4227  0.3719
  571MOL0     H78745  10.294   8.232   5.149 -1.3781  0.0107 -0.5098
  571MOL0     H78746  10.261   8.387   5.058 -0.6548 -0.7589  0.1034
  571MOL0     H78747  10.449   8.566   5.067 -1.8931 -1.5926  0.9310
  571MOL0     H78748  10.719   8.611   4.985  1.1245 -4.0897 -3.1988
  571MOL0     H78749  10.844   8.516   5.049  1.6950  4.1664 -3.5655
  571MOL0     H78750  10.701   8.719   5.214  0.2981  0.5116 -0.8699
  571MOL0     H78751  10.838   8.609   5.258 -3.2548 -1.6439  1.7203
  571MOL0     H78752  10.987   8.769   5.128  0.0062 -3.2491 -1.6751
  571MOL0     H78753  10.833   8.821   5.039  0.4153 -0.4452  0.8771
  571MOL0     H78754  10.934   8.999   5.195  2.6137 -1.7203  0.1697
  571MOL0     H78755  10.771   8.969   5.184 -0.1841 -0.0526  0.1694
  571MOL0     H78756  10.864   8.871   5.612 -0.5236  1.3418 -0.0903
  571MOL0     H78757  10.929   8.862   5.814  0.0438 -3.4050 -0.6692
  571MOL0     H78758  11.080   8.943   5.853 -0.6988  0.8404  0.5179
  571MOL0     H78759  11.083   8.770   5.841  3.7355  2.0268  1.1513
  571MOL0     H78760  11.650   8.951   5.518  1.9516  2.4102  2.3821
  571MOL0     H78761  11.869   8.928   5.576 -1.0394  1.3320 -1.0523
  571MOL0     H78762  12.065   8.940   5.681 -3.6223  3.0911 -0.9093
  571MOL0     H78763  11.970   8.997   5.819  0.5988  1.0105 -1.6446
  571MOL0     H78764  12.228   8.830   5.795  0.9463  0.9062 -1.1209
  571MOL0     H78765  12.229   8.998   5.845 -0.6867 -0.5475 -2.9844
  571MOL0     H78766  12.120   8.753   5.999 -0.5612  0.8458 -1.0288
  571MOL0     H78767  12.077   8.917   6.046 -0.8829 -0.1117  0.8832
  571MOL0     H78768  12.361   8.807   6.032 -1.3559 -0.4255 -1.9181
  571MOL0     H78769  12.283   8.790   6.182  2.7588 -2.9603 -1.5213
  571MOL0     H78770  12.360   9.059   6.044  1.1448  1.6064  1.9706
  571MOL0     H78771  12.254   9.038   6.178 -1.4517 -1.9733 -1.3353
  571MOL0     H78772  12.555   8.964   6.161  0.3891 -0.6952  0.7597
  571MOL0     H78773  12.440   8.947   6.293 -2.4808 -2.2107 -3.0561
  571MOL0     H78774  12.405   9.165   6.321 -0.4583 -1.5293 -0.2579
  571MOL0     H78775  12.441   9.218   6.149  0.2143  0.6567 -0.0434
  571MOL0     H78776  12.603   9.311   6.307 -1.3178 -0.1403  0.8552
  571MOL0     H78777  12.681   9.174   6.227  1.6241  3.0334 -0.3218
  571MOL0     H78778  11.763   8.682   5.923 -0.0723  1.0503  1.8934
  571MOL0     H78779  11.515   8.717   5.846 -1.4477  0.2701 -2.2274
  571MOL0     H78780  11.314   8.877   5.414 -0.4218 -3.1079 -0.9289
  571MOL0     H78781  11.122   8.902   5.274  6.4953  0.1506 -0.0717
  571MOL0     H78782  10.024   7.618   5.619  0.3778 -0.8459  1.0326
  571MOL0     H78783   9.922   7.407   5.708  1.5389 -1.2698  3.1842
  571MOL0     H78784   9.601   7.296   6.093 -2.5162 -1.0600  1.1058
  571MOL0     H78785   9.520   7.128   6.265  2.7210  0.2961  3.3943
  571MOL0     H78786   9.513   6.765   6.109  0.1997 -2.7615 -0.4392
  571MOL0     H78787   9.512   6.689   6.262  0.4710 -0.1700 -2.1707
  571MOL0     H78788   9.329   6.934   6.200 -0.5589  0.2985 -0.6877
  571MOL0     H78789   9.318   6.811   6.321 -0.5094 -0.8398 -0.5533
  571MOL0     H78790   9.289   6.766   6.015 -1.9220  0.6916 -0.5429
  571MOL0     H78791   9.266   6.638   6.142 -2.4900 -0.6921  0.0636
  571MOL0     H78792   9.060   6.718   6.054 -1.6978  0.9474 -1.5347
  571MOL0     H78793   9.097   6.888   6.111  2.9372  0.0861  0.2259
  571MOL0     H78794   9.009   6.684   6.473  1.4656  0.1872  1.0556
  571MOL0     H78795   9.749   6.816   6.077  3.0852  0.8079 -0.8278
  571MOL0     H78796   9.934   6.977   5.877  0.8335  2.2433 -0.8086
  571MOL0     H78797   9.815   6.841   5.868  2.1045  0.1428  2.8026
  571MOL0     H78798   9.791   6.994   5.779  0.4862 -0.0380  0.3777
  572MOL0     O78799   6.989   5.027   9.208  0.4938 -0.5066 -0.3090
  572MOL0     C78800   6.890   5.100   9.218  0.3401 -0.1973  0.4136
  572MOL0     O78801   6.858   5.209   9.143 -0.1193  0.4243 -0.2623
  572MOL0     C78802   6.958   5.246   9.049  0.9763  0.7075 -0.7027
  572MOL0     C78803   7.049   5.345   9.091  0.2981 -0.2667 -0.4643
  572MOL0     C78804   7.147   5.384   8.993  0.2322  0.3610 -0.6437
  572MOL0     C78805   7.151   5.332   8.866  0.2298 -0.0537  0.0947
  572MOL0     O78806   7.245   5.387   8.780 -1.0923  0.3238 -0.0187
  572MOL0     C78807   7.269   5.310   8.663  0.0653  0.1114 -0.4370
  572MOL0     C78808   7.376   5.376   8.576 -0.0844 -0.0306  0.3939
  572MOL0     C78809   7.519   5.352   8.617 -0.3525  0.4583 -0.3321
  572MOL0     C78810   7.631   5.415   8.536 -0.3956 -0.4284 -0.0118
  572MOL0     C78811   7.767   5.328   8.560 -0.0709  0.9221  0.0678
  572MOL0     C78812   7.897   5.388   8.509  0.7315 -0.7280 -0.2084
  572MOL0     C78813   7.890   5.413   8.361  0.7693  0.3588  0.5873
  572MOL0     C78814   8.037   5.454   8.302  0.0722  0.1860  0.3385
  572MOL0     N78815   8.059   5.590   8.346 -0.0156 -0.0826  0.0791
  572MOL0     C78816   7.990   5.708   8.313 -0.4629 -0.4332  0.5912
  572MOL0     C78817   8.068   5.809   8.360 -0.4340  0.0600 -0.4722
  572MOL0     C78818   8.033   5.953   8.336  1.0256 -0.5594  0.2961
  572MOL0     C78819   8.152   6.039   8.308 -0.4746 -0.5795 -0.9823
  572MOL0     C78820   8.212   6.024   8.162 -0.0468 -0.4881  0.2225
  572MOL0     C78821   8.367   6.027   8.173  0.6188  0.2822  0.4079
  572MOL0     O78822   8.421   6.040   8.040  0.1403 -0.2318 -0.1203
  572MOL0     C78823   8.504   6.148   8.008 -0.4046  0.8695  0.0318
  572MOL0     C78824   8.537   6.259   8.080 -1.1066  1.0383  0.0425
  572MOL0     C78825   8.634   6.353   8.035 -0.0037 -0.3885  0.2571
  572MOL0     C78826   8.646   6.474   8.120  0.3964  0.0899  0.8749
  572MOL0     C78827   8.706   6.324   7.915 -0.4604 -0.5367 -0.1521
  572MOL0     C78828   8.817   6.415   7.867 -0.0628 -0.5812  0.6861
  572MOL0     O78829   8.866   6.378   7.738  1.0429  0.3179 -0.1843
  572MOL0     C78830   8.939   6.466   7.668 -0.0197  0.0004 -0.3497
  572MOL0     C78831   8.891   6.557   7.570  0.6024 -0.2538  0.4426
  572MOL0     C78832   8.982   6.647   7.517  0.4296 -0.7065  1.3150
  572MOL0     C78833   9.127   6.640   7.530  0.5982 -0.4884  0.9378
  572MOL0     O78834   9.219   6.728   7.473  0.8164  0.0044 -1.2391
  572MOL0     C78835   9.246   6.725   7.333  0.0569  0.3534  0.5522
  572MOL0     C78836   9.378   6.801   7.288  1.2761  0.6076 -0.0510
  572MOL0     C78837   9.390   6.769   7.132 -0.4099  0.6592  0.6951
  572MOL0     C78838   9.542   6.813   7.093  0.6679 -0.0711 -1.0044
  572MOL0     C78839   9.562   6.814   6.942 -0.1736  0.5162  0.1391
  572MOL0     C78840   9.557   6.685   6.880 -0.1468  1.1297 -0.7686
  572MOL0     C78841   9.598   6.702   6.731 -1.1479  0.2055 -0.1800
  572MOL0     C78842   9.541   6.584   6.651 -0.3960 -0.9368 -0.0869
  572MOL0    Cl78843   9.598   6.414   6.704  0.0454  0.2789 -0.0687
  572MOL0     C78844   9.161   6.554   7.629 -0.3701  0.1800 -0.2059
  572MOL0     C78845   9.074   6.467   7.702 -0.1751 -0.1966 -0.2668
  572MOL0     O78846   8.858   6.513   7.925  0.5007 -0.5228  0.3250
  572MOL0     C78847   8.672   6.207   7.839 -0.2925  0.9857 -1.1626
  572MOL0     C78848   8.571   6.129   7.882 -0.1847 -0.7301  0.8135
  572MOL0     N78849   8.176   5.755   8.433  0.0885 -0.2093  0.1362
  572MOL0     N78850   8.168   5.625   8.423  0.3437 -0.1954  0.1352
  572MOL0     C78851   7.065   5.230   8.835  0.5499  0.2314 -0.3245
  572MOL0     C78852   6.962   5.185   8.924  0.3972 -0.3292 -0.3473
  572MOL0     C78853   6.806   5.055   9.331  0.4094 -0.6117 -0.0686
  572MOL0     C78854   6.878   5.024   9.447 -0.7345  0.2115 -0.0030
  572MOL0     C78855   6.808   4.972   9.560 -1.1553 -0.0578  0.8741
  572MOL0     C78856   6.664   4.954   9.558  0.0472 -0.4517  0.1237
  572MOL0     O78857   6.586   4.899   9.662 -0.3760 -0.0604 -0.0881
  572MOL0     C78858   6.662   4.869   9.783  0.2163 -0.9578  0.8830
  572MOL0     C78859   6.726   4.728   9.782  0.6240 -0.3434 -0.4423
  572MOL0     C78860   6.746   4.637   9.912  0.0719 -0.6657  0.3920
  572MOL0     C78861   6.626   4.620   9.986  0.4449 -0.2948  1.2256
  572MOL0     C78862   6.509   4.566   9.908 -0.6137 -0.4148 -0.2675
  572MOL0     C78863   6.412   4.526   9.861  0.3372 -0.7208 -0.0599
  572MOL0     C78864   6.595   4.992   9.442  1.0445 -0.1934  0.3947
  572MOL0     C78865   6.665   5.042   9.331 -1.0852  0.1127  0.4748
  572MOL0     C78866   6.600   5.079   9.206  0.0714  0.2858 -0.2095
  572MOL0     H78867   7.040   5.391   9.189  0.6059  1.2581 -1.1243
  572MOL0     H78868   7.212   5.464   9.026  1.2401 -1.2436  1.4559
  572MOL0     H78869   7.175   5.291   8.610 -0.5251 -6.6078  2.0024
  572MOL0     H78870   7.307   5.210   8.687 -0.7426 -0.3574 -1.0842
  572MOL0     H78871   7.362   5.344   8.472 -2.8839 -0.1703  0.7422
  572MOL0     H78872   7.370   5.484   8.591 -1.2587 -0.2780  2.0043
  572MOL0     H78873   7.532   5.380   8.722 -2.0748 -0.4306  0.1749
  572MOL0     H78874   7.538   5.244   8.618  0.2489  0.5553  1.0812
  572MOL0     H78875   7.605   5.412   8.430  2.7146 -3.0348 -0.8693
  572MOL0     H78876   7.653   5.519   8.563  2.9270 -1.4018  1.5055
  572MOL0     H78877   7.750   5.231   8.512 -2.5514  1.3578 -0.0719
  572MOL0     H78878   7.765   5.312   8.668 -1.9208 -3.1527 -0.4206
  572MOL0     H78879   7.931   5.482   8.553 -0.6942  0.2097 -1.0206
  572MOL0     H78880   7.973   5.310   8.519  1.3738 -0.3865 -2.0039
  572MOL0     H78881   7.812   5.490   8.355 -1.5876 -1.7596  2.1191
  572MOL0     H78882   7.858   5.326   8.304  3.2886 -1.0368  1.1423
  572MOL0     H78883   8.111   5.392   8.354 -2.2674 -0.3108  3.3865
  572MOL0     H78884   8.041   5.445   8.193  1.2650 -0.2758  0.4138
  572MOL0     H78885   7.898   5.717   8.256  0.5572  0.9718 -0.9445
  572MOL0     H78886   7.972   5.995   8.417 -2.4953  1.5745 -3.1493
  572MOL0     H78887   7.965   5.974   8.254  0.0977 -0.7181  1.0033
  572MOL0     H78888   8.124   6.144   8.327 -2.2336 -1.1362 -0.2703
  572MOL0     H78889   8.234   6.028   8.379  0.5579 -0.0053 -2.0555
  572MOL0     H78890   8.180   5.935   8.106 -1.5406  1.1070 -1.6156
  572MOL0     H78891   8.174   6.108   8.102  0.5922  0.1977  0.7656
  572MOL0     H78892   8.399   6.098   8.250  2.2645 -0.1635  0.1857
  572MOL0     H78893   8.397   5.926   8.204  4.0839  0.3716 -2.0093
  572MOL0     H78894   8.491   6.269   8.177  0.2089 -0.6456  0.8943
  572MOL0     H78895   8.643   6.559   8.052  3.5870  0.7017  1.3555
  572MOL0     H78896   8.742   6.474   8.172  2.1607 -0.2210 -2.1695
  572MOL0     H78897   8.557   6.484   8.184 -1.4718 -1.4573 -1.3042
  572MOL0     H78898   8.788   6.554   7.535 -0.6504 -1.6828  3.8349
  572MOL0     H78899   8.934   6.721   7.454  1.7781 -0.1708  0.8808
  572MOL0     H78900   9.249   6.620   7.301  0.3511  0.0970  1.3898
  572MOL0     H78901   9.175   6.785   7.275  1.7213  1.0572 -0.8524
  572MOL0     H78902   9.364   6.910   7.293  0.0615  0.5140 -0.7960
  572MOL0     H78903   9.469   6.761   7.332  0.6167  0.3458  1.0990
  572MOL0     H78904   9.326   6.828   7.065 -0.3151 -3.0679 -3.0893
  572MOL0     H78905   9.361   6.664   7.125 -0.0253  0.5684  0.4565
  572MOL0     H78906   9.620   6.746   7.131 -0.5880 -0.5258  0.8932
  572MOL0     H78907   9.567   6.911   7.137 -0.1763 -0.3365  0.1011
  572MOL0     H78908   9.489   6.883   6.899 -0.9352 -1.0721 -1.2235
  572MOL0     H78909   9.660   6.859   6.928 -1.4445  3.1499 -0.9390
  572MOL0     H78910   9.461   6.636   6.897 -1.2832  2.9425 -1.5779
  572MOL0     H78911   9.618   6.608   6.929 -2.2872 -0.0601  0.1369
  572MOL0     H78912   9.707   6.708   6.724 -1.0963  1.6728  1.3107
  572MOL0     H78913   9.569   6.798   6.687  3.2589  1.8509 -0.0203
  572MOL0     H78914   9.568   6.600   6.546  0.8712  0.8313  0.4695
  572MOL0     H78915   9.432   6.588   6.659 -0.3199 -1.5315  1.5761
  572MOL0     H78916   9.267   6.559   7.653 -0.6500 -0.1136  1.2132
  572MOL0     H78917   9.123   6.407   7.778 -0.3368  1.1916  1.0014
  572MOL0     H78918   8.718   6.173   7.747 -0.8683  0.7347 -1.3654
  572MOL0     H78919   8.538   6.052   7.812 -0.5885 -2.3957  2.7501
  572MOL0     H78920   7.071   5.177   8.740 -0.1202 -1.3812  0.5052
  572MOL0     H78921   6.891   5.107   8.903 -0.3224  0.1045  0.4084
  572MOL0     H78922   6.986   5.022   9.447 -0.7285 -1.4384 -1.5461
  572MOL0     H78923   6.873   4.953   9.645 -0.6411  0.1285  0.5253
  572MOL0     H78924   6.734   4.947   9.804 -0.6798 -1.0875  5.6019
  572MOL0     H78925   6.584   4.872   9.860  0.1073 -0.4135  0.7492
  572MOL0     H78926   6.823   4.749   9.736 -0.5936 -1.6663 -4.0350
  572MOL0     H78927   6.661   4.672   9.714 -3.2970 -0.0919  2.7625
  572MOL0     H78928   6.781   4.541   9.874  1.8405 -0.0216  0.2732
  572MOL0     H78929   6.824   4.682   9.975 -0.7888 -0.7287  1.5228
  572MOL0     H78930   6.597   4.720  10.020  3.8879  1.6696 -0.9876
  572MOL0     H78931   6.648   4.550  10.066 -0.2840  0.1774  1.8539
  572MOL0     H78932   6.323   4.496   9.810  0.5268  0.1732 -0.9586
  572MOL0     H78933   6.488   4.986   9.459  1.3580 -0.4707  2.6041
  572MOL0     H78934   6.629   5.180   9.173  0.5556 -0.6761 -3.0144
  572MOL0     H78935   6.638   5.007   9.133  1.2729  1.4154 -0.7482
  572MOL0     H78936   6.492   5.070   9.216  0.0549  1.1901  0.5845
  573MOL0     O78937   5.368  10.242   5.555  0.0744 -0.2763 -0.8230
  573MOL0     C78938   5.358  10.170   5.652 -0.2837  0.4813  0.5977
  573MOL0     O78939   5.279  10.054   5.659 -0.5560 -0.2982 -0.6589
  573MOL0     C78940   5.156  10.070   5.605 -0.5359 -1.0910 -0.2050
  573MOL0     C78941   5.043  10.115   5.681 -0.3423 -0.8388 -0.6727
  573MOL0     C78942   4.914  10.116   5.625 -0.4196  0.1799  1.3030
  573MOL0     C78943   4.901  10.091   5.491  0.5871 -0.0501  0.0685
  573MOL0     O78944   4.773  10.087   5.448 -0.1974 -0.1592  0.3429
  573MOL0     C78945   4.744  10.030   5.313  0.1462 -0.5612  0.2042
  573MOL0     C78946   4.672   9.890   5.336 -0.7271 -0.3651 -0.0246
  573MOL0     C78947   4.597   9.878   5.461 -0.8455  0.2747  0.0409
  573MOL0     C78948   4.537   9.740   5.474 -0.4731 -0.1110  0.0244
  573MOL0     C78949   4.480   9.719   5.620 -0.1170 -0.0966  0.4922
  573MOL0     C78950   4.406   9.589   5.621  0.9891 -0.4212 -0.7600
  573MOL0     C78951   4.397   9.535   5.763  0.1638  0.0444  0.7355
  573MOL0     C78952   4.303   9.614   5.867 -0.4009 -0.5765  0.6515
  573MOL0     N78953   4.338   9.634   6.009  0.0799  0.1808  0.5371
  573MOL0     C78954   4.381   9.750   6.068 -0.5533  0.0781 -0.2415
  573MOL0     C78955   4.376   9.721   6.205  0.6451 -0.0589  0.7944
  573MOL0     C78956   4.447   9.807   6.305 -0.6225 -0.5732 -0.5073
  573MOL0     C78957   4.385   9.808   6.442 -0.5680  0.4215 -0.5431
  573MOL0     C78958   4.266   9.903   6.438  0.6074  0.1818  0.6086
  573MOL0     C78959   4.178   9.905   6.559 -0.1557 -0.3788 -0.0559
  573MOL0     O78960   4.239   9.984   6.654 -0.4102 -0.0143  0.0869
  573MOL0     C78961   4.224  10.121   6.663 -0.5854  0.5656  0.3517
  573MOL0     C78962   4.127  10.198   6.600  0.0944  0.5206  0.0056
  573MOL0     C78963   4.126  10.336   6.608 -0.5837  0.3117 -0.6152
  573MOL0     C78964   4.008  10.404   6.537 -0.6412  0.1020 -0.3984
  573MOL0     C78965   4.213  10.396   6.696 -1.2832  0.2519  1.0515
  573MOL0     C78966   4.193  10.547   6.722  0.3734  0.4678 -0.1562
  573MOL0     O78967   4.320  10.607   6.715 -0.0097  0.3663 -0.3356
  573MOL0     C78968   4.349  10.734   6.760 -0.4016  0.0823 -0.3403
  573MOL0     C78969   4.394  10.756   6.893 -1.1416 -0.4462  1.3541
  573MOL0     C78970   4.427  10.891   6.946  1.5956  0.1274  0.4283
  573MOL0     C78971   4.379  11.002   6.878  0.0136 -0.0608 -1.2950
  573MOL0     O78972   4.386  11.119   6.955 -0.0307 -0.4410  0.2413
  573MOL0     C78973   4.326  11.236   6.908  0.4578 -0.2773 -1.1058
  573MOL0     C78974   4.396  11.319   6.796  0.1830 -0.5885 -0.1265
  573MOL0     C78975   4.549  11.331   6.804  0.7150  0.6596  0.2560
  573MOL0     C78976   4.594  11.462   6.852  0.2073 -0.5686 -0.6467
  573MOL0     C78977   4.606  11.578   6.750 -1.0637  0.5043  0.5832
  573MOL0     C78978   4.590  11.715   6.805 -0.3471  0.1685  0.0381
  573MOL0     C78979   4.703  11.772   6.897  0.0601 -0.6421  0.1812
  573MOL0     C78980   4.666  11.848   7.019 -0.0512 -0.1052  0.8211
  573MOL0    Cl78981   4.561  11.989   6.968  0.4438 -0.3238 -0.1401
  573MOL0     C78982   4.321  10.981   6.759  0.0655  0.5352  0.7112
  573MOL0     C78983   4.302  10.851   6.701  0.3447  0.5706  0.1553
  573MOL0     O78984   4.083  10.592   6.753 -0.0438 -0.2929 -0.0685
  573MOL0     C78985   4.309  10.328   6.766 -0.0960 -0.9349  0.3462
  573MOL0     C78986   4.319  10.182   6.744  0.0427  0.6502 -0.3944
  573MOL0     N78987   4.324   9.601   6.220  0.6902 -0.2267 -0.2987
  573MOL0     N78988   4.317   9.548   6.108  0.0286  0.8361  0.7665
  573MOL0     C78989   5.016  10.051   5.419 -0.6387  0.1632 -0.4644
  573MOL0     C78990   5.140  10.036   5.473 -0.1083 -0.7557  0.0275
  573MOL0     C78991   5.461  10.197   5.757  0.8479  0.4402  0.0619
  573MOL0     C78992   5.462  10.117   5.878  0.8579 -0.3007 -0.0503
  573MOL0     C78993   5.571  10.130   5.970  0.4324  0.0109 -0.9982
  573MOL0     C78994   5.661  10.235   5.970  0.5152  0.5970 -0.1425
  573MOL0     O78995   5.756  10.240   6.072  1.4893  0.0311  0.0287
  573MOL0     C78996   5.783  10.370   6.125  0.0348 -0.3513  0.0602
  573MOL0     C78997   5.921  10.414   6.085 -0.1513  0.0443  0.1458
  573MOL0     C78998   6.036  10.338   6.150  0.1547  0.3256  0.5134
  573MOL0     C78999   6.030  10.277   6.285  1.3247 -0.3978 -1.1025
  573MOL0     C79000   6.033  10.381   6.386  1.0528  0.0119 -0.2091
  573MOL0     C79001   6.033  10.465   6.479 -0.0267  1.0409 -0.6282
  573MOL0     C79002   5.650  10.328   5.860 -0.7454  0.7622  0.9901
  573MOL0     C79003   5.552  10.309   5.760 -0.1585  0.5352  0.1451
  573MOL0     C79004   5.575  10.418   5.659  0.3229  0.8643  0.0630
  573MOL0     H79005   5.047  10.155   5.782 -1.4280 -1.1007 -0.5067
  573MOL0     H79006   4.824  10.145   5.677 -0.3465  1.9466  0.4917
  573MOL0     H79007   4.827  10.020   5.242  0.2152  0.0922  0.1843
  573MOL0     H79008   4.674  10.104   5.272  0.1187  0.9383  2.7714
  573MOL0     H79009   4.595   9.879   5.259 -1.5530 -0.3949  0.7897
  573MOL0     H79010   4.745   9.808   5.342  1.1463  1.2291  5.7280
  573MOL0     H79011   4.658   9.892   5.551  0.8818 -0.0538 -1.0318
  573MOL0     H79012   4.517   9.953   5.467  0.4971  1.7466  0.2881
  573MOL0     H79013   4.448   9.745   5.409 -1.1258 -0.6490  0.8508
  573MOL0     H79014   4.602   9.655   5.453  0.9283  0.1870  2.7867
  573MOL0     H79015   4.408   9.800   5.635 -0.4112 -0.3305  0.3407
  573MOL0     H79016   4.567   9.712   5.686  0.2280  0.7710  0.1535
  573MOL0     H79017   4.304   9.611   5.587  2.1276  1.5647 -3.2138
  573MOL0     H79018   4.435   9.514   5.547 -0.8705 -0.2424 -1.7280
  573MOL0     H79019   4.497   9.537   5.808  0.0759  2.0556  0.9151
  573MOL0     H79020   4.370   9.429   5.760  1.9100 -0.4137 -1.5643
  573MOL0     H79021   4.284   9.711   5.821  0.1981 -1.0573 -0.6710
  573MOL0     H79022   4.213   9.552   5.874  0.9013 -2.4539  1.8271
  573MOL0     H79023   4.418   9.839   6.018  1.7558  0.3893  1.8249
  573MOL0     H79024   4.454   9.912   6.273  4.7886  0.9845  4.1383
  573MOL0     H79025   4.549   9.767   6.299 -0.3372 -0.3243  1.8912
  573MOL0     H79026   4.361   9.705   6.468 -3.0827  0.6752 -1.5462
  573MOL0     H79027   4.454   9.852   6.515  1.3132 -0.3759 -1.7549
  573MOL0     H79028   4.274  10.004   6.395 -3.0729 -0.4584 -2.0963
  573MOL0     H79029   4.200   9.853   6.367 -0.1937  3.4506 -1.1541
  573MOL0     H79030   4.075   9.939   6.540 -0.6541 -0.5483  2.1176
  573MOL0     H79031   4.181   9.802   6.594  3.7593 -0.9794 -1.6776
  573MOL0     H79032   4.062  10.149   6.528  1.8645 -0.0805 -1.2603
  573MOL0     H79033   4.050  10.486   6.478 -0.7389  1.1853  0.9861
  573MOL0     H79034   3.935  10.445   6.608 -2.1095 -1.3681 -1.0187
  573MOL0     H79035   3.955  10.323   6.486  1.6000 -1.4603 -0.3592
  573MOL0     H79036   4.428  10.672   6.952  0.6008 -2.4971 -2.2308
  573MOL0     H79037   4.469  10.914   7.043  0.3323  1.7373  0.6209
  573MOL0     H79038   4.221  11.217   6.885 -0.1858  0.4078  0.9985
  573MOL0     H79039   4.312  11.289   7.003 -0.1286 -2.6479  0.2140
  573MOL0     H79040   4.383  11.253   6.710 -0.4884  1.2683 -1.5154
  573MOL0     H79041   4.353  11.417   6.771 -2.2884 -2.0367 -1.8675
  573MOL0     H79042   4.599  11.321   6.708  0.0617  2.4055 -0.2958
  573MOL0     H79043   4.585  11.251   6.870 -2.2965 -0.2476  0.9755
  573MOL0     H79044   4.689  11.440   6.901 -1.8931  1.6789  5.3538
  573MOL0     H79045   4.533  11.499   6.935 -0.5885 -3.0792 -0.0415
  573MOL0     H79046   4.705  11.566   6.706 -1.1681  0.3010  0.4009
  573MOL0     H79047   4.536  11.551   6.670 -0.1758 -0.8695  0.2295
  573MOL0     H79048   4.489  11.727   6.846 -1.3441 -1.8146 -1.6684
  573MOL0     H79049   4.576  11.772   6.713  3.5873 -2.0900 -2.2544
  573MOL0     H79050   4.762  11.837   6.832  0.7671  0.7725  2.1162
  573MOL0     H79051   4.775  11.693   6.922  1.3086  0.6601  0.8679
  573MOL0     H79052   4.751  11.884   7.077 -0.9936 -0.2533  2.3521
  573MOL0     H79053   4.621  11.769   7.080  0.9115 -0.1356  1.5240
  573MOL0     H79054   4.279  11.067   6.709  1.1543 -0.6756 -2.5287
  573MOL0     H79055   4.244  10.822   6.614  0.3601  0.9344  0.0237
  573MOL0     H79056   4.384  10.380   6.825 -1.4583  0.0313  1.2746
  573MOL0     H79057   4.404  10.125   6.781 -1.3633  0.8835  3.6973
  573MOL0     H79058   5.010  10.037   5.311  0.9601 -0.5644 -0.4888
  573MOL0     H79059   5.220  10.002   5.407 -1.7705  0.8593 -3.0473
  573MOL0     H79060   5.380  10.047   5.894 -0.4904  1.3918  0.7267
  573MOL0     H79061   5.569  10.067   6.058 -1.4555 -0.0618 -1.0680
  573MOL0     H79062   5.715  10.449   6.092  0.5272 -0.7624 -2.1198
  573MOL0     H79063   5.777  10.363   6.233  1.5768  2.5777  0.4529
  573MOL0     H79064   5.942  10.511   6.132  1.7383  0.2166 -0.9410
  573MOL0     H79065   5.929  10.413   5.976  0.7385 -1.4216  0.2047
  573MOL0     H79066   6.050  10.253   6.082  0.0862  0.7457 -0.0257
  573MOL0     H79067   6.123  10.402   6.137 -0.8526  1.0881 -4.7771
  573MOL0     H79068   6.114  10.211   6.311  2.4512  2.3569  3.3666
  573MOL0     H79069   5.929  10.237   6.296  0.8693  1.2307  1.5057
  573MOL0     H79070   6.033  10.521   6.570  0.7067 -1.2228  0.8438
  573MOL0     H79071   5.728  10.402   5.847 -0.3987 -0.1772 -4.7771
  573MOL0     H79072   5.593  10.367   5.564  1.1017  1.5954 -0.1969
  573MOL0     H79073   5.479  10.470   5.648 -0.6100 -1.2039 -2.3370
  573MOL0     H79074   5.646  10.501   5.670 -0.5533  2.1645 -2.9984
  574MOL0     O79075   1.190  10.488   4.795  0.2730  0.3469  0.4002
  574MOL0     C79076   1.294  10.436   4.832 -0.1374  0.4564  0.5880
  574MOL0     O79077   1.423  10.471   4.784 -0.5605  0.6051 -0.8355
  574MOL0     C79078   1.464  10.598   4.752 -0.0551 -0.5392 -0.0053
  574MOL0     C79079   1.391  10.713   4.738 -0.1432 -0.4340 -0.0260
  574MOL0     C79080   1.454  10.832   4.709  0.7270  0.1108 -0.6941
  574MOL0     C79081   1.593  10.838   4.681  0.2743  0.0206  0.3785
  574MOL0     O79082   1.641  10.961   4.652 -0.7317 -0.5863  0.1202
  574MOL0     C79083   1.766  10.996   4.596  1.3891 -0.2183 -0.1685
  574MOL0     C79084   1.769  11.002   4.442  0.4250  0.3196 -0.1212
  574MOL0     C79085   1.909  11.046   4.397 -0.1801 -0.8045 -0.5555
  574MOL0     C79086   1.915  11.115   4.260  0.7898  0.3866  0.3514
  574MOL0     C79087   2.049  11.112   4.195  1.6762  1.2058  0.4786
  574MOL0     C79088   2.064  11.231   4.101 -0.9173 -0.2970 -0.6750
  574MOL0     C79089   1.953  11.257   3.990  0.1873 -0.5572 -0.8956
  574MOL0     C79090   1.972  11.386   3.911  0.9681  0.8474  0.0634
  574MOL0     N79091   1.911  11.507   3.977 -0.0237 -0.1994  0.6080
  574MOL0     C79092   1.966  11.593   4.061 -0.0398 -0.3745 -0.1070
  574MOL0     C79093   1.868  11.679   4.094 -0.8153 -0.5021 -1.4667
  574MOL0     C79094   1.877  11.791   4.187  0.5139  0.1824 -0.3961
  574MOL0     C79095   1.818  11.921   4.124  0.6759  0.3303 -0.5193
  574MOL0     C79096   1.893  11.957   4.001  0.9265 -0.1438  0.3720
  574MOL0     C79097   1.842  12.087   3.938 -0.5442 -0.2914  0.1631
  574MOL0     O79098   1.954  12.121   3.850  0.4553 -0.4414  0.3738
  574MOL0     C79099   1.928  12.166   3.725  0.3248 -0.1159  0.5204
  574MOL0     C79100   1.802  12.215   3.677 -0.6999  0.5567 -0.2042
  574MOL0     C79101   1.790  12.265   3.552 -0.5821  0.1630 -0.5633
  574MOL0     C79102   1.653  12.311   3.509  0.4345 -0.3744 -0.9489
  574MOL0     C79103   1.900  12.259   3.458 -0.0354 -1.1086  0.6243
  574MOL0     C79104   1.898  12.301   3.311  0.2881 -0.5943  0.6225
  574MOL0     O79105   2.012  12.278   3.241  0.3201 -0.0329 -0.2402
  574MOL0     C79106   2.022  12.334   3.119  0.1030 -0.0376  0.9501
  574MOL0     C79107   2.025  12.258   3.006  0.5746 -0.0948  0.5803
  574MOL0     C79108   2.031  12.316   2.881  0.9710  0.4262 -0.2303
  574MOL0     C79109   2.054  12.451   2.875 -0.4245 -0.0312 -0.2660
  574MOL0     O79110   2.047  12.499   2.750  0.0193 -0.5034  0.3651
  574MOL0     C79111   2.039  12.637   2.719  0.7833 -0.9150 -0.0597
  574MOL0     C79112   2.044  12.652   2.566  0.0971 -0.0871 -0.1176
  574MOL0     C79113   2.168  12.590   2.495 -0.8686 -0.1802  0.1977
  574MOL0     C79114   2.211  12.663   2.364  0.0324  1.0718 -0.3993
  574MOL0     C79115   2.292  12.794   2.391 -0.6547 -0.8293  0.5382
  574MOL0     C79116   2.329  12.868   2.259 -0.6036 -0.0410  0.1919
  574MOL0     C79117   2.212  12.903   2.173  0.3539 -0.6418 -0.2741
  574MOL0     C79118   2.255  13.000   2.054  0.6074  1.4697  0.8169
  574MOL0    Cl79119   2.314  13.172   2.084  0.1856  0.3507 -0.0062
  574MOL0     C79120   2.047  12.537   2.986  0.2530  0.5379  1.0464
  574MOL0     C79121   2.033  12.475   3.107  0.3254  0.3800 -0.8953
  574MOL0     O79122   1.791  12.344   3.261  0.1186 -0.6625  0.3167
  574MOL0     C79123   2.025  12.223   3.505  0.4352  0.6864 -0.3924
  574MOL0     C79124   2.040  12.174   3.636 -0.8439 -0.7223 -0.4869
  574MOL0     N79125   1.750  11.633   4.041  0.1075  0.6642  0.2468
  574MOL0     N79126   1.777  11.530   3.969 -0.6227  0.4965 -0.1450
  574MOL0     C79127   1.669  10.721   4.699  1.3356  0.2104  0.4052
  574MOL0     C79128   1.603  10.602   4.726 -0.4537 -0.6890 -0.5239
  574MOL0     C79129   1.272  10.312   4.925 -0.1305  0.3744 -0.0810
  574MOL0     C79130   1.145  10.266   4.956  0.0482  0.3747  1.0786
  574MOL0     C79131   1.123  10.158   5.042 -0.9116  1.2878 -0.0316
  574MOL0     C79132   1.231  10.080   5.092 -0.2725 -0.8265 -0.1011
  574MOL0     O79133   1.194   9.963   5.144 -0.1950  0.4385  0.6721
  574MOL0     C79134   1.230   9.942   5.281  0.3665 -0.3257  0.6212
  574MOL0     C79135   1.156  10.044   5.375  0.4353  0.4183  1.6114
  574MOL0     C79136   0.998  10.036   5.343 -0.4938  0.4827  0.3860
  574MOL0     C79137   0.934  10.173   5.369  0.3900  0.7293 -0.4068
  574MOL0     C79138   0.890  10.207   5.505 -0.6249  0.4493  0.0224
  574MOL0     C79139   0.852  10.250   5.611  0.2341  0.4273  0.0084
  574MOL0     C79140   1.357  10.142   5.080  0.2419 -0.3556  0.0947
  574MOL0     C79141   1.382  10.257   4.997 -0.1257  0.3472  0.3292
  574MOL0     C79142   1.525  10.302   5.002 -0.5289  0.6722 -0.3061
  574MOL0     H79143   1.282  10.705   4.737 -0.1454 -1.5165 -2.8713
  574MOL0     H79144   1.398  10.924   4.696 -0.0953  0.0987  2.0753
  574MOL0     H79145   1.829  10.918   4.639 -1.6346 -1.3138  2.7233
  574MOL0     H79146   1.796  11.092   4.637 -0.4979  1.0152 -1.5179
  574MOL0     H79147   1.729  10.907   4.404 -2.4202  2.1653 -2.1578
  574MOL0     H79148   1.703  11.084   4.414 -1.0875 -0.9913 -0.5415
  574MOL0     H79149   1.961  11.108   4.470  3.1474 -1.2310 -2.3637
  574MOL0     H79150   1.981  10.964   4.391  0.9488  0.2171 -1.5452
  574MOL0     H79151   1.837  11.082   4.190  1.0656 -0.3951  0.4093
  574MOL0     H79152   1.888  11.219   4.279 -0.6106  0.1444 -0.1825
  574MOL0     H79153   2.064  11.013   4.149  0.4651  2.0653 -1.9296
  574MOL0     H79154   2.127  11.114   4.272 -0.3473  0.2532  2.6491
  574MOL0     H79155   2.074  11.323   4.159 -1.4590  0.6102 -1.9877
  574MOL0     H79156   2.163  11.221   4.054 -0.7202  0.1469 -0.3610
  574MOL0     H79157   1.853  11.260   4.036  0.2621  0.9924 -0.7770
  574MOL0     H79158   1.946  11.170   3.925 -0.3171 -2.8957  2.0671
  574MOL0     H79159   2.080  11.394   3.892  0.7227 -1.0703 -2.7264
  574MOL0     H79160   1.930  11.369   3.812  1.3884  1.0221 -0.1494
  574MOL0     H79161   2.065  11.595   4.105 -1.1846 -0.4703  2.6882
  574MOL0     H79162   1.983  11.811   4.208  0.0139  0.2375  2.5657
  574MOL0     H79163   1.832  11.770   4.284  0.6825  0.8702 -0.1600
  574MOL0     H79164   1.714  11.908   4.092  0.7324  1.0372 -0.9888
  574MOL0     H79165   1.805  12.008   4.189  0.8894  0.3993 -0.5687
  574MOL0     H79166   1.988  11.988   4.045 -0.7084  2.1265  2.6123
  574MOL0     H79167   1.910  11.881   3.925  1.8707  0.0869  0.3379
  574MOL0     H79168   1.752  12.071   3.877  1.6565 -2.5443 -2.8300
  574MOL0     H79169   1.825  12.163   4.014 -2.8411 -0.4199 -0.1576
  574MOL0     H79170   1.713  12.214   3.739 -0.0223 -1.8387  0.8636
  574MOL0     H79171   1.596  12.345   3.596  0.5049 -0.6649 -0.7897
  574MOL0     H79172   1.598  12.227   3.467  2.3732 -3.9429  2.9578
  574MOL0     H79173   1.654  12.400   3.445  0.5054  0.1479 -0.2480
  574MOL0     H79174   2.034  12.150   3.011  2.2245 -0.2821 -3.0367
  574MOL0     H79175   2.034  12.260   2.787  2.5976  0.7293 -0.3772
  574MOL0     H79176   1.949  12.682   2.762  1.2837  3.0114 -2.5160
  574MOL0     H79177   2.131  12.690   2.747  1.4139  0.0072 -3.3992
  574MOL0     H79178   1.959  12.604   2.517  1.7287 -3.1900 -0.1607
  574MOL0     H79179   2.042  12.758   2.537  0.1168 -0.4647 -1.5806
  574MOL0     H79180   2.136  12.491   2.461  3.4052 -0.5112 -3.8463
  574MOL0     H79181   2.249  12.591   2.569 -0.8333 -2.7698  0.2634
  574MOL0     H79182   2.123  12.673   2.299 -0.5503 -2.2684 -0.2823
  574MOL0     H79183   2.279  12.603   2.302  0.0615  2.9379 -2.2888
  574MOL0     H79184   2.244  12.863   2.460 -0.6074 -1.7261  1.5082
  574MOL0     H79185   2.386  12.777   2.445 -1.9759  0.5723  3.4799
  574MOL0     H79186   2.396  12.804   2.201  1.3895  1.0227  1.1826
  574MOL0     H79187   2.367  12.963   2.298 -1.1373  0.1126  0.3472
  574MOL0     H79188   2.151  12.962   2.243  1.3046  0.9904 -0.7455
  574MOL0     H79189   2.160  12.814   2.138  0.2152 -0.4703 -0.5035
  574MOL0     H79190   2.172  12.990   1.984  1.7647 -1.4030 -0.3244
  574MOL0     H79191   2.343  12.950   2.010 -0.1566  1.7733 -1.1539
  574MOL0     H79192   2.045  12.644   2.974  2.1297  0.5055  0.1128
  574MOL0     H79193   2.029  12.526   3.203  1.5125 -0.5290 -0.3427
  574MOL0     H79194   2.117  12.224   3.446  0.6631  1.7596 -0.0303
  574MOL0     H79195   2.138  12.157   3.679 -0.3275 -1.1272 -1.7908
  574MOL0     H79196   1.777  10.712   4.689  1.1007 -4.1411 -0.3101
  574MOL0     H79197   1.665  10.512   4.728  1.5488  0.6102 -1.1124
  574MOL0     H79198   1.056  10.314   4.915  0.1418 -1.8694 -2.0844
  574MOL0     H79199   1.023  10.139   5.080  0.6793 -3.2188  2.6760
  574MOL0     H79200   1.187   9.846   5.309 -0.2739 -0.0379  0.6486
  574MOL0     H79201   1.335   9.935   5.310 -0.1556 -1.2071  2.4131
  574MOL0     H79202   1.195  10.145   5.361 -2.6062  1.5357  0.3070
  574MOL0     H79203   1.172  10.022   5.481  2.1940 -0.7328  1.1498
  574MOL0     H79204   0.970  10.005   5.242  2.7401  0.6522 -0.6934
  574MOL0     H79205   0.955   9.963   5.412  1.4094  2.2952  3.7351
  574MOL0     H79206   0.845  10.184   5.308  0.6249 -1.1520 -1.1508
  574MOL0     H79207   1.007  10.249   5.340  1.6942  0.2911  1.5383
  574MOL0     H79208   0.814  10.298   5.699 -0.3377  0.7910 -0.4245
  574MOL0     H79209   1.437  10.091   5.132 -0.4830  1.3422  3.1204
  574MOL0     H79210   1.526  10.399   5.053  0.1142  0.7738 -0.4968
  574MOL0     H79211   1.598  10.246   5.061 -2.5063 -1.1533  0.5255
  574MOL0     H79212   1.571  10.286   4.904 -1.9043 -1.9440 -0.6089
  575MOL0     O79213   1.508  11.288   3.388 -0.1590  0.9019 -0.3626
  575MOL0     C79214   1.581  11.380   3.363  0.0783 -1.1190 -0.4392
  575MOL0     O79215   1.556  11.517   3.379  0.1242 -0.2032  0.1222
  575MOL0     C79216   1.438  11.574   3.426  0.0771  0.1246 -0.8595
  575MOL0     C79217   1.375  11.517   3.542  0.1483 -0.1668  0.3921
  575MOL0     C79218   1.273  11.587   3.598  0.3659  0.5206  0.1986
  575MOL0     C79219   1.224  11.700   3.539 -0.3649  0.8404 -0.4536
  575MOL0     O79220   1.124  11.745   3.624 -0.1548  0.5174  0.0762
  575MOL0     C79221   1.015  11.793   3.546 -0.0161 -0.7129  0.0602
  575MOL0     C79222   0.896  11.835   3.635 -0.0973  0.4444  0.7771
  575MOL0     C79223   0.843  11.711   3.708  0.6754  0.7690 -0.7223
  575MOL0     C79224   0.687  11.714   3.706 -0.5778 -0.3404 -0.4637
  575MOL0     C79225   0.617  11.627   3.811  0.2321  0.9294  0.8656
  575MOL0     C79226   0.627  11.475   3.766 -0.4802  0.4978 -0.2061
  575MOL0     C79227   0.559  11.378   3.867 -0.3855  0.6577 -0.7859
  575MOL0     C79228   0.612  11.365   4.011 -0.5377  1.2539  0.9044
  575MOL0     N79229   0.749  11.308   4.007  0.2153  0.6012 -0.3511
  575MOL0     C79230   0.794  11.196   3.941 -0.6118 -1.2302 -0.9936
  575MOL0     C79231   0.930  11.219   3.938 -0.1644  0.1328  0.3976
  575MOL0     C79232   1.032  11.138   3.866  0.0486  0.6644 -0.7241
  575MOL0     C79233   1.125  11.216   3.759  0.5814  0.0114 -0.8081
  575MOL0     C79234   1.049  11.295   3.661  0.4492 -0.4467  0.3943
  575MOL0     C79235   0.972  11.223   3.550 -1.0730  0.1453 -0.9983
  575MOL0     O79236   1.058  11.170   3.459 -0.2165 -0.8221 -0.1726
  575MOL0     C79237   1.103  11.257   3.353  0.4617 -0.4545 -0.8136
  575MOL0     C79238   1.188  11.196   3.259  0.0944 -0.0470 -0.6604
  575MOL0     C79239   1.249  11.276   3.162 -0.1235 -0.0668 -0.7823
  575MOL0     C79240   1.369  11.222   3.088  0.5175 -0.4858  0.2119
  575MOL0     C79241   1.219  11.416   3.152 -0.2523 -0.0426  0.0652
  575MOL0     C79242   1.288  11.499   3.049 -0.8718 -0.6746  0.8891
  575MOL0     O79243   1.320  11.434   2.927  0.4156 -0.1559 -0.3536
  575MOL0     C79244   1.349  11.523   2.821  1.0641  0.2593  0.7337
  575MOL0     C79245   1.465  11.600   2.805 -0.1489  0.2569  0.7923
  575MOL0     C79246   1.482  11.691   2.698  0.2556 -0.9705 -0.0862
  575MOL0     C79247   1.393  11.686   2.589  0.1693  0.7738  0.3475
  575MOL0     O79248   1.420  11.764   2.487  1.0984  0.3656  0.3924
  575MOL0     C79249   1.312  11.854   2.445 -0.6104  0.7113 -0.5593
  575MOL0     C79250   1.346  11.916   2.309  0.9090 -0.1432  0.6196
  575MOL0     C79251   1.238  12.019   2.266 -0.7816  0.3073  0.2541
  575MOL0     C79252   1.273  12.087   2.126 -0.1292  0.4716  0.9678
  575MOL0     C79253   1.161  12.205   2.106 -0.3348  0.8554  0.2983
  575MOL0     C79254   1.127  12.225   1.959  0.3881  0.1623  0.8838
  575MOL0     C79255   1.028  12.338   1.934  1.4501 -0.0643  0.5333
  575MOL0     C79256   1.055  12.475   1.983 -0.2284  0.0394 -0.6309
  575MOL0    Cl79257   0.933  12.586   1.906  0.3254  0.1723  0.0904
  575MOL0     C79258   1.278  11.608   2.599 -0.9093  0.5441 -0.8405
  575MOL0     C79259   1.258  11.541   2.720  0.0552  0.1410 -0.0466
  575MOL0     O79260   1.333  11.610   3.077  0.1598  0.3261  0.1390
  575MOL0     C79261   1.136  11.480   3.245 -0.8578 -0.0766  0.0132
  575MOL0     C79262   1.083  11.396   3.341  0.6428 -0.5716  0.0662
  575MOL0     N79263   0.965  11.334   4.000 -1.3205 -0.8524 -0.0936
  575MOL0     N79264   0.854  11.381   4.040  0.2242 -0.5317  0.2180
  575MOL0     C79265   1.295  11.767   3.444 -0.9306 -0.9163  1.3731
  575MOL0     C79266   1.404  11.710   3.387 -0.9954  0.8086  0.2023
  575MOL0     C79267   1.715  11.364   3.294 -1.2123  0.4011  0.1294
  575MOL0     C79268   1.790  11.482   3.253  0.5366 -0.3551 -0.0005
  575MOL0     C79269   1.889  11.474   3.160 -0.2192 -0.4052 -0.1320
  575MOL0     C79270   1.941  11.351   3.125 -0.0041 -0.2800 -0.2340
  575MOL0     O79271   2.033  11.330   3.033 -0.4607 -0.7039  0.1892
  575MOL0     C79272   2.167  11.376   3.081 -0.1057  0.8598 -0.2801
  575MOL0     C79273   2.276  11.338   2.979  0.3329  0.3844 -0.0707
  575MOL0     C79274   2.234  11.349   2.831 -0.5086  0.1140 -0.7952
  575MOL0     C79275   2.204  11.210   2.761  0.2502 -0.9378 -0.0177
  575MOL0     C79276   2.326  11.131   2.725  0.2768 -0.0137 -0.5802
  575MOL0     C79277   2.416  11.066   2.703 -0.9372  1.2948  0.0083
  575MOL0     C79278   1.887  11.238   3.175  0.4050  0.2794  0.3539
  575MOL0     C79279   1.772  11.239   3.254 -0.8484 -0.1726  0.0371
  575MOL0     C79280   1.727  11.098   3.301 -1.1401 -1.0360 -0.3001
  575MOL0     H79281   1.406  11.421   3.581 -1.1820 -1.5870 -1.8662
  575MOL0     H79282   1.235  11.556   3.695 -1.3727 -0.0368 -0.6190
  575MOL0     H79283   0.988  11.707   3.485  0.7167 -0.5277 -0.5325
  575MOL0     H79284   1.043  11.869   3.472  1.3548  1.4482  2.6135
  575MOL0     H79285   0.936  11.903   3.711  1.5525  0.6137 -0.2015
  575MOL0     H79286   0.816  11.885   3.578  1.0336 -0.0319 -1.3197
  575MOL0     H79287   0.864  11.613   3.665  0.1983 -0.3608  1.4501
  575MOL0     H79288   0.888  11.706   3.808  2.0520  0.3525 -1.3483
  575MOL0     H79289   0.654  11.814   3.736  1.6176  0.4323 -0.4856
  575MOL0     H79290   0.637  11.696   3.610 -1.5674  0.8649 -0.2046
  575MOL0     H79291   0.510  11.646   3.808 -0.0988 -0.5384  1.9608
  575MOL0     H79292   0.666  11.642   3.908 -0.9655 -0.1137  1.6572
  575MOL0     H79293   0.572  11.469   3.671 -0.5573 -1.0221 -0.0840
  575MOL0     H79294   0.730  11.447   3.746 -0.0551  1.0529  1.1017
  575MOL0     H79295   0.548  11.280   3.819 -1.1196 -0.4511  1.4867
  575MOL0     H79296   0.454  11.405   3.883 -0.3758 -0.9370  3.0289
  575MOL0     H79297   0.619  11.459   4.066  0.0014  0.5211  2.1216
  575MOL0     H79298   0.554  11.292   4.067  3.7441 -0.2073  4.0081
  575MOL0     H79299   0.745  11.116   3.886  0.6191 -1.3147 -2.0147
  575MOL0     H79300   0.976  11.063   3.810  0.6374  0.3190 -0.8607
  575MOL0     H79301   1.089  11.082   3.940  2.3728  0.9399 -2.1783
  575MOL0     H79302   1.193  11.278   3.817  0.8842 -1.3156  0.3151
  575MOL0     H79303   1.193  11.146   3.708  1.5718  0.6930 -0.4382
  575MOL0     H79304   0.996  11.376   3.711  2.2900  0.1908  1.4116
  575MOL0     H79305   1.129  11.350   3.611 -0.5579  3.7259  2.8841
  575MOL0     H79306   0.915  11.139   3.590 -0.6323  0.7969  1.1399
  575MOL0     H79307   0.898  11.289   3.506 -1.0927 -0.5986 -2.1080
  575MOL0     H79308   1.218  11.092   3.260  2.3000  0.5083  1.4762
  575MOL0     H79309   1.441  11.303   3.077  0.4277 -0.4173  0.1245
  575MOL0     H79310   1.328  11.172   3.000  0.9197  0.6479 -0.6479
  575MOL0     H79311   1.402  11.135   3.145 -0.6213 -3.9979 -3.9787
  575MOL0     H79312   1.547  11.596   2.876 -0.4383  0.4696  1.1419
  575MOL0     H79313   1.574  11.743   2.674  0.6243 -1.2826  0.6520
  575MOL0     H79314   1.217  11.802   2.433 -0.2323 -0.8717  2.3839
  575MOL0     H79315   1.313  11.922   2.531  0.8205 -1.5566  1.3536
  575MOL0     H79316   1.431  11.979   2.337 -0.8902  2.1473  1.2192
  575MOL0     H79317   1.365  11.842   2.231 -1.5803  1.4193 -1.6602
  575MOL0     H79318   1.246  12.097   2.342  2.5871 -0.1253  0.4995
  575MOL0     H79319   1.140  11.971   2.275  0.6688 -2.4948  2.3782
  575MOL0     H79320   1.266  12.014   2.045 -0.6295 -0.4563  1.8323
  575MOL0     H79321   1.378  12.117   2.129  0.2837 -0.9272  0.7935
  575MOL0     H79322   1.065  12.185   2.153 -1.0252 -0.3283 -1.5233
  575MOL0     H79323   1.209  12.285   2.164  4.4926 -0.7968 -0.9481
  575MOL0     H79324   1.077  12.139   1.915 -1.4256  0.4740  2.2079
  575MOL0     H79325   1.221  12.245   1.907  0.7251 -1.1728  0.9609
  575MOL0     H79326   0.933  12.312   1.982  0.5721 -2.0398 -2.0083
  575MOL0     H79327   1.001  12.345   1.828 -2.8053  1.8851  1.5418
  575MOL0     H79328   1.159  12.503   1.964  1.0036 -3.3685  0.3129
  575MOL0     H79329   1.060  12.491   2.091 -2.0921 -1.3605 -0.2884
  575MOL0     H79330   1.208  11.604   2.516 -2.0099  1.2434  0.0364
  575MOL0     H79331   1.159  11.497   2.727 -0.4220  0.9301 -1.3547
  575MOL0     H79332   1.120  11.587   3.239 -3.1657 -0.3452  0.4478
  575MOL0     H79333   1.028  11.459   3.411 -1.0919 -3.7387  1.7758
  575MOL0     H79334   1.273  11.871   3.424  2.7041 -0.0517  1.2070
  575MOL0     H79335   1.473  11.759   3.320  3.3026 -1.2130  2.7438
  575MOL0     H79336   1.748  11.581   3.261 -1.0496 -0.9773 -0.1997
  575MOL0     H79337   1.924  11.564   3.111 -0.3039  0.3996  1.2386
  575MOL0     H79338   2.152  11.484   3.086 -1.8868  0.6768 -0.8936
  575MOL0     H79339   2.193  11.330   3.177 -0.5499 -1.1458 -1.0557
  575MOL0     H79340   2.304  11.234   3.000  1.8756  0.4591 -1.5577
  575MOL0     H79341   2.357  11.411   2.989  1.0406 -0.4248  0.2999
  575MOL0     H79342   2.141  11.405   2.823  0.4936  1.9824  0.1102
  575MOL0     H79343   2.308  11.401   2.769 -0.0645  0.7039  0.2069
  575MOL0     H79344   2.135  11.229   2.678 -0.0038 -0.6579  0.2536
  575MOL0     H79345   2.155  11.142   2.831  0.4856 -0.6721  0.4086
  575MOL0     H79346   2.504  11.006   2.686  0.2960  2.3935  2.1377
  575MOL0     H79347   1.930  11.142   3.147 -0.3461 -0.0592  0.3363
  575MOL0     H79348   1.791  11.014   3.272 -0.2478 -0.0261 -1.3614
  575MOL0     H79349   1.717  11.118   3.408 -0.2762  0.3691 -0.4545
  575MOL0     H79350   1.632  11.066   3.257 -1.4483 -2.2306  1.1310
  576MOL0     O79351  10.023   6.454   9.699  0.7555  0.3179 -0.0546
  576MOL0     C79352  10.140   6.481   9.660  0.5554 -0.1661 -0.1649
  576MOL0     O79353  10.170   6.527   9.538 -0.7679 -0.0659 -0.0400
  576MOL0     C79354  10.252   6.631   9.536 -0.1890  0.3567  0.5901
  576MOL0     C79355  10.397   6.624   9.525  0.3079  0.0216 -0.1250
  576MOL0     C79356  10.479   6.735   9.548  0.2391 -0.1694  0.0690
  576MOL0     C79357  10.414   6.860   9.563  0.2549 -1.5744 -0.4320
  576MOL0     O79358  10.483   6.985   9.579 -0.5360  0.1726  0.6096
  576MOL0     C79359  10.543   6.995   9.709 -0.4209 -0.5816 -0.2520
  576MOL0     C79360  10.603   7.124   9.737  1.1148 -0.3300 -0.5414
  576MOL0     C79361  10.718   7.149   9.635  0.3970 -0.0962 -0.4347
  576MOL0     C79362  10.831   7.242   9.698  0.1909  0.4884 -0.1446
  576MOL0     C79363  10.917   7.163   9.801 -0.4310 -0.5661  0.2080
  576MOL0     C79364  10.999   7.265   9.882 -0.1882 -0.1899 -0.1646
  576MOL0     C79365  11.049   7.187   9.996 -0.7806 -0.7325 -0.3651
  576MOL0     C79366  11.159   7.261  10.068 -0.7339  0.2448 -0.5942
  576MOL0     N79367  11.183   7.213  10.204 -0.0950 -0.2607 -0.1999
  576MOL0     C79368  11.223   7.086  10.234 -0.2965  0.0971  0.2343
  576MOL0     C79369  11.189   7.073  10.368  1.1147 -0.6021 -0.6440
  576MOL0     C79370  11.236   6.971  10.466 -0.4628  0.6647 -0.0127
  576MOL0     C79371  11.123   6.909  10.542  0.6264  0.3025  1.0355
  576MOL0     C79372  11.071   6.975  10.668 -0.6488  0.1088  0.0802
  576MOL0     C79373  10.974   6.881  10.738  0.6261  0.0521 -0.3296
  576MOL0     O79374  11.033   6.757  10.765  0.6395  0.1776  0.4956
  576MOL0     C79375  10.957   6.651  10.817 -0.1057 -0.6810 -0.4163
  576MOL0     C79376  11.020   6.524  10.816 -0.2955  0.2850  0.4514
  576MOL0     C79377  10.970   6.416  10.878 -0.2198 -0.2382  1.1976
  576MOL0     C79378  11.045   6.286  10.874  0.2468  0.0285  0.3494
  576MOL0     C79379  10.840   6.422  10.947 -0.1732  0.5105  0.5061
  576MOL0     C79380  10.778   6.310  11.025 -0.9503  0.6483 -0.0689
  576MOL0     O79381  10.803   6.173  10.994 -0.1630  0.5664  0.8487
  576MOL0     C79382  10.792   6.085  11.096  0.5093 -0.5436  0.3936
  576MOL0     C79383  10.902   6.047  11.167 -0.2534 -0.3680 -0.6427
  576MOL0     C79384  10.890   5.954  11.281  0.4781 -0.1822  0.3966
  576MOL0     C79385  10.764   5.893  11.300 -0.8670  0.0200  0.4959
  576MOL0     O79386  10.742   5.793  11.396  0.6424  0.1324  0.0089
  576MOL0     C79387  10.830   5.678  11.400  0.5103  0.0740  0.2093
  576MOL0     C79388  10.765   5.549  11.466  0.4810 -0.4325  0.1298
  576MOL0     C79389  10.739   5.561  11.622 -0.5603 -0.2217  0.3928
  576MOL0     C79390  10.817   5.677  11.694  0.7427  0.0321  0.1124
  576MOL0     C79391  10.785   5.686  11.848 -0.0243 -0.2905  0.1524
  576MOL0     C79392  10.902   5.688  11.947  0.2199 -0.3783  0.4485
  576MOL0     C79393  10.994   5.809  11.917 -0.1879 -0.2645  0.4576
  576MOL0     C79394  11.135   5.782  11.988 -0.5171 -1.2035 -0.6349
  576MOL0    Cl79395  11.225   5.934  11.934  0.2190  0.0026 -0.3797
  576MOL0     C79396  10.661   5.927  11.212  0.0681  0.2947 -0.1041
  576MOL0     C79397  10.667   6.022  11.113  0.9340 -0.1760  0.5037
  576MOL0     O79398  10.701   6.343  11.114  0.1130  0.6509 -0.2141
  576MOL0     C79399  10.765   6.542  10.929  0.3099 -0.6242  0.0153
  576MOL0     C79400  10.821   6.656  10.866 -0.5000 -0.9675 -0.2946
  576MOL0     N79401  11.133   7.191  10.413  0.4460  0.1749 -1.1060
  576MOL0     N79402  11.135   7.276  10.314  0.3708  0.3989 -0.2762
  576MOL0     C79403  10.267   6.862   9.576  1.1741 -0.8175 -0.0729
  576MOL0     C79404  10.192   6.750   9.566 -0.4659 -0.9044  0.6591
  576MOL0     C79405  10.245   6.475   9.760  0.7527 -0.3981 -0.0696
  576MOL0     C79406  10.359   6.392   9.729  0.1138  1.0923  0.2470
  576MOL0     C79407  10.468   6.382   9.820 -0.2228  0.5951 -0.4753
  576MOL0     C79408  10.456   6.454   9.939 -0.0705  0.2669  0.4200
  576MOL0     O79409  10.578   6.454  10.005  0.5108 -0.2178  0.3968
  576MOL0     C79410  10.603   6.524  10.131 -0.4738  0.7082  0.9523
  576MOL0     C79411  10.627   6.673  10.097 -0.8881  0.1571  0.2824
  576MOL0     C79412  10.737   6.679   9.989  0.9742  0.3080  0.4037
  576MOL0     C79413  10.808   6.825   9.975  0.8477 -0.0645 -0.5053
  576MOL0     C79414  10.938   6.839  10.038  0.0822  0.5026  0.2665
  576MOL0     C79415  11.043   6.829  10.094 -0.9385  0.7698  0.5235
  576MOL0     C79416  10.343   6.528   9.979 -0.1968 -0.0386  0.3466
  576MOL0     C79417  10.238   6.539   9.888  0.8818 -0.0851 -0.1206
  576MOL0     C79418  10.120   6.622   9.937  0.9722 -0.7911  0.4701
  576MOL0     H79419  10.441   6.528   9.500 -2.0398 -0.8981 -1.0683
  576MOL0     H79420  10.587   6.724   9.547  0.1779 -0.9404 -1.5551
  576MOL0     H79421  10.619   6.917   9.723  0.8133  0.4972 -0.7489
  576MOL0     H79422  10.464   6.974   9.782  1.2124 -1.7999  1.2733
  576MOL0     H79423  10.526   7.203   9.740  1.9269  0.4706  1.6786
  576MOL0     H79424  10.644   7.128   9.838 -0.8875  0.3195  0.3115
  576MOL0     H79425  10.750   7.056   9.587  0.3041 -1.0449  1.2479
  576MOL0     H79426  10.690   7.198   9.542  3.5798  2.4352 -0.2276
  576MOL0     H79427  10.905   7.267   9.622  0.7103  1.0665  0.5345
  576MOL0     H79428  10.793   7.337   9.737 -0.0625 -0.4446  2.0416
  576MOL0     H79429  10.994   7.098   9.759  0.2288  1.9358 -2.8328
  576MOL0     H79430  10.854   7.106   9.870  0.3369  2.2637  3.5452
  576MOL0     H79431  11.073   7.299   9.809 -1.5248  0.5329 -1.2354
  576MOL0     H79432  10.941   7.353   9.913  0.1356 -0.0694  0.0957
  576MOL0     H79433  11.084   7.092   9.955  0.7534  0.2687 -1.4810
  576MOL0     H79434  10.961   7.171  10.059 -0.8191  0.9779  0.0697
  576MOL0     H79435  11.252   7.259  10.010 -0.7109 -0.8290 -0.5380
  576MOL0     H79436  11.128   7.364  10.087 -0.4037 -0.1267  2.4273
  576MOL0     H79437  11.281   7.022  10.168 -1.2004  0.3110 -0.7909
  576MOL0     H79438  11.310   7.001  10.541 -1.1888 -0.3160  1.1332
  576MOL0     H79439  11.294   6.896  10.413 -1.5955 -1.2630  1.3184
  576MOL0     H79440  11.036   6.889  10.479  0.9133  0.8027  0.4622
  576MOL0     H79441  11.147   6.804  10.560 -1.5529 -0.1639  1.5012
  576MOL0     H79442  11.149   7.005  10.740 -0.1234  1.0129 -0.8307
  576MOL0     H79443  11.015   7.065  10.641 -0.7715  0.1989  0.6254
  576MOL0     H79444  10.939   6.931  10.828  2.0481  3.6394 -1.5721
  576MOL0     H79445  10.893   6.859  10.668  1.4401 -2.3068 -0.6061
  576MOL0     H79446  11.118   6.517  10.769 -0.4738  1.3330 -0.1125
  576MOL0     H79447  11.135   6.301  10.814  0.2313  4.6862  1.1868
  576MOL0     H79448  10.991   6.204  10.824 -0.1286  0.6490 -0.2858
  576MOL0     H79449  11.075   6.262  10.976 -0.0973  1.9832  0.9404
  576MOL0     H79450  10.990   6.101  11.135 -1.0119 -0.3540 -2.8806
  576MOL0     H79451  10.971   5.910  11.338  1.0699  0.1513 -0.1758
  576MOL0     H79452  10.867   5.672  11.298  0.9626  5.0343 -0.1476
  576MOL0     H79453  10.917   5.705  11.461  0.2631 -0.3787  0.7671
  576MOL0     H79454  10.672   5.529  11.411  0.7493 -1.2665 -0.0329
  576MOL0     H79455  10.837   5.469  11.448  2.4579  0.4103  3.4380
  576MOL0     H79456  10.750   5.462  11.667  1.6122 -1.2182 -2.1028
  576MOL0     H79457  10.633   5.589  11.630 -1.5747 -3.0891 -1.3287
  576MOL0     H79458  10.783   5.771  11.650  2.1002  0.7579  0.5569
  576MOL0     H79459  10.922   5.679  11.664  0.4551  0.8235 -0.8590
  576MOL0     H79460  10.730   5.779  11.865 -1.4503 -1.3730  1.7908
  576MOL0     H79461  10.713   5.609  11.878 -1.5095  2.2617  3.7609
  576MOL0     H79462  10.955   5.592  11.949 -2.3217 -1.9290 -0.9832
  576MOL0     H79463  10.854   5.702  12.045  0.8426 -0.3675  0.7590
  576MOL0     H79464  10.946   5.900  11.953  0.9903  1.1430 -1.3974
  576MOL0     H79465  11.007   5.824  11.809 -1.8869  0.4473  0.3216
  576MOL0     H79466  11.183   5.686  11.967  0.7027 -0.4974 -1.1477
  576MOL0     H79467  11.109   5.797  12.093 -0.4130 -0.5880 -0.6970
  576MOL0     H79468  10.574   5.862  11.212 -1.5261  2.1859  2.7001
  576MOL0     H79469  10.579   6.052  11.058  0.1077  0.5224  2.1447
  576MOL0     H79470  10.668   6.555  10.977  1.3932 -1.7704  2.7052
  576MOL0     H79471  10.757   6.744  10.856 -1.0367 -1.1540  1.1541
  576MOL0     H79472  10.218   6.956   9.602 -0.6095 -2.5092  3.4126
  576MOL0     H79473  10.084   6.761   9.565 -0.5073 -1.2420 -0.4791
  576MOL0     H79474  10.377   6.333   9.639 -1.2223  3.8037 -1.9727
  576MOL0     H79475  10.554   6.326   9.784 -1.8078 -1.2604 -1.6319
  576MOL0     H79476  10.516   6.526  10.198 -3.1615 -0.2684 -2.2317
  576MOL0     H79477  10.689   6.486  10.187 -0.5077 -0.5422  0.1810
  576MOL0     H79478  10.656   6.725  10.189 -1.4296  1.7734 -0.4354
  576MOL0     H79479  10.532   6.718  10.069  0.4494  2.5453 -0.6295
  576MOL0     H79480  10.819   6.608  10.007 -0.2982 -0.9894  1.3239
  576MOL0     H79481  10.702   6.655   9.888 -0.2283  3.0313  0.0825
  576MOL0     H79482  10.742   6.903  10.015  0.7453 -0.3680 -0.0660
  576MOL0     H79483  10.833   6.846   9.871 -0.4158  0.2764 -0.7543
  576MOL0     H79484  11.143   6.839  10.131  0.6134 -2.3422 -2.2500
  576MOL0     H79485  10.349   6.586  10.071  1.6338 -1.9651  1.5498
  576MOL0     H79486  10.095   6.605  10.042  1.5055  1.3370  0.9961
  576MOL0     H79487  10.139   6.729   9.950  1.1486 -0.8314  0.5444
  576MOL0     H79488  10.026   6.620   9.881  0.1441 -1.1341  1.8165
  577MOL0     O79489   9.360   1.696   8.218 -0.2003 -0.0568  0.0283
  577MOL0     C79490   9.252   1.762   8.210  0.2708  0.4317 -0.3417
  577MOL0     O79491   9.199   1.835   8.312  0.1088  0.3179 -0.3275
  577MOL0     C79492   9.267   1.824   8.435 -0.9059 -0.4247  0.2997
  577MOL0     C79493   9.347   1.931   8.467  0.5177  0.6260  0.8856
  577MOL0     C79494   9.412   1.944   8.591 -0.7929  0.8098 -0.9740
  577MOL0     C79495   9.384   1.849   8.685  0.4689 -0.6614 -0.2868
  577MOL0     O79496   9.422   1.874   8.814  0.3025 -0.6910  0.8290
  577MOL0     C79497   9.425   1.755   8.894 -0.4343 -0.5718  0.2205
  577MOL0     C79498   9.484   1.805   9.020 -0.2186 -1.3309 -0.8879
  577MOL0     C79499   9.392   1.851   9.128 -0.2562 -0.6682 -0.5653
  577MOL0     C79500   9.464   1.917   9.245 -0.0158 -0.1258 -1.0863
  577MOL0     C79501   9.393   1.934   9.386 -0.7771  0.6181 -0.1829
  577MOL0     C79502   9.456   2.032   9.485 -0.2765  0.7373  0.0136
  577MOL0     C79503   9.366   2.057   9.607 -0.1761  0.0561  0.4186
  577MOL0     C79504   9.285   1.931   9.662 -0.7250 -0.2866  0.0838
  577MOL0     N79505   9.227   1.951   9.797  0.2132  0.2243  0.8672
  577MOL0     C79506   9.285   2.037   9.897  0.8121 -0.6171  0.0203
  577MOL0     C79507   9.202   2.029   9.998  0.0687  0.3425 -1.1811
  577MOL0     C79508   9.223   2.108  10.124  1.0307  0.5751  0.1028
  577MOL0     C79509   9.101   2.092  10.216 -0.1369  0.4354  0.4615
  577MOL0     C79510   9.109   2.163  10.355  0.0723 -0.2783  0.1451
  577MOL0     C79511   9.104   2.316  10.326 -0.2510  0.0144  0.4873
  577MOL0     O79512   9.047   2.383  10.432 -0.5712 -0.7082  0.8746
  577MOL0     C79513   9.129   2.426  10.535  0.1198  0.2261 -0.8085
  577MOL0     C79514   9.061   2.457  10.653 -0.1773  0.2039  1.5194
  577MOL0     C79515   9.127   2.471  10.772 -0.1305 -0.1971 -0.3167
  577MOL0     C79516   9.034   2.533  10.877  0.6012 -0.6719  1.4702
  577MOL0     C79517   9.267   2.473  10.783  0.0207 -0.2396  0.2736
  577MOL0     C79518   9.352   2.495  10.899  0.2073 -0.5178  0.2655
  577MOL0     O79519   9.480   2.517  10.878 -0.3716  0.7523 -0.4169
  577MOL0     C79520   9.553   2.550  10.988 -0.1375  0.4205  1.0965
  577MOL0     C79521   9.585   2.677  11.038  0.5388 -1.0897 -0.2560
  577MOL0     C79522   9.641   2.697  11.163 -0.7129  0.6160  0.0401
  577MOL0     C79523   9.681   2.588  11.237 -0.3604  0.0187 -0.8035
  577MOL0     O79524   9.725   2.622  11.365 -0.2777 -0.1196  0.4360
  577MOL0     C79525   9.816   2.526  11.429  1.1752  0.0542  0.3619
  577MOL0     C79526   9.937   2.597  11.512 -0.3780  0.4351 -0.2620
  577MOL0     C79527  10.028   2.677  11.420  0.6590  0.1440 -0.5075
  577MOL0     C79528  10.168   2.698  11.467  0.8453  0.0158 -0.1732
  577MOL0     C79529  10.256   2.767  11.357 -1.0497  0.0999  0.3607
  577MOL0     C79530  10.299   2.667  11.245 -0.5985 -0.2265 -0.6811
  577MOL0     C79531  10.394   2.729  11.143 -0.0297  0.9245 -0.0128
  577MOL0     C79532  10.464   2.617  11.056 -0.5305 -1.2668  0.2338
  577MOL0    Cl79533  10.511   2.684  10.904 -0.1937 -0.2353 -0.3802
  577MOL0     C79534   9.662   2.461  11.181  0.0119 -0.1019  0.2026
  577MOL0     C79535   9.605   2.441  11.060  0.5132 -1.0737 -0.4823
  577MOL0     O79536   9.304   2.498  11.010 -0.3765  0.4324  0.1167
  577MOL0     C79537   9.332   2.440  10.664 -0.1282 -0.0196  0.0610
  577MOL0     C79538   9.272   2.409  10.537  0.5882  0.5111  0.4462
  577MOL0     N79539   9.084   1.954   9.963 -0.0238  1.2435  0.6232
  577MOL0     N79540   9.103   1.910   9.846  0.1422  0.5248  0.2099
  577MOL0     C79541   9.293   1.740   8.654  0.3198 -0.3712 -0.2413
  577MOL0     C79542   9.236   1.729   8.527  0.5234 -0.8839 -0.5492
  577MOL0     C79543   9.186   1.775   8.074  0.1111  0.1329  0.2957
  577MOL0     C79544   9.074   1.868   8.067  0.0037 -0.5195 -0.1364
  577MOL0     C79545   9.009   1.887   7.955 -0.1600 -0.4691 -0.8099
  577MOL0     C79546   9.041   1.822   7.837  0.1075  0.6243 -0.0325
  577MOL0     O79547   8.975   1.833   7.715  0.3062 -0.2251 -0.5145
  577MOL0     C79548   8.861   1.926   7.704 -0.6232 -0.4292  0.8936
  577MOL0     C79549   8.830   1.983   7.557 -0.5604  0.7818 -0.1037
  577MOL0     C79550   8.851   1.878   7.449 -0.1561  0.1619  0.0856
  577MOL0     C79551   8.831   1.943   7.304  0.6114  0.0366  0.0444
  577MOL0     C79552   8.912   2.057   7.272 -1.3175 -1.2583 -0.5681
  577MOL0     C79553   8.995   2.145   7.247  0.2788  0.3265  0.5978
  577MOL0     C79554   9.149   1.730   7.836  0.3481  0.2863 -0.9981
  577MOL0     C79555   9.216   1.706   7.956 -0.8962  0.1651  0.4494
  577MOL0     C79556   9.342   1.611   7.946  0.2245  0.6807  0.1516
  577MOL0     H79557   9.356   2.017   8.400 -3.0170  1.9815  1.9240
  577MOL0     H79558   9.468   2.035   8.612  0.8738 -0.0173 -1.7152
  577MOL0     H79559   9.486   1.677   8.849 -0.0960  0.8135 -1.8992
  577MOL0     H79560   9.330   1.703   8.912 -1.5581  1.3334  0.0854
  577MOL0     H79561   9.550   1.733   9.069 -0.8032 -0.7087  0.9093
  577MOL0     H79562   9.549   1.889   8.993 -0.7892  0.5305  2.8343
  577MOL0     H79563   9.328   1.927   9.082 -0.8811 -0.6402  0.3040
  577MOL0     H79564   9.331   1.774   9.178  2.3849 -1.4619  1.7006
  577MOL0     H79565   9.563   1.871   9.258 -0.4982 -0.3717  2.8488
  577MOL0     H79566   9.483   2.021   9.214  2.9859 -0.2689 -0.1084
  577MOL0     H79567   9.407   1.837   9.435 -2.5715  1.0825  1.3828
  577MOL0     H79568   9.288   1.954   9.365 -0.6196 -1.4522 -3.5022
  577MOL0     H79569   9.550   1.993   9.524  0.7250  3.2763  0.3709
  577MOL0     H79570   9.482   2.129   9.442  1.8789 -0.1181 -0.7456
  577MOL0     H79571   9.299   2.139   9.579  0.4633  1.2478  2.1974
  577MOL0     H79572   9.428   2.092   9.691 -1.9908  0.1960  1.7707
  577MOL0     H79573   9.205   1.906   9.592 -0.2958  2.2933 -1.4449
  577MOL0     H79574   9.351   1.845   9.676 -0.8911 -0.3457  0.5035
  577MOL0     H79575   9.374   2.099   9.891  0.7102 -0.1375  2.3969
  577MOL0     H79576   9.224   2.213  10.093 -1.0549  0.4650 -0.5140
  577MOL0     H79577   9.320   2.094  10.172  0.5556 -1.8311  0.4841
  577MOL0     H79578   9.013   2.121  10.159  1.0245  1.3609 -0.9132
  577MOL0     H79579   9.092   1.985  10.236  1.1816  0.2655  0.2717
  577MOL0     H79580   9.029   2.134  10.425 -0.0949 -2.1856 -0.7683
  577MOL0     H79581   9.206   2.133  10.396  0.5862  0.8119 -0.2306
  577MOL0     H79582   9.206   2.346  10.301 -1.3074  2.9311 -0.8260
  577MOL0     H79583   9.055   2.338  10.231 -1.1063  1.6237  1.2466
  577MOL0     H79584   8.954   2.471  10.650  0.1081  2.7838 -0.0795
  577MOL0     H79585   9.038   2.482  10.974  5.3274 -0.5970  1.5223
  577MOL0     H79586   8.929   2.529  10.845  0.1947 -2.5095  2.8638
  577MOL0     H79587   9.063   2.637  10.862  0.7054 -1.1110 -2.6723
  577MOL0     H79588   9.548   2.762  10.980 -0.5850 -1.3120  0.1115
  577MOL0     H79589   9.663   2.799  11.193  0.0157  1.2845 -2.5034
  577MOL0     H79590   9.754   2.460  11.489  0.2712 -1.3340 -1.9533
  577MOL0     H79591   9.874   2.460  11.364  1.1884  0.9336 -0.5618
  577MOL0     H79592   9.904   2.668  11.588  1.0776  1.4517 -0.5525
  577MOL0     H79593  10.005   2.523  11.555  2.7080  2.3203 -1.6344
  577MOL0     H79594   9.987   2.773  11.388  0.6956 -0.4383 -2.4464
  577MOL0     H79595  10.028   2.619  11.327 -2.3153  0.6179 -0.9190
  577MOL0     H79596  10.215   2.602  11.490  1.4408  0.4539  0.4738
  577MOL0     H79597  10.176   2.757  11.559  1.6670  1.7670 -1.3237
  577MOL0     H79598  10.198   2.840  11.299 -3.9686 -1.6895  0.7948
  577MOL0     H79599  10.338   2.814  11.412 -2.5160  0.2220  2.5870
  577MOL0     H79600  10.210   2.622  11.201  1.0741 -2.0527 -2.3776
  577MOL0     H79601  10.354   2.585  11.292 -3.4093 -2.1105 -0.4198
  577MOL0     H79602  10.471   2.798  11.179  0.4399  3.7857 -5.5313
  577MOL0     H79603  10.322   2.788  11.086  0.0497  0.9762 -0.0607
  577MOL0     H79604  10.398   2.530  11.041  1.1309 -2.9661  2.0788
  577MOL0     H79605  10.555   2.586  11.108 -0.3401 -0.9007  0.1216
  577MOL0     H79606   9.688   2.367  11.230  4.7256  0.6573 -0.3813
  577MOL0     H79607   9.592   2.339  11.026 -3.7043  0.1952 -3.4753
  577MOL0     H79608   9.440   2.454  10.667  0.0661 -1.4969  0.7904
  577MOL0     H79609   9.329   2.369  10.454  0.6214  1.5670 -0.0576
  577MOL0     H79610   9.249   1.672   8.726 -0.8062  3.4735  3.0973
  577MOL0     H79611   9.162   1.651   8.506  2.6424 -3.4163  0.7966
  577MOL0     H79612   9.042   1.932   8.148  1.0049 -3.3867  2.7373
  577MOL0     H79613   8.921   1.950   7.957 -1.9411 -2.7442  2.6072
  577MOL0     H79614   8.771   1.875   7.737 -0.0756 -2.5302 -0.7052
  577MOL0     H79615   8.877   2.016   7.765 -3.5600  1.0526 -0.3508
  577MOL0     H79616   8.894   2.070   7.542 -1.7689  1.2180 -3.6418
  577MOL0     H79617   8.727   2.018   7.567 -1.1127 -0.9325  0.4425
  577MOL0     H79618   8.949   1.830   7.454  0.8464  2.0923 -0.2469
  577MOL0     H79619   8.773   1.803   7.464  1.1204 -1.0681  0.8617
  577MOL0     H79620   8.726   1.957   7.277  0.5199 -2.1932 -1.0333
  577MOL0     H79621   8.861   1.864   7.234  0.9245 -1.1421  1.4680
  577MOL0     H79622   9.077   2.213   7.233  0.7805 -0.3211  0.3817
  577MOL0     H79623   9.165   1.689   7.737  0.7736 -0.5170 -0.6044
  577MOL0     H79624   9.315   1.528   8.011 -1.9845  1.8951  0.9018
  577MOL0     H79625   9.357   1.582   7.842 -1.0821  0.4416  0.0161
  577MOL0     H79626   9.439   1.661   7.957  1.2232 -0.6641 -1.9555
  578MOL0     O79627   7.925   1.880   6.772  0.1263 -0.0768 -0.4575
  578MOL0     C79628   7.908   1.770   6.728  0.8545 -0.2052 -0.1691
  578MOL0     O79629   7.997   1.697   6.673 -0.6284  0.7037  0.3304
  578MOL0     C79630   8.104   1.766   6.616 -0.2406  0.2149 -0.3533
  578MOL0     C79631   8.230   1.718   6.636 -0.6369  0.9003  0.4732
  578MOL0     C79632   8.345   1.783   6.579  0.1852  1.2388  0.1524
  578MOL0     C79633   8.322   1.893   6.494 -0.3561 -0.0426  0.1261
  578MOL0     O79634   8.438   1.957   6.453 -0.1223 -0.8661 -0.1512
  578MOL0     C79635   8.433   1.995   6.314 -0.0756 -0.9354  0.4379
  578MOL0     C79636   8.424   1.872   6.215 -0.1188 -0.1606 -0.2099
  578MOL0     C79637   8.455   1.900   6.072 -1.7337  0.2519  0.4783
  578MOL0     C79638   8.346   1.982   6.003 -0.1539 -0.0911 -0.0964
  578MOL0     C79639   8.401   2.043   5.878 -0.8314 -0.1505 -0.9143
  578MOL0     C79640   8.286   2.073   5.781 -0.2314 -0.0226  0.1805
  578MOL0     C79641   8.342   2.101   5.645  0.2203 -0.2405  0.3340
  578MOL0     C79642   8.242   2.176   5.544 -0.6078 -1.2548  0.5768
  578MOL0     N79643   8.127   2.097   5.500  0.1014  0.0372  0.7354
  578MOL0     C79644   8.016   2.151   5.430 -0.1754  0.1833  0.7499
  578MOL0     C79645   7.923   2.048   5.424 -0.0376 -0.7827  0.3021
  578MOL0     C79646   7.783   2.064   5.365 -0.6749 -1.6004  0.2896
  578MOL0     C79647   7.784   2.123   5.232  0.2843 -0.7105  1.0341
  578MOL0     C79648   7.647   2.171   5.186 -0.5892  0.3684  1.4739
  578MOL0     C79649   7.555   2.048   5.172  0.6486  0.7058  0.6533
  578MOL0     O79650   7.473   2.057   5.044 -0.3142  0.0305  0.3592
  578MOL0     C79651   7.376   1.958   5.028 -1.9046  0.0447  0.9066
  578MOL0     C79652   7.247   1.981   5.055 -0.7630 -0.0446 -1.3959
  578MOL0     C79653   7.141   1.883   5.039  0.1567 -0.2424  0.6690
  578MOL0     C79654   7.001   1.934   5.059 -0.3718  0.5260  0.5686
  578MOL0     C79655   7.177   1.753   5.011  0.9175 -0.1067 -0.2902
  578MOL0     C79656   7.078   1.642   4.997  0.6220  0.4708  0.3444
  578MOL0     O79657   6.949   1.661   5.022  0.7579 -0.1194 -0.0161
  578MOL0     C79658   6.850   1.569   4.982  1.0379  0.5055 -0.4722
  578MOL0     C79659   6.832   1.522   4.851 -1.1269  0.2579  0.3286
  578MOL0     C79660   6.720   1.454   4.801 -0.6605 -0.7649  0.0937
  578MOL0     C79661   6.627   1.416   4.905  1.0369 -0.3292  0.9923
  578MOL0     O79662   6.505   1.359   4.878 -0.5434  0.1714  0.6831
  578MOL0     C79663   6.479   1.345   4.736 -0.7223  0.0290 -0.0400
  578MOL0     C79664   6.327   1.310   4.729  0.1756  0.7832 -0.3591
  578MOL0     C79665   6.299   1.172   4.776  0.1310 -0.6511 -0.1088
  578MOL0     C79666   6.150   1.137   4.775  0.0904 -0.0558 -0.1495
  578MOL0     C79667   6.085   1.172   4.907 -0.3444 -0.6724  0.5946
  578MOL0     C79668   5.933   1.177   4.892  0.0827 -0.5428 -0.5093
  578MOL0     C79669   5.867   1.156   5.032  0.3786  0.5639  0.5755
  578MOL0     C79670   5.716   1.162   5.025  0.2649 -0.1169  0.5338
  578MOL0    Cl79671   5.649   1.322   5.076 -0.3659 -0.5318 -0.3913
  578MOL0     C79672   6.650   1.440   5.036 -1.1192  0.0618 -0.2419
  578MOL0     C79673   6.753   1.524   5.075 -0.1068 -0.0509  0.2755
  578MOL0     O79674   7.130   1.531   4.971  0.6238 -0.2078 -0.8046
  578MOL0     C79675   7.314   1.722   4.988  0.0344 -0.2614 -0.4800
  578MOL0     C79676   7.418   1.819   4.997 -0.1496 -0.8976  0.0550
  578MOL0     N79677   7.973   1.943   5.490  0.7262 -0.4759 -0.2091
  578MOL0     N79678   8.084   1.969   5.538 -0.7407 -0.2162 -1.0850
  578MOL0     C79679   8.191   1.928   6.466  0.1932 -0.3586 -0.0917
  578MOL0     C79680   8.082   1.866   6.523  0.1546 -0.2957  0.3166
  578MOL0     C79681   7.768   1.715   6.735  0.2164  0.0425  0.0927
  578MOL0     C79682   7.653   1.801   6.760  0.5773 -0.5910  0.4822
  578MOL0     C79683   7.523   1.750   6.766  0.0448 -0.0651  0.0446
  578MOL0     C79684   7.488   1.614   6.764  0.0090  0.0812  0.0156
  578MOL0     O79685   7.355   1.570   6.769 -0.5160 -0.0324 -0.2051
  578MOL0     C79686   7.255   1.618   6.680  0.0189 -0.3548  0.4595
  578MOL0     C79687   7.138   1.521   6.681  0.1595 -0.2730  0.5062
  578MOL0     C79688   7.177   1.391   6.604  0.1116  0.1381 -0.0774
  578MOL0     C79689   7.043   1.344   6.528 -0.7012 -0.1870  0.3660
  578MOL0     C79690   7.062   1.227   6.443  0.3487  0.9269 -0.2132
  578MOL0     C79691   7.074   1.122   6.386 -0.4370  0.1362 -0.3573
  578MOL0     C79692   7.596   1.531   6.730 -0.3029 -0.3958  0.2780
  578MOL0     C79693   7.736   1.577   6.725  0.0858  0.5472  0.3909
  578MOL0     C79694   7.842   1.476   6.714 -1.0107 -0.1826 -1.0297
  578MOL0     H79695   8.251   1.641   6.710  1.5761 -0.8805 -1.8158
  578MOL0     H79696   8.447   1.757   6.604  0.9318  3.0350 -0.8629
  578MOL0     H79697   8.516   2.064   6.296 -4.4985  4.6258 -1.6578
  578MOL0     H79698   8.343   2.051   6.289 -1.4773 -3.4412 -0.4140
  578MOL0     H79699   8.504   1.807   6.250 -1.0226 -0.6445  1.0268
  578MOL0     H79700   8.334   1.811   6.230 -4.0018  5.5673  4.4386
  578MOL0     H79701   8.549   1.956   6.067 -1.0689 -0.8438  0.4728
  578MOL0     H79702   8.471   1.803   6.025  0.8294 -0.6182  2.9259
  578MOL0     H79703   8.261   1.918   5.977 -1.1000  1.4296 -0.9088
  578MOL0     H79704   8.301   2.056   6.070 -2.9646 -0.8086 -1.0538
  578MOL0     H79705   8.469   1.971   5.831 -2.1395 -0.7526 -1.9521
  578MOL0     H79706   8.453   2.132   5.914 -1.0819 -0.0566 -0.7820
  578MOL0     H79707   8.209   1.997   5.769 -1.5783  1.6415 -2.9791
  578MOL0     H79708   8.237   2.163   5.819  0.8103 -0.0948  1.7951
  578MOL0     H79709   8.375   2.002   5.612  1.0524  0.6055 -1.5225
  578MOL0     H79710   8.426   2.168   5.665 -1.3167  1.1612  2.5203
  578MOL0     H79711   8.205   2.272   5.582  2.3078  1.1356 -1.9974
  578MOL0     H79712   8.305   2.206   5.460  0.0571  0.8899  1.7657
  578MOL0     H79713   8.012   2.252   5.392 -0.6047 -0.2531 -0.4158
  578MOL0     H79714   7.739   2.144   5.426  5.0849  2.7937 -0.3670
  578MOL0     H79715   7.722   1.974   5.355 -2.8020  0.0455 -4.4049
  578MOL0     H79716   7.856   2.205   5.227 -2.3606  1.9836  3.1217
  578MOL0     H79717   7.828   2.054   5.160  0.8825  2.7583 -2.2838
  578MOL0     H79718   7.608   2.237   5.265 -2.4683 -1.6956  2.3585
  578MOL0     H79719   7.657   2.214   5.086  0.5429 -3.0144  0.0037
  578MOL0     H79720   7.609   1.953   5.180 -2.1104 -0.8096  4.5959
  578MOL0     H79721   7.481   2.038   5.252  0.3774  0.8406  0.4215
  578MOL0     H79722   7.214   2.082   5.077 -2.2719 -0.2265 -2.5957
  578MOL0     H79723   6.957   1.879   5.143 -2.4431  0.8780 -0.2229
  578MOL0     H79724   6.940   1.942   4.969 -1.7679  2.9836  1.6316
  578MOL0     H79725   7.001   2.041   5.082 -0.5352 -0.0621  3.6897
  578MOL0     H79726   6.905   1.554   4.777  1.1537 -0.6577  2.0405
  578MOL0     H79727   6.719   1.436   4.694  3.7045 -1.1035 -0.0700
  578MOL0     H79728   6.502   1.431   4.674 -1.7972 -0.1421 -0.7075
  578MOL0     H79729   6.545   1.263   4.707 -1.2527 -0.0551 -1.0500
  578MOL0     H79730   6.269   1.380   4.790 -0.6209 -0.4909  0.3981
  578MOL0     H79731   6.301   1.309   4.623  1.9976  3.4104 -0.9235
  578MOL0     H79732   6.339   1.155   4.876  0.2559 -0.8300 -0.1885
  578MOL0     H79733   6.351   1.097   4.714  2.3905 -1.5520  2.6774
  578MOL0     H79734   6.141   1.032   4.747 -1.2859  0.7362 -3.0866
  578MOL0     H79735   6.107   1.184   4.686 -2.5604 -3.5474 -0.9321
  578MOL0     H79736   6.115   1.101   4.985  3.2888  1.6282  1.5555
  578MOL0     H79737   6.126   1.270   4.935 -0.9610 -0.2309 -0.0270
  578MOL0     H79738   5.902   1.080   4.852  0.4439 -2.6985  3.7993
  578MOL0     H79739   5.906   1.269   4.840  2.1098  0.1022 -0.4988
  578MOL0     H79740   5.910   1.226   5.105  1.7679 -0.2645  0.5919
  578MOL0     H79741   5.893   1.052   5.057  2.5890  0.9456  0.1152
  578MOL0     H79742   5.680   1.083   5.091  0.9734 -1.0249 -0.1481
  578MOL0     H79743   5.666   1.133   4.932  1.3706 -0.7358  0.1268
  578MOL0     H79744   6.578   1.424   5.116  0.3539 -0.9490  0.9438
  578MOL0     H79745   6.758   1.549   5.180 -0.5518 -0.9294  0.5200
  578MOL0     H79746   7.347   1.625   4.954 -0.0408  0.1832 -1.8918
  578MOL0     H79747   7.523   1.806   4.973 -0.7076 -3.0349 -1.5629
  578MOL0     H79748   8.158   2.001   6.392  1.2665 -1.4077 -1.6556
  578MOL0     H79749   7.981   1.904   6.519 -0.2255 -1.1938  0.9710
  578MOL0     H79750   7.658   1.909   6.764  1.3184 -0.6415  1.2116
  578MOL0     H79751   7.430   1.805   6.782 -0.9954 -1.7795  0.1644
  578MOL0     H79752   7.222   1.720   6.700  0.6911  0.2927 -1.5150
  578MOL0     H79753   7.295   1.638   6.580  2.4236  0.3804  1.4789
  578MOL0     H79754   7.047   1.573   6.649  1.0725 -0.0141 -1.9281
  578MOL0     H79755   7.124   1.487   6.784 -2.3446 -3.3487 -0.6418
  578MOL0     H79756   7.249   1.421   6.527 -0.2056  1.7735  0.2136
  578MOL0     H79757   7.229   1.311   6.657  4.0282  1.1036 -2.0414
  578MOL0     H79758   6.983   1.416   6.473 -1.8777  0.0287  1.8830
  578MOL0     H79759   6.979   1.311   6.611  0.9886 -2.3172  0.9358
  578MOL0     H79760   7.093   1.030   6.335 -1.8842  1.2580 -3.1577
  578MOL0     H79761   7.568   1.429   6.702 -3.7011  0.7530 -1.0862
  578MOL0     H79762   7.919   1.496   6.790 -3.3008  2.7600  0.7557
  578MOL0     H79763   7.806   1.379   6.748  2.0367 -0.9909  0.3057
  578MOL0     H79764   7.879   1.464   6.612 -0.4121  3.7417 -1.4328
  579MOL0     O79765  11.582   1.549   6.635 -0.3946  0.7084 -0.1537
  579MOL0     C79766  11.564   1.454   6.711 -0.4766 -0.3984 -0.8047
  579MOL0     O79767  11.439   1.395   6.728 -0.2063 -0.4129 -0.0462
  579MOL0     C79768  11.317   1.452   6.690 -0.7500  0.3679  0.4991
  579MOL0     C79769  11.292   1.547   6.583 -0.2609  0.7658  0.3526
  579MOL0     C79770  11.163   1.607   6.556  0.2235 -0.3092 -0.7949
  579MOL0     C79771  11.053   1.548   6.618 -0.9797 -0.5422  0.5693
  579MOL0     O79772  10.918   1.587   6.584  0.3926  0.0674 -0.5490
  579MOL0     C79773  10.832   1.610   6.699 -0.6425  0.1750 -0.0970
  579MOL0     C79774  10.691   1.657   6.660  0.7602 -0.2219 -0.2565
  579MOL0     C79775  10.626   1.741   6.772  0.1501 -0.0651 -0.5537
  579MOL0     C79776  10.673   1.886   6.770  0.1597  0.3689 -1.1241
  579MOL0     C79777  10.636   1.964   6.899  0.2748 -0.4991  0.2682
  579MOL0     C79778  10.482   1.984   6.901 -0.4850  0.1790 -0.1577
  579MOL0     C79779  10.446   2.125   6.947  0.4394  0.2393  0.8037
  579MOL0     C79780  10.431   2.133   7.100  0.3798  0.4228  0.2626
  579MOL0     N79781  10.408   2.264   7.170 -0.9246  0.1413 -0.0717
  579MOL0     C79782  10.303   2.299   7.252 -0.2344  0.5026 -0.4518
  579MOL0     C79783  10.326   2.424   7.283  0.4714 -0.9130 -0.2357
  579MOL0     C79784  10.248   2.520   7.375  0.9577 -0.1682  0.9465
  579MOL0     C79785  10.150   2.582   7.278 -0.2947  0.2432 -0.1721
  579MOL0     C79786  10.070   2.705   7.337 -0.3832  0.5729  0.0195
  579MOL0     C79787   9.997   2.776   7.210  1.2923  0.2257  0.1873
  579MOL0     O79788   9.913   2.688   7.130  0.7574  0.2146  0.4635
  579MOL0     C79789   9.812   2.739   7.052  0.2144  0.3150 -0.0925
  579MOL0     C79790   9.817   2.871   6.999 -0.0714 -0.7865 -0.7793
  579MOL0     C79791   9.720   2.906   6.904 -0.4155  0.3299  0.0908
  579MOL0     C79792   9.734   3.035   6.839  0.1386  0.8273  0.2415
  579MOL0     C79793   9.613   2.812   6.873 -0.1832  0.3921  0.1960
  579MOL0     C79794   9.492   2.852   6.793 -0.7595  0.3346  0.2367
  579MOL0     O79795   9.420   2.739   6.744 -0.3935  0.6401 -0.0159
  579MOL0     C79796   9.327   2.769   6.646 -0.0817 -0.2036  0.3899
  579MOL0     C79797   9.366   2.753   6.512  0.2464 -0.5810  0.1277
  579MOL0     C79798   9.269   2.782   6.409  0.0402  0.2304 -0.3065
  579MOL0     C79799   9.133   2.821   6.449 -0.2139 -0.2561  0.6486
  579MOL0     O79800   9.035   2.841   6.346  0.4169  0.7458 -0.2985
  579MOL0     C79801   9.004   2.974   6.347  0.1636  0.0896 -0.4688
  579MOL0     C79802   8.890   3.007   6.243 -0.5507  0.5286  0.5520
  579MOL0     C79803   8.776   2.903   6.272 -0.2245  0.1732  0.5205
  579MOL0     C79804   8.652   2.934   6.183 -0.8230  0.5142 -0.1077
  579MOL0     C79805   8.537   2.825   6.188  0.5241 -0.0811 -0.1795
  579MOL0     C79806   8.478   2.824   6.336 -0.5690 -0.2198  0.1375
  579MOL0     C79807   8.352   2.741   6.338  0.0648 -0.2746  0.6973
  579MOL0     C79808   8.292   2.748   6.478  0.0048 -0.8826  0.0578
  579MOL0    Cl79809   8.278   2.908   6.544 -0.4017 -0.6821 -0.3895
  579MOL0     C79810   9.099   2.815   6.584 -0.4511 -1.6607  0.5193
  579MOL0     C79811   9.193   2.805   6.681 -0.0548 -0.5469  0.3975
  579MOL0     O79812   9.468   2.969   6.758 -0.0705  0.0648 -0.0529
  579MOL0     C79813   9.611   2.682   6.934  0.4513 -0.4565  0.9571
  579MOL0     C79814   9.714   2.646   7.019  0.1531 -0.5081  0.0392
  579MOL0     N79815  10.440   2.470   7.228  0.1916 -0.6199  0.6793
  579MOL0     N79816  10.471   2.383   7.145 -0.9762 -0.2853 -0.0998
  579MOL0     C79817  11.075   1.451   6.715  0.0630  0.0195 -0.7955
  579MOL0     C79818  11.204   1.411   6.756 -0.1270  0.7803  0.2345
  579MOL0     C79819  11.683   1.386   6.782 -0.6332  0.1180  0.3323
  579MOL0     C79820  11.811   1.449   6.759 -0.3097 -0.1357  0.4991
  579MOL0     C79821  11.915   1.418   6.840  0.8453  0.2421  0.0596
  579MOL0     C79822  11.902   1.309   6.924 -0.2600  0.6724 -0.4400
  579MOL0     O79823  12.015   1.258   6.990 -0.2091 -0.4691  0.4858
  579MOL0     C79824  12.018   1.275   7.133  0.4196 -0.1727 -0.3783
  579MOL0     C79825  12.137   1.357   7.193 -0.1301 -0.6107 -0.3690
  579MOL0     C79826  12.269   1.281   7.182 -0.7271  0.9974 -0.3234
  579MOL0     C79827  12.377   1.340   7.262 -0.0620  0.1748  0.2748
  579MOL0     C79828  12.494   1.377   7.188 -0.4041 -0.5602  0.2637
  579MOL0     C79829  12.589   1.381   7.113 -0.5545 -0.5007  0.3087
  579MOL0     C79830  11.784   1.237   6.935  0.1760 -0.9844 -0.0660
  579MOL0     C79831  11.670   1.277   6.866  0.6478  0.0584  0.0579
  579MOL0     C79832  11.552   1.195   6.883  0.5966 -0.9611  0.2363
  579MOL0     H79833  11.379   1.575   6.524  0.6733 -0.7259  0.9773
  579MOL0     H79834  11.150   1.676   6.473  0.2908 -1.4416 -1.7787
  579MOL0     H79835  10.887   1.687   6.753  0.9668  0.6616 -2.2734
  579MOL0     H79836  10.817   1.515   6.751 -2.2190  0.1812 -0.4864
  579MOL0     H79837  10.700   1.709   6.564  5.4165  1.0451  0.6102
  579MOL0     H79838  10.624   1.571   6.653 -0.5781  0.8901 -4.0465
  579MOL0     H79839  10.518   1.725   6.757  0.4233 -3.0506 -0.0916
  579MOL0     H79840  10.663   1.706   6.869  0.5716  1.6718 -0.0563
  579MOL0     H79841  10.781   1.873   6.758  0.4635 -1.0149  2.0746
  579MOL0     H79842  10.626   1.940   6.687 -0.9526 -0.7751 -1.2572
  579MOL0     H79843  10.703   2.050   6.890  3.2759 -2.6555  0.3839
  579MOL0     H79844  10.658   1.918   6.995  1.0384  0.4805  0.5785
  579MOL0     H79845  10.433   1.957   6.807  0.0681  2.5793 -1.2026
  579MOL0     H79846  10.444   1.916   6.978 -0.9898  1.8140  1.1111
  579MOL0     H79847  10.350   2.158   6.907 -0.0475 -0.2912  1.5108
  579MOL0     H79848  10.517   2.195   6.902 -0.3133 -0.1009 -0.9632
  579MOL0     H79849  10.336   2.082   7.118 -2.5212  3.9075 -3.2237
  579MOL0     H79850  10.519   2.086   7.144  2.0679  3.4816  0.4539
  579MOL0     H79851  10.215   2.241   7.280  0.2934  0.9735  2.4739
  579MOL0     H79852  10.311   2.593   7.428  0.9351 -0.1151  0.9005
  579MOL0     H79853  10.196   2.460   7.450 -3.3932 -0.2629 -1.8193
  579MOL0     H79854  10.222   2.621   7.205  0.9370 -0.8215  0.4463
  579MOL0     H79855  10.092   2.501   7.233  1.0562 -0.7911 -0.0905
  579MOL0     H79856  10.019   2.694   7.434 -0.3009  2.0147  0.2586
  579MOL0     H79857  10.148   2.781   7.349 -0.4915  0.6380  0.3249
  579MOL0     H79858   9.936   2.857   7.251 -0.7739 -0.7029 -0.8778
  579MOL0     H79859  10.081   2.814   7.150  1.6645  1.8203  1.6419
  579MOL0     H79860   9.894   2.943   7.027  0.6102 -1.5721 -0.6163
  579MOL0     H79861   9.742   3.017   6.731 -1.7758 -0.1666  0.2098
  579MOL0     H79862   9.828   3.086   6.861 -0.6383  1.4556  2.3872
  579MOL0     H79863   9.646   3.101   6.841 -2.5822 -2.2353 -3.4098
  579MOL0     H79864   9.468   2.721   6.495  0.7904  1.2391 -0.2450
  579MOL0     H79865   9.305   2.763   6.308  0.1790 -1.0665 -0.0377
  579MOL0     H79866   8.956   3.001   6.441  0.6986  0.9063 -0.4182
  579MOL0     H79867   9.081   3.051   6.345 -0.2007  0.8547  4.1380
  579MOL0     H79868   8.855   3.110   6.253 -2.0539  0.1970 -0.8367
  579MOL0     H79869   8.926   2.986   6.142 -0.4508 -1.4525  0.9528
  579MOL0     H79870   8.757   2.900   6.379  1.9170  1.7594  1.0201
  579MOL0     H79871   8.818   2.805   6.247  1.1309  0.9622 -0.4681
  579MOL0     H79872   8.683   2.937   6.078 -3.4283 -1.7555 -1.0930
  579MOL0     H79873   8.610   3.031   6.207  2.0264  2.4039 -2.1058
  579MOL0     H79874   8.456   2.853   6.121  1.3425 -1.3404 -1.7587
  579MOL0     H79875   8.563   2.727   6.148 -0.8512  0.5080 -2.6895
  579MOL0     H79876   8.464   2.925   6.376  0.8683 -0.4325  1.2551
  579MOL0     H79877   8.541   2.783   6.415 -2.5975 -2.3218  0.7906
  579MOL0     H79878   8.370   2.639   6.303 -0.1361  0.3432 -1.3407
  579MOL0     H79879   8.280   2.784   6.267  4.1396  4.3055 -1.1966
  579MOL0     H79880   8.343   2.692   6.556 -0.2349  1.7810  2.2716
  579MOL0     H79881   8.191   2.706   6.480 -0.5346  0.2442 -1.3747
  579MOL0     H79882   8.995   2.835   6.606  0.0871  2.0213  0.4046
  579MOL0     H79883   9.178   2.809   6.789 -1.4655 -1.8227  0.2885
  579MOL0     H79884   9.533   2.609   6.915  0.2193  0.2351 -0.9840
  579MOL0     H79885   9.719   2.553   7.074 -2.0380 -1.3600 -1.0852
  579MOL0     H79886  10.988   1.404   6.760  1.1173 -2.0377 -0.8195
  579MOL0     H79887  11.210   1.327   6.825  2.1737 -0.0754 -0.9170
  579MOL0     H79888  11.817   1.529   6.686  0.4661  0.2207  0.9389
  579MOL0     H79889  12.006   1.477   6.828 -0.0752  1.3860 -1.5202
  579MOL0     H79890  11.932   1.331   7.171  3.2371  2.3863  2.8995
  579MOL0     H79891  12.021   1.177   7.181 -0.1090  0.6310  1.3851
  579MOL0     H79892  12.126   1.362   7.302  0.3405  0.2187 -0.3456
  579MOL0     H79893  12.135   1.455   7.144  0.5101 -0.3031  0.1877
  579MOL0     H79894  12.266   1.175   7.209 -2.3411  1.6241  2.3258
  579MOL0     H79895  12.296   1.276   7.076  2.0044  0.3414  0.3251
  579MOL0     H79896  12.411   1.275   7.343  0.0549  1.2487  1.1051
  579MOL0     H79897  12.336   1.422   7.322 -0.6607 -2.0927  3.1879
  579MOL0     H79898  12.663   1.399   7.038  0.9080  1.6020  2.1308
  579MOL0     H79899  11.798   1.144   6.990  0.6792 -1.6496 -1.2735
  579MOL0     H79900  11.474   1.264   6.918  1.2748 -0.1054  0.0801
  579MOL0     H79901  11.510   1.155   6.790  2.4490 -0.1768 -0.9874
  579MOL0     H79902  11.566   1.119   6.960 -2.7426 -4.2910 -2.0649
  580MOL0     O79903   2.116   8.664   3.316 -0.7152 -0.5113  1.0621
  580MOL0     C79904   2.227   8.722   3.304 -0.5828  0.5102 -1.6520
  580MOL0     O79905   2.269   8.830   3.385 -0.7608 -0.0990 -0.1413
  580MOL0     C79906   2.185   8.863   3.484  0.2395  0.4640 -0.1965
  580MOL0     C79907   2.206   8.834   3.619 -0.3843 -1.0493 -0.8265
  580MOL0     C79908   2.110   8.862   3.718  0.3321  0.0441 -0.1830
  580MOL0     C79909   1.991   8.927   3.672  0.4379  0.0735 -0.9392
  580MOL0     O79910   1.914   8.957   3.779  1.3177 -0.3614  0.0981
  580MOL0     C79911   1.822   9.062   3.765  0.5992  0.4925  0.0689
  580MOL0     C79912   1.807   9.124   3.906 -0.1718 -0.2940 -0.5600
  580MOL0     C79913   1.690   9.222   3.900  0.9924 -0.0697 -0.3100
  580MOL0     C79914   1.657   9.283   4.037 -0.5123 -0.9331 -0.5434
  580MOL0     C79915   1.595   9.420   4.023 -0.3177 -0.8647  1.8978
  580MOL0     C79916   1.633   9.518   4.140 -0.0435  1.0018 -0.2805
  580MOL0     C79917   1.597   9.468   4.286  0.3618  0.4692  0.2584
  580MOL0     C79918   1.680   9.541   4.397 -0.1827 -0.4779  0.2157
  580MOL0     N79919   1.675   9.488   4.541 -0.0433 -0.7252  0.7153
  580MOL0     C79920   1.558   9.475   4.618  0.3495  0.3509  0.0229
  580MOL0     C79921   1.596   9.423   4.736 -0.3674 -0.0105  0.2091
  580MOL0     C79922   1.509   9.394   4.860 -0.9109  0.4858  0.4022
  580MOL0     C79923   1.520   9.250   4.917  0.7135  0.4101  0.5709
  580MOL0     C79924   1.434   9.150   4.835  0.5701  0.1757 -0.1191
  580MOL0     C79925   1.500   9.111   4.709 -1.0279 -0.1699 -0.2801
  580MOL0     O79926   1.436   8.990   4.657  0.3906  0.0540 -0.5180
  580MOL0     C79927   1.427   8.968   4.522 -1.0655 -0.8532 -0.0162
  580MOL0     C79928   1.415   8.836   4.478  0.9308  0.0289  0.4033
  580MOL0     C79929   1.397   8.806   4.342 -0.9212  0.2691  0.0838
  580MOL0     C79930   1.360   8.668   4.304  0.2433 -0.4257  0.0990
  580MOL0     C79931   1.387   8.912   4.243  0.2193  0.2227  0.3885
  580MOL0     C79932   1.342   8.899   4.103  0.1712  0.5919  0.5241
  580MOL0     O79933   1.336   9.012   4.029  0.0570 -0.6564 -0.3410
  580MOL0     C79934   1.327   9.015   3.891  1.1047 -0.0111  0.0204
  580MOL0     C79935   1.355   8.916   3.794  0.1278 -0.0808 -1.4821
  580MOL0     C79936   1.371   8.946   3.654  0.3660 -0.4164 -0.9472
  580MOL0     C79937   1.348   9.073   3.605 -0.7842 -0.5976  0.3068
  580MOL0     O79938   1.387   9.098   3.471 -0.1354  0.1354  0.0638
  580MOL0     C79939   1.291   9.174   3.398  0.1090 -0.3204  0.4299
  580MOL0     C79940   1.310   9.319   3.362 -0.1859 -1.3032 -0.2461
  580MOL0     C79941   1.197   9.369   3.279  0.1289 -0.9878  0.3222
  580MOL0     C79942   1.237   9.518   3.241  0.0505 -0.6038 -0.1348
  580MOL0     C79943   1.114   9.581   3.183  0.1834  0.1130  0.7360
  580MOL0     C79944   1.144   9.731   3.153  0.3366  0.1700 -0.2030
  580MOL0     C79945   1.030   9.828   3.109  0.1194 -0.2616 -0.6059
  580MOL0     C79946   0.978   9.792   2.974  0.3436  0.1250  0.2972
  580MOL0    Cl79947   0.825   9.893   2.945  0.4874 -0.2029  0.1596
  580MOL0     C79948   1.323   9.181   3.699 -0.5046 -0.1769 -0.0017
  580MOL0     C79949   1.315   9.144   3.846 -0.0365 -0.5152  0.1324
  580MOL0     O79950   1.300   8.786   4.064  0.9170 -0.1772 -0.5427
  580MOL0     C79951   1.389   9.043   4.297 -0.3209 -0.5407  0.1032
  580MOL0     C79952   1.411   9.071   4.426 -1.0347 -0.8169 -0.4557
  580MOL0     N79953   1.723   9.382   4.716 -0.5290 -0.2024 -0.0164
  580MOL0     N79954   1.770   9.421   4.606 -0.3689  0.3201  0.8003
  580MOL0     C79955   1.973   8.966   3.539  0.7545  0.5122 -0.2677
  580MOL0     C79956   2.068   8.928   3.447  0.3987 -0.7636 -0.2740
  580MOL0     C79957   2.321   8.680   3.197 -0.5209 -1.2934  0.0558
  580MOL0     C79958   2.413   8.782   3.149  0.3656  0.7104  0.2113
  580MOL0     C79959   2.489   8.757   3.036 -0.5592 -0.7532  0.9839
  580MOL0     C79960   2.492   8.627   2.976 -0.5649  0.8095 -0.0941
  580MOL0     O79961   2.558   8.573   2.868  0.4037 -0.2998  0.4525
  580MOL0     C79962   2.599   8.673   2.768 -0.2885  0.2697  0.9117
  580MOL0     C79963   2.640   8.610   2.639  0.9567 -0.5073  0.5269
  580MOL0     C79964   2.529   8.552   2.554  0.2545  0.6338  0.3514
  580MOL0     C79965   2.471   8.416   2.615 -0.1241  0.7108  1.2310
  580MOL0     C79966   2.367   8.396   2.510 -0.2055 -0.2083  0.1841
  580MOL0     C79967   2.282   8.373   2.427 -0.1354 -0.8018 -0.4028
  580MOL0     C79968   2.421   8.524   3.035  1.2462  0.3834 -0.0875
  580MOL0     C79969   2.329   8.550   3.138 -0.5272 -0.8726  0.9654
  580MOL0     C79970   2.248   8.438   3.183  0.5273 -0.4661 -0.8167
  580MOL0     H79971   2.291   8.771   3.643 -0.0402 -0.2630  0.1448
  580MOL0     H79972   2.119   8.829   3.821  1.4316 -1.4357 -0.7268
  580MOL0     H79973   1.726   9.024   3.727  0.2123 -1.6349  2.8074
  580MOL0     H79974   1.873   9.144   3.713  3.2706  0.6205  2.6093
  580MOL0     H79975   1.782   9.038   3.970 -1.8286 -0.3385 -1.2218
  580MOL0     H79976   1.896   9.171   3.948 -1.0515 -0.6676  1.9101
  580MOL0     H79977   1.699   9.307   3.832 -6.6262  0.9724 -0.9394
  580MOL0     H79978   1.606   9.158   3.871  2.3959 -1.8132 -0.6847
  580MOL0     H79979   1.605   9.219   4.108  2.3982 -0.7411  1.9620
  580MOL0     H79980   1.751   9.317   4.083 -2.5986  1.3389  2.4062
  580MOL0     H79981   1.489   9.416   3.996  0.2141 -5.0463 -0.3496
  580MOL0     H79982   1.644   9.473   3.941  2.5513 -1.7849  2.9030
  580MOL0     H79983   1.742   9.526   4.131  0.1131 -0.8165 -0.3597
  580MOL0     H79984   1.582   9.614   4.130  2.2681  2.5377  1.5366
  580MOL0     H79985   1.611   9.360   4.296 -1.2061  0.4439  4.3548
  580MOL0     H79986   1.491   9.489   4.301  0.8886  3.5824  0.3560
  580MOL0     H79987   1.780   9.565   4.359  0.2726 -2.1888  0.2118
  580MOL0     H79988   1.635   9.640   4.399 -2.3987 -1.3709 -1.2836
  580MOL0     H79989   1.465   9.520   4.584 -0.5179 -0.9362  0.6343
  580MOL0     H79990   1.405   9.408   4.831 -0.3338  2.9187 -0.7240
  580MOL0     H79991   1.535   9.469   4.936  1.2725  0.8920 -0.6710
  580MOL0     H79992   1.619   9.206   4.928  0.5895 -1.0303 -2.9910
  580MOL0     H79993   1.493   9.264   5.023  1.9905 -1.1195  1.1363
  580MOL0     H79994   1.431   9.056   4.891  0.7870  1.1987  1.7105
  580MOL0     H79995   1.334   9.191   4.817  0.2939  0.3414  1.5743
  580MOL0     H79996   1.484   9.198   4.644  3.9679  1.2504 -0.0207
  580MOL0     H79997   1.607   9.111   4.732 -0.8701  0.5340 -0.9658
  580MOL0     H79998   1.420   8.753   4.548  2.4697 -0.1607  0.0842
  580MOL0     H79999   1.417   8.629   4.219 -0.5193 -0.4301 -0.4164
  580MOL0     H80000   1.258   8.674   4.265 -0.4287  1.4462  1.9172
  580MOL0     H80001   1.377   8.602   4.390 -0.3236  2.3834  2.5459
  580MOL0     H80002   1.376   8.816   3.830  0.5141  0.3922 -0.3248
  580MOL0     H80003   1.420   8.875   3.588 -0.4841  0.2840 -2.3874
  580MOL0     H80004   1.273   9.114   3.309 -0.0608  3.4496 -2.3639
  580MOL0     H80005   1.206   9.182   3.466 -0.5983  1.4147 -0.6015
  580MOL0     H80006   1.308   9.384   3.450  0.4350 -0.6604 -0.6950
  580MOL0     H80007   1.402   9.334   3.304 -1.3698  0.1602 -1.8442
  580MOL0     H80008   1.103   9.366   3.334  0.8780 -1.5992  1.6200
  580MOL0     H80009   1.167   9.301   3.199 -4.4941  3.0501 -1.8962
  580MOL0     H80010   1.318   9.511   3.168  1.7151 -0.7605  1.6482
  580MOL0     H80011   1.270   9.575   3.328  0.8040  2.4346 -2.2553
  580MOL0     H80012   1.090   9.529   3.090  2.6763 -0.9871  0.6108
  580MOL0     H80013   1.037   9.569   3.259  2.2365  2.0588  3.3122
  580MOL0     H80014   1.212   9.723   3.068  0.8344  1.8282 -0.0030
  580MOL0     H80015   1.182   9.778   3.244 -3.1768 -0.6573  1.8879
  580MOL0     H80016   1.058   9.934   3.108 -0.5772 -0.0391 -2.8672
  580MOL0     H80017   0.951   9.824   3.185  0.1011  3.2059 -0.2524
  580MOL0     H80018   0.943   9.691   2.996  0.5320  0.2847  1.3450
  580MOL0     H80019   1.048   9.803   2.890 -1.5845 -1.6101 -1.6583
  580MOL0     H80020   1.319   9.283   3.664 -0.3065 -0.6694 -1.5735
  580MOL0     H80021   1.304   9.228   3.914  3.6738  0.1159  0.1436
  580MOL0     H80022   1.365   9.118   4.223 -0.5960 -0.7224  0.0067
  580MOL0     H80023   1.410   9.172   4.466 -0.4714 -1.3664  1.0244
  580MOL0     H80024   1.881   9.018   3.513  0.0788 -0.8452 -0.7088
  580MOL0     H80025   2.057   8.938   3.340  0.1558 -0.5471 -0.2301
  580MOL0     H80026   2.431   8.884   3.184  0.2466  2.3581 -3.9802
  580MOL0     H80027   2.535   8.842   2.987  0.7103 -0.6249  2.3541
  580MOL0     H80028   2.522   8.748   2.748  2.1375  2.4814 -0.7304
  580MOL0     H80029   2.691   8.722   2.802 -1.4773  2.7930  0.7042
  580MOL0     H80030   2.706   8.529   2.672 -3.1055 -4.2899  0.3411
  580MOL0     H80031   2.695   8.689   2.587  0.5037 -0.0012  0.8062
  580MOL0     H80032   2.459   8.633   2.533 -0.4452  0.6910  2.6109
  580MOL0     H80033   2.563   8.527   2.453  1.8041 -0.5195  1.1271
  580MOL0     H80034   2.416   8.428   2.709 -3.1051  0.7976 -0.3855
  580MOL0     H80035   2.540   8.332   2.626 -2.4851 -1.9634 -2.1796
  580MOL0     H80036   2.202   8.362   2.356 -1.6196 -0.2455  1.0962
  580MOL0     H80037   2.429   8.423   2.998  0.1022 -0.7022  2.4412
  580MOL0     H80038   2.145   8.456   3.152 -0.0604 -1.8955  0.1774
  580MOL0     H80039   2.282   8.339   3.149 -2.5066 -0.8338 -3.1424
  580MOL0     H80040   2.250   8.423   3.292  1.1078 -2.3758 -1.0387
  581MOL0     O80041   4.721   5.080  11.067  0.5783  0.5821 -0.2733
  581MOL0     C80042   4.827   5.098  11.116 -0.8089  0.3809 -0.5839
  581MOL0     O80043   4.866   5.213  11.160 -0.5087 -0.8372  0.0004
  581MOL0     C80044   4.791   5.319  11.151  0.3317  0.3278 -0.8408
  581MOL0     C80045   4.794   5.398  11.270  0.9036  0.1075 -0.2309
  581MOL0     C80046   4.749   5.534  11.262  0.4419  0.5117  0.0354
  581MOL0     C80047   4.677   5.581  11.145 -0.2618 -0.3820  0.7388
  581MOL0     O80048   4.617   5.706  11.134  0.4200  0.5228 -0.2243
  581MOL0     C80049   4.551   5.777  11.247 -0.1981  0.5188 -0.6048
  581MOL0     C80050   4.425   5.703  11.287  0.3669  0.4903  0.8677
  581MOL0     C80051   4.330   5.791  11.372  0.3045  0.6670  0.2979
  581MOL0     C80052   4.201   5.713  11.408 -0.7711  1.4412  0.8278
  581MOL0     C80053   4.196   5.588  11.487  0.4546  0.2021  0.1532
  581MOL0     C80054   4.269   5.596  11.625  0.0631 -0.9952  0.3031
  581MOL0     C80055   4.294   5.463  11.690 -0.2080  0.0833  0.3003
  581MOL0     C80056   4.398   5.376  11.612 -0.0880 -0.2511 -0.2007
  581MOL0     N80057   4.515   5.333  11.700  0.2090 -0.1593 -0.3671
  581MOL0     C80058   4.517   5.219  11.777 -0.2465 -0.5380 -0.4429
  581MOL0     C80059   4.585   5.248  11.885 -0.3926  0.9007 -0.8277
  581MOL0     C80060   4.599   5.152  12.010 -0.7108  0.1541  0.8363
  581MOL0     C80061   4.503   5.182  12.126  0.3783  0.0466  0.1721
  581MOL0     C80062   4.353   5.174  12.093  0.1173 -0.0413  0.2410
  581MOL0     C80063   4.313   5.027  12.048 -0.6314  1.1714  0.6925
  581MOL0     O80064   4.321   4.999  11.910 -0.2475  0.3963  0.4892
  581MOL0     C80065   4.218   5.036  11.821 -0.1448 -0.0096  0.3284
  581MOL0     C80066   4.118   5.131  11.853 -0.3676 -0.1499  0.4607
  581MOL0     C80067   4.006   5.158  11.759  0.0956 -1.5412  1.0640
  581MOL0     C80068   3.902   5.262  11.802 -0.2223  0.3547  0.0041
  581MOL0     C80069   4.001   5.080  11.634 -0.3691  0.0530 -0.0673
  581MOL0     C80070   3.892   5.103  11.534  0.0418  0.7547  0.7555
  581MOL0     O80071   3.858   4.996  11.456  0.1990  0.9110 -0.5367
  581MOL0     C80072   3.748   4.989  11.368 -0.1853 -0.6670 -0.3629
  581MOL0     C80073   3.700   5.098  11.288  0.7832  0.5105 -0.5969
  581MOL0     C80074   3.587   5.083  11.205  0.2267 -0.2220 -0.9496
  581MOL0     C80075   3.546   4.950  11.179  0.5520 -0.1527  0.4541
  581MOL0     O80076   3.431   4.931  11.096 -0.9426  0.2340  0.4841
  581MOL0     C80077   3.402   4.803  11.040 -0.5575 -0.4507 -0.1316
  581MOL0     C80078   3.275   4.814  10.951  0.3949  0.1171  0.2160
  581MOL0     C80079   3.157   4.806  11.043  0.5625  0.0507  0.6863
  581MOL0     C80080   3.033   4.767  10.959  0.5017 -0.1108 -0.3223
  581MOL0     C80081   2.933   4.887  10.912 -1.1492 -1.0522 -0.0630
  581MOL0     C80082   2.976   4.948  10.780  0.6475  0.2833 -0.3338
  581MOL0     C80083   2.877   5.065  10.748  0.0591  0.0405 -0.7153
  581MOL0     C80084   2.947   5.199  10.778  0.1655  0.0218 -0.4636
  581MOL0    Cl80085   2.834   5.331  10.775 -1.1133 -0.2896  0.0561
  581MOL0     C80086   3.610   4.844  11.233 -1.4529  0.1771 -0.1250
  581MOL0     C80087   3.706   4.862  11.332 -0.3124  1.0335 -0.1142
  581MOL0     O80088   3.851   5.216  11.515 -0.4566 -0.4682 -0.0431
  581MOL0     C80089   4.095   4.990  11.618 -0.9697  0.6600  1.3765
  581MOL0     C80090   4.201   4.960  11.700  0.0142  0.6027 -0.0094
  581MOL0     N80091   4.621   5.377  11.878 -0.1598 -0.2925 -0.1454
  581MOL0     N80092   4.588   5.428  11.769  0.8830  0.6535  0.2829
  581MOL0     C80093   4.676   5.493  11.036  1.0039 -0.6660 -0.2138
  581MOL0     C80094   4.728   5.365  11.035 -1.0416  0.0923 -0.5948
  581MOL0     C80095   4.927   4.986  11.157  0.8001 -0.0271  0.6292
  581MOL0     C80096   5.022   5.013  11.256  0.3420 -0.4404  0.8989
  581MOL0     C80097   5.111   4.912  11.287  0.0955 -0.3116  0.2462
  581MOL0     C80098   5.116   4.786  11.231  0.2962  0.7331 -0.4845
  581MOL0     O80099   5.194   4.688  11.277 -0.2882 -0.0443 -0.1313
  581MOL0     C80100   5.134   4.602  11.382 -1.8526 -0.4450  0.2629
  581MOL0     C80101   5.032   4.502  11.329 -0.3677  0.1464  0.0835
  581MOL0     C80102   5.074   4.421  11.203  0.0725 -0.5920 -0.3165
  581MOL0     C80103   4.984   4.303  11.163 -0.3822 -0.1628 -0.0377
  581MOL0     C80104   4.994   4.188  11.258 -0.0686 -0.5474 -0.2785
  581MOL0     C80105   5.020   4.095  11.336 -0.1093  0.7632  0.1002
  581MOL0     C80106   5.032   4.767  11.124  1.1568 -0.3548  0.0485
  581MOL0     C80107   4.924   4.859  11.101 -0.1457  0.4862 -0.1800
  581MOL0     C80108   4.822   4.820  10.998 -0.2896 -0.3091 -0.7032
  581MOL0     H80109   4.811   5.361  11.371 -2.6809  0.5600  0.6826
  581MOL0     H80110   4.762   5.596  11.351  0.9119  0.8640 -0.2777
  581MOL0     H80111   4.523   5.879  11.217 -0.4315 -0.0683 -2.4951
  581MOL0     H80112   4.622   5.775  11.330 -1.5223 -0.5621  0.5517
  581MOL0     H80113   4.370   5.658  11.204 -0.2130  0.1453  1.4244
  581MOL0     H80114   4.457   5.621  11.352 -2.4681  0.5174  2.5050
  581MOL0     H80115   4.385   5.817  11.462 -0.9707  4.3114  0.1946
  581MOL0     H80116   4.306   5.886  11.322 -2.8738 -0.4603 -0.5757
  581MOL0     H80117   4.140   5.781  11.469 -0.9213  2.3718 -0.3130
  581MOL0     H80118   4.161   5.678  11.312 -0.2565 -1.1428  1.4869
  581MOL0     H80119   4.245   5.516  11.421  4.8238  0.2244  2.9643
  581MOL0     H80120   4.091   5.558  11.498  0.5461 -0.5146 -0.8444
  581MOL0     H80121   4.361   5.654  11.612  0.1492 -1.2046 -0.0318
  581MOL0     H80122   4.202   5.654  11.689 -0.2678  1.5299 -2.1548
  581MOL0     H80123   4.199   5.407  11.696 -0.0730 -0.1537  0.2520
  581MOL0     H80124   4.335   5.484  11.789  1.4577  1.3276 -0.6104
  581MOL0     H80125   4.348   5.296  11.556 -2.6274 -0.2008  1.7795
  581MOL0     H80126   4.435   5.443  11.535  1.7952  2.7880  3.0417
  581MOL0     H80127   4.471   5.122  11.765 -1.3310 -0.2082  0.7855
  581MOL0     H80128   4.703   5.172  12.039 -0.3690 -2.6619  1.8064
  581MOL0     H80129   4.602   5.051  11.969 -4.0023  1.2998 -2.8705
  581MOL0     H80130   4.521   5.117  12.212  0.1949 -1.4202 -0.8367
  581MOL0     H80131   4.524   5.286  12.152 -1.5600 -0.2588  3.5905
  581MOL0     H80132   4.298   5.197  12.185  0.0011 -3.4754  1.1725
  581MOL0     H80133   4.342   5.244  12.009  3.9225  2.9954  1.9568
  581MOL0     H80134   4.389   4.961  12.091 -0.7280 -0.6395 -1.7206
  581MOL0     H80135   4.212   5.006  12.084  0.1689 -0.0471  2.4309
  581MOL0     H80136   4.120   5.179  11.951  0.7181 -0.5203  0.6312
  581MOL0     H80137   3.825   5.216  11.864  1.9354 -2.5503  0.7134
  581MOL0     H80138   3.854   5.314  11.718 -0.4647  0.0502 -0.0466
  581MOL0     H80139   3.948   5.341  11.863 -3.1226  2.3575 -0.1656
  581MOL0     H80140   3.740   5.196  11.311  0.8730 -0.2129  2.9464
  581MOL0     H80141   3.556   5.179  11.165 -0.2930  0.3850  0.8331
  581MOL0     H80142   3.487   4.795  10.972 -0.2866  2.3273 -0.2258
  581MOL0     H80143   3.405   4.717  11.107 -0.8415 -0.0729  0.3722
  581MOL0     H80144   3.276   4.907  10.893 -0.2995 -0.4725 -0.7728
  581MOL0     H80145   3.276   4.726  10.885  0.0352 -0.8096  1.4143
  581MOL0     H80146   3.151   4.901  11.097  1.3246  1.3974 -1.4449
  581MOL0     H80147   3.174   4.724  11.113  0.7169 -2.1676 -1.8109
  581MOL0     H80148   2.968   4.738  11.043 -1.6228  4.1681 -0.1855
  581MOL0     H80149   3.044   4.693  10.879 -1.6485  0.9416 -1.7082
  581MOL0     H80150   2.833   4.846  10.895 -1.2632 -2.5252  3.3940
  581MOL0     H80151   2.930   4.956  10.997  3.1189 -1.3699  0.5300
  581MOL0     H80152   2.975   4.865  10.708  1.7257 -2.0368  2.1519
  581MOL0     H80153   3.082   4.974  10.786  1.1227 -1.2203 -1.5652
  581MOL0     H80154   2.780   5.056  10.797 -0.3483 -1.0165 -1.6595
  581MOL0     H80155   2.847   5.068  10.643  0.3251 -0.6152 -0.8186
  581MOL0     H80156   3.008   5.230  10.692 -1.1362 -0.8450 -1.7481
  581MOL0     H80157   3.014   5.181  10.862 -1.0015 -3.8802 -0.1921
  581MOL0     H80158   3.580   4.742  11.210  2.9440 -1.1924 -0.6848
  581MOL0     H80159   3.760   4.777  11.373 -2.7047 -0.2429  0.5322
  581MOL0     H80160   4.108   4.924  11.533  0.8004  1.4620  0.9791
  581MOL0     H80161   4.277   4.887  11.674  0.3288  0.3146  1.6373
  581MOL0     H80162   4.640   5.525  10.939  0.4858  0.0150  0.1895
  581MOL0     H80163   4.728   5.295  10.952  1.1244 -1.1302  0.3396
  581MOL0     H80164   5.036   5.109  11.305 -1.7104  0.1455  0.4121
  581MOL0     H80165   5.173   4.929  11.374  2.9790 -2.6366 -1.1870
  581MOL0     H80166   5.221   4.549  11.422 -1.4209 -3.3752 -3.9107
  581MOL0     H80167   5.093   4.673  11.455  1.6783  2.8888 -0.6787
  581MOL0     H80168   4.950   4.565  11.292  1.1872  1.0450 -1.9934
  581MOL0     H80169   4.995   4.440  11.412  1.4772  1.8929  2.3540
  581MOL0     H80170   5.091   4.484  11.116 -1.1577 -0.6289 -0.5902
  581MOL0     H80171   5.176   4.386  11.225  0.0056 -0.8731 -0.4440
  581MOL0     H80172   4.999   4.270  11.060 -0.7007  0.3008 -0.2381
  581MOL0     H80173   4.883   4.345  11.165  0.3462  1.7045 -0.4113
  581MOL0     H80174   5.053   4.029  11.414 -0.1601 -1.0791 -1.3496
  581MOL0     H80175   5.050   4.673  11.074  3.4407  0.8349 -1.5838
  581MOL0     H80176   4.816   4.904  10.928 -1.3516 -1.3112 -1.8705
  581MOL0     H80177   4.854   4.728  10.947 -0.4665 -0.8691  0.1759
  581MOL0     H80178   4.719   4.808  11.034 -0.7864  3.1950 -0.5990
  582MOL0     O80179   5.703   5.236   3.550  0.6573 -0.7949 -0.9735
  582MOL0     C80180   5.641   5.296   3.452 -0.4321 -0.3959  0.5896
  582MOL0     O80181   5.603   5.240   3.328  0.2941 -0.5308 -0.4714
  582MOL0     C80182   5.653   5.113   3.304  1.4008 -0.2046 -0.0630
  582MOL0     C80183   5.562   5.022   3.257 -0.6345  0.4573  0.1675
  582MOL0     C80184   5.611   4.912   3.185  0.1882  0.5243 -0.0883
  582MOL0     C80185   5.747   4.880   3.183  0.3577 -0.4847  1.1436
  582MOL0     O80186   5.781   4.759   3.131  0.5620 -0.1966  0.1978
  582MOL0     C80187   5.895   4.695   3.179 -0.7263  0.8947  0.3166
  582MOL0     C80188   5.872   4.632   3.318  0.2961 -0.4417  0.0049
  582MOL0     C80189   5.983   4.526   3.351  0.4338  0.1088  0.0230
  582MOL0     C80190   5.950   4.467   3.493 -0.6472  0.0810  0.8342
  582MOL0     C80191   6.045   4.345   3.524  0.4309  0.0466  0.9640
  582MOL0     C80192   5.974   4.213   3.563  0.0431  1.0079 -0.3148
  582MOL0     C80193   5.983   4.105   3.447  0.6048 -0.3190  0.2372
  582MOL0     C80194   5.895   4.141   3.327  0.7715 -0.3890 -0.8996
  582MOL0     N80195   5.750   4.154   3.369 -0.7568 -0.3533  0.7954
  582MOL0     C80196   5.670   4.256   3.325  0.1103  0.0429 -0.0110
  582MOL0     C80197   5.547   4.229   3.370  0.3055  0.2006 -0.4601
  582MOL0     C80198   5.440   4.321   3.345 -0.5517  0.5320 -0.9158
  582MOL0     C80199   5.298   4.256   3.336 -0.2441 -0.4689  0.9867
  582MOL0     C80200   5.246   4.204   3.203  0.6673 -0.5863  0.4190
  582MOL0     C80201   5.335   4.086   3.153 -0.4594 -0.8887 -0.9583
  582MOL0     O80202   5.459   4.150   3.095  0.1184  0.1215 -0.3201
  582MOL0     C80203   5.509   4.072   3.001  0.7692  0.7706  0.3794
  582MOL0     C80204   5.433   4.002   2.903  0.4028  0.0922 -0.8011
  582MOL0     C80205   5.490   3.925   2.800  0.7170  0.5516 -0.5828
  582MOL0     C80206   5.408   3.862   2.694 -0.3141  0.1156 -0.6109
  582MOL0     C80207   5.625   3.905   2.796 -0.1788 -0.8467 -0.0305
  582MOL0     C80208   5.718   3.824   2.701 -0.3215  0.7017  0.2328
  582MOL0     O80209   5.670   3.739   2.606  0.3076  0.2811  0.9449
  582MOL0     C80210   5.763   3.683   2.528 -0.3561 -0.7829 -0.5157
  582MOL0     C80211   5.800   3.747   2.406 -0.9029  0.4478 -0.3120
  582MOL0     C80212   5.886   3.672   2.325  0.0048  0.9621  0.4859
  582MOL0     C80213   5.934   3.544   2.359 -0.6023  0.7751 -0.3224
  582MOL0     O80214   6.009   3.470   2.267 -0.0220  0.1341 -0.0999
  582MOL0     C80215   6.053   3.525   2.143  0.4147  0.7342  0.3588
  582MOL0     C80216   6.144   3.421   2.071 -0.1684  0.3379 -0.3844
  582MOL0     C80217   6.167   3.475   1.935  0.1506 -0.1065  0.8161
  582MOL0     C80218   6.282   3.412   1.862 -0.4766  0.7589  0.2219
  582MOL0     C80219   6.301   3.483   1.728  0.2133  0.2423 -0.1069
  582MOL0     C80220   6.387   3.404   1.633 -0.4990 -0.7812 -0.2589
  582MOL0     C80221   6.443   3.468   1.497 -0.1973 -0.2155  0.5391
  582MOL0     C80222   6.508   3.601   1.508 -0.2388 -0.3216 -0.1431
  582MOL0    Cl80223   6.657   3.588   1.597  0.2852  0.6578 -0.4144
  582MOL0     C80224   5.886   3.491   2.482 -0.9815  0.0766 -0.0613
  582MOL0     C80225   5.800   3.555   2.569 -1.4416 -0.7298 -0.4854
  582MOL0     O80226   5.837   3.837   2.725 -0.5094  0.4090  0.8542
  582MOL0     C80227   5.697   3.985   2.887  0.0626  0.2425  1.1212
  582MOL0     C80228   5.641   4.062   2.979 -0.3460  0.7353 -0.3411
  582MOL0     N80229   5.553   4.107   3.445  0.0186 -0.4499 -0.0278
  582MOL0     N80230   5.675   4.061   3.432  0.7564 -0.7016  0.6963
  582MOL0     C80231   5.836   4.965   3.244  0.3242 -0.0666 -0.0394
  582MOL0     C80232   5.788   5.076   3.311 -0.6201  1.4998  1.1557
  582MOL0     C80233   5.625   5.443   3.467  0.1863  0.2607 -0.4792
  582MOL0     C80234   5.662   5.531   3.360  0.1210 -0.9146  0.1458
  582MOL0     C80235   5.654   5.669   3.383  0.0969 -0.4552  0.1304
  582MOL0     C80236   5.606   5.730   3.500 -0.0035  0.0258  0.2072
  582MOL0     O80237   5.609   5.865   3.530 -0.4714 -0.1139  0.0307
  582MOL0     C80238   5.670   5.957   3.437  0.1594 -0.5155  0.3556
  582MOL0     C80239   5.812   5.998   3.489 -0.0239 -0.5902  0.0434
  582MOL0     C80240   5.883   6.082   3.372 -0.5039 -0.0860 -0.4136
  582MOL0     C80241   6.037   6.119   3.396 -0.2368 -0.1861 -1.5843
  582MOL0     C80242   6.040   6.227   3.498 -0.5037  0.1335 -0.2825
  582MOL0     C80243   6.044   6.288   3.598  0.0555 -0.3776  0.5777
  582MOL0     C80244   5.560   5.632   3.601  0.4233 -0.5916  0.6367
  582MOL0     C80245   5.567   5.496   3.585 -0.7360  0.4445 -0.1601
  582MOL0     C80246   5.519   5.414   3.700 -1.2832 -0.6599  0.0740
  582MOL0     H80247   5.458   5.052   3.251 -0.3687  1.2803 -0.3853
  582MOL0     H80248   5.538   4.840   3.148  0.2118 -0.2559  1.2919
  582MOL0     H80249   5.982   4.761   3.179 -0.6233  0.7687 -0.5591
  582MOL0     H80250   5.914   4.617   3.105 -3.4471 -1.6243  2.0322
  582MOL0     H80251   5.863   4.709   3.395  1.8685  0.3921 -0.6000
  582MOL0     H80252   5.776   4.580   3.320 -0.2578  0.5813  0.6389
  582MOL0     H80253   5.972   4.448   3.275 -1.0856  0.2082  0.1020
  582MOL0     H80254   6.083   4.568   3.337  1.5771 -2.8382 -1.4913
  582MOL0     H80255   5.974   4.551   3.558 -2.0651  1.0117  0.1995
  582MOL0     H80256   5.844   4.441   3.497 -1.1094  0.9335 -2.4953
  582MOL0     H80257   6.109   4.385   3.603  0.0003 -1.4526  2.1105
  582MOL0     H80258   6.108   4.339   3.435  0.3884  1.8859  0.7647
  582MOL0     H80259   6.006   4.167   3.657 -1.8802  2.1193  0.9531
  582MOL0     H80260   5.868   4.235   3.584  0.2317  1.3044  0.3740
  582MOL0     H80261   5.962   4.005   3.487 -0.3953 -0.8461 -1.5137
  582MOL0     H80262   6.091   4.113   3.435  0.8180 -0.0470  1.9741
  582MOL0     H80263   5.924   4.232   3.274  0.6203 -0.9037 -1.8961
  582MOL0     H80264   5.894   4.057   3.256 -2.7410 -3.2710  2.1047
  582MOL0     H80265   5.710   4.347   3.281  2.7630 -0.2154  1.6521
  582MOL0     H80266   5.451   4.366   3.246  2.5091  2.4472  0.1475
  582MOL0     H80267   5.454   4.396   3.423 -2.0946  1.3288 -1.3475
  582MOL0     H80268   5.298   4.170   3.403 -0.7359 -2.8922 -1.8683
  582MOL0     H80269   5.235   4.336   3.376 -0.1521 -1.3563  3.0029
  582MOL0     H80270   5.147   4.164   3.224 -1.1905  0.7926 -4.4243
  582MOL0     H80271   5.232   4.278   3.124 -0.7009 -0.6394  0.5857
  582MOL0     H80272   5.348   4.031   3.247 -3.0307 -3.4196 -1.9640
  582MOL0     H80273   5.272   4.019   3.095 -0.3030 -3.6383  1.7591
  582MOL0     H80274   5.329   4.023   2.881 -0.2455  0.6116  2.2581
  582MOL0     H80275   5.303   3.881   2.719 -0.4007 -0.9379 -0.1196
  582MOL0     H80276   5.417   3.754   2.710 -0.5105  0.2473  0.4832
  582MOL0     H80277   5.433   3.898   2.594  0.7063  1.1732 -0.0064
  582MOL0     H80278   5.749   3.836   2.373 -1.0641  0.7813  0.7816
  582MOL0     H80279   5.913   3.716   2.229 -1.1108  1.9937  0.6169
  582MOL0     H80280   5.959   3.537   2.087  1.0484  1.0426 -0.6507
  582MOL0     H80281   6.103   3.621   2.155  0.4917  0.4159  3.1452
  582MOL0     H80282   6.235   3.410   2.131  1.1122 -0.3364 -2.3525
  582MOL0     H80283   6.092   3.325   2.069 -0.4135  0.4546  0.3513
  582MOL0     H80284   6.192   3.581   1.942 -1.4849  0.2050  4.8932
  582MOL0     H80285   6.077   3.460   1.874 -0.2196 -2.1305  1.7675
  582MOL0     H80286   6.264   3.307   1.839  2.4557 -0.3765  2.5195
  582MOL0     H80287   6.375   3.415   1.919  0.4607  0.2401 -1.2438
  582MOL0     H80288   6.204   3.506   1.684  0.4200  2.5579  0.4892
  582MOL0     H80289   6.346   3.582   1.745  3.2607 -0.3788 -3.3405
  582MOL0     H80290   6.333   3.317   1.595 -0.4992 -0.2780 -1.4522
  582MOL0     H80291   6.478   3.371   1.684  0.2758 -2.5927 -2.6461
  582MOL0     H80292   6.360   3.462   1.427 -0.7623 -1.5899  1.2866
  582MOL0     H80293   6.521   3.403   1.458  0.8365  0.9708  0.5521
  582MOL0     H80294   6.443   3.672   1.560  0.0763  0.3675 -0.6642
  582MOL0     H80295   6.517   3.631   1.403  1.5474 -1.0923 -0.2451
  582MOL0     H80296   5.911   3.390   2.511  2.1941  0.7663  0.0496
  582MOL0     H80297   5.764   3.509   2.660 -0.9144  1.6384  1.0077
  582MOL0     H80298   5.805   3.986   2.899  0.1104  3.3665  1.3100
  582MOL0     H80299   5.698   4.114   3.055 -1.4007  1.2852  0.0847
  582MOL0     H80300   5.942   4.946   3.244  0.2174 -0.7429  0.9940
  582MOL0     H80301   5.870   5.137   3.348  0.7796 -0.7627  2.0203
  582MOL0     H80302   5.703   5.492   3.268 -0.6051  1.2905 -1.1965
  582MOL0     H80303   5.696   5.734   3.307  0.4163 -0.5749  0.2011
  582MOL0     H80304   5.684   5.918   3.336  3.0771 -2.0079  1.2213
  582MOL0     H80305   5.596   6.037   3.433  2.7675  1.9826 -1.4951
  582MOL0     H80306   5.875   5.913   3.515  3.5388  1.8676  0.1124
  582MOL0     H80307   5.800   6.054   3.582 -2.3108 -0.0071 -0.5186
  582MOL0     H80308   5.881   6.023   3.279 -1.0352  0.2591 -0.6301
  582MOL0     H80309   5.816   6.162   3.341  1.3572  1.2382 -1.1959
  582MOL0     H80310   6.088   6.152   3.304 -0.0543  1.4202 -0.9456
  582MOL0     H80311   6.096   6.037   3.436  1.7174  1.7789 -0.1808
  582MOL0     H80312   6.058   6.345   3.688  0.8115  0.4081 -0.0312
  582MOL0     H80313   5.533   5.671   3.698  0.9646  2.8703 -0.4752
  582MOL0     H80314   5.432   5.452   3.756 -1.1444 -0.4208  0.1292
  582MOL0     H80315   5.487   5.313   3.675 -0.3624 -1.0115  0.2895
  582MOL0     H80316   5.605   5.409   3.767  0.1480 -0.5403 -1.6771
  583MOL0     O80317   5.712   8.752   5.488 -0.0799 -0.1725 -0.3053
  583MOL0     C80318   5.619   8.724   5.407 -1.0614 -0.6576 -0.0542
  583MOL0     O80319   5.574   8.795   5.297  0.0593  0.2024  0.4394
  583MOL0     C80320   5.612   8.928   5.277  0.0900 -0.2261 -0.4473
  583MOL0     C80321   5.619   8.976   5.151  0.1152 -0.5940  0.3669
  583MOL0     C80322   5.671   9.101   5.122 -0.7191  0.4667 -0.2538
  583MOL0     C80323   5.720   9.189   5.216 -1.1180  0.3497 -0.0680
  583MOL0     O80324   5.765   9.321   5.184 -0.1705 -0.1464 -0.3465
  583MOL0     C80325   5.874   9.367   5.256 -0.0966  0.3383 -0.1021
  583MOL0     C80326   5.991   9.382   5.164  0.4822 -0.5198  0.6245
  583MOL0     C80327   6.132   9.394   5.221 -0.1471  0.5328 -0.3623
  583MOL0     C80328   6.144   9.500   5.328  0.5969  0.0919  0.2435
  583MOL0     C80329   6.276   9.484   5.404  0.0400 -0.3138  0.7319
  583MOL0     C80330   6.296   9.366   5.495  0.8289  0.5518 -0.5170
  583MOL0     C80331   6.216   9.390   5.630 -0.1406  0.2512 -0.3767
  583MOL0     C80332   6.298   9.306   5.740 -0.1880 -0.5030  0.6746
  583MOL0     N80333   6.226   9.305   5.862 -0.2447 -1.1207 -1.1198
  583MOL0     C80334   6.252   9.407   5.962 -0.0740 -0.1978  0.6666
  583MOL0     C80335   6.147   9.400   6.052  0.7811 -0.0159  0.4295
  583MOL0     C80336   6.116   9.485   6.172  0.3573 -0.5478 -0.7269
  583MOL0     C80337   6.068   9.406   6.297  1.6015 -0.2495 -0.0723
  583MOL0     C80338   5.985   9.468   6.406 -0.7764 -0.0902 -0.2191
  583MOL0     C80339   5.968   9.378   6.525 -0.7902 -0.7604 -0.1348
  583MOL0     O80340   5.905   9.255   6.498  0.0655 -0.2559 -0.3534
  583MOL0     C80341   5.788   9.255   6.437 -1.1112 -1.1040  0.4763
  583MOL0     C80342   5.691   9.338   6.487 -0.0519  0.0150  0.1975
  583MOL0     C80343   5.563   9.346   6.435 -1.0564  0.2046 -0.2370
  583MOL0     C80344   5.460   9.447   6.502 -0.5100 -0.3354  0.4804
  583MOL0     C80345   5.537   9.269   6.318 -0.3682  0.6322  0.3697
  583MOL0     C80346   5.400   9.265   6.252  0.7436  0.5967 -0.2885
  583MOL0     O80347   5.367   9.165   6.167  0.4134 -0.9889 -0.6159
  583MOL0     C80348   5.244   9.173   6.114  0.1396 -0.2901 -0.9587
  583MOL0     C80349   5.135   9.164   6.206 -0.8001 -0.2063  0.5706
  583MOL0     C80350   5.002   9.173   6.146  0.3987 -0.5530  0.7817
  583MOL0     C80351   4.983   9.188   6.008 -0.6533 -0.5863 -0.6384
  583MOL0     O80352   4.863   9.195   5.941 -0.3579  0.2928  0.4562
  583MOL0     C80353   4.767   9.289   5.995  0.3828  0.5260 -0.0124
  583MOL0     C80354   4.635   9.224   5.950 -0.6853  0.2728 -0.4666
  583MOL0     C80355   4.621   9.082   6.011  0.2395  0.4888 -0.5292
  583MOL0     C80356   4.481   9.030   6.069  0.0399  0.7147 -1.5941
  583MOL0     C80357   4.488   8.886   6.131  0.4177  0.2888 -0.6800
  583MOL0     C80358   4.362   8.804   6.112 -0.5207 -0.0299  0.1174
  583MOL0     C80359   4.230   8.879   6.129 -0.4052  0.2958 -0.9419
  583MOL0     C80360   4.119   8.786   6.176  0.0616  0.6476 -0.1705
  583MOL0    Cl80361   4.025   8.872   6.304 -0.2850  0.1080 -0.4305
  583MOL0     C80362   5.100   9.202   5.933  0.0949 -0.0668  1.8318
  583MOL0     C80363   5.226   9.201   5.983  0.1577  0.0476  0.0110
  583MOL0     O80364   5.330   9.359   6.279  0.1256  0.8222  0.3271
  583MOL0     C80365   5.642   9.192   6.263  0.0879 -0.6626 -0.1526
  583MOL0     C80366   5.772   9.186   6.321  0.8737 -0.1864  0.0205
  583MOL0     N80367   6.069   9.289   6.015 -0.3469  0.2439  0.4612
  583MOL0     N80368   6.114   9.238   5.902  1.3852  0.5937  0.1816
  583MOL0     C80369   5.693   9.146   5.349 -0.9049 -0.2259 -0.1687
  583MOL0     C80370   5.640   9.016   5.379 -0.2264 -0.6312  0.2023
  583MOL0     C80371   5.544   8.599   5.419 -0.1215  0.1957 -0.7547
  583MOL0     C80372   5.464   8.557   5.311 -0.0153  0.2462  0.5940
  583MOL0     C80373   5.389   8.435   5.325 -0.2303  0.3458 -0.5610
  583MOL0     C80374   5.379   8.357   5.433  0.0200 -0.0731 -0.0578
  583MOL0     O80375   5.292   8.249   5.427 -0.1015 -0.4460 -0.2846
  583MOL0     C80376   5.271   8.174   5.546 -0.2889  0.7491  1.0724
  583MOL0     C80377   5.398   8.092   5.572 -0.0329  1.0238 -0.1385
  583MOL0     C80378   5.388   7.980   5.686 -0.5082  0.9765  0.1900
  583MOL0     C80379   5.464   7.844   5.646  0.9097 -0.3061  0.2500
  583MOL0     C80380   5.374   7.759   5.566  0.9119 -0.3117 -0.1544
  583MOL0     C80381   5.294   7.691   5.514 -0.2354  0.0397  0.3395
  583MOL0     C80382   5.461   8.401   5.543  1.3504 -0.8202  0.0879
  583MOL0     C80383   5.532   8.515   5.538  0.4467  0.0100 -0.4839
  583MOL0     C80384   5.597   8.547   5.678  0.2563  0.3783  0.4526
  583MOL0     H80385   5.600   8.910   5.066  0.8205  3.5804 -3.4117
  583MOL0     H80386   5.677   9.129   5.017 -0.6833 -0.8042 -0.6144
  583MOL0     H80387   5.910   9.295   5.330  0.7808  1.4423  0.5717
  583MOL0     H80388   5.852   9.461   5.308  1.2273 -0.3453  1.7824
  583MOL0     H80389   5.978   9.295   5.098 -5.5737 -0.6535  1.4356
  583MOL0     H80390   5.986   9.469   5.099  0.9147 -1.0003 -0.0703
  583MOL0     H80391   6.141   9.294   5.265  0.4719  0.9907  0.5843
  583MOL0     H80392   6.208   9.424   5.148  0.3992  1.6431  0.6277
  583MOL0     H80393   6.124   9.600   5.290 -1.7796 -0.4230 -0.0165
  583MOL0     H80394   6.067   9.474   5.401 -0.7817  0.5227 -1.0166
  583MOL0     H80395   6.294   9.577   5.459  2.1098  1.7394 -3.0331
  583MOL0     H80396   6.362   9.492   5.337 -1.5155  2.6717 -1.1497
  583MOL0     H80397   6.247   9.283   5.444 -4.6631  2.0433  1.5551
  583MOL0     H80398   6.399   9.345   5.525  1.1441 -0.8568 -2.4133
  583MOL0     H80399   6.110   9.363   5.624 -0.8547  3.0760 -2.6901
  583MOL0     H80400   6.218   9.497   5.649 -1.4596  0.2066  0.1185
  583MOL0     H80401   6.304   9.200   5.716  0.6701 -0.6354  1.4130
  583MOL0     H80402   6.402   9.338   5.748  0.0781 -0.9884 -0.6163
  583MOL0     H80403   6.333   9.476   5.941 -0.4600 -0.1507 -0.7208
  583MOL0     H80404   6.041   9.563   6.156 -1.5974 -1.6461  2.2233
  583MOL0     H80405   6.215   9.530   6.183  0.5644 -0.7621 -1.6088
  583MOL0     H80406   5.998   9.332   6.258  2.3992 -0.8710 -0.3547
  583MOL0     H80407   6.150   9.358   6.352  0.4276  0.0875  2.1116
  583MOL0     H80408   6.039   9.558   6.435  0.4393 -0.8666  0.0334
  583MOL0     H80409   5.890   9.501   6.363 -1.5791  0.7198  2.0510
  583MOL0     H80410   6.069   9.370   6.566 -0.1659 -2.5047 -1.8808
  583MOL0     H80411   5.905   9.430   6.599  1.1343 -1.4914  2.1412
  583MOL0     H80412   5.695   9.413   6.566 -0.9286  0.1470  0.1270
  583MOL0     H80413   5.448   9.529   6.430  2.5069 -1.3834 -1.3708
  583MOL0     H80414   5.491   9.485   6.600 -1.5210 -0.8041  1.0035
  583MOL0     H80415   5.365   9.397   6.523 -0.0675 -0.7134  1.6712
  583MOL0     H80416   5.144   9.156   6.314 -1.3139  2.8921  0.9412
  583MOL0     H80417   4.914   9.149   6.204  0.6739  0.6737  1.7596
  583MOL0     H80418   4.778   9.320   6.099 -0.4607  3.5396 -0.7166
  583MOL0     H80419   4.766   9.373   5.925 -4.1215  0.0991 -0.7267
  583MOL0     H80420   4.553   9.283   5.990 -0.3354  0.0984  0.5215
  583MOL0     H80421   4.627   9.227   5.841  2.0207  0.7950 -0.7218
  583MOL0     H80422   4.678   9.088   6.104  0.3096 -0.9902 -0.4562
  583MOL0     H80423   4.671   9.014   5.942  1.5857 -0.7291  1.5228
  583MOL0     H80424   4.405   9.029   5.990 -2.7408  1.0625  0.9171
  583MOL0     H80425   4.444   9.102   6.142  3.4114  0.3965  0.6225
  583MOL0     H80426   4.574   8.833   6.089 -0.0150 -1.4636  0.5307
  583MOL0     H80427   4.517   8.884   6.237  2.8706  0.1655 -1.2945
  583MOL0     H80428   4.368   8.716   6.177 -1.9194 -1.0767 -1.1040
  583MOL0     H80429   4.360   8.751   6.016 -1.8381  0.7320 -0.3061
  583MOL0     H80430   4.204   8.930   6.036 -1.2479  4.2326  1.2317
  583MOL0     H80431   4.242   8.969   6.190  0.6178  1.8731 -3.3293
  583MOL0     H80432   4.153   8.691   6.220  2.0605  2.4100  2.4398
  583MOL0     H80433   4.048   8.767   6.095  0.8895  0.3495 -0.8415
  583MOL0     H80434   5.087   9.224   5.827  3.4904 -3.1295  0.5419
  583MOL0     H80435   5.298   9.219   5.904  1.7565  0.0370  1.3899
  583MOL0     H80436   5.607   9.133   6.178 -4.4034  0.7381  0.4713
  583MOL0     H80437   5.852   9.120   6.290  2.2977  0.1500  2.6658
  583MOL0     H80438   5.698   9.213   5.434 -1.0744 -0.1613 -0.2093
  583MOL0     H80439   5.634   8.997   5.486  2.5126 -1.8411  0.2335
  583MOL0     H80440   5.473   8.611   5.217 -0.6230 -0.4204  0.1493
  583MOL0     H80441   5.335   8.404   5.236 -0.7429  0.9117 -0.4624
  583MOL0     H80442   5.235   8.235   5.630 -4.5220 -2.0150  1.5806
  583MOL0     H80443   5.188   8.104   5.535  0.3636 -0.0570  1.2011
  583MOL0     H80444   5.485   8.153   5.595  0.2282  0.0031  1.8642
  583MOL0     H80445   5.412   8.036   5.479 -1.3330 -1.6168  1.1391
  583MOL0     H80446   5.432   8.016   5.780  2.1819 -0.0808 -0.5454
  583MOL0     H80447   5.282   7.960   5.703 -0.5453 -1.4581 -2.1951
  583MOL0     H80448   5.500   7.800   5.740 -1.9448  1.1348  2.2011
  583MOL0     H80449   5.550   7.876   5.587  1.7128 -0.4350  1.3116
  583MOL0     H80450   5.240   7.615   5.461 -0.1813 -0.0416  0.4012
  583MOL0     H80451   5.440   8.351   5.637 -2.5248 -2.2305 -1.3139
  583MOL0     H80452   5.664   8.467   5.709 -1.4390 -0.9762  0.8064
  583MOL0     H80453   5.639   8.648   5.688  2.5223 -0.0131 -3.3540
  583MOL0     H80454   5.519   8.535   5.754  0.4991  3.1815  1.2842
  584MOL0     O80455   6.098   2.629  10.073  0.3272 -0.3607 -0.7224
  584MOL0     C80456   6.012   2.582  10.145  1.2087 -0.6564 -0.4290
  584MOL0     O80457   5.924   2.485  10.104 -0.0057  0.0396 -0.8171
  584MOL0     C80458   5.896   2.461   9.968  0.1498 -1.0833 -0.0322
  584MOL0     C80459   5.824   2.349   9.942  0.0112  0.8777 -0.6474
  584MOL0     C80460   5.768   2.323   9.806  1.2155  0.3038  0.2344
  584MOL0     C80461   5.797   2.408   9.696 -0.5569  0.0542  0.0495
  584MOL0     O80462   5.765   2.379   9.565  0.9707  0.2553  0.3196
  584MOL0     C80463   5.701   2.254   9.525 -0.5947  0.2520  0.1950
  584MOL0     C80464   5.546   2.281   9.491  0.1857  0.7985 -0.5378
  584MOL0     C80465   5.469   2.276   9.621  0.1984  0.2445  0.2782
  584MOL0     C80466   5.444   2.417   9.673  0.3467 -0.2750 -0.7838
  584MOL0     C80467   5.399   2.404   9.829  0.5991  0.7376  1.5566
  584MOL0     C80468   5.327   2.526   9.877 -0.0403 -0.1000  0.1482
  584MOL0     C80469   5.420   2.644   9.932 -0.3028 -0.6352  0.7198
  584MOL0     C80470   5.465   2.624  10.080 -0.1912 -0.4522  0.2491
  584MOL0     N80471   5.482   2.765  10.144  0.0426  0.3509  0.6528
  584MOL0     C80472   5.595   2.823  10.181  0.0600 -0.7042 -0.0210
  584MOL0     C80473   5.576   2.946  10.227  0.5033 -1.1263  0.3079
  584MOL0     C80474   5.688   3.042  10.240 -0.0070  0.0605  0.8092
  584MOL0     C80475   5.747   3.043  10.387 -0.2560  0.6007  1.0056
  584MOL0     C80476   5.638   3.075  10.497  0.0722  1.2539  0.1235
  584MOL0     C80477   5.596   3.219  10.480  0.2276  0.6674 -0.7272
  584MOL0     O80478   5.517   3.263  10.593 -0.8013  0.5503  0.4897
  584MOL0     C80479   5.580   3.296  10.713  0.1187 -0.2522 -0.4162
  584MOL0     C80480   5.493   3.328  10.817 -0.3166  0.0030  0.2508
  584MOL0     C80481   5.536   3.375  10.939 -0.1381 -0.3070  0.4553
  584MOL0     C80482   5.445   3.416  11.045  0.6603  0.4800  0.9857
  584MOL0     C80483   5.680   3.400  10.963  0.1149 -0.1899 -0.0932
  584MOL0     C80484   5.739   3.472  11.072 -0.5692  0.6150  0.0315
  584MOL0     O80485   5.863   3.436  11.109  0.6437 -1.0611  0.4154
  584MOL0     C80486   5.907   3.494  11.221  0.3055  0.4422 -0.4660
  584MOL0     C80487   6.004   3.592  11.231  0.7543  1.2467  0.3565
  584MOL0     C80488   6.056   3.627  11.351 -0.2867 -0.6606 -0.2655
  584MOL0     C80489   6.013   3.557  11.469  0.1037  0.6877  0.0521
  584MOL0     O80490   6.082   3.553  11.593  0.7057 -0.0620  0.1630
  584MOL0     C80491   6.135   3.682  11.641 -0.7212  0.0968 -0.1867
  584MOL0     C80492   6.105   3.706  11.790  0.0081  0.4501  0.1308
  584MOL0     C80493   5.953   3.721  11.817 -0.2484 -0.7157  0.1943
  584MOL0     C80494   5.930   3.708  11.974 -0.1442 -0.1742  0.5433
  584MOL0     C80495   5.783   3.727  12.004  0.4243  0.6404 -0.7623
  584MOL0     C80496   5.728   3.860  11.972  0.0550  0.6901  1.2195
  584MOL0     C80497   5.604   3.899  12.049 -0.5321 -0.1019  1.0701
  584MOL0     C80498   5.628   3.958  12.190 -0.7382  0.8709 -0.1075
  584MOL0    Cl80499   5.469   3.926  12.268 -0.5720 -0.1601 -0.6155
  584MOL0     C80500   5.912   3.463  11.460 -0.5513 -0.3231 -0.1929
  584MOL0     C80501   5.861   3.436  11.337  0.2132  0.3481 -0.3343
  584MOL0     O80502   5.666   3.556  11.122  0.5648 -0.2293  0.7318
  584MOL0     C80503   5.759   3.371  10.856 -0.2135 -0.0531  0.5588
  584MOL0     C80504   5.715   3.314  10.737 -0.3299  1.1086 -0.3653
  584MOL0     N80505   5.441   2.974  10.209  0.5838  0.4248 -0.3790
  584MOL0     N80506   5.385   2.862  10.160  0.2549  0.2544  0.2685
  584MOL0     C80507   5.878   2.519   9.729 -1.2277  0.3902 -0.4808
  584MOL0     C80508   5.918   2.544   9.863  0.1412 -0.1451  0.4846
  584MOL0     C80509   5.993   2.635  10.285  1.1535  0.3981  0.9480
  584MOL0     C80510   5.867   2.619  10.342  0.2380 -0.2937 -0.4132
  584MOL0     C80511   5.841   2.673  10.466  0.9788 -0.6297 -0.5528
  584MOL0     C80512   5.938   2.732  10.538  1.0896 -0.2213 -0.8494
  584MOL0     O80513   5.901   2.791  10.656  0.7764  0.3950 -0.6052
  584MOL0     C80514   5.985   2.786  10.777 -0.5952  0.9558 -0.3691
  584MOL0     C80515   5.897   2.766  10.894  0.3705 -0.2845  0.4927
  584MOL0     C80516   5.810   2.641  10.885  0.3287 -0.4515  0.1828
  584MOL0     C80517   5.787   2.566  11.018 -0.5549  0.1271 -0.0423
  584MOL0     C80518   5.897   2.472  11.056  0.6034  0.1838 -0.3168
  584MOL0     C80519   5.980   2.382  11.076 -0.6326  1.0570 -0.8052
  584MOL0     C80520   6.060   2.733  10.492 -0.2474  0.3834 -0.4866
  584MOL0     C80521   6.087   2.693  10.363 -0.9075  0.0417 -0.6697
  584MOL0     C80522   6.234   2.705  10.323 -0.5383  0.5467 -0.6145
  584MOL0     H80523   5.798   2.281  10.023  1.2720  1.9983  0.7664
  584MOL0     H80524   5.715   2.228   9.796 -0.0843  0.4745  3.8891
  584MOL0     H80525   5.710   2.166   9.590 -0.1659 -0.6610 -1.0512
  584MOL0     H80526   5.761   2.237   9.434 -0.0524  2.3098  0.1281
  584MOL0     H80527   5.512   2.371   9.439 -1.7227  0.7330  0.4764
  584MOL0     H80528   5.514   2.198   9.427  0.4535  0.3109 -0.0451
  584MOL0     H80529   5.381   2.214   9.601  1.8166 -2.8587  1.9747
  584MOL0     H80530   5.525   2.217   9.695  1.5452  1.9791  0.7136
  584MOL0     H80531   5.524   2.491   9.668  1.1500 -1.0730 -0.2420
  584MOL0     H80532   5.359   2.456   9.618 -0.2695  2.0632  1.6165
  584MOL0     H80533   5.476   2.376   9.901 -0.1007 -3.1685  0.9855
  584MOL0     H80534   5.329   2.320   9.829  1.0244  0.3739  0.4735
  584MOL0     H80535   5.263   2.557   9.794  2.2211 -0.4275 -1.8370
  584MOL0     H80536   5.262   2.499   9.961 -0.7990  0.1014 -0.3671
  584MOL0     H80537   5.358   2.733   9.918 -1.4399 -1.1793  2.0563
  584MOL0     H80538   5.509   2.664   9.873 -1.0885 -1.1817 -0.6914
  584MOL0     H80539   5.378   2.581  10.132 -2.5016  3.5959  0.1324
  584MOL0     H80540   5.563   2.576  10.092  0.6375  1.6996  3.6370
  584MOL0     H80541   5.698   2.791  10.167 -0.5572 -2.9023  0.0027
  584MOL0     H80542   5.655   3.141  10.208  0.9803  0.1340 -0.0389
  584MOL0     H80543   5.760   3.013  10.163  1.8236 -1.7517  3.0372
  584MOL0     H80544   5.797   2.946  10.402  0.0683  0.2291 -1.9329
  584MOL0     H80545   5.819   3.123  10.405  0.4135  1.0807 -3.0035
  584MOL0     H80546   5.552   3.010  10.479  0.7587  0.0907  0.9914
  584MOL0     H80547   5.679   3.078  10.599  0.9205 -0.4214 -0.1479
  584MOL0     H80548   5.681   3.287  10.466 -0.4817  1.9258  0.7022
  584MOL0     H80549   5.535   3.229  10.390 -1.8664 -1.7911  0.3061
  584MOL0     H80550   5.388   3.344  10.796 -0.3358 -1.0290 -0.5429
  584MOL0     H80551   5.427   3.524  11.038  1.7219  0.6131  0.1982
  584MOL0     H80552   5.465   3.389  11.150 -0.5367  2.8980  1.9086
  584MOL0     H80553   5.347   3.381  11.011  1.0031  2.9774 -3.1905
  584MOL0     H80554   6.033   3.632  11.134 -2.9495  1.8281 -0.6540
  584MOL0     H80555   6.134   3.701  11.354 -3.0210  2.4084  0.9503
  584MOL0     H80556   6.243   3.665  11.638 -0.3797  2.0889 -1.1863
  584MOL0     H80557   6.111   3.765  11.574  3.0569  1.1584 -0.4751
  584MOL0     H80558   6.143   3.627  11.855 -1.9799 -0.1028  0.6666
  584MOL0     H80559   6.153   3.800  11.819  5.9268 -1.4575 -1.9667
  584MOL0     H80560   5.902   3.637  11.768  1.6484  0.1929 -3.7521
  584MOL0     H80561   5.921   3.817  11.776  2.7679 -0.0400 -0.7741
  584MOL0     H80562   5.980   3.793  12.020 -0.4584 -0.6492  1.7992
  584MOL0     H80563   5.977   3.619  12.017  1.8003  0.6721  0.2472
  584MOL0     H80564   5.710   3.655  11.965 -1.3227  2.0235 -0.1977
  584MOL0     H80565   5.776   3.720  12.113 -3.5967 -0.2601 -0.9066
  584MOL0     H80566   5.703   3.853  11.866  1.1927  1.9135  0.8336
  584MOL0     H80567   5.804   3.938  11.985  0.9050 -0.2570  2.0848
  584MOL0     H80568   5.548   3.805  12.054  3.4172 -2.7245  0.0378
  584MOL0     H80569   5.550   3.968  11.984  1.2521  1.7015  1.4134
  584MOL0     H80570   5.655   4.063  12.173  1.7542  0.4801  0.9199
  584MOL0     H80571   5.712   3.904  12.235 -0.6295  0.8859 -0.2892
  584MOL0     H80572   5.879   3.411  11.549 -0.5314  1.3193  0.7923
  584MOL0     H80573   5.787   3.358  11.321  2.0549 -1.2506 -1.6807
  584MOL0     H80574   5.866   3.376  10.873  0.1482 -1.4675 -1.0440
  584MOL0     H80575   5.790   3.307  10.659 -0.5167 -0.4429 -0.4348
  584MOL0     H80576   5.886   2.604   9.661 -0.0255  0.2371 -0.5470
  584MOL0     H80577   5.974   2.636   9.876  1.2109 -1.0731  2.8471
  584MOL0     H80578   5.793   2.573  10.277  0.7589  0.3283 -1.4804
  584MOL0     H80579   5.741   2.682  10.506  1.3003  1.3792 -0.0745
  584MOL0     H80580   6.068   2.715  10.779  1.1872  2.9582  1.3712
  584MOL0     H80581   6.035   2.881  10.796 -0.7298  1.0730 -0.5892
  584MOL0     H80582   5.831   2.851  10.912  2.0041  1.4182 -0.9967
  584MOL0     H80583   5.964   2.752  10.979  0.0054  2.8837  1.4130
  584MOL0     H80584   5.708   2.670  10.858  1.1957  5.1617  1.6231
  584MOL0     H80585   5.845   2.576  10.803  0.5000  0.7273 -0.7046
  584MOL0     H80586   5.698   2.502  11.021 -1.1977  0.4907 -4.7397
  584MOL0     H80587   5.778   2.632  11.105 -0.6860 -3.1856  2.6790
  584MOL0     H80588   6.051   2.304  11.094 -0.3481  0.5716 -3.5308
  584MOL0     H80589   6.138   2.774  10.555  2.4608 -3.5496 -0.8901
  584MOL0     H80590   6.289   2.771  10.391 -0.9066  0.1006  0.1320
  584MOL0     H80591   6.278   2.606  10.331 -2.1574 -0.0319  4.2686
  584MOL0     H80592   6.264   2.744  10.225  1.8168 -0.8302 -0.5219
  585MOL0     O80593  10.780  10.089   9.576 -0.9361  0.5331  0.1397
  585MOL0     C80594  10.722  10.190   9.611  0.1840  0.0361  0.2499
  585MOL0     O80595  10.598  10.225   9.571 -0.9045 -0.3211  0.4685
  585MOL0     C80596  10.556  10.166   9.457  0.4198 -0.1783  0.0067
  585MOL0     C80597  10.609  10.203   9.333  0.8245 -0.4071 -0.0981
  585MOL0     C80598  10.568  10.138   9.214  0.2149  0.9077 -0.4570
  585MOL0     C80599  10.484  10.030   9.221  0.3235  0.5468 -0.6002
  585MOL0     O80600  10.454   9.958   9.105  0.0813  0.1334 -0.2305
  585MOL0     C80601  10.552   9.967   8.999  0.0196 -0.0478  0.3966
  585MOL0     C80602  10.490   9.883   8.874  0.4557 -0.4485 -0.0944
  585MOL0     C80603  10.451   9.744   8.928  0.4584  0.2955 -0.7646
  585MOL0     C80604  10.415   9.645   8.820 -0.3050 -1.2826 -0.3120
  585MOL0     C80605  10.290   9.574   8.853 -0.4489  0.3734 -0.2768
  585MOL0     C80606  10.260   9.467   8.749  0.0200  0.4622  0.0964
  585MOL0     C80607  10.135   9.386   8.778 -1.0179  0.2829  0.2311
  585MOL0     C80608   9.996   9.461   8.771 -0.8271 -0.4627 -0.3776
  585MOL0     N80609   9.887   9.377   8.813  0.0217  0.2581  0.9036
  585MOL0     C80610   9.846   9.262   8.739  0.4188  0.3670  0.3474
  585MOL0     C80611   9.755   9.199   8.823 -0.5507  0.6591 -0.3535
  585MOL0     C80612   9.679   9.078   8.782  0.8232 -1.1124 -0.6343
  585MOL0     C80613   9.733   8.947   8.839  0.9702 -0.0990 -0.3559
  585MOL0     C80614   9.879   8.924   8.809 -0.2299  0.4878  0.2035
  585MOL0     C80615   9.959   9.000   8.914 -0.4524  0.4639  0.0088
  585MOL0     O80616  10.053   8.927   8.996  0.0252 -0.2632 -0.2989
  585MOL0     C80617  10.140   8.978   9.086  0.8957  0.3291  0.3557
  585MOL0     C80618  10.138   9.116   9.114  0.8259  0.2058  0.5211
  585MOL0     C80619  10.195   9.169   9.233 -0.5986 -0.9299  0.1089
  585MOL0     C80620  10.174   9.320   9.256 -0.1383 -0.1786  0.0444
  585MOL0     C80621  10.263   9.083   9.316  0.4900 -0.2309  1.0042
  585MOL0     C80622  10.301   9.128   9.461 -0.6621 -0.0169  0.5417
  585MOL0     O80623  10.323   9.258   9.504 -0.3952 -0.5523  0.5641
  585MOL0     C80624  10.352   9.287   9.636 -0.5685 -0.2460  0.0568
  585MOL0     C80625  10.485   9.297   9.682 -1.1535 -0.8612  0.0252
  585MOL0     C80626  10.522   9.330   9.811  0.6388  0.1352 -0.5141
  585MOL0     C80627  10.416   9.358   9.907 -0.3557  0.0619 -0.3203
  585MOL0     O80628  10.447   9.393  10.032  0.1317 -0.2503  0.1893
  585MOL0     C80629  10.447   9.285  10.117  0.7500 -0.3636 -0.3763
  585MOL0     C80630  10.570   9.200  10.127 -0.2034 -0.3553  0.3857
  585MOL0     C80631  10.684   9.249  10.226  0.0922 -0.3913  0.5409
  585MOL0     C80632  10.824   9.233  10.171  0.2277 -0.4060 -0.5458
  585MOL0     C80633  10.945   9.281  10.257 -0.3651 -0.4046  0.9166
  585MOL0     C80634  11.080   9.287  10.166  0.7773  0.8863 -0.1793
  585MOL0     C80635  11.131   9.146  10.122 -0.5946 -0.8019  0.6667
  585MOL0     C80636  11.208   9.066  10.236  0.4387 -0.9496 -0.5882
  585MOL0    Cl80637  11.246   8.907  10.193 -0.0627  0.1519  0.7890
  585MOL0     C80638  10.281   9.340   9.863 -0.4889  0.8408  0.0264
  585MOL0     C80639  10.251   9.304   9.731 -0.3072  0.2308 -0.5551
  585MOL0     O80640  10.290   9.032   9.537  0.3392 -0.1631 -0.4526
  585MOL0     C80641  10.268   8.945   9.277 -0.5725 -0.4071 -0.7755
  585MOL0     C80642  10.205   8.890   9.166  0.2920  0.0541 -1.4264
  585MOL0     N80643   9.753   9.260   8.947 -1.0895 -0.0271  0.3735
  585MOL0     N80644   9.831   9.360   8.933  0.4724  0.7785 -1.3701
  585MOL0     C80645  10.414  10.008   9.347  0.8339 -0.7325  0.2988
  585MOL0     C80646  10.452  10.073   9.468 -0.2591 -0.0959  0.3015
  585MOL0     C80647  10.796  10.297   9.689  0.8687 -0.1334 -0.4536
  585MOL0     C80648  10.740  10.419   9.694 -0.7453 -0.7153  0.0429
  585MOL0     C80649  10.794  10.518   9.776  0.0411  1.1424 -0.6318
  585MOL0     C80650  10.900  10.508   9.855  0.1608  0.4671 -0.0995
  585MOL0     O80651  10.945  10.612   9.935  0.4039  0.1919  0.3655
  585MOL0     C80652  10.919  10.578  10.076 -0.5773  0.1809  0.6514
  585MOL0     C80653  10.778  10.547  10.105 -0.4209 -0.0365 -0.4350
  585MOL0     C80654  10.685  10.657  10.068  0.8347 -0.3569 -0.4498
  585MOL0     C80655  10.718  10.795  10.116 -0.4592 -0.1828 -1.1777
  585MOL0     C80656  10.748  10.794  10.267  0.0588  0.6625 -0.2147
  585MOL0     C80657  10.766  10.796  10.384  0.7267 -0.9022 -0.2010
  585MOL0     C80658  10.974  10.392   9.834  0.4407  0.3237 -0.4616
  585MOL0     C80659  10.926  10.283   9.759  0.0873  0.1365  0.1762
  585MOL0     C80660  11.006  10.154   9.753 -1.0039 -0.2182 -0.7556
  585MOL0     H80661  10.678  10.287   9.332  1.9025 -1.2717  0.3430
  585MOL0     H80662  10.617  10.171   9.123  1.4855  0.6706  0.1246
  585MOL0     H80663  10.641   9.916   9.038 -1.3058 -1.4325  1.7231
  585MOL0     H80664  10.574  10.068   8.964 -0.6615 -0.2824 -0.7681
  585MOL0     H80665  10.422   9.943   8.814  0.8146 -0.3925 -0.4480
  585MOL0     H80666  10.567   9.869   8.798  0.5240  1.8780 -0.5048
  585MOL0     H80667  10.524   9.708   9.001 -0.8961 -0.4533  0.2810
  585MOL0     H80668  10.363   9.773   8.987  2.9552  0.5017  3.2574
  585MOL0     H80669  10.390   9.697   8.727 -0.2700 -1.4196 -0.3986
  585MOL0     H80670  10.496   9.573   8.803  0.3300 -0.6454 -0.0083
  585MOL0     H80671  10.204   9.641   8.865  1.0936  2.3761  0.1677
  585MOL0     H80672  10.299   9.524   8.950 -0.7380 -2.9648 -1.8315
  585MOL0     H80673  10.260   9.529   8.659  2.4921 -1.6173 -1.4660
  585MOL0     H80674  10.351   9.408   8.733  0.5020  0.5486  2.1663
  585MOL0     H80675  10.157   9.339   8.874  2.9929 -2.0991 -1.6107
  585MOL0     H80676  10.137   9.302   8.708  3.5137  0.7905 -0.5886
  585MOL0     H80677  10.006   9.543   8.844  1.6471 -1.6596  0.7579
  585MOL0     H80678   9.980   9.489   8.667  1.8707  2.0729 -0.2495
  585MOL0     H80679   9.885   9.237   8.641 -0.2981  2.4778 -0.5475
  585MOL0     H80680   9.680   9.081   8.673 -0.5273  0.2869 -0.6342
  585MOL0     H80681   9.573   9.089   8.808 -0.7250  0.5905 -6.3563
  585MOL0     H80682   9.712   8.940   8.946 -0.8974 -0.0006 -0.6709
  585MOL0     H80683   9.680   8.867   8.786  0.2654  1.3790 -1.9947
  585MOL0     H80684   9.909   8.821   8.827 -0.9225  0.4594  1.3012
  585MOL0     H80685   9.902   8.955   8.707 -0.5845  0.5469  0.1390
  585MOL0     H80686  10.007   9.090   8.874 -0.5165  0.4240 -0.1572
  585MOL0     H80687   9.883   9.033   8.986 -1.0891  0.8811 -0.8310
  585MOL0     H80688  10.099   9.183   9.037  0.5444 -0.0251  0.4622
  585MOL0     H80689  10.088   9.362   9.204  0.2439 -0.2615 -0.6762
  585MOL0     H80690  10.267   9.376   9.241  0.2683 -0.8227  0.1476
  585MOL0     H80691  10.142   9.322   9.360 -2.1405 -0.0359 -0.5400
  585MOL0     H80692  10.561   9.284   9.606 -1.1932  1.6832 -0.5572
  585MOL0     H80693  10.625   9.342   9.843  0.0909 -0.5021  1.6437
  585MOL0     H80694  10.429   9.317  10.220 -3.2460  0.0518 -1.0201
  585MOL0     H80695  10.364   9.218  10.092  2.3580 -2.3350 -0.6885
  585MOL0     H80696  10.548   9.095  10.150 -1.2032  0.3269  2.8672
  585MOL0     H80697  10.610   9.187  10.026  0.4566 -5.9483  1.0524
  585MOL0     H80698  10.674   9.198  10.322 -1.3255 -0.7424  0.2323
  585MOL0     H80699  10.664   9.354  10.244  2.4632 -0.1618  2.4088
  585MOL0     H80700  10.826   9.292  10.079 -0.0629 -0.0714 -0.3429
  585MOL0     H80701  10.828   9.125  10.157  1.4377 -1.7207  6.2700
  585MOL0     H80702  10.921   9.382  10.293 -0.9002 -0.1777 -0.0425
  585MOL0     H80703  10.952   9.207  10.337 -0.0216 -0.0132  1.2537
  585MOL0     H80704  11.155   9.335  10.228 -0.0653 -0.7181  2.2281
  585MOL0     H80705  11.059   9.337  10.071 -0.7546 -1.5668 -1.2527
  585MOL0     H80706  11.194   9.157  10.033  0.7573  2.4193  1.8690
  585MOL0     H80707  11.046   9.085  10.092 -0.2548 -1.2967  0.6934
  585MOL0     H80708  11.148   9.059  10.327  1.2818 -2.4692 -0.1205
  585MOL0     H80709  11.303   9.109  10.268  0.0584  0.0998 -0.7987
  585MOL0     H80710  10.202   9.349   9.938 -1.7365 -4.1554 -0.3354
  585MOL0     H80711  10.147   9.307   9.702  0.5519  0.0133 -4.1242
  585MOL0     H80712  10.316   8.878   9.348 -1.0345  2.0582  2.0783
  585MOL0     H80713  10.203   8.782   9.149 -1.7783 -0.0579 -0.7584
  585MOL0     H80714  10.334   9.935   9.358  0.8360 -1.3094 -2.5431
  585MOL0     H80715  10.401  10.031   9.555  2.4614  0.2552  2.2033
  585MOL0     H80716  10.637  10.438   9.665 -1.5230 -1.5626  2.0628
  585MOL0     H80717  10.741  10.612   9.771 -1.0294  0.8257  2.5943
  585MOL0     H80718  10.987  10.497  10.105  2.0391  2.7232  2.0966
  585MOL0     H80719  10.950  10.667  10.132  3.1603 -0.6788  0.2477
  585MOL0     H80720  10.780  10.524  10.212  2.2930  0.4520 -0.3006
  585MOL0     H80721  10.759  10.449  10.060 -3.1502 -1.6682  3.6943
  585MOL0     H80722  10.684  10.674   9.960 -0.2053  2.7622 -0.0321
  585MOL0     H80723  10.585  10.627  10.101 -0.2720  3.3615  0.0013
  585MOL0     H80724  10.623  10.848  10.102 -0.8944 -1.4311 -3.5127
  585MOL0     H80725  10.803  10.839  10.064  0.9321  0.6115  1.5839
  585MOL0     H80726  10.771  10.797  10.491  3.6306 -1.1760 -0.2490
  585MOL0     H80727  11.070  10.370   9.880 -0.2492 -2.1194 -0.0550
  585MOL0     H80728  11.025  10.119   9.651 -0.2425  1.4673 -1.2337
  585MOL0     H80729  11.105  10.155   9.800 -0.3842  0.4429 -2.0225
  585MOL0     H80730  10.941  10.085   9.808  0.0707  0.5644  1.6370
  586MOL0     O80731   1.107   0.089   5.614 -0.6443  0.2529  0.0075
  586MOL0     C80732   1.054   0.023   5.702 -0.5582 -0.0627 -0.2318
  586MOL0     O80733   0.989  -0.101   5.683 -0.3255 -0.1888 -0.3317
  586MOL0     C80734   1.010  -0.176   5.565 -0.0200 -0.4689 -0.4838
  586MOL0     C80735   1.136  -0.200   5.505  0.4766  0.7322 -0.3549
  586MOL0     C80736   1.161  -0.293   5.411  1.2115 -0.5031 -1.1477
  586MOL0     C80737   1.055  -0.364   5.359 -0.8491  0.8744  0.1496
  586MOL0     O80738   1.075  -0.467   5.271 -0.1203  0.5431 -0.3416
  586MOL0     C80739   0.996  -0.455   5.159 -0.1156 -0.5679  0.2167
  586MOL0     C80740   0.988  -0.595   5.091  0.2939 -0.3289 -0.3151
  586MOL0     C80741   1.113  -0.663   5.043  0.5830  0.4262  0.4529
  586MOL0     C80742   1.212  -0.707   5.160  0.5975  0.0518  0.2256
  586MOL0     C80743   1.322  -0.791   5.101  0.7455 -0.2366  0.8980
  586MOL0     C80744   1.277  -0.943   5.097 -0.5786 -0.9957  0.0127
  586MOL0     C80745   1.254  -0.993   5.246 -0.8942  0.8585 -0.4862
  586MOL0     C80746   1.214  -1.138   5.253 -0.2942  0.2245  0.0110
  586MOL0     N80747   1.238  -1.193   5.390 -0.0741 -0.1704  0.7686
  586MOL0     C80748   1.159  -1.171   5.498  0.1016 -0.5615 -0.6051
  586MOL0     C80749   1.222  -1.231   5.602  0.6078 -0.1144  0.0586
  586MOL0     C80750   1.172  -1.230   5.746  0.7558  0.1197 -0.3046
  586MOL0     C80751   1.165  -1.095   5.805  0.9810  0.9267 -0.4729
  586MOL0     C80752   1.306  -1.039   5.812 -0.7078  0.3797 -0.3383
  586MOL0     C80753   1.343  -0.942   5.688  0.7368  0.2070  0.0952
  586MOL0     O80754   1.458  -0.876   5.724 -0.1056 -0.6736 -0.6055
  586MOL0     C80755   1.585  -0.929   5.718 -0.0473  0.0708  1.4953
  586MOL0     C80756   1.681  -0.845   5.757  0.0576  0.5794  1.3587
  586MOL0     C80757   1.819  -0.880   5.765  0.7483  0.3524  0.7708
  586MOL0     C80758   1.912  -0.772   5.812  0.0145  0.2975  0.3693
  586MOL0     C80759   1.850  -1.020   5.745  0.0799  0.4652  0.2396
  586MOL0     C80760   1.988  -1.070   5.755 -0.7088 -0.2426  0.7845
  586MOL0     O80761   2.085  -0.984   5.792 -0.0351  0.3053 -0.1508
  586MOL0     C80762   2.220  -1.019   5.773 -0.1533  0.7164  0.0450
  586MOL0     C80763   2.286  -1.000   5.642 -0.1897 -1.0700 -0.7621
  586MOL0     C80764   2.416  -1.047   5.630 -0.7041 -0.2783 -0.9149
  586MOL0     C80765   2.489  -1.098   5.733 -0.0097 -0.7554 -0.2691
  586MOL0     O80766   2.613  -1.135   5.718 -0.1824  0.1990  1.4472
  586MOL0     C80767   2.719  -1.049   5.770  0.4035 -0.0239  0.0761
  586MOL0     C80768   2.859  -1.104   5.779  0.0395  0.1683 -0.0687
  586MOL0     C80769   2.930  -1.065   5.652  0.6133 -0.4444 -0.2902
  586MOL0     C80770   3.070  -1.122   5.632 -0.6221  0.3025 -1.1804
  586MOL0     C80771   3.180  -1.099   5.743 -0.6544 -0.0416  0.5702
  586MOL0     C80772   3.319  -1.156   5.705 -0.6597 -1.0375  0.6039
  586MOL0     C80773   3.384  -1.065   5.602 -0.5035  0.1363  0.7800
  586MOL0     C80774   3.529  -1.101   5.560 -0.6765  0.8654 -0.6617
  586MOL0    Cl80775   3.535  -1.259   5.468 -0.2700 -0.6393  0.4389
  586MOL0     C80776   2.432  -1.109   5.857  0.1543 -0.7314  0.3831
  586MOL0     C80777   2.296  -1.075   5.885 -0.1173 -0.3016 -0.3970
  586MOL0     O80778   2.008  -1.184   5.701  0.1788 -0.4252  0.2290
  586MOL0     C80779   1.746  -1.113   5.710  0.5621  0.1930 -0.2111
  586MOL0     C80780   1.612  -1.067   5.693  0.2682  0.0358 -0.1079
  586MOL0     N80781   1.346  -1.269   5.555  0.0146  0.1670 -0.1312
  586MOL0     N80782   1.355  -1.250   5.425 -0.2870 -0.8666 -0.1578
  586MOL0     C80783   0.929  -0.346   5.409 -0.1473 -0.0623 -0.0186
  586MOL0     C80784   0.910  -0.252   5.513 -0.0836  0.2970 -0.2506
  586MOL0     C80785   1.054   0.085   5.842 -0.2552  0.0497  0.3249
  586MOL0     C80786   1.055   0.223   5.859  0.0249  0.4414 -0.0677
  586MOL0     C80787   1.035   0.281   5.974 -0.1337 -1.1455 -0.5271
  586MOL0     C80788   1.012   0.199   6.091 -0.8027  0.1667 -0.0343
  586MOL0     O80789   0.972   0.269   6.204  0.5828  0.3099 -0.1834
  586MOL0     C80790   1.067   0.267   6.307  0.1721 -0.7181 -0.4140
  586MOL0     C80791   1.148   0.405   6.298 -0.6414 -0.0683  0.6601
  586MOL0     C80792   1.275   0.377   6.207 -0.4398 -0.1189  0.2529
  586MOL0     C80793   1.386   0.469   6.239  1.0838 -0.4361  0.1802
  586MOL0     C80794   1.503   0.444   6.148  0.6140 -0.1843  0.7733
  586MOL0     C80795   1.596   0.407   6.071 -0.2159 -0.2049  0.2077
  586MOL0     C80796   1.022   0.057   6.080 -0.0109 -0.0597 -1.0146
  586MOL0     C80797   1.046  -0.002   5.959  0.4832 -0.2599  1.1372
  586MOL0     C80798   1.053  -0.152   5.950  0.2423  0.3796  0.4483
  586MOL0     H80799   1.222  -0.138   5.526  0.0503  2.4097 -3.1122
  586MOL0     H80800   1.266  -0.307   5.388  1.8741  0.0411  1.2973
  586MOL0     H80801   1.040  -0.380   5.091 -1.5019 -2.9139 -3.5973
  586MOL0     H80802   0.892  -0.433   5.182 -0.3341 -2.3965  1.1139
  586MOL0     H80803   0.955  -0.660   5.173 -1.1292 -0.0033 -0.6105
  586MOL0     H80804   0.910  -0.591   5.015  0.6297  0.7442 -0.6269
  586MOL0     H80805   1.092  -0.762   5.002 -1.7753  0.3948  1.5670
  586MOL0     H80806   1.158  -0.597   4.969 -1.7072 -0.4452 -1.9011
  586MOL0     H80807   1.252  -0.612   5.196 -0.1852  1.0847 -1.4851
  586MOL0     H80808   1.159  -0.754   5.244 -1.0809  0.0560 -0.7732
  586MOL0     H80809   1.414  -0.796   5.160  0.4118 -2.0211  1.3132
  586MOL0     H80810   1.345  -0.763   4.997  2.2780 -2.1016  0.6816
  586MOL0     H80811   1.179  -0.966   5.055 -1.4766 -4.2662  3.3616
  586MOL0     H80812   1.363  -0.992   5.049 -0.0286 -0.2961  0.2627
  586MOL0     H80813   1.172  -0.945   5.300 -0.3914 -1.7612  2.9235
  586MOL0     H80814   1.344  -0.977   5.305 -1.3387  1.3150  0.0804
  586MOL0     H80815   1.110  -1.155   5.223 -0.7445 -1.4227  2.2111
  586MOL0     H80816   1.271  -1.196   5.180 -1.2643 -0.5758 -0.1346
  586MOL0     H80817   1.065  -1.119   5.492  0.1538 -0.0136  2.0102
  586MOL0     H80818   1.235  -1.299   5.803 -0.7437 -0.6015  0.5653
  586MOL0     H80819   1.077  -1.285   5.753 -0.3190  1.9485  0.4083
  586MOL0     H80820   1.087  -1.031   5.761 -1.7208 -1.8224 -0.0662
  586MOL0     H80821   1.131  -1.111   5.907  0.7874 -1.4129 -0.8455
  586MOL0     H80822   1.317  -0.975   5.900 -3.2222 -1.3930  1.4281
  586MOL0     H80823   1.380  -1.120   5.810  1.8039  2.5377  0.5661
  586MOL0     H80824   1.347  -1.002   5.596  2.9148 -0.9893  0.8895
  586MOL0     H80825   1.267  -0.866   5.668  2.1381  1.4107 -0.9188
  586MOL0     H80826   1.647  -0.743   5.767 -1.7480  0.0415  1.0617
  586MOL0     H80827   1.857  -0.683   5.843  0.6348  1.5212 -1.8691
  586MOL0     H80828   1.987  -0.751   5.736  1.0051  1.2296  1.5593
  586MOL0     H80829   1.959  -0.802   5.907  0.0219  3.2248  1.3779
  586MOL0     H80830   2.238  -0.952   5.557 -0.4362 -0.0616 -0.0669
  586MOL0     H80831   2.467  -1.033   5.535 -2.7310  0.0082 -2.0115
  586MOL0     H80832   2.712  -0.963   5.703 -0.2139 -0.1136  0.0160
  586MOL0     H80833   2.686  -1.034   5.874  1.6064 -1.6927  0.7450
  586MOL0     H80834   2.907  -1.063   5.869 -0.6335 -0.8479  0.7898
  586MOL0     H80835   2.870  -1.213   5.792 -2.2036 -0.0412  0.4545
  586MOL0     H80836   2.944  -0.956   5.657  0.5734 -0.4024 -1.0448
  586MOL0     H80837   2.858  -1.094   5.575  0.6701 -1.2713 -0.0412
  586MOL0     H80838   3.101  -1.079   5.536 -0.3434  3.1767  0.1015
  586MOL0     H80839   3.056  -1.230   5.626  1.3333  0.0959 -5.0427
  586MOL0     H80840   3.197  -0.992   5.760  2.1234 -0.5040  1.1957
  586MOL0     H80841   3.147  -1.148   5.835 -2.8255  0.9571  0.3904
  586MOL0     H80842   3.300  -1.260   5.677 -3.3528 -0.3776 -0.4071
  586MOL0     H80843   3.377  -1.168   5.796  0.6407 -0.3057 -0.0933
  586MOL0     H80844   3.399  -0.964   5.641 -1.7037  0.5190  0.2915
  586MOL0     H80845   3.316  -1.062   5.517 -3.1026  3.5503  2.6803
  586MOL0     H80846   3.583  -1.110   5.655  1.0506 -0.5276 -1.7000
  586MOL0     H80847   3.586  -1.036   5.493  0.8911 -0.4409 -0.6726
  586MOL0     H80848   2.487  -1.161   5.934  4.3178  0.0268 -1.7933
  586MOL0     H80849   2.231  -1.087   5.970 -1.0658 -1.9419 -1.3097
  586MOL0     H80850   1.764  -1.219   5.698  1.0998  0.3220 -0.5794
  586MOL0     H80851   1.548  -1.152   5.675 -2.0010  1.2706  1.4990
  586MOL0     H80852   0.848  -0.403   5.365 -1.8361  2.7640 -0.8849
  586MOL0     H80853   0.812  -0.245   5.560 -0.4710  0.8258 -1.1058
  586MOL0     H80854   1.073   0.288   5.774 -0.3024  1.9889  1.0033
  586MOL0     H80855   1.023   0.389   5.976  0.2960 -1.1025  0.8223
  586MOL0     H80856   1.023   0.263   6.407  1.8100 -2.2213  0.3145
  586MOL0     H80857   1.143   0.189   6.296  1.9546  0.7738  0.6717
  586MOL0     H80858   1.175   0.449   6.394 -1.6683  1.5488  0.2488
  586MOL0     H80859   1.075   0.472   6.251 -0.7136  1.7855  3.2441
  586MOL0     H80860   1.307   0.276   6.232 -2.8874 -0.7222  1.3003
  586MOL0     H80861   1.235   0.379   6.105  2.7467 -0.2469 -1.1196
  586MOL0     H80862   1.410   0.467   6.346 -2.2148 -0.7833  1.0289
  586MOL0     H80863   1.357   0.573   6.220 -1.3701 -1.2085 -0.6873
  586MOL0     H80864   1.683   0.391   6.010 -0.1597  0.6889  0.0387
  586MOL0     H80865   0.989   0.005   6.169  2.0057 -0.6352 -0.5486
  586MOL0     H80866   1.076  -0.200   6.045 -0.1172 -1.0042 -0.1367
  586MOL0     H80867   0.955  -0.179   5.908 -0.2698 -0.0859  1.8713
  586MOL0     H80868   1.131  -0.173   5.877  2.0083 -1.6109  2.7445
  587MOL0     O80869   6.572   0.465   5.692  0.4407 -0.1239  0.3708
  587MOL0     C80870   6.610   0.511   5.798 -0.4843  0.2125 -0.4033
  587MOL0     O80871   6.709   0.455   5.879 -0.4867 -0.0361  0.4875
  587MOL0     C80872   6.779   0.343   5.839 -0.3209  0.8406 -0.2408
  587MOL0     C80873   6.783   0.234   5.923 -0.4100 -0.4824 -0.9192
  587MOL0     C80874   6.847   0.117   5.893  0.6543  0.1619 -0.0344
  587MOL0     C80875   6.913   0.108   5.770  0.4292  0.3992  0.3713
  587MOL0     O80876   6.965  -0.012   5.719 -0.5640 -0.3552 -0.2668
  587MOL0     C80877   7.047  -0.085   5.818  0.2280 -0.7643 -0.0439
  587MOL0     C80878   7.066  -0.227   5.766 -0.5796 -0.4394  0.1695
  587MOL0     C80879   7.158  -0.314   5.853  0.3228 -0.8979 -0.0443
  587MOL0     C80880   7.248  -0.402   5.775 -0.2730  0.1670  0.1686
  587MOL0     C80881   7.176  -0.520   5.704  0.3894  0.1998 -0.4145
  587MOL0     C80882   7.280  -0.602   5.612 -0.0603  0.4401 -0.0225
  587MOL0     C80883   7.207  -0.730   5.563 -0.7591  0.3497 -0.0340
  587MOL0     C80884   7.153  -0.714   5.422  0.4190  0.6827 -1.1156
  587MOL0     N80885   7.125  -0.837   5.358 -0.2635  1.7481  0.0245
  587MOL0     C80886   6.994  -0.898   5.341 -0.1495  0.7509 -0.6983
  587MOL0     C80887   7.018  -1.022   5.291 -0.6752 -0.4255 -0.8237
  587MOL0     C80888   6.915  -1.129   5.273  0.2628  0.1841  0.3461
  587MOL0     C80889   6.869  -1.181   5.412 -0.2117 -0.0472 -0.6443
  587MOL0     C80890   6.723  -1.142   5.442 -0.4031  0.2837 -0.7476
  587MOL0     C80891   6.675  -1.222   5.569  0.2234  0.0020 -0.3475
  587MOL0     O80892   6.684  -1.360   5.547 -0.4258  0.4499 -0.1830
  587MOL0     C80893   6.571  -1.429   5.508 -0.3407 -0.2748  0.4981
  587MOL0     C80894   6.589  -1.496   5.382 -0.9851 -0.0436  1.1462
  587MOL0     C80895   6.486  -1.581   5.344  1.1453  0.1370  0.5034
  587MOL0     C80896   6.510  -1.672   5.235  0.1335 -0.2237  1.6878
  587MOL0     C80897   6.357  -1.575   5.416 -0.1910  0.0562  1.1740
  587MOL0     C80898   6.238  -1.653   5.363  0.1231 -0.3759 -0.1736
  587MOL0     O80899   6.207  -1.652   5.222  1.2468 -0.2788 -0.7723
  587MOL0     C80900   6.085  -1.707   5.183 -0.1465  0.4099 -1.1341
  587MOL0     C80901   6.087  -1.791   5.081  0.8973  0.0207 -0.6935
  587MOL0     C80902   5.977  -1.860   5.037  0.7298  0.5201  0.8032
  587MOL0     C80903   5.847  -1.831   5.087 -0.1665  0.1260  0.3766
  587MOL0     O80904   5.730  -1.887   5.058  0.1867  0.0102  0.1129
  587MOL0     C80905   5.745  -1.991   4.963  0.3040 -0.9964 -1.0022
  587MOL0     C80906   5.607  -2.043   4.922 -0.9694 -0.6980  0.7051
  587MOL0     C80907   5.505  -1.951   4.866 -0.5695 -0.0079  0.7501
  587MOL0     C80908   5.395  -2.035   4.808  1.6245  0.1950 -1.0389
  587MOL0     C80909   5.280  -1.940   4.777 -0.4594  0.5741 -0.2486
  587MOL0     C80910   5.159  -2.013   4.712  0.7642  0.0972 -0.6111
  587MOL0     C80911   5.071  -2.088   4.819 -0.6046 -0.5524 -0.4477
  587MOL0     C80912   4.963  -2.181   4.771 -0.3291  0.2563 -0.7064
  587MOL0    Cl80913   4.838  -2.105   4.675 -0.1530  0.2663 -0.0602
  587MOL0     C80914   5.848  -1.741   5.190 -0.0045 -0.5073  0.0077
  587MOL0     C80915   5.957  -1.671   5.239 -0.6981  0.2991 -0.3998
  587MOL0     O80916   6.165  -1.697   5.453  0.0138  0.4058 -0.4367
  587MOL0     C80917   6.349  -1.519   5.543  0.3101 -0.3042 -0.5929
  587MOL0     C80918   6.462  -1.445   5.583  0.3307  0.0129 -0.3601
  587MOL0     N80919   7.157  -1.031   5.266  0.7152 -0.3320 -0.2573
  587MOL0     N80920   7.214  -0.926   5.305 -0.4132  1.4982  0.0016
  587MOL0     C80921   6.921   0.216   5.686  0.8097 -0.3030  0.1907
  587MOL0     C80922   6.853   0.339   5.722  0.3306 -0.0120  1.0991
  587MOL0     C80923   6.515   0.607   5.858  1.1572 -0.1294 -0.0498
  587MOL0     C80924   6.459   0.589   5.989 -0.3922  0.1223 -0.2386
  587MOL0     C80925   6.372   0.676   6.051  0.2332  1.5584 -0.2901
  587MOL0     C80926   6.340   0.785   5.984  0.1533 -0.9780 -0.5338
  587MOL0     O80927   6.249   0.871   6.045 -0.4001  0.0932  0.6597
  587MOL0     C80928   6.151   0.921   5.958  0.3403  0.2927 -0.2487
  587MOL0     C80929   6.049   0.972   6.068  0.4383  0.0663 -0.2580
  587MOL0     C80930   6.103   1.076   6.167 -0.4554  0.0814  0.3756
  587MOL0     C80931   6.003   1.183   6.202 -1.0811  0.2288 -0.2772
  587MOL0     C80932   5.991   1.217   6.347  0.4159  1.2768  0.1462
  587MOL0     C80933   5.965   1.251   6.460  0.5905 -1.0015 -0.2043
  587MOL0     C80934   6.395   0.819   5.859  0.2753  0.1404 -0.7267
  587MOL0     C80935   6.476   0.728   5.797 -0.0955  0.4972 -0.0933
  587MOL0     C80936   6.512   0.765   5.662  0.1840 -0.2747  1.1941
  587MOL0     H80937   6.736   0.226   6.020 -1.9503  1.6007 -1.4208
  587MOL0     H80938   6.835   0.042   5.970 -0.8471  1.3530  0.9760
  587MOL0     H80939   6.994  -0.100   5.913  1.7505 -0.9253  0.8089
  587MOL0     H80940   7.143  -0.036   5.836 -1.0812  1.7951  0.3445
  587MOL0     H80941   6.971  -0.275   5.740 -1.3055  0.0868  1.7607
  587MOL0     H80942   7.127  -0.200   5.679  3.3968 -1.8127  2.2825
  587MOL0     H80943   7.202  -0.246   5.926 -1.7169  0.0025  0.4213
  587MOL0     H80944   7.103  -0.388   5.913  0.1068 -0.9748 -0.3361
  587MOL0     H80945   7.291  -0.354   5.686 -1.8248  0.4028 -0.5062
  587MOL0     H80946   7.326  -0.454   5.831  1.6319  1.0920 -1.5012
  587MOL0     H80947   7.088  -0.479   5.653  1.8072  2.2216 -1.3559
  587MOL0     H80948   7.130  -0.589   5.776 -0.9227  1.1550 -0.2921
  587MOL0     H80949   7.298  -0.534   5.529 -0.7979 -0.8677 -1.2833
  587MOL0     H80950   7.371  -0.629   5.666  0.6034 -0.7762 -1.6650
  587MOL0     H80951   7.132  -0.759   5.638 -2.0336  3.7282  0.1588
  587MOL0     H80952   7.282  -0.810   5.558  0.3285  1.2534  1.1504
  587MOL0     H80953   7.066  -0.648   5.419 -0.9216 -1.0274 -3.3943
  587MOL0     H80954   7.228  -0.663   5.362 -2.9886  4.0607 -2.9304
  587MOL0     H80955   6.909  -0.837   5.371  0.6405  1.8785 -0.6811
  587MOL0     H80956   6.964  -1.207   5.215 -1.0141 -0.2106 -0.2501
  587MOL0     H80957   6.828  -1.083   5.224  1.3575  2.2956  0.2619
  587MOL0     H80958   6.885  -1.289   5.408 -0.5276 -0.0766 -1.2704
  587MOL0     H80959   6.932  -1.144   5.494 -0.8362  1.7287 -0.9248
  587MOL0     H80960   6.709  -1.036   5.464 -0.1269  0.0237  0.7954
  587MOL0     H80961   6.649  -1.162   5.364  0.5402 -0.1182 -1.5595
  587MOL0     H80962   6.756  -1.202   5.639 -0.5957 -0.3686  0.7391
  587MOL0     H80963   6.579  -1.193   5.613  0.4614  0.3399 -0.0539
  587MOL0     H80964   6.681  -1.497   5.325 -0.5531  1.3657  1.7808
  587MOL0     H80965   6.617  -1.692   5.224 -0.1156 -0.2327 -1.3979
  587MOL0     H80966   6.473  -1.630   5.142  0.3697  1.2666  2.2407
  587MOL0     H80967   6.465  -1.771   5.250  1.1719 -0.5643  2.7386
  587MOL0     H80968   6.184  -1.797   5.032  0.3458 -1.5992 -1.6741
  587MOL0     H80969   6.000  -1.925   4.953  0.9435  2.3523 -0.6255
  587MOL0     H80970   5.799  -1.952   4.876 -1.7785  1.9311 -1.1689
  587MOL0     H80971   5.801  -2.069   5.014 -0.8200 -0.9136  0.4235
  587MOL0     H80972   5.637  -2.127   4.858 -1.3795 -2.0177  2.1938
  587MOL0     H80973   5.552  -2.084   5.008 -3.9434 -0.6883 -1.0402
  587MOL0     H80974   5.557  -1.892   4.790  0.4016 -1.4490  0.2570
  587MOL0     H80975   5.460  -1.888   4.943 -2.5317 -0.7135  0.2475
  587MOL0     H80976   5.355  -2.101   4.885  3.4464  2.3550  2.0079
  587MOL0     H80977   5.426  -2.099   4.725 -1.9270 -4.4629  0.8306
  587MOL0     H80978   5.259  -1.902   4.878  2.1562  1.1915  0.1211
  587MOL0     H80979   5.298  -1.849   4.721 -1.9032  1.9706  1.4265
  587MOL0     H80980   5.190  -2.080   4.631  0.4506  1.3689 -1.8401
  587MOL0     H80981   5.085  -1.947   4.665  0.6730  0.1312 -0.4218
  587MOL0     H80982   5.032  -2.015   4.891 -2.3919  2.4214 -4.0997
  587MOL0     H80983   5.130  -2.166   4.869 -1.2142 -1.1267 -0.6124
  587MOL0     H80984   4.910  -2.222   4.857  0.0816  0.5064 -0.3289
  587MOL0     H80985   5.007  -2.266   4.718  2.6823 -0.5874  2.7450
  587MOL0     H80986   5.758  -1.692   5.225 -0.4000  1.4478 -3.2984
  587MOL0     H80987   5.943  -1.595   5.315 -1.2156 -1.4222  1.3093
  587MOL0     H80988   6.255  -1.521   5.597 -3.0537  2.5546 -5.5334
  587MOL0     H80989   6.463  -1.408   5.685 -0.5880  2.6667 -1.2332
  587MOL0     H80990   6.977   0.212   5.593 -0.5174  0.7724 -0.7134
  587MOL0     H80991   6.852   0.420   5.650 -2.1738 -1.9754 -1.2626
  587MOL0     H80992   6.496   0.502   6.042  0.4219 -0.7984 -2.2396
  587MOL0     H80993   6.332   0.651   6.149 -0.5927 -2.7964 -1.5184
  587MOL0     H80994   6.190   0.998   5.891 -1.5013  0.3675 -1.3033
  587MOL0     H80995   6.116   0.841   5.892  2.9529  1.1736 -2.9632
  587MOL0     H80996   6.002   0.881   6.106  0.9707 -0.3196 -0.5111
  587MOL0     H80997   5.964   1.021   6.020  0.8707  0.4140 -0.6858
  587MOL0     H80998   6.129   1.020   6.257 -0.9356 -2.1588 -0.8133
  587MOL0     H80999   6.192   1.127   6.129 -2.4390  3.5850 -0.0631
  587MOL0     H81000   5.904   1.147   6.171  0.7014 -2.1503 -3.7770
  587MOL0     H81001   6.029   1.281   6.161 -0.0007  0.6873  1.4145
  587MOL0     H81002   5.962   1.307   6.551 -0.2719  0.8361 -1.3121
  587MOL0     H81003   6.369   0.911   5.808 -1.5494  0.1805  0.1993
  587MOL0     H81004   6.525   0.873   5.654  2.1220 -0.6139 -1.3508
  587MOL0     H81005   6.605   0.715   5.634 -1.3421 -2.0962 -1.0312
  587MOL0     H81006   6.429   0.737   5.596 -1.1626  0.5648  2.4507
  588MOL0     O81007   2.628  10.763  11.472  0.2717 -0.8788 -0.2352
  588MOL0     C81008   2.743  10.765  11.446 -0.0932 -0.8194  0.8729
  588MOL0     O81009   2.791  10.744  11.325 -0.1729 -1.0430  0.3677
  588MOL0     C81010   2.697  10.725  11.227 -0.6711  0.5660  0.4836
  588MOL0     C81011   2.643  10.827  11.145 -0.7649 -0.4898  0.3981
  588MOL0     C81012   2.560  10.807  11.039 -0.0422  0.1721 -0.7829
  588MOL0     C81013   2.514  10.676  11.010 -0.3955 -0.0650 -0.2155
  588MOL0     O81014   2.412  10.654  10.912  0.2594  0.1233 -0.0788
  588MOL0     C81015   2.338  10.768  10.874  0.3593 -0.2103 -0.0392
  588MOL0     C81016   2.233  10.730  10.762 -0.7154  0.7430  0.8965
  588MOL0     C81017   2.302  10.648  10.662  0.1399  1.1620  1.2884
  588MOL0     C81018   2.216  10.622  10.539 -0.1294  0.1324 -0.3524
  588MOL0     C81019   2.281  10.534  10.429  0.6503 -0.0579 -0.3113
  588MOL0     C81020   2.178  10.542  10.308 -0.3046 -0.2510 -1.1071
  588MOL0     C81021   2.255  10.439  10.212  0.2022 -0.3486 -0.4475
  588MOL0     C81022   2.178  10.446  10.079  1.1405 -0.4408  0.3302
  588MOL0     N81023   2.235  10.545   9.981  0.0141 -0.7307 -0.0054
  588MOL0     C81024   2.362  10.526   9.927  0.5767  0.1338  1.0929
  588MOL0     C81025   2.414  10.648   9.895  0.2027  0.4575  0.2569
  588MOL0     C81026   2.551  10.666   9.830  0.0744  1.0401 -0.4664
  588MOL0     C81027   2.653  10.727   9.928  0.1279  0.5116 -0.6968
  588MOL0     C81028   2.627  10.868   9.985  0.2893 -0.6478 -0.5639
  588MOL0     C81029   2.754  10.921  10.040 -0.4289  0.0381  0.2390
  588MOL0     O81030   2.802  10.836  10.140  0.5118 -0.4480 -1.3365
  588MOL0     C81031   2.768  10.858  10.274 -0.1879 -0.6848 -0.1052
  588MOL0     C81032   2.649  10.926  10.315  0.3322  0.2506 -0.3898
  588MOL0     C81033   2.631  10.968  10.452 -0.0831  0.0220  0.3711
  588MOL0     C81034   2.490  11.020  10.490  0.0486 -0.6453  0.2420
  588MOL0     C81035   2.734  10.946  10.543 -0.6897 -0.8043  0.3391
  588MOL0     C81036   2.732  10.983  10.680 -0.1146 -0.4141 -0.4142
  588MOL0     O81037   2.854  11.041  10.723  0.3753 -0.0071 -0.0171
  588MOL0     C81038   2.860  11.079  10.851  0.5966  0.6317 -0.7203
  588MOL0     C81039   2.908  10.990  10.952  0.6008  0.1096  0.8668
  588MOL0     C81040   2.903  11.021  11.086  0.3366 -0.0524  0.0312
  588MOL0     C81041   2.876  11.159  11.124  0.6124  0.4312 -0.4176
  588MOL0     O81042   2.885  11.185  11.256 -0.4009  0.2969 -0.1172
  588MOL0     C81043   2.758  11.217  11.325 -0.9211  0.4008 -0.2124
  588MOL0     C81044   2.796  11.229  11.472  0.8953 -0.5211  0.3883
  588MOL0     C81045   2.676  11.270  11.561 -0.5063  0.1712 -0.2283
  588MOL0     C81046   2.689  11.302  11.714  0.9007  0.2567 -0.1627
  588MOL0     C81047   2.793  11.222  11.793  0.9280  0.1520  0.1584
  588MOL0     C81048   2.805  11.264  11.944  0.1299 -0.0064  0.7233
  588MOL0     C81049   2.914  11.198  12.026 -0.9354 -0.3678 -0.1256
  588MOL0     C81050   3.063  11.233  11.960  0.3022 -0.0923 -0.6722
  588MOL0    Cl81051   3.077  11.410  11.938 -0.7726 -0.4063  0.3739
  588MOL0     C81052   2.825  11.243  11.027 -0.6388 -0.1589  0.0416
  588MOL0     C81053   2.811  11.204  10.898  0.3482 -0.5158  0.3069
  588MOL0     O81054   2.643  10.947  10.756  0.2558  0.2820  0.2627
  588MOL0     C81055   2.844  10.868  10.507 -0.5239  0.7519  0.3763
  588MOL0     C81056   2.846  10.805  10.376 -0.9151 -0.1646  0.1689
  588MOL0     N81057   2.317  10.737   9.935  0.2791 -0.4912 -0.0436
  588MOL0     N81058   2.221  10.682   9.990  0.3208  0.0751  1.5903
  588MOL0     C81059   2.565  10.570  11.083  0.4334  0.3769  0.1255
  588MOL0     C81060   2.665  10.593  11.182  0.8040  0.0858 -0.2761
  588MOL0     C81061   2.837  10.826  11.550 -0.5131  0.4590  0.1974
  588MOL0     C81062   2.981  10.821  11.525 -0.4429  0.8778 -0.2048
  588MOL0     C81063   3.088  10.848  11.620  0.2240  0.3828  0.0592
  588MOL0     C81064   3.044  10.889  11.746 -0.3628  0.2791 -0.5586
  588MOL0     O81065   3.144  10.937  11.827 -0.0189 -0.3019 -0.2256
  588MOL0     C81066   3.160  10.881  11.954  0.7035 -0.1955 -0.8438
  588MOL0     C81067   3.207  10.736  11.948 -0.3545  0.6137  0.4721
  588MOL0     C81068   3.356  10.746  11.910  0.0135 -0.1501  0.2274
  588MOL0     C81069   3.402  10.619  11.833 -0.0250 -0.4671 -0.1744
  588MOL0     C81070   3.349  10.487  11.880 -0.3658 -0.6504 -0.4818
  588MOL0     C81071   3.295  10.380  11.887 -0.0111 -0.9970 -0.7865
  588MOL0     C81072   2.906  10.886  11.782 -0.4173  0.3383 -0.6432
  588MOL0     C81073   2.808  10.852  11.690  0.7257 -0.0726  0.8460
  588MOL0     C81074   2.670  10.828  11.740  0.7623 -0.6648 -0.3254
  588MOL0     H81075   2.670  10.931  11.162 -0.6594  0.4345 -4.1681
  588MOL0     H81076   2.533  10.900  10.989  2.4783  2.0339  1.0812
  588MOL0     H81077   2.395  10.848  10.826 -1.6320  1.4176  0.1435
  588MOL0     H81078   2.283  10.816  10.956 -0.1034 -0.3454 -0.2643
  588MOL0     H81079   2.149  10.669  10.796  1.7383 -4.4196 -1.3578
  588MOL0     H81080   2.213  10.825  10.710  1.0861  0.4211 -0.4881
  588MOL0     H81081   2.395  10.695  10.629  0.0813 -0.3475 -1.3569
  588MOL0     H81082   2.333  10.548  10.694  2.0283 -0.2154 -3.8149
  588MOL0     H81083   2.126  10.564  10.561 -0.6995 -0.3932 -3.6381
  588MOL0     H81084   2.192  10.717  10.491 -0.9248  1.0793  1.7960
  588MOL0     H81085   2.298  10.434  10.469 -2.2860 -0.4946  0.1154
  588MOL0     H81086   2.373  10.579  10.391  0.2425 -1.1021 -2.6872
  588MOL0     H81087   2.078  10.506  10.333 -1.0852  2.9397  0.9263
  588MOL0     H81088   2.169  10.644  10.272  4.4706  0.2663 -1.4756
  588MOL0     H81089   2.253  10.337  10.253 -1.7653  0.2994  1.2738
  588MOL0     H81090   2.356  10.466  10.179  0.8368 -0.1791  1.5182
  588MOL0     H81091   2.173  10.347  10.033  0.7489 -2.1563  3.7318
  588MOL0     H81092   2.072  10.468  10.095  0.6180 -3.3797  1.5656
  588MOL0     H81093   2.414  10.434   9.906 -1.0050 -0.2348 -1.7151
  588MOL0     H81094   2.544  10.712   9.731 -2.5329 -1.0802 -1.3922
  588MOL0     H81095   2.590  10.565   9.811  0.8286  1.6294 -2.2256
  588MOL0     H81096   2.679  10.662  10.012  1.8819  1.6110 -0.3378
  588MOL0     H81097   2.746  10.726   9.871  1.6936  0.1275  1.7685
  588MOL0     H81098   2.599  10.936   9.904 -1.1896  0.1528  0.5744
  588MOL0     H81099   2.540  10.873  10.050  0.7667  4.5566  0.1215
  588MOL0     H81100   2.833  10.926   9.965 -1.8335 -2.3012 -1.5389
  588MOL0     H81101   2.732  11.024  10.070 -1.5008 -0.2503  0.5238
  588MOL0     H81102   2.575  10.954  10.240 -0.5786 -2.0051 -0.4303
  588MOL0     H81103   2.494  11.100  10.564 -1.0699 -0.1105 -0.2569
  588MOL0     H81104   2.424  10.940  10.523 -3.3154  0.5393 -2.9622
  588MOL0     H81105   2.456  11.068  10.398  2.7172  2.1705  0.5417
  588MOL0     H81106   2.923  10.884  10.936 -1.8356 -0.2212  0.3484
  588MOL0     H81107   2.926  10.954  11.168 -0.0204  2.4480  2.3127
  588MOL0     H81108   2.711  11.310  11.291  1.3089  0.8843 -2.2116
  588MOL0     H81109   2.684  11.140  11.305  0.7700 -1.5030  0.5116
  588MOL0     H81110   2.839  11.131  11.495  1.9943  0.3223  2.1255
  588MOL0     H81111   2.868  11.311  11.483  0.2232 -0.0068  1.0420
  588MOL0     H81112   2.599  11.193  11.566 -0.6543  0.1940 -1.8358
  588MOL0     H81113   2.635  11.365  11.525 -0.3776  1.7180  3.2286
  588MOL0     H81114   2.589  11.290  11.758  1.3897 -1.4757  0.5742
  588MOL0     H81115   2.725  11.405  11.727 -0.6544  0.8986 -0.6931
  588MOL0     H81116   2.781  11.113  11.784  6.4602 -0.7445  0.3782
  588MOL0     H81117   2.893  11.250  11.759  1.9596 -1.9264  1.2870
  588MOL0     H81118   2.723  11.233  12.009 -0.0076 -0.7192  0.2281
  588MOL0     H81119   2.819  11.372  11.947 -0.3543  0.0747  0.2643
  588MOL0     H81120   2.904  11.089  12.027 -4.3519 -0.1965 -2.0092
  588MOL0     H81121   2.900  11.232  12.129 -1.2039 -0.3224 -0.1763
  588MOL0     H81122   3.063  11.183  11.863 -2.8434  2.2519 -2.0382
  588MOL0     H81123   3.152  11.196  12.013  1.3578 -2.4694 -3.8498
  588MOL0     H81124   2.793  11.339  11.067  0.3820 -0.4178  1.5772
  588MOL0     H81125   2.761  11.271  10.828 -0.9411 -0.6060  1.1042
  588MOL0     H81126   2.909  10.835  10.586  1.4569  4.9950  0.7674
  588MOL0     H81127   2.916  10.728  10.347 -0.5734  0.6950 -1.4439
  588MOL0     H81128   2.532  10.471  11.055  1.0714  0.8440 -2.5354
  588MOL0     H81129   2.711  10.506  11.229  1.8338  1.5406  1.6000
  588MOL0     H81130   3.014  10.779  11.431 -0.9004 -2.2566  0.8920
  588MOL0     H81131   3.189  10.825  11.589 -0.3762  1.3580 -2.9129
  588MOL0     H81132   3.235  10.940  12.008 -1.2678  0.4289  1.3831
  588MOL0     H81133   3.070  10.883  12.016  1.7925 -0.7271  0.8362
  588MOL0     H81134   3.159  10.676  11.869 -0.9280  0.9997  0.5199
  588MOL0     H81135   3.217  10.675  12.038  2.0137 -1.4593 -1.0412
  588MOL0     H81136   3.372  10.828  11.839  1.5748  0.4708  1.2588
  588MOL0     H81137   3.427  10.762  11.991  0.2008  0.0321  0.0300
  588MOL0     H81138   3.512  10.611  11.832  0.0119 -0.1460  0.5364
  588MOL0     H81139   3.372  10.637  11.730 -1.8410  1.4910  0.6295
  588MOL0     H81140   3.233  10.293  11.900  0.0845 -1.1449 -1.2790
  588MOL0     H81141   2.878  10.910  11.884 -0.3322  2.0492 -0.9904
  588MOL0     H81142   2.630  10.730  11.714 -4.1349  0.4802  1.7552
  588MOL0     H81143   2.679  10.836  11.849 -1.3746 -0.3158 -0.1264
  588MOL0     H81144   2.605  10.912  11.713  0.7249 -0.0993  1.3543
  589MOL0     O81145   5.359   1.236   5.646  0.0629 -0.2255 -0.4335
  589MOL0     C81146   5.399   1.242   5.767  0.2632  0.3067  0.3843
  589MOL0     O81147   5.486   1.334   5.817 -0.1668 -0.1189  0.3901
  589MOL0     C81148   5.548   1.418   5.723  0.3941 -0.8972 -1.0806
  589MOL0     C81149   5.624   1.358   5.611  0.8335 -0.6725 -0.0040
  589MOL0     C81150   5.712   1.428   5.521  0.0141  1.0287  0.6176
  589MOL0     C81151   5.717   1.556   5.534  0.9119 -0.1718 -0.0177
  589MOL0     O81152   5.795   1.633   5.459  0.1172  0.2561  0.4323
  589MOL0     C81153   5.812   1.627   5.314 -0.2394  0.6539  0.8768
  589MOL0     C81154   5.964   1.612   5.291 -0.1893 -0.6552  0.5908
  589MOL0     C81155   6.031   1.489   5.333 -0.2472 -0.0617  1.0811
  589MOL0     C81156   6.158   1.467   5.249  0.0467 -0.0383  0.9203
  589MOL0     C81157   6.216   1.329   5.280 -1.0111 -0.8407  0.5071
  589MOL0     C81158   6.349   1.314   5.211 -0.1152 -0.8861  0.4420
  589MOL0     C81159   6.386   1.168   5.188 -0.0205  1.3268  1.0225
  589MOL0     C81160   6.452   1.090   5.302 -0.7064 -0.2737 -0.7517
  589MOL0     N81161   6.337   1.055   5.400  0.4162 -0.0968 -0.5721
  589MOL0     C81162   6.232   0.966   5.375 -0.2774 -0.4977  0.2632
  589MOL0     C81163   6.181   0.934   5.494  0.3488 -0.2386 -0.5522
  589MOL0     C81164   6.050   0.872   5.531  0.3427  1.0422 -0.5474
  589MOL0     C81165   5.928   0.926   5.453 -0.2358 -0.2390  0.1836
  589MOL0     C81166   5.902   1.061   5.511  0.4762 -0.4184 -0.6707
  589MOL0     C81167   5.876   1.063   5.672 -0.2993  0.2900  0.1829
  589MOL0     O81168   5.778   0.967   5.702 -0.4209  0.2844  0.3537
  589MOL0     C81169   5.740   0.970   5.834  0.4306 -0.0520 -0.1911
  589MOL0     C81170   5.736   0.840   5.882  0.2785 -0.5726 -0.4062
  589MOL0     C81171   5.703   0.828   6.023  1.1700 -0.0465  0.2240
  589MOL0     C81172   5.696   0.688   6.079 -0.6414 -0.1963  0.1495
  589MOL0     C81173   5.669   0.943   6.113 -0.6111  0.3971  1.1452
  589MOL0     C81174   5.614   0.934   6.257 -0.9541  0.4731  0.0973
  589MOL0     O81175   5.576   1.049   6.318  0.2033 -0.0592  0.3145
  589MOL0     C81176   5.509   1.031   6.435 -0.4325  0.1351 -0.2345
  589MOL0     C81177   5.376   1.055   6.450 -0.2745  0.3248 -0.5719
  589MOL0     C81178   5.301   1.020   6.570 -0.3493  0.9667 -0.1140
  589MOL0     C81179   5.362   0.944   6.673  0.2730  0.4440 -1.3043
  589MOL0     O81180   5.274   0.895   6.772  0.2069 -0.6152 -0.6369
  589MOL0     C81181   5.317   0.785   6.859 -0.2030 -0.2639  0.2983
  589MOL0     C81182   5.218   0.748   6.963  0.0872 -0.2112  0.2457
  589MOL0     C81183   5.093   0.658   6.920  0.1143  0.1549 -0.1595
  589MOL0     C81184   4.982   0.652   7.027  0.4121 -0.3657  0.2832
  589MOL0     C81185   4.836   0.619   6.986  0.2733 -0.3337  0.0754
  589MOL0     C81186   4.781   0.719   6.876 -0.3976  0.1252  0.8131
  589MOL0     C81187   4.630   0.754   6.905 -0.4147  0.7693  1.5830
  589MOL0     C81188   4.564   0.855   6.812 -0.2252  0.9005  0.5530
  589MOL0    Cl81189   4.608   0.812   6.642 -0.1472 -0.1428 -0.0481
  589MOL0     C81190   5.496   0.923   6.668  0.4035  0.0111  0.7111
  589MOL0     C81191   5.565   0.965   6.554 -0.2438  0.6459 -0.1858
  589MOL0     O81192   5.591   0.822   6.299  0.2420  0.6300 -0.2244
  589MOL0     C81193   5.669   1.071   6.047  0.5156  0.8729 -0.2307
  589MOL0     C81194   5.709   1.083   5.913  0.2216 -0.0130  0.0491
  589MOL0     N81195   6.247   1.013   5.593 -0.4520  0.0428 -0.3121
  589MOL0     N81196   6.343   1.082   5.527  0.1949 -0.7336 -0.5197
  589MOL0     C81197   5.638   1.623   5.632 -0.8306 -0.9632 -0.0856
  589MOL0     C81198   5.569   1.554   5.737 -0.1783 -1.1609  0.4642
  589MOL0     C81199   5.345   1.136   5.856  0.1841 -0.4239 -0.0394
  589MOL0     C81200   5.310   1.163   5.992 -0.9396  1.0327  0.9869
  589MOL0     C81201   5.250   1.068   6.071 -0.0908 -0.0460  0.5587
  589MOL0     C81202   5.223   0.951   6.011  1.2528  0.7167 -0.1684
  589MOL0     O81203   5.165   0.859   6.101  0.5672 -0.2543  0.0336
  589MOL0     C81204   5.021   0.846   6.094 -1.6133  0.0227 -0.3895
  589MOL0     C81205   4.939   0.942   6.177  0.6029  0.0747  1.0442
  589MOL0     C81206   4.912   0.896   6.319 -0.4484  0.5351  0.5767
  589MOL0     C81207   4.851   0.999   6.421 -0.4411 -0.4087  0.4781
  589MOL0     C81208   4.928   1.125   6.426  0.6977 -0.0751  0.8759
  589MOL0     C81209   4.992   1.228   6.444 -0.2726 -0.4422  0.5920
  589MOL0     C81210   5.249   0.913   5.885 -0.9974 -0.2434 -0.0239
  589MOL0     C81211   5.313   1.004   5.802 -0.1953  0.8416  0.3885
  589MOL0     C81212   5.329   0.946   5.661 -0.5381 -0.5000 -0.0379
  589MOL0     H81213   5.603   1.252   5.603  1.6924 -0.9083  0.7372
  589MOL0     H81214   5.765   1.366   5.449 -0.7603  1.8124 -0.6506
  589MOL0     H81215   5.777   1.722   5.273  0.3727 -0.3276 -2.1542
  589MOL0     H81216   5.768   1.541   5.262  0.1645  1.2062 -0.4210
  589MOL0     H81217   5.982   1.630   5.185 -1.6015 -1.2193  0.2302
  589MOL0     H81218   6.014   1.692   5.346 -1.0380  1.6068 -1.7465
  589MOL0     H81219   6.051   1.503   5.439  1.9124 -0.3167  0.7696
  589MOL0     H81220   5.972   1.400   5.311  3.5223 -1.9201 -3.1883
  589MOL0     H81221   6.122   1.459   5.146  0.7124 -0.7993  0.7425
  589MOL0     H81222   6.244   1.535   5.254 -0.6301  0.8569  0.7088
  589MOL0     H81223   6.144   1.255   5.246 -1.8590  0.1889 -0.0011
  589MOL0     H81224   6.238   1.328   5.387  0.2936 -0.5680  0.2590
  589MOL0     H81225   6.351   1.361   5.112 -0.4392  1.2383  1.3940
  589MOL0     H81226   6.424   1.371   5.266  0.4725  1.3588 -2.4419
  589MOL0     H81227   6.464   1.171   5.113 -1.6161 -5.8803 -1.7046
  589MOL0     H81228   6.302   1.124   5.133  0.2510  1.4704  0.4923
  589MOL0     H81229   6.491   0.997   5.259  1.5019  0.5717 -0.7160
  589MOL0     H81230   6.533   1.148   5.348 -2.7398  2.2651 -0.0851
  589MOL0     H81231   6.211   0.912   5.283 -0.6535 -0.2855  0.2247
  589MOL0     H81232   6.030   0.871   5.638 -0.5525  4.1380 -0.5711
  589MOL0     H81233   6.054   0.770   5.493 -2.7189  0.7976 -0.3960
  589MOL0     H81234   5.953   0.937   5.347  1.1690 -1.0203  0.4070
  589MOL0     H81235   5.844   0.856   5.460  1.3129 -1.9810  3.8975
  589MOL0     H81236   5.986   1.128   5.486  1.5890 -2.2353 -2.0301
  589MOL0     H81237   5.814   1.106   5.464  0.2716  1.4232  1.3064
  589MOL0     H81238   5.971   1.045   5.724  0.7284 -0.6746 -1.9051
  589MOL0     H81239   5.843   1.165   5.693 -1.7077  0.0669 -0.7968
  589MOL0     H81240   5.764   0.760   5.814  0.1700 -0.0081 -1.1318
  589MOL0     H81241   5.590   0.666   6.097 -0.2973 -1.4405  0.7401
  589MOL0     H81242   5.750   0.688   6.175  0.9217  1.1651 -0.6669
  589MOL0     H81243   5.742   0.615   6.013  0.6752  0.7365 -0.0187
  589MOL0     H81244   5.312   1.088   6.369 -1.5721 -3.0944 -1.0794
  589MOL0     H81245   5.196   1.045   6.557 -0.1083  1.5544 -1.0534
  589MOL0     H81246   5.346   0.702   6.794 -0.3365  0.8715 -1.2679
  589MOL0     H81247   5.407   0.819   6.911 -1.2501  3.3530 -0.0018
  589MOL0     H81248   5.261   0.688   7.044 -2.7386 -0.8707  1.3977
  589MOL0     H81249   5.181   0.842   7.003 -1.8316  0.0704 -1.9259
  589MOL0     H81250   5.123   0.556   6.892 -1.0891  0.4972 -3.0601
  589MOL0     H81251   5.043   0.708   6.837 -0.6132 -0.8263 -0.3242
  589MOL0     H81252   4.978   0.748   7.081  3.2019 -0.1308  0.2097
  589MOL0     H81253   5.016   0.577   7.099 -1.3519 -2.1611 -0.6478
  589MOL0     H81254   4.835   0.517   6.945  1.9493  0.2468 -1.5612
  589MOL0     H81255   4.769   0.617   7.072  1.4134  2.0078  1.1081
  589MOL0     H81256   4.790   0.675   6.776 -0.5019 -2.7506  1.9674
  589MOL0     H81257   4.835   0.814   6.881 -0.5177  0.1495  1.7185
  589MOL0     H81258   4.613   0.792   7.005 -1.1617  1.5183  1.1816
  589MOL0     H81259   4.579   0.658   6.891 -1.3889  1.5125 -0.4211
  589MOL0     H81260   4.609   0.951   6.837 -1.7433  1.4942  1.0418
  589MOL0     H81261   4.456   0.855   6.825 -0.7678  1.2983 -2.9219
  589MOL0     H81262   5.540   0.870   6.751 -0.9925 -2.2037  0.1216
  589MOL0     H81263   5.669   0.934   6.550 -0.5796 -0.3842 -2.9537
  589MOL0     H81264   5.636   1.150   6.113 -0.6167 -2.4125  3.5518
  589MOL0     H81265   5.705   1.176   5.856  3.4448 -0.1766 -0.6310
  589MOL0     H81266   5.648   1.731   5.629 -0.8792 -0.9501  0.2307
  589MOL0     H81267   5.528   1.597   5.828  1.4707  1.0299  0.2687
  589MOL0     H81268   5.341   1.264   6.014  0.2018  1.6425 -2.7868
  589MOL0     H81269   5.232   1.107   6.170  0.1387  1.3868  0.0528
  589MOL0     H81270   4.986   0.846   5.991 -3.2486 -0.4837  0.1316
  589MOL0     H81271   4.995   0.745   6.128 -0.3927  0.2818  1.4576
  589MOL0     H81272   4.842   0.955   6.130  1.4309  3.1139 -0.0561
  589MOL0     H81273   4.977   1.045   6.173 -0.7779  0.7824  3.9625
  589MOL0     H81274   4.849   0.807   6.311 -0.2061  0.5735 -2.9643
  589MOL0     H81275   5.014   0.861   6.340  0.6799 -0.0086 -4.4921
  589MOL0     H81276   4.851   0.950   6.519  0.4865  4.3278  3.1484
  589MOL0     H81277   4.748   1.022   6.393  0.1246  2.5112  0.5481
  589MOL0     H81278   5.047   1.314   6.477  1.2587 -1.0882 -0.1667
  589MOL0     H81279   5.231   0.808   5.862 -1.7379  0.2606 -1.9790
  589MOL0     H81280   5.434   0.962   5.633 -0.4757  2.3879  1.4656
  589MOL0     H81281   5.316   0.839   5.648 -0.1968 -0.4622 -0.7351
  589MOL0     H81282   5.274   0.998   5.582  1.3189 -1.3375 -1.9937
  590MOL0     O81283   3.901   7.547   8.191  0.3226  0.3584 -0.2013
  590MOL0     C81284   3.846   7.436   8.223  1.0193  0.1606 -0.0872
  590MOL0     O81285   3.902   7.324   8.277  0.3801 -0.5674 -0.4832
  590MOL0     C81286   4.041   7.302   8.291  0.1214  0.2619 -0.9436
  590MOL0     C81287   4.140   7.392   8.261 -0.8935  0.4423  0.2835
  590MOL0     C81288   4.274   7.366   8.289  0.3290 -0.6854  0.8415
  590MOL0     C81289   4.314   7.240   8.331  0.0839  0.0272 -0.3588
  590MOL0     O81290   4.452   7.206   8.324 -0.5780 -0.1696  0.2366
  590MOL0     C81291   4.554   7.306   8.321  0.0979 -1.0706 -0.2331
  590MOL0     C81292   4.692   7.256   8.355  0.2271  0.4909  0.0849
  590MOL0     C81293   4.795   7.361   8.328  0.4544 -0.2333 -0.8559
  590MOL0     C81294   4.929   7.294   8.314  0.2587 -0.0930  0.1552
  590MOL0     C81295   5.033   7.402   8.302  0.3041 -0.5240 -0.0619
  590MOL0     C81296   5.179   7.345   8.304  0.6464 -0.1467  0.4335
  590MOL0     C81297   5.297   7.444   8.290  1.2195 -1.6363 -0.1808
  590MOL0     C81298   5.423   7.401   8.351  1.3299 -0.6696  0.3717
  590MOL0     N81299   5.509   7.517   8.371 -1.0571 -0.3750 -0.4432
  590MOL0     C81300   5.611   7.542   8.284  1.3072 -0.3552  0.1239
  590MOL0     C81301   5.659   7.667   8.318 -0.3568  0.2567  0.2901
  590MOL0     C81302   5.762   7.741   8.233 -0.0050  0.2047 -0.2176
  590MOL0     C81303   5.708   7.852   8.151 -0.2288  0.9432  0.5782
  590MOL0     C81304   5.809   7.948   8.091 -0.1427 -0.7647  0.3990
  590MOL0     C81305   5.923   7.893   8.002  0.3641 -0.2956  0.9216
  590MOL0     O81306   6.041   7.851   8.073  0.5290 -0.0702  0.5453
  590MOL0     C81307   6.111   7.951   8.127 -1.0056  0.2288  0.5640
  590MOL0     C81308   6.142   8.067   8.057  0.5058 -0.1430  0.3197
  590MOL0     C81309   6.232   8.157   8.106 -1.4719  0.0840  1.2879
  590MOL0     C81310   6.235   8.293   8.030 -0.6616  0.2290  0.7787
  590MOL0     C81311   6.297   8.146   8.234 -0.6306  0.4484  0.1305
  590MOL0     C81312   6.395   8.233   8.296 -0.6094 -0.9442 -0.1338
  590MOL0     O81313   6.451   8.337   8.220 -0.5487 -0.1432 -0.4757
  590MOL0     C81314   6.544   8.413   8.275  0.2225  0.3352 -0.6722
  590MOL0     C81315   6.676   8.374   8.316  0.5145  0.3456  0.2929
  590MOL0     C81316   6.765   8.461   8.377 -0.1930  0.3556  0.0600
  590MOL0     C81317   6.735   8.591   8.398  0.1051  0.0946  0.9469
  590MOL0     O81318   6.817   8.689   8.443 -0.2008  0.2104 -0.2588
  590MOL0     C81319   6.961   8.650   8.468 -0.4365  0.6809  0.3763
  590MOL0     C81320   7.029   8.782   8.461  0.1361 -0.2501 -0.2055
  590MOL0     C81321   6.989   8.879   8.579 -0.3156 -0.3693  0.3347
  590MOL0     C81322   7.103   8.959   8.646  0.0748 -0.3799  0.1833
  590MOL0     C81323   7.048   9.069   8.740  0.5991  0.3645 -0.2998
  590MOL0     C81324   7.152   9.160   8.813  0.3276 -0.8424  1.3466
  590MOL0     C81325   7.223   9.094   8.930 -0.0798  0.0816 -0.9449
  590MOL0     C81326   7.345   9.168   8.966 -1.4243  0.1303 -0.2976
  590MOL0    Cl81327   7.461   9.084   8.861  0.5247 -0.3468  0.0523
  590MOL0     C81328   6.606   8.628   8.356 -0.0366  0.1418 -0.1948
  590MOL0     C81329   6.506   8.544   8.307 -0.9245 -0.1921  0.0426
  590MOL0     O81330   6.422   8.214   8.412 -0.6233  0.5335  0.2299
  590MOL0     C81331   6.280   8.018   8.299 -0.3275  0.0432  0.5392
  590MOL0     C81332   6.188   7.927   8.246 -0.3499  0.6339  0.0782
  590MOL0     N81333   5.573   7.715   8.414 -0.4934  0.3475  0.8227
  590MOL0     N81334   5.497   7.620   8.456 -0.6809 -0.0779  0.1631
  590MOL0     C81335   4.229   7.144   8.357 -0.2833 -0.2871 -0.8496
  590MOL0     C81336   4.093   7.179   8.345  0.4780 -0.4780  0.1890
  590MOL0     C81337   3.697   7.423   8.196  0.0262 -0.6493 -0.9462
  590MOL0     C81338   3.641   7.297   8.234 -0.3251 -0.3677 -0.0917
  590MOL0     C81339   3.509   7.270   8.208  0.0978 -0.9192  0.1574
  590MOL0     C81340   3.423   7.362   8.159 -0.1788  0.8669  0.6045
  590MOL0     O81341   3.296   7.320   8.137  0.8204  0.5894  0.5036
  590MOL0     C81342   3.198   7.421   8.103 -0.4049  0.7710  0.8156
  590MOL0     C81343   3.058   7.372   8.135 -1.1433  0.5437  0.3317
  590MOL0     C81344   3.013   7.246   8.060 -0.1853  0.3050 -0.2098
  590MOL0     C81345   2.882   7.185   8.104 -0.7239 -0.4929 -0.8305
  590MOL0     C81346   2.761   7.271   8.077 -1.4810 -0.3035 -0.2342
  590MOL0     C81347   2.666   7.338   8.041  0.2293  0.7337 -0.2906
  590MOL0     C81348   3.468   7.482   8.109  0.2284 -0.1103  0.7594
  590MOL0     C81349   3.611   7.515   8.127 -0.3000 -0.1829  0.2563
  590MOL0     C81350   3.675   7.641   8.065  0.8827  0.0612  0.0705
  590MOL0     H81351   4.111   7.485   8.215 -0.2769  0.0486 -0.9502
  590MOL0     H81352   4.351   7.441   8.273  2.5155 -2.6829  1.4465
  590MOL0     H81353   4.527   7.383   8.394 -0.7767  4.2253 -5.2994
  590MOL0     H81354   4.545   7.351   8.221  1.8343 -3.3150 -1.4973
  590MOL0     H81355   4.712   7.217   8.455  2.5464  1.4196  0.0680
  590MOL0     H81356   4.714   7.173   8.287  3.2706  1.8046 -0.7328
  590MOL0     H81357   4.767   7.403   8.230 -1.5565 -2.4483 -1.3150
  590MOL0     H81358   4.793   7.426   8.415 -3.8637 -3.7887  2.1411
  590MOL0     H81359   4.945   7.227   8.399  2.5939 -1.2562 -1.1154
  590MOL0     H81360   4.932   7.241   8.218  2.9537  2.6429 -1.4312
  590MOL0     H81361   5.013   7.463   8.390 -0.3774  0.6922 -1.0179
  590MOL0     H81362   5.026   7.455   8.206  3.0902 -0.6986 -0.4340
  590MOL0     H81363   5.191   7.283   8.393 -0.6383 -1.1226 -0.0434
  590MOL0     H81364   5.194   7.280   8.217 -1.6580 -1.0923  0.6714
  590MOL0     H81365   5.257   7.538   8.330  1.8567 -1.9832  1.3168
  590MOL0     H81366   5.310   7.464   8.183 -0.8697  1.2933 -0.0109
  590MOL0     H81367   5.407   7.343   8.443 -2.7891 -1.5400 -0.6887
  590MOL0     H81368   5.462   7.331   8.277 -0.8332  1.6113 -3.2625
  590MOL0     H81369   5.656   7.473   8.214  1.6959 -1.2841  1.2549
  590MOL0     H81370   5.806   7.678   8.156  2.2523  2.1104 -0.6273
  590MOL0     H81371   5.845   7.769   8.298  2.1405 -1.2905 -2.1513
  590MOL0     H81372   5.650   7.805   8.071 -2.6669 -0.5402  3.0208
  590MOL0     H81373   5.633   7.916   8.199  2.0334  4.7465 -0.5043
  590MOL0     H81374   5.754   8.026   8.039  1.8456  1.4590  1.4082
  590MOL0     H81375   5.846   7.984   8.188 -2.3951  0.6062  0.8111
  590MOL0     H81376   5.883   7.812   7.941 -4.2241  1.0245  1.8196
  590MOL0     H81377   5.941   7.971   7.926  2.1590  1.7546  3.2919
  590MOL0     H81378   6.092   8.087   7.963  0.3388 -0.1224  0.4132
  590MOL0     H81379   6.338   8.300   7.995 -0.0985 -1.8018  1.8512
  590MOL0     H81380   6.217   8.383   8.089  0.9448  1.6121 -0.7323
  590MOL0     H81381   6.172   8.292   7.941 -0.6222 -0.0122  0.7533
  590MOL0     H81382   6.697   8.268   8.308  1.6844  0.6339 -0.6718
  590MOL0     H81383   6.858   8.417   8.411  2.0110  2.1732 -3.1018
  590MOL0     H81384   6.980   8.594   8.560  0.6997  2.2186  1.1082
  590MOL0     H81385   7.004   8.581   8.395 -2.2702 -0.1006 -0.0360
  590MOL0     H81386   7.137   8.767   8.456  0.5844  2.7308 -1.6744
  590MOL0     H81387   7.005   8.824   8.363 -0.5200  0.1079  0.1061
  590MOL0     H81388   6.947   8.824   8.663 -2.5547  0.3026 -0.2794
  590MOL0     H81389   6.914   8.942   8.530  0.4000 -0.7588 -1.3288
  590MOL0     H81390   7.167   9.005   8.570 -1.1335  1.2581  0.1091
  590MOL0     H81391   7.167   8.892   8.704 -0.6797 -0.7506  0.5967
  590MOL0     H81392   6.974   9.133   8.690 -1.0720 -1.1982  0.0570
  590MOL0     H81393   7.003   9.015   8.824  0.9408 -3.1967 -2.2388
  590MOL0     H81394   7.099   9.255   8.826  0.3103 -0.3054 -1.8455
  590MOL0     H81395   7.232   9.187   8.744  1.9895 -2.3983  2.5712
  590MOL0     H81396   7.233   8.985   8.924  1.0125  0.2171 -1.8631
  590MOL0     H81397   7.155   9.122   9.011 -0.4335 -1.4014 -0.6980
  590MOL0     H81398   7.399   9.146   9.058  0.0984  1.9911 -0.6845
  590MOL0     H81399   7.338   9.275   8.944 -0.4894  0.1467 -0.5188
  590MOL0     H81400   6.574   8.730   8.374 -2.3726 -0.5187 -0.2005
  590MOL0     H81401   6.413   8.592   8.278 -1.1418 -1.2381 -1.0561
  590MOL0     H81402   6.321   7.987   8.394  1.3619  2.5677  0.7125
  590MOL0     H81403   6.187   7.826   8.288  1.4712  0.4808 -0.1524
  590MOL0     H81404   4.245   7.041   8.387 -4.6346 -1.7216 -2.7147
  590MOL0     H81405   4.021   7.098   8.355 -0.1962  0.3350  2.3322
  590MOL0     H81406   3.701   7.222   8.284 -0.8559 -0.5699  0.2437
  590MOL0     H81407   3.469   7.170   8.227 -2.1170  0.2566  2.1909
  590MOL0     H81408   3.222   7.511   8.159  0.1976  1.3459 -0.3294
  590MOL0     H81409   3.198   7.446   7.996 -0.9022  1.2954  0.9381
  590MOL0     H81410   2.997   7.454   8.095  0.3429  0.8403 -1.4937
  590MOL0     H81411   3.043   7.365   8.243 -0.2222  2.1987  0.5932
  590MOL0     H81412   3.015   7.273   7.954  0.9876 -2.0029 -0.8346
  590MOL0     H81413   3.093   7.172   8.069  0.1163  0.3986 -1.8724
  590MOL0     H81414   2.886   7.158   8.210 -3.6305  2.7196  0.2840
  590MOL0     H81415   2.868   7.095   8.043 -2.7501 -0.3725 -0.6430
  590MOL0     H81416   2.575   7.393   8.030  1.1017  3.0592  2.6375
  590MOL0     H81417   3.415   7.551   8.045 -0.8696 -0.1656  1.5879
  590MOL0     H81418   3.711   7.708   8.143  2.1799 -0.9061  0.3291
  590MOL0     H81419   3.768   7.608   8.017  1.1372  0.3599  0.3568
  590MOL0     H81420   3.607   7.679   7.988  0.3588 -2.0565 -0.5822
  591MOL0     O81421   3.421   7.722   4.187 -0.0654  0.1743  0.2581
  591MOL0     C81422   3.314   7.759   4.128 -0.5270 -0.1320  0.1698
  591MOL0     O81423   3.196   7.806   4.190  0.2327  0.1882  0.2357
  591MOL0     C81424   3.227   7.870   4.313 -0.2857  0.8783  0.3829
  591MOL0     C81425   3.263   7.793   4.425 -0.8533 -0.1958  0.4885
  591MOL0     C81426   3.289   7.847   4.549 -0.6251 -0.2436  0.1332
  591MOL0     C81427   3.281   7.987   4.574 -0.8369  1.5014 -0.1556
  591MOL0     O81428   3.277   8.052   4.696 -0.4009  0.5354  0.0204
  591MOL0     C81429   3.269   7.966   4.805  1.0793  0.6036  0.0456
  591MOL0     C81430   3.255   8.046   4.937 -0.6977  0.5691 -0.0637
  591MOL0     C81431   3.372   8.140   4.956 -0.5462 -0.9086 -0.4057
  591MOL0     C81432   3.506   8.091   4.974  0.6177  0.1544 -0.6526
  591MOL0     C81433   3.611   8.202   4.951  1.0884  0.3486  0.6583
  591MOL0     C81434   3.739   8.195   5.040 -0.5072  0.3449  1.0140
  591MOL0     C81435   3.830   8.319   5.042  0.6750 -0.4655 -0.4566
  591MOL0     C81436   3.897   8.361   4.910 -0.2062 -0.0009 -0.3979
  591MOL0     N81437   4.004   8.458   4.936 -0.1486 -0.3300 -0.2012
  591MOL0     C81438   4.138   8.444   4.940  0.2229 -0.4105 -0.3449
  591MOL0     C81439   4.182   8.571   4.970 -0.1487  0.1959  1.0022
  591MOL0     C81440   4.331   8.611   4.945  0.6681  0.2530 -0.5988
  591MOL0     C81441   4.392   8.701   5.052 -0.6534 -0.1376 -0.1812
  591MOL0     C81442   4.544   8.710   5.032  0.7748 -0.5484 -0.3204
  591MOL0     C81443   4.601   8.827   5.098 -0.0036 -0.4396 -0.2877
  591MOL0     O81444   4.587   8.826   5.242 -0.0069  0.1938 -1.0516
  591MOL0     C81445   4.602   8.716   5.323 -0.7894  0.6029  0.1584
  591MOL0     C81446   4.725   8.651   5.332 -0.1507  0.1638 -0.7797
  591MOL0     C81447   4.747   8.534   5.410  0.2438 -0.4811 -0.2536
  591MOL0     C81448   4.875   8.446   5.393 -0.2170 -0.9917  0.9822
  591MOL0     C81449   4.639   8.492   5.497  1.5112 -0.6507 -0.1619
  591MOL0     C81450   4.634   8.365   5.563 -0.0791  0.2664 -0.6980
  591MOL0     O81451   4.513   8.297   5.589  1.1016 -0.1983 -0.3518
  591MOL0     C81452   4.481   8.165   5.603 -0.4483  0.1171  0.0532
  591MOL0     C81453   4.364   8.129   5.674 -1.5294 -0.4052  0.5470
  591MOL0     C81454   4.333   7.991   5.681 -0.1424  0.0655  0.0643
  591MOL0     C81455   4.414   7.899   5.627  0.2923 -0.1333 -0.2695
  591MOL0     O81456   4.398   7.765   5.665 -0.9464 -0.5531 -0.3349
  591MOL0     C81457   4.516   7.679   5.665  0.4770 -0.0152  1.3497
  591MOL0     C81458   4.472   7.527   5.684  0.2396 -0.4564 -0.3361
  591MOL0     C81459   4.595   7.444   5.700 -0.0037  0.2913 -1.1775
  591MOL0     C81460   4.584   7.297   5.742  0.1885 -0.3930  0.1977
  591MOL0     C81461   4.732   7.228   5.725  0.4718  0.3304 -0.2702
  591MOL0     C81462   4.722   7.080   5.774 -0.1767  0.6563  0.4261
  591MOL0     C81463   4.857   7.013   5.776  0.4506 -0.0206 -0.2368
  591MOL0     C81464   4.841   6.861   5.803 -0.1545  0.1128  0.3230
  591MOL0    Cl81465   4.724   6.781   5.682  0.2274 -0.3084 -0.0482
  591MOL0     C81466   4.517   7.938   5.546 -0.2947 -0.6996  0.1680
  591MOL0     C81467   4.558   8.074   5.535  0.6387 -0.0291  0.7911
  591MOL0     O81468   4.737   8.311   5.599 -0.5408 -1.0045 -0.3512
  591MOL0     C81469   4.522   8.567   5.497 -0.8860  0.0710 -0.4224
  591MOL0     C81470   4.507   8.681   5.418  0.7122 -1.2740  0.5321
  591MOL0     N81471   4.077   8.655   4.997 -0.5080 -0.2995 -0.8679
  591MOL0     N81472   3.977   8.590   4.961  0.6588 -0.2974  0.7212
  591MOL0     C81473   3.257   8.070   4.465  0.4402  0.1815  0.1725
  591MOL0     C81474   3.227   8.011   4.336  0.6757  0.5557 -0.0564
  591MOL0     C81475   3.313   7.757   3.978 -1.5642  0.2059  0.6402
  591MOL0     C81476   3.206   7.831   3.920  0.2200 -1.5738 -0.5144
  591MOL0     C81477   3.173   7.815   3.787  0.8390 -0.3691  0.0961
  591MOL0     C81478   3.252   7.735   3.701  0.3195 -0.2034  0.0044
  591MOL0     O81479   3.230   7.714   3.562  0.7413 -0.0270 -0.8138
  591MOL0     C81480   3.093   7.733   3.508 -0.1836  0.2627  0.9121
  591MOL0     C81481   3.086   7.684   3.364 -0.4155 -0.6806  0.4683
  591MOL0     C81482   3.113   7.535   3.352 -0.1942 -0.8540 -0.8002
  591MOL0     C81483   2.996   7.464   3.415  1.2382  0.2195  0.0800
  591MOL0     C81484   2.989   7.315   3.386  0.0529 -0.5346  1.0433
  591MOL0     C81485   2.997   7.195   3.369 -0.6264 -0.5897  0.7857
  591MOL0     C81486   3.360   7.663   3.762  1.3247 -0.1994 -0.1998
  591MOL0     C81487   3.398   7.680   3.897  0.6165  0.1748 -0.7316
  591MOL0     C81488   3.512   7.599   3.948 -0.8372  0.0307 -0.8469
  591MOL0     H81489   3.266   7.685   4.412  0.9835 -0.0135 -0.9514
  591MOL0     H81490   3.300   7.769   4.623  1.3763  0.8650  1.1103
  591MOL0     H81491   3.358   7.903   4.809  0.4751 -0.4680 -1.8416
  591MOL0     H81492   3.182   7.903   4.785 -0.2964  2.6329 -0.6811
  591MOL0     H81493   3.157   8.094   4.944 -0.6197  0.7350 -0.0982
  591MOL0     H81494   3.260   7.972   5.017 -0.5412  1.8463  1.1294
  591MOL0     H81495   3.366   8.200   4.865 -0.7819  0.5786  0.5532
  591MOL0     H81496   3.346   8.209   5.037 -0.7761  1.2273 -2.1896
  591MOL0     H81497   3.509   8.055   5.077  3.5651  3.9128  0.8178
  591MOL0     H81498   3.524   8.005   4.909  2.3997 -1.2527  1.5411
  591MOL0     H81499   3.565   8.301   4.959  3.3246  1.4051  1.1465
  591MOL0     H81500   3.641   8.197   4.845  1.2840  0.8288  0.6922
  591MOL0     H81501   3.705   8.172   5.141  0.3390  0.6582  1.3805
  591MOL0     H81502   3.797   8.110   5.005  2.9435  0.3077  5.8456
  591MOL0     H81503   3.910   8.316   5.116 -2.6414 -0.0355  3.4554
  591MOL0     H81504   3.770   8.399   5.085 -2.8331 -2.0121 -2.1160
  591MOL0     H81505   3.946   8.278   4.857  0.3430  0.1715 -0.1669
  591MOL0     H81506   3.822   8.404   4.843  0.8235 -0.6944 -2.0805
  591MOL0     H81507   4.198   8.365   4.895 -0.5679  0.3641 -2.9195
  591MOL0     H81508   4.331   8.663   4.849  0.3859  2.9033  0.7444
  591MOL0     H81509   4.398   8.525   4.937  1.2408  0.7146 -0.8813
  591MOL0     H81510   4.355   8.804   5.051 -0.5041 -0.0849 -0.3107
  591MOL0     H81511   4.366   8.656   5.149 -2.8173 -1.3624 -1.2491
  591MOL0     H81512   4.588   8.619   5.074 -0.0380 -0.4016  0.9008
  591MOL0     H81513   4.566   8.711   4.925 -3.4064  0.2406 -1.3198
  591MOL0     H81514   4.710   8.831   5.094  0.1808  2.7388  3.0399
  591MOL0     H81515   4.568   8.918   5.047 -1.4089 -1.2958 -0.9984
  591MOL0     H81516   4.804   8.702   5.278  0.4611 -0.1570 -0.2034
  591MOL0     H81517   4.930   8.423   5.484 -0.7258 -0.3157  1.4641
  591MOL0     H81518   4.945   8.510   5.337 -2.3310 -1.8107 -2.9801
  591MOL0     H81519   4.852   8.355   5.336 -5.1699  2.4501 -3.5079
  591MOL0     H81520   4.300   8.207   5.715 -1.1018  0.5425 -0.5562
  591MOL0     H81521   4.242   7.964   5.735  0.5135  0.1881  1.2732
  591MOL0     H81522   4.573   7.682   5.571 -0.3318  0.2646  0.8562
  591MOL0     H81523   4.578   7.698   5.753  0.2973 -0.5960  1.6036
  591MOL0     H81524   4.406   7.523   5.772 -0.6685 -2.3312 -1.0601
  591MOL0     H81525   4.416   7.499   5.594 -0.6639  1.7809 -0.5300
  591MOL0     H81526   4.654   7.485   5.783 -0.0727 -3.4983  0.9942
  591MOL0     H81527   4.669   7.458   5.622  1.4282  2.1757  0.4129
  591MOL0     H81528   4.517   7.241   5.675 -0.0658 -0.7362  0.7368
  591MOL0     H81529   4.555   7.287   5.847  1.4542 -0.3207  0.5709
  591MOL0     H81530   4.780   7.242   5.628  0.6941 -0.8318 -0.3402
  591MOL0     H81531   4.807   7.272   5.792  1.3025 -0.7683 -0.4491
  591MOL0     H81532   4.653   7.030   5.705  1.6716  0.6444 -1.5071
  591MOL0     H81533   4.689   7.081   5.878  1.5925 -0.6467  1.0356
  591MOL0     H81534   4.911   7.055   5.861 -0.0890 -2.3461  1.3562
  591MOL0     H81535   4.910   7.028   5.682 -0.5711 -0.0772 -0.8379
  591MOL0     H81536   4.811   6.855   5.907  0.5670 -0.1574  0.5245
  591MOL0     H81537   4.941   6.815   5.805 -0.1236  0.2028  1.8988
  591MOL0     H81538   4.583   7.881   5.480  0.5710 -1.4170  1.6143
  591MOL0     H81539   4.633   8.119   5.471  1.2607 -3.1616 -0.8792
  591MOL0     H81540   4.436   8.545   5.560 -0.7121  1.0301  0.1637
  591MOL0     H81541   4.413   8.734   5.426  1.7294  0.6377  0.2264
  591MOL0     H81542   3.264   8.178   4.473  1.2696  0.0774  1.1388
  591MOL0     H81543   3.208   8.076   4.251 -3.5223 -0.1479  0.1334
  591MOL0     H81544   3.135   7.903   3.960  0.1261 -0.4357 -2.5968
  591MOL0     H81545   3.081   7.865   3.762 -0.4470 -1.2715  2.6556
  591MOL0     H81546   3.016   7.676   3.561 -0.1672 -1.5207 -0.8805
  591MOL0     H81547   3.058   7.837   3.506 -1.2422 -0.0726 -1.4234
  591MOL0     H81548   3.161   7.729   3.299 -0.6643  1.2683  1.4321
  591MOL0     H81549   2.986   7.703   3.324  0.5309  0.4651 -1.5141
  591MOL0     H81550   3.130   7.505   3.248 -2.1046 -1.3662 -0.9935
  591MOL0     H81551   3.204   7.504   3.405  0.0848  2.6255  1.0492
  591MOL0     H81552   2.896   7.505   3.395  0.0386 -2.1572  0.7293
  591MOL0     H81553   2.995   7.474   3.523 -2.3051  1.5900  0.0639
  591MOL0     H81554   2.998   7.088   3.367  1.4560 -0.5883 -0.0818
  591MOL0     H81555   3.406   7.586   3.700 -1.1398 -0.6930 -1.5741
  591MOL0     H81556   3.588   7.666   3.990 -0.2297 -0.2327 -1.5172
  591MOL0     H81557   3.492   7.523   4.024  2.1244 -1.5968 -1.5280
  591MOL0     H81558   3.556   7.540   3.867 -2.1689 -2.0133 -0.1460
  592MOL0     O81559   0.940  11.281  10.747 -0.6866 -0.0840  0.8232
  592MOL0     C81560   1.015  11.372  10.711 -1.2507  0.4862 -0.0715
  592MOL0     O81561   1.152  11.364  10.713 -0.3037 -0.0380  0.2155
  592MOL0     C81562   1.231  11.263  10.752 -0.4920  1.4152  1.0119
  592MOL0     C81563   1.212  11.190  10.869  1.4569 -0.4061 -0.1485
  592MOL0     C81564   1.286  11.078  10.898 -0.4390  0.0065  0.3989
  592MOL0     C81565   1.401  11.051  10.824  0.1997 -0.7211 -1.2463
  592MOL0     O81566   1.496  10.954  10.850 -0.7054  0.2928 -0.2376
  592MOL0     C81567   1.519  10.924  10.994  0.1647 -0.0407  0.5557
  592MOL0     C81568   1.631  10.820  11.010  0.0297  0.0102  0.6400
  592MOL0     C81569   1.652  10.786  11.158  0.3127 -0.3641  1.0885
  592MOL0     C81570   1.723  10.654  11.179 -0.1454 -0.3497 -0.8373
  592MOL0     C81571   1.773  10.639  11.320 -0.2450  0.5663 -0.7668
  592MOL0     C81572   1.665  10.589  11.414  0.6073  0.6340 -0.2721
  592MOL0     C81573   1.731  10.541  11.551 -0.6840 -0.0240 -0.1797
  592MOL0     C81574   1.627  10.500  11.659  0.1416 -0.6049 -0.5227
  592MOL0     N81575   1.669  10.501  11.800 -0.7474  0.2834  0.2840
  592MOL0     C81576   1.795  10.457  11.833  0.7277  0.4857  0.9110
  592MOL0     C81577   1.815  10.487  11.963  0.0376  0.2222  0.5517
  592MOL0     C81578   1.943  10.476  12.028 -0.6468  0.0286 -0.8570
  592MOL0     C81579   1.959  10.334  12.101  0.5645 -0.5162  0.6854
  592MOL0     C81580   1.886  10.323  12.237  0.1120 -0.3368 -0.2268
  592MOL0     C81581   1.737  10.318  12.234  0.6327  0.6868 -0.5975
  592MOL0     O81582   1.680  10.211  12.304 -0.5150 -0.3071  0.3245
  592MOL0     C81583   1.545  10.183  12.292 -0.2085 -0.7414 -1.1117
  592MOL0     C81584   1.494  10.074  12.357  1.1811  0.2638  0.3201
  592MOL0     C81585   1.356  10.030  12.345 -0.6645  0.3479  0.5337
  592MOL0     C81586   1.308   9.928  12.443  0.3038  0.8080 -0.2651
  592MOL0     C81587   1.267  10.104  12.268  0.0657 -0.0667  0.7727
  592MOL0     C81588   1.132  10.068  12.231  0.1444  0.0182  0.1159
  592MOL0     O81589   1.057  10.169  12.172 -0.1679 -0.1798 -0.6606
  592MOL0     C81590   0.919  10.177  12.155 -1.6775 -0.4783  0.2430
  592MOL0     C81591   0.876  10.287  12.073  0.2535  0.1026  0.2660
  592MOL0     C81592   0.737  10.295  12.039 -0.6217  0.0470  0.8647
  592MOL0     C81593   0.652  10.201  12.078  0.5012  0.2021 -0.7460
  592MOL0     O81594   0.523  10.234  12.048  0.7364  0.3238 -0.0005
  592MOL0     C81595   0.418  10.134  12.058  0.0184  0.4323 -0.0211
  592MOL0     C81596   0.327  10.155  12.181 -0.2761 -0.1618 -0.1524
  592MOL0     C81597   0.209  10.057  12.179 -0.3123  0.2620  0.6365
  592MOL0     C81598   0.162  10.042  12.324 -1.1803 -0.6823  0.2373
  592MOL0     C81599   0.065   9.925  12.339  0.2553 -0.0396 -0.5121
  592MOL0     C81600   0.018   9.907  12.490  0.0582  0.0589 -0.9586
  592MOL0     C81601  -0.082   9.790  12.497 -0.3639 -0.1693  0.8532
  592MOL0     C81602  -0.017   9.649  12.457 -1.0054 -0.9342 -0.0971
  592MOL0    Cl81603   0.135   9.615  12.542  0.3876  0.0578  0.0434
  592MOL0     C81604   0.695  10.092  12.150  0.7594  0.4941  0.8489
  592MOL0     C81605   0.825  10.084  12.195  0.4502  0.1583  0.1417
  592MOL0     O81606   1.088   9.953  12.255  0.0464 -2.0127 -0.0943
  592MOL0     C81607   1.326  10.212  12.200  0.4896  0.3471  1.7303
  592MOL0     C81608   1.458  10.259  12.210 -0.5904 -0.0067 -0.5404
  592MOL0     N81609   1.691  10.551  12.004  0.6451  0.3885 -0.0066
  592MOL0     N81610   1.608  10.546  11.907 -0.1260 -0.6996 -0.5989
  592MOL0     C81611   1.431  11.140  10.718  0.3700 -0.6102  0.2097
  592MOL0     C81612   1.348  11.241  10.680  0.5165 -1.4642  0.5307
  592MOL0     C81613   0.956  11.503  10.672 -0.1859 -0.1560 -0.2208
  592MOL0     C81614   1.038  11.586  10.598  0.2815  0.2699  0.0676
  592MOL0     C81615   1.006  11.712  10.547 -0.1953 -0.3340 -0.1911
  592MOL0     C81616   0.882  11.770  10.589 -0.7378  0.6405  0.2835
  592MOL0     O81617   0.825  11.897  10.572 -0.6758  0.2487  0.1288
  592MOL0     C81618   0.848  11.964  10.448  0.0459  0.1908  0.3676
  592MOL0     C81619   0.716  11.986  10.375  0.4109  0.1398 -1.1056
  592MOL0     C81620   0.645  11.847  10.366 -0.1813 -1.3771  0.4517
  592MOL0     C81621   0.720  11.766  10.264  0.2913 -0.6345  0.0637
  592MOL0     C81622   0.729  11.822  10.127  0.8083 -0.9971 -0.2699
  592MOL0     C81623   0.756  11.862  10.014 -0.0082  0.3826 -0.1135
  592MOL0     C81624   0.795  11.684  10.662  0.0256 -0.1028 -0.5828
  592MOL0     C81625   0.830  11.557  10.713  0.0417 -0.1378 -0.7352
  592MOL0     C81626   0.752  11.500  10.825 -0.6656 -0.5262  0.2535
  592MOL0     H81627   1.125  11.218  10.927 -1.0708 -1.9100 -2.9499
  592MOL0     H81628   1.260  11.023  10.989  3.2067 -1.8724  0.4893
  592MOL0     H81629   1.429  10.884  11.043 -0.2182 -0.1348 -0.2129
  592MOL0     H81630   1.542  11.014  11.053  2.0522  0.2145 -0.5074
  592MOL0     H81631   1.611  10.727  10.956 -0.2237 -2.6982  4.9476
  592MOL0     H81632   1.717  10.880  10.978 -2.4797  4.1639  0.9477
  592MOL0     H81633   1.705  10.874  11.195 -1.2524  0.6988  0.9313
  592MOL0     H81634   1.556  10.791  11.211  1.0900 -2.9023  2.9171
  592MOL0     H81635   1.664  10.569  11.144 -0.5442 -0.2207 -0.4842
  592MOL0     H81636   1.815  10.670  11.121 -1.2289  1.3639 -2.1638
  592MOL0     H81637   1.808  10.735  11.359 -0.8786  0.5885 -0.2386
  592MOL0     H81638   1.850  10.562  11.322 -0.2127  0.4779  3.6363
  592MOL0     H81639   1.589  10.666  11.429  1.0615  0.9363  0.5298
  592MOL0     H81640   1.613  10.503  11.370  0.1753 -1.7048  4.2466
  592MOL0     H81641   1.786  10.623  11.598 -1.8971  2.4480 -2.7721
  592MOL0     H81642   1.797  10.458  11.526  0.4700 -0.0080  2.4738
  592MOL0     H81643   1.538  10.563  11.651  1.0470  0.5045 -3.1326
  592MOL0     H81644   1.593  10.398  11.643 -1.9796  0.2326 -1.7567
  592MOL0     H81645   1.856  10.407  11.758  0.2536  2.0201 -0.5446
  592MOL0     H81646   1.948  10.555  12.104  3.0446 -1.9244  1.2116
  592MOL0     H81647   2.024  10.493  11.957  0.2219 -0.3917  0.0113
  592MOL0     H81648   1.920  10.252  12.040 -1.9148 -0.3947  1.9899
  592MOL0     H81649   2.066  10.328  12.126  0.4198 -0.4833  1.3208
  592MOL0     H81650   1.932  10.235  12.282  0.9558  0.7052  1.0388
  592MOL0     H81651   1.918  10.403  12.305 -1.7203 -0.3656  0.7475
  592MOL0     H81652   1.688  10.409  12.271 -0.0976  1.2587 -2.8149
  592MOL0     H81653   1.709  10.307  12.129  0.0422  2.2707 -0.6415
  592MOL0     H81654   1.560  10.015  12.420 -1.9728 -0.1773  3.5339
  592MOL0     H81655   1.225   9.975  12.496  0.6857  2.2157 -0.8575
  592MOL0     H81656   1.384   9.897  12.515  2.0575 -2.5450 -3.2256
  592MOL0     H81657   1.272   9.834  12.399  1.3491 -0.3960  1.3188
  592MOL0     H81658   0.933  10.374  12.044 -0.8364  1.0145  0.7799
  592MOL0     H81659   0.696  10.388  12.000 -3.1488  0.0347  3.1567
  592MOL0     H81660   0.356  10.138  11.968  0.8723 -0.1354 -0.6369
  592MOL0     H81661   0.451  10.030  12.067 -2.7891 -0.4208  2.1883
  592MOL0     H81662   0.396  10.130  12.263 -1.6321  0.0925  1.1066
  592MOL0     H81663   0.297  10.259  12.198  2.6846  0.4332  2.5605
  592MOL0     H81664   0.234   9.960  12.136 -3.3215 -0.9689  1.4023
  592MOL0     H81665   0.140  10.109  12.112  1.7134  1.4733 -0.6204
  592MOL0     H81666   0.133  10.144  12.350  0.2619  0.1773 -1.3589
  592MOL0     H81667   0.241  10.010  12.393 -0.7537  1.4318  0.8149
  592MOL0     H81668  -0.025   9.947  12.281 -1.6291 -1.2566  1.8124
  592MOL0     H81669   0.116   9.833  12.311 -0.9827 -0.8175 -0.2384
  592MOL0     H81670  -0.027   9.999  12.529  1.0083  1.0045 -2.0138
  592MOL0     H81671   0.100   9.886  12.560 -1.2401 -1.6357  0.1536
  592MOL0     H81672  -0.164   9.808  12.426  0.9908  1.8498 -0.3133
  592MOL0     H81673  -0.116   9.775  12.600 -3.1653 -2.2313 -0.2443
  592MOL0     H81674   0.010   9.639  12.351  1.1367  2.5282 -0.0285
  592MOL0     H81675  -0.092   9.573  12.481  1.2642 -2.7226  1.8321
  592MOL0     H81676   0.626  10.011  12.172 -0.8430  1.8637  0.9820
  592MOL0     H81677   0.840   9.995  12.255 -4.1284  0.5263  2.2619
  592MOL0     H81678   1.268  10.281  12.139  0.6702  0.3435  1.5540
  592MOL0     H81679   1.487  10.349  12.156  1.6841  0.9339  2.0158
  592MOL0     H81680   1.530  11.128  10.675  0.2747  0.7629 -0.4585
  592MOL0     H81681   1.387  11.307  10.604  3.0771 -3.1512  0.2722
  592MOL0     H81682   1.125  11.534  10.558 -0.1127 -0.7744  0.5143
  592MOL0     H81683   1.081  11.769  10.493 -2.0203  0.1594 -2.3339
  592MOL0     H81684   0.894  12.061  10.468 -0.1959  0.6798 -1.3730
  592MOL0     H81685   0.915  11.907  10.383 -0.4826  1.1772 -1.0895
  592MOL0     H81686   0.736  12.031  10.277 -0.4108 -1.5624 -2.0880
  592MOL0     H81687   0.648  12.054  10.427 -0.1303  0.1914 -1.8843
  592MOL0     H81688   0.630  11.802  10.465 -0.5240 -1.9284  0.1519
  592MOL0     H81689   0.543  11.853  10.326  0.7709 -0.5288 -2.0605
  592MOL0     H81690   0.665  11.672  10.271 -0.8727  0.1301  2.9675
  592MOL0     H81691   0.827  11.753  10.281 -0.0263 -1.8002  1.3403
  592MOL0     H81692   0.789  11.894   9.917  0.2442 -0.1115 -0.1954
  592MOL0     H81693   0.707  11.734  10.703  1.2240  2.3162 -0.7321
  592MOL0     H81694   0.731  11.394  10.812 -3.0318 -0.0178 -0.5842
  592MOL0     H81695   0.804  11.523  10.919  0.5973 -1.6220 -0.1479
  592MOL0     H81696   0.659  11.558  10.832  1.2794  2.6762  2.4508
  593MOL0     O81697   8.273   2.062   1.122 -0.3355  0.5389 -0.3865
  593MOL0     C81698   8.200   2.070   1.020 -0.1593 -0.7574 -1.0536
  593MOL0     O81699   8.254   2.107   0.897  0.4500 -0.1738 -0.4146
  593MOL0     C81700   8.383   2.138   0.865  0.4636 -0.3527  1.1668
  593MOL0     C81701   8.402   2.186   0.735 -0.1972 -0.9698 -0.0857
  593MOL0     C81702   8.536   2.213   0.685 -0.2019  0.1973 -0.3142
  593MOL0     C81703   8.647   2.209   0.765  0.5744  0.9586 -0.7745
  593MOL0     O81704   8.764   2.261   0.730 -1.0136  0.2042 -0.2287
  593MOL0     C81705   8.878   2.175   0.720 -0.6228 -0.1484 -0.1188
  593MOL0     C81706   8.998   2.233   0.637  0.7960 -0.6573  0.7791
  593MOL0     C81707   8.938   2.219   0.489  0.3448 -0.5868 -0.6999
  593MOL0     C81708   9.041   2.267   0.392 -0.5232  0.3945 -0.3667
  593MOL0     C81709   8.989   2.234   0.249 -0.5694 -0.9535 -0.6902
  593MOL0     C81710   9.083   2.139   0.172 -0.4806  0.6840  0.3389
  593MOL0     C81711   9.016   2.099   0.035 -0.0590 -0.6616  0.0958
  593MOL0     C81712   9.099   1.988  -0.037 -0.1378 -0.4790 -0.8338
  593MOL0     N81713   9.031   1.908  -0.135  0.2703 -1.1788  0.3449
  593MOL0     C81714   8.983   1.953  -0.265 -0.2566  0.3418  0.4590
  593MOL0     C81715   8.893   1.862  -0.307  0.0796 -0.5371 -0.1382
  593MOL0     C81716   8.817   1.849  -0.427 -0.0641 -0.4559  0.0502
  593MOL0     C81717   8.819   1.708  -0.478 -0.4405  0.3357  0.4761
  593MOL0     C81718   8.751   1.710  -0.611 -0.6042  0.4989 -0.3930
  593MOL0     C81719   8.767   1.587  -0.700 -0.0802  0.5714 -0.3222
  593MOL0     O81720   8.704   1.626  -0.824 -0.1349 -0.0048  0.4405
  593MOL0     C81721   8.766   1.557  -0.934  0.1851  0.2500 -0.0630
  593MOL0     C81722   8.787   1.637  -1.054  0.6588  0.5369 -0.1926
  593MOL0     C81723   8.851   1.580  -1.165  0.6786 -1.8284 -0.9123
  593MOL0     C81724   8.874   1.666  -1.292  0.2946  1.0124 -0.3300
  593MOL0     C81725   8.902   1.456  -1.151 -0.3153  1.2443 -0.9632
  593MOL0     C81726   8.951   1.376  -1.267  0.4854 -1.1854 -0.3734
  593MOL0     O81727   8.873   1.384  -1.387 -0.0455  0.0307  0.8469
  593MOL0     C81728   8.929   1.320  -1.494 -0.0985 -0.9557  0.1495
  593MOL0     C81729   8.895   1.189  -1.525 -0.4391  0.3117 -0.3663
  593MOL0     C81730   8.965   1.128  -1.630 -0.1500 -0.0676 -0.0114
  593MOL0     C81731   9.068   1.198  -1.697  0.6049  0.5400 -0.0355
  593MOL0     O81732   9.144   1.128  -1.781 -0.1107 -0.3986 -0.3572
  593MOL0     C81733   9.292   1.151  -1.785 -0.0472 -0.6628 -0.1514
  593MOL0     C81734   9.329   1.169  -1.923  0.2672  0.6139  0.0882
  593MOL0     C81735   9.480   1.191  -1.957 -0.6226 -0.6173  1.0343
  593MOL0     C81736   9.504   1.226  -2.108 -0.2048 -0.7903  0.4013
  593MOL0     C81737   9.635   1.290  -2.123  0.1000 -0.0798 -0.4410
  593MOL0     C81738   9.751   1.175  -2.135  0.2413  0.0111  0.6535
  593MOL0     C81739   9.878   1.252  -2.168  0.0924  0.4421  0.2997
  593MOL0     C81740   9.993   1.155  -2.169 -0.5959 -0.4107 -0.0369
  593MOL0    Cl81741  10.049   1.117  -1.996 -0.3177  0.0767  0.4448
  593MOL0     C81742   9.093   1.330  -1.667  0.1317  0.6902 -0.7914
  593MOL0     C81743   9.025   1.393  -1.563  1.3243  0.0767  0.0753
  593MOL0     O81744   9.058   1.317  -1.250  0.3983 -0.2842  0.0626
  593MOL0     C81745   8.882   1.381  -1.037 -0.3980 -0.3810 -0.3728
  593MOL0     C81746   8.821   1.430  -0.928 -0.1389 -0.2579 -0.3694
  593MOL0     N81747   8.888   1.764  -0.201 -0.5447  0.0592  0.1294
  593MOL0     N81748   8.955   1.800  -0.103  0.1439  0.1822 -0.4576
  593MOL0     C81749   8.631   2.156   0.899  0.1708  0.1316  0.5316
  593MOL0     C81750   8.501   2.122   0.942 -0.1197 -0.2868 -0.3790
  593MOL0     C81751   8.060   2.039   1.038 -0.1570 -0.1229 -0.0243
  593MOL0     C81752   7.965   2.125   0.972 -0.7599  0.1902 -0.9482
  593MOL0     C81753   7.834   2.096   0.979  0.4832 -0.1800  0.6250
  593MOL0     C81754   7.785   1.977   1.039  0.2704 -0.6845 -0.2868
  593MOL0     O81755   7.650   1.958   1.041  0.1637 -0.7423 -0.6954
  593MOL0     C81756   7.591   1.864   0.950  0.0328 -0.4952 -0.5662
  593MOL0     C81757   7.507   1.946   0.857  0.4385 -0.4670 -0.3570
  593MOL0     C81758   7.434   1.867   0.750 -0.0567  0.7998  0.4220
  593MOL0     C81759   7.342   1.754   0.810 -0.3647 -0.4453 -0.4473
  593MOL0     C81760   7.235   1.730   0.711  1.1308  0.7357  0.0116
  593MOL0     C81761   7.140   1.704   0.632  0.2359 -0.0979  0.0313
  593MOL0     C81762   7.874   1.882   1.101  0.5855  0.4238  0.8537
  593MOL0     C81763   8.009   1.917   1.095  0.8269  0.5565 -1.3246
  593MOL0     C81764   8.097   1.812   1.166  0.2206 -0.3581  0.7806
  593MOL0     H81765   8.316   2.210   0.674  2.3751 -0.3210 -3.7452
  593MOL0     H81766   8.553   2.260   0.589  0.1436 -0.6948 -0.7060
  593MOL0     H81767   8.841   2.077   0.686 -2.4582 -0.3320  2.1867
  593MOL0     H81768   8.924   2.160   0.818  1.6832  1.4754 -0.8719
  593MOL0     H81769   9.021   2.335   0.670  1.8433 -0.3167 -0.8393
  593MOL0     H81770   9.087   2.171   0.649  0.4151 -1.1189  1.2728
  593MOL0     H81771   8.905   2.117   0.469  1.0026 -1.4051  2.0254
  593MOL0     H81772   8.856   2.291   0.483  1.3828  0.9691  2.0336
  593MOL0     H81773   9.042   2.376   0.395 -0.4859  0.6250 -3.9121
  593MOL0     H81774   9.139   2.221   0.406 -0.8264 -0.6460 -1.5168
  593MOL0     H81775   8.993   2.331   0.199  2.8581 -0.1829  0.7653
  593MOL0     H81776   8.891   2.188   0.232 -1.0189 -1.1259  1.9898
  593MOL0     H81777   9.180   2.185   0.154  1.4729 -2.4616  1.8586
  593MOL0     H81778   9.092   2.049   0.234 -0.3727  1.4333  1.4478
  593MOL0     H81779   9.010   2.188  -0.027 -0.2595 -2.1293 -2.0990
  593MOL0     H81780   8.909   2.082   0.046 -0.2646  1.7377  3.0615
  593MOL0     H81781   9.191   2.034  -0.076  0.4064  0.1247  1.0433
  593MOL0     H81782   9.133   1.913   0.035  1.0592 -2.0536 -2.9269
  593MOL0     H81783   9.009   2.045  -0.317 -2.5497  1.5861  1.3628
  593MOL0     H81784   8.859   1.914  -0.504 -0.7758 -1.6722 -1.4007
  593MOL0     H81785   8.714   1.883  -0.410 -0.6719 -0.3916 -3.1616
  593MOL0     H81786   8.917   1.668  -0.503  0.1372  1.5736  0.7025
  593MOL0     H81787   8.778   1.643  -0.399 -1.3690  1.2690  0.7920
  593MOL0     H81788   8.647   1.742  -0.600 -0.8143 -0.3380  0.1363
  593MOL0     H81789   8.788   1.792  -0.674 -1.2315 -1.0201 -2.8759
  593MOL0     H81790   8.875   1.578  -0.705 -0.1463 -0.3976 -0.2179
  593MOL0     H81791   8.712   1.505  -0.652 -0.2499  0.7929 -0.1341
  593MOL0     H81792   8.753   1.740  -1.054 -1.6632  0.0795  5.0233
  593MOL0     H81793   8.868   1.775  -1.285  1.3720  1.1427 -1.1867
  593MOL0     H81794   8.802   1.630  -1.367 -1.3232  4.5165 -0.7010
  593MOL0     H81795   8.975   1.645  -1.326  0.0318 -0.9481 -0.0445
  593MOL0     H81796   8.826   1.131  -1.465 -0.7212 -0.8965 -1.7838
  593MOL0     H81797   8.941   1.027  -1.661 -0.7806 -0.5812  1.9907
  593MOL0     H81798   9.323   1.241  -1.731  2.2101  1.0583 -3.8783
  593MOL0     H81799   9.338   1.062  -1.741 -0.0957  0.0658  1.4551
  593MOL0     H81800   9.313   1.075  -1.978  2.3325  0.6072 -0.5916
  593MOL0     H81801   9.276   1.252  -1.971 -0.6690 -0.5169 -0.9381
  593MOL0     H81802   9.544   1.102  -1.962  0.3856  0.1447 -1.8016
  593MOL0     H81803   9.518   1.260  -1.881 -1.0702  1.2290 -0.3342
  593MOL0     H81804   9.426   1.294  -2.144 -0.7702 -1.2289  0.7707
  593MOL0     H81805   9.503   1.139  -2.174  1.3403 -0.4682 -0.0891
  593MOL0     H81806   9.642   1.346  -2.216 -2.9120  1.3773  0.0963
  593MOL0     H81807   9.650   1.353  -2.035  0.1251  0.3476 -0.7528
  593MOL0     H81808   9.722   1.108  -2.217  2.1613  0.0334 -0.0792
  593MOL0     H81809   9.753   1.125  -2.038 -1.5134 -1.8292 -0.1657
  593MOL0     H81810   9.896   1.318  -2.083  1.6157 -0.8454  1.0395
  593MOL0     H81811   9.877   1.301  -2.265  0.3388 -1.5670 -0.7751
  593MOL0     H81812  10.074   1.201  -2.227 -1.8059  0.5551 -1.0068
  593MOL0     H81813   9.959   1.077  -2.238 -2.0064  0.9230 -0.9120
  593MOL0     H81814   9.161   1.393  -1.724 -2.1785  0.5726 -3.9814
  593MOL0     H81815   9.035   1.499  -1.542  0.9383 -0.3195  2.6065
  593MOL0     H81816   8.930   1.285  -1.025 -0.6947 -0.5585 -0.6122
  593MOL0     H81817   8.790   1.369  -0.843  0.3621  0.3729  0.2748
  593MOL0     H81818   8.714   2.148   0.969 -1.4717 -1.0910  2.4168
  593MOL0     H81819   8.489   2.084   1.043 -2.8867 -0.6620 -0.7719
  593MOL0     H81820   7.982   2.208   0.905  0.0339 -0.4781 -1.5985
  593MOL0     H81821   7.762   2.163   0.933  1.0235 -0.6968 -1.0566
  593MOL0     H81822   7.654   1.794   0.895 -0.9003  0.1302 -2.5228
  593MOL0     H81823   7.515   1.808   1.006 -1.1875  0.7390 -0.9013
  593MOL0     H81824   7.574   2.017   0.806 -3.0874  1.5150 -2.6838
  593MOL0     H81825   7.439   2.013   0.912 -0.6411 -0.2245 -1.9170
  593MOL0     H81826   7.388   1.955   0.705  0.3550  1.0915  0.5646
  593MOL0     H81827   7.502   1.838   0.670 -1.4822 -0.2258 -0.4621
  593MOL0     H81828   7.292   1.779   0.904 -3.2617  0.6214 -2.1476
  593MOL0     H81829   7.396   1.660   0.830 -2.1596 -1.4301  0.0014
  593MOL0     H81830   7.056   1.671   0.574  0.3130  1.2497 -0.8875
  593MOL0     H81831   7.834   1.800   1.158 -1.3622 -0.3315 -1.4146
  593MOL0     H81832   8.028   1.743   1.216 -0.3694 -0.2004  0.1974
  593MOL0     H81833   8.144   1.747   1.092  2.7305  1.6644  0.4688
  593MOL0     H81834   8.165   1.854   1.241 -2.1055  1.7245  1.8895
  594MOL0     O81835   5.655   4.913   5.372 -0.0175  0.0163  0.0937
  594MOL0     C81836   5.649   4.986   5.269  0.4391 -0.1521  0.2913
  594MOL0     O81837   5.683   5.119   5.266 -0.1141  0.8558  0.7915
  594MOL0     C81838   5.719   5.188   5.380 -0.8426 -0.2399 -0.4618
  594MOL0     C81839   5.802   5.299   5.367  0.1493 -0.1684 -0.3189
  594MOL0     C81840   5.837   5.379   5.472 -0.3169 -0.4115  0.8579
  594MOL0     C81841   5.781   5.359   5.594 -0.6442  0.0186 -1.0918
  594MOL0     O81842   5.820   5.444   5.697  0.4203 -0.1750  0.3602
  594MOL0     C81843   5.893   5.411   5.815 -0.4152  0.9852  0.2491
  594MOL0     C81844   6.023   5.334   5.777 -1.7016  0.2155  0.1599
  594MOL0     C81845   6.121   5.291   5.891 -0.7029  0.3762 -0.0917
  594MOL0     C81846   6.205   5.407   5.929 -0.6535  0.0311 -0.1242
  594MOL0     C81847   6.353   5.405   5.871 -0.2302 -0.5325  0.0732
  594MOL0     C81848   6.418   5.545   5.895  1.1142  0.1440  0.0596
  594MOL0     C81849   6.556   5.552   5.832  0.5185 -0.1471  0.5216
  594MOL0     C81850   6.629   5.682   5.852 -0.1040 -0.0775  0.2314
  594MOL0     N81851   6.647   5.706   5.996 -0.5408 -0.5780 -0.1093
  594MOL0     C81852   6.768   5.672   6.062 -0.5562 -0.3186  0.2710
  594MOL0     C81853   6.755   5.733   6.185  0.3346  0.1384  0.0388
  594MOL0     C81854   6.855   5.735   6.289 -0.1116  0.3855  0.3301
  594MOL0     C81855   6.884   5.868   6.349  0.4155  0.4755 -0.1118
  594MOL0     C81856   7.014   5.863   6.438 -0.7442 -0.0503 -0.0356
  594MOL0     C81857   7.083   6.006   6.467  0.6310  0.8312 -0.2173
  594MOL0     O81858   7.164   5.993   6.583  0.0073 -0.2103  1.0436
  594MOL0     C81859   7.298   5.994   6.562 -0.2433 -0.1274 -0.2198
  594MOL0     C81860   7.364   5.929   6.466 -0.9726  0.9490  0.4219
  594MOL0     C81861   7.502   5.926   6.441  0.6035  0.1712 -0.0481
  594MOL0     C81862   7.561   5.822   6.349  0.9089 -0.1871 -0.1372
  594MOL0     C81863   7.573   6.022   6.523  0.4562  0.4372  0.1928
  594MOL0     C81864   7.717   6.030   6.524 -0.4738  0.3453 -0.5486
  594MOL0     O81865   7.777   6.096   6.620  0.3664 -0.5684 -0.5763
  594MOL0     C81866   7.907   6.080   6.649  0.4317 -0.3058  0.2759
  594MOL0     C81867   7.973   6.192   6.690  0.2870  0.6360 -0.1584
  594MOL0     C81868   8.112   6.189   6.691 -0.0468 -0.5531 -0.3109
  594MOL0     C81869   8.189   6.073   6.678  0.0766 -0.1472 -0.5014
  594MOL0     O81870   8.326   6.070   6.684 -0.3921 -0.4768  0.8532
  594MOL0     C81871   8.360   5.990   6.789 -0.4607  0.6971  0.7684
  594MOL0     C81872   8.507   6.019   6.790  0.2452  0.5934 -0.6776
  594MOL0     C81873   8.577   5.946   6.676 -0.5433 -0.1183  0.1747
  594MOL0     C81874   8.703   5.884   6.717  0.5314 -0.1028  0.1399
  594MOL0     C81875   8.756   5.793   6.609 -0.6551  0.3044  0.6429
  594MOL0     C81876   8.814   5.873   6.484 -0.0121  0.7225  0.1347
  594MOL0     C81877   8.803   5.787   6.358  0.3649 -0.0873 -0.3472
  594MOL0     C81878   8.897   5.672   6.339 -1.3842 -0.2832  0.5034
  594MOL0    Cl81879   8.855   5.534   6.443 -0.2651  0.0136  0.5664
  594MOL0     C81880   8.112   5.960   6.635 -0.4785 -1.1257  0.2577
  594MOL0     C81881   7.975   5.964   6.624 -0.1183 -0.8273  0.0633
  594MOL0     O81882   7.774   5.984   6.425 -0.2482 -0.7559 -0.4726
  594MOL0     C81883   7.503   6.095   6.627 -0.2778  0.7790  0.4290
  594MOL0     C81884   7.366   6.080   6.650  0.5987  0.3890 -0.3482
  594MOL0     N81885   6.631   5.797   6.193 -0.2460 -0.4491 -0.1964
  594MOL0     N81886   6.568   5.776   6.079 -0.3877 -0.2663  0.7649
  594MOL0     C81887   5.696   5.245   5.616  0.3707 -0.0536  0.7653
  594MOL0     C81888   5.661   5.168   5.511  0.1448  0.1515  0.1044
  594MOL0     C81889   5.624   4.910   5.132 -0.1680 -0.5955  0.2644
  594MOL0     C81890   5.595   4.773   5.137  0.2705  0.4653  0.0692
  594MOL0     C81891   5.599   4.690   5.027 -0.6580 -0.6135 -0.3398
  594MOL0     C81892   5.607   4.745   4.899 -0.1604  0.9260 -0.2481
  594MOL0     O81893   5.592   4.653   4.792  0.8932  0.2477 -0.5629
  594MOL0     C81894   5.574   4.695   4.649 -0.0296  0.5000  0.9073
  594MOL0     C81895   5.540   4.573   4.562 -0.1698 -0.4247  0.9454
  594MOL0     C81896   5.637   4.454   4.595 -0.4934  0.5539 -1.5539
  594MOL0     C81897   5.622   4.343   4.486  0.3011  0.9640  1.1892
  594MOL0     C81898   5.672   4.213   4.531 -0.2338 -0.3649  0.0879
  594MOL0     C81899   5.699   4.110   4.580 -0.4701 -0.3782 -0.0297
  594MOL0     C81900   5.611   4.886   4.887 -0.3148  0.9548 -0.0293
  594MOL0     C81901   5.624   4.967   5.001  0.6497  0.4644 -0.3399
  594MOL0     C81902   5.640   5.114   4.978 -1.0346 -0.6148  0.9841
  594MOL0     H81903   5.825   5.327   5.264 -0.6994  0.7938 -0.2564
  594MOL0     H81904   5.909   5.460   5.469 -3.2241  2.3978 -3.5620
  594MOL0     H81905   5.844   5.341   5.884 -0.9724  0.8942 -0.2324
  594MOL0     H81906   5.918   5.504   5.866 -3.8403  1.4554  1.2766
  594MOL0     H81907   5.992   5.234   5.743  2.9591 -0.8256 -1.7520
  594MOL0     H81908   6.074   5.387   5.697 -1.3399 -0.4581 -0.0670
  594MOL0     H81909   6.062   5.250   5.974 -0.5845 -1.7582 -0.9849
  594MOL0     H81910   6.183   5.212   5.847 -0.6545  1.7084 -2.5831
  594MOL0     H81911   6.154   5.499   5.900 -2.4676 -0.4835  1.2764
  594MOL0     H81912   6.210   5.423   6.037 -1.9219  0.6703 -0.1394
  594MOL0     H81913   6.348   5.384   5.763  0.6893  0.7965 -0.2609
  594MOL0     H81914   6.411   5.329   5.923 -2.7690 -1.9369  0.9924
  594MOL0     H81915   6.354   5.625   5.856  1.8051  0.6879  0.0203
  594MOL0     H81916   6.434   5.557   6.002  3.1290 -2.4654  0.1368
  594MOL0     H81917   6.535   5.537   5.726 -2.4699 -2.3398  1.2814
  594MOL0     H81918   6.611   5.463   5.863  1.4439  0.2524  0.0430
  594MOL0     H81919   6.728   5.679   5.805  2.3086  1.6756  4.5495
  594MOL0     H81920   6.569   5.764   5.812 -0.1005  1.1797  2.6220
  594MOL0     H81921   6.853   5.616   6.025  2.2865  2.7926  1.6168
  594MOL0     H81922   6.944   5.675   6.266 -1.1232 -0.5847 -1.2091
  594MOL0     H81923   6.801   5.682   6.368 -3.1546  1.4013 -0.9353
  594MOL0     H81924   6.906   5.933   6.264  0.2608  0.2031 -0.3579
  594MOL0     H81925   6.801   5.901   6.412  3.0789  0.7886  3.6203
  594MOL0     H81926   6.983   5.826   6.536 -2.5374 -1.0634 -0.9302
  594MOL0     H81927   7.082   5.788   6.397 -0.5299 -0.1776  0.5388
  594MOL0     H81928   7.130   6.051   6.379  2.0751  3.9418  1.9407
  594MOL0     H81929   6.997   6.071   6.484 -1.2882 -1.9608  1.6850
  594MOL0     H81930   7.299   5.858   6.415 -1.2920  0.1982  1.8396
  594MOL0     H81931   7.483   5.769   6.295 -0.4740  0.9783  0.6350
  594MOL0     H81932   7.626   5.753   6.404  1.4154  1.3564  1.3071
  594MOL0     H81933   7.615   5.871   6.267  1.0866  3.5818  1.9531
  594MOL0     H81934   7.915   6.281   6.712  0.9789  1.2331 -0.7062
  594MOL0     H81935   8.162   6.279   6.728  1.4620 -0.6836 -1.8989
  594MOL0     H81936   8.303   6.015   6.878  0.0075 -1.3675  1.7103
  594MOL0     H81937   8.341   5.885   6.765  0.2830  0.7756 -0.2377
  594MOL0     H81938   8.527   6.125   6.776  1.0816  0.2644 -2.1538
  594MOL0     H81939   8.550   5.998   6.889  2.9004  1.8529 -1.4731
  594MOL0     H81940   8.607   6.026   6.608  4.4438 -1.8105 -0.0405
  594MOL0     H81941   8.503   5.879   6.630 -1.8236  1.0279  0.4997
  594MOL0     H81942   8.687   5.825   6.807  3.0580 -1.0507  0.0426
  594MOL0     H81943   8.780   5.956   6.746  1.4191 -0.7100 -0.6492
  594MOL0     H81944   8.840   5.737   6.650  1.4682  0.7081 -2.8124
  594MOL0     H81945   8.672   5.729   6.580 -1.6522  1.4568  0.9139
  594MOL0     H81946   8.919   5.897   6.498  0.1339  1.4560 -1.9974
  594MOL0     H81947   8.758   5.966   6.469 -1.4883 -0.4634 -2.5058
  594MOL0     H81948   8.826   5.856   6.277  1.6362 -0.9069 -0.7109
  594MOL0     H81949   8.705   5.744   6.335  1.1959 -0.7491 -2.9524
  594MOL0     H81950   8.999   5.705   6.363 -0.6582 -2.4325  0.6253
  594MOL0     H81951   8.902   5.627   6.239 -1.9881  2.1350 -0.6819
  594MOL0     H81952   8.157   5.866   6.604 -2.4906 -1.5671 -1.6375
  594MOL0     H81953   7.916   5.878   6.594 -0.1318 -1.0949  0.8339
  594MOL0     H81954   7.552   6.159   6.699  0.0709 -2.8287  3.7024
  594MOL0     H81955   7.315   6.145   6.720 -0.3377  0.5436 -1.1527
  594MOL0     H81956   5.651   5.216   5.710  0.4105 -0.1288  0.7613
  594MOL0     H81957   5.596   5.084   5.535  0.2214  0.2385  0.6096
  594MOL0     H81958   5.577   4.725   5.233 -0.1197  0.2314 -0.1201
  594MOL0     H81959   5.592   4.583   5.049  0.5102 -0.4925  0.7187
  594MOL0     H81960   5.499   4.772   4.633 -3.5641 -2.5101  1.6218
  594MOL0     H81961   5.668   4.725   4.603 -1.2725  0.5420 -1.7745
  594MOL0     H81962   5.573   4.611   4.465  1.1242  2.0323  2.2651
  594MOL0     H81963   5.432   4.556   4.563 -0.0320 -2.1429 -2.0754
  594MOL0     H81964   5.742   4.486   4.590  0.0736 -1.3551 -3.6014
  594MOL0     H81965   5.618   4.414   4.695  1.4897  2.8630 -0.1542
  594MOL0     H81966   5.669   4.379   4.395  1.1074  0.7813  1.5290
  594MOL0     H81967   5.521   4.321   4.448  0.4775  1.2654  0.5393
  594MOL0     H81968   5.732   4.028   4.639 -0.3723  0.4236  1.0595
  594MOL0     H81969   5.624   4.924   4.787  1.5341  0.4587 -0.0059
  594MOL0     H81970   5.549   5.169   5.005  0.8233  2.3032  1.7599
  594MOL0     H81971   5.725   5.162   5.026  0.0043  0.5280 -1.7751
  594MOL0     H81972   5.657   5.129   4.871  0.6307  2.2604  1.5465
  595MOL0     O81973  10.379   1.806   7.217 -0.3816  0.3825  0.0463
  595MOL0     C81974  10.371   1.776   7.338 -0.2219 -1.0149 -0.3547
  595MOL0     O81975  10.481   1.756   7.418  0.3084  0.1893  0.5095
  595MOL0     C81976  10.611   1.774   7.366  0.9722 -0.2259 -0.7483
  595MOL0     C81977  10.658   1.678   7.282 -0.0728 -0.4905  0.3088
  595MOL0     C81978  10.782   1.698   7.212 -0.5222 -0.1995 -0.9193
  595MOL0     C81979  10.856   1.818   7.230  0.1400  0.2097 -0.1694
  595MOL0     O81980  10.979   1.836   7.173 -0.9892 -0.4130 -0.3451
  595MOL0     C81981  10.992   1.798   7.037  0.0470  0.6635 -0.1579
  595MOL0     C81982  11.075   1.904   6.950 -0.7532  0.2994 -1.3098
  595MOL0     C81983  11.076   1.871   6.808 -0.3143  0.2894  0.4899
  595MOL0     C81984  11.158   1.981   6.737  0.1759 -0.3533 -0.5886
  595MOL0     C81985  11.167   1.955   6.586 -0.0389 -0.4880  0.1636
  595MOL0     C81986  11.036   1.973   6.515  1.0068  0.0541 -1.5010
  595MOL0     C81987  11.042   1.952   6.360 -0.6174  0.0086  0.4430
  595MOL0     C81988  11.169   2.026   6.292  0.4622 -0.5319  1.1980
  595MOL0     N81989  11.282   1.943   6.281 -0.0392  0.2268  0.8016
  595MOL0     C81990  11.402   1.996   6.251  0.3454 -0.3121  0.0248
  595MOL0     C81991  11.490   1.894   6.253  0.2708  0.1519  1.4071
  595MOL0     C81992  11.635   1.902   6.204 -0.1856 -0.4208 -0.3908
  595MOL0     C81993  11.659   1.981   6.076 -0.2180 -0.3014 -0.4192
  595MOL0     C81994  11.614   1.897   5.955 -0.8808 -0.3168 -0.1334
  595MOL0     C81995  11.639   1.981   5.837  0.2837  0.2154  0.3351
  595MOL0     O81996  11.520   1.971   5.755 -1.0353  0.0127  0.6315
  595MOL0     C81997  11.546   2.001   5.625 -0.5490  0.3947  0.7124
  595MOL0     C81998  11.500   2.114   5.558 -0.2104  0.6265 -0.7175
  595MOL0     C81999  11.523   2.126   5.414  0.6071 -0.8002  0.2539
  595MOL0     C82000  11.508   2.256   5.348  0.4263  0.0717 -0.5645
  595MOL0     C82001  11.564   2.016   5.335 -0.2142  0.9026 -0.3621
  595MOL0     C82002  11.572   2.015   5.180  0.1275 -0.1939 -0.2155
  595MOL0     O82003  11.647   1.913   5.127  0.6793  0.2360 -0.1435
  595MOL0     C82004  11.653   1.875   4.998 -0.6754 -0.5843 -0.0589
  595MOL0     C82005  11.776   1.827   4.943 -0.9544  0.2637  0.7406
  595MOL0     C82006  11.777   1.779   4.812  0.0774 -0.1753  0.4941
  595MOL0     C82007  11.666   1.780   4.730  0.5945  0.0676  1.1496
  595MOL0     O82008  11.670   1.745   4.595 -0.2343  0.0840  0.1281
  595MOL0     C82009  11.742   1.622   4.558 -0.0130  0.2850 -0.2025
  595MOL0     C82010  11.683   1.561   4.423  0.4279 -0.6593 -0.6595
  595MOL0     C82011  11.771   1.462   4.343  0.3774 -0.5526 -1.1435
  595MOL0     C82012  11.830   1.343   4.426 -0.3752  0.3566  0.2697
  595MOL0     C82013  11.930   1.258   4.353 -0.1895  0.0732  0.3948
  595MOL0     C82014  12.045   1.323   4.274  0.9232  0.0705 -1.3913
  595MOL0     C82015  12.135   1.421   4.358  0.1020  0.2807  0.0577
  595MOL0     C82016  12.230   1.500   4.262  0.6889  0.8927 -0.2668
  595MOL0    Cl82017  12.381   1.577   4.340 -0.1474 -0.3222 -0.5954
  595MOL0     C82018  11.546   1.834   4.777 -0.2336 -0.8063 -0.4934
  595MOL0     C82019  11.542   1.872   4.913 -0.3668  0.2673  0.3380
  595MOL0     O82020  11.516   2.093   5.113 -0.1315  0.1144 -0.5039
  595MOL0     C82021  11.609   1.901   5.412  0.3752  0.2321 -0.0682
  595MOL0     C82022  11.595   1.894   5.549 -0.4422 -0.5326 -0.0726
  595MOL0     N82023  11.420   1.786   6.286  0.2093  0.4976  0.1270
  595MOL0     N82024  11.290   1.807   6.295 -0.1032 -0.1304  0.0446
  595MOL0     C82025  10.799   1.917   7.309 -0.8385 -0.7639 -0.0600
  595MOL0     C82026  10.677   1.899   7.373  0.1106  0.3451 -0.2650
  595MOL0     C82027  10.229   1.764   7.407  0.9852 -0.6085  0.1639
  595MOL0     C82028  10.218   1.685   7.521 -0.2735 -0.0283  0.3471
  595MOL0     C82029  10.097   1.684   7.598  0.2062  0.5089  0.1204
  595MOL0     C82030   9.986   1.743   7.555 -0.5697 -0.5970  0.1859
  595MOL0     O82031   9.867   1.732   7.619  0.0362  0.0140 -0.2985
  595MOL0     C82032   9.841   1.612   7.693 -0.1758 -0.2439  0.3774
  595MOL0     C82033   9.692   1.585   7.739  0.1747  0.6515  0.0730
  595MOL0     C82034   9.626   1.464   7.672  0.3764 -0.7467 -0.0524
  595MOL0     C82035   9.582   1.487   7.526  0.0749 -0.9735  0.2348
  595MOL0     C82036   9.693   1.479   7.422 -0.3198  0.3963 -0.6534
  595MOL0     C82037   9.780   1.483   7.335 -0.0037  1.1611 -0.5780
  595MOL0     C82038   9.984   1.818   7.437 -0.3149  0.5800 -0.2652
  595MOL0     C82039  10.109   1.831   7.365 -0.3789 -1.1040  0.2833
  595MOL0     C82040  10.119   1.947   7.271  0.6187  0.5312  1.2692
  595MOL0     H82041  10.603   1.585   7.271  0.5251 -1.1772  2.6153
  595MOL0     H82042  10.819   1.614   7.154 -0.7144  0.7488 -2.4623
  595MOL0     H82043  10.892   1.798   6.991  0.6609 -1.0977 -1.6365
  595MOL0     H82044  11.039   1.701   7.018  2.3487  1.4099  1.4133
  595MOL0     H82045  11.031   2.003   6.963 -0.2993  0.3718 -0.1800
  595MOL0     H82046  11.173   1.892   6.998 -1.7139 -1.6898  0.3159
  595MOL0     H82047  11.117   1.771   6.788 -0.0573  0.5962 -0.5815
  595MOL0     H82048  10.976   1.887   6.769  0.0279 -3.3362 -2.4334
  595MOL0     H82049  11.111   2.077   6.762  1.7250  0.7122 -1.6275
  595MOL0     H82050  11.262   1.975   6.769  0.1518  0.9886 -0.2123
  595MOL0     H82051  11.200   1.855   6.558 -0.3404 -0.3059 -0.9019
  595MOL0     H82052  11.241   2.023   6.543  0.8085 -0.5948  1.4336
  595MOL0     H82053  10.961   1.906   6.557  1.3236 -0.3688 -1.5909
  595MOL0     H82054  11.002   2.076   6.510  1.4060  0.2516 -0.4306
  595MOL0     H82055  10.948   1.981   6.313 -3.0797 -1.8590  3.7118
  595MOL0     H82056  11.047   1.843   6.349 -1.2203 -0.1936  1.8540
  595MOL0     H82057  11.135   2.052   6.192  2.8906  0.2924  0.5373
  595MOL0     H82058  11.195   2.123   6.336  1.7012  0.8194 -2.2063
  595MOL0     H82059  11.442   2.096   6.238  2.6686 -1.1831  0.0858
  595MOL0     H82060  11.678   1.805   6.178  0.7064 -1.0331  2.9602
  595MOL0     H82061  11.701   1.954   6.273  0.1497 -0.4844 -0.6618
  595MOL0     H82062  11.607   2.076   6.089 -2.1282 -1.2255 -0.8928
  595MOL0     H82063  11.765   2.002   6.059  0.5957 -1.4391  2.6750
  595MOL0     H82064  11.669   1.803   5.950 -0.8541 -0.2970 -0.2070
  595MOL0     H82065  11.507   1.871   5.958 -1.9520  3.3728 -0.4437
  595MOL0     H82066  11.662   2.083   5.868  0.4537 -0.1359  1.4056
  595MOL0     H82067  11.728   1.949   5.782 -0.3068 -0.7320 -0.0878
  595MOL0     H82068  11.458   2.197   5.614  1.4713  0.7525  0.4562
  595MOL0     H82069  11.589   2.271   5.276 -0.1534  1.1345 -1.0297
  595MOL0     H82070  11.514   2.340   5.418 -1.9499 -2.3862  2.9197
  595MOL0     H82071  11.419   2.265   5.284 -0.6061  2.4385  1.0380
  595MOL0     H82072  11.862   1.861   4.999 -0.0014 -1.3511  0.2949
  595MOL0     H82073  11.871   1.761   4.761 -0.0252 -1.4397  0.7070
  595MOL0     H82074  11.850   1.634   4.544 -0.0106  0.5895  0.0657
  595MOL0     H82075  11.728   1.544   4.634 -1.1546  0.0119 -0.6835
  595MOL0     H82076  11.585   1.520   4.449 -0.2813 -0.6908 -3.1641
  595MOL0     H82077  11.670   1.643   4.352  2.5312 -0.1799 -0.5775
  595MOL0     H82078  11.848   1.533   4.313 -0.2894  0.7443  0.0602
  595MOL0     H82079  11.718   1.422   4.256 -1.1302 -0.8721 -0.1207
  595MOL0     H82080  11.745   1.286   4.463 -2.3162  1.7832 -1.7526
  595MOL0     H82081  11.877   1.373   4.520 -0.6800  0.7465  0.3026
  595MOL0     H82082  11.972   1.198   4.433 -1.3421  0.9832  1.7340
  595MOL0     H82083  11.882   1.185   4.287  3.4969 -0.7922 -1.5844
  595MOL0     H82084  11.996   1.384   4.198  3.2455  2.2183 -1.2858
  595MOL0     H82085  12.108   1.244   4.234  2.3933  0.3346  0.2605
  595MOL0     H82086  12.196   1.351   4.416 -0.1361 -3.4578 -3.7311
  595MOL0     H82087  12.080   1.494   4.419 -1.8329  0.0069 -1.2768
  595MOL0     H82088  12.170   1.573   4.207 -1.1350  1.3733  2.1990
  595MOL0     H82089  12.271   1.426   4.193  0.1136 -0.0197  0.3442
  595MOL0     H82090  11.459   1.843   4.713 -0.1575  4.6778 -0.2580
  595MOL0     H82091  11.451   1.912   4.956 -2.6373 -4.8001  0.9046
  595MOL0     H82092  11.634   1.814   5.352 -1.4333  1.5504 -2.9702
  595MOL0     H82093  11.601   1.794   5.591  4.3677 -1.6686 -2.7098
  595MOL0     H82094  10.860   2.004   7.330 -1.6698 -0.7877  2.9700
  595MOL0     H82095  10.628   1.966   7.444 -2.7092 -3.3978  1.6644
  595MOL0     H82096  10.304   1.624   7.546 -0.2461 -0.3104 -0.4112
  595MOL0     H82097  10.088   1.620   7.685  4.2254 -0.6707 -0.1208
  595MOL0     H82098   9.881   1.528   7.635  4.0050  1.0999  1.0341
  595MOL0     H82099   9.897   1.623   7.786 -1.2221  1.4394  0.8546
  595MOL0     H82100   9.637   1.679   7.732  1.4821  1.4189 -0.3801
  595MOL0     H82101   9.688   1.569   7.847 -0.0666  0.9375  0.1079
  595MOL0     H82102   9.691   1.375   7.669 -0.6994 -1.6714  1.7975
  595MOL0     H82103   9.541   1.459   7.740  0.1442  2.0487 -0.0583
  595MOL0     H82104   9.538   1.588   7.523  1.0660 -0.4031  2.5916
  595MOL0     H82105   9.513   1.405   7.504 -3.4722  1.9731 -0.7069
  595MOL0     H82106   9.865   1.487   7.270  1.7580 -1.0543  1.3981
  595MOL0     H82107   9.899   1.881   7.414  0.9572  2.0459 -1.0499
  595MOL0     H82108  10.047   2.028   7.290 -1.1582 -0.6282 -0.1547
  595MOL0     H82109  10.217   1.994   7.286  2.8543 -2.7212 -1.6756
  595MOL0     H82110  10.106   1.917   7.167 -2.9349  0.2021  1.6799
  596MOL0     O82111   0.379   7.571   1.881 -0.5016 -0.6037 -0.3115
  596MOL0     C82112   0.282   7.530   1.950 -0.1283 -0.1115 -0.0158
  596MOL0     O82113   0.275   7.398   1.993 -0.5977 -0.8013  0.5173
  596MOL0     C82114   0.388   7.326   1.950  0.4138 -0.4821 -0.0884
  596MOL0     C82115   0.395   7.268   1.820 -0.0483  0.5552 -0.5772
  596MOL0     C82116   0.511   7.187   1.796 -0.3004  0.2907 -0.2600
  596MOL0     C82117   0.624   7.172   1.885 -0.7189 -0.4615  0.0126
  596MOL0     O82118   0.731   7.094   1.840 -0.0477  0.5270 -0.4132
  596MOL0     C82119   0.851   7.060   1.923 -0.2005 -0.4740  0.0126
  596MOL0     C82120   0.945   7.178   1.938 -0.4001 -0.1558 -0.5465
  596MOL0     C82121   1.093   7.123   1.935  0.7351 -0.0958  0.2414
  596MOL0     C82122   1.125   7.010   2.031  0.2528 -0.5830  0.1753
  596MOL0     C82123   1.102   7.057   2.183 -0.2210 -0.0433  0.8252
  596MOL0     C82124   1.192   6.976   2.277 -0.7100  0.2072  0.6732
  596MOL0     C82125   1.142   6.941   2.416  0.7188  0.8718  1.6551
  596MOL0     C82126   1.104   7.058   2.506 -0.9116  0.1864  0.9117
  596MOL0     N82127   1.049   7.030   2.632 -0.4267  0.1209  0.3096
  596MOL0     C82128   0.950   7.109   2.681  0.7308 -0.1051 -0.2402
  596MOL0     C82129   0.969   7.106   2.814  0.4153  0.1338 -0.2637
  596MOL0     C82130   0.890   7.178   2.925 -0.8849  0.7300 -0.0869
  596MOL0     C82131   0.985   7.239   3.024 -1.6651 -0.7547  1.2374
  596MOL0     C82132   0.933   7.380   3.053  0.3849  0.1256 -0.8837
  596MOL0     C82133   0.785   7.385   3.125 -0.1410 -0.0267 -0.3737
  596MOL0     O82134   0.784   7.281   3.239  0.3648 -0.9511  0.7007
  596MOL0     C82135   0.678   7.304   3.320  0.0160 -0.0286  0.1381
  596MOL0     C82136   0.543   7.307   3.279 -0.0446 -0.4278  0.4864
  596MOL0     C82137   0.438   7.335   3.361  0.2644 -0.6549  0.0328
  596MOL0     C82138   0.300   7.308   3.307  0.1554  0.8296  0.4438
  596MOL0     C82139   0.466   7.362   3.502  1.0926  0.5276 -0.5866
  596MOL0     C82140   0.355   7.368   3.615 -0.4025 -0.9893  0.4035
  596MOL0     O82141   0.235   7.409   3.570 -0.2904 -0.3063 -0.1268
  596MOL0     C82142   0.139   7.372   3.661  0.9324 -0.4025 -0.3558
  596MOL0     C82143   0.099   7.462   3.760  0.1155 -0.0704 -0.2075
  596MOL0     C82144  -0.008   7.423   3.838  0.6370  0.0007 -0.2299
  596MOL0     C82145  -0.089   7.308   3.819 -0.6794  0.8295 -0.7330
  596MOL0     O82146  -0.199   7.280   3.892  0.3067  0.3244 -0.2297
  596MOL0     C82147  -0.314   7.232   3.815 -1.3876 -0.3245 -0.5492
  596MOL0     C82148  -0.411   7.180   3.917 -0.4592 -0.1517 -0.0476
  596MOL0     C82149  -0.540   7.130   3.854 -0.7801  0.6403 -0.4088
  596MOL0     C82150  -0.609   7.245   3.783  0.2634 -0.6244 -0.4744
  596MOL0     C82151  -0.653   7.215   3.640  0.3237  0.5391 -0.0095
  596MOL0     C82152  -0.536   7.196   3.534 -0.1011 -0.0471  0.0471
  596MOL0     C82153  -0.607   7.205   3.390  0.1225 -0.5292 -0.0005
  596MOL0     C82154  -0.510   7.179   3.277 -0.9718  0.0969 -0.0919
  596MOL0    Cl82155  -0.427   7.013   3.290 -0.5130 -0.4548  0.1612
  596MOL0     C82156  -0.034   7.214   3.733 -0.0412 -0.8475 -0.0242
  596MOL0     C82157   0.077   7.244   3.655  0.0732  0.2688  0.5724
  596MOL0     O82158   0.382   7.355   3.731  0.2593  0.3633 -0.7252
  596MOL0     C82159   0.602   7.370   3.543 -0.3362 -0.8223  0.4493
  596MOL0     C82160   0.708   7.341   3.445  1.0456  0.4746 -0.0621
  596MOL0     N82161   1.077   7.022   2.848 -0.2553  0.7235  0.5462
  596MOL0     N82162   1.122   6.977   2.730  1.1879  0.0262 -0.5327
  596MOL0     C82163   0.621   7.257   2.001  0.2358 -0.0590  0.4337
  596MOL0     C82164   0.504   7.317   2.041  0.4156 -0.1116  0.6630
  596MOL0     C82165   0.181   7.626   1.981  0.9162  0.5776  0.1787
  596MOL0     C82166   0.137   7.628   2.111 -1.1743  0.4283  0.0425
  596MOL0     C82167   0.049   7.728   2.158  0.1038  0.0473  0.2011
  596MOL0     C82168  -0.017   7.808   2.066  0.7247 -0.2678 -0.2887
  596MOL0     O82169  -0.139   7.866   2.120 -0.0584 -0.6628 -0.5403
  596MOL0     C82170  -0.252   7.878   2.032  0.3306 -0.0062  0.0893
  596MOL0     C82171  -0.391   7.849   2.087  0.7598 -1.0683 -0.7252
  596MOL0     C82172  -0.449   7.958   2.182 -0.4253 -0.3304  0.4929
  596MOL0     C82173  -0.550   8.046   2.104  0.7932  0.9326  0.9905
  596MOL0     C82174  -0.500   8.107   1.975  0.6873  0.1824 -0.1583
  596MOL0     C82175  -0.471   8.164   1.873 -0.9086 -0.3151  0.0270
  596MOL0     C82176   0.011   7.793   1.932 -1.3567 -0.9912  0.2581
  596MOL0     C82177   0.110   7.709   1.885 -0.4825 -0.3226 -0.6864
  596MOL0     C82178   0.119   7.675   1.733  0.1460 -0.5309 -1.3046
  596MOL0     H82179   0.304   7.280   1.763  0.4113  2.0091 -1.0582
  596MOL0     H82180   0.509   7.134   1.702 -2.9318 -0.7321  0.2863
  596MOL0     H82181   0.896   6.981   1.862  4.6809  0.8547  1.4183
  596MOL0     H82182   0.823   7.010   2.016 -0.6474 -1.0297 -0.4105
  596MOL0     H82183   0.921   7.242   1.853 -1.3242 -1.5167 -1.3431
  596MOL0     H82184   0.937   7.245   2.024 -3.0037 -0.8637 -0.1464
  596MOL0     H82185   1.114   7.088   1.833 -3.4294  1.5492 -1.4205
  596MOL0     H82186   1.149   7.213   1.964 -1.3778  1.2090  0.4785
  596MOL0     H82187   1.068   6.920   2.006  2.4888 -1.7049 -1.1752
  596MOL0     H82188   1.230   6.987   2.010 -0.2657 -0.2172 -3.3068
  596MOL0     H82189   0.997   7.045   2.209 -0.3612 -1.4717 -0.2857
  596MOL0     H82190   1.139   7.159   2.199  0.4167  0.0730 -1.0849
  596MOL0     H82191   1.212   6.878   2.231  4.8672  1.5670 -0.5413
  596MOL0     H82192   1.294   7.016   2.283 -0.0013 -1.5199  0.8848
  596MOL0     H82193   1.221   6.882   2.464  0.5205 -0.2456  0.6686
  596MOL0     H82194   1.061   6.867   2.407  3.2024 -1.8360 -4.2206
  596MOL0     H82195   1.193   7.117   2.527  1.1996 -2.2545 -0.6577
  596MOL0     H82196   1.036   7.132   2.463 -3.8369  0.3329  5.1774
  596MOL0     H82197   0.877   7.168   2.626 -0.3749 -3.0459 -2.1874
  596MOL0     H82198   0.811   7.114   2.966  1.1254 -3.0055 -1.5664
  596MOL0     H82199   0.842   7.259   2.869 -1.7180 -0.1074 -0.6184
  596MOL0     H82200   0.993   7.175   3.112 -2.8357 -1.9288  0.5153
  596MOL0     H82201   1.089   7.245   2.988 -2.1228  1.5979  0.0766
  596MOL0     H82202   0.999   7.432   3.122 -0.9776  2.7094 -1.4187
  596MOL0     H82203   0.939   7.438   2.960 -1.7533  0.5729 -0.7721
  596MOL0     H82204   0.768   7.486   3.163 -4.0443 -1.3430  2.0237
  596MOL0     H82205   0.705   7.364   3.054  2.3852 -1.4221 -3.0533
  596MOL0     H82206   0.514   7.275   3.180  2.1413 -3.1880  0.6229
  596MOL0     H82207   0.227   7.386   3.332  0.2594  0.7812  0.9043
  596MOL0     H82208   0.255   7.216   3.345  1.2448 -0.7451 -1.8744
  596MOL0     H82209   0.289   7.285   3.201 -1.2823 -0.4723  0.8287
  596MOL0     H82210   0.152   7.554   3.783  1.2660 -0.8184  0.2115
  596MOL0     H82211  -0.040   7.477   3.927  3.9409  2.1688 -0.1749
  596MOL0     H82212  -0.352   7.320   3.762  0.8256 -0.3575 -2.3525
  596MOL0     H82213  -0.286   7.144   3.757 -1.4136 -1.1301  0.6207
  596MOL0     H82214  -0.360   7.101   3.972  2.0571  0.9270 -0.6815
  596MOL0     H82215  -0.438   7.254   3.993 -1.1640 -1.3079  0.8672
  596MOL0     H82216  -0.597   7.077   3.931  3.4171 -1.3610  1.6902
  596MOL0     H82217  -0.516   7.052   3.781  1.1288 -2.1355  2.8646
  596MOL0     H82218  -0.551   7.338   3.781  0.6755 -0.8633  0.0573
  596MOL0     H82219  -0.695   7.268   3.847 -1.5760 -1.4196 -2.5327
  596MOL0     H82220  -0.718   7.128   3.653 -0.2101  0.9092 -0.1633
  596MOL0     H82221  -0.726   7.290   3.610 -3.7625 -3.5867 -1.5849
  596MOL0     H82222  -0.486   7.100   3.551  1.8104  0.9868  0.5166
  596MOL0     H82223  -0.468   7.280   3.548 -1.6592  0.7051  4.9219
  596MOL0     H82224  -0.661   7.300   3.380  4.1082  1.7613 -2.8473
  596MOL0     H82225  -0.683   7.128   3.403 -0.6736  0.1391 -0.6239
  596MOL0     H82226  -0.430   7.253   3.283 -0.8680  0.0465 -0.8523
  596MOL0     H82227  -0.557   7.182   3.179 -1.2205 -0.8576 -0.0124
  596MOL0     H82228  -0.075   7.114   3.730  2.7072 -2.3220  3.3211
  596MOL0     H82229   0.100   7.163   3.587  0.0244 -0.1797  1.0803
  596MOL0     H82230   0.621   7.379   3.649 -2.1409 -2.1532  0.9275
  596MOL0     H82231   0.808   7.326   3.484  0.8296 -0.2253  0.2239
  596MOL0     H82232   0.700   7.267   2.075  0.1599  2.9373  0.2327
  596MOL0     H82233   0.505   7.381   2.128  0.3583  0.5179  0.2115
  596MOL0     H82234   0.190   7.563   2.179 -0.0848 -0.0094 -1.1921
  596MOL0     H82235   0.031   7.733   2.265 -0.2956 -1.1203  0.2000
  596MOL0     H82236  -0.262   7.982   2.000 -1.9207  0.7832  2.9883
  596MOL0     H82237  -0.229   7.820   1.942 -1.0605  0.1859 -0.4134
  596MOL0     H82238  -0.382   7.761   2.151 -2.6928 -1.6087 -0.7760
  596MOL0     H82239  -0.464   7.829   2.008  0.8924 -0.7356 -0.9328
  596MOL0     H82240  -0.516   7.909   2.254 -2.1396 -0.8875 -1.3959
  596MOL0     H82241  -0.365   8.015   2.223 -0.3254 -0.4448  0.4481
  596MOL0     H82242  -0.563   8.125   2.179 -1.2803 -1.9977  4.0563
  596MOL0     H82243  -0.644   7.992   2.090  0.5031  1.2189  1.7550
  596MOL0     H82244  -0.411   8.212   1.799 -0.6384  0.2217  0.5868
  596MOL0     H82245  -0.039   7.851   1.855 -0.0474  0.6222  0.5702
  596MOL0     H82246   0.217   7.629   1.713 -0.6139 -2.3315 -1.1092
  596MOL0     H82247   0.041   7.600   1.720  2.0044 -3.3505  1.9497
  596MOL0     H82248   0.101   7.764   1.672 -1.2358 -0.1717 -0.4136
  597MOL0     O82249   0.713   7.059   7.988 -0.1225  1.3412  0.0119
  597MOL0     C82250   0.794   7.143   7.962 -0.4694  0.3090  0.0930
  597MOL0     O82251   0.908   7.122   7.893  0.0530  0.2499  0.0172
  597MOL0     C82252   0.907   7.022   7.805 -0.4591 -0.1486  0.0183
  597MOL0     C82253   0.999   6.924   7.839 -0.7395 -0.0151  0.1790
  597MOL0     C82254   1.021   6.802   7.768 -0.6225 -0.1601 -0.2384
  597MOL0     C82255   0.958   6.785   7.648 -0.1797  0.7328 -0.3534
  597MOL0     O82256   0.997   6.675   7.572 -0.1400 -0.8023 -0.0232
  597MOL0     C82257   0.959   6.681   7.432  0.3031 -0.2057 -0.0786
  597MOL0     C82258   1.084   6.611   7.373 -0.5424  0.0378  0.1529
  597MOL0     C82259   1.076   6.623   7.219  0.2411  0.1048 -0.6828
  597MOL0     C82260   1.189   6.554   7.154 -0.3302  0.8822  0.5483
  597MOL0     C82261   1.176   6.551   6.997 -1.1713 -0.2063  0.6463
  597MOL0     C82262   1.281   6.443   6.948 -0.8221 -0.0599  0.2093
  597MOL0     C82263   1.244   6.295   6.958  0.3893  0.6858 -0.8850
  597MOL0     C82264   1.312   6.212   6.850 -0.6518  0.1444 -0.2417
  597MOL0     N82265   1.411   6.116   6.904  0.6253 -0.1128 -0.3544
  597MOL0     C82266   1.389   6.022   7.005  0.0062 -0.3354  0.0516
  597MOL0     C82267   1.476   5.920   6.995 -0.8447 -0.5888  0.0597
  597MOL0     C82268   1.475   5.813   7.096  0.4247  0.9915 -0.6060
  597MOL0     C82269   1.452   5.670   7.033 -0.6119 -0.6076 -0.4445
  597MOL0     C82270   1.330   5.658   6.941 -1.0087  0.3810 -0.5074
  597MOL0     C82271   1.311   5.528   6.869  0.1878  0.5062 -0.0018
  597MOL0     O82272   1.332   5.413   6.965 -0.0302 -1.0311 -0.0149
  597MOL0     C82273   1.228   5.380   7.049  0.2443 -0.2988 -0.3399
  597MOL0     C82274   1.104   5.345   6.997 -0.1806 -0.0377  0.4343
  597MOL0     C82275   0.988   5.347   7.072  0.3534 -1.3521  0.1604
  597MOL0     C82276   0.858   5.345   7.003  0.7340  0.1341  0.8958
  597MOL0     C82277   0.998   5.349   7.217  0.2411 -0.4946  0.1442
  597MOL0     C82278   0.886   5.343   7.313  0.5216 -0.8456 -0.0585
  597MOL0     O82279   0.914   5.341   7.444  0.5581  0.1183  0.0576
  597MOL0     C82280   0.816   5.356   7.539 -0.0402  0.0673 -0.4299
  597MOL0     C82281   0.804   5.482   7.602  0.0227 -0.3772 -0.8951
  597MOL0     C82282   0.708   5.493   7.710 -0.6395  0.3224  0.4045
  597MOL0     C82283   0.650   5.381   7.774  0.1133  0.8551 -0.7271
  597MOL0     O82284   0.569   5.384   7.885 -0.9126 -0.3034 -0.0148
  597MOL0     C82285   0.578   5.512   7.963  0.1214  1.2442  1.1149
  597MOL0     C82286   0.502   5.498   8.092 -0.1511  0.6501  0.9150
  597MOL0     C82287   0.559   5.373   8.178 -0.3637 -1.2450  0.2538
  597MOL0     C82288   0.637   5.429   8.300 -0.5111  0.1894 -0.8624
  597MOL0     C82289   0.656   5.327   8.404 -0.5949 -0.6400  0.0361
  597MOL0     C82290   0.756   5.230   8.347  0.4255  0.4895  0.3247
  597MOL0     C82291   0.798   5.130   8.471 -0.3219  0.8970  0.2802
  597MOL0     C82292   0.937   5.065   8.432  0.2130 -0.3663  0.0505
  597MOL0    Cl82293   1.070   5.145   8.514  0.3208 -0.7000 -0.5456
  597MOL0     C82294   0.687   5.253   7.723  0.3107  0.8218  0.5503
  597MOL0     C82295   0.770   5.239   7.607 -0.4308  0.0504 -0.6051
  597MOL0     O82296   0.770   5.333   7.273  1.0064 -0.2651 -0.3299
  597MOL0     C82297   1.130   5.345   7.270 -0.3384  0.0032  0.1524
  597MOL0     C82298   1.240   5.375   7.185 -0.4426 -0.6344 -0.3161
  597MOL0     N82299   1.573   5.958   6.897  0.3796  0.0010  0.1815
  597MOL0     N82300   1.533   6.072   6.844 -0.3716  0.3274 -0.6431
  597MOL0     C82301   0.853   6.878   7.615 -0.8058  0.1486  0.5195
  597MOL0     C82302   0.833   6.997   7.682  0.3652 -0.8850 -1.1737
  597MOL0     C82303   0.778   7.275   8.020 -0.2327  0.6991  0.6355
  597MOL0     C82304   0.838   7.386   7.953  0.7959  0.2460 -0.5274
  597MOL0     C82305   0.837   7.514   8.012 -1.0344  0.9043  0.8417
  597MOL0     C82306   0.767   7.538   8.123 -0.5460 -0.4761 -0.2592
  597MOL0     O82307   0.741   7.658   8.178 -0.4022 -0.0194 -0.0820
  597MOL0     C82308   0.801   7.773   8.126  0.2082 -0.2585  0.4194
  597MOL0     C82309   0.929   7.810   8.211  0.4797  0.0056 -0.2262
  597MOL0     C82310   0.959   7.957   8.192  0.7024  0.1428 -1.2510
  597MOL0     C82311   1.094   7.984   8.258  0.0501 -0.0981 -0.5129
  597MOL0     C82312   1.193   7.947   8.157  0.2079 -0.9677 -0.8456
  597MOL0     C82313   1.278   7.911   8.087 -0.9459  0.3307  0.2080
  597MOL0     C82314   0.717   7.427   8.190 -0.6305  0.5087 -0.4243
  597MOL0     C82315   0.716   7.289   8.146  0.1943 -1.2969  0.1416
  597MOL0     C82316   0.674   7.188   8.238 -0.0398 -0.0425  0.2672
  597MOL0     H82317   1.051   6.940   7.933 -0.6588  0.3899  0.0653
  597MOL0     H82318   1.091   6.733   7.812 -0.5174  1.5181  2.4753
  597MOL0     H82319   0.933   6.780   7.395 -0.8652 -0.7642 -0.8140
  597MOL0     H82320   0.873   6.619   7.405 -2.8965  2.7610  2.3385
  597MOL0     H82321   1.176   6.657   7.409  0.1384 -1.2894  0.1787
  597MOL0     H82322   1.092   6.505   7.398 -2.6258 -0.6458 -1.6701
  597MOL0     H82323   0.987   6.572   7.181  1.1805 -0.2408 -2.5571
  597MOL0     H82324   1.071   6.730   7.195 -0.2875  0.4016  0.6787
  597MOL0     H82325   1.285   6.597   7.185  1.5510 -3.0159  0.6949
  597MOL0     H82326   1.180   6.457   7.203 -5.8923  2.0033  2.4293
  597MOL0     H82327   1.210   6.645   6.953  0.1441 -0.6849  0.6144
  597MOL0     H82328   1.077   6.522   6.960 -0.7581 -2.2339  1.0022
  597MOL0     H82329   1.296   6.463   6.842  1.9266 -0.4831  0.4376
  597MOL0     H82330   1.380   6.439   6.995 -0.6059 -3.0195 -0.3249
  597MOL0     H82331   1.134   6.297   6.953  0.1580 -1.4983  1.0784
  597MOL0     H82332   1.264   6.253   7.057  0.2567  1.2740 -0.6034
  597MOL0     H82333   1.234   6.155   6.798 -2.2255  2.1233 -0.1936
  597MOL0     H82334   1.363   6.283   6.785  2.7773  0.7040  2.7909
  597MOL0     H82335   1.302   6.012   7.069 -0.1799 -2.0075 -0.4160
  597MOL0     H82336   1.398   5.834   7.171  1.0283  1.8383 -0.2070
  597MOL0     H82337   1.568   5.820   7.154 -0.1678  1.0112  0.3748
  597MOL0     H82338   1.547   5.656   6.980 -0.0742  1.6604 -0.1872
  597MOL0     H82339   1.447   5.596   7.113  0.7386  1.0917  1.3244
  597MOL0     H82340   1.237   5.677   6.996 -1.1824 -0.1376 -0.6165
  597MOL0     H82341   1.355   5.736   6.868  1.1256  0.0428 -0.1952
  597MOL0     H82342   1.208   5.530   6.831 -0.5189  2.4631  1.8810
  597MOL0     H82343   1.378   5.535   6.783 -2.5818  1.9081 -2.2400
  597MOL0     H82344   1.101   5.354   6.889 -0.5427 -3.3324  0.0734
  597MOL0     H82345   0.818   5.244   6.991  1.0680  0.0086  0.8319
  597MOL0     H82346   0.868   5.377   6.899 -0.8496 -0.1148  0.6383
  597MOL0     H82347   0.783   5.411   7.048 -1.8548 -2.8051  1.1918
  597MOL0     H82348   0.868   5.562   7.564  2.9129 -1.9963  0.2316
  597MOL0     H82349   0.702   5.592   7.753  3.4581 -0.1080  2.4817
  597MOL0     H82350   0.674   5.564   7.979 -0.4601  2.3154  1.2142
  597MOL0     H82351   0.522   5.582   7.900  0.5621 -0.6498 -1.5845
  597MOL0     H82352   0.517   5.593   8.144 -1.1284  0.5013  1.4843
  597MOL0     H82353   0.396   5.484   8.068  0.7510 -1.1387 -2.5749
  597MOL0     H82354   0.615   5.301   8.118 -1.6202 -4.5079  2.7514
  597MOL0     H82355   0.474   5.315   8.215 -0.0566 -4.2780 -3.2168
  597MOL0     H82356   0.589   5.521   8.334 -0.4972 -0.3085  0.5722
  597MOL0     H82357   0.733   5.471   8.268  0.0465 -0.3002  0.1005
  597MOL0     H82358   0.686   5.372   8.498 -0.8848  0.5364 -0.4189
  597MOL0     H82359   0.559   5.277   8.418 -1.4177  0.6408 -0.8484
  597MOL0     H82360   0.841   5.288   8.310 -1.9470  3.1541 -1.3723
  597MOL0     H82361   0.711   5.171   8.268 -2.0977  1.3672  1.0181
  597MOL0     H82362   0.730   5.049   8.498  0.6022  0.5900  1.8149
  597MOL0     H82363   0.807   5.195   8.559  1.3691  2.0502 -0.6821
  597MOL0     H82364   0.948   5.076   8.324  2.1166 -4.1929 -0.3050
  597MOL0     H82365   0.943   4.956   8.428  3.7463 -0.2196 -1.3282
  597MOL0     H82366   0.640   5.162   7.760  2.4732 -1.4834 -1.9337
  597MOL0     H82367   0.806   5.145   7.566  1.8829  0.1939  0.8793
  597MOL0     H82368   1.155   5.344   7.376  1.9400 -3.3549 -0.2525
  597MOL0     H82369   1.338   5.383   7.233 -1.5182 -2.2473  2.3523
  597MOL0     H82370   0.788   6.864   7.529  1.0498  3.8367 -1.7468
  597MOL0     H82371   0.743   7.054   7.666  0.1821 -0.1364  1.9616
  597MOL0     H82372   0.900   7.383   7.864  0.2207  3.1871 -1.1309
  597MOL0     H82373   0.898   7.585   7.956  2.1766 -0.5179  2.2640
  597MOL0     H82374   0.834   7.763   8.023 -2.4090  3.0154 -0.9335
  597MOL0     H82375   0.735   7.860   8.115  2.2541  1.0169 -4.9084
  597MOL0     H82376   1.013   7.746   8.185 -1.4588 -3.3912  1.2872
  597MOL0     H82377   0.906   7.804   8.318  0.4010 -1.3927 -0.3123
  597MOL0     H82378   0.961   7.990   8.088  0.3798  2.3478 -0.5941
  597MOL0     H82379   0.872   8.009   8.232  0.2675 -2.7734  2.1609
  597MOL0     H82380   1.102   7.919   8.346 -1.2466  0.0722 -0.2512
  597MOL0     H82381   1.106   8.081   8.308  0.2123 -1.4221  2.2305
  597MOL0     H82382   1.351   7.862   8.026  0.0760  0.0844  1.5713
  597MOL0     H82383   0.672   7.444   8.287 -0.3265 -5.3155  1.1096
  597MOL0     H82384   0.762   7.142   8.284 -1.4472  0.4964  3.8007
  597MOL0     H82385   0.620   7.232   8.322  1.1476  1.7731  0.1491
  597MOL0     H82386   0.602   7.131   8.179  0.8205 -0.1441 -0.7128
  598MOL0     O82387   5.791  10.079   8.792  0.2061 -0.3840  0.6232
  598MOL0     C82388   5.711   9.991   8.754  0.3660  0.5162 -0.2329
  598MOL0     O82389   5.596  10.016   8.703 -0.5516 -0.1948  0.3317
  598MOL0     C82390   5.552  10.143   8.724  0.5235 -0.5908  0.5627
  598MOL0     C82391   5.500  10.189   8.847  0.1697  0.6502  0.1924
  598MOL0     C82392   5.440  10.314   8.850  0.4241  0.2117 -0.0873
  598MOL0     C82393   5.431  10.403   8.745  0.0773  0.7093 -0.1602
  598MOL0     O82394   5.364  10.524   8.762  0.6666  0.6472 -0.5815
  598MOL0     C82395   5.371  10.634   8.675  0.6105  0.1264 -0.7184
  598MOL0     C82396   5.244  10.723   8.668  0.5893 -0.3627 -0.0143
  598MOL0     C82397   5.228  10.799   8.801 -1.0184 -0.1695 -0.1878
  598MOL0     C82398   5.092  10.783   8.881  0.3330  0.4051 -0.1840
  598MOL0     C82399   5.086  10.873   9.007  0.4655  1.1883  0.8983
  598MOL0     C82400   4.970  10.829   9.092  0.5481 -0.2852  0.5907
  598MOL0     C82401   4.966  10.916   9.219  1.1118  0.0423 -0.9236
  598MOL0     C82402   4.878  10.873   9.341 -0.2467 -0.1302  0.1372
  598MOL0     N82403   4.768  10.788   9.292  0.3804 -0.9187 -0.5806
  598MOL0     C82404   4.775  10.650   9.270  1.0453 -0.6285 -0.3786
  598MOL0     C82405   4.652  10.620   9.217  0.1808 -0.4120 -0.0224
  598MOL0     C82406   4.609  10.483   9.162  0.1940  0.2451  0.5251
  598MOL0     C82407   4.661  10.468   9.016 -0.0417  0.0778 -1.0202
  598MOL0     C82408   4.800  10.427   9.005  0.2992 -0.0327 -0.7237
  598MOL0     C82409   4.848  10.402   8.864  0.2538 -1.2584 -0.0658
  598MOL0     O82410   4.981  10.366   8.865 -0.7037  0.9477 -0.2485
  598MOL0     C82411   5.040  10.302   8.752 -0.6564 -0.2721  0.0780
  598MOL0     C82412   5.010  10.354   8.621  1.5045  0.6891  0.3068
  598MOL0     C82413   5.066  10.313   8.505  0.2322  0.2712  0.1224
  598MOL0     C82414   5.046  10.415   8.381 -1.3512 -0.5055  0.5446
  598MOL0     C82415   5.161  10.202   8.509 -0.7231  0.3828 -0.8453
  598MOL0     C82416   5.224  10.138   8.389 -0.0898 -0.7683  0.5763
  598MOL0     O82417   5.325  10.061   8.415  0.2277  0.6202 -0.6648
  598MOL0     C82418   5.361   9.951   8.348 -0.2217 -0.5815 -0.4907
  598MOL0     C82419   5.402   9.835   8.428  0.7937 -0.6845 -0.1130
  598MOL0     C82420   5.439   9.713   8.376 -0.9654 -0.3602 -0.3339
  598MOL0     C82421   5.453   9.703   8.238  0.4562 -0.4990  0.1921
  598MOL0     O82422   5.516   9.604   8.170 -0.5941 -0.0812 -0.3433
  598MOL0     C82423   5.540   9.483   8.248  0.8599  0.3223 -0.3791
  598MOL0     C82424   5.570   9.380   8.142 -1.0217 -0.0739 -0.9056
  598MOL0     C82425   5.539   9.231   8.189 -0.4998 -0.4643  0.1473
  598MOL0     C82426   5.546   9.123   8.077  0.3263  0.3426  0.3435
  598MOL0     C82427   5.545   8.976   8.134  0.4686 -0.3574  1.0210
  598MOL0     C82428   5.569   8.885   8.019  0.8916  0.9192  0.2146
  598MOL0     C82429   5.539   8.735   8.049 -0.1481 -0.3750 -0.2657
  598MOL0     C82430   5.638   8.670   8.150  0.9753  0.7653 -0.2210
  598MOL0    Cl82431   5.615   8.497   8.173 -0.0418  0.2186 -0.2375
  598MOL0     C82432   5.411   9.810   8.159 -0.0969 -0.3884 -0.1628
  598MOL0     C82433   5.362   9.928   8.215  0.1466  0.0298  1.2783
  598MOL0     O82434   5.176  10.162   8.276 -0.3814  0.7737 -0.5380
  598MOL0     C82435   5.192  10.150   8.638 -0.3078  0.5264  0.1388
  598MOL0     C82436   5.125  10.195   8.757 -0.8679 -0.0315 -0.7969
  598MOL0     N82437   4.584  10.742   9.217  0.0592 -0.7898  0.2174
  598MOL0     N82438   4.649  10.837   9.278  0.1980 -0.1546 -0.4974
  598MOL0     C82439   5.488  10.353   8.621  0.6931 -0.5065 -0.4738
  598MOL0     C82440   5.547  10.224   8.612 -0.2820  0.5459 -0.5647
  598MOL0     C82441   5.733   9.845   8.764  0.0912  0.5256  0.3657
  598MOL0     C82442   5.700   9.789   8.885 -1.0862 -0.8787  0.3783
  598MOL0     C82443   5.739   9.661   8.915  0.0865  0.5084 -0.0885
  598MOL0     C82444   5.824   9.590   8.833 -0.7821  0.4299  0.1545
  598MOL0     O82445   5.860   9.468   8.881 -0.1312 -0.1686 -0.2550
  598MOL0     C82446   5.947   9.395   8.784  0.3862 -0.2298 -0.5060
  598MOL0     C82447   6.086   9.459   8.797  0.2029  0.0158  0.3947
  598MOL0     C82448   6.150   9.454   8.935 -0.4496  0.0932 -0.6596
  598MOL0     C82449   6.181   9.316   8.987 -0.1772 -0.5972 -0.4789
  598MOL0     C82450   6.252   9.233   8.888  0.1189  0.6980 -0.1223
  598MOL0     C82451   6.295   9.157   8.803  0.5367 -0.2389 -0.1888
  598MOL0     C82452   5.847   9.646   8.706 -0.2292 -0.3434 -0.2503
  598MOL0     C82453   5.803   9.770   8.664 -0.0488  0.5075 -0.7087
  598MOL0     C82454   5.822   9.823   8.525 -0.1980 -0.0333 -0.4829
  598MOL0     H82455   5.509  10.131   8.938 -1.1284 -4.4999 -2.5814
  598MOL0     H82456   5.402  10.352   8.944  1.1253 -2.0619  1.1782
  598MOL0     H82457   5.382  10.585   8.577 -0.8742 -2.0184  0.1024
  598MOL0     H82458   5.455  10.695   8.710  0.7390 -1.2507  1.5592
  598MOL0     H82459   5.264  10.793   8.586  0.9571 -0.7947 -0.2963
  598MOL0     H82460   5.155  10.666   8.641  2.3892 -3.0905 -0.6311
  598MOL0     H82461   5.318  10.781   8.861  0.4297 -2.2219 -2.7866
  598MOL0     H82462   5.227  10.903   8.769 -3.1600 -0.7360 -2.1773
  598MOL0     H82463   5.007  10.805   8.816 -1.4904 -0.1208  1.8963
  598MOL0     H82464   5.105  10.678   8.908 -0.3095  0.4235  0.2092
  598MOL0     H82465   5.067  10.976   8.973  3.2407  2.0916  1.7613
  598MOL0     H82466   5.181  10.874   9.062  2.9830 -1.6649 -2.8821
  598MOL0     H82467   4.883  10.844   9.029  0.9517 -2.0713 -0.4595
  598MOL0     H82468   4.981  10.723   9.120 -0.4264 -1.0148 -1.6005
  598MOL0     H82469   4.933  11.013   9.180  2.3851  1.5519  1.5308
  598MOL0     H82470   5.064  10.920   9.267 -0.1446 -0.4213  1.8548
  598MOL0     H82471   4.938  10.820   9.416 -0.6618  0.8426  1.1830
  598MOL0     H82472   4.839  10.962   9.390 -3.8573 -0.7889 -1.2413
  598MOL0     H82473   4.868  10.595   9.278  1.1185 -0.2510  2.7738
  598MOL0     H82474   4.500  10.484   9.152  0.0933  0.1133  1.5241
  598MOL0     H82475   4.632  10.393   9.220 -4.6180 -0.1635  2.2421
  598MOL0     H82476   4.610  10.389   8.961  2.0988 -2.4810  0.4608
  598MOL0     H82477   4.657  10.569   8.972  1.6449  2.6457  3.9824
  598MOL0     H82478   4.862  10.503   9.053  0.5624  0.1616 -1.3724
  598MOL0     H82479   4.803  10.333   9.060 -1.0592  0.1637 -0.2728
  598MOL0     H82480   4.783  10.343   8.799 -0.6986 -2.6576  2.0271
  598MOL0     H82481   4.845  10.501   8.818  2.8371 -0.6725  0.8763
  598MOL0     H82482   4.948  10.442   8.629  0.6343 -0.0242  2.0072
  598MOL0     H82483   5.023  10.519   8.409  0.5838 -0.9812  4.6658
  598MOL0     H82484   4.960  10.382   8.322  1.6173 -5.3474 -1.6623
  598MOL0     H82485   5.127  10.418   8.308 -2.3246 -0.9427 -0.5898
  598MOL0     H82486   5.375   9.848   8.533  0.5144  0.6166 -0.3334
  598MOL0     H82487   5.456   9.629   8.443  0.7714 -0.3263 -0.6888
  598MOL0     H82488   5.603   9.490   8.337  1.7093 -1.7606 -0.7608
  598MOL0     H82489   5.445   9.454   8.293  1.2944 -0.6129 -0.0442
  598MOL0     H82490   5.526   9.407   8.046 -5.2876  0.9924  1.1179
  598MOL0     H82491   5.679   9.386   8.135 -1.0406  1.8568 -0.1464
  598MOL0     H82492   5.438   9.231   8.231  0.1352 -0.6263  1.7040
  598MOL0     H82493   5.605   9.191   8.266  0.8977  3.1408  1.0198
  598MOL0     H82494   5.629   9.140   8.008 -0.9537  0.7766 -1.1478
  598MOL0     H82495   5.454   9.134   8.019 -0.5001 -2.2903  1.0184
  598MOL0     H82496   5.632   8.977   8.201  0.8909  0.2873  0.4722
  598MOL0     H82497   5.451   8.967   8.190  0.6767  1.1609  1.6674
  598MOL0     H82498   5.668   8.890   7.971  2.1977 -2.3755  2.2634
  598MOL0     H82499   5.498   8.915   7.941 -0.2636  2.3886  1.7470
  598MOL0     H82500   5.514   8.679   7.958 -1.5952  2.4228 -1.7201
  598MOL0     H82501   5.438   8.735   8.090 -1.0132 -0.6931 -2.3003
  598MOL0     H82502   5.630   8.715   8.250  3.1553  0.2153  0.2547
  598MOL0     H82503   5.742   8.688   8.120  2.5622 -2.7902  2.4144
  598MOL0     H82504   5.420   9.810   8.051 -1.3184 -3.7310 -0.3645
  598MOL0     H82505   5.334  10.005   8.144  0.5586 -0.9399  0.0402
  598MOL0     H82506   5.261  10.066   8.645  0.1293  0.6137 -2.3260
  598MOL0     H82507   5.152  10.145   8.849  4.6629 -0.9522 -2.5299
  598MOL0     H82508   5.467  10.422   8.540 -2.3207  1.9258  2.1241
  598MOL0     H82509   5.598  10.196   8.520 -0.9439  2.2322 -1.4804
  598MOL0     H82510   5.643   9.844   8.961 -3.4797 -4.1907  1.2203
  598MOL0     H82511   5.712   9.617   9.010 -0.6393 -0.6053 -0.7916
  598MOL0     H82512   5.946   9.288   8.806 -0.1152 -0.4352 -1.4628
  598MOL0     H82513   5.924   9.384   8.678  1.5010 -2.4239 -0.5564
  598MOL0     H82514   6.080   9.565   8.769 -2.2371  0.4146  2.0813
  598MOL0     H82515   6.150   9.418   8.718  1.2130 -1.5953  1.9808
  598MOL0     H82516   6.242   9.513   8.944 -1.6295  2.0756 -0.9787
  598MOL0     H82517   6.073   9.502   8.995  0.7347  0.4792  0.6124
  598MOL0     H82518   6.086   9.265   9.004 -0.7044  0.5794  0.2785
  598MOL0     H82519   6.245   9.320   9.076  1.3122  2.5833 -1.5225
  598MOL0     H82520   6.326   9.100   8.718  2.2360  0.2589  0.0445
  598MOL0     H82521   5.899   9.585   8.632 -1.2417 -0.2737 -1.0286
  598MOL0     H82522   5.919   9.874   8.525  0.9265 -2.0450  0.0640
  598MOL0     H82523   5.831   9.742   8.452  1.5361 -0.9413  0.6669
  598MOL0     H82524   5.738   9.885   8.493  0.4173  0.8257 -0.4891
  599MOL0     O82525   8.488   5.081   4.189  0.0083 -0.2671  0.0577
  599MOL0     C82526   8.559   5.074   4.284  0.2966 -0.4470  0.1241
  599MOL0     O82527   8.641   5.171   4.333 -0.2038  0.0456 -0.5684
  599MOL0     C82528   8.630   5.306   4.307  0.1302 -0.3479 -0.0687
  599MOL0     C82529   8.719   5.386   4.377  0.1194  0.0925 -0.3914
  599MOL0     C82530   8.701   5.526   4.389 -0.6533 -0.3028 -0.6539
  599MOL0     C82531   8.598   5.591   4.320 -0.6024 -0.8665 -0.1375
  599MOL0     O82532   8.568   5.727   4.342 -0.1188 -0.3470 -0.2639
  599MOL0     C82533   8.678   5.823   4.320  0.0044  0.2003  0.7971
  599MOL0     C82534   8.655   5.889   4.172 -0.3053 -0.0778  0.0753
  599MOL0     C82535   8.760   5.987   4.145 -0.0285 -0.9625  0.8350
  599MOL0     C82536   8.740   6.062   4.011  0.0093 -0.6571  0.2417
  599MOL0     C82537   8.756   5.973   3.893  0.3176  0.3501  0.0740
  599MOL0     C82538   8.788   6.043   3.756  0.8288 -0.7771 -0.8846
  599MOL0     C82539   8.664   6.126   3.718 -0.7217  0.7759 -0.2984
  599MOL0     C82540   8.708   6.229   3.605 -0.0203  0.3562 -0.4791
  599MOL0     N82541   8.783   6.337   3.664 -0.5040 -0.5318 -0.2143
  599MOL0     C82542   8.761   6.401   3.788  0.3791  0.8321  0.9367
  599MOL0     C82543   8.857   6.485   3.801  0.2986  0.1549  0.0731
  599MOL0     C82544   8.875   6.591   3.895 -0.0836  0.1600  0.2405
  599MOL0     C82545   8.800   6.727   3.845  0.3910 -0.5216 -0.3498
  599MOL0     C82546   8.881   6.806   3.739 -0.3656  0.1438  0.5455
  599MOL0     C82547   8.813   6.931   3.705  0.6097  0.0192  0.3383
  599MOL0     O82548   8.713   6.896   3.610  0.6188  0.0513 -0.2570
  599MOL0     C82549   8.579   6.901   3.642 -1.1059 -1.3566 -0.2102
  599MOL0     C82550   8.488   6.905   3.532 -0.6858 -0.7445  0.2551
  599MOL0     C82551   8.351   6.934   3.540 -1.3197  0.0118 -0.4423
  599MOL0     C82552   8.281   6.984   3.418 -0.2716 -0.1880 -0.4175
  599MOL0     C82553   8.299   6.942   3.676  0.4507 -0.0940  0.6338
  599MOL0     C82554   8.161   6.974   3.700  0.9764  0.3912  0.0216
  599MOL0     O82555   8.134   6.998   3.841  0.2502  0.4396 -0.2461
  599MOL0     C82556   8.002   6.979   3.885  0.0943 -0.8868  0.1993
  599MOL0     C82557   7.979   6.931   4.018  0.7304 -0.7959  0.0108
  599MOL0     C82558   7.847   6.905   4.058  0.1171 -0.6180 -0.0495
  599MOL0     C82559   7.739   6.974   3.999 -0.5022  0.4436  0.6340
  599MOL0     O82560   7.614   6.945   4.051  0.1820 -0.2610  0.5323
  599MOL0     C82561   7.507   7.022   4.003  0.7135 -0.0730  0.2722
  599MOL0     C82562   7.385   7.009   4.094 -0.4769 -0.1769  0.7832
  599MOL0     C82563   7.418   7.047   4.237  0.4677  0.6831 -0.1941
  599MOL0     C82564   7.294   7.032   4.318 -1.0619 -1.3635 -0.0215
  599MOL0     C82565   7.300   7.113   4.451 -0.6168 -1.1941  0.3511
  599MOL0     C82566   7.165   7.109   4.528  0.0515  0.1088 -0.4251
  599MOL0     C82567   7.117   6.969   4.591  0.0285  0.5825 -0.4155
  599MOL0     C82568   6.979   6.982   4.661  0.0847 -1.5609  0.1903
  599MOL0    Cl82569   6.996   7.092   4.800  0.5021 -0.0443  0.0156
  599MOL0     C82570   7.766   7.047   3.889  0.1313 -1.4667  0.5093
  599MOL0     C82571   7.896   7.050   3.828  0.4264  0.0935 -0.5060
  599MOL0     O82572   8.075   6.983   3.607  0.2182  0.0660  0.1748
  599MOL0     C82573   8.389   6.933   3.779  0.7119  0.4421  0.5880
  599MOL0     C82574   8.528   6.918   3.764  0.3409  0.6628 -0.0835
  599MOL0     N82575   8.945   6.461   3.698 -0.0851  0.1498 -0.3819
  599MOL0     N82576   8.903   6.378   3.614  0.1087  0.3111  0.6131
  599MOL0     C82577   8.505   5.515   4.268 -0.1820  0.0701  0.9852
  599MOL0     C82578   8.519   5.373   4.261 -0.7849  0.4419  0.4323
  599MOL0     C82579   8.561   4.949   4.351  0.4546  0.1489 -0.4287
  599MOL0     C82580   8.592   4.967   4.486  0.0905  0.3092 -0.3760
  599MOL0     C82581   8.577   4.849   4.563  0.2098  0.1905  0.2304
  599MOL0     C82582   8.542   4.721   4.499  0.1060  0.9379  0.0369
  599MOL0     O82583   8.547   4.608   4.583  0.4514  0.1048  0.4433
  599MOL0     C82584   8.489   4.486   4.542 -0.8889 -0.4570 -0.3926
  599MOL0     C82585   8.443   4.404   4.658 -0.2156 -0.4697  0.6118
  599MOL0     C82586   8.412   4.261   4.635  0.6650 -0.7400  0.2347
  599MOL0     C82587   8.327   4.196   4.749  0.8586 -0.2581 -0.3859
  599MOL0     C82588   8.312   4.056   4.734  0.5444  0.3617 -0.3714
  599MOL0     C82589   8.310   3.938   4.714  0.5144  0.1847 -0.0496
  599MOL0     C82590   8.508   4.716   4.368  0.1910  0.9669 -0.7901
  599MOL0     C82591   8.511   4.830   4.288 -0.7799 -0.4644  0.0841
  599MOL0     C82592   8.441   4.806   4.154 -0.7445 -0.8260  0.6748
  599MOL0     H82593   8.801   5.333   4.423  0.2220 -0.6023 -1.3417
  599MOL0     H82594   8.768   5.591   4.443 -1.0811 -1.1248  0.9539
  599MOL0     H82595   8.781   5.785   4.318 -0.7537 -2.1167  1.8670
  599MOL0     H82596   8.659   5.897   4.398  0.7898  0.5461  0.6762
  599MOL0     H82597   8.661   5.798   4.111  1.8348  0.2006 -0.1995
  599MOL0     H82598   8.555   5.932   4.175  0.3859  1.5934 -0.1103
  599MOL0     H82599   8.747   6.058   4.227 -5.5175 -3.7265  2.8975
  599MOL0     H82600   8.859   5.939   4.146  0.5244 -0.8826 -5.9884
  599MOL0     H82601   8.641   6.108   4.018  1.4848  2.5778  2.6756
  599MOL0     H82602   8.819   6.137   4.016 -0.3531 -0.2135 -0.5657
  599MOL0     H82603   8.665   5.914   3.885 -0.6997  1.5855  1.8676
  599MOL0     H82604   8.843   5.909   3.910  1.6233  1.8540 -0.6838
  599MOL0     H82605   8.868   6.116   3.769 -0.8352  1.0088 -0.1990
  599MOL0     H82606   8.812   5.969   3.679 -0.0182 -0.2125 -1.7032
  599MOL0     H82607   8.611   6.169   3.804 -1.6861  0.4549 -0.7296
  599MOL0     H82608   8.589   6.055   3.683 -0.1341 -2.3063  3.8693
  599MOL0     H82609   8.757   6.170   3.527  0.6918 -3.6379  2.6110
  599MOL0     H82610   8.608   6.261   3.573  0.2370  0.6748 -0.9771
  599MOL0     H82611   8.678   6.398   3.858  2.1400  2.7574  3.2617
  599MOL0     H82612   8.977   6.597   3.931 -0.5443  2.9839  1.2844
  599MOL0     H82613   8.834   6.577   3.995  0.8598 -2.1559  0.3607
  599MOL0     H82614   8.702   6.696   3.808 -0.7476  0.6975  1.5080
  599MOL0     H82615   8.785   6.775   3.942  1.6215 -2.0489  0.6486
  599MOL0     H82616   8.980   6.829   3.780 -0.3348  0.9405  0.0352
  599MOL0     H82617   8.903   6.742   3.654  0.8307  2.2693 -0.8226
  599MOL0     H82618   8.776   6.991   3.789 -2.4715  1.5043 -1.8596
  599MOL0     H82619   8.882   7.003   3.661 -0.7649  2.8369  2.4526
  599MOL0     H82620   8.535   6.901   3.434  0.1701  2.3674  0.4367
  599MOL0     H82621   8.242   7.086   3.432  2.0028  0.9182 -1.5669
  599MOL0     H82622   8.193   6.922   3.396 -1.9170  1.9748 -0.2750
  599MOL0     H82623   8.349   6.997   3.333  0.4592  6.1908  0.6221
  599MOL0     H82624   8.072   6.905   4.068  1.2139 -1.1714 -1.0450
  599MOL0     H82625   7.814   6.836   4.135 -3.0717 -0.8387 -1.4785
  599MOL0     H82626   7.537   7.122   3.972  0.0612 -0.4977 -1.8686
  599MOL0     H82627   7.471   6.980   3.909  3.1134 -2.7911  0.4102
  599MOL0     H82628   7.299   7.062   4.050 -3.5465 -4.4186  0.9967
  599MOL0     H82629   7.356   6.903   4.094  3.5088 -1.4363 -0.0233
  599MOL0     H82630   7.468   7.143   4.243  2.1357 -0.2262  1.1405
  599MOL0     H82631   7.484   6.972   4.282 -5.2376 -3.4205  2.6552
  599MOL0     H82632   7.288   6.927   4.347  1.8780 -1.1661  1.7281
  599MOL0     H82633   7.215   7.060   4.247  1.8938  0.4710 -2.9169
  599MOL0     H82634   7.375   7.065   4.514 -0.9491 -1.6021  0.4435
  599MOL0     H82635   7.346   7.211   4.436  0.4473 -1.2952  2.5793
  599MOL0     H82636   7.089   7.145   4.457  0.4776  2.0751  0.0649
  599MOL0     H82637   7.173   7.188   4.603 -0.3742 -1.3845  1.2650
  599MOL0     H82638   7.191   6.933   4.663 -3.3028  0.2388  3.1456
  599MOL0     H82639   7.110   6.881   4.526 -2.7987 -1.2558  2.0835
  599MOL0     H82640   6.938   6.886   4.696  0.4727 -1.5733  0.6229
  599MOL0     H82641   6.915   7.037   4.592  2.0756  1.3485  0.4883
  599MOL0     H82642   7.693   7.111   3.841  1.0005  0.9454  2.2203
  599MOL0     H82643   7.915   7.110   3.739  0.5900  2.3272  0.9439
  599MOL0     H82644   8.354   6.942   3.882 -1.3496  0.8885 -0.1080
  599MOL0     H82645   8.588   6.890   3.850  0.8172 -2.5542 -1.3568
  599MOL0     H82646   8.416   5.566   4.235 -0.1510  1.7461  3.2293
  599MOL0     H82647   8.443   5.307   4.220  0.7940  0.3264 -2.5662
  599MOL0     H82648   8.631   5.057   4.533  0.8327 -1.1043  1.8636
  599MOL0     H82649   8.620   4.851   4.663 -1.7921  0.4673  1.1180
  599MOL0     H82650   8.409   4.493   4.467  0.7385 -0.7484 -2.2390
  599MOL0     H82651   8.576   4.443   4.492 -0.8572 -0.4903 -0.3074
  599MOL0     H82652   8.352   4.454   4.692 -0.5580  2.8635 -4.1540
  599MOL0     H82653   8.519   4.397   4.737  0.7236  0.7410 -0.1511
  599MOL0     H82654   8.367   4.233   4.539 -1.2105 -3.2303  1.7136
  599MOL0     H82655   8.507   4.208   4.623  1.2024 -0.2560  2.0769
  599MOL0     H82656   8.233   4.251   4.743  2.4306  2.5186 -2.1669
  599MOL0     H82657   8.375   4.219   4.845  2.5696  1.8272 -1.6422
  599MOL0     H82658   8.302   3.836   4.680 -2.2909 -0.4503  2.1054
  599MOL0     H82659   8.472   4.624   4.322  1.8960 -0.6332  0.8878
  599MOL0     H82660   8.356   4.738   4.160 -1.2009 -0.1621  2.5802
  599MOL0     H82661   8.390   4.894   4.112 -1.6399  0.3167  3.7885
  599MOL0     H82662   8.519   4.768   4.088 -0.0197  3.6772 -1.4352
  600MOL0     O82663   2.752   3.630   3.231  0.0252 -0.3635  0.5350
  600MOL0     C82664   2.667   3.711   3.199 -0.6338 -0.2043 -0.7643
  600MOL0     O82665   2.630   3.731   3.070  0.5180  0.8065 -0.2068
  600MOL0     C82666   2.665   3.635   2.984 -0.4287  0.2446  0.2800
  600MOL0     C82667   2.789   3.633   2.921 -0.3513 -0.4193 -0.5114
  600MOL0     C82668   2.817   3.520   2.842  0.4813  0.7533 -0.3941
  600MOL0     C82669   2.724   3.418   2.806 -0.7897  0.2091  1.0582
  600MOL0     O82670   2.755   3.326   2.712  0.1108  0.3035  0.8995
  600MOL0     C82671   2.642   3.295   2.621 -0.0865 -0.6064 -0.0750
  600MOL0     C82672   2.698   3.240   2.489 -0.5100 -0.7450  0.5773
  600MOL0     C82673   2.755   3.094   2.500 -0.3842 -0.1786  0.1105
  600MOL0     C82674   2.820   3.060   2.365 -1.5361  0.0701  0.6107
  600MOL0     C82675   2.851   2.915   2.372 -0.2794 -0.2119 -0.3343
  600MOL0     C82676   2.724   2.831   2.345 -0.1410  0.8472 -0.9919
  600MOL0     C82677   2.776   2.699   2.286 -0.3959 -0.9555 -0.1531
  600MOL0     C82678   2.647   2.610   2.277  0.0116  0.6233  0.3276
  600MOL0     N82679   2.686   2.469   2.224 -0.0706  0.1663  0.9984
  600MOL0     C82680   2.797   2.431   2.138  0.3111  0.8133 -0.1759
  600MOL0     C82681   2.788   2.302   2.109  0.3319 -0.6101  0.4109
  600MOL0     C82682   2.887   2.254   2.013  0.7377  0.1580  0.2640
  600MOL0     C82683   2.949   2.125   2.075  0.4456  0.0413  1.0655
  600MOL0     C82684   3.067   2.065   1.998  0.4777  0.3817 -0.4142
  600MOL0     C82685   3.124   1.942   2.082  0.1487 -0.3011 -0.2395
  600MOL0     O82686   3.020   1.838   2.101 -0.9083 -0.3110  0.3032
  600MOL0     C82687   3.006   1.751   2.004  0.1600 -0.4871 -0.1440
  600MOL0     C82688   3.069   1.762   1.882  0.6031  0.1278 -1.2145
  600MOL0     C82689   3.072   1.656   1.791 -0.8763  0.1006  0.0674
  600MOL0     C82690   3.155   1.686   1.662 -0.2111 -0.2873  0.1003
  600MOL0     C82691   2.993   1.542   1.815  0.0856 -0.2098  0.0003
  600MOL0     C82692   2.975   1.435   1.716 -0.8357  0.7131  0.3433
  600MOL0     O82693   2.888   1.325   1.758 -0.8342 -0.3492  0.5802
  600MOL0     C82694   2.882   1.213   1.677  0.2010  0.6835  0.4875
  600MOL0     C82695   2.914   1.085   1.729  0.2482  0.2426 -0.0557
  600MOL0     C82696   2.894   0.968   1.650  0.0653  0.0447  0.2089
  600MOL0     C82697   2.857   0.985   1.513  0.2790  0.4436 -0.1373
  600MOL0     O82698   2.846   0.867   1.443 -0.7920 -0.7033 -0.4948
  600MOL0     C82699   2.800   0.884   1.306  0.6668  0.2496  0.0742
  600MOL0     C82700   2.828   0.748   1.235  0.2352  0.5328 -0.3784
  600MOL0     C82701   2.746   0.620   1.286  0.2306 -0.3176  0.3998
  600MOL0     C82702   2.762   0.500   1.202 -0.0217  0.5085 -0.1824
  600MOL0     C82703   2.899   0.431   1.231 -0.2136  0.1190 -0.6598
  600MOL0     C82704   2.924   0.306   1.146 -0.3932  1.0172 -0.4326
  600MOL0     C82705   3.063   0.246   1.184  0.3939  0.2457 -0.0905
  600MOL0     C82706   3.065   0.162   1.307 -0.2402  0.4043 -0.0029
  600MOL0    Cl82707   2.970   0.019   1.268  0.5991 -0.3931 -0.3268
  600MOL0     C82708   2.812   1.115   1.474 -0.3038 -0.2275  0.6440
  600MOL0     C82709   2.829   1.230   1.554  0.1313 -0.8279 -1.3047
  600MOL0     O82710   3.027   1.441   1.605  0.1246 -0.4180  1.0402
  600MOL0     C82711   2.915   1.539   1.931 -0.8525 -1.1021 -0.2617
  600MOL0     C82712   2.932   1.636   2.031 -0.4238 -0.2234  0.3007
  600MOL0     N82713   2.667   2.265   2.146  1.4156 -0.3000 -0.4117
  600MOL0     N82714   2.608   2.358   2.226 -0.0087  0.5495 -0.2148
  600MOL0     C82715   2.603   3.425   2.866  0.8594 -0.2047  0.8309
  600MOL0     C82716   2.572   3.531   2.951  0.2154 -0.4298  0.4963
  600MOL0     C82717   2.596   3.782   3.311 -0.2933 -0.3810  0.0883
  600MOL0     C82718   2.638   3.766   3.443 -0.9371 -0.1510  1.0304
  600MOL0     C82719   2.593   3.834   3.549 -0.8662 -0.1986 -0.7519
  600MOL0     C82720   2.487   3.926   3.537 -0.1702  0.2913 -0.7614
  600MOL0     O82721   2.453   3.992   3.652 -0.4677  0.1366 -0.0168
  600MOL0     C82722   2.341   4.080   3.665  0.3714  0.0757  0.7251
  600MOL0     C82723   2.208   4.002   3.636 -0.5361 -0.3276 -0.9216
  600MOL0     C82724   2.096   4.104   3.596 -0.0233  0.4497  0.3961
  600MOL0     C82725   1.959   4.036   3.561 -0.7918 -0.1014 -0.0053
  600MOL0     C82726   1.853   4.132   3.547 -0.0233  0.2284 -0.1377
  600MOL0     C82727   1.777   4.225   3.544 -0.0345 -0.1809 -0.0080
  600MOL0     C82728   2.437   3.944   3.406  1.2046  0.2261  0.1230
  600MOL0     C82729   2.485   3.871   3.290  0.1416 -0.5462 -0.7266
  600MOL0     C82730   2.417   3.910   3.162  0.3413 -0.2562  0.4566
  600MOL0     H82731   2.858   3.714   2.942 -0.8600 -0.6173  2.2511
  600MOL0     H82732   2.914   3.504   2.796  0.0174 -0.4326 -1.0179
  600MOL0     H82733   2.571   3.376   2.600 -2.1975 -2.3041  0.1999
  600MOL0     H82734   2.572   3.222   2.661 -1.3848  1.0772  0.8700
  600MOL0     H82735   2.612   3.240   2.422  0.2456  2.5985 -0.6206
  600MOL0     H82736   2.773   3.307   2.445 -1.0300 -0.1841  0.5313
  600MOL0     H82737   2.828   3.096   2.582  0.5616 -0.7753 -0.6852
  600MOL0     H82738   2.669   3.027   2.504 -0.4658 -0.0246  1.3504
  600MOL0     H82739   2.771   3.080   2.269  1.7182  1.9159 -0.8213
  600MOL0     H82740   2.912   3.120   2.369 -0.0998 -1.9996  0.2711
  600MOL0     H82741   2.876   2.883   2.474 -1.0772  0.4936  0.0947
  600MOL0     H82742   2.933   2.891   2.304  2.0588  2.3762  1.3518
  600MOL0     H82743   2.662   2.808   2.432  0.8382 -0.5621 -0.6282
  600MOL0     H82744   2.667   2.895   2.277 -0.5106  1.4621 -0.1189
  600MOL0     H82745   2.845   2.644   2.351 -0.6542  0.4069  1.3471
  600MOL0     H82746   2.845   2.717   2.203  1.5317  0.4590  1.6434
  600MOL0     H82747   2.587   2.607   2.369 -0.3551  1.7567  0.1337
  600MOL0     H82748   2.579   2.663   2.210  0.4699  1.2584  0.3555
  600MOL0     H82749   2.883   2.482   2.096  2.5951 -2.2631  0.3409
  600MOL0     H82750   2.970   2.324   1.999  0.7578  0.8257  3.1130
  600MOL0     H82751   2.842   2.242   1.914 -2.6355  1.3624  1.5365
  600MOL0     H82752   2.979   2.136   2.179 -1.7459 -1.4494  1.9347
  600MOL0     H82753   2.872   2.048   2.090  1.4830 -1.2640 -0.0846
  600MOL0     H82754   3.041   2.022   1.901  0.3858 -5.4456  1.7649
  600MOL0     H82755   3.142   2.145   1.995  0.1652  1.0960  3.8431
  600MOL0     H82756   3.214   1.904   2.033 -0.9780 -2.4211 -0.7558
  600MOL0     H82757   3.158   1.975   2.181 -1.5633 -1.8909  0.9608
  600MOL0     H82758   3.124   1.848   1.847  1.9453  0.5430  1.6282
  600MOL0     H82759   3.229   1.763   1.688  1.2559 -1.7016  0.2799
  600MOL0     H82760   3.087   1.723   1.585 -1.6114  1.5250  2.1103
  600MOL0     H82761   3.221   1.611   1.618  0.8981  0.3696  0.5936
  600MOL0     H82762   2.941   1.079   1.834 -2.6003  0.3428  0.7556
  600MOL0     H82763   2.915   0.868   1.686 -0.2427 -0.9602 -2.1895
  600MOL0     H82764   2.699   0.920   1.287  0.4147  0.4884  1.7080
  600MOL0     H82765   2.858   0.959   1.252 -1.9601  2.6790  0.3671
  600MOL0     H82766   2.815   0.756   1.127 -2.9093 -1.4695 -0.2601
  600MOL0     H82767   2.936   0.732   1.241  0.6123  2.2300 -1.7910
  600MOL0     H82768   2.639   0.644   1.280 -0.0831 -1.9015 -1.5531
  600MOL0     H82769   2.781   0.602   1.388 -0.1511  1.8770  0.9686
  600MOL0     H82770   2.743   0.522   1.096 -0.4465  1.9889  0.1697
  600MOL0     H82771   2.688   0.430   1.241  1.8866 -0.5896  1.6700
  600MOL0     H82772   2.980   0.501   1.208  0.6855 -0.7710 -0.2811
  600MOL0     H82773   2.907   0.398   1.335  1.1567 -1.1123 -1.1178
  600MOL0     H82774   2.935   0.319   1.038  0.0308  0.1784 -0.5047
  600MOL0     H82775   2.842   0.234   1.141  0.6324 -0.2346  0.2423
  600MOL0     H82776   3.135   0.327   1.200  0.6039 -0.1703  1.1968
  600MOL0     H82777   3.096   0.175   1.108  0.0480 -0.0767  0.0559
  600MOL0     H82778   3.035   0.203   1.404 -1.6119 -2.7251  1.0197
  600MOL0     H82779   3.171   0.136   1.319  0.1219  1.7422 -0.1442
  600MOL0     H82780   2.774   1.134   1.374 -1.2927  0.1516  1.0828
  600MOL0     H82781   2.775   1.317   1.517 -0.5535 -0.1309  1.1290
  600MOL0     H82782   2.849   1.456   1.957  0.8313 -2.6032 -0.5748
  600MOL0     H82783   2.877   1.632   2.125  2.7205 -3.8985  2.2576
  600MOL0     H82784   2.520   3.357   2.846  1.1452  0.2866 -2.8157
  600MOL0     H82785   2.480   3.538   3.008  2.4239 -1.5749  4.6354
  600MOL0     H82786   2.721   3.700   3.465  0.9083  2.7719  3.4973
  600MOL0     H82787   2.653   3.827   3.640 -0.4732 -1.6928 -1.0908
  600MOL0     H82788   2.348   4.120   3.766  2.2260 -1.8952  1.4374
  600MOL0     H82789   2.349   4.152   3.583 -0.9879 -1.2533 -0.6454
  600MOL0     H82790   2.174   3.957   3.729 -0.9171  1.1696 -0.3103
  600MOL0     H82791   2.212   3.926   3.557 -2.1337 -1.8329  0.3844
  600MOL0     H82792   2.090   4.184   3.671  3.8275  0.3859  0.9805
  600MOL0     H82793   2.133   4.149   3.504  0.6482 -2.6212 -0.9560
  600MOL0     H82794   1.939   3.964   3.641  4.5181 -1.6435  0.3439
  600MOL0     H82795   1.962   3.973   3.472 -3.7158  1.4710 -1.3586
  600MOL0     H82796   1.715   4.311   3.556 -1.2936 -1.0457 -0.0604
  600MOL0     H82797   2.354   4.013   3.390 -1.1836 -1.9512  2.1776
  600MOL0     H82798   2.321   3.960   3.177  0.5947  1.0061 -1.6563
  600MOL0     H82799   2.484   3.969   3.100  1.1079 -0.1159  1.3976
  600MOL0     H82800   2.395   3.815   3.111  0.2612 -0.8437  1.5595
  601MOL0     O82801   9.929   3.706   7.155  0.5458  0.5034  0.7435
  601MOL0     C82802  10.011   3.659   7.228 -0.3157  0.3280  0.6370
  601MOL0     O82803   9.996   3.646   7.366 -0.2611 -0.6218  0.2089
  601MOL0     C82804   9.889   3.703   7.435  0.2653  0.4840 -0.7228
  601MOL0     C82805   9.760   3.723   7.395  0.6197  0.7324 -0.1140
  601MOL0     C82806   9.675   3.795   7.480 -0.0857 -0.0929 -1.2674
  601MOL0     C82807   9.709   3.844   7.613  0.5664 -0.2788  0.8477
  601MOL0     O82808   9.610   3.908   7.669 -0.4044 -0.8181 -0.5570
  601MOL0     C82809   9.610   3.939   7.808 -0.1423  1.0702 -0.8314
  601MOL0     C82810   9.487   4.029   7.832  0.5821  0.7233  0.1094
  601MOL0     C82811   9.501   4.084   7.979  0.6917 -0.0726 -0.6977
  601MOL0     C82812   9.389   4.199   8.016 -0.2981 -0.8264  0.7051
  601MOL0     C82813   9.247   4.155   8.032 -0.0267 -0.0705 -0.4455
  601MOL0     C82814   9.158   4.278   8.010  0.0871  0.0490 -0.6750
  601MOL0     C82815   9.019   4.248   7.963  0.1410  0.2455  0.1651
  601MOL0     C82816   9.017   4.208   7.807  0.3396  0.3752 -0.1852
  601MOL0     N82817   9.054   4.069   7.770  0.4040  0.2454  0.0052
  601MOL0     C82818   9.140   4.025   7.676 -0.2542  0.8115  0.2944
  601MOL0     C82819   9.118   3.892   7.643  0.3823  0.3040 -0.1648
  601MOL0     C82820   9.181   3.814   7.540 -0.8618 -0.2158  0.0620
  601MOL0     C82821   9.228   3.682   7.599  0.1689 -0.4426  0.4856
  601MOL0     C82822   9.275   3.583   7.492 -0.7212 -0.2879 -0.7385
  601MOL0     C82823   9.170   3.494   7.432 -0.0414 -0.4171  0.0319
  601MOL0     O82824   9.050   3.569   7.386  0.4472  0.0505  0.3079
  601MOL0     C82825   8.924   3.511   7.371  0.6321 -0.6163 -0.5230
  601MOL0     C82826   8.803   3.591   7.373  0.1686 -0.3341 -0.2345
  601MOL0     C82827   8.684   3.534   7.353 -1.5896  0.1023 -0.4007
  601MOL0     C82828   8.579   3.635   7.347  0.1027  0.5165 -1.0579
  601MOL0     C82829   8.666   3.398   7.350  0.9530  0.3904  0.0453
  601MOL0     C82830   8.532   3.321   7.343 -0.9734  0.3015  0.1718
  601MOL0     O82831   8.531   3.196   7.290  0.0635 -1.0149 -0.0567
  601MOL0     C82832   8.434   3.103   7.315  0.0067  0.2871 -0.2117
  601MOL0     C82833   8.348   3.099   7.429  0.1689  1.0670  0.2083
  601MOL0     C82834   8.251   2.995   7.435 -0.3563 -0.6477  0.8747
  601MOL0     C82835   8.237   2.896   7.327  0.6126  0.5721 -0.9218
  601MOL0     O82836   8.150   2.797   7.348  0.7586  0.3306  0.6183
  601MOL0     C82837   8.174   2.672   7.278  0.3842  0.0178  0.2937
  601MOL0     C82838   8.094   2.550   7.312  0.7610 -0.3382  0.0237
  601MOL0     C82839   8.089   2.440   7.196  0.9367  0.7597 -0.1302
  601MOL0     C82840   8.097   2.486   7.045 -0.3597  0.7221  0.4338
  601MOL0     C82841   8.096   2.376   6.944 -0.2579 -0.1348  0.2960
  601MOL0     C82842   7.953   2.333   6.897 -0.6748 -0.1070 -0.4959
  601MOL0     C82843   7.939   2.218   6.794 -0.1869  0.0399 -0.0473
  601MOL0     C82844   7.809   2.203   6.726  0.4776 -0.4420  0.2352
  601MOL0    Cl82845   7.669   2.261   6.826 -0.5394 -0.5511 -0.1035
  601MOL0     C82846   8.322   2.909   7.217  0.0275 -0.7435  0.0742
  601MOL0     C82847   8.419   3.004   7.219  0.0322 -0.1212  0.4751
  601MOL0     O82848   8.423   3.369   7.387  0.4552 -0.7793 -0.1678
  601MOL0     C82849   8.780   3.316   7.344  0.2398 -0.7157  0.7016
  601MOL0     C82850   8.906   3.371   7.355 -0.2125  0.2855  0.7175
  601MOL0     N82851   9.015   3.862   7.726  0.7040 -0.2790 -0.5538
  601MOL0     N82852   8.972   3.966   7.795 -1.0453  0.0378  0.3548
  601MOL0     C82853   9.842   3.830   7.651  0.8498 -0.3327 -0.3935
  601MOL0     C82854   9.914   3.742   7.571 -0.5781 -0.8486  0.1449
  601MOL0     C82855  10.133   3.610   7.159  0.0705  0.2480  0.6132
  601MOL0     C82856  10.138   3.607   7.013 -0.7591 -0.6614 -0.3695
  601MOL0     C82857  10.246   3.554   6.946 -0.3782  1.2949 -0.5541
  601MOL0     C82858  10.352   3.496   7.025  0.1127  0.0570 -0.4906
  601MOL0     O82859  10.453   3.440   6.946 -0.5301  0.3194  0.6459
  601MOL0     C82860  10.545   3.361   7.014 -0.2402  0.7025 -0.3435
  601MOL0     C82861  10.649   3.345   6.905  1.0352 -0.2162  0.4935
  601MOL0     C82862  10.753   3.237   6.939  1.4631  0.0219 -0.4696
  601MOL0     C82863  10.881   3.286   7.002  0.0794 -0.4483 -0.2128
  601MOL0     C82864  10.989   3.189   6.988  0.4475 -0.1418  0.2429
  601MOL0     C82865  11.086   3.120   6.970  0.4273  0.4211 -0.6992
  601MOL0     C82866  10.346   3.500   7.163 -0.3441 -0.0607  0.1055
  601MOL0     C82867  10.239   3.559   7.239  0.2316  0.5638  0.0015
  601MOL0     C82868  10.250   3.551   7.392 -0.1376  0.5828 -0.5509
  601MOL0     H82869   9.731   3.696   7.294 -0.8410  0.0742  0.4582
  601MOL0     H82870   9.573   3.817   7.448 -1.0244 -1.0109  0.8911
  601MOL0     H82871   9.700   3.994   7.835  1.2661 -1.5898  0.1921
  601MOL0     H82872   9.608   3.853   7.875  0.6232  0.6453 -1.3479
  601MOL0     H82873   9.489   4.107   7.755  0.8308 -0.6115 -1.2872
  601MOL0     H82874   9.393   3.974   7.822 -0.4603  1.9949  2.3057
  601MOL0     H82875   9.495   4.001   8.050 -2.6918  0.9159  0.3899
  601MOL0     H82876   9.603   4.122   7.984  0.4888  0.4281 -0.2777
  601MOL0     H82877   9.414   4.243   8.113 -0.9309  2.7229 -0.6064
  601MOL0     H82878   9.404   4.282   7.948  0.7857 -2.1723 -0.7771
  601MOL0     H82879   9.226   4.103   8.126  3.4442  1.3674  1.2893
  601MOL0     H82880   9.222   4.082   7.954 -0.1620 -0.8804  0.3320
  601MOL0     H82881   9.142   4.321   8.109 -2.4818 -1.1209 -0.4831
  601MOL0     H82882   9.210   4.347   7.943 -1.0972  1.4670 -0.1855
  601MOL0     H82883   8.948   4.330   7.971  0.5088  0.4986  0.9080
  601MOL0     H82884   8.981   4.159   8.013  2.0477 -1.0516 -0.5770
  601MOL0     H82885   8.916   4.221   7.766 -0.0236 -0.1156  0.5267
  601MOL0     H82886   9.090   4.267   7.752  0.6900  0.4169  0.3220
  601MOL0     H82887   9.207   4.075   7.608 -0.2373  1.5010  0.8102
  601MOL0     H82888   9.268   3.865   7.497  0.3863 -2.0865  0.2447
  601MOL0     H82889   9.113   3.809   7.455  1.5223  0.0885 -1.9933
  601MOL0     H82890   9.307   3.711   7.669  2.2275 -0.6319 -1.6666
  601MOL0     H82891   9.138   3.635   7.641  1.0177 -1.7526  0.9203
  601MOL0     H82892   9.344   3.631   7.422  3.0517 -0.5980  2.3645
  601MOL0     H82893   9.347   3.518   7.545 -2.9962 -0.2959  2.6726
  601MOL0     H82894   9.235   3.459   7.350  3.1998  4.1343  0.2917
  601MOL0     H82895   9.142   3.423   7.511  1.3727  2.5551  3.4424
  601MOL0     H82896   8.826   3.697   7.371  2.4767 -0.7863 -0.3430
  601MOL0     H82897   8.587   3.707   7.429 -0.2784  0.1150 -0.6711
  601MOL0     H82898   8.474   3.606   7.351  0.7440 -1.8126  0.6050
  601MOL0     H82899   8.596   3.688   7.252  3.6978 -0.4273 -1.1054
  601MOL0     H82900   8.344   3.168   7.512 -3.5517 -0.8435  1.8525
  601MOL0     H82901   8.179   2.987   7.516  0.5320 -4.3496  1.4904
  601MOL0     H82902   8.153   2.686   7.172  1.0790 -2.1069 -0.1599
  601MOL0     H82903   8.281   2.649   7.280 -0.1494 -2.8606 -0.1191
  601MOL0     H82904   8.135   2.503   7.402 -1.5559 -4.0351 -0.6437
  601MOL0     H82905   7.992   2.579   7.338  0.7841 -0.7608  0.5892
  601MOL0     H82906   7.997   2.385   7.215  0.2808  0.9553 -2.3687
  601MOL0     H82907   8.173   2.373   7.217  2.9519  3.1689 -0.0751
  601MOL0     H82908   8.194   2.533   7.030 -0.4600  0.6995 -0.3144
  601MOL0     H82909   8.019   2.561   7.026 -0.9602 -0.1877 -0.8340
  601MOL0     H82910   8.136   2.431   6.859  1.9149  0.2722  1.5036
  601MOL0     H82911   8.167   2.294   6.957  1.0298  0.8919  0.0147
  601MOL0     H82912   7.913   2.423   6.850  1.2855  0.3623 -1.3722
  601MOL0     H82913   7.885   2.314   6.980 -1.8416  2.7707 -0.6952
  601MOL0     H82914   7.950   2.122   6.846 -3.8037 -0.0864  0.7491
  601MOL0     H82915   8.023   2.222   6.723  0.2929  0.1025  0.5173
  601MOL0     H82916   7.792   2.106   6.680 -1.8667  0.1320 -0.2342
  601MOL0     H82917   7.801   2.255   6.630 -3.9431 -4.0218 -1.6483
  601MOL0     H82918   8.319   2.834   7.139  2.4666 -1.1297  0.2907
  601MOL0     H82919   8.491   3.005   7.138  3.1444 -0.6969  2.9980
  601MOL0     H82920   8.765   3.210   7.325  2.1641 -0.4746 -2.7946
  601MOL0     H82921   8.998   3.313   7.355 -1.1655 -1.2991  0.3453
  601MOL0     H82922   9.890   3.872   7.739 -0.6449 -0.9406  0.7625
  601MOL0     H82923  10.005   3.711   7.622  1.7502 -0.0800 -3.2079
  601MOL0     H82924  10.052   3.637   6.954 -0.3090  1.2903 -0.1226
  601MOL0     H82925  10.248   3.542   6.838 -0.7237 -0.9936 -0.3552
  601MOL0     H82926  10.588   3.415   7.099  0.4561 -0.2028 -0.1082
  601MOL0     H82927  10.511   3.260   7.037  0.4646  0.7526  1.0149
  601MOL0     H82928  10.712   3.433   6.888  1.6806 -1.0099 -1.6313
  601MOL0     H82929  10.607   3.314   6.809 -1.3535  0.7769  1.1566
  601MOL0     H82930  10.709   3.160   7.003  4.3315 -0.9137  0.5099
  601MOL0     H82931  10.787   3.198   6.843  4.5975  0.3468  0.4082
  601MOL0     H82932  10.850   3.309   7.104 -0.8743  1.8005 -0.9503
  601MOL0     H82933  10.910   3.380   6.953  0.9039 -0.2619  0.5888
  601MOL0     H82934  11.168   3.051   6.966 -1.5005 -2.2935  1.8650
  601MOL0     H82935  10.433   3.463   7.215 -1.7134 -1.3477  1.5941
  601MOL0     H82936  10.354   3.528   7.419 -0.3660 -1.2011 -1.0675
  601MOL0     H82937  10.226   3.646   7.440  0.6428  0.2064  0.6482
  601MOL0     H82938  10.184   3.468   7.420  2.1309 -1.7054 -1.5517
  602MOL0     O82939   5.608   9.094   4.732 -0.0507  1.7624 -0.1249
  602MOL0     C82940   5.527   9.001   4.718  1.1301  0.0281 -0.2267
  602MOL0     O82941   5.539   8.892   4.648  0.4007  0.3172 -0.2645
  602MOL0     C82942   5.652   8.854   4.579  0.5052  0.3426 -0.0758
  602MOL0     C82943   5.780   8.900   4.601 -1.3031 -0.7687  0.7057
  602MOL0     C82944   5.884   8.845   4.522  0.3649  0.5422 -0.5374
  602MOL0     C82945   5.867   8.736   4.439  0.9085  0.1049  0.2406
  602MOL0     O82946   5.971   8.669   4.375  0.4870 -0.4288 -0.0241
  602MOL0     C82947   6.094   8.726   4.373  0.2142  0.1864 -0.0913
  602MOL0     C82948   6.178   8.652   4.272  0.2195  0.1828  0.1699
  602MOL0     C82949   6.181   8.495   4.294 -0.0180 -0.4884 -0.8466
  602MOL0     C82950   6.288   8.441   4.400  0.3898 -0.2545  0.1388
  602MOL0     C82951   6.327   8.306   4.369  0.2307  0.5625 -0.4692
  602MOL0     C82952   6.417   8.285   4.245 -0.9911 -1.0844 -0.1664
  602MOL0     C82953   6.417   8.145   4.190 -0.0367 -0.8224  0.2127
  602MOL0     C82954   6.548   8.078   4.220  0.2111  0.0658 -0.0258
  602MOL0     N82955   6.557   7.949   4.149 -0.4160  0.6081  0.1096
  602MOL0     C82956   6.619   7.829   4.204  0.4539 -0.2878  0.5499
  602MOL0     C82957   6.642   7.743   4.094 -0.2028 -0.1263 -0.0938
  602MOL0     C82958   6.702   7.606   4.099 -0.8381 -0.8932  0.2460
  602MOL0     C82959   6.849   7.598   4.053 -0.4700 -0.8730 -0.2123
  602MOL0     C82960   6.869   7.492   3.951 -0.1797  1.0437  0.2509
  602MOL0     C82961   6.837   7.535   3.803 -0.1864 -0.0813  0.3279
  602MOL0     O82962   6.917   7.471   3.703 -0.6502 -0.1653 -0.2591
  602MOL0     C82963   6.893   7.501   3.576  0.2293 -0.3511  0.3779
  602MOL0     C82964   6.779   7.568   3.522 -0.4692 -0.6852  1.5588
  602MOL0     C82965   6.776   7.591   3.385  0.0199  0.1193  0.9769
  602MOL0     C82966   6.657   7.674   3.347  0.8772 -0.2865 -0.9631
  602MOL0     C82967   6.879   7.554   3.301  0.1708 -0.4226 -0.4312
  602MOL0     C82968   6.882   7.587   3.157  0.5317  0.3090 -0.5882
  602MOL0     O82969   6.908   7.720   3.122 -1.0386 -0.4345 -0.4242
  602MOL0     C82970   6.900   7.755   2.988 -0.7997  0.2757 -0.4407
  602MOL0     C82971   6.775   7.748   2.922  0.0143 -0.3630  0.0775
  602MOL0     C82972   6.759   7.798   2.788 -0.2250 -0.0860  0.3755
  602MOL0     C82973   6.875   7.834   2.723 -0.4096 -0.1426  0.2670
  602MOL0     O82974   6.863   7.885   2.596 -0.1354 -0.6239 -0.2097
  602MOL0     C82975   6.939   7.817   2.492  0.7557  0.4888  0.3772
  602MOL0     C82976   6.916   7.663   2.480 -0.0632 -0.2579 -0.0739
  602MOL0     C82977   6.927   7.602   2.343  0.1548  0.7518  0.1419
  602MOL0     C82978   6.798   7.617   2.250 -0.4872  1.0147  0.0368
  602MOL0     C82979   6.812   7.614   2.101 -0.6991 -0.4520 -0.3802
  602MOL0     C82980   6.904   7.511   2.038  0.2501  0.0531 -1.1590
  602MOL0     C82981   6.843   7.371   2.021 -0.2584 -0.3185  0.9060
  602MOL0     C82982   6.717   7.367   1.934 -0.7347 -0.6233 -0.7481
  602MOL0    Cl82983   6.688   7.197   1.910  0.3936  0.3713 -0.3427
  602MOL0     C82984   7.004   7.833   2.795  0.9626  0.1209  0.1325
  602MOL0     C82985   7.011   7.791   2.927  0.6551 -0.6452 -1.2586
  602MOL0     O82986   6.886   7.493   3.075  0.3312  0.3447 -0.0743
  602MOL0     C82987   6.990   7.492   3.355 -0.4518 -0.3273 -1.3303
  602MOL0     C82988   7.004   7.458   3.491 -0.0825 -0.4353 -0.5328
  602MOL0     N82989   6.600   7.808   3.981  0.2582 -0.7341 -1.2482
  602MOL0     N82990   6.570   7.936   4.011 -0.9030  0.3069 -0.3259
  602MOL0     C82991   5.747   8.671   4.436  0.0400  0.1702 -0.2193
  602MOL0     C82992   5.632   8.731   4.503 -0.8308  0.6112 -0.8063
  602MOL0     C82993   5.375   9.029   4.766 -1.4266 -0.2722  0.0830
  602MOL0     C82994   5.276   8.965   4.682  0.6582 -0.2718 -0.1067
  602MOL0     C82995   5.139   8.980   4.705 -0.4562 -0.2500  0.6369
  602MOL0     C82996   5.084   9.069   4.801 -0.5877 -0.5902  0.4340
  602MOL0     O82997   4.961   9.078   4.840  0.0165  0.6579 -0.9542
  602MOL0     C82998   4.860   8.999   4.769  0.5971  0.3660  0.1333
  602MOL0     C82999   4.727   9.065   4.802  0.1202  0.7312 -0.7899
  602MOL0     C83000   4.618   9.039   4.697  1.0262  0.3822 -0.2172
  602MOL0     C83001   4.500   9.134   4.723  0.5865 -0.5319 -0.2127
  602MOL0     C83002   4.382   9.089   4.651  1.2867 -0.3131  0.7169
  602MOL0     C83003   4.295   9.050   4.569 -0.5844  0.0453 -1.2177
  602MOL0     C83004   5.186   9.129   4.878  0.5622 -0.9397 -0.2659
  602MOL0     C83005   5.323   9.117   4.856 -0.1705 -0.7064  0.1400
  602MOL0     C83006   5.406   9.219   4.931 -0.6023 -1.2342  0.1374
  602MOL0     H83007   5.803   8.977   4.675 -2.7620  0.2839  0.1018
  602MOL0     H83008   5.981   8.891   4.540 -0.2460  1.9611 -0.7428
  602MOL0     H83009   6.141   8.721   4.472  0.2359 -0.4368 -0.1273
  602MOL0     H83010   6.084   8.833   4.356  2.0300  0.4887  0.5188
  602MOL0     H83011   6.135   8.664   4.172  2.9502  2.5814 -0.8753
  602MOL0     H83012   6.282   8.686   4.267  0.9375 -1.8875  0.2554
  602MOL0     H83013   6.082   8.455   4.316 -1.6833  3.3361 -0.5326
  602MOL0     H83014   6.210   8.448   4.199  1.5923  1.3331 -1.3225
  602MOL0     H83015   6.382   8.496   4.406  0.8361 -0.9912  0.0976
  602MOL0     H83016   6.237   8.437   4.497  0.7239  0.0539  0.3258
  602MOL0     H83017   6.237   8.247   4.355  1.6889 -1.7084 -0.7854
  602MOL0     H83018   6.381   8.262   4.453 -2.5062 -5.0741 -1.2283
  602MOL0     H83019   6.377   8.345   4.162  1.7087 -0.9761 -1.4988
  602MOL0     H83020   6.519   8.318   4.268  0.0318 -2.3955 -2.4887
  602MOL0     H83021   6.407   8.155   4.082 -1.3409 -0.2733  0.3579
  602MOL0     H83022   6.335   8.076   4.214  1.0595 -2.8504 -1.6339
  602MOL0     H83023   6.624   8.139   4.170  0.9875 -1.6096 -0.9674
  602MOL0     H83024   6.560   8.064   4.328 -1.4623 -0.9225  0.0559
  602MOL0     H83025   6.674   7.824   4.297  0.5789  0.0853  0.4971
  602MOL0     H83026   6.645   7.538   4.036  0.1220 -1.0701 -0.4560
  602MOL0     H83027   6.709   7.557   4.197 -1.9707 -2.2624 -0.3270
  602MOL0     H83028   6.886   7.690   4.006 -3.4764  0.1592 -0.7797
  602MOL0     H83029   6.923   7.572   4.130  4.1332  1.1902 -3.4442
  602MOL0     H83030   6.978   7.478   3.946 -0.0351  2.3938 -1.2009
  602MOL0     H83031   6.816   7.401   3.981  3.5050 -1.8992 -1.2812
  602MOL0     H83032   6.738   7.499   3.774  0.3700 -0.6071 -0.9817
  602MOL0     H83033   6.827   7.644   3.797 -2.0149 -0.1504  1.3906
  602MOL0     H83034   6.685   7.582   3.575 -3.1152 -2.4778 -2.2557
  602MOL0     H83035   6.575   7.605   3.326 -0.7798  1.8849 -1.9458
  602MOL0     H83036   6.684   7.745   3.268  1.4365 -0.4218 -0.8984
  602MOL0     H83037   6.625   7.728   3.436 -2.6081 -4.3668  0.6138
  602MOL0     H83038   6.689   7.711   2.976 -0.2171 -1.0895 -0.7577
  602MOL0     H83039   6.662   7.794   2.740 -0.8094 -2.8163  1.5871
  602MOL0     H83040   6.916   7.863   2.395  0.3313 -0.2382  0.1244
  602MOL0     H83041   7.047   7.834   2.501  0.8079  0.2685  0.1825
  602MOL0     H83042   6.979   7.616   2.557 -2.1536 -0.4023  1.6479
  602MOL0     H83043   6.814   7.638   2.508 -0.2221 -1.3744 -1.5635
  602MOL0     H83044   6.944   7.496   2.362  0.6020  0.6319 -0.8548
  602MOL0     H83045   7.018   7.646   2.300  1.8688 -1.3761  1.4199
  602MOL0     H83046   6.742   7.708   2.274  0.3209  1.3589  0.6709
  602MOL0     H83047   6.737   7.528   2.268  1.5557 -1.1657 -2.9309
  602MOL0     H83048   6.707   7.605   2.072 -1.2082  1.1136  0.8296
  602MOL0     H83049   6.851   7.708   2.060 -1.0797 -0.7711 -1.5080
  602MOL0     H83050   6.997   7.499   2.095 -0.6436 -0.2195  0.2731
  602MOL0     H83051   6.923   7.552   1.939 -1.5455  1.4525 -0.9599
  602MOL0     H83052   6.834   7.322   2.119  0.4419 -1.1338  0.5723
  602MOL0     H83053   6.914   7.317   1.958 -0.9232 -0.7610  0.5123
  602MOL0     H83054   6.731   7.413   1.836 -0.2428  0.5259 -0.1610
  602MOL0     H83055   6.633   7.410   1.990 -2.2320 -2.9464 -1.1020
  602MOL0     H83056   7.095   7.885   2.767  1.5246 -0.9323 -0.0476
  602MOL0     H83057   7.103   7.792   2.985  0.7249 -0.1539 -1.3703
  602MOL0     H83058   7.084   7.474   3.303  1.5715  0.8892  1.6321
  602MOL0     H83059   7.102   7.432   3.529  0.2241  3.1302  1.6150
  602MOL0     H83060   5.727   8.582   4.378  0.3151  0.0540 -0.1355
  602MOL0     H83061   5.534   8.686   4.491  0.1210 -1.1856 -2.3795
  602MOL0     H83062   5.299   8.902   4.597  0.8988 -0.2657 -0.0481
  602MOL0     H83063   5.073   8.913   4.649  0.1539 -0.8816  0.6616
  602MOL0     H83064   4.884   9.012   4.663 -1.0527 -2.4583 -0.6909
  602MOL0     H83065   4.862   8.892   4.791 -0.9967  0.6816  2.1367
  602MOL0     H83066   4.740   9.174   4.795  0.6605  0.7149 -0.1657
  602MOL0     H83067   4.690   9.043   4.903 -1.7190 -0.7691 -1.7245
  602MOL0     H83068   4.648   9.038   4.592  1.6021 -2.2607 -0.0823
  602MOL0     H83069   4.579   8.940   4.722 -0.6871  1.5889  2.4465
  602MOL0     H83070   4.521   9.234   4.683  1.8954 -0.1182  1.4034
  602MOL0     H83071   4.467   9.151   4.826 -1.7956 -0.7660 -0.8753
  602MOL0     H83072   4.221   9.016   4.499 -1.6433  1.0176 -0.6087
  602MOL0     H83073   5.153   9.194   4.958 -2.8193  1.5993 -3.3879
  602MOL0     H83074   5.353   9.312   4.955 -0.1287 -0.6193 -1.1184
  602MOL0     H83075   5.428   9.164   5.023  1.6428 -1.6080 -0.5803
  602MOL0     H83076   5.495   9.241   4.872  0.9459 -3.8218  1.3418
  603MOL0     O83077   9.842   7.055   8.602  0.6021  0.3342  0.2458
  603MOL0     C83078   9.853   7.167   8.655 -0.8778 -0.1214  0.2722
  603MOL0     O83079   9.763   7.271   8.633  0.1371  0.9789 -0.2577
  603MOL0     C83080   9.694   7.270   8.515  0.1096 -0.2078 -0.7962
  603MOL0     C83081   9.586   7.184   8.503 -0.1063  0.2786  0.5087
  603MOL0     C83082   9.497   7.195   8.386 -0.7679 -1.1598  0.5625
  603MOL0     C83083   9.524   7.304   8.296  0.2404  0.4128 -1.2462
  603MOL0     O83084   9.428   7.319   8.200 -0.3109 -0.0767  0.2516
  603MOL0     C83085   9.479   7.333   8.061 -0.5076  0.4758  0.8487
  603MOL0     C83086   9.522   7.199   7.994  0.2113 -0.2319 -0.6095
  603MOL0     C83087   9.397   7.096   7.994 -1.0089  0.0447  0.2479
  603MOL0     C83088   9.439   6.955   8.030 -1.1821 -0.5748  0.1481
  603MOL0     C83089   9.331   6.856   7.999  0.7521  0.3415 -0.1922
  603MOL0     C83090   9.264   6.821   8.129 -0.2234  1.0574  0.2796
  603MOL0     C83091   9.149   6.720   8.105 -0.0277 -0.5933 -0.3570
  603MOL0     C83092   9.018   6.797   8.095  0.2161  0.2448  0.2267
  603MOL0     N83093   9.015   6.893   7.982 -0.0603  0.5214  0.2203
  603MOL0     C83094   9.036   6.867   7.846  0.5391 -0.8365  0.9908
  603MOL0     C83095   9.026   6.995   7.789  0.1694 -0.7717  0.1407
  603MOL0     C83096   9.024   7.024   7.636 -0.1551  0.7639 -0.2541
  603MOL0     C83097   9.168   7.032   7.573  0.2760  0.1997 -0.4748
  603MOL0     C83098   9.237   7.159   7.624 -0.2659  0.4612  0.0320
  603MOL0     C83099   9.371   7.147   7.560 -0.2275 -0.5893 -0.6662
  603MOL0     O83100   9.381   7.135   7.417 -0.4747  0.1983  0.5170
  603MOL0     C83101   9.379   7.243   7.322 -0.2232 -0.4007 -0.3010
  603MOL0     C83102   9.440   7.219   7.202  0.2075 -0.1447 -0.0374
  603MOL0     C83103   9.436   7.311   7.096 -0.6302  0.1831  1.0327
  603MOL0     C83104   9.496   7.261   6.965 -0.1471  0.4445  0.0470
  603MOL0     C83105   9.373   7.438   7.105 -0.9739  0.0697 -0.2370
  603MOL0     C83106   9.365   7.544   7.006 -0.1670  0.0538 -0.1479
  603MOL0     O83107   9.282   7.651   7.047 -0.7392  0.0663  0.1454
  603MOL0     C83108   9.262   7.751   6.960 -0.7473 -0.1924 -0.6287
  603MOL0     C83109   9.310   7.877   7.001  0.9255  0.1449 -0.0030
  603MOL0     C83110   9.271   7.989   6.927  0.1413  0.0922 -0.4673
  603MOL0     C83111   9.186   7.974   6.816 -0.0812 -0.1435  1.8425
  603MOL0     O83112   9.154   8.082   6.736  0.3290 -0.4597  0.1986
  603MOL0     C83113   9.278   8.121   6.673 -0.0000 -1.0085  0.1579
  603MOL0     C83114   9.251   8.277   6.645  0.9675 -0.1246 -0.8002
  603MOL0     C83115   9.159   8.301   6.525 -0.5098 -0.0010 -1.1984
  603MOL0     C83116   9.115   8.442   6.521  0.0580 -0.0506 -0.1540
  603MOL0     C83117   9.098   8.478   6.375 -0.0248 -0.4611 -0.4529
  603MOL0     C83118   9.061   8.625   6.368  0.6105 -0.2454  0.7688
  603MOL0     C83119   9.005   8.686   6.237 -0.7651 -0.6992 -0.0858
  603MOL0     C83120   9.039   8.835   6.214 -0.2915 -0.7438 -0.3106
  603MOL0    Cl83121   9.223   8.871   6.225  0.3644  0.3930 -0.2965
  603MOL0     C83122   9.152   7.838   6.772  0.3363  0.7611 -0.1913
  603MOL0     C83123   9.189   7.727   6.847  1.1177 -0.5202 -0.4668
  603MOL0     O83124   9.433   7.540   6.908 -0.3905  0.0048  0.4693
  603MOL0     C83125   9.321   7.459   7.242 -0.6995  0.2255 -0.0419
  603MOL0     C83126   9.317   7.366   7.344 -0.1277 -0.4734 -0.4601
  603MOL0     N83127   9.021   7.083   7.893 -0.3798  0.4431 -1.3535
  603MOL0     N83128   9.000   7.023   8.006  0.0448 -0.8087 -0.1483
  603MOL0     C83129   9.630   7.395   8.320 -0.9101  0.0318 -0.5293
  603MOL0     C83130   9.720   7.368   8.424  0.3647  0.7350 -0.5857
  603MOL0     C83131   9.970   7.199   8.751  0.0920 -0.0565  0.4405
  603MOL0     C83132   9.967   7.323   8.816  0.0468  0.3988  0.3352
  603MOL0     C83133  10.075   7.365   8.899 -0.3865  0.8704 -0.0961
  603MOL0     C83134  10.182   7.278   8.921 -0.7304 -0.2060 -0.0223
  603MOL0     O83135  10.296   7.323   8.991  0.0295  0.3485  0.3206
  603MOL0     C83136  10.414   7.245   8.988  0.3002 -1.1370 -0.7181
  603MOL0     C83137  10.529   7.297   9.072  0.2795 -0.0812  0.3127
  603MOL0     C83138  10.484   7.333   9.218  0.9538  0.1989  0.2960
  603MOL0     C83139  10.588   7.396   9.304 -1.0118  0.5483  0.0839
  603MOL0     C83140  10.513   7.437   9.428  0.0115  0.2778 -0.1745
  603MOL0     C83141  10.463   7.477   9.518 -0.0023  0.4484  0.3280
  603MOL0     C83142  10.178   7.148   8.864  0.3173 -0.1007  0.9296
  603MOL0     C83143  10.074   7.109   8.783 -0.1103  0.5884 -0.7423
  603MOL0     C83144  10.073   6.966   8.738 -0.0862  1.4603 -0.3462
  603MOL0     H83145   9.562   7.103   8.571 -0.3608 -1.0272 -1.0827
  603MOL0     H83146   9.400   7.151   8.363 -0.2393 -1.6875 -0.7667
  603MOL0     H83147   9.548   7.418   8.059 -1.9772  1.8833 -4.3687
  603MOL0     H83148   9.402   7.375   7.996  0.4592  1.5677  0.3806
  603MOL0     H83149   9.545   7.200   7.887  2.4946  4.1586 -0.2587
  603MOL0     H83150   9.608   7.167   8.054  0.0236 -0.7233 -0.5951
  603MOL0     H83151   9.313   7.130   8.055 -0.6852  0.0177  0.7165
  603MOL0     H83152   9.374   7.098   7.887  4.2905 -0.9444 -1.1915
  603MOL0     H83153   9.523   6.920   7.970 -0.0893 -0.7585  1.7161
  603MOL0     H83154   9.462   6.945   8.137 -3.3891  0.3210  0.7794
  603MOL0     H83155   9.371   6.761   7.963 -0.7256  0.2836 -1.7870
  603MOL0     H83156   9.268   6.878   7.913 -0.6487 -0.4179  0.6027
  603MOL0     H83157   9.325   6.773   8.206 -1.8097 -1.5812  0.0256
  603MOL0     H83158   9.242   6.917   8.176 -0.1380  2.7349 -2.8050
  603MOL0     H83159   9.131   6.658   8.193  2.2699 -0.1692  0.4971
  603MOL0     H83160   9.166   6.646   8.025 -1.9298 -1.1804 -0.2502
  603MOL0     H83161   8.939   6.722   8.084  2.2985 -1.9459 -0.7839
  603MOL0     H83162   8.999   6.848   8.190  0.0234  0.4500  0.0785
  603MOL0     H83163   9.038   6.773   7.793 -1.4427  0.2368 -1.1569
  603MOL0     H83164   8.966   7.113   7.611  1.0705  1.2179 -1.6428
  603MOL0     H83165   8.964   6.946   7.588 -1.7133  1.3087  0.7486
  603MOL0     H83166   9.218   6.939   7.602 -1.8193 -0.5324  1.0761
  603MOL0     H83167   9.155   7.036   7.464  3.3998 -1.9818 -1.0500
  603MOL0     H83168   9.182   7.248   7.592  0.7681 -0.1710 -4.1155
  603MOL0     H83169   9.235   7.158   7.733  0.7356  4.1671  0.2317
  603MOL0     H83170   9.410   7.248   7.578 -2.8133  0.0402  2.1801
  603MOL0     H83171   9.444   7.082   7.610 -0.1538 -1.9573 -2.4636
  603MOL0     H83172   9.497   7.128   7.189 -0.4970 -0.3922 -1.6225
  603MOL0     H83173   9.528   7.157   6.957  1.8372  1.1485 -2.0395
  603MOL0     H83174   9.584   7.322   6.944 -0.8466  0.9171 -1.6965
  603MOL0     H83175   9.424   7.288   6.887  2.2494  1.2897 -1.9890
  603MOL0     H83176   9.355   7.891   7.099  1.1221 -0.6594  0.0314
  603MOL0     H83177   9.302   8.089   6.956  1.1876  0.9080 -3.8795
  603MOL0     H83178   9.364   8.117   6.741  0.7766 -3.9892 -0.8604
  603MOL0     H83179   9.307   8.065   6.584 -1.5567 -2.7656  0.6938
  603MOL0     H83180   9.219   8.335   6.732 -1.4094 -1.0100 -0.9971
  603MOL0     H83181   9.345   8.331   6.630  0.2616  0.9836 -1.3828
  603MOL0     H83182   9.075   8.232   6.526 -0.1576 -0.4378 -1.4677
  603MOL0     H83183   9.220   8.275   6.438 -1.5247 -0.7890 -1.6837
  603MOL0     H83184   9.187   8.517   6.556  1.8658 -0.4384 -2.7797
  603MOL0     H83185   9.020   8.452   6.574 -1.2157  1.2730 -2.5503
  603MOL0     H83186   9.192   8.468   6.320  0.7232 -0.3903  0.7729
  603MOL0     H83187   9.024   8.409   6.333  1.6746 -3.3057  0.9343
  603MOL0     H83188   9.151   8.682   6.394  0.9686  0.6778 -2.0938
  603MOL0     H83189   8.980   8.633   6.441 -0.6540  1.9007 -0.7866
  603MOL0     H83190   8.898   8.669   6.226 -1.3265  3.3316 -2.7642
  603MOL0     H83191   9.065   8.648   6.154  0.3596  2.5998 -0.9061
  603MOL0     H83192   8.983   8.897   6.285 -1.2482  2.1495 -3.3515
  603MOL0     H83193   8.991   8.870   6.123 -0.3062 -0.7235 -0.2946
  603MOL0     H83194   9.093   7.822   6.682 -2.3699  1.8057  1.2867
  603MOL0     H83195   9.150   7.628   6.824 -3.4480  1.0347 -0.4453
  603MOL0     H83196   9.282   7.560   7.251  2.1154  1.4596 -0.4925
  603MOL0     H83197   9.272   7.380   7.442  1.7252  2.8040  0.0428
  603MOL0     H83198   9.638   7.484   8.258 -1.8964 -0.9347 -2.0995
  603MOL0     H83199   9.798   7.442   8.442  2.3790 -1.4939  0.4025
  603MOL0     H83200   9.887   7.389   8.786 -0.8828 -1.4962 -1.6862
  603MOL0     H83201  10.069   7.466   8.937 -0.6305  0.7043  0.3177
  603MOL0     H83202  10.397   7.141   9.019 -2.2466 -0.9439 -1.2002
  603MOL0     H83203  10.440   7.253   8.882  0.5409  3.1510 -0.5061
  603MOL0     H83204  10.580   7.378   9.020  1.9084 -3.9545 -5.0823
  603MOL0     H83205  10.619   7.235   9.074  2.2217  2.5924  1.0950
  603MOL0     H83206  10.397   7.396   9.203 -2.5970 -4.5792 -2.0901
  603MOL0     H83207  10.450   7.243   9.271 -0.7061  0.9530  0.5500
  603MOL0     H83208  10.638   7.482   9.259  1.5303 -0.9340 -0.1155
  603MOL0     H83209  10.661   7.323   9.340  0.2590 -0.2168 -3.6620
  603MOL0     H83210  10.422   7.512   9.611  1.4541  1.5413  0.5991
  603MOL0     H83211  10.266   7.085   8.862  0.4623  0.1076  0.0777
  603MOL0     H83212  10.107   6.968   8.633  0.5810 -4.6105 -0.5716
  603MOL0     H83213  10.140   6.893   8.784 -0.7765  0.4644 -0.8801
  603MOL0     H83214   9.977   6.920   8.759  0.2710  0.3155 -1.1235
  604MOL0     O83215   0.640  10.942  11.467 -0.3703  0.5908  0.3156
  604MOL0     C83216   0.700  10.902  11.365  0.7682  0.0545 -0.2168
  604MOL0     O83217   0.798  10.808  11.373 -0.6733 -0.4743 -0.2298
  604MOL0     C83218   0.862  10.787  11.499  0.7039  0.3526  0.0354
  604MOL0     C83219   0.794  10.716  11.602  0.5051 -0.3601  0.2927
  604MOL0     C83220   0.862  10.705  11.720  0.1289 -0.1478  0.1092
  604MOL0     C83221   0.997  10.749  11.734  0.4576 -0.5381 -0.4357
  604MOL0     O83222   1.061  10.738  11.857  0.8189 -0.0549  0.1956
  604MOL0     C83223   0.985  10.708  11.977  0.2623  0.5220  0.3870
  604MOL0     C83224   1.046  10.759  12.106 -0.0989 -0.5684  0.2278
  604MOL0     C83225   1.165  10.668  12.142 -0.5175  0.0894 -0.5886
  604MOL0     C83226   1.206  10.719  12.295  0.5617 -0.4536  0.0317
  604MOL0     C83227   1.339  10.659  12.336 -0.9270 -0.3461  0.7251
  604MOL0     C83228   1.396  10.737  12.457  0.5936  0.5286 -0.4201
  604MOL0     C83229   1.302  10.718  12.572  0.8376  0.7192  0.0695
  604MOL0     C83230   1.358  10.784  12.694 -0.4600 -0.2294 -0.7854
  604MOL0     N83231   1.361  10.937  12.680  0.5902  0.3540 -0.0584
  604MOL0     C83232   1.256  11.019  12.647 -0.0187  0.8385  0.1172
  604MOL0     C83233   1.306  11.144  12.660  0.5133  0.2958  0.5018
  604MOL0     C83234   1.230  11.272  12.633  0.5570  0.0695  0.5627
  604MOL0     C83235   1.205  11.299  12.486  0.1677  0.3941 -0.5649
  604MOL0     C83236   1.241  11.439  12.434  0.4960  0.5359  1.0204
  604MOL0     C83237   1.394  11.476  12.463  0.4280  0.4210  0.0160
  604MOL0     O83238   1.411  11.594  12.393 -0.4402 -0.3413 -1.0671
  604MOL0     C83239   1.506  11.683  12.438 -0.7359  0.0776 -0.4176
  604MOL0     C83240   1.544  11.794  12.360 -0.6492  0.0491 -0.3647
  604MOL0     C83241   1.636  11.894  12.412  0.9512 -0.4364 -0.6282
  604MOL0     C83242   1.657  12.010  12.327 -0.2530 -1.0965  0.5891
  604MOL0     C83243   1.696  11.888  12.539 -0.1343 -0.0850 -0.3149
  604MOL0     C83244   1.793  11.993  12.596 -0.8063  0.6904  0.0111
  604MOL0     O83245   1.887  11.961  12.693  0.1238 -0.3435  0.2233
  604MOL0     C83246   1.934  12.070  12.769  0.2600  0.1815  0.6019
  604MOL0     C83247   1.858  12.136  12.862 -0.1171 -0.0225 -1.1379
  604MOL0     C83248   1.922  12.229  12.946 -0.1358  0.8219  1.0868
  604MOL0     C83249   2.040  12.294  12.899  0.7572  0.4725  0.1147
  604MOL0     O83250   2.115  12.367  12.986 -0.0738 -0.1770 -0.0120
  604MOL0     C83251   2.100  12.507  12.961 -0.6867  0.1145 -0.2685
  604MOL0     C83252   2.165  12.582  13.073 -0.2611  0.8053  1.0314
  604MOL0     C83253   2.321  12.565  13.084  0.1489 -0.4780 -0.0071
  604MOL0     C83254   2.399  12.680  13.140 -0.5040  0.3696  0.5282
  604MOL0     C83255   2.370  12.708  13.286  0.0204 -0.0526  0.1314
  604MOL0     C83256   2.433  12.857  13.314  0.4224  1.3925 -0.2860
  604MOL0     C83257   2.526  12.852  13.432  0.3243 -0.4787 -0.2738
  604MOL0     C83258   2.565  12.997  13.474 -0.4724  0.3956  0.0735
  604MOL0    Cl83259   2.622  12.994  13.645 -0.2879  0.4384  0.0394
  604MOL0     C83260   2.109  12.240  12.790  0.2886  0.6763  0.1787
  604MOL0     C83261   2.053  12.133  12.716 -0.2321  0.2675  0.7483
  604MOL0     O83262   1.783  12.104  12.546  0.3313 -0.2647 -0.0205
  604MOL0     C83263   1.668  11.767  12.605  0.1468  0.3353 -0.3048
  604MOL0     C83264   1.569  11.677  12.562  0.3316  0.1155  0.7255
  604MOL0     N83265   1.434  11.135  12.704  0.2080 -0.0686  0.5666
  604MOL0     N83266   1.465  11.013  12.719  0.3328  0.7680  0.7741
  604MOL0     C83267   1.061  10.808  11.632 -0.5619 -0.2037 -0.0869
  604MOL0     C83268   0.990  10.826  11.518  0.1833  0.6971 -0.9680
  604MOL0     C83269   0.657  10.946  11.225 -0.6046  0.2138 -0.4258
  604MOL0     C83270   0.735  10.887  11.120  0.0575  0.2726 -0.2898
  604MOL0     C83271   0.716  10.925  10.991  0.6508 -0.3193 -0.5393
  604MOL0     C83272   0.614  11.002  10.960  0.5629  0.3861  1.0923
  604MOL0     O83273   0.578  11.030  10.824 -0.9838 -0.3411  0.3256
  604MOL0     C83274   0.680  11.104  10.748  0.2991 -0.1114 -0.8100
  604MOL0     C83275   0.648  11.096  10.605  0.6544 -1.3625 -0.3541
  604MOL0     C83276   0.512  11.166  10.563 -0.5034 -0.3954 -0.5323
  604MOL0     C83277   0.492  11.213  10.414 -0.6397  0.6049 -0.0919
  604MOL0     C83278   0.601  11.298  10.376 -0.5756  0.1134 -0.5769
  604MOL0     C83279   0.699  11.360  10.324  0.6017 -0.3589  0.3660
  604MOL0     C83280   0.526  11.050  11.059 -0.3493 -0.2424  0.9308
  604MOL0     C83281   0.542  11.028  11.197  1.9336  0.2368 -1.7216
  604MOL0     C83282   0.461  11.099  11.300  0.4150 -0.0256  1.0683
  604MOL0     H83283   0.698  10.681  11.567  2.1693 -1.1431 -4.1968
  604MOL0     H83284   0.804  10.657  11.798 -0.5352 -1.1202 -0.9504
  604MOL0     H83285   0.987  10.600  11.994  0.0119  0.5982  0.9346
  604MOL0     H83286   0.880  10.739  11.971 -0.9846 -3.3821 -1.3786
  604MOL0     H83287   1.090  10.857  12.084 -0.3503  0.0170  2.1999
  604MOL0     H83288   0.973  10.776  12.186  0.0775  4.1095 -0.3094
  604MOL0     H83289   1.139  10.562  12.139 -2.3448  0.4268  1.1959
  604MOL0     H83290   1.249  10.690  12.075 -1.2064  0.6790 -1.2844
  604MOL0     H83291   1.208  10.828  12.296 -1.2772 -0.3783  1.2909
  604MOL0     H83292   1.121  10.697  12.361  1.3537  3.9579  2.9547
  604MOL0     H83293   1.411  10.660  12.254  0.9339 -2.3457  2.2112
  604MOL0     H83294   1.312  10.556  12.362  2.5968 -1.4962  0.3085
  604MOL0     H83295   1.500  10.713  12.477  0.0901  0.8413  3.1063
  604MOL0     H83296   1.397  10.839  12.416  1.0923  0.6537 -0.0941
  604MOL0     H83297   1.290  10.612  12.600  0.9312  0.8335  0.5557
  604MOL0     H83298   1.198  10.740  12.550  0.2547  0.3902  2.2382
  604MOL0     H83299   1.276  10.757  12.761 -0.3349  0.6211 -0.2685
  604MOL0     H83300   1.455  10.747  12.729  0.3064 -0.4267 -2.9068
  604MOL0     H83301   1.157  10.998  12.607  0.0300  0.8405 -0.0039
  604MOL0     H83302   1.261  11.365  12.681 -0.4249  0.4997  0.3938
  604MOL0     H83303   1.129  11.257  12.673 -0.9580  0.7116 -2.6745
  604MOL0     H83304   1.271  11.235  12.427  1.2624 -0.3508  1.3456
  604MOL0     H83305   1.100  11.272  12.472 -0.0509  0.9241  0.0027
  604MOL0     H83306   1.219  11.434  12.328 -2.7909  1.0034  1.5873
  604MOL0     H83307   1.182  11.513  12.489 -2.6981 -0.3909 -0.9129
  604MOL0     H83308   1.392  11.500  12.570 -1.0730 -0.9133  0.3395
  604MOL0     H83309   1.455  11.387  12.443 -2.6037 -1.8784  0.2005
  604MOL0     H83310   1.514  11.805  12.257  1.2178 -1.5055 -1.1271
  604MOL0     H83311   1.626  11.982  12.227 -0.4955 -0.8917  0.6076
  604MOL0     H83312   1.762  12.040  12.319 -0.4333 -0.8643 -1.2126
  604MOL0     H83313   1.590  12.092  12.351  0.5590  0.4412 -2.0804
  604MOL0     H83314   1.758  12.106  12.891  1.2300 -2.5267  1.4153
  604MOL0     H83315   1.873  12.254  13.040 -0.9487 -1.7168  1.4167
  604MOL0     H83316   2.140  12.530  12.862  0.7484  0.6826  0.4164
  604MOL0     H83317   1.995  12.537  12.974 -1.1857 -1.6082 -0.0950
  604MOL0     H83318   2.142  12.686  13.049  1.7715  0.7677 -1.4622
  604MOL0     H83319   2.117  12.544  13.164 -0.3834  1.8007  1.3973
  604MOL0     H83320   2.351  12.558  12.979  0.4256  2.9478 -0.2462
  604MOL0     H83321   2.343  12.476  13.144  2.2303 -0.6969 -1.0168
  604MOL0     H83322   2.366  12.768  13.085 -1.9387  0.3106  1.2440
  604MOL0     H83323   2.506  12.680  13.116 -0.4587  0.4578  0.7316
  604MOL0     H83324   2.265  12.715  13.318 -0.6005 -2.0708 -1.2642
  604MOL0     H83325   2.410  12.626  13.346  1.9553 -0.8302 -2.0719
  604MOL0     H83326   2.360  12.932  13.345  1.1358  0.6679  3.7168
  604MOL0     H83327   2.492  12.897  13.231  0.5637 -0.8359 -1.3321
  604MOL0     H83328   2.616  12.792  13.421  0.6615 -0.1374  0.5819
  604MOL0     H83329   2.466  12.820  13.518  1.5997  3.1799  2.1719
  604MOL0     H83330   2.482  13.066  13.458 -0.9976 -0.2585 -0.0623
  604MOL0     H83331   2.644  13.022  13.403  1.2826 -2.2124  0.9314
  604MOL0     H83332   2.211  12.267  12.765  0.0414  0.5998 -0.9502
  604MOL0     H83333   2.119  12.095  12.640 -1.6780 -0.8181 -0.0108
  604MOL0     H83334   1.718  11.735  12.696  0.3186  1.2894 -0.0560
  604MOL0     H83335   1.543  11.590  12.621 -2.7254 -0.0222 -0.6254
  604MOL0     H83336   1.168  10.826  11.633 -0.7426  1.7653 -3.7103
  604MOL0     H83337   1.031  10.879  11.433 -0.3858 -0.6473 -2.1330
  604MOL0     H83338   0.824  10.834  11.152 -0.2060  1.2745  2.4678
  604MOL0     H83339   0.781  10.877  10.917  0.3473 -1.0923 -0.3110
  604MOL0     H83340   0.687  11.205  10.788  1.7274 -0.1770 -0.8362
  604MOL0     H83341   0.776  11.055  10.767 -1.0733 -2.5458  0.2514
  604MOL0     H83342   0.651  10.992  10.570  0.6403 -2.0723  1.5972
  604MOL0     H83343   0.730  11.147  10.554  1.5694  1.0254  3.1506
  604MOL0     H83344   0.430  11.096  10.582 -0.3148  0.1823  3.2671
  604MOL0     H83345   0.495  11.255  10.625  3.1177 -1.6547  2.6033
  604MOL0     H83346   0.394  11.261  10.404 -0.7553  0.1780 -1.1255
  604MOL0     H83347   0.493  11.136  10.337  0.4944  0.9136 -0.4009
  604MOL0     H83348   0.787  11.404  10.281 -0.0493  1.1206  0.4851
  604MOL0     H83349   0.444  11.111  11.021  1.3366  0.8470 -1.1475
  604MOL0     H83350   0.526  11.157  11.365  1.0223 -1.1623  1.5015
  604MOL0     H83351   0.397  11.162  11.238 -0.0426 -1.7946 -0.3701
  604MOL0     H83352   0.400  11.028  11.358  2.2272 -3.4582 -0.8765
  605MOL0     O83353   3.515   2.532   4.274  0.1363  0.2793 -0.3841
  605MOL0     C83354   3.493   2.467   4.172 -0.5004 -0.3956 -0.9441
  605MOL0     O83355   3.379   2.396   4.149 -0.3478  0.4653  0.2434
  605MOL0     C83356   3.295   2.378   4.254  1.2865 -0.2215 -0.6371
  605MOL0     C83357   3.330   2.324   4.382  0.2595  1.4493  0.6349
  605MOL0     C83358   3.233   2.281   4.475 -0.0525  0.2217  0.8424
  605MOL0     C83359   3.095   2.282   4.445 -0.9649  0.1967  0.4889
  605MOL0     O83360   3.000   2.225   4.524 -0.7396 -0.2091  0.0032
  605MOL0     C83361   3.030   2.218   4.669 -0.9632 -0.7184 -0.3420
  605MOL0     C83362   2.902   2.188   4.741  0.0940 -0.1696  0.0301
  605MOL0     C83363   2.889   2.255   4.887  0.1131 -0.3867  0.0696
  605MOL0     C83364   2.760   2.201   4.944  0.5247  0.4434 -0.4819
  605MOL0     C83365   2.719   2.273   5.078  0.5873  0.2080  0.6396
  605MOL0     C83366   2.695   2.427   5.074  0.3242  0.0356  0.5519
  605MOL0     C83367   2.583   2.479   4.983  0.0209 -0.9801  0.2235
  605MOL0     C83368   2.444   2.415   4.999  0.5197  1.2737 -0.7652
  605MOL0     N83369   2.405   2.303   4.904 -0.2668 -0.5113  0.4144
  605MOL0     C83370   2.349   2.321   4.777 -0.3800  0.0149  0.3933
  605MOL0     C83371   2.299   2.203   4.740 -0.1316 -0.4209 -0.3772
  605MOL0     C83372   2.240   2.175   4.615  0.8387 -0.0012  0.2386
  605MOL0     C83373   2.147   2.288   4.552  0.8232 -0.2644  0.3454
  605MOL0     C83374   2.007   2.304   4.618  0.2102  0.9693 -1.1244
  605MOL0     C83375   1.930   2.433   4.577  0.1845 -0.1900  0.2941
  605MOL0     O83376   1.828   2.453   4.680 -1.2258 -0.7375 -0.5455
  605MOL0     C83377   1.726   2.360   4.689 -0.3357 -0.3459  0.2595
  605MOL0     C83378   1.671   2.309   4.569  0.0991  0.6963 -0.2461
  605MOL0     C83379   1.555   2.235   4.573  0.2176  0.1538 -0.1752
  605MOL0     C83380   1.499   2.201   4.439  1.1895 -0.8681 -0.6118
  605MOL0     C83381   1.493   2.200   4.699  0.4753  0.0368  0.2862
  605MOL0     C83382   1.363   2.123   4.711  0.5554 -0.2373  0.0950
  605MOL0     O83383   1.296   2.079   4.598  0.3725 -0.1202  0.1670
  605MOL0     C83384   1.178   1.998   4.625 -0.7103  0.2915  0.3653
  605MOL0     C83385   1.210   1.877   4.696 -0.0714 -1.3995 -0.6027
  605MOL0     C83386   1.111   1.792   4.718 -0.9009 -0.6894 -0.9532
  605MOL0     C83387   0.979   1.820   4.693 -0.1078 -0.7922  0.4588
  605MOL0     O83388   0.881   1.724   4.703 -0.3581  0.2503  0.4160
  605MOL0     C83389   0.869   1.632   4.815 -1.2444 -0.3461 -0.1125
  605MOL0     C83390   0.748   1.672   4.900  0.5483 -0.1754  0.0697
  605MOL0     C83391   0.713   1.566   5.005 -0.0953  0.2230 -0.4755
  605MOL0     C83392   0.566   1.594   5.055 -0.4902 -0.4319 -0.6126
  605MOL0     C83393   0.537   1.533   5.192 -0.1174 -0.0593  0.9348
  605MOL0     C83394   0.470   1.631   5.286 -0.4042  0.2401 -0.2494
  605MOL0     C83395   0.488   1.595   5.441  0.5993 -0.6170 -0.3618
  605MOL0     C83396   0.379   1.661   5.540  0.0484 -0.1077  0.2529
  605MOL0    Cl83397   0.211   1.605   5.499  0.1772 -0.0260  0.2846
  605MOL0     C83398   0.945   1.941   4.628 -1.2389  0.4277  0.2333
  605MOL0     C83399   1.043   2.029   4.593  0.8024 -0.0319 -0.2425
  605MOL0     O83400   1.329   2.094   4.827 -0.1175 -0.2431  0.1754
  605MOL0     C83401   1.557   2.246   4.815 -0.2594 -1.6986 -1.1830
  605MOL0     C83402   1.669   2.328   4.806 -0.0306 -0.0986 -1.2220
  605MOL0     N83403   2.328   2.116   4.836  0.3809  0.5144 -0.1552
  605MOL0     N83404   2.382   2.175   4.936  0.0602  0.3723 -0.4766
  605MOL0     C83405   3.066   2.325   4.310 -0.1214 -0.5216 -0.8405
  605MOL0     C83406   3.163   2.370   4.219 -0.5761 -0.0804  0.4305
  605MOL0     C83407   3.606   2.444   4.072  0.5232  0.2430  0.8027
  605MOL0     C83408   3.583   2.346   3.969  0.0875  0.4172 -0.1796
  605MOL0     C83409   3.679   2.327   3.873  0.1378  1.2214  0.5516
  605MOL0     C83410   3.799   2.394   3.876 -0.9179 -0.8111  0.1479
  605MOL0     O83411   3.879   2.366   3.769  0.1202 -0.6701  0.1383
  605MOL0     C83412   3.972   2.467   3.724 -0.3613  0.0875 -0.6155
  605MOL0     C83413   3.898   2.593   3.672 -0.3271 -0.4318  0.7612
  605MOL0     C83414   3.959   2.678   3.553  0.9614  0.6308 -0.6699
  605MOL0     C83415   3.861   2.792   3.524  0.0354 -0.3463  0.5465
  605MOL0     C83416   3.906   2.862   3.401  0.0765 -0.3408  1.0557
  605MOL0     C83417   3.936   2.915   3.299 -0.2631 -0.1462  0.0238
  605MOL0     C83418   3.820   2.482   3.984 -0.3636  0.3417 -0.2484
  605MOL0     C83419   3.726   2.510   4.084 -0.3539 -1.4611  0.0893
  605MOL0     C83420   3.751   2.629   4.170 -0.2614 -0.0909  0.1810
  605MOL0     H83421   3.435   2.329   4.409  0.4776  3.6927 -0.3807
  605MOL0     H83422   3.264   2.253   4.575  2.3123 -0.7113 -0.0812
  605MOL0     H83423   3.067   2.319   4.690  0.1498 -1.1993  0.0521
  605MOL0     H83424   3.103   2.144   4.702  0.7629  1.2610  0.5560
  605MOL0     H83425   2.831   2.238   4.674  0.8728 -0.8304 -1.3383
  605MOL0     H83426   2.881   2.081   4.755 -1.7948  0.2172  0.4311
  605MOL0     H83427   2.968   2.226   4.957 -0.4326 -0.7198  0.5555
  605MOL0     H83428   2.892   2.364   4.879 -0.2369 -0.2103  1.8276
  605MOL0     H83429   2.678   2.214   4.873  0.5728  1.1201 -0.4247
  605MOL0     H83430   2.772   2.094   4.964 -1.3327 -0.0178 -1.6029
  605MOL0     H83431   2.782   2.262   5.167 -2.0332  2.5467  2.9511
  605MOL0     H83432   2.627   2.219   5.101  0.9398 -0.7296 -0.0843
  605MOL0     H83433   2.695   2.447   5.181  0.7135 -2.2874  1.0470
  605MOL0     H83434   2.774   2.490   5.032  1.6022 -0.5752  1.9242
  605MOL0     H83435   2.595   2.454   4.877  0.9920  0.9896 -0.1708
  605MOL0     H83436   2.563   2.586   4.988 -1.3853 -1.2722  2.0582
  605MOL0     H83437   2.432   2.387   5.104 -1.6998  2.9350 -0.5115
  605MOL0     H83438   2.364   2.487   4.979 -2.1253  0.2176  4.3492
  605MOL0     H83439   2.351   2.401   4.704  4.9568 -0.1749 -0.0566
  605MOL0     H83440   2.196   2.075   4.624  0.7562  0.0650  0.5558
  605MOL0     H83441   2.317   2.161   4.538  2.2488  2.5997  1.0514
  605MOL0     H83442   2.192   2.387   4.550  1.5142 -0.4591  2.7749
  605MOL0     H83443   2.127   2.257   4.449 -0.6819 -2.6259  1.2639
  605MOL0     H83444   1.954   2.214   4.585  0.3509  0.4165  0.0942
  605MOL0     H83445   2.010   2.296   4.727 -4.7079  2.0919 -0.6568
  605MOL0     H83446   2.006   2.511   4.575  3.6981 -3.3343 -1.7185
  605MOL0     H83447   1.897   2.405   4.477  2.6334  0.5502 -0.7923
  605MOL0     H83448   1.717   2.336   4.475  0.0347 -0.8487 -0.7451
  605MOL0     H83449   1.538   2.281   4.375 -0.3804  0.5525  0.1218
  605MOL0     H83450   1.393   2.230   4.435  2.0676  3.1542  0.4360
  605MOL0     H83451   1.510   2.102   4.395  1.0879 -1.4560  0.6542
  605MOL0     H83452   1.315   1.865   4.722  0.7561  1.6904 -1.9917
  605MOL0     H83453   1.139   1.696   4.760  2.2604  0.2406 -0.6521
  605MOL0     H83454   0.875   1.530   4.777  0.2091 -0.1264 -0.5406
  605MOL0     H83455   0.961   1.654   4.869 -0.1692 -2.2750 -1.0514
  605MOL0     H83456   0.779   1.767   4.944 -0.7244 -0.6094  2.0177
  605MOL0     H83457   0.666   1.673   4.827  0.6815 -2.3916 -0.1688
  605MOL0     H83458   0.785   1.561   5.087  3.5150 -0.5193 -3.4278
  605MOL0     H83459   0.718   1.476   4.943  0.7878 -0.8706  1.0936
  605MOL0     H83460   0.481   1.551   5.001 -0.9161 -3.0701  1.8915
  605MOL0     H83461   0.554   1.702   5.058 -0.1235 -0.4047  1.1211
  605MOL0     H83462   0.465   1.454   5.172  0.2608  0.5145 -3.9991
  605MOL0     H83463   0.623   1.483   5.236 -0.1133 -2.1649 -1.2435
  605MOL0     H83464   0.365   1.625   5.258  0.2074 -2.7049 -2.4683
  605MOL0     H83465   0.505   1.733   5.267 -0.8065  0.8444  2.0306
  605MOL0     H83466   0.587   1.631   5.471  0.4256 -0.7999  0.4674
  605MOL0     H83467   0.468   1.489   5.460 -2.8198 -0.1562 -0.7746
  605MOL0     H83468   0.387   1.770   5.531  1.6027  0.1439  3.1991
  605MOL0     H83469   0.405   1.641   5.644 -0.7557  3.4920  1.2891
  605MOL0     H83470   0.845   1.962   4.593 -1.4080 -5.6231 -4.5807
  605MOL0     H83471   1.022   2.112   4.526 -2.0926 -0.2276  0.2961
  605MOL0     H83472   1.519   2.222   4.913  1.0716  1.1361  0.1494
  605MOL0     H83473   1.716   2.357   4.899  0.9213 -2.1010 -1.0421
  605MOL0     H83474   2.965   2.310   4.273 -0.0445 -2.3978 -0.4134
  605MOL0     H83475   3.123   2.395   4.121 -1.8137  0.4420  1.0496
  605MOL0     H83476   3.497   2.280   3.961 -1.3857  2.3018 -0.3397
  605MOL0     H83477   3.658   2.260   3.790  2.1281 -0.7225  1.5365
  605MOL0     H83478   4.037   2.503   3.803 -0.4270  0.9642 -0.9570
  605MOL0     H83479   4.044   2.434   3.649 -0.0804 -0.3769 -0.1475
  605MOL0     H83480   3.878   2.657   3.758 -0.4803 -1.6323  1.6441
  605MOL0     H83481   3.793   2.572   3.651 -1.1289 -0.1207  3.8961
  605MOL0     H83482   4.052   2.702   3.606  0.2418 -1.1988  1.5756
  605MOL0     H83483   3.984   2.617   3.466  1.1632  1.5004 -1.2335
  605MOL0     H83484   3.848   2.859   3.609 -0.5265 -0.0138  0.1973
  605MOL0     H83485   3.764   2.755   3.490 -0.1625 -1.7508  2.4281
  605MOL0     H83486   3.972   2.958   3.208  0.9283 -5.0395 -2.2058
  605MOL0     H83487   3.918   2.526   3.972  1.6865 -3.7621  0.0181
  605MOL0     H83488   3.666   2.694   4.147 -0.0860 -1.0091 -3.6243
  605MOL0     H83489   3.768   2.604   4.275  1.0603 -0.3244 -0.0734
  605MOL0     H83490   3.837   2.679   4.126 -1.0278  0.7477 -0.3935
  606MOL0     O83491   9.669   5.431   1.387  0.6898 -0.0021 -0.4869
  606MOL0     C83492   9.684   5.533   1.321 -0.6478  0.7639 -0.3005
  606MOL0     O83493   9.682   5.539   1.191 -0.1578 -0.3656  0.5437
  606MOL0     C83494   9.625   5.445   1.107 -0.5657  0.2213 -0.0404
  606MOL0     C83495   9.621   5.301   1.121  0.2107 -0.7561  0.3786
  606MOL0     C83496   9.560   5.217   1.023 -0.5827 -0.0993 -0.2534
  606MOL0     C83497   9.508   5.274   0.905 -0.0696  0.4669 -1.3828
  606MOL0     O83498   9.458   5.202   0.798 -0.1824  0.8241  0.2239
  606MOL0     C83499   9.463   5.059   0.818 -0.3549 -0.0727  0.7240
  606MOL0     C83500   9.444   4.987   0.687  0.0835 -0.7933 -0.1783
  606MOL0     C83501   9.526   5.034   0.566 -0.6669 -0.0345 -0.4612
  606MOL0     C83502   9.513   4.934   0.459  0.0463 -0.6699  0.9426
  606MOL0     C83503   9.508   5.004   0.316  0.0043 -0.3813 -0.1453
  606MOL0     C83504   9.470   4.905   0.207 -0.3386  0.8244  0.0362
  606MOL0     C83505   9.446   4.967   0.074 -0.0902 -1.7297 -1.0642
  606MOL0     C83506   9.428   4.856  -0.032 -0.1925  0.7360  0.6890
  606MOL0     N83507   9.360   4.913  -0.151  0.3954  0.1375 -0.4439
  606MOL0     C83508   9.244   4.875  -0.212 -0.1973  0.2126  0.9997
  606MOL0     C83509   9.235   4.949  -0.321 -0.0371  0.2311  0.2241
  606MOL0     C83510   9.125   4.938  -0.423 -0.1860 -0.3278  0.4583
  606MOL0     C83511   9.101   5.053  -0.518  0.4464  0.0788 -0.4653
  606MOL0     C83512   9.222   5.054  -0.620  0.7648 -0.1711  0.2532
  606MOL0     C83513   9.185   5.148  -0.736 -0.1138  0.3484 -0.5383
  606MOL0     O83514   9.065   5.118  -0.802 -0.3966 -0.2478  0.2199
  606MOL0     C83515   8.987   5.218  -0.849 -0.2073  0.3567  0.7469
  606MOL0     C83516   8.860   5.173  -0.855 -0.2193 -0.4401  0.1437
  606MOL0     C83517   8.755   5.263  -0.898  0.4085 -0.8659 -0.1619
  606MOL0     C83518   8.614   5.204  -0.901  0.3376 -0.0876 -0.5447
  606MOL0     C83519   8.788   5.397  -0.944 -0.2173  0.3743  0.7869
  606MOL0     C83520   8.692   5.511  -0.981 -0.3928 -0.1775 -0.2040
  606MOL0     O83521   8.570   5.533  -0.916 -0.2170 -0.2206 -0.6209
  606MOL0     C83522   8.493   5.641  -0.939  0.6902  0.0467  0.5377
  606MOL0     C83523   8.359   5.626  -0.958  0.6306  0.2564  0.0007
  606MOL0     C83524   8.267   5.734  -0.982 -0.9210  0.4994  0.0546
  606MOL0     C83525   8.320   5.866  -0.973 -0.5524  0.6791 -0.0492
  606MOL0     O83526   8.241   5.981  -0.999  0.1447  0.1162  0.4400
  606MOL0     C83527   8.103   5.949  -1.014  0.6941  0.2492 -0.3229
  606MOL0     C83528   8.026   5.922  -0.877 -0.1336 -1.1769 -0.8196
  606MOL0     C83529   7.892   5.875  -0.913  0.0117 -0.4328 -0.0264
  606MOL0     C83530   7.793   5.903  -0.793 -0.0387  0.8013 -1.1111
  606MOL0     C83531   7.659   5.854  -0.829 -0.5069 -0.3682 -0.8778
  606MOL0     C83532   7.551   5.920  -0.746 -0.2036 -0.0291  0.6709
  606MOL0     C83533   7.556   5.889  -0.595 -0.0668  0.3525  0.2073
  606MOL0     C83534   7.466   5.769  -0.565 -0.5376  0.0213  0.8010
  606MOL0    Cl83535   7.289   5.785  -0.574  0.3502 -0.1069  0.2987
  606MOL0     C83536   8.462   5.877  -0.941  0.0585 -0.2023  0.5452
  606MOL0     C83537   8.546   5.771  -0.935  0.3271  1.1312  1.0951
  606MOL0     O83538   8.744   5.583  -1.067  0.1539  1.0614 -0.3514
  606MOL0     C83539   8.926   5.433  -0.936  0.2721  0.0133 -0.0233
  606MOL0     C83540   9.025   5.348  -0.888  0.0571 -0.0647  0.5301
  606MOL0     N83541   9.338   5.039  -0.324 -0.0707 -0.2358 -0.5158
  606MOL0     N83542   9.417   5.005  -0.225 -0.0767 -1.0187 -0.1350
  606MOL0     C83543   9.515   5.413   0.889  0.3598  0.0733 -0.2208
  606MOL0     C83544   9.575   5.497   0.988 -0.0242  0.1469  1.2007
  606MOL0     C83545   9.715   5.665   1.392  0.5146 -0.7419 -0.6900
  606MOL0     C83546   9.742   5.776   1.309  0.2690 -0.3966  0.5582
  606MOL0     C83547   9.765   5.902   1.371 -0.0475 -0.0149 -0.5395
  606MOL0     C83548   9.738   5.926   1.515  1.0726  0.8173 -0.2513
  606MOL0     O83549   9.741   6.045   1.578  0.8518 -0.3640  0.1692
  606MOL0     C83550   9.747   6.165   1.491 -0.0536 -0.2017  0.1343
  606MOL0     C83551   9.893   6.211   1.472 -0.6743  0.6024  0.0528
  606MOL0     C83552   9.908   6.359   1.411  0.0354  0.5417  0.3563
  606MOL0     C83553  10.042   6.419   1.461  0.5779 -0.0390 -0.0539
  606MOL0     C83554  10.035   6.560   1.466  0.6954 -0.9804 -0.5242
  606MOL0     C83555  10.009   6.675   1.449 -0.9478 -1.4045  0.6858
  606MOL0     C83556   9.701   5.812   1.589  0.0592 -0.4273 -0.1974
  606MOL0     C83557   9.695   5.684   1.531 -0.1195  0.3075 -1.1823
  606MOL0     C83558   9.662   5.581   1.640 -0.1429  0.0345  0.8624
  606MOL0     H83559   9.676   5.253   1.202 -1.3588 -1.8622  0.8411
  606MOL0     H83560   9.570   5.112   1.051 -1.3209  0.4981  2.6371
  606MOL0     H83561   9.403   5.007   0.893 -1.8731 -1.2286 -1.2037
  606MOL0     H83562   9.564   5.025   0.845 -0.4661 -1.7820 -0.8245
  606MOL0     H83563   9.457   4.890   0.736 -1.7409 -0.1728  1.6512
  606MOL0     H83564   9.338   4.997   0.662  0.2897 -0.1339 -0.8376
  606MOL0     H83565   9.485   5.131   0.537 -0.7020  0.4525  1.1022
  606MOL0     H83566   9.628   5.039   0.606 -0.8275  0.0860 -0.0557
  606MOL0     H83567   9.602   4.871   0.464  3.1633  3.1083 -1.0941
  606MOL0     H83568   9.423   4.874   0.468  0.5038 -1.5676 -0.2155
  606MOL0     H83569   9.606   5.041   0.286 -0.5620 -0.7471 -2.6809
  606MOL0     H83570   9.426   5.077   0.312 -0.5476 -0.9690 -4.5581
  606MOL0     H83571   9.559   4.842   0.197 -1.6055 -0.7983 -2.0256
  606MOL0     H83572   9.391   4.843   0.250  2.6213 -1.6406  2.4126
  606MOL0     H83573   9.548   5.005   0.062 -0.0071 -2.1270 -1.6584
  606MOL0     H83574   9.369   5.043   0.084  1.5927  0.0702 -1.2251
  606MOL0     H83575   9.526   4.812  -0.050 -0.9541 -2.7465  3.8835
  606MOL0     H83576   9.364   4.777   0.010  0.7523 -0.0649  0.6546
  606MOL0     H83577   9.175   4.798  -0.176  0.9194 -0.6902  1.2614
  606MOL0     H83578   9.024   4.928  -0.382 -0.5308  2.1717  0.4252
  606MOL0     H83579   9.143   4.846  -0.479 -1.8332 -1.9480  2.4516
  606MOL0     H83580   9.006   5.030  -0.567  0.6615 -1.7562 -0.0890
  606MOL0     H83581   9.091   5.148  -0.466  0.1200  0.6706 -1.5757
  606MOL0     H83582   9.313   5.090  -0.572  1.5494 -1.8152  0.0695
  606MOL0     H83583   9.230   4.952  -0.660 -0.3555 -0.3075  0.3482
  606MOL0     H83584   9.193   5.250  -0.696  0.5787 -0.6066  1.9887
  606MOL0     H83585   9.272   5.120  -0.796 -0.4868  0.8168 -1.3090
  606MOL0     H83586   8.829   5.077  -0.817 -0.9682 -0.6737 -1.0190
  606MOL0     H83587   8.603   5.142  -0.991  1.8634 -0.5916 -0.4210
  606MOL0     H83588   8.543   5.287  -0.903 -0.1598 -0.4981 -0.3124
  606MOL0     H83589   8.599   5.137  -0.815 -0.3162 -2.4703 -2.4072
  606MOL0     H83590   8.328   5.522  -0.957  1.9911 -0.1886  2.3970
  606MOL0     H83591   8.162   5.705  -0.989 -1.1626  1.3396  0.0224
  606MOL0     H83592   8.072   6.039  -1.067 -1.6061 -0.1428  0.2469
  606MOL0     H83593   8.079   5.865  -1.079 -2.8076  0.1645  0.8290
  606MOL0     H83594   8.081   5.859  -0.807  1.4733  0.0756 -0.9060
  606MOL0     H83595   8.014   6.017  -0.826  1.9242 -3.0836  3.7211
  606MOL0     H83596   7.882   5.770  -0.942 -1.2192 -0.0441 -1.1057
  606MOL0     H83597   7.858   5.930  -1.001 -1.3723 -0.0734  0.6999
  606MOL0     H83598   7.794   6.007  -0.758  1.8760  0.2593  0.6372
  606MOL0     H83599   7.816   5.845  -0.703  0.4868  3.0769  0.3122
  606MOL0     H83600   7.631   5.878  -0.932 -0.0199 -3.2801 -1.7747
  606MOL0     H83601   7.666   5.745  -0.824  1.2206 -0.2655  3.9678
  606MOL0     H83602   7.458   5.881  -0.788 -0.1763 -1.0985  1.5953
  606MOL0     H83603   7.560   6.028  -0.767  3.8881 -0.1038  1.2517
  606MOL0     H83604   7.533   5.975  -0.532  0.3112  0.6574 -0.0666
  606MOL0     H83605   7.654   5.862  -0.555 -1.1926 -0.5155  2.6040
  606MOL0     H83606   7.489   5.720  -0.469 -0.5260  0.5874  1.0954
  606MOL0     H83607   7.491   5.692  -0.639 -2.7468 -0.3578  0.3843
  606MOL0     H83608   8.511   5.973  -0.932 -1.9543  1.4108 -3.3192
  606MOL0     H83609   8.654   5.775  -0.919  0.5430 -0.6917  0.3008
  606MOL0     H83610   8.955   5.531  -0.972 -3.4910  2.0507  1.8762
  606MOL0     H83611   9.131   5.370  -0.896  0.4732 -2.0628  0.0068
  606MOL0     H83612   9.473   5.458   0.799  0.5998 -2.0433 -1.4377
  606MOL0     H83613   9.591   5.602   0.968 -0.6076 -0.2148 -1.6890
  606MOL0     H83614   9.763   5.780   1.202 -0.3733 -0.1770  0.4386
  606MOL0     H83615   9.800   5.978   1.302 -2.6201 -1.4908 -3.7425
  606MOL0     H83616   9.708   6.150   1.390  0.8022  1.4243 -0.4663
  606MOL0     H83617   9.687   6.243   1.539  0.4097 -0.5584  1.3392
  606MOL0     H83618   9.959   6.152   1.408 -2.7271 -0.2637 -1.3763
  606MOL0     H83619   9.940   6.207   1.570  0.4020 -1.4572 -0.4867
  606MOL0     H83620   9.900   6.342   1.303  1.1717 -1.3226  0.5177
  606MOL0     H83621   9.823   6.423   1.437  0.6011  1.6965 -0.5378
  606MOL0     H83622  10.121   6.397   1.389 -0.2773 -0.1866 -0.9681
  606MOL0     H83623  10.060   6.383   1.563 -1.1865  2.3837  1.2256
  606MOL0     H83624   9.998   6.781   1.437  0.0952 -1.5007 -1.7622
  606MOL0     H83625   9.685   5.821   1.696  0.1155  1.1166 -0.3084
  606MOL0     H83626   9.677   5.607   1.746  2.8268  1.7019  0.1480
  606MOL0     H83627   9.556   5.566   1.623  0.3412 -1.6772 -1.0164
  606MOL0     H83628   9.710   5.484   1.623 -1.5249 -0.4616 -0.3949
  607MOL0     O83629   2.837   9.592  10.249 -0.4173  0.0039  0.0589
  607MOL0     C83630   2.775   9.672  10.330 -0.3575  0.7242  0.3809
  607MOL0     O83631   2.680   9.751  10.290  0.3123 -0.1316  0.3354
  607MOL0     C83632   2.656   9.779  10.157  0.6349  0.2322  0.4093
  607MOL0     C83633   2.697   9.899  10.095 -0.4672 -0.8095  0.2565
  607MOL0     C83634   2.670   9.928   9.963  1.2303  0.7038  0.6548
  607MOL0     C83635   2.596   9.833   9.888  0.2302  0.6335  0.0940
  607MOL0     O83636   2.558   9.870   9.759  1.1848  0.0589  0.0375
  607MOL0     C83637   2.550   9.763   9.668  0.3216  0.1869  0.8025
  607MOL0     C83638   2.586   9.816   9.526 -0.3643  0.0244 -0.8700
  607MOL0     C83639   2.707   9.902   9.533  0.0339 -0.5374  0.3459
  607MOL0     C83640   2.769   9.935   9.395 -0.4774 -0.2389  0.0243
  607MOL0     C83641   2.913   9.970   9.402  1.0444 -0.0689  0.1052
  607MOL0     C83642   2.970  10.089   9.481  0.0310 -0.0674 -0.1860
  607MOL0     C83643   3.114  10.118   9.458 -0.4834 -0.3142  0.2695
  607MOL0     C83644   3.138  10.263   9.410  0.3497 -1.0914  0.5843
  607MOL0     N83645   3.276  10.299   9.369 -0.3575 -0.8341  0.2916
  607MOL0     C83646   3.381  10.283   9.451 -0.8256  0.6904  0.7052
  607MOL0     C83647   3.491  10.307   9.367  0.6236  0.8217 -0.3623
  607MOL0     C83648   3.635  10.293   9.401 -0.3164  0.1938  0.4033
  607MOL0     C83649   3.672  10.145   9.425 -0.3663 -0.2813 -0.2897
  607MOL0     C83650   3.620  10.052   9.314  0.8901 -0.3920  0.1719
  607MOL0     C83651   3.722   9.931   9.310  0.6725 -0.2682  0.6794
  607MOL0     O83652   3.671   9.856   9.203  0.3613  0.1637  0.0783
  607MOL0     C83653   3.695   9.905   9.077  0.0889 -0.4657 -0.1466
  607MOL0     C83654   3.787  10.014   9.045  0.0988  0.1886  0.0563
  607MOL0     C83655   3.818  10.038   8.907  0.1992 -0.3915  0.3906
  607MOL0     C83656   3.928  10.138   8.895  0.2055  0.5148  0.2978
  607MOL0     C83657   3.766   9.967   8.795 -0.2164 -0.9957  0.2384
  607MOL0     C83658   3.801   9.981   8.649  0.9653 -0.0007 -0.1318
  607MOL0     O83659   3.736   9.892   8.552 -0.5132 -0.2474  0.2118
  607MOL0     C83660   3.743   9.911   8.421 -0.6213 -0.0774  0.6550
  607MOL0     C83661   3.713   9.800   8.337 -0.1110  0.4175  0.3347
  607MOL0     C83662   3.720   9.809   8.198 -0.0921 -0.3271  0.1682
  607MOL0     C83663   3.761   9.929   8.134 -0.7058 -0.2634 -0.2315
  607MOL0     O83664   3.786   9.944   8.002 -0.0423 -0.4127 -0.1195
  607MOL0     C83665   3.732   9.840   7.921 -0.2943  0.5230  1.3536
  607MOL0     C83666   3.764   9.898   7.783 -0.6781  1.1995  0.3605
  607MOL0     C83667   3.692   9.817   7.670  0.1440  0.2650 -0.0934
  607MOL0     C83668   3.707   9.883   7.532 -0.1032 -0.1773  0.0816
  607MOL0     C83669   3.675   9.797   7.406 -0.5792  0.1185 -0.9701
  607MOL0     C83670   3.710   9.866   7.268  0.0089  0.5449 -1.1513
  607MOL0     C83671   3.613   9.978   7.237 -0.7787  0.5188 -0.0670
  607MOL0     C83672   3.638  10.039   7.108  0.0242 -0.9232  0.0657
  607MOL0    Cl83673   3.798  10.128   7.119  0.0012 -0.2243  0.0661
  607MOL0     C83674   3.792  10.039   8.215 -0.4797  0.0037 -0.9143
  607MOL0     C83675   3.780  10.029   8.358 -0.6476 -0.6539 -0.5159
  607MOL0     O83676   3.893  10.057   8.617 -0.1034 -0.1556  0.1170
  607MOL0     C83677   3.668   9.876   8.831  0.2844 -0.8437  0.4548
  607MOL0     C83678   3.632   9.842   8.961 -0.6034 -0.0600  0.2160
  607MOL0     N83679   3.435  10.346   9.248  0.5735 -0.0904  0.5176
  607MOL0     N83680   3.306  10.330   9.240  0.5043 -0.3510 -0.7145
  607MOL0     C83681   2.549   9.718   9.950 -0.3699 -1.1089  0.5912
  607MOL0     C83682   2.582   9.689  10.081 -0.0120  0.0625  0.8476
  607MOL0     C83683   2.806   9.661  10.469  0.0716 -0.0092 -0.4966
  607MOL0     C83684   2.701   9.665  10.565  0.4872  0.1645  1.2600
  607MOL0     C83685   2.724   9.642  10.707  1.3065  0.0176 -0.2664
  607MOL0     C83686   2.851   9.638  10.752 -0.3497 -0.1007 -0.6940
  607MOL0     O83687   2.872   9.646  10.891  0.5351  0.0650  0.3196
  607MOL0     C83688   2.935   9.766  10.930  0.6835 -0.1951 -0.8067
  607MOL0     C83689   2.839   9.875  10.973  0.0757 -0.4316 -0.1449
  607MOL0     C83690   2.759   9.951  10.861  1.3283  0.2576  0.0288
  607MOL0     C83691   2.653  10.034  10.933  0.2755  0.0720  0.4658
  607MOL0     C83692   2.608  10.139  10.850  0.0841 -0.1845 -0.8950
  607MOL0     C83693   2.539  10.234  10.808  0.6373  0.3256  0.4798
  607MOL0     C83694   2.965   9.629  10.664 -0.0729 -0.6019  0.4538
  607MOL0     C83695   2.941   9.635  10.523 -0.2200 -0.5895 -1.2071
  607MOL0     C83696   3.060   9.622  10.434  1.0630 -0.1760  0.2641
  607MOL0     H83697   2.749   9.975  10.153  0.0818  1.0767 -2.4896
  607MOL0     H83698   2.708  10.016   9.912 -1.2707  0.6399 -1.4942
  607MOL0     H83699   2.447   9.727   9.659  0.6028 -0.2149 -1.2575
  607MOL0     H83700   2.629   9.696   9.704  1.8166  3.4326  4.1801
  607MOL0     H83701   2.597   9.730   9.460  1.6700 -0.5782  0.1653
  607MOL0     H83702   2.503   9.882   9.501 -0.7916  0.1220  0.6852
  607MOL0     H83703   2.692   9.996   9.586  2.2012 -0.8060  1.5804
  607MOL0     H83704   2.778   9.839   9.587  1.8753  0.5356 -0.7106
  607MOL0     H83705   2.745   9.842   9.343 -0.6760 -1.8810  2.8619
  607MOL0     H83706   2.717  10.021   9.352 -0.3989  0.6502  1.6573
  607MOL0     H83707   2.948   9.998   9.302  2.8153  2.3223  1.2743
  607MOL0     H83708   2.955   9.873   9.429 -5.0321 -2.7209  1.5620
  607MOL0     H83709   2.905  10.174   9.459  1.1434  1.6048  2.5206
  607MOL0     H83710   2.951  10.073   9.588  1.0085 -0.7880 -0.0998
  607MOL0     H83711   3.165  10.047   9.392  0.8822  0.2417  0.6806
  607MOL0     H83712   3.159  10.099   9.556 -4.5986  1.8975  2.8982
  607MOL0     H83713   3.061  10.282   9.334 -2.1978 -1.3675  2.9324
  607MOL0     H83714   3.108  10.321   9.497 -2.0137 -2.9431  1.1054
  607MOL0     H83715   3.377  10.243   9.552 -0.5099 -0.2997  0.3381
  607MOL0     H83716   3.665  10.345   9.493 -2.6447  0.9793  0.7663
  607MOL0     H83717   3.687  10.338   9.316 -3.3894  0.7957 -1.2942
  607MOL0     H83718   3.781  10.136   9.432 -0.4910 -4.0049 -1.0963
  607MOL0     H83719   3.639  10.114   9.525 -3.1457 -3.0580 -1.8867
  607MOL0     H83720   3.518  10.016   9.325 -0.2649  2.4490 -0.4070
  607MOL0     H83721   3.621  10.106   9.219  1.8468  0.0099  0.3989
  607MOL0     H83722   3.829   9.956   9.307  1.8622 -4.4535  1.2965
  607MOL0     H83723   3.714   9.869   9.400 -0.1580 -0.1870  0.6646
  607MOL0     H83724   3.840  10.075   9.118  2.7006  3.4271 -4.0614
  607MOL0     H83725   3.975  10.158   8.992 -0.4614  1.2238  0.4786
  607MOL0     H83726   3.876  10.226   8.855  0.6119 -0.1272 -1.7519
  607MOL0     H83727   4.011  10.109   8.830  2.1311  2.8631  1.5436
  607MOL0     H83728   3.685   9.710   8.391 -0.1634 -1.0018 -1.9388
  607MOL0     H83729   3.697   9.723   8.136 -1.8934 -0.6545  1.2217
  607MOL0     H83730   3.785   9.745   7.938  1.1438  1.2273  0.9974
  607MOL0     H83731   3.624   9.828   7.933 -0.5697  1.8582  0.3673
  607MOL0     H83732   3.744  10.005   7.774  1.8948  1.7846  0.6878
  607MOL0     H83733   3.872   9.889   7.768 -0.7378  0.7694  0.1506
  607MOL0     H83734   3.585   9.816   7.693  0.5118  0.2799  1.7702
  607MOL0     H83735   3.731   9.715   7.662 -0.5807  0.0390 -0.8214
  607MOL0     H83736   3.804   9.934   7.532  0.0395 -0.4400 -0.6218
  607MOL0     H83737   3.637   9.967   7.541 -0.2134 -0.2465 -0.1243
  607MOL0     H83738   3.731   9.706   7.429 -2.0420 -0.6831 -0.4711
  607MOL0     H83739   3.567   9.786   7.414 -0.7099  1.0883 -1.2597
  607MOL0     H83740   3.693   9.794   7.187 -4.2460  1.1833 -1.0305
  607MOL0     H83741   3.810   9.910   7.269 -0.7933  2.5458 -2.8455
  607MOL0     H83742   3.610  10.055   7.315 -4.5723  1.3813 -0.8712
  607MOL0     H83743   3.512   9.940   7.225 -0.6875  1.0154 -2.9684
  607MOL0     H83744   3.554  10.107   7.092 -0.0822 -0.6400  1.6548
  607MOL0     H83745   3.643   9.958   7.035 -0.2093 -1.0776  0.2199
  607MOL0     H83746   3.807  10.136   8.169 -1.9469  2.3296  2.9750
  607MOL0     H83747   3.789  10.132   8.392 -0.0211 -0.0927 -2.2660
  607MOL0     H83748   3.612   9.821   8.756 -2.4504  0.8486  1.0702
  607MOL0     H83749   3.572   9.755   8.986  0.2293  0.0875  3.1804
  607MOL0     H83750   2.488   9.643   9.902  2.2978 -1.1832 -3.0773
  607MOL0     H83751   2.555   9.600  10.136 -1.5957  0.0566  0.1152
  607MOL0     H83752   2.601   9.686  10.528  1.2500  1.0529 -0.3685
  607MOL0     H83753   2.640   9.650  10.776 -2.9615  0.8168 -4.9055
  607MOL0     H83754   2.991   9.745  11.021 -0.7100  1.9166  0.6253
  607MOL0     H83755   3.013   9.797  10.860 -0.2388  1.2428 -1.2552
  607MOL0     H83756   2.904   9.950  11.017  0.6729 -1.0525  0.0544
  607MOL0     H83757   2.757   9.840  11.037 -3.4009 -1.5809 -4.6500
  607MOL0     H83758   2.829  10.021  10.814  3.2454 -2.0527 -0.7543
  607MOL0     H83759   2.711   9.897  10.779  0.2317  2.3985 -0.8146
  607MOL0     H83760   2.692  10.082  11.023  4.2966  3.3521 -2.6220
  607MOL0     H83761   2.568   9.974  10.965  0.1351 -0.6666 -1.2151
  607MOL0     H83762   2.461  10.295  10.767 -0.5844 -1.5674 -0.1613
  607MOL0     H83763   3.062   9.611  10.707  0.5686  0.9213 -0.2651
  607MOL0     H83764   3.062   9.713  10.373 -2.1177 -0.5357 -0.5612
  607MOL0     H83765   3.157   9.605  10.483 -0.1271 -1.5970  2.2801
  607MOL0     H83766   3.040   9.528  10.382  4.6376 -0.6995 -0.4734
  608MOL0     O83767   6.060   3.945  10.779  0.5371  0.2106  0.3208
  608MOL0     C83768   6.086   3.851  10.853  0.8398 -0.0975 -0.5561
  608MOL0     O83769   6.113   3.716  10.815  0.2383  0.3865  0.1925
  608MOL0     C83770   6.051   3.672  10.703  0.5723 -0.2602 -0.0549
  608MOL0     C83771   5.916   3.701  10.664  1.3191 -0.7405  0.6680
  608MOL0     C83772   5.867   3.658  10.540  0.8749  0.5178  0.6651
  608MOL0     C83773   5.942   3.570  10.461  0.5377  0.6871  0.1582
  608MOL0     O83774   5.892   3.501  10.358 -0.1933  0.1502  0.6097
  608MOL0     C83775   5.829   3.578  10.259 -0.4048 -0.0991  0.4339
  608MOL0     C83776   5.678   3.542  10.246  0.9349  0.5435 -0.7306
  608MOL0     C83777   5.590   3.615  10.141 -0.3652 -0.5965  0.0687
  608MOL0     C83778   5.468   3.538  10.117  0.5579 -0.3396  0.5667
  608MOL0     C83779   5.364   3.595  10.025  0.2124 -0.4433 -0.1995
  608MOL0     C83780   5.407   3.620   9.882 -0.0037  0.2836 -0.5867
  608MOL0     C83781   5.310   3.722   9.817  0.6153  0.4503  0.0106
  608MOL0     C83782   5.357   3.750   9.670  0.1545  0.6347 -0.0839
  608MOL0     N83783   5.444   3.648   9.610  0.0843  0.4305  0.1314
  608MOL0     C83784   5.579   3.633   9.628  1.3505 -0.7304  0.0745
  608MOL0     C83785   5.613   3.515   9.574  0.4380  0.1007  0.1720
  608MOL0     C83786   5.738   3.437   9.568  0.0313 -0.7152 -0.4984
  608MOL0     C83787   5.784   3.393   9.710  0.5276 -0.3943 -0.2944
  608MOL0     C83788   5.690   3.295   9.769 -0.4171  0.2958  0.6803
  608MOL0     C83789   5.741   3.272   9.908  0.4712  0.2832  1.1797
  608MOL0     O83790   5.857   3.187   9.899  1.1721 -0.0976 -0.5854
  608MOL0     C83791   5.946   3.195  10.002  0.0991  1.0081 -0.8875
  608MOL0     C83792   6.065   3.133   9.966 -1.0830 -0.2191  1.1838
  608MOL0     C83793   6.182   3.121  10.050  0.4743 -0.3817 -1.1086
  608MOL0     C83794   6.296   3.034  10.006  0.7571 -0.6248 -0.5349
  608MOL0     C83795   6.157   3.168  10.186 -0.6999 -0.8542  0.9283
  608MOL0     C83796   6.252   3.149  10.300  0.7171 -0.3139  0.6974
  608MOL0     O83797   6.257   3.260  10.391 -0.0288  0.3630  0.7683
  608MOL0     C83798   6.348   3.258  10.493 -1.0036 -0.4025  0.0171
  608MOL0     C83799   6.366   3.145  10.575 -0.2151 -0.7983 -1.0270
  608MOL0     C83800   6.451   3.159  10.686  0.9792  1.2324 -0.7253
  608MOL0     C83801   6.542   3.261  10.699  0.0168  0.1003 -0.6387
  608MOL0     O83802   6.636   3.262  10.801  0.4087 -0.0980 -1.0687
  608MOL0     C83803   6.719   3.139  10.797  0.5466  0.0301  0.2450
  608MOL0     C83804   6.823   3.140  10.906  0.0681  0.6484 -0.2434
  608MOL0     C83805   6.910   3.006  10.901  0.2989  0.2576  0.2699
  608MOL0     C83806   7.019   3.005  11.005 -0.6000  0.0671  0.3030
  608MOL0     C83807   7.071   2.861  11.039 -0.4633  0.0357  1.2377
  608MOL0     C83808   7.132   2.789  10.913 -0.3935 -0.8451 -0.5018
  608MOL0     C83809   7.244   2.870  10.834 -0.8219  0.3356  0.9957
  608MOL0     C83810   7.364   2.926  10.917 -0.1429 -0.1099 -0.1811
  608MOL0    Cl83811   7.409   2.794  11.022  0.1150 -0.4857 -0.0893
  608MOL0     C83812   6.524   3.373  10.623 -0.2947 -0.5291  0.6333
  608MOL0     C83813   6.433   3.368  10.522 -0.1844  0.2891  0.0605
  608MOL0     O83814   6.298   3.037  10.318  0.0951 -0.3621 -0.6089
  608MOL0     C83815   6.034   3.227  10.220 -0.4006  0.2925 -0.8547
  608MOL0     C83816   5.924   3.243  10.137  0.3814  0.0391 -0.2099
  608MOL0     N83817   5.506   3.475   9.504  0.5477 -0.6251  0.3645
  608MOL0     N83818   5.402   3.557   9.519 -0.1509 -0.4965  0.0567
  608MOL0     C83819   6.065   3.536  10.491 -0.4017  0.2293 -0.3522
  608MOL0     C83820   6.124   3.589  10.612  0.9038 -0.9482  0.4217
  608MOL0     C83821   6.114   3.875  11.002 -0.2378 -0.2095  0.3803
  608MOL0     C83822   6.248   3.849  11.049  0.1316  0.7866 -0.3699
  608MOL0     C83823   6.292   3.887  11.177  0.2219  0.5847 -0.2658
  608MOL0     C83824   6.207   3.945  11.268  0.8161  0.5337 -0.0514
  608MOL0     O83825   6.264   3.993  11.385 -0.9449 -0.6503  0.2400
  608MOL0     C83826   6.217   4.119  11.437  0.4623  0.0971 -0.8896
  608MOL0     C83827   6.287   4.148  11.569  0.7786 -0.0420  0.8251
  608MOL0     C83828   6.235   4.065  11.680  0.0504  0.4588  1.1830
  608MOL0     C83829   6.276   4.118  11.819  0.0850  0.3252  0.3784
  608MOL0     C83830   6.421   4.125  11.840  1.3007 -0.2523 -0.4553
  608MOL0     C83831   6.535   4.101  11.859  0.7412  0.1285 -0.2014
  608MOL0     C83832   6.077   3.970  11.228  1.0958  0.3281 -0.8840
  608MOL0     C83833   6.034   3.947  11.089  0.7187  0.7031 -1.3759
  608MOL0     C83834   5.896   3.982  11.054 -0.5854  0.2437 -1.2612
  608MOL0     H83835   5.847   3.758  10.724 -1.0128 -2.7169  0.0462
  608MOL0     H83836   5.761   3.670  10.517  1.1680 -1.1122 -1.9002
  608MOL0     H83837   5.869   3.556  10.159  0.6548 -1.6729  1.1563
  608MOL0     H83838   5.836   3.684  10.283 -0.4347 -0.5641  2.6990
  608MOL0     H83839   5.670   3.433  10.239 -1.2320  0.7165 -1.6379
  608MOL0     H83840   5.632   3.561  10.344 -0.2000  0.8580 -1.3102
  608MOL0     H83841   5.569   3.717  10.177  1.8781 -0.0316 -0.0685
  608MOL0     H83842   5.645   3.608  10.047  1.0861 -1.4460  0.9351
  608MOL0     H83843   5.512   3.448  10.074  1.0329  0.9174 -1.6925
  608MOL0     H83844   5.418   3.513  10.212 -2.3028  1.5751 -0.2985
  608MOL0     H83845   5.340   3.690  10.075  2.0642 -0.7809  1.4791
  608MOL0     H83846   5.276   3.531  10.021  0.3368 -0.6663  0.4640
  608MOL0     H83847   5.507   3.663   9.878  0.9677 -1.4572  2.1686
  608MOL0     H83848   5.401   3.524   9.830  2.6477  0.1081 -0.7059
  608MOL0     H83849   5.329   3.814   9.874 -0.9108 -0.7099  2.5298
  608MOL0     H83850   5.207   3.685   9.816  0.3781  1.0402 -1.5147
  608MOL0     H83851   5.271   3.758   9.603 -0.3917 -0.1608  0.4977
  608MOL0     H83852   5.411   3.845   9.662  2.5923 -0.5895  0.8134
  608MOL0     H83853   5.634   3.703   9.690  1.6705 -1.1707  0.2888
  608MOL0     H83854   5.818   3.503   9.533 -1.8521  1.6626 -0.6329
  608MOL0     H83855   5.748   3.356   9.496 -1.3544 -0.0910 -1.4463
  608MOL0     H83856   5.884   3.347   9.712  1.8430  2.1877 -1.3722
  608MOL0     H83857   5.795   3.483   9.771 -0.2205  1.8055 -3.1847
  608MOL0     H83858   5.584   3.320   9.776 -0.5151  0.1021 -0.0709
  608MOL0     H83859   5.691   3.201   9.712 -1.6129  1.1347 -0.7824
  608MOL0     H83860   5.770   3.366   9.956 -1.0617 -0.1015  2.9771
  608MOL0     H83861   5.679   3.222   9.983  1.7521 -0.7984  1.5832
  608MOL0     H83862   6.078   3.101   9.863  1.2744  0.4930  1.2053
  608MOL0     H83863   6.335   3.056   9.907  0.0663 -0.3412 -0.7464
  608MOL0     H83864   6.265   2.930  10.022  0.1895 -0.4708 -0.6359
  608MOL0     H83865   6.380   3.032  10.077  1.0315 -4.1938 -0.7636
  608MOL0     H83866   6.313   3.050  10.567 -2.1409  0.0387  0.6230
  608MOL0     H83867   6.429   3.070  10.745 -1.0962 -0.1250 -3.3200
  608MOL0     H83868   6.663   3.047  10.817 -2.0957  0.9116 -2.4530
  608MOL0     H83869   6.760   3.115  10.698 -1.6494 -3.8175  0.0517
  608MOL0     H83870   6.886   3.229  10.901  1.2972 -0.2439 -2.4150
  608MOL0     H83871   6.763   3.135  10.997 -1.2675 -1.3477 -1.1646
  608MOL0     H83872   6.950   3.031  10.802 -1.7075  4.6064  0.3548
  608MOL0     H83873   6.841   2.921  10.900  0.7669 -0.1440 -1.1156
  608MOL0     H83874   6.977   3.055  11.092 -1.3875 -3.2396  1.9641
  608MOL0     H83875   7.107   3.065  10.978 -1.0079  0.5207 -0.0299
  608MOL0     H83876   7.148   2.880  11.115 -0.6188  2.0321  0.9588
  608MOL0     H83877   6.989   2.799  11.076 -2.5133 -0.7574 -3.8238
  608MOL0     H83878   7.046   2.775  10.847 -0.6133  2.6644 -1.1830
  608MOL0     H83879   7.179   2.701  10.958  0.2131 -0.1648  0.2225
  608MOL0     H83880   7.205   2.961  10.787  0.6081  0.1243 -0.6785
  608MOL0     H83881   7.274   2.801  10.755  0.5188 -2.3898  3.6778
  608MOL0     H83882   7.336   3.023  10.960  1.6317  0.3517  0.0208
  608MOL0     H83883   7.449   2.943  10.849 -1.6846 -4.8390 -3.8541
  608MOL0     H83884   6.604   3.445  10.613  0.8033 -1.9491 -1.7893
  608MOL0     H83885   6.414   3.452  10.456 -1.5196 -0.9544 -1.2099
  608MOL0     H83886   6.012   3.246  10.325 -2.7734  0.7551 -1.4019
  608MOL0     H83887   5.824   3.274  10.167 -0.2913 -0.1131 -2.1672
  608MOL0     H83888   6.127   3.475  10.426 -0.5324 -1.0923  0.7333
  608MOL0     H83889   6.217   3.546  10.648  0.4979  0.7725  3.9324
  608MOL0     H83890   6.314   3.795  10.982 -2.0859  0.9545 -2.8942
  608MOL0     H83891   6.397   3.861  11.190  1.1933  3.0858 -2.1379
  608MOL0     H83892   6.234   4.195  11.360  0.8148 -0.8469 -1.7702
  608MOL0     H83893   6.109   4.124  11.458  0.5645  1.5353 -0.5766
  608MOL0     H83894   6.279   4.253  11.600  3.7070  0.0545  1.5728
  608MOL0     H83895   6.394   4.129  11.554  0.8300  1.2299 -0.5811
  608MOL0     H83896   6.126   4.071  11.676  0.1377  1.9369  0.0843
  608MOL0     H83897   6.277   3.965  11.664 -0.9332  0.2999 -0.6396
  608MOL0     H83898   6.251   4.041  11.893 -1.2974  1.0364  0.6800
  608MOL0     H83899   6.230   4.207  11.862  1.6706 -0.5208  4.3323
  608MOL0     H83900   6.639   4.093  11.882  0.2593 -1.2217  1.6973
  608MOL0     H83901   6.018   4.020  11.304  1.9839  0.3120 -0.1659
  608MOL0     H83902   5.849   3.890  11.018 -1.4237  0.0576  0.2187
  608MOL0     H83903   5.835   4.013  11.139 -1.3980  1.7047 -2.3141
  608MOL0     H83904   5.892   4.063  10.980 -1.1719  4.3161  2.7544
  609MOL0     O83905   4.165   2.517  10.549  1.7472  1.1897  0.6147
  609MOL0     C83906   4.061   2.527  10.480 -0.0678  0.2330 -1.0716
  609MOL0     O83907   4.023   2.436  10.385 -0.4662  0.3518 -0.0592
  609MOL0     C83908   4.085   2.312  10.365  0.3959  0.7545 -0.6692
  609MOL0     C83909   4.222   2.307  10.336 -0.2454  1.1046  0.3636
  609MOL0     C83910   4.281   2.182  10.329 -0.8658  0.8337 -0.4682
  609MOL0     C83911   4.200   2.063  10.350 -0.8281 -0.1377 -0.0308
  609MOL0     O83912   4.251   1.934  10.352  0.2533  0.4642  0.1714
  609MOL0     C83913   4.364   1.897  10.256  0.3088  0.1272  0.9500
  609MOL0     C83914   4.402   1.748  10.293 -0.3716  0.3098  0.2138
  609MOL0     C83915   4.432   1.721  10.441  1.0342 -1.5723  0.9406
  609MOL0     C83916   4.308   1.652  10.494  0.2246  0.3129 -0.6612
  609MOL0     C83917   4.292   1.633  10.644 -1.1383 -0.3640  0.0547
  609MOL0     C83918   4.195   1.531  10.696  0.6710 -0.2086 -0.1921
  609MOL0     C83919   4.162   1.552  10.842 -0.0721  0.2785 -0.1250
  609MOL0     C83920   4.058   1.442  10.893  0.0933  1.3383  0.9425
  609MOL0     N83921   3.978   1.489  11.012 -0.1834 -0.0004  0.1848
  609MOL0     C83922   4.027   1.560  11.117  1.4328 -1.0902 -0.9839
  609MOL0     C83923   3.926   1.561  11.213  0.6557  0.3703  0.5011
  609MOL0     C83924   3.914   1.650  11.337  0.3184 -0.2490  0.0236
  609MOL0     C83925   3.877   1.566  11.464  0.3858 -0.1425  0.3606
  609MOL0     C83926   3.964   1.455  11.492 -0.6813 -0.2037 -0.4542
  609MOL0     C83927   3.910   1.350  11.597  0.2281  0.5768 -0.1344
  609MOL0     O83928   4.018   1.263  11.640 -0.1389 -1.4245 -0.5679
  609MOL0     C83929   3.983   1.146  11.698 -0.7680  0.0861 -0.1263
  609MOL0     C83930   3.880   1.133  11.793 -0.6340  0.4439 -0.2053
  609MOL0     C83931   3.879   1.009  11.869  0.1961 -0.1502  0.8461
  609MOL0     C83932   3.780   1.000  11.976  0.6166  0.8290  0.6523
  609MOL0     C83933   3.938   0.894  11.803 -0.1079 -0.1387 -0.1237
  609MOL0     C83934   3.917   0.760  11.857  0.8369 -0.8339  0.8149
  609MOL0     O83935   3.882   0.745  11.987  0.0544 -0.7624 -0.1784
  609MOL0     C83936   3.897   0.621  12.047 -0.0272  0.4925  0.4584
  609MOL0     C83937   3.996   0.529  12.024  0.6894 -0.0559  0.3017
  609MOL0     C83938   4.008   0.409  12.091 -0.7497 -1.0068  0.7604
  609MOL0     C83939   3.914   0.373  12.183  0.2454 -0.3450  0.8645
  609MOL0     O83940   3.932   0.271  12.268 -0.1871 -0.6347 -0.1084
  609MOL0     C83941   3.989   0.150  12.222 -0.2068  0.3086 -0.0968
  609MOL0     C83942   3.955   0.053  12.334  0.0130 -0.3081 -0.3835
  609MOL0     C83943   4.016  -0.091  12.328 -0.2141  0.5088 -0.0123
  609MOL0     C83944   4.159  -0.103  12.382 -0.2496  0.3418 -0.3047
  609MOL0     C83945   4.163  -0.105  12.533  0.3176  0.4900 -0.6788
  609MOL0     C83946   4.301  -0.138  12.587 -1.0458 -0.2567 -0.5628
  609MOL0     C83947   4.291  -0.203  12.728  0.1848  0.2237 -0.1806
  609MOL0     C83948   4.239  -0.097  12.839 -0.4570 -0.1627  0.3398
  609MOL0    Cl83949   4.064  -0.067  12.834  0.3489 -0.1109 -0.3816
  609MOL0     C83950   3.809   0.468  12.206  0.4266 -0.8180  0.5767
  609MOL0     C83951   3.797   0.585  12.133 -1.1337  0.8466  1.0075
  609MOL0     O83952   3.930   0.664  11.784 -0.1010 -0.0498  0.2748
  609MOL0     C83953   4.027   0.911  11.704  0.1652 -0.0548 -0.4446
  609MOL0     C83954   4.056   1.040  11.660 -0.8249  0.6131 -0.6072
  609MOL0     N83955   3.820   1.499  11.149 -0.2581 -0.1196 -0.2976
  609MOL0     N83956   3.851   1.459  11.032 -0.2234  0.0617  0.1424
  609MOL0     C83957   4.066   2.066  10.375 -0.2677  0.3328 -0.3414
  609MOL0     C83958   4.011   2.201  10.381  0.0491  0.4556  0.2149
  609MOL0     C83959   3.982   2.643  10.509  1.0051 -0.2414 -0.4748
  609MOL0     C83960   3.940   2.660  10.639 -0.4535 -0.2485 -1.1345
  609MOL0     C83961   3.867   2.781  10.673 -0.0716 -0.1526  0.9942
  609MOL0     C83962   3.828   2.866  10.575  0.1092  0.4816 -0.1899
  609MOL0     O83963   3.751   2.974  10.608 -0.3786  0.4293 -0.4582
  609MOL0     C83964   3.632   2.995  10.528  0.6905  0.2809  1.0213
  609MOL0     C83965   3.521   2.895  10.570  0.3470  0.3551  0.8117
  609MOL0     C83966   3.395   2.920  10.484 -1.5075  0.4862  0.7184
  609MOL0     C83967   3.309   2.787  10.498  0.6467 -0.1316  0.4971
  609MOL0     C83968   3.200   2.787  10.397 -1.2530 -0.6937  0.4482
  609MOL0     C83969   3.112   2.791  10.316  1.1252  1.3376  0.0378
  609MOL0     C83970   3.866   2.843  10.445  0.1935  0.0724 -0.3153
  609MOL0     C83971   3.935   2.731  10.406 -0.3287  0.1573 -0.6790
  609MOL0     C83972   3.971   2.706  10.258 -0.3079 -0.2532  0.4298
  609MOL0     H83973   4.280   2.399  10.341  1.3632  0.1092  0.8994
  609MOL0     H83974   4.388   2.165  10.321 -1.4055 -3.6134 -0.4564
  609MOL0     H83975   4.453   1.961  10.264  1.2632 -0.5664 -2.4857
  609MOL0     H83976   4.333   1.900  10.152 -4.1257  0.1863  2.0944
  609MOL0     H83977   4.315   1.689  10.262  1.0747 -2.7199  1.5540
  609MOL0     H83978   4.477   1.714  10.222  0.8100  0.8886  1.1612
  609MOL0     H83979   4.519   1.660  10.468  2.1917  0.7511  2.8034
  609MOL0     H83980   4.455   1.814  10.493  1.0777 -0.2842 -1.2359
  609MOL0     H83981   4.214   1.702  10.467 -1.4919 -0.6582  2.8395
  609MOL0     H83982   4.311   1.555  10.444 -0.9104 -0.1365  0.0819
  609MOL0     H83983   4.265   1.730  10.688 -2.2352 -1.3782  1.7294
  609MOL0     H83984   4.393   1.599  10.671 -0.3956  0.5982 -1.3837
  609MOL0     H83985   4.098   1.546  10.647  0.3905 -1.8070 -0.1956
  609MOL0     H83986   4.232   1.432  10.667 -0.6038 -0.5438 -0.7623
  609MOL0     H83987   4.113   1.648  10.864 -0.0299 -0.5628  4.4828
  609MOL0     H83988   4.261   1.552  10.888 -0.2013  0.0790  0.1518
  609MOL0     H83989   3.997   1.421  10.805  2.0989  2.0219 -0.6897
  609MOL0     H83990   4.118   1.352  10.910 -0.5984  0.2707 -1.8274
  609MOL0     H83991   4.118   1.618  11.120  0.7169  0.0311  1.5281
  609MOL0     H83992   3.827   1.712  11.313  1.0133  1.0441  0.7256
  609MOL0     H83993   4.006   1.706  11.355 -1.5525  3.2046 -0.4076
  609MOL0     H83994   3.872   1.637  11.547 -1.2344  1.9623 -1.4214
  609MOL0     H83995   3.776   1.529  11.446 -0.1751  0.9168  1.2352
  609MOL0     H83996   3.995   1.402  11.402  0.4888 -0.3264 -0.0005
  609MOL0     H83997   4.064   1.485  11.525 -1.6964  2.8337  0.2000
  609MOL0     H83998   3.879   1.395  11.692  1.7626  0.6937  0.3451
  609MOL0     H83999   3.829   1.297  11.546 -0.3738  1.6571 -0.3199
  609MOL0     H84000   3.822   1.216  11.834 -2.8578 -1.0425 -0.2073
  609MOL0     H84001   3.705   0.924  11.954  1.1131  0.2046  1.0801
  609MOL0     H84002   3.728   1.096  11.986 -1.3260 -0.0466 -0.4318
  609MOL0     H84003   3.834   0.983  12.069 -0.8160 -0.6458  1.2564
  609MOL0     H84004   4.072   0.537  11.947  1.4186  0.7448  1.0807
  609MOL0     H84005   4.094   0.348  12.068 -0.8801 -0.9671  0.1433
  609MOL0     H84006   3.964   0.115  12.121  0.4720  0.4303 -0.3157
  609MOL0     H84007   4.098   0.157  12.223  0.2047 -3.4429  1.5512
  609MOL0     H84008   3.992   0.105  12.424 -1.6403  1.3364 -0.5955
  609MOL0     H84009   3.846   0.049  12.343  0.0431 -2.5887 -0.4343
  609MOL0     H84010   4.042  -0.116  12.224  2.4822 -1.4453  1.0154
  609MOL0     H84011   3.948  -0.157  12.382  0.0548  2.9710  3.7116
  609MOL0     H84012   4.231  -0.028  12.349 -1.1690  1.4788  0.1767
  609MOL0     H84013   4.201  -0.199  12.352  1.6951  0.2747  2.2029
  609MOL0     H84014   4.131  -0.012  12.581  1.9875 -0.1300  1.8780
  609MOL0     H84015   4.091  -0.183  12.560  0.0466  0.5685 -1.1740
  609MOL0     H84016   4.359  -0.046  12.574 -2.2702  0.8493  1.2758
  609MOL0     H84017   4.348  -0.215  12.524 -1.0626  0.0298 -0.9274
  609MOL0     H84018   4.391  -0.237  12.758  0.9398  1.7270 -0.9135
  609MOL0     H84019   4.228  -0.292  12.739  0.0468  0.4435  0.8683
  609MOL0     H84020   4.297  -0.005  12.827 -1.0868  0.0428 -1.4689
  609MOL0     H84021   4.268  -0.140  12.936  1.9780  2.4198  0.8991
  609MOL0     H84022   3.728   0.442  12.274 -1.6065  3.3108  0.0468
  609MOL0     H84023   3.713   0.643  12.169 -2.4856  1.7556 -3.0668
  609MOL0     H84024   4.079   0.821  11.672  2.9956  0.3724  2.3985
  609MOL0     H84025   4.133   1.061  11.586 -0.6305 -0.2858 -0.6672
  609MOL0     H84026   4.000   1.983  10.399  0.6699  0.4131  3.0151
  609MOL0     H84027   3.905   2.207  10.404  0.2917 -0.8050  1.8585
  609MOL0     H84028   3.965   2.600  10.727 -0.5451  2.9044  1.2184
  609MOL0     H84029   3.841   2.807  10.775 -3.6447  2.4003 -0.3353
  609MOL0     H84030   3.595   3.096  10.548 -0.7922 -0.2757  1.1936
  609MOL0     H84031   3.646   2.979  10.421  1.2266 -1.4985  1.3179
  609MOL0     H84032   3.509   2.892  10.678 -1.1510 -1.2233  0.6415
  609MOL0     H84033   3.565   2.800  10.539 -0.7180 -0.4604  1.7500
  609MOL0     H84034   3.346   3.012  10.517  2.0443  1.8672  2.7735
  609MOL0     H84035   3.440   2.927  10.384 -0.1928  2.3949  1.3993
  609MOL0     H84036   3.263   2.794  10.597 -0.6479  3.3161 -0.2208
  609MOL0     H84037   3.365   2.693  10.494  1.1628  0.1540  0.8148
  609MOL0     H84038   3.022   2.774  10.261  0.0035  2.9595  1.2867
  609MOL0     H84039   3.832   2.894  10.355 -1.7217 -1.4422 -0.5310
  609MOL0     H84040   3.966   2.796  10.195 -2.3028 -0.0457  0.8075
  609MOL0     H84041   4.075   2.673  10.247  0.1168  0.3262  2.3093
  609MOL0     H84042   3.905   2.635  10.207 -2.2711  1.7554 -0.0157
  610MOL0     O84043   6.512   1.363   8.621 -0.9379 -0.4830  0.4938
  610MOL0     C84044   6.456   1.459   8.569  0.4779 -0.5936  0.5747
  610MOL0     O84045   6.367   1.536   8.629  0.3588  0.3419  0.6892
  610MOL0     C84046   6.316   1.490   8.743 -0.1451 -0.1599  0.2101
  610MOL0     C84047   6.261   1.356   8.749 -1.0537 -0.1781 -0.4885
  610MOL0     C84048   6.208   1.314   8.871 -0.9402 -0.1428  0.7396
  610MOL0     C84049   6.199   1.404   8.980  0.6484 -0.0623 -0.9811
  610MOL0     O84050   6.142   1.364   9.099 -0.1511 -0.1458  0.6682
  610MOL0     C84051   6.254   1.330   9.186 -0.0364  0.0910 -0.6910
  610MOL0     C84052   6.200   1.233   9.283  0.4229 -0.5421 -0.2696
  610MOL0     C84053   6.136   1.096   9.216 -0.5464  0.0738  0.2759
  610MOL0     C84054   6.136   0.979   9.317 -0.3804 -0.2018  0.4077
  610MOL0     C84055   5.997   0.937   9.347  0.0989  1.3022 -0.1466
  610MOL0     C84056   6.000   0.849   9.476 -0.5023  0.4145  0.4622
  610MOL0     C84057   5.856   0.817   9.507 -0.7235  0.3077 -0.2993
  610MOL0     C84058   5.801   0.709   9.406  0.2128  0.2905  0.2854
  610MOL0     N84059   5.691   0.644   9.473  0.2389  0.7063 -0.0118
  610MOL0     C84060   5.698   0.515   9.526  0.6639  0.0881  0.8739
  610MOL0     C84061   5.582   0.499   9.586  0.2159 -1.3110  0.8042
  610MOL0     C84062   5.540   0.371   9.641  0.4299  0.0661 -0.1828
  610MOL0     C84063   5.514   0.391   9.790  0.4464 -0.5000  0.7446
  610MOL0     C84064   5.436   0.290   9.860 -0.6275 -0.1279 -0.1391
  610MOL0     C84065   5.399   0.345   9.995  0.7270  0.2566 -0.2143
  610MOL0     O84066   5.516   0.367  10.080  0.6425 -0.0735  0.0001
  610MOL0     C84067   5.547   0.290  10.192  0.8687  0.0530 -0.2646
  610MOL0     C84068   5.650   0.341  10.265  0.0058  0.5653 -0.8726
  610MOL0     C84069   5.707   0.267  10.372 -0.2804 -0.3994 -0.8371
  610MOL0     C84070   5.800   0.339  10.463  0.1858  0.0547 -0.1009
  610MOL0     C84071   5.659   0.142  10.392 -0.5143  0.5805 -0.3811
  610MOL0     C84072   5.706   0.062  10.505 -0.1220  0.0551  0.0107
  610MOL0     O84073   5.836   0.024  10.509 -0.1712 -0.3377 -0.0150
  610MOL0     C84074   5.881  -0.019  10.635  0.4871 -0.3115 -0.0130
  610MOL0     C84075   5.861   0.058  10.750  0.1751  0.0712 -0.8237
  610MOL0     C84076   5.918   0.015  10.871  0.0787  0.7520 -0.0184
  610MOL0     C84077   6.007  -0.093  10.873 -0.1257 -0.1865 -0.5890
  610MOL0     O84078   6.058  -0.121  10.998  0.2384  0.0876 -0.3130
  610MOL0     C84079   6.018  -0.254  11.036 -1.1141  0.1370 -0.6279
  610MOL0     C84080   6.075  -0.291  11.176  0.1542  1.2013 -0.7973
  610MOL0     C84081   6.047  -0.441  11.244  0.5333 -0.4506 -0.0339
  610MOL0     C84082   6.175  -0.529  11.222  0.0770  0.3515  0.4670
  610MOL0     C84083   6.133  -0.673  11.227 -0.2822 -0.5807  0.1372
  610MOL0     C84084   6.077  -0.720  11.090  0.1563 -1.3468 -0.2941
  610MOL0     C84085   6.113  -0.862  11.072  0.3618  0.6544 -0.1782
  610MOL0     C84086   6.100  -0.902  10.921 -0.0752 -0.0792  0.8371
  610MOL0    Cl84087   6.232  -0.829  10.815 -0.2304  0.2526  0.1255
  610MOL0     C84088   6.026  -0.174  10.757  0.3297 -0.2029  0.9973
  610MOL0     C84089   5.957  -0.138  10.637 -0.4694 -0.7166  0.5808
  610MOL0     O84090   5.618   0.020  10.577 -0.0298  0.2024  0.1481
  610MOL0     C84091   5.554   0.082  10.314  0.0730 -0.6564 -0.3432
  610MOL0     C84092   5.488   0.158  10.222 -0.1668 -0.8628  0.4627
  610MOL0     N84093   5.499   0.609   9.565 -0.0633  0.7368  0.2950
  610MOL0     N84094   5.568   0.697   9.497  0.6899  0.2673 -0.5701
  610MOL0     C84095   6.236   1.538   8.962 -0.1145 -0.0280  0.4163
  610MOL0     C84096   6.298   1.573   8.848  0.4912 -0.5204 -0.2646
  610MOL0     C84097   6.485   1.499   8.427  0.5624 -0.9579 -0.3191
  610MOL0     C84098   6.397   1.576   8.349 -0.4006  1.1930 -0.9449
  610MOL0     C84099   6.422   1.611   8.210  0.1848 -0.2713 -0.2028
  610MOL0     C84100   6.540   1.575   8.156 -0.2582  0.3211  0.7551
  610MOL0     O84101   6.575   1.576   8.027  0.4477 -0.0237 -0.7096
  610MOL0     C84102   6.470   1.571   7.924  0.2193 -0.1313 -0.5421
  610MOL0     C84103   6.531   1.500   7.796 -0.7895 -0.1059 -0.0793
  610MOL0     C84104   6.464   1.501   7.665 -0.3971 -1.2400  0.4792
  610MOL0     C84105   6.458   1.649   7.609  1.0316 -0.0424 -0.2788
  610MOL0     C84106   6.571   1.686   7.523  0.3585  0.3171 -0.3006
  610MOL0     C84107   6.665   1.729   7.463 -0.5711 -0.4338 -0.6291
  610MOL0     C84108   6.633   1.522   8.239 -0.2717  0.3438  0.4049
  610MOL0     C84109   6.609   1.483   8.362  0.2515  0.4089 -0.3807
  610MOL0     C84110   6.715   1.392   8.413  0.8041  0.4409  0.4747
  610MOL0     H84111   6.281   1.288   8.667 -1.3770  0.8781 -1.4824
  610MOL0     H84112   6.158   1.218   8.875  1.7780 -1.9267 -2.5740
  610MOL0     H84113   6.288   1.420   9.238 -5.6257  0.8161  2.4340
  610MOL0     H84114   6.337   1.281   9.133 -0.7293 -1.4175 -0.4540
  610MOL0     H84115   6.277   1.190   9.348 -1.2869 -1.7323  1.0635
  610MOL0     H84116   6.121   1.285   9.338  0.3578  0.3346 -1.1667
  610MOL0     H84117   6.038   1.118   9.173 -0.9920 -5.2179 -2.2012
  610MOL0     H84118   6.202   1.065   9.135  1.3372  1.2943  1.2614
  610MOL0     H84119   6.201   0.896   9.287 -0.4665  0.4833 -1.8567
  610MOL0     H84120   6.176   1.016   9.412  0.1850 -1.3790  0.6483
  610MOL0     H84121   5.948   0.886   9.263  1.5505  1.2957 -1.0230
  610MOL0     H84122   5.931   1.023   9.359 -2.5488 -0.8747  2.3660
  610MOL0     H84123   6.054   0.754   9.469  2.2614  1.8135  1.2203
  610MOL0     H84124   6.058   0.888   9.560  4.7107 -0.2081 -2.4185
  610MOL0     H84125   5.789   0.904   9.502  2.3215  2.9619  1.2524
  610MOL0     H84126   5.854   0.767   9.604 -2.1132  0.0125 -0.4641
  610MOL0     H84127   5.778   0.753   9.308 -1.5651 -0.5933  0.2556
  610MOL0     H84128   5.875   0.631   9.389 -0.1126 -0.3672  1.6943
  610MOL0     H84129   5.782   0.446   9.521  1.2201  0.6578  1.9664
  610MOL0     H84130   5.605   0.283   9.632  0.0811 -0.3268  1.0827
  610MOL0     H84131   5.442   0.356   9.596 -0.0957 -1.3779  1.3506
  610MOL0     H84132   5.613   0.404   9.834 -0.1818  1.0083  1.7604
  610MOL0     H84133   5.450   0.479   9.793 -0.9104 -1.4724  1.2338
  610MOL0     H84134   5.354   0.250   9.799 -1.4173  0.1709  0.6932
  610MOL0     H84135   5.494   0.199   9.873  1.5860  0.9345 -1.8474
  610MOL0     H84136   5.339   0.436   9.986  0.6001  0.1867 -0.0899
  610MOL0     H84137   5.332   0.278  10.050 -0.2672 -1.2496 -3.0557
  610MOL0     H84138   5.678   0.440  10.232 -0.6975  1.1345  0.1950
  610MOL0     H84139   5.743   0.379  10.548 -4.0083  0.2206 -2.7109
  610MOL0     H84140   5.840   0.433  10.423  1.1120  0.2481  1.1996
  610MOL0     H84141   5.888   0.280  10.489 -1.4132 -1.5385  2.0496
  610MOL0     H84142   5.809   0.152  10.762  0.3930 -0.0088  1.2545
  610MOL0     H84143   5.906   0.060  10.969  0.7398  1.5086 -0.2710
  610MOL0     H84144   5.909  -0.270  11.036 -0.6757 -3.8707  0.3293
  610MOL0     H84145   6.064  -0.324  10.965 -2.1765 -0.7608 -0.4731
  610MOL0     H84146   6.183  -0.286  11.161  0.6419 -1.8388  0.9822
  610MOL0     H84147   6.045  -0.215  11.249  0.1205  2.2251 -1.8325
  610MOL0     H84148   5.954  -0.474  11.197  0.8761  0.8692 -1.7238
  610MOL0     H84149   6.040  -0.449  11.353 -0.5651  0.2209 -0.0389
  610MOL0     H84150   6.256  -0.508  11.293 -3.4309  3.2433  4.0501
  610MOL0     H84151   6.222  -0.499  11.127 -1.0836  0.0786 -0.2107
  610MOL0     H84152   6.224  -0.730  11.251 -0.9334 -0.7386  2.4582
  610MOL0     H84153   6.064  -0.686  11.310  1.0565  0.7880  1.5341
  610MOL0     H84154   6.113  -0.667  11.000 -4.9424  0.2314 -1.7499
  610MOL0     H84155   5.970  -0.705  11.101  0.5089  0.9566  0.6435
  610MOL0     H84156   6.047  -0.921  11.136  1.3483  2.3050  2.5456
  610MOL0     H84157   6.214  -0.892  11.101 -0.7399 -1.4626  1.7810
  610MOL0     H84158   6.006  -0.870  10.876 -0.1368 -2.8908 -1.3397
  610MOL0     H84159   6.118  -1.009  10.907 -0.1520 -0.0005  0.1333
  610MOL0     H84160   6.100  -0.254  10.758  0.9553  0.2379 -1.6919
  610MOL0     H84161   5.960  -0.192  10.543 -4.1501  3.2527 -2.2419
  610MOL0     H84162   5.540  -0.024  10.333  1.6584 -0.9398 -0.6350
  610MOL0     H84163   5.408   0.105  10.170  0.4790 -1.5371  0.1417
  610MOL0     H84164   6.220   1.599   9.051 -1.5769  1.8856 -1.0650
  610MOL0     H84165   6.318   1.679   8.835 -3.2756  0.3425 -0.3336
  610MOL0     H84166   6.308   1.615   8.397  0.0578  2.9642 -1.4640
  610MOL0     H84167   6.354   1.676   8.155  0.0724  1.0140  1.3674
  610MOL0     H84168   6.383   1.513   7.955  0.5006 -1.2349 -1.7120
  610MOL0     H84169   6.440   1.675   7.908  0.3264 -0.1852 -1.1311
  610MOL0     H84170   6.564   1.398   7.818 -0.8420 -0.2591 -0.6944
  610MOL0     H84171   6.620   1.557   7.768 -0.9647 -2.0138 -5.8186
  610MOL0     H84172   6.521   1.445   7.590  1.6700  0.2276  0.8647
  610MOL0     H84173   6.363   1.458   7.666 -0.3431 -1.6241 -2.5305
  610MOL0     H84174   6.460   1.715   7.696  4.2947  2.1648 -1.8173
  610MOL0     H84175   6.369   1.653   7.545  1.2045 -1.8913 -0.7014
  610MOL0     H84176   6.751   1.764   7.409 -0.2260  0.0880  0.2433
  610MOL0     H84177   6.728   1.497   8.193 -0.7361 -0.8777  0.0616
  610MOL0     H84178   6.686   1.288   8.425 -4.8269  1.1399 -3.3730
  610MOL0     H84179   6.798   1.401   8.341 -0.9871  0.8806 -1.6298
  610MOL0     H84180   6.737   1.426   8.514 -1.9679 -2.1519  2.1078
  611MOL0     O84181   0.673   4.994   9.644 -0.2478  0.4122 -0.4735
  611MOL0     C84182   0.743   5.004   9.544 -0.0686 -0.0063 -0.3743
  611MOL0     O84183   0.831   4.909   9.506 -0.0544  0.1942 -0.6524
  611MOL0     C84184   0.846   4.797   9.589  1.1633 -0.2437  0.6579
  611MOL0     C84185   0.971   4.763   9.646 -0.9287 -1.0884  0.7466
  611MOL0     C84186   0.996   4.660   9.719 -0.9857  0.3131 -0.0567
  611MOL0     C84187   0.891   4.577   9.758 -0.1590  0.9622  0.4877
  611MOL0     O84188   0.925   4.454   9.811 -0.1693  0.4543 -0.1214
  611MOL0     C84189   0.824   4.353   9.833 -0.7039  0.1341  0.0061
  611MOL0     C84190   0.895   4.221   9.859 -0.7068 -0.2850  0.9564
  611MOL0     C84191   0.806   4.109   9.921 -0.5132  0.8209  0.2711
  611MOL0     C84192   0.863   4.066  10.055 -0.5814  0.3481  0.8856
  611MOL0     C84193   0.774   3.964  10.140  0.4556 -0.6484  0.4067
  611MOL0     C84194   0.865   3.903  10.237  0.4139  1.0059 -0.2905
  611MOL0     C84195   0.784   3.843  10.354  0.4863  0.5113 -0.0772
  611MOL0     C84196   0.652   3.768  10.322  0.0986  0.3795  1.1443
  611MOL0     N84197   0.603   3.684  10.430 -0.0747  0.3531  0.1819
  611MOL0     C84198   0.662   3.573  10.496 -0.6730 -0.2513  0.6637
  611MOL0     C84199   0.567   3.525  10.581  0.7050 -1.2504 -0.8451
  611MOL0     C84200   0.567   3.402  10.674  0.7346 -0.0563 -0.4572
  611MOL0     C84201   0.602   3.440  10.818  0.2422  0.7853  0.1456
  611MOL0     C84202   0.722   3.355  10.872 -1.0562  0.7545 -0.0864
  611MOL0     C84203   0.719   3.208  10.868  0.4016  0.4402 -0.1225
  611MOL0     O84204   0.595   3.160  10.922 -0.3228 -0.1984  0.8064
  611MOL0     C84205   0.573   3.024  10.922 -0.3062 -0.2305 -0.4774
  611MOL0     C84206   0.619   2.928  10.828 -0.3807  0.5341 -0.4425
  611MOL0     C84207   0.603   2.788  10.850 -0.7001 -0.2993  0.0862
  611MOL0     C84208   0.680   2.694  10.751  0.6796 -0.5184  0.3524
  611MOL0     C84209   0.529   2.748  10.964 -0.3182 -0.3216 -0.7390
  611MOL0     C84210   0.507   2.605  10.996 -0.5422 -0.4838  0.0750
  611MOL0     O84211   0.501   2.573  11.128 -1.0087  0.2427  0.2324
  611MOL0     C84212   0.488   2.430  11.152 -0.6457 -1.3527  0.2977
  611MOL0     C84213   0.580   2.340  11.094 -0.5392 -0.1603 -0.0627
  611MOL0     C84214   0.561   2.201  11.114  0.5381 -0.7936  0.8625
  611MOL0     C84215   0.446   2.164  11.184  0.2238 -0.4764 -0.4408
  611MOL0     O84216   0.409   2.029  11.199 -1.1231 -0.3810 -0.6752
  611MOL0     C84217   0.446   1.946  11.094  0.3455 -0.7210  0.3530
  611MOL0     C84218   0.561   1.863  11.147 -1.0906 -0.6478 -0.5293
  611MOL0     C84219   0.563   1.725  11.070 -1.0207  0.3396 -0.8204
  611MOL0     C84220   0.670   1.641  11.137 -0.0034  0.4607 -0.5040
  611MOL0     C84221   0.711   1.526  11.057  0.1223  0.9316  0.9418
  611MOL0     C84222   0.767   1.414  11.138 -0.5762 -0.8379 -0.0864
  611MOL0     C84223   0.828   1.301  11.040 -0.3419  1.1336 -0.4649
  611MOL0     C84224   0.959   1.342  10.979  0.1191 -0.2435  0.9998
  611MOL0    Cl84225   1.088   1.369  11.105 -0.4053 -0.2553 -0.3832
  611MOL0     C84226   0.361   2.259  11.247  0.8064  0.5786 -0.1577
  611MOL0     C84227   0.391   2.392  11.230 -0.5689 -0.0555 -0.9480
  611MOL0     O84228   0.494   2.522  10.898 -0.2938 -0.2088 -0.8827
  611MOL0     C84229   0.489   2.842  11.060  0.0423  0.1326  0.1757
  611MOL0     C84230   0.495   2.981  11.028 -0.2051 -0.7397  0.3548
  611MOL0     N84231   0.457   3.617  10.576 -0.3715 -0.5733 -0.3521
  611MOL0     N84232   0.481   3.705  10.488  0.1728  0.0393 -0.3689
  611MOL0     C84233   0.756   4.609   9.717  0.3283 -0.7453  0.0224
  611MOL0     C84234   0.740   4.728   9.640  0.8592 -0.8870  0.5439
  611MOL0     C84235   0.731   5.131   9.462  0.6580  0.0138 -0.9114
  611MOL0     C84236   0.594   5.175   9.435  0.1297 -0.4602 -0.1412
  611MOL0     C84237   0.575   5.293   9.360 -0.0040  1.2018  0.2441
  611MOL0     C84238   0.681   5.363   9.311  0.2090 -0.1441  0.3072
  611MOL0     O84239   0.648   5.469   9.228 -0.4741 -0.0653 -0.0358
  611MOL0     C84240   0.752   5.518   9.141 -0.4937  0.2186 -0.1925
  611MOL0     C84241   0.698   5.595   9.029  0.3395  1.9939  0.7136
  611MOL0     C84242   0.822   5.634   8.939 -0.5518  0.1026  0.4176
  611MOL0     C84243   0.778   5.761   8.854 -0.2602  0.4715  0.9643
  611MOL0     C84244   0.759   5.875   8.938 -0.3705 -0.4674  0.1607
  611MOL0     C84245   0.753   5.959   9.027  1.3514 -0.4178  0.1256
  611MOL0     C84246   0.813   5.317   9.344 -0.6444 -0.8758  0.4808
  611MOL0     C84247   0.844   5.203   9.420  0.3918  0.0578  0.2804
  611MOL0     C84248   0.981   5.151   9.439  0.5183  0.3704  0.3077
  611MOL0     H84249   1.048   4.834   9.615 -0.8951 -1.6467 -0.5223
  611MOL0     H84250   1.098   4.628   9.739 -0.8954  1.5934  1.7966
  611MOL0     H84251   0.755   4.342   9.748 -0.6237 -1.5881  0.1197
  611MOL0     H84252   0.765   4.387   9.918 -1.6160  0.8335 -0.8757
  611MOL0     H84253   0.935   4.184   9.764  0.4569 -0.0089  1.3309
  611MOL0     H84254   0.976   4.241   9.929  1.7705 -0.0880 -1.7879
  611MOL0     H84255   0.707   4.153   9.938  0.3292  2.5500  0.9698
  611MOL0     H84256   0.793   4.021   9.858 -1.2591  0.7711  0.4833
  611MOL0     H84257   0.958   4.014  10.039 -0.8240 -0.3667  1.6622
  611MOL0     H84258   0.879   4.157  10.113 -0.4727  0.2091  1.0736
  611MOL0     H84259   0.716   3.898  10.075 -1.8636  0.7274  0.9857
  611MOL0     H84260   0.703   4.029  10.192 -0.3221  0.3647 -1.8077
  611MOL0     H84261   0.919   3.822  10.186  1.6165  0.9216  1.0591
  611MOL0     H84262   0.944   3.969  10.274  1.9986 -1.1465  0.4042
  611MOL0     H84263   0.755   3.917  10.428 -1.8787 -0.9565  0.5550
  611MOL0     H84264   0.852   3.764  10.389  0.9846  1.0923  0.2789
  611MOL0     H84265   0.574   3.841  10.298 -1.0577 -0.8012  1.2034
  611MOL0     H84266   0.679   3.698  10.242  2.4220  2.0739  0.3255
  611MOL0     H84267   0.759   3.527  10.489 -1.2094 -1.4112  0.7230
  611MOL0     H84268   0.639   3.326  10.640 -2.0329 -2.7424 -0.7020
  611MOL0     H84269   0.463   3.369  10.673  0.7955 -0.4508  1.4507
  611MOL0     H84270   0.629   3.546  10.821 -0.6669  1.0937 -1.5880
  611MOL0     H84271   0.519   3.420  10.887 -0.3898 -2.3512 -1.3169
  611MOL0     H84272   0.796   3.381  10.796 -2.4240 -3.3433 -3.1891
  611MOL0     H84273   0.754   3.396  10.968 -1.2704 -1.7218  1.1158
  611MOL0     H84274   0.719   3.182  10.762 -1.0744 -2.1965  0.4247
  611MOL0     H84275   0.803   3.170  10.927  0.2562  2.9001  1.8211
  611MOL0     H84276   0.677   2.958  10.742 -2.7040  1.6704 -1.6945
  611MOL0     H84277   0.608   2.630  10.700  0.9888  0.1680 -0.9932
  611MOL0     H84278   0.735   2.627  10.817 -1.0304 -1.9259  0.4137
  611MOL0     H84279   0.735   2.745  10.670 -0.0867 -0.3135 -0.0471
  611MOL0     H84280   0.658   2.383  11.032  1.0878 -1.8685  0.6874
  611MOL0     H84281   0.639   2.139  11.072  2.1792  2.1667 -0.7116
  611MOL0     H84282   0.361   1.884  11.063  0.8720  0.4397 -4.0403
  611MOL0     H84283   0.458   2.002  11.001  0.1528 -1.8365 -0.3549
  611MOL0     H84284   0.654   1.919  11.135 -1.8911  0.8984  0.2250
  611MOL0     H84285   0.542   1.835  11.251  0.9150 -1.8689 -0.4330
  611MOL0     H84286   0.578   1.729  10.962 -0.7259  2.8015 -0.7352
  611MOL0     H84287   0.468   1.680  11.099  0.7388 -2.3133  1.4338
  611MOL0     H84288   0.635   1.585  11.224 -1.0020 -0.9890 -1.7755
  611MOL0     H84289   0.756   1.701  11.168 -1.2986  3.2550 -1.8682
  611MOL0     H84290   0.619   1.498  11.004  0.3533  2.9038 -0.6059
  611MOL0     H84291   0.785   1.565  10.986  0.2010 -0.3690  0.2764
  611MOL0     H84292   0.684   1.369  11.193  0.0741 -2.3802 -0.3066
  611MOL0     H84293   0.838   1.455  11.210 -2.0128  0.0518  0.8747
  611MOL0     H84294   0.767   1.266  10.956  2.5828 -3.3295 -1.0936
  611MOL0     H84295   0.836   1.208  11.097 -3.9349 -0.2965 -1.9603
  611MOL0     H84296   0.945   1.430  10.914 -3.0723 -0.8422  0.7255
  611MOL0     H84297   0.998   1.268  10.908 -0.4227 -1.0427  1.5296
  611MOL0     H84298   0.281   2.219  11.309  0.3771  1.9889  0.2280
  611MOL0     H84299   0.339   2.475  11.276  3.7735  1.7696  1.2497
  611MOL0     H84300   0.434   2.820  11.150 -1.5170  3.1561  0.1112
  611MOL0     H84301   0.450   3.063  11.083  2.6398  1.4306 -0.3055
  611MOL0     H84302   0.664   4.557   9.741  0.1683 -0.2203  0.5574
  611MOL0     H84303   0.642   4.770   9.624  1.8151  2.0807  1.8663
  611MOL0     H84304   0.504   5.116   9.454  0.3629 -0.3124  1.5419
  611MOL0     H84305   0.469   5.317   9.363 -0.5190 -0.7422  4.1134
  611MOL0     H84306   0.811   5.581   9.209  0.3177  0.2531 -0.9125
  611MOL0     H84307   0.806   5.435   9.095  0.9580  1.6159 -1.1311
  611MOL0     H84308   0.645   5.680   9.073 -0.7576  0.7217  1.9661
  611MOL0     H84309   0.636   5.530   8.966  0.8959 -0.9305  2.9930
  611MOL0     H84310   0.915   5.653   8.993  0.3216 -6.0208  1.8463
  611MOL0     H84311   0.845   5.550   8.872  0.9704 -2.8301  4.2160
  611MOL0     H84312   0.699   5.733   8.783  0.3368  0.3325  0.3361
  611MOL0     H84313   0.853   5.805   8.787  0.2652 -3.1498 -1.0673
  611MOL0     H84314   0.745   6.030   9.107  0.1822 -0.4068  0.0256
  611MOL0     H84315   0.904   5.364   9.310 -1.7193 -0.2122 -1.7070
  611MOL0     H84316   0.998   5.078   9.359 -0.2701  1.5158 -0.9291
  611MOL0     H84317   1.055   5.232   9.432 -0.2803  0.9487 -2.0670
  611MOL0     H84318   0.987   5.106   9.539 -1.3914 -0.4109  0.1002
  612MOL0     O84319  10.104   7.456   5.119  0.2696  0.3921 -0.0171
  612MOL0     C84320  10.122   7.572   5.162  0.1273  0.2498  1.1414
  612MOL0     O84321  10.091   7.682   5.090 -0.7021  0.1544  0.3969
  612MOL0     C84322  10.024   7.670   4.974 -0.5104 -1.0458  0.6193
  612MOL0     C84323   9.891   7.725   4.948  1.4857  0.2350  0.4744
  612MOL0     C84324   9.836   7.727   4.821 -0.5607  0.2318  0.7982
  612MOL0     C84325   9.910   7.674   4.715  0.4224 -0.0037 -0.3826
  612MOL0     O84326   9.846   7.678   4.595 -0.2365  0.4317  0.1056
  612MOL0     C84327   9.900   7.613   4.476 -0.4140  0.0924 -0.2537
  612MOL0     C84328   9.839   7.676   4.356 -0.2098 -0.8979 -0.0406
  612MOL0     C84329   9.895   7.621   4.217 -0.2303  0.3671 -0.3331
  612MOL0     C84330   9.838   7.702   4.098 -0.0905  0.4519  0.3889
  612MOL0     C84331   9.943   7.806   4.040 -0.6429  0.2615 -1.1390
  612MOL0     C84332   9.915   7.954   4.054 -1.0173 -0.3069  0.1676
  612MOL0     C84333   9.798   7.992   3.974  1.1596  0.7837 -0.8340
  612MOL0     C84334   9.727   8.115   4.022 -0.0433  0.7424  0.5863
  612MOL0     N84335   9.689   8.118   4.166 -0.2583 -0.0954 -0.1694
  612MOL0     C84336   9.656   8.015   4.251 -0.0008  0.5796 -0.1384
  612MOL0     C84337   9.641   8.093   4.364  0.7988  0.0754 -0.0856
  612MOL0     C84338   9.576   8.040   4.495 -1.3247 -0.4220 -0.5742
  612MOL0     C84339   9.661   8.093   4.612 -0.5457 -0.4253  0.4212
  612MOL0     C84340   9.608   8.042   4.746  0.3795 -0.4887  0.9340
  612MOL0     C84341   9.631   8.144   4.863 -0.5999  0.3506 -0.4903
  612MOL0     O84342   9.752   8.108   4.922 -0.0630  0.3604 -0.2935
  612MOL0     C84343   9.866   8.177   4.885  0.0552  0.1579 -0.6585
  612MOL0     C84344   9.982   8.097   4.917  0.9974  0.3478  0.0219
  612MOL0     C84345  10.109   8.133   4.873 -0.1819 -1.1887  0.4742
  612MOL0     C84346  10.221   8.047   4.917 -0.4864  1.2671  0.2061
  612MOL0     C84347  10.118   8.259   4.807 -0.5790  0.4011 -0.1887
  612MOL0     C84348  10.242   8.317   4.765 -1.0287 -0.2113  0.9518
  612MOL0     O84349  10.290   8.426   4.832 -0.0195  0.2815 -0.2969
  612MOL0     C84350  10.407   8.473   4.793 -1.3780 -0.4785  0.1797
  612MOL0     C84351  10.426   8.598   4.731 -0.7319 -0.1842 -0.5799
  612MOL0     C84352  10.555   8.654   4.704  0.2479  0.2093 -0.6943
  612MOL0     C84353  10.672   8.586   4.735  0.7628  0.3022 -0.8329
  612MOL0     O84354  10.789   8.631   4.713 -0.4593  0.3024 -0.0858
  612MOL0     C84355  10.864   8.556   4.613 -0.6108  0.0261 -0.3426
  612MOL0     C84356  11.021   8.595   4.607 -0.2611 -0.4373 -0.1485
  612MOL0     C84357  11.094   8.558   4.744 -0.4569  0.5214 -0.0468
  612MOL0     C84358  11.224   8.623   4.762 -0.1835 -0.4865 -0.3761
  612MOL0     C84359  11.299   8.563   4.887 -0.3284  0.5721 -0.3873
  612MOL0     C84360  11.310   8.404   4.892 -0.5801  0.3798 -0.5101
  612MOL0     C84361  11.374   8.356   5.027  0.1506 -0.2679  0.2048
  612MOL0     C84362  11.519   8.376   5.054 -0.0172 -0.2301  0.2973
  612MOL0    Cl84363  11.570   8.542   5.111  0.4457  0.3130 -0.0159
  612MOL0     C84364  10.649   8.457   4.780  0.3016  0.3379  0.0183
  612MOL0     C84365  10.520   8.403   4.808  1.0021  0.0766 -0.5494
  612MOL0     O84366  10.312   8.246   4.696  1.2237 -0.6203 -0.0403
  612MOL0     C84367  10.009   8.324   4.758  0.2193  0.4625 -0.0488
  612MOL0     C84368   9.884   8.295   4.815  0.7127  0.6395 -0.2738
  612MOL0     N84369   9.660   8.229   4.339  0.1994  0.0221  0.3687
  612MOL0     N84370   9.665   8.239   4.214 -0.5112 -0.7700 -0.0174
  612MOL0     C84371  10.035   7.609   4.735 -0.6057 -0.3032 -0.3168
  612MOL0     C84372  10.089   7.604   4.867  0.5483  0.0725 -0.2095
  612MOL0     C84373  10.208   7.594   5.285 -0.0634  0.5397 -1.0670
  612MOL0     C84374  10.276   7.715   5.312  1.0487  0.0337  1.1812
  612MOL0     C84375  10.344   7.744   5.430 -0.1873 -0.6593 -0.4297
  612MOL0     C84376  10.357   7.645   5.525  0.0680  0.1733 -0.2719
  612MOL0     O84377  10.445   7.679   5.628 -0.5195 -0.0749 -1.0312
  612MOL0     C84378  10.490   7.580   5.722  0.2022 -1.0519  0.0630
  612MOL0     C84379  10.386   7.564   5.839  0.1038 -0.0895  0.3190
  612MOL0     C84380  10.311   7.693   5.881 -0.3413 -0.8519  0.2905
  612MOL0     C84381  10.269   7.695   6.027 -0.5656 -0.1708  0.0737
  612MOL0     C84382  10.197   7.578   6.070  0.4384  1.0235  1.3962
  612MOL0     C84383  10.123   7.480   6.102 -0.5645 -0.3407  0.6155
  612MOL0     C84384  10.307   7.519   5.492  0.5419 -0.4411  0.6012
  612MOL0     C84385  10.231   7.491   5.383  0.1725 -0.2639  0.0401
  612MOL0     C84386  10.172   7.350   5.373 -0.2431  0.2090  0.8656
  612MOL0     H84387   9.840   7.788   5.021  0.8765  2.2938 -1.6131
  612MOL0     H84388   9.739   7.774   4.804 -0.5336 -0.6778 -2.4631
  612MOL0     H84389   9.887   7.507   4.501 -2.5080  0.7595  1.8337
  612MOL0     H84390  10.008   7.629   4.477 -0.2268 -1.0199  1.3934
  612MOL0     H84391   9.730   7.671   4.353 -0.1765 -1.8151 -2.4522
  612MOL0     H84392   9.870   7.781   4.354 -2.1687 -0.2659  0.5558
  612MOL0     H84393  10.004   7.627   4.206 -0.5633  1.4408 -4.5473
  612MOL0     H84394   9.870   7.514   4.211  1.5418 -0.0018 -2.4529
  612MOL0     H84395   9.808   7.634   4.017 -1.9684  0.7084  0.8373
  612MOL0     H84396   9.749   7.751   4.138  1.1673  1.1749  2.5114
  612MOL0     H84397   9.944   7.786   3.932  2.3793 -0.3570 -1.0746
  612MOL0     H84398  10.044   7.788   4.078 -0.7133  5.1735  2.4506
  612MOL0     H84399   9.909   7.978   4.160  4.8381  4.2306  0.0149
  612MOL0     H84400  10.001   8.007   4.011 -1.3856 -0.7984 -1.2533
  612MOL0     H84401   9.728   7.908   3.982  0.7997  1.0574 -1.0932
  612MOL0     H84402   9.820   8.002   3.867 -2.9392  0.2357 -1.9270
  612MOL0     H84403   9.790   8.199   3.990 -0.4328  0.9340  0.3173
  612MOL0     H84404   9.632   8.129   3.969 -0.1964  1.0869  0.9442
  612MOL0     H84405   9.653   7.909   4.228  3.2064  0.4920 -0.6686
  612MOL0     H84406   9.584   7.931   4.489  1.1031 -0.2322 -2.0851
  612MOL0     H84407   9.473   8.075   4.501 -1.4698 -0.9801  0.3541
  612MOL0     H84408   9.768   8.073   4.596 -0.0677 -0.9210  3.5720
  612MOL0     H84409   9.654   8.202   4.610  1.1187 -0.2341  1.8285
  612MOL0     H84410   9.500   8.040   4.731  0.3966  0.3472  0.6305
  612MOL0     H84411   9.656   7.944   4.757  0.6511 -0.3939  0.6071
  612MOL0     H84412   9.629   8.249   4.832  2.9419  0.5383 -0.4225
  612MOL0     H84413   9.557   8.145   4.943  2.2150  0.8035  2.2897
  612MOL0     H84414   9.971   8.003   4.970  4.8898 -1.4316 -1.8932
  612MOL0     H84415  10.309   8.107   4.941 -1.1460  2.3918 -0.0789
  612MOL0     H84416  10.241   7.974   4.839 -0.4968  1.4859 -0.0015
  612MOL0     H84417  10.189   8.010   5.015 -0.9511  3.1279  0.8184
  612MOL0     H84418  10.343   8.668   4.727 -1.0869 -0.4858  0.9137
  612MOL0     H84419  10.564   8.758   4.675  1.1357 -0.2863 -2.2939
  612MOL0     H84420  10.852   8.450   4.638 -0.3815  0.6303  2.8134
  612MOL0     H84421  10.814   8.582   4.520  2.8639  2.9111 -1.6628
  612MOL0     H84422  11.068   8.549   4.519 -3.3242  0.3960 -2.4092
  612MOL0     H84423  11.036   8.703   4.595  3.8336 -0.5661  1.9621
  612MOL0     H84424  11.102   8.449   4.748 -7.2328 -0.4212  0.2517
  612MOL0     H84425  11.033   8.588   4.830  0.1755 -2.1396  1.4258
  612MOL0     H84426  11.225   8.732   4.771 -0.0283 -0.6729  3.9639
  612MOL0     H84427  11.278   8.601   4.670 -1.6087 -0.7969 -1.1661
  612MOL0     H84428  11.396   8.613   4.882 -1.0516  2.4562  2.2431
  612MOL0     H84429  11.237   8.592   4.972 -4.9029  0.8584 -3.4819
  612MOL0     H84430  11.375   8.370   4.810  0.1158  1.6576 -0.5007
  612MOL0     H84431  11.209   8.362   4.898 -0.2814 -0.1356  1.5014
  612MOL0     H84432  11.350   8.251   5.048 -0.5159  0.1844  1.8140
  612MOL0     H84433  11.314   8.399   5.107 -0.6969 -2.2461  0.7011
  612MOL0     H84434  11.594   8.338   4.983 -1.0964 -0.1689 -0.9267
  612MOL0     H84435  11.524   8.319   5.147 -1.6493 -1.1452 -0.1269
  612MOL0     H84436  10.737   8.398   4.800  0.2698  0.5912  0.9805
  612MOL0     H84437  10.518   8.302   4.848 -2.9877 -0.4905 -1.7403
  612MOL0     H84438  10.022   8.412   4.696  0.5295 -0.6992 -1.7133
  612MOL0     H84439   9.809   8.357   4.767  0.2434 -0.4579 -0.9994
  612MOL0     H84440  10.084   7.555   4.654 -2.5026  0.8375 -2.3466
  612MOL0     H84441  10.187   7.561   4.887  1.3513  2.7133  2.3330
  612MOL0     H84442  10.273   7.799   5.244  2.1996 -1.6649 -1.1073
  612MOL0     H84443  10.396   7.836   5.452  1.3209 -1.4220 -0.6757
  612MOL0     H84444  10.516   7.480   5.686  2.9561 -0.8039  1.0670
  612MOL0     H84445  10.579   7.611   5.778  2.5192 -4.0727 -1.5836
  612MOL0     H84446  10.438   7.525   5.927 -0.6116 -0.0677  0.7627
  612MOL0     H84447  10.313   7.490   5.803 -0.1515 -0.0080  0.6576
  612MOL0     H84448  10.384   7.773   5.869  0.3561 -1.4636  0.3503
  612MOL0     H84449  10.224   7.716   5.819 -0.6238 -1.1081  0.5893
  612MOL0     H84450  10.209   7.786   6.041  0.1617  0.7149 -2.0847
  612MOL0     H84451  10.350   7.707   6.099 -1.6676  0.4116  1.2716
  612MOL0     H84452  10.079   7.393   6.145 -1.3171  0.5753  1.7547
  612MOL0     H84453  10.328   7.435   5.558  1.2360  0.1669  1.1694
  612MOL0     H84454  10.080   7.343   5.314 -0.5803 -0.9868  1.4896
  612MOL0     H84455  10.244   7.276   5.336  1.2234  1.6418  0.7723
  612MOL0     H84456  10.141   7.323   5.474  2.1381  0.8342  1.8286
  613MOL0     O84457   3.233   1.188   6.031 -0.0107 -0.5055 -0.8016
  613MOL0     C84458   3.297   1.213   6.135  0.3607 -0.2314  1.2926
  613MOL0     O84459   3.400   1.137   6.174  0.1254 -0.1117  0.0866
  613MOL0     C84460   3.503   1.131   6.087 -0.2505 -0.2800  0.0280
  613MOL0     C84461   3.542   1.245   6.020  0.2772 -1.5600  0.4277
  613MOL0     C84462   3.650   1.251   5.926 -0.6114 -0.5745  0.8073
  613MOL0     C84463   3.738   1.138   5.929  0.2853 -1.0553  0.0273
  613MOL0     O84464   3.857   1.143   5.865  0.4182  0.4803 -0.0719
  613MOL0     C84465   3.857   1.219   5.737 -0.7474  0.0823 -0.2535
  613MOL0     C84466   4.000   1.195   5.673  1.8403 -0.2212 -0.4587
  613MOL0     C84467   4.102   1.286   5.725  0.5747  0.6597  0.5711
  613MOL0     C84468   4.219   1.296   5.634 -0.3511  0.6144 -0.8790
  613MOL0     C84469   4.319   1.396   5.699  0.1418 -1.1131 -0.2282
  613MOL0     C84470   4.449   1.412   5.624 -0.8960  0.0795 -1.4044
  613MOL0     C84471   4.442   1.450   5.470 -0.6238  0.0720 -0.7080
  613MOL0     C84472   4.369   1.582   5.446 -0.1046 -0.1877  0.4716
  613MOL0     N84473   4.370   1.589   5.307  0.7709  0.4564  0.4477
  613MOL0     C84474   4.262   1.646   5.253  0.6388 -0.0951 -0.4696
  613MOL0     C84475   4.295   1.702   5.137  0.5787 -0.7967  0.5204
  613MOL0     C84476   4.217   1.808   5.071  0.5346  0.2881  0.9080
  613MOL0     C84477   4.270   1.852   4.937  0.9106  0.1677 -0.5815
  613MOL0     C84478   4.186   1.953   4.852 -0.7165 -1.1564  0.3786
  613MOL0     C84479   4.259   1.985   4.718  0.4481  0.6672  0.4257
  613MOL0     O84480   4.242   1.873   4.632  0.5101 -0.2977  0.8295
  613MOL0     C84481   4.261   1.890   4.500  0.3540  0.0878 -0.6955
  613MOL0     C84482   4.244   1.776   4.427  0.2086 -0.4092 -0.2568
  613MOL0     C84483   4.249   1.773   4.283 -0.2028  0.2484 -0.2428
  613MOL0     C84484   4.208   1.647   4.211  0.2016 -0.7636 -0.2318
  613MOL0     C84485   4.287   1.888   4.206 -0.1391  0.2531 -0.0011
  613MOL0     C84486   4.276   1.906   4.060 -0.2565  0.3948  0.2215
  613MOL0     O84487   4.194   1.834   3.983  0.4292 -0.6410  0.3051
  613MOL0     C84488   4.184   1.843   3.846 -0.2462  0.7598 -0.1253
  613MOL0     C84489   4.060   1.834   3.790  0.5280 -0.7526 -0.2333
  613MOL0     C84490   4.034   1.865   3.655 -0.2841  0.4504 -0.9509
  613MOL0     C84491   4.138   1.897   3.571  0.4881 -0.4435  0.3755
  613MOL0     O84492   4.124   1.928   3.440  0.7897 -0.5423 -0.2672
  613MOL0     C84493   4.001   1.885   3.383 -0.1724 -0.7321  0.3705
  613MOL0     C84494   3.882   1.995   3.388 -1.1532 -1.1398  0.7426
  613MOL0     C84495   3.944   2.132   3.342 -0.6905  0.2013  0.2913
  613MOL0     C84496   3.845   2.233   3.310  0.8547  0.8363 -0.0458
  613MOL0     C84497   3.919   2.357   3.267  0.2463 -0.3469  0.2159
  613MOL0     C84498   3.831   2.457   3.189  1.4390  0.0633  0.0572
  613MOL0     C84499   3.698   2.514   3.248 -0.0530 -0.2577 -0.4535
  613MOL0     C84500   3.621   2.594   3.142 -0.8854 -0.4616 -1.3066
  613MOL0    Cl84501   3.724   2.696   3.030 -0.3683  0.0841  0.0847
  613MOL0     C84502   4.270   1.901   3.619 -0.2504 -1.0747  0.7400
  613MOL0     C84503   4.287   1.874   3.752 -0.6169  0.8729 -0.3987
  613MOL0     O84504   4.366   1.982   4.021 -0.0703 -0.4084 -0.6411
  613MOL0     C84505   4.311   2.001   4.285 -0.0862 -0.5158  0.4910
  613MOL0     C84506   4.309   1.993   4.421 -0.2055  0.6241  0.0380
  613MOL0     N84507   4.432   1.680   5.121 -0.1476  0.0491  0.1373
  613MOL0     N84508   4.471   1.608   5.223  0.2334  0.2726 -0.1467
  613MOL0     C84509   3.700   1.022   5.995  0.3656 -0.3388 -0.0723
  613MOL0     C84510   3.581   1.017   6.072 -0.6914  0.5823 -0.2253
  613MOL0     C84511   3.252   1.320   6.226 -0.7549 -0.2683  0.2878
  613MOL0     C84512   3.358   1.376   6.304  0.4513  0.4021  0.0732
  613MOL0     C84513   3.338   1.465   6.405  0.3675  0.0136 -0.3468
  613MOL0     C84514   3.219   1.535   6.418 -0.2653 -0.2269 -0.5395
  613MOL0     O84515   3.194   1.639   6.499  0.0627 -0.8667  0.3199
  613MOL0     C84516   3.307   1.733   6.541  0.3371  0.1269 -0.3345
  613MOL0     C84517   3.339   1.829   6.426  0.0437  0.1738 -0.2919
  613MOL0     C84518   3.412   1.955   6.471 -0.5800 -0.1349  0.9126
  613MOL0     C84519   3.325   2.082   6.488  0.0223 -0.6377  0.2716
  613MOL0     C84520   3.242   2.065   6.599  1.0698  0.0679 -0.6495
  613MOL0     C84521   3.176   2.036   6.699 -0.1326 -0.6239 -0.5424
  613MOL0     C84522   3.116   1.490   6.335 -0.0295 -0.4094  0.5636
  613MOL0     C84523   3.125   1.383   6.239 -0.2831  0.5249  0.0886
  613MOL0     C84524   3.005   1.340   6.158 -0.9642  0.1363  0.5282
  613MOL0     H84525   3.500   1.340   6.050  0.6111 -1.4082  0.4158
  613MOL0     H84526   3.683   1.333   5.863  4.0825 -3.6066 -1.3149
  613MOL0     H84527   3.829   1.325   5.740  1.7692  0.8178 -0.3691
  613MOL0     H84528   3.793   1.154   5.676  0.1688 -2.3405  1.2239
  613MOL0     H84529   4.042   1.094   5.666  2.5559  0.1762 -3.7399
  613MOL0     H84530   3.984   1.212   5.566 -1.9671 -2.0954 -0.3637
  613MOL0     H84531   4.070   1.391   5.725  1.4267  0.9464 -0.8613
  613MOL0     H84532   4.132   1.266   5.828 -2.3098  2.1854  1.8266
  613MOL0     H84533   4.262   1.200   5.603  2.6159  1.6713 -0.4321
  613MOL0     H84534   4.183   1.340   5.541 -0.7819  2.5908  0.1765
  613MOL0     H84535   4.344   1.360   5.799  1.2034 -2.8348 -1.0570
  613MOL0     H84536   4.261   1.487   5.719 -1.8621 -2.5954  1.0335
  613MOL0     H84537   4.494   1.496   5.678 -0.1601 -0.1227 -1.6917
  613MOL0     H84538   4.515   1.325   5.629 -1.3510 -0.2683 -1.4112
  613MOL0     H84539   4.381   1.373   5.421  0.4436 -0.3044 -1.4807
  613MOL0     H84540   4.545   1.450   5.434 -0.4745  1.0708 -0.3355
  613MOL0     H84541   4.266   1.591   5.483  0.2955  1.5432  1.2923
  613MOL0     H84542   4.426   1.669   5.479 -0.8736  0.4793  0.0763
  613MOL0     H84543   4.167   1.669   5.301  1.3739  1.0923  0.4730
  613MOL0     H84544   4.216   1.895   5.137 -0.8378  1.2775 -0.3605
  613MOL0     H84545   4.110   1.783   5.067  0.2299  0.5595  4.5227
  613MOL0     H84546   4.360   1.908   4.963  3.1752 -3.7132  0.8149
  613MOL0     H84547   4.296   1.759   4.885 -1.3715 -0.7088 -0.3021
  613MOL0     H84548   4.083   1.917   4.850 -0.6390 -1.4939  1.7015
  613MOL0     H84549   4.191   2.049   4.904  1.7136 -0.2565 -1.3071
  613MOL0     H84550   4.231   2.081   4.675  0.9752 -0.4024 -2.5330
  613MOL0     H84551   4.364   1.995   4.748  1.0889  0.4645 -1.5744
  613MOL0     H84552   4.207   1.683   4.471  0.6521 -0.1607  0.6569
  613MOL0     H84553   4.217   1.563   4.280 -0.9896 -1.5567 -1.0161
  613MOL0     H84554   4.283   1.626   4.134 -0.2614 -3.2448 -0.0957
  613MOL0     H84555   4.102   1.648   4.184  0.4323  0.0265 -1.2040
  613MOL0     H84556   3.965   1.809   3.837 -1.6784  0.9910 -3.3551
  613MOL0     H84557   3.932   1.848   3.625 -0.5370  1.8303 -0.9485
  613MOL0     H84558   4.030   1.888   3.277  1.7608  1.0829  0.8820
  613MOL0     H84559   3.971   1.784   3.412  1.7378 -1.3498  0.3012
  613MOL0     H84560   3.808   1.967   3.313  1.0310 -1.8164 -1.3125
  613MOL0     H84561   3.830   1.990   3.484 -0.3439 -2.9006  1.1372
  613MOL0     H84562   4.004   2.110   3.253  0.1276  2.0059  0.3583
  613MOL0     H84563   4.014   2.165   3.419  1.6076 -1.8527 -0.7720
  613MOL0     H84564   3.775   2.257   3.390 -0.3470  1.3734 -1.2264
  613MOL0     H84565   3.784   2.194   3.228  0.3095  0.2021  0.6580
  613MOL0     H84566   3.956   2.400   3.361  1.2008  1.6381 -1.0073
  613MOL0     H84567   3.998   2.335   3.195 -2.7915 -1.5111 -3.0423
  613MOL0     H84568   3.806   2.406   3.096  1.4183 -0.7915  0.5187
  613MOL0     H84569   3.904   2.537   3.171 -0.8504  2.6217  1.5226
  613MOL0     H84570   3.730   2.579   3.331  3.8964 -1.5332 -0.7294
  613MOL0     H84571   3.637   2.429   3.281  1.1165 -1.4886 -1.3399
  613MOL0     H84572   3.537   2.651   3.181 -0.2305 -0.6661  0.4993
  613MOL0     H84573   3.579   2.525   3.067 -2.4461  0.7146 -1.5582
  613MOL0     H84574   4.347   1.934   3.550 -0.6378 -0.3179  0.6601
  613MOL0     H84575   4.390   1.858   3.784 -1.0756 -2.4059 -0.2755
  613MOL0     H84576   4.328   2.098   4.240 -2.3782 -0.4095 -0.2626
  613MOL0     H84577   4.335   2.078   4.483  1.4223 -1.0377  1.7670
  613MOL0     H84578   3.765   0.935   5.987  0.6636 -0.0399 -0.9804
  613MOL0     H84579   3.557   0.934   6.139  1.0933  0.7676  0.7059
  613MOL0     H84580   3.445   1.313   6.324 -0.1473  0.0631  1.8839
  613MOL0     H84581   3.420   1.488   6.472  2.0763  0.4046 -2.4617
  613MOL0     H84582   3.283   1.791   6.630  1.5549 -1.2646  0.9642
  613MOL0     H84583   3.395   1.675   6.572 -0.4761 -0.3410  1.2095
  613MOL0     H84584   3.251   1.852   6.365  1.3341  3.1029 -1.1931
  613MOL0     H84585   3.409   1.783   6.355 -1.9998 -0.6936 -1.8973
  613MOL0     H84586   3.466   1.923   6.561  1.5025 -1.7877 -0.8005
  613MOL0     H84587   3.494   1.988   6.406 -2.2622  0.4011 -1.0761
  613MOL0     H84588   3.271   2.116   6.399 -4.9098 -1.0998  2.7132
  613MOL0     H84589   3.387   2.167   6.518  0.4876 -0.7211 -0.4455
  613MOL0     H84590   3.104   2.025   6.778 -2.0163  1.3386 -1.8666
  613MOL0     H84591   3.019   1.538   6.348 -0.1715  0.6192 -3.1245
  613MOL0     H84592   2.917   1.353   6.222  1.1821 -2.0110  4.3230
  613MOL0     H84593   2.990   1.409   6.075  0.3427  4.7436  3.7197
  613MOL0     H84594   3.016   1.241   6.113 -2.8250 -0.3192  0.9951
  614MOL0     O84595   7.644  11.377   3.324 -0.4493 -0.3199  0.0390
  614MOL0     C84596   7.731  11.298   3.339  0.1394  0.3436 -0.2575
  614MOL0     O84597   7.717  11.170   3.386  0.4520 -0.0560  0.2899
  614MOL0     C84598   7.598  11.109   3.405  0.0949  0.7610  0.1090
  614MOL0     C84599   7.490  11.122   3.318 -0.0533  0.1329  0.4681
  614MOL0     C84600   7.365  11.056   3.343  0.1090  0.0051 -0.0041
  614MOL0     C84601   7.346  10.988   3.460  0.6590 -0.0227 -1.0896
  614MOL0     O84602   7.211  10.939   3.474 -0.6174 -0.3930 -0.5459
  614MOL0     C84603   7.192  10.883   3.606 -0.1765  0.5273 -0.9579
  614MOL0     C84604   7.050  10.866   3.632  0.0745 -1.1191 -0.2538
  614MOL0     C84605   7.021  10.822   3.778  0.0409 -0.2319 -0.1422
  614MOL0     C84606   7.033  10.678   3.817  0.0437 -0.8337 -0.5607
  614MOL0     C84607   6.990  10.639   3.957 -0.6882  1.2231  0.1541
  614MOL0     C84608   7.103  10.601   4.052 -0.4799  0.7333  0.5680
  614MOL0     C84609   7.053  10.577   4.187 -0.8768  0.5048 -0.4019
  614MOL0     C84610   7.040  10.708   4.269  0.2861  0.1748 -0.5377
  614MOL0     N84611   7.171  10.768   4.292 -0.6207  0.9701  0.2618
  614MOL0     C84612   7.280  10.721   4.366 -1.0430 -0.3019 -0.0253
  614MOL0     C84613   7.381  10.816   4.339 -0.1214  0.2003  0.1294
  614MOL0     C84614   7.526  10.817   4.389 -0.3399 -0.7918  0.5432
  614MOL0     C84615   7.526  10.872   4.535 -0.6081 -0.2903 -0.0096
  614MOL0     C84616   7.663  10.897   4.581  0.5240 -0.5131  0.4309
  614MOL0     C84617   7.679  10.966   4.712  0.7115 -0.5945  1.5080
  614MOL0     O84618   7.824  10.940   4.731  0.6596 -1.0568 -0.3306
  614MOL0     C84619   7.878  10.983   4.851 -0.3108  1.1118  0.1793
  614MOL0     C84620   7.829  11.082   4.943  0.0885  0.7908  0.0458
  614MOL0     C84621   7.899  11.123   5.060 -0.2087 -1.1748  0.3233
  614MOL0     C84622   7.847  11.234   5.134  0.9393 -0.8181 -0.7533
  614MOL0     C84623   8.016  11.050   5.096 -0.5327  0.6759 -0.3265
  614MOL0     C84624   8.095  11.067   5.224  0.1268  0.0231 -0.7939
  614MOL0     O84625   8.020  11.107   5.339  0.1902 -0.1927  0.0410
  614MOL0     C84626   8.078  11.135   5.466  0.8665 -0.0966  0.2082
  614MOL0     C84627   8.023  11.243   5.522 -0.1744  0.7035 -0.7185
  614MOL0     C84628   8.060  11.270   5.650  0.4758  0.3449  0.0524
  614MOL0     C84629   8.168  11.208   5.713  0.4202 -0.5156 -0.6000
  614MOL0     O84630   8.215  11.239   5.844 -0.5709 -0.1513 -0.4443
  614MOL0     C84631   8.231  11.383   5.867 -0.2785  0.6734  0.6547
  614MOL0     C84632   8.111  11.430   5.962 -0.2018 -0.1285  0.5806
  614MOL0     C84633   8.104  11.586   5.959 -0.0338  0.6132 -0.1896
  614MOL0     C84634   8.001  11.648   6.050 -0.3790  0.5095  0.0198
  614MOL0     C84635   7.971  11.791   6.018 -0.0615 -0.6247  0.0916
  614MOL0     C84636   7.843  11.843   6.086  0.1645  0.2507 -0.1288
  614MOL0     C84637   7.847  11.801   6.235  0.2972  1.2289  0.6773
  614MOL0     C84638   7.940  11.893   6.317 -0.8576 -0.1544  0.3744
  614MOL0    Cl84639   7.905  11.846   6.485  0.2458  0.2637 -0.1996
  614MOL0     C84640   8.222  11.101   5.650  0.2946  0.5990 -0.4435
  614MOL0     C84641   8.181  11.059   5.521  1.3627 -0.2371 -0.5809
  614MOL0     O84642   8.217  11.052   5.229  0.2426  0.3523  0.2998
  614MOL0     C84643   8.063  10.953   5.007  1.2351 -0.3379 -0.2460
  614MOL0     C84644   7.991  10.913   4.895 -1.2482 -0.7491 -0.0070
  614MOL0     N84645   7.332  10.913   4.245  1.1352 -0.9986  0.5019
  614MOL0     N84646   7.212  10.879   4.226 -0.7200 -0.1418 -0.2669
  614MOL0     C84647   7.455  10.980   3.553  0.4725  0.1840 -0.2709
  614MOL0     C84648   7.580  11.037   3.526 -0.3184 -0.7660 -0.0103
  614MOL0     C84649   7.865  11.337   3.308  0.1424  1.1518  0.0769
  614MOL0     C84650   7.902  11.364   3.172  1.4262 -0.0176 -0.0356
  614MOL0     C84651   8.035  11.384   3.129  0.0420 -0.3928 -0.5098
  614MOL0     C84652   8.145  11.375   3.227 -0.1961 -0.8576 -1.4285
  614MOL0     O84653   8.277  11.404   3.216  0.1145 -0.3265  0.4126
  614MOL0     C84654   8.324  11.447   3.080 -0.5204  0.2142 -0.1958
  614MOL0     C84655   8.334  11.602   3.082 -0.5569 -0.6079 -0.3273
  614MOL0     C84656   8.464  11.660   3.156 -0.8409 -0.0423 -0.7115
  614MOL0     C84657   8.601  11.629   3.081 -0.0267 -0.3751 -1.3718
  614MOL0     C84658   8.704  11.680   3.163  0.5187 -0.4020 -0.5250
  614MOL0     C84659   8.803  11.702   3.225 -0.6347 -0.6356 -0.2875
  614MOL0     C84660   8.101  11.337   3.354 -0.1583  1.2119 -0.3518
  614MOL0     C84661   7.965  11.321   3.394 -0.1743 -0.1529 -0.0672
  614MOL0     C84662   7.940  11.301   3.537 -0.0218  0.5719 -0.0333
  614MOL0     H84663   7.502  11.190   3.235  1.2707 -0.4303  0.1823
  614MOL0     H84664   7.284  11.077   3.274  1.9957  2.5139 -1.6495
  614MOL0     H84665   7.240  10.946   3.682  4.1923  0.1714 -3.1269
  614MOL0     H84666   7.246  10.788   3.615  0.5546  1.1199  2.2461
  614MOL0     H84667   7.020  10.971   3.631  1.6961 -0.5850 -3.2227
  614MOL0     H84668   7.000  10.808   3.555 -1.0138 -0.3067 -0.1767
  614MOL0     H84669   7.080  10.877   3.852  0.1822 -0.3523 -0.1657
  614MOL0     H84670   6.916  10.851   3.784 -0.9244 -3.7157  3.1148
  614MOL0     H84671   6.977  10.617   3.745 -0.3568  2.6881 -3.5315
  614MOL0     H84672   7.141  10.669   3.807  0.2475  0.0969  0.5614
  614MOL0     H84673   6.920  10.555   3.956  2.4819 -1.7225 -2.5875
  614MOL0     H84674   6.933  10.713   4.013 -1.4055  0.7632  0.0466
  614MOL0     H84675   7.156  10.514   4.013 -2.8022  0.2229 -1.7668
  614MOL0     H84676   7.171  10.686   4.048 -0.2913  0.5444 -1.2999
  614MOL0     H84677   7.121  10.529   4.257 -2.7391 -1.0261  0.4374
  614MOL0     H84678   6.954  10.530   4.186 -1.5921  1.9171  0.3675
  614MOL0     H84679   6.964  10.771   4.223  1.3240  2.3680  0.6229
  614MOL0     H84680   7.013  10.682   4.371  5.6254  0.3176  1.2080
  614MOL0     H84681   7.301  10.641   4.435  0.3272 -0.3182 -0.4278
  614MOL0     H84682   7.588  10.887   4.332 -0.2377  1.0460  2.7258
  614MOL0     H84683   7.565  10.716   4.377  1.0788 -0.1023 -1.1721
  614MOL0     H84684   7.475  10.964   4.565  0.0525 -0.7404  2.7797
  614MOL0     H84685   7.463  10.799   4.587 -1.2069  1.5358  1.9291
  614MOL0     H84686   7.716  10.802   4.568 -1.9669 -1.6367 -2.8521
  614MOL0     H84687   7.704  10.979   4.521 -1.0625 -0.4141 -0.5671
  614MOL0     H84688   7.644  11.069   4.697  0.8582 -0.1597  3.8439
  614MOL0     H84689   7.615  10.921   4.788  0.4988 -0.8643  1.1694
  614MOL0     H84690   7.738  11.130   4.910 -1.5610 -1.8796  0.4338
  614MOL0     H84691   7.914  11.321   5.136 -0.3370  0.1917  0.4178
  614MOL0     H84692   7.845  11.208   5.240 -0.1576  4.0280  0.6714
  614MOL0     H84693   7.745  11.262   5.108  0.2574  0.3906  2.6634
  614MOL0     H84694   7.941  11.296   5.474 -1.6373 -0.0911  0.7859
  614MOL0     H84695   8.018  11.351   5.707 -0.2167 -2.2822  3.6559
  614MOL0     H84696   8.325  11.402   5.920 -0.1632  1.6693  0.1226
  614MOL0     H84697   8.234  11.431   5.769  3.4711 -0.9344 -0.1757
  614MOL0     H84698   8.010  11.395   5.938 -0.6862 -0.8900  3.3379
  614MOL0     H84699   8.133  11.393   6.063 -4.6324 -2.0096  1.0881
  614MOL0     H84700   8.112  11.633   5.860  0.8679  1.0309  0.0681
  614MOL0     H84701   8.203  11.614   5.997 -0.2489  1.9022 -0.5479
  614MOL0     H84702   8.048  11.646   6.149 -1.2937 -0.3372  0.4459
  614MOL0     H84703   7.909  11.591   6.035 -0.8083  0.9312  0.9325
  614MOL0     H84704   8.054  11.855   6.050 -1.3881  0.3047  1.9208
  614MOL0     H84705   7.966  11.804   5.910 -2.2645  0.8053  0.2934
  614MOL0     H84706   7.753  11.803   6.039 -0.5832  2.3363 -0.5624
  614MOL0     H84707   7.838  11.949   6.061  0.8316 -0.0648 -1.7250
  614MOL0     H84708   7.873  11.696   6.252  4.0345  2.2754  2.3493
  614MOL0     H84709   7.743  11.820   6.263 -0.3508  0.7041 -1.1843
  614MOL0     H84710   7.899  11.994   6.307  2.3240  1.0565 -3.8132
  614MOL0     H84711   8.044  11.898   6.282 -0.4855  2.8864  1.6558
  614MOL0     H84712   8.282  11.031   5.708 -1.4918 -0.9944 -0.4170
  614MOL0     H84713   8.208  10.968   5.467  0.4403 -1.2521  0.5939
  614MOL0     H84714   8.161  10.907   5.019  1.9063  0.9688 -0.4906
  614MOL0     H84715   8.043  10.843   4.830 -1.7443 -1.6925  0.5951
  614MOL0     H84716   7.444  10.938   3.653  0.9719 -0.3382 -0.4305
  614MOL0     H84717   7.665  11.025   3.593  0.2063  1.0963 -0.2699
  614MOL0     H84718   7.825  11.368   3.095  0.8182 -0.5221  0.5320
  614MOL0     H84719   8.052  11.403   3.024  0.0491 -0.6199 -0.5505
  614MOL0     H84720   8.427  11.415   3.063 -1.1558 -2.0761 -0.0453
  614MOL0     H84721   8.264  11.418   2.994 -1.4373 -1.5714  0.9672
  614MOL0     H84722   8.250  11.656   3.128 -0.1129  2.5586 -2.8824
  614MOL0     H84723   8.326  11.646   2.983 -1.6548  1.0012  0.4291
  614MOL0     H84724   8.474  11.766   3.182  4.9950 -1.0789  3.2123
  614MOL0     H84725   8.454  11.624   3.259 -2.9627  1.9403 -0.1392
  614MOL0     H84726   8.626  11.685   2.991  3.7755 -0.2151 -0.3540
  614MOL0     H84727   8.610  11.522   3.059 -0.2015 -0.8766  0.7424
  614MOL0     H84728   8.897  11.712   3.275  1.0862 -2.0175 -3.0005
  614MOL0     H84729   8.177  11.329   3.431 -0.6084 -2.0745 -0.1404
  614MOL0     H84730   8.009  11.358   3.600 -0.2009  1.3211 -0.4987
  614MOL0     H84731   7.842  11.342   3.564 -1.1295 -0.5613 -2.0847
  614MOL0     H84732   7.955  11.195   3.559 -0.1862  0.0740 -2.1609
  615MOL0     O84733   2.172  11.478   5.012 -0.0004  0.6464  0.5676
  615MOL0     C84734   2.218  11.585   5.055 -0.1900  0.1540  0.3212
  615MOL0     O84735   2.207  11.710   5.005 -0.1634 -1.3805 -0.0650
  615MOL0     C84736   2.116  11.730   4.911 -0.1425 -0.1920  0.2189
  615MOL0     C84737   2.161  11.800   4.794 -0.3408  0.3237 -0.9122
  615MOL0     C84738   2.075  11.822   4.681 -0.6734 -0.6272 -0.5417
  615MOL0     C84739   1.938  11.789   4.693  0.0812 -0.4311  0.2089
  615MOL0     O84740   1.859  11.827   4.586 -0.2718  0.2373  0.4457
  615MOL0     C84741   1.727  11.889   4.610 -0.6341  1.0600 -0.6019
  615MOL0     C84742   1.607  11.816   4.539  0.2784 -0.0930 -0.5230
  615MOL0     C84743   1.563  11.693   4.605  0.3223  0.9040 -0.2099
  615MOL0     C84744   1.630  11.571   4.536 -0.8873 -0.7495 -0.8437
  615MOL0     C84745   1.591  11.439   4.616  1.3518 -1.0344 -0.0353
  615MOL0     C84746   1.438  11.401   4.623  0.3586 -0.3569  0.2442
  615MOL0     C84747   1.400  11.257   4.668 -0.2639 -0.5055  0.2842
  615MOL0     C84748   1.244  11.250   4.708 -0.0087 -0.5057  0.5681
  615MOL0     N84749   1.198  11.349   4.802  0.8205  1.1369 -0.1147
  615MOL0     C84750   1.270  11.407   4.905 -0.6054 -0.3577 -0.4037
  615MOL0     C84751   1.180  11.485   4.966 -0.1864 -0.1504  0.2680
  615MOL0     C84752   1.234  11.580   5.070  0.7957  0.4054 -0.0754
  615MOL0     C84753   1.115  11.632   5.148  0.4872  0.0160 -0.9593
  615MOL0     C84754   1.138  11.740   5.261  0.4321 -0.1414 -0.1752
  615MOL0     C84755   1.252  11.702   5.342 -0.0337  0.1482  0.7921
  615MOL0     O84756   1.370  11.745   5.279 -0.1749 -0.2670 -0.0432
  615MOL0     C84757   1.490  11.704   5.333 -0.9141 -0.5702  0.1784
  615MOL0     C84758   1.613  11.734   5.267  0.6519 -0.3364  0.6335
  615MOL0     C84759   1.743  11.699   5.327 -0.2858  0.0957 -0.4770
  615MOL0     C84760   1.861  11.724   5.241  0.3119 -0.8482 -0.0401
  615MOL0     C84761   1.746  11.642   5.462  0.2666 -0.7499  0.2750
  615MOL0     C84762   1.874  11.594   5.527 -0.7790 -1.1729  0.3608
  615MOL0     O84763   1.858  11.531   5.642  0.5833  0.9305  0.0888
  615MOL0     C84764   1.954  11.504   5.733 -0.8371 -0.2780 -1.8464
  615MOL0     C84765   2.089  11.545   5.736  0.7892 -0.0503  0.9082
  615MOL0     C84766   2.168  11.543   5.844  0.0702  0.3685  0.6092
  615MOL0     C84767   2.112  11.494   5.964 -1.1880  0.6348  0.2088
  615MOL0     O84768   2.193  11.464   6.074  0.7167  0.0404  0.6123
  615MOL0     C84769   2.328  11.458   6.060 -0.1680  0.0610 -0.2530
  615MOL0     C84770   2.380  11.373   6.171  0.4475 -0.3963  0.8357
  615MOL0     C84771   2.528  11.364   6.162 -0.4925  0.0464 -0.5403
  615MOL0     C84772   2.572  11.325   6.306 -0.3900  0.3509  0.9066
  615MOL0     C84773   2.730  11.303   6.301  0.2191 -0.2169 -0.0288
  615MOL0     C84774   2.773  11.147   6.306  0.9122 -1.0467 -0.1389
  615MOL0     C84775   2.919  11.104   6.271  0.5998 -1.0660 -0.6394
  615MOL0     C84776   3.010  11.209   6.336  0.0006 -0.6910 -0.3023
  615MOL0    Cl84777   3.174  11.151   6.289  0.1990  0.2976 -0.3980
  615MOL0     C84778   1.984  11.451   5.971 -0.1717 -0.6398  0.0960
  615MOL0     C84779   1.909  11.456   5.853  0.3653 -0.3294 -0.1526
  615MOL0     O84780   1.981  11.633   5.488  0.7480  0.7056 -0.7735
  615MOL0     C84781   1.627  11.621   5.529 -0.3495  0.5232  0.6892
  615MOL0     C84782   1.507  11.654   5.468  0.7456 -0.1570 -0.3231
  615MOL0     N84783   1.049  11.475   4.905  1.1821  0.2905 -0.7039
  615MOL0     N84784   1.068  11.381   4.819  0.0494  0.4136 -0.0086
  615MOL0     C84785   1.893  11.715   4.799 -0.8026 -0.4660 -0.1606
  615MOL0     C84786   1.977  11.696   4.905 -0.3456  0.5126  0.3163
  615MOL0     C84787   2.312  11.566   5.170  0.6058 -0.0368  0.3288
  615MOL0     C84788   2.428  11.651   5.174  0.0089  0.5526  0.4394
  615MOL0     C84789   2.517  11.649   5.283 -0.5080 -0.5484 -0.9353
  615MOL0     C84790   2.486  11.561   5.389 -0.6129  0.7381  0.1571
  615MOL0     O84791   2.567  11.539   5.497  0.5280  0.0011  0.3310
  615MOL0     C84792   2.698  11.600   5.514  0.6360 -0.0544 -0.6671
  615MOL0     C84793   2.782  11.532   5.628  0.2343 -0.2745  0.1135
  615MOL0     C84794   2.870  11.424   5.572 -0.0045  0.5019  0.8405
  615MOL0     C84795   2.963  11.382   5.677  1.1840 -0.7620  0.1130
  615MOL0     C84796   2.893  11.309   5.791 -0.1594 -0.5670  0.2210
  615MOL0     C84797   2.844  11.245   5.887  0.2478  0.1708  0.2940
  615MOL0     C84798   2.360  11.490   5.388 -0.2705 -0.3820 -0.0265
  615MOL0     C84799   2.280  11.487   5.277  0.5626 -0.4542  0.4011
  615MOL0     C84800   2.162  11.390   5.284  0.4463 -0.4457  2.0166
  615MOL0     H84801   2.264  11.835   4.800 -0.5841  0.8494  0.7205
  615MOL0     H84802   2.102  11.893   4.603  0.2541  2.6185  2.4887
  615MOL0     H84803   1.722  11.988   4.562  0.1549  2.4185  1.9200
  615MOL0     H84804   1.689  11.896   4.712 -1.9421  0.7268 -1.0486
  615MOL0     H84805   1.521  11.882   4.545 -1.1651 -1.9764  0.5156
  615MOL0     H84806   1.623  11.807   4.431  0.8855 -0.6618 -0.3971
  615MOL0     H84807   1.582  11.697   4.713  0.2551 -0.4554 -0.1318
  615MOL0     H84808   1.454  11.695   4.594  0.0853  2.5369  1.6992
  615MOL0     H84809   1.620  11.577   4.428  0.6370 -0.2388 -0.9775
  615MOL0     H84810   1.737  11.590   4.547 -1.5077  2.3379  1.1754
  615MOL0     H84811   1.641  11.432   4.713  1.3274 -0.6654  0.0050
  615MOL0     H84812   1.648  11.361   4.565  1.4723 -1.3096  0.5096
  615MOL0     H84813   1.395  11.476   4.690 -0.3498 -2.3301  2.1191
  615MOL0     H84814   1.395  11.418   4.524  2.0687 -0.4382 -0.5543
  615MOL0     H84815   1.458  11.228   4.756 -0.8046 -2.8607 -0.0821
  615MOL0     H84816   1.416  11.186   4.587  0.7970 -1.9818  1.7307
  615MOL0     H84817   1.185  11.271   4.619 -2.5036  3.2256  2.8612
  615MOL0     H84818   1.225  11.149   4.747 -0.2414 -1.5371 -2.0047
  615MOL0     H84819   1.377  11.393   4.917 -0.5773  0.0029 -0.1945
  615MOL0     H84820   1.277  11.670   5.027  3.3043  0.3850  2.1473
  615MOL0     H84821   1.307  11.525   5.130 -0.8538 -2.7136 -0.7323
  615MOL0     H84822   1.043  11.676   5.079  0.0367 -0.4770 -0.8073
  615MOL0     H84823   1.068  11.549   5.201  0.7471 -0.4541 -1.4617
  615MOL0     H84824   1.152  11.839   5.217 -0.6034 -0.2252 -0.7288
  615MOL0     H84825   1.043  11.750   5.315  0.0573  1.6875 -1.1030
  615MOL0     H84826   1.252  11.750   5.440 -1.4437  1.5875  0.1501
  615MOL0     H84827   1.243  11.594   5.357  0.1782  0.2595  1.7707
  615MOL0     H84828   1.618  11.779   5.168  0.1902  1.0637  1.2295
  615MOL0     H84829   1.826  11.755   5.142 -0.7500  1.9683  1.1027
  615MOL0     H84830   1.917  11.631   5.224  4.6110  0.7319  3.5198
  615MOL0     H84831   1.933  11.793   5.285 -0.7452 -0.2004  0.7127
  615MOL0     H84832   2.135  11.601   5.656  0.5870 -2.0641 -0.7310
  615MOL0     H84833   2.274  11.564   5.843  0.7519 -2.7077 -1.1787
  615MOL0     H84834   2.368  11.416   5.967  1.6760  0.6526  0.2321
  615MOL0     H84835   2.360  11.562   6.074 -1.9940  0.5201  0.8698
  615MOL0     H84836   2.344  11.414   6.266 -0.2861  0.4639  0.2060
  615MOL0     H84837   2.347  11.269   6.162  2.5855 -0.9341 -3.9844
  615MOL0     H84838   2.580  11.454   6.127  0.5603  0.2991  1.4828
  615MOL0     H84839   2.557  11.285   6.092  2.4899  0.5233 -0.0016
  615MOL0     H84840   2.509  11.237   6.326  0.0519 -0.0999  0.3676
  615MOL0     H84841   2.549  11.397   6.384 -0.5155  1.4300 -0.0964
  615MOL0     H84842   2.778  11.350   6.215  2.5970  0.6348  1.6541
  615MOL0     H84843   2.773  11.337   6.395 -0.8703 -1.7595  1.0826
  615MOL0     H84844   2.705  11.093   6.239 -3.0754  2.4023  0.6827
  615MOL0     H84845   2.755  11.108   6.407  1.1077 -0.7932 -0.0078
  615MOL0     H84846   2.933  11.102   6.162 -0.2930 -2.7620 -0.7702
  615MOL0     H84847   2.940  11.004   6.310  2.7241 -0.5823 -0.4324
  615MOL0     H84848   2.997  11.211   6.445  2.6941 -0.9152  0.0922
  615MOL0     H84849   3.002  11.309   6.293  1.6618 -1.6009 -2.9449
  615MOL0     H84850   1.938  11.412   6.061 -1.3473  1.6716  0.5724
  615MOL0     H84851   1.811  11.409   5.857 -0.1881  0.8758  2.3010
  615MOL0     H84852   1.626  11.575   5.627  2.4201 -0.1396  0.4801
  615MOL0     H84853   1.419  11.641   5.531  1.7718 -0.1380  1.1587
  615MOL0     H84854   1.787  11.691   4.808 -0.6666 -1.7116 -1.4051
  615MOL0     H84855   1.949  11.635   4.990 -0.8243  0.5858  0.2139
  615MOL0     H84856   2.452  11.723   5.096 -1.3779 -0.8395 -1.3715
  615MOL0     H84857   2.601  11.717   5.275 -4.1381  4.5890 -0.3181
  615MOL0     H84858   2.758  11.615   5.424  4.2099  1.7359  1.7425
  615MOL0     H84859   2.672  11.703   5.542 -1.5812 -1.0510  1.2530
  615MOL0     H84860   2.709  11.500   5.703  0.0219 -3.4151 -1.2960
  615MOL0     H84861   2.846  11.611   5.669  0.5659 -0.8514  0.7246
  615MOL0     H84862   2.814  11.338   5.534  1.0382  1.0582 -2.2058
  615MOL0     H84863   2.925  11.485   5.500 -0.7826  1.2554  0.8706
  615MOL0     H84864   3.014  11.471   5.717 -4.0468  3.5843 -1.6069
  615MOL0     H84865   3.036  11.310   5.639  2.2058 -0.7140  1.8587
  615MOL0     H84866   2.793  11.180   5.955 -0.9882  0.7073 -0.0856
  615MOL0     H84867   2.331  11.442   5.482 -1.0514 -0.5631 -0.3452
  615MOL0     H84868   2.167  11.321   5.200  1.0447  0.4750  1.2753
  615MOL0     H84869   2.159  11.331   5.377 -1.0892  2.7167  4.1550
  615MOL0     H84870   2.065  11.440   5.282  2.4586  4.0825  3.3768
  616MOL0     O84871   9.141   0.651   4.325  0.7906  0.3046 -0.2428
  616MOL0     C84872   9.063   0.733   4.284 -0.4575 -0.4851 -0.4681
  616MOL0     O84873   9.015   0.736   4.154 -0.2013 -0.3623 -0.3197
  616MOL0     C84874   9.048   0.640   4.064  1.0708  0.4847 -0.0462
  616MOL0     C84875   9.008   0.510   4.088 -0.5816  0.7417 -0.2771
  616MOL0     C84876   9.048   0.411   4.003 -0.7275  0.9936  0.2348
  616MOL0     C84877   9.120   0.434   3.891  0.3895 -0.6343  0.4389
  616MOL0     O84878   9.166   0.323   3.827 -0.1471  0.2417 -0.0782
  616MOL0     C84879   9.306   0.332   3.782  0.8938 -1.0423  0.7184
  616MOL0     C84880   9.305   0.378   3.629 -0.0049  0.4765  0.2023
  616MOL0     C84881   9.434   0.321   3.571  0.2378 -0.4674 -0.1106
  616MOL0     C84882   9.554   0.390   3.626 -0.1049  0.1006 -0.4200
  616MOL0     C84883   9.651   0.287   3.693 -0.1470 -0.6035  0.3536
  616MOL0     C84884   9.768   0.359   3.762 -0.3193 -0.7669 -0.2097
  616MOL0     C84885   9.883   0.276   3.806 -0.1043 -0.2106  0.2291
  616MOL0     C84886   9.888   0.257   3.952 -0.4741  0.2071  0.7302
  616MOL0     N84887   9.949   0.360   4.031 -0.8188 -0.0352 -0.4084
  616MOL0     C84888   9.892   0.438   4.127  0.1447 -0.3738  0.2177
  616MOL0     C84889  10.000   0.524   4.174 -0.5851  0.4566 -0.6477
  616MOL0     C84890  10.009   0.593   4.302 -0.0508  0.4994 -0.1935
  616MOL0     C84891   9.934   0.724   4.304  0.0341  0.1255 -0.1845
  616MOL0     C84892   9.965   0.818   4.422  0.5318  0.7207 -0.2067
  616MOL0     C84893   9.874   0.802   4.551  0.2801  0.1579  0.3461
  616MOL0     O84894   9.732   0.817   4.535  0.8102 -0.1783 -0.3897
  616MOL0     C84895   9.673   0.943   4.559 -1.8146 -0.4683  0.7906
  616MOL0     C84896   9.542   0.952   4.594  0.4646  0.2436 -0.1901
  616MOL0     C84897   9.491   1.077   4.636  0.5838 -0.7315 -0.0867
  616MOL0     C84898   9.363   1.091   4.715  0.4138  1.0851 -0.0350
  616MOL0     C84899   9.574   1.189   4.638 -1.2424 -0.6118 -0.0055
  616MOL0     C84900   9.539   1.312   4.716 -0.1874 -0.4266 -1.1493
  616MOL0     O84901   9.474   1.415   4.650 -0.7769  1.0745  0.2608
  616MOL0     C84902   9.479   1.531   4.715 -0.3713 -0.4623  0.0233
  616MOL0     C84903   9.581   1.624   4.686 -0.7521  0.0719 -0.0245
  616MOL0     C84904   9.571   1.745   4.745  0.5204 -0.1971 -0.7681
  616MOL0     C84905   9.474   1.790   4.842 -0.7584  0.4304  0.2303
  616MOL0     O84906   9.471   1.922   4.879 -0.3600  0.4630  0.1970
  616MOL0     C84907   9.337   1.974   4.893  0.4524 -0.9578 -0.3540
  616MOL0     C84908   9.368   2.124   4.886  0.0722  0.1870  0.2589
  616MOL0     C84909   9.443   2.180   5.010 -0.3423  1.0627 -0.7424
  616MOL0     C84910   9.554   2.272   4.963  0.4449 -0.2311 -0.9640
  616MOL0     C84911   9.631   2.321   5.086  0.9505 -0.3545 -0.2556
  616MOL0     C84912   9.718   2.446   5.069  0.0100  0.6637 -0.9844
  616MOL0     C84913   9.828   2.437   5.181 -1.1864 -0.3339  0.3599
  616MOL0     C84914   9.916   2.568   5.183 -0.1604 -0.3108  0.4409
  616MOL0    Cl84915   9.818   2.715   5.196 -0.4167  0.3969 -0.8282
  616MOL0     C84916   9.382   1.690   4.880 -0.5358  0.3402 -0.3424
  616MOL0     C84917   9.379   1.566   4.815 -0.3611  0.0822 -0.5391
  616MOL0     O84918   9.562   1.305   4.837  0.1780 -0.5471 -0.3004
  616MOL0     C84919   9.705   1.183   4.596  0.6365 -0.6067 -0.0112
  616MOL0     C84920   9.752   1.064   4.550  0.5584  1.2619 -0.1771
  616MOL0     N84921  10.116   0.481   4.103 -0.2134 -0.3863 -0.9205
  616MOL0     N84922  10.086   0.382   4.019  0.8821 -0.4691 -0.3377
  616MOL0     C84923   9.158   0.567   3.864 -0.0719  0.2577  0.2729
  616MOL0     C84924   9.114   0.673   3.943 -0.5752  0.1033 -0.1413
  616MOL0     C84925   9.048   0.852   4.375  0.2729 -0.0386 -0.7501
  616MOL0     C84926   9.014   0.972   4.309  0.4705 -0.0432 -0.4122
  616MOL0     C84927   9.004   1.091   4.380  0.4902  0.8707 -0.8564
  616MOL0     C84928   9.018   1.093   4.521 -0.3607  0.2950 -0.5150
  616MOL0     O84929   8.995   1.200   4.606  0.9498  0.6278  0.9399
  616MOL0     C84930   9.032   1.325   4.544  0.6095 -0.1796 -0.8970
  616MOL0     C84931   8.964   1.432   4.631  0.3691  0.0691 -0.0651
  616MOL0     C84932   9.008   1.571   4.579  1.3513 -0.2394 -0.0648
  616MOL0     C84933   8.959   1.684   4.669  0.5185  0.0138  0.1099
  616MOL0     C84934   9.003   1.675   4.806 -0.0277 -0.4609  0.6340
  616MOL0     C84935   9.021   1.632   4.913 -1.1952  0.5711  0.0646
  616MOL0     C84936   9.047   0.969   4.589  0.6915 -0.0021  0.2281
  616MOL0     C84937   9.068   0.850   4.518  0.0146 -0.9433  0.6469
  616MOL0     C84938   9.098   0.720   4.594 -0.1130  0.3086  0.2975
  616MOL0     H84939   8.969   0.472   4.182 -1.1091  0.6886 -0.5145
  616MOL0     H84940   9.013   0.313   4.033 -2.9026  0.5266 -3.2184
  616MOL0     H84941   9.341   0.230   3.798 -1.0005 -1.4550  2.6586
  616MOL0     H84942   9.363   0.402   3.844 -1.4708  2.3477 -0.5818
  616MOL0     H84943   9.223   0.336   3.571  0.9844 -0.6930 -0.4060
  616MOL0     H84944   9.301   0.487   3.622  3.7112  0.8107  1.1363
  616MOL0     H84945   9.433   0.213   3.589  2.0094 -0.5082 -0.0717
  616MOL0     H84946   9.434   0.324   3.461  1.3991 -3.3063 -0.2560
  616MOL0     H84947   9.604   0.446   3.546  2.7789 -0.4839  0.8605
  616MOL0     H84948   9.534   0.460   3.707  2.1482 -1.9124  2.0594
  616MOL0     H84949   9.691   0.216   3.621 -1.3172 -2.7835  1.7409
  616MOL0     H84950   9.602   0.232   3.774 -1.0414 -0.3626 -0.0142
  616MOL0     H84951   9.805   0.442   3.701 -2.1223  0.8938  0.8377
  616MOL0     H84952   9.742   0.411   3.855 -1.3375 -2.1399  0.3072
  616MOL0     H84953   9.981   0.319   3.784  0.9913 -1.8043  1.7488
  616MOL0     H84954   9.882   0.177   3.760  0.5654  0.6773 -1.8079
  616MOL0     H84955   9.793   0.242   4.005 -1.1489 -4.9386 -1.3162
  616MOL0     H84956   9.947   0.167   3.974 -0.1581  0.8389  2.6099
  616MOL0     H84957   9.789   0.432   4.160  0.5438  1.7186  2.1004
  616MOL0     H84958  10.112   0.629   4.316  0.3501 -0.3729 -0.8316
  616MOL0     H84959   9.983   0.531   4.388 -1.7024  1.4029  0.0052
  616MOL0     H84960   9.943   0.785   4.214  0.7798  0.0436 -0.1685
  616MOL0     H84961   9.825   0.711   4.309  0.1791 -0.7896  1.1012
  616MOL0     H84962  10.073   0.812   4.435  0.6145  1.9064 -0.2144
  616MOL0     H84963   9.942   0.916   4.378 -0.0091  0.3544 -0.7699
  616MOL0     H84964   9.882   0.703   4.598 -1.0699  0.3556  1.0339
  616MOL0     H84965   9.925   0.864   4.624  2.0470 -3.3588  2.3706
  616MOL0     H84966   9.483   0.863   4.610 -2.3314  1.6336 -1.8242
  616MOL0     H84967   9.311   1.180   4.679 -0.4302  0.5530 -0.1602
  616MOL0     H84968   9.374   1.096   4.824 -2.4983  1.8189  0.2884
  616MOL0     H84969   9.312   0.996   4.698  1.7303  0.3713 -0.1197
  616MOL0     H84970   9.669   1.614   4.624  1.2359 -0.0107  2.6196
  616MOL0     H84971   9.651   1.814   4.720  0.8219  0.3795  1.5631
  616MOL0     H84972   9.263   1.935   4.822 -0.3009 -1.8264  0.8501
  616MOL0     H84973   9.299   1.955   4.994 -1.8089  0.3828 -0.8688
  616MOL0     H84974   9.431   2.146   4.799 -1.8385  3.5346 -0.4605
  616MOL0     H84975   9.277   2.184   4.872  0.5574  1.0268  0.5913
  616MOL0     H84976   9.503   2.104   5.061 -1.8093  0.8912  0.7674
  616MOL0     H84977   9.370   2.225   5.077  2.5130 -0.8190  4.1291
  616MOL0     H84978   9.516   2.358   4.907  1.3202  0.7535 -0.1098
  616MOL0     H84979   9.622   2.213   4.901  1.9033  1.4338 -1.0530
  616MOL0     H84980   9.561   2.336   5.168  1.1325  2.4849 -0.5157
  616MOL0     H84981   9.700   2.237   5.103  0.1094 -0.4612  3.2801
  616MOL0     H84982   9.657   2.535   5.089  1.2369  1.6978 -1.6678
  616MOL0     H84983   9.765   2.461   4.972 -0.6442 -1.9091 -1.7630
  616MOL0     H84984   9.887   2.345   5.183 -3.4520 -2.0183 -2.0461
  616MOL0     H84985   9.777   2.440   5.278 -0.7844  1.8779  0.5420
  616MOL0     H84986   9.978   2.558   5.093  0.9934 -1.6775  1.3355
  616MOL0     H84987   9.990   2.570   5.264  0.3284  2.0184  0.0019
  616MOL0     H84988   9.301   1.699   4.952  0.2450 -2.7074  1.0693
  616MOL0     H84989   9.292   1.503   4.828 -2.0973  2.5969  0.8308
  616MOL0     H84990   9.774   1.266   4.590 -0.9170  0.9525  2.0304
  616MOL0     H84991   9.855   1.055   4.516 -0.6920 -2.0659 -3.8979
  616MOL0     H84992   9.208   0.598   3.772 -1.8288  0.9269 -0.4982
  616MOL0     H84993   9.128   0.776   3.911  1.6413  0.3304  1.3553
  616MOL0     H84994   8.990   0.961   4.204 -0.3587  0.4236 -0.2768
  616MOL0     H84995   8.970   1.183   4.334 -0.1129  1.5122  0.8053
  616MOL0     H84996   9.141   1.320   4.548  0.5445 -1.2860  2.5022
  616MOL0     H84997   9.000   1.355   4.444 -0.9784  0.9807 -0.0951
  616MOL0     H84998   8.990   1.419   4.736  1.5393 -4.2132 -0.6873
  616MOL0     H84999   8.856   1.417   4.618  0.5490 -1.4743 -0.0390
  616MOL0     H85000   9.115   1.569   4.557  1.1015  1.1683 -1.5841
  616MOL0     H85001   8.958   1.584   4.483 -0.8499  1.3048  1.1923
  616MOL0     H85002   8.850   1.688   4.656  0.6560  2.2308 -0.7945
  616MOL0     H85003   8.996   1.763   4.603  2.1823 -1.9774 -1.4781
  616MOL0     H85004   9.020   1.593   5.013  2.6118 -0.5824 -0.1739
  616MOL0     H85005   9.054   0.976   4.698 -0.3201  0.8405  0.2615
  616MOL0     H85006   9.196   0.673   4.580 -0.8113 -1.0523 -0.2644
  616MOL0     H85007   9.087   0.739   4.701  1.4022 -1.7256  0.8894
  616MOL0     H85008   9.028   0.637   4.577  2.2497 -1.5998 -0.5771
  617MOL0     O85009   5.424   7.654   9.968  0.0488 -0.3343 -0.3894
  617MOL0     C85010   5.477   7.696  10.068 -0.2525 -0.5622  0.3246
  617MOL0     O85011   5.607   7.667  10.098 -0.6137 -0.4073 -0.0432
  617MOL0     C85012   5.645   7.537  10.079 -0.6086  0.7958  0.2427
  617MOL0     C85013   5.726   7.513   9.976 -0.4989 -0.5527 -0.6205
  617MOL0     C85014   5.770   7.381   9.942  0.4691 -0.0727 -0.2001
  617MOL0     C85015   5.732   7.278  10.028 -0.3035 -0.2131 -1.2095
  617MOL0     O85016   5.770   7.157   9.984  0.1603  0.7521  0.1336
  617MOL0     C85017   5.791   7.048  10.067  0.2527 -0.4587 -0.4748
  617MOL0     C85018   5.740   6.924   9.999 -0.1187 -0.3852  0.9428
  617MOL0     C85019   5.828   6.866   9.886 -0.1258 -1.6468  0.0464
  617MOL0     C85020   5.768   6.731   9.839 -0.4982  0.1926  0.1940
  617MOL0     C85021   5.624   6.684   9.872 -0.8892  0.3577 -0.7119
  617MOL0     C85022   5.507   6.734   9.796  0.4445 -0.7134 -1.0651
  617MOL0     C85023   5.529   6.698   9.650 -0.3261  0.6418 -0.1783
  617MOL0     C85024   5.388   6.699   9.570 -0.8955  0.5854 -0.6324
  617MOL0     N85025   5.309   6.580   9.591 -0.0939 -0.0757 -0.0732
  617MOL0     C85026   5.172   6.585   9.622 -0.0280  0.6116  0.3067
  617MOL0     C85027   5.140   6.454   9.644  0.3453  0.2591  0.2116
  617MOL0     C85028   5.011   6.385   9.675 -0.1989  0.5621 -0.0220
  617MOL0     C85029   4.895   6.438   9.597 -0.5716  0.0698 -0.3652
  617MOL0     C85030   4.761   6.376   9.660 -0.0914 -0.4665  0.5678
  617MOL0     C85031   4.635   6.467   9.625  1.2183 -0.2062  0.0221
  617MOL0     O85032   4.671   6.603   9.666  0.4731  0.3387  0.0368
  617MOL0     C85033   4.581   6.692   9.703 -0.4933 -0.5896  0.1649
  617MOL0     C85034   4.455   6.699   9.647  0.3077  0.2956 -0.0750
  617MOL0     C85035   4.354   6.791   9.687 -0.6344  0.0220 -0.6014
  617MOL0     C85036   4.222   6.807   9.618  1.1360  0.0067  0.4164
  617MOL0     C85037   4.396   6.873   9.801  1.2005  0.2543 -0.6418
  617MOL0     C85038   4.301   6.969   9.872 -1.3692  0.4777 -0.4942
  617MOL0     O85039   4.360   7.061   9.958  0.8505 -0.0086 -0.7919
  617MOL0     C85040   4.274   7.112  10.050  0.9614  0.2404  0.2639
  617MOL0     C85041   4.204   7.042  10.147  0.1396 -0.0053  0.5397
  617MOL0     C85042   4.110   7.092  10.234 -0.3960  1.0367  0.8508
  617MOL0     C85043   4.080   7.227  10.228 -0.5438  1.0430 -0.1721
  617MOL0     O85044   4.005   7.291  10.320 -0.3108  0.1268 -0.2430
  617MOL0     C85045   3.897   7.366  10.272 -0.0188 -0.4486  1.1063
  617MOL0     C85046   3.804   7.408  10.398 -0.7826  0.0556  0.5143
  617MOL0     C85047   3.681   7.311  10.416 -0.5108 -0.9777 -0.5117
  617MOL0     C85048   3.601   7.364  10.528 -0.4824 -0.4658 -0.8561
  617MOL0     C85049   3.451   7.333  10.523  0.1434  0.3895 -1.1027
  617MOL0     C85050   3.379   7.382  10.652  0.8085  0.1511 -0.6686
  617MOL0     C85051   3.360   7.533  10.641 -0.4631 -0.3858 -0.0073
  617MOL0     C85052   3.280   7.576  10.767 -0.9788 -0.1283  0.0267
  617MOL0    Cl85053   3.388   7.592  10.913  0.6406 -0.1899 -0.4983
  617MOL0     C85054   4.149   7.311  10.134  0.4781  0.2992  1.3014
  617MOL0     C85055   4.239   7.252  10.043 -0.4847 -0.3650  0.6914
  617MOL0     O85056   4.182   6.955   9.859  0.0501 -0.6093  0.6051
  617MOL0     C85057   4.526   6.869   9.853  0.8424  0.2281  0.0679
  617MOL0     C85058   4.616   6.779   9.807  0.5419  0.8376  0.4706
  617MOL0     N85059   5.257   6.381   9.626 -0.0981  0.4502  0.0186
  617MOL0     N85060   5.354   6.453   9.588  0.5117  0.1563  0.3943
  617MOL0     C85061   5.659   7.305  10.142  0.0120 -0.4916 -0.2155
  617MOL0     C85062   5.617   7.435  10.169  0.1182 -0.8417 -0.1031
  617MOL0     C85063   5.424   7.807  10.149 -0.7285 -0.7307  1.1482
  617MOL0     C85064   5.505   7.857  10.256 -0.0330 -0.1667 -0.2314
  617MOL0     C85065   5.469   7.956  10.339  0.5687  0.4933 -0.2225
  617MOL0     C85066   5.341   8.015  10.328 -0.4264  0.4191 -0.1461
  617MOL0     O85067   5.306   8.112  10.423 -0.7556  0.2139  0.2056
  617MOL0     C85068   5.184   8.186  10.410  0.2723  0.4594  0.4630
  617MOL0     C85069   5.163   8.290  10.517 -0.5539  0.1927 -0.0316
  617MOL0     C85070   5.231   8.429  10.488  0.1531 -0.3258 -0.3744
  617MOL0     C85071   5.227   8.529  10.601  0.5512 -1.2929  1.2703
  617MOL0     C85072   5.089   8.596  10.602 -0.7618 -0.6041 -0.1402
  617MOL0     C85073   4.986   8.647  10.601  0.7148  0.6715  0.4549
  617MOL0     C85074   5.252   7.972  10.224  0.1564 -0.0867  0.3848
  617MOL0     C85075   5.296   7.867  10.127 -0.3985 -0.7918  0.9296
  617MOL0     C85076   5.194   7.823  10.027 -0.0478 -0.0074  0.0578
  617MOL0     H85077   5.778   7.595   9.927  2.2323 -1.0094  1.3291
  617MOL0     H85078   5.842   7.369   9.862 -1.5640  2.8575 -2.6890
  617MOL0     H85079   5.719   7.056  10.149  2.4900  1.5257  1.4263
  617MOL0     H85080   5.894   7.048  10.105 -1.0260  0.7049  3.5460
  617MOL0     H85081   5.729   6.848  10.077 -1.6959 -0.1470  1.0056
  617MOL0     H85082   5.639   6.944   9.961  0.4590  1.2416  0.1591
  617MOL0     H85083   5.836   6.921   9.792  1.4699 -0.2831  0.9457
  617MOL0     H85084   5.932   6.854   9.914  0.3795  0.7239 -0.5651
  617MOL0     H85085   5.777   6.715   9.732  2.4657 -0.1704  0.3986
  617MOL0     H85086   5.830   6.651   9.882 -3.7846 -2.0500  1.1664
  617MOL0     H85087   5.599   6.689   9.978  0.0226 -1.5224 -0.3720
  617MOL0     H85088   5.635   6.578   9.850 -0.0306  0.7155 -2.1628
  617MOL0     H85089   5.422   6.670   9.820  1.8433 -3.7926 -3.5763
  617MOL0     H85090   5.491   6.840   9.817  2.9047 -0.1936 -1.4344
  617MOL0     H85091   5.570   6.596   9.647  0.6988  0.9225  2.1870
  617MOL0     H85092   5.597   6.771   9.606  2.5465 -2.8571 -2.1206
  617MOL0     H85093   5.337   6.792   9.597  0.5925  0.8705  1.4988
  617MOL0     H85094   5.424   6.700   9.467 -0.6175 -0.1157 -0.5476
  617MOL0     H85095   5.117   6.678   9.632 -1.9567 -0.1427 -2.2165
  617MOL0     H85096   4.997   6.388   9.783  3.7703  1.3009  0.6255
  617MOL0     H85097   5.021   6.278   9.651 -2.8436 -0.4085  2.5630
  617MOL0     H85098   4.901   6.547   9.606 -0.0579  0.2072 -1.9767
  617MOL0     H85099   4.894   6.408   9.492  0.5852 -4.2367  0.6484
  617MOL0     H85100   4.739   6.276   9.621  0.4491 -1.3271  2.3897
  617MOL0     H85101   4.765   6.382   9.769  1.0087  5.2838  0.5467
  617MOL0     H85102   4.613   6.469   9.518  1.2704  2.6286  0.0003
  617MOL0     H85103   4.547   6.434   9.680  2.3898 -1.6657  1.1022
  617MOL0     H85104   4.439   6.641   9.557  1.6532  0.1626 -0.2470
  617MOL0     H85105   4.223   6.915   9.605  2.9343  0.4603  3.3221
  617MOL0     H85106   4.151   6.762   9.689  0.4950 -0.7072 -0.6459
  617MOL0     H85107   4.217   6.761   9.519  2.1396  0.8939 -0.0593
  617MOL0     H85108   4.233   6.938  10.159 -2.5004 -0.8219  0.5037
  617MOL0     H85109   4.064   7.049  10.322 -1.9634  2.3814  0.7334
  617MOL0     H85110   3.932   7.447  10.207  0.3932 -2.2933 -1.1328
  617MOL0     H85111   3.840   7.301  10.204  0.6740 -1.0011  1.0459
  617MOL0     H85112   3.868   7.409  10.487 -1.4604 -0.9412  1.0302
  617MOL0     H85113   3.773   7.512  10.385  1.9981  0.7448 -1.5005
  617MOL0     H85114   3.704   7.206  10.437  2.1693 -0.4153 -0.2892
  617MOL0     H85115   3.618   7.321  10.327 -1.1181 -1.2361 -0.1242
  617MOL0     H85116   3.606   7.473  10.535  1.0926 -0.6282  1.5088
  617MOL0     H85117   3.645   7.322  10.619  2.5300  2.0487 -0.9904
  617MOL0     H85118   3.402   7.383  10.439 -1.2433 -0.5235 -0.8728
  617MOL0     H85119   3.424   7.227  10.524 -0.8658  0.5657  2.0825
  617MOL0     H85120   3.447   7.355  10.733  2.8438  3.7619 -0.9547
  617MOL0     H85121   3.286   7.327  10.666  1.3310 -1.0984 -1.8771
  617MOL0     H85122   3.303   7.574  10.558 -2.4057  2.0291  2.3468
  617MOL0     H85123   3.456   7.586  10.643 -0.3967 -0.1942 -3.2913
  617MOL0     H85124   3.202   7.503  10.790 -2.4419  1.2047 -0.5353
  617MOL0     H85125   3.231   7.673  10.753  0.2419  0.6182  0.7301
  617MOL0     H85126   4.120   7.415  10.128 -3.0189 -0.5439  1.3082
  617MOL0     H85127   4.289   7.317   9.971 -0.9569 -1.5953 -0.7954
  617MOL0     H85128   4.551   6.913   9.949 -0.2828  0.4061  0.2921
  617MOL0     H85129   4.716   6.768   9.847  0.4176 -0.8011  0.4087
  617MOL0     H85130   5.646   7.230  10.219  1.0655 -0.0420  0.4196
  617MOL0     H85131   5.563   7.457  10.261  0.1994 -1.5036  0.1098
  617MOL0     H85132   5.606   7.822  10.277  0.0344  1.5135  2.7453
  617MOL0     H85133   5.534   7.979  10.423 -2.1732  3.2335  1.3508
  617MOL0     H85134   5.188   8.243  10.317  2.0101 -2.3672 -1.3295
  617MOL0     H85135   5.103   8.114  10.403  0.2913  0.5083 -0.3873
  617MOL0     H85136   5.194   8.254  10.616 -4.0530  1.9445  1.8903
  617MOL0     H85137   5.055   8.308  10.517 -1.1841 -3.0563  0.1432
  617MOL0     H85138   5.330   8.407  10.446 -0.6504 -2.2048 -1.4448
  617MOL0     H85139   5.169   8.471  10.408 -0.5562 -2.2050 -0.8770
  617MOL0     H85140   5.302   8.607  10.585 -1.4558  0.4882 -0.0554
  617MOL0     H85141   5.232   8.473  10.695 -0.8390  0.8063  2.6868
  617MOL0     H85142   4.885   8.682  10.608 -0.3895 -1.2192 -3.4001
  617MOL0     H85143   5.156   8.021  10.214 -0.0588 -0.4030  0.8605
  617MOL0     H85144   5.100   7.875  10.052 -0.5384 -1.2709  0.9240
  617MOL0     H85145   5.210   7.834   9.919 -4.2631 -1.1536 -0.8823
  617MOL0     H85146   5.170   7.720  10.054 -0.3631  0.7456  2.9480
  618MOL0     O85147   9.004   0.679   1.340 -0.0456 -0.6174  0.1179
  618MOL0     C85148   8.966   0.590   1.417 -0.4772  0.2022 -0.1974
  618MOL0     O85149   8.908   0.476   1.372 -0.1002  0.2218  0.2177
  618MOL0     C85150   8.935   0.437   1.245  0.2123  0.6786 -0.8116
  618MOL0     C85151   8.848   0.466   1.141 -0.1339 -0.2730 -0.7336
  618MOL0     C85152   8.875   0.432   1.010 -1.4223 -0.9665 -0.1569
  618MOL0     C85153   8.982   0.355   0.977 -0.1358 -0.2455  0.4224
  618MOL0     O85154   9.002   0.308   0.852 -0.3931 -0.9851 -0.2450
  618MOL0     C85155   8.964   0.393   0.741 -0.1152  0.7378  0.1800
  618MOL0     C85156   8.826   0.360   0.679  0.3972 -0.3338  0.5695
  618MOL0     C85157   8.776   0.475   0.587 -0.5014  0.0803 -0.6398
  618MOL0     C85158   8.878   0.523   0.480  0.0264  0.0903  1.2790
  618MOL0     C85159   8.812   0.608   0.369 -0.1184  0.2367 -0.2742
  618MOL0     C85160   8.923   0.671   0.284  0.0256  0.1793 -0.3945
  618MOL0     C85161   8.867   0.762   0.167  0.6813 -0.6446 -0.4320
  618MOL0     C85162   8.996   0.819   0.085 -0.4437 -1.0442 -0.5425
  618MOL0     N85163   9.099   0.733   0.033 -0.2392  0.6813 -0.3381
  618MOL0     C85164   9.087   0.630  -0.054  0.3029  0.3101  0.1514
  618MOL0     C85165   9.190   0.551  -0.040 -0.4065  1.4968 -0.0348
  618MOL0     C85166   9.224   0.435  -0.125 -0.2348 -1.0056  1.0842
  618MOL0     C85167   9.247   0.475  -0.274 -0.0875 -0.4930 -0.1183
  618MOL0     C85168   9.341   0.588  -0.297 -0.0741 -0.9850 -0.6408
  618MOL0     C85169   9.479   0.589  -0.220  0.0356 -0.1387  0.5921
  618MOL0     O85170   9.559   0.678  -0.301 -0.2513  0.0374  0.2428
  618MOL0     C85171   9.642   0.776  -0.253  0.5713  0.5225  0.5920
  618MOL0     C85172   9.686   0.863  -0.352  0.7231 -0.2111 -0.6880
  618MOL0     C85173   9.795   0.944  -0.337 -0.1381 -1.1892 -1.3424
  618MOL0     C85174   9.848   1.007  -0.468 -0.1596 -0.0555 -0.6023
  618MOL0     C85175   9.840   0.959  -0.203 -1.0806  0.1969  0.4102
  618MOL0     C85176   9.946   1.061  -0.162  0.7548  0.0776 -0.0748
  618MOL0     O85177   9.982   1.077  -0.028  0.3524  0.1192 -0.1586
  618MOL0     C85178  10.073   1.178   0.005 -0.2321  0.7749 -0.2708
  618MOL0     C85179  10.048   1.315   0.031  0.0675  0.3115 -0.8718
  618MOL0     C85180  10.144   1.409   0.063  0.3236 -0.4394  0.0936
  618MOL0     C85181  10.281   1.359   0.067  0.2605  0.1964 -0.9564
  618MOL0     O85182  10.402   1.425   0.094  0.5877 -0.9369 -0.5121
  618MOL0     C85183  10.408   1.567   0.100 -0.7685  0.5989 -0.6316
  618MOL0     C85184  10.535   1.625   0.043  0.1281  0.8784 -0.1925
  618MOL0     C85185  10.498   1.745  -0.043  0.3687  0.5028 -0.0591
  618MOL0     C85186  10.606   1.831  -0.089  0.2668  0.0690 -0.3898
  618MOL0     C85187  10.567   1.960  -0.151  0.4381  0.0487 -0.2733
  618MOL0     C85188  10.680   2.063  -0.133 -0.5153  0.3639  0.0426
  618MOL0     C85189  10.672   2.167  -0.244  0.4152 -0.5712  0.3097
  618MOL0     C85190  10.795   2.274  -0.233 -0.3675  0.5963  0.0243
  618MOL0    Cl85191  10.782   2.351  -0.068  0.3960 -0.0563  0.1969
  618MOL0     C85192  10.303   1.226   0.047  0.1668 -0.6364 -0.5016
  618MOL0     C85193  10.201   1.136   0.026 -0.6263 -0.3175  0.3426
  618MOL0     O85194  10.000   1.127  -0.251  0.1986  0.5785 -0.0838
  618MOL0     C85195   9.793   0.877  -0.100  0.8832  1.0789 -0.3184
  618MOL0     C85196   9.691   0.784  -0.121 -0.0130  0.0212  0.8074
  618MOL0     N85197   9.262   0.596   0.062  0.3997  0.5155 -0.2892
  618MOL0     N85198   9.208   0.708   0.103 -0.0448 -0.0918  0.1734
  618MOL0     C85199   9.074   0.323   1.076 -0.4008  0.1830 -0.9404
  618MOL0     C85200   9.054   0.369   1.210 -0.8284 -0.1175  0.1448
  618MOL0     C85201   8.963   0.619   1.562 -0.0802  0.3167  1.1675
  618MOL0     C85202   8.988   0.511   1.645  0.4360  0.0454  0.2246
  618MOL0     C85203   9.011   0.535   1.782  0.5396  1.0665 -0.6302
  618MOL0     C85204   9.005   0.665   1.834 -0.6180  0.0870  0.0927
  618MOL0     O85205   9.020   0.693   1.964  0.7750  0.0277  0.4993
  618MOL0     C85206   8.901   0.641   2.033  0.1956 -0.0318 -0.2178
  618MOL0     C85207   8.804   0.763   2.059  0.0598  0.3836 -0.2877
  618MOL0     C85208   8.858   0.871   2.148  0.3638 -0.0805 -1.4270
  618MOL0     C85209   8.807   0.901   2.289 -0.3323  0.1024  0.6241
  618MOL0     C85210   8.867   0.835   2.406  0.9688  0.2021  0.1737
  618MOL0     C85211   8.906   0.800   2.515 -1.0676 -0.2233 -1.0597
  618MOL0     C85212   8.976   0.770   1.748  0.3461  0.4689  1.0356
  618MOL0     C85213   8.936   0.746   1.609  0.9726  0.7051  0.2699
  618MOL0     C85214   8.885   0.864   1.529  0.2454  0.5523 -0.2709
  618MOL0     H85215   8.762   0.530   1.155 -0.4591 -0.1336 -3.0053
  618MOL0     H85216   8.796   0.458   0.940 -4.6292 -0.7487  3.1738
  618MOL0     H85217   9.027   0.386   0.651  0.0428 -1.9674  0.4371
  618MOL0     H85218   8.953   0.497   0.773  0.8180  1.3091 -1.2354
  618MOL0     H85219   8.846   0.270   0.620  1.9303  1.8421 -2.5196
  618MOL0     H85220   8.750   0.329   0.751  0.2984  0.0838  0.6485
  618MOL0     H85221   8.694   0.430   0.530  1.4724 -1.9232 -2.1035
  618MOL0     H85222   8.743   0.559   0.649  1.5911  1.2753 -1.0502
  618MOL0     H85223   8.954   0.582   0.531  3.9651 -1.7125 -1.9808
  618MOL0     H85224   8.923   0.434   0.435  0.4521  0.2405  1.4062
  618MOL0     H85225   8.762   0.685   0.429  1.0516 -1.2933  2.9279
  618MOL0     H85226   8.749   0.537   0.315 -0.1158  0.8570 -1.1037
  618MOL0     H85227   8.978   0.737   0.352  3.2343 -1.4189 -1.2551
  618MOL0     H85228   8.991   0.598   0.240  1.1441  2.1497 -2.1110
  618MOL0     H85229   8.798   0.843   0.191  1.4844 -0.5630  1.9667
  618MOL0     H85230   8.817   0.692   0.099  2.0658 -1.5415 -0.5825
  618MOL0     H85231   8.945   0.852  -0.006  0.3528  0.8308 -0.3519
  618MOL0     H85232   9.036   0.901   0.145 -3.0026 -1.5241  2.0550
  618MOL0     H85233   8.992   0.615  -0.106  0.5543 -0.7811 -0.0201
  618MOL0     H85234   9.141   0.363  -0.118  0.8917 -2.7834 -1.8200
  618MOL0     H85235   9.311   0.381  -0.087 -1.8434 -2.5768  2.7503
  618MOL0     H85236   9.277   0.390  -0.335 -0.3313 -3.1493  3.1749
  618MOL0     H85237   9.149   0.497  -0.316 -0.5301 -1.9043  0.1414
  618MOL0     H85238   9.366   0.605  -0.402  2.9113  0.1855  0.1345
  618MOL0     H85239   9.298   0.685  -0.270  0.1943 -0.7279 -1.1272
  618MOL0     H85240   9.455   0.630  -0.121 -0.2037  2.3925 -0.4394
  618MOL0     H85241   9.520   0.488  -0.218  2.6317  0.8221  0.2064
  618MOL0     H85242   9.628   0.856  -0.443 -2.6904  2.5350  0.9940
  618MOL0     H85243   9.779   1.088  -0.490  0.2351 -0.1000 -2.0922
  618MOL0     H85244   9.830   0.931  -0.544 -2.7969 -0.7263  0.5874
  618MOL0     H85245   9.950   1.048  -0.468 -0.4162  0.6151  0.0017
  618MOL0     H85246   9.946   1.349   0.020 -0.6746 -1.3777  0.3301
  618MOL0     H85247  10.113   1.512   0.074  1.7086 -0.1132  1.2719
  618MOL0     H85248  10.315   1.598   0.050 -2.0769 -2.4854 -0.3259
  618MOL0     H85249  10.405   1.598   0.205 -1.1166  0.4667 -0.6009
  618MOL0     H85250  10.599   1.655   0.126 -0.3454  2.7215 -0.4434
  618MOL0     H85251  10.586   1.555  -0.024  0.8098  3.5744 -2.7649
  618MOL0     H85252  10.437   1.813   0.018  1.3090 -0.1863  1.7143
  618MOL0     H85253  10.440   1.719  -0.132 -0.3965 -0.8553  0.8219
  618MOL0     H85254  10.668   1.772  -0.157 -0.3099  0.8302 -1.6061
  618MOL0     H85255  10.665   1.848   0.001 -2.7879 -0.7214  1.9520
  618MOL0     H85256  10.540   1.939  -0.255 -0.3900 -4.1823  0.6120
  618MOL0     H85257  10.478   2.006  -0.106  1.1278  0.4203  0.7520
  618MOL0     H85258  10.777   2.021  -0.161 -1.9237 -2.8825 -0.5366
  618MOL0     H85259  10.674   2.119  -0.040  1.8218  5.8846 -2.6964
  618MOL0     H85260  10.578   2.219  -0.229 -0.1588 -1.8768  1.5052
  618MOL0     H85261  10.674   2.131  -0.347 -0.5329  0.0335  0.0704
  618MOL0     H85262  10.799   2.350  -0.311 -0.1905 -0.6267 -1.1817
  618MOL0     H85263  10.892   2.224  -0.236  0.4688  2.1397  0.5269
  618MOL0     H85264  10.408   1.197   0.044  0.1904 -0.5943 -0.1269
  618MOL0     H85265  10.228   1.031   0.019  0.8242  0.1377 -2.4081
  618MOL0     H85266   9.840   0.891  -0.004 -0.7440  2.1184  0.3642
  618MOL0     H85267   9.671   0.710  -0.044  3.0130  1.1722  2.8679
  618MOL0     H85268   9.157   0.260   1.045  1.0502  2.0773 -1.0795
  618MOL0     H85269   9.134   0.345   1.279  0.3581  0.4835 -0.9772
  618MOL0     H85270   9.003   0.406   1.625  2.3462  0.1642  0.8271
  618MOL0     H85271   9.042   0.454   1.847 -0.2965 -1.8057 -3.5012
  618MOL0     H85272   8.847   0.562   1.981 -3.6753  0.7040  2.2697
  618MOL0     H85273   8.928   0.601   2.131  0.6350  1.1956  0.1731
  618MOL0     H85274   8.715   0.711   2.094 -0.6065  0.9266 -1.1227
  618MOL0     H85275   8.783   0.804   1.959  2.1752  0.6043 -0.6901
  618MOL0     H85276   8.966   0.853   2.155  0.7419  1.3050 -3.1602
  618MOL0     H85277   8.847   0.956   2.080  1.2049 -2.0086 -4.1301
  618MOL0     H85278   8.699   0.882   2.281 -0.1591 -0.1224 -1.6957
  618MOL0     H85279   8.802   1.009   2.303 -2.8881  0.0213  0.9768
  618MOL0     H85280   8.940   0.760   2.608  0.1240  3.0007  0.0410
  618MOL0     H85281   8.976   0.868   1.794  1.6733  1.7208 -1.4348
  618MOL0     H85282   8.805   0.837   1.459 -2.3125  2.5538  1.6522
  618MOL0     H85283   8.849   0.946   1.592 -3.7933  0.9864 -2.7711
  618MOL0     H85284   8.972   0.888   1.467  0.2169 -2.3948 -1.6194
  619MOL0     O85285   9.903   1.256   3.021  0.2399  0.4084  0.1403
  619MOL0     C85286   9.790   1.230   2.977  0.0664 -0.0566 -0.2994
  619MOL0     O85287   9.683   1.319   2.964 -0.2424  0.4590 -0.0508
  619MOL0     C85288   9.675   1.452   3.016  0.1415  0.2755  0.5590
  619MOL0     C85289   9.761   1.495   3.116  0.1479 -0.0399  0.4366
  619MOL0     C85290   9.752   1.624   3.169  0.2695 -0.6890  0.4065
  619MOL0     C85291   9.660   1.722   3.127 -0.3048  0.9198 -1.0037
  619MOL0     O85292   9.670   1.844   3.186  0.5965 -0.1493 -0.2127
  619MOL0     C85293   9.582   1.950   3.146 -0.7591  0.2076 -0.3934
  619MOL0     C85294   9.650   2.075   3.213 -0.0126 -0.7666  0.1532
  619MOL0     C85295   9.585   2.204   3.184  0.5085  0.2557 -0.4070
  619MOL0     C85296   9.631   2.320   3.269  1.4646 -0.6232  1.3781
  619MOL0     C85297   9.570   2.457   3.216 -0.4801  0.4772  0.1631
  619MOL0     C85298   9.601   2.492   3.071  0.0635 -0.1706 -0.0094
  619MOL0     C85299   9.571   2.622   3.009  0.4904 -0.9530 -0.2083
  619MOL0     C85300   9.594   2.748   3.093  0.9249  0.0436  0.4745
  619MOL0     N85301   9.732   2.779   3.137 -0.3396  0.1572  0.2023
  619MOL0     C85302   9.787   2.906   3.146  0.0995  0.0021 -0.0908
  619MOL0     C85303   9.912   2.891   3.185 -0.7944  0.1488  0.7554
  619MOL0     C85304  10.001   3.008   3.200  0.1558 -0.4049 -0.2833
  619MOL0     C85305  10.153   2.983   3.192 -0.4835  0.6659  0.7070
  619MOL0     C85306  10.200   2.945   3.328 -0.7361 -0.4843 -0.3606
  619MOL0     C85307  10.349   2.933   3.337 -0.9210 -0.0782 -0.2437
  619MOL0     O85308  10.386   2.894   3.466  0.5700 -0.5618 -0.6493
  619MOL0     C85309  10.521   2.911   3.497 -1.2409  0.4177  0.3730
  619MOL0     C85310  10.553   2.915   3.627  0.5694  0.4727 -0.6626
  619MOL0     C85311  10.685   2.926   3.677  0.3300  0.1463  0.1083
  619MOL0     C85312  10.711   2.924   3.825  0.2443  0.4423 -1.1308
  619MOL0     C85313  10.783   2.937   3.578 -0.3199 -0.0680 -0.1757
  619MOL0     C85314  10.923   2.951   3.614 -0.8485  0.0503 -0.3018
  619MOL0     O85315  10.973   2.830   3.671 -0.4251 -0.1850 -0.1873
  619MOL0     C85316  11.091   2.829   3.732 -0.7431 -0.3619 -0.1950
  619MOL0     C85317  11.136   2.929   3.815 -0.2158 -0.0849  0.0185
  619MOL0     C85318  11.260   2.938   3.875 -0.9114  0.1575  0.1763
  619MOL0     C85319  11.346   2.828   3.863  0.5318  0.1954  0.2605
  619MOL0     O85320  11.462   2.814   3.938 -0.6625  0.2172 -0.1775
  619MOL0     C85321  11.525   2.939   3.984 -1.4963  0.2523  0.0753
  619MOL0     C85322  11.676   2.936   3.986  0.0696 -0.2151  0.4832
  619MOL0     C85323  11.726   2.953   3.835 -0.3667  0.1410  0.1190
  619MOL0     C85324  11.874   2.935   3.808  0.1275  0.1667 -0.4071
  619MOL0     C85325  11.930   2.784   3.820 -1.2094  0.2543 -0.1116
  619MOL0     C85326  11.861   2.672   3.736 -0.4642 -0.5503  0.2338
  619MOL0     C85327  11.870   2.707   3.582 -0.2510  0.1032  0.9084
  619MOL0     C85328  11.778   2.609   3.499 -0.3204  0.0264 -0.4828
  619MOL0    Cl85329  11.858   2.445   3.505  0.5828 -0.1458  0.1598
  619MOL0     C85330  11.297   2.717   3.792  0.1535 -0.9670  0.7696
  619MOL0     C85331  11.180   2.724   3.710  0.1981  0.4254  0.4771
  619MOL0     O85332  10.996   3.043   3.577  0.4203  0.3760 -0.3636
  619MOL0     C85333  10.755   2.930   3.445  0.1380 -0.3238  0.2698
  619MOL0     C85334  10.622   2.929   3.403 -0.2144  0.5089 -0.4296
  619MOL0     N85335   9.933   2.759   3.221  0.2863  0.0268  0.7961
  619MOL0     N85336   9.828   2.693   3.193 -0.4960  0.2150 -0.9775
  619MOL0     C85337   9.584   1.678   3.013  0.6506  0.0572 -0.0474
  619MOL0     C85338   9.597   1.552   2.957 -0.0364  0.4032  0.2078
  619MOL0     C85339   9.790   1.089   2.912 -0.5312 -0.1455  0.0850
  619MOL0     C85340   9.677   1.067   2.823  0.3272  0.5836 -0.8332
  619MOL0     C85341   9.646   0.947   2.762  0.0485  1.0941 -0.0801
  619MOL0     C85342   9.730   0.843   2.792 -0.6444  0.2964 -0.6034
  619MOL0     O85343   9.712   0.723   2.738  0.0089  0.0073 -0.1942
  619MOL0     C85344   9.666   0.719   2.595 -1.1919  0.0368  0.5233
  619MOL0     C85345   9.752   0.623   2.521  0.0064 -0.3549 -0.2580
  619MOL0     C85346   9.895   0.665   2.519 -0.7816 -0.0439 -0.6119
  619MOL0     C85347   9.985   0.567   2.447 -0.1249 -0.0557 -0.0252
  619MOL0     C85348   9.948   0.541   2.314 -0.4054  0.3180 -0.1202
  619MOL0     C85349   9.895   0.526   2.205 -0.8564 -0.2042  0.2032
  619MOL0     C85350   9.845   0.861   2.872 -0.2144  0.3976  0.1019
  619MOL0     C85351   9.880   0.981   2.929 -1.3408 -1.2856 -1.0833
  619MOL0     C85352  10.001   0.980   3.021 -0.1146  0.5262 -0.3792
  619MOL0     H85353   9.826   1.427   3.170  0.4398 -1.2689 -1.3920
  619MOL0     H85354   9.826   1.647   3.245  0.7026  1.7638 -0.6656
  619MOL0     H85355   9.481   1.941   3.188  1.0385 -2.9959  4.0013
  619MOL0     H85356   9.601   1.947   3.039  5.9352 -0.5227  0.3853
  619MOL0     H85357   9.646   2.071   3.322  2.5523  2.2483  0.5262
  619MOL0     H85358   9.753   2.079   3.175 -1.2389 -2.4450 -3.8641
  619MOL0     H85359   9.610   2.217   3.079 -1.4623  0.5595 -0.8858
  619MOL0     H85360   9.477   2.191   3.199 -0.0368  2.4437 -1.9936
  619MOL0     H85361   9.580   2.310   3.365 -1.7531 -3.7712 -0.3797
  619MOL0     H85362   9.740   2.329   3.272  1.3079  1.4592  2.3795
  619MOL0     H85363   9.608   2.531   3.286  0.2971 -0.5861  0.8946
  619MOL0     H85364   9.461   2.468   3.224 -0.7516 -1.7601  0.2777
  619MOL0     H85365   9.709   2.484   3.057 -0.3446 -2.4279 -2.6051
  619MOL0     H85366   9.560   2.411   3.010 -2.1818 -0.9649  2.3852
  619MOL0     H85367   9.474   2.624   2.959 -0.5659  3.0591  1.5516
  619MOL0     H85368   9.646   2.643   2.933 -0.5815  1.1458 -0.7701
  619MOL0     H85369   9.579   2.822   3.014  1.6630 -0.8388 -0.5279
  619MOL0     H85370   9.527   2.763   3.178 -0.0455  0.1279 -0.2874
  619MOL0     H85371   9.741   2.997   3.110  2.2860  1.0560 -0.3720
  619MOL0     H85372   9.977   3.059   3.294 -2.2253  1.7808 -1.9517
  619MOL0     H85373   9.975   3.067   3.112  0.9294 -4.8412 -3.8672
  619MOL0     H85374  10.173   2.902   3.122  1.8537  2.0271 -0.3099
  619MOL0     H85375  10.211   3.064   3.149 -2.9517  0.7916 -2.7964
  619MOL0     H85376  10.179   3.023   3.402  2.0172  0.8546 -0.8557
  619MOL0     H85377  10.158   2.846   3.350 -0.2314 -0.6766 -0.2366
  619MOL0     H85378  10.378   2.865   3.257 -2.5624 -0.5855 -0.4587
  619MOL0     H85379  10.394   3.031   3.319 -0.8902  0.5621  2.7403
  619MOL0     H85380  10.462   2.912   3.687 -0.9636  2.0472 -2.7546
  619MOL0     H85381  10.614   2.930   3.876 -0.8480 -3.2836 -2.3779
  619MOL0     H85382  10.780   2.999   3.863 -0.0143  0.2774 -0.3177
  619MOL0     H85383  10.749   2.825   3.850  0.9780  0.9698 -0.0961
  619MOL0     H85384  11.071   3.011   3.845  0.8913  0.4175  1.1558
  619MOL0     H85385  11.274   3.025   3.938  1.2988 -0.6009  0.8193
  619MOL0     H85386  11.496   3.022   3.918 -2.8951  1.5942  2.2509
  619MOL0     H85387  11.494   2.965   4.085  1.6520 -1.6937  1.6881
  619MOL0     H85388  11.710   3.020   4.047 -0.3916  3.0288 -3.3268
  619MOL0     H85389  11.711   2.841   4.028  2.3170 -1.3346 -3.3699
  619MOL0     H85390  11.687   3.049   3.801  2.9165  1.4205 -0.3892
  619MOL0     H85391  11.671   2.877   3.780 -0.8412  1.5087 -1.3791
  619MOL0     H85392  11.929   2.996   3.880  1.1863 -1.4920  0.2646
  619MOL0     H85393  11.907   2.968   3.709 -0.1955  0.8524 -0.2880
  619MOL0     H85394  12.036   2.800   3.796 -1.4288  4.5563  0.9208
  619MOL0     H85395  11.920   2.747   3.922 -1.7485 -1.4159 -0.7424
  619MOL0     H85396  11.753   2.665   3.757 -0.2955  0.0819  1.3800
  619MOL0     H85397  11.909   2.581   3.774 -0.2600  0.5157  2.7352
  619MOL0     H85398  11.975   2.701   3.555 -0.1614 -1.7824  1.5550
  619MOL0     H85399  11.831   2.809   3.566  0.2624 -0.1136 -2.3383
  619MOL0     H85400  11.794   2.645   3.396  0.3151 -0.2757 -0.4989
  619MOL0     H85401  11.673   2.599   3.528  0.3846 -0.3699  2.1909
  619MOL0     H85402  11.355   2.626   3.797  0.0738 -1.2035 -1.6399
  619MOL0     H85403  11.147   2.635   3.656 -1.2637  1.6807 -0.8168
  619MOL0     H85404  10.826   2.973   3.376  0.6038  1.0240  1.5226
  619MOL0     H85405  10.599   2.930   3.297  2.5509 -1.2993 -1.1549
  619MOL0     H85406   9.510   1.736   2.959  3.1279  1.0278 -2.6208
  619MOL0     H85407   9.536   1.532   2.869 -0.7161 -0.2608  0.8087
  619MOL0     H85408   9.600   1.138   2.795 -1.3915 -1.5059 -1.6389
  619MOL0     H85409   9.577   0.955   2.679 -1.2903 -0.3488  0.8484
  619MOL0     H85410   9.560   0.693   2.592 -1.8714  2.3572  1.4779
  619MOL0     H85411   9.674   0.817   2.546  2.4243  0.2762  1.3512
  619MOL0     H85412   9.724   0.597   2.419  2.8583 -3.7617 -0.3763
  619MOL0     H85413   9.739   0.532   2.580  0.1907  0.2912  0.8141
  619MOL0     H85414   9.896   0.763   2.471 -0.0760 -1.3165 -3.3684
  619MOL0     H85415   9.928   0.665   2.623 -0.2154  0.5292 -0.7845
  619MOL0     H85416  10.010   0.474   2.499  2.3394  0.2316 -0.5756
  619MOL0     H85417  10.088   0.604   2.438 -0.6749  0.9409 -3.4766
  619MOL0     H85418   9.861   0.512   2.104  4.7105  1.2758 -2.3260
  619MOL0     H85419   9.911   0.775   2.863 -3.2454 -2.1436  0.4806
  619MOL0     H85420  10.062   1.052   2.967 -1.2334  0.0590 -2.3929
  619MOL0     H85421   9.973   1.021   3.118 -3.2093  1.0637 -1.3911
  619MOL0     H85422  10.053   0.884   3.033  1.2665  1.2452 -0.4517
  620MOL0     O85423   7.581   3.476   1.684 -0.5235  0.3050 -0.3954
  620MOL0     C85424   7.652   3.386   1.724  0.5871  1.0501 -0.8728
  620MOL0     O85425   7.623   3.259   1.691  0.5432  0.5498 -0.6551
  620MOL0     C85426   7.516   3.227   1.606  0.5039  0.6540  0.6900
  620MOL0     C85427   7.463   3.106   1.644  0.0687  0.7454  0.7696
  620MOL0     C85428   7.352   3.049   1.573 -0.3896 -0.2435 -0.1301
  620MOL0     C85429   7.297   3.117   1.461  0.5112  0.7848  0.6206
  620MOL0     O85430   7.196   3.052   1.396  0.6038 -0.1476  0.4119
  620MOL0     C85431   7.168   3.112   1.268 -0.4721 -0.0305  0.1492
  620MOL0     C85432   7.096   3.012   1.177 -0.0203  0.0282  0.1683
  620MOL0     C85433   7.056   3.088   1.044  0.3777 -0.1773  0.9083
  620MOL0     C85434   7.188   3.132   0.970  0.4920  1.4954 -0.2950
  620MOL0     C85435   7.166   3.244   0.878  0.8909  0.4414  0.0921
  620MOL0     C85436   7.136   3.376   0.945  0.6623  0.3272 -0.4626
  620MOL0     C85437   7.101   3.485   0.832  0.5026  0.1856  0.0947
  620MOL0     C85438   7.063   3.619   0.888  0.3226  0.8159  0.3595
  620MOL0     N85439   6.924   3.638   0.933 -0.2391  0.5762  0.2238
  620MOL0     C85440   6.840   3.732   0.881  0.3324  0.0748  0.3608
  620MOL0     C85441   6.720   3.705   0.941 -0.0825 -0.9390  0.4727
  620MOL0     C85442   6.603   3.783   0.895 -0.0484 -0.2930  0.1664
  620MOL0     C85443   6.577   3.884   1.019 -0.3313  1.2087 -0.4398
  620MOL0     C85444   6.477   3.994   0.994  0.1760  0.8012 -0.5370
  620MOL0     C85445   6.340   3.947   0.973  0.8347  1.5427 -0.1143
  620MOL0     O85446   6.291   3.827   1.043 -0.2494  0.6894  0.4522
  620MOL0     C85447   6.258   3.831   1.173 -0.1115  0.2909 -0.9674
  620MOL0     C85448   6.292   3.938   1.260  0.4972  0.7110  0.4129
  620MOL0     C85449   6.278   3.931   1.407  0.2637 -0.7841  1.6351
  620MOL0     C85450   6.330   4.051   1.483 -0.2196  0.5785  0.1507
  620MOL0     C85451   6.204   3.824   1.457 -1.0598  0.1853  0.1709
  620MOL0     C85452   6.157   3.812   1.593 -0.1814  0.4292  0.5419
  620MOL0     O85453   6.049   3.728   1.611 -0.9199 -0.0428 -0.7768
  620MOL0     C85454   5.958   3.746   1.719  1.2068  0.4655  0.6347
  620MOL0     C85455   5.860   3.644   1.722 -0.6637 -0.2995 -0.0580
  620MOL0     C85456   5.766   3.630   1.829 -0.2497 -0.5526  0.0640
  620MOL0     C85457   5.764   3.729   1.932  0.6579  0.1801 -0.3824
  620MOL0     O85458   5.676   3.722   2.032  0.2522  0.4669 -0.0336
  620MOL0     C85459   5.638   3.599   2.092  0.4491  0.5658 -0.3635
  620MOL0     C85460   5.550   3.639   2.212 -0.4279 -0.4717  0.0452
  620MOL0     C85461   5.400   3.669   2.178 -0.4177 -0.0029  0.1677
  620MOL0     C85462   5.329   3.538   2.165 -0.3142  0.5224  0.4348
  620MOL0     C85463   5.173   3.539   2.173  0.0654 -1.3485  0.0578
  620MOL0     C85464   5.130   3.580   2.318 -0.5822 -0.8235 -0.1900
  620MOL0     C85465   4.998   3.656   2.334  0.7383 -0.3326 -0.0044
  620MOL0     C85466   4.972   3.660   2.486 -0.1713  0.6175  0.7228
  620MOL0    Cl85467   4.805   3.710   2.506 -0.0372 -0.2473 -0.3789
  620MOL0     C85468   5.848   3.837   1.917 -0.6143 -0.6998  0.9906
  620MOL0     C85469   5.942   3.850   1.811  0.7135  1.0115  0.2301
  620MOL0     O85470   6.220   3.866   1.682 -0.2191 -0.1041  0.1379
  620MOL0     C85471   6.172   3.712   1.373 -0.9553  0.4631  1.0784
  620MOL0     C85472   6.202   3.723   1.238 -0.5651 -1.2290  0.6335
  620MOL0     N85473   6.734   3.611   1.036 -0.4400 -0.7338  0.0288
  620MOL0     N85474   6.863   3.575   1.026 -0.6633  0.0413 -0.7088
  620MOL0     C85475   7.351   3.244   1.430  1.2158 -0.3030 -0.9306
  620MOL0     C85476   7.459   3.299   1.496  0.2606  0.8455  0.7332
  620MOL0     C85477   7.781   3.420   1.796 -1.2619 -0.3981 -0.6670
  620MOL0     C85478   7.887   3.318   1.792  0.7956 -0.0931 -0.6252
  620MOL0     C85479   8.008   3.335   1.854 -0.5072  0.3686  0.4271
  620MOL0     C85480   8.029   3.450   1.919  0.2623  0.2530  0.3447
  620MOL0     O85481   8.154   3.490   1.959  0.2219 -0.4519 -0.3708
  620MOL0     C85482   8.260   3.406   1.928 -0.0185  0.1295 -0.6911
  620MOL0     C85483   8.389   3.482   1.905 -0.7052 -0.1390 -0.7350
  620MOL0     C85484   8.455   3.543   2.032  1.0346  0.5841 -0.6143
  620MOL0     C85485   8.570   3.645   1.998  0.1346 -0.4862 -0.6733
  620MOL0     C85486   8.696   3.562   1.972  0.2171 -0.1093  0.6972
  620MOL0     C85487   8.778   3.467   1.979  0.3260  0.2321  0.0048
  620MOL0     C85488   7.923   3.540   1.938 -1.6113 -0.2187 -0.0805
  620MOL0     C85489   7.805   3.529   1.878  0.7793 -0.3904  0.3100
  620MOL0     C85490   7.687   3.612   1.933 -0.4667  0.2728 -0.0002
  620MOL0     H85491   7.510   3.048   1.723  1.4002  0.1571 -0.4201
  620MOL0     H85492   7.330   2.952   1.617  1.1812 -0.1410  0.9775
  620MOL0     H85493   7.265   3.141   1.226  0.5741  1.0982  3.0318
  620MOL0     H85494   7.102   3.199   1.277  0.2474  0.9122 -2.5930
  620MOL0     H85495   7.149   2.920   1.150 -3.8517 -2.8363  1.4509
  620MOL0     H85496   7.013   2.974   1.237  1.3271 -1.3996  1.2200
  620MOL0     H85497   7.001   3.027   0.972  1.7196  0.3009 -0.5768
  620MOL0     H85498   6.981   3.167   1.054  0.9767  0.9487 -2.4343
  620MOL0     H85499   7.272   3.165   1.032 -0.8719  2.5603  1.0711
  620MOL0     H85500   7.224   3.046   0.912 -2.6596 -0.4685  0.3765
  620MOL0     H85501   7.079   3.215   0.819 -0.6340 -2.3885  3.3785
  620MOL0     H85502   7.254   3.255   0.813  1.7410  2.0721  1.4479
  620MOL0     H85503   7.049   3.366   1.010 -1.0523 -1.2193 -2.8139
  620MOL0     H85504   7.230   3.394   0.997  0.4407 -0.4133  0.2154
  620MOL0     H85505   7.017   3.445   0.775  1.3448 -0.0189 -1.0425
  620MOL0     H85506   7.184   3.494   0.761  1.8502 -0.3307  1.5170
  620MOL0     H85507   7.124   3.631   0.978  0.9795  2.2507 -0.2370
  620MOL0     H85508   7.093   3.705   0.826  3.9088  0.0424  0.7655
  620MOL0     H85509   6.864   3.805   0.804 -0.9857  0.4216  0.2536
  620MOL0     H85510   6.517   3.716   0.897  0.9280 -1.6304 -1.1775
  620MOL0     H85511   6.609   3.829   0.796  0.7715  1.0613  0.8149
  620MOL0     H85512   6.546   3.819   1.102 -1.9161  3.2489  0.6698
  620MOL0     H85513   6.670   3.936   1.041 -0.1392  0.0021  1.8466
  620MOL0     H85514   6.483   4.068   1.075  1.1908  2.2229 -1.8547
  620MOL0     H85515   6.507   4.039   0.899  0.6745  3.1027  0.6359
  620MOL0     H85516   6.275   4.033   0.990 -1.7531  0.0381 -1.7707
  620MOL0     H85517   6.323   3.923   0.867 -4.3997 -2.6439  1.2882
  620MOL0     H85518   6.325   4.029   1.211 -1.6005  0.6838 -1.1984
  620MOL0     H85519   6.421   4.025   1.537 -0.3711 -1.4436 -0.4602
  620MOL0     H85520   6.253   4.075   1.556  0.0008 -1.7269  1.2504
  620MOL0     H85521   6.352   4.139   1.422 -1.2076  0.9524  0.3082
  620MOL0     H85522   5.858   3.560   1.654  0.1264 -2.4111  2.3441
  620MOL0     H85523   5.686   3.559   1.813 -0.2052 -0.1489 -2.3899
  620MOL0     H85524   5.587   3.526   2.029  0.8802  0.7583 -0.9445
  620MOL0     H85525   5.727   3.556   2.138 -0.0536  1.8844  2.0357
  620MOL0     H85526   5.562   3.557   2.284 -3.0500 -0.0215  1.1217
  620MOL0     H85527   5.590   3.730   2.257 -0.5465 -0.3783 -0.0384
  620MOL0     H85528   5.395   3.714   2.078  0.3600 -1.8734 -0.7820
  620MOL0     H85529   5.367   3.742   2.252 -0.7638  0.1306 -0.1110
  620MOL0     H85530   5.367   3.483   2.252 -2.2697 -0.5953  0.6491
  620MOL0     H85531   5.361   3.496   2.069  2.8672  2.7028  0.3962
  620MOL0     H85532   5.146   3.619   2.103  2.5230 -1.7013 -1.3921
  620MOL0     H85533   5.126   3.441   2.159  1.2410 -2.3676  2.6077
  620MOL0     H85534   5.212   3.641   2.359  0.5086 -1.5109 -1.2649
  620MOL0     H85535   5.137   3.492   2.383  0.4181 -1.5676 -1.2570
  620MOL0     H85536   4.919   3.592   2.293  1.1821 -1.8132  1.3589
  620MOL0     H85537   5.003   3.760   2.300 -0.3115  1.4616  4.5160
  620MOL0     H85538   5.045   3.721   2.538  0.5329  1.6088 -1.3161
  620MOL0     H85539   4.973   3.555   2.519 -4.8687 -0.4406 -1.5267
  620MOL0     H85540   5.848   3.920   1.987  3.7038  0.1900  0.2127
  620MOL0     H85541   5.995   3.943   1.798  1.4460  1.1684  3.4572
  620MOL0     H85542   6.115   3.629   1.412  0.0051 -0.7108  0.0468
  620MOL0     H85543   6.174   3.642   1.172  1.3416 -0.6676 -0.9429
  620MOL0     H85544   7.305   3.298   1.347 -2.4411 -4.1202 -1.7203
  620MOL0     H85545   7.498   3.394   1.461  1.2562 -0.8716 -3.2768
  620MOL0     H85546   7.851   3.230   1.740 -0.1560  0.5992 -1.1874
  620MOL0     H85547   8.077   3.252   1.847 -2.3473 -1.4770  2.4312
  620MOL0     H85548   8.277   3.329   2.004 -3.3885 -0.2726 -0.1828
  620MOL0     H85549   8.255   3.359   1.829 -3.0355  4.0195 -2.6578
  620MOL0     H85550   8.377   3.570   1.841  0.3658 -0.3150 -1.2018
  620MOL0     H85551   8.467   3.428   1.849 -0.1547  1.1990 -1.3077
  620MOL0     H85552   8.384   3.608   2.083  0.9446 -1.1909  1.6804
  620MOL0     H85553   8.477   3.455   2.092 -1.7667 -1.5765 -2.5278
  620MOL0     H85554   8.592   3.715   2.078  1.1076 -1.1517 -0.3360
  620MOL0     H85555   8.556   3.704   1.907 -3.2743  3.6349  2.1942
  620MOL0     H85556   8.847   3.386   1.989  1.1821  0.9507 -0.0195
  620MOL0     H85557   7.948   3.619   2.007 -1.8436 -1.2548  1.2305
  620MOL0     H85558   7.647   3.537   2.001 -0.5174 -0.6208 -0.9930
  620MOL0     H85559   7.733   3.693   1.992  0.0444  0.0260 -0.0521
  620MOL0     H85560   7.615   3.651   1.861 -0.5360 -0.4042 -0.2996
  621MOL0     O85561   2.651   5.321   4.676  0.0574 -0.3274  0.0286
  621MOL0     C85562   2.696   5.209   4.646 -0.3287 -1.2778 -0.4636
  621MOL0     O85563   2.659   5.089   4.700  0.0298 -0.7298  0.2720
  621MOL0     C85564   2.577   5.093   4.812 -0.3923  0.0074 -0.5977
  621MOL0     C85565   2.588   5.177   4.921 -0.5838  0.2634  0.6989
  621MOL0     C85566   2.505   5.155   5.026  0.0627 -0.2311 -0.4451
  621MOL0     C85567   2.402   5.057   5.028 -0.4793  0.7284 -0.6576
  621MOL0     O85568   2.328   5.036   5.141  0.6329  0.2018 -0.4886
  621MOL0     C85569   2.307   5.140   5.235  0.3825 -0.0778 -0.1099
  621MOL0     C85570   2.222   5.074   5.353  1.6356 -0.4293  0.6607
  621MOL0     C85571   2.294   4.961   5.434 -0.4158 -0.0763  0.9621
  621MOL0     C85572   2.246   4.831   5.390 -1.2600  0.4185 -0.5563
  621MOL0     C85573   2.321   4.723   5.472 -0.3665  1.1465  0.1898
  621MOL0     C85574   2.469   4.700   5.438  1.1237  0.1202  0.6500
  621MOL0     C85575   2.567   4.728   5.554 -0.7432 -1.2138 -0.1531
  621MOL0     C85576   2.528   4.638   5.668 -0.7601  1.2299 -0.5987
  621MOL0     N85577   2.638   4.622   5.773  0.1557 -0.4055  0.1654
  621MOL0     C85578   2.717   4.515   5.798 -1.1085  0.0135  0.3781
  621MOL0     C85579   2.812   4.551   5.884  0.7366 -0.4041  0.1970
  621MOL0     C85580   2.943   4.484   5.932  0.0648  0.1677  1.3116
  621MOL0     C85581   2.923   4.359   6.009 -0.5526  0.5477 -0.4567
  621MOL0     C85582   2.819   4.347   6.125  0.4397  0.2317 -0.7187
  621MOL0     C85583   2.798   4.472   6.204 -0.4166 -0.6121 -0.4011
  621MOL0     O85584   2.929   4.497   6.268 -0.7950 -0.1457 -0.4118
  621MOL0     C85585   2.950   4.616   6.328 -0.4723  0.5998 -0.3003
  621MOL0     C85586   2.938   4.735   6.263  0.7550  0.2702 -0.1955
  621MOL0     C85587   2.987   4.851   6.328 -0.5627  0.0032  0.3522
  621MOL0     C85588   2.966   4.984   6.254  0.4449 -0.3131 -0.3414
  621MOL0     C85589   3.044   4.851   6.458  0.9852 -0.3109 -0.7145
  621MOL0     C85590   3.096   4.969   6.535 -0.1060  0.2714  0.0955
  621MOL0     O85591   3.168   5.062   6.468 -0.5259 -0.5055 -0.3422
  621MOL0     C85592   3.214   5.173   6.531  0.8038 -0.2397  0.5469
  621MOL0     C85593   3.231   5.279   6.449 -0.5936  0.1032 -0.5492
  621MOL0     C85594   3.280   5.402   6.499  0.2346  0.9981  0.4109
  621MOL0     C85595   3.306   5.430   6.631 -0.1603  0.8059  0.1083
  621MOL0     O85596   3.352   5.543   6.681  0.0272 -0.7004  0.2193
  621MOL0     C85597   3.471   5.598   6.618 -1.0432  0.2611  1.0287
  621MOL0     C85598   3.567   5.649   6.718 -0.0076 -0.5258 -0.3344
  621MOL0     C85599   3.686   5.724   6.649  0.5119 -0.0746 -0.8996
  621MOL0     C85600   3.761   5.804   6.754  0.2511 -0.4656  0.3640
  621MOL0     C85601   3.886   5.888   6.696 -0.1781 -0.5802  0.2129
  621MOL0     C85602   3.961   5.943   6.816 -0.0935 -0.1543 -0.0687
  621MOL0     C85603   4.081   6.024   6.785 -0.9245 -0.2829  0.3275
  621MOL0     C85604   4.169   6.071   6.898  0.4388  0.1180 -0.4199
  621MOL0    Cl85605   4.185   5.959   7.039 -0.3414 -0.0733  0.2624
  621MOL0     C85606   3.286   5.324   6.716  0.3782 -0.7559 -0.1316
  621MOL0     C85607   3.239   5.197   6.666 -0.2762  0.0861  0.2142
  621MOL0     O85608   3.074   4.973   6.651 -0.7398  0.6529  0.7301
  621MOL0     C85609   3.034   4.726   6.522 -0.2077  0.6070  0.1275
  621MOL0     C85610   2.993   4.609   6.459  0.6555  0.1974 -0.3528
  621MOL0     N85611   2.792   4.683   5.925  0.4713 -0.3393 -0.1123
  621MOL0     N85612   2.692   4.727   5.855 -0.2246 -0.8525 -0.1345
  621MOL0     C85613   2.406   4.973   4.920  0.6025  0.3944  0.5231
  621MOL0     C85614   2.489   4.992   4.811 -0.1500 -0.1005 -0.3679
  621MOL0     C85615   2.805   5.196   4.540  0.0637 -0.7504  0.4092
  621MOL0     C85616   2.845   5.080   4.484  0.2797 -0.0412  0.0075
  621MOL0     C85617   2.927   5.063   4.373  0.8556  0.1071 -0.1949
  621MOL0     C85618   2.991   5.183   4.323 -0.5719 -0.0974  0.3935
  621MOL0     O85619   3.082   5.180   4.225  0.2181 -0.5326  0.3827
  621MOL0     C85620   3.133   5.056   4.181 -0.0925  0.8237  0.5398
  621MOL0     C85621   3.049   4.988   4.070 -0.1674  0.2407 -0.6459
  621MOL0     C85622   3.113   4.846   4.031  0.8020 -0.4457  0.0675
  621MOL0     C85623   2.996   4.760   3.969 -0.5995 -0.0128  0.8362
  621MOL0     C85624   3.033   4.621   3.975  0.4643 -0.5626  0.5841
  621MOL0     C85625   3.066   4.501   3.968  0.5043 -0.1826 -0.0450
  621MOL0     C85626   2.965   5.303   4.381  0.9609  0.3345  0.0287
  621MOL0     C85627   2.873   5.310   4.490  0.2422 -1.4057 -0.6446
  621MOL0     C85628   2.859   5.450   4.553 -0.3336 -0.5985  1.1560
  621MOL0     H85629   2.676   5.241   4.924  1.0388 -1.6745 -1.4378
  621MOL0     H85630   2.534   5.202   5.120  3.3796 -0.3867 -1.2666
  621MOL0     H85631   2.243   5.220   5.195  0.3486 -0.8619 -1.6934
  621MOL0     H85632   2.399   5.192   5.263  2.3484 -1.4231 -3.5103
  621MOL0     H85633   2.202   5.169   5.403  0.7601  0.9994 -2.1752
  621MOL0     H85634   2.125   5.045   5.312  1.0181 -0.0502  1.8055
  621MOL0     H85635   2.402   4.976   5.429 -0.4244  0.6934  2.5001
  621MOL0     H85636   2.272   4.988   5.538 -2.5981  3.3432 -0.2342
  621MOL0     H85637   2.141   4.811   5.410 -0.4438 -2.6338  1.5170
  621MOL0     H85638   2.266   4.813   5.284 -0.0475  1.8558 -0.6038
  621MOL0     H85639   2.280   4.622   5.457  2.7655 -0.6755  2.5328
  621MOL0     H85640   2.311   4.730   5.581 -1.0668 -1.8965  0.4084
  621MOL0     H85641   2.478   4.600   5.393  2.3176  0.6208 -0.2751
  621MOL0     H85642   2.502   4.752   5.348 -1.7266 -1.6045 -1.5933
  621MOL0     H85643   2.564   4.832   5.587  0.2375 -1.2733  0.1650
  621MOL0     H85644   2.668   4.690   5.536 -0.8372 -4.6453  4.5367
  621MOL0     H85645   2.437   4.680   5.712 -1.0303  1.5592 -1.4560
  621MOL0     H85646   2.511   4.537   5.629  1.1509  0.3631  0.6154
  621MOL0     H85647   2.705   4.417   5.754  3.6114 -0.0225 -1.3514
  621MOL0     H85648   3.002   4.559   5.986  0.9558 -0.5443  1.3467
  621MOL0     H85649   2.992   4.457   5.838 -0.1515  2.7459  0.3851
  621MOL0     H85650   2.898   4.273   5.946 -1.3506  2.2371 -2.5799
  621MOL0     H85651   3.014   4.343   6.067 -1.9951  0.3619  1.8685
  621MOL0     H85652   2.723   4.337   6.072  1.1564  4.3988 -3.2873
  621MOL0     H85653   2.849   4.273   6.200  1.6272  2.4015  1.0527
  621MOL0     H85654   2.765   4.557   6.145 -0.2643 -0.3391 -0.0947
  621MOL0     H85655   2.731   4.461   6.290  0.4825 -0.1652  0.3783
  621MOL0     H85656   2.897   4.723   6.163 -0.4272 -1.6037  0.4464
  621MOL0     H85657   2.875   5.028   6.298  1.1897  1.5536 -0.5710
  621MOL0     H85658   2.943   4.973   6.148 -0.5570  1.5022 -0.3597
  621MOL0     H85659   3.044   5.059   6.268  0.9822 -0.3278 -2.7535
  621MOL0     H85660   3.197   5.279   6.346  0.1693 -1.9719 -0.8475
  621MOL0     H85661   3.306   5.480   6.428  2.7164 -1.7413 -2.0155
  621MOL0     H85662   3.522   5.512   6.574 -3.2490 -2.3300  3.1592
  621MOL0     H85663   3.452   5.680   6.549  1.0603 -0.9965 -1.1844
  621MOL0     H85664   3.511   5.721   6.778 -0.3541 -0.6050 -0.5559
  621MOL0     H85665   3.613   5.569   6.778 -0.8778  0.4741  1.7552
  621MOL0     H85666   3.672   5.790   6.562  3.1815 -1.1683 -2.2745
  621MOL0     H85667   3.745   5.641   6.609 -2.7375 -1.3275 -3.6073
  621MOL0     H85668   3.796   5.744   6.838  0.8288  2.6143  2.5001
  621MOL0     H85669   3.699   5.882   6.800  0.0189 -1.4228  1.7089
  621MOL0     H85670   3.948   5.829   6.626 -0.9429  0.7456 -1.6707
  621MOL0     H85671   3.841   5.971   6.641 -2.5587 -1.6878  0.3895
  621MOL0     H85672   3.985   5.860   6.883 -3.3475 -0.9628  0.2338
  621MOL0     H85673   3.897   6.011   6.872  0.1770 -1.0891  1.4488
  621MOL0     H85674   4.064   6.114   6.725 -1.2371  0.5224  1.5902
  621MOL0     H85675   4.150   5.959   6.730 -1.6460 -0.3120 -0.5693
  621MOL0     H85676   4.139   6.171   6.931 -0.9949 -0.5027  0.2254
  621MOL0     H85677   4.273   6.073   6.863  1.6262  3.2872  2.6817
  621MOL0     H85678   3.314   5.347   6.818  2.8287  2.8357 -1.4071
  621MOL0     H85679   3.224   5.124   6.746  0.5350  1.7686  1.9864
  621MOL0     H85680   3.074   4.714   6.622  1.2364 -0.5138 -0.5470
  621MOL0     H85681   2.989   4.517   6.517  0.4837 -0.3256 -1.1900
  621MOL0     H85682   2.336   4.890   4.918  1.4646 -0.3478  0.5789
  621MOL0     H85683   2.488   4.926   4.725  1.5165  1.5463 -1.7487
  621MOL0     H85684   2.782   4.996   4.513 -0.6927  0.3212 -0.9730
  621MOL0     H85685   2.956   4.967   4.332 -0.0970 -0.5962  0.7482
  621MOL0     H85686   3.234   5.080   4.147  0.0686 -0.1658  0.2753
  621MOL0     H85687   3.144   4.987   4.265 -0.3525  1.4319  1.0675
  621MOL0     H85688   3.056   5.042   3.975  2.9925  1.6091  0.2370
  621MOL0     H85689   2.942   4.990   4.091 -0.1516  2.0157 -0.6504
  621MOL0     H85690   3.198   4.859   3.963  0.6002 -5.2446 -1.4925
  621MOL0     H85691   3.150   4.802   4.124  1.0504 -3.0988 -1.1864
  621MOL0     H85692   2.978   4.796   3.867 -1.2634 -2.1557  0.1349
  621MOL0     H85693   2.899   4.782   4.013  0.8701  1.9086  3.3953
  621MOL0     H85694   3.105   4.402   3.957 -0.1510 -0.6285  1.4110
  621MOL0     H85695   3.006   5.389   4.330  2.3407 -0.3583 -0.0693
  621MOL0     H85696   2.760   5.495   4.540 -0.1974 -0.0198  2.0145
  621MOL0     H85697   2.880   5.446   4.661  0.2651  0.6613  1.1062
  621MOL0     H85698   2.930   5.518   4.505 -0.8888 -1.3696 -0.8740
  622MOL0     O85699   9.602   0.362   5.760 -0.0574 -1.0783 -0.9489
  622MOL0     C85700   9.482   0.332   5.770  0.8778 -0.3074  0.8794
  622MOL0     O85701   9.436   0.200   5.773 -0.1742 -0.6094 -0.5457
  622MOL0     C85702   9.502   0.111   5.689  0.1417  0.1395 -0.9078
  622MOL0     C85703   9.526   0.140   5.558  0.2622 -0.3034  0.4445
  622MOL0     C85704   9.593   0.053   5.473  0.1721 -0.2277  0.7985
  622MOL0     C85705   9.650  -0.066   5.525  0.2663 -0.7494  0.2174
  622MOL0     O85706   9.722  -0.157   5.458  0.6417 -0.3258 -0.3915
  622MOL0     C85707   9.835  -0.105   5.383  0.0740 -0.1033  0.4579
  622MOL0     C85708   9.938  -0.222   5.365  0.2482  0.3495  0.1442
  622MOL0     C85709  10.050  -0.207   5.259 -0.3165 -0.5017  0.0839
  622MOL0     C85710  10.147  -0.324   5.241  1.2641 -0.1004 -0.4429
  622MOL0     C85711  10.069  -0.458   5.216  0.7713 -0.2533 -0.3543
  622MOL0     C85712  10.145  -0.558   5.149 -1.0915  1.1475  0.2546
  622MOL0     C85713  10.254  -0.601   5.256 -0.7180 -0.3535 -0.1296
  622MOL0     C85714  10.301  -0.742   5.230 -0.2788 -1.1676 -0.2231
  622MOL0     N85715  10.428  -0.780   5.297  0.0898  0.2932 -0.3912
  622MOL0     C85716  10.444  -0.812   5.427 -0.9803 -0.9836  0.1406
  622MOL0     C85717  10.575  -0.849   5.431 -0.0927 -0.7277 -0.0902
  622MOL0     C85718  10.658  -0.848   5.551 -0.0101  0.7463  0.9816
  622MOL0     C85719  10.594  -0.848   5.685 -0.3837 -0.1688  1.1345
  622MOL0     C85720  10.520  -0.981   5.724 -0.5081 -1.0153  0.1579
  622MOL0     C85721  10.440  -0.985   5.860 -0.8367 -0.1846 -0.4755
  622MOL0     O85722  10.313  -0.907   5.841 -0.4105  0.8957  0.0303
  622MOL0     C85723  10.323  -0.771   5.845 -0.4764  0.2327  0.4537
  622MOL0     C85724  10.230  -0.696   5.769 -0.5513 -0.8102 -0.3513
  622MOL0     C85725  10.232  -0.554   5.767  0.4914 -0.6979 -0.0944
  622MOL0     C85726  10.125  -0.488   5.686 -0.1993  0.3098  0.4770
  622MOL0     C85727  10.327  -0.486   5.851  0.1254 -0.1647 -0.4842
  622MOL0     C85728  10.345  -0.344   5.880  0.2431 -1.1204 -0.2259
  622MOL0     O85729  10.469  -0.291   5.904  0.6532 -0.7044 -0.0881
  622MOL0     C85730  10.503  -0.156   5.929  0.5530 -0.1204  1.0053
  622MOL0     C85731  10.418  -0.045   5.933  1.1468  0.1543 -0.3936
  622MOL0     C85732  10.474   0.081   5.965  0.8471 -0.6291 -0.0201
  622MOL0     C85733  10.609   0.095   5.989 -0.9957 -0.0506 -0.8135
  622MOL0     O85734  10.684   0.218   6.013  0.0968  0.8457 -0.9774
  622MOL0     C85735  10.617   0.344   5.993  0.5677 -0.1785 -0.6808
  622MOL0     C85736  10.634   0.396   5.850  0.3033 -0.5938 -0.2912
  622MOL0     C85737  10.555   0.522   5.816 -0.7423 -0.4813  0.0693
  622MOL0     C85738  10.406   0.491   5.818 -0.4644 -0.1505  0.5945
  622MOL0     C85739  10.324   0.608   5.757 -0.3651  0.0419  0.6066
  622MOL0     C85740  10.365   0.642   5.607  0.0099  0.1028  0.7776
  622MOL0     C85741  10.242   0.720   5.546 -0.4115  0.5324  0.5507
  622MOL0     C85742  10.235   0.851   5.616 -0.9340 -0.1853  0.2328
  622MOL0    Cl85743  10.116   0.960   5.547  0.0873 -0.0102  0.1487
  622MOL0     C85744  10.691  -0.010   5.983  0.6982 -0.5873 -0.5870
  622MOL0     C85745  10.639  -0.132   5.951 -0.2439  0.6544 -0.1910
  622MOL0     O85746  10.242  -0.283   5.892  0.1426  0.5966 -0.1350
  622MOL0     C85747  10.426  -0.563   5.925  0.6910 -0.7435  0.6635
  622MOL0     C85748  10.417  -0.705   5.925 -0.3748 -1.3692  0.1051
  622MOL0     N85749  10.630  -0.856   5.300  0.4507 -0.2022 -0.1265
  622MOL0     N85750  10.539  -0.803   5.223  0.8649 -0.3123 -0.1075
  622MOL0     C85751   9.642  -0.077   5.663  0.6059  0.4283 -0.1043
  622MOL0     C85752   9.573   0.006   5.752  0.3391  0.7288 -0.2957
  622MOL0     C85753   9.387   0.446   5.771 -0.0242 -0.8076  1.5672
  622MOL0     C85754   9.258   0.415   5.723  0.4858  0.0249  0.5808
  622MOL0     C85755   9.171   0.521   5.689 -0.1317  0.9306 -0.1937
  622MOL0     C85756   9.198   0.652   5.708  0.2849  0.2891 -0.0139
  622MOL0     O85757   9.117   0.742   5.650 -0.2563  0.0725 -0.2238
  622MOL0     C85758   9.077   0.843   5.745 -0.9105  0.3805 -0.0855
  622MOL0     C85759   8.976   0.931   5.680  1.1077 -0.4358 -0.3372
  622MOL0     C85760   8.841   0.863   5.687 -0.3663 -0.7095  0.8450
  622MOL0     C85761   8.758   0.909   5.557 -0.6276 -0.0443  0.2314
  622MOL0     C85762   8.613   0.869   5.563 -0.6110 -0.3526  0.6017
  622MOL0     C85763   8.499   0.837   5.556  0.5371  0.5638  0.5244
  622MOL0     C85764   9.320   0.685   5.769  0.3841  0.2703 -0.2710
  622MOL0     C85765   9.421   0.582   5.800 -0.4163 -0.2861 -0.2523
  622MOL0     C85766   9.554   0.630   5.867 -0.2216 -0.3166 -0.9256
  622MOL0     H85767   9.478   0.223   5.506  0.2761 -0.8386 -0.4504
  622MOL0     H85768   9.611   0.081   5.370 -4.3332  3.9076  0.7797
  622MOL0     H85769   9.876  -0.020   5.439 -0.0967  0.9844 -1.0329
  622MOL0     H85770   9.809  -0.071   5.283  0.5016  0.3071  0.4790
  622MOL0     H85771   9.984  -0.252   5.460  0.8576 -1.6890 -0.7344
  622MOL0     H85772   9.873  -0.306   5.343 -1.9708  1.6860  1.2701
  622MOL0     H85773  10.003  -0.185   5.163 -0.9411  2.5381  0.9832
  622MOL0     H85774  10.122  -0.127   5.279  1.0353 -1.9833  1.4295
  622MOL0     H85775  10.215  -0.301   5.158  2.4446 -0.9180  0.2714
  622MOL0     H85776  10.217  -0.341   5.323  1.1976 -2.5431 -0.8194
  622MOL0     H85777   9.978  -0.449   5.155  1.4253 -0.3104 -1.3599
  622MOL0     H85778  10.025  -0.493   5.310 -1.5935  2.0702 -0.4761
  622MOL0     H85779  10.081  -0.638   5.111 -0.8261  0.2068  1.7112
  622MOL0     H85780  10.185  -0.525   5.052 -2.2692 -1.5661 -1.2697
  622MOL0     H85781  10.230  -0.593   5.362  3.3817 -0.1551  0.9678
  622MOL0     H85782  10.341  -0.536   5.240 -1.3147  0.5479  0.1793
  622MOL0     H85783  10.227  -0.821   5.248  1.4534 -3.9008 -3.6061
  622MOL0     H85784  10.325  -0.738   5.123  0.8166  1.0314  0.0688
  622MOL0     H85785  10.373  -0.790   5.506  0.7052 -3.6395  2.6105
  622MOL0     H85786  10.698  -0.746   5.543 -2.4362  1.7819  1.2382
  622MOL0     H85787  10.741  -0.920   5.545  2.6385  3.6869 -1.1708
  622MOL0     H85788  10.674  -0.829   5.757  0.9972  0.1642 -0.4331
  622MOL0     H85789  10.514  -0.773   5.687 -1.5801 -1.4180  1.2765
  622MOL0     H85790  10.439  -0.993   5.652  1.2993 -1.9892 -1.8459
  622MOL0     H85791  10.590  -1.065   5.714 -0.5298 -0.8293 -2.0884
  622MOL0     H85792  10.421  -1.089   5.889  1.1983 -0.5785 -0.3811
  622MOL0     H85793  10.508  -0.956   5.941  0.8419  0.4655 -2.0409
  622MOL0     H85794  10.167  -0.745   5.696  3.8457 -4.2967 -2.3174
  622MOL0     H85795  10.046  -0.487   5.760  1.2272 -0.9934  2.1193
  622MOL0     H85796  10.092  -0.558   5.609 -1.3210  1.1967  0.1326
  622MOL0     H85797  10.147  -0.389   5.644 -0.0851  0.9671  2.0354
  622MOL0     H85798  10.315  -0.049   5.898  2.1008  0.5550 -3.6068
  622MOL0     H85799  10.409   0.167   5.955  2.7537  0.9144  0.0897
  622MOL0     H85800  10.510   0.342   6.018  0.5586 -1.5581 -0.7655
  622MOL0     H85801  10.670   0.414   6.058  0.6305 -1.1364  0.3235
  622MOL0     H85802  10.741   0.418   5.845 -0.3009  2.4713 -1.8115
  622MOL0     H85803  10.615   0.324   5.770  3.9632  0.0688 -1.9803
  622MOL0     H85804  10.583   0.558   5.716 -0.7527 -2.4288 -0.6636
  622MOL0     H85805  10.581   0.607   5.880 -0.4560 -0.4389 -0.0989
  622MOL0     H85806  10.375   0.484   5.923 -0.9903 -1.3899  0.3731
  622MOL0     H85807  10.392   0.394   5.770 -1.1174 -0.3706  1.2059
  622MOL0     H85808  10.217   0.586   5.757 -0.5971  1.1056  0.0824
  622MOL0     H85809  10.337   0.693   5.824  0.2288 -0.0808  0.6461
  622MOL0     H85810  10.379   0.551   5.548 -1.1043  0.0702  0.5497
  622MOL0     H85811  10.454   0.705   5.594 -1.8501  2.3101 -3.5377
  622MOL0     H85812  10.153   0.656   5.551  0.0955 -0.1567  0.8876
  622MOL0     H85813  10.262   0.742   5.441 -1.5086  1.0711  0.4453
  622MOL0     H85814  10.330   0.905   5.613 -1.0622  0.0385  0.1182
  622MOL0     H85815  10.201   0.839   5.719 -0.9681  0.7132  0.3386
  622MOL0     H85816  10.798  -0.002   6.003  0.5670 -1.4165  0.5566
  622MOL0     H85817  10.709  -0.215   5.961 -0.0263  0.3970 -3.0870
  622MOL0     H85818  10.501  -0.507   5.981  0.0389 -0.6359  1.4355
  622MOL0     H85819  10.503  -0.757   5.966  0.8000  1.5400  1.6082
  622MOL0     H85820   9.702  -0.157   5.704  1.7097  1.0173 -0.5300
  622MOL0     H85821   9.582  -0.009   5.859  3.4677  1.7955 -0.3068
  622MOL0     H85822   9.211   0.319   5.700 -0.8502  0.1216  2.6328
  622MOL0     H85823   9.077   0.493   5.643 -0.0795  0.4270  0.0010
  622MOL0     H85824   9.030   0.800   5.834 -2.5058  0.1962 -0.9796
  622MOL0     H85825   9.168   0.888   5.785  1.8150 -2.9447 -1.9952
  622MOL0     H85826   9.007   0.956   5.578 -0.8720 -0.5628 -1.0199
  622MOL0     H85827   8.970   1.025   5.735  0.5624  0.4062 -1.7821
  622MOL0     H85828   8.861   0.755   5.685 -0.4204 -0.8527  3.8661
  622MOL0     H85829   8.793   0.892   5.781  0.4479  1.0111  0.7648
  622MOL0     H85830   8.809   0.869   5.470  1.1851 -1.9334  2.0385
  622MOL0     H85831   8.743   1.017   5.547 -0.8425  0.0036  0.9831
  622MOL0     H85832   8.397   0.811   5.578  0.6943 -0.3293  0.2153
  622MOL0     H85833   9.355   0.787   5.781  0.5933  0.7370 -3.7789
  622MOL0     H85834   9.623   0.666   5.790 -1.3421 -0.0303 -1.8251
  622MOL0     H85835   9.540   0.712   5.938 -1.8091 -1.1163 -0.2753
  622MOL0     H85836   9.601   0.553   5.929 -2.1691  1.7281  3.4502
  623MOL0     O85837   6.032   9.965   9.962 -0.6945 -0.5748  0.1364
  623MOL0     C85838   6.050   9.876   9.880 -1.3213  0.5887  0.8048
  623MOL0     O85839   6.162   9.864   9.796  0.8631 -0.9739 -0.0976
  623MOL0     C85840   6.250   9.963   9.822  0.4051 -0.2226  0.1773
  623MOL0     C85841   6.253  10.068   9.724 -0.5307  0.5907 -0.0476
  623MOL0     C85842   6.347  10.162   9.742  0.0662 -0.9160 -0.0327
  623MOL0     C85843   6.438  10.166   9.854  0.1142  0.6326  0.2487
  623MOL0     O85844   6.530  10.264   9.878 -0.0417  0.0452 -0.1297
  623MOL0     C85845   6.522  10.399   9.816 -0.4817  0.9124 -0.8819
  623MOL0     C85846   6.401  10.481   9.858  0.2056 -0.0001  0.3601
  623MOL0     C85847   6.374  10.618   9.795 -1.5769 -0.3486  0.3456
  623MOL0     C85848   6.487  10.722   9.816  0.6432  0.1334 -0.2111
  623MOL0     C85849   6.452  10.868   9.784  0.0577 -1.2137  0.3624
  623MOL0     C85850   6.563  10.970   9.800  0.1522  0.7245 -0.0799
  623MOL0     C85851   6.523  11.101   9.747 -0.3465 -0.3211  0.1029
  623MOL0     C85852   6.652  11.179   9.716  0.7482 -0.4957  0.4117
  623MOL0     N85853   6.691  11.230   9.846 -0.5764  0.0878 -0.3148
  623MOL0     C85854   6.676  11.366   9.896  0.0468  0.5980  1.2963
  623MOL0     C85855   6.744  11.369  10.015 -0.0977 -0.8158  0.7634
  623MOL0     C85856   6.740  11.473  10.120 -0.3735  0.3360 -0.6850
  623MOL0     C85857   6.629  11.459  10.217 -0.3158  0.7773  0.0871
  623MOL0     C85858   6.660  11.361  10.327 -1.0108  0.4592  0.8394
  623MOL0     C85859   6.628  11.414  10.475 -0.6866 -0.1244 -0.2373
  623MOL0     O85860   6.686  11.540  10.489  0.2138  0.2199 -0.1331
  623MOL0     C85861   6.709  11.584  10.616 -0.6516 -0.8671  0.0115
  623MOL0     C85862   6.745  11.725  10.623  0.9953  0.9916 -0.2051
  623MOL0     C85863   6.766  11.788  10.749 -0.5482 -0.7208  0.8420
  623MOL0     C85864   6.775  11.935  10.725  0.4396 -0.9693 -1.1115
  623MOL0     C85865   6.779  11.720  10.863 -0.3523  0.4254 -0.0015
  623MOL0     C85866   6.813  11.777  11.000 -0.0623  1.3854 -0.2194
  623MOL0     O85867   6.809  11.683  11.108 -1.3778  0.1328  0.1440
  623MOL0     C85868   6.858  11.707  11.229 -0.3073 -1.0423 -0.1585
  623MOL0     C85869   6.923  11.824  11.275  0.3970 -0.5531  0.4011
  623MOL0     C85870   6.973  11.829  11.405  0.2131 -0.6405 -0.4869
  623MOL0     C85871   6.950  11.727  11.496 -0.2791 -0.1065  1.0835
  623MOL0     O85872   6.993  11.747  11.628  0.1820 -0.3915  0.0426
  623MOL0     C85873   6.925  11.660  11.725  0.0844 -0.9809  0.4060
  623MOL0     C85874   6.962  11.713  11.861  0.7835  0.5474 -0.6611
  623MOL0     C85875   6.987  11.591  11.957  0.3130 -0.0900 -0.4899
  623MOL0     C85876   7.121  11.523  11.962 -0.3127 -0.7025  0.0749
  623MOL0     C85877   7.128  11.388  12.024 -0.6066 -0.2678 -0.0619
  623MOL0     C85878   7.089  11.273  11.944 -0.7109  0.0372  0.2612
  623MOL0     C85879   7.160  11.151  11.987 -1.0020  0.6699 -0.5395
  623MOL0     C85880   7.108  11.100  12.127  0.5254  0.0055  0.4537
  623MOL0    Cl85881   6.923  11.089  12.156  0.2429  0.0620 -0.1254
  623MOL0     C85882   6.886  11.611  11.450 -0.0412 -0.2216  0.0689
  623MOL0     C85883   6.837  11.605  11.321  0.1844  0.5153  0.0601
  623MOL0     O85884   6.823  11.896  11.009 -0.0614 -0.8774  0.2491
  623MOL0     C85885   6.732  11.582  10.864 -0.6125 -1.0306 -0.3868
  623MOL0     C85886   6.697  11.520  10.738  0.4364 -0.8363 -0.2149
  623MOL0     N85887   6.813  11.252  10.027 -0.2404 -0.4042  0.3754
  623MOL0     N85888   6.792  11.182   9.930 -0.3703 -0.7524  0.4281
  623MOL0     C85889   6.435  10.056   9.940 -0.1017  0.0513  0.2402
  623MOL0     C85890   6.348   9.946   9.923  0.1097  0.1200  0.5494
  623MOL0     C85891   5.936   9.785   9.841  0.4636 -0.7521 -1.2259
  623MOL0     C85892   5.966   9.682   9.749 -0.5562 -0.1797 -0.1874
  623MOL0     C85893   5.858   9.602   9.693 -0.9108  0.5897  0.1484
  623MOL0     C85894   5.732   9.612   9.737  0.3058 -0.7454  0.0150
  623MOL0     O85895   5.635   9.540   9.682  0.8799  1.0761  0.4389
  623MOL0     C85896   5.579   9.562   9.552 -0.0327 -0.2520 -0.9713
  623MOL0     C85897   5.666   9.506   9.439 -0.4202  0.8856  0.0093
  623MOL0     C85898   5.712   9.356   9.447  0.8668  0.9016  0.2500
  623MOL0     C85899   5.800   9.302   9.331  1.5389 -0.1734  1.1105
  623MOL0     C85900   5.729   9.307   9.207  1.0957  0.9763 -0.0363
  623MOL0     C85901   5.664   9.319   9.103  0.3715 -0.0186 -0.7665
  623MOL0     C85902   5.707   9.706   9.837  0.0958  0.5163 -0.5376
  623MOL0     C85903   5.802   9.795   9.890  1.0510  0.1570 -0.1080
  623MOL0     C85904   5.748   9.907   9.971 -1.1204 -1.0431 -0.5009
  623MOL0     H85905   6.187  10.050   9.639 -0.4370  0.4505 -0.0909
  623MOL0     H85906   6.356  10.243   9.670  0.0238 -3.0946 -2.6335
  623MOL0     H85907   6.522  10.395   9.707  1.6480 -0.5723 -0.8771
  623MOL0     H85908   6.612  10.448   9.852 -1.5632  3.3990 -1.3863
  623MOL0     H85909   6.316  10.413   9.842  1.6387 -1.7018 -0.2967
  623MOL0     H85910   6.403  10.483   9.968 -2.9844 -3.6870  0.7277
  623MOL0     H85911   6.361  10.594   9.689 -0.0503 -1.9188  0.4715
  623MOL0     H85912   6.281  10.659   9.834 -1.1625  0.6171  0.3486
  623MOL0     H85913   6.526  10.714   9.918 -3.3709 -1.1496  1.4113
  623MOL0     H85914   6.573  10.695   9.755  2.3026  0.0825  2.0264
  623MOL0     H85915   6.367  10.887   9.851 -0.6589  1.3406 -1.1375
  623MOL0     H85916   6.409  10.865   9.683  0.2072 -2.7502  0.3216
  623MOL0     H85917   6.577  10.979   9.908 -2.9579 -2.2347  0.7322
  623MOL0     H85918   6.643  10.921   9.743 -1.9202 -1.9383 -0.8645
  623MOL0     H85919   6.457  11.137   9.827 -1.8604 -2.4061 -0.1446
  623MOL0     H85920   6.460  11.102   9.658 -1.3391  1.4484  0.7766
  623MOL0     H85921   6.733  11.125   9.666 -0.5102  0.5182 -2.9640
  623MOL0     H85922   6.624  11.263   9.651  1.1097  0.8168  1.8754
  623MOL0     H85923   6.618  11.443   9.845  1.6494  0.6727 -0.5323
  623MOL0     H85924   6.720  11.572  10.076  2.9828  0.8433 -1.3123
  623MOL0     H85925   6.840  11.485  10.163  0.4670  1.0989 -2.7313
  623MOL0     H85926   6.599  11.560  10.245 -2.0738  0.8592 -1.8263
  623MOL0     H85927   6.538  11.418  10.171 -0.1405  1.5294 -0.9618
  623MOL0     H85928   6.599  11.278  10.292  0.3395  0.2029 -1.0894
  623MOL0     H85929   6.762  11.320  10.325 -0.7135  1.1835  0.7684
  623MOL0     H85930   6.520  11.424  10.467 -0.7869 -2.3273 -3.2927
  623MOL0     H85931   6.661  11.357  10.562 -0.6785  3.2723  2.2115
  623MOL0     H85932   6.759  11.783  10.532  0.8219 -0.8266 -1.4461
  623MOL0     H85933   6.741  11.959  10.624  1.5684 -0.1226 -1.3129
  623MOL0     H85934   6.876  11.970  10.751 -0.1812  0.3768 -0.4267
  623MOL0     H85935   6.701  11.995  10.779  1.7259  0.6636 -1.0926
  623MOL0     H85936   6.951  11.911  11.217  1.3293 -0.5234  0.8649
  623MOL0     H85937   7.013  11.924  11.436 -2.8724  0.2459  1.2603
  623MOL0     H85938   6.815  11.661  11.724 -0.1675 -2.0625  4.9792
  623MOL0     H85939   6.954  11.556  11.707 -0.8823 -1.2338  0.2210
  623MOL0     H85940   7.044  11.785  11.866  3.7448 -2.6412  2.1598
  623MOL0     H85941   6.878  11.765  11.908  1.3669  1.2519 -0.3681
  623MOL0     H85942   6.913  11.517  11.925 -0.9697  0.4696  0.9909
  623MOL0     H85943   6.950  11.617  12.057 -1.9480 -3.3642 -0.3141
  623MOL0     H85944   7.193  11.585  12.016  0.9426 -0.5264 -1.7278
  623MOL0     H85945   7.165  11.524  11.862 -0.7774  1.5146 -0.1622
  623MOL0     H85946   7.234  11.371  12.044 -0.6762  1.3862  2.0958
  623MOL0     H85947   7.067  11.387  12.114  3.4526  1.3363  3.0485
  623MOL0     H85948   7.109  11.289  11.838  1.5785 -1.9910  0.3076
  623MOL0     H85949   6.980  11.265  11.952 -0.9444  2.3732  0.0620
  623MOL0     H85950   7.268  11.161  12.003 -1.0291 -1.1961  1.0826
  623MOL0     H85951   7.153  11.073  11.911  0.6155  0.4885 -0.5413
  623MOL0     H85952   7.156  11.166  12.200  1.4957  0.9611 -0.9815
  623MOL0     H85953   7.155  11.003  12.144 -0.3226 -0.4149  0.4763
  623MOL0     H85954   6.873  11.516  11.500  0.2863 -1.0170 -1.3175
  623MOL0     H85955   6.799  11.510  11.284  0.2665  0.0164  1.2042
  623MOL0     H85956   6.722  11.527  10.957 -1.9226 -0.5490 -0.2218
  623MOL0     H85957   6.678  11.414  10.747 -1.3749 -0.5040  0.2057
  623MOL0     H85958   6.487  10.057  10.035  0.3257  0.0624  0.0073
  623MOL0     H85959   6.337   9.859   9.987  0.0626 -1.6990 -1.7740
  623MOL0     H85960   6.069   9.655   9.731 -0.8930 -2.3091  0.7434
  623MOL0     H85961   5.883   9.520   9.626 -2.5352  1.1908 -1.2755
  623MOL0     H85962   5.481   9.513   9.552  0.7497 -1.9785  0.8700
  623MOL0     H85963   5.570   9.670   9.535  2.6332  0.2040  0.0308
  623MOL0     H85964   5.762   9.558   9.439 -0.4374  0.9521 -1.5693
  623MOL0     H85965   5.608   9.519   9.347 -2.3090  1.5090  1.2302
  623MOL0     H85966   5.755   9.345   9.547  0.4294 -0.8240  0.2889
  623MOL0     H85967   5.619   9.297   9.447 -0.2457  2.5254  1.9322
  623MOL0     H85968   5.823   9.198   9.355  1.3588 -1.9297 -4.7465
  623MOL0     H85969   5.894   9.357   9.335  1.4530  0.7312 -3.8067
  623MOL0     H85970   5.602   9.350   9.022 -0.9512  3.9186  1.4887
  623MOL0     H85971   5.610   9.715   9.884 -0.0486  0.8893 -0.8937
  623MOL0     H85972   5.642   9.908   9.998 -0.9495  0.4929  0.2406
  623MOL0     H85973   5.792   9.905  10.071 -0.5978  2.2768 -0.5225
  623MOL0     H85974   5.769  10.010   9.938  0.9662 -0.3401  2.4917
  624MOL0     O85975   2.856   5.396   6.895 -0.4719  0.0292  0.1490
  624MOL0     C85976   2.832   5.465   6.793 -0.1537 -0.5063 -0.0482
  624MOL0     O85977   2.785   5.423   6.677  0.7105 -0.3070 -0.1792
  624MOL0     C85978   2.733   5.293   6.663 -0.1404 -0.8638  0.4907
  624MOL0     C85979   2.594   5.278   6.628 -0.2962  0.1372  0.5285
  624MOL0     C85980   2.556   5.149   6.597  0.2384 -0.5353 -0.6969
  624MOL0     C85981   2.631   5.031   6.616  0.2422  0.4818  0.0097
  624MOL0     O85982   2.574   4.899   6.606  0.4228 -0.4008  0.4059
  624MOL0     C85983   2.666   4.801   6.553  0.1139 -0.0260  0.2607
  624MOL0     C85984   2.607   4.686   6.482  0.3569 -0.1396  0.2930
  624MOL0     C85985   2.531   4.752   6.368 -0.1311  0.2919 -0.6222
  624MOL0     C85986   2.478   4.649   6.265 -0.0569 -0.1195 -0.4653
  624MOL0     C85987   2.364   4.720   6.187  0.6123  1.1042 -0.1728
  624MOL0     C85988   2.282   4.622   6.098  1.0389  0.4804 -0.5641
  624MOL0     C85989   2.195   4.702   6.003 -0.7682 -0.4267 -0.2718
  624MOL0     C85990   2.133   4.619   5.882  0.0617 -0.7515 -1.2533
  624MOL0     N85991   2.043   4.517   5.940  0.8911  0.0652 -0.0669
  624MOL0     C85992   1.938   4.551   6.022 -0.2512 -0.7706 -1.2258
  624MOL0     C85993   1.892   4.431   6.076 -0.6213  0.0001  0.1074
  624MOL0     C85994   1.778   4.415   6.169 -0.3769  0.4363 -0.7077
  624MOL0     C85995   1.699   4.288   6.148  0.0042  0.8296 -0.3218
  624MOL0     C85996   1.605   4.270   6.280  0.2637 -0.0946  0.5289
  624MOL0     C85997   1.474   4.211   6.228 -0.5724  0.4026 -0.9777
  624MOL0     O85998   1.514   4.075   6.236 -0.2538  1.3216  0.2508
  624MOL0     C85999   1.436   3.980   6.166 -0.6477  0.4626 -1.1372
  624MOL0     C86000   1.494   3.849   6.178 -0.0035  0.8127  0.3077
  624MOL0     C86001   1.418   3.730   6.130  0.6237 -0.2804  0.0985
  624MOL0     C86002   1.487   3.595   6.126 -0.7229 -0.7877 -0.7553
  624MOL0     C86003   1.290   3.754   6.068 -1.2098  0.4776 -0.7562
  624MOL0     C86004   1.200   3.645   6.038 -0.2438  0.9657 -1.6482
  624MOL0     O86005   1.068   3.683   6.016 -0.1560  0.2283  0.0998
  624MOL0     C86006   0.986   3.603   5.941 -0.1842  1.4431  0.2491
  624MOL0     C86007   0.989   3.611   5.803 -0.8092  0.4257 -0.3638
  624MOL0     C86008   0.912   3.526   5.715 -0.3549  0.1911  0.1479
  624MOL0     C86009   0.812   3.448   5.775  0.0513 -0.0403  0.5757
  624MOL0     O86010   0.719   3.384   5.695 -0.3080 -0.5330  0.1373
  624MOL0     C86011   0.759   3.244   5.682 -0.5692  1.0664  0.0086
  624MOL0     C86012   0.648   3.146   5.647  0.2342 -0.3239 -0.1626
  624MOL0     C86013   0.543   3.148   5.757  0.2855  0.5267 -0.7444
  624MOL0     C86014   0.418   3.215   5.695  0.8164 -0.3539 -0.3792
  624MOL0     C86015   0.288   3.209   5.782 -0.9657  0.0557  0.0770
  624MOL0     C86016   0.309   3.288   5.914 -0.0095  0.0452 -0.3295
  624MOL0     C86017   0.190   3.307   6.004  0.1968  0.8616  0.3001
  624MOL0     C86018   0.177   3.181   6.096 -0.4369 -0.6240 -0.3903
  624MOL0    Cl86019   0.069   3.225   6.241  0.2801  0.1530  0.1824
  624MOL0     C86020   0.799   3.443   5.919 -0.6102  0.6185  0.7286
  624MOL0     C86021   0.889   3.514   6.004 -0.4791  0.5408 -0.3336
  624MOL0     O86022   1.232   3.525   6.035 -0.8128  1.4305 -0.3150
  624MOL0     C86023   1.234   3.880   6.076  0.6581 -0.2110 -0.6755
  624MOL0     C86024   1.305   3.990   6.118 -0.0887  0.6929  0.3643
  624MOL0     N86025   1.975   4.332   6.017  0.0610  0.1596 -0.3534
  624MOL0     N86026   2.064   4.381   5.945 -0.8644  0.2719 -0.0108
  624MOL0     C86027   2.769   5.048   6.658  0.2326  0.6052 -1.2058
  624MOL0     C86028   2.819   5.184   6.662  0.0802  0.1413  0.6797
  624MOL0     C86029   2.850   5.616   6.802  0.4930 -0.6716 -0.3676
  624MOL0     C86030   2.775   5.694   6.712 -1.7840 -0.0074 -0.5118
  624MOL0     C86031   2.791   5.834   6.726  0.0941  0.7211  0.4625
  624MOL0     C86032   2.888   5.894   6.799 -0.0271 -0.2404 -0.1100
  624MOL0     O86033   2.911   6.026   6.801 -0.3168 -0.1070 -0.6097
  624MOL0     C86034   2.818   6.113   6.737  1.2257  0.1528 -0.4379
  624MOL0     C86035   2.810   6.260   6.794  0.0619 -0.3435 -0.7454
  624MOL0     C86036   2.742   6.257   6.927 -0.0198 -0.2557  0.0508
  624MOL0     C86037   2.734   6.390   7.001  0.7283  0.1866  0.0356
  624MOL0     C86038   2.868   6.438   7.039  0.7289  0.0731  0.3887
  624MOL0     C86039   2.967   6.486   7.090  0.0054  0.0452 -0.7520
  624MOL0     C86040   2.968   5.814   6.872 -0.5195  0.1333  0.5415
  624MOL0     C86041   2.954   5.671   6.877 -0.2756  0.0909  0.4486
  624MOL0     C86042   3.065   5.587   6.952 -0.2023 -0.3993  0.8359
  624MOL0     H86043   2.522   5.356   6.607  0.9759  0.8949 -1.2981
  624MOL0     H86044   2.455   5.139   6.559 -0.1552  0.1799  0.1293
  624MOL0     H86045   2.740   4.756   6.620  0.1159 -0.7221 -0.2039
  624MOL0     H86046   2.720   4.863   6.480 -0.5654  1.8440  1.2740
  624MOL0     H86047   2.690   4.628   6.442  2.5657  2.7361  0.4230
  624MOL0     H86048   2.548   4.626   6.552  0.5963 -0.5806  0.1207
  624MOL0     H86049   2.440   4.803   6.401  0.9408  0.5906  2.2019
  624MOL0     H86050   2.588   4.828   6.314 -1.2596  1.4234 -0.2721
  624MOL0     H86051   2.553   4.621   6.190 -3.2817 -1.2996 -3.5577
  624MOL0     H86052   2.456   4.557   6.319  0.0738 -0.5232 -1.0909
  624MOL0     H86053   2.394   4.798   6.117 -0.0886  0.2921 -1.4144
  624MOL0     H86054   2.298   4.760   6.264 -1.5215 -2.6147  0.1556
  624MOL0     H86055   2.344   4.562   6.031  0.4831 -0.5466 -0.1811
  624MOL0     H86056   2.212   4.561   6.156 -0.0579  1.0443 -1.2524
  624MOL0     H86057   2.245   4.782   5.948 -1.0457 -0.6673 -0.8870
  624MOL0     H86058   2.116   4.742   6.066 -0.3693 -1.2161  0.7601
  624MOL0     H86059   2.070   4.686   5.824  0.3667 -0.9031 -1.7626
  624MOL0     H86060   2.207   4.587   5.808  2.5943 -1.2118  1.3032
  624MOL0     H86061   1.895   4.649   6.042  1.9401 -0.2537  1.5742
  624MOL0     H86062   1.708   4.497   6.148  0.5289  0.7637 -2.6944
  624MOL0     H86063   1.823   4.417   6.268  0.6582  0.9113 -1.1768
  624MOL0     H86064   1.660   4.283   6.047  2.8197  1.9124 -1.5799
  624MOL0     H86065   1.773   4.208   6.159 -1.3336 -0.1061  3.1861
  624MOL0     H86066   1.664   4.211   6.349  1.9772 -3.0460 -3.1150
  624MOL0     H86067   1.575   4.366   6.324 -2.6999 -1.0633  0.8739
  624MOL0     H86068   1.387   4.224   6.293 -0.8665  2.7500 -1.7728
  624MOL0     H86069   1.453   4.231   6.123  1.8956 -2.1498 -2.0955
  624MOL0     H86070   1.591   3.838   6.224  0.6139 -1.5191 -1.3690
  624MOL0     H86071   1.461   3.525   6.045 -0.3569  0.7372 -2.2322
  624MOL0     H86072   1.460   3.548   6.221 -0.8316  0.1907 -0.2979
  624MOL0     H86073   1.595   3.605   6.116 -0.5190 -1.9726  0.0097
  624MOL0     H86074   1.061   3.687   5.775  1.6909 -1.0763  1.5395
  624MOL0     H86075   0.928   3.539   5.609  3.1783  0.0107  0.5589
  624MOL0     H86076   0.835   3.231   5.604  0.3582 -1.9832  1.2471
  624MOL0     H86077   0.800   3.207   5.776 -4.1114 -1.2844  0.8156
  624MOL0     H86078   0.609   3.170   5.547 -0.2642 -3.6630 -0.9038
  624MOL0     H86079   0.694   3.047   5.652 -2.6500 -1.7058  2.2913
  624MOL0     H86080   0.579   3.191   5.851  0.3712 -0.2685 -0.4009
  624MOL0     H86081   0.513   3.047   5.789 -2.6336  0.7473 -2.4258
  624MOL0     H86082   0.397   3.177   5.595  1.8659 -2.3711  0.1172
  624MOL0     H86083   0.440   3.322   5.688 -2.0838  0.3911  0.7217
  624MOL0     H86084   0.207   3.265   5.734  1.0672 -0.7847 -4.9358
  624MOL0     H86085   0.275   3.101   5.791  2.0585 -0.5841 -1.7992
  624MOL0     H86086   0.346   3.388   5.889 -0.3842  0.4259  0.5791
  624MOL0     H86087   0.394   3.240   5.964 -0.2037  0.7457  0.7173
  624MOL0     H86088   0.101   3.308   5.941 -1.6353 -0.8302  2.6525
  624MOL0     H86089   0.209   3.402   6.055  2.6611 -0.7204  2.6056
  624MOL0     H86090   0.280   3.150   6.119 -0.1593  0.7723  0.3522
  624MOL0     H86091   0.129   3.100   6.041  1.3256 -0.9652 -1.5082
  624MOL0     H86092   0.727   3.374   5.961  1.5253 -0.5300  2.7855
  624MOL0     H86093   0.885   3.509   6.113  0.4558 -2.5295 -0.3375
  624MOL0     H86094   1.141   3.904   6.024  3.0641 -0.2384 -5.6153
  624MOL0     H86095   1.251   4.084   6.123 -1.7852 -0.3017  2.6370
  624MOL0     H86096   2.838   4.965   6.667 -1.8158 -1.0348  0.0169
  624MOL0     H86097   2.922   5.208   6.686  0.6181 -0.0766 -1.2516
  624MOL0     H86098   2.695   5.643   6.660 -0.2581 -3.1487  0.0049
  624MOL0     H86099   2.723   5.887   6.659 -1.1863 -0.5979  0.6785
  624MOL0     H86100   2.843   6.114   6.631 -1.2213 -3.4592 -1.1995
  624MOL0     H86101   2.715   6.076   6.739  1.3306 -0.1743 -1.0550
  624MOL0     H86102   2.754   6.326   6.728 -0.1300  2.9963  2.4517
  624MOL0     H86103   2.914   6.292   6.806  0.0974 -0.8869  0.5895
  624MOL0     H86104   2.637   6.230   6.908 -0.0180 -0.3955  0.2487
  624MOL0     H86105   2.780   6.178   6.992 -2.3865 -0.0764  1.7966
  624MOL0     H86106   2.664   6.384   7.085  1.0904  3.0329  0.6638
  624MOL0     H86107   2.689   6.462   6.931 -0.0953  1.4832  1.8153
  624MOL0     H86108   3.062   6.531   7.110  1.0114 -1.6354 -1.5256
  624MOL0     H86109   3.042   5.857   6.939 -3.8125  1.9496  3.3305
  624MOL0     H86110   3.028   5.518   7.028  3.2517 -2.0103  1.2361
  624MOL0     H86111   3.116   5.521   6.881  2.0279  0.3240  1.6653
  624MOL0     H86112   3.142   5.653   6.993 -1.6965  0.9391  1.5881
  625MOL0     O86113   9.599  10.232   3.303 -0.1852 -0.7723 -0.2466
  625MOL0     C86114   9.551  10.183   3.403  0.0101 -0.7130  0.6706
  625MOL0     O86115   9.502  10.253   3.508 -0.5147 -0.5063  0.9596
  625MOL0     C86116   9.515  10.384   3.505  0.4260  0.7013 -1.1907
  625MOL0     C86117   9.427  10.478   3.442 -0.2642 -0.6158 -0.0246
  625MOL0     C86118   9.437  10.619   3.478 -0.5024  0.2572 -0.0234
  625MOL0     C86119   9.534  10.661   3.568  0.2272 -0.0425  0.5680
  625MOL0     O86120   9.558  10.790   3.607  0.0622 -0.3810 -0.3279
  625MOL0     C86121   9.448  10.882   3.599 -0.0127 -0.7326 -1.4384
  625MOL0     C86122   9.480  10.974   3.485  0.9560 -0.8328 -1.1381
  625MOL0     C86123   9.372  11.087   3.507  0.0195  0.3411  0.5122
  625MOL0     C86124   9.383  11.177   3.636  0.4720  1.0905  0.5955
  625MOL0     C86125   9.263  11.276   3.613  0.7368 -0.2768 -0.0380
  625MOL0     C86126   9.245  11.376   3.725  0.3981 -0.3098  0.9626
  625MOL0     C86127   9.128  11.480   3.711 -0.1602 -0.0148  0.2540
  625MOL0     C86128   9.128  11.569   3.581  0.9041  1.2062  0.0307
  625MOL0     N86129   9.010  11.659   3.569  0.1676 -0.1190  0.4037
  625MOL0     C86130   8.879  11.623   3.598  0.2050  0.2269  0.2216
  625MOL0     C86131   8.798  11.733   3.597 -0.0432 -0.6550  0.2048
  625MOL0     C86132   8.662  11.735   3.644  0.8573  0.0318 -0.7472
  625MOL0     C86133   8.633  11.813   3.775 -0.3397  0.1483  0.2499
  625MOL0     C86134   8.496  11.757   3.843 -0.9456  0.2479  0.0001
  625MOL0     C86135   8.455  11.844   3.961  1.2125  0.3520 -1.2870
  625MOL0     O86136   8.363  11.769   4.045  0.3207 -0.5689 -0.1375
  625MOL0     C86137   8.412  11.656   4.108 -0.0504  1.3306 -0.4369
  625MOL0     C86138   8.509  11.664   4.211 -0.2328 -0.2324 -0.1796
  625MOL0     C86139   8.565  11.542   4.263 -0.1379 -0.6044 -0.6497
  625MOL0     C86140   8.676  11.555   4.358  0.5783  0.2707 -0.7868
  625MOL0     C86141   8.505  11.421   4.232 -0.8298  1.0688  0.0347
  625MOL0     C86142   8.553  11.296   4.298 -0.0663  0.4247 -0.3190
  625MOL0     O86143   8.608  11.210   4.204  0.1316  0.6185 -0.8338
  625MOL0     C86144   8.690  11.117   4.260 -0.6045 -0.7442  1.1599
  625MOL0     C86145   8.819  11.156   4.276  1.5138 -0.0601  0.3668
  625MOL0     C86146   8.921  11.062   4.289 -0.6370  0.4415 -0.7342
  625MOL0     C86147   8.892  10.921   4.299  0.9356  0.0412 -0.3023
  625MOL0     O86148   8.974  10.819   4.318  0.7190 -0.0103 -0.0755
  625MOL0     C86149   9.119  10.827   4.336  0.4697  0.1133  0.2218
  625MOL0     C86150   9.158  10.899   4.464 -0.4402  0.7364 -0.5672
  625MOL0     C86151   9.306  10.885   4.490 -0.0787 -0.0774  0.5678
  625MOL0     C86152   9.346  10.988   4.597  0.1394 -0.7957 -0.7614
  625MOL0     C86153   9.496  10.999   4.609  0.2597  0.3024  0.0582
  625MOL0     C86154   9.534  11.044   4.750 -0.2715  0.4180 -0.5105
  625MOL0     C86155   9.492  11.197   4.784 -0.2444  1.1794 -0.2402
  625MOL0     C86156   9.545  11.228   4.928  0.0492 -0.7572 -0.0636
  625MOL0    Cl86157   9.485  11.127   5.060  0.2263  0.6837 -0.4023
  625MOL0     C86158   8.752  10.883   4.271 -0.8293  0.1863  0.2231
  625MOL0     C86159   8.661  10.982   4.238 -0.6131  0.0368  0.2848
  625MOL0     O86160   8.539  11.279   4.425  0.1031 -0.0332  0.5142
  625MOL0     C86161   8.409  11.411   4.138  0.5935 -0.3800 -0.1677
  625MOL0     C86162   8.361  11.528   4.075 -0.4013  0.0415 -1.0662
  625MOL0     N86163   8.886  11.844   3.575 -0.5585 -0.5098  0.4368
  625MOL0     N86164   9.008  11.796   3.558 -0.0064 -0.4978  0.7356
  625MOL0     C86165   9.631  10.565   3.621  0.7839 -0.7519  1.6279
  625MOL0     C86166   9.618  10.432   3.589 -0.5304  0.0736  0.6096
  625MOL0     C86167   9.550  10.038   3.410 -0.3943 -0.3898 -0.7477
  625MOL0     C86168   9.521   9.968   3.293 -0.2134 -0.1852  0.3426
  625MOL0     C86169   9.508   9.835   3.297  0.0240  0.3925  0.0658
  625MOL0     C86170   9.517   9.766   3.424 -0.2005 -0.0614 -0.0512
  625MOL0     O86171   9.483   9.631   3.422  0.2420 -0.5200  0.0799
  625MOL0     C86172   9.502   9.554   3.546 -0.1938  0.1963 -0.2617
  625MOL0     C86173   9.476   9.407   3.521  0.1420  0.0176 -0.7775
  625MOL0     C86174   9.510   9.321   3.650 -0.1606 -0.6994 -1.0915
  625MOL0     C86175   9.660   9.274   3.676  0.4310 -0.1640 -0.2811
  625MOL0     C86176   9.718   9.381   3.759  0.1234  0.3777 -0.2793
  625MOL0     C86177   9.747   9.476   3.834  0.2704  1.0942 -1.0487
  625MOL0     C86178   9.567   9.830   3.537  0.2540  0.4349  0.2797
  625MOL0     C86179   9.572   9.967   3.534  0.5302 -0.1630  0.1011
  625MOL0     C86180   9.627  10.037   3.654 -0.1574 -0.7111  0.4105
  625MOL0     H86181   9.354  10.454   3.366  0.0600  1.9791 -1.2875
  625MOL0     H86182   9.360  10.683   3.436 -1.5694  0.0185  1.4867
  625MOL0     H86183   9.451  10.938   3.693  0.4879 -2.2196 -0.5259
  625MOL0     H86184   9.349  10.837   3.586 -0.1340 -1.6849  1.8226
  625MOL0     H86185   9.584  11.007   3.499  0.4495  0.9475 -1.4006
  625MOL0     H86186   9.459  10.926   3.390 -3.4977 -4.0540  1.1041
  625MOL0     H86187   9.377  11.144   3.414 -0.8205  0.3120  0.4457
  625MOL0     H86188   9.278  11.031   3.511  1.2469 -1.9841 -0.7842
  625MOL0     H86189   9.386  11.120   3.729 -2.0816  0.1682  0.1934
  625MOL0     H86190   9.473  11.238   3.624 -1.9280  5.0127  0.6530
  625MOL0     H86191   9.167  11.229   3.591 -0.7057  0.5980  3.7154
  625MOL0     H86192   9.286  11.326   3.519  3.2413 -0.8802  0.1828
  625MOL0     H86193   9.210  11.313   3.808  0.5472 -0.4655  0.9085
  625MOL0     H86194   9.339  11.430   3.742  0.3025  1.1498 -2.4580
  625MOL0     H86195   9.130  11.538   3.804  1.0905 -3.9246  2.9220
  625MOL0     H86196   9.030  11.431   3.718 -2.3662  4.0576  1.1142
  625MOL0     H86197   9.220  11.627   3.575  0.2924  2.1950 -0.1558
  625MOL0     H86198   9.128  11.504   3.493  0.4989  0.9773  0.1983
  625MOL0     H86199   8.843  11.525   3.628  1.4964  0.1441  1.6546
  625MOL0     H86200   8.624  11.634   3.661  0.8948  0.0315 -0.6668
  625MOL0     H86201   8.603  11.771   3.559 -1.6700  0.0615  0.9236
  625MOL0     H86202   8.721  11.785   3.834 -0.8916 -2.2147  0.0539
  625MOL0     H86203   8.640  11.922   3.768  2.0788  0.5675  5.2120
  625MOL0     H86204   8.423  11.761   3.762 -0.0282  0.5767 -0.8226
  625MOL0     H86205   8.521  11.652   3.863  2.1183  0.8962  0.0857
  625MOL0     H86206   8.535  11.885   4.023  0.2645  2.0141 -1.0725
  625MOL0     H86207   8.402  11.935   3.928  0.4964  0.9194  1.1861
  625MOL0     H86208   8.546  11.760   4.246 -0.6812 -0.4099  0.8312
  625MOL0     H86209   8.754  11.482   4.335  0.9486 -0.5222  2.4543
  625MOL0     H86210   8.633  11.528   4.455  2.2345  0.7439  0.1193
  625MOL0     H86211   8.721  11.654   4.357  4.7692 -1.3222  1.9023
  625MOL0     H86212   8.836  11.261   4.251  0.3791  0.1753  0.5458
  625MOL0     H86213   9.027  11.083   4.275 -0.0284 -2.4031 -1.0418
  625MOL0     H86214   9.163  10.728   4.335  0.0415 -0.1145  1.5857
  625MOL0     H86215   9.169  10.881   4.254 -1.3275 -0.3244 -1.2354
  625MOL0     H86216   9.144  11.008   4.459  1.5217  1.0114 -1.1831
  625MOL0     H86217   9.117  10.850   4.553 -1.4813  0.3295 -1.2643
  625MOL0     H86218   9.356  10.898   4.394  1.4000  0.0537  1.3230
  625MOL0     H86219   9.319  10.785   4.532 -2.2924 -0.7179 -0.1549
  625MOL0     H86220   9.303  10.968   4.696  0.6623  3.3776  0.5476
  625MOL0     H86221   9.305  11.084   4.564 -1.9073 -0.9914  1.0406
  625MOL0     H86222   9.534  10.897   4.595 -0.5360  0.2329 -1.8851
  625MOL0     H86223   9.534  11.055   4.523 -0.9317  0.5118 -0.3444
  625MOL0     H86224   9.643  11.033   4.753 -0.0467  2.2715 -0.5415
  625MOL0     H86225   9.473  10.990   4.823 -0.9551  2.6224  0.6505
  625MOL0     H86226   9.383  11.191   4.790 -0.0893 -1.8581  2.4769
  625MOL0     H86227   9.526  11.268   4.708 -1.4970  1.0258 -0.9649
  625MOL0     H86228   9.510  11.328   4.957 -1.0340 -1.8219  2.7540
  625MOL0     H86229   9.653  11.233   4.915 -0.0444 -1.3775 -1.1948
  625MOL0     H86230   8.730  10.783   4.237 -2.2413  1.2558 -2.2221
  625MOL0     H86231   8.561  10.958   4.205 -0.2658 -2.2979  0.7142
  625MOL0     H86232   8.359  11.316   4.120  1.1709 -0.7994  0.3828
  625MOL0     H86233   8.304  11.526   3.983 -0.1343  6.6786 -1.8536
  625MOL0     H86234   9.718  10.592   3.680  0.0907  1.7992  1.6082
  625MOL0     H86235   9.688  10.363   3.637  2.8378  1.3742 -2.0265
  625MOL0     H86236   9.515  10.029   3.204  3.8727 -0.2954 -0.2145
  625MOL0     H86237   9.472   9.776   3.213 -0.2269 -1.4471  1.4049
  625MOL0     H86238   9.603   9.564   3.586 -1.1752  2.9306  1.9236
  625MOL0     H86239   9.424   9.587   3.615  1.1692 -0.2115  1.5454
  625MOL0     H86240   9.540   9.368   3.442 -0.1681  2.0036 -2.0878
  625MOL0     H86241   9.375   9.395   3.480  1.0323 -1.2264 -2.7243
  625MOL0     H86242   9.488   9.391   3.732  0.6107 -0.2172 -1.2884
  625MOL0     H86243   9.434   9.244   3.671  1.8533 -2.3084  0.7281
  625MOL0     H86244   9.706   9.270   3.577  0.0387  0.6131 -0.5023
  625MOL0     H86245   9.657   9.172   3.718  1.6507  1.5696  4.7312
  625MOL0     H86246   9.768   9.554   3.904  3.9042 -3.3312  3.5221
  625MOL0     H86247   9.583   9.778   3.631  3.8729 -1.0550 -0.9934
  625MOL0     H86248   9.547  10.091   3.705 -2.0753 -4.0360  1.2008
  625MOL0     H86249   9.685   9.968   3.716  0.6113 -2.8187 -2.4445
  625MOL0     H86250   9.699  10.112   3.617 -2.8193  1.7910 -0.0592
  626MOL0     O86251  10.159   8.585   9.797 -0.1180 -0.1063 -0.0289
  626MOL0     C86252  10.044   8.574   9.749 -0.2666 -0.1534 -0.1316
  626MOL0     O86253   9.969   8.452   9.740  0.6868  0.0227  0.0189
  626MOL0     C86254  10.012   8.328   9.785 -0.6078 -1.0010 -0.9240
  626MOL0     C86255  10.144   8.273   9.797  0.4570  0.6951 -0.0604
  626MOL0     C86256  10.163   8.141   9.845  0.1478 -0.6683  0.1436
  626MOL0     C86257  10.064   8.051   9.875  1.1857 -1.0590  0.1116
  626MOL0     O86258  10.074   7.922   9.919  0.6461 -0.1769  0.4749
  626MOL0     C86259  10.180   7.842   9.881 -1.2438 -0.3701  0.3408
  626MOL0     C86260  10.128   7.701   9.893  0.6146 -0.7064 -0.3166
  626MOL0     C86261  10.055   7.642   9.769 -0.1399  0.2003  0.2278
  626MOL0     C86262   9.912   7.677   9.768  0.1189  0.0382  0.1294
  626MOL0     C86263   9.849   7.619   9.647 -0.9181  0.1185  0.7843
  626MOL0     C86264   9.718   7.671   9.610  0.2503  0.8465  0.7947
  626MOL0     C86265   9.632   7.586   9.520  0.7367  1.2753  0.6908
  626MOL0     C86266   9.513   7.520   9.603  0.1712 -1.1035 -0.5578
  626MOL0     N86267   9.569   7.437   9.707  0.1590  0.9004 -0.0209
  626MOL0     C86268   9.601   7.459   9.842 -0.2788 -0.3243 -0.6610
  626MOL0     C86269   9.617   7.333   9.894  2.1200 -0.0285 -0.5718
  626MOL0     C86270   9.656   7.302  10.040 -0.2573  0.4691  0.1768
  626MOL0     C86271   9.809   7.275  10.057  0.1347  0.2137  0.6381
  626MOL0     C86272   9.879   7.407  10.098 -0.7736 -0.4122  0.4570
  626MOL0     C86273  10.035   7.401  10.098  0.3200  0.0016  0.3375
  626MOL0     O86274  10.098   7.524  10.158  0.2613 -0.4948 -0.7110
  626MOL0     C86275  10.154   7.522  10.283 -0.1159  0.1473 -0.0449
  626MOL0     C86276  10.094   7.470  10.404 -0.6255  0.0493 -0.8692
  626MOL0     C86277  10.157   7.493  10.527  0.1058 -0.7491  0.0136
  626MOL0     C86278  10.076   7.448  10.649  0.6091 -0.4855 -0.3548
  626MOL0     C86279  10.286   7.566  10.541  0.4648 -0.3808 -1.1811
  626MOL0     C86280  10.354   7.598  10.672 -0.7151  0.2767 -0.0919
  626MOL0     O86281  10.463   7.677  10.661 -0.5909 -0.1228  0.0845
  626MOL0     C86282  10.514   7.716  10.779 -0.1498 -0.0207  0.1934
  626MOL0     C86283  10.472   7.834  10.850  0.0670  0.8345 -0.1511
  626MOL0     C86284  10.542   7.876  10.969  0.0286  1.2681  0.2408
  626MOL0     C86285  10.654   7.800  11.015  0.1108  0.4555 -0.6401
  626MOL0     O86286  10.709   7.825  11.139  0.2258 -0.2651  0.4877
  626MOL0     C86287  10.622   7.859  11.252  0.3634  0.3210  0.0241
  626MOL0     C86288  10.610   8.018  11.266 -0.2633 -0.5801  0.0787
  626MOL0     C86289  10.744   8.086  11.276  0.1648 -0.8195  0.0481
  626MOL0     C86290  10.841   8.020  11.379  0.1206 -0.3110 -0.3405
  626MOL0     C86291  10.963   8.111  11.377  0.0612 -0.1513 -0.3980
  626MOL0     C86292  11.084   8.078  11.459  0.2632  0.0004 -0.1926
  626MOL0     C86293  11.114   7.930  11.476  0.4925 -0.5288  0.2476
  626MOL0     C86294  11.239   7.923  11.564 -0.3705  0.4414 -0.0771
  626MOL0    Cl86295  11.264   7.750  11.607 -0.3297  0.2839 -0.0201
  626MOL0     C86296  10.693   7.693  10.928 -0.2834 -0.1575 -0.9790
  626MOL0     C86297  10.626   7.651  10.816 -0.2291 -0.9721  0.4153
  626MOL0     O86298  10.314   7.544  10.780 -0.1753  0.1058  0.9214
  626MOL0     C86299  10.338   7.605  10.422 -0.5336 -0.3469 -0.0335
  626MOL0     C86300  10.271   7.590  10.298  0.1391  0.4331  0.2339
  626MOL0     N86301   9.604   7.243   9.788  0.3977  0.3884  0.0846
  626MOL0     N86302   9.582   7.305   9.679 -1.4790  0.9113 -0.6024
  626MOL0     C86303   9.934   8.104   9.860 -1.2971  0.9071  0.0391
  626MOL0     C86304   9.915   8.240   9.812  0.2656 -0.4235 -0.4106
  626MOL0     C86305   9.983   8.699   9.704 -0.5098  1.1653 -0.8770
  626MOL0     C86306   9.870   8.677   9.616  0.3366  0.1001 -0.7691
  626MOL0     C86307   9.808   8.792   9.551 -0.1402  0.7267 -0.0124
  626MOL0     C86308   9.860   8.915   9.568 -0.3982 -0.4742 -0.2879
  626MOL0     O86309   9.799   9.013   9.495  0.8632 -0.3635 -0.1349
  626MOL0     C86310   9.883   9.082   9.393  0.1216 -0.0998 -0.4540
  626MOL0     C86311   9.830   9.223   9.353  0.9889  0.5940  0.3965
  626MOL0     C86312   9.688   9.220   9.298 -0.2932  0.0095  0.7981
  626MOL0     C86313   9.637   9.359   9.251 -0.0344  0.2350 -0.2734
  626MOL0     C86314   9.485   9.355   9.227 -0.3552 -0.3169  0.1945
  626MOL0     C86315   9.366   9.352   9.220 -0.2235 -0.0381 -0.2186
  626MOL0     C86316   9.965   8.937   9.663  1.0033  0.2992  0.3495
  626MOL0     C86317  10.022   8.832   9.734  0.1662  0.0769  0.6450
  626MOL0     C86318  10.142   8.874   9.831  0.8025 -0.4216 -0.0171
  626MOL0     H86319  10.224   8.339   9.767 -0.5257  0.6834 -3.0228
  626MOL0     H86320  10.267   8.111   9.859  0.9937  1.6410 -0.6840
  626MOL0     H86321  10.253   7.872   9.956  0.9745 -1.4600 -1.2385
  626MOL0     H86322  10.215   7.876   9.783 -1.3308  1.3096  0.8744
  626MOL0     H86323  10.204   7.631   9.929  3.1677  1.6610 -0.7712
  626MOL0     H86324  10.064   7.707   9.981  3.0109  0.3300  1.4567
  626MOL0     H86325  10.108   7.679   9.681  4.7348  3.2028  3.8605
  626MOL0     H86326  10.065   7.533   9.766 -2.5487 -0.0420 -0.4070
  626MOL0     H86327   9.865   7.648   9.863 -0.1589 -1.2495 -0.3748
  626MOL0     H86328   9.892   7.784   9.777  0.3443 -0.0008  1.2742
  626MOL0     H86329   9.846   7.512   9.668  0.1971  0.4224  2.7681
  626MOL0     H86330   9.910   7.629   9.556  0.5274  1.3736  1.8367
  626MOL0     H86331   9.663   7.703   9.699 -2.2457 -1.1477  0.0768
  626MOL0     H86332   9.739   7.765   9.557 -1.4204  1.5136  1.2459
  626MOL0     H86333   9.683   7.506   9.465 -1.1098  0.6164 -0.1520
  626MOL0     H86334   9.593   7.658   9.447  0.7760 -1.4571 -2.2591
  626MOL0     H86335   9.458   7.607   9.641  0.8973 -0.3892 -1.1162
  626MOL0     H86336   9.436   7.473   9.541 -1.4828  2.0024 -1.0708
  626MOL0     H86337   9.623   7.550   9.897  0.0594  0.9487 -2.8021
  626MOL0     H86338   9.609   7.208  10.070  2.1651 -1.1528 -0.7090
  626MOL0     H86339   9.622   7.381  10.107  2.3241  0.4964  1.6017
  626MOL0     H86340   9.831   7.205  10.138  2.4190  0.1071 -0.0091
  626MOL0     H86341   9.848   7.229   9.965  0.2218  4.7405 -1.8718
  626MOL0     H86342   9.847   7.482  10.025  2.1197 -1.6009 -2.2494
  626MOL0     H86343   9.853   7.442  10.199  1.3011 -0.4703  1.0519
  626MOL0     H86344  10.055   7.308  10.152 -0.1549 -2.0020 -2.7193
  626MOL0     H86345  10.073   7.377   9.998  1.4666  0.2816  0.6864
  626MOL0     H86346  10.008   7.404  10.391  1.0216 -2.6165  0.8911
  626MOL0     H86347  10.074   7.536  10.714  1.3065  0.1259 -1.1397
  626MOL0     H86348  10.130   7.368  10.701 -2.7932 -3.0619 -0.4348
  626MOL0     H86349   9.976   7.418  10.616  0.5218 -0.1489 -0.4024
  626MOL0     H86350  10.379   7.887  10.831  0.8249  1.6813 -1.5980
  626MOL0     H86351  10.496   7.956  11.027 -1.3392 -1.1772  2.7972
  626MOL0     H86352  10.522   7.819  11.236  1.0034 -0.9016 -1.1878
  626MOL0     H86353  10.661   7.827  11.349 -2.8682  1.3436  1.7801
  626MOL0     H86354  10.547   8.057  11.186 -0.0890  1.2884  0.7899
  626MOL0     H86355  10.558   8.039  11.360 -4.0276  1.7608 -2.2557
  626MOL0     H86356  10.726   8.192  11.295 -0.5200 -1.3062  2.5279
  626MOL0     H86357  10.770   8.072  11.171 -0.9651 -3.7334  0.0654
  626MOL0     H86358  10.880   7.924  11.346 -0.2515 -1.0618  1.3064
  626MOL0     H86359  10.799   8.021  11.480  1.0340  1.0895  0.0515
  626MOL0     H86360  11.001   8.113  11.274 -0.5839  4.3376 -0.7703
  626MOL0     H86361  10.942   8.217  11.397 -0.6354  0.7132 -4.6354
  626MOL0     H86362  11.078   8.115  11.562 -0.2741 -0.8256  0.0918
  626MOL0     H86363  11.176   8.128  11.430  1.4834 -1.5566  0.8243
  626MOL0     H86364  11.149   7.890  11.381 -2.0905  3.1196 -2.5124
  626MOL0     H86365  11.031   7.880  11.527 -1.4160  0.4226 -1.7972
  626MOL0     H86366  11.222   7.965  11.663 -0.7892 -3.9266  1.9080
  626MOL0     H86367  11.328   7.971  11.522 -1.2702  3.0470  0.8018
  626MOL0     H86368  10.780   7.638  10.961 -1.5170 -2.9182 -2.0389
  626MOL0     H86369  10.664   7.582  10.741 -0.2462 -0.3903 -0.1322
  626MOL0     H86370  10.427   7.666  10.408 -2.0187  1.8534 -0.4714
  626MOL0     H86371  10.321   7.626  10.209  1.2224 -2.2782 -0.3450
  626MOL0     H86372   9.853   8.037   9.885  0.2462 -0.9229  0.4132
  626MOL0     H86373   9.817   8.287   9.803  0.3029 -0.6667 -2.7597
  626MOL0     H86374   9.830   8.578   9.594  0.3943  0.1567 -1.1448
  626MOL0     H86375   9.718   8.766   9.496  0.2607 -3.4941  1.0339
  626MOL0     H86376   9.978   9.115   9.437  0.2509  0.6902 -1.2963
  626MOL0     H86377   9.900   9.022   9.303  0.7814 -0.1039 -0.3360
  626MOL0     H86378   9.885   9.281   9.279 -1.4699  0.1053 -1.9704
  626MOL0     H86379   9.826   9.279   9.447 -1.0788 -0.6972  1.1364
  626MOL0     H86380   9.681   9.151   9.213 -0.3336 -0.7438  1.3992
  626MOL0     H86381   9.619   9.197   9.380  0.2355  1.4549  1.6716
  626MOL0     H86382   9.677   9.390   9.154 -0.3280  0.6151 -0.2756
  626MOL0     H86383   9.664   9.435   9.324 -0.9044  0.5824 -0.3025
  626MOL0     H86384   9.261   9.331   9.212 -0.5670  0.1943  2.7388
  626MOL0     H86385  10.007   9.036   9.680 -0.1708  0.6989  1.0437
  626MOL0     H86386  10.131   8.827   9.929 -0.2595 -0.5350 -0.1708
  626MOL0     H86387  10.237   8.857   9.781  0.7811 -0.0209 -0.2001
  626MOL0     H86388  10.135   8.980   9.857 -0.0668 -0.6527  0.7521
  627MOL0     O86389   0.796   3.943   7.931 -0.2384  0.1762  0.3373
  627MOL0     C86390   0.671   3.955   7.916  0.2403  0.5827  1.4525
  627MOL0     O86391   0.601   4.070   7.901  0.1683  0.0156  0.8128
  627MOL0     C86392   0.663   4.184   7.890 -0.1820 -0.4388  0.9473
  627MOL0     C86393   0.767   4.208   7.799 -0.1695  0.1365 -0.0289
  627MOL0     C86394   0.829   4.335   7.788 -0.3741 -0.1764 -0.3985
  627MOL0     C86395   0.783   4.438   7.865  0.3649 -0.5051 -0.1917
  627MOL0     O86396   0.841   4.564   7.871  0.6692 -0.0154 -0.0545
  627MOL0     C86397   0.968   4.589   7.801  1.0398 -0.4657  0.4735
  627MOL0     C86398   1.094   4.546   7.881 -0.2522  0.0054 -0.9231
  627MOL0     C86399   1.208   4.643   7.858 -0.3213  0.7419  0.2755
  627MOL0     C86400   1.342   4.589   7.902  1.4849 -0.3820 -0.0751
  627MOL0     C86401   1.450   4.707   7.918  0.3487  0.2725 -0.9024
  627MOL0     C86402   1.577   4.653   7.992 -0.3985 -0.5006 -0.1585
  627MOL0     C86403   1.557   4.605   8.130  0.9098 -0.4434  0.5814
  627MOL0     C86404   1.500   4.713   8.219 -0.3860 -0.7427 -0.4468
  627MOL0     N86405   1.519   4.694   8.366  0.0583 -0.3194 -0.0181
  627MOL0     C86406   1.474   4.582   8.426  0.2655 -0.7010 -0.0107
  627MOL0     C86407   1.532   4.581   8.551  0.4699  0.1005  0.6701
  627MOL0     C86408   1.522   4.474   8.654 -0.5656  0.9482  0.5881
  627MOL0     C86409   1.429   4.527   8.760  0.1638  0.0704 -0.8567
  627MOL0     C86410   1.355   4.413   8.827  0.7676  0.0849 -0.7659
  627MOL0     C86411   1.247   4.460   8.936 -0.8987  0.4187  1.5721
  627MOL0     O86412   1.313   4.452   9.065  0.2793  0.1866 -0.2395
  627MOL0     C86413   1.297   4.569   9.131  0.0953 -0.5720  0.7471
  627MOL0     C86414   1.183   4.607   9.196 -1.1906 -0.4756  0.3428
  627MOL0     C86415   1.165   4.747   9.228  0.5151  0.3465  0.5031
  627MOL0     C86416   1.038   4.788   9.300 -0.3465 -0.6005 -0.1532
  627MOL0     C86417   1.271   4.840   9.211  0.0462  0.1101 -0.6028
  627MOL0     C86418   1.262   4.976   9.260 -0.4218 -0.0270  0.1357
  627MOL0     O86419   1.322   5.004   9.374 -0.3196 -0.5013  0.4013
  627MOL0     C86420   1.399   5.119   9.387  0.5276 -0.8628  0.7325
  627MOL0     C86421   1.384   5.203   9.496  0.4082 -0.9348  0.0034
  627MOL0     C86422   1.464   5.321   9.517 -1.3201  0.0826 -0.6158
  627MOL0     C86423   1.571   5.350   9.415  0.0418  0.4815 -0.8484
  627MOL0     O86424   1.648   5.459   9.429  0.1073 -0.4826 -0.0885
  627MOL0     C86425   1.677   5.527   9.550  0.0995  0.2937 -0.6236
  627MOL0     C86426   1.737   5.439   9.649 -0.8208  0.8501 -0.4064
  627MOL0     C86427   1.878   5.411   9.591 -0.2952  0.2021 -0.3433
  627MOL0     C86428   1.976   5.321   9.670 -0.2223 -0.2861  0.7926
  627MOL0     C86429   2.114   5.303   9.598 -0.1604  0.1707  0.7243
  627MOL0     C86430   2.208   5.214   9.681  0.4558 -0.6950  0.2219
  627MOL0     C86431   2.338   5.191   9.611  2.0058  0.3594 -0.6043
  627MOL0     C86432   2.434   5.118   9.698 -0.6627 -0.3886  0.0669
  627MOL0    Cl86433   2.463   5.205   9.847 -0.3787  0.1952 -0.2458
  627MOL0     C86434   1.592   5.257   9.309  0.3255  0.0552  0.1328
  627MOL0     C86435   1.498   5.153   9.293  0.2479 -0.3586 -0.2801
  627MOL0     O86436   1.205   5.051   9.185  0.0007  0.3999 -0.6958
  627MOL0     C86437   1.398   4.792   9.169  0.3691 -0.4481  0.4894
  627MOL0     C86438   1.403   4.661   9.122 -0.3670 -0.2716  0.5140
  627MOL0     N86439   1.612   4.694   8.565  0.6846 -0.5076 -0.5203
  627MOL0     N86440   1.606   4.767   8.458  0.4112  1.3149 -0.0543
  627MOL0     C86441   0.670   4.415   7.936 -0.8206  0.9978  0.4132
  627MOL0     C86442   0.612   4.293   7.958 -0.4526  0.7578 -0.1769
  627MOL0     C86443   0.583   3.822   7.929 -0.2811 -1.0589 -0.2632
  627MOL0     C86444   0.470   3.817   7.848 -0.2594  0.7210  0.6471
  627MOL0     C86445   0.380   3.714   7.860 -0.4391  0.5682  0.4921
  627MOL0     C86446   0.416   3.596   7.932 -0.4631  0.1872 -0.2347
  627MOL0     O86447   0.325   3.494   7.949  0.0121 -0.2552  0.5612
  627MOL0     C86448   0.373   3.363   7.919 -0.5992 -0.0735  0.1113
  627MOL0     C86449   0.248   3.265   7.892  0.5650 -0.0583 -0.8374
  627MOL0     C86450   0.309   3.136   7.848  0.3191  0.5533  1.4202
  627MOL0     C86451   0.353   3.032   7.945  0.2100  0.7702 -0.5394
  627MOL0     C86452   0.245   3.009   8.042 -0.3326 -0.0492 -0.0534
  627MOL0     C86453   0.160   2.986   8.126 -0.1066 -0.3387  0.0845
  627MOL0     C86454   0.537   3.605   8.007 -0.2711  0.8254  0.5057
  627MOL0     C86455   0.622   3.713   8.005 -0.0461 -0.2813 -0.3993
  627MOL0     C86456   0.732   3.720   8.105  0.4847  0.3010  0.0241
  627MOL0     H86457   0.807   4.119   7.752 -0.6496 -0.2983  0.3753
  627MOL0     H86458   0.914   4.338   7.720  0.0130 -0.6717  0.0607
  627MOL0     H86459   0.984   4.695   7.780  0.4880 -0.4798 -0.0504
  627MOL0     H86460   0.970   4.552   7.698  1.9113 -1.7599  0.9370
  627MOL0     H86461   1.078   4.541   7.989  2.1394  0.3529 -0.4923
  627MOL0     H86462   1.135   4.451   7.844  1.8073  0.6272 -0.3629
  627MOL0     H86463   1.205   4.675   7.753 -2.6087 -1.3690 -0.4093
  627MOL0     H86464   1.191   4.736   7.914  3.6936  0.8206  1.6987
  627MOL0     H86465   1.338   4.559   8.007  0.9780 -0.0223  0.0130
  627MOL0     H86466   1.374   4.510   7.833 -0.9326  1.3616 -3.5389
  627MOL0     H86467   1.410   4.786   7.982  2.6222  1.3304 -0.6889
  627MOL0     H86468   1.493   4.742   7.824  4.3441 -0.1052  0.5687
  627MOL0     H86469   1.632   4.578   7.934  3.8924  2.6680 -0.6801
  627MOL0     H86470   1.637   4.744   8.001 -0.3484 -0.7675  4.9239
  627MOL0     H86471   1.655   4.579   8.172  1.8749  3.0650  0.8124
  627MOL0     H86472   1.496   4.514   8.126  3.9667 -2.6935  0.4830
  627MOL0     H86473   1.530   4.817   8.205 -0.2798 -0.7715 -0.4281
  627MOL0     H86474   1.394   4.697   8.198 -0.3259 -1.6787 -0.0604
  627MOL0     H86475   1.411   4.513   8.369  0.9657  1.5906 -3.9572
  627MOL0     H86476   1.619   4.437   8.689 -0.8036 -1.5202 -1.1171
  627MOL0     H86477   1.484   4.381   8.609 -1.5991  1.6383 -0.0089
  627MOL0     H86478   1.496   4.568   8.835  0.9807 -2.2688 -0.2232
  627MOL0     H86479   1.361   4.596   8.709 -0.4341 -0.6542 -1.0620
  627MOL0     H86480   1.296   4.371   8.745 -0.1790 -0.8189  0.3477
  627MOL0     H86481   1.423   4.335   8.863  0.9186 -0.0304 -1.2861
  627MOL0     H86482   1.203   4.559   8.917 -2.3672 -0.6062 -0.9126
  627MOL0     H86483   1.162   4.391   8.930 -0.5294  0.1141 -1.2925
  627MOL0     H86484   1.104   4.532   9.205  0.6036 -2.5594 -0.3626
  627MOL0     H86485   1.064   4.842   9.392  0.3439 -2.0424  0.5254
  627MOL0     H86486   0.973   4.707   9.333 -2.2845  1.7792  2.3869
  627MOL0     H86487   0.975   4.851   9.236 -0.9891  0.1356  1.1615
  627MOL0     H86488   1.308   5.189   9.573 -0.7123  3.2051 -0.1073
  627MOL0     H86489   1.461   5.382   9.606  4.1028 -2.9053  2.1060
  627MOL0     H86490   1.743   5.610   9.523 -0.0208  0.4852 -0.3322
  627MOL0     H86491   1.585   5.566   9.596 -0.5593 -0.3771 -1.3483
  627MOL0     H86492   1.734   5.482   9.750  0.1625  1.6579 -0.7045
  627MOL0     H86493   1.690   5.340   9.655 -0.3924  0.5787 -1.3160
  627MOL0     H86494   1.920   5.510   9.573  0.6449 -0.4203 -1.8267
  627MOL0     H86495   1.873   5.367   9.491 -2.0661 -0.9555  0.1974
  627MOL0     H86496   1.937   5.224   9.702  1.7608 -1.3521  0.1791
  627MOL0     H86497   2.003   5.382   9.757 -0.5105  0.7554  0.1770
  627MOL0     H86498   2.094   5.264   9.498 -4.0710  3.9702 -0.2650
  627MOL0     H86499   2.155   5.401   9.572  0.7320 -0.0349  1.3086
  627MOL0     H86500   2.165   5.116   9.703  0.1434  0.0097  3.0807
  627MOL0     H86501   2.237   5.262   9.774  3.6187 -1.8052 -0.0803
  627MOL0     H86502   2.381   5.285   9.574 -0.1350  1.0699 -1.4977
  627MOL0     H86503   2.327   5.128   9.522 -1.6925 -0.8451  0.5376
  627MOL0     H86504   2.520   5.109   9.631 -1.9509 -0.7353 -1.5974
  627MOL0     H86505   2.400   5.019   9.731  1.2064 -0.3370  2.4821
  627MOL0     H86506   1.671   5.281   9.239  1.3628 -0.4755  1.1000
  627MOL0     H86507   1.524   5.092   9.208 -1.7795 -1.5126 -0.1377
  627MOL0     H86508   1.478   4.865   9.173  0.9091 -0.8970 -1.1842
  627MOL0     H86509   1.499   4.624   9.089  0.1879  0.5846  1.1133
  627MOL0     H86510   0.637   4.497   7.999 -0.0300  1.7590 -0.1315
  627MOL0     H86511   0.559   4.271   8.050 -0.4044  0.2566 -0.2699
  627MOL0     H86512   0.443   3.913   7.804 -2.0776  0.3927  0.9993
  627MOL0     H86513   0.283   3.724   7.812 -0.5880 -2.9235 -0.2189
  627MOL0     H86514   0.430   3.365   7.826  3.7004 -0.1053  2.5090
  627MOL0     H86515   0.448   3.323   7.987  2.5109  3.1395 -1.1651
  627MOL0     H86516   0.181   3.309   7.818 -1.6747 -4.4383 -1.7358
  627MOL0     H86517   0.171   3.261   7.969  0.5264 -2.3466 -0.9171
  627MOL0     H86518   0.227   3.088   7.793 -0.8574  0.2300  3.3789
  627MOL0     H86519   0.388   3.146   7.772 -1.6141  2.7163 -0.4807
  627MOL0     H86520   0.434   3.070   8.007 -1.0360 -3.3956  4.3098
  627MOL0     H86521   0.387   2.940   7.894  2.5761  1.5231 -0.4551
  627MOL0     H86522   0.078   2.974   8.193 -1.0070  3.7588  0.0032
  627MOL0     H86523   0.562   3.518   8.067  1.0105  0.2095 -0.8666
  627MOL0     H86524   0.720   3.803   8.175 -0.2884 -1.6103  2.3082
  627MOL0     H86525   0.719   3.638   8.176  0.1199  2.6030  2.8295
  627MOL0     H86526   0.834   3.720   8.065  0.0461  1.4492 -1.1628
  628MOL0     O86527   6.430   1.665   5.093  0.0064 -0.0620 -0.1299
  628MOL0     C86528   6.486   1.772   5.105  0.3241 -1.0346  0.3253
  628MOL0     O86529   6.506   1.838   5.222  1.2197  0.0193  0.0497
  628MOL0     C86530   6.418   1.818   5.325 -0.8984  1.0111  0.8375
  628MOL0     C86531   6.413   1.701   5.398  0.5451  0.6903 -0.3934
  628MOL0     C86532   6.316   1.683   5.494 -0.1515 -0.9789 -0.2569
  628MOL0     C86533   6.221   1.792   5.530 -0.0689  0.0942  0.4734
  628MOL0     O86534   6.128   1.755   5.624 -0.0872 -0.3372 -0.4764
  628MOL0     C86535   6.114   1.847   5.731 -1.1163 -0.9376 -0.5202
  628MOL0     C86536   5.973   1.900   5.741 -0.2371 -0.6811  0.3509
  628MOL0     C86537   5.915   1.981   5.627 -0.0173 -0.9106 -1.0299
  628MOL0     C86538   5.969   2.119   5.611  0.3754 -0.5181  0.5362
  628MOL0     C86539   5.886   2.221   5.685 -0.3063 -0.0847 -0.6264
  628MOL0     C86540   5.913   2.216   5.829 -0.0458 -0.1950 -0.0508
  628MOL0     C86541   6.067   2.232   5.862  0.2761  0.0998  0.5798
  628MOL0     C86542   6.064   2.235   6.009  0.4540  0.0378 -0.0034
  628MOL0     N86543   6.208   2.236   6.052 -0.8593 -0.0005 -0.3673
  628MOL0     C86544   6.307   2.318   5.994  0.1198  0.9242  0.1006
  628MOL0     C86545   6.422   2.276   6.051 -0.9604  0.4451  1.0569
  628MOL0     C86546   6.554   2.341   6.006 -0.1001 -1.0716  0.4886
  628MOL0     C86547   6.693   2.281   6.052 -0.5757 -0.3841 -0.0449
  628MOL0     C86548   6.807   2.371   5.997  0.5464 -1.9949 -0.3581
  628MOL0     C86549   6.946   2.322   6.017  0.9855 -0.6097 -0.4439
  628MOL0     O86550   6.973   2.201   5.944 -0.2405  0.0178  0.2961
  628MOL0     C86551   6.991   2.215   5.804 -0.0089 -0.6158  0.0269
  628MOL0     C86552   7.013   2.099   5.737 -0.9938  0.4228  0.1295
  628MOL0     C86553   7.027   2.087   5.597 -0.4968 -0.6735 -0.1929
  628MOL0     C86554   7.030   1.949   5.532 -1.0770  0.2489 -1.0751
  628MOL0     C86555   7.014   2.211   5.527  0.5987 -0.6683 -0.5752
  628MOL0     C86556   7.028   2.209   5.380 -0.1514 -0.0117 -0.0533
  628MOL0     O86557   7.148   2.233   5.316  0.2746  0.0591 -0.5116
  628MOL0     C86558   7.256   2.275   5.384  0.2264 -0.6678  1.1454
  628MOL0     C86559   7.295   2.403   5.378  0.2372 -0.3805 -0.1546
  628MOL0     C86560   7.412   2.454   5.439  0.1054 -0.2941 -0.8401
  628MOL0     C86561   7.503   2.369   5.499  0.1676  0.5795  0.3232
  628MOL0     O86562   7.626   2.420   5.531  0.0915 -0.1136  0.1566
  628MOL0     C86563   7.695   2.350   5.629  0.8153  0.5918 -0.6210
  628MOL0     C86564   7.833   2.398   5.639 -0.3768 -0.1927  0.4912
  628MOL0     C86565   7.904   2.338   5.759  0.1254  0.3718 -0.1410
  628MOL0     C86566   7.865   2.433   5.870  0.4165  1.0160  0.4666
  628MOL0     C86567   7.890   2.357   6.005 -0.5187  0.4524  0.0016
  628MOL0     C86568   7.939   2.431   6.128  0.0389  0.9010 -0.7042
  628MOL0     C86569   7.940   2.343   6.254 -0.6098  0.5263 -0.1913
  628MOL0     C86570   8.010   2.402   6.371 -0.1094 -0.6600  1.1672
  628MOL0    Cl86571   8.196   2.413   6.369 -0.1554 -0.0662  0.2729
  628MOL0     C86572   7.467   2.232   5.505  0.1522  0.3945 -0.3054
  628MOL0     C86573   7.346   2.183   5.448  0.5280  0.0845  0.6312
  628MOL0     O86574   6.930   2.173   5.323  0.3551 -0.0513 -0.2415
  628MOL0     C86575   6.994   2.330   5.588  0.1737 -1.2753 -0.9922
  628MOL0     C86576   6.981   2.338   5.729  0.2536 -0.5552 -0.0905
  628MOL0     N86577   6.401   2.191   6.154 -0.3674 -0.3411 -0.2288
  628MOL0     N86578   6.273   2.154   6.140  0.2642 -0.1200 -0.3183
  628MOL0     C86579   6.229   1.903   5.448  0.0921  0.1948 -1.3209
  628MOL0     C86580   6.332   1.924   5.354  0.5233  0.7484  0.0823
  628MOL0     C86581   6.544   1.831   4.975 -0.1711  0.6341  1.2261
  628MOL0     C86582   6.524   1.753   4.855  0.9482 -0.6025  1.3362
  628MOL0     C86583   6.592   1.791   4.737  0.5618  0.0700  0.3070
  628MOL0     C86584   6.662   1.906   4.722  0.1090 -0.3211  0.4496
  628MOL0     O86585   6.726   1.918   4.604 -0.2373 -0.9312 -0.1795
  628MOL0     C86586   6.821   2.028   4.583  0.4000  1.1694  0.0502
  628MOL0     C86587   6.956   2.018   4.651 -1.1170  0.9999  0.0195
  628MOL0     C86588   7.036   2.144   4.692  0.3789  0.6938  0.2945
  628MOL0     C86589   7.095   2.228   4.584  0.2495  0.0806  1.1573
  628MOL0     C86590   7.220   2.179   4.520  0.5332  0.2726 -0.1160
  628MOL0     C86591   7.311   2.143   4.444  0.4713 -0.0455  0.3046
  628MOL0     C86592   6.663   1.991   4.829 -0.2399  0.6009 -0.2095
  628MOL0     C86593   6.608   1.957   4.955 -0.0878  0.3190 -0.0190
  628MOL0     C86594   6.600   2.068   5.073  0.1542  0.0650  0.5493
  628MOL0     H86595   6.490   1.624   5.395  1.4447  1.5647 -0.5736
  628MOL0     H86596   6.326   1.582   5.534  1.1238 -0.7346  0.0826
  628MOL0     H86597   6.178   1.934   5.714 -3.2768  1.1755  1.4955
  628MOL0     H86598   6.148   1.803   5.825 -1.2567 -1.9728 -0.9369
  628MOL0     H86599   5.913   1.811   5.763 -0.6133 -0.2460  1.1270
  628MOL0     H86600   5.958   1.951   5.837  1.3173 -0.4990  0.5170
  628MOL0     H86601   5.936   1.919   5.539 -0.3098  0.4335 -2.0698
  628MOL0     H86602   5.807   1.989   5.642  0.1747 -2.9009  3.0827
  628MOL0     H86603   6.078   2.123   5.621  0.4818  0.1737 -0.7011
  628MOL0     H86604   5.955   2.137   5.504 -0.6206  2.1679  1.0593
  628MOL0     H86605   5.780   2.209   5.664 -0.6524  1.9762 -0.2708
  628MOL0     H86606   5.922   2.318   5.648 -0.5226 -0.9575 -3.3472
  628MOL0     H86607   5.857   2.294   5.880 -0.5566 -2.0486  2.4177
  628MOL0     H86608   5.871   2.123   5.868  2.4701 -0.2438  3.0453
  628MOL0     H86609   6.102   2.325   5.817 -0.1861 -0.1530 -0.3298
  628MOL0     H86610   6.127   2.150   5.822 -2.9351 -0.2388 -4.3357
  628MOL0     H86611   6.011   2.320   6.053  0.1485 -1.7427  3.4427
  628MOL0     H86612   6.015   2.144   6.045  1.1949 -0.7515 -0.9383
  628MOL0     H86613   6.297   2.380   5.905  1.0517 -1.5148 -1.8315
  628MOL0     H86614   6.555   2.448   6.032 -1.2467 -1.0097  0.3110
  628MOL0     H86615   6.561   2.338   5.897  0.8509 -2.3533  0.5689
  628MOL0     H86616   6.684   2.292   6.161  0.2903  2.6363 -0.1950
  628MOL0     H86617   6.707   2.176   6.025  0.5913 -0.2934  0.1387
  628MOL0     H86618   6.783   2.384   5.891  0.2321  0.9368 -0.0093
  628MOL0     H86619   6.798   2.474   6.034  0.5521 -1.1943 -2.4125
  628MOL0     H86620   7.021   2.398   5.993 -0.3192  1.3992  1.4789
  628MOL0     H86621   6.946   2.299   6.124  0.8749 -4.3142 -1.1223
  628MOL0     H86622   7.009   2.005   5.791  3.2284  1.0840  1.9388
  628MOL0     H86623   6.942   1.930   5.471 -2.4845 -1.0871  1.2282
  628MOL0     H86624   7.047   1.868   5.603  1.0717  0.6039 -1.1082
  628MOL0     H86625   7.118   1.939   5.468  0.3557  3.1361  0.2395
  628MOL0     H86626   7.221   2.473   5.341  0.9259 -2.3361 -6.2667
  628MOL0     H86627   7.431   2.560   5.455 -2.1587  0.1234 -0.6920
  628MOL0     H86628   7.637   2.357   5.721 -0.2977  2.6182 -1.4345
  628MOL0     H86629   7.696   2.243   5.603  0.7487  1.2635 -3.7651
  628MOL0     H86630   7.874   2.365   5.543 -1.8482 -1.7109  0.3385
  628MOL0     H86631   7.842   2.507   5.633 -0.6450 -0.2544 -1.4758
  628MOL0     H86632   8.012   2.325   5.753 -0.0954 -1.6287 -0.5863
  628MOL0     H86633   7.870   2.235   5.771 -1.1632  0.5172 -2.0089
  628MOL0     H86634   7.757   2.451   5.875  0.0607 -0.9537  0.8538
  628MOL0     H86635   7.919   2.527   5.857  0.7111  1.0493  1.7717
  628MOL0     H86636   7.796   2.312   6.040 -0.6845  1.9977  1.6553
  628MOL0     H86637   7.950   2.267   5.990  1.4115  1.7563 -0.3633
  628MOL0     H86638   7.889   2.528   6.138 -0.2705  0.8070 -1.2890
  628MOL0     H86639   8.045   2.449   6.106  0.0545 -0.0521 -1.4656
  628MOL0     H86640   7.984   2.246   6.229 -1.5672  0.5723 -2.3662
  628MOL0     H86641   7.839   2.323   6.292 -0.5462  2.1347  0.9019
  628MOL0     H86642   7.968   2.360   6.463 -2.0301 -1.7991 -0.1560
  628MOL0     H86643   7.978   2.506   6.375  1.1089 -0.1066 -1.5332
  628MOL0     H86644   7.530   2.154   5.546  0.8945  1.6567  1.0449
  628MOL0     H86645   7.317   2.078   5.446 -0.9492  0.4128  2.5282
  628MOL0     H86646   6.970   2.418   5.530 -1.1268  1.4799  3.2173
  628MOL0     H86647   6.987   2.438   5.772  4.3869 -0.7007  0.1073
  628MOL0     H86648   6.161   1.986   5.469 -1.1066 -1.1667  0.4674
  628MOL0     H86649   6.326   2.015   5.295 -1.6110  0.1559 -0.7298
  628MOL0     H86650   6.469   1.661   4.842  1.9197 -0.7405 -3.7055
  628MOL0     H86651   6.596   1.725   4.651  3.7244 -2.4675  2.1352
  628MOL0     H86652   6.842   2.038   4.476  2.5768 -4.0342 -0.3382
  628MOL0     H86653   6.782   2.117   4.634 -0.3743 -0.1651  1.9275
  628MOL0     H86654   7.038   1.963   4.603 -0.1393 -0.1451  2.8034
  628MOL0     H86655   6.933   1.952   4.735 -5.9611  0.5173 -1.3931
  628MOL0     H86656   6.947   2.199   4.724 -1.6234 -0.6165 -2.5544
  628MOL0     H86657   7.113   2.123   4.766  1.1628  0.0412 -0.6744
  628MOL0     H86658   7.132   2.319   4.632 -0.5644  0.7446  0.5489
  628MOL0     H86659   7.020   2.268   4.515 -0.7852  1.8096  3.1357
  628MOL0     H86660   7.392   2.125   4.376  2.7456  2.7554  1.9901
  628MOL0     H86661   6.700   2.093   4.822 -3.7091  2.0412  0.2973
  628MOL0     H86662   6.671   2.151   5.077 -1.2484  1.2748  1.3612
  628MOL0     H86663   6.502   2.117   5.063 -0.0316 -0.6614 -1.8878
  628MOL0     H86664   6.618   2.018   5.169  0.0621 -2.9983 -0.8964
  629MOL0     O86665  11.180   1.980   4.022  0.7069  0.2612 -0.8004
  629MOL0     C86666  11.175   1.890   3.938 -0.0690  0.2278  0.1001
  629MOL0     O86667  11.070   1.866   3.852  0.0680 -0.2559 -0.6575
  629MOL0     C86668  10.953   1.943   3.866  0.0519  0.1409 -0.1513
  629MOL0     C86669  10.896   1.976   3.987  0.4607 -0.6408  0.4904
  629MOL0     C86670  10.754   1.994   3.989  0.2676  0.4959 -0.2029
  629MOL0     C86671  10.692   2.033   3.873  0.3413 -0.2779 -0.5931
  629MOL0     O86672  10.565   2.089   3.867 -0.2147  0.2145 -0.3829
  629MOL0     C86673  10.507   2.150   3.988 -1.0435  0.2539  0.5894
  629MOL0     C86674  10.372   2.217   3.949 -0.5422  0.4847  0.0255
  629MOL0     C86675  10.266   2.117   3.902  0.2072 -0.1623  0.8464
  629MOL0     C86676  10.127   2.170   3.884 -0.0686  0.2052 -0.4323
  629MOL0     C86677  10.036   2.096   3.983 -0.5073  0.0837  1.2461
  629MOL0     C86678  10.085   2.129   4.139  1.4440 -1.0466  0.2009
  629MOL0     C86679  10.062   2.024   4.238  1.1993 -0.1056  0.1214
  629MOL0     C86680  10.075   2.061   4.389  0.1018 -0.7520 -0.0553
  629MOL0     N86681  10.058   1.948   4.486 -0.2680  0.9589  0.1208
  629MOL0     C86682  10.144   1.847   4.513 -0.4992  1.6705 -0.2848
  629MOL0     C86683  10.081   1.768   4.612 -0.5043  0.6415 -0.5573
  629MOL0     C86684  10.116   1.652   4.686 -0.8596 -0.5072  0.5701
  629MOL0     C86685  10.080   1.657   4.834 -0.1294  0.7238 -0.2627
  629MOL0     C86686  10.078   1.528   4.914 -0.1711  0.1860 -0.4350
  629MOL0     C86687  10.220   1.457   4.919  0.5110 -0.5128 -0.2203
  629MOL0     O86688  10.304   1.509   5.029 -0.0976  1.2214  0.2715
  629MOL0     C86689  10.443   1.480   5.042  0.6880  0.6840  0.5098
  629MOL0     C86690  10.507   1.386   4.966  0.5422  0.3207  0.5876
  629MOL0     C86691  10.635   1.337   4.991  0.3311 -0.6354  0.5018
  629MOL0     C86692  10.695   1.219   4.918 -0.4216 -0.7810  0.1740
  629MOL0     C86693  10.712   1.404   5.100  0.3878  0.2221 -1.0855
  629MOL0     C86694  10.855   1.383   5.123  0.2073  0.3867  0.2107
  629MOL0     O86695  10.901   1.327   5.238  0.0938  0.3656 -1.2119
  629MOL0     C86696  11.013   1.246   5.218  0.1199  0.8673 -0.7910
  629MOL0     C86697  11.062   1.189   5.103  0.2411 -0.1811 -0.4966
  629MOL0     C86698  11.182   1.115   5.095 -1.0344  0.1031  0.7097
  629MOL0     C86699  11.238   1.073   5.215  0.0416 -0.3539  1.2288
  629MOL0     O86700  11.345   0.995   5.217  0.3184  0.3331  0.6214
  629MOL0     C86701  11.467   1.069   5.257 -0.3333 -1.2906 -0.0194
  629MOL0     C86702  11.554   1.107   5.146 -0.6279  0.9643 -0.3474
  629MOL0     C86703  11.627   0.991   5.063  0.3993 -0.1443 -0.7849
  629MOL0     C86704  11.771   0.972   5.114  0.4988  0.2509 -0.3551
  629MOL0     C86705  11.840   0.841   5.060  0.0384 -0.3102 -0.2616
  629MOL0     C86706  11.882   0.863   4.922  0.2664  1.2181 -0.2684
  629MOL0     C86707  11.932   0.727   4.869  0.2433  0.4810  0.1300
  629MOL0     C86708  12.058   0.679   4.934 -0.4627  0.2782 -0.3750
  629MOL0    Cl86709  12.197   0.811   4.928 -0.5224 -0.5836 -0.1316
  629MOL0     C86710  11.183   1.115   5.336 -0.2201  0.2279  0.4511
  629MOL0     C86711  11.080   1.213   5.334  0.3416  0.7317 -0.0113
  629MOL0     O86712  10.930   1.437   5.036 -0.5143 -0.3374  0.0410
  629MOL0     C86713  10.654   1.510   5.169 -0.6652  0.9623 -0.0267
  629MOL0     C86714  10.523   1.539   5.145 -0.2522 -0.0582  0.6763
  629MOL0     N86715   9.960   1.823   4.631  0.1382  0.1559  0.9329
  629MOL0     N86716   9.948   1.942   4.566 -0.3195  0.3566  0.5368
  629MOL0     C86717  10.768   2.042   3.754 -0.2325  1.0760 -0.9699
  629MOL0     C86718  10.890   1.985   3.754 -0.2587 -0.0527  0.9747
  629MOL0     C86719  11.294   1.793   3.932  0.3499  0.2941 -0.6597
  629MOL0     C86720  11.312   1.729   3.810 -0.1503  0.1738  0.2362
  629MOL0     C86721  11.412   1.635   3.793  0.1570  0.6440  0.3205
  629MOL0     C86722  11.496   1.602   3.897 -0.6507  0.0242  0.8385
  629MOL0     O86723  11.593   1.510   3.862  0.1885  0.5792 -0.5558
  629MOL0     C86724  11.706   1.497   3.955 -0.3324  0.4855 -0.5027
  629MOL0     C86725  11.822   1.427   3.887  0.1214 -0.8997 -1.0408
  629MOL0     C86726  11.865   1.502   3.750  0.1690 -0.3074  0.1105
  629MOL0     C86727  11.978   1.435   3.664 -0.6134 -0.5451 -0.0019
  629MOL0     C86728  11.937   1.436   3.525  1.2457  0.3355 -1.2311
  629MOL0     C86729  11.900   1.461   3.416 -0.2646  0.3233  0.4299
  629MOL0     C86730  11.489   1.668   4.016 -0.8767  0.2382 -0.5008
  629MOL0     C86731  11.385   1.762   4.038  0.6949  0.6972 -0.3281
  629MOL0     C86732  11.386   1.827   4.178 -0.0646  0.7535 -0.4729
  629MOL0     H86733  10.946   1.952   4.080 -0.4897  1.6674  1.6716
  629MOL0     H86734  10.703   1.995   4.084  0.9867 -1.1266  0.2408
  629MOL0     H86735  10.576   2.226   4.026  0.7733  0.0742 -2.0990
  629MOL0     H86736  10.492   2.075   4.065  2.6239  0.5393  1.7607
  629MOL0     H86737  10.318   2.269   4.029  0.6862 -2.0952  2.7115
  629MOL0     H86738  10.404   2.294   3.878  3.0579 -0.2617  0.6622
  629MOL0     H86739  10.294   2.079   3.803  0.8181  0.2063  0.8737
  629MOL0     H86740  10.267   2.024   3.961  3.5768 -1.7237 -1.3775
  629MOL0     H86741  10.123   2.279   3.895  3.8437  0.5567 -1.1089
  629MOL0     H86742  10.093   2.154   3.781  1.8022 -2.3807 -0.7247
  629MOL0     H86743  10.036   1.990   3.958 -0.9706  0.0390  1.4287
  629MOL0     H86744   9.933   2.134   3.978  0.1731  1.8735 -2.7218
  629MOL0     H86745  10.194   2.139   4.142  1.1993  3.2890  0.4856
  629MOL0     H86746  10.035   2.217   4.179 -1.2819 -2.4414  0.0992
  629MOL0     H86747  10.128   1.939   4.217  2.6163  1.4498 -2.1963
  629MOL0     H86748   9.961   1.986   4.218  2.0922 -2.1602 -0.7562
  629MOL0     H86749  10.181   2.090   4.385 -0.0324 -0.2235  0.1678
  629MOL0     H86750  10.008   2.145   4.405 -3.2961 -3.2916  0.1942
  629MOL0     H86751  10.242   1.816   4.479  0.4754  0.3529  3.3299
  629MOL0     H86752  10.220   1.631   4.660 -1.1599  0.5958 -1.8629
  629MOL0     H86753  10.071   1.563   4.640 -2.9535  1.1538 -0.7770
  629MOL0     H86754  10.162   1.722   4.867  1.4187  0.8437 -3.9101
  629MOL0     H86755   9.981   1.705   4.833 -0.7056 -0.4288 -0.4955
  629MOL0     H86756  10.023   1.530   5.009 -1.7498 -1.1957 -1.2754
  629MOL0     H86757  10.013   1.459   4.860 -0.0355 -0.8187  0.6530
  629MOL0     H86758  10.212   1.348   4.922 -1.0296 -0.4504 -0.9770
  629MOL0     H86759  10.270   1.482   4.825 -0.6102  0.4196 -0.5875
  629MOL0     H86760  10.452   1.332   4.888 -0.9104  1.0619  1.0629
  629MOL0     H86761  10.710   1.244   4.813 -0.1243  1.0995  0.6141
  629MOL0     H86762  10.621   1.141   4.939 -0.2662 -0.9896 -0.0599
  629MOL0     H86763  10.788   1.177   4.957 -0.2417 -0.7038 -0.1714
  629MOL0     H86764  11.022   1.219   5.007  0.7934 -1.2091 -1.0767
  629MOL0     H86765  11.229   1.077   5.005 -2.6853  0.6620 -0.4410
  629MOL0     H86766  11.431   1.162   5.302 -0.4996 -0.6510 -1.3936
  629MOL0     H86767  11.535   1.017   5.325 -1.1364  0.1326  1.9644
  629MOL0     H86768  11.497   1.167   5.074 -1.1019  1.7915  0.6937
  629MOL0     H86769  11.628   1.177   5.186 -0.2207 -0.8045  2.2259
  629MOL0     H86770  11.623   1.005   4.955 -1.2278  0.2790 -0.7060
  629MOL0     H86771  11.563   0.907   5.089 -0.5888  0.9242  0.4022
  629MOL0     H86772  11.757   0.967   5.222 -1.5218 -2.4925 -0.6375
  629MOL0     H86773  11.836   1.057   5.091  2.7994 -1.6184 -1.1083
  629MOL0     H86774  11.930   0.821   5.118 -0.1633  2.2176  1.0824
  629MOL0     H86775  11.778   0.751   5.055 -1.0792  0.5015 -3.2149
  629MOL0     H86776  11.963   0.935   4.906  1.0157  1.1787  2.7756
  629MOL0     H86777  11.799   0.904   4.863 -1.0510 -0.6414  0.2103
  629MOL0     H86778  11.953   0.728   4.762  0.4387 -0.9355  0.1374
  629MOL0     H86779  11.855   0.650   4.874 -0.1941  0.6897 -2.3563
  629MOL0     H86780  12.102   0.589   4.891 -0.6392  0.0874 -0.1543
  629MOL0     H86781  12.032   0.649   5.036 -6.6877  3.6677 -0.4462
  629MOL0     H86782  11.230   1.076   5.425 -0.0334 -3.4220 -1.1066
  629MOL0     H86783  11.045   1.253   5.429 -2.4606  0.6078 -0.9145
  629MOL0     H86784  10.709   1.565   5.245  0.5255  0.2455 -0.3492
  629MOL0     H86785  10.476   1.613   5.210  0.9552 -1.8184  3.7279
  629MOL0     H86786  10.728   2.077   3.659  1.9251  2.4941 -1.4263
  629MOL0     H86787  10.944   1.957   3.664 -1.8346 -1.8516  0.5055
  629MOL0     H86788  11.244   1.751   3.728  0.0621 -1.5684 -0.4339
  629MOL0     H86789  11.427   1.577   3.702 -0.9143 -1.4047  1.3802
  629MOL0     H86790  11.741   1.594   3.992 -1.5865  1.3898 -1.5853
  629MOL0     H86791  11.669   1.445   4.044 -0.6267  1.7741  0.1488
  629MOL0     H86792  11.787   1.327   3.860 -2.9806  0.3864 -2.2735
  629MOL0     H86793  11.910   1.405   3.949 -1.5079 -3.3070  0.6149
  629MOL0     H86794  11.776   1.522   3.690  1.7138  2.1442 -1.5049
  629MOL0     H86795  11.900   1.602   3.776 -2.3261  1.0300 -1.2955
  629MOL0     H86796  12.006   1.334   3.695 -0.4460 -0.2691  0.7653
  629MOL0     H86797  12.062   1.504   3.679  0.4677 -0.9861 -3.1708
  629MOL0     H86798  11.868   1.479   3.315 -1.4729 -1.5983  0.4158
  629MOL0     H86799  11.563   1.655   4.094 -2.2134  0.5098  0.8466
  629MOL0     H86800  11.292   1.805   4.230 -0.4572 -0.1760 -1.5547
  629MOL0     H86801  11.474   1.804   4.240  0.2950  1.3878 -0.7365
  629MOL0     H86802  11.387   1.937   4.176  1.0912  0.8588  1.6753
  630MOL0     O86803   8.254   6.237   9.362 -0.0174  0.1767 -0.9801
  630MOL0     C86804   8.288   6.152   9.286 -0.5332  0.2701 -0.1758
  630MOL0     O86805   8.391   6.162   9.198 -0.7332 -0.0879  0.1664
  630MOL0     C86806   8.465   6.286   9.193 -0.8032  0.4032 -1.0702
  630MOL0     C86807   8.609   6.267   9.165  0.8047  0.2598 -0.0407
  630MOL0     C86808   8.688   6.376   9.146  0.0960  0.1164 -0.3243
  630MOL0     C86809   8.642   6.505   9.155  0.2704  0.3581 -0.1536
  630MOL0     O86810   8.715   6.622   9.135 -0.1047  0.1262  0.3450
  630MOL0     C86811   8.829   6.637   9.047  0.0786 -0.6222 -1.4223
  630MOL0     C86812   8.885   6.774   9.052 -0.3648 -0.2484 -0.7157
  630MOL0     C86813   8.789   6.883   9.027  0.3061 -0.2108  0.1763
  630MOL0     C86814   8.688   6.875   8.915 -0.0408  0.3443  0.7311
  630MOL0     C86815   8.546   6.824   8.957  0.3822  1.4935  0.8146
  630MOL0     C86816   8.438   6.888   8.870  0.3370  1.2596 -0.2188
  630MOL0     C86817   8.302   6.851   8.904  0.2498  0.6360 -0.5251
  630MOL0     C86818   8.260   6.726   8.840  0.0726  0.0241  0.0774
  630MOL0     N86819   8.115   6.723   8.826  0.1350  0.3694  0.1604
  630MOL0     C86820   8.049   6.755   8.705  1.0929  0.9525 -0.4401
  630MOL0     C86821   7.915   6.756   8.733  0.0149 -0.2125 -1.0106
  630MOL0     C86822   7.794   6.764   8.638  0.3947 -1.0106  1.0675
  630MOL0     C86823   7.842   6.771   8.492  0.2412  1.6820  0.3399
  630MOL0     C86824   7.734   6.770   8.381 -0.1457 -0.8405 -0.1570
  630MOL0     C86825   7.608   6.856   8.414  0.1427  0.4122  0.2585
  630MOL0     O86826   7.482   6.809   8.359 -0.6393  0.2975 -0.6420
  630MOL0     C86827   7.358   6.881   8.383  0.0828  0.0252 -0.0072
  630MOL0     C86828   7.241   6.810   8.373 -0.4329  0.0951 -0.8984
  630MOL0     C86829   7.113   6.862   8.389 -0.7163  0.0115 -0.4250
  630MOL0     C86830   7.001   6.774   8.330 -0.6428 -0.2886  0.0710
  630MOL0     C86831   7.096   6.992   8.432 -0.1207 -0.2167  0.4004
  630MOL0     C86832   6.974   7.068   8.442 -0.9010 -0.5093 -0.4739
  630MOL0     O86833   6.988   7.201   8.414 -0.5179  0.4147 -0.3050
  630MOL0     C86834   6.870   7.269   8.416 -0.6933 -0.0600  0.7235
  630MOL0     C86835   6.796   7.288   8.534 -0.1020  0.8794  0.3566
  630MOL0     C86836   6.666   7.343   8.526 -0.1139 -0.7438  0.4726
  630MOL0     C86837   6.604   7.391   8.411 -0.2584 -0.8421 -0.2580
  630MOL0     O86838   6.483   7.465   8.406  0.1469  0.0642  0.4230
  630MOL0     C86839   6.428   7.508   8.529 -0.9613  0.3822 -0.7822
  630MOL0     C86840   6.296   7.582   8.509 -0.1417 -0.3708  0.3000
  630MOL0     C86841   6.189   7.520   8.408 -0.1384  0.2007  0.0354
  630MOL0     C86842   6.151   7.374   8.455 -0.9485  0.2836 -0.1327
  630MOL0     C86843   6.022   7.321   8.391  0.1764 -0.0539 -0.5474
  630MOL0     C86844   5.994   7.191   8.458  0.7829 -0.1772 -0.2737
  630MOL0     C86845   5.867   7.126   8.398 -0.0150  0.5222 -0.3592
  630MOL0     C86846   5.844   6.986   8.461 -0.9321 -0.5505  0.8510
  630MOL0    Cl86847   5.869   6.949   8.636  0.1376  0.0159  0.4719
  630MOL0     C86848   6.672   7.348   8.298  0.0204  0.5788 -0.1864
  630MOL0     C86849   6.800   7.293   8.294  0.2035 -0.4786 -0.3193
  630MOL0     O86850   6.868   7.005   8.449 -0.4729  0.0009  0.2547
  630MOL0     C86851   7.220   7.067   8.448  1.1764  0.6065  0.7087
  630MOL0     C86852   7.351   7.013   8.431 -0.2826 -0.2848 -0.2610
  630MOL0     N86853   7.903   6.743   8.866  0.5371  0.4065  0.3000
  630MOL0     N86854   8.016   6.720   8.917 -0.1054 -0.4654  0.2189
  630MOL0     C86855   8.505   6.520   9.172 -1.3633 -0.7951  0.2654
  630MOL0     C86856   8.417   6.417   9.190  0.5212 -0.3634  0.7252
  630MOL0     C86857   8.225   6.011   9.313  0.5777 -0.3959 -0.3837
  630MOL0     C86858   8.141   6.002   9.435  0.4096  0.9900  0.2503
  630MOL0     C86859   8.082   5.881   9.475 -0.3453 -0.4909  0.0566
  630MOL0     C86860   8.112   5.762   9.404 -0.3581  0.1220  0.7888
  630MOL0     O86861   8.040   5.646   9.438  0.0372 -0.1490  0.4776
  630MOL0     C86862   7.952   5.598   9.333  0.2753 -0.1090  0.6554
  630MOL0     C86863   7.873   5.483   9.415 -0.2158 -0.5413 -0.9796
  630MOL0     C86864   7.797   5.535   9.534  0.4637 -0.2163 -1.2316
  630MOL0     C86865   7.692   5.639   9.489  0.3772  0.9425 -0.5149
  630MOL0     C86866   7.577   5.566   9.418 -0.1902 -0.0945 -0.9459
  630MOL0     C86867   7.497   5.493   9.372  0.7370 -0.0593  0.4472
  630MOL0     C86868   8.186   5.767   9.277 -0.1967  0.3057  0.4975
  630MOL0     C86869   8.238   5.890   9.234 -0.5286  0.0907  0.4587
  630MOL0     C86870   8.325   5.881   9.111  0.8013  0.5572  0.0606
  630MOL0     H86871   8.661   6.172   9.157  0.1876 -0.0440 -0.5115
  630MOL0     H86872   8.796   6.375   9.149  0.2216  2.1499 -2.1416
  630MOL0     H86873   8.791   6.599   8.951 -1.8362 -1.2531 -0.4713
  630MOL0     H86874   8.910   6.566   9.067  1.2269  1.0772  0.3409
  630MOL0     H86875   8.927   6.775   9.153 -0.7869 -1.2416 -0.5172
  630MOL0     H86876   8.970   6.777   8.984 -1.4294  0.1536 -2.0578
  630MOL0     H86877   8.746   6.920   9.121 -0.2707 -2.1386  0.7221
  630MOL0     H86878   8.857   6.966   9.003 -0.8033  1.0462  1.2116
  630MOL0     H86879   8.671   6.970   8.862 -1.9607 -0.4983 -0.2717
  630MOL0     H86880   8.732   6.815   8.835 -1.2061  0.2477  0.1321
  630MOL0     H86881   8.524   6.832   9.064  3.8093 -0.6103  1.8656
  630MOL0     H86882   8.532   6.716   8.944  1.1154  1.5886 -1.0983
  630MOL0     H86883   8.434   6.997   8.873  0.5439  1.2393  1.4892
  630MOL0     H86884   8.462   6.868   8.765 -1.6783 -0.0662 -0.4944
  630MOL0     H86885   8.230   6.929   8.877 -1.1120  0.0868  1.3350
  630MOL0     H86886   8.294   6.842   9.013  2.7870  0.4690 -0.2940
  630MOL0     H86887   8.304   6.708   8.741  1.7386  0.5483  0.6836
  630MOL0     H86888   8.304   6.646   8.900  1.6913  1.9648  1.5999
  630MOL0     H86889   8.096   6.779   8.611 -1.5512  4.6443 -1.0372
  630MOL0     H86890   7.732   6.849   8.668  1.9144  0.3038  0.6373
  630MOL0     H86891   7.727   6.678   8.638 -1.2293  0.2101  1.2207
  630MOL0     H86892   7.906   6.860   8.487  3.2893 -0.1190  3.3718
  630MOL0     H86893   7.908   6.685   8.487 -1.4191  0.2360  1.8645
  630MOL0     H86894   7.769   6.815   8.288  1.0258 -1.1091  0.1365
  630MOL0     H86895   7.717   6.665   8.355 -0.9592  0.0387 -3.8125
  630MOL0     H86896   7.581   6.838   8.519  1.4557 -0.0058  0.5422
  630MOL0     H86897   7.629   6.962   8.396  1.1936  0.4791  1.6894
  630MOL0     H86898   7.255   6.705   8.348  3.1778  0.7808 -2.3505
  630MOL0     H86899   6.912   6.785   8.394 -1.1739  1.0314 -0.8284
  630MOL0     H86900   7.040   6.674   8.346 -1.6228 -0.9775 -1.6225
  630MOL0     H86901   6.980   6.786   8.223 -1.4234 -0.9139  0.1422
  630MOL0     H86902   6.850   7.288   8.629  0.7347  1.3797 -0.0992
  630MOL0     H86903   6.615   7.374   8.616  2.4852 -2.4226  2.6776
  630MOL0     H86904   6.410   7.424   8.597 -1.9047 -0.4833 -2.0653
  630MOL0     H86905   6.495   7.574   8.585 -1.3063 -0.8383  1.1618
  630MOL0     H86906   6.246   7.606   8.603 -0.0328 -0.5105  0.3926
  630MOL0     H86907   6.327   7.679   8.470 -2.1736 -0.2850 -1.2944
  630MOL0     H86908   6.241   7.529   8.313  0.9782  1.5323  0.7460
  630MOL0     H86909   6.093   7.571   8.394 -2.8063 -4.6575 -2.3095
  630MOL0     H86910   6.140   7.376   8.564 -1.8808 -2.1122 -0.1295
  630MOL0     H86911   6.230   7.303   8.432 -0.1619  0.9675  0.4120
  630MOL0     H86912   5.934   7.385   8.398  0.1857 -0.0986  0.0479
  630MOL0     H86913   6.036   7.304   8.284  0.6539 -1.8311 -0.2332
  630MOL0     H86914   5.984   7.200   8.566  0.7154  0.5774 -0.3389
  630MOL0     H86915   6.086   7.134   8.442  1.6861  1.8051 -2.8748
  630MOL0     H86916   5.876   7.125   8.289  0.6935 -0.9508 -0.2997
  630MOL0     H86917   5.776   7.178   8.429 -0.1399 -1.1535  2.4640
  630MOL0     H86918   5.910   6.925   8.397 -1.4141  2.4638 -2.9078
  630MOL0     H86919   5.740   6.970   8.432 -1.5552  3.5331  0.2897
  630MOL0     H86920   6.634   7.374   8.200 -1.7397  0.6057  0.4718
  630MOL0     H86921   6.860   7.260   8.209  0.5173  0.0394 -0.3024
  630MOL0     H86922   7.218   7.174   8.466  1.8371  1.2520 -2.5400
  630MOL0     H86923   7.433   7.082   8.448 -0.0084 -0.3190 -1.3977
  630MOL0     H86924   8.478   6.625   9.169 -1.6100 -0.8611  0.1104
  630MOL0     H86925   8.311   6.430   9.209  0.2242  1.3566 -1.6553
  630MOL0     H86926   8.119   6.090   9.495 -0.8928  2.3442 -2.0915
  630MOL0     H86927   8.028   5.872   9.569 -1.0149  0.1407 -0.2667
  630MOL0     H86928   7.894   5.680   9.290  2.6881  0.4140 -1.8907
  630MOL0     H86929   7.993   5.552   9.243 -0.7901 -4.7822  2.2561
  630MOL0     H86930   7.954   5.422   9.455 -0.1796 -0.7277 -1.3311
  630MOL0     H86931   7.816   5.416   9.348  0.8801  0.4796 -3.0326
  630MOL0     H86932   7.743   5.450   9.577 -1.3841  1.0853 -0.8346
  630MOL0     H86933   7.859   5.573   9.616  0.8443 -1.1483 -1.0794
  630MOL0     H86934   7.729   5.721   9.426 -0.8851  0.2449 -2.2512
  630MOL0     H86935   7.657   5.682   9.584 -0.4340 -0.1701 -0.2920
  630MOL0     H86936   7.425   5.427   9.328 -1.5758  2.3883  0.3472
  630MOL0     H86937   8.203   5.674   9.223  1.2503 -0.1000  1.5966
  630MOL0     H86938   8.317   5.785   9.060 -4.4146 -0.2386  1.8155
  630MOL0     H86939   8.297   5.957   9.037  4.9376 -0.7702 -3.3064
  630MOL0     H86940   8.432   5.900   9.126  0.7616 -0.0731  1.3188
  631MOL0     O86941   4.464   0.018   8.450  0.4316 -0.0967 -0.6642
  631MOL0     C86942   4.467  -0.052   8.548 -0.2951 -0.0037  0.1139
  631MOL0     O86943   4.501  -0.004   8.677 -0.7424 -0.1025 -0.4529
  631MOL0     C86944   4.480   0.125   8.697  0.5895  0.0804 -1.0529
  631MOL0     C86945   4.352   0.170   8.735 -0.3672  0.0531 -0.2395
  631MOL0     C86946   4.329   0.305   8.765 -0.6600 -0.1487  0.5886
  631MOL0     C86947   4.439   0.389   8.765  0.2646 -0.2589 -0.3766
  631MOL0     O86948   4.417   0.524   8.775 -0.6102 -0.3693  0.4663
  631MOL0     C86949   4.428   0.570   8.908 -0.5501  0.5133 -0.1148
  631MOL0     C86950   4.306   0.662   8.930 -0.5088  0.3921  0.5204
  631MOL0     C86951   4.297   0.772   8.826  0.2637 -0.2284  0.0890
  631MOL0     C86952   4.240   0.899   8.905  0.3914 -0.6923  0.7455
  631MOL0     C86953   4.203   1.013   8.815 -1.2273  0.0930 -0.4915
  631MOL0     C86954   4.068   0.987   8.744  1.0201 -0.6877 -0.4912
  631MOL0     C86955   4.021   1.117   8.662  0.3613  0.5311  0.3565
  631MOL0     C86956   4.106   1.140   8.536 -0.1612  0.4056  0.4828
  631MOL0     N86957   4.057   1.252   8.455 -0.3064 -0.3448 -0.2712
  631MOL0     C86958   3.930   1.271   8.412  0.1205  0.1451  0.2306
  631MOL0     C86959   3.918   1.407   8.394 -0.3864  0.8551  0.0182
  631MOL0     C86960   3.804   1.487   8.360 -1.2250  0.2339 -0.2987
  631MOL0     C86961   3.726   1.540   8.481  0.8379 -0.9253 -0.5732
  631MOL0     C86962   3.630   1.665   8.448  0.1691  0.3517  0.3249
  631MOL0     C86963   3.707   1.793   8.457  0.1640 -0.0590 -0.1663
  631MOL0     O86964   3.752   1.811   8.596 -0.2121  0.2362  1.0242
  631MOL0     C86965   3.855   1.907   8.608  0.2811 -0.1193  0.0022
  631MOL0     C86966   3.881   2.023   8.536 -0.6756  0.1231  0.0532
  631MOL0     C86967   4.000   2.107   8.569  0.1330 -0.0080 -1.0883
  631MOL0     C86968   4.034   2.227   8.498 -0.1140  0.1481  0.6243
  631MOL0     C86969   4.073   2.065   8.683 -0.5714  0.1265  0.5255
  631MOL0     C86970   4.209   2.124   8.721  0.0064  0.4640  0.3301
  631MOL0     O86971   4.235   2.135   8.843 -0.2637 -0.1407 -0.1079
  631MOL0     C86972   4.368   2.162   8.876 -0.3535 -0.1536 -0.2536
  631MOL0     C86973   4.390   2.266   8.978  0.0371 -0.0661 -0.4834
  631MOL0     C86974   4.521   2.292   9.008 -0.5092 -0.8726  0.5402
  631MOL0     C86975   4.630   2.229   8.952  0.0167  0.4504  0.8619
  631MOL0     O86976   4.762   2.252   8.974 -0.3996  0.0900 -0.2077
  631MOL0     C86977   4.811   2.351   9.068  0.9981 -0.1468 -0.1299
  631MOL0     C86978   4.826   2.305   9.214 -0.5982 -0.4059  0.3215
  631MOL0     C86979   4.913   2.387   9.303  0.6609 -0.8081  0.1619
  631MOL0     C86980   4.900   2.346   9.448 -0.6347  0.6666 -0.0542
  631MOL0     C86981   4.926   2.194   9.486  0.1286 -0.0936  0.1464
  631MOL0     C86982   4.802   2.110   9.509  0.0175 -0.0749 -0.3690
  631MOL0     C86983   4.833   1.964   9.525  1.2108  0.1965 -0.3309
  631MOL0     C86984   4.853   1.928   9.672  0.7360  0.0930  0.0805
  631MOL0    Cl86985   5.031   1.951   9.721  0.4864  0.1939  0.1386
  631MOL0     C86986   4.603   2.131   8.851 -0.5174  0.2554 -0.2400
  631MOL0     C86987   4.474   2.099   8.811 -0.8787 -0.1670 -0.0307
  631MOL0     O86988   4.285   2.165   8.630  0.2727 -0.0656  0.1233
  631MOL0     C86989   4.032   1.961   8.761 -0.9133  0.4414 -0.1085
  631MOL0     C86990   3.936   1.876   8.724  0.5734 -0.1566 -0.2316
  631MOL0     N86991   4.034   1.469   8.440  0.2253  0.1962 -0.1329
  631MOL0     N86992   4.116   1.372   8.458 -0.1470 -0.1733 -0.3301
  631MOL0     C86993   4.568   0.345   8.751 -0.7216  0.8497 -0.6155
  631MOL0     C86994   4.581   0.206   8.713 -0.3494 -0.2347 -0.0159
  631MOL0     C86995   4.440  -0.197   8.532 -0.7268  0.3559 -0.2307
  631MOL0     C86996   4.370  -0.232   8.415  0.6985 -0.5658 -0.7908
  631MOL0     C86997   4.341  -0.362   8.384 -0.5035  0.4252 -0.2912
  631MOL0     C86998   4.358  -0.464   8.473  0.2259 -0.6401 -1.1196
  631MOL0     O86999   4.308  -0.593   8.456  0.0700 -0.0110 -0.1091
  631MOL0     C87000   4.275  -0.634   8.321  0.4221 -0.6719 -0.0941
  631MOL0     C87001   4.243  -0.786   8.321  0.4648 -0.4215  0.0871
  631MOL0     C87002   4.256  -0.845   8.180  0.3656 -1.0151  0.3641
  631MOL0     C87003   4.243  -1.001   8.155 -0.0966  0.4396 -0.5377
  631MOL0     C87004   4.348  -1.087   8.211 -0.3467 -0.3370 -0.1348
  631MOL0     C87005   4.426  -1.154   8.273 -0.7972  0.1168  0.0004
  631MOL0     C87006   4.413  -0.436   8.599 -0.2633 -0.7657 -0.4312
  631MOL0     C87007   4.465  -0.302   8.631 -0.0795  0.2950 -1.0982
  631MOL0     C87008   4.560  -0.282   8.751  0.1461  0.2708  0.3929
  631MOL0     H87009   4.263   0.109   8.747 -0.1904  0.1696  2.2463
  631MOL0     H87010   4.228   0.339   8.786 -0.6139 -0.4862  1.4250
  631MOL0     H87011   4.518   0.628   8.926  1.3289 -1.9484 -1.0091
  631MOL0     H87012   4.431   0.482   8.974 -0.9597 -0.1647 -0.9698
  631MOL0     H87013   4.211   0.607   8.929 -1.7535  2.4179 -0.5412
  631MOL0     H87014   4.323   0.704   9.030  2.3278  1.5193 -0.3533
  631MOL0     H87015   4.398   0.793   8.788  0.8664 -3.6917 -0.5428
  631MOL0     H87016   4.234   0.738   8.744  0.8178  1.0352 -0.9033
  631MOL0     H87017   4.155   0.866   8.966  2.3914  1.0499  4.8754
  631MOL0     H87018   4.308   0.944   8.977 -2.2165  1.5382  1.9606
  631MOL0     H87019   4.286   1.037   8.748  0.2075  0.6362  1.4084
  631MOL0     H87020   4.183   1.102   8.876  0.1947  0.8750 -1.1070
  631MOL0     H87021   4.058   0.900   8.678  0.3786 -2.3911  1.7127
  631MOL0     H87022   3.987   0.978   8.818  1.7217 -0.2159  0.3584
  631MOL0     H87023   4.029   1.203   8.729  3.9220  0.7962 -0.2478
  631MOL0     H87024   3.916   1.106   8.634  0.0746 -2.2621  2.1663
  631MOL0     H87025   4.214   1.149   8.552  0.0625  2.7684 -1.7454
  631MOL0     H87026   4.089   1.047   8.481 -0.4710  1.2554 -0.9061
  631MOL0     H87027   3.855   1.192   8.406 -0.9600  1.1987 -4.5747
  631MOL0     H87028   3.725   1.437   8.302 -1.4781  1.4643 -1.0642
  631MOL0     H87029   3.844   1.573   8.305  1.6702 -0.8505 -0.0799
  631MOL0     H87030   3.668   1.449   8.502 -3.6926  1.3855 -1.8384
  631MOL0     H87031   3.790   1.559   8.567 -0.1637 -0.3108  0.0516
  631MOL0     H87032   3.592   1.652   8.346  0.5182 -2.1335  0.4495
  631MOL0     H87033   3.533   1.663   8.499 -0.7048  0.2100 -1.2826
  631MOL0     H87034   3.799   1.784   8.400  0.3382 -0.8884  0.2249
  631MOL0     H87035   3.640   1.875   8.430 -0.9156 -0.1048  2.1348
  631MOL0     H87036   3.826   2.049   8.446 -1.2908 -1.1161  0.0475
  631MOL0     H87037   4.117   2.211   8.428 -2.4806 -3.0257 -1.7371
  631MOL0     H87038   4.055   2.308   8.569  0.0240  0.1113  0.6274
  631MOL0     H87039   3.947   2.254   8.438 -2.4963 -1.6299  3.0397
  631MOL0     H87040   4.317   2.320   9.037 -2.4580 -3.2208 -0.4047
  631MOL0     H87041   4.552   2.358   9.089  0.5701 -1.3958  0.5709
  631MOL0     H87042   4.904   2.389   9.024 -0.3619  2.7654 -0.7208
  631MOL0     H87043   4.746   2.440   9.072  0.7766 -0.3497  1.6252
  631MOL0     H87044   4.731   2.283   9.264  0.1647 -0.9998  1.5620
  631MOL0     H87045   4.874   2.206   9.213  0.9797  0.3293  0.1970
  631MOL0     H87046   4.891   2.494   9.301  2.7430 -0.3418 -1.5324
  631MOL0     H87047   5.014   2.377   9.261  0.1875 -0.7584 -1.0362
  631MOL0     H87048   4.805   2.383   9.485  0.0960  1.4654  1.0924
  631MOL0     H87049   4.989   2.383   9.499 -1.0066 -0.6398  1.6053
  631MOL0     H87050   4.983   2.164   9.397  0.1178  4.1618 -1.5036
  631MOL0     H87051   4.982   2.188   9.580  2.5235  1.1660 -1.1059
  631MOL0     H87052   4.735   2.113   9.422  1.1894 -0.3391 -1.3080
  631MOL0     H87053   4.743   2.156   9.589 -2.0941 -0.7435 -1.4465
  631MOL0     H87054   4.925   1.937   9.472  0.5690 -2.6996 -0.1389
  631MOL0     H87055   4.751   1.904   9.484  2.9908  0.4441 -4.7804
  631MOL0     H87056   4.833   1.822   9.686 -0.4612  0.2526 -0.2995
  631MOL0     H87057   4.794   1.991   9.740  1.9784 -1.4119  2.7092
  631MOL0     H87058   4.682   2.084   8.793 -1.4926 -0.8637 -0.6910
  631MOL0     H87059   4.465   2.023   8.734  3.0640  0.2549 -1.1261
  631MOL0     H87060   4.096   1.941   8.846  2.2944  1.3630 -2.1343
  631MOL0     H87061   3.914   1.785   8.779  1.7861 -0.6456 -0.5196
  631MOL0     H87062   4.664   0.396   8.752 -1.8321  2.9975 -0.5419
  631MOL0     H87063   4.683   0.168   8.706 -0.4229 -0.5358  0.5177
  631MOL0     H87064   4.359  -0.160   8.335  2.1130 -0.1525 -0.6529
  631MOL0     H87065   4.302  -0.373   8.283  1.8395 -2.3371 -1.0489
  631MOL0     H87066   4.198  -0.578   8.267  0.0912 -2.3665 -1.4571
  631MOL0     H87067   4.365  -0.625   8.260  0.7521  2.0233  0.6339
  631MOL0     H87068   4.141  -0.801   8.357  0.5307 -0.1568  0.3847
  631MOL0     H87069   4.311  -0.835   8.391  1.1643 -2.7091 -2.0081
  631MOL0     H87070   4.192  -0.783   8.116  3.9015 -1.5052 -4.2079
  631MOL0     H87071   4.351  -0.817   8.132 -0.4056 -0.2684 -0.7798
  631MOL0     H87072   4.241  -1.010   8.046  2.4429 -1.4950 -0.5314
  631MOL0     H87073   4.147  -1.031   8.197 -0.1573 -0.3502 -1.2163
  631MOL0     H87074   4.503  -1.208   8.324 -0.0225  2.2732  1.2933
  631MOL0     H87075   4.429  -0.507   8.680 -0.6249  1.2333  1.4795
  631MOL0     H87076   4.660  -0.244   8.727  0.1369  0.5415  0.7716
  631MOL0     H87077   4.505  -0.224   8.825  0.7785  0.2106  0.9158
  631MOL0     H87078   4.572  -0.382   8.794  2.1476  0.3962  0.2179
  632MOL0     O87079  10.206   9.067  10.893  0.0660  0.1789 -0.2511
  632MOL0     C87080  10.146   8.995  10.970 -0.1039 -0.6836  0.6873
  632MOL0     O87081  10.015   8.953  10.952  0.2064 -0.1935 -0.1051
  632MOL0     C87082   9.937   9.008  10.850 -0.1705  0.3683  0.2604
  632MOL0     C87083   9.859   9.120  10.868  0.2166 -0.0329 -0.3380
  632MOL0     C87084   9.802   9.188  10.756  0.7547  0.8076  0.4826
  632MOL0     C87085   9.807   9.129  10.624  0.2395 -0.1059  0.3048
  632MOL0     O87086   9.744   9.174  10.512 -0.0835  0.2570  0.7448
  632MOL0     C87087   9.648   9.280  10.520  0.1056  1.0153  0.0290
  632MOL0     C87088   9.608   9.325  10.382  0.9418 -0.5103 -1.2020
  632MOL0     C87089   9.513   9.444  10.380 -0.3177  1.0476 -0.6586
  632MOL0     C87090   9.596   9.578  10.387  0.4806  0.0415  0.1559
  632MOL0     C87091   9.511   9.708  10.389 -0.4900  0.5523  0.3459
  632MOL0     C87092   9.409   9.737  10.275  0.6914  1.0506  0.6982
  632MOL0     C87093   9.466   9.727  10.137 -0.0377 -0.3058  0.2980
  632MOL0     C87094   9.560   9.843  10.104 -1.0763 -0.3198  0.3604
  632MOL0     N87095   9.506   9.989  10.101 -0.6589  0.0501 -0.0640
  632MOL0     C87096   9.374  10.018  10.085 -0.5032 -0.1169  0.4103
  632MOL0     C87097   9.384  10.151  10.054 -0.0564 -0.4506 -0.4571
  632MOL0     C87098   9.269  10.243  10.026  0.0787  0.0445  0.2211
  632MOL0     C87099   9.212  10.218   9.891  0.7965 -0.0637  0.6498
  632MOL0     C87100   9.315  10.235   9.768  0.5370  0.2340  0.3918
  632MOL0     C87101   9.300  10.368   9.701  1.0166 -0.3662 -0.7677
  632MOL0     O87102   9.332  10.461   9.801 -0.1554  0.4718 -0.1253
  632MOL0     C87103   9.330  10.588   9.766  0.3686 -0.1806 -0.2915
  632MOL0     C87104   9.243  10.641   9.668 -0.7945  0.7457 -0.0252
  632MOL0     C87105   9.265  10.768   9.613  0.1677 -0.4025  0.2555
  632MOL0     C87106   9.168  10.818   9.515 -0.5290  0.4646  0.0679
  632MOL0     C87107   9.377  10.840   9.653 -0.1352 -0.1451 -0.8279
  632MOL0     C87108   9.402  10.979   9.598 -0.4221  0.2577 -0.6087
  632MOL0     O87109   9.536  11.017   9.611 -0.0986  0.4063 -0.1743
  632MOL0     C87110   9.607  11.114   9.542 -0.1297  0.7818  0.6443
  632MOL0     C87111   9.557  11.201   9.442 -1.1103 -0.4379  1.9813
  632MOL0     C87112   9.649  11.282   9.373  0.3728  0.0061  0.4917
  632MOL0     C87113   9.784  11.277   9.399 -0.0995 -0.8976  0.7009
  632MOL0     O87114   9.874  11.361   9.323 -0.2503  0.6560 -0.1207
  632MOL0     C87115  10.004  11.395   9.386  0.2266  1.0474 -0.2669
  632MOL0     C87116  10.049  11.519   9.315 -0.3949 -0.3700  0.6328
  632MOL0     C87117  10.090  11.473   9.176  0.2127 -0.2374 -0.2099
  632MOL0     C87118  10.102  11.605   9.100  0.6483  0.5845 -0.9747
  632MOL0     C87119  10.167  11.579   8.962  0.5657  0.5823  0.6388
  632MOL0     C87120  10.205  11.697   8.887  0.2849 -0.0802 -0.5418
  632MOL0     C87121  10.093  11.792   8.846 -1.1939  0.7261 -0.4022
  632MOL0     C87122  10.130  11.856   8.712 -1.0348  0.8190 -0.0313
  632MOL0    Cl87123  10.107  11.734   8.576  0.1197 -0.1375  0.1732
  632MOL0     C87124   9.836  11.205   9.506  0.6962  0.6706 -0.1308
  632MOL0     C87125   9.743  11.124   9.577 -0.5750 -0.0446  0.0581
  632MOL0     O87126   9.320  11.040   9.540  0.0057 -0.6652 -0.6086
  632MOL0     C87127   9.458  10.788   9.755 -0.8792 -0.2204 -0.5200
  632MOL0     C87128   9.437  10.663   9.808 -0.7171  0.5061  0.2407
  632MOL0     N87129   9.521  10.197  10.051  0.9814  0.1113  0.0019
  632MOL0     N87130   9.590  10.093  10.086 -1.3071 -0.4231 -0.6965
  632MOL0     C87131   9.867   9.005  10.613  0.9154  0.7744 -0.7800
  632MOL0     C87132   9.934   8.953  10.725 -0.5631 -1.0057 -1.1397
  632MOL0     C87133  10.225   8.961  11.082 -0.3650  0.2516  0.3451
  632MOL0     C87134  10.347   8.906  11.070 -0.1705  0.3792  0.6232
  632MOL0     C87135  10.422   8.878  11.182 -0.7103  0.4909 -0.2583
  632MOL0     C87136  10.379   8.894  11.306 -0.0942 -1.0687  0.3831
  632MOL0     O87137  10.461   8.849  11.401  0.2241 -0.1427 -0.0920
  632MOL0     C87138  10.478   8.924  11.522  0.8068 -0.2483  0.3442
  632MOL0     C87139  10.597   9.023  11.503 -0.1776 -0.2300 -0.1480
  632MOL0     C87140  10.721   8.945  11.468  1.1601  0.2071 -0.6835
  632MOL0     C87141  10.848   9.042  11.460  0.3969  0.3009 -0.4387
  632MOL0     C87142  10.951   8.985  11.374  0.0733  0.1027  0.7117
  632MOL0     C87143  11.046   8.932  11.310 -0.5612  0.7256 -0.1725
  632MOL0     C87144  10.255   8.952  11.326 -0.0709 -0.3293 -0.3484
  632MOL0     C87145  10.172   8.981  11.210  0.6073 -0.7570  0.6814
  632MOL0     C87146  10.029   9.038  11.233 -0.4156 -1.7785 -0.3693
  632MOL0     H87147   9.850   9.152  10.972 -3.9969 -1.9973  0.1105
  632MOL0     H87148   9.754   9.282  10.780 -3.1093 -0.6265 -0.8254
  632MOL0     H87149   9.692   9.367  10.571  1.7260  0.6973 -0.7458
  632MOL0     H87150   9.559   9.264  10.581  1.5544  1.2821  2.3612
  632MOL0     H87151   9.696   9.340  10.319  1.0966  0.4137 -0.7789
  632MOL0     H87152   9.551   9.242  10.339 -1.0937 -0.4029  1.0695
  632MOL0     H87153   9.445   9.445  10.294 -3.3274  2.6789  1.5603
  632MOL0     H87154   9.447   9.444  10.468  1.3728  0.9490  0.6643
  632MOL0     H87155   9.656   9.573  10.479  0.6380 -1.8393 -0.0033
  632MOL0     H87156   9.668   9.587  10.306 -1.0092  1.8395 -1.0389
  632MOL0     H87157   9.576   9.796  10.396 -1.0917  1.2782 -2.0933
  632MOL0     H87158   9.449   9.711  10.479  0.8974 -3.5708  1.6709
  632MOL0     H87159   9.319   9.675  10.278  0.2569  1.6725  0.6874
  632MOL0     H87160   9.376   9.841  10.281 -1.8160  0.5497 -2.1624
  632MOL0     H87161   9.392   9.733  10.058 -0.1035 -1.8408  0.2226
  632MOL0     H87162   9.519   9.634  10.115  0.2107  0.0250 -0.5550
  632MOL0     H87163   9.636   9.847  10.183 -0.4555 -1.0358 -0.1782
  632MOL0     H87164   9.607   9.825  10.007 -1.1414 -1.2904  0.5041
  632MOL0     H87165   9.281   9.963  10.102  0.4994 -2.1340 -0.2581
  632MOL0     H87166   9.306  10.346  10.023 -2.8753  1.1769 -2.7969
  632MOL0     H87167   9.197  10.234  10.107  0.5011 -0.5183  0.5419
  632MOL0     H87168   9.179  10.116   9.871 -1.7235  1.3076 -3.1809
  632MOL0     H87169   9.123  10.280   9.880  2.1224  2.7559  3.9024
  632MOL0     H87170   9.415  10.212   9.805  0.7561 -0.3596 -0.5257
  632MOL0     H87171   9.282  10.155   9.700 -2.7749  1.3045  0.5772
  632MOL0     H87172   9.375  10.376   9.622  0.9688  1.4083 -0.6771
  632MOL0     H87173   9.197  10.374   9.665  0.6232 -1.9555 -0.0289
  632MOL0     H87174   9.153  10.585   9.648 -0.6126 -0.0875  1.3319
  632MOL0     H87175   9.215  10.856   9.424 -2.4856  6.0143  0.9655
  632MOL0     H87176   9.122  10.908   9.558 -0.7405  1.1995 -1.5962
  632MOL0     H87177   9.095  10.741   9.488  2.0155 -1.9492 -0.2762
  632MOL0     H87178   9.452  11.203   9.416 -0.5549  2.1796 -0.4814
  632MOL0     H87179   9.604  11.340   9.294  0.6884 -0.8667 -0.3453
  632MOL0     H87180   9.985  11.428   9.489 -0.9461 -0.0805 -0.0876
  632MOL0     H87181  10.071  11.309   9.381 -0.0515  0.8262 -0.2711
  632MOL0     H87182   9.980  11.604   9.317  0.7289  0.6376 -0.8417
  632MOL0     H87183  10.133  11.575   9.358 -1.3159  0.7738  1.0009
  632MOL0     H87184  10.020  11.407   9.123  0.1145 -0.3667  0.0805
  632MOL0     H87185  10.186  11.422   9.180 -0.3778 -1.3372  0.5837
  632MOL0     H87186  10.158  11.674   9.164 -1.4413 -1.5692  3.6769
  632MOL0     H87187  10.006  11.656   9.090 -0.3359 -0.5155  1.8577
  632MOL0     H87188  10.251  11.510   8.978  0.1633  0.4410  2.4019
  632MOL0     H87189  10.088  11.534   8.901  1.3498 -1.8107  1.2389
  632MOL0     H87190  10.254  11.676   8.791 -0.3935  0.5677 -1.0520
  632MOL0     H87191  10.270  11.759   8.950 -0.0361  0.8971 -1.1386
  632MOL0     H87192  10.086  11.873   8.919 -1.5149 -1.9414  2.7620
  632MOL0     H87193   9.998  11.740   8.829 -0.5531 -0.7456  0.2898
  632MOL0     H87194  10.230  11.899   8.715 -0.5379 -0.2677 -0.7549
  632MOL0     H87195  10.066  11.943   8.692 -2.2832 -0.5864 -2.6974
  632MOL0     H87196   9.933  11.208   9.553 -0.2127 -0.0921  1.9155
  632MOL0     H87197   9.791  11.061   9.651  1.8966 -2.3888 -3.2356
  632MOL0     H87198   9.544  10.842   9.793 -1.5685 -0.3072  1.2518
  632MOL0     H87199   9.501  10.621   9.884 -0.3463  2.2615  0.9539
  632MOL0     H87200   9.884   8.939  10.528  0.6180 -1.1396  0.5881
  632MOL0     H87201   9.989   8.861  10.713  1.1679  0.0711 -1.9087
  632MOL0     H87202  10.386   8.892  10.970 -1.7067  1.6206 -0.1959
  632MOL0     H87203  10.519   8.829  11.184 -1.4605 -1.0490  0.1245
  632MOL0     H87204  10.391   8.984  11.551  1.3227 -0.3704  2.2912
  632MOL0     H87205  10.497   8.863  11.611 -0.9891 -3.3293 -1.2130
  632MOL0     H87206  10.630   9.087  11.587  3.8936 -1.1359 -0.8199
  632MOL0     H87207  10.576   9.089  11.418 -1.6447 -1.1108 -0.4812
  632MOL0     H87208  10.738   8.867  11.543 -5.2765 -1.7649 -0.6466
  632MOL0     H87209  10.702   8.907  11.367  0.1108  1.2121 -0.8907
  632MOL0     H87210  10.883   9.063  11.562 -2.5760 -0.1626  0.8008
  632MOL0     H87211  10.808   9.132  11.413 -2.9116 -1.6922 -1.8321
  632MOL0     H87212  11.128   8.902  11.249  0.8737  1.6201  1.2341
  632MOL0     H87213  10.208   8.965  11.424  2.4481  1.0336  0.7660
  632MOL0     H87214   9.995   9.120  11.169  0.4484  0.4420  1.8362
  632MOL0     H87215   9.963   8.951  11.227 -3.1515  0.1815 -0.4750
  632MOL0     H87216  10.026   9.075  11.336 -0.1177  1.2931 -1.3678
  633MOL0     O87217   5.410   6.719   8.217 -0.1556 -1.0931  0.3235
  633MOL0     C87218   5.484   6.655   8.150  0.8445 -0.0715  0.0145
  633MOL0     O87219   5.488   6.524   8.146 -0.3295  0.4819  0.3572
  633MOL0     C87220   5.440   6.454   8.259 -0.7853 -0.1270  0.6996
  633MOL0     C87221   5.479   6.474   8.394  0.9348 -0.1619  0.1083
  633MOL0     C87222   5.426   6.405   8.500  0.7377 -0.0994 -0.6571
  633MOL0     C87223   5.331   6.310   8.483 -0.3115  0.5509  0.5836
  633MOL0     O87224   5.270   6.240   8.589 -0.0703 -0.0984  0.5555
  633MOL0     C87225   5.275   6.308   8.712 -0.2436  0.4154 -0.0490
  633MOL0     C87226   5.158   6.239   8.785 -0.1484  0.4698 -0.2169
  633MOL0     C87227   5.110   6.323   8.909  1.3899 -0.1408 -0.1889
  633MOL0     C87228   5.217   6.336   9.022 -0.2762 -0.4196  0.2490
  633MOL0     C87229   5.156   6.414   9.135  0.3341 -0.2646 -0.6353
  633MOL0     C87230   5.073   6.323   9.230 -0.5920  0.0711 -0.3808
  633MOL0     C87231   4.925   6.339   9.223  0.7998  0.5034  0.7403
  633MOL0     C87232   4.859   6.220   9.278  0.5657 -1.2658 -0.1261
  633MOL0     N87233   4.718   6.230   9.239  0.0837 -0.1809 -0.4901
  633MOL0     C87234   4.648   6.153   9.151 -0.6640  0.4024  0.3611
  633MOL0     C87235   4.530   6.204   9.129  1.0156 -0.2474 -0.4156
  633MOL0     C87236   4.427   6.119   9.062  0.2405 -0.2032 -0.0879
  633MOL0     C87237   4.281   6.170   9.097  0.3336 -0.7946  0.2968
  633MOL0     C87238   4.171   6.083   9.028  0.7104  1.2305  1.2197
  633MOL0     C87239   4.151   6.130   8.883 -0.6228  1.2401 -0.4173
  633MOL0     O87240   4.066   6.027   8.826  0.3374 -0.1196  0.9145
  633MOL0     C87241   4.044   6.024   8.687  0.7921 -0.0115  0.0360
  633MOL0     C87242   3.999   5.908   8.627  0.8643  0.1572 -0.4883
  633MOL0     C87243   3.993   5.889   8.494  0.1227  0.7515 -0.1411
  633MOL0     C87244   3.965   5.755   8.440 -0.9384  0.8451 -0.0150
  633MOL0     C87245   4.020   5.999   8.404  0.1482  0.0233  0.1647
  633MOL0     C87246   4.005   5.998   8.258 -0.0551 -0.7545 -0.5370
  633MOL0     O87247   4.089   6.069   8.192  0.4192 -0.3121  0.2870
  633MOL0     C87248   4.079   6.073   8.055  1.1031 -0.9224  0.4733
  633MOL0     C87249   4.068   6.200   7.999 -0.5345 -0.2531  1.3375
  633MOL0     C87250   4.044   6.217   7.857  0.3725 -1.1902 -0.4652
  633MOL0     C87251   4.051   6.100   7.770 -0.6214  1.0899  0.1744
  633MOL0     O87252   4.048   6.099   7.631  0.0758  0.0338  0.0238
  633MOL0     C87253   3.981   6.201   7.567  0.3887  0.1054  0.0145
  633MOL0     C87254   3.967   6.176   7.413 -0.8572  0.3236 -0.4766
  633MOL0     C87255   3.949   6.306   7.334 -0.2771 -0.3178 -1.1237
  633MOL0     C87256   3.915   6.293   7.183  0.2796 -0.1447  1.6897
  633MOL0     C87257   3.997   6.390   7.096  0.8146 -0.1038  0.2465
  633MOL0     C87258   3.935   6.394   6.958 -0.0523  0.5623  0.6993
  633MOL0     C87259   4.017   6.493   6.864 -0.6961  0.3204 -1.1975
  633MOL0     C87260   3.961   6.509   6.726  0.8618  0.2787 -0.7249
  633MOL0    Cl87261   3.904   6.345   6.657  0.2047 -0.0794  0.3847
  633MOL0     C87262   4.059   5.978   7.834 -0.0371  0.7990  0.1082
  633MOL0     C87263   4.056   5.967   7.968 -0.2793  0.2512 -0.9463
  633MOL0     O87264   3.913   5.930   8.207  0.5126 -0.9450  0.6886
  633MOL0     C87265   4.071   6.111   8.461  1.2394 -0.2393 -0.1448
  633MOL0     C87266   4.079   6.129   8.601 -0.8946  0.4626 -0.0215
  633MOL0     N87267   4.524   6.325   9.202  0.1125  0.6068  0.4024
  633MOL0     N87268   4.635   6.341   9.262 -0.9378 -0.4102 -0.1359
  633MOL0     C87269   5.303   6.265   8.356  0.6253 -0.4850 -0.5577
  633MOL0     C87270   5.355   6.350   8.250  0.1661  0.9147 -0.3840
  633MOL0     C87271   5.581   6.724   8.070 -0.3376 -0.1066  0.8799
  633MOL0     C87272   5.717   6.681   8.074 -0.6241 -0.2543 -0.1598
  633MOL0     C87273   5.818   6.747   8.012 -0.5128 -0.0523  0.2987
  633MOL0     C87274   5.791   6.865   7.944  0.3185  0.0541 -0.1335
  633MOL0     O87275   5.875   6.958   7.898  0.7464 -0.1852 -0.1619
  633MOL0     C87276   6.006   6.983   7.964  0.0392 -0.4753  0.9544
  633MOL0     C87277   6.042   7.127   7.948 -1.3196 -0.4146  0.8282
  633MOL0     C87278   6.190   7.147   7.978  0.6380  0.9291 -0.1886
  633MOL0     C87279   6.247   7.283   7.945 -0.4345 -0.4074  0.2196
  633MOL0     C87280   6.194   7.403   8.016  0.1531 -0.3197  1.1069
  633MOL0     C87281   6.137   7.512   8.039 -0.2534  0.7201 -0.3073
  633MOL0     C87282   5.647   6.893   7.921 -1.5572 -1.9957  0.5424
  633MOL0     C87283   5.550   6.833   7.992 -0.2142  0.9142  0.3980
  633MOL0     C87284   5.405   6.874   7.971  0.6067  0.5059  0.8321
  633MOL0     H87285   5.562   6.543   8.404 -0.6702  1.5817  2.1472
  633MOL0     H87286   5.454   6.439   8.599 -4.4318 -0.0465  1.1056
  633MOL0     H87287   5.263   6.416   8.711 -0.1013  0.4317 -1.1721
  633MOL0     H87288   5.358   6.273   8.774  0.3134 -1.6219 -1.8155
  633MOL0     H87289   5.071   6.240   8.719 -1.8968  2.6884  1.9252
  633MOL0     H87290   5.190   6.141   8.819 -0.3569  1.3172  2.6819
  633MOL0     H87291   5.070   6.421   8.882 -2.6749 -0.5782  3.1466
  633MOL0     H87292   5.017   6.275   8.941  0.0699  0.6902 -2.5537
  633MOL0     H87293   5.230   6.235   9.061 -1.4045 -0.4067  0.6977
  633MOL0     H87294   5.302   6.386   8.977 -1.1145  0.6819 -0.1522
  633MOL0     H87295   5.083   6.486   9.096 -3.3570 -3.7513 -0.8196
  633MOL0     H87296   5.236   6.459   9.194  0.6235 -1.6611  0.0697
  633MOL0     H87297   5.098   6.218   9.215  1.5100  0.4064  0.5056
  633MOL0     H87298   5.102   6.347   9.332  3.5529 -2.7921 -0.6285
  633MOL0     H87299   4.894   6.352   9.119 -1.9629  0.6657  1.5121
  633MOL0     H87300   4.894   6.428   9.279 -1.9346  0.3432 -0.3733
  633MOL0     H87301   4.900   6.130   9.230 -0.7208 -2.2383  0.5193
  633MOL0     H87302   4.881   6.227   9.385  1.6966  1.1772 -0.4546
  633MOL0     H87303   4.690   6.072   9.092  1.0697  1.4175  0.1266
  633MOL0     H87304   4.444   6.015   9.091 -0.1966 -0.1319  0.4491
  633MOL0     H87305   4.435   6.125   8.954 -2.7113  0.2579 -0.3509
  633MOL0     H87306   4.275   6.165   9.206 -0.3884 -1.3676  0.2405
  633MOL0     H87307   4.274   6.275   9.069  0.1674  0.0145  3.0766
  633MOL0     H87308   4.197   5.977   9.029  2.8148  1.6841  0.3464
  633MOL0     H87309   4.076   6.091   9.081 -0.6640  0.5692 -0.9743
  633MOL0     H87310   4.093   6.222   8.877 -2.5683  0.0182 -5.0727
  633MOL0     H87311   4.246   6.125   8.830 -1.1069  0.2684 -1.2271
  633MOL0     H87312   3.956   5.828   8.687  1.0047 -1.2117 -2.1309
  633MOL0     H87313   4.014   5.674   8.496  0.1432 -0.5668 -2.7626
  633MOL0     H87314   4.011   5.750   8.340 -1.8131 -1.5508 -0.3666
  633MOL0     H87315   3.860   5.726   8.438 -0.7878 -0.3782  3.4403
  633MOL0     H87316   4.080   6.284   8.066 -2.7081  1.5468 -0.3770
  633MOL0     H87317   4.037   6.318   7.818 -0.2722 -2.1873 -3.1242
  633MOL0     H87318   3.885   6.214   7.619  1.0383  1.0123  1.0152
  633MOL0     H87319   4.048   6.286   7.581  1.4728 -0.1358 -2.8719
  633MOL0     H87320   4.047   6.118   7.367 -0.6986  0.2645 -0.1323
  633MOL0     H87321   3.872   6.123   7.400  0.3271 -1.6862 -1.2078
  633MOL0     H87322   4.038   6.365   7.357 -3.0039  2.5648  3.4009
  633MOL0     H87323   3.866   6.354   7.385 -2.6889 -3.3864 -1.8340
  633MOL0     H87324   3.810   6.320   7.168  1.0614  2.8950  0.9772
  633MOL0     H87325   3.943   6.195   7.144 -3.2605 -0.2147 -1.2538
  633MOL0     H87326   3.990   6.490   7.140  3.3859  0.7362 -1.0668
  633MOL0     H87327   4.099   6.354   7.082  1.3363  1.0811  0.9177
  633MOL0     H87328   3.829   6.418   6.952  0.4907  2.8466 -3.0730
  633MOL0     H87329   3.940   6.293   6.915  0.4164 -0.8147  3.7030
  633MOL0     H87330   4.122   6.460   6.858 -0.8149 -0.5589  0.7992
  633MOL0     H87331   3.998   6.588   6.914 -0.6096 -1.1527  1.8762
  633MOL0     H87332   4.038   6.535   6.653  3.0374 -1.2382  0.8911
  633MOL0     H87333   3.879   6.580   6.739  2.6378  2.2231  0.5520
  633MOL0     H87334   4.059   5.893   7.767  0.5114  1.9523 -1.3903
  633MOL0     H87335   4.051   5.875   8.026  0.5982  1.2877  0.8934
  633MOL0     H87336   4.093   6.200   8.403 -4.5445  1.7083 -0.0263
  633MOL0     H87337   4.119   6.226   8.626  2.6009 -0.3866 -1.6447
  633MOL0     H87338   5.235   6.183   8.338  0.0156 -0.9448  3.1266
  633MOL0     H87339   5.321   6.317   8.153 -0.2241 -0.0895  0.0850
  633MOL0     H87340   5.746   6.597   8.137  0.0529  0.0535 -0.0493
  633MOL0     H87341   5.917   6.709   8.032 -0.4284 -0.7712 -1.3064
  633MOL0     H87342   6.007   6.934   8.062  0.3620  0.4495  1.4240
  633MOL0     H87343   6.086   6.932   7.910  0.2747 -0.4014  1.2328
  633MOL0     H87344   5.984   7.202   8.002  1.6145  0.3215  3.1983
  633MOL0     H87345   6.029   7.156   7.843  2.3184  0.1351  0.4076
  633MOL0     H87346   6.211   7.138   8.085  0.6873  1.3442 -0.1613
  633MOL0     H87347   6.243   7.071   7.920  1.9056  1.3928  0.3172
  633MOL0     H87348   6.229   7.308   7.840 -1.6018  1.1752  0.7627
  633MOL0     H87349   6.355   7.278   7.963 -0.7105 -2.1181  1.8054
  633MOL0     H87350   6.091   7.608   8.041  0.9729  1.3393  2.6254
  633MOL0     H87351   5.630   6.990   7.876  1.6574 -1.0527  1.1372
  633MOL0     H87352   5.389   6.907   7.869 -0.3108  0.9749  1.1258
  633MOL0     H87353   5.331   6.795   7.987  1.7910 -1.0224 -0.8188
  633MOL0     H87354   5.377   6.955   8.038 -1.8262 -1.8242  2.8683
  634MOL0     O87355   9.879   5.458   9.391  0.3110  0.3529  0.0093
  634MOL0     C87356   9.832   5.399   9.490  0.6050 -0.4298  0.1733
  634MOL0     O87357   9.804   5.263   9.492 -0.6867 -0.4297 -0.5376
  634MOL0     C87358   9.828   5.184   9.383 -0.3559  0.0827 -0.2171
  634MOL0     C87359   9.759   5.205   9.258 -1.3726 -0.7060 -0.3611
  634MOL0     C87360   9.776   5.122   9.152  0.5212 -0.4903 -0.4121
  634MOL0     C87361   9.855   5.015   9.157 -0.1036  1.2416 -1.2859
  634MOL0     O87362   9.868   4.918   9.062  0.0488 -0.4624  0.0334
  634MOL0     C87363   9.826   4.939   8.925  0.1408  0.7641  0.2176
  634MOL0     C87364   9.693   4.884   8.900  0.5861  0.5025  0.5942
  634MOL0     C87365   9.698   4.818   8.766 -0.6147  0.1665 -0.4265
  634MOL0     C87366   9.758   4.679   8.783  0.3417  0.4896  0.9231
  634MOL0     C87367   9.831   4.614   8.660  0.8756  0.5786 -0.4488
  634MOL0     C87368   9.734   4.580   8.539 -0.3646 -0.8732 -0.6230
  634MOL0     C87369   9.816   4.548   8.407 -0.3819  0.2362 -0.4962
  634MOL0     C87370   9.844   4.400   8.407 -0.5099  0.5655  0.1097
  634MOL0     N87371   9.944   4.363   8.305 -0.7334  0.3353  0.1928
  634MOL0     C87372   9.976   4.428   8.177 -0.7449  0.1022 -0.3987
  634MOL0     C87373  10.086   4.363   8.126 -0.2854  0.4555 -1.0265
  634MOL0     C87374  10.161   4.414   8.008  1.6164  0.3000 -0.1332
  634MOL0     C87375  10.263   4.528   8.046  0.2784  0.4776  0.1554
  634MOL0     C87376  10.210   4.650   8.130 -0.2984 -0.1604 -0.0159
  634MOL0     C87377  10.328   4.758   8.136  0.7093  0.2320  0.7056
  634MOL0     O87378  10.288   4.855   8.233  0.0134 -0.0958  0.6227
  634MOL0     C87379  10.318   4.987   8.228  0.5149  0.5462 -0.1996
  634MOL0     C87380  10.272   5.065   8.342  1.0593  0.5182  1.1993
  634MOL0     C87381  10.312   5.196   8.359 -0.1185 -0.7594 -0.1768
  634MOL0     C87382  10.244   5.277   8.473 -0.7492  0.2632 -0.0009
  634MOL0     C87383  10.406   5.260   8.271  0.3078 -0.1442  0.1229
  634MOL0     C87384  10.485   5.381   8.301  1.0082  0.4389 -0.7323
  634MOL0     O87385  10.512   5.399   8.434 -0.7424  0.8547  0.1550
  634MOL0     C87386  10.601   5.490   8.470  0.9875 -0.4814  0.3023
  634MOL0     C87387  10.565   5.632   8.459  0.1263 -0.7054 -0.3280
  634MOL0     C87388  10.648   5.730   8.520  0.4586 -0.0667  1.5526
  634MOL0     C87389  10.768   5.700   8.581 -0.0556 -0.9634 -0.3039
  634MOL0     O87390  10.865   5.784   8.625  0.3426 -0.4870  1.2600
  634MOL0     C87391  10.840   5.926   8.664 -0.1644  0.0173 -0.5532
  634MOL0     C87392  10.733   5.934   8.781  0.8247  0.4496 -0.0905
  634MOL0     C87393  10.712   6.070   8.848  0.6208  0.0289 -0.5313
  634MOL0     C87394  10.825   6.113   8.936 -0.4683 -0.4055 -0.0321
  634MOL0     C87395  10.782   6.229   9.020  0.3507  0.7070  0.3286
  634MOL0     C87396  10.713   6.188   9.150 -1.3904 -0.4155  1.0680
  634MOL0     C87397  10.726   6.303   9.256  0.7492  0.2236  0.0959
  634MOL0     C87398  10.605   6.277   9.352  0.3173  0.2138 -0.6039
  634MOL0    Cl87399  10.451   6.356   9.293  0.0828 -0.5549 -0.3896
  634MOL0     C87400  10.789   5.562   8.605  0.1498 -0.0822  0.2336
  634MOL0     C87401  10.713   5.459   8.548 -0.3677 -0.4927 -0.1151
  634MOL0     O87402  10.501   5.466   8.214 -0.2733  0.3056  0.5059
  634MOL0     C87403  10.425   5.186   8.156  0.0004  0.1457  0.6647
  634MOL0     C87404  10.389   5.054   8.133 -0.0211  0.0242  0.5761
  634MOL0     N87405  10.108   4.248   8.205 -0.3127 -0.4660  1.1697
  634MOL0     N87406  10.015   4.247   8.299 -0.3398  0.1723 -0.1835
  634MOL0     C87407   9.934   4.996   9.271 -0.1635  0.0986  0.7136
  634MOL0     C87408   9.922   5.082   9.378  0.6248 -0.2141 -0.4396
  634MOL0     C87409   9.829   5.463   9.620  0.6973 -0.6042 -0.1284
  634MOL0     C87410   9.717   5.428   9.709  0.3907 -0.6001  0.7727
  634MOL0     C87411   9.692   5.502   9.825 -0.1252  0.9200 -1.1826
  634MOL0     C87412   9.793   5.578   9.879 -0.2139  1.1444 -0.3500
  634MOL0     O87413   9.771   5.643  10.002  0.3908  0.0585  0.2369
  634MOL0     C87414   9.754   5.572  10.122 -0.0678  0.0598  0.9227
  634MOL0     C87415   9.887   5.561  10.197  0.1107  0.1304  0.1210
  634MOL0     C87416   9.946   5.691  10.232  0.3337  0.3533 -0.7500
  634MOL0     C87417  10.083   5.685  10.310  0.7886 -0.3657 -0.2766
  634MOL0     C87418  10.196   5.625  10.227  0.7841  0.3013 -0.2798
  634MOL0     C87419  10.281   5.593  10.148  0.5896  0.4403  0.1275
  634MOL0     C87420   9.909   5.591   9.801  0.2009 -0.9539 -0.4256
  634MOL0     C87421   9.931   5.538   9.678  0.1942 -0.1708  0.8155
  634MOL0     C87422  10.066   5.546   9.612 -0.1949  0.2758  0.0565
  634MOL0     H87423   9.693   5.291   9.256 -1.8251 -1.0288  0.2407
  634MOL0     H87424   9.721   5.144   9.061 -1.1920 -4.4026 -0.5649
  634MOL0     H87425   9.903   4.890   8.865 -1.0389  0.1580 -0.8495
  634MOL0     H87426   9.829   5.045   8.901 -3.1700  0.3629 -2.6550
  634MOL0     H87427   9.658   4.828   8.987  0.5768  0.8638  0.8233
  634MOL0     H87428   9.622   4.967   8.903  0.8719  0.7189  2.1790
  634MOL0     H87429   9.596   4.818   8.728 -0.7681 -0.5146 -0.0396
  634MOL0     H87430   9.756   4.868   8.688 -2.9989  2.4336 -0.9102
  634MOL0     H87431   9.833   4.673   8.862  1.8049 -2.5295 -0.5265
  634MOL0     H87432   9.682   4.607   8.815  1.1307 -1.7197 -1.7516
  634MOL0     H87433   9.872   4.516   8.689 -2.8101 -1.1513 -0.4543
  634MOL0     H87434   9.910   4.683   8.631 -0.6394  1.5975 -2.3453
  634MOL0     H87435   9.670   4.497   8.569 -2.3662  0.9556  0.4820
  634MOL0     H87436   9.672   4.668   8.519 -1.0897 -1.6236 -1.7673
  634MOL0     H87437   9.897   4.620   8.392 -2.8078  2.6989 -2.6270
  634MOL0     H87438   9.763   4.572   8.314  0.3676  0.3555 -0.9022
  634MOL0     H87439   9.883   4.360   8.501  2.1707  0.0754 -1.1267
  634MOL0     H87440   9.753   4.353   8.368  1.2884 -4.0265  0.8584
  634MOL0     H87441   9.934   4.525   8.153 -3.5767 -0.0081  3.1905
  634MOL0     H87442  10.088   4.450   7.934  0.8077 -1.4841 -0.2380
  634MOL0     H87443  10.223   4.338   7.960  0.8775  0.7472 -1.9093
  634MOL0     H87444  10.347   4.483   8.100 -1.6149 -0.2216  2.7185
  634MOL0     H87445  10.311   4.573   7.959 -0.5173  0.6054 -0.2258
  634MOL0     H87446  10.132   4.706   8.078  1.1258  2.2396  0.2757
  634MOL0     H87447  10.190   4.620   8.233 -2.6919  0.6033 -0.2013
  634MOL0     H87448  10.431   4.730   8.158  0.7861 -1.1786 -1.2343
  634MOL0     H87449  10.350   4.803   8.038  0.0259 -1.5203 -0.2973
  634MOL0     H87450  10.203   5.022   8.414  1.6696  0.6040  1.8414
  634MOL0     H87451  10.141   5.246   8.490 -0.5522  1.4506  4.9196
  634MOL0     H87452  10.236   5.381   8.443 -1.8611 -0.1409 -1.1802
  634MOL0     H87453  10.305   5.272   8.565  1.5285 -2.9820 -1.4862
  634MOL0     H87454  10.468   5.656   8.417 -0.2743 -2.7905 -0.6823
  634MOL0     H87455  10.615   5.828   8.488 -0.8870 -1.1206 -0.4685
  634MOL0     H87456  10.935   5.967   8.698 -0.0741  0.2686 -1.0943
  634MOL0     H87457  10.824   5.989   8.576  0.2056  3.9904  1.9756
  634MOL0     H87458  10.638   5.903   8.736  0.9426  1.0480 -0.7611
  634MOL0     H87459  10.745   5.861   8.862 -2.0418 -1.3872 -1.1547
  634MOL0     H87460  10.628   6.058   8.917  2.4006 -3.6215  1.2571
  634MOL0     H87461  10.703   6.142   8.766 -1.3521  0.0927 -0.2911
  634MOL0     H87462  10.907   6.153   8.875 -1.7884 -0.2176 -1.7621
  634MOL0     H87463  10.869   6.026   8.984  1.1010  0.7723  0.7420
  634MOL0     H87464  10.877   6.273   9.051  0.7925  0.9061 -1.2754
  634MOL0     H87465  10.740   6.307   8.956  0.0967 -0.7965 -1.3966
  634MOL0     H87466  10.750   6.094   9.191  1.5078 -0.4201 -1.2023
  634MOL0     H87467  10.609   6.176   9.119 -1.1647  0.4515 -0.0862
  634MOL0     H87468  10.723   6.399   9.205 -1.7504 -0.7061 -1.6889
  634MOL0     H87469  10.819   6.311   9.314  0.0945  2.0364  0.9538
  634MOL0     H87470  10.629   6.332   9.444 -2.5160 -0.8734  0.9198
  634MOL0     H87471  10.582   6.173   9.376  1.5276 -0.6728 -2.9731
  634MOL0     H87472  10.868   5.539   8.676 -1.0772 -0.0214  1.6765
  634MOL0     H87473  10.747   5.356   8.548  3.7717  0.6803 -1.1958
  634MOL0     H87474  10.483   5.216   8.069  3.6103 -0.7768  2.5540
  634MOL0     H87475  10.423   5.000   8.045  2.1496  0.1319  1.2779
  634MOL0     H87476  10.015   4.925   9.277  1.7335  2.2096  1.3760
  634MOL0     H87477   9.977   5.050   9.466  0.0557  1.9347  0.7889
  634MOL0     H87478   9.640   5.355   9.685  0.7841 -1.0480  0.8648
  634MOL0     H87479   9.598   5.487   9.877  1.0556  0.9117  1.0664
  634MOL0     H87480   9.684   5.624  10.189 -2.1143 -1.7209  0.2773
  634MOL0     H87481   9.721   5.468  10.118  0.4920 -0.1634  1.7590
  634MOL0     H87482   9.955   5.506  10.132  1.4169  0.4333  1.1983
  634MOL0     H87483   9.877   5.498  10.286  0.6001 -3.9714 -2.4510
  634MOL0     H87484   9.960   5.750  10.141  2.2121 -1.5528 -1.7884
  634MOL0     H87485   9.873   5.740  10.296 -0.3083 -2.7946  1.1110
  634MOL0     H87486  10.061   5.638  10.406 -3.1541 -1.1702 -1.4191
  634MOL0     H87487  10.121   5.787  10.325 -0.6426 -0.0078  1.1279
  634MOL0     H87488  10.363   5.564  10.086  0.4811 -0.6079  0.4457
  634MOL0     H87489   9.983   5.667   9.825 -2.4307  2.3096 -1.9254
  634MOL0     H87490  10.146   5.567   9.684  1.5989 -0.8331 -1.5152
  634MOL0     H87491  10.089   5.447   9.572 -0.2337 -0.1531  1.0552
  634MOL0     H87492  10.053   5.621   9.534  0.6989  0.0057 -0.3681
  635MOL0     O87493   5.648   1.605   8.921 -0.8085 -0.8293  0.7256
  635MOL0     C87494   5.645   1.593   9.048  0.2758  0.1127 -0.8984
  635MOL0     O87495   5.635   1.694   9.146  0.2513 -0.4540  0.5866
  635MOL0     C87496   5.607   1.826   9.109 -0.1911  0.4096  0.6682
  635MOL0     C87497   5.650   1.919   9.203 -1.2165 -0.9139  0.3708
  635MOL0     C87498   5.617   2.054   9.193  0.2339  0.3539 -0.3711
  635MOL0     C87499   5.549   2.101   9.079 -0.4037  0.0893  0.1671
  635MOL0     O87500   5.537   2.239   9.075 -0.3263  0.4638  0.5533
  635MOL0     C87501   5.476   2.299   8.966 -0.1110 -0.0984  0.4942
  635MOL0     C87502   5.470   2.439   9.010 -0.3393  0.0024 -0.3087
  635MOL0     C87503   5.364   2.469   9.119  0.0979 -0.0273  0.7577
  635MOL0     C87504   5.363   2.624   9.138 -0.1262  0.7040 -0.9598
  635MOL0     C87505   5.263   2.686   9.232  0.3822  0.0088  0.3998
  635MOL0     C87506   5.113   2.682   9.201  0.1270  1.0056 -0.2789
  635MOL0     C87507   5.041   2.804   9.138  0.1308  0.7326  0.5188
  635MOL0     C87508   5.096   2.815   8.993 -0.3967 -0.9207 -0.1914
  635MOL0     N87509   5.024   2.923   8.936  0.2139  0.6550 -0.2466
  635MOL0     C87510   5.047   3.058   8.953  0.0872  0.0445 -0.5970
  635MOL0     C87511   4.946   3.116   8.880  0.7101 -0.1681  0.5128
  635MOL0     C87512   4.921   3.268   8.867 -0.7089  0.6779  0.7029
  635MOL0     C87513   4.790   3.297   8.794  0.4978 -0.2567 -0.0600
  635MOL0     C87514   4.728   3.424   8.826  0.0171  0.1417 -0.4126
  635MOL0     C87515   4.797   3.558   8.802  0.0144  0.6027  0.9860
  635MOL0     O87516   4.797   3.574   8.664  0.8727 -0.6583 -0.6407
  635MOL0     C87517   4.885   3.656   8.600  0.0773 -0.3208 -0.2580
  635MOL0     C87518   4.913   3.604   8.478 -0.4048 -0.3696 -0.8339
  635MOL0     C87519   5.002   3.664   8.396 -0.4519  0.3139 -0.1655
  635MOL0     C87520   5.033   3.592   8.269 -0.5792  0.7739  0.0643
  635MOL0     C87521   5.068   3.782   8.437  0.2865  1.5391  0.3766
  635MOL0     C87522   5.185   3.839   8.373  0.6568 -0.7598  0.1774
  635MOL0     O87523   5.230   3.788   8.255 -0.0658 -0.4466 -0.2288
  635MOL0     C87524   5.335   3.836   8.175  0.1839  0.1988 -1.1113
  635MOL0     C87525   5.463   3.869   8.229  0.0852  0.5562 -1.0510
  635MOL0     C87526   5.566   3.926   8.150  0.5847  0.6507 -0.6997
  635MOL0     C87527   5.547   3.941   8.016  0.5889 -0.1847 -0.2814
  635MOL0     O87528   5.633   4.004   7.930 -0.5598 -0.3850  0.6929
  635MOL0     C87529   5.757   4.057   7.980 -0.2938  0.6630 -0.3473
  635MOL0     C87530   5.735   4.194   8.046  0.5922 -0.4316 -0.2841
  635MOL0     C87531   5.698   4.298   7.936  0.3169 -0.6550  0.8298
  635MOL0     C87532   5.687   4.436   8.003 -0.5589 -0.3166 -0.1050
  635MOL0     C87533   5.826   4.503   8.029 -0.4162 -0.2895  0.4492
  635MOL0     C87534   5.809   4.639   8.101 -0.0396  0.1109 -0.0316
  635MOL0     C87535   5.748   4.758   8.027 -0.8324 -0.5282  0.5343
  635MOL0     C87536   5.745   4.884   8.122  0.4800 -0.3587  0.6023
  635MOL0    Cl87537   5.653   5.017   8.055 -0.1183 -0.5453 -0.1714
  635MOL0     C87538   5.424   3.908   7.964  0.4532  0.7286  0.3688
  635MOL0     C87539   5.316   3.853   8.037 -0.3267 -0.1569  0.3484
  635MOL0     O87540   5.227   3.945   8.419 -0.3580  0.4374 -0.3773
  635MOL0     C87541   5.030   3.835   8.565 -0.3358 -0.1408  0.1563
  635MOL0     C87542   4.933   3.777   8.642  0.0145 -0.1290 -0.0285
  635MOL0     N87543   4.878   3.017   8.811  0.5247  0.5064  0.3957
  635MOL0     N87544   4.920   2.900   8.850 -0.8655  0.0491  0.5009
  635MOL0     C87545   5.524   2.003   8.980  0.2564  0.3517  0.3442
  635MOL0     C87546   5.541   1.861   8.993  0.1396 -0.4041  0.4684
  635MOL0     C87547   5.640   1.455   9.107  0.8266 -0.0204 -0.1350
  635MOL0     C87548   5.743   1.362   9.072  0.7618  0.5380 -0.1514
  635MOL0     C87549   5.733   1.227   9.094 -0.0635 -0.2786 -1.3283
  635MOL0     C87550   5.620   1.168   9.161 -1.0529 -0.3277 -0.8312
  635MOL0     O87551   5.630   1.029   9.183  0.1190 -0.2015 -0.8201
  635MOL0     C87552   5.553   0.972   9.291  0.0761  0.3154 -0.6171
  635MOL0     C87553   5.466   0.868   9.226 -0.1390 -0.1737  0.7997
  635MOL0     C87554   5.332   0.928   9.178  0.0560  0.2164 -0.2366
  635MOL0     C87555   5.268   0.864   9.057 -0.4058 -0.7397  1.0771
  635MOL0     C87556   5.206   0.731   9.085  0.5315  0.9276 -1.4077
  635MOL0     C87557   5.156   0.620   9.110 -0.1033 -0.9355 -0.0924
  635MOL0     C87558   5.510   1.261   9.197 -0.7361  0.3244 -0.5512
  635MOL0     C87559   5.522   1.398   9.170  0.5223 -1.1425  0.6509
  635MOL0     C87560   5.392   1.476   9.212  0.2474 -1.0434 -0.1127
  635MOL0     H87561   5.724   1.889   9.277  0.2227 -0.2454 -0.7565
  635MOL0     H87562   5.651   2.124   9.269  1.0075 -0.8739  0.4449
  635MOL0     H87563   5.379   2.255   8.940  0.5497 -0.2247 -2.0230
  635MOL0     H87564   5.534   2.289   8.874 -1.7933  1.5527 -0.8335
  635MOL0     H87565   5.571   2.462   9.044 -0.3602  0.2584 -0.4153
  635MOL0     H87566   5.434   2.490   8.920 -0.7484 -2.0035 -1.3326
  635MOL0     H87567   5.261   2.461   9.085  0.8467  0.9018 -1.9596
  635MOL0     H87568   5.378   2.406   9.208 -2.3386 -1.4380  0.2310
  635MOL0     H87569   5.462   2.650   9.176 -1.3597  1.8807  1.6820
  635MOL0     H87570   5.359   2.671   9.039  3.5895  0.1740 -1.4850
  635MOL0     H87571   5.294   2.789   9.251  0.8948  0.1094 -0.8702
  635MOL0     H87572   5.285   2.628   9.322 -2.5552 -0.0477  1.1720
  635MOL0     H87573   5.081   2.588   9.154 -1.9180  1.8242 -0.6270
  635MOL0     H87574   5.069   2.673   9.301  2.2180 -1.4699  0.5390
  635MOL0     H87575   5.055   2.897   9.193  0.1119  0.1968  1.4612
  635MOL0     H87576   4.936   2.776   9.146  0.2111  0.6527  1.4134
  635MOL0     H87577   5.202   2.823   8.968 -0.4002 -3.8563 -1.5208
  635MOL0     H87578   5.070   2.727   8.933 -0.1542  0.5762 -2.6313
  635MOL0     H87579   5.123   3.110   9.011  3.0269 -3.7024 -0.7655
  635MOL0     H87580   5.002   3.311   8.807 -1.0005  1.7453  1.0406
  635MOL0     H87581   4.933   3.305   8.969  1.2917 -1.1064  1.1784
  635MOL0     H87582   4.815   3.301   8.688  2.3608  1.1322  0.3754
  635MOL0     H87583   4.717   3.218   8.818  1.5285 -0.4202  2.9459
  635MOL0     H87584   4.625   3.427   8.792 -0.7204 -1.1986  1.5240
  635MOL0     H87585   4.720   3.418   8.935 -2.5072  3.0493 -0.3253
  635MOL0     H87586   4.733   3.637   8.843 -2.9514 -0.8016 -0.5936
  635MOL0     H87587   4.897   3.560   8.847  1.4255 -1.9561 -1.7170
  635MOL0     H87588   4.876   3.505   8.452 -1.0032 -0.2998 -0.2491
  635MOL0     H87589   5.054   3.647   8.177 -0.8699 -1.4981 -1.4526
  635MOL0     H87590   4.953   3.521   8.243  0.4939 -0.5757  0.3458
  635MOL0     H87591   5.125   3.539   8.294  0.7411  3.1111  0.3949
  635MOL0     H87592   5.488   3.866   8.334  0.6341 -2.1304 -1.1910
  635MOL0     H87593   5.654   3.963   8.202  0.2165  3.1489 -1.7189
  635MOL0     H87594   5.796   3.984   8.051 -0.2533 -0.8028 -1.8062
  635MOL0     H87595   5.841   4.061   7.909  0.9175 -0.2902  0.9595
  635MOL0     H87596   5.660   4.183   8.125 -0.0097  1.9274 -0.4402
  635MOL0     H87597   5.835   4.222   8.081  0.2964 -1.8861  1.9547
  635MOL0     H87598   5.602   4.260   7.900  0.1237  1.1164 -0.6673
  635MOL0     H87599   5.769   4.298   7.853  1.0214  2.2277  1.3314
  635MOL0     H87600   5.630   4.425   8.096 -1.6515  1.1211 -0.5659
  635MOL0     H87601   5.624   4.505   7.947 -1.6628 -0.8451  0.4368
  635MOL0     H87602   5.892   4.434   8.082  0.1354 -2.7373 -3.0681
  635MOL0     H87603   5.877   4.506   7.931 -1.0841 -4.4492 -0.2006
  635MOL0     H87604   5.904   4.674   8.141 -1.9886  2.9861  2.5578
  635MOL0     H87605   5.738   4.625   8.184 -0.1946 -0.0151 -0.1850
  635MOL0     H87606   5.645   4.734   7.999  0.1012 -2.8059 -1.2402
  635MOL0     H87607   5.793   4.781   7.931 -2.9949 -1.2353 -0.7236
  635MOL0     H87608   5.842   4.924   8.150  0.2422  1.3291 -0.7902
  635MOL0     H87609   5.687   4.842   8.205  1.8524 -2.2204  0.6803
  635MOL0     H87610   5.410   3.927   7.858  1.7602 -2.4554 -0.5054
  635MOL0     H87611   5.217   3.848   7.993 -1.1073  0.8190  1.8927
  635MOL0     H87612   5.072   3.931   8.593 -2.7918  1.0811 -0.1067
  635MOL0     H87613   4.912   3.818   8.740  0.8684 -0.8007  0.4510
  635MOL0     H87614   5.484   2.039   8.885  2.7461  1.9012 -0.2468
  635MOL0     H87615   5.512   1.792   8.915  0.9330  0.3492 -0.5332
  635MOL0     H87616   5.837   1.398   9.031  0.8243  0.4582 -0.0794
  635MOL0     H87617   5.810   1.155   9.069  0.3702 -0.1557 -0.4129
  635MOL0     H87618   5.619   0.915   9.358 -0.3453 -1.1749 -1.4108
  635MOL0     H87619   5.504   1.050   9.348  1.4961  0.2488  0.7588
  635MOL0     H87620   5.442   0.788   9.297  0.0970 -0.5459  0.4713
  635MOL0     H87621   5.520   0.831   9.138 -2.6621 -0.3585 -0.7754
  635MOL0     H87622   5.262   0.924   9.262  0.0063 -1.5951 -0.3095
  635MOL0     H87623   5.342   1.032   9.147  2.0551 -0.4385 -2.0246
  635MOL0     H87624   5.344   0.841   8.983 -0.0839 -0.3706  1.2889
  635MOL0     H87625   5.200   0.932   9.005  2.7478  0.4567 -1.8770
  635MOL0     H87626   5.114   0.524   9.130  1.1370 -1.3088  0.8379
  635MOL0     H87627   5.418   1.229   9.244 -0.3937 -1.7574 -1.1826
  635MOL0     H87628   5.417   1.580   9.187  1.0500 -0.9896  0.8791
  635MOL0     H87629   5.315   1.456   9.137  0.1759  1.8100 -0.9262
  635MOL0     H87630   5.368   1.461   9.317  3.5811 -0.7509  0.8307
  636MOL0     O87631  10.653   5.818   7.397 -0.3011 -0.4529 -0.6360
  636MOL0     C87632  10.685   5.879   7.504  0.3331  0.0244 -0.1085
  636MOL0     O87633  10.769   5.830   7.604  1.0753 -0.0276 -0.9073
  636MOL0     C87634  10.802   5.695   7.604  0.3654  0.1102 -0.5446
  636MOL0     C87635  10.808   5.639   7.727  0.1421  0.8391  0.2580
  636MOL0     C87636  10.827   5.505   7.746  0.2945 -1.6573 -0.0324
  636MOL0     C87637  10.863   5.429   7.641  0.6542  0.9290  0.6817
  636MOL0     O87638  10.884   5.297   7.654  0.1946 -0.0886  0.7577
  636MOL0     C87639  10.835   5.227   7.767 -0.5853 -0.4203 -0.3886
  636MOL0     C87640  10.872   5.075   7.753 -0.5118  0.9192  0.4096
  636MOL0     C87641  10.793   4.999   7.853 -0.2444  0.3346 -0.5761
  636MOL0     C87642  10.823   4.848   7.853  0.2264  0.6231  0.3645
  636MOL0     C87643  10.772   4.789   7.991  0.5001 -0.0650 -0.3593
  636MOL0     C87644  10.812   4.645   7.986 -0.0666 -0.1266  0.3391
  636MOL0     C87645  10.802   4.573   8.120 -0.4976 -0.5797 -0.8111
  636MOL0     C87646  10.739   4.429   8.112  0.3729 -0.2336  0.6465
  636MOL0     N87647  10.693   4.388   8.246 -0.3366 -1.3307 -0.1944
  636MOL0     C87648  10.579   4.328   8.278  0.1738 -1.0204 -0.9376
  636MOL0     C87649  10.574   4.321   8.416  0.6379 -0.3537 -0.1122
  636MOL0     C87650  10.469   4.269   8.510  0.2169  0.5869  0.4661
  636MOL0     C87651  10.332   4.329   8.483 -0.4788  0.5307 -0.2291
  636MOL0     C87652  10.319   4.477   8.534  0.1472  0.3871 -1.0195
  636MOL0     C87653  10.175   4.540   8.520  0.1910 -0.3027 -0.7096
  636MOL0     O87654  10.185   4.686   8.526  0.3983  0.3075 -0.8531
  636MOL0     C87655  10.231   4.731   8.650  0.3921 -0.5682 -0.1329
  636MOL0     C87656  10.273   4.859   8.649  0.2666  0.1948  1.2966
  636MOL0     C87657  10.312   4.927   8.765 -0.7974  0.4838  1.2491
  636MOL0     C87658  10.382   5.060   8.737  0.0631 -0.0960 -0.4843
  636MOL0     C87659  10.311   4.866   8.889  0.5519 -0.3160  0.0605
  636MOL0     C87660  10.343   4.936   9.014 -0.5329  0.4738  0.7704
  636MOL0     O87661  10.296   5.066   9.024  0.0609  0.1053  0.3019
  636MOL0     C87662  10.308   5.148   9.131  0.5049  0.2805 -1.2155
  636MOL0     C87663  10.427   5.173   9.187  0.2014 -0.4352  0.1509
  636MOL0     C87664  10.431   5.265   9.295  0.3006 -0.0260  0.5828
  636MOL0     C87665  10.320   5.334   9.348  0.3261  0.0274 -0.0334
  636MOL0     O87666  10.314   5.419   9.456 -0.1630  0.1610  0.1950
  636MOL0     C87667  10.430   5.499   9.470 -0.4624 -0.0206  0.5928
  636MOL0     C87668  10.510   5.457   9.588 -0.8244 -0.8036  0.3199
  636MOL0     C87669  10.634   5.548   9.612  0.4565  0.1004  0.6839
  636MOL0     C87670  10.692   5.533   9.759  0.1966  0.1531  0.3716
  636MOL0     C87671  10.823   5.598   9.797  0.7902  1.6467  0.9374
  636MOL0     C87672  10.821   5.747   9.808  0.3531 -0.1013 -0.5702
  636MOL0     C87673  10.967   5.791   9.840  0.3926  0.7681  0.7327
  636MOL0     C87674  10.989   5.932   9.886  0.3997 -0.1739  1.0962
  636MOL0    Cl87675  11.164   5.965   9.902 -0.0787 -0.2444  0.1176
  636MOL0     C87676  10.197   5.289   9.291  0.0131  0.4050  0.9806
  636MOL0     C87677  10.192   5.205   9.179 -0.1917 -0.2682  0.2741
  636MOL0     O87678  10.420   4.891   9.096  0.1646 -0.2023 -0.4649
  636MOL0     C87679  10.243   4.734   8.899 -0.1351 -0.7206  0.4697
  636MOL0     C87680  10.228   4.666   8.776  0.0269 -0.4605 -0.0110
  636MOL0     N87681  10.692   4.381   8.460  0.3223  0.2457  0.4775
  636MOL0     N87682  10.757   4.421   8.365  0.1292  0.1583 -0.2701
  636MOL0     C87683  10.888   5.487   7.517 -0.7710 -0.2150  0.4823
  636MOL0     C87684  10.850   5.618   7.491 -0.0898  0.5247  0.1298
  636MOL0     C87685  10.614   6.009   7.529 -0.3786  0.4165 -0.0300
  636MOL0     C87686  10.635   6.076   7.650  0.0106 -0.1523  0.4675
  636MOL0     C87687  10.594   6.208   7.672 -0.1613  0.5655 -0.2789
  636MOL0     C87688  10.504   6.266   7.581 -0.7328 -0.0452  0.7199
  636MOL0     O87689  10.456   6.394   7.584 -0.4075 -0.4781 -0.3655
  636MOL0     C87690  10.563   6.489   7.606  0.1201 -1.2428  0.9306
  636MOL0     C87691  10.592   6.571   7.476  0.3053 -0.4463 -0.1430
  636MOL0     C87692  10.688   6.685   7.520 -0.2260  0.4169  0.7293
  636MOL0     C87693  10.592   6.794   7.568 -0.5221  0.3483 -0.2787
  636MOL0     C87694  10.662   6.920   7.593  0.1486  0.0389  0.8327
  636MOL0     C87695  10.718   7.024   7.621 -0.6721 -0.4698  0.2531
  636MOL0     C87696  10.476   6.195   7.458  0.5186 -0.6007 -0.0174
  636MOL0     C87697  10.528   6.069   7.437  1.3781 -0.7481  0.6537
  636MOL0     C87698  10.468   6.008   7.315  0.1435 -0.6890 -0.6329
  636MOL0     H87699  10.800   5.703   7.814  1.6680  3.8677 -1.6718
  636MOL0     H87700  10.819   5.476   7.850 -1.2699  0.7628  0.6012
  636MOL0     H87701  10.726   5.233   7.765 -0.4838  1.8652 -1.8576
  636MOL0     H87702  10.875   5.268   7.861  1.3377 -1.7368 -0.5672
  636MOL0     H87703  10.821   5.055   7.658 -0.3107  3.9891 -0.4723
  636MOL0     H87704  10.978   5.054   7.767 -0.8999  0.0512  2.3470
  636MOL0     H87705  10.816   5.036   7.953  2.0494  4.9291 -2.5078
  636MOL0     H87706  10.689   5.014   7.821 -1.2130 -0.9756  1.7673
  636MOL0     H87707  10.784   4.793   7.767  0.6890  0.4096  0.2925
  636MOL0     H87708  10.931   4.837   7.847  0.1437 -0.6080  0.9291
  636MOL0     H87709  10.670   4.818   8.016  0.9977  0.8987  0.6281
  636MOL0     H87710  10.823   4.831   8.078  2.3934  1.6114 -2.1809
  636MOL0     H87711  10.748   4.585   7.920 -0.7090 -0.6858  1.4327
  636MOL0     H87712  10.915   4.623   7.957  0.2079 -2.0836  2.5075
  636MOL0     H87713  10.731   4.622   8.187  1.3605 -2.0917  2.4698
  636MOL0     H87714  10.897   4.572   8.174  1.4170 -1.0637 -3.9351
  636MOL0     H87715  10.648   4.421   8.052  0.0277 -0.3095  1.1754
  636MOL0     H87716  10.813   4.361   8.068  1.8917 -1.3032  4.4623
  636MOL0     H87717  10.503   4.298   8.207 -3.0962  2.0356  0.9527
  636MOL0     H87718  10.502   4.297   8.610 -0.5525  1.3354  0.5180
  636MOL0     H87719  10.481   4.161   8.498 -0.2471  0.2912  2.3588
  636MOL0     H87720  10.319   4.347   8.376 -0.1442  2.9140  0.0851
  636MOL0     H87721  10.256   4.265   8.530 -0.2500  0.8945  0.6422
  636MOL0     H87722  10.352   4.467   8.638 -2.7933  2.2574  0.2221
  636MOL0     H87723  10.387   4.540   8.477  0.4221  1.6478  0.6519
  636MOL0     H87724  10.141   4.509   8.421  2.7931 -2.8275 -0.9495
  636MOL0     H87725  10.102   4.485   8.580 -0.3139 -1.4407 -2.3002
  636MOL0     H87726  10.281   4.901   8.549 -1.6775 -1.5243  0.3340
  636MOL0     H87727  10.438   5.057   8.644  0.1651  2.6360 -0.5861
  636MOL0     H87728  10.460   5.099   8.803 -2.9036  3.2548  1.4145
  636MOL0     H87729  10.303   5.136   8.730  0.1842 -0.0922 -2.3280
  636MOL0     H87730  10.517   5.123   9.152  0.3779 -0.4956  0.6855
  636MOL0     H87731  10.525   5.286   9.346 -0.3729  4.5219  0.3970
  636MOL0     H87732  10.485   5.511   9.376 -1.0390 -3.2512 -0.2903
  636MOL0     H87733  10.393   5.595   9.508  0.1319 -0.1088  1.4350
  636MOL0     H87734  10.450   5.460   9.680  0.0760  3.3291  0.9554
  636MOL0     H87735  10.559   5.362   9.567  3.0501  1.1584 -0.4141
  636MOL0     H87736  10.596   5.650   9.597 -1.2346 -0.8132 -2.1877
  636MOL0     H87737  10.725   5.538   9.553 -0.1999 -1.8727 -0.0838
  636MOL0     H87738  10.704   5.425   9.773  1.4909  0.1853 -0.3736
  636MOL0     H87739  10.617   5.570   9.830 -0.3193  0.7095 -0.4431
  636MOL0     H87740  10.835   5.551   9.894 -1.8800 -0.1633  0.5017
  636MOL0     H87741  10.909   5.566   9.738 -0.9863 -2.8325  0.3930
  636MOL0     H87742  10.754   5.767   9.893  3.3231 -2.7849  2.7233
  636MOL0     H87743  10.797   5.795   9.713  0.8446  1.3631  0.0161
  636MOL0     H87744  11.014   5.776   9.742  0.7242  1.0813  0.8393
  636MOL0     H87745  11.017   5.717   9.902  2.8954 -1.9917 -3.9676
  636MOL0     H87746  10.946   5.951   9.985  0.4523 -0.0213  1.0898
  636MOL0     H87747  10.940   5.997   9.814 -2.4959 -3.4061 -0.1316
  636MOL0     H87748  10.101   5.312   9.336  0.5445 -1.7339  3.4581
  636MOL0     H87749  10.093   5.180   9.142 -0.4877 -1.8795  1.9704
  636MOL0     H87750  10.213   4.689   8.993 -1.6883  0.0124  0.3430
  636MOL0     H87751  10.183   4.567   8.771 -1.0368  0.0221 -0.3618
  636MOL0     H87752  10.921   5.430   7.430 -3.0674 -0.0683 -0.5692
  636MOL0     H87753  10.862   5.662   7.393  4.1257 -0.9905 -0.2436
  636MOL0     H87754  10.702   6.039   7.726 -0.1545 -2.2368 -0.3389
  636MOL0     H87755  10.615   6.261   7.764 -2.6073 -1.3412  1.5194
  636MOL0     H87756  10.519   6.555   7.681  0.7869 -0.6443  0.8030
  636MOL0     H87757  10.655   6.446   7.647  0.6255 -0.6729  0.4219
  636MOL0     H87758  10.498   6.620   7.449  1.7273  0.8791 -3.2901
  636MOL0     H87759  10.644   6.513   7.399  1.0206  0.0760 -0.0678
  636MOL0     H87760  10.753   6.646   7.599  0.2806 -0.1653  0.0392
  636MOL0     H87761  10.750   6.727   7.440 -0.5239 -1.0173 -0.3023
  636MOL0     H87762  10.555   6.772   7.669  3.5397  1.5438  1.6774
  636MOL0     H87763  10.522   6.817   7.487  2.5405  1.3790 -2.8435
  636MOL0     H87764  10.784   7.107   7.634 -2.6502  1.0368  1.4106
  636MOL0     H87765  10.415   6.243   7.381  3.1675 -0.6964 -2.3511
  636MOL0     H87766  10.370   6.047   7.288  1.3618  2.7168 -0.6146
  636MOL0     H87767  10.548   6.031   7.244  4.8255 -2.4977  3.4479
  636MOL0     H87768  10.451   5.902   7.335 -0.1643 -0.2932  1.3818
  637MOL0     O87769   2.982   7.431   4.809  0.5636  0.5098 -0.4872
  637MOL0     C87770   2.995   7.503   4.712 -0.2337  0.4710 -0.2235
  637MOL0     O87771   3.090   7.601   4.709 -0.1027 -0.2612  0.5615
  637MOL0     C87772   3.175   7.602   4.816 -0.2324 -0.3823  1.2477
  637MOL0     C87773   3.174   7.690   4.932 -0.4968  0.2989 -0.1884
  637MOL0     C87774   3.283   7.693   5.022 -0.0093 -0.0531  0.1673
  637MOL0     C87775   3.395   7.612   5.005 -0.5523 -0.6707 -0.0351
  637MOL0     O87776   3.499   7.634   5.092 -0.1702 -0.0786  0.0380
  637MOL0     C87777   3.604   7.535   5.107  0.6792 -0.2703  0.1304
  637MOL0     C87778   3.708   7.560   5.219 -1.3471  0.4206 -0.7741
  637MOL0     C87779   3.805   7.660   5.171  0.3029  0.1255 -0.5656
  637MOL0     C87780   3.922   7.679   5.274  1.0202  0.8283  0.1996
  637MOL0     C87781   3.933   7.808   5.354 -1.1351  0.8435  0.2730
  637MOL0     C87782   4.043   7.801   5.466  0.7479  0.1365  0.5854
  637MOL0     C87783   4.165   7.708   5.441 -0.0415  0.2234  0.4514
  637MOL0     C87784   4.255   7.759   5.333 -0.4240 -0.2710  0.0132
  637MOL0     N87785   4.362   7.665   5.292  0.3587 -1.0091 -0.6410
  637MOL0     C87786   4.361   7.528   5.296 -0.0526  0.4115  0.7780
  637MOL0     C87787   4.489   7.496   5.250 -0.0272 -0.2929  0.1586
  637MOL0     C87788   4.549   7.360   5.210 -0.3483 -0.4906 -0.4464
  637MOL0     C87789   4.616   7.293   5.336  0.0775  0.5975  1.1201
  637MOL0     C87790   4.700   7.175   5.292  0.5545 -0.7598 -0.9472
  637MOL0     C87791   4.733   7.076   5.404  1.0635  0.0328  0.7544
  637MOL0     O87792   4.791   6.965   5.342 -0.1908  0.3424  0.4476
  637MOL0     C87793   4.705   6.859   5.315  0.4543  0.3067 -0.1319
  637MOL0     C87794   4.751   6.732   5.293  0.1010 -0.6218 -0.3937
  637MOL0     C87795   4.671   6.625   5.271  0.5007  0.5402 -0.2745
  637MOL0     C87796   4.720   6.485   5.263 -0.3323  1.2918  0.9686
  637MOL0     C87797   4.534   6.649   5.263  0.0212  0.4247  0.3121
  637MOL0     C87798   4.442   6.547   5.227  0.0570 -0.3782 -0.0475
  637MOL0     O87799   4.475   6.468   5.120  0.1220  0.7343 -0.2279
  637MOL0     C87800   4.389   6.361   5.104  0.4956 -0.7255  0.1654
  637MOL0     C87801   4.260   6.393   5.046 -0.7538  0.5817 -0.1684
  637MOL0     C87802   4.179   6.288   5.001  0.1210 -0.3002 -0.7188
  637MOL0     C87803   4.210   6.161   5.037  0.5359  0.0532 -0.0161
  637MOL0     O87804   4.119   6.052   5.014 -0.2230 -0.2634 -0.0385
  637MOL0     C87805   4.082   6.045   4.873  0.0745  0.4709 -0.1014
  637MOL0     C87806   4.166   5.955   4.798  0.8317 -0.0325  0.7831
  637MOL0     C87807   4.156   5.803   4.842  0.2060 -0.9648  0.1306
  637MOL0     C87808   4.232   5.711   4.748  0.9818 -0.5797  0.6013
  637MOL0     C87809   4.264   5.573   4.813 -0.3762 -0.1225 -0.2592
  637MOL0     C87810   4.142   5.480   4.803  0.0162 -0.3329  0.5959
  637MOL0     C87811   4.188   5.341   4.824  0.2408  0.3065  0.3902
  637MOL0     C87812   4.092   5.252   4.895 -0.3561  0.0961  0.9077
  637MOL0    Cl87813   4.164   5.090   4.892 -0.0715 -0.3652  0.1932
  637MOL0     C87814   4.333   6.126   5.095  0.5335 -0.1112  0.1093
  637MOL0     C87815   4.423   6.229   5.121  0.2934  0.2017 -0.6919
  637MOL0     O87816   4.332   6.538   5.280  0.4542 -0.5334 -0.4916
  637MOL0     C87817   4.477   6.773   5.293 -0.7761  1.0574  0.9138
  637MOL0     C87818   4.568   6.872   5.299 -0.3884  0.4178 -0.8908
  637MOL0     N87819   4.568   7.608   5.238  0.4300 -0.2638  0.6834
  637MOL0     N87820   4.488   7.712   5.265  0.4824 -0.1944  0.3025
  637MOL0     C87821   3.388   7.511   4.908  0.1749 -0.9054 -0.2244
  637MOL0     C87822   3.286   7.512   4.810 -0.1487 -0.9519  0.6713
  637MOL0     C87823   2.917   7.489   4.585 -0.1932  0.5132  0.0330
  637MOL0     C87824   2.949   7.585   4.487  0.3636  0.6060  0.4386
  637MOL0     C87825   2.872   7.595   4.369  0.3027  0.7998  0.6692
  637MOL0     C87826   2.753   7.516   4.351 -0.2955 -0.0038 -0.2034
  637MOL0     O87827   2.672   7.513   4.239  0.3504 -0.3070 -0.4173
  637MOL0     C87828   2.682   7.636   4.150 -0.1510  0.7051 -0.6232
  637MOL0     C87829   2.717   7.591   4.008  0.8816  0.0602 -0.5048
  637MOL0     C87830   2.843   7.499   3.991 -0.2979  0.9112  0.2525
  637MOL0     C87831   2.865   7.460   3.849 -0.3578 -0.4911  0.0228
  637MOL0     C87832   2.800   7.340   3.799 -0.7480  0.2967 -0.1332
  637MOL0     C87833   2.743   7.243   3.752  0.8595  0.5287 -0.2876
  637MOL0     C87834   2.734   7.412   4.445  0.0444 -0.1413  1.0139
  637MOL0     C87835   2.813   7.397   4.563  0.3718  0.0786 -1.1262
  637MOL0     C87836   2.769   7.281   4.649 -0.4532  0.1272 -0.7398
  637MOL0     H87837   3.086   7.752   4.947 -1.0221  0.4106 -3.0255
  637MOL0     H87838   3.266   7.757   5.108 -1.9326  2.1323 -1.6943
  637MOL0     H87839   3.661   7.527   5.014  0.6023  0.7578 -0.0178
  637MOL0     H87840   3.550   7.444   5.132  0.7605 -0.9932 -2.0898
  637MOL0     H87841   3.656   7.603   5.306 -1.8869 -1.0473 -0.3224
  637MOL0     H87842   3.757   7.467   5.251 -2.5240  0.4194  1.2662
  637MOL0     H87843   3.851   7.638   5.074 -2.6920 -1.2029 -1.7872
  637MOL0     H87844   3.754   7.757   5.162  0.4559  0.4743  1.6649
  637MOL0     H87845   3.919   7.589   5.336 -0.6938 -0.4734 -1.6613
  637MOL0     H87846   4.010   7.675   5.209  0.6002  2.2836 -0.5030
  637MOL0     H87847   3.836   7.833   5.399 -1.8024 -0.6875 -0.2464
  637MOL0     H87848   3.952   7.890   5.284 -0.2159  0.8614  0.5345
  637MOL0     H87849   4.087   7.900   5.481 -0.3680  0.1262  5.6702
  637MOL0     H87850   3.995   7.762   5.556 -0.2343 -3.7136 -1.3942
  637MOL0     H87851   4.114   7.613   5.420 -0.9509  0.7065  0.4166
  637MOL0     H87852   4.218   7.683   5.533  1.0635 -0.3822 -0.3290
  637MOL0     H87853   4.206   7.787   5.239 -0.8364 -2.9803 -0.6709
  637MOL0     H87854   4.297   7.851   5.374 -1.9900  1.2250 -1.5923
  637MOL0     H87855   4.284   7.456   5.319  0.6797 -0.1779  1.4293
  637MOL0     H87856   4.626   7.384   5.136 -0.4096  1.0974 -0.0486
  637MOL0     H87857   4.467   7.307   5.162 -3.1033  2.2337  0.9018
  637MOL0     H87858   4.677   7.364   5.393 -3.2940  2.3946  2.8131
  637MOL0     H87859   4.532   7.261   5.398 -1.8357  0.2623 -1.4386
  637MOL0     H87860   4.650   7.138   5.201 -0.3726 -0.2227 -0.6695
  637MOL0     H87861   4.799   7.212   5.265  0.6079 -0.7693 -0.7610
  637MOL0     H87862   4.818   7.122   5.456  1.7501  0.8594 -1.0299
  637MOL0     H87863   4.648   7.056   5.470  0.2303  1.0910  0.0361
  637MOL0     H87864   4.857   6.718   5.311  0.2012  1.9384  1.6669
  637MOL0     H87865   4.680   6.409   5.331  1.6780 -1.8015 -1.0426
  637MOL0     H87866   4.826   6.458   5.263 -1.0140 -1.8187  0.5205
  637MOL0     H87867   4.685   6.444   5.167 -0.7720  3.0199  0.3591
  637MOL0     H87868   4.229   6.490   5.010 -0.0820 -0.0742 -2.7122
  637MOL0     H87869   4.086   6.316   4.953  1.5513  1.2925 -2.7702
  637MOL0     H87870   3.978   6.015   4.864  0.3210 -0.1671 -0.9041
  637MOL0     H87871   4.080   6.144   4.827 -0.9170  0.2332 -0.5878
  637MOL0     H87872   4.140   5.949   4.692 -0.8403 -1.0788  1.2129
  637MOL0     H87873   4.266   5.999   4.791  1.0569 -0.7942 -2.0956
  637MOL0     H87874   4.049   5.780   4.845 -0.0266  0.1284  0.3852
  637MOL0     H87875   4.184   5.793   4.947 -5.1883 -2.7487  1.7672
  637MOL0     H87876   4.326   5.758   4.716  0.8350 -1.2808 -0.9704
  637MOL0     H87877   4.187   5.693   4.650 -2.6146 -1.5929  2.2834
  637MOL0     H87878   4.349   5.531   4.758  0.2249 -0.0795  0.6222
  637MOL0     H87879   4.294   5.591   4.917  0.6837 -1.1717 -0.3602
  637MOL0     H87880   4.092   5.489   4.705 -0.7005 -0.2613  0.9603
  637MOL0     H87881   4.069   5.506   4.880 -2.0359 -3.6217 -0.0349
  637MOL0     H87882   4.278   5.351   4.886 -0.4685 -0.0254  1.4838
  637MOL0     H87883   4.209   5.284   4.733 -0.5878  0.3615  0.1580
  637MOL0     H87884   3.997   5.239   4.843  0.7379 -3.2401 -0.5458
  637MOL0     H87885   4.081   5.291   4.996  0.9381 -1.0360  1.5175
  637MOL0     H87886   4.365   6.023   5.109  3.9232  0.3958 -2.6152
  637MOL0     H87887   4.519   6.200   5.160  0.3695  2.3879  0.9474
  637MOL0     H87888   4.372   6.800   5.293 -1.1646 -0.3776  1.6762
  637MOL0     H87889   4.522   6.970   5.299 -1.1918  0.0870 -2.5823
  637MOL0     H87890   3.462   7.434   4.888  0.8790 -1.0179  2.4568
  637MOL0     H87891   3.289   7.436   4.732 -0.6658  0.2817 -0.6053
  637MOL0     H87892   3.023   7.664   4.494 -1.2822  2.6065 -2.6170
  637MOL0     H87893   2.914   7.668   4.302  2.0927  0.0123  0.8705
  637MOL0     H87894   2.604   7.712   4.160  0.3031  1.0494  0.5250
  637MOL0     H87895   2.771   7.696   4.169 -0.2327  0.8465 -0.6880
  637MOL0     H87896   2.724   7.676   3.939  1.3271  0.3491 -0.1112
  637MOL0     H87897   2.633   7.531   3.971  0.0175  0.9174 -0.0075
  637MOL0     H87898   2.931   7.560   4.012 -0.4985  0.9748  0.9308
  637MOL0     H87899   2.843   7.420   4.066 -2.7638  1.1435  0.5857
  637MOL0     H87900   2.973   7.442   3.842 -0.1984  0.6525 -0.5202
  637MOL0     H87901   2.839   7.553   3.798 -0.7216 -0.0067  1.0592
  637MOL0     H87902   2.702   7.149   3.720  2.4360 -0.7116  1.1059
  637MOL0     H87903   2.666   7.334   4.414 -1.2657  1.0180  0.8521
  637MOL0     H87904   2.749   7.311   4.753 -0.2833 -2.2882  0.0579
  637MOL0     H87905   2.681   7.234   4.604  0.7804 -1.1492 -1.9355
  637MOL0     H87906   2.842   7.200   4.656  0.5334  1.1078  1.0827
  638MOL0     O87907  11.289  10.223   1.900  1.0920  0.1593  0.2959
  638MOL0     C87908  11.256  10.189   1.784 -0.7958  0.7318 -0.2031
  638MOL0     O87909  11.281  10.057   1.733 -0.4696 -0.2753  0.2106
  638MOL0     C87910  11.268   9.949   1.820 -0.4427  0.7138  1.0201
  638MOL0     C87911  11.375   9.864   1.836  0.4472 -0.0751  0.4636
  638MOL0     C87912  11.367   9.752   1.918  1.0482  0.6482  0.4200
  638MOL0     C87913  11.244   9.721   1.983 -0.0366  0.2779  0.4895
  638MOL0     O87914  11.253   9.617   2.074  0.2044  0.0802  0.1687
  638MOL0     C87915  11.136   9.590   2.150 -0.2482  0.1193 -0.8915
  638MOL0     C87916  11.160   9.453   2.215 -0.2207  0.6331  0.1975
  638MOL0     C87917  11.029   9.427   2.306  0.0801  0.0979  0.0909
  638MOL0     C87918  10.950   9.298   2.270 -1.5072 -0.7135  0.1839
  638MOL0     C87919  10.910   9.216   2.383  0.1136  1.5514 -1.0809
  638MOL0     C87920  10.805   9.287   2.472 -1.1961 -0.4321  0.9163
  638MOL0     C87921  10.823   9.228   2.613 -0.6187 -0.3883 -0.6447
  638MOL0     C87922  10.707   9.268   2.690 -0.2580  0.6175 -0.8288
  638MOL0     N87923  10.745   9.235   2.824  0.3993 -0.0841  0.7803
  638MOL0     C87924  10.752   9.115   2.875 -0.6547 -0.3045  0.3320
  638MOL0     C87925  10.795   9.135   3.005 -0.1734  0.3130  0.2247
  638MOL0     C87926  10.835   9.040   3.113  0.0444  0.1441 -0.1867
  638MOL0     C87927  10.975   8.974   3.088 -0.7709  0.7184  0.7607
  638MOL0     C87928  10.985   8.824   3.132 -0.2964  0.1388 -0.0887
  638MOL0     C87929  11.127   8.768   3.145 -0.4899  0.6391  1.2017
  638MOL0     O87930  11.192   8.819   3.262 -0.3991  0.8114  0.1547
  638MOL0     C87931  11.323   8.796   3.281  0.6349 -1.3055 -0.2024
  638MOL0     C87932  11.399   8.721   3.190  0.2303  0.3036  0.5614
  638MOL0     C87933  11.541   8.714   3.212 -1.0893  0.0647 -0.1529
  638MOL0     C87934  11.628   8.642   3.110 -0.3874 -0.9539 -0.7516
  638MOL0     C87935  11.606   8.790   3.322 -0.1439 -1.1479  1.2972
  638MOL0     C87936  11.748   8.812   3.331  0.1758  0.7126 -0.4468
  638MOL0     O87937  11.779   8.942   3.363 -0.9788  0.9591  0.1308
  638MOL0     C87938  11.892   8.998   3.335  0.6559 -0.2474  0.8790
  638MOL0     C87939  12.014   8.939   3.382 -1.1515 -0.4421  0.3607
  638MOL0     C87940  12.138   9.009   3.364  0.2297  0.3250  0.7064
  638MOL0     C87941  12.150   9.124   3.277 -0.4354 -0.6172  0.3796
  638MOL0     O87942  12.272   9.181   3.253  0.2716  0.2221  0.1492
  638MOL0     C87943  12.294   9.259   3.127  0.5546 -0.3285  0.7297
  638MOL0     C87944  12.295   9.151   3.015 -1.1253 -0.0750 -0.2385
  638MOL0     C87945  12.437   9.090   3.001  1.5242 -0.5023 -0.1437
  638MOL0     C87946  12.493   9.002   3.108 -0.4409  0.7404 -1.6153
  638MOL0     C87947  12.627   8.937   3.072  0.0548  0.5920 -0.4003
  638MOL0     C87948  12.688   8.897   3.205  0.0749  0.0063 -0.3907
  638MOL0     C87949  12.610   8.777   3.271  0.5460  0.0945 -0.7803
  638MOL0     C87950  12.698   8.703   3.355 -0.6692 -0.5937  0.1440
  638MOL0    Cl87951  12.794   8.586   3.249  0.3198  0.0994 -0.0997
  638MOL0     C87952  12.028   9.179   3.235  0.3723  1.2062 -0.3855
  638MOL0     C87953  11.904   9.121   3.267 -0.1110  0.3737  0.1920
  638MOL0     O87954  11.824   8.729   3.292 -0.0317  0.1603 -0.3521
  638MOL0     C87955  11.524   8.860   3.410  0.7832 -0.0906  0.5335
  638MOL0     C87956  11.384   8.866   3.390  0.6376  0.0154 -0.3001
  638MOL0     N87957  10.824   9.269   3.009  0.6286 -0.3813 -0.1780
  638MOL0     N87958  10.781   9.324   2.905  0.3542  0.2566 -0.7615
  638MOL0     C87959  11.135   9.808   1.955  0.0528 -0.0095 -0.0774
  638MOL0     C87960  11.147   9.914   1.876 -1.1910 -0.0370  1.5963
  638MOL0     C87961  11.185  10.285   1.689  0.8645  0.5102 -0.0354
  638MOL0     C87962  11.112  10.222   1.584 -0.1066 -0.8174 -0.4062
  638MOL0     C87963  11.031  10.302   1.499  0.2275  0.5127  0.8181
  638MOL0     C87964  11.030  10.437   1.508  0.0882  0.1448 -0.6700
  638MOL0     O87965  10.965  10.528   1.419 -0.6612 -0.0712  0.0109
  638MOL0     C87966  10.930  10.471   1.291 -0.5067  0.0530 -1.1749
  638MOL0     C87967  11.041  10.436   1.199 -1.0039  0.7389 -0.1403
  638MOL0     C87968  11.170  10.520   1.211  1.2528 -0.7544  0.2901
  638MOL0     C87969  11.172  10.657   1.146  0.3994 -1.1450 -0.2277
  638MOL0     C87970  11.053  10.740   1.164 -0.2343  0.0041  0.7999
  638MOL0     C87971  10.948  10.803   1.174 -0.8449 -0.5695  0.1430
  638MOL0     C87972  11.094  10.495   1.614 -0.4011  0.0307 -0.4511
  638MOL0     C87973  11.180  10.427   1.701 -1.3267  0.5311 -0.6755
  638MOL0     C87974  11.249  10.487   1.820  0.8963  0.2357 -0.8120
  638MOL0     H87975  11.465   9.891   1.783 -0.9356 -1.4612 -2.8259
  638MOL0     H87976  11.459   9.695   1.923  0.2956 -0.5102  1.7394
  638MOL0     H87977  11.054   9.569   2.081  0.1680 -4.8058 -0.2415
  638MOL0     H87978  11.102   9.665   2.221 -1.3340 -0.5288 -0.7058
  638MOL0     H87979  11.170   9.373   2.141  3.2598  1.5816 -0.5654
  638MOL0     H87980  11.249   9.456   2.280 -1.5543  1.9963  2.0710
  638MOL0     H87981  11.073   9.399   2.403 -1.6727 -3.1770  0.0895
  638MOL0     H87982  10.972   9.520   2.303  2.0078  1.4648  1.9674
  638MOL0     H87983  10.868   9.315   2.199  0.8225 -2.6720 -3.2421
  638MOL0     H87984  11.025   9.247   2.210  2.5145  4.9050 -0.3135
  638MOL0     H87985  10.993   9.175   2.442 -0.5362 -0.2274 -1.3329
  638MOL0     H87986  10.860   9.128   2.340 -0.2411  0.7243  0.8963
  638MOL0     H87987  10.822   9.395   2.479  0.9201 -0.8197  3.3066
  638MOL0     H87988  10.703   9.280   2.433  0.0079 -1.2616 -2.4667
  638MOL0     H87989  10.918   9.270   2.648  0.2797 -0.4026 -2.8719
  638MOL0     H87990  10.812   9.119   2.609 -1.3172 -0.4646  1.8268
  638MOL0     H87991  10.696   9.377   2.690  1.1110  0.8700  2.2871
  638MOL0     H87992  10.619   9.218   2.648  0.1439  0.4538 -1.4879
  638MOL0     H87993  10.739   9.018   2.830  3.1316 -1.0714  0.5869
  638MOL0     H87994  10.747   8.975   3.104  0.1429 -0.0179  0.0276
  638MOL0     H87995  10.838   9.095   3.207  0.2026 -0.3229  0.0828
  638MOL0     H87996  10.990   8.981   2.980  0.2492  0.7133  0.8836
  638MOL0     H87997  11.059   9.034   3.125  0.9852 -2.4240  2.3470
  638MOL0     H87998  10.927   8.824   3.225  0.3179  1.1056  0.3212
  638MOL0     H87999  10.923   8.759   3.069  2.8236 -1.0024 -2.1861
  638MOL0     H88000  11.112   8.659   3.151  2.1547 -0.0536 -1.9192
  638MOL0     H88001  11.178   8.786   3.050 -1.0886  3.6697  1.3802
  638MOL0     H88002  11.357   8.663   3.109  2.0017 -2.6246  1.5645
  638MOL0     H88003  11.681   8.573   3.177 -1.4225  0.8574  2.1666
  638MOL0     H88004  11.690   8.713   3.056 -1.5937 -0.6731 -1.8279
  638MOL0     H88005  11.579   8.572   3.042 -2.3674  0.0682 -0.4522
  638MOL0     H88006  12.015   8.840   3.427 -1.4698 -0.7734 -0.3475
  638MOL0     H88007  12.223   8.958   3.408  0.6274 -0.0949 -0.5119
  638MOL0     H88008  12.220   9.339   3.119 -0.0728 -0.8526  1.1558
  638MOL0     H88009  12.395   9.300   3.133  0.1599  0.8109 -0.0609
  638MOL0     H88010  12.224   9.067   3.008 -2.4492  1.0835 -1.2931
  638MOL0     H88011  12.286   9.207   2.922  2.9487 -1.6759 -1.8299
  638MOL0     H88012  12.508   9.168   2.973  0.6254 -0.4108 -2.4529
  638MOL0     H88013  12.418   9.034   2.908 -2.4828  0.4899 -0.1016
  638MOL0     H88014  12.422   8.926   3.144  0.7029  0.4583  0.1619
  638MOL0     H88015  12.508   9.055   3.202 -0.4527  0.1588 -1.2792
  638MOL0     H88016  12.622   8.842   3.019 -0.0280 -1.2525  2.7064
  638MOL0     H88017  12.695   9.000   3.014 -0.5603  0.3683 -1.3852
  638MOL0     H88018  12.704   8.980   3.275 -3.9604 -0.4342  1.3111
  638MOL0     H88019  12.786   8.865   3.170  0.7186  3.7017 -2.5215
  638MOL0     H88020  12.579   8.696   3.204  0.7589 -0.9705  0.3668
  638MOL0     H88021  12.534   8.815   3.340  1.8474  3.0257 -0.7984
  638MOL0     H88022  12.638   8.652   3.430 -1.6189 -0.4726 -0.5146
  638MOL0     H88023  12.752   8.780   3.410 -1.1759 -0.0833 -0.0639
  638MOL0     H88024  12.032   9.273   3.180  2.2442  0.6430 -1.3222
  638MOL0     H88025  11.813   9.161   3.224 -0.6454 -0.7306  0.2557
  638MOL0     H88026  11.570   8.899   3.500  2.0025 -0.7406  0.2100
  638MOL0     H88027  11.328   8.921   3.465 -0.0731 -2.5866  1.1766
  638MOL0     H88028  11.044   9.791   2.013  2.0248  1.0841  3.7105
  638MOL0     H88029  11.059   9.970   1.846 -2.1505 -1.5876  1.3981
  638MOL0     H88030  11.108  10.114   1.582  0.3092 -0.9064  1.8703
  638MOL0     H88031  10.967  10.243   1.434 -2.6516  2.3669  1.7359
  638MOL0     H88032  10.863  10.386   1.306  0.7586 -0.9517 -1.0676
  638MOL0     H88033  10.868  10.549   1.246 -0.4325  2.7242  2.8627
  638MOL0     H88034  11.002  10.436   1.097 -3.7546 -0.4846  0.8141
  638MOL0     H88035  11.082  10.337   1.221  0.2590  0.6818 -2.4567
  638MOL0     H88036  11.187  10.532   1.319 -0.8346  0.0109  0.5724
  638MOL0     H88037  11.251  10.459   1.169 -1.0315 -1.5747 -3.2708
  638MOL0     H88038  11.169  10.638   1.038  0.2705  1.9369 -0.8492
  638MOL0     H88039  11.264  10.711   1.169 -0.3496  0.2774 -0.4943
  638MOL0     H88040  10.851  10.851   1.177 -0.2530  0.6380  0.9186
  638MOL0     H88041  11.079  10.599   1.641 -0.9778  0.3820 -2.0661
  638MOL0     H88042  11.354  10.456   1.817  0.7930 -2.1204  5.3435
  638MOL0     H88043  11.255  10.596   1.817  0.7819  0.4915  3.1740
  638MOL0     H88044  11.198  10.441   1.905  0.7353  0.4838 -0.7736
  639MOL0     O88045   6.096   4.008   6.658 -0.4035  0.0802 -0.1750
  639MOL0     C88046   6.037   4.096   6.588  0.7248 -0.4691 -0.2281
  639MOL0     O88047   5.898   4.121   6.587 -0.4987 -0.4292 -0.6901
  639MOL0     C88048   5.819   4.037   6.662 -0.0661 -0.0984 -0.1193
  639MOL0     C88049   5.751   3.937   6.597  0.5347 -0.1203  0.7480
  639MOL0     C88050   5.684   3.841   6.674 -0.8198 -0.6778  0.9383
  639MOL0     C88051   5.691   3.840   6.819  0.7036  0.4129  0.1970
  639MOL0     O88052   5.663   3.728   6.895  0.2207  0.4450  0.0667
  639MOL0     C88053   5.690   3.596   6.857  0.3043 -0.5620  0.1519
  639MOL0     C88054   5.838   3.582   6.827  0.3803 -0.0906 -0.3039
  639MOL0     C88055   5.929   3.595   6.955  0.1079  0.0513 -1.0205
  639MOL0     C88056   6.064   3.596   6.914  0.1283 -1.0028  0.2707
  639MOL0     C88057   6.177   3.568   7.020 -0.7292  0.4176 -0.8841
  639MOL0     C88058   6.319   3.597   6.966 -0.2107  0.2956 -0.2976
  639MOL0     C88059   6.360   3.744   6.957 -0.1466 -0.1016  0.0644
  639MOL0     C88060   6.334   3.812   6.824 -0.3768 -0.4518 -1.1672
  639MOL0     N88061   6.442   3.767   6.730  0.8325  0.3370 -0.4229
  639MOL0     C88062   6.414   3.701   6.610 -0.6394  1.0050 -0.4347
  639MOL0     C88063   6.520   3.726   6.535 -0.1829  0.8795 -0.4431
  639MOL0     C88064   6.559   3.686   6.397 -0.2871 -0.4791  0.0998
  639MOL0     C88065   6.451   3.741   6.305  0.3016 -0.1111 -0.4138
  639MOL0     C88066   6.494   3.766   6.172 -0.1166 -0.1599  1.4813
  639MOL0     C88067   6.463   3.648   6.087  0.0865 -0.1135  0.8298
  639MOL0     O88068   6.323   3.613   6.085 -0.5081 -0.1047  0.8421
  639MOL0     C88069   6.232   3.677   6.009 -0.0377 -0.2109  0.0640
  639MOL0     C88070   6.110   3.607   5.980  0.0750 -0.8699  0.0663
  639MOL0     C88071   6.012   3.669   5.905  0.4253 -0.5794  0.7803
  639MOL0     C88072   5.894   3.587   5.865  0.8032  0.9055  0.1749
  639MOL0     C88073   6.022   3.799   5.858 -0.0610  0.1979 -0.1121
  639MOL0     C88074   5.937   3.876   5.764 -0.8165 -0.7835 -0.4663
  639MOL0     O88075   5.904   4.000   5.802 -0.7248 -0.5748 -0.4048
  639MOL0     C88076   5.798   4.055   5.734 -0.4628  0.7638 -0.6826
  639MOL0     C88077   5.822   4.181   5.684 -0.4568  0.1041  0.5450
  639MOL0     C88078   5.719   4.248   5.625  0.4317 -0.1721  0.2750
  639MOL0     C88079   5.590   4.191   5.618  0.2790  0.0073 -0.3548
  639MOL0     O88080   5.474   4.260   5.588  0.1936 -0.3737  0.2983
  639MOL0     C88081   5.478   4.395   5.543  0.6123 -0.2383 -0.0675
  639MOL0     C88082   5.336   4.425   5.484  0.3038  0.8082 -0.3368
  639MOL0     C88083   5.345   4.538   5.376 -0.3733 -0.5581  0.0328
  639MOL0     C88084   5.211   4.567   5.318  0.1066 -0.2391 -0.1380
  639MOL0     C88085   5.210   4.649   5.194  0.4107  0.0769 -0.2811
  639MOL0     C88086   5.205   4.565   5.066 -0.2966 -0.2568 -0.3011
  639MOL0     C88087   5.193   4.644   4.934  0.0345 -0.5092  0.0592
  639MOL0     C88088   5.198   4.563   4.803 -1.5366  0.3848 -0.7597
  639MOL0    Cl88089   5.185   4.695   4.690  0.3767 -0.1012 -0.1285
  639MOL0     C88090   5.564   4.064   5.668  0.1012  0.1599  0.0224
  639MOL0     C88091   5.673   3.985   5.717 -0.0550  0.6194  0.2395
  639MOL0     O88092   5.889   3.814   5.668 -0.1354 -0.7154 -0.3023
  639MOL0     C88093   6.137   3.866   5.895 -0.7699  0.2010 -0.4369
  639MOL0     C88094   6.240   3.808   5.959  0.1307  0.0632 -0.2310
  639MOL0     N88095   6.604   3.815   6.598  0.4177 -0.4458 -0.2172
  639MOL0     N88096   6.558   3.832   6.725 -0.4375  0.0026  0.2146
  639MOL0     C88097   5.739   3.951   6.878 -0.4584  0.0905  0.5812
  639MOL0     C88098   5.810   4.046   6.801 -0.1459  1.1134 -0.4652
  639MOL0     C88099   6.118   4.190   6.511 -0.0179 -0.3343  0.4626
  639MOL0     C88100   6.052   4.305   6.462  0.6331  0.6242 -0.8306
  639MOL0     C88101   6.106   4.396   6.378 -0.4084 -0.4932 -1.2906
  639MOL0     C88102   6.242   4.388   6.354 -0.2470 -0.5176 -0.8516
  639MOL0     O88103   6.296   4.499   6.290 -0.7302 -0.1402  0.3027
  639MOL0     C88104   6.433   4.503   6.256 -0.5917  0.3692  0.3364
  639MOL0     C88105   6.479   4.646   6.200 -0.2088 -0.8914 -0.1043
  639MOL0     C88106   6.521   4.739   6.311  0.2213  0.9218 -0.6959
  639MOL0     C88107   6.561   4.880   6.260  0.3826  0.0030  0.8955
  639MOL0     C88108   6.447   4.965   6.240  0.6794 -0.5139  1.3328
  639MOL0     C88109   6.349   5.036   6.230  0.3854  0.0713 -0.1863
  639MOL0     C88110   6.316   4.280   6.403 -0.2349  1.0667 -0.4560
  639MOL0     C88111   6.257   4.180   6.476  0.4521 -0.7471  0.5979
  639MOL0     C88112   6.347   4.070   6.526  0.1899  0.9356 -0.0460
  639MOL0     H88113   5.743   3.934   6.489 -0.1431  1.5588  0.7203
  639MOL0     H88114   5.641   3.760   6.616 -3.0613 -0.6737  2.4796
  639MOL0     H88115   5.637   3.575   6.763  0.6368 -2.8589  0.4142
  639MOL0     H88116   5.653   3.526   6.931 -2.5631 -0.8465 -1.4037
  639MOL0     H88117   5.846   3.484   6.778 -2.1106 -1.2904  1.4367
  639MOL0     H88118   5.861   3.658   6.752 -2.5784 -0.3647 -1.6686
  639MOL0     H88119   5.909   3.690   7.007 -0.4595 -1.3193  1.4196
  639MOL0     H88120   5.911   3.520   7.032 -1.2360  3.5851  2.4741
  639MOL0     H88121   6.090   3.530   6.830 -1.2823 -2.2134  0.7627
  639MOL0     H88122   6.075   3.698   6.874  2.5755 -1.4413 -0.3942
  639MOL0     H88123   6.158   3.461   7.035 -1.1534  0.7967  1.7277
  639MOL0     H88124   6.167   3.611   7.120 -1.8072 -3.0147  0.6377
  639MOL0     H88125   6.389   3.563   7.043  1.8371 -1.7899 -2.9036
  639MOL0     H88126   6.351   3.531   6.884  2.8679 -1.2273  1.9230
  639MOL0     H88127   6.464   3.751   6.989 -1.4052  1.8457  4.5260
  639MOL0     H88128   6.308   3.806   7.031  0.4137  0.7089 -0.2095
  639MOL0     H88129   6.234   3.784   6.790 -0.4977 -1.8148  0.1901
  639MOL0     H88130   6.327   3.921   6.825 -2.3624 -0.4839 -3.4143
  639MOL0     H88131   6.330   3.641   6.575  1.1443 -3.2494  1.9274
  639MOL0     H88132   6.558   3.578   6.377 -3.9957 -1.4277  4.0633
  639MOL0     H88133   6.652   3.738   6.371 -0.3428  1.3321  3.1290
  639MOL0     H88134   6.363   3.676   6.302 -3.2155  4.1941 -2.7802
  639MOL0     H88135   6.404   3.834   6.339 -1.0477 -1.0804  0.4830
  639MOL0     H88136   6.445   3.858   6.140 -0.7434 -1.1195 -0.4948
  639MOL0     H88137   6.603   3.783   6.174  0.2333 -1.9526  0.1863
  639MOL0     H88138   6.501   3.672   5.987  3.4072 -3.0735  1.1889
  639MOL0     H88139   6.515   3.558   6.121 -2.8830 -4.3433 -4.2549
  639MOL0     H88140   6.106   3.508   6.025  2.9687 -0.6047  1.1209
  639MOL0     H88141   5.817   3.657   5.833  1.2158  1.2294 -0.1280
  639MOL0     H88142   5.856   3.528   5.949  0.2925 -2.3047 -2.1489
  639MOL0     H88143   5.927   3.529   5.778  1.2159  3.9577 -1.8492
  639MOL0     H88144   5.920   4.226   5.699 -0.5107  0.3078  0.2832
  639MOL0     H88145   5.748   4.346   5.590  1.6162  0.3238  2.4358
  639MOL0     H88146   5.491   4.461   5.629 -0.1750 -0.7198  0.4342
  639MOL0     H88147   5.557   4.388   5.468 -0.0670  3.1872 -1.2925
  639MOL0     H88148   5.298   4.336   5.433 -1.0821  0.0433  1.9069
  639MOL0     H88149   5.268   4.455   5.564  1.6636  1.3410  0.6676
  639MOL0     H88150   5.395   4.494   5.290 -3.8073 -0.9555 -1.9676
  639MOL0     H88151   5.398   4.627   5.412 -0.2581 -1.9195  3.6014
  639MOL0     H88152   5.158   4.628   5.392 -0.4480 -2.0499  1.0148
  639MOL0     H88153   5.157   4.475   5.295 -0.1028 -0.2563  0.4098
  639MOL0     H88154   5.113   4.699   5.192 -0.0344 -0.6014 -4.3101
  639MOL0     H88155   5.292   4.721   5.196  0.6685 -0.2218  0.3853
  639MOL0     H88156   5.122   4.493   5.064  0.5194 -1.2877  1.0795
  639MOL0     H88157   5.300   4.511   5.066  0.4966  1.0001  2.0180
  639MOL0     H88158   5.273   4.718   4.930 -2.5819  2.4982 -3.5162
  639MOL0     H88159   5.103   4.701   4.959  0.3144 -0.7549  1.7097
  639MOL0     H88160   5.107   4.502   4.805  1.0667 -3.9447 -0.9146
  639MOL0     H88161   5.283   4.497   4.784 -1.1172  0.8404 -0.5015
  639MOL0     H88162   5.460   4.034   5.666  0.0356  0.2487  1.1512
  639MOL0     H88163   5.663   3.883   5.753  2.3501 -1.3254 -3.8212
  639MOL0     H88164   6.155   3.972   5.879  2.4642 -0.3722 -1.3360
  639MOL0     H88165   6.332   3.865   5.966  0.1743 -0.1345  0.9815
  639MOL0     H88166   5.715   3.963   6.983 -0.8180  0.2730  0.4814
  639MOL0     H88167   5.861   4.120   6.862  1.0445 -1.1789  1.4895
  639MOL0     H88168   5.945   4.315   6.478  0.9266 -1.0297  3.2424
  639MOL0     H88169   6.040   4.471   6.337 -0.2275 -0.3999 -1.4094
  639MOL0     H88170   6.505   4.480   6.336 -2.1839 -3.0944  0.9433
  639MOL0     H88171   6.442   4.421   6.184 -3.0748 -1.0699  1.5521
  639MOL0     H88172   6.391   4.688   6.150 -1.7158 -2.7791  0.8562
  639MOL0     H88173   6.560   4.621   6.130 -1.7473 -0.6680 -2.0646
  639MOL0     H88174   6.445   4.757   6.387  2.0303  0.8707  1.2205
  639MOL0     H88175   6.597   4.691   6.374  1.6954  2.1670 -1.4419
  639MOL0     H88176   6.619   4.866   6.169 -0.5618  2.9120 -0.2376
  639MOL0     H88177   6.632   4.925   6.330  0.1029 -1.9512  2.5450
  639MOL0     H88178   6.259   5.094   6.216 -3.4455 -5.4731 -2.4741
  639MOL0     H88179   6.422   4.274   6.382  0.1389  2.3751  0.8800
  639MOL0     H88180   6.317   3.975   6.480 -2.2890  1.0221  1.1982
  639MOL0     H88181   6.449   4.078   6.488  0.4181 -4.0012 -1.1748
  639MOL0     H88182   6.346   4.072   6.635 -1.0820 -0.7366  0.0162
  640MOL0     O88183   6.640   4.847   4.669 -0.4477 -0.2031  0.3898
  640MOL0     C88184   6.568   4.812   4.762 -1.3916  0.4353  0.2283
  640MOL0     O88185   6.442   4.845   4.774  0.2060 -0.6951 -0.0691
  640MOL0     C88186   6.414   4.970   4.720  0.1751 -0.0023 -0.4547
  640MOL0     C88187   6.444   5.087   4.800 -0.0376 -0.4692 -0.2736
  640MOL0     C88188   6.411   5.215   4.749  1.3418  0.6786 -0.8002
  640MOL0     C88189   6.345   5.239   4.627  0.2104 -0.2436 -0.4358
  640MOL0     O88190   6.328   5.361   4.577  0.6386 -0.1416  0.8296
  640MOL0     C88191   6.362   5.397   4.438  0.0467 -0.4830  1.2176
  640MOL0     C88192   6.386   5.544   4.435  0.8111 -0.6821 -0.4255
  640MOL0     C88193   6.254   5.632   4.474 -0.9216  0.8197 -0.4463
  640MOL0     C88194   6.232   5.740   4.383 -0.4075  0.5456  0.3608
  640MOL0     C88195   6.127   5.835   4.427  0.9205  0.3580 -0.0616
  640MOL0     C88196   5.984   5.774   4.418  0.4782  0.6748 -0.7398
  640MOL0     C88197   5.951   5.679   4.533 -0.4074 -1.0381 -0.4893
  640MOL0     C88198   5.897   5.545   4.482 -0.8415 -0.1707 -0.2538
  640MOL0     N88199   5.876   5.440   4.584 -0.8700  0.8584 -0.7378
  640MOL0     C88200   5.975   5.347   4.619  0.6560 -0.0324 -0.2308
  640MOL0     C88201   5.916   5.276   4.723  0.3227  0.1599  0.2002
  640MOL0     C88202   5.983   5.159   4.794 -0.0027 -1.0928 -0.6454
  640MOL0     C88203   6.041   5.185   4.938  0.4107  0.2658  0.3900
  640MOL0     C88204   6.084   5.061   4.997  0.7581  1.4440  0.1555
  640MOL0     C88205   5.959   4.974   5.036  0.8604 -0.1772 -0.1473
  640MOL0     O88206   5.989   4.859   5.117 -0.4181 -0.5794  0.0719
  640MOL0     C88207   5.965   4.856   5.248  0.3866 -0.2302 -0.1961
  640MOL0     C88208   5.924   4.731   5.299 -0.3800 -1.1138 -0.1339
  640MOL0     C88209   5.907   4.706   5.436  0.2841  0.6717 -0.1463
  640MOL0     C88210   5.852   4.568   5.471  0.4023 -0.1249  0.1078
  640MOL0     C88211   5.944   4.805   5.534 -1.5147  0.3890 -1.3083
  640MOL0     C88212   5.939   4.790   5.684 -0.0980 -0.6466  0.6635
  640MOL0     O88213   5.981   4.901   5.756 -0.5767 -0.3290 -0.0774
  640MOL0     C88214   5.958   4.901   5.891  0.0560 -1.3187  0.6580
  640MOL0     C88215   5.840   4.961   5.952 -0.5290 -1.5464  0.0024
  640MOL0     C88216   5.829   4.944   6.091  1.1111  0.1622  0.6970
  640MOL0     C88217   5.934   4.888   6.174 -1.2022  0.6643 -0.2540
  640MOL0     O88218   5.911   4.878   6.309 -0.1590 -0.2930 -0.3809
  640MOL0     C88219   6.016   4.936   6.397 -0.3140 -0.7751 -0.7419
  640MOL0     C88220   6.082   4.821   6.478  0.3833  0.2071 -0.2657
  640MOL0     C88221   5.983   4.764   6.584  0.7686 -0.1204  0.0727
  640MOL0     C88222   6.042   4.641   6.648 -0.1319 -0.4731 -0.2010
  640MOL0     C88223   5.950   4.567   6.749 -0.3557 -0.4058 -0.7909
  640MOL0     C88224   6.021   4.502   6.871 -1.0108 -0.1629  0.3037
  640MOL0     C88225   5.951   4.396   6.940  0.7139 -0.7978 -0.8871
  640MOL0     C88226   6.022   4.350   7.064 -0.8896 -0.4366 -1.2964
  640MOL0    Cl88227   6.154   4.239   7.032  0.1482 -0.7637  0.3701
  640MOL0     C88228   6.050   4.835   6.109 -0.3549 -0.3532  0.6908
  640MOL0     C88229   6.063   4.848   5.970 -0.0826  0.6747 -0.7225
  640MOL0     O88230   5.899   4.688   5.727  0.1245  0.9660 -0.4427
  640MOL0     C88231   5.987   4.942   5.484  0.5791  1.5367 -0.2359
  640MOL0     C88232   5.992   4.955   5.348  0.0597 -0.1486 -0.3768
  640MOL0     N88233   5.791   5.316   4.742  0.0306 -0.1905 -0.4910
  640MOL0     N88234   5.767   5.419   4.671 -1.4233 -0.3501  0.4073
  640MOL0     C88235   6.311   5.124   4.557  0.3467  0.3421 -0.9155
  640MOL0     C88236   6.345   4.995   4.597  0.0437  0.0486 -0.2407
  640MOL0     C88237   6.631   4.728   4.866 -0.1942  0.5776  0.4701
  640MOL0     C88238   6.767   4.731   4.892  0.1634 -0.2068 -0.5131
  640MOL0     C88239   6.821   4.656   4.993 -0.6594 -0.3921  0.0642
  640MOL0     C88240   6.737   4.582   5.080 -0.5075  0.2375 -0.0475
  640MOL0     O88241   6.798   4.505   5.182 -0.1909  0.1875 -0.2271
  640MOL0     C88242   6.727   4.394   5.233 -0.9175  0.0719  0.0360
  640MOL0     C88243   6.830   4.279   5.260  0.0653 -0.9781  0.0837
  640MOL0     C88244   6.877   4.287   5.409  0.0034  0.3917 -0.1125
  640MOL0     C88245   6.763   4.295   5.522 -0.0699 -0.1921  0.0216
  640MOL0     C88246   6.828   4.277   5.650  0.0060  0.7019  0.0880
  640MOL0     C88247   6.902   4.259   5.751 -0.3037 -0.1077  0.2003
  640MOL0     C88248   6.604   4.576   5.048  0.8167 -0.3582 -0.5949
  640MOL0     C88249   6.546   4.648   4.947 -0.8253  1.1637  1.0003
  640MOL0     C88250   6.401   4.616   4.919 -0.6308  0.6412  0.2973
  640MOL0     H88251   6.491   5.072   4.897  0.4556  1.0484 -0.2516
  640MOL0     H88252   6.419   5.303   4.812 -2.4077  0.3155  0.3790
  640MOL0     H88253   6.280   5.381   4.368  0.4164  1.6133  0.2196
  640MOL0     H88254   6.458   5.354   4.407  1.7174  1.6674  3.0612
  640MOL0     H88255   6.466   5.560   4.508 -0.3033 -2.3636  1.2508
  640MOL0     H88256   6.410   5.574   4.333 -1.2854  0.8992 -0.5397
  640MOL0     H88257   6.167   5.566   4.478 -1.2548  1.2643 -0.4045
  640MOL0     H88258   6.279   5.672   4.572  0.1599 -1.0006  0.0859
  640MOL0     H88259   6.329   5.790   4.375  1.7900 -3.1853  1.4074
  640MOL0     H88260   6.217   5.707   4.280  0.6315  2.2966 -0.4013
  640MOL0     H88261   6.115   5.921   4.360 -3.3951  0.9649  1.1841
  640MOL0     H88262   6.146   5.868   4.530 -0.8361 -1.4819  0.9198
  640MOL0     H88263   5.911   5.855   4.427 -0.6589 -0.5743  2.2683
  640MOL0     H88264   5.964   5.726   4.321  0.3169  3.8360 -2.4234
  640MOL0     H88265   5.877   5.726   4.598 -1.0840 -2.1104 -0.4772
  640MOL0     H88266   6.023   5.660   4.614 -2.0492  0.0194  1.3038
  640MOL0     H88267   5.806   5.542   4.421 -0.3890  0.7997 -1.0102
  640MOL0     H88268   5.960   5.501   4.404 -2.1274  1.1166 -2.1161
  640MOL0     H88269   6.073   5.324   4.580  1.0805 -0.8574  1.2572
  640MOL0     H88270   6.069   5.131   4.733 -1.6344 -2.9486 -2.2204
  640MOL0     H88271   5.914   5.074   4.787  3.9558 -4.4866 -3.7399
  640MOL0     H88272   6.127   5.252   4.928 -1.4282  2.4852 -1.8190
  640MOL0     H88273   5.964   5.227   5.003 -1.4327 -2.5915  0.2349
  640MOL0     H88274   6.134   5.000   4.922  1.4003  1.3677  0.6363
  640MOL0     H88275   6.136   5.065   5.094 -2.0259 -2.3462  2.0734
  640MOL0     H88276   5.892   5.039   5.093  4.7594  2.3944  1.9673
  640MOL0     H88277   5.898   4.952   4.948 -3.5380  5.2072  0.9640
  640MOL0     H88278   5.902   4.644   5.238 -0.7680 -0.4467 -0.9518
  640MOL0     H88279   5.758   4.587   5.524  0.5721  0.5364  0.1750
  640MOL0     H88280   5.936   4.507   5.506  2.0157  0.6585 -2.1810
  640MOL0     H88281   5.810   4.520   5.382  1.8358  0.8126 -1.1211
  640MOL0     H88282   5.763   5.004   5.888 -0.3244 -2.8299 -1.1593
  640MOL0     H88283   5.739   4.980   6.140 -0.2135 -1.7995 -0.1825
  640MOL0     H88284   6.088   5.004   6.351  0.5217 -1.2719 -0.1848
  640MOL0     H88285   5.962   4.996   6.471  4.7259 -1.5520  4.2768
  640MOL0     H88286   6.108   4.741   6.409 -2.4573 -2.0608  1.1244
  640MOL0     H88287   6.168   4.859   6.534  0.1578  0.9471 -0.4116
  640MOL0     H88288   5.889   4.739   6.532 -0.0311  2.0868  0.3357
  640MOL0     H88289   5.963   4.841   6.659 -3.1294 -0.1389 -0.7184
  640MOL0     H88290   6.138   4.672   6.692 -1.8102  2.1281  1.9099
  640MOL0     H88291   6.063   4.574   6.564 -3.1753 -0.1813 -1.3148
  640MOL0     H88292   5.875   4.636   6.788  1.3825 -0.1782  2.5796
  640MOL0     H88293   5.899   4.482   6.702  1.5862 -2.2329  0.2074
  640MOL0     H88294   6.055   4.579   6.942  0.6591  0.8593 -1.4731
  640MOL0     H88295   6.114   4.458   6.834  0.5128  0.1292  3.4183
  640MOL0     H88296   5.936   4.303   6.884  0.1633 -0.6172 -1.0490
  640MOL0     H88297   5.855   4.440   6.970 -0.5183 -0.4633 -4.7529
  640MOL0     H88298   5.956   4.292   7.130  1.7069 -2.0502  0.0754
  640MOL0     H88299   6.057   4.440   7.115 -0.8355 -1.0068 -0.2978
  640MOL0     H88300   6.135   4.784   6.153 -0.5058 -0.4085  0.9233
  640MOL0     H88301   6.153   4.800   5.934  0.5001 -0.4097  1.9303
  640MOL0     H88302   5.990   5.024   5.555 -2.7273  1.6385 -0.0602
  640MOL0     H88303   6.018   5.048   5.299  3.1342 -1.7673 -2.1417
  640MOL0     H88304   6.257   5.139   4.464 -2.9086 -2.5083  0.2932
  640MOL0     H88305   6.317   4.905   4.543 -1.0313  1.2887 -1.8891
  640MOL0     H88306   6.826   4.800   4.833 -2.9334  1.7630 -1.5475
  640MOL0     H88307   6.927   4.650   5.013 -0.6045  0.8685  0.2468
  640MOL0     H88308   6.662   4.425   5.315 -2.0272 -1.7366 -0.1094
  640MOL0     H88309   6.665   4.360   5.149 -3.2210  0.4671  1.4879
  640MOL0     H88310   6.918   4.284   5.195  1.2613 -3.5918  1.3552
  640MOL0     H88311   6.785   4.181   5.243 -2.0235 -0.2721  1.1809
  640MOL0     H88312   6.936   4.195   5.419  1.3607  1.3932  1.7486
  640MOL0     H88313   6.937   4.377   5.424  0.2609  1.1972 -4.5002
  640MOL0     H88314   6.683   4.223   5.505  0.4261 -0.5158 -1.0034
  640MOL0     H88315   6.719   4.395   5.519  1.4337  0.6930  3.3516
  640MOL0     H88316   6.979   4.254   5.825 -0.7632 -1.0433  0.6396
  640MOL0     H88317   6.530   4.528   5.112 -1.6733  0.9132 -2.3599
  640MOL0     H88318   6.381   4.509   4.927 -1.7111  0.5643 -2.3155
  640MOL0     H88319   6.341   4.695   4.966 -2.1978  0.8041 -1.7785
  640MOL0     H88320   6.392   4.621   4.810  1.6545 -4.1966 -0.3487
  641MOL0     O88321   3.506   5.913   6.167 -0.6581 -0.2941  0.3723
  641MOL0     C88322   3.621   5.928   6.207 -0.5422 -0.3186  0.7002
  641MOL0     O88323   3.683   6.052   6.224  0.1960  0.7799  0.4839
  641MOL0     C88324   3.609   6.166   6.213 -0.5248  0.1610  0.0435
  641MOL0     C88325   3.541   6.214   6.105  0.6176  0.6857 -0.0083
  641MOL0     C88326   3.476   6.340   6.108 -0.2792  0.3459 -0.1650
  641MOL0     C88327   3.473   6.411   6.223  0.7821  0.0958 -0.5376
  641MOL0     O88328   3.414   6.530   6.236  0.1274 -0.4293 -0.9170
  641MOL0     C88329   3.442   6.639   6.150 -1.1378  1.0524  0.7108
  641MOL0     C88330   3.336   6.740   6.161  0.1005 -0.2611  1.1043
  641MOL0     C88331   3.208   6.688   6.085 -0.6724  0.6937  0.6209
  641MOL0     C88332   3.104   6.810   6.081 -0.7085  0.2478 -0.1812
  641MOL0     C88333   2.994   6.796   5.978 -0.4661  0.6701  0.3628
  641MOL0     C88334   3.051   6.806   5.834 -0.2087 -0.4240  0.2637
  641MOL0     C88335   2.944   6.806   5.729 -0.6101  0.9832  1.0331
  641MOL0     C88336   3.026   6.848   5.605 -0.4219 -1.0288 -0.5232
  641MOL0     N88337   2.953   6.814   5.481 -0.5401 -1.0138 -0.7822
  641MOL0     C88338   2.999   6.744   5.372 -0.4195 -0.6141  0.7462
  641MOL0     C88339   2.931   6.795   5.266  0.5651  0.0735 -1.0893
  641MOL0     C88340   2.951   6.751   5.125 -1.1844  0.2984  0.8605
  641MOL0     C88341   2.862   6.634   5.057  0.3099  0.0356 -0.1297
  641MOL0     C88342   2.902   6.587   4.918 -0.0849  0.2753 -0.5944
  641MOL0     C88343   2.862   6.677   4.803  0.7827 -0.5999  0.4369
  641MOL0     O88344   2.720   6.672   4.780  0.6922 -0.1057  0.1060
  641MOL0     C88345   2.673   6.770   4.697  0.5931  1.7103 -1.2101
  641MOL0     C88346   2.540   6.810   4.721  0.4327 -0.2220 -0.4791
  641MOL0     C88347   2.463   6.874   4.624 -0.4017  1.5188  0.0361
  641MOL0     C88348   2.319   6.895   4.644  0.1650 -0.5809 -0.4320
  641MOL0     C88349   2.529   6.909   4.504 -0.5658  0.1166 -0.3594
  641MOL0     C88350   2.454   6.953   4.376  0.2227 -0.0025 -0.9562
  641MOL0     O88351   2.513   6.917   4.265 -0.2439  0.6008 -0.2927
  641MOL0     C88352   2.456   6.972   4.150  0.4491  0.3140  0.6284
  641MOL0     C88353   2.359   6.904   4.063  0.1408 -0.5730 -0.8333
  641MOL0     C88354   2.320   6.959   3.947 -0.2719 -0.5649 -0.5933
  641MOL0     C88355   2.379   7.086   3.902  0.5077  0.2367  1.2479
  641MOL0     O88356   2.372   7.123   3.772  1.1693  0.4453  0.1262
  641MOL0     C88357   2.306   7.252   3.752 -0.1679  0.6580  0.4427
  641MOL0     C88358   2.311   7.286   3.603  0.7698  0.1150  0.5115
  641MOL0     C88359   2.456   7.296   3.568  0.8946  0.2994 -0.1587
  641MOL0     C88360   2.467   7.297   3.414  0.3207  1.1244 -1.1593
  641MOL0     C88361   2.613   7.302   3.376  0.8321 -0.0239 -0.4433
  641MOL0     C88362   2.623   7.311   3.222 -0.6789  0.5254  0.0020
  641MOL0     C88363   2.571   7.449   3.169  0.2121 -0.4416 -0.2288
  641MOL0     C88364   2.657   7.495   3.047 -0.3965 -0.4235  0.2916
  641MOL0    Cl88365   2.613   7.385   2.922  0.0067 -0.2878 -0.1598
  641MOL0     C88366   2.458   7.152   3.990  0.7260  0.1460  0.6291
  641MOL0     C88367   2.498   7.096   4.106 -0.3893 -0.7938 -0.1267
  641MOL0     O88368   2.364   7.041   4.381 -0.3707  0.3109 -0.0517
  641MOL0     C88369   2.671   6.904   4.505  0.7441  0.8774  0.6768
  641MOL0     C88370   2.743   6.821   4.592 -0.6364  0.8984 -0.4792
  641MOL0     N88371   2.836   6.875   5.314 -0.2351  0.0873 -0.2059
  641MOL0     N88372   2.847   6.896   5.444 -0.0987  0.4015 -0.6330
  641MOL0     C88373   3.531   6.357   6.337  0.7687 -0.0441 -0.0627
  641MOL0     C88374   3.607   6.248   6.336  0.2145  0.7472  0.8978
  641MOL0     C88375   3.714   5.808   6.211  0.4083  0.0282 -0.4068
  641MOL0     C88376   3.849   5.826   6.219  1.0104 -0.7504 -0.2069
  641MOL0     C88377   3.940   5.716   6.216  0.1047  0.5336  1.0928
  641MOL0     C88378   3.896   5.585   6.211 -0.7374 -0.0862  0.1369
  641MOL0     O88379   3.979   5.473   6.196  0.3103 -0.6960 -0.7188
  641MOL0     C88380   4.128   5.480   6.194 -0.1637  0.1206 -1.0864
  641MOL0     C88381   4.205   5.348   6.200  0.3300 -0.0524 -0.3271
  641MOL0     C88382   4.356   5.360   6.187 -0.6032 -0.4647 -1.0784
  641MOL0     C88383   4.412   5.215   6.190 -0.5932 -0.9204  0.4659
  641MOL0     C88384   4.376   5.141   6.312 -0.0199  0.5207  0.6105
  641MOL0     C88385   4.332   5.104   6.421  0.7593 -0.9047  0.0756
  641MOL0     C88386   3.758   5.566   6.214  0.0204  1.5313  0.0410
  641MOL0     C88387   3.662   5.668   6.210 -0.4855 -0.7475  1.1956
  641MOL0     C88388   3.516   5.632   6.198 -1.1411  0.2041  0.1604
  641MOL0     H88389   3.531   6.148   6.019  2.6953 -3.4800  2.6180
  641MOL0     H88390   3.427   6.396   6.029  0.3077  0.6757 -0.3028
  641MOL0     H88391   3.451   6.611   6.044 -1.9796  2.3800  0.2623
  641MOL0     H88392   3.535   6.691   6.174 -1.1320  1.8703 -0.8914
  641MOL0     H88393   3.314   6.747   6.268 -0.7832 -1.7214  1.0483
  641MOL0     H88394   3.363   6.840   6.124  2.5136 -0.9737  0.7557
  641MOL0     H88395   3.230   6.656   5.983  0.8816  3.0152  0.1407
  641MOL0     H88396   3.171   6.606   6.147 -1.4664  1.5236  1.2709
  641MOL0     H88397   3.064   6.813   6.183 -0.5705  1.7390 -0.1586
  641MOL0     H88398   3.145   6.910   6.064 -2.6907  0.9870 -0.9199
  641MOL0     H88399   2.912   6.867   5.987 -3.2818 -1.9528 -2.1177
  641MOL0     H88400   2.954   6.694   5.985 -0.3888  0.7219  1.7824
  641MOL0     H88401   3.109   6.898   5.820 -0.8610 -0.1499 -0.7659
  641MOL0     H88402   3.117   6.721   5.818  0.3839 -0.2719  1.7345
  641MOL0     H88403   2.859   6.872   5.752 -0.7424  1.5937 -1.0125
  641MOL0     H88404   2.910   6.703   5.720 -1.1967  1.1469  1.3178
  641MOL0     H88405   3.038   6.956   5.615 -2.1849 -0.7385 -1.1886
  641MOL0     H88406   3.127   6.806   5.607 -0.5197 -1.2577  0.4347
  641MOL0     H88407   3.088   6.688   5.347  2.8796  3.8201  1.4082
  641MOL0     H88408   3.052   6.710   5.120 -2.0295 -1.7454 -0.6598
  641MOL0     H88409   2.959   6.844   5.068 -2.2047  1.3685  2.3837
  641MOL0     H88410   2.863   6.547   5.124 -1.6449 -0.5033 -0.7484
  641MOL0     H88411   2.756   6.654   5.043  0.6088  0.8470 -1.4032
  641MOL0     H88412   3.010   6.572   4.923 -0.3980 -2.0549  0.4256
  641MOL0     H88413   2.857   6.489   4.900  0.2308  0.6411 -4.2587
  641MOL0     H88414   2.893   6.780   4.824  1.4553 -0.9446  1.2159
  641MOL0     H88415   2.917   6.643   4.715  1.2021 -0.2784  0.5683
  641MOL0     H88416   2.486   6.783   4.811 -2.3911 -0.7345 -2.1952
  641MOL0     H88417   2.255   6.830   4.583  1.3410 -2.5287  0.3176
  641MOL0     H88418   2.289   6.998   4.623  2.6759 -0.1216 -2.3003
  641MOL0     H88419   2.298   6.872   4.749  2.3354 -0.1989  0.1380
  641MOL0     H88420   2.320   6.813   4.108 -0.5601 -0.7075 -1.6785
  641MOL0     H88421   2.242   6.920   3.882 -0.3515  0.9708 -1.4699
  641MOL0     H88422   2.207   7.249   3.798  0.8565 -2.5946  2.8238
  641MOL0     H88423   2.352   7.327   3.818 -1.1109 -0.2297  2.1841
  641MOL0     H88424   2.242   7.234   3.537 -1.4978  0.8009  2.2354
  641MOL0     H88425   2.281   7.391   3.593  0.7158  0.2926  2.1586
  641MOL0     H88426   2.525   7.217   3.601 -1.0025 -0.6913  1.6373
  641MOL0     H88427   2.485   7.391   3.613  0.5896  1.7526 -2.8312
  641MOL0     H88428   2.419   7.387   3.374 -0.8005  1.3629  0.6078
  641MOL0     H88429   2.420   7.210   3.367 -0.9358  1.1476 -0.0187
  641MOL0     H88430   2.662   7.383   3.432  0.2597  0.4032 -0.5523
  641MOL0     H88431   2.667   7.212   3.406  0.0757 -0.1209  0.6825
  641MOL0     H88432   2.567   7.237   3.165  1.9696 -0.5977 -1.3139
  641MOL0     H88433   2.729   7.303   3.196 -0.7609  0.2784 -0.2564
  641MOL0     H88434   2.602   7.522   3.244 -0.9174 -2.3784  2.2735
  641MOL0     H88435   2.463   7.448   3.148 -0.0995  0.9192  1.1129
  641MOL0     H88436   2.762   7.486   3.078 -0.3032 -1.6773 -0.3276
  641MOL0     H88437   2.635   7.599   3.020 -0.6700 -0.2275  1.2531
  641MOL0     H88438   2.495   7.250   3.960  1.0687  0.4981  2.1173
  641MOL0     H88439   2.568   7.163   4.157 -1.4540  0.5577 -0.3811
  641MOL0     H88440   2.724   6.931   4.414 -0.8487  0.4516 -0.4276
  641MOL0     H88441   2.840   6.783   4.565 -1.3550 -0.9249 -0.5851
  641MOL0     H88442   3.535   6.420   6.426  0.0529  2.1976 -1.5477
  641MOL0     H88443   3.665   6.223   6.424 -1.9144 -0.8841  1.9150
  641MOL0     H88444   3.879   5.929   6.239 -0.7301 -0.7945  3.4498
  641MOL0     H88445   4.044   5.743   6.211 -0.1865  1.3708 -1.4287
  641MOL0     H88446   4.145   5.529   6.097  2.1368 -0.5221 -1.0536
  641MOL0     H88447   4.163   5.552   6.269  0.6619  1.0832 -2.3577
  641MOL0     H88448   4.170   5.284   6.118  0.0059  1.6098 -1.5426
  641MOL0     H88449   4.169   5.309   6.295 -0.3036 -1.8446 -1.2596
  641MOL0     H88450   4.385   5.408   6.093  0.5570  1.7402  0.3241
  641MOL0     H88451   4.398   5.428   6.261 -0.5866 -0.8376 -0.7418
  641MOL0     H88452   4.521   5.218   6.184 -0.6362 -0.8818 -0.5746
  641MOL0     H88453   4.375   5.168   6.098  1.1356 -0.6695 -0.3918
  641MOL0     H88454   4.299   5.071   6.517 -0.1812 -0.4832 -0.0852
  641MOL0     H88455   3.726   5.464   6.200 -2.1806  2.3823 -1.7629
  641MOL0     H88456   3.483   5.676   6.104 -0.4130 -1.6700 -1.0226
  641MOL0     H88457   3.500   5.527   6.173  0.4249 -0.4725  1.7619
  641MOL0     H88458   3.449   5.675   6.274 -2.0212  1.1306 -1.0955
  642MOL0     O88459   7.447   8.374   6.677  0.4310 -0.3159  0.5900
  642MOL0     C88460   7.469   8.494   6.701  0.6908  0.7900 -0.4135
  642MOL0     O88461   7.583   8.536   6.757 -0.3813  0.2029 -0.3030
  642MOL0     C88462   7.627   8.487   6.876 -0.5020 -0.4354  0.5906
  642MOL0     C88463   7.726   8.392   6.879 -1.1781 -0.6982  0.2777
  642MOL0     C88464   7.763   8.336   7.008 -0.3416 -0.1566  0.4032
  642MOL0     C88465   7.702   8.376   7.124  0.7059  1.0715 -0.5721
  642MOL0     O88466   7.742   8.341   7.248  0.5814  0.3286  0.0034
  642MOL0     C88467   7.738   8.192   7.269 -0.8213 -1.2808  1.0570
  642MOL0     C88468   7.609   8.144   7.330  1.0418 -0.7068 -0.0388
  642MOL0     C88469   7.639   7.992   7.371 -0.2341 -0.3925 -0.3584
  642MOL0     C88470   7.506   7.921   7.398 -0.5221 -0.0529  0.2276
  642MOL0     C88471   7.525   7.803   7.504 -0.9134  0.7307 -0.6605
  642MOL0     C88472   7.522   7.853   7.650  0.9232  0.1931  0.9321
  642MOL0     C88473   7.616   7.780   7.737  0.1342  0.5978 -0.0804
  642MOL0     C88474   7.576   7.632   7.762 -0.2035 -0.6125 -0.3606
  642MOL0     N88475   7.680   7.555   7.845 -0.1654  0.1309  0.0709
  642MOL0     C88476   7.699   7.427   7.806 -0.7666  0.1562  0.4921
  642MOL0     C88477   7.756   7.358   7.911  0.4198  0.4282  0.3601
  642MOL0     C88478   7.778   7.210   7.915 -0.6749  0.7335 -0.2145
  642MOL0     C88479   7.660   7.141   7.985  0.3359 -0.2469  0.6684
  642MOL0     C88480   7.639   7.186   8.130  0.3581  0.1858 -0.1436
  642MOL0     C88481   7.753   7.190   8.225  0.4447  0.1614 -0.3703
  642MOL0     O88482   7.805   7.054   8.230 -0.2600  0.1019 -0.4811
  642MOL0     C88483   7.928   7.044   8.282 -0.4128  0.6333  0.8607
  642MOL0     C88484   7.984   7.121   8.384  0.9960 -0.0467 -0.7868
  642MOL0     C88485   8.111   7.094   8.431  0.5073  0.6509 -0.0382
  642MOL0     C88486   8.182   7.200   8.509 -0.0018  0.2406  0.5168
  642MOL0     C88487   8.183   6.981   8.374  0.4142  0.3552 -0.4001
  642MOL0     C88488   8.302   6.942   8.439 -0.2323  0.1880  0.1609
  642MOL0     O88489   8.407   6.914   8.351  0.0733  1.0063 -0.4301
  642MOL0     C88490   8.523   6.860   8.400 -0.3772 -0.1351 -0.8563
  642MOL0     C88491   8.606   6.921   8.501 -0.0468  0.7750  0.0974
  642MOL0     C88492   8.736   6.864   8.541  0.6021 -0.9696 -0.1960
  642MOL0     C88493   8.764   6.737   8.492  0.3934  0.6881 -0.0494
  642MOL0     O88494   8.871   6.665   8.524  0.5020 -0.3157 -0.3760
  642MOL0     C88495   8.988   6.739   8.563 -0.1276 -1.2545 -0.5512
  642MOL0     C88496   9.105   6.642   8.570 -1.4169  0.7534 -0.4082
  642MOL0     C88497   9.243   6.697   8.603 -1.1409 -0.0587 -0.1672
  642MOL0     C88498   9.340   6.567   8.623  0.6703 -0.3185  0.1798
  642MOL0     C88499   9.482   6.613   8.633 -0.6085  0.3842 -0.0759
  642MOL0     C88500   9.540   6.686   8.514  0.7553 -0.2217  0.2288
  642MOL0     C88501   9.691   6.709   8.514 -0.7528 -0.0748  0.5608
  642MOL0     C88502   9.730   6.790   8.393  0.7133 -1.0826 -0.0821
  642MOL0    Cl88503   9.698   6.689   8.241  0.1669 -0.3302  0.0035
  642MOL0     C88504   8.686   6.676   8.394  0.3269 -0.8217 -0.8815
  642MOL0     C88505   8.570   6.735   8.348 -0.0949  0.4685 -0.8099
  642MOL0     O88506   8.308   6.931   8.556 -0.3710 -0.1809 -0.5778
  642MOL0     C88507   8.130   6.898   8.273  1.1039 -0.4998 -0.2115
  642MOL0     C88508   7.999   6.934   8.223 -0.2046 -0.0002  0.2339
  642MOL0     N88509   7.763   7.449   8.022 -0.4115  0.2892  0.0399
  642MOL0     N88510   7.718   7.562   7.983  0.0690  0.1308 -0.0673
  642MOL0     C88511   7.608   8.474   7.119  0.6923  0.3184 -0.1138
  642MOL0     C88512   7.564   8.530   6.997  0.3287  0.0631  0.1111
  642MOL0     C88513   7.371   8.595   6.684 -0.0408  0.5051  0.0683
  642MOL0     C88514   7.406   8.729   6.695  0.3905 -0.9154  0.0372
  642MOL0     C88515   7.319   8.835   6.685 -0.3467  0.6678  0.3358
  642MOL0     C88516   7.188   8.816   6.675  0.2536  0.4691  0.6878
  642MOL0     O88517   7.090   8.916   6.673 -0.1781 -0.0249  0.2918
  642MOL0     C88518   7.117   9.053   6.711  0.5029 -0.8571  0.5929
  642MOL0     C88519   6.980   9.132   6.717  0.5186  0.0117 -0.6049
  642MOL0     C88520   6.885   9.069   6.822 -1.0780  0.6420 -0.5444
  642MOL0     C88521   6.748   9.113   6.811  0.0257  0.4132 -0.1706
  642MOL0     C88522   6.659   9.085   6.924 -0.6787  0.5046 -0.4706
  642MOL0     C88523   6.588   9.055   7.018  0.2363 -0.1455 -0.3558
  642MOL0     C88524   7.144   8.683   6.664 -0.0308  0.2372  0.2674
  642MOL0     C88525   7.228   8.560   6.662  0.3985 -0.6594  0.9911
  642MOL0     C88526   7.149   8.428   6.647  0.3067 -0.5295  0.3268
  642MOL0     H88527   7.793   8.377   6.794  1.7531  4.3156  1.2722
  642MOL0     H88528   7.834   8.255   7.018  1.1212  1.1570  1.2932
  642MOL0     H88529   7.822   8.175   7.335 -0.5154  1.8933  1.6403
  642MOL0     H88530   7.747   8.131   7.179  2.0335  0.0288  0.3378
  642MOL0     H88531   7.591   8.202   7.421  0.5277  0.1389 -0.6580
  642MOL0     H88532   7.531   8.160   7.254 -1.4470 -2.3176  2.0359
  642MOL0     H88533   7.702   7.944   7.296  3.8299 -0.1273  2.5411
  642MOL0     H88534   7.708   7.994   7.456 -1.8163 -0.2723  0.9673
  642MOL0     H88535   7.425   7.990   7.421  1.3122  3.0661 -1.8678
  642MOL0     H88536   7.486   7.869   7.304  6.0090  2.5556 -3.2719
  642MOL0     H88537   7.620   7.752   7.485 -0.5466  0.8108  0.8203
  642MOL0     H88538   7.446   7.729   7.491  1.8754 -2.3944 -1.0070
  642MOL0     H88539   7.551   7.959   7.652  1.3953  0.2269 -2.1210
  642MOL0     H88540   7.421   7.841   7.691  2.0748 -2.8410  3.2651
  642MOL0     H88541   7.621   7.820   7.838 -0.2422 -1.6930  0.8946
  642MOL0     H88542   7.717   7.778   7.694 -0.1142  2.6748 -0.8964
  642MOL0     H88543   7.481   7.636   7.816  0.5939  1.2648  1.0006
  642MOL0     H88544   7.571   7.581   7.666  0.0378  1.0098 -1.2716
  642MOL0     H88545   7.680   7.392   7.704  2.6795 -0.2196 -0.1519
  642MOL0     H88546   7.869   7.194   7.974  1.2140 -3.9884 -3.7631
  642MOL0     H88547   7.805   7.167   7.818 -0.9688  0.8659 -0.3553
  642MOL0     H88548   7.562   7.146   7.937 -0.5650  0.5147  2.4806
  642MOL0     H88549   7.683   7.034   7.991 -1.4648 -0.8268 -1.3894
  642MOL0     H88550   7.603   7.289   8.136 -4.1774 -1.2155  0.4825
  642MOL0     H88551   7.560   7.120   8.166  0.7576 -2.1073 -3.1484
  642MOL0     H88552   7.831   7.258   8.190  0.4412 -0.1513 -0.9963
  642MOL0     H88553   7.714   7.231   8.319  2.9648  1.4161  0.2115
  642MOL0     H88554   7.939   7.209   8.429 -1.2705 -0.9644 -1.1413
  642MOL0     H88555   8.162   7.185   8.616 -0.4658 -0.4277  0.3451
  642MOL0     H88556   8.160   7.304   8.483  0.4172 -0.1136 -1.3803
  642MOL0     H88557   8.290   7.198   8.496  0.0987 -4.0550  0.6956
  642MOL0     H88558   8.579   7.014   8.549  0.3390  1.9869 -1.8969
  642MOL0     H88559   8.800   6.915   8.612  2.4384 -0.9706 -1.7614
  642MOL0     H88560   9.010   6.820   8.492  3.5142 -0.6982  0.9485
  642MOL0     H88561   8.984   6.785   8.662  0.3910  2.4997 -2.1171
  642MOL0     H88562   9.080   6.577   8.654  3.1144 -1.1624 -0.2399
  642MOL0     H88563   9.102   6.585   8.477 -0.5445  0.7436 -0.4459
  642MOL0     H88564   9.244   6.756   8.695 -0.0629 -2.7691  1.6993
  642MOL0     H88565   9.281   6.748   8.514 -1.1017 -0.7545 -0.5591
  642MOL0     H88566   9.350   6.514   8.528  1.9996  1.6345 -0.8528
  642MOL0     H88567   9.303   6.500   8.701  0.3614  0.4488  0.7174
  642MOL0     H88568   9.490   6.671   8.726 -2.2563  1.1816 -0.3928
  642MOL0     H88569   9.540   6.521   8.643  2.3623  2.0486 -0.7940
  642MOL0     H88570   9.498   6.786   8.515 -0.3034 -0.6406 -0.4825
  642MOL0     H88571   9.519   6.638   8.418  1.8965  1.7928 -1.1010
  642MOL0     H88572   9.729   6.606   8.516 -0.0414  0.0938 -1.6935
  642MOL0     H88573   9.734   6.757   8.602  1.4177  0.2308 -0.5882
  642MOL0     H88574   9.837   6.813   8.399  0.2229  1.0762  1.7051
  642MOL0     H88575   9.667   6.879   8.382  2.6913  0.1192 -2.8099
  642MOL0     H88576   8.728   6.594   8.337  1.3562 -0.3371 -0.8476
  642MOL0     H88577   8.504   6.685   8.278 -4.4528  0.5318  2.8497
  642MOL0     H88578   8.175   6.805   8.238 -1.9105 -3.1183  2.2463
  642MOL0     H88579   7.950   6.869   8.152  0.1968 -1.0467  0.9011
  642MOL0     H88580   7.562   8.520   7.206  0.1027  0.6845 -0.6147
  642MOL0     H88581   7.479   8.598   6.992  0.3605  0.1074  0.1910
  642MOL0     H88582   7.508   8.766   6.707 -0.3468  1.1535  0.2985
  642MOL0     H88583   7.371   8.930   6.694 -1.2228  1.0615  1.5263
  642MOL0     H88584   7.174   9.070   6.802  1.3050 -0.3398  0.0134
  642MOL0     H88585   7.171   9.102   6.629 -1.9565 -0.3638 -0.8330
  642MOL0     H88586   6.938   9.151   6.617  1.2537  0.2067 -0.8829
  642MOL0     H88587   7.006   9.229   6.761 -0.6177  0.1960 -0.2906
  642MOL0     H88588   6.887   8.961   6.806  0.0507  0.8264 -1.8433
  642MOL0     H88589   6.927   9.078   6.923  0.6713  2.1321 -1.3298
  642MOL0     H88590   6.725   9.063   6.716  0.4677  1.2922 -0.7494
  642MOL0     H88591   6.733   9.219   6.787  0.1368  0.6640  0.8472
  642MOL0     H88592   6.530   9.032   7.105 -1.2267 -2.2505 -1.8035
  642MOL0     H88593   7.036   8.681   6.658 -0.1206  3.2092 -0.6621
  642MOL0     H88594   7.209   8.345   6.686  1.6107  0.5470  0.6912
  642MOL0     H88595   7.053   8.430   6.700 -0.3363 -1.3923 -0.7774
  642MOL0     H88596   7.129   8.418   6.540 -1.8274 -0.6971  0.6993
  643MOL0     O88597   7.798  10.282   2.683 -0.0860  0.5054  0.7213
  643MOL0     C88598   7.915  10.333   2.684  0.2995  0.1024 -0.5468
  643MOL0     O88599   8.029  10.272   2.643 -0.4157 -0.4567  0.2403
  643MOL0     C88600   8.058  10.132   2.638  0.2146 -0.3623 -0.0810
  643MOL0     C88601   8.034  10.044   2.743  0.2275 -0.2137  0.0292
  643MOL0     C88602   8.106   9.918   2.754 -0.1000 -0.1083 -0.1080
  643MOL0     C88603   8.198   9.889   2.651  0.0155  0.0758 -0.6880
  643MOL0     O88604   8.269   9.777   2.669 -0.1596  0.2256 -0.5551
  643MOL0     C88605   8.330   9.707   2.560 -0.2783  0.1486 -0.5205
  643MOL0     C88606   8.383   9.563   2.605  0.0999 -0.0456 -0.1721
  643MOL0     C88607   8.537   9.566   2.647  0.5386  0.1413 -0.6486
  643MOL0     C88608   8.554   9.485   2.782 -0.2397 -0.5907  0.8916
  643MOL0     C88609   8.701   9.476   2.829 -0.1819 -0.4397 -0.0006
  643MOL0     C88610   8.736   9.617   2.883  0.5030 -0.7343  0.8714
  643MOL0     C88611   8.876   9.631   2.955  0.5775  0.3168  0.1534
  643MOL0     C88612   8.888   9.781   3.008 -0.3352  0.0426  0.3544
  643MOL0     N88613   8.790   9.821   3.116 -0.1559  0.0570  1.3970
  643MOL0     C88614   8.768   9.741   3.220  0.7574  0.0454 -0.2870
  643MOL0     C88615   8.662   9.806   3.284  0.3912 -0.6555 -0.3137
  643MOL0     C88616   8.613   9.778   3.430  0.0147 -0.0347  0.1864
  643MOL0     C88617   8.485   9.843   3.472  0.0944 -0.7467  0.0691
  643MOL0     C88618   8.454   9.792   3.612  0.0946 -0.0600 -0.2093
  643MOL0     C88619   8.552   9.847   3.728  0.2058  0.1876  0.8593
  643MOL0     O88620   8.604   9.983   3.717 -0.6347  0.3551  0.6988
  643MOL0     C88621   8.720   9.993   3.794  0.4495  0.4366 -0.4658
  643MOL0     C88622   8.831  10.056   3.740  0.7195 -0.3434  0.1177
  643MOL0     C88623   8.946  10.070   3.811 -0.3056 -0.4583 -0.6560
  643MOL0     C88624   9.047  10.154   3.747  0.2833  0.4527  0.3280
  643MOL0     C88625   8.957  10.022   3.943 -0.8296 -0.1908 -0.8571
  643MOL0     C88626   9.074  10.017   4.038  0.8051  0.4636 -0.6423
  643MOL0     O88627   9.059   9.936   4.151  0.7658 -0.7185  0.3337
  643MOL0     C88628   9.150   9.939   4.254 -0.1903 -0.6355  0.0036
  643MOL0     C88629   9.144  10.035   4.348  1.0744  1.4963  0.1132
  643MOL0     C88630   9.218  10.033   4.462 -0.6565 -0.2304 -0.5035
  643MOL0     C88631   9.318   9.938   4.484 -0.6491  0.8687  0.5684
  643MOL0     O88632   9.382   9.949   4.600 -0.8460 -0.0661  0.3758
  643MOL0     C88633   9.520   9.898   4.602  0.8232 -0.6839 -0.6784
  643MOL0     C88634   9.586   9.927   4.737 -0.0100  0.0475  0.4651
  643MOL0     C88635   9.593  10.082   4.762  0.4488  0.2204 -0.7245
  643MOL0     C88636   9.655  10.104   4.898  0.0757 -0.3824 -0.0577
  643MOL0     C88637   9.684  10.258   4.929 -0.1152  1.0709  0.5560
  643MOL0     C88638   9.727  10.280   5.072  0.0570 -0.2763  0.0551
  643MOL0     C88639   9.851  10.201   5.128  0.6753  0.5163  0.4215
  643MOL0     C88640   9.932  10.274   5.229 -0.4713 -1.2065 -1.1669
  643MOL0    Cl88641   9.825  10.329   5.356  0.1003 -0.0964 -0.1981
  643MOL0     C88642   9.334   9.840   4.381  0.0367  0.1198  0.6331
  643MOL0     C88643   9.234   9.825   4.282 -0.3900 -0.2828 -0.3731
  643MOL0     O88644   9.163  10.094   4.016 -0.1669 -0.3308 -0.5586
  643MOL0     C88645   8.843   9.961   3.990  0.8609 -0.6409 -0.0907
  643MOL0     C88646   8.724   9.943   3.921 -0.2711 -0.8074  1.3210
  643MOL0     N88647   8.616   9.911   3.204  0.0498  0.4315 -0.9286
  643MOL0     N88648   8.693   9.920   3.108  0.6270 -0.1204  0.5460
  643MOL0     C88649   8.223   9.985   2.551 -0.3098  0.1517  0.8583
  643MOL0     C88650   8.159  10.108   2.548  0.7913  0.1314  0.0423
  643MOL0     C88651   7.921  10.481   2.702  0.0584 -0.0772  0.7143
  643MOL0     C88652   8.044  10.536   2.684 -0.8111 -0.4966 -1.1862
  643MOL0     C88653   8.064  10.674   2.703 -0.4452  0.8673 -0.1402
  643MOL0     C88654   7.957  10.764   2.722 -1.0637  0.6927 -0.4557
  643MOL0     O88655   7.988  10.901   2.719 -0.2849  0.6480  0.5549
  643MOL0     C88656   7.909  10.989   2.638 -0.0687 -0.2827  0.1215
  643MOL0     C88657   8.002  11.072   2.557 -0.8846 -0.6610 -0.1589
  643MOL0     C88658   8.112  11.145   2.641 -0.6787  0.2807  0.9042
  643MOL0     C88659   8.073  11.246   2.750 -0.4873  0.5835 -0.3669
  643MOL0     C88660   8.001  11.347   2.674 -0.2549 -0.7033  1.0519
  643MOL0     C88661   7.940  11.438   2.613  0.0661  0.8760 -0.0071
  643MOL0     C88662   7.830  10.699   2.741 -0.2889 -0.9391  0.8104
  643MOL0     C88663   7.809  10.559   2.731 -0.1100  0.4281  0.0936
  643MOL0     C88664   7.674  10.515   2.787 -0.8686 -0.6815 -0.5709
  643MOL0     H88665   7.963  10.082   2.816  0.6040  2.6764 -0.9840
  643MOL0     H88666   8.089   9.859   2.843  0.0876  3.4461  2.5262
  643MOL0     H88667   8.418   9.762   2.527  0.4096  0.2249  1.2992
  643MOL0     H88668   8.265   9.696   2.473  0.5163 -0.8067 -0.9993
  643MOL0     H88669   8.322   9.524   2.687 -1.4407 -0.1183 -1.3238
  643MOL0     H88670   8.393   9.496   2.519  3.3463  1.0445 -0.7758
  643MOL0     H88671   8.597   9.507   2.577 -0.1150 -0.0742 -1.0391
  643MOL0     H88672   8.576   9.668   2.656  1.1985 -0.2973  3.4201
  643MOL0     H88673   8.498   9.541   2.857 -0.5474 -1.4274  1.2968
  643MOL0     H88674   8.512   9.385   2.768  0.5107 -1.4918  4.2083
  643MOL0     H88675   8.758   9.436   2.745 -2.6518 -2.7746 -0.7129
  643MOL0     H88676   8.699   9.395   2.903  0.7042  0.7122  1.3399
  643MOL0     H88677   8.755   9.686   2.800  4.4798 -1.6199  0.8210
  643MOL0     H88678   8.648   9.653   2.938  1.9049  0.7154  2.2954
  643MOL0     H88679   8.960   9.609   2.890  0.0236 -3.5557  0.5322
  643MOL0     H88680   8.872   9.559   3.037 -1.7906  1.6942  1.3846
  643MOL0     H88681   8.989   9.799   3.046 -0.0906  0.3903 -0.4454
  643MOL0     H88682   8.865   9.844   2.921  1.1974  2.6222  1.7052
  643MOL0     H88683   8.820   9.659   3.268  1.3609  1.8915  2.4696
  643MOL0     H88684   8.698   9.795   3.497 -1.9234  1.5273  2.3713
  643MOL0     H88685   8.602   9.670   3.432  1.7370 -0.2547 -0.1216
  643MOL0     H88686   8.487   9.952   3.463  3.6353 -0.6857  0.2481
  643MOL0     H88687   8.404   9.802   3.411 -1.3474  0.1731  1.2842
  643MOL0     H88688   8.352   9.822   3.639 -1.5378 -2.0606 -3.4409
  643MOL0     H88689   8.455   9.682   3.607  0.1953 -0.0084 -1.5996
  643MOL0     H88690   8.498   9.836   3.823 -1.4235 -1.6253 -0.1879
  643MOL0     H88691   8.634   9.775   3.734 -0.5630 -1.0411 -1.6866
  643MOL0     H88692   8.828  10.104   3.643 -2.0069  1.2021  0.8685
  643MOL0     H88693   9.020  10.257   3.775 -4.3094 -0.0005 -1.5427
  643MOL0     H88694   9.038  10.163   3.639  4.4948  1.3278 -0.1386
  643MOL0     H88695   9.148  10.114   3.760 -0.1822 -0.2037  2.2139
  643MOL0     H88696   9.083  10.122   4.327  0.2608  0.9478  0.1607
  643MOL0     H88697   9.209  10.097   4.548  1.3300 -5.1923  3.9943
  643MOL0     H88698   9.523   9.790   4.584 -0.2164 -0.2848 -3.9465
  643MOL0     H88699   9.582   9.940   4.522 -0.1982  1.0230 -0.6179
  643MOL0     H88700   9.534   9.885   4.823  0.4951  0.7284  1.1117
  643MOL0     H88701   9.688   9.888   4.734  0.3440  0.9778 -0.5862
  643MOL0     H88702   9.497  10.134   4.750 -0.6366 -1.2534  1.1497
  643MOL0     H88703   9.646  10.131   4.680 -1.5141  1.5440 -1.2935
  643MOL0     H88704   9.745  10.041   4.893 -1.7452 -3.0412 -4.0391
  643MOL0     H88705   9.587  10.060   4.972  0.5223 -0.9537  0.0268
  643MOL0     H88706   9.767  10.282   4.862  0.3617  2.1636  1.4977
  643MOL0     H88707   9.595  10.310   4.894  0.6504  0.2620 -2.9336
  643MOL0     H88708   9.647  10.263   5.145 -1.0229  0.4252 -0.9381
  643MOL0     H88709   9.753  10.386   5.083 -1.1217 -0.1906  3.3010
  643MOL0     H88710   9.925  10.184   5.050  1.1853  2.1072  0.5120
  643MOL0     H88711   9.829  10.107   5.179  1.1929 -0.1427 -0.5568
  643MOL0     H88712   9.970  10.362   5.176 -1.0950 -0.5737 -0.5908
  643MOL0     H88713  10.015  10.214   5.266  0.3434  0.6454  0.1816
  643MOL0     H88714   9.412   9.766   4.392  0.3022  0.4443  0.9350
  643MOL0     H88715   9.236   9.744   4.210 -2.5244 -0.3813 -0.3918
  643MOL0     H88716   8.831   9.919   4.089  2.1216  1.5915  1.0729
  643MOL0     H88717   8.640   9.892   3.966 -2.5486  1.0640 -0.5221
  643MOL0     H88718   8.301   9.950   2.485  1.0198 -0.4751  2.6620
  643MOL0     H88719   8.185  10.187   2.478  2.1853 -1.2362 -1.0207
  643MOL0     H88720   8.130  10.473   2.662  0.6570  0.6372  0.9231
  643MOL0     H88721   8.167  10.703   2.684 -0.4850  0.4820 -0.9995
  643MOL0     H88722   7.835  10.938   2.576  0.7485 -1.5573  0.1764
  643MOL0     H88723   7.861  11.058   2.709  0.4127 -1.7561  1.9534
  643MOL0     H88724   7.948  11.135   2.486 -0.6435 -2.8879 -2.4950
  643MOL0     H88725   8.054  11.003   2.489 -1.3106 -1.4759  0.3223
  643MOL0     H88726   8.172  11.071   2.697  0.5289  0.6309  0.1152
  643MOL0     H88727   8.195  11.193   2.588  0.4838 -0.2244  2.1634
  643MOL0     H88728   8.159  11.295   2.797 -0.0369  2.2304 -2.7126
  643MOL0     H88729   8.012  11.192   2.822 -0.3762 -1.3446 -1.6389
  643MOL0     H88730   7.888  11.518   2.565  0.1935  0.5159 -0.7561
  643MOL0     H88731   7.745  10.760   2.769 -0.0817 -1.7666  3.5380
  643MOL0     H88732   7.648  10.595   2.857  3.3099 -1.4806  2.3097
  643MOL0     H88733   7.600  10.502   2.708 -2.3220  0.3037  0.5767
  643MOL0     H88734   7.684  10.417   2.836  2.6216 -0.9826 -1.6337
  644MOL0     O88735  10.339   3.258   6.457  0.3705 -0.6018 -0.6264
  644MOL0     C88736  10.245   3.176   6.459  0.5449 -0.1395 -0.6322
  644MOL0     O88737  10.227   3.075   6.558 -0.3618  0.0682 -0.3639
  644MOL0     C88738  10.326   3.026   6.649  0.1063  0.7220 -0.4119
  644MOL0     C88739  10.461   3.056   6.663 -0.3694  0.3497  0.4248
  644MOL0     C88740  10.539   2.985   6.756  0.4701  0.0551 -0.2063
  644MOL0     C88741  10.478   2.882   6.838 -1.1382  0.4617 -0.1948
  644MOL0     O88742  10.576   2.825   6.931  0.2892 -0.6401  0.2228
  644MOL0     C88743  10.564   2.687   6.962  0.7773  0.4245 -0.1610
  644MOL0     C88744  10.691   2.622   7.010  0.4086  0.5957 -0.2951
  644MOL0     C88745  10.773   2.713   7.093 -0.3650  0.4683  0.1958
  644MOL0     C88746  10.891   2.648   7.159  1.5766  0.9052 -0.0686
  644MOL0     C88747  10.960   2.726   7.264 -1.0643 -0.3123 -1.2221
  644MOL0     C88748  11.002   2.863   7.198 -0.1169 -0.3290 -0.3573
  644MOL0     C88749  11.093   2.949   7.283 -0.3247 -0.5549  0.1499
  644MOL0     C88750  11.237   2.897   7.286  0.3299 -0.0150  0.7357
  644MOL0     N88751  11.295   2.862   7.156 -0.0423 -0.3460  0.7749
  644MOL0     C88752  11.360   2.949   7.067  0.5419  0.9591  0.3077
  644MOL0     C88753  11.402   2.865   6.966  0.2422 -0.0346 -0.8623
  644MOL0     C88754  11.496   2.910   6.850 -0.0985  0.0422 -1.0360
  644MOL0     C88755  11.431   2.880   6.711 -0.7723  0.7160 -0.1350
  644MOL0     C88756  11.294   2.945   6.685 -0.5909  0.1162 -0.0649
  644MOL0     C88757  11.260   2.959   6.541  0.1755  0.2951  0.3239
  644MOL0     O88758  11.293   2.836   6.473 -0.6946  0.0022 -0.2082
  644MOL0     C88759  11.329   2.855   6.336 -0.3172 -1.1070 -0.2106
  644MOL0     C88760  11.467   2.837   6.302 -0.5132  0.6437 -0.9666
  644MOL0     C88761  11.518   2.869   6.180  0.1302  0.6165 -0.2008
  644MOL0     C88762  11.672   2.854   6.157  0.0243  0.4287  0.4261
  644MOL0     C88763  11.424   2.903   6.074 -0.5280 -0.0966  0.4264
  644MOL0     C88764  11.462   2.905   5.930  0.2047 -0.5698 -0.8841
  644MOL0     O88765  11.547   3.007   5.886 -0.6279 -0.0788  0.2340
  644MOL0     C88766  11.586   2.990   5.753 -0.4017 -0.1810 -0.7881
  644MOL0     C88767  11.699   2.911   5.720  0.0087  0.0733 -1.5770
  644MOL0     C88768  11.757   2.914   5.593  0.1118 -0.0603 -0.5066
  644MOL0     C88769  11.693   2.993   5.495 -0.3857 -0.2294 -0.2026
  644MOL0     O88770  11.723   2.992   5.361  0.5416 -0.0855  0.0082
  644MOL0     C88771  11.858   3.033   5.343 -0.6638  0.3166 -0.1890
  644MOL0     C88772  11.887   3.085   5.198  0.4943 -0.6170 -0.8371
  644MOL0     C88773  11.993   3.200   5.191  0.0242  0.3279  0.0566
  644MOL0     C88774  12.134   3.160   5.246  0.4078 -0.5627 -0.2926
  644MOL0     C88775  12.238   3.252   5.199  0.0838  1.2017  0.5280
  644MOL0     C88776  12.383   3.193   5.219  0.4048  0.8210 -0.6429
  644MOL0     C88777  12.487   3.299   5.172 -0.0289 -0.5311  0.4793
  644MOL0     C88778  12.535   3.316   5.027 -0.1884  0.7257 -0.4945
  644MOL0    Cl88779  12.424   3.422   4.928  0.5011 -0.2077 -0.1046
  644MOL0     C88780  11.578   3.064   5.525  0.2829 -0.8233  0.7345
  644MOL0     C88781  11.522   3.059   5.654 -0.2252 -0.0417  0.4694
  644MOL0     O88782  11.431   2.808   5.859  0.1031 -0.1717 -0.4590
  644MOL0     C88783  11.281   2.909   6.101  0.4797 -0.4535 -0.2465
  644MOL0     C88784  11.237   2.892   6.233 -0.3718 -0.0910 -0.6385
  644MOL0     N88785  11.358   2.734   6.989 -0.3062 -0.2523 -0.1090
  644MOL0     N88786  11.303   2.738   7.104 -0.0721  0.8820  0.1443
  644MOL0     C88787  10.342   2.856   6.827 -0.8680 -0.4174 -0.4081
  644MOL0     C88788  10.273   2.928   6.729 -0.4250  0.0713 -0.8145
  644MOL0     C88789  10.125   3.211   6.378  1.0745  0.0392  0.3586
  644MOL0     C88790   9.992   3.170   6.421 -0.7792  0.1441 -0.1428
  644MOL0     C88791   9.882   3.222   6.369 -0.4068 -0.0962 -0.1167
  644MOL0     C88792   9.891   3.304   6.256 -0.2936 -0.5040  0.0621
  644MOL0     O88793   9.777   3.371   6.215  0.0576 -0.6191 -0.6019
  644MOL0     C88794   9.715   3.303   6.103  0.1999  0.5080  0.4857
  644MOL0     C88795   9.566   3.287   6.154  0.3193 -0.0805  0.4878
  644MOL0     C88796   9.529   3.153   6.226 -0.5895 -0.1571  0.2915
  644MOL0     C88797   9.415   3.174   6.326 -0.0210  0.5411 -0.3491
  644MOL0     C88798   9.485   3.224   6.453  0.0862  0.5633 -0.3589
  644MOL0     C88799   9.526   3.259   6.559 -0.8862  0.3703  0.7755
  644MOL0     C88800  10.010   3.336   6.199  0.1384 -0.5348 -0.0848
  644MOL0     C88801  10.130   3.294   6.256  1.2021  0.5213 -0.7020
  644MOL0     C88802  10.263   3.329   6.185 -0.5231 -0.2209 -0.5268
  644MOL0     H88803  10.508   3.135   6.605 -0.3626 -0.1969 -0.3165
  644MOL0     H88804  10.641   3.012   6.780  0.4263 -1.0890  1.5210
  644MOL0     H88805  10.530   2.624   6.879 -0.5080 -1.3309  1.5804
  644MOL0     H88806  10.489   2.674   7.041  0.3584  2.4514 -0.1652
  644MOL0     H88807  10.669   2.530   7.065 -0.6291  0.2105 -1.3210
  644MOL0     H88808  10.753   2.587   6.927  0.2887 -0.5019  0.0630
  644MOL0     H88809  10.807   2.797   7.032 -3.4898  1.8204  0.0935
  644MOL0     H88810  10.711   2.757   7.172 -1.0312  0.0109 -0.0665
  644MOL0     H88811  10.856   2.567   7.225  0.9708  3.4550  2.9897
  644MOL0     H88812  10.953   2.605   7.080  0.0369 -2.1006  0.1926
  644MOL0     H88813  11.043   2.674   7.312 -2.1079  1.0629  2.4354
  644MOL0     H88814  10.906   2.739   7.358 -0.4492 -1.7849 -0.6309
  644MOL0     H88815  11.050   2.842   7.102 -1.1525 -1.1621 -0.6994
  644MOL0     H88816  10.917   2.925   7.169  0.2639 -0.4736 -1.8662
  644MOL0     H88817  11.057   2.945   7.386  0.6311 -2.3617  0.4460
  644MOL0     H88818  11.090   3.052   7.245 -0.6582 -0.5985  0.0506
  644MOL0     H88819  11.313   2.964   7.329 -1.0014  2.3165 -0.3445
  644MOL0     H88820  11.233   2.801   7.339 -0.6497 -0.3783  0.0371
  644MOL0     H88821  11.393   3.048   7.096  0.8516  0.5753  1.3369
  644MOL0     H88822  11.595   2.869   6.874 -1.0408 -0.4155  2.8846
  644MOL0     H88823  11.523   3.016   6.849  0.2076 -0.0318 -0.9818
  644MOL0     H88824  11.498   2.893   6.626 -3.3297  0.6275 -2.2880
  644MOL0     H88825  11.408   2.773   6.717 -1.2651  0.8253 -0.0484
  644MOL0     H88826  11.218   2.888   6.738 -1.6613 -0.5698 -2.2316
  644MOL0     H88827  11.304   3.047   6.722 -2.7861  1.5339 -3.0526
  644MOL0     H88828  11.158   2.986   6.514  0.6414  1.4030 -0.3772
  644MOL0     H88829  11.325   3.042   6.513 -1.9561  1.7740 -0.5011
  644MOL0     H88830  11.540   2.797   6.372 -3.2680  1.1195  2.4849
  644MOL0     H88831  11.727   2.933   6.209 -1.5584  1.0182  1.2837
  644MOL0     H88832  11.708   2.848   6.054  2.7352  0.2513  1.3191
  644MOL0     H88833  11.689   2.762   6.213 -1.9383 -0.9094 -1.0533
  644MOL0     H88834  11.754   2.851   5.792  0.6522  1.0894 -1.2079
  644MOL0     H88835  11.837   2.844   5.572 -3.1247 -3.7567 -1.9051
  644MOL0     H88836  11.870   3.123   5.405  0.4959  0.5926 -0.7708
  644MOL0     H88837  11.934   2.957   5.364  1.7807  1.5279 -3.6191
  644MOL0     H88838  11.900   2.995   5.138 -1.0689  0.0435 -2.2645
  644MOL0     H88839  11.798   3.141   5.166  0.4444 -0.2244 -0.0412
  644MOL0     H88840  11.956   3.280   5.255  4.8846  1.6567  1.6489
  644MOL0     H88841  12.013   3.237   5.090  0.2804  2.2925  0.7759
  644MOL0     H88842  12.170   3.065   5.205  2.1323  1.1098 -2.9732
  644MOL0     H88843  12.138   3.158   5.356 -3.3469 -0.1138  0.0083
  644MOL0     H88844  12.219   3.264   5.092 -0.3300  1.1147  0.5899
  644MOL0     H88845  12.217   3.349   5.244 -2.5232  0.5660  0.8627
  644MOL0     H88846  12.400   3.091   5.181 -2.0462 -1.1906  3.0329
  644MOL0     H88847  12.402   3.186   5.326  3.7928  1.1709 -1.1164
  644MOL0     H88848  12.584   3.273   5.217  0.0714 -1.7924 -0.4299
  644MOL0     H88849  12.466   3.401   5.206  2.6083 -0.2105  1.3905
  644MOL0     H88850  12.557   3.219   4.983  3.5555  3.1792 -4.9092
  644MOL0     H88851  12.629   3.367   5.050 -0.5607  1.2429 -0.0726
  644MOL0     H88852  11.515   3.117   5.454 -0.2349 -1.4307  0.7260
  644MOL0     H88853  11.422   3.097   5.671 -0.7518 -0.6926 -0.9378
  644MOL0     H88854  11.209   2.914   6.020 -1.8172  0.5581  1.7379
  644MOL0     H88855  11.137   2.892   6.275  0.4037 -2.2224  1.4124
  644MOL0     H88856  10.299   2.784   6.896 -1.2596  0.8114  0.6567
  644MOL0     H88857  10.165   2.916   6.739 -0.3987  0.0271 -0.5978
  644MOL0     H88858   9.989   3.092   6.497 -1.7267 -1.4904 -1.7785
  644MOL0     H88859   9.788   3.202   6.419  0.8129 -1.8274  1.6267
  644MOL0     H88860   9.728   3.358   6.010 -3.2518 -2.1191 -1.8213
  644MOL0     H88861   9.758   3.205   6.082  0.6353  0.7287  0.3455
  644MOL0     H88862   9.504   3.295   6.064  5.0728  1.0835 -3.1058
  644MOL0     H88863   9.549   3.375   6.216  0.0467 -1.0985  1.9058
  644MOL0     H88864   9.505   3.082   6.147 -0.5445  0.7453 -0.5526
  644MOL0     H88865   9.622   3.121   6.274  0.6518  0.4327 -1.6029
  644MOL0     H88866   9.353   3.086   6.346 -1.3108  1.0120 -1.9425
  644MOL0     H88867   9.338   3.246   6.293  0.1882  0.6585 -0.5831
  644MOL0     H88868   9.558   3.313   6.646 -0.2175  0.4666  0.4770
  644MOL0     H88869  10.013   3.397   6.109 -0.1538  3.1938  2.2055
  644MOL0     H88870  10.292   3.230   6.147  1.5560  0.6056 -1.2352
  644MOL0     H88871  10.256   3.380   6.088 -0.0214  1.4502  0.2953
  644MOL0     H88872  10.338   3.387   6.240  0.1292  0.3053 -1.9172
  645MOL0     O88873   4.521   8.778  11.036 -0.1948  0.2692 -0.3231
  645MOL0     C88874   4.565   8.793  11.149 -0.0137 -0.6804  0.2963
  645MOL0     O88875   4.674   8.873  11.186  0.2205 -0.1263 -0.3991
  645MOL0     C88876   4.739   8.934  11.094 -0.4891 -0.9302 -0.3424
  645MOL0     C88877   4.732   9.072  11.074  0.4619 -0.5953 -0.3905
  645MOL0     C88878   4.826   9.135  10.986  0.3050  0.6600 -0.9451
  645MOL0     C88879   4.904   9.056  10.898 -0.2899  0.4578  0.4101
  645MOL0     O88880   4.985   9.093  10.800  0.3381 -0.3009  0.2559
  645MOL0     C88881   5.035   9.229  10.799  0.7217 -0.4450  0.3223
  645MOL0     C88882   5.101   9.263  10.939 -0.0636 -0.8470 -0.4085
  645MOL0     C88883   5.195   9.386  10.921 -0.6481 -1.0689 -0.0891
  645MOL0     C88884   5.129   9.522  10.916  0.6189  0.7266  0.3479
  645MOL0     C88885   5.234   9.626  10.931  0.6173 -0.8995 -0.5233
  645MOL0     C88886   5.178   9.768  10.948 -0.8886 -0.1453 -0.3966
  645MOL0     C88887   5.283   9.877  10.920 -0.2256 -0.4199  0.1933
  645MOL0     C88888   5.218  10.023  10.917 -0.6105  0.5981 -0.3107
  645MOL0     N88889   5.155  10.051  11.049 -0.3462 -0.5678 -0.2849
  645MOL0     C88890   5.199  10.145  11.138 -0.7495 -1.4149  1.6827
  645MOL0     C88891   5.095  10.166  11.221 -0.9640 -0.9924  0.3723
  645MOL0     C88892   5.079  10.264  11.329  0.1910 -0.2211 -0.7034
  645MOL0     C88893   5.077  10.407  11.289 -0.3850 -0.9616  0.0545
  645MOL0     C88894   5.074  10.520  11.402 -0.2132  0.1847 -0.5386
  645MOL0     C88895   4.927  10.533  11.451 -0.8747 -0.8337 -0.0081
  645MOL0     O88896   4.923  10.639  11.547  0.2503 -0.5973  0.0530
  645MOL0     C88897   4.923  10.608  11.679  0.8146 -0.1016  0.2269
  645MOL0     C88898   4.883  10.710  11.765 -0.0174 -0.1055 -0.2075
  645MOL0     C88899   4.878  10.690  11.903 -0.7408 -0.0380  0.6962
  645MOL0     C88900   4.843  10.815  11.987 -0.4940 -0.3276 -0.4555
  645MOL0     C88901   4.910  10.559  11.954 -0.1294  0.5366 -0.0621
  645MOL0     C88902   4.898  10.519  12.102  0.5066 -0.5287 -0.1643
  645MOL0     O88903   4.951  10.399  12.140 -0.8806 -0.2626 -0.7589
  645MOL0     C88904   4.920  10.349  12.268  0.3308 -0.0168  0.5524
  645MOL0     C88905   5.027  10.331  12.344 -0.2256  0.4508  0.1706
  645MOL0     C88906   5.021  10.280  12.472 -0.5969  1.0928 -0.2711
  645MOL0     C88907   4.894  10.245  12.525 -0.7422 -1.0381 -0.5601
  645MOL0     O88908   4.883  10.201  12.650  0.3301 -0.9673 -0.8364
  645MOL0     C88909   4.933  10.070  12.676  0.4029 -0.5429 -0.1557
  645MOL0     C88910   4.999  10.052  12.819 -0.2418 -0.0728 -0.0314
  645MOL0     C88911   5.110   9.949  12.814 -0.1770  0.4458 -0.1656
  645MOL0     C88912   5.149   9.924  12.970 -0.4919 -0.2573 -0.0950
  645MOL0     C88913   5.219   9.789  13.000 -0.6257 -0.0595 -0.7796
  645MOL0     C88914   5.308   9.799  13.131  0.3035  0.0417  0.4546
  645MOL0     C88915   5.373   9.678  13.188  0.6911  1.2255  0.0962
  645MOL0     C88916   5.285   9.567  13.231  0.0482  0.2376  0.2188
  645MOL0    Cl88917   5.140   9.613  13.321 -0.5900  0.5141  0.3725
  645MOL0     C88918   4.777  10.269  12.446 -0.3292  0.7287 -0.5160
  645MOL0     C88919   4.795  10.317  12.316  0.2164  0.7327  0.7875
  645MOL0     O88920   4.821  10.588  12.167 -0.3632 -0.8239 -0.3266
  645MOL0     C88921   4.959  10.460  11.864 -0.3245  0.2168  0.1362
  645MOL0     C88922   4.954  10.489  11.735 -0.5210  0.2563  0.4339
  645MOL0     N88923   4.989  10.091  11.184 -0.1070 -0.1999 -1.4945
  645MOL0     N88924   5.025  10.017  11.082 -0.3759  0.1197 -0.3479
  645MOL0     C88925   4.904   8.918  10.912  0.1138 -0.8827  0.3642
  645MOL0     C88926   4.823   8.861  11.005 -0.7771  0.4037  0.3300
  645MOL0     C88927   4.498   8.707  11.241  0.2657  0.3211  0.1892
  645MOL0     C88928   4.576   8.643  11.333  0.3338  0.2368 -0.4589
  645MOL0     C88929   4.524   8.555  11.433  0.3535 -0.2987 -0.5516
  645MOL0     C88930   4.388   8.531  11.435  0.2687  1.1020 -0.2325
  645MOL0     O88931   4.324   8.456  11.527 -0.2878  0.2850 -0.5800
  645MOL0     C88932   4.394   8.343  11.592  0.3435 -0.1944  0.0920
  645MOL0     C88933   4.297   8.284  11.704 -0.4148  0.3589 -0.1124
  645MOL0     C88934   4.368   8.202  11.811  0.2750 -0.8773  0.3066
  645MOL0     C88935   4.264   8.134  11.910  0.2957 -0.0426  0.6457
  645MOL0     C88936   4.319   8.052  12.017 -0.5062  0.0938  0.3260
  645MOL0     C88937   4.366   7.993  12.109  0.0077  0.8790 -0.5943
  645MOL0     C88938   4.312   8.591  11.337  0.0797  0.1195  0.1873
  645MOL0     C88939   4.360   8.678  11.239 -0.4193  0.4666  0.1474
  645MOL0     C88940   4.265   8.752  11.141  0.6057 -0.3662  0.2200
  645MOL0     H88941   4.665   9.130  11.137 -1.8449 -1.0025 -2.3573
  645MOL0     H88942   4.830   9.242  11.000 -0.4388  0.2603  3.9880
  645MOL0     H88943   4.961   9.309  10.785  1.4880  0.0336 -1.1928
  645MOL0     H88944   5.116   9.236  10.726  1.1803 -0.4454  0.8274
  645MOL0     H88945   5.033   9.287  11.022  2.6706  0.9634  1.4819
  645MOL0     H88946   5.157   9.177  10.977  2.0362 -0.6055 -2.7074
  645MOL0     H88947   5.266   9.378  11.004 -1.1981 -1.8716  0.3123
  645MOL0     H88948   5.261   9.378  10.834  0.7607 -1.8347  1.0124
  645MOL0     H88949   5.067   9.527  10.826  1.6569 -1.5670 -0.5922
  645MOL0     H88950   5.053   9.530  10.994  1.6737 -1.1099  1.6495
  645MOL0     H88951   5.304   9.626  10.847 -0.8450 -0.4656 -1.7824
  645MOL0     H88952   5.298   9.616  11.019  2.4368  3.8756 -0.9997
  645MOL0     H88953   5.102   9.782  10.871 -0.4933 -2.9077 -1.3902
  645MOL0     H88954   5.131   9.780  11.047 -0.2819 -1.6868  0.0975
  645MOL0     H88955   5.335   9.866  10.824  0.2470 -3.7121  0.6942
  645MOL0     H88956   5.363   9.886  10.993  2.2355  2.2652 -2.5643
  645MOL0     H88957   5.285  10.105  10.890 -0.2172 -0.1567 -1.7539
  645MOL0     H88958   5.136  10.002  10.847  0.4209  0.6004 -1.5552
  645MOL0     H88959   5.289  10.202  11.118 -1.6168  1.1901  4.5304
  645MOL0     H88960   5.155  10.250  11.407 -1.2246 -0.9076  0.6276
  645MOL0     H88961   4.989  10.241  11.387 -0.1598 -4.1227 -2.4417
  645MOL0     H88962   5.175  10.414  11.241  0.0346 -1.4875  0.8188
  645MOL0     H88963   5.004  10.435  11.213  1.9203  0.6957 -1.6900
  645MOL0     H88964   5.145  10.498  11.482 -1.3218 -1.6148 -0.0133
  645MOL0     H88965   5.102  10.617  11.359 -0.4357 -0.1997 -1.5897
  645MOL0     H88966   4.864  10.573  11.370 -1.0753  2.7542  1.7295
  645MOL0     H88967   4.891  10.436  11.484 -2.6163 -0.5009 -0.7869
  645MOL0     H88968   4.855  10.809  11.732  0.2923 -0.7436 -2.5536
  645MOL0     H88969   4.887  10.808  12.086  1.4107 -0.1252 -1.2547
  645MOL0     H88970   4.734  10.819  11.996 -0.4779  0.7295 -0.5966
  645MOL0     H88971   4.876  10.904  11.932 -1.0877 -0.5069 -1.1277
  645MOL0     H88972   5.125  10.353  12.301 -1.0516  1.0698 -1.4805
  645MOL0     H88973   5.116  10.263  12.522  0.3616  2.0135 -1.6793
  645MOL0     H88974   4.860   9.992  12.652  0.7689 -1.0574  0.3581
  645MOL0     H88975   5.020  10.051  12.613  1.9292 -2.3489  2.3270
  645MOL0     H88976   5.046  10.145  12.854 -2.8470  1.6219 -0.7556
  645MOL0     H88977   4.929  10.015  12.894  2.2805 -1.2342  1.9142
  645MOL0     H88978   5.192  10.000  12.763  0.5734 -0.6037 -0.0282
  645MOL0     H88979   5.094   9.856  12.757  0.8056  1.5163 -2.2911
  645MOL0     H88980   5.062   9.911  13.035 -1.7110 -2.3299 -2.0137
  645MOL0     H88981   5.200  10.013  13.010  1.8771 -0.8684 -1.5588
  645MOL0     H88982   5.163   9.696  12.998 -0.8611 -0.0590  2.1048
  645MOL0     H88983   5.296   9.782  12.922 -0.4551  2.3262 -0.9173
  645MOL0     H88984   5.234   9.829  13.206 -1.2546  0.1682 -1.0437
  645MOL0     H88985   5.387   9.874  13.133 -0.1389  0.5040  2.1044
  645MOL0     H88986   5.435   9.705  13.274  1.2726  0.5553 -0.0907
  645MOL0     H88987   5.442   9.649  13.108  1.9162  0.8836  1.2309
  645MOL0     H88988   5.346   9.501  13.293  2.8216  1.8531 -0.6261
  645MOL0     H88989   5.248   9.509  13.146 -0.2203  0.5862  0.0955
  645MOL0     H88990   4.680  10.268  12.496 -0.2388 -0.2518 -0.3297
  645MOL0     H88991   4.710  10.345  12.254 -0.3007 -3.2928 -0.5905
  645MOL0     H88992   4.984  10.355  11.880  2.4941  1.0843  2.5182
  645MOL0     H88993   4.987  10.412  11.666 -1.8895 -1.5228  1.6612
  645MOL0     H88994   4.969   8.872  10.839 -0.0261  2.3743 -2.0349
  645MOL0     H88995   4.812   8.753  11.011 -1.9805  0.5860  1.9849
  645MOL0     H88996   4.684   8.656  11.331  0.5567 -0.9320  1.3146
  645MOL0     H88997   4.592   8.507  11.503 -0.6668 -1.6134 -0.4420
  645MOL0     H88998   4.416   8.256  11.529  2.6739 -0.0767  0.6487
  645MOL0     H88999   4.489   8.372  11.637  1.5573 -2.7446 -0.6251
  645MOL0     H89000   4.234   8.212  11.652 -0.2416 -1.5040  2.0998
  645MOL0     H89001   4.241   8.371  11.739 -2.9260 -1.1453 -0.1380
  645MOL0     H89002   4.427   8.126  11.758  0.2534 -0.8659  0.2651
  645MOL0     H89003   4.436   8.265  11.869 -0.4483  2.6002 -2.2354
  645MOL0     H89004   4.184   8.082  11.858  1.1692 -4.2439  3.0702
  645MOL0     H89005   4.225   8.222  11.963  1.0451  0.4312  0.4265
  645MOL0     H89006   4.411   7.947  12.195 -1.1859  0.5960 -0.1044
  645MOL0     H89007   4.204   8.580  11.348  0.0785 -0.3815 -0.2970
  645MOL0     H89008   4.289   8.859  11.136 -1.8322  0.2597  0.3689
  645MOL0     H89009   4.262   8.700  11.045  0.1557 -1.6765  0.9199
  645MOL0     H89010   4.163   8.762  11.179  1.1260  0.0948  1.5673
  646MOL0     O89011   7.534  10.256   5.038 -0.2761  0.2004 -0.5261
  646MOL0     C89012   7.616  10.242   5.135  0.3530  0.2969 -0.4389
  646MOL0     O89013   7.717  10.148   5.139  0.0758  0.2420  0.3920
  646MOL0     C89014   7.768  10.080   5.027  0.2918 -1.1402 -0.0548
  646MOL0     C89015   7.833   9.961   5.052  0.0917 -0.0725 -0.5659
  646MOL0     C89016   7.883   9.868   4.952  0.1119 -0.1069 -0.1857
  646MOL0     C89017   7.860   9.897   4.822  0.2540  0.4593 -0.1706
  646MOL0     O89018   7.935   9.843   4.720 -0.2798  0.5402  0.2537
  646MOL0     C89019   7.998   9.716   4.723 -0.0972  0.2543 -0.5777
  646MOL0     C89020   8.058   9.693   4.580  0.2365 -0.4244 -0.4540
  646MOL0     C89021   8.083   9.541   4.552  0.3363 -0.3804 -0.6926
  646MOL0     C89022   8.097   9.532   4.398 -0.5347  0.5364 -0.2668
  646MOL0     C89023   8.145   9.401   4.344  0.3903 -0.7646 -0.3902
  646MOL0     C89024   8.221   9.438   4.218  0.1739  0.6881 -0.1331
  646MOL0     C89025   8.237   9.314   4.139  0.6944  0.6053 -0.6841
  646MOL0     C89026   8.217   9.318   3.986 -0.1641  0.5129  0.8635
  646MOL0     N89027   8.323   9.397   3.932  0.4996 -0.6162 -0.0037
  646MOL0     C89028   8.447   9.355   3.902 -0.3013  0.5024  0.2073
  646MOL0     C89029   8.521   9.465   3.911  0.1577  0.5757  0.1833
  646MOL0     C89030   8.671   9.474   3.941  0.1768 -0.3733  0.0733
  646MOL0     C89031   8.675   9.463   4.103 -0.3437 -0.6684  0.3247
  646MOL0     C89032   8.825   9.493   4.141 -0.2749 -0.5323 -0.7636
  646MOL0     C89033   8.854   9.486   4.294 -0.9854  0.2770 -0.2438
  646MOL0     O89034   8.977   9.541   4.346 -0.3856  0.2242  0.1623
  646MOL0     C89035   8.978   9.608   4.459  0.0129  1.3099 -1.1486
  646MOL0     C89036   9.075   9.570   4.550 -0.2297 -0.6053  1.4698
  646MOL0     C89037   9.107   9.639   4.670  0.5085  0.2680  0.3686
  646MOL0     C89038   9.231   9.597   4.746  0.0200  0.0855  0.6269
  646MOL0     C89039   9.034   9.760   4.698 -0.7169 -0.6479  0.7773
  646MOL0     C89040   9.078   9.853   4.805 -0.0499 -0.9292  0.3968
  646MOL0     O89041   9.036   9.978   4.809  0.0556  0.4971  0.4522
  646MOL0     C89042   9.109  10.068   4.882 -0.2632 -0.3612 -0.4407
  646MOL0     C89043   9.109  10.060   5.019  0.9052 -0.1636  0.2706
  646MOL0     C89044   9.200  10.133   5.093  0.0818  0.4815  0.0650
  646MOL0     C89045   9.284  10.229   5.034 -0.6031 -0.5973 -0.9196
  646MOL0     O89046   9.365  10.310   5.110  0.1894 -0.5345  0.2663
  646MOL0     C89047   9.370  10.302   5.251  0.0376  0.3985  0.0270
  646MOL0     C89048   9.436  10.425   5.311 -0.2267  0.9958  0.1398
  646MOL0     C89049   9.423  10.414   5.465 -0.0025 -0.4686 -0.4390
  646MOL0     C89050   9.350  10.537   5.539  0.3757  0.0614 -0.0028
  646MOL0     C89051   9.349  10.536   5.697  0.5535  0.2792  0.1313
  646MOL0     C89052   9.480  10.509   5.767 -0.1251  0.1017 -0.0737
  646MOL0     C89053   9.595  10.607   5.736  0.6893 -0.8386  1.0972
  646MOL0     C89054   9.555  10.747   5.781  0.5411  0.2291  0.6592
  646MOL0    Cl89055   9.545  10.746   5.954 -0.1284  0.0775  0.1111
  646MOL0     C89056   9.280  10.242   4.895  0.3325  0.2604  0.7619
  646MOL0     C89057   9.187  10.164   4.823  0.1955 -0.0354  1.0274
  646MOL0     O89058   9.159   9.808   4.885 -0.2325  0.1252 -0.2929
  646MOL0     C89059   8.943   9.796   4.604 -0.0756 -0.1243  0.9610
  646MOL0     C89060   8.915   9.716   4.494  0.0521  0.9725  0.3602
  646MOL0     N89061   8.430   9.571   3.917  0.2011 -0.0290 -0.1729
  646MOL0     N89062   8.309   9.529   3.935  1.3591 -0.6831  0.2984
  646MOL0     C89063   7.791  10.012   4.789  0.7592 -0.9522  0.0462
  646MOL0     C89064   7.740  10.109   4.887  0.1396  0.7707 -0.2237
  646MOL0     C89065   7.603  10.332   5.248  0.8594 -0.1475 -0.8772
  646MOL0     C89066   7.730  10.386   5.299 -0.2921 -0.1573 -1.0866
  646MOL0     C89067   7.724  10.483   5.409 -0.3507  0.5679 -0.2978
  646MOL0     C89068   7.608  10.515   5.471 -0.0801 -0.2418 -0.4406
  646MOL0     O89069   7.587  10.592   5.583  0.5966 -0.5007 -0.8231
  646MOL0     C89070   7.692  10.598   5.676 -0.3066  0.2501  0.5514
  646MOL0     C89071   7.750  10.472   5.738  0.2020  0.4746 -0.2498
  646MOL0     C89072   7.813  10.492   5.879  0.2778 -0.5257 -1.2877
  646MOL0     C89073   7.686  10.494   5.975 -0.3698 -1.0347 -0.4708
  646MOL0     C89074   7.721  10.587   6.088 -0.3318  0.1006  0.6243
  646MOL0     C89075   7.753  10.657   6.186 -0.8005 -0.1291 -0.1398
  646MOL0     C89076   7.480  10.459   5.425 -0.2028 -0.3132 -0.0597
  646MOL0     C89077   7.481  10.373   5.313 -0.5712 -0.4627 -0.1866
  646MOL0     C89078   7.349  10.320   5.261 -0.3310 -0.1207  0.4347
  646MOL0     H89079   7.853   9.941   5.157  0.8118  3.3522  0.0870
  646MOL0     H89080   7.946   9.785   4.980  1.3677 -0.1698 -2.8754
  646MOL0     H89081   7.916   9.647   4.745  2.4785 -2.9288 -0.1091
  646MOL0     H89082   8.081   9.703   4.793 -2.0905  2.0978  2.3351
  646MOL0     H89083   7.986   9.728   4.506 -2.7030 -3.8847  0.5114
  646MOL0     H89084   8.148   9.750   4.555 -0.4253  0.4617 -0.8600
  646MOL0     H89085   8.172   9.516   4.610  0.8807 -1.2004 -1.8506
  646MOL0     H89086   8.008   9.472   4.590  1.8814 -2.0075 -0.4944
  646MOL0     H89087   8.000   9.548   4.350 -0.3237 -1.8655 -1.6851
  646MOL0     H89088   8.166   9.610   4.367 -2.0146  1.0192 -2.5881
  646MOL0     H89089   8.065   9.329   4.326  2.9872 -3.1069 -3.9956
  646MOL0     H89090   8.219   9.375   4.419 -0.0601  3.4471  1.8117
  646MOL0     H89091   8.165   9.513   4.160 -0.8993 -1.9000 -2.6963
  646MOL0     H89092   8.321   9.479   4.236  0.0391  1.2356 -0.5722
  646MOL0     H89093   8.168   9.237   4.175  3.8769 -0.4781  4.0357
  646MOL0     H89094   8.333   9.265   4.156  1.9472  1.3554 -4.6004
  646MOL0     H89095   8.210   9.216   3.947 -5.6611  0.2034  1.8032
  646MOL0     H89096   8.118   9.362   3.970 -0.1903  0.3903  0.6780
  646MOL0     H89097   8.488   9.255   3.914 -4.0867 -1.0447  1.7676
  646MOL0     H89098   8.717   9.567   3.906  0.9393 -0.4659  0.7991
  646MOL0     H89099   8.723   9.388   3.898 -0.3790 -2.0143  2.5262
  646MOL0     H89100   8.597   9.524   4.149 -0.2783  1.8020 -2.5156
  646MOL0     H89101   8.643   9.359   4.119 -1.3736 -1.0116 -3.1187
  646MOL0     H89102   8.887   9.419   4.089  1.2737  0.7162 -0.7600
  646MOL0     H89103   8.849   9.596   4.113 -2.1415 -0.1740 -1.1854
  646MOL0     H89104   8.771   9.539   4.342  0.1368  1.4182  0.5025
  646MOL0     H89105   8.841   9.381   4.323  0.3093 -0.5583 -2.4338
  646MOL0     H89106   9.127   9.480   4.518 -2.8318 -2.4492  1.9923
  646MOL0     H89107   9.205   9.560   4.846  2.2709  0.0732  1.2856
  646MOL0     H89108   9.298   9.684   4.749 -0.6897  0.6487  0.3653
  646MOL0     H89109   9.283   9.526   4.682  1.8124  0.6696  1.3532
  646MOL0     H89110   9.058   9.977   5.066  2.1914  0.3971  2.8283
  646MOL0     H89111   9.212  10.106   5.198  3.3650 -1.5130 -0.6899
  646MOL0     H89112   9.270  10.301   5.297 -0.1214 -0.2837 -0.3225
  646MOL0     H89113   9.411  10.205   5.280 -1.6053 -0.8813 -1.6479
  646MOL0     H89114   9.541  10.432   5.282 -0.0448  1.0275  0.7951
  646MOL0     H89115   9.379  10.516   5.287 -2.5095  0.2649  2.3356
  646MOL0     H89116   9.528  10.416   5.497  0.4331 -1.1790 -1.7408
  646MOL0     H89117   9.379  10.318   5.496  0.5428 -2.2518 -4.5250
  646MOL0     H89118   9.245  10.533   5.511  0.5451 -2.4203 -0.5066
  646MOL0     H89119   9.404  10.624   5.500 -0.7473  1.0600  0.5880
  646MOL0     H89120   9.310  10.636   5.718 -0.1722  0.0436 -0.0867
  646MOL0     H89121   9.275  10.459   5.719 -1.1389  1.2628 -1.8208
  646MOL0     H89122   9.505  10.405   5.744 -3.0166 -1.4301  2.8281
  646MOL0     H89123   9.468  10.502   5.876 -0.8465 -0.9681 -0.2022
  646MOL0     H89124   9.639  10.598   5.636  3.4236 -0.9568  2.2447
  646MOL0     H89125   9.682  10.585   5.798  3.4590  4.2935 -0.4041
  646MOL0     H89126   9.458  10.785   5.748  1.7423  4.7693  1.7150
  646MOL0     H89127   9.631  10.811   5.735  0.7315 -2.0677 -2.5427
  646MOL0     H89128   9.341  10.326   4.862  0.5451 -0.0750  0.2967
  646MOL0     H89129   9.185  10.173   4.714  3.5294  2.6431  1.0106
  646MOL0     H89130   8.880   9.875   4.643  2.9274  1.3691  3.2341
  646MOL0     H89131   8.833   9.754   4.434  0.8120  0.1687 -1.2393
  646MOL0     H89132   7.790  10.042   4.685 -3.3313 -0.6394  0.0315
  646MOL0     H89133   7.694  10.199   4.848  0.4071 -0.1949 -3.0055
  646MOL0     H89134   7.827  10.374   5.251 -0.4960  0.5310 -1.6692
  646MOL0     H89135   7.814  10.539   5.432  0.9897 -1.8055  0.6940
  646MOL0     H89136   7.773  10.651   5.627 -0.6321 -2.3368 -3.1896
  646MOL0     H89137   7.648  10.661   5.754  1.4260  2.7890 -0.4385
  646MOL0     H89138   7.820  10.422   5.670 -0.2382 -2.1438  1.1070
  646MOL0     H89139   7.669  10.399   5.741  0.5253  0.1172 -0.2121
  646MOL0     H89140   7.870  10.409   5.920 -0.2669 -0.1512  0.3015
  646MOL0     H89141   7.879  10.579   5.872  2.0008 -1.9032 -3.6620
  646MOL0     H89142   7.657  10.393   6.005 -0.7707 -1.1011 -1.0672
  646MOL0     H89143   7.596  10.532   5.925  0.3799  1.9273  0.2232
  646MOL0     H89144   7.793  10.712   6.269 -3.2842  1.1668  0.2751
  646MOL0     H89145   7.395  10.488   5.486  1.2592  1.4235  1.2845
  646MOL0     H89146   7.319  10.381   5.176 -0.8329  0.9503  1.3454
  646MOL0     H89147   7.348  10.215   5.233  0.4978  0.3515 -1.4677
  646MOL0     H89148   7.264  10.333   5.330 -0.5126  0.0106  0.1871
  647MOL0     O89149   0.459   0.555  10.699 -0.4493 -0.1872 -0.1523
  647MOL0     C89150   0.445   0.658  10.636  0.1812  0.1393  1.0861
  647MOL0     O89151   0.471   0.780  10.690 -0.4478  0.2741  0.1647
  647MOL0     C89152   0.525   0.786  10.811 -0.6255 -0.4606  0.6064
  647MOL0     C89153   0.599   0.698  10.892  0.1983 -0.0138 -0.2065
  647MOL0     C89154   0.653   0.731  11.022 -0.7036 -0.6103  0.6551
  647MOL0     C89155   0.613   0.860  11.081 -1.0192 -0.2295 -0.2123
  647MOL0     O89156   0.663   0.879  11.205 -0.1116  0.8173 -0.5623
  647MOL0     C89157   0.610   0.993  11.280  0.8841  0.0592 -0.2067
  647MOL0     C89158   0.669   0.978  11.421  0.7139 -0.2128 -0.2308
  647MOL0     C89159   0.675   1.112  11.490  0.6673 -0.7239 -0.5004
  647MOL0     C89160   0.743   1.076  11.625 -0.1168  0.5895 -0.1800
  647MOL0     C89161   0.741   1.197  11.721 -0.3562  0.1975 -0.3608
  647MOL0     C89162   0.770   1.168  11.867  0.3923  0.5233 -0.8479
  647MOL0     C89163   0.757   1.286  11.955 -0.2220 -0.6414 -0.2723
  647MOL0     C89164   0.634   1.376  11.948  0.0710  0.5799 -0.3720
  647MOL0     N89165   0.511   1.307  11.983  0.7642  0.5836  0.5620
  647MOL0     C89166   0.441   1.319  12.098  0.3220 -0.3287 -0.2540
  647MOL0     C89167   0.341   1.232  12.098  0.6521  0.2626  0.7082
  647MOL0     C89168   0.223   1.238  12.190  0.0121  0.4562 -0.8311
  647MOL0     C89169   0.265   1.161  12.322 -0.2573 -0.3718 -0.5402
  647MOL0     C89170   0.141   1.104  12.391  0.9817  0.6850  1.1230
  647MOL0     C89171   0.041   1.212  12.451 -1.0677  0.7515  0.3496
  647MOL0     O89172  -0.078   1.127  12.464 -0.4728  0.0597 -0.6457
  647MOL0     C89173  -0.186   1.157  12.549  0.1756  1.2165  0.4630
  647MOL0     C89174  -0.171   1.182  12.677 -1.0711  0.8609 -0.0484
  647MOL0     C89175  -0.274   1.211  12.768 -0.0640 -0.8649 -0.1357
  647MOL0     C89176  -0.239   1.237  12.913 -0.4922 -0.9136 -0.2441
  647MOL0     C89177  -0.403   1.232  12.719  0.3722 -0.2245 -0.3677
  647MOL0     C89178  -0.535   1.251  12.797 -0.0264 -0.8343 -1.0369
  647MOL0     O89179  -0.652   1.264  12.730  0.3487  0.5195  0.8620
  647MOL0     C89180  -0.779   1.260  12.792 -0.8179  0.7832 -0.3807
  647MOL0     C89181  -0.893   1.253  12.704 -0.0597  0.0573  0.5447
  647MOL0     C89182  -1.027   1.247  12.749 -0.6222  0.0392 -0.0059
  647MOL0     C89183  -1.055   1.255  12.878 -0.3132 -0.0275  0.4543
  647MOL0     O89184  -1.183   1.247  12.913 -0.1437  0.0987  0.1801
  647MOL0     C89185  -1.222   1.170  13.033  0.1197 -0.5963  0.8696
  647MOL0     C89186  -1.367   1.112  13.017  0.3909  0.2789 -0.5430
  647MOL0     C89187  -1.475   1.226  13.057 -0.3723  0.2898  0.0782
  647MOL0     C89188  -1.481   1.325  12.940  0.1874 -0.9373  0.9852
  647MOL0     C89189  -1.618   1.400  12.936 -0.0130  0.2058  0.0996
  647MOL0     C89190  -1.667   1.458  13.075 -0.1161  0.4154 -0.7643
  647MOL0     C89191  -1.763   1.575  13.048  1.0518  0.4534  0.3434
  647MOL0     C89192  -1.860   1.595  13.159 -0.1190 -0.3042  0.1862
  647MOL0    Cl89193  -1.954   1.747  13.132 -0.1742 -0.1450 -0.0295
  647MOL0     C89194  -0.943   1.263  12.965  0.4084  0.2310  0.5228
  647MOL0     C89195  -0.810   1.264  12.920  1.1071 -0.6072 -0.1010
  647MOL0     O89196  -0.524   1.259  12.922 -0.1179  0.3446  0.0580
  647MOL0     C89197  -0.420   1.210  12.580  0.2210  0.2830 -0.5942
  647MOL0     C89198  -0.315   1.181  12.499  0.2285  0.7327 -0.3249
  647MOL0     N89199   0.340   1.177  11.979 -0.5150  0.8706  0.7025
  647MOL0     N89200   0.442   1.205  11.919 -0.6724 -0.9742 -0.9336
  647MOL0     C89201   0.538   0.944  11.005 -0.0070 -0.0950  1.1926
  647MOL0     C89202   0.492   0.914  10.879  0.5632  0.0140  0.8946
  647MOL0     C89203   0.414   0.645  10.490 -0.0827 -0.4978 -0.2702
  647MOL0     C89204   0.465   0.738  10.401 -0.1750 -0.7418  0.2000
  647MOL0     C89205   0.447   0.734  10.269  0.9574  0.5024  0.1493
  647MOL0     C89206   0.357   0.632  10.212 -0.1328 -0.1322  0.1893
  647MOL0     O89207   0.336   0.641  10.076  0.3954  0.4701 -0.8896
  647MOL0     C89208   0.220   0.576  10.032  0.9840  0.7637  0.4400
  647MOL0     C89209   0.086   0.629  10.091  1.7665  0.0300  0.2292
  647MOL0     C89210  -0.011   0.505  10.101 -0.9925  0.8597 -1.1105
  647MOL0     C89211  -0.147   0.543  10.152 -1.0745 -0.2852  0.1386
  647MOL0     C89212  -0.223   0.608  10.046 -0.3343 -0.0113  0.4823
  647MOL0     C89213  -0.270   0.670   9.954  0.3479 -0.1566 -0.3170
  647MOL0     C89214   0.310   0.531  10.291 -0.0529 -0.1327 -0.9872
  647MOL0     C89215   0.335   0.543  10.427  0.2900  0.3749 -0.1618
  647MOL0     C89216   0.269   0.432  10.510 -0.7931 -0.9904  0.1531
  647MOL0     H89217   0.613   0.592  10.872 -3.5317 -0.8418  0.7201
  647MOL0     H89218   0.713   0.657  11.073 -1.6025 -2.1585 -0.4148
  647MOL0     H89219   0.501   0.988  11.282  0.7858  1.7303 -0.3007
  647MOL0     H89220   0.647   1.091  11.249 -2.7424  1.7798  0.3927
  647MOL0     H89221   0.608   0.913  11.484  0.9570  2.0792  2.6037
  647MOL0     H89222   0.771   0.940  11.413  0.5647 -0.9866  1.1792
  647MOL0     H89223   0.732   1.186  11.433  0.2294  0.2927  0.3549
  647MOL0     H89224   0.576   1.155  11.509  1.9313  1.7305  0.9243
  647MOL0     H89225   0.681   1.000  11.675  1.6573  0.9733  2.8432
  647MOL0     H89226   0.838   1.024  11.614 -0.4949 -0.4490  1.2286
  647MOL0     H89227   0.645   1.248  11.710  0.2491  1.0165 -2.1081
  647MOL0     H89228   0.796   1.282  11.680 -3.2883  3.6289  2.2011
  647MOL0     H89229   0.700   1.093  11.907 -0.7670  2.6065  1.2976
  647MOL0     H89230   0.871   1.134  11.888 -0.0417  0.7293  2.0070
  647MOL0     H89231   0.849   1.345  11.950 -1.1263  1.0792  1.9791
  647MOL0     H89232   0.759   1.241  12.054  0.0832 -0.3063 -0.1252
  647MOL0     H89233   0.648   1.457  12.020 -0.0063  0.2954 -0.0366
  647MOL0     H89234   0.637   1.428  11.852  2.8272 -0.1948 -0.8003
  647MOL0     H89235   0.458   1.398  12.171  2.1021  1.4521 -2.4674
  647MOL0     H89236   0.128   1.199  12.152  0.6093 -0.8589 -1.0113
  647MOL0     H89237   0.215   1.343  12.222 -0.2735  0.6002 -1.3688
  647MOL0     H89238   0.349   1.097  12.294 -0.8610 -0.3628 -2.4616
  647MOL0     H89239   0.316   1.224  12.396 -0.8634 -2.9995  2.3254
  647MOL0     H89240   0.089   1.048  12.312  2.7255  1.1923 -0.4831
  647MOL0     H89241   0.178   1.034  12.467  1.3134 -0.3566  0.0428
  647MOL0     H89242   0.066   1.265  12.544 -2.7034  0.5869  0.9084
  647MOL0     H89243   0.025   1.293  12.379 -0.2686 -0.3885 -1.1560
  647MOL0     H89244  -0.069   1.160  12.706 -0.6011 -0.8163 -2.6093
  647MOL0     H89245  -0.135   1.271  12.921  0.4794 -3.9912  2.8780
  647MOL0     H89246  -0.240   1.145  12.972  0.4109 -1.4408 -1.0199
  647MOL0     H89247  -0.313   1.308  12.953 -0.3496 -0.6244 -0.4926
  647MOL0     H89248  -0.875   1.249  12.597  0.3419  1.9287  0.4979
  647MOL0     H89249  -1.108   1.238  12.678 -2.1993 -0.3814  1.7769
  647MOL0     H89250  -1.158   1.082  13.042  2.5699 -0.1082 -5.8398
  647MOL0     H89251  -1.212   1.240  13.117 -0.0299  1.4622 -0.7432
  647MOL0     H89252  -1.387   1.072  12.917 -0.3728 -0.3454 -0.1507
  647MOL0     H89253  -1.381   1.034  13.092 -1.0325  1.3091  0.3050
  647MOL0     H89254  -1.453   1.288  13.144  2.8833 -0.3419 -0.1757
  647MOL0     H89255  -1.564   1.171  13.089  0.6936 -0.5588  1.7643
  647MOL0     H89256  -1.469   1.274  12.843  2.6174  2.6156 -0.7825
  647MOL0     H89257  -1.401   1.398  12.953  1.6484 -2.4395  0.8393
  647MOL0     H89258  -1.608   1.481  12.864 -0.9684  0.1317 -0.1168
  647MOL0     H89259  -1.696   1.326  12.917  1.1532 -0.9030 -0.5019
  647MOL0     H89260  -1.585   1.497  13.136 -0.3562 -1.6399  1.0325
  647MOL0     H89261  -1.712   1.377  13.133 -0.3058 -0.1310 -1.6687
  647MOL0     H89262  -1.811   1.551  12.953  4.2197  2.5317 -1.9912
  647MOL0     H89263  -1.701   1.662  13.026  1.6011  0.1481  0.6671
  647MOL0     H89264  -1.810   1.621  13.253  0.2850  1.9732 -0.5808
  647MOL0     H89265  -1.912   1.504  13.188 -0.9874  0.6974  1.9619
  647MOL0     H89266  -0.965   1.273  13.071 -1.6651 -0.2598  0.1882
  647MOL0     H89267  -0.738   1.258  13.001  1.8881  3.1747 -0.3464
  647MOL0     H89268  -0.521   1.221  12.540 -0.2714 -0.4731  0.3778
  647MOL0     H89269  -0.330   1.164  12.393 -1.0730  3.4646 -0.6660
  647MOL0     H89270   0.506   1.040  11.044 -1.6576  0.8099 -2.0855
  647MOL0     H89271   0.432   0.978  10.815  0.3762  0.6172  1.6653
  647MOL0     H89272   0.528   0.815  10.444 -1.0204 -0.2453  0.5729
  647MOL0     H89273   0.487   0.809  10.201 -1.6110  1.7082 -0.1308
  647MOL0     H89274   0.209   0.605   9.928  0.7787  0.5990  0.4156
  647MOL0     H89275   0.220   0.466  10.026 -0.7675  0.6987  1.0307
  647MOL0     H89276   0.046   0.696  10.014  0.6239 -2.7881 -1.8382
  647MOL0     H89277   0.094   0.691  10.181 -0.2989 -0.8795  1.1136
  647MOL0     H89278  -0.010   0.438  10.014  1.0653 -1.3361  0.4657
  647MOL0     H89279   0.025   0.431  10.173  0.4903  0.3709 -2.3044
  647MOL0     H89280  -0.156   0.602  10.243  0.4339  0.3342 -0.0852
  647MOL0     H89281  -0.199   0.449  10.176  1.3550 -1.2559  2.0385
  647MOL0     H89282  -0.312   0.725   9.872 -1.4781  1.2111  1.4222
  647MOL0     H89283   0.249   0.449  10.257 -1.3579 -0.1568  1.2207
  647MOL0     H89284   0.176   0.406  10.460 -1.1118 -1.1981  0.8345
  647MOL0     H89285   0.335   0.345  10.517  1.3111  0.1046 -3.3850
  647MOL0     H89286   0.234   0.457  10.611 -0.2486  1.7955 -0.2833
  648MOL0     O89287   3.422   0.438  10.259 -0.0333 -0.8737 -0.7179
  648MOL0     C89288   3.394   0.463  10.376  0.7453 -0.2962  0.7668
  648MOL0     O89289   3.280   0.423  10.443 -0.5256 -0.0373  0.0709
  648MOL0     C89290   3.203   0.330  10.382  1.0139  0.0775  0.4221
  648MOL0     C89291   3.067   0.335  10.421 -0.3996  0.3146  0.7269
  648MOL0     C89292   2.977   0.233  10.385  0.9936  0.4728 -0.5313
  648MOL0     C89293   3.026   0.127  10.307  0.6752  0.0356  0.7508
  648MOL0     O89294   2.947   0.025  10.273  0.3791  0.2859  0.4691
  648MOL0     C89295   2.887   0.046  10.136  1.1706 -0.7091 -0.7891
  648MOL0     C89296   2.865  -0.077  10.059  0.4938  0.1322  0.8936
  648MOL0     C89297   2.815  -0.049   9.912 -0.8947  0.9336  0.4873
  648MOL0     C89298   2.816  -0.188   9.841  0.0248 -0.5985  0.7734
  648MOL0     C89299   2.779  -0.167   9.690  0.5002 -0.6120 -0.5182
  648MOL0     C89300   2.820  -0.271   9.596 -0.2759  0.5056  0.5985
  648MOL0     C89301   2.775  -0.227   9.454  0.0344 -0.0056 -0.8433
  648MOL0     C89302   2.623  -0.248   9.442 -0.8477  0.5101 -0.1846
  648MOL0     N89303   2.585  -0.273   9.306  0.3165 -0.4385 -0.6970
  648MOL0     C89304   2.559  -0.180   9.206 -0.0636 -0.3717 -0.0065
  648MOL0     C89305   2.536  -0.253   9.090  1.0520 -0.7904  0.4791
  648MOL0     C89306   2.526  -0.187   8.958 -0.6445 -0.8746  0.2173
  648MOL0     C89307   2.663  -0.120   8.934 -0.8309 -0.2609  1.0638
  648MOL0     C89308   2.665  -0.008   8.829 -0.2943  0.5816 -0.0548
  648MOL0     C89309   2.778   0.099   8.851  0.1927 -0.1503  0.7286
  648MOL0     O89310   2.896   0.057   8.920  0.6560 -0.2112  0.3970
  648MOL0     C89311   2.921   0.099   9.047  0.2228  0.5902 -0.1439
  648MOL0     C89312   2.820   0.145   9.125 -0.0876  0.1882  0.2902
  648MOL0     C89313   2.840   0.155   9.265 -0.0176 -0.8500  1.0775
  648MOL0     C89314   2.722   0.200   9.352 -0.3756  0.5810 -0.4413
  648MOL0     C89315   2.972   0.138   9.319 -0.1874 -0.0343 -0.3305
  648MOL0     C89316   3.009   0.138   9.466  0.6237  0.4342  0.0049
  648MOL0     O89317   3.118   0.072   9.499 -0.2633  0.2073 -0.5882
  648MOL0     C89318   3.182   0.094   9.615  0.2524  0.2111 -0.6665
  648MOL0     C89319   3.129   0.048   9.736  1.3417 -0.1907  0.3386
  648MOL0     C89320   3.207   0.062   9.849  0.0957 -0.4480  0.1340
  648MOL0     C89321   3.319   0.139   9.858  0.6575 -0.5509 -0.6075
  648MOL0     O89322   3.367   0.156   9.994  0.2008 -0.2419  0.0661
  648MOL0     C89323   3.498   0.102  10.011 -0.5564  0.2181  0.5020
  648MOL0     C89324   3.612   0.201   9.993  0.6503 -0.2259  0.0837
  648MOL0     C89325   3.712   0.162   9.882  1.1983 -0.2257  0.0352
  648MOL0     C89326   3.830   0.262   9.861  1.3629  0.5938 -0.4076
  648MOL0     C89327   3.909   0.237   9.735 -0.1627  0.0841 -0.1822
  648MOL0     C89328   4.053   0.307   9.725  0.2233 -0.1312  0.2575
  648MOL0     C89329   4.028   0.462   9.716  0.2432 -0.7674 -0.7414
  648MOL0     C89330   4.137   0.543   9.786  0.0252 -0.7914 -0.6275
  648MOL0    Cl89331   4.291   0.518   9.697  0.4714 -0.1312 -0.0465
  648MOL0     C89332   3.354   0.202   9.740  0.0812 -0.2600 -0.0049
  648MOL0     C89333   3.297   0.170   9.616  0.1993 -0.3835 -0.3176
  648MOL0     O89334   2.943   0.211   9.536 -0.1692 -0.5767  0.0724
  648MOL0     C89335   3.063   0.079   9.237  0.5778 -0.0635  0.6069
  648MOL0     C89336   3.042   0.063   9.103  0.4664 -0.0195 -1.3010
  648MOL0     N89337   2.534  -0.388   9.129  0.7894  1.1687  0.9165
  648MOL0     N89338   2.565  -0.398   9.250  0.2915 -1.1538 -0.1591
  648MOL0     C89339   3.150   0.130  10.258 -0.8573  0.6978 -0.2550
  648MOL0     C89340   3.245   0.223  10.309  0.0929  0.6059  0.0805
  648MOL0     C89341   3.489   0.540  10.454  0.2327 -0.5762  0.1256
  648MOL0     C89342   3.554   0.642  10.380 -0.0013 -0.6598 -0.4067
  648MOL0     C89343   3.636   0.732  10.442 -0.5161  0.6994 -0.3895
  648MOL0     C89344   3.663   0.714  10.581  0.0728  0.7775 -0.8473
  648MOL0     O89345   3.741   0.796  10.655  0.2673  0.0414 -0.2480
  648MOL0     C89346   3.774   0.929  10.603 -0.3055  0.4593  0.4671
  648MOL0     C89347   3.647   1.019  10.585 -0.1554 -0.0584  0.2415
  648MOL0     C89348   3.681   1.147  10.507  0.4997  0.1469 -0.0081
  648MOL0     C89349   3.558   1.215  10.462  0.3127  0.1379 -0.0356
  648MOL0     C89350   3.568   1.341  10.389 -0.5693  0.3136  1.0010
  648MOL0     C89351   3.579   1.443  10.323  0.4808  0.2407  0.3251
  648MOL0     C89352   3.619   0.608  10.645  0.8476  0.0350 -0.5632
  648MOL0     C89353   3.528   0.516  10.582  0.2100  0.3806 -1.8772
  648MOL0     C89354   3.481   0.398  10.669 -0.9403  0.6800 -0.9153
  648MOL0     H89355   3.025   0.415  10.482 -0.3092 -0.6864  2.1597
  648MOL0     H89356   2.876   0.225  10.423  0.8360 -2.1691 -1.3607
  648MOL0     H89357   2.952   0.115  10.081 -0.4917  0.2820 -1.6037
  648MOL0     H89358   2.792   0.096  10.155  2.1018  0.6466  0.5690
  648MOL0     H89359   2.959  -0.131  10.049 -0.9146 -2.1361 -1.1997
  648MOL0     H89360   2.792  -0.143  10.106  0.3312  2.5783  4.4205
  648MOL0     H89361   2.713  -0.013   9.896 -0.5802  0.4629 -4.2196
  648MOL0     H89362   2.890   0.011   9.859  3.5553 -2.0430  2.7640
  648MOL0     H89363   2.923  -0.212   9.846 -0.3709 -2.2315  2.7267
  648MOL0     H89364   2.746  -0.257   9.888 -3.0981 -0.0127 -2.6401
  648MOL0     H89365   2.821  -0.075   9.647 -2.3622  0.4279 -1.3770
  648MOL0     H89366   2.669  -0.161   9.690  0.4442 -0.9810  1.8332
  648MOL0     H89367   2.929  -0.273   9.601 -0.2404  2.4603  1.3734
  648MOL0     H89368   2.791  -0.370   9.630  3.1325 -0.8272  0.0675
  648MOL0     H89369   2.834  -0.272   9.374 -0.3945 -4.5483  1.1348
  648MOL0     H89370   2.803  -0.122   9.442  1.5995 -0.6346 -3.5061
  648MOL0     H89371   2.582  -0.333   9.497 -1.4763  0.9454  0.0341
  648MOL0     H89372   2.576  -0.155   9.474  4.7390  4.1952 -1.3622
  648MOL0     H89373   2.587  -0.076   9.213  2.8342 -0.6866 -3.5118
  648MOL0     H89374   2.455  -0.103   8.964  1.2584  0.8244 -0.0385
  648MOL0     H89375   2.486  -0.253   8.880 -1.3781  1.3159 -1.3928
  648MOL0     H89376   2.694  -0.063   9.023  1.6328  2.2094 -1.1733
  648MOL0     H89377   2.738  -0.195   8.906  1.7816  2.8657 -1.2148
  648MOL0     H89378   2.697  -0.052   8.734  2.8431 -1.1836  1.6398
  648MOL0     H89379   2.564   0.033   8.823  0.0600  1.7895  1.5574
  648MOL0     H89380   2.810   0.127   8.750 -1.2682  1.4124  0.6523
  648MOL0     H89381   2.752   0.199   8.887 -0.4910 -0.0183 -0.1066
  648MOL0     H89382   2.721   0.163   9.084  0.8487  0.7779 -1.8476
  648MOL0     H89383   2.738   0.166   9.455 -0.6411 -0.8212 -0.8451
  648MOL0     H89384   2.630   0.147   9.326  1.8094 -1.6887 -4.4103
  648MOL0     H89385   2.714   0.309   9.342 -4.0958  0.3162 -2.0017
  648MOL0     H89386   3.044  -0.018   9.731 -0.7446  2.3132  0.8721
  648MOL0     H89387   3.176   0.016   9.942 -2.3735 -2.6472 -1.6349
  648MOL0     H89388   3.523   0.061  10.109  0.1988 -0.0932  0.1835
  648MOL0     H89389   3.512   0.015   9.946 -0.1254 -0.2532  1.2158
  648MOL0     H89390   3.570   0.297   9.961 -2.0397 -2.1134 -2.6813
  648MOL0     H89391   3.662   0.201  10.090 -0.4547 -3.6572  0.7970
  648MOL0     H89392   3.649   0.153   9.793 -2.6730 -1.3554  2.6633
  648MOL0     H89393   3.754   0.062   9.897 -1.3695 -2.0384 -3.3647
  648MOL0     H89394   3.893   0.251   9.950 -1.0717 -0.1928  1.3243
  648MOL0     H89395   3.788   0.362   9.872  1.6879  0.4599  3.3686
  648MOL0     H89396   3.931   0.130   9.726  1.6368  0.2001  2.1647
  648MOL0     H89397   3.848   0.257   9.646  3.5644  0.1038 -2.9882
  648MOL0     H89398   4.081   0.279   9.623 -4.2941 -1.3123 -0.8997
  648MOL0     H89399   4.114   0.265   9.805  2.6985  0.0620 -1.4155
  648MOL0     H89400   3.931   0.486   9.760 -0.1560 -1.0661 -1.4475
  648MOL0     H89401   4.031   0.493   9.611  1.5269 -1.8952 -1.0577
  648MOL0     H89402   4.140   0.488   9.881 -1.4441 -1.4252 -0.9207
  648MOL0     H89403   4.111   0.647   9.807  0.2859 -0.8189 -0.1495
  648MOL0     H89404   3.417   0.290   9.750 -2.1561  1.2595  1.9054
  648MOL0     H89405   3.342   0.197   9.521 -2.0700 -0.8795 -1.6067
  648MOL0     H89406   3.161   0.044   9.269  0.2348 -1.0487  0.6177
  648MOL0     H89407   3.109   0.005   9.040 -3.0929 -0.7190 -4.8359
  648MOL0     H89408   3.190   0.058  10.186  0.4991  0.0839  1.0484
  648MOL0     H89409   3.350   0.203  10.287 -0.8986 -1.2621 -3.9046
  648MOL0     H89410   3.528   0.668  10.277  0.3327 -1.6886 -0.7672
  648MOL0     H89411   3.674   0.818  10.388 -0.6318  0.6803 -0.5005
  648MOL0     H89412   3.840   0.985  10.671  2.2159 -0.4494 -1.0850
  648MOL0     H89413   3.826   0.934  10.507  1.3612 -0.2131  1.2798
  648MOL0     H89414   3.607   1.046  10.683  2.0354 -2.4280  1.9344
  648MOL0     H89415   3.570   0.957  10.537  0.4005 -3.2755  3.1288
  648MOL0     H89416   3.744   1.205  10.575  0.7587  0.7059 -0.7115
  648MOL0     H89417   3.737   1.127  10.416 -0.4080  1.8349 -1.0056
  648MOL0     H89418   3.493   1.230  10.548 -0.5769 -1.0852 -0.4704
  648MOL0     H89419   3.505   1.153  10.389 -2.2518  1.9107  0.1848
  648MOL0     H89420   3.596   1.534  10.269 -1.0325  0.2864 -0.1040
  648MOL0     H89421   3.651   0.584  10.745 -0.2923  0.2119 -0.1352
  648MOL0     H89422   3.571   0.359  10.717 -0.6147  1.4547 -0.8683
  648MOL0     H89423   3.407   0.424  10.745 -2.1228 -1.3015 -1.3141
  648MOL0     H89424   3.426   0.324  10.611 -3.1650 -1.3730  3.4088
  649MOL0     O89425   4.769   9.624   6.404  0.1296  0.2878 -0.5406
  649MOL0     C89426   4.834   9.544   6.336 -0.1175  0.0537  0.2470
  649MOL0     O89427   4.826   9.410   6.344  1.1911 -0.1874 -0.0242
  649MOL0     C89428   4.705   9.354   6.382  1.0080  0.8664  0.1096
  649MOL0     C89429   4.580   9.418   6.358  0.8207 -0.6398 -0.6971
  649MOL0     C89430   4.459   9.357   6.393 -0.3604  0.3794  0.2029
  649MOL0     C89431   4.459   9.231   6.459 -0.3145  0.0174 -0.2829
  649MOL0     O89432   4.330   9.170   6.465  0.7809  0.5914  0.3559
  649MOL0     C89433   4.327   9.029   6.482  0.4278  0.8908 -0.2478
  649MOL0     C89434   4.328   8.967   6.615 -0.0604  0.2479 -0.7506
  649MOL0     C89435   4.302   8.813   6.614  0.2137  0.1378 -0.7490
  649MOL0     C89436   4.250   8.776   6.758  0.9060  1.1873  0.0853
  649MOL0     C89437   4.241   8.619   6.772  0.7155 -1.5195 -0.4570
  649MOL0     C89438   4.136   8.596   6.887  0.8821 -0.2689  0.0215
  649MOL0     C89439   4.132   8.445   6.905 -0.3622  0.3324 -0.4101
  649MOL0     C89440   4.004   8.404   6.983 -0.0164 -0.3098 -0.1234
  649MOL0     N89441   4.017   8.429   7.126 -0.3399  0.0850 -1.1015
  649MOL0     C89442   4.118   8.379   7.204  0.0970 -0.1648  0.3445
  649MOL0     C89443   4.057   8.388   7.328  1.4927  0.5067  0.1360
  649MOL0     C89444   4.112   8.346   7.467  0.2138  0.4228  0.6769
  649MOL0     C89445   4.044   8.228   7.519  0.1564 -0.0159  0.5274
  649MOL0     C89446   4.110   8.189   7.666  0.3555  0.6826  0.3632
  649MOL0     C89447   3.996   8.200   7.770 -0.0094  0.2839 -0.4553
  649MOL0     O89448   3.878   8.131   7.737 -0.0224  0.2185  0.8175
  649MOL0     C89449   3.779   8.097   7.828 -0.1650  0.0608  0.1318
  649MOL0     C89450   3.665   8.041   7.777  0.2644  0.6441 -0.7715
  649MOL0     C89451   3.553   8.020   7.865 -0.9560  0.1036  0.3113
  649MOL0     C89452   3.426   7.972   7.793  0.3027  1.5376 -0.1557
  649MOL0     C89453   3.568   8.038   8.008  0.5254 -1.1635  0.6543
  649MOL0     C89454   3.470   8.006   8.109 -0.2039 -0.4372 -0.8551
  649MOL0     O89455   3.411   7.885   8.080  0.5709 -0.8108 -0.5227
  649MOL0     C89456   3.329   7.839   8.172  0.7142 -0.2680 -1.0171
  649MOL0     C89457   3.382   7.748   8.257 -0.5832 -0.4828 -0.3901
  649MOL0     C89458   3.295   7.666   8.328 -0.1390 -0.6930 -0.3672
  649MOL0     C89459   3.158   7.690   8.336  0.4210 -0.4604  0.5559
  649MOL0     O89460   3.098   7.590   8.406  0.2382  0.1846 -0.4126
  649MOL0     C89461   2.957   7.574   8.420 -0.7322  0.5505  0.2290
  649MOL0     C89462   2.893   7.658   8.538  0.0132  0.0188  0.6262
  649MOL0     C89463   2.941   7.617   8.684  0.5426 -0.2284  0.3966
  649MOL0     C89464   2.862   7.503   8.744 -0.2425  0.1664  1.1957
  649MOL0     C89465   2.894   7.470   8.889 -0.7814  0.2978  0.0304
  649MOL0     C89466   2.800   7.362   8.947  0.3906 -0.1384  0.7620
  649MOL0     C89467   2.660   7.418   8.980  0.2753 -0.3899 -0.8566
  649MOL0     C89468   2.649   7.506   9.099 -0.3520 -0.0526 -0.5293
  649MOL0    Cl89469   2.487   7.510   9.169  0.2756  0.4890 -0.2534
  649MOL0     C89470   3.104   7.797   8.256  0.1460 -0.1113  0.1078
  649MOL0     C89471   3.190   7.870   8.168  0.0879  0.4365 -0.4531
  649MOL0     O89472   3.453   8.080   8.206 -1.1651 -0.1129 -0.0571
  649MOL0     C89473   3.690   8.079   8.053 -0.1861 -0.6589 -0.9206
  649MOL0     C89474   3.794   8.112   7.971 -0.1873 -0.4565 -0.0599
  649MOL0     N89475   3.935   8.455   7.331 -0.5580  0.0547 -0.3064
  649MOL0     N89476   3.913   8.472   7.207 -0.6469  0.7349  0.4538
  649MOL0     C89477   4.582   9.168   6.499 -0.4700  0.5614  0.5011
  649MOL0     C89478   4.693   9.228   6.446 -0.0688 -0.0613 -0.2415
  649MOL0     C89479   4.919   9.600   6.231 -0.7636  0.0606 -0.2139
  649MOL0     C89480   5.048   9.554   6.230 -0.0720 -0.4097  0.0471
  649MOL0     C89481   5.140   9.608   6.142 -0.1967  0.6101  0.0858
  649MOL0     C89482   5.106   9.707   6.039 -0.3347  1.1345  0.0377
  649MOL0     O89483   5.193   9.744   5.949 -0.4905  0.0884  1.3256
  649MOL0     C89484   5.158   9.821   5.838  0.6079  0.4159  0.9933
  649MOL0     C89485   5.116   9.749   5.709 -0.0440  0.4670 -0.2617
  649MOL0     C89486   5.016   9.637   5.725 -0.5376 -0.0560 -0.4593
  649MOL0     C89487   4.991   9.558   5.593  0.2688  0.1310 -0.2959
  649MOL0     C89488   4.885   9.453   5.620 -0.4669 -0.7242 -0.2873
  649MOL0     C89489   4.812   9.364   5.648 -0.6443 -0.0998  0.4149
  649MOL0     C89490   4.971   9.748   6.050  1.4324 -1.5318  0.0001
  649MOL0     C89491   4.877   9.691   6.134  0.7659 -1.4775  0.1818
  649MOL0     C89492   4.728   9.733   6.126 -0.3254  0.3183  0.3296
  649MOL0     H89493   4.582   9.505   6.294  1.0269  0.3834  0.6730
  649MOL0     H89494   4.371   9.418   6.373 -0.3526  0.6747  1.0536
  649MOL0     H89495   4.408   8.988   6.421  1.0892 -0.7010  1.5938
  649MOL0     H89496   4.231   9.012   6.432  0.3813  0.0129  0.1178
  649MOL0     H89497   4.421   8.991   6.668  1.0582 -1.2228 -1.9637
  649MOL0     H89498   4.254   9.017   6.679 -0.4118 -0.3161 -0.7055
  649MOL0     H89499   4.232   8.799   6.531  1.9091  2.6333 -2.7857
  649MOL0     H89500   4.399   8.762   6.608  1.4462  2.0336  1.6023
  649MOL0     H89501   4.319   8.817   6.832 -0.6249  2.0421  1.0808
  649MOL0     H89502   4.152   8.821   6.772  1.3794  1.6113  2.4604
  649MOL0     H89503   4.343   8.595   6.801  1.3137  1.4656  0.2159
  649MOL0     H89504   4.221   8.580   6.672 -1.0020 -0.4493 -0.5705
  649MOL0     H89505   4.163   8.651   6.978 -0.5426  1.8524 -0.7688
  649MOL0     H89506   4.033   8.620   6.861 -0.4325 -1.5890  3.4845
  649MOL0     H89507   4.217   8.406   6.960  0.6382  0.9366 -1.4906
  649MOL0     H89508   4.131   8.388   6.812  1.6420 -1.6030  0.6548
  649MOL0     H89509   3.919   8.459   6.943  0.2009  0.5339  0.5317
  649MOL0     H89510   3.980   8.300   6.958  0.8662 -1.0853  1.9825
  649MOL0     H89511   4.202   8.324   7.162  0.5215  1.5821 -1.2485
  649MOL0     H89512   4.093   8.436   7.526 -0.3943 -0.4819  1.8852
  649MOL0     H89513   4.218   8.319   7.463 -0.4038 -2.4654  1.2827
  649MOL0     H89514   3.940   8.257   7.534 -0.0811 -0.1478 -0.7905
  649MOL0     H89515   4.050   8.146   7.447  2.7496  1.0344 -0.5969
  649MOL0     H89516   4.147   8.086   7.675  2.4511  1.3608  0.1652
  649MOL0     H89517   4.188   8.257   7.702  1.5526 -1.6392  2.5698
  649MOL0     H89518   4.043   8.179   7.866  0.3275  1.5264 -0.3380
  649MOL0     H89519   3.965   8.304   7.783 -0.8677  0.3664 -2.6766
  649MOL0     H89520   3.664   8.018   7.671  2.0767  0.1294 -0.7153
  649MOL0     H89521   3.334   8.008   7.841 -0.6336 -1.5116  0.5443
  649MOL0     H89522   3.426   7.864   7.779  0.9569  1.9523 -5.0499
  649MOL0     H89523   3.431   8.013   7.692  0.8549  4.9879  1.1307
  649MOL0     H89524   3.488   7.725   8.260 -0.7075 -0.9807  0.3695
  649MOL0     H89525   3.354   7.589   8.377  1.5426  1.0606  0.5195
  649MOL0     H89526   2.911   7.592   8.323  3.3817 -1.7232 -2.4320
  649MOL0     H89527   2.942   7.466   8.430  0.1810  0.0993 -2.4932
  649MOL0     H89528   2.924   7.760   8.513 -1.6628  0.4702  0.2951
  649MOL0     H89529   2.784   7.662   8.533 -0.1615 -2.6863 -5.0395
  649MOL0     H89530   2.914   7.704   8.744 -2.8973 -1.6395  1.1725
  649MOL0     H89531   3.049   7.609   8.692  0.5271  1.1887  3.8951
  649MOL0     H89532   2.892   7.417   8.683 -0.1816  2.0403 -1.6258
  649MOL0     H89533   2.755   7.527   8.734 -0.0320  0.5337 -0.6401
  649MOL0     H89534   2.993   7.422   8.887 -2.0991 -2.6692 -2.3664
  649MOL0     H89535   2.903   7.564   8.944 -1.4102 -0.4038  1.3837
  649MOL0     H89536   2.859   7.323   9.030  1.0920  0.4718  0.5636
  649MOL0     H89537   2.784   7.277   8.880 -0.9089  0.8532 -0.2333
  649MOL0     H89538   2.601   7.326   8.987  1.5746 -1.2812 -1.0273
  649MOL0     H89539   2.623   7.478   8.898 -0.1094  2.5954  1.3384
  649MOL0     H89540   2.687   7.607   9.076  0.1794 -0.3995 -1.2094
  649MOL0     H89541   2.704   7.469   9.186 -3.0640 -0.8555  0.9254
  649MOL0     H89542   2.997   7.809   8.258 -0.0054 -1.3027 -0.3636
  649MOL0     H89543   3.162   7.950   8.100  0.4751  0.0825 -1.0361
  649MOL0     H89544   3.697   8.096   8.160 -0.4366  1.1044 -1.1580
  649MOL0     H89545   3.887   8.142   8.019  0.2377 -2.4913  0.4573
  649MOL0     H89546   4.588   9.070   6.546 -1.5388  1.7724  3.3121
  649MOL0     H89547   4.788   9.186   6.477 -0.4815 -2.1118 -1.5255
  649MOL0     H89548   5.076   9.478   6.303  1.0762 -1.1777 -1.1483
  649MOL0     H89549   5.238   9.565   6.128 -0.4431  0.0053  0.1780
  649MOL0     H89550   5.082   9.892   5.871 -1.4755  0.0803 -2.5983
  649MOL0     H89551   5.245   9.883   5.812  1.6512 -2.1852 -2.6297
  649MOL0     H89552   5.203   9.716   5.652  1.3234  1.8067  0.9636
  649MOL0     H89553   5.071   9.823   5.641 -1.7489 -1.1309 -0.9532
  649MOL0     H89554   5.048   9.568   5.803 -0.8918 -0.3067 -0.5340
  649MOL0     H89555   4.919   9.674   5.761 -0.0693  0.7140  0.0571
  649MOL0     H89556   5.087   9.512   5.566 -0.7645 -0.8504 -2.4976
  649MOL0     H89557   4.967   9.624   5.510  3.1560  0.2313 -1.1788
  649MOL0     H89558   4.747   9.281   5.665 -2.9175  1.1255 -1.6755
  649MOL0     H89559   4.925   9.822   5.986 -0.6340 -0.5413  2.4759
  649MOL0     H89560   4.713   9.831   6.172 -0.3311 -0.2633  1.6192
  649MOL0     H89561   4.698   9.755   6.023  0.9251  0.6741  0.0261
  649MOL0     H89562   4.654   9.668   6.174 -1.5003  1.7660  0.5640
  650MOL0     O89563  11.595   4.384  10.805 -0.2516  0.0396 -0.1081
  650MOL0     C89564  11.621   4.311  10.905 -0.1151 -0.1438 -0.0161
  650MOL0     O89565  11.526   4.261  10.990 -0.0403 -0.0923 -0.5388
  650MOL0     C89566  11.396   4.265  10.957 -0.1509 -0.1479 -0.7080
  650MOL0     C89567  11.328   4.382  10.948  0.1168 -0.8637  0.3740
  650MOL0     C89568  11.185   4.386  10.939 -0.3097  0.9153  0.7691
  650MOL0     C89569  11.116   4.260  10.936  0.9538  0.4457  0.5056
  650MOL0     O89570  10.980   4.233  10.940  0.6006  0.5643  0.5465
  650MOL0     C89571  10.890   4.327  10.997 -0.0873  0.9328 -0.6389
  650MOL0     C89572  10.757   4.249  11.041 -0.2084 -0.4783  0.3342
  650MOL0     C89573  10.775   4.134  11.138 -0.0541  0.2437 -0.1084
  650MOL0     C89574  10.760   4.160  11.291 -0.7585 -0.1518  0.0058
  650MOL0     C89575  10.700   4.033  11.348 -0.0676  0.2465  1.6156
  650MOL0     C89576  10.707   4.035  11.492 -0.2405 -0.2371 -1.1056
  650MOL0     C89577  10.778   3.916  11.548 -0.3385  0.2049  0.7170
  650MOL0     C89578  10.701   3.777  11.523 -0.1697  0.7464 -0.3287
  650MOL0     N89579  10.791   3.662  11.565 -0.3464 -0.4267  0.2062
  650MOL0     C89580  10.866   3.584  11.481 -0.8222 -0.1594 -0.0843
  650MOL0     C89581  10.962   3.524  11.560  1.1262  0.4626 -0.1711
  650MOL0     C89582  11.060   3.430  11.510  0.2558 -1.2006 -0.4678
  650MOL0     C89583  11.030   3.282  11.537  0.5633  0.1327  0.3713
  650MOL0     C89584  10.901   3.237  11.459 -0.0783 -0.1011  0.1259
  650MOL0     C89585  10.913   3.189  11.315  0.2626  0.5630  1.2969
  650MOL0     O89586  11.014   3.089  11.324 -0.1500 -0.2675 -0.5685
  650MOL0     C89587  10.994   2.970  11.258  0.2891  0.0487 -0.3156
  650MOL0     C89588  11.106   2.896  11.213  0.0070  0.6397  0.3847
  650MOL0     C89589  11.100   2.769  11.149  0.6895  0.1780 -0.7135
  650MOL0     C89590  11.238   2.718  11.105  0.9789 -0.4362 -0.1684
  650MOL0     C89591  10.969   2.720  11.115 -0.2578  0.9458  0.0013
  650MOL0     C89592  10.947   2.609  11.027  0.7667  0.2156 -0.1941
  650MOL0     O89593  10.831   2.531  11.058 -0.1178  0.1338 -0.2131
  650MOL0     C89594  10.833   2.412  10.998  0.4683  0.0290  0.9556
  650MOL0     C89595  10.723   2.373  10.917  0.3377 -1.5907  0.8272
  650MOL0     C89596  10.723   2.245  10.862 -0.8917  0.0816 -0.4991
  650MOL0     C89597  10.832   2.157  10.877 -0.1549  0.4676 -0.1821
  650MOL0     O89598  10.858   2.037  10.808 -0.3277  1.0160  0.1258
  650MOL0     C89599  10.770   2.007  10.698  0.5887 -0.1353  0.0887
  650MOL0     C89600  10.819   1.876  10.635 -0.3204 -0.4914  1.0134
  650MOL0     C89601  10.958   1.877  10.561  0.1398  0.0024  0.2022
  650MOL0     C89602  10.939   1.929  10.417  0.7378 -1.1760  0.3234
  650MOL0     C89603  11.075   1.964  10.347 -0.1638  0.1484  0.2101
  650MOL0     C89604  11.167   1.844  10.330 -0.0744 -0.3422 -0.1408
  650MOL0     C89605  11.311   1.887  10.286 -0.0638 -0.0347  0.6146
  650MOL0     C89606  11.403   1.778  10.223  0.8707 -0.7432 -0.9228
  650MOL0    Cl89607  11.342   1.696  10.069 -0.3031 -0.0630 -0.1017
  650MOL0     C89608  10.947   2.204  10.946 -0.1540  0.3546  0.7007
  650MOL0     C89609  10.942   2.326  11.017  0.6036 -0.6203  0.3379
  650MOL0     O89610  11.033   2.587  10.938  0.4477  0.8085  0.1441
  650MOL0     C89611  10.859   2.785  11.167  0.1524 -0.2041 -0.7545
  650MOL0     C89612  10.872   2.903  11.233  1.5052  0.9366 -0.1687
  650MOL0     N89613  10.941   3.572  11.692  0.1715  0.2823  0.6891
  650MOL0     N89614  10.842   3.653  11.688  0.5129  0.5218 -0.9022
  650MOL0     C89615  11.186   4.149  10.921  0.1343  0.3235  0.6949
  650MOL0     C89616  11.327   4.143  10.942  0.5388  0.2515 -0.5012
  650MOL0     C89617  11.759   4.300  10.936 -0.1098 -1.2559  0.2295
  650MOL0     C89618  11.796   4.278  11.069  0.3032 -0.1281  0.5339
  650MOL0     C89619  11.926   4.275  11.115  0.7049  0.3587 -0.5255
  650MOL0     C89620  12.027   4.263  11.020  0.2353 -0.2768 -0.4760
  650MOL0     O89621  12.142   4.225  11.079 -0.4086 -0.4240 -0.7044
  650MOL0     C89622  12.269   4.235  11.001  0.7352  1.5641 -0.0171
  650MOL0     C89623  12.390   4.175  11.077 -0.5229  0.1937 -0.2263
  650MOL0     C89624  12.438   4.280  11.177 -0.1188 -0.4211 -0.1477
  650MOL0     C89625  12.576   4.326  11.128 -0.0881 -0.4614  0.1470
  650MOL0     C89626  12.622   4.435  11.214 -0.6254  0.1848  0.6376
  650MOL0     C89627  12.674   4.531  11.273 -0.1069  0.5920  0.1745
  650MOL0     C89628  12.000   4.279  10.886 -0.1196  0.1468  0.0588
  650MOL0     C89629  11.865   4.289  10.842  0.1388  0.6695 -0.1971
  650MOL0     C89630  11.852   4.289  10.696 -0.2050 -0.5356  0.1851
  650MOL0     H89631  11.384   4.474  10.934 -1.2484 -0.0915 -0.2858
  650MOL0     H89632  11.121   4.473  10.936 -0.7702  0.5582 -1.1162
  650MOL0     H89633  10.867   4.406  10.925 -2.0812 -1.3544 -2.7227
  650MOL0     H89634  10.929   4.357  11.094  1.9122 -0.5423 -0.9142
  650MOL0     H89635  10.678   4.319  11.071  0.1871  0.1923 -0.1535
  650MOL0     H89636  10.725   4.205  10.946 -0.5631 -0.1826  0.3150
  650MOL0     H89637  10.694   4.067  11.108 -4.5794  3.7808  2.7691
  650MOL0     H89638  10.872   4.086  11.123  0.1027  0.7009 -0.5772
  650MOL0     H89639  10.864   4.179  11.319 -1.4463  1.5325  1.6617
  650MOL0     H89640  10.697   4.247  11.312  0.7492  1.1459 -0.6626
  650MOL0     H89641  10.750   3.947  11.303 -2.2248 -0.2736  0.0739
  650MOL0     H89642  10.598   4.019  11.310 -0.2740  0.7286  1.9790
  650MOL0     H89643  10.762   4.119  11.537  0.3536 -1.4315  0.5086
  650MOL0     H89644  10.604   4.036  11.528  0.0889 -3.3603  0.2715
  650MOL0     H89645  10.795   3.928  11.656 -1.9924 -3.6054  1.5684
  650MOL0     H89646  10.873   3.914  11.493 -1.0858 -0.8220 -0.6051
  650MOL0     H89647  10.613   3.771  11.588  0.1862  0.7073  0.1558
  650MOL0     H89648  10.668   3.757  11.421 -0.3535 -0.3389 -0.0656
  650MOL0     H89649  10.844   3.579  11.374  0.4679 -1.7697 -0.3118
  650MOL0     H89650  11.147   3.469  11.564  1.1780 -0.7815 -2.1543
  650MOL0     H89651  11.075   3.443  11.402  0.9152  0.2831 -0.2265
  650MOL0     H89652  11.116   3.220  11.508  0.6151  1.2262 -2.1488
  650MOL0     H89653  11.019   3.271  11.645  0.9884  1.3702  0.5582
  650MOL0     H89654  10.857   3.157  11.519 -1.8615 -0.1012 -1.1027
  650MOL0     H89655  10.823   3.314  11.454 -1.9329 -1.9395 -1.1782
  650MOL0     H89656  10.821   3.139  11.285  2.7573 -2.2148 -2.7941
  650MOL0     H89657  10.947   3.262  11.241  3.9004 -1.6245  0.5893
  650MOL0     H89658  11.201   2.945  11.232 -0.5428  1.3346  1.4331
  650MOL0     H89659  11.243   2.612  11.129 -0.7326 -1.0244 -2.0735
  650MOL0     H89660  11.320   2.777  11.146  1.3250  0.2510 -1.7439
  650MOL0     H89661  11.245   2.730  10.996 -4.0151  1.6663 -0.5507
  650MOL0     H89662  10.638   2.439  10.906  1.5643 -0.2393 -1.0565
  650MOL0     H89663  10.647   2.198  10.800 -0.7645 -0.0285 -0.5725
  650MOL0     H89664  10.670   1.985  10.738 -0.4323  4.8328  0.9565
  650MOL0     H89665  10.776   2.092  10.628  0.1580 -0.0547  0.1489
  650MOL0     H89666  10.824   1.807  10.719  2.3104  1.2370  2.4193
  650MOL0     H89667  10.737   1.832  10.577 -1.6880  0.7805  1.9233
  650MOL0     H89668  11.009   1.781  10.552  0.1049 -0.1717  1.6689
  650MOL0     H89669  11.027   1.939  10.619  1.5637 -2.7230  1.5889
  650MOL0     H89670  10.867   2.012  10.415  0.6758 -1.2112 -2.4232
  650MOL0     H89671  10.891   1.852  10.356 -0.2716 -1.2303  1.1473
  650MOL0     H89672  11.069   2.016  10.251 -2.2529  1.2738  0.8874
  650MOL0     H89673  11.127   2.043  10.401  0.1563 -0.4273  0.7538
  650MOL0     H89674  11.112   1.764  10.279 -4.8210  1.2799  1.8681
  650MOL0     H89675  11.184   1.797  10.428  1.5351 -0.4035 -0.4182
  650MOL0     H89676  11.351   1.927  10.380 -1.8181  0.3528  1.2372
  650MOL0     H89677  11.304   1.964  10.209 -1.2226  1.2965  1.9875
  650MOL0     H89678  11.413   1.708  10.306 -2.2804  0.4377  0.6237
  650MOL0     H89679  11.505   1.809  10.200  1.3678 -2.3453 -0.9778
  650MOL0     H89680  11.024   2.128  10.955  0.6599  1.1760  0.8025
  650MOL0     H89681  11.025   2.353  11.082 -0.1219  0.1535  0.9692
  650MOL0     H89682  10.768   2.725  11.158  0.8210 -1.1497 -1.4770
  650MOL0     H89683  10.777   2.938  11.274  2.6618  1.9385  1.8074
  650MOL0     H89684  11.127   4.062  10.894  0.0684  0.3672  0.7007
  650MOL0     H89685  11.368   4.044  10.956 -0.2157 -0.1585 -1.1239
  650MOL0     H89686  11.713   4.269  11.138  1.2900 -1.3964  1.6009
  650MOL0     H89687  11.950   4.271  11.221 -1.1057  0.6951 -0.0563
  650MOL0     H89688  12.248   4.188  10.904 -0.1338  1.6692  0.1123
  650MOL0     H89689  12.280   4.340  10.974 -0.5812  1.6986 -0.1354
  650MOL0     H89690  12.474   4.156  11.009 -1.5834  1.4274 -1.9800
  650MOL0     H89691  12.361   4.079  11.120 -0.1454 -0.8174 -2.1093
  650MOL0     H89692  12.371   4.366  11.184 -1.1188 -1.2208  0.4768
  650MOL0     H89693  12.461   4.237  11.276  1.1238 -3.1295 -1.5028
  650MOL0     H89694  12.556   4.355  11.024  0.3315 -0.3821  0.0876
  650MOL0     H89695  12.655   4.250  11.130 -0.8180 -1.3592  4.4664
  650MOL0     H89696  12.708   4.619  11.324 -3.0048  1.0732  1.4580
  650MOL0     H89697  12.083   4.287  10.816 -0.4270  1.4780 -0.1906
  650MOL0     H89698  11.935   4.262  10.630 -0.9652 -0.9531 -0.6135
  650MOL0     H89699  11.780   4.215  10.661 -1.1630  0.1854  0.6019
  650MOL0     H89700  11.823   4.390  10.668 -0.3014  0.0571  2.2467
  651MOL0     O89701   9.919   1.038   6.394 -0.2137 -0.2519  0.3136
  651MOL0     C89702   9.919   1.155   6.351 -0.0713  0.5146 -0.2574
  651MOL0     O89703   9.817   1.203   6.274  0.4651 -0.8393  0.1607
  651MOL0     C89704   9.700   1.140   6.260 -0.0305  0.2701 -0.3860
  651MOL0     C89705   9.597   1.194   6.335  0.3843 -0.0034 -0.9139
  651MOL0     C89706   9.464   1.142   6.327 -1.3329 -0.9664 -0.3059
  651MOL0     C89707   9.431   1.036   6.244 -0.1587 -1.4673 -0.2705
  651MOL0     O89708   9.296   0.997   6.247  0.2570  0.6170  0.7592
  651MOL0     C89709   9.256   0.884   6.171  0.2339  0.3996 -0.8830
  651MOL0     C89710   9.143   0.800   6.232 -0.3222  0.5196 -0.2573
  651MOL0     C89711   9.195   0.693   6.328 -0.2349  0.4250  0.7141
  651MOL0     C89712   9.252   0.562   6.266  0.3865 -0.4922  0.8896
  651MOL0     C89713   9.352   0.484   6.357  0.2522  0.0681  0.1455
  651MOL0     C89714   9.446   0.376   6.300  0.6903  0.5520  1.4879
  651MOL0     C89715   9.561   0.336   6.391  1.0344 -0.5463 -0.9406
  651MOL0     C89716   9.681   0.437   6.387  0.2574 -0.2871 -0.2003
  651MOL0     N89717   9.789   0.377   6.472  0.5609 -0.2094  0.3805
  651MOL0     C89718   9.781   0.362   6.608  0.3206 -0.8051  1.0093
  651MOL0     C89719   9.903   0.313   6.637 -0.4280  0.4847 -0.4874
  651MOL0     C89720   9.963   0.275   6.769  1.1287  0.3167 -0.7438
  651MOL0     C89721  10.099   0.336   6.797  0.4844 -0.5790  0.6443
  651MOL0     C89722  10.174   0.259   6.903 -0.0906 -0.2212  0.7474
  651MOL0     C89723  10.312   0.319   6.942 -0.0024  0.6418 -0.6009
  651MOL0     O89724  10.418   0.223   6.962 -0.4586 -0.2966 -0.1849
  651MOL0     C89725  10.523   0.269   7.041  0.4489  0.6222  1.1996
  651MOL0     C89726  10.549   0.408   7.062  0.3370  0.3780  0.2946
  651MOL0     C89727  10.664   0.451   7.139  0.3737  0.0604 -0.6762
  651MOL0     C89728  10.699   0.599   7.143  0.7546 -0.0100 -0.5650
  651MOL0     C89729  10.732   0.356   7.218  0.2239 -0.2079 -1.0338
  651MOL0     C89730  10.853   0.382   7.304 -0.5643 -0.3878 -0.7053
  651MOL0     O89731  10.929   0.277   7.357  0.1005 -1.3051 -0.2598
  651MOL0     C89732  11.023   0.295   7.450  0.6798  0.1970  0.3913
  651MOL0     C89733  11.016   0.224   7.572 -0.0197 -0.8104  0.0923
  651MOL0     C89734  11.129   0.233   7.658  0.2991  0.0816  0.2525
  651MOL0     C89735  11.243   0.297   7.630  0.2341 -0.4930  1.0253
  651MOL0     O89736  11.334   0.311   7.730  0.1443 -0.4297  0.7730
  651MOL0     C89737  11.465   0.356   7.702  0.6772 -0.2228  0.2758
  651MOL0     C89738  11.497   0.502   7.728 -0.3032  0.0065  0.7540
  651MOL0     C89739  11.653   0.510   7.726  0.0504 -0.5449 -0.4662
  651MOL0     C89740  11.708   0.639   7.794  1.0064 -0.2734 -0.5405
  651MOL0     C89741  11.845   0.630   7.867  0.0172 -0.4911  0.2642
  651MOL0     C89742  11.965   0.615   7.765  0.0413 -0.2280 -0.5419
  651MOL0     C89743  12.067   0.527   7.825  0.6332  0.1071 -0.3596
  651MOL0     C89744  12.027   0.383   7.787  1.0665  0.3842  1.0497
  651MOL0    Cl89745  12.101   0.313   7.647 -0.4062  0.4336  0.1004
  651MOL0     C89746  11.246   0.374   7.504 -0.6606 -0.6039  0.4092
  651MOL0     C89747  11.133   0.379   7.424  0.0170  0.7712  0.3726
  651MOL0     O89748  10.872   0.494   7.341  0.3204  0.4466  0.2312
  651MOL0     C89749  10.686   0.223   7.207 -0.3028  0.0747 -0.2836
  651MOL0     C89750  10.592   0.176   7.112  0.2657  0.0660  0.2983
  651MOL0     N89751   9.971   0.288   6.518 -0.3752 -0.0231 -1.1890
  651MOL0     N89752   9.902   0.323   6.418  0.7447  0.3535  0.2043
  651MOL0     C89753   9.533   0.988   6.169 -0.5484  0.3058 -0.3274
  651MOL0     C89754   9.668   1.037   6.173  0.0652  0.5170 -0.6282
  651MOL0     C89755  10.039   1.245   6.381  0.6134  0.2837  0.1421
  651MOL0     C89756  10.027   1.378   6.318 -1.1764  1.0007  0.2189
  651MOL0     C89757  10.137   1.465   6.331  0.0995  0.0942 -0.8260
  651MOL0     C89758  10.255   1.439   6.408  0.3700  0.2350  0.6319
  651MOL0     O89759  10.357   1.532   6.420 -0.2543 -0.3687 -0.2673
  651MOL0     C89760  10.356   1.653   6.336  0.7507  0.1726 -0.0721
  651MOL0     C89761  10.483   1.736   6.344  0.0009  0.4111 -0.5604
  651MOL0     C89762  10.477   1.854   6.249  0.3203 -0.2035  0.2683
  651MOL0     C89763  10.613   1.928   6.236  0.0600 -0.1447 -0.0262
  651MOL0     C89764  10.712   1.838   6.168  0.2978  0.2731  0.7599
  651MOL0     C89765  10.803   1.775   6.110  0.3729  0.7040 -0.7873
  651MOL0     C89766  10.266   1.310   6.463 -0.3210 -0.6009 -0.4813
  651MOL0     C89767  10.169   1.208   6.439  0.9359  0.3015 -0.2559
  651MOL0     C89768  10.194   1.071   6.505 -0.4497  0.3401 -0.3235
  651MOL0     H89769   9.625   1.275   6.400 -0.6817  0.7999 -1.4096
  651MOL0     H89770   9.390   1.194   6.386  0.8606  2.8837 -0.6642
  651MOL0     H89771   9.332   0.814   6.134 -1.5625 -1.3586 -1.4782
  651MOL0     H89772   9.221   0.914   6.072 -2.7950 -3.2469 -1.1665
  651MOL0     H89773   9.074   0.871   6.277 -1.7599 -0.4574 -0.8664
  651MOL0     H89774   9.091   0.752   6.149 -1.8892  2.0134 -0.1865
  651MOL0     H89775   9.264   0.743   6.397  0.8695 -0.3004  0.1532
  651MOL0     H89776   9.122   0.665   6.404 -1.1300 -1.3743 -0.7308
  651MOL0     H89777   9.160   0.511   6.236 -1.3303  2.0066  1.5881
  651MOL0     H89778   9.298   0.587   6.170  0.8436 -1.7908  0.7472
  651MOL0     H89779   9.298   0.431   6.435 -0.9143  1.3546  0.2407
  651MOL0     H89780   9.416   0.558   6.407  0.4405  0.3452 -0.4960
  651MOL0     H89781   9.399   0.280   6.275  2.4035 -0.4137  1.7542
  651MOL0     H89782   9.489   0.406   6.204 -1.6618 -0.2558  0.1154
  651MOL0     H89783   9.607   0.239   6.367  0.6666 -0.3964 -2.3402
  651MOL0     H89784   9.529   0.346   6.496  2.7099 -0.6032 -0.3918
  651MOL0     H89785   9.705   0.449   6.281 -0.9145  2.5201 -0.2476
  651MOL0     H89786   9.656   0.528   6.442  1.7142 -1.0004  1.7636
  651MOL0     H89787   9.700   0.384   6.677  1.0230  0.5422  1.4457
  651MOL0     H89788   9.994   0.171   6.756 -1.4077 -0.6176  0.0025
  651MOL0     H89789   9.895   0.284   6.854  1.1418 -0.9745 -0.5722
  651MOL0     H89790  10.169   0.338   6.713  0.9041  2.1643  0.9522
  651MOL0     H89791  10.093   0.441   6.829 -0.9812 -0.2277 -0.6472
  651MOL0     H89792  10.116   0.258   6.995 -3.1721  2.1620 -0.9806
  651MOL0     H89793  10.187   0.155   6.874 -3.0071  0.0447 -2.0993
  651MOL0     H89794  10.347   0.395   6.872  0.0287  1.2740  0.0823
  651MOL0     H89795  10.291   0.376   7.033  1.2123  1.2952 -0.7039
  651MOL0     H89796  10.501   0.488   7.007  0.4025  1.7624  2.1544
  651MOL0     H89797  10.791   0.615   7.086  1.1409 -0.3770 -0.0423
  651MOL0     H89798  10.708   0.633   7.246 -2.9752 -0.1780 -0.0374
  651MOL0     H89799  10.625   0.666   7.097  4.8358  4.7821 -0.9543
  651MOL0     H89800  10.925   0.167   7.587  0.1087 -0.5501  2.1079
  651MOL0     H89801  11.115   0.175   7.749 -1.7995 -0.9511 -0.6834
  651MOL0     H89802  11.523   0.284   7.761 -0.2036 -2.0273 -0.9859
  651MOL0     H89803  11.489   0.338   7.597  4.4393  3.9856  0.1100
  651MOL0     H89804  11.458   0.560   7.643  2.5424 -0.9204 -1.3392
  651MOL0     H89805  11.460   0.538   7.825  0.4037  2.6028  0.1492
  651MOL0     H89806  11.696   0.495   7.627 -0.2179  3.4678 -1.3805
  651MOL0     H89807  11.690   0.426   7.785 -0.2089  0.4588  1.2068
  651MOL0     H89808  11.635   0.658   7.873 -3.5132 -4.1523 -3.2280
  651MOL0     H89809  11.706   0.715   7.716  1.8918  0.8887  0.5433
  651MOL0     H89810  11.866   0.717   7.929 -1.0757 -0.6987  0.9529
  651MOL0     H89811  11.838   0.548   7.939 -1.2586 -1.3197 -0.7598
  651MOL0     H89812  12.008   0.709   7.728 -0.1845 -0.0473 -0.3414
  651MOL0     H89813  11.925   0.558   7.681  1.1039  1.4177 -2.2786
  651MOL0     H89814  12.060   0.536   7.934  2.6661  0.0715 -0.1867
  651MOL0     H89815  12.169   0.548   7.790 -0.9642  1.1043 -5.1506
  651MOL0     H89816  11.919   0.366   7.776  1.0813  0.9997 -0.2196
  651MOL0     H89817  12.037   0.323   7.878  0.2442  2.2933  2.4755
  651MOL0     H89818  11.330   0.433   7.468  0.1878 -1.0417  1.5915
  651MOL0     H89819  11.141   0.440   7.335 -1.0053 -1.3954 -1.2984
  651MOL0     H89820  10.723   0.146   7.274  0.7774 -4.0893 -5.0329
  651MOL0     H89821  10.570   0.070   7.117  0.1325 -0.1307 -2.6542
  651MOL0     H89822   9.501   0.911   6.100  0.6597 -0.8221  0.3421
  651MOL0     H89823   9.743   0.998   6.106 -1.4773  1.3152 -2.9531
  651MOL0     H89824   9.934   1.404   6.268 -2.7423 -0.7612  2.0473
  651MOL0     H89825  10.127   1.559   6.277  0.3602 -0.0565 -1.1424
  651MOL0     H89826  10.338   1.632   6.230  0.3665  1.4392 -0.2742
  651MOL0     H89827  10.275   1.713   6.378  2.6530  1.5372  1.9031
  651MOL0     H89828  10.568   1.674   6.313 -0.1850  0.3360 -0.9296
  651MOL0     H89829  10.497   1.774   6.446  2.4613 -2.7712  0.4577
  651MOL0     H89830  10.445   1.832   6.146  1.1623  1.9355 -0.5249
  651MOL0     H89831  10.410   1.924   6.299  1.6208  0.8373  0.6204
  651MOL0     H89832  10.661   1.948   6.332 -1.2950 -0.1603  0.6775
  651MOL0     H89833  10.600   2.016   6.172 -3.2850 -0.1432  0.4413
  651MOL0     H89834  10.889   1.717   6.084 -0.3113 -0.1238 -1.2772
  651MOL0     H89835  10.360   1.293   6.515  1.0881  4.4452 -0.9115
  651MOL0     H89836  10.216   1.000   6.425 -0.4768 -2.0241  1.6646
  651MOL0     H89837  10.285   1.078   6.566  0.1776 -0.3117 -1.1573
  651MOL0     H89838  10.121   1.030   6.576  2.4719 -2.2965  1.4017
  652MOL0     O89839   4.005   7.365   1.395  0.0677  0.2143  0.1926
  652MOL0     C89840   3.971   7.367   1.510  0.9920  0.7500 -0.7402
  652MOL0     O89841   4.043   7.418   1.615 -0.1498 -0.2616  0.1747
  652MOL0     C89842   4.168   7.478   1.601 -0.8469  0.0568 -1.2872
  652MOL0     C89843   4.194   7.583   1.520 -0.8744  0.1971 -0.8349
  652MOL0     C89844   4.315   7.651   1.526 -0.2869 -0.2073 -0.0892
  652MOL0     C89845   4.421   7.601   1.588 -0.3255  0.4120 -1.3062
  652MOL0     O89846   4.543   7.660   1.576  0.5237  0.3271  0.7050
  652MOL0     C89847   4.655   7.576   1.583 -0.5502  0.7616 -0.3663
  652MOL0     C89848   4.787   7.653   1.574 -0.0265  0.3865 -0.4486
  652MOL0     C89849   4.909   7.570   1.579  0.1654 -0.1339  0.8873
  652MOL0     C89850   5.037   7.656   1.611 -0.0809  0.0461  0.5818
  652MOL0     C89851   5.143   7.616   1.522  0.2510  0.1437  0.2795
  652MOL0     C89852   5.277   7.689   1.564  0.1186  0.5108  0.0934
  652MOL0     C89853   5.400   7.655   1.474 -0.7196  0.0243 -0.8936
  652MOL0     C89854   5.422   7.745   1.346 -0.0994  1.2093 -0.3869
  652MOL0     N89855   5.326   7.726   1.237  1.0870  0.6958 -0.0187
  652MOL0     C89856   5.268   7.831   1.167 -0.5547 -0.3009 -0.9521
  652MOL0     C89857   5.216   7.766   1.057 -0.1760  0.3987  0.3347
  652MOL0     C89858   5.183   7.837   0.932  1.1053 -0.1352 -0.7891
  652MOL0     C89859   5.066   7.756   0.873  0.3773  0.3506  0.1759
  652MOL0     C89860   4.994   7.818   0.758 -0.2035 -0.5407  0.0890
  652MOL0     C89861   4.889   7.921   0.822  0.2788 -1.3438  0.6360
  652MOL0     O89862   4.830   8.012   0.730 -0.4233  0.0565  0.3482
  652MOL0     C89863   4.711   8.072   0.764 -0.2047  0.0589 -0.0770
  652MOL0     C89864   4.653   8.070   0.889  0.5278 -0.9624 -0.6172
  652MOL0     C89865   4.526   8.135   0.917  0.0330  0.3358 -0.4430
  652MOL0     C89866   4.474   8.106   1.060 -0.3744 -0.7972  0.0781
  652MOL0     C89867   4.458   8.191   0.811  0.1585  1.1666  0.6400
  652MOL0     C89868   4.317   8.251   0.818  0.1932  0.2992 -0.3886
  652MOL0     O89869   4.257   8.296   0.702  0.1443  0.0034 -0.4162
  652MOL0     C89870   4.123   8.248   0.680 -0.2407  0.8064 -0.1770
  652MOL0     C89871   4.059   8.148   0.745  0.6738 -0.7098 -0.2478
  652MOL0     C89872   3.926   8.124   0.722  0.8159  0.3288  0.6846
  652MOL0     C89873   3.861   8.176   0.610  0.9044  0.4059  1.1798
  652MOL0     O89874   3.737   8.115   0.578 -0.4573 -0.3481 -0.2799
  652MOL0     C89875   3.666   8.156   0.467  0.9121 -0.0592  0.5946
  652MOL0     C89876   3.618   8.302   0.484 -0.4402  0.4258  0.0345
  652MOL0     C89877   3.504   8.337   0.400  0.1416 -0.8012  1.4508
  652MOL0     C89878   3.467   8.488   0.411 -0.3488 -0.1948  0.5040
  652MOL0     C89879   3.347   8.519   0.311  0.5479 -0.9066  0.2368
  652MOL0     C89880   3.407   8.593   0.173 -0.7096  0.2708  0.4240
  652MOL0     C89881   3.288   8.649   0.089  0.8054  0.8030 -0.0288
  652MOL0     C89882   3.323   8.681  -0.049 -1.5378 -0.7066  0.5065
  652MOL0    Cl89883   3.432   8.820  -0.070 -0.4415 -0.4507  0.0949
  652MOL0     C89884   3.933   8.259   0.522 -0.5847  0.2780  0.2103
  652MOL0     C89885   4.059   8.302   0.571  0.7948  0.2849 -0.6190
  652MOL0     O89886   4.263   8.267   0.926 -0.5908 -0.1204 -0.4655
  652MOL0     C89887   4.516   8.183   0.685 -0.7063 -0.5020 -0.0484
  652MOL0     C89888   4.637   8.117   0.658  0.3329 -0.0657 -0.9003
  652MOL0     N89889   5.235   7.628   1.067 -0.1733  1.0236 -0.8491
  652MOL0     N89890   5.297   7.604   1.176  0.3296  0.6415 -0.4148
  652MOL0     C89891   4.403   7.482   1.660 -0.3023 -0.0553  0.2319
  652MOL0     C89892   4.273   7.427   1.677 -0.0773  0.3990 -0.4734
  652MOL0     C89893   3.838   7.292   1.544 -0.0094  0.4583  0.3532
  652MOL0     C89894   3.760   7.253   1.432  0.6215  0.2869  0.1064
  652MOL0     C89895   3.643   7.184   1.452  0.8586 -0.8917  0.8658
  652MOL0     C89896   3.588   7.158   1.582  0.3447  0.6610 -0.3511
  652MOL0     O89897   3.461   7.100   1.601  0.0461  0.6376 -0.2876
  652MOL0     C89898   3.399   7.032   1.493  0.7260  0.4656 -0.2219
  652MOL0     C89899   3.276   6.972   1.565 -0.6147 -0.2256 -0.0476
  652MOL0     C89900   3.177   7.076   1.616 -0.9724  0.7016  0.7731
  652MOL0     C89901   3.077   7.139   1.515 -0.2233  1.6334 -0.4442
  652MOL0     C89902   2.974   7.037   1.476  0.8557  0.8824 -1.3107
  652MOL0     C89903   2.893   6.957   1.427  0.8251 -0.3305  1.6043
  652MOL0     C89904   3.658   7.209   1.685 -0.4735  1.2551 -0.4408
  652MOL0     C89905   3.782   7.276   1.673 -0.0683  0.5879 -0.2383
  652MOL0     C89906   3.852   7.339   1.792  0.7281  0.5323 -0.8298
  652MOL0     H89907   4.113   7.615   1.455 -0.1128  2.8708 -0.5865
  652MOL0     H89908   4.321   7.744   1.470  1.8821  0.0037  0.4007
  652MOL0     H89909   4.669   7.498   1.508  1.9611  1.8722 -1.1522
  652MOL0     H89910   4.664   7.531   1.683  1.7980  0.9413 -0.4474
  652MOL0     H89911   4.785   7.692   1.471  0.0797  0.0499 -0.5795
  652MOL0     H89912   4.788   7.732   1.649 -1.8589 -0.5317  0.6164
  652MOL0     H89913   4.897   7.500   1.662  0.1237 -2.3515 -0.8902
  652MOL0     H89914   4.916   7.508   1.489 -2.0924 -1.9441  1.8576
  652MOL0     H89915   5.026   7.764   1.608  1.7916  0.2616  0.4624
  652MOL0     H89916   5.061   7.634   1.715 -1.3516  0.0998  0.9108
  652MOL0     H89917   5.124   7.649   1.420  4.8362  2.9317  0.0421
  652MOL0     H89918   5.166   7.509   1.513 -0.0809  0.0104  0.9135
  652MOL0     H89919   5.257   7.796   1.573 -2.0659  0.6515 -3.9000
  652MOL0     H89920   5.299   7.661   1.667 -4.8423  3.9044  2.4467
  652MOL0     H89921   5.383   7.551   1.444  3.4426 -0.5547 -1.9327
  652MOL0     H89922   5.489   7.657   1.537 -0.8360  4.1058 -0.5550
  652MOL0     H89923   5.425   7.850   1.376  0.8512  1.5988 -1.7569
  652MOL0     H89924   5.518   7.712   1.306 -1.0337 -0.7380 -1.1293
  652MOL0     H89925   5.284   7.937   1.180  2.7649 -0.9648  1.6430
  652MOL0     H89926   5.272   7.846   0.871  1.4240  4.8531  0.0117
  652MOL0     H89927   5.156   7.941   0.951 -2.5414 -1.3571  1.9698
  652MOL0     H89928   5.114   7.659   0.854  0.8673  0.4658  0.7909
  652MOL0     H89929   4.995   7.729   0.952 -2.8402  0.0197 -2.5913
  652MOL0     H89930   5.065   7.871   0.695  2.0582 -2.5898  0.7601
  652MOL0     H89931   4.952   7.736   0.698 -0.0993 -2.4958  2.5493
  652MOL0     H89932   4.816   7.866   0.882  1.6066 -0.1925  3.5282
  652MOL0     H89933   4.936   7.986   0.897 -1.5661 -0.5362  1.1389
  652MOL0     H89934   4.705   8.012   0.965  0.1177 -1.0710 -0.4154
  652MOL0     H89935   4.445   8.199   1.110 -2.6499 -0.9211 -0.9129
  652MOL0     H89936   4.556   8.061   1.117 -1.2999  0.1414  2.2617
  652MOL0     H89937   4.390   8.037   1.065 -0.2387 -1.0668 -1.1203
  652MOL0     H89938   4.109   8.110   0.833  0.2582  0.4439  0.5088
  652MOL0     H89939   3.871   8.056   0.786  0.8258  0.6179  1.0018
  652MOL0     H89940   3.725   8.145   0.375 -3.0874  0.5078 -2.3388
  652MOL0     H89941   3.589   8.078   0.457  1.2817 -0.1253 -3.0359
  652MOL0     H89942   3.602   8.309   0.592  1.6855  0.9851  0.3624
  652MOL0     H89943   3.704   8.366   0.462 -2.4207  3.2641  0.0052
  652MOL0     H89944   3.414   8.286   0.436 -0.5526 -0.4727  0.2235
  652MOL0     H89945   3.515   8.292   0.301 -1.8549 -1.8040  1.6471
  652MOL0     H89946   3.550   8.552   0.381 -1.8161  1.2794 -0.5825
  652MOL0     H89947   3.443   8.520   0.513  1.1510  2.5168  0.0891
  652MOL0     H89948   3.299   8.428   0.275  2.2193 -0.7251 -2.8208
  652MOL0     H89949   3.275   8.585   0.360 -0.7242 -2.8711  1.1386
  652MOL0     H89950   3.458   8.521   0.108 -1.3461  2.3385 -2.6259
  652MOL0     H89951   3.481   8.667   0.206  1.0776 -1.6167  0.8303
  652MOL0     H89952   3.237   8.727   0.146  0.8364 -1.2980  3.0919
  652MOL0     H89953   3.209   8.572   0.084  2.4521 -1.5221  4.4862
  652MOL0     H89954   3.243   8.717  -0.114 -0.1201 -0.1642 -1.0013
  652MOL0     H89955   3.367   8.601  -0.108 -0.9634 -2.2455  2.8570
  652MOL0     H89956   3.893   8.277   0.423 -1.5141  2.4387  0.9330
  652MOL0     H89957   4.118   8.380   0.522  1.3143  0.3881  0.1417
  652MOL0     H89958   4.469   8.216   0.592  1.5456 -0.2605 -1.1790
  652MOL0     H89959   4.669   8.086   0.559  0.0650 -1.8442 -0.4673
  652MOL0     H89960   4.482   7.445   1.724  0.0857 -0.6225 -0.5624
  652MOL0     H89961   4.258   7.353   1.755 -1.8162 -0.5178 -1.6134
  652MOL0     H89962   3.789   7.252   1.327  0.9792 -4.7449  0.0189
  652MOL0     H89963   3.596   7.158   1.357  1.9711  3.9359 -1.2947
  652MOL0     H89964   3.355   7.095   1.415  0.3802  0.3716 -0.1049
  652MOL0     H89965   3.463   6.955   1.450  1.4349 -0.2913  2.0283
  652MOL0     H89966   3.307   6.920   1.656 -0.1062 -0.1306 -0.1651
  652MOL0     H89967   3.221   6.894   1.511 -1.9706 -0.9543  2.2326
  652MOL0     H89968   3.111   7.045   1.698 -2.2426 -0.4715 -0.6437
  652MOL0     H89969   3.231   7.162   1.656 -1.9620  1.7837 -0.1195
  652MOL0     H89970   3.122   7.173   1.421 -3.0245  0.2953 -2.3943
  652MOL0     H89971   3.032   7.227   1.563  3.1343  2.6044  1.2497
  652MOL0     H89972   2.822   6.889   1.386 -1.3465  1.4249  2.2576
  652MOL0     H89973   3.640   7.189   1.790  2.5075 -0.3168 -0.1208
  652MOL0     H89974   3.793   7.332   1.884 -1.4253 -2.3934 -2.2711
  652MOL0     H89975   3.946   7.285   1.803 -0.7648 -2.1214 -0.2898
  652MOL0     H89976   3.870   7.447   1.783  2.4741  0.1736 -2.0838
  653MOL0     O89977   7.591   5.302   5.463  0.1791 -0.6824  0.6334
  653MOL0     C89978   7.563   5.319   5.343 -0.7195 -0.3377  0.5791
  653MOL0     O89979   7.445   5.301   5.284  0.3289 -0.6448 -0.2111
  653MOL0     C89980   7.375   5.186   5.334 -0.3336 -1.1265  0.0070
  653MOL0     C89981   7.260   5.199   5.419  0.4160 -0.2666 -0.3263
  653MOL0     C89982   7.191   5.083   5.467  0.2932  0.2033  0.1852
  653MOL0     C89983   7.241   4.955   5.427  0.2064 -0.4760 -0.8806
  653MOL0     O89984   7.175   4.854   5.491  0.4459  0.1719 -0.5059
  653MOL0     C89985   7.182   4.727   5.424 -0.5884  0.7761  0.5553
  653MOL0     C89986   7.044   4.706   5.360  0.1195 -0.5458 -0.4093
  653MOL0     C89987   6.939   4.687   5.468  0.3058 -0.1318  0.2715
  653MOL0     C89988   6.871   4.823   5.510 -0.7345 -0.4959  0.0905
  653MOL0     C89989   6.742   4.816   5.600  0.5562  0.0434  1.2584
  653MOL0     C89990   6.684   4.962   5.632  0.2202  0.4805  0.6593
  653MOL0     C89991   6.564   4.951   5.724  0.4731 -0.4123 -0.3019
  653MOL0     C89992   6.603   4.883   5.868  0.0492 -0.3696  0.4162
  653MOL0     N89993   6.714   4.947   5.934 -0.2916  0.1967 -0.9848
  653MOL0     C89994   6.699   5.068   5.998 -0.4676 -0.6450 -0.5283
  653MOL0     C89995   6.821   5.079   6.062 -1.5687 -0.4472 -0.3892
  653MOL0     C89996   6.890   5.207   6.111  0.6046 -0.7000 -0.3515
  653MOL0     C89997   6.877   5.201   6.263  0.1341 -0.6306 -0.9039
  653MOL0     C89998   6.798   5.322   6.323 -0.6912 -0.5113 -0.6504
  653MOL0     C89999   6.866   5.376   6.451 -0.0368  0.2575  0.1361
  653MOL0     O90000   6.980   5.450   6.411  0.0419  0.6121  0.6299
  653MOL0     C90001   7.068   5.473   6.506 -0.3754 -1.2029 -0.3323
  653MOL0     C90002   7.041   5.485   6.645 -0.3458  1.0201 -0.7315
  653MOL0     C90003   7.143   5.515   6.735 -0.4753 -0.3941  0.2644
  653MOL0     C90004   7.107   5.546   6.881  0.2542 -0.8778 -0.1138
  653MOL0     C90005   7.277   5.510   6.688 -0.1833 -0.4443 -0.2315
  653MOL0     C90006   7.387   5.542   6.785  0.7921  0.0187 -0.6480
  653MOL0     O90007   7.422   5.680   6.791  0.2897  1.4897  0.2318
  653MOL0     C90008   7.544   5.717   6.825  0.6223  0.2037 -0.6348
  653MOL0     C90009   7.556   5.834   6.896 -0.4508 -1.3462  0.6177
  653MOL0     C90010   7.672   5.880   6.950  0.0980  0.2878 -0.2648
  653MOL0     C90011   7.791   5.814   6.910  0.3209  0.4936  0.2904
  653MOL0     O90012   7.917   5.826   6.959  0.8057 -0.0398  0.5260
  653MOL0     C90013   7.960   5.961   7.010 -0.6446  0.3681  0.0200
  653MOL0     C90014   8.094   5.952   7.092 -0.5333  0.2038 -0.5499
  653MOL0     C90015   8.066   5.869   7.216 -0.2348 -0.0856 -0.2601
  653MOL0     C90016   8.192   5.826   7.291  0.2433  0.0411 -0.1992
  653MOL0     C90017   8.162   5.724   7.384 -0.3086  0.8613  0.6166
  653MOL0     C90018   8.073   5.756   7.503  0.4702  0.0637 -0.6965
  653MOL0     C90019   8.045   5.642   7.596  0.7568  0.4777 -0.2643
  653MOL0     C90020   8.129   5.634   7.725 -0.0760 -0.1375 -0.1561
  653MOL0    Cl90021   8.033   5.641   7.889  0.1226  0.1925 -0.3046
  653MOL0     C90022   7.778   5.696   6.840  0.4772  0.8858  1.0122
  653MOL0     C90023   7.659   5.646   6.798  1.4229 -0.6521  0.0651
  653MOL0     O90024   7.452   5.440   6.817  1.5509 -0.0272 -0.1407
  653MOL0     C90025   7.302   5.492   6.549 -0.5731 -0.0988  0.2690
  653MOL0     C90026   7.198   5.481   6.458 -0.2916  0.3383 -0.1551
  653MOL0     N90027   6.902   4.954   6.043 -0.0727 -0.5642  0.7670
  653MOL0     N90028   6.825   4.881   5.974 -0.1775  0.9145 -0.6127
  653MOL0     C90029   7.355   4.944   5.336 -0.8329  0.4336 -0.4803
  653MOL0     C90030   7.423   5.060   5.289  0.7067 -0.3356  0.2585
  653MOL0     C90031   7.664   5.392   5.264 -0.7338 -0.0780  0.5269
  653MOL0     C90032   7.734   5.500   5.326 -0.5863  0.4643 -0.3410
  653MOL0     C90033   7.845   5.560   5.264 -1.1740  0.7356 -0.6083
  653MOL0     C90034   7.884   5.527   5.136 -0.0178  1.0567 -0.3412
  653MOL0     O90035   7.993   5.593   5.081 -0.3414 -0.0042  0.0454
  653MOL0     C90036   8.027   5.584   4.940 -1.3538  1.0555 -0.3633
  653MOL0     C90037   8.176   5.626   4.911  0.7732 -0.6041  0.7562
  653MOL0     C90038   8.202   5.625   4.753 -0.7779  0.4557 -0.3487
  653MOL0     C90039   8.345   5.595   4.706  0.4647  1.5135  0.0456
  653MOL0     C90040   8.432   5.699   4.766 -0.3378  0.8748 -0.0736
  653MOL0     C90041   8.506   5.783   4.819  0.6941  0.6175 -0.2810
  653MOL0     C90042   7.794   5.437   5.068  0.4215  0.0206  0.9852
  653MOL0     C90043   7.687   5.369   5.123  0.1468  0.3251  0.2658
  653MOL0     C90044   7.609   5.267   5.040  0.9195  0.2122 -0.0449
  653MOL0     H90045   7.227   5.297   5.452  0.6652  0.4318 -2.0634
  653MOL0     H90046   7.099   5.100   5.522 -1.3929 -0.2174 -2.3212
  653MOL0     H90047   7.210   4.652   5.499  3.4984  2.0198  0.5300
  653MOL0     H90048   7.262   4.714   5.350  1.6529 -0.4877  2.9924
  653MOL0     H90049   7.027   4.800   5.307  0.2997 -0.1085  0.3018
  653MOL0     H90050   7.044   4.618   5.294 -0.0288 -1.6943  1.0791
  653MOL0     H90051   6.869   4.625   5.411  1.9190 -0.1409 -1.7851
  653MOL0     H90052   6.986   4.637   5.553  0.2046  2.6205  2.0881
  653MOL0     H90053   6.942   4.884   5.565 -1.2198  1.8441 -1.7205
  653MOL0     H90054   6.843   4.871   5.416  1.0169 -1.0647 -0.7643
  653MOL0     H90055   6.774   4.768   5.693 -0.0989 -0.1343  1.3952
  653MOL0     H90056   6.670   4.753   5.546  4.3908 -1.9129 -2.1509
  653MOL0     H90057   6.759   5.032   5.669 -0.6001  1.8611 -0.2203
  653MOL0     H90058   6.660   4.999   5.532  2.0133  3.0957  1.0745
  653MOL0     H90059   6.481   4.896   5.677 -0.0555  1.2045 -1.3363
  653MOL0     H90060   6.523   5.051   5.741 -1.3095 -1.2901  0.8816
  653MOL0     H90061   6.526   4.895   5.945 -0.8639  0.9965 -0.6684
  653MOL0     H90062   6.634   4.780   5.849 -0.0405 -0.9370  3.0025
  653MOL0     H90063   6.626   5.147   5.986  1.8143  1.3768 -2.0934
  653MOL0     H90064   6.841   5.296   6.072 -3.0833 -1.7176  1.4754
  653MOL0     H90065   6.997   5.204   6.090  0.6024  0.7052 -0.6617
  653MOL0     H90066   6.852   5.105   6.309  3.5268 -0.2146  2.3272
  653MOL0     H90067   6.982   5.218   6.286 -0.3566  1.6963 -0.1599
  653MOL0     H90068   6.790   5.403   6.250  2.1541 -1.9065 -2.7092
  653MOL0     H90069   6.695   5.285   6.326 -1.2956  1.0395 -1.2406
  653MOL0     H90070   6.793   5.444   6.496 -0.7700 -0.0694 -0.5217
  653MOL0     H90071   6.889   5.298   6.523 -1.7681  3.8518  5.1689
  653MOL0     H90072   6.944   5.463   6.688  0.7720  1.5309  2.3088
  653MOL0     H90073   7.172   5.622   6.924  3.1833 -2.5687 -1.2204
  653MOL0     H90074   7.105   5.451   6.936  2.1149 -0.4580  0.7549
  653MOL0     H90075   7.000   5.568   6.880 -0.3011 -2.9805  2.4694
  653MOL0     H90076   7.459   5.876   6.921 -0.1773 -2.2449  3.6220
  653MOL0     H90077   7.652   5.954   7.026 -0.6316 -1.7616  1.6283
  653MOL0     H90078   7.983   6.028   6.926 -1.3706  2.5785  1.5092
  653MOL0     H90079   7.889   6.018   7.070  0.5176 -0.6786  2.5133
  653MOL0     H90080   8.163   5.910   7.018 -2.1495 -2.7549 -0.5146
  653MOL0     H90081   8.121   6.054   7.119 -0.6276 -0.1227  0.8276
  653MOL0     H90082   8.000   5.787   7.186  1.3754 -1.3973 -0.3635
  653MOL0     H90083   8.009   5.940   7.275  0.5705  0.9368 -0.6748
  653MOL0     H90084   8.252   5.910   7.328  1.4283 -0.7878 -0.1921
  653MOL0     H90085   8.257   5.790   7.210 -0.0745 -0.8932 -0.0462
  653MOL0     H90086   8.111   5.640   7.336  1.1282 -0.6999  1.7197
  653MOL0     H90087   8.258   5.698   7.429  0.1029  3.1891  1.2318
  653MOL0     H90088   7.977   5.795   7.467  1.1064  1.7757 -0.6233
  653MOL0     H90089   8.117   5.842   7.554  0.2702 -0.2146 -0.0437
  653MOL0     H90090   8.049   5.549   7.538 -3.4038  0.0527 -0.1518
  653MOL0     H90091   7.946   5.650   7.641  0.8742 -3.6635  1.2397
  653MOL0     H90092   8.196   5.721   7.723 -1.3168  0.9871  2.3939
  653MOL0     H90093   8.195   5.547   7.722  1.0987  0.6106  1.7262
  653MOL0     H90094   7.866   5.640   6.812 -1.2145 -0.4336 -2.1094
  653MOL0     H90095   7.649   5.548   6.753 -1.8823 -1.2293  1.7639
  653MOL0     H90096   7.409   5.484   6.534 -0.8578  0.8687 -2.9464
  653MOL0     H90097   7.226   5.469   6.354  1.5363 -1.0516  0.4444
  653MOL0     H90098   7.419   4.858   5.320 -1.6494 -0.2430 -0.1365
  653MOL0     H90099   7.505   5.049   5.219  1.1411  2.1866  0.2911
  653MOL0     H90100   7.713   5.525   5.430 -1.9625 -0.7620 -0.2868
  653MOL0     H90101   7.902   5.636   5.317 -1.2924  0.5127 -0.1516
  653MOL0     H90102   8.022   5.479   4.909  0.9221  0.3878  1.2305
  653MOL0     H90103   7.957   5.637   4.875 -1.3310  2.1111  0.4459
  653MOL0     H90104   8.242   5.545   4.941  1.5877 -1.0891 -2.0816
  653MOL0     H90105   8.210   5.714   4.967 -0.3677 -1.7091  3.3765
  653MOL0     H90106   8.149   5.537   4.717  0.4232  0.0930 -1.2870
  653MOL0     H90107   8.160   5.717   4.710 -1.3971  0.9358  1.2112
  653MOL0     H90108   8.359   5.591   4.597  0.8150  2.6091  0.0356
  653MOL0     H90109   8.376   5.497   4.743  0.8907  1.4420 -0.4851
  653MOL0     H90110   8.581   5.848   4.859  1.4440 -1.8182  2.6823
  653MOL0     H90111   7.800   5.422   4.961 -1.1623 -1.5120  1.0581
  653MOL0     H90112   7.659   5.250   4.944  0.2370 -0.0489 -0.3542
  653MOL0     H90113   7.610   5.173   5.096  2.2773  1.3233  1.9436
  653MOL0     H90114   7.516   5.306   5.000  1.2513 -1.5161 -2.7067
  654MOL0     O90115   4.592   8.833   7.025 -0.0596  1.3146  0.2395
  654MOL0     C90116   4.517   8.929   7.026  0.1530 -0.1040  0.3944
  654MOL0     O90117   4.530   9.036   6.949  0.3848 -0.3445 -0.0732
  654MOL0     C90118   4.649   9.048   6.881 -0.5474 -0.5716 -0.6826
  654MOL0     C90119   4.731   9.150   6.920 -0.0751  0.4942  0.7672
  654MOL0     C90120   4.854   9.168   6.848  1.2839  0.4055 -0.1817
  654MOL0     C90121   4.884   9.092   6.745  0.4104  0.7591  0.6393
  654MOL0     O90122   4.986   9.136   6.674  0.1061 -0.2486  0.2599
  654MOL0     C90123   5.094   9.054   6.619  0.6526  0.7224 -0.2005
  654MOL0     C90124   5.234   9.117   6.630  0.4741 -0.8839 -0.3057
  654MOL0     C90125   5.292   9.173   6.760 -0.7287 -0.6110  0.5585
  654MOL0     C90126   5.282   9.080   6.874 -0.0799  0.3157  1.0455
  654MOL0     C90127   5.280   9.172   6.991  0.2802  0.0427  0.1003
  654MOL0     C90128   5.274   9.089   7.124  0.6305  0.2185  0.3519
  654MOL0     C90129   5.397   9.008   7.162  0.7641  0.5530 -0.2685
  654MOL0     C90130   5.380   8.948   7.301 -0.1843 -0.4992  0.0972
  654MOL0     N90131   5.501   8.881   7.346 -0.1137  1.0829  0.0621
  654MOL0     C90132   5.618   8.944   7.383  0.3724  0.2984  0.1548
  654MOL0     C90133   5.687   8.846   7.452 -0.2685 -0.6340 -0.6127
  654MOL0     C90134   5.828   8.868   7.513  1.1224 -0.2827 -0.1588
  654MOL0     C90135   5.814   8.943   7.650 -0.1872 -0.1444 -0.2969
  654MOL0     C90136   5.961   8.988   7.697 -0.0277  0.3550  0.0450
  654MOL0     C90137   5.957   9.042   7.843  0.7687 -0.7719  0.2088
  654MOL0     O90138   5.956   8.934   7.934  0.1181 -0.3851  0.7416
  654MOL0     C90139   5.953   8.957   8.069  0.2822  0.2770 -0.6452
  654MOL0     C90140   5.932   9.084   8.125  0.5853  0.6045 -0.1766
  654MOL0     C90141   5.945   9.105   8.265 -0.5263 -0.0621 -0.3369
  654MOL0     C90142   5.940   9.248   8.319  0.3806 -0.4333 -0.9354
  654MOL0     C90143   5.959   8.995   8.355 -0.7987  0.4705  0.0437
  654MOL0     C90144   5.996   8.992   8.497 -0.4652  0.6682  0.2503
  654MOL0     O90145   5.970   8.880   8.569 -0.2324  0.6845  0.4773
  654MOL0     C90146   6.015   8.869   8.702  0.4811  0.0852  0.3696
  654MOL0     C90147   5.963   8.950   8.799 -0.0325  0.5430  0.7482
  654MOL0     C90148   6.017   8.939   8.930 -0.4156 -0.1529 -0.2577
  654MOL0     C90149   6.101   8.832   8.969 -0.2672 -0.1342  0.9446
  654MOL0     O90150   6.148   8.825   9.095  0.5629  0.0711  0.8278
  654MOL0     C90151   6.203   8.945   9.149  0.0961  0.4206  0.2038
  654MOL0     C90152   6.354   8.959   9.122  0.1847 -0.3804 -0.1916
  654MOL0     C90153   6.422   8.911   9.243 -0.4789  0.1492 -0.5145
  654MOL0     C90154   6.455   9.028   9.339 -0.7128  0.8297  0.2934
  654MOL0     C90155   6.518   8.966   9.469 -0.7156 -0.5782  0.8239
  654MOL0     C90156   6.670   8.929   9.466  0.1048  0.6940  0.2850
  654MOL0     C90157   6.721   8.910   9.611  0.4639 -0.8232  0.0293
  654MOL0     C90158   6.827   9.014   9.653 -0.8801  0.6325  0.0925
  654MOL0    Cl90159   6.954   9.039   9.532 -0.0444 -0.1332 -0.4467
  654MOL0     C90160   6.134   8.748   8.863  0.4987  0.1764  0.8423
  654MOL0     C90161   6.091   8.762   8.736  0.1021  0.2087 -0.0423
  654MOL0     O90162   6.042   9.092   8.538 -0.3213 -0.0705  1.0605
  654MOL0     C90163   5.955   8.862   8.298 -0.3461 -0.8638 -0.3599
  654MOL0     C90164   5.956   8.845   8.156 -0.3172 -0.1873 -0.5415
  654MOL0     N90165   5.616   8.732   7.435  0.1592  0.3154 -0.6364
  654MOL0     N90166   5.501   8.755   7.378  1.3907 -0.5336 -0.2774
  654MOL0     C90167   4.805   8.984   6.708 -0.1291 -0.3791 -0.3201
  654MOL0     C90168   4.692   8.962   6.782 -0.1995  0.1697  0.4371
  654MOL0     C90169   4.404   8.926   7.120 -0.0252  0.0863 -0.4270
  654MOL0     C90170   4.345   9.045   7.140  0.0993 -0.0013  0.8111
  654MOL0     C90171   4.243   9.071   7.230  0.2375  0.6446 -0.1493
  654MOL0     C90172   4.194   8.960   7.299 -0.3802  0.9827 -0.0416
  654MOL0     O90173   4.096   8.968   7.401 -0.1846  0.2501  0.6598
  654MOL0     C90174   4.055   9.100   7.448 -0.2375  0.2173 -0.1284
  654MOL0     C90175   3.913   9.078   7.504 -0.0400 -0.1417 -0.5223
  654MOL0     C90176   3.905   8.949   7.588 -0.2668  0.1986 -0.6041
  654MOL0     C90177   3.843   8.848   7.505 -0.3545  0.2146 -0.2837
  654MOL0     C90178   3.854   8.725   7.579  0.9451 -2.0172 -0.0008
  654MOL0     C90179   3.855   8.634   7.651  0.2027  0.1372  0.0570
  654MOL0     C90180   4.237   8.835   7.262  0.7093  0.0886 -0.0378
  654MOL0     C90181   4.341   8.809   7.178 -0.3601 -0.9753  0.3798
  654MOL0     C90182   4.392   8.671   7.147  0.1535  0.0412  0.8362
  654MOL0     H90183   4.695   9.224   6.991 -1.4316 -0.8610  1.5345
  654MOL0     H90184   4.919   9.249   6.880  2.0192  0.6118 -2.0566
  654MOL0     H90185   5.072   9.023   6.516  0.2053 -1.6801  0.5499
  654MOL0     H90186   5.084   8.953   6.660  0.2005  0.3527 -1.1722
  654MOL0     H90187   5.312   9.058   6.580  1.3799 -1.2522  1.4338
  654MOL0     H90188   5.228   9.202   6.562  1.7922 -1.2349 -0.8913
  654MOL0     H90189   5.397   9.204   6.756 -1.1360  0.7779  0.1911
  654MOL0     H90190   5.236   9.262   6.791 -1.0027 -1.0525  1.3780
  654MOL0     H90191   5.202   9.006   6.883  1.1470 -1.7497 -2.8070
  654MOL0     H90192   5.373   9.020   6.864 -0.9775 -0.7701 -1.8646
  654MOL0     H90193   5.187   9.227   6.981 -1.0875 -2.0478  0.7010
  654MOL0     H90194   5.366   9.239   6.994 -0.6486  1.2327  1.1596
  654MOL0     H90195   5.258   9.171   7.195  4.5269  1.4070  0.0820
  654MOL0     H90196   5.188   9.021   7.127  0.2872  0.4753 -2.1987
  654MOL0     H90197   5.482   9.076   7.168  0.7550  0.5483 -0.0768
  654MOL0     H90198   5.409   8.929   7.086 -0.1201  2.4574 -2.5036
  654MOL0     H90199   5.372   9.032   7.370  0.7014  0.4959 -0.9620
  654MOL0     H90200   5.281   8.901   7.299 -1.3250  1.7105  1.0265
  654MOL0     H90201   5.638   9.048   7.358 -1.7883  0.0314 -3.1700
  654MOL0     H90202   5.878   8.930   7.438 -2.8275  0.7282 -2.3065
  654MOL0     H90203   5.881   8.776   7.538  3.6158  0.2309 -3.0375
  654MOL0     H90204   5.750   9.031   7.642  1.0845  0.6981 -1.5046
  654MOL0     H90205   5.770   8.874   7.723 -0.5273 -0.3957 -0.7353
  654MOL0     H90206   6.035   8.908   7.690 -0.5151 -0.1867  0.9935
  654MOL0     H90207   6.013   9.055   7.628  1.9381 -2.3189 -1.2723
  654MOL0     H90208   6.056   9.087   7.853  0.4781  0.7675 -2.8200
  654MOL0     H90209   5.871   9.108   7.853  2.3398  1.1686  1.6654
  654MOL0     H90210   5.900   9.165   8.060 -3.4887  0.7515  1.7153
  654MOL0     H90211   5.874   9.240   8.406 -2.2193 -1.3685 -2.8816
  654MOL0     H90212   5.914   9.323   8.244 -1.9277 -1.0795 -0.8497
  654MOL0     H90213   6.043   9.271   8.349  1.5676 -4.2015 -1.5281
  654MOL0     H90214   5.885   9.021   8.772 -1.2210 -0.8960  0.2241
  654MOL0     H90215   5.975   9.002   9.008 -0.9581  0.3659 -0.9552
  654MOL0     H90216   6.155   9.029   9.098 -0.9277 -1.7047 -2.6306
  654MOL0     H90217   6.186   8.934   9.256  0.2704  0.0549  0.1961
  654MOL0     H90218   6.391   8.892   9.045  2.1952 -1.5704  1.6958
  654MOL0     H90219   6.384   9.061   9.097 -0.7412  0.0162  0.2249
  654MOL0     H90220   6.523   8.881   9.210 -0.8891 -0.9592 -0.7960
  654MOL0     H90221   6.374   8.824   9.289  1.0203 -1.7427 -2.2799
  654MOL0     H90222   6.371   9.089   9.374  0.0633  1.1226  1.7411
  654MOL0     H90223   6.533   9.084   9.287  2.0040 -1.1554  1.9762
  654MOL0     H90224   6.514   9.042   9.548 -0.3160  0.9100 -0.5439
  654MOL0     H90225   6.460   8.875   9.488  1.2110 -2.8703 -2.9438
  654MOL0     H90226   6.729   9.000   9.407  0.6554 -1.6161 -2.1625
  654MOL0     H90227   6.692   8.829   9.427  0.9278  1.5221 -1.4959
  654MOL0     H90228   6.759   8.809   9.621 -1.2068 -1.2889  2.5603
  654MOL0     H90229   6.637   8.918   9.680  0.6497 -4.3098  0.8325
  654MOL0     H90230   6.886   8.989   9.741  2.8255 -0.8915 -2.5455
  654MOL0     H90231   6.774   9.109   9.663  2.7482  2.7672  0.8981
  654MOL0     H90232   6.202   8.670   8.898  0.3418  0.7678  2.5613
  654MOL0     H90233   6.140   8.703   8.660 -2.5069 -2.3419  0.0709
  654MOL0     H90234   5.974   8.768   8.349  2.3099  0.2409  0.8944
  654MOL0     H90235   5.969   8.747   8.110 -0.3127 -0.3277 -0.2457
  654MOL0     H90236   4.831   8.929   6.618 -0.1745 -0.0405 -0.5414
  654MOL0     H90237   4.626   8.885   6.742 -0.1735  0.5560 -0.3670
  654MOL0     H90238   4.371   9.137   7.089 -0.4790  0.3163  1.0807
  654MOL0     H90239   4.210   9.174   7.224  3.5559  1.7794 -2.6957
  654MOL0     H90240   4.110   9.149   7.529 -0.1452  0.7231 -0.4901
  654MOL0     H90241   4.069   9.178   7.373  1.4987  0.6180  0.5760
  654MOL0     H90242   3.842   9.082   7.421  0.3689 -0.4609 -0.8955
  654MOL0     H90243   3.884   9.163   7.567  0.8027 -2.1632  2.8350
  654MOL0     H90244   4.004   8.917   7.623  0.4151  0.4986 -2.1591
  654MOL0     H90245   3.848   8.959   7.681 -2.0739 -0.5348 -1.5911
  654MOL0     H90246   3.907   8.816   7.422 -2.6509 -0.0736 -2.0488
  654MOL0     H90247   3.745   8.885   7.476  0.5934  2.7589 -0.4228
  654MOL0     H90248   3.860   8.553   7.722 -0.7055 -1.1271 -1.2740
  654MOL0     H90249   4.184   8.756   7.314 -0.5480  1.3293  0.6242
  654MOL0     H90250   4.413   8.667   7.040 -3.0277 -2.7361  0.1154
  654MOL0     H90251   4.474   8.639   7.211 -0.0204  0.7781  1.4458
  654MOL0     H90252   4.316   8.594   7.163 -0.6428  0.7816  0.7023
  655MOL0     O90253   1.649  11.440   0.660  0.1287 -0.4629  0.9325
  655MOL0     C90254   1.768  11.470   0.657 -0.9576 -0.3256 -0.4653
  655MOL0     O90255   1.832  11.524   0.551  0.3573 -0.0109 -0.4550
  655MOL0     C90256   1.769  11.523   0.431 -0.7880 -0.3725 -0.3688
  655MOL0     C90257   1.763  11.642   0.362  0.2157 -0.3137 -0.1640
  655MOL0     C90258   1.697  11.649   0.242 -0.3461 -0.2601 -0.3815
  655MOL0     C90259   1.621  11.537   0.193  0.3919  0.3428  1.9714
  655MOL0     O90260   1.545  11.547   0.076 -0.4297 -0.3745 -0.9364
  655MOL0     C90261   1.427  11.461   0.076  0.5938  1.1150  0.1735
  655MOL0     C90262   1.335  11.491  -0.043 -0.0261 -0.0126 -0.0638
  655MOL0     C90263   1.265  11.627  -0.037  0.9631  0.0768 -0.3039
  655MOL0     C90264   1.162  11.638  -0.153  0.8168  0.4107 -0.3551
  655MOL0     C90265   1.103  11.784  -0.158 -0.4513 -0.8714  0.0020
  655MOL0     C90266   1.202  11.891  -0.189 -0.5365  0.0135  0.0218
  655MOL0     C90267   1.125  12.010  -0.254  0.7682  0.8918  0.4099
  655MOL0     C90268   1.159  12.155  -0.215 -0.8677 -0.2567  0.7688
  655MOL0     N90269   1.165  12.168  -0.073  0.3389 -0.2140 -1.1175
  655MOL0     C90270   1.059  12.147   0.005  0.2802  0.4062  0.2880
  655MOL0     C90271   1.091  12.188   0.130 -0.3705  0.3693  0.9162
  655MOL0     C90272   1.009  12.201   0.251  0.3288 -0.1563 -0.2286
  655MOL0     C90273   0.937  12.332   0.272 -0.5720 -0.6358  0.0919
  655MOL0     C90274   1.016  12.463   0.307 -0.5881 -0.4301 -1.2980
  655MOL0     C90275   1.116  12.422   0.423  0.5686  0.6782  1.5115
  655MOL0     O90276   1.162  12.529   0.497 -0.7112  0.2006  0.0532
  655MOL0     C90277   1.068  12.606   0.556 -0.6352  0.6885  0.0408
  655MOL0     C90278   1.088  12.742   0.568 -0.2695 -0.3572 -0.3780
  655MOL0     C90279   1.011  12.830   0.647  0.4565  0.1041 -0.5036
  655MOL0     C90280   1.061  12.967   0.668  0.3871  0.7357  0.0379
  655MOL0     C90281   0.904  12.777   0.723 -0.6465 -1.1581 -0.0286
  655MOL0     C90282   0.817  12.848   0.805  0.6419  0.5553 -0.2243
  655MOL0     O90283   0.778  12.778   0.918  0.0310  0.4157  0.6039
  655MOL0     C90284   0.674  12.823   0.989  0.7847 -0.0958  0.6026
  655MOL0     C90285   0.555  12.750   0.982  0.0457  0.5248 -0.8072
  655MOL0     C90286   0.440  12.790   1.054 -0.3622 -1.1110 -0.5720
  655MOL0     C90287   0.449  12.895   1.148  0.1046 -1.0036 -0.9225
  655MOL0     O90288   0.339  12.948   1.205 -0.1339  0.1550  0.2646
  655MOL0     C90289   0.293  13.071   1.155  0.0310  0.4127 -0.4868
  655MOL0     C90290   0.153  13.089   1.213  0.2439 -0.5083 -0.0765
  655MOL0     C90291   0.085  13.227   1.222 -1.0071 -0.1287  0.2088
  655MOL0     C90292  -0.047  13.217   1.294 -0.1803 -0.3122  0.7978
  655MOL0     C90293  -0.022  13.220   1.443 -0.1195 -0.3118 -0.2511
  655MOL0     C90294  -0.151  13.216   1.516 -0.0009  1.1208 -0.0481
  655MOL0     C90295  -0.137  13.198   1.670 -0.5979  0.0231 -0.0551
  655MOL0     C90296  -0.263  13.135   1.737 -0.0167 -0.1520  0.3990
  655MOL0    Cl90297  -0.396  13.231   1.682  0.0324  0.2647 -0.1126
  655MOL0     C90298   0.572  12.964   1.164 -0.0772 -0.1482 -0.6448
  655MOL0     C90299   0.679  12.927   1.076  1.2738 -0.1001 -0.0873
  655MOL0     O90300   0.758  12.946   0.762 -0.4498  0.4182  0.4064
  655MOL0     C90301   0.866  12.642   0.704 -0.2960  1.2880 -0.1264
  655MOL0     C90302   0.957  12.564   0.630 -1.1207 -0.3901 -0.3218
  655MOL0     N90303   1.221  12.236   0.112 -0.5633  0.4157  0.1415
  655MOL0     N90304   1.266  12.216  -0.002  0.4862  0.9824 -0.5669
  655MOL0     C90305   1.639  11.413   0.252  0.0121  0.6307 -0.1831
  655MOL0     C90306   1.711  11.408   0.377  0.3085 -0.1305  0.0840
  655MOL0     C90307   1.834  11.505   0.796  0.2558  0.2970  0.3251
  655MOL0     C90308   1.938  11.601   0.794  1.0287 -0.0262 -0.1500
  655MOL0     C90309   1.986  11.658   0.912  0.2136  0.3272 -0.3857
  655MOL0     C90310   1.958  11.608   1.035  0.4293  1.0621  0.2173
  655MOL0     O90311   2.026  11.666   1.138 -0.1891 -0.1597  0.6952
  655MOL0     C90312   1.980  11.615   1.264 -0.2781 -0.3972 -0.1911
  655MOL0     C90313   2.007  11.716   1.370 -0.4297 -0.7644  0.7848
  655MOL0     C90314   1.956  11.655   1.507  0.5948 -0.2558 -0.0065
  655MOL0     C90315   1.930  11.767   1.609 -0.9528 -0.3209  0.1634
  655MOL0     C90316   1.896  11.716   1.739  0.4722 -0.4067 -0.9996
  655MOL0     C90317   1.876  11.660   1.849  1.1631 -1.1167 -0.3097
  655MOL0     C90318   1.874  11.496   1.038  0.5491  0.3712  0.7651
  655MOL0     C90319   1.806  11.442   0.923  0.5253 -0.2613  0.3205
  655MOL0     C90320   1.737  11.308   0.952  0.3044  0.0991 -0.7917
  655MOL0     H90321   1.808  11.735   0.396 -2.0703  1.1865 -0.9616
  655MOL0     H90322   1.686  11.748   0.197 -0.2613 -0.7901 -1.6178
  655MOL0     H90323   1.382  11.472   0.176  0.5383 -1.1813  0.4486
  655MOL0     H90324   1.462  11.358   0.063 -3.8078 -0.4637 -0.8090
  655MOL0     H90325   1.388  11.486  -0.138 -0.6112 -0.5892 -0.3709
  655MOL0     H90326   1.260  11.415  -0.067  0.7022 -0.4959 -0.8153
  655MOL0     H90327   1.210  11.638   0.057  0.0207 -2.4325 -0.4812
  655MOL0     H90328   1.333  11.712  -0.048  0.5282  0.2103 -2.3411
  655MOL0     H90329   1.217  11.613  -0.244  2.6429 -0.8723  0.9980
  655MOL0     H90330   1.073  11.579  -0.132 -0.9879  3.8798  2.9337
  655MOL0     H90331   1.072  11.804  -0.055  1.8220 -2.0811  0.9894
  655MOL0     H90332   1.020  11.777  -0.229 -1.4000 -2.2608  1.1860
  655MOL0     H90333   1.252  11.929  -0.098 -2.9381 -0.0666  1.4487
  655MOL0     H90334   1.272  11.849  -0.261 -2.3625 -3.9391  0.3151
  655MOL0     H90335   1.019  11.992  -0.237  0.6573 -0.4434 -1.4149
  655MOL0     H90336   1.127  12.001  -0.363  0.4135  1.9096  0.3067
  655MOL0     H90337   1.257  12.185  -0.253 -1.6480  1.1287 -0.2103
  655MOL0     H90338   1.097  12.229  -0.266 -0.3089 -0.2739  0.0524
  655MOL0     H90339   0.970  12.098  -0.032  1.7943 -1.0468 -1.6314
  655MOL0     H90340   1.080  12.169   0.329 -1.2245  3.1523  2.8364
  655MOL0     H90341   0.939  12.118   0.253 -0.9935  0.6228  5.6311
  655MOL0     H90342   0.881  12.364   0.183  1.6194 -1.0415 -1.5277
  655MOL0     H90343   0.868  12.311   0.354  0.5521 -2.6676  0.6034
  655MOL0     H90344   1.072  12.488   0.216  2.5994 -1.2067  0.2848
  655MOL0     H90345   0.947  12.542   0.337  1.2969  1.0726 -0.6553
  655MOL0     H90346   1.050  12.361   0.486 -0.1145  0.4848  0.6337
  655MOL0     H90347   1.197  12.363   0.380 -0.4920 -0.8093  1.4900
  655MOL0     H90348   1.171  12.777   0.506  0.0686  0.3324  0.4441
  655MOL0     H90349   0.974  13.033   0.664  1.1543  1.7222 -0.7607
  655MOL0     H90350   1.130  12.989   0.586 -0.1338 -1.0252 -0.9521
  655MOL0     H90351   1.107  12.979   0.766 -0.9495 -2.8719  1.3068
  655MOL0     H90352   0.552  12.668   0.911 -1.9692 -2.5284  2.4809
  655MOL0     H90353   0.343  12.747   1.029 -1.9429  1.8409  0.0095
  655MOL0     H90354   0.356  13.155   1.185  2.6138 -0.0948 -3.9059
  655MOL0     H90355   0.281  13.072   1.046 -0.1466 -0.5309 -0.4840
  655MOL0     H90356   0.082  13.025   1.160 -1.1012 -0.3707  1.4599
  655MOL0     H90357   0.160  13.046   1.314  0.7438 -2.2883 -0.8305
  655MOL0     H90358   0.060  13.254   1.119 -7.3266  0.4064  1.4408
  655MOL0     H90359   0.137  13.309   1.271 -4.8213  2.8079 -0.1327
  655MOL0     H90360  -0.093  13.125   1.259 -1.5459  0.5858  0.1544
  655MOL0     H90361  -0.112  13.297   1.258  0.3133 -0.7523 -1.1978
  655MOL0     H90362   0.033  13.132   1.477  0.7890  0.2513 -0.2359
  655MOL0     H90363   0.034  13.311   1.466  0.4977 -0.3469 -1.4950
  655MOL0     H90364  -0.192  13.117   1.492 -1.6790  2.0113 -1.0284
  655MOL0     H90365  -0.231  13.286   1.489 -2.4729 -1.1650  0.8142
  655MOL0     H90366  -0.119  13.301   1.701  3.5997  0.3651 -2.8183
  655MOL0     H90367  -0.051  13.136   1.699  2.0012  3.0111 -0.8621
  655MOL0     H90368  -0.258  13.124   1.846  1.3098 -0.0040  0.3610
  655MOL0     H90369  -0.282  13.034   1.699 -1.2027 -1.4391  3.9210
  655MOL0     H90370   0.576  13.057   1.220 -1.0061  0.1979 -1.1362
  655MOL0     H90371   0.777  12.972   1.074  1.5047 -0.5902 -0.0686
  655MOL0     H90372   0.777  12.593   0.742 -1.4906  2.3428 -1.4594
  655MOL0     H90373   0.957  12.457   0.642 -0.0331 -0.3695 -0.0426
  655MOL0     H90374   1.588  11.326   0.214 -0.3391  0.8860 -0.3065
  655MOL0     H90375   1.708  11.315   0.435  1.4092 -0.8296 -0.9528
  655MOL0     H90376   1.960  11.652   0.701 -3.0017  1.2581 -0.5831
  655MOL0     H90377   2.040  11.752   0.906  2.1061 -0.7228 -0.6860
  655MOL0     H90378   1.879  11.575   1.264  0.7942 -3.4788  2.1003
  655MOL0     H90379   2.041  11.531   1.297 -1.5201  0.1170  3.9019
  655MOL0     H90380   1.949  11.803   1.337  0.1782 -1.2751 -1.7848
  655MOL0     H90381   2.114  11.734   1.381 -0.3838  1.1383 -2.0333
  655MOL0     H90382   1.860  11.604   1.497  0.9913 -0.9540 -0.3484
  655MOL0     H90383   2.035  11.595   1.553  0.4283 -0.1754  0.3874
  655MOL0     H90384   1.854  11.837   1.573 -0.2464 -0.8170 -2.5066
  655MOL0     H90385   2.025  11.815   1.635 -1.0101 -0.4630  0.6380
  655MOL0     H90386   1.861  11.599   1.935 -2.0153 -2.1447 -1.4607
  655MOL0     H90387   1.860  11.427   1.121 -1.1096 -0.5678 -0.2388
  655MOL0     H90388   1.813  11.234   0.979 -0.0951 -0.0746 -0.1166
  655MOL0     H90389   1.673  11.324   1.039  1.8120 -2.9421  1.0263
  655MOL0     H90390   1.673  11.277   0.870  0.4665  2.3233 -1.8368
  656MOL0     O90391  11.424   2.079   9.073  0.4174  1.3541  0.2427
  656MOL0     C90392  11.441   2.181   9.011  0.4444 -0.3256  0.7506
  656MOL0     O90393  11.377   2.297   9.035 -0.3762  0.1961  0.0312
  656MOL0     C90394  11.287   2.311   9.141  0.3429  0.3595 -0.2238
  656MOL0     C90395  11.185   2.403   9.107  0.1822 -0.3659 -0.6085
  656MOL0     C90396  11.092   2.437   9.199  0.2643 -0.2306 -0.1067
  656MOL0     C90397  11.102   2.396   9.333 -0.7311 -0.6974 -0.4719
  656MOL0     O90398  11.007   2.452   9.415 -0.5899 -0.0704  0.4919
  656MOL0     C90399  11.049   2.472   9.548  0.4199  0.9839 -0.7326
  656MOL0     C90400  11.105   2.610   9.579 -0.1799  0.2789 -0.7371
  656MOL0     C90401  11.011   2.728   9.552  1.5920  0.0379 -0.3276
  656MOL0     C90402  10.912   2.722   9.675 -0.4091 -0.0416 -0.1996
  656MOL0     C90403  10.832   2.855   9.683 -0.6700 -0.2893  0.0051
  656MOL0     C90404  10.740   2.871   9.796 -0.1178 -0.1034  0.5169
  656MOL0     C90405  10.596   2.928   9.769  0.2821  0.0919 -0.2124
  656MOL0     C90406  10.580   3.073   9.817 -0.4847  0.0965  0.2116
  656MOL0     N90407  10.658   3.166   9.743  0.0427  0.5165 -0.2858
  656MOL0     C90408  10.779   3.212   9.783  0.1749  0.9092  0.5163
  656MOL0     C90409  10.819   3.294   9.672  0.2064  0.2261 -1.5732
  656MOL0     C90410  10.934   3.390   9.688 -0.0297  0.6292 -0.4093
  656MOL0     C90411  10.893   3.537   9.667  0.9013  0.4105 -0.5648
  656MOL0     C90412  11.007   3.621   9.735  0.3301  0.4447  1.2080
  656MOL0     C90413  10.954   3.768   9.747  0.3888  0.4557  0.2223
  656MOL0     O90414  11.061   3.857   9.785 -0.4399 -0.1429 -0.5892
  656MOL0     C90415  11.147   3.802   9.887 -0.0423 -0.6518 -0.2935
  656MOL0     C90416  11.122   3.821  10.018 -0.7001 -0.8979 -1.3325
  656MOL0     C90417  11.201   3.762  10.128 -0.9038 -0.7786  0.0319
  656MOL0     C90418  11.151   3.770  10.269  0.8474  0.0887 -0.2183
  656MOL0     C90419  11.320   3.682  10.092  0.4211  0.3802 -0.4251
  656MOL0     C90420  11.409   3.601  10.178  0.1271  0.6977  0.4207
  656MOL0     O90421  11.418   3.613  10.315  0.1871 -0.3752 -0.4511
  656MOL0     C90422  11.517   3.547  10.375 -1.0995 -0.0747 -0.5389
  656MOL0     C90423  11.480   3.475  10.484 -0.1167 -0.8184 -0.3903
  656MOL0     C90424  11.574   3.429  10.571  0.2697 -0.3275  0.4812
  656MOL0     C90425  11.715   3.452  10.555 -1.1005  0.3713  1.0473
  656MOL0     O90426  11.822   3.413  10.641  0.0106 -0.6566 -0.5118
  656MOL0     C90427  11.808   3.321  10.738 -0.4577 -0.1140 -0.2874
  656MOL0     C90428  11.806   3.187  10.680 -0.6512 -0.0972 -0.2200
  656MOL0     C90429  11.917   3.150  10.575  0.3794  0.0367  0.0211
  656MOL0     C90430  11.837   3.117  10.441  0.0063  0.9655  0.3428
  656MOL0     C90431  11.808   2.965  10.423 -0.0641  0.5383  0.9353
  656MOL0     C90432  11.938   2.888  10.395  0.1861 -0.1938  0.1488
  656MOL0     C90433  11.916   2.754  10.318 -0.3800  0.0760 -0.8104
  656MOL0     C90434  12.053   2.683  10.277  0.3725 -0.0513  0.6394
  656MOL0    Cl90435  11.986   2.540  10.163 -0.0017 -0.2676  0.1717
  656MOL0     C90436  11.754   3.535  10.443  0.5301  0.6136 -0.1771
  656MOL0     C90437  11.651   3.587  10.356 -0.4105 -0.0988  0.6619
  656MOL0     O90438  11.470   3.508  10.114  0.7614  0.2432  0.2318
  656MOL0     C90439  11.351   3.685   9.955 -0.4701 -0.8174  1.3862
  656MOL0     C90440  11.270   3.745   9.860 -0.5881 -0.5570  0.1490
  656MOL0     N90441  10.721   3.292   9.569  0.5077  0.5265 -0.3716
  656MOL0     N90442  10.627   3.212   9.618  0.2892 -0.0373 -0.6084
  656MOL0     C90443  11.198   2.298   9.367 -0.6839 -0.4004 -0.5492
  656MOL0     C90444  11.298   2.263   9.274  0.0368 -0.1343 -0.4871
  656MOL0     C90445  11.511   2.172   8.888 -0.0761 -0.5592 -0.0452
  656MOL0     C90446  11.632   2.238   8.880 -0.2837 -0.4106 -0.2467
  656MOL0     C90447  11.705   2.228   8.771  0.6777 -0.1459  0.6283
  656MOL0     C90448  11.672   2.167   8.654  0.1617  1.2402 -0.3066
  656MOL0     O90449  11.764   2.171   8.550  0.1021  0.1663  0.3954
  656MOL0     C90450  11.723   2.104   8.423 -0.4938  0.2395 -0.8751
  656MOL0     C90451  11.854   2.065   8.364  0.5145 -0.0999  0.4276
  656MOL0     C90452  11.847   2.025   8.211  0.7625  0.2123  0.4246
  656MOL0     C90453  11.877   1.873   8.206  0.1365  0.1229  0.6216
  656MOL0     C90454  11.781   1.777   8.262 -0.1162 -0.7076  0.2729
  656MOL0     C90455  11.682   1.708   8.302 -0.8089  0.3598 -0.0187
  656MOL0     C90456  11.556   2.086   8.659  0.9592  0.1295 -0.9447
  656MOL0     C90457  11.476   2.088   8.782 -0.9575  0.5434  0.6838
  656MOL0     C90458  11.355   2.001   8.784  0.6117 -0.5647 -0.0728
  656MOL0     H90459  11.191   2.454   9.012  0.5107  0.3809 -0.2006
  656MOL0     H90460  11.022   2.515   9.171 -0.2841 -0.9655 -0.8009
  656MOL0     H90461  11.103   2.385   9.587  0.6653 -0.6795 -4.3304
  656MOL0     H90462  10.954   2.476   9.602 -1.4544 -2.2745 -3.3950
  656MOL0     H90463  11.148   2.608   9.679 -1.1028 -1.5680 -0.3457
  656MOL0     H90464  11.191   2.625   9.512  1.4261 -0.7801  0.9858
  656MOL0     H90465  11.062   2.824   9.552  0.3869  0.6986  0.0020
  656MOL0     H90466  10.965   2.718   9.453  1.0378 -3.4103  0.1202
  656MOL0     H90467  10.834   2.647   9.658  1.5801 -2.0754 -0.8894
  656MOL0     H90468  10.955   2.705   9.775  0.3582  4.9404  0.5627
  656MOL0     H90469  10.781   2.867   9.587  2.8737 -0.5202 -2.0950
  656MOL0     H90470  10.901   2.941   9.682 -1.2349  0.1733 -1.3549
  656MOL0     H90471  10.710   2.768   9.818 -1.9642  0.3429  0.2790
  656MOL0     H90472  10.793   2.912   9.882  1.4766 -1.8871  0.4621
  656MOL0     H90473  10.526   2.870   9.829  0.5368  0.3239  0.3141
  656MOL0     H90474  10.572   2.929   9.662  0.0371  1.6262 -0.1542
  656MOL0     H90475  10.475   3.103   9.803 -0.8735 -2.0161 -2.5224
  656MOL0     H90476  10.599   3.076   9.924  0.2685 -1.0739  0.1268
  656MOL0     H90477  10.828   3.185   9.876 -3.2813 -4.6708  1.2312
  656MOL0     H90478  11.017   3.369   9.621  1.6312 -0.1042  1.7660
  656MOL0     H90479  10.980   3.377   9.786 -0.5912  3.3067  0.2892
  656MOL0     H90480  10.871   3.551   9.561 -1.9831 -0.5025 -0.1971
  656MOL0     H90481  10.795   3.565   9.706  1.3423 -1.4194  2.1744
  656MOL0     H90482  11.036   3.575   9.830 -1.5450 -4.2002 -0.1652
  656MOL0     H90483  11.094   3.625   9.668  1.2568  2.7102  2.4735
  656MOL0     H90484  10.909   3.798   9.652 -3.8345  1.6848  2.3524
  656MOL0     H90485  10.872   3.775   9.820 -1.4363  0.0666 -1.7050
  656MOL0     H90486  11.041   3.884  10.053 -0.0200  0.2955 -1.8565
  656MOL0     H90487  11.222   3.814  10.340 -0.6306 -0.0267  1.3914
  656MOL0     H90488  11.124   3.670  10.304 -2.1390  0.4873 -1.0835
  656MOL0     H90489  11.055   3.821  10.278 -0.3110 -2.1445  0.9398
  656MOL0     H90490  11.374   3.453  10.496  0.2657 -1.3332  3.0492
  656MOL0     H90491  11.544   3.357  10.646  0.3927  1.6088  2.4808
  656MOL0     H90492  11.894   3.331  10.805  0.8088  0.3638 -1.9201
  656MOL0     H90493  11.725   3.345  10.804 -0.2379  1.5405 -0.5645
  656MOL0     H90494  11.831   3.123  10.766  3.0083  1.5235  0.1272
  656MOL0     H90495  11.706   3.156  10.650 -0.6480 -1.5196  1.0729
  656MOL0     H90496  11.982   3.071  10.614 -0.5251 -1.4098 -1.2577
  656MOL0     H90497  11.968   3.244  10.552 -0.0480  0.2424 -0.1014
  656MOL0     H90498  11.894   3.144  10.351 -0.5621  1.7276  0.2061
  656MOL0     H90499  11.748   3.179  10.440  0.1483  1.2164  1.9197
  656MOL0     H90500  11.766   2.920  10.513  1.8233 -0.9091  1.1594
  656MOL0     H90501  11.737   2.954  10.340  1.5636 -4.9559 -0.1576
  656MOL0     H90502  11.987   2.868  10.491  0.3956 -1.6585 -0.2448
  656MOL0     H90503  12.000   2.947  10.327 -1.5333 -1.0186 -2.2588
  656MOL0     H90504  11.863   2.763  10.222 -4.8955  3.1220  1.6166
  656MOL0     H90505  11.862   2.681  10.379  2.0149 -1.1463 -0.0134
  656MOL0     H90506  12.110   2.641  10.360  2.6659 -2.0785 -1.7700
  656MOL0     H90507  12.119   2.749  10.219 -1.2289  1.5956  0.5879
  656MOL0     H90508  11.861   3.554  10.432  0.5045  2.4407  1.9926
  656MOL0     H90509  11.663   3.634  10.260 -1.9572  2.2174  1.5274
  656MOL0     H90510  11.433   3.625   9.916  1.5549  1.4239  1.9713
  656MOL0     H90511  11.302   3.733   9.757  0.1592  0.2576  0.2695
  656MOL0     H90512  11.190   2.255   9.466 -2.3690  0.1908 -0.3912
  656MOL0     H90513  11.370   2.193   9.316 -0.7291  0.1743  1.4463
  656MOL0     H90514  11.684   2.288   8.961  0.6287  2.7984 -2.5773
  656MOL0     H90515  11.793   2.290   8.779  0.7081 -0.4252  3.8508
  656MOL0     H90516  11.663   2.013   8.435 -0.4847  0.3555  0.0610
  656MOL0     H90517  11.668   2.177   8.363  2.2711  2.3876 -0.9666
  656MOL0     H90518  11.907   1.984   8.416 -2.6157 -1.1391  2.2891
  656MOL0     H90519  11.913   2.156   8.373 -2.3590  1.8938  0.1305
  656MOL0     H90520  11.743   2.032   8.180  0.0445 -1.1605  2.2947
  656MOL0     H90521  11.914   2.092   8.157 -2.0146  3.6483  0.8744
  656MOL0     H90522  11.980   1.860   8.241  1.3829  1.4548 -2.2098
  656MOL0     H90523  11.888   1.846   8.101  1.0159 -3.6527  1.5307
  656MOL0     H90524  11.611   1.641   8.346  0.5555 -1.4384 -0.4477
  656MOL0     H90525  11.521   2.013   8.587 -0.3463 -2.4119  2.0148
  656MOL0     H90526  11.264   2.052   8.818  1.1631 -0.9256  2.1331
  656MOL0     H90527  11.329   1.965   8.684 -2.2509  1.6077 -0.2449
  656MOL0     H90528  11.352   1.909   8.843 -1.5157 -2.0988 -2.3579
  657MOL0     O90529  10.277  11.004   1.196 -0.5489  0.9892  0.3881
  657MOL0     C90530  10.190  11.010   1.281  1.0203  0.5872 -1.3681
  657MOL0     O90531  10.054  11.030   1.269  0.3236  0.0925  0.7274
  657MOL0     C90532  10.025  11.057   1.140  0.0355  0.6017 -0.1933
  657MOL0     C90533  10.020  11.188   1.112  1.2690  0.0146 -0.4603
  657MOL0     C90534   9.979  11.233   0.981  0.0826 -0.1177  0.2906
  657MOL0     C90535   9.933  11.138   0.888 -0.4396  0.1130  0.1847
  657MOL0     O90536   9.893  11.188   0.759 -0.1129 -0.0931 -1.0655
  657MOL0     C90537   9.862  11.097   0.662 -0.0678 -0.1890  0.0530
  657MOL0     C90538   9.858  11.169   0.527  0.7944 -0.1827 -0.2025
  657MOL0     C90539   9.996  11.166   0.458  0.0384 -0.4817 -0.2639
  657MOL0     C90540  10.044  11.303   0.428 -1.0783 -0.7965 -0.3116
  657MOL0     C90541  10.172  11.316   0.343 -1.1147  0.2633 -0.2977
  657MOL0     C90542  10.136  11.358   0.198 -0.2248  0.5070  0.4268
  657MOL0     C90543  10.268  11.392   0.126 -0.1889 -0.1548  0.7046
  657MOL0     C90544  10.259  11.452  -0.019 -0.4268  0.4261  0.4491
  657MOL0     N90545  10.378  11.451  -0.094  0.1423 -0.0059 -0.1008
  657MOL0     C90546  10.473  11.348  -0.111 -0.5042 -0.3778 -0.1128
  657MOL0     C90547  10.576  11.407  -0.179 -0.6848 -0.5442  0.3312
  657MOL0     C90548  10.715  11.342  -0.200  0.2639  0.1565  0.3501
  657MOL0     C90549  10.751  11.308  -0.341  0.9561 -0.8678 -0.0073
  657MOL0     C90550  10.892  11.237  -0.357 -0.3052 -0.4095 -0.1114
  657MOL0     C90551  10.917  11.116  -0.270 -0.3282 -0.1391  0.3192
  657MOL0     O90552  10.812  11.028  -0.271  0.5013  0.3229 -0.1822
  657MOL0     C90553  10.837  10.899  -0.226 -1.1004 -0.0799 -0.3018
  657MOL0     C90554  10.965  10.842  -0.188  0.0132  0.1801 -0.5446
  657MOL0     C90555  10.978  10.712  -0.128  0.2356  0.1875 -0.2236
  657MOL0     C90556  11.129  10.664  -0.116  0.4695 -0.4943 -0.0196
  657MOL0     C90557  10.867  10.629  -0.098  0.3151 -0.4886 -0.5752
  657MOL0     C90558  10.877  10.489  -0.042  0.1357  0.0170  0.6585
  657MOL0     O90559  10.758  10.430  -0.050 -0.0135  0.8049 -0.1885
  657MOL0     C90560  10.744  10.298  -0.004  0.0039  0.2306 -0.1433
  657MOL0     C90561  10.792  10.268   0.125  0.3158  0.2399  0.4421
  657MOL0     C90562  10.756  10.147   0.174  0.1533  0.0562 -0.5955
  657MOL0     C90563  10.682  10.053   0.100 -0.7063  0.1945 -0.0269
  657MOL0     O90564  10.665   9.928   0.156  1.0746  0.3520 -0.4253
  657MOL0     C90565  10.778   9.867   0.223 -0.0953 -0.1707  0.3175
  657MOL0     C90566  10.795   9.732   0.160  0.1399 -0.0272 -0.5882
  657MOL0     C90567  10.911   9.659   0.227  0.0929  0.9504  0.5028
  657MOL0     C90568  10.951   9.507   0.189  1.4182 -0.8265  0.0565
  657MOL0     C90569  10.878   9.417   0.281  0.3142  0.5438  0.3908
  657MOL0     C90570  10.908   9.264   0.260  0.0073  0.0186 -0.0786
  657MOL0     C90571  10.823   9.171   0.354 -0.3418 -0.7587  0.3069
  657MOL0     C90572  10.880   9.023   0.372  0.1727 -0.4581 -0.9863
  657MOL0    Cl90573  10.860   8.926   0.232 -0.0258  0.0764  0.0245
  657MOL0     C90574  10.638  10.088  -0.027  0.7693 -0.1831  0.1102
  657MOL0     C90575  10.663  10.214  -0.077 -0.3111  0.7088  0.7175
  657MOL0     O90576  10.983  10.429  -0.020  0.3909  0.4000  0.1235
  657MOL0     C90577  10.744  10.688  -0.131 -0.1170  1.0357  0.0349
  657MOL0     C90578  10.737  10.813  -0.197  0.8636 -0.2378  0.2422
  657MOL0     N90579  10.548  11.537  -0.211  0.4473 -0.6294 -0.0158
  657MOL0     N90580  10.430  11.563  -0.162 -0.4628 -0.3822  0.5511
  657MOL0     C90581   9.936  11.000   0.926  0.5427 -1.0850  0.4779
  657MOL0     C90582   9.983  10.959   1.048 -0.1283 -0.5971 -0.1611
  657MOL0     C90583  10.227  10.951   1.417  0.9575 -0.0113 -0.2707
  657MOL0     C90584  10.149  10.986   1.526  0.0582 -0.9771 -1.0463
  657MOL0     C90585  10.165  10.940   1.656  0.4149  0.2492  0.2732
  657MOL0     C90586  10.282  10.869   1.675  0.2214 -0.2193 -1.1468
  657MOL0     O90587  10.311  10.844   1.805 -0.4784  0.4879 -0.0401
  657MOL0     C90588  10.443  10.873   1.849  0.0071  0.6532  0.1412
  657MOL0     C90589  10.452  11.008   1.904 -0.4572 -0.5996  0.4994
  657MOL0     C90590  10.580  11.043   1.962 -0.5161 -0.4788 -0.3417
  657MOL0     C90591  10.582  11.195   1.985 -0.3204 -0.4649 -0.6655
  657MOL0     C90592  10.667  11.216   2.104 -0.2988 -0.0845  0.4702
  657MOL0     C90593  10.716  11.238   2.209 -0.3674  0.9004 -0.1145
  657MOL0     C90594  10.363  10.833   1.575 -0.0587  0.3800  0.1265
  657MOL0     C90595  10.329  10.859   1.445 -0.1619 -0.2503  0.5382
  657MOL0     C90596  10.413  10.799   1.338 -0.3349 -0.0326 -0.1173
  657MOL0     H90597  10.062  11.259   1.182  1.0169 -0.2451 -0.0439
  657MOL0     H90598  10.001  11.338   0.963  1.6155 -0.8317 -2.7315
  657MOL0     H90599   9.763  11.057   0.688  0.1280 -1.3424 -0.9065
  657MOL0     H90600   9.934  11.015   0.658  2.7892  1.8710  3.5081
  657MOL0     H90601   9.778  11.128   0.464 -0.9813 -0.5286  2.1040
  657MOL0     H90602   9.817  11.268   0.548  0.0153 -0.8280  1.5958
  657MOL0     H90603  10.075  11.126   0.521  0.8685 -0.1046 -1.0340
  657MOL0     H90604   9.989  11.110   0.364  3.1168  0.1713 -0.9999
  657MOL0     H90605   9.968  11.361   0.374 -1.6342 -0.9293  0.3184
  657MOL0     H90606  10.070  11.350   0.523  0.9205  0.3285 -1.3364
  657MOL0     H90607  10.225  11.220   0.345 -1.7295 -0.0846  1.6083
  657MOL0     H90608  10.231  11.385   0.405  0.0975  0.1837 -1.3274
  657MOL0     H90609  10.110  11.263   0.149  0.8488 -0.3057  1.3845
  657MOL0     H90610  10.058  11.433   0.187  1.3827  1.8964 -3.0217
  657MOL0     H90611  10.320  11.297   0.111 -1.4953 -0.9491  1.1283
  657MOL0     H90612  10.321  11.469   0.183  4.0324 -1.7187 -0.7323
  657MOL0     H90613  10.194  11.383  -0.074  2.6345 -0.3970 -2.4505
  657MOL0     H90614  10.207  11.549  -0.019 -1.5734 -0.1626 -0.2730
  657MOL0     H90615  10.490  11.261  -0.048 -1.2914 -2.0731 -2.1407
  657MOL0     H90616  10.695  11.250  -0.145 -4.4969  0.2169 -0.8725
  657MOL0     H90617  10.787  11.410  -0.153 -0.2928  2.1634 -1.5016
  657MOL0     H90618  10.673  11.243  -0.382  1.5583 -1.3446 -0.4134
  657MOL0     H90619  10.749  11.396  -0.405  0.2405 -1.6678 -1.1350
  657MOL0     H90620  10.914  11.213  -0.461 -4.4564 -1.4187 -0.9292
  657MOL0     H90621  10.949  11.318  -0.309 -0.9501 -0.3626  0.5963
  657MOL0     H90622  11.000  11.062  -0.315  0.1265  0.2320  0.7092
  657MOL0     H90623  10.939  11.152  -0.170  0.6280  1.6965 -0.5024
  657MOL0     H90624  11.055  10.902  -0.195  0.8073 -1.0909 -1.5150
  657MOL0     H90625  11.158  10.675  -0.011  0.8037 -0.4044 -0.1195
  657MOL0     H90626  11.209  10.716  -0.167  1.1661 -0.6631  0.8626
  657MOL0     H90627  11.144  10.561  -0.150  0.3499  0.4941 -3.3251
  657MOL0     H90628  10.860  10.333   0.181 -0.9973  1.7184  0.4001
  657MOL0     H90629  10.799  10.121   0.270  1.2545  1.5252 -0.6644
  657MOL0     H90630  10.869   9.927   0.216 -1.3112  1.5572 -1.7648
  657MOL0     H90631  10.743   9.858   0.326 -1.1473  2.6498  0.2790
  657MOL0     H90632  10.701   9.676   0.171 -0.9920  2.1248  1.6648
  657MOL0     H90633  10.814   9.735   0.053 -0.4684  0.8048 -0.6806
  657MOL0     H90634  10.916   9.676   0.335 -0.0110 -2.1298  1.0788
  657MOL0     H90635  10.996   9.711   0.180  0.3547 -0.8685 -1.1418
  657MOL0     H90636  11.058   9.496   0.207  2.1485  0.5705 -2.8635
  657MOL0     H90637  10.919   9.497   0.085  0.3440  0.4529  0.2324
  657MOL0     H90638  10.898   9.449   0.383  1.9859 -0.1944  0.3395
  657MOL0     H90639  10.771   9.430   0.262  0.8152  1.4174 -2.3152
  657MOL0     H90640  11.017   9.252   0.255  0.4556  3.0112  0.6448
  657MOL0     H90641  10.879   9.246   0.156 -0.5630  1.9239 -0.2878
  657MOL0     H90642  10.720   9.157   0.318 -1.0413  3.4848  0.1475
  657MOL0     H90643  10.814   9.220   0.451  0.4258  0.6873 -0.3194
  657MOL0     H90644  10.821   8.988   0.458 -0.9912  4.1056  0.3538
  657MOL0     H90645  10.984   9.029   0.405 -0.0983  3.4142 -0.3285
  657MOL0     H90646  10.582  10.025  -0.095 -0.8158  3.4288 -2.2555
  657MOL0     H90647  10.648  10.248  -0.179  0.5505 -0.5746  0.1345
  657MOL0     H90648  10.648  10.642  -0.108  0.4781  0.6913  1.9585
  657MOL0     H90649  10.632  10.828  -0.219  0.8438 -2.0398 -1.1565
  657MOL0     H90650   9.897  10.931   0.851 -0.2831 -2.1358  1.8187
  657MOL0     H90651  10.000  10.857   1.082  0.0451  0.1996  2.3669
  657MOL0     H90652  10.063  11.053   1.516  0.2242 -0.5649  0.1610
  657MOL0     H90653  10.092  10.972   1.730  1.0173 -0.8347  1.3857
  657MOL0     H90654  10.471  10.796   1.922 -0.2975 -0.3765 -0.8132
  657MOL0     H90655  10.517  10.846   1.773 -0.2283 -3.8047  1.2017
  657MOL0     H90656  10.380  11.012   1.986 -4.7126  0.1135 -2.9142
  657MOL0     H90657  10.430  11.079   1.825  3.5067 -0.7626 -0.9546
  657MOL0     H90658  10.604  10.985   2.052 -1.5193  0.6058  0.6661
  657MOL0     H90659  10.656  11.013   1.890  1.1617  1.8484  0.3305
  657MOL0     H90660  10.484  11.232   2.016 -1.9647 -2.8151 -2.6962
  657MOL0     H90661  10.620  11.243   1.894  3.0657 -2.8798 -0.7110
  657MOL0     H90662  10.762  11.249   2.306 -3.6256  1.0517  1.5345
  657MOL0     H90663  10.449  10.769   1.586 -2.1274 -3.2127 -2.4708
  657MOL0     H90664  10.348  10.744   1.269 -0.5959 -1.0028  0.8754
  657MOL0     H90665  10.472  10.871   1.281 -2.3879  0.8714 -1.2029
  657MOL0     H90666  10.481  10.731   1.390 -0.8491 -0.1496  0.4110
  658MOL0     O90667   0.792   9.137   8.506  1.0498  0.5772 -0.2686
  658MOL0     C90668   0.848   9.064   8.589  1.0386  0.2275  0.5738
  658MOL0     O90669   0.865   8.925   8.565  0.2899 -0.0598 -0.2001
  658MOL0     C90670   0.819   8.878   8.447  0.7880 -0.0927  0.2977
  658MOL0     C90671   0.691   8.835   8.421  0.4506  1.0363  0.1372
  658MOL0     C90672   0.656   8.796   8.289  0.5877  0.1505 -0.9991
  658MOL0     C90673   0.733   8.821   8.173 -0.1691 -0.4905 -0.5284
  658MOL0     O90674   0.706   8.814   8.041  0.5679 -0.1242  0.3800
  658MOL0     C90675   0.582   8.754   8.008 -0.3113 -0.0705 -0.2110
  658MOL0     C90676   0.584   8.698   7.867  0.2621 -0.4642  0.2105
  658MOL0     C90677   0.606   8.802   7.764  0.3330  0.0574 -0.1186
  658MOL0     C90678   0.532   8.935   7.768 -0.0206 -0.3323  0.4348
  658MOL0     C90679   0.518   9.000   7.632 -0.4286  0.3386  0.9705
  658MOL0     C90680   0.653   9.004   7.554 -0.4920 -0.1040  0.6639
  658MOL0     C90681   0.631   9.055   7.407  0.8900  0.2838  0.4284
  658MOL0     C90682   0.754   9.033   7.320 -0.5751 -0.9186  0.0208
  658MOL0     N90683   0.742   9.097   7.189  1.0223 -0.3204 -1.3055
  658MOL0     C90684   0.688   9.229   7.170 -0.1054  1.0601  0.4264
  658MOL0     C90685   0.721   9.249   7.043  0.4738  0.7095  0.6597
  658MOL0     C90686   0.672   9.363   6.957 -0.3051 -0.3645  0.3617
  658MOL0     C90687   0.655   9.313   6.810  0.1341  0.4510 -0.3203
  658MOL0     C90688   0.632   9.427   6.705  0.5684 -1.0627  1.3300
  658MOL0     C90689   0.577   9.374   6.568 -0.5833  0.3980 -0.5142
  658MOL0     O90690   0.651   9.455   6.470  0.6732 -0.3834  0.2122
  658MOL0     C90691   0.611   9.439   6.335 -1.4325 -0.4902 -1.2482
  658MOL0     C90692   0.676   9.523   6.237 -0.0077  0.3785 -0.6261
  658MOL0     C90693   0.656   9.519   6.097 -0.8995 -0.9809 -0.3946
  658MOL0     C90694   0.752   9.604   6.010 -0.5471  0.2203 -0.3834
  658MOL0     C90695   0.555   9.424   6.052  0.1782 -0.9682  0.2769
  658MOL0     C90696   0.515   9.416   5.908 -0.5221  0.0346  0.1675
  658MOL0     O90697   0.435   9.316   5.863  0.0749  0.6142  0.4263
  658MOL0     C90698   0.410   9.286   5.731 -0.5118 -0.3524  0.0187
  658MOL0     C90699   0.276   9.278   5.696  0.1321  0.8059  0.5558
  658MOL0     C90700   0.245   9.252   5.564 -0.0460 -0.8148  0.5878
  658MOL0     C90701   0.342   9.233   5.464 -0.5629  0.2691  0.2495
  658MOL0     O90702   0.304   9.207   5.334  0.3761 -0.4204  0.4247
  658MOL0     C90703   0.384   9.105   5.268 -0.6345 -0.7102 -0.4848
  658MOL0     C90704   0.301   9.074   5.150 -0.1927  0.1222 -0.9658
  658MOL0     C90705   0.184   8.980   5.180 -0.1336  0.5983  0.1359
  658MOL0     C90706   0.082   8.959   5.067 -0.1622 -0.0098 -0.1054
  658MOL0     C90707   0.124   8.860   4.956 -0.1242  0.6439  1.0272
  658MOL0     C90708   0.001   8.845   4.870 -0.2877 -0.0783 -0.2681
  658MOL0     C90709   0.020   8.749   4.754 -0.8545 -0.1952 -0.3911
  658MOL0     C90710  -0.080   8.765   4.637 -0.2601 -0.5718 -0.0196
  658MOL0    Cl90711  -0.072   8.919   4.571 -0.1247 -0.3088 -0.1248
  658MOL0     C90712   0.477   9.246   5.497  0.4884  0.2639 -0.5613
  658MOL0     C90713   0.510   9.280   5.630  0.0417  0.1003 -0.2349
  658MOL0     O90714   0.562   9.496   5.827 -0.7334  0.3732  0.1115
  658MOL0     C90715   0.493   9.330   6.139 -0.7454 -0.5254  0.0250
  658MOL0     C90716   0.519   9.344   6.280 -0.7781  0.0737 -0.4451
  658MOL0     N90717   0.797   9.142   6.995  0.0924 -0.8872 -0.4022
  658MOL0     N90718   0.797   9.052   7.083 -1.0039  0.1419  0.8843
  658MOL0     C90719   0.862   8.874   8.196  0.5217  0.0513 -1.3801
  658MOL0     C90720   0.900   8.901   8.330  0.5004  0.2555 -1.1845
  658MOL0     C90721   0.927   9.123   8.709  0.1385 -0.8568 -0.3369
  658MOL0     C90722   1.010   9.034   8.779 -0.4646 -0.0603  0.6463
  658MOL0     C90723   1.069   9.067   8.905 -0.1753  0.5095 -0.0041
  658MOL0     C90724   1.051   9.196   8.947  0.6086 -0.1467 -0.4359
  658MOL0     O90725   1.081   9.251   9.078 -0.0114  0.3320 -0.0980
  658MOL0     C90726   1.142   9.170   9.180 -0.8347 -0.1979  0.5393
  658MOL0     C90727   1.035   9.129   9.279 -0.0045 -0.1416  0.1176
  658MOL0     C90728   1.088   9.077   9.410  0.2431 -0.3461  0.0314
  658MOL0     C90729   0.978   8.991   9.475  0.3699 -0.5566  0.0299
  658MOL0     C90730   0.964   8.862   9.406  0.8819 -0.0176  0.3569
  658MOL0     C90731   0.961   8.759   9.347 -0.2012  0.5348  0.3498
  658MOL0     C90732   0.968   9.284   8.874 -0.2693 -0.3600  0.5894
  658MOL0     C90733   0.898   9.252   8.761  0.5426  0.0241 -0.7657
  658MOL0     C90734   0.798   9.340   8.722 -0.8296 -0.8049 -0.1440
  658MOL0     H90735   0.608   8.832   8.492  0.8160 -0.4975  0.5376
  658MOL0     H90736   0.557   8.752   8.281  0.8809 -0.9023  0.8619
  658MOL0     H90737   0.502   8.827   8.025  1.5718  1.8031  1.1919
  658MOL0     H90738   0.565   8.664   8.068  3.1997 -1.8796 -1.5869
  658MOL0     H90739   0.669   8.629   7.857  1.4702  0.8290  1.1751
  658MOL0     H90740   0.491   8.647   7.841  0.3791 -0.7493  0.3484
  658MOL0     H90741   0.715   8.812   7.766  0.5714 -2.1053  1.2753
  658MOL0     H90742   0.580   8.749   7.671 -1.3976  0.3319  0.1754
  658MOL0     H90743   0.433   8.905   7.802  0.2579 -0.3841  1.2351
  658MOL0     H90744   0.593   9.001   7.832  0.1365 -2.8611  3.1221
  658MOL0     H90745   0.477   9.100   7.646  2.6919  1.5596  2.1500
  658MOL0     H90746   0.445   8.940   7.576 -0.8455  2.0192 -0.3731
  658MOL0     H90747   0.716   9.065   7.619 -1.2040 -0.7284  1.9846
  658MOL0     H90748   0.684   8.899   7.553 -0.9205 -0.2403 -1.0631
  658MOL0     H90749   0.606   9.161   7.422 -3.8315 -0.0915 -2.6651
  658MOL0     H90750   0.547   9.001   7.362  0.1194 -0.1654  2.3232
  658MOL0     H90751   0.851   9.055   7.364 -0.7787 -3.6245  2.1147
  658MOL0     H90752   0.749   8.924   7.306  2.0573 -1.0590 -0.2702
  658MOL0     H90753   0.635   9.300   7.233 -3.8201  0.2233 -1.5179
  658MOL0     H90754   0.737   9.451   6.965 -1.7192  0.7665 -0.2275
  658MOL0     H90755   0.574   9.396   6.992 -0.8947  0.6233 -2.0614
  658MOL0     H90756   0.723   9.243   6.760 -1.9046 -0.3516 -2.1164
  658MOL0     H90757   0.557   9.264   6.819 -2.0182  4.6096  1.4815
  658MOL0     H90758   0.574   9.514   6.739  0.9144  0.7582 -2.2609
  658MOL0     H90759   0.731   9.466   6.682 -0.2149  1.0838  1.3722
  658MOL0     H90760   0.604   9.268   6.556 -0.3171  0.6075 -1.9487
  658MOL0     H90761   0.468   9.383   6.569 -0.9246 -2.3827 -1.8156
  658MOL0     H90762   0.751   9.591   6.276 -0.9591 -0.6362  3.5420
  658MOL0     H90763   0.782   9.534   5.931  2.0047 -0.3793  0.9949
  658MOL0     H90764   0.838   9.634   6.071 -0.3019  2.1658 -1.5799
  658MOL0     H90765   0.710   9.695   5.966  0.8065 -0.0868 -2.5041
  658MOL0     H90766   0.194   9.304   5.763 -2.4320  0.8881 -2.3972
  658MOL0     H90767   0.143   9.247   5.527  0.6887  3.5400 -2.9365
  658MOL0     H90768   0.477   9.144   5.225 -0.0706 -1.1781  0.2799
  658MOL0     H90769   0.415   9.020   5.331  0.8322  0.8500  1.0123
  658MOL0     H90770   0.257   9.167   5.113  1.8188  2.4849  2.0616
  658MOL0     H90771   0.366   9.027   5.076 -0.7854 -3.9460  0.8344
  658MOL0     H90772   0.125   9.026   5.260  0.3417  3.4512 -1.0325
  658MOL0     H90773   0.233   8.883   5.186  3.5670  2.0051 -2.8196
  658MOL0     H90774   0.047   9.058   5.035 -1.1764  1.5951  5.0544
  658MOL0     H90775   0.005   8.909   5.127 -0.3854 -1.2142 -1.3490
  658MOL0     H90776   0.209   8.896   4.897 -2.9881  0.6720 -3.5606
  658MOL0     H90777   0.165   8.772   5.008  0.1958  1.0943  1.5505
  658MOL0     H90778  -0.040   8.945   4.849 -1.2748 -0.0753  1.5227
  658MOL0     H90779  -0.068   8.789   4.933 -0.2652 -0.4431 -0.5619
  658MOL0     H90780   0.017   8.647   4.792  0.9601 -0.6901 -1.4184
  658MOL0     H90781   0.124   8.755   4.719 -1.1067  0.4497 -1.0611
  658MOL0     H90782  -0.184   8.751   4.669  0.1997  0.8480  2.3592
  658MOL0     H90783  -0.055   8.690   4.562 -1.9112 -2.7975  1.5134
  658MOL0     H90784   0.545   9.244   5.413 -1.3109  0.5681 -2.0927
  658MOL0     H90785   0.609   9.299   5.669 -1.1549  1.0046  2.5664
  658MOL0     H90786   0.419   9.265   6.092 -1.3478 -0.8047  1.3143
  658MOL0     H90787   0.460   9.286   6.350 -1.8342  2.8649  1.1610
  658MOL0     H90788   0.929   8.892   8.112  1.5156  1.1877 -0.3750
  658MOL0     H90789   0.997   8.940   8.356  0.2943 -1.7614  3.6258
  658MOL0     H90790   1.015   8.933   8.739 -1.1840  0.3271 -0.4617
  658MOL0     H90791   1.134   8.992   8.949 -2.2692 -0.9602  0.6852
  658MOL0     H90792   1.203   9.089   9.140 -1.8142 -1.6520  1.8641
  658MOL0     H90793   1.206   9.237   9.237 -1.2599  1.3546 -0.7341
  658MOL0     H90794   0.974   9.053   9.228 -0.2719  0.3583 -0.3179
  658MOL0     H90795   0.979   9.221   9.297  2.7075  2.1153 -1.9032
  658MOL0     H90796   1.186   9.030   9.413  1.3843  1.8893 -0.1577
  658MOL0     H90797   1.100   9.161   9.479  0.3941 -1.3503  1.2707
  658MOL0     H90798   0.886   9.049   9.474  0.6213 -0.1583 -0.3485
  658MOL0     H90799   1.007   8.963   9.576  0.8925 -3.9541 -0.9078
  658MOL0     H90800   0.973   8.660   9.307 -0.1020  0.2135  1.1452
  658MOL0     H90801   0.961   9.387   8.908  0.8763  1.1291 -3.2145
  658MOL0     H90802   0.812   9.436   8.773 -1.2351  0.1824 -1.8094
  658MOL0     H90803   0.792   9.354   8.613 -4.7965  3.7364  0.3204
  658MOL0     H90804   0.700   9.296   8.739 -0.8515 -0.2517  1.2802
  659MOL0     O90805   3.821   7.447   4.696 -0.2483 -0.5949  0.8978
  659MOL0     C90806   3.727   7.368   4.718 -0.8024  0.4084 -0.1020
  659MOL0     O90807   3.720   7.289   4.837  0.3090  0.0963 -0.1620
  659MOL0     C90808   3.821   7.287   4.930 -1.0589  0.0318  0.4446
  659MOL0     C90809   3.962   7.266   4.893  0.3102  0.2356  0.8171
  659MOL0     C90810   4.066   7.248   4.989 -0.2941  0.6496  0.1643
  659MOL0     C90811   4.037   7.240   5.119 -0.6854 -0.7332 -0.6827
  659MOL0     O90812   4.153   7.218   5.200  0.4360  1.0152 -0.4385
  659MOL0     C90813   4.139   7.098   5.278  0.0137 -0.3529  0.7617
  659MOL0     C90814   4.213   7.122   5.411 -1.2781 -0.4436 -0.2685
  659MOL0     C90815   4.234   6.991   5.488  0.4309 -0.3808 -0.1681
  659MOL0     C90816   4.329   7.007   5.614  0.4342 -0.3351  0.0878
  659MOL0     C90817   4.373   6.862   5.669 -0.8688 -0.0735 -0.4794
  659MOL0     C90818   4.250   6.799   5.732  1.0501 -0.1912  0.7256
  659MOL0     C90819   4.288   6.664   5.799 -0.2903  0.3114 -0.1747
  659MOL0     C90820   4.369   6.562   5.713 -0.2968  0.2395  0.1378
  659MOL0     N90821   4.429   6.456   5.792  0.0110  0.4760  0.8116
  659MOL0     C90822   4.570   6.428   5.792  0.4040  0.0246 -0.6204
  659MOL0     C90823   4.590   6.318   5.869 -0.0899 -0.2574 -0.3347
  659MOL0     C90824   4.727   6.252   5.897 -0.0278  0.1218  0.0997
  659MOL0     C90825   4.827   6.367   5.907 -0.7216 -0.6049 -0.8006
  659MOL0     C90826   4.952   6.309   5.970  0.3344 -0.0065 -0.5650
  659MOL0     C90827   5.063   6.414   5.996  0.1241 -0.0392  0.1090
  659MOL0     O90828   5.067   6.460   6.130 -0.5641  0.0927  0.2856
  659MOL0     C90829   4.997   6.578   6.150 -0.0478  0.0931  0.4368
  659MOL0     C90830   4.865   6.584   6.179  0.0497  0.4755 -0.3577
  659MOL0     C90831   4.792   6.706   6.183 -0.0812  0.1184  0.3646
  659MOL0     C90832   4.650   6.712   6.233  0.4221 -0.2052  0.2038
  659MOL0     C90833   4.865   6.832   6.161 -0.0394  0.8914  0.9571
  659MOL0     C90834   4.807   6.962   6.144 -0.1974  0.0567  0.1086
  659MOL0     O90835   4.887   7.073   6.164  1.0360  0.1174 -0.5387
  659MOL0     C90836   4.833   7.200   6.130 -0.0087  0.0993  0.2229
  659MOL0     C90837   4.711   7.229   6.190  0.1858  0.2670  0.3439
  659MOL0     C90838   4.656   7.357   6.176  1.0222 -0.2715 -0.1998
  659MOL0     C90839   4.712   7.457   6.104  0.3281 -0.2164  1.3334
  659MOL0     O90840   4.634   7.570   6.081 -0.0675  0.1671  0.1182
  659MOL0     C90841   4.707   7.682   6.042  0.0761 -1.6871  0.5648
  659MOL0     C90842   4.624   7.808   6.048 -0.1562  0.8138 -0.5658
  659MOL0     C90843   4.679   7.935   5.973 -0.0999  0.1213 -0.7393
  659MOL0     C90844   4.617   8.064   6.030 -0.4280  0.5316  1.2399
  659MOL0     C90845   4.690   8.189   5.980 -0.5233  0.1772 -0.7694
  659MOL0     C90846   4.604   8.317   6.004 -0.6961  0.2323 -0.7088
  659MOL0     C90847   4.669   8.432   6.085  0.7104 -0.3940 -0.0144
  659MOL0     C90848   4.562   8.540   6.115  0.3082 -0.4410  0.1773
  659MOL0    Cl90849   4.421   8.470   6.212 -0.0116  0.0524 -0.2522
  659MOL0     C90850   4.835   7.425   6.040 -0.1120 -0.6443  0.4907
  659MOL0     C90851   4.894   7.299   6.054  0.0728 -0.2531 -0.0615
  659MOL0     O90852   4.690   6.964   6.095 -0.2176 -0.3358  1.0698
  659MOL0     C90853   5.009   6.829   6.153 -0.1085 -0.2692  0.6726
  659MOL0     C90854   5.074   6.699   6.142  1.0448  0.0182 -0.3158
  659MOL0     N90855   4.462   6.270   5.903 -0.5695 -0.6466  0.5506
  659MOL0     N90856   4.370   6.354   5.861  0.6709  0.3081  0.8674
  659MOL0     C90857   3.901   7.252   5.158 -0.3133 -0.1243  0.2068
  659MOL0     C90858   3.799   7.280   5.063 -0.1732  0.5483  0.8800
  659MOL0     C90859   3.624   7.349   4.608 -0.2492  0.0933  0.2965
  659MOL0     C90860   3.534   7.248   4.631  0.6406  0.3550 -0.4943
  659MOL0     C90861   3.427   7.230   4.546  0.1070 -0.1112  0.6487
  659MOL0     C90862   3.420   7.305   4.427  0.5113  0.0096  0.7868
  659MOL0     O90863   3.312   7.294   4.340  0.0673 -1.1641 -0.6635
  659MOL0     C90864   3.250   7.420   4.300  0.2754 -0.7494  0.1509
  659MOL0     C90865   3.122   7.397   4.213 -0.1247  0.7833 -0.1428
  659MOL0     C90866   3.128   7.284   4.113 -0.4397 -0.6784 -0.6645
  659MOL0     C90867   3.236   7.308   4.005 -0.5888  0.0803  0.2058
  659MOL0     C90868   3.224   7.212   3.891  0.6657 -0.3619 -1.1485
  659MOL0     C90869   3.221   7.129   3.798 -1.4515 -0.2836  0.2135
  659MOL0     C90870   3.517   7.399   4.394 -0.5947  0.1223 -0.2222
  659MOL0     C90871   3.625   7.417   4.482  0.8339  0.3840  0.9082
  659MOL0     C90872   3.732   7.529   4.446  0.6453 -0.4677  0.7507
  659MOL0     H90873   3.992   7.261   4.789 -2.9101 -3.6755 -0.1656
  659MOL0     H90874   4.168   7.218   4.965 -0.7095 -0.4019 -0.3714
  659MOL0     H90875   4.199   7.023   5.226  1.4857  1.1925  0.1471
  659MOL0     H90876   4.035   7.066   5.292 -0.9215  0.6160 -2.9790
  659MOL0     H90877   4.312   7.162   5.390 -1.9952  0.1082 -2.9423
  659MOL0     H90878   4.161   7.193   5.476 -0.9739  0.8889 -1.4326
  659MOL0     H90879   4.132   6.956   5.509  0.2608  0.2850  0.1536
  659MOL0     H90880   4.297   6.923   5.430  4.6502  3.2108 -0.2408
  659MOL0     H90881   4.417   7.066   5.584 -0.7143  2.0490  1.1298
  659MOL0     H90882   4.285   7.070   5.692  3.9245  1.4869  0.8281
  659MOL0     H90883   4.456   6.870   5.739 -2.4068 -0.9188  1.5576
  659MOL0     H90884   4.414   6.804   5.586 -3.2009 -0.8542 -1.1625
  659MOL0     H90885   4.219   6.865   5.813  2.8350 -2.3606  3.3431
  659MOL0     H90886   4.168   6.792   5.659  0.3913  1.9730  1.1797
  659MOL0     H90887   4.200   6.615   5.841  0.2313 -4.1092 -3.5778
  659MOL0     H90888   4.361   6.695   5.874  2.4693 -0.8408 -2.2500
  659MOL0     H90889   4.306   6.517   5.636  1.1134 -0.0237 -0.9132
  659MOL0     H90890   4.453   6.604   5.656  0.4675 -1.5267 -0.1095
  659MOL0     H90891   4.633   6.485   5.725 -0.8580  1.1868 -0.8521
  659MOL0     H90892   4.758   6.178   5.821 -0.7895 -1.8687  1.6377
  659MOL0     H90893   4.727   6.192   5.988 -0.3165 -1.7405 -1.0761
  659MOL0     H90894   4.853   6.406   5.809 -2.0155  1.3090 -0.4353
  659MOL0     H90895   4.793   6.445   5.976 -1.2554 -2.2533  0.9018
  659MOL0     H90896   4.911   6.270   6.064 -3.1999 -1.9931 -2.7265
  659MOL0     H90897   4.997   6.228   5.913 -1.5649 -3.7270  2.7282
  659MOL0     H90898   5.159   6.363   5.982  1.1389  1.5753  0.8068
  659MOL0     H90899   5.042   6.487   5.917  0.6599 -2.3676 -2.3013
  659MOL0     H90900   4.813   6.492   6.207 -0.2799  1.2116  1.6324
  659MOL0     H90901   4.633   6.612   6.274 -1.7953 -0.3696 -0.9530
  659MOL0     H90902   4.572   6.733   6.159 -1.3667 -1.0757  1.7410
  659MOL0     H90903   4.646   6.785   6.314 -1.1688 -1.5030  1.3598
  659MOL0     H90904   4.661   7.154   6.251  1.4925  0.2708  1.4722
  659MOL0     H90905   4.561   7.370   6.228  1.9734 -2.2480  2.2106
  659MOL0     H90906   4.792   7.688   6.111  0.6584 -3.1079  0.0062
  659MOL0     H90907   4.747   7.668   5.942  3.7903  0.6051  1.5293
  659MOL0     H90908   4.532   7.788   5.992 -0.6365 -0.4294  0.5951
  659MOL0     H90909   4.599   7.817   6.154 -1.8982  0.2146 -0.8836
  659MOL0     H90910   4.658   7.925   5.867 -1.1374 -1.6770 -0.3949
  659MOL0     H90911   4.788   7.940   5.982  0.0106 -2.8095  0.8588
  659MOL0     H90912   4.619   8.052   6.139  0.3064 -0.4259  1.1314
  659MOL0     H90913   4.510   8.085   6.020  0.2636  3.8150 -0.7261
  659MOL0     H90914   4.791   8.201   6.019 -1.0676 -0.2441  0.8390
  659MOL0     H90915   4.704   8.166   5.874  0.3986  2.1395 -1.1017
  659MOL0     H90916   4.524   8.277   6.068  1.1958  2.1227  3.2216
  659MOL0     H90917   4.554   8.347   5.912 -1.5586 -2.0207 -1.0419
  659MOL0     H90918   4.751   8.478   6.029  0.7306 -0.6972 -0.2352
  659MOL0     H90919   4.695   8.389   6.182 -2.2034  0.5546  1.3132
  659MOL0     H90920   4.526   8.588   6.023  0.1364  0.2344  0.5883
  659MOL0     H90921   4.603   8.612   6.186 -0.6120 -1.6566  2.0199
  659MOL0     H90922   4.881   7.480   5.960  0.7887 -0.2417  1.2662
  659MOL0     H90923   4.992   7.276   6.012  0.3892  2.4086 -1.0021
  659MOL0     H90924   5.068   6.920   6.149 -0.9864  0.3147  0.7618
  659MOL0     H90925   5.180   6.680   6.138  0.7059 -2.7709  1.5075
  659MOL0     H90926   3.868   7.244   5.261  3.5735  2.1254  1.8295
  659MOL0     H90927   3.692   7.294   5.079 -0.1091  1.8309  0.2588
  659MOL0     H90928   3.523   7.204   4.730  4.0591  3.0379  1.2993
  659MOL0     H90929   3.346   7.159   4.561 -2.8135  2.8839  0.3078
  659MOL0     H90930   3.235   7.485   4.387 -1.6097  1.1289 -1.4662
  659MOL0     H90931   3.306   7.481   4.228 -0.2458  0.2414  0.5673
  659MOL0     H90932   3.075   7.488   4.174 -2.5975  0.0890  1.0194
  659MOL0     H90933   3.060   7.345   4.287  1.7107 -1.6320 -0.1975
  659MOL0     H90934   3.131   7.184   4.158  1.5765 -0.1434  0.5354
  659MOL0     H90935   3.031   7.283   4.063 -1.1085  0.7521  0.5558
  659MOL0     H90936   3.338   7.306   4.045 -0.4219  4.5327  0.4373
  659MOL0     H90937   3.225   7.413   3.978  0.9838  0.4485  0.8798
  659MOL0     H90938   3.226   7.051   3.725 -0.8550  0.3766 -0.4636
  659MOL0     H90939   3.512   7.459   4.305 -1.6896 -1.7111 -1.4723
  659MOL0     H90940   3.831   7.483   4.447  0.1812 -1.4864  0.8612
  659MOL0     H90941   3.704   7.582   4.354 -0.5576 -3.1962 -0.5695
  659MOL0     H90942   3.728   7.601   4.528  1.2040  2.4186 -1.5807
  660MOL0     O90943  10.100   4.622   4.675  0.1463 -0.3253  0.1061
  660MOL0     C90944  10.128   4.594   4.556 -0.1365 -0.0558 -0.6722
  660MOL0     O90945  10.251   4.625   4.506  0.3614  0.0212  1.0919
  660MOL0     C90946  10.355   4.673   4.579 -0.1950  0.8472  0.1826
  660MOL0     C90947  10.383   4.623   4.699 -0.4852  0.4690 -0.5495
  660MOL0     C90948  10.486   4.684   4.777 -0.1969  0.0057  0.6560
  660MOL0     C90949  10.582   4.771   4.711  0.5172  0.1669 -0.7842
  660MOL0     O90950  10.695   4.810   4.777 -1.0242 -0.5751 -0.3602
  660MOL0     C90951  10.824   4.755   4.744 -0.1911 -1.3249 -0.0219
  660MOL0     C90952  10.932   4.861   4.777  0.4808 -0.2079  0.2396
  660MOL0     C90953  10.924   4.991   4.695  0.2600  0.0015 -0.0160
  660MOL0     C90954  11.050   5.082   4.705  0.1401  1.0101 -0.8357
  660MOL0     C90955  11.063   5.202   4.609 -0.5411  0.2269 -0.3564
  660MOL0     C90956  10.951   5.298   4.642  0.5887 -0.3236  1.1075
  660MOL0     C90957  10.946   5.403   4.539  0.9157  0.2329  0.5513
  660MOL0     C90958  11.049   5.516   4.555 -0.1963 -0.5206 -0.5448
  660MOL0     N90959  11.180   5.498   4.501  0.2017  0.4720  0.3231
  660MOL0     C90960  11.293   5.550   4.551  0.4608  0.7372 -0.0109
  660MOL0     C90961  11.393   5.491   4.488 -0.0965  0.4598  0.5066
  660MOL0     C90962  11.528   5.520   4.519 -0.3455  0.0435 -0.1979
  660MOL0     C90963  11.602   5.412   4.602 -0.3280  0.3173  0.9444
  660MOL0     C90964  11.624   5.294   4.501  1.2576  0.4385  0.2499
  660MOL0     C90965  11.679   5.168   4.567  0.6236  0.7741  0.5187
  660MOL0     O90966  11.801   5.188   4.625 -0.2487  0.5050  0.1373
  660MOL0     C90967  11.904   5.211   4.535 -0.0984  1.0599  0.6946
  660MOL0     C90968  12.004   5.294   4.572  0.4003  0.5492 -0.0358
  660MOL0     C90969  12.125   5.318   4.498  0.3086  0.0682  0.3327
  660MOL0     C90970  12.226   5.400   4.562 -0.0353  0.6063  0.5324
  660MOL0     C90971  12.136   5.264   4.361  0.2660  0.0105 -0.3746
  660MOL0     C90972  12.236   5.292   4.252  0.6259  0.0613  0.1744
  660MOL0     O90973  12.206   5.246   4.122  0.0877 -0.1554  0.0916
  660MOL0     C90974  12.308   5.259   4.029  0.2032 -0.0086  0.7346
  660MOL0     C90975  12.269   5.291   3.898  0.2146  0.8518  0.0099
  660MOL0     C90976  12.359   5.298   3.792  0.1575  0.6489  0.1881
  660MOL0     C90977  12.490   5.262   3.819 -0.2469  0.3692 -0.6786
  660MOL0     O90978  12.580   5.275   3.711 -0.5763  0.1171  0.2337
  660MOL0     C90979  12.684   5.191   3.684 -0.1243  0.2668 -0.1981
  660MOL0     C90980  12.817   5.257   3.713 -0.6107  0.7694 -0.0470
  660MOL0     C90981  12.870   5.387   3.625 -0.0305 -0.2307 -0.2959
  660MOL0     C90982  12.950   5.495   3.712 -0.3524  0.1111  0.0739
  660MOL0     C90983  13.027   5.590   3.613  1.0209  0.0920  0.3009
  660MOL0     C90984  13.098   5.701   3.683 -0.8679 -0.6047  0.2380
  660MOL0     C90985  13.140   5.813   3.577 -0.5866 -0.1799  0.8359
  660MOL0     C90986  13.156   5.958   3.634  0.2605 -0.4313  0.2283
  660MOL0    Cl90987  13.284   5.946   3.753  0.4206  0.2457  0.0196
  660MOL0     C90988  12.532   5.235   3.944 -1.6432  0.4474 -0.0437
  660MOL0     C90989  12.443   5.239   4.053 -0.0193  1.0678 -0.1381
  660MOL0     O90990  12.330   5.356   4.286 -0.1029 -0.1040 -0.0838
  660MOL0     C90991  12.024   5.188   4.319 -0.3100 -0.0916 -0.0298
  660MOL0     C90992  11.917   5.166   4.402 -0.4695 -0.2238  0.1824
  660MOL0     N90993  11.347   5.418   4.381  0.2636 -0.1215 -0.2516
  660MOL0     N90994  11.216   5.432   4.389  0.0331 -0.4703  0.2066
  660MOL0     C90995  10.544   4.826   4.595  0.6511 -0.2577  0.6100
  660MOL0     C90996  10.441   4.767   4.522 -0.6039  0.3058  1.0187
  660MOL0     C90997  10.030   4.525   4.480 -0.3783  0.3168 -0.3645
  660MOL0     C90998  10.079   4.420   4.412 -0.0647 -0.4311 -0.6951
  660MOL0     C90999  10.001   4.335   4.330 -0.2233 -0.2121 -0.6225
  660MOL0     C91000   9.865   4.352   4.317 -1.1794  0.3597 -1.0832
  660MOL0     O91001   9.800   4.265   4.233 -0.0623  0.0913 -0.1815
  660MOL0     C91002   9.792   4.322   4.097 -0.1808 -0.4875 -0.4077
  660MOL0     C91003   9.691   4.248   4.017  0.2666 -0.8288  0.1248
  660MOL0     C91004   9.555   4.229   4.074  0.5849  0.3251  0.8660
  660MOL0     C91005   9.540   4.100   4.160 -0.3120 -0.8243  0.5440
  660MOL0     C91006   9.548   3.975   4.085 -0.6053  0.0073  0.4381
  660MOL0     C91007   9.583   3.867   4.034  0.1877 -0.1603  0.0812
  660MOL0     C91008   9.807   4.455   4.395 -0.6739 -0.7200 -0.9004
  660MOL0     C91009   9.891   4.537   4.480  0.5413  0.2522  0.1842
  660MOL0     C91010   9.828   4.642   4.571 -0.0654  0.3041  0.2739
  660MOL0     H91011  10.325   4.546   4.749  0.4359  1.0787  1.5960
  660MOL0     H91012  10.502   4.635   4.873 -1.6495 -0.9674  0.4319
  660MOL0     H91013  10.833   4.714   4.643  4.5409 -0.8851 -0.0004
  660MOL0     H91014  10.846   4.674   4.815 -0.9311  1.7755  4.0869
  660MOL0     H91015  10.934   4.891   4.882 -3.0570  3.7516 -0.5790
  660MOL0     H91016  11.028   4.812   4.757  1.6058  1.7871  0.4683
  660MOL0     H91017  10.922   4.980   4.587  3.1752  1.7301 -0.3519
  660MOL0     H91018  10.823   5.032   4.705  0.7419  0.7020  3.4088
  660MOL0     H91019  11.040   5.102   4.812 -1.0274 -2.6765 -0.1235
  660MOL0     H91020  11.139   5.022   4.688 -1.2960 -1.2913 -0.6325
  660MOL0     H91021  11.054   5.174   4.504  2.3022 -1.0360 -0.3641
  660MOL0     H91022  11.156   5.259   4.619  0.4127 -1.2786 -0.2929
  660MOL0     H91023  10.861   5.241   4.616 -0.4694  1.4096  0.8077
  660MOL0     H91024  10.950   5.334   4.746  1.4227  2.5116  0.2144
  660MOL0     H91025  10.843   5.441   4.543  0.4578 -1.0258  1.3698
  660MOL0     H91026  10.953   5.359   4.439 -3.4739  1.7523 -0.6642
  660MOL0     H91027  11.010   5.598   4.493 -0.4574 -0.4956 -0.3516
  660MOL0     H91028  11.051   5.547   4.660  0.8019  0.2373 -0.7744
  660MOL0     H91029  11.284   5.620   4.633 -3.4429  2.4879 -1.6901
  660MOL0     H91030  11.533   5.596   4.597 -2.6553 -0.9580  1.0268
  660MOL0     H91031  11.574   5.562   4.429 -1.4305  2.1877  0.1910
  660MOL0     H91032  11.697   5.461   4.627  0.1683  0.6983 -1.4999
  660MOL0     H91033  11.540   5.376   4.685 -0.6895 -4.4337 -1.0785
  660MOL0     H91034  11.535   5.274   4.441 -0.4042  0.9446  2.4088
  660MOL0     H91035  11.692   5.336   4.426  3.9615 -0.3901  2.0615
  660MOL0     H91036  11.608   5.129   4.640  3.3431 -1.2788  2.2730
  660MOL0     H91037  11.672   5.102   4.479 -2.8923  2.1901 -0.4508
  660MOL0     H91038  11.987   5.336   4.671 -1.8043  1.1225 -0.5928
  660MOL0     H91039  12.187   5.454   4.649  1.6852 -0.5952  2.1400
  660MOL0     H91040  12.253   5.472   4.485 -0.7490  0.2584 -0.0509
  660MOL0     H91041  12.309   5.339   4.600  2.1733  2.8735 -0.3619
  660MOL0     H91042  12.163   5.285   3.877 -0.0955 -0.9964  1.7270
  660MOL0     H91043  12.319   5.322   3.694 -7.7745 -3.4913  1.4944
  660MOL0     H91044  12.675   5.099   3.742  2.5151 -0.9452 -1.5236
  660MOL0     H91045  12.675   5.165   3.578 -0.4285 -0.8998  0.0942
  660MOL0     H91046  12.826   5.281   3.819  0.4727 -1.8115  0.4947
  660MOL0     H91047  12.886   5.174   3.699  1.1636  2.0717  0.6685
  660MOL0     H91048  12.793   5.424   3.557 -0.4369  0.2187  0.4040
  660MOL0     H91049  12.946   5.347   3.557 -0.0054  0.4657 -0.6881
  660MOL0     H91050  13.012   5.442   3.785  0.9378  0.8971 -0.4137
  660MOL0     H91051  12.877   5.554   3.767  0.5453  2.4557 -1.1016
  660MOL0     H91052  13.100   5.535   3.552  1.9593 -0.6948  2.0307
  660MOL0     H91053  12.950   5.631   3.547  0.3729 -2.7404 -0.8355
  660MOL0     H91054  13.188   5.668   3.736 -1.3907  0.6946  2.0393
  660MOL0     H91055  13.037   5.748   3.761 -3.7142  0.9095 -2.6829
  660MOL0     H91056  13.069   5.824   3.495  0.7351 -0.1233 -0.3341
  660MOL0     H91057  13.233   5.779   3.530  0.8179 -0.2232  3.4204
  660MOL0     H91058  13.069   5.981   3.696 -1.3190 -3.7007 -0.5582
  660MOL0     H91059  13.166   6.029   3.551  1.0270 -1.3174 -0.4621
  660MOL0     H91060  12.638   5.222   3.960 -0.9034  2.5293 -2.5133
  660MOL0     H91061  12.480   5.207   4.150  1.2174  0.8770 -0.6559
  660MOL0     H91062  12.022   5.146   4.219  1.4945  1.6394 -0.8527
  660MOL0     H91063  11.840   5.095   4.373  0.0965 -1.2792  1.2060
  660MOL0     H91064  10.596   4.904   4.542 -0.5241 -0.5241 -1.0026
  660MOL0     H91065  10.417   4.801   4.421  1.3934 -0.9509  0.0389
  660MOL0     H91066  10.180   4.380   4.420 -0.8490 -2.5405 -0.7424
  660MOL0     H91067  10.052   4.249   4.287  0.9062  0.8896 -1.5579
  660MOL0     H91068   9.767   4.428   4.106 -1.2331 -0.9067  4.0113
  660MOL0     H91069   9.888   4.317   4.044 -1.5485 -0.8194 -3.0178
  660MOL0     H91070   9.731   4.147   4.007  0.7152 -0.5513 -1.1660
  660MOL0     H91071   9.699   4.302   3.921  1.3742  0.1390  0.7361
  660MOL0     H91072   9.538   4.314   4.139  2.7153  1.4759  0.0208
  660MOL0     H91073   9.484   4.217   3.991  1.6895  0.8958 -0.1978
  660MOL0     H91074   9.444   4.107   4.212 -0.1036  2.7180  0.7195
  660MOL0     H91075   9.615   4.111   4.239 -0.5308  2.8570  0.4177
  660MOL0     H91076   9.623   3.772   4.003  2.7048  0.1432  2.0922
  660MOL0     H91077   9.699   4.447   4.391 -0.6731 -0.5516 -1.3563
  660MOL0     H91078   9.874   4.741   4.563  0.9622 -0.3140 -2.1311
  660MOL0     H91079   9.723   4.655   4.545 -0.6853 -0.5080  2.1534
  660MOL0     H91080   9.826   4.604   4.674  0.2205 -1.6626 -0.3989
  661MOL0     O91081   1.878   4.943   5.745 -0.9045  0.4760 -0.5170
  661MOL0     C91082   1.873   5.066   5.749  0.0911  0.5931  1.3144
  661MOL0     O91083   1.969   5.151   5.795  0.2048  0.0996  0.4276
  661MOL0     C91084   2.097   5.128   5.852 -0.9449 -0.7418  0.1427
  661MOL0     C91085   2.102   5.061   5.978 -0.5062  0.2068  0.8177
  661MOL0     C91086   2.222   5.047   6.043  0.5321 -0.0708  0.4434
  661MOL0     C91087   2.341   5.076   5.968 -0.3897 -0.0823  0.3126
  661MOL0     O91088   2.464   5.062   6.034  0.1954 -0.2825  0.0860
  661MOL0     C91089   2.574   5.007   5.961 -0.4884  1.1938 -0.4837
  661MOL0     C91090   2.683   5.110   5.936  0.2498  0.1767  0.4284
  661MOL0     C91091   2.702   5.196   6.054 -0.1569  0.2702  0.6709
  661MOL0     C91092   2.841   5.269   6.057  0.1617  0.4039  1.0424
  661MOL0     C91093   2.846   5.342   6.196 -0.0026  0.6987 -0.8926
  661MOL0     C91094   2.961   5.445   6.211 -0.3314 -0.6145 -0.4740
  661MOL0     C91095   2.940   5.548   6.317  0.2738  0.1307 -0.5604
  661MOL0     C91096   3.041   5.659   6.344  0.3470 -0.0689  0.3005
  661MOL0     N91097   3.060   5.750   6.231 -0.2823  0.2009  0.8402
  661MOL0     C91098   3.181   5.808   6.187  0.5378 -1.1477  1.1309
  661MOL0     C91099   3.136   5.878   6.080  0.1307 -0.8280 -0.1074
  661MOL0     C91100   3.219   5.969   5.989 -0.1082  0.8866 -0.1773
  661MOL0     C91101   3.240   6.115   6.019  0.7986  0.7498  0.6576
  661MOL0     C91102   3.106   6.198   6.017 -0.1695  0.4310  0.4362
  661MOL0     C91103   3.114   6.351   6.050  0.0164  1.0830  0.9594
  661MOL0     O91104   2.985   6.417   6.039 -0.1828  0.2669  0.2918
  661MOL0     C91105   2.919   6.426   5.915 -0.8592 -0.1249 -0.1173
  661MOL0     C91106   2.786   6.444   5.917  0.2393  0.2967  0.7757
  661MOL0     C91107   2.704   6.454   5.804  0.3193 -0.1566 -0.9792
  661MOL0     C91108   2.555   6.477   5.817 -1.4491  0.6141 -0.5005
  661MOL0     C91109   2.767   6.460   5.670  0.0267  0.3023 -1.0717
  661MOL0     C91110   2.698   6.482   5.545 -0.1070 -0.0916 -0.0451
  661MOL0     O91111   2.598   6.577   5.535  0.3029  0.2827 -0.4881
  661MOL0     C91112   2.532   6.588   5.417  0.2014  1.0517 -1.1062
  661MOL0     C91113   2.403   6.520   5.417  0.0549 -0.6988  0.1590
  661MOL0     C91114   2.309   6.535   5.313  0.2721 -0.2939 -0.3584
  661MOL0     C91115   2.351   6.598   5.200 -0.5523 -0.0665 -0.0118
  661MOL0     O91116   2.259   6.604   5.103  0.1619  0.1024  0.0225
  661MOL0     C91117   2.299   6.616   4.967  0.8187  0.5570  0.0353
  661MOL0     C91118   2.188   6.567   4.871 -0.3330  0.2626 -0.7027
  661MOL0     C91119   2.045   6.623   4.899 -0.2685 -0.5266  0.9869
  661MOL0     C91120   1.943   6.581   4.802  0.0242  0.3018  0.6928
  661MOL0     C91121   1.924   6.645   4.659  0.0427  0.9431  0.5786
  661MOL0     C91122   1.832   6.562   4.571  0.8378 -0.3774  0.0346
  661MOL0     C91123   1.690   6.541   4.635 -0.8032 -0.1668 -0.5377
  661MOL0     C91124   1.582   6.480   4.547  0.5292  0.1829  0.3936
  661MOL0    Cl91125   1.426   6.420   4.628  0.2599  0.0556 -0.4661
  661MOL0     C91126   2.482   6.651   5.180  1.0945  0.6922 -0.7624
  661MOL0     C91127   2.565   6.649   5.295 -1.3094  0.5599  0.8691
  661MOL0     O91128   2.750   6.422   5.443  0.8609 -0.2520  0.2322
  661MOL0     C91129   2.902   6.449   5.661 -0.3950 -0.5999 -0.4218
  661MOL0     C91130   2.974   6.425   5.781 -0.7577  0.9707  0.8094
  661MOL0     N91131   3.001   5.875   6.058 -0.4434  1.0221  0.4523
  661MOL0     N91132   2.953   5.803   6.153  0.3231  0.0059  0.2468
  661MOL0     C91133   2.338   5.140   5.838 -0.5440 -0.0941  0.5870
  661MOL0     C91134   2.216   5.171   5.780  0.1128 -0.2731  0.8606
  661MOL0     C91135   1.756   5.135   5.673 -0.1229  0.0590 -0.5451
  661MOL0     C91136   1.630   5.093   5.717 -1.1502 -0.2848 -0.3848
  661MOL0     C91137   1.511   5.124   5.658  0.3373  0.2170  0.3932
  661MOL0     C91138   1.520   5.208   5.548  0.1509 -0.0589 -0.1284
  661MOL0     O91139   1.409   5.249   5.481 -0.6444  0.3353  0.8480
  661MOL0     C91140   1.414   5.245   5.330 -0.2542 -1.0746 -0.0379
  661MOL0     C91141   1.292   5.193   5.265 -0.4803  0.6106  0.9452
  661MOL0     C91142   1.309   5.143   5.126  0.4614 -0.8883  0.2824
  661MOL0     C91143   1.226   5.229   5.029  0.0042 -0.0161 -0.1144
  661MOL0     C91144   1.215   5.166   4.898  0.9154 -0.7223  0.0110
  661MOL0     C91145   1.191   5.116   4.792  0.4779  0.4704  0.4113
  661MOL0     C91146   1.644   5.268   5.511  0.1671  0.3844 -1.2224
  661MOL0     C91147   1.764   5.240   5.577  0.5541  0.4448 -0.1781
  661MOL0     C91148   1.896   5.303   5.545 -0.2703 -0.0270 -0.3062
  661MOL0     H91149   2.008   5.028   6.020 -2.6397  1.2053 -2.6794
  661MOL0     H91150   2.239   5.011   6.144  1.4274  1.3772  0.8364
  661MOL0     H91151   2.543   4.959   5.868 -3.1815  1.8094  0.0147
  661MOL0     H91152   2.613   4.928   6.026 -2.8785  1.5220  1.5049
  661MOL0     H91153   2.773   5.054   5.911 -1.0761 -1.1960 -1.5728
  661MOL0     H91154   2.666   5.171   5.847 -0.2346 -1.2785 -0.5186
  661MOL0     H91155   2.626   5.275   6.055 -0.7708 -0.2477 -1.1201
  661MOL0     H91156   2.701   5.135   6.144  0.7314  1.5169  1.5633
  661MOL0     H91157   2.925   5.199   6.046 -0.2669  0.1761 -1.0886
  661MOL0     H91158   2.840   5.344   5.978  0.2773 -2.2019 -1.5940
  661MOL0     H91159   2.868   5.265   6.270  0.4870  0.0928 -1.6603
  661MOL0     H91160   2.744   5.374   6.220 -2.5760 -5.1382 -2.1895
  661MOL0     H91161   3.056   5.392   6.205  0.1943  0.3538 -0.8704
  661MOL0     H91162   2.953   5.507   6.120  2.9135  1.6654  0.6118
  661MOL0     H91163   2.929   5.501   6.416 -3.4781  1.9040  0.0720
  661MOL0     H91164   2.845   5.601   6.307  1.3179  2.5793  1.2547
  661MOL0     H91165   3.007   5.711   6.435  2.7406 -2.4409  2.7302
  661MOL0     H91166   3.127   5.607   6.386 -0.3542 -0.4570  1.3096
  661MOL0     H91167   3.284   5.804   6.219  1.9103  0.4645 -2.5700
  661MOL0     H91168   3.181   5.965   5.887 -0.5794  2.3224 -0.0820
  661MOL0     H91169   3.318   5.923   5.995  0.2527  1.7232  0.6626
  661MOL0     H91170   3.286   6.110   6.118  1.4120 -1.6048  0.3117
  661MOL0     H91171   3.315   6.148   5.946  1.1022 -0.0303  0.6054
  661MOL0     H91172   3.063   6.180   5.918 -0.3263 -0.4187  0.6503
  661MOL0     H91173   3.038   6.136   6.075  1.8240 -3.8555 -1.3769
  661MOL0     H91174   3.165   6.366   6.146  0.6061 -2.6286  1.3752
  661MOL0     H91175   3.169   6.407   5.974 -0.0237 -0.5366 -0.3060
  661MOL0     H91176   2.739   6.434   6.014 -0.4122 -2.4366  0.2513
  661MOL0     H91177   2.504   6.397   5.761 -0.3074  0.9585 -2.1006
  661MOL0     H91178   2.521   6.569   5.768 -1.7813  1.0467  0.5113
  661MOL0     H91179   2.522   6.477   5.921 -0.9507  1.2205 -0.3365
  661MOL0     H91180   2.383   6.476   5.515  2.9298  1.1928  1.7543
  661MOL0     H91181   2.207   6.499   5.316 -0.3355  0.4404 -5.2353
  661MOL0     H91182   2.321   6.719   4.940 -0.5631  0.3249 -2.2001
  661MOL0     H91183   2.388   6.558   4.940  1.9363  2.1513  0.1574
  661MOL0     H91184   2.217   6.585   4.767 -0.5901 -3.1543 -1.4822
  661MOL0     H91185   2.185   6.460   4.896 -0.1612  0.5866  0.7741
  661MOL0     H91186   2.035   6.732   4.889  1.8597 -0.3253  0.5111
  661MOL0     H91187   2.013   6.610   5.003 -1.2675  3.5866  1.3936
  661MOL0     H91188   1.844   6.597   4.847 -1.0124  0.1553 -1.3993
  661MOL0     H91189   1.967   6.477   4.779  3.5070  1.0702  0.4011
  661MOL0     H91190   1.888   6.747   4.669 -0.9467  0.5817  0.7844
  661MOL0     H91191   2.021   6.652   4.609  0.1704  0.6025  0.7773
  661MOL0     H91192   1.881   6.469   4.541  0.8179  0.0105 -1.2630
  661MOL0     H91193   1.828   6.626   4.482  3.5118 -0.1982 -0.0385
  661MOL0     H91194   1.648   6.633   4.677  0.9039  0.8399 -0.9376
  661MOL0     H91195   1.703   6.476   4.722  0.3069  0.6322 -0.0815
  661MOL0     H91196   1.631   6.400   4.491  1.5160 -0.1798  1.7148
  661MOL0     H91197   1.544   6.557   4.479 -0.6384 -1.6655 -1.1638
  661MOL0     H91198   2.514   6.681   5.081 -1.5304  0.1799 -1.8417
  661MOL0     H91199   2.667   6.688   5.300 -0.2550 -1.8009 -0.7239
  661MOL0     H91200   2.956   6.464   5.568  1.0523 -0.4984  0.4018
  661MOL0     H91201   3.078   6.396   5.774 -1.4115 -1.2554 -3.2374
  661MOL0     H91202   2.426   5.180   5.789 -1.2385 -0.0475 -0.6519
  661MOL0     H91203   2.209   5.234   5.692 -1.6176  0.6942  1.6398
  661MOL0     H91204   1.639   5.005   5.780 -2.8058 -0.7486 -0.7564
  661MOL0     H91205   1.414   5.092   5.694  0.8571 -1.5701  0.2977
  661MOL0     H91206   1.428   5.351   5.308 -1.3353 -0.5459  1.6735
  661MOL0     H91207   1.505   5.198   5.292 -0.9280 -0.9307 -1.9482
  661MOL0     H91208   1.227   5.282   5.262 -1.2935 -0.0085 -1.3796
  661MOL0     H91209   1.263   5.114   5.335  1.2750 -1.3668 -0.4492
  661MOL0     H91210   1.413   5.130   5.093  1.6681 -1.3870  3.8191
  661MOL0     H91211   1.274   5.040   5.119 -0.3613 -0.5164 -3.0083
  661MOL0     H91212   1.260   5.333   5.030  0.7931 -0.2579 -1.1770
  661MOL0     H91213   1.124   5.230   5.068 -0.0850  1.0792 -0.3477
  661MOL0     H91214   1.158   5.077   4.698  1.5040  2.3458 -0.7888
  661MOL0     H91215   1.663   5.336   5.429  3.8571  1.2275  0.1192
  661MOL0     H91216   1.957   5.233   5.487 -3.6302 -2.5606 -1.0521
  661MOL0     H91217   1.868   5.386   5.480  0.1774 -0.2238 -0.7633
  661MOL0     H91218   1.948   5.342   5.633  5.6769  1.3740 -3.8597
  662MOL0     O91219  10.344   7.665   9.019  0.5223 -0.6852  0.4298
  662MOL0     C91220  10.404   7.690   9.123 -0.9508  0.4872  0.4680
  662MOL0     O91221  10.357   7.694   9.250  0.1143  0.1478  0.0589
  662MOL0     C91222  10.220   7.675   9.263 -0.7089  0.5636 -0.1030
  662MOL0     C91223  10.167   7.558   9.299  0.0633 -0.3327 -0.2631
  662MOL0     C91224  10.028   7.539   9.273 -0.2492  0.3712 -0.2650
  662MOL0     C91225   9.954   7.632   9.207 -0.6390 -0.5833 -0.4092
  662MOL0     O91226   9.829   7.590   9.197 -0.4066  0.5426 -0.6643
  662MOL0     C91227   9.720   7.675   9.180  0.7641 -0.1894 -0.4615
  662MOL0     C91228   9.696   7.687   9.029  0.1864 -0.2565 -0.2895
  662MOL0     C91229   9.696   7.552   8.962  0.4183 -0.3394 -0.2966
  662MOL0     C91230   9.577   7.454   8.997  0.5866  0.2701 -0.2486
  662MOL0     C91231   9.611   7.309   8.976 -0.1104  0.4841  0.4989
  662MOL0     C91232   9.497   7.202   8.986  0.5662  0.2298 -0.0815
  662MOL0     C91233   9.419   7.209   9.115 -0.3406 -0.1464 -0.8529
  662MOL0     C91234   9.326   7.089   9.130 -0.5393  0.2517 -0.1941
  662MOL0     N91235   9.237   7.118   9.240 -0.1013  0.2144 -0.1629
  662MOL0     C91236   9.265   7.141   9.381  0.0846 -0.5818  0.4355
  662MOL0     C91237   9.136   7.152   9.432  0.4180 -0.4154  0.4316
  662MOL0     C91238   9.108   7.174   9.589  1.5795  0.5334  0.3854
  662MOL0     C91239   9.196   7.285   9.637 -0.2155  0.6004  0.4809
  662MOL0     C91240   9.140   7.355   9.773 -1.1012  1.3835  0.2838
  662MOL0     C91241   9.127   7.251   9.892 -0.6567  0.3632  0.0746
  662MOL0     O91242   9.262   7.193   9.910 -0.0785 -0.0466  0.0651
  662MOL0     C91243   9.284   7.103  10.011 -0.0642  0.3641 -0.0930
  662MOL0     C91244   9.397   7.018   9.994 -0.1507 -0.7546  1.3574
  662MOL0     C91245   9.443   6.927  10.086  0.3951 -0.6451 -0.1541
  662MOL0     C91246   9.583   6.858  10.071  0.4644 -0.4858 -0.3304
  662MOL0     C91247   9.359   6.905  10.193 -1.4081  0.2207 -0.2022
  662MOL0     C91248   9.391   6.807  10.301 -0.0091 -0.2643  0.3610
  662MOL0     O91249   9.373   6.674  10.267  0.5826  0.1641  0.0603
  662MOL0     C91250   9.409   6.580  10.359 -0.2560 -0.9644 -0.5318
  662MOL0     C91251   9.484   6.478  10.304 -0.3225 -0.0501 -0.1535
  662MOL0     C91252   9.512   6.367  10.387  0.2443  0.8110  0.1903
  662MOL0     C91253   9.462   6.367  10.516  0.2840  1.1117 -0.0384
  662MOL0     O91254   9.489   6.257  10.597 -0.2142  0.5010  0.0245
  662MOL0     C91255   9.618   6.198  10.606 -0.0139 -0.4059  0.2484
  662MOL0     C91256   9.608   6.065  10.541  0.2936  1.1789  0.0353
  662MOL0     C91257   9.595   5.965  10.650 -0.0480 -0.3619  0.0298
  662MOL0     C91258   9.578   5.816  10.602  0.7597 -0.1553 -0.3839
  662MOL0     C91259   9.446   5.783  10.519  0.5844  0.5047 -0.1118
  662MOL0     C91260   9.429   5.628  10.485 -0.1877 -0.8823  0.5651
  662MOL0     C91261   9.425   5.531  10.608 -0.2421  0.0943 -1.2272
  662MOL0     C91262   9.404   5.384  10.572  0.1519  0.0488 -0.3059
  662MOL0    Cl91263   9.525   5.326  10.440  0.0560 -0.2111 -0.0186
  662MOL0     C91264   9.377   6.468  10.565  0.0340 -0.9229  0.3535
  662MOL0     C91265   9.353   6.577  10.489  0.2641  0.0178  0.8719
  662MOL0     O91266   9.412   6.851  10.413  0.5042  0.1080  0.1210
  662MOL0     C91267   9.239   6.976  10.201 -0.0734 -0.5917  0.0960
  662MOL0     C91268   9.193   7.072  10.114 -0.6036  0.0599  0.1209
  662MOL0     N91269   9.037   7.135   9.334  0.0022  0.0816  0.1525
  662MOL0     N91270   9.102   7.117   9.220  0.2204  0.5931 -0.3828
  662MOL0     C91271  10.011   7.755   9.187  0.5890  0.2993  0.2063
  662MOL0     C91272  10.141   7.779   9.213 -0.3067  0.4403  0.3700
  662MOL0     C91273  10.557   7.692   9.111  1.0003 -0.9223  0.2176
  662MOL0     C91274  10.619   7.622   8.999  0.1711 -0.7697 -0.0655
  662MOL0     C91275  10.767   7.605   8.980  0.3556 -0.8899 -0.2714
  662MOL0     C91276  10.846   7.655   9.082 -0.2622  0.6521 -0.5226
  662MOL0     O91277  10.976   7.659   9.079 -0.1887  0.4303  0.9986
  662MOL0     C91278  11.058   7.544   9.056 -0.6048  0.1778 -0.3892
  662MOL0     C91279  11.021   7.426   9.143  0.3058 -0.4695 -1.0293
  662MOL0     C91280  11.040   7.472   9.294 -0.2261 -0.3717  0.4623
  662MOL0     C91281  10.985   7.367   9.398 -0.3210  0.2423 -0.3857
  662MOL0     C91282  10.938   7.233   9.351  0.6976  0.7465 -0.2149
  662MOL0     C91283  10.895   7.121   9.324 -1.2983  0.4429 -0.6320
  662MOL0     C91284  10.787   7.727   9.192  0.0338 -1.1430  0.3906
  662MOL0     C91285  10.649   7.752   9.205 -0.4843 -0.1781 -0.5825
  662MOL0     C91286  10.601   7.846   9.320  0.2731  0.6652  0.8094
  662MOL0     H91287  10.232   7.479   9.336  1.1828  0.5066 -0.3947
  662MOL0     H91288   9.983   7.440   9.283 -0.0430  0.0415 -2.1931
  662MOL0     H91289   9.746   7.774   9.219  1.0177  0.5766 -2.4539
  662MOL0     H91290   9.625   7.644   9.226 -0.4102  1.7086 -1.4678
  662MOL0     H91291   9.599   7.731   9.006  0.4352  0.9114  0.7987
  662MOL0     H91292   9.773   7.751   8.985  2.4153  1.4233  5.2122
  662MOL0     H91293   9.707   7.551   8.853  1.6847 -1.6960 -0.1865
  662MOL0     H91294   9.785   7.491   8.982 -0.6188 -3.4349 -3.9691
  662MOL0     H91295   9.547   7.459   9.102  1.5040  2.4435 -0.0387
  662MOL0     H91296   9.488   7.477   8.939  0.8146  4.1122  0.6273
  662MOL0     H91297   9.688   7.278   9.048 -0.1065 -1.3590 -0.2289
  662MOL0     H91298   9.654   7.298   8.876  1.0407 -0.7988  1.0967
  662MOL0     H91299   9.437   7.225   8.898  2.0314  0.2918 -1.0974
  662MOL0     H91300   9.543   7.106   8.961 -0.9951 -0.8567  1.0041
  662MOL0     H91301   9.356   7.298   9.107 -4.3544 -2.5546  0.8653
  662MOL0     H91302   9.470   7.217   9.211 -2.8482  0.1654  0.5365
  662MOL0     H91303   9.269   7.066   9.039  1.1287 -0.6653 -1.0457
  662MOL0     H91304   9.381   6.998   9.156 -2.8580 -0.1550  4.2557
  662MOL0     H91305   9.362   7.146   9.431  1.2946 -0.2432 -1.8099
  662MOL0     H91306   9.133   7.085   9.648  0.8590 -0.0144 -0.1122
  662MOL0     H91307   9.003   7.194   9.613  1.7859 -0.1901  2.0876
  662MOL0     H91308   9.294   7.242   9.661  0.9510  1.4727 -2.3757
  662MOL0     H91309   9.214   7.352   9.552 -0.7105 -1.4573 -1.3135
  662MOL0     H91310   9.221   7.419   9.809 -0.5195  0.2779  0.9673
  662MOL0     H91311   9.051   7.413   9.745 -0.3219  1.8015 -1.4089
  662MOL0     H91312   9.085   7.300   9.980  0.8261 -0.4396  1.2805
  662MOL0     H91313   9.056   7.170   9.872  1.9104 -1.8787 -0.5700
  662MOL0     H91314   9.461   7.033   9.908 -0.1412  1.5355  1.6901
  662MOL0     H91315   9.594   6.800   9.979  2.8706 -1.3148  0.4338
  662MOL0     H91316   9.584   6.769  10.134  0.0897 -1.4304 -1.6174
  662MOL0     H91317   9.663   6.932  10.076 -0.8907  1.0532 -0.1910
  662MOL0     H91318   9.526   6.484  10.204 -1.8261  1.1655 -0.7535
  662MOL0     H91319   9.579   6.291  10.349  0.1450  0.2630  1.0760
  662MOL0     H91320   9.695   6.261  10.561 -0.6260 -0.2243 -0.5567
  662MOL0     H91321   9.640   6.180  10.712 -3.1548  1.4123  1.3274
  662MOL0     H91322   9.531   6.060  10.463 -2.4968 -0.5565  2.6714
  662MOL0     H91323   9.705   6.036  10.500  0.8101  3.3496 -0.3962
  662MOL0     H91324   9.505   5.998  10.704  1.6094  0.6241  2.3502
  662MOL0     H91325   9.682   5.975  10.716  1.2140  0.6423 -1.6875
  662MOL0     H91326   9.586   5.748  10.688  2.8175  0.0604 -0.3703
  662MOL0     H91327   9.662   5.789  10.538  1.4650  4.5929 -1.8314
  662MOL0     H91328   9.352   5.816  10.566  0.9856 -1.4018  2.2670
  662MOL0     H91329   9.452   5.836  10.424 -1.1222 -3.8877 -3.0140
  662MOL0     H91330   9.520   5.595  10.434  0.6417 -4.3275  3.7627
  662MOL0     H91331   9.347   5.610  10.416 -0.4598  1.6124  0.1391
  662MOL0     H91332   9.345   5.585  10.660  0.8629  2.4464 -1.8449
  662MOL0     H91333   9.522   5.547  10.655  0.1966  2.6115 -2.7999
  662MOL0     H91334   9.299   5.379  10.544  0.1779  0.4854 -0.4890
  662MOL0     H91335   9.430   5.323  10.659  1.4249  1.6545  0.5043
  662MOL0     H91336   9.327   6.461  10.661 -0.5187  1.4357  0.2940
  662MOL0     H91337   9.266   6.634  10.519 -0.4404 -1.4074  1.5974
  662MOL0     H91338   9.194   6.949  10.296  0.9177 -3.0418 -0.0535
  662MOL0     H91339   9.096   7.119  10.128 -1.3258 -0.7057 -1.9548
  662MOL0     H91340   9.949   7.829   9.138 -1.0290  0.5040  2.4140
  662MOL0     H91341  10.193   7.872   9.195 -1.8405  1.1387 -0.7430
  662MOL0     H91342  10.560   7.560   8.932  2.0258 -1.5532 -1.0275
  662MOL0     H91343  10.807   7.551   8.895  0.2989  0.7222 -1.3680
  662MOL0     H91344  11.050   7.509   8.952 -2.7697 -2.3783  0.5387
  662MOL0     H91345  11.161   7.568   9.083 -0.2794 -3.0950  1.8862
  662MOL0     H91346  11.081   7.343   9.104  1.0111 -0.3979 -0.1217
  662MOL0     H91347  10.919   7.390   9.124  1.1546 -3.4576 -0.5326
  662MOL0     H91348  11.148   7.481   9.309 -0.3303 -1.6732  2.3870
  662MOL0     H91349  11.002   7.573   9.309  0.7116  0.2238 -0.9874
  662MOL0     H91350  10.906   7.418   9.453  0.3383  0.9554 -0.0911
  662MOL0     H91351  11.062   7.347   9.472  0.1783 -1.0626 -1.2259
  662MOL0     H91352  10.868   7.023   9.291 -3.9439  0.0767  2.1303
  662MOL0     H91353  10.856   7.778   9.259  1.1687  1.9869 -2.8525
  662MOL0     H91354  10.679   7.915   9.352  2.5891 -0.1827 -2.4215
  662MOL0     H91355  10.519   7.908   9.283  0.9712  0.8931 -0.4384
  662MOL0     H91356  10.572   7.791   9.410 -3.6569  0.5635 -0.3614
  663MOL0     O91357   5.979   3.027   2.873 -0.0882  0.0782 -0.7097
  663MOL0     C91358   6.024   2.916   2.864 -0.9030  0.2994 -0.2898
  663MOL0     O91359   6.108   2.867   2.770 -0.1168 -0.7779 -1.2656
  663MOL0     C91360   6.172   2.958   2.705  0.0530 -0.1248 -0.5955
  663MOL0     C91361   6.103   3.035   2.604 -0.1355 -0.6360  0.1603
  663MOL0     C91362   6.180   3.112   2.508  0.2239  0.7709  0.2875
  663MOL0     C91363   6.321   3.104   2.504  0.0011 -0.0058 -0.1124
  663MOL0     O91364   6.394   3.177   2.416 -1.2491 -0.3564 -0.8417
  663MOL0     C91365   6.367   3.321   2.426  0.4324  0.4219 -0.5375
  663MOL0     C91366   6.480   3.399   2.367 -0.0951  0.2982  0.6633
  663MOL0     C91367   6.448   3.542   2.376 -0.1236  0.9342  0.1467
  663MOL0     C91368   6.449   3.604   2.522 -0.1023 -0.0919 -0.5456
  663MOL0     C91369   6.369   3.731   2.521 -0.4381 -0.1520  0.3626
  663MOL0     C91370   6.221   3.699   2.529  0.1241  0.1464 -0.2118
  663MOL0     C91371   6.137   3.823   2.571  0.0765 -0.5952 -0.7919
  663MOL0     C91372   6.160   3.857   2.724  0.7851 -0.2197  0.7407
  663MOL0     N91373   6.139   3.746   2.822 -0.4809  0.0749  1.2054
  663MOL0     C91374   6.067   3.629   2.811  0.3255 -0.4215 -0.1391
  663MOL0     C91375   6.153   3.538   2.861 -0.4623  0.8215  0.2538
  663MOL0     C91376   6.118   3.385   2.879  0.5218  0.3451  0.3209
  663MOL0     C91377   6.073   3.355   3.025 -0.8113  0.4101 -0.9232
  663MOL0     C91378   5.932   3.406   3.052  0.7642  0.7340  0.3376
  663MOL0     C91379   5.825   3.363   2.957 -0.5032 -0.2344 -0.0951
  663MOL0     O91380   5.699   3.382   3.024 -0.5956  0.1861 -0.1399
  663MOL0     C91381   5.577   3.387   2.962  0.8618 -0.1546  0.9538
  663MOL0     C91382   5.565   3.380   2.825 -0.8743  0.0055  0.1435
  663MOL0     C91383   5.438   3.403   2.761 -0.2212 -0.0320  0.1516
  663MOL0     C91384   5.419   3.425   2.608 -0.4595 -0.3275 -0.0027
  663MOL0     C91385   5.319   3.419   2.839 -0.5237 -0.4049 -0.5014
  663MOL0     C91386   5.176   3.418   2.804  0.3124  0.2442  0.3489
  663MOL0     O91387   5.080   3.388   2.901 -0.5229 -0.2148  0.5395
  663MOL0     C91388   4.952   3.399   2.862 -0.2546 -0.3554  0.5121
  663MOL0     C91389   4.891   3.516   2.818 -0.1135 -0.3834 -0.3462
  663MOL0     C91390   4.753   3.506   2.807 -0.0489  0.3053 -0.4908
  663MOL0     C91391   4.681   3.391   2.816  0.1110  0.4910  0.3205
  663MOL0     O91392   4.541   3.399   2.806 -0.4420  0.2110  0.3844
  663MOL0     C91393   4.483   3.525   2.770  1.5038  0.3867 -0.1094
  663MOL0     C91394   4.332   3.505   2.767  0.5779  0.0520  0.1994
  663MOL0     C91395   4.293   3.448   2.628 -0.3634 -0.0366 -0.7664
  663MOL0     C91396   4.144   3.440   2.628  0.8953 -0.1079  0.9750
  663MOL0     C91397   4.099   3.403   2.487  0.4336 -0.4259 -0.3067
  663MOL0     C91398   4.143   3.262   2.451  0.6080 -0.0464 -1.1621
  663MOL0     C91399   4.062   3.202   2.335  0.8650 -0.4506 -0.5279
  663MOL0     C91400   3.924   3.151   2.391 -0.3244 -0.1584  1.1892
  663MOL0    Cl91401   3.826   3.095   2.243  0.0025  0.1432 -0.9481
  663MOL0     C91402   4.751   3.270   2.843  0.7469 -0.1121 -0.2139
  663MOL0     C91403   4.882   3.279   2.874 -0.2104 -0.0363  0.0925
  663MOL0     O91404   5.142   3.438   2.687  1.1164  0.0869  0.1079
  663MOL0     C91405   5.338   3.421   2.977 -0.2116  0.5140  0.2262
  663MOL0     C91406   5.466   3.408   3.036  0.5636  0.9931 -0.9087
  663MOL0     N91407   6.246   3.610   2.921  0.2031 -0.1874 -1.3093
  663MOL0     N91408   6.245   3.732   2.897 -0.2323 -0.2324 -0.0627
  663MOL0     C91409   6.378   3.024   2.604  0.1255 -0.1594  0.8495
  663MOL0     C91410   6.312   2.953   2.703  0.0239 -0.2317  0.6585
  663MOL0     C91411   5.985   2.806   2.963 -0.2875  0.1352 -0.3963
  663MOL0     C91412   6.039   2.684   2.951 -0.2717  0.4081  0.0906
  663MOL0     C91413   6.027   2.582   3.046 -0.0461 -0.6865 -0.1185
  663MOL0     C91414   5.929   2.595   3.144 -0.1025 -0.2036  0.6178
  663MOL0     O91415   5.924   2.507   3.250 -0.2773  0.1610  0.4150
  663MOL0     C91416   6.001   2.554   3.367 -0.1431  0.4659 -0.9098
  663MOL0     C91417   5.915   2.516   3.491 -0.0430 -0.3019  0.3238
  663MOL0     C91418   5.803   2.615   3.526 -0.0407  0.1151  0.7465
  663MOL0     C91419   5.716   2.551   3.632 -0.3079 -0.6854 -0.4165
  663MOL0     C91420   5.589   2.618   3.640  0.6808  0.3410 -0.3484
  663MOL0     C91421   5.494   2.687   3.657 -0.1469  0.5147  0.6127
  663MOL0     C91422   5.846   2.713   3.143  0.8395 -0.1622  0.3897
  663MOL0     C91423   5.886   2.817   3.065 -0.8197 -0.8306 -0.7058
  663MOL0     C91424   5.815   2.949   3.097 -0.3317 -0.7662 -0.3834
  663MOL0     H91425   5.995   3.036   2.600 -0.0945 -0.5091 -2.4419
  663MOL0     H91426   6.117   3.177   2.447  1.0189  1.0473 -0.2578
  663MOL0     H91427   6.348   3.345   2.531  2.6155 -1.4350  0.3773
  663MOL0     H91428   6.279   3.348   2.368  0.4438  1.4809 -0.0870
  663MOL0     H91429   6.571   3.389   2.427  3.8081  0.9977 -4.4347
  663MOL0     H91430   6.492   3.378   2.260 -0.9944 -0.9108  0.7731
  663MOL0     H91431   6.521   3.603   2.322  2.3210 -2.2670 -0.4534
  663MOL0     H91432   6.350   3.555   2.331  0.0751  2.2264  0.0466
  663MOL0     H91433   6.422   3.534   2.601  3.8061 -2.3596 -0.9391
  663MOL0     H91434   6.549   3.639   2.549  0.2712 -2.2805  1.1873
  663MOL0     H91435   6.392   3.788   2.430  1.6321 -0.1784  0.8283
  663MOL0     H91436   6.405   3.790   2.606  1.7216 -0.9157  0.0545
  663MOL0     H91437   6.198   3.693   2.422 -0.8083  3.3815 -0.3247
  663MOL0     H91438   6.189   3.613   2.587  0.7503 -0.7538 -1.1606
  663MOL0     H91439   6.031   3.807   2.552 -0.2993  0.7822 -0.0051
  663MOL0     H91440   6.159   3.911   2.511  0.8581 -1.9544 -2.5942
  663MOL0     H91441   6.257   3.904   2.744  0.2736  1.0262  0.3760
  663MOL0     H91442   6.086   3.931   2.754  2.2953  0.8061  2.1065
  663MOL0     H91443   5.977   3.614   2.752  0.9503 -1.0610 -0.9543
  663MOL0     H91444   6.207   3.323   2.863 -1.2654 -2.7786  1.7057
  663MOL0     H91445   6.038   3.338   2.821 -0.5524 -2.0356  3.4935
  663MOL0     H91446   6.069   3.246   3.030  2.9825  0.1522  0.1517
  663MOL0     H91447   6.143   3.389   3.102 -0.3361 -1.1020 -0.6592
  663MOL0     H91448   5.891   3.370   3.147  0.6728  0.5237  0.2197
  663MOL0     H91449   5.929   3.515   3.058 -4.6548  0.8829 -0.3345
  663MOL0     H91450   5.814   3.428   2.869  1.9295  1.3442  0.6779
  663MOL0     H91451   5.848   3.261   2.926  2.2314  0.1039  0.6036
  663MOL0     H91452   5.648   3.363   2.757 -0.3106  0.6051  0.6561
  663MOL0     H91453   5.372   3.338   2.561  1.2938 -1.3258  0.0278
  663MOL0     H91454   5.515   3.441   2.559 -0.9996 -1.2081 -1.4126
  663MOL0     H91455   5.358   3.508   2.569  3.2174  0.8937 -3.7884
  663MOL0     H91456   4.941   3.605   2.781 -0.9352  0.6061  0.8375
  663MOL0     H91457   4.706   3.599   2.775  0.7396  0.6104 -0.7793
  663MOL0     H91458   4.498   3.603   2.845  0.6148 -0.6333  1.1794
  663MOL0     H91459   4.518   3.563   2.673  1.5780  0.7076  0.0410
  663MOL0     H91460   4.288   3.453   2.852 -0.5872  2.4878  1.2012
  663MOL0     H91461   4.290   3.606   2.769  2.0413  0.8037 -2.3953
  663MOL0     H91462   4.341   3.350   2.626 -2.6955 -1.2580 -0.9213
  663MOL0     H91463   4.341   3.514   2.555  0.3881  1.4004  0.9381
  663MOL0     H91464   4.092   3.528   2.667  0.9467 -0.7627  2.5911
  663MOL0     H91465   4.107   3.365   2.698  0.6226  0.2271  1.1962
  663MOL0     H91466   3.991   3.403   2.504  0.5868  0.5067  0.8607
  663MOL0     H91467   4.127   3.468   2.404  1.3196 -1.6219 -0.9800
  663MOL0     H91468   4.139   3.198   2.539 -3.0350  2.4544  0.7506
  663MOL0     H91469   4.245   3.261   2.412 -0.1579 -1.3051 -3.3446
  663MOL0     H91470   4.126   3.120   2.302  2.9798 -0.1824  2.4472
  663MOL0     H91471   4.057   3.284   2.263 -4.5334  1.2759  1.3253
  663MOL0     H91472   3.865   3.227   2.445 -3.6684 -2.7843  1.5803
  663MOL0     H91473   3.943   3.066   2.458 -2.2533 -1.5196  0.1147
  663MOL0     H91474   4.690   3.180   2.854  0.0547  0.5951  2.4417
  663MOL0     H91475   4.935   3.189   2.902  1.2784  1.3989  2.2116
  663MOL0     H91476   5.258   3.422   3.051 -1.9140  1.7164 -1.5467
  663MOL0     H91477   5.485   3.413   3.143 -0.7797 -1.9890 -0.4276
  663MOL0     H91478   6.485   3.006   2.597  0.1106  0.0526 -0.1204
  663MOL0     H91479   6.357   2.894   2.783  0.6137  1.4704  1.6245
  663MOL0     H91480   6.118   2.660   2.881 -2.2586 -0.9487 -1.8353
  663MOL0     H91481   6.085   2.491   3.042  0.2081 -0.4806 -1.1304
  663MOL0     H91482   6.090   2.492   3.376 -0.0397  0.8404  1.0724
  663MOL0     H91483   6.022   2.661   3.359 -0.9825  0.5239 -3.1681
  663MOL0     H91484   5.977   2.496   3.579 -0.1452 -0.4194  0.3688
  663MOL0     H91485   5.873   2.417   3.472  0.6902 -0.8071  1.2855
  663MOL0     H91486   5.848   2.707   3.566 -0.7287  0.7140  0.1516
  663MOL0     H91487   5.735   2.624   3.441  0.3568 -0.6710  0.3346
  663MOL0     H91488   5.768   2.574   3.726  0.3318 -0.6541 -0.7744
  663MOL0     H91489   5.709   2.442   3.622 -0.0493 -0.6448 -1.0290
  663MOL0     H91490   5.410   2.747   3.680  0.6744  1.3435  1.5257
  663MOL0     H91491   5.765   2.718   3.215  0.4196  0.1559 -0.1048
  663MOL0     H91492   5.726   2.929   3.157 -0.1299 -1.6014 -0.3493
  663MOL0     H91493   5.872   3.017   3.161 -2.7621  1.9434 -0.9424
  663MOL0     H91494   5.771   3.013   3.021 -0.3507  1.0809  1.1318
  664MOL0     O91495  11.188   2.854  10.065 -0.7659  0.7256 -0.1697
  664MOL0     C91496  11.083   2.918  10.047 -0.2194  0.6736  1.3050
  664MOL0     O91497  11.071   3.021   9.950  0.4823  0.0507 -0.7619
  664MOL0     C91498  11.185   3.079   9.900  0.2614 -0.0746  0.0692
  664MOL0     C91499  11.255   3.034   9.787 -0.1578  0.3205  0.3133
  664MOL0     C91500  11.358   3.117   9.746  0.5000  0.6322  0.0724
  664MOL0     C91501  11.390   3.243   9.800  0.7866 -0.2198  0.8447
  664MOL0     O91502  11.477   3.335   9.759 -0.3522 -0.6782  0.1661
  664MOL0     C91503  11.602   3.285   9.706 -0.1116  1.1525  0.5173
  664MOL0     C91504  11.702   3.403   9.692 -1.1138 -0.1483 -0.2493
  664MOL0     C91505  11.766   3.451   9.827  0.1108 -1.3156 -0.0950
  664MOL0     C91506  11.886   3.541   9.815 -0.0907 -0.2421  0.0999
  664MOL0     C91507  11.917   3.632   9.933  0.2124 -0.9656  0.4769
  664MOL0     C91508  11.943   3.558  10.058 -0.3051 -0.2889  0.1222
  664MOL0     C91509  12.079   3.482  10.071  0.5128  0.9110 -0.5066
  664MOL0     C91510  12.078   3.408  10.205 -0.3229 -0.2030  0.8616
  664MOL0     N91511  12.198   3.331  10.232 -0.4958  0.1014 -0.0413
  664MOL0     C91512  12.208   3.261  10.353 -0.1269 -0.6343  0.4461
  664MOL0     C91513  12.336   3.221  10.361 -0.3688  0.4676  0.3704
  664MOL0     C91514  12.405   3.137  10.465  0.0035  0.2290 -0.7811
  664MOL0     C91515  12.464   3.004  10.421 -0.0730  0.1629 -0.1193
  664MOL0     C91516  12.362   2.898  10.396  0.5947  0.1347  0.3191
  664MOL0     C91517  12.425   2.769  10.359 -0.6789 -0.2818  0.3939
  664MOL0     O91518  12.502   2.734  10.473 -0.3847  0.0804 -0.1679
  664MOL0     C91519  12.637   2.700  10.470  1.1332  0.2069 -0.8387
  664MOL0     C91520  12.730   2.740  10.370  0.6091  0.1308  0.2756
  664MOL0     C91521  12.862   2.697  10.378 -0.0028  0.2103  0.0195
  664MOL0     C91522  12.941   2.741  10.262 -0.9887 -0.2107  0.3390
  664MOL0     C91523  12.906   2.629  10.498 -0.7735  0.2963 -0.5700
  664MOL0     C91524  13.046   2.561  10.507  0.2852  0.0232 -1.4153
  664MOL0     O91525  13.065   2.489  10.621 -0.2254 -0.9172 -0.0364
  664MOL0     C91526  13.175   2.411  10.644 -0.0348  0.0832  0.0402
  664MOL0     C91527  13.305   2.452  10.638  0.7088 -0.4219  0.7475
  664MOL0     C91528  13.409   2.380  10.693  0.8061 -0.1057  0.6826
  664MOL0     C91529  13.382   2.251  10.745  0.4994 -0.1593  0.3212
  664MOL0     O91530  13.503   2.194  10.794 -0.1967  0.7376 -0.8558
  664MOL0     C91531  13.501   2.065  10.861  1.3005 -0.1783  0.1295
  664MOL0     C91532  13.642   2.011  10.869  0.3390 -0.2237 -0.7881
  664MOL0     C91533  13.629   1.865  10.838 -1.0571  0.1124 -0.4410
  664MOL0     C91534  13.746   1.789  10.895 -0.2717 -0.9355  0.1004
  664MOL0     C91535  13.766   1.652  10.829 -0.3141 -0.3382 -0.2080
  664MOL0     C91536  13.674   1.539  10.847  1.7174  0.1464  0.4767
  664MOL0     C91537  13.708   1.416  10.753  0.3122 -0.3142  0.0002
  664MOL0     C91538  13.614   1.310  10.800  1.0129  1.3882  0.0554
  664MOL0    Cl91539  13.625   1.185  10.678  0.2091  0.4290  0.2444
  664MOL0     C91540  13.250   2.198  10.746  0.4332 -0.3487 -0.2598
  664MOL0     C91541  13.149   2.281  10.690 -0.5460 -0.6709  0.0016
  664MOL0     O91542  13.135   2.589  10.426  0.1283  0.1148 -0.2430
  664MOL0     C91543  12.815   2.609  10.604 -0.2087 -0.5691 -0.9943
  664MOL0     C91544  12.683   2.636  10.584  0.0898  0.6921 -0.6599
  664MOL0     N91545  12.409   3.284  10.259  0.4396  0.1799 -0.4298
  664MOL0     N91546  12.326   3.340  10.174  0.0270  0.3341  0.5306
  664MOL0     C91547  11.308   3.284   9.902 -0.3196 -0.5340 -0.6163
  664MOL0     C91548  11.214   3.206   9.964 -0.0931 -0.0611  0.0005
  664MOL0     C91549  10.974   2.894  10.152  0.0825 -0.6107  0.5044
  664MOL0     C91550  10.910   3.009  10.203 -0.7528  0.1624 -0.3411
  664MOL0     C91551  10.804   3.000  10.293  0.6141  0.7933 -1.4799
  664MOL0     C91552  10.773   2.877  10.349 -0.6887 -0.2847  0.2340
  664MOL0     O91553  10.689   2.888  10.456 -0.8140 -0.0619  1.3688
  664MOL0     C91554  10.685   2.774  10.538 -0.3180 -0.0302 -0.4333
  664MOL0     C91555  10.797   2.784  10.642 -0.4811 -0.3694  1.0647
  664MOL0     C91556  10.798   2.906  10.732 -0.4272 -1.0813  0.0620
  664MOL0     C91557  10.933   2.927  10.808  0.5247  1.0843  0.1204
  664MOL0     C91558  11.047   2.959  10.720 -1.0101  0.3205 -0.1108
  664MOL0     C91559  11.139   2.969  10.643  0.2224 -0.4145 -0.6885
  664MOL0     C91560  10.827   2.761  10.290 -0.1245  0.4964  0.5840
  664MOL0     C91561  10.932   2.768  10.198  0.9090 -0.7453 -0.2878
  664MOL0     C91562  10.988   2.648  10.139  0.1586  0.8696  0.6289
  664MOL0     H91563  11.229   2.940   9.741 -3.4068  1.3161 -0.1235
  664MOL0     H91564  11.416   3.077   9.664 -3.2185  0.6335 -2.8297
  664MOL0     H91565  11.569   3.240   9.611 -3.6092  0.4024  1.9211
  664MOL0     H91566  11.639   3.194   9.753 -0.7249 -0.6055 -2.1571
  664MOL0     H91567  11.786   3.361   9.636 -3.4324 -1.8773 -2.6549
  664MOL0     H91568  11.673   3.495   9.640  0.3056  0.3644 -0.1805
  664MOL0     H91569  11.697   3.509   9.890  2.5038  1.0590  0.5339
  664MOL0     H91570  11.812   3.366   9.877 -2.4823 -0.9428  3.2826
  664MOL0     H91571  11.974   3.478   9.803  1.4430  1.5144  1.4931
  664MOL0     H91572  11.867   3.608   9.731  2.7208  0.4995 -0.0615
  664MOL0     H91573  11.833   3.701   9.943  1.3665  1.1559 -2.7912
  664MOL0     H91574  12.004   3.695   9.909  0.8232 -1.9208  0.1343
  664MOL0     H91575  11.944   3.627  10.143  0.1003  0.1407 -0.2216
  664MOL0     H91576  11.870   3.478  10.068  2.7113 -3.4732 -1.2207
  664MOL0     H91577  12.164   3.552  10.070  0.0258  1.5277  0.1350
  664MOL0     H91578  12.097   3.420   9.983 -0.3430  0.0845 -0.1098
  664MOL0     H91579  12.050   3.467  10.292 -0.2713  0.5926  0.3445
  664MOL0     H91580  12.004   3.328  10.191  1.7967 -2.2723  0.7321
  664MOL0     H91581  12.133   3.228  10.425  1.0248 -1.8779  1.1228
  664MOL0     H91582  12.346   3.121  10.556  4.2962  0.7047  2.4030
  664MOL0     H91583  12.482   3.206  10.498  1.5600 -1.1688 -1.3409
  664MOL0     H91584  12.524   3.021  10.331 -0.0346 -1.9714 -0.5419
  664MOL0     H91585  12.538   2.978  10.498  0.8530 -0.2400 -1.1195
  664MOL0     H91586  12.304   2.890  10.488  1.4853 -0.1982  0.8659
  664MOL0     H91587  12.304   2.937  10.312  0.0940 -0.5283  0.3525
  664MOL0     H91588  12.341   2.702  10.336 -1.5567  1.3167 -1.3589
  664MOL0     H91589  12.486   2.772  10.268  1.2432  1.1229  1.6608
  664MOL0     H91590  12.690   2.796  10.287 -2.2507 -0.5267  1.0871
  664MOL0     H91591  13.037   2.775  10.301 -1.4166 -2.0526  3.3393
  664MOL0     H91592  12.895   2.823  10.206  2.6468  1.2852 -0.7916
  664MOL0     H91593  12.956   2.661  10.188  2.0516 -0.4184  1.0344
  664MOL0     H91594  13.316   2.552  10.597 -0.5519  0.0095  1.4180
  664MOL0     H91595  13.505   2.429  10.686 -0.0692  1.6647  0.4440
  664MOL0     H91596  13.446   2.063  10.956 -2.2485 -1.7767 -1.7801
  664MOL0     H91597  13.440   2.006  10.792  0.5879 -0.8026  1.2610
  664MOL0     H91598  13.705   2.055  10.791  3.8341 -1.5386  1.0380
  664MOL0     H91599  13.681   2.022  10.970 -1.3200 -0.9671 -0.0336
  664MOL0     H91600  13.618   1.855  10.729 -2.8191  0.0039 -0.2950
  664MOL0     H91601  13.538   1.817  10.875  2.0565 -4.7685  1.9411
  664MOL0     H91602  13.730   1.774  11.003  4.4085  3.0639  1.6921
  664MOL0     H91603  13.840   1.837  10.869 -3.0040  2.8429 -4.4236
  664MOL0     H91604  13.764   1.679  10.723  0.3230  2.8689  0.4847
  664MOL0     H91605  13.863   1.620  10.867 -0.7732  0.3796  1.6599
  664MOL0     H91606  13.575   1.579  10.821  2.6429  1.7104 -0.8767
  664MOL0     H91607  13.676   1.519  10.954  3.3930  0.4124  0.5222
  664MOL0     H91608  13.814   1.393  10.769  0.0847 -1.3164  0.1350
  664MOL0     H91609  13.691   1.451  10.651  0.5608  4.2685  1.3355
  664MOL0     H91610  13.511   1.345  10.807  0.6963  0.5489 -0.2615
  664MOL0     H91611  13.652   1.269  10.894 -0.1725 -3.6704 -1.3701
  664MOL0     H91612  13.224   2.102  10.791  1.1957 -0.8777 -0.9052
  664MOL0     H91613  13.047   2.245  10.691 -0.9814  0.5247 -0.5096
  664MOL0     H91614  12.838   2.557  10.696 -2.7574  1.4753  0.9696
  664MOL0     H91615  12.611   2.615  10.663 -0.6008  4.1607 -0.2155
  664MOL0     H91616  11.326   3.385   9.938  2.2594 -2.0325  3.0191
  664MOL0     H91617  11.157   3.262  10.038  1.8701 -0.4989  1.9449
  664MOL0     H91618  10.943   3.110  10.183  0.7766 -0.2702 -0.0975
  664MOL0     H91619  10.755   3.091  10.326 -1.6408 -0.6085 -0.7497
  664MOL0     H91620  10.589   2.774  10.590 -0.2952  2.5958 -0.2772
  664MOL0     H91621  10.689   2.680  10.482  1.5952 -0.1936 -0.0969
  664MOL0     H91622  10.893   2.784  10.591 -0.2866 -2.9101  1.3060
  664MOL0     H91623  10.811   2.698  10.709 -0.2718  0.3469  1.9647
  664MOL0     H91624  10.796   2.996  10.669  1.5908 -1.1236 -0.1268
  664MOL0     H91625  10.716   2.912  10.803  0.5233 -0.9369  1.1712
  664MOL0     H91626  10.963   2.839  10.864  3.7463  2.1766  0.3105
  664MOL0     H91627  10.926   3.012  10.877  0.7141  1.3109 -0.1341
  664MOL0     H91628  11.218   2.985  10.573  2.1863  1.0587  1.6788
  664MOL0     H91629  10.809   2.657  10.313 -0.1037  0.4600  0.4406
  664MOL0     H91630  10.932   2.557  10.163  0.0618  0.8766  0.4334
  664MOL0     H91631  11.001   2.649  10.030  1.3706 -1.7931  0.6562
  664MOL0     H91632  11.086   2.633  10.186  0.6905 -0.2756 -0.7609
  665MOL0     O91633   9.424  10.725  11.275  0.1609  0.0329 -0.0806
  665MOL0     C91634   9.319  10.771  11.326 -0.3504 -0.4574 -0.8031
  665MOL0     O91635   9.312  10.863  11.420 -0.5469  0.3479  0.2736
  665MOL0     C91636   9.417  10.882  11.503  0.1799  0.3486  1.0854
  665MOL0     C91637   9.486  10.999  11.500 -0.8760 -0.1294  0.7365
  665MOL0     C91638   9.607  11.015  11.568  0.1958 -0.6825  0.7544
  665MOL0     C91639   9.669  10.913  11.638  0.1547 -0.5116  0.1040
  665MOL0     O91640   9.784  10.927  11.702  0.0089  1.0036 -0.0160
  665MOL0     C91641   9.865  10.806  11.712  0.6500 -0.1532 -0.2070
  665MOL0     C91642  10.002  10.856  11.761 -0.2866 -0.1831  0.0724
  665MOL0     C91643  10.098  10.884  11.645  0.0918  0.3632  0.9753
  665MOL0     C91644  10.249  10.902  11.687  0.1485 -0.1396 -0.9460
  665MOL0     C91645  10.353  10.889  11.573  0.3404 -0.4595  0.2692
  665MOL0     C91646  10.299  10.954  11.440  0.0476  0.8660  0.3175
  665MOL0     C91647  10.409  10.995  11.331  0.6098  0.0705  0.4737
  665MOL0     C91648  10.339  11.039  11.197  0.1985 -0.2805 -0.8560
  665MOL0     N91649  10.405  11.141  11.115  0.4033  0.7993 -0.3569
  665MOL0     C91650  10.405  11.270  11.141 -0.3920  0.1392 -0.0432
  665MOL0     C91651  10.488  11.329  11.043  0.5835 -0.1720 -0.9479
  665MOL0     C91652  10.523  11.476  11.030  0.0553 -0.1519 -0.6781
  665MOL0     C91653  10.620  11.496  10.910 -0.5520 -0.2945  1.0043
  665MOL0     C91654  10.763  11.428  10.913 -0.0319 -0.1336  0.3277
  665MOL0     C91655  10.868  11.499  10.825  0.5611 -0.9580  0.3630
  665MOL0     O91656  10.979  11.415  10.786 -0.2683  0.2589 -0.5987
  665MOL0     C91657  11.043  11.440  10.664  0.0502  0.0260  0.3585
  665MOL0     C91658  11.034  11.558  10.594  0.3093 -0.1836  0.9141
  665MOL0     C91659  11.113  11.582  10.478 -0.3956 -0.5505 -0.0870
  665MOL0     C91660  11.091  11.712  10.420 -1.4023 -0.3645 -0.0520
  665MOL0     C91661  11.192  11.484  10.429  0.2300  0.4828  0.3852
  665MOL0     C91662  11.275  11.500  10.307  0.8938 -0.0640  0.1068
  665MOL0     O91663  11.325  11.619  10.280  0.9834  0.2403 -0.3423
  665MOL0     C91664  11.394  11.662  10.169  0.4557  0.0772 -0.2042
  665MOL0     C91665  11.351  11.776  10.113 -0.3888  0.2629  1.5126
  665MOL0     C91666  11.398  11.813   9.991 -1.1101  0.3412  0.0452
  665MOL0     C91667  11.508  11.742   9.926 -0.4952 -1.1864 -0.8251
  665MOL0     O91668  11.558  11.791   9.806 -0.0190 -0.2300  0.1946
  665MOL0     C91669  11.452  11.839   9.709  0.5395 -0.2438 -0.2043
  665MOL0     C91670  11.443  11.986   9.692  0.0323  0.2059  0.4798
  665MOL0     C91671  11.576  12.052   9.640  0.0208 -0.5279 -0.5550
  665MOL0     C91672  11.597  12.192   9.704 -0.4023 -1.6393 -0.0344
  665MOL0     C91673  11.686  12.293   9.629 -0.3962  0.5274  0.4685
  665MOL0     C91674  11.823  12.247   9.596 -0.2188  0.6495 -0.1224
  665MOL0     C91675  11.912  12.345   9.517 -0.0738 -0.0753 -0.1121
  665MOL0     C91676  12.022  12.287   9.427 -0.0422  0.0854  1.1859
  665MOL0    Cl91677  12.142  12.182   9.500  0.5769  0.1380 -0.2282
  665MOL0     C91678  11.558  11.632   9.995  0.4110  0.0556 -0.1070
  665MOL0     C91679  11.503  11.588  10.112  0.5302 -1.2183 -0.6363
  665MOL0     O91680  11.281  11.398  10.241  0.2690  0.8517 -0.0465
  665MOL0     C91681  11.188  11.356  10.492 -0.0780  0.9518  0.7665
  665MOL0     C91682  11.121  11.340  10.611  0.3011  0.3477  0.3286
  665MOL0     N91683  10.530  11.226  10.964 -0.7390 -0.0736 -0.3121
  665MOL0     N91684  10.477  11.111  11.004  0.9593  0.8334 -0.2780
  665MOL0     C91685   9.595  10.794  11.642  1.0062  1.6231  0.6807
  665MOL0     C91686   9.476  10.773  11.580 -0.7835 -0.7133  1.0723
  665MOL0     C91687   9.186  10.709  11.292 -0.2827 -1.3124 -0.6969
  665MOL0     C91688   9.181  10.573  11.263 -0.0546 -0.1221 -0.7735
  665MOL0     C91689   9.055  10.501  11.254  0.0861  0.7458 -0.0188
  665MOL0     C91690   8.931  10.572  11.272  0.0238  0.1259 -0.6533
  665MOL0     O91691   8.810  10.516  11.283  0.1792  0.3790  0.2849
  665MOL0     C91692   8.805  10.373  11.261 -0.0975  0.4086  0.0463
  665MOL0     C91693   8.806  10.315  11.402  0.3199  1.2830 -0.2857
  665MOL0     C91694   8.940  10.281  11.467 -0.0899  0.3633 -0.0653
  665MOL0     C91695   8.909  10.252  11.608 -0.8083  0.5532  0.6363
  665MOL0     C91696   8.875  10.109  11.632 -0.7809 -0.4463  0.8487
  665MOL0     C91697   8.863   9.994  11.647 -0.7491 -0.6774 -0.3817
  665MOL0     C91698   8.947  10.718  11.292  1.0184 -0.8365  0.3785
  665MOL0     C91699   9.070  10.788  11.288 -0.0163  0.3345 -0.9363
  665MOL0     C91700   9.073  10.950  11.289  0.3797 -0.1278  0.3453
  665MOL0     H91701   9.448  11.077  11.434  0.7032 -0.7660 -1.0020
  665MOL0     H91702   9.646  11.112  11.538  0.8108 -1.0106  0.4860
  665MOL0     H91703   9.868  10.745  11.621  1.6826 -0.6886  0.1669
  665MOL0     H91704   9.828  10.740  11.791 -0.6072 -0.1131 -0.7386
  665MOL0     H91705   9.992  10.950  11.815 -3.5712  1.4849 -3.0405
  665MOL0     H91706  10.048  10.779  11.823  0.5106  2.6801  3.3270
  665MOL0     H91707  10.098  10.799  11.576  1.4507 -0.4627  1.9522
  665MOL0     H91708  10.058  10.976  11.602  1.6446  2.7768  4.2823
  665MOL0     H91709  10.272  10.999  11.732  2.5699 -0.7278 -0.7978
  665MOL0     H91710  10.271  10.834  11.770  1.1159  1.5146  0.2165
  665MOL0     H91711  10.381  10.785  11.555  2.0830  0.2887 -1.7690
  665MOL0     H91712  10.449  10.936  11.597  0.7823 -0.8016 -0.8013
  665MOL0     H91713  10.227  10.887  11.391 -3.2532  2.0076  3.1366
  665MOL0     H91714  10.251  11.052  11.450 -1.1080  0.3174  0.3325
  665MOL0     H91715  10.475  10.909  11.322 -0.0826 -0.8237  2.9991
  665MOL0     H91716  10.464  11.079  11.373 -2.1122  1.1199  2.2160
  665MOL0     H91717  10.330  10.944  11.144  1.3363 -1.5614  1.0833
  665MOL0     H91718  10.235  11.073  11.198 -0.3622 -1.8834  0.7607
  665MOL0     H91719  10.352  11.317  11.222  1.3143 -2.1841  2.6026
  665MOL0     H91720  10.555  11.517  11.126 -1.2668 -0.4224 -0.0950
  665MOL0     H91721  10.431  11.531  11.010 -1.2779 -0.0858  4.2626
  665MOL0     H91722  10.573  11.452  10.822 -0.0530  0.1398  0.5117
  665MOL0     H91723  10.641  11.601  10.888 -0.2769 -0.7652 -1.2018
  665MOL0     H91724  10.796  11.416  11.017 -0.4469 -0.7974  0.3907
  665MOL0     H91725  10.749  11.332  10.863 -1.5495  0.3738 -0.2945
  665MOL0     H91726  10.822  11.537  10.734  0.2714 -0.2334  0.8072
  665MOL0     H91727  10.914  11.582  10.880 -0.1831 -0.7964  0.7466
  665MOL0     H91728  10.966  11.634  10.631 -0.1714 -0.2206  0.1154
  665MOL0     H91729  11.142  11.788  10.481 -3.2150 -0.2414  1.3799
  665MOL0     H91730  10.984  11.733  10.425 -1.3027  0.1350  0.1011
  665MOL0     H91731  11.119  11.727  10.315  0.4622 -2.8282  0.0073
  665MOL0     H91732  11.268  11.829  10.158 -0.5539 -0.0984  1.6287
  665MOL0     H91733  11.359  11.905   9.949  1.2201  1.3899  0.0022
  665MOL0     H91734  11.481  11.808   9.609  2.4066 -0.7364  0.4458
  665MOL0     H91735  11.354  11.799   9.736 -1.4220  1.5042 -3.9772
  665MOL0     H91736  11.367  12.003   9.615 -1.1746 -1.6133  1.2033
  665MOL0     H91737  11.416  12.039   9.784  0.7293  0.0106  0.7970
  665MOL0     H91738  11.584  12.062   9.531  1.8613  0.9707 -0.3368
  665MOL0     H91739  11.661  11.987   9.663  0.0312  0.0471  1.1681
  665MOL0     H91740  11.646  12.185   9.802  0.1980 -0.2595 -0.2192
  665MOL0     H91741  11.507  12.252   9.721  0.3275 -0.5122 -0.0628
  665MOL0     H91742  11.640  12.350   9.548  1.8071  1.6901 -0.0596
  665MOL0     H91743  11.694  12.368   9.708 -0.0882  0.9731  0.0181
  665MOL0     H91744  11.827  12.154   9.539 -0.4410  0.7809 -0.3549
  665MOL0     H91745  11.869  12.237   9.694 -2.3171  2.7980  1.2041
  665MOL0     H91746  11.951  12.423   9.583 -1.6452 -0.8084  1.7902
  665MOL0     H91747  11.853  12.405   9.447  2.9975  1.0993 -1.8525
  665MOL0     H91748  12.062  12.379   9.382 -2.0716  0.5075  0.0903
  665MOL0     H91749  11.981  12.227   9.345  3.0842  1.0746 -1.3377
  665MOL0     H91750  11.648  11.591   9.949  1.1277  0.6041  0.7773
  665MOL0     H91751  11.526  11.492  10.156 -2.5170 -2.6672 -1.9065
  665MOL0     H91752  11.252  11.276  10.458 -3.2183 -1.8474  0.9588
  665MOL0     H91753  11.127  11.245  10.662  0.3956 -0.6806 -1.5288
  665MOL0     H91754   9.628  10.706  11.697  1.1474  1.4319  0.2936
  665MOL0     H91755   9.436  10.672  11.577  3.1449 -2.5623  3.3009
  665MOL0     H91756   9.261  10.500  11.268 -0.1156 -0.3123 -2.1224
  665MOL0     H91757   9.064  10.393  11.245  0.6887  0.4568  2.9727
  665MOL0     H91758   8.708  10.343  11.220 -0.9120  0.5988  1.7758
  665MOL0     H91759   8.886  10.337  11.197  1.5975 -1.4374  3.0366
  665MOL0     H91760   8.745  10.225  11.412  2.3833 -0.1524 -0.0133
  665MOL0     H91761   8.755  10.393  11.458  1.6307  1.8025  0.2338
  665MOL0     H91762   8.987  10.194  11.420  0.6577 -0.6890  2.4899
  665MOL0     H91763   9.012  10.363  11.459  1.4001 -0.3657  3.6961
  665MOL0     H91764   8.823  10.311  11.640 -1.9666  0.4830 -2.0559
  665MOL0     H91765   8.993  10.279  11.673 -2.6139 -0.1616  3.4609
  665MOL0     H91766   8.873   9.891  11.674 -1.8423  0.3449  5.0320
  665MOL0     H91767   8.855  10.774  11.274  0.3356 -1.8994  0.4530
  665MOL0     H91768   9.045  10.986  11.388  0.5703  1.4107 -0.1445
  665MOL0     H91769   9.167  10.992  11.251  0.6537 -2.1572 -1.4150
  665MOL0     H91770   8.992  10.979  11.222 -2.5100 -3.5674  1.9716
  666MOL0     O91771   1.159   4.588   3.272  0.0872 -0.2410 -0.0435
  666MOL0     C91772   1.067   4.660   3.253  0.5810 -0.5242 -0.4179
  666MOL0     O91773   0.972   4.681   3.349 -0.4800  0.3006 -0.2731
  666MOL0     C91774   0.949   4.580   3.444 -0.0809 -0.3184  0.1600
  666MOL0     C91775   1.045   4.544   3.530 -0.0533 -0.3784  0.1731
  666MOL0     C91776   1.018   4.440   3.626 -0.2171 -0.5991  0.1397
  666MOL0     C91777   0.889   4.395   3.645 -0.5161  1.0146 -0.1524
  666MOL0     O91778   0.872   4.323   3.758 -0.3809 -0.0915  0.1133
  666MOL0     C91779   0.753   4.238   3.764  0.0972 -0.7518 -0.4179
  666MOL0     C91780   0.745   4.162   3.898 -0.2491  0.5442 -0.2462
  666MOL0     C91781   0.865   4.070   3.922  0.5120  1.1178  0.5215
  666MOL0     C91782   0.856   3.938   3.842 -0.3122  0.0158 -0.7050
  666MOL0     C91783   0.978   3.853   3.851 -0.5771 -0.9957  0.5614
  666MOL0     C91784   0.947   3.714   3.803  1.0973  0.4864  0.6205
  666MOL0     C91785   1.057   3.606   3.823  0.7592 -0.2258 -0.3577
  666MOL0     C91786   1.185   3.629   3.735 -0.1234  0.0949  0.5971
  666MOL0     N91787   1.295   3.550   3.790  0.0331 -0.4267 -0.5313
  666MOL0     C91788   1.376   3.603   3.880 -1.0314  0.5483  0.5528
  666MOL0     C91789   1.481   3.517   3.879  0.4029 -0.0670 -0.2812
  666MOL0     C91790   1.598   3.516   3.967 -0.4351  0.0273 -0.2955
  666MOL0     C91791   1.726   3.559   3.896 -0.3822 -0.0969 -0.9357
  666MOL0     C91792   1.856   3.517   3.986  0.4629 -1.0209 -0.2640
  666MOL0     C91793   1.977   3.489   3.899  0.8428  0.8636  0.1694
  666MOL0     O91794   1.985   3.614   3.819  0.3840 -1.0545  0.1359
  666MOL0     C91795   2.044   3.720   3.882  0.0841  0.8835  0.4129
  666MOL0     C91796   2.187   3.720   3.904 -0.1298  0.1043  0.6492
  666MOL0     C91797   2.245   3.831   3.965 -0.0559  0.9143  1.2324
  666MOL0     C91798   2.394   3.841   3.979 -0.2596  0.1463  0.5871
  666MOL0     C91799   2.158   3.951   3.995 -0.2729  0.2362  0.4138
  666MOL0     C91800   2.219   4.084   4.049  0.4326 -0.4467  0.5968
  666MOL0     O91801   2.172   4.197   3.997  0.2390  0.4804 -0.3550
  666MOL0     C91802   2.244   4.307   4.039 -0.6635 -0.0135 -0.2353
  666MOL0     C91803   2.312   4.386   3.946  0.3264 -0.3540  0.0904
  666MOL0     C91804   2.373   4.507   3.985  0.2986  0.0109  0.1180
  666MOL0     C91805   2.371   4.552   4.118 -0.4290 -0.2872 -0.4795
  666MOL0     O91806   2.452   4.658   4.153  0.0292 -0.8749 -0.7022
  666MOL0     C91807   2.584   4.619   4.206  0.9433 -1.4186  0.6633
  666MOL0     C91808   2.580   4.567   4.353  0.7486  0.4533  0.0567
  666MOL0     C91809   2.532   4.678   4.446  0.6933  0.1579 -0.4398
  666MOL0     C91810   2.555   4.641   4.597 -0.3768 -0.5220  0.3145
  666MOL0     C91811   2.462   4.517   4.641  0.4551  0.7455 -0.6569
  666MOL0     C91812   2.469   4.483   4.788  0.6003 -0.6762 -0.4791
  666MOL0     C91813   2.402   4.353   4.836 -0.0237 -0.0852  1.1579
  666MOL0     C91814   2.419   4.348   4.986 -0.4816  1.1601  0.0506
  666MOL0    Cl91815   2.356   4.491   5.082  0.3129 -0.3621 -0.0872
  666MOL0     C91816   2.299   4.480   4.209 -0.1023 -0.3149  0.0789
  666MOL0     C91817   2.239   4.358   4.172  0.0208 -0.5599 -0.0012
  666MOL0     O91818   2.299   4.080   4.139  0.5011  0.8893 -0.4121
  666MOL0     C91819   2.025   3.960   3.952  0.1718 -0.1709  0.2529
  666MOL0     C91820   1.971   3.840   3.891 -0.1479 -0.1407 -0.4923
  666MOL0     N91821   1.445   3.406   3.802  0.8643  0.1893 -0.2394
  666MOL0     N91822   1.343   3.436   3.730  1.4859  0.0491  0.3776
  666MOL0     C91823   0.786   4.441   3.557 -1.6095 -0.7199 -0.6403
  666MOL0     C91824   0.822   4.535   3.454  0.1275  1.0972 -0.4153
  666MOL0     C91825   1.070   4.766   3.145 -0.2887  0.4479  0.0170
  666MOL0     C91826   0.948   4.845   3.128 -0.0043  0.5403  0.1002
  666MOL0     C91827   0.940   4.946   3.042 -0.9969  0.4697  0.3046
  666MOL0     C91828   1.054   4.975   2.959 -0.3181 -0.1717  0.7562
  666MOL0     O91829   1.034   5.072   2.859  0.0306 -0.5368 -0.4919
  666MOL0     C91830   0.996   5.194   2.930 -0.5583 -0.9157  0.1276
  666MOL0     C91831   1.009   5.314   2.830 -0.4826 -0.8502 -0.5507
  666MOL0     C91832   1.150   5.360   2.789 -0.6101  0.1014  0.9662
  666MOL0     C91833   1.268   5.359   2.902  1.0096 -0.1133 -0.1065
  666MOL0     C91834   1.394   5.349   2.832  0.4915  0.1339 -1.0599
  666MOL0     C91835   1.505   5.345   2.789  0.7826  1.4231 -0.1218
  666MOL0     C91836   1.168   4.895   2.972  0.3874 -0.4281  0.4537
  666MOL0     C91837   1.178   4.795   3.064 -0.1059 -0.2460  0.0295
  666MOL0     C91838   1.317   4.735   3.078  0.0623  0.7131  0.3328
  666MOL0     H91839   1.136   4.603   3.533 -0.7736  0.7764 -0.2935
  666MOL0     H91840   1.084   4.419   3.709 -2.5788 -0.3313  2.1939
  666MOL0     H91841   0.735   4.166   3.684 -0.4222 -3.7878  2.2394
  666MOL0     H91842   0.672   4.311   3.755 -0.0042 -0.8791 -0.5381
  666MOL0     H91843   0.761   4.233   3.979 -1.4955 -0.1855  0.6709
  666MOL0     H91844   0.647   4.116   3.918 -0.5376  2.3453  3.1741
  666MOL0     H91845   0.960   4.117   3.894  0.7222  0.9687  0.9715
  666MOL0     H91846   0.859   4.044   4.029 -1.4157  2.5036  0.7988
  666MOL0     H91847   0.772   3.888   3.891  1.3363 -0.7524  1.4924
  666MOL0     H91848   0.837   3.956   3.736 -0.3404  0.9290 -0.5545
  666MOL0     H91849   1.017   3.853   3.953 -0.2232 -0.3407  0.4265
  666MOL0     H91850   1.050   3.896   3.782 -1.9864  0.2411 -0.1847
  666MOL0     H91851   0.861   3.669   3.853 -0.5423  1.7293 -0.9395
  666MOL0     H91852   0.929   3.717   3.695 -0.2279  2.6695  0.8464
  666MOL0     H91853   1.011   3.509   3.802  0.1711 -0.5973  2.2945
  666MOL0     H91854   1.088   3.608   3.928 -0.4279  0.0213 -0.0007
  666MOL0     H91855   1.179   3.581   3.636  0.5963 -0.7463  0.9431
  666MOL0     H91856   1.200   3.737   3.733  0.4996  0.0796 -3.2795
  666MOL0     H91857   1.358   3.687   3.946 -0.5576  1.6581 -0.6910
  666MOL0     H91858   1.614   3.417   4.012  1.2326  1.3730  2.3383
  666MOL0     H91859   1.585   3.580   4.055  0.0399 -0.5992  0.2473
  666MOL0     H91860   1.714   3.504   3.803 -4.8140  0.6220 -1.0109
  666MOL0     H91861   1.718   3.664   3.867 -1.2277  0.3057  0.6202
  666MOL0     H91862   1.885   3.600   4.052  1.5779  0.3190 -2.3450
  666MOL0     H91863   1.818   3.432   4.044  0.4252 -0.5851  0.3693
  666MOL0     H91864   2.059   3.476   3.970  2.0759  1.7680 -1.0221
  666MOL0     H91865   1.976   3.411   3.822  1.7130  3.2721 -2.4574
  666MOL0     H91866   2.234   3.622   3.893 -1.2114 -0.3329 -0.3679
  666MOL0     H91867   2.412   3.816   4.084 -1.8539  0.7373  1.0359
  666MOL0     H91868   2.425   3.944   3.959  0.2599 -0.0965  0.1198
  666MOL0     H91869   2.455   3.779   3.912  0.3895  0.8176  0.5484
  666MOL0     H91870   2.300   4.363   3.840 -2.3635  0.3567  0.1624
  666MOL0     H91871   2.430   4.572   3.919 -2.2527  1.9496 -0.3624
  666MOL0     H91872   2.633   4.540   4.148  1.9965  0.0601 -0.5473
  666MOL0     H91873   2.654   4.701   4.188  0.1229  0.0895  3.7306
  666MOL0     H91874   2.509   4.486   4.367  0.3235  1.0338  1.4043
  666MOL0     H91875   2.685   4.540   4.372  1.0247 -0.4634 -2.4157
  666MOL0     H91876   2.425   4.702   4.447  0.3781 -0.4000  4.3287
  666MOL0     H91877   2.597   4.765   4.437 -0.3795  0.9683 -0.6453
  666MOL0     H91878   2.525   4.732   4.650  3.9378  2.1036 -1.2913
  666MOL0     H91879   2.658   4.613   4.621 -0.4347 -1.4147 -0.4411
  666MOL0     H91880   2.356   4.533   4.620 -0.0170 -2.7523 -1.6343
  666MOL0     H91881   2.494   4.426   4.589  0.6964  2.0203 -2.8569
  666MOL0     H91882   2.428   4.575   4.830 -0.4335 -1.0215 -0.6897
  666MOL0     H91883   2.574   4.475   4.816  0.8146 -0.1456 -1.0867
  666MOL0     H91884   2.451   4.272   4.781 -3.7257 -0.5392 -1.8899
  666MOL0     H91885   2.296   4.352   4.809 -0.4317  1.1504  2.5938
  666MOL0     H91886   2.526   4.341   5.007 -0.4034  4.1994  1.1517
  666MOL0     H91887   2.371   4.253   5.010 -1.0920  0.9794 -1.6882
  666MOL0     H91888   2.300   4.505   4.315 -6.2410 -2.2838  0.9928
  666MOL0     H91889   2.183   4.308   4.251  2.8300 -0.8412  1.9432
  666MOL0     H91890   1.968   4.048   3.980  0.6190 -0.1321  1.0907
  666MOL0     H91891   1.868   3.848   3.858  0.1866  1.9074 -1.2265
  666MOL0     H91892   0.688   4.396   3.550 -0.1306 -4.4729  0.3729
  666MOL0     H91893   0.752   4.571   3.379  0.9234  0.0163 -1.7247
  666MOL0     H91894   0.859   4.824   3.187  0.1971  0.0191  0.2298
  666MOL0     H91895   0.847   4.999   3.024 -0.5925  0.6109 -1.5520
  666MOL0     H91896   0.888   5.183   2.945 -0.9113 -1.4649 -2.3032
  666MOL0     H91897   1.047   5.220   3.023  1.4192 -0.2079 -1.0891
  666MOL0     H91898   0.970   5.398   2.889 -0.3077 -0.6421 -0.7304
  666MOL0     H91899   0.940   5.309   2.746 -1.3333  2.7784 -0.2655
  666MOL0     H91900   1.180   5.293   2.708 -0.2542 -0.0640  1.2348
  666MOL0     H91901   1.136   5.455   2.736  0.9573 -0.2263 -0.1111
  666MOL0     H91902   1.257   5.269   2.964 -2.5267  0.3506  0.1495
  666MOL0     H91903   1.253   5.449   2.961 -4.0030 -0.7986  0.1054
  666MOL0     H91904   1.596   5.321   2.738  0.6148  1.0936 -0.2681
  666MOL0     H91905   1.245   4.911   2.897  0.3733 -2.6306 -0.1074
  666MOL0     H91906   1.310   4.627   3.090 -0.9673  0.8657  1.2027
  666MOL0     H91907   1.384   4.767   2.997 -1.6832 -0.3018 -1.5930
  666MOL0     H91908   1.360   4.771   3.172 -0.1179 -0.7624  1.0003
  667MOL0     O91909   0.767   1.823  10.379 -0.0473  0.5140 -0.1610
  667MOL0     C91910   0.761   1.701  10.368  0.3871  0.9514 -0.8648
  667MOL0     O91911   0.850   1.623  10.282  0.9353 -0.9195  0.7268
  667MOL0     C91912   0.887   1.703  10.172  1.3994  0.2500 -0.4441
  667MOL0     C91913   0.789   1.717  10.070 -0.4548 -0.0408 -0.7337
  667MOL0     C91914   0.832   1.782   9.952  0.1308  0.5179  0.0971
  667MOL0     C91915   0.966   1.823   9.940 -0.8133 -0.0714 -0.3899
  667MOL0     O91916   0.995   1.866   9.816 -0.1426  1.1126 -0.4204
  667MOL0     C91917   1.125   1.840   9.765 -0.1406  0.7892  0.5469
  667MOL0     C91918   1.148   1.908   9.627  0.1611  0.9686  0.2234
  667MOL0     C91919   1.044   1.877   9.519  0.4277  0.5739 -0.4181
  667MOL0     C91920   1.064   1.948   9.382 -0.0587 -0.4971  0.1993
  667MOL0     C91921   0.960   2.067   9.374  0.3794 -0.3119  0.2034
  667MOL0     C91922   0.964   2.145   9.239  1.0445  0.0458  1.5372
  667MOL0     C91923   0.861   2.261   9.238 -0.2199  0.4563  0.7347
  667MOL0     C91924   0.907   2.370   9.335 -0.6437 -0.8010 -0.6677
  667MOL0     N91925   0.835   2.490   9.313  0.1462 -1.4100  0.4185
  667MOL0     C91926   0.811   2.593   9.407  0.3979 -0.3577  0.2626
  667MOL0     C91927   0.755   2.693   9.335  0.2948  1.1094  0.1382
  667MOL0     C91928   0.713   2.825   9.371  0.0987  0.1715  0.1866
  667MOL0     C91929   0.574   2.820   9.442 -0.1688 -0.0037 -0.6734
  667MOL0     C91930   0.534   2.959   9.487  1.0355 -0.6574  0.2350
  667MOL0     C91931   0.386   2.996   9.463  0.1304 -0.4575 -0.2035
  667MOL0     O91932   0.330   2.944   9.344 -0.4916  0.0825  1.0034
  667MOL0     C91933   0.202   2.950   9.306  0.5629  0.3423  0.2366
  667MOL0     C91934   0.166   2.957   9.172 -0.0165  0.7666  0.2445
  667MOL0     C91935   0.030   2.950   9.131 -0.4281  1.0894 -0.0090
  667MOL0     C91936   0.000   2.954   8.984 -0.2146  0.5565  0.3201
  667MOL0     C91937  -0.071   2.924   9.235  0.8916 -0.0390  0.3401
  667MOL0     C91938  -0.217   2.904   9.206  0.2434 -0.1277 -0.0246
  667MOL0     O91939  -0.298   2.895   9.314  0.7394  0.5264  0.7134
  667MOL0     C91940  -0.438   2.899   9.283 -0.9735 -0.8420  0.0682
  667MOL0     C91941  -0.503   2.797   9.211 -0.4979  0.0412  0.6955
  667MOL0     C91942  -0.633   2.802   9.183 -0.3141  0.4917 -0.4003
  667MOL0     C91943  -0.703   2.903   9.254  0.9001 -0.4194  0.7884
  667MOL0     O91944  -0.844   2.916   9.235 -0.0941  0.9076  0.4254
  667MOL0     C91945  -0.888   2.951   9.103  0.3849 -0.5269  1.5131
  667MOL0     C91946  -0.987   2.854   9.033 -1.4669  0.9231  0.0736
  667MOL0     C91947  -1.113   2.842   9.123 -0.4204  0.3282 -0.6855
  667MOL0     C91948  -1.168   2.712   9.117 -0.4606  0.8276  0.1394
  667MOL0     C91949  -1.315   2.708   9.179 -0.3722 -0.6586 -0.1284
  667MOL0     C91950  -1.411   2.774   9.086  0.2989  0.8067 -0.2842
  667MOL0     C91951  -1.561   2.751   9.124 -0.3560  0.5454 -0.5464
  667MOL0     C91952  -1.598   2.828   9.257  0.5748  1.1528  0.2073
  667MOL0    Cl91953  -1.534   2.997   9.239  0.2060 -0.0379  0.2701
  667MOL0     C91954  -0.649   3.000   9.330  0.0402  0.5783  0.6708
  667MOL0     C91955  -0.507   3.006   9.334  0.0676 -0.1570 -0.1799
  667MOL0     O91956  -0.255   2.896   9.091 -0.7852 -1.2087 -0.2595
  667MOL0     C91957  -0.026   2.911   9.367  0.1138  0.4435  0.5250
  667MOL0     C91958   0.105   2.926   9.399  0.4554 -0.7769  0.0579
  667MOL0     N91959   0.719   2.642   9.212  0.7605 -0.3325  0.0656
  667MOL0     N91960   0.771   2.526   9.190  0.4280 -0.0045  0.0404
  667MOL0     C91961   1.056   1.796  10.044 -0.9734 -0.4237 -0.3264
  667MOL0     C91962   1.015   1.745  10.163  0.7607 -1.5764 -0.3904
  667MOL0     C91963   0.688   1.618  10.468 -0.9797  0.3235  0.5490
  667MOL0     C91964   0.732   1.482  10.486  1.0619  1.0635 -0.2331
  667MOL0     C91965   0.665   1.400  10.579  0.5563 -0.1198 -0.8960
  667MOL0     C91966   0.556   1.446  10.653  0.3463 -0.4998  0.2119
  667MOL0     O91967   0.480   1.345  10.727  0.2534 -0.6178  0.0550
  667MOL0     C91968   0.369   1.400  10.805  0.0486  0.0820  0.2684
  667MOL0     C91969   0.313   1.269  10.887  0.1502 -0.5773 -0.4249
  667MOL0     C91970   0.193   1.302  10.976 -0.7443 -0.2865  0.1336
  667MOL0     C91971   0.223   1.398  11.098  0.0565  0.4118 -0.8300
  667MOL0     C91972   0.320   1.340  11.193 -0.7604  0.1298 -0.3863
  667MOL0     C91973   0.392   1.282  11.262  0.2544  0.3350 -0.0918
  667MOL0     C91974   0.529   1.583  10.657 -0.6060  0.0988  0.0761
  667MOL0     C91975   0.596   1.665  10.559  0.3377  0.3574 -0.8259
  667MOL0     C91976   0.562   1.815  10.578 -0.4754  0.8354  0.6376
  667MOL0     H91977   0.692   1.676  10.094  1.2673 -3.2732  1.4637
  667MOL0     H91978   0.768   1.805   9.868 -1.6200  0.0007  1.2408
  667MOL0     H91979   1.125   1.731   9.767  0.0171  0.6780  5.6080
  667MOL0     H91980   1.206   1.874   9.830  0.8932  0.5403 -0.5768
  667MOL0     H91981   1.134   2.015   9.646 -0.9510  0.9239 -0.2365
  667MOL0     H91982   1.247   1.883   9.590  0.7013 -0.0152  2.1877
  667MOL0     H91983   1.049   1.768   9.505 -3.9486 -0.1300  1.7630
  667MOL0     H91984   0.941   1.890   9.553  0.6018  1.9810 -0.3974
  667MOL0     H91985   1.166   1.978   9.358 -0.3202 -0.7447 -1.3346
  667MOL0     H91986   1.034   1.878   9.303 -3.2674  1.2466 -0.3309
  667MOL0     H91987   0.993   2.143   9.446  0.5728 -0.1482 -0.0594
  667MOL0     H91988   0.860   2.026   9.393  0.9538 -0.8229  2.4471
  667MOL0     H91989   1.066   2.178   9.218  1.1259 -0.3489  1.2946
  667MOL0     H91990   0.943   2.072   9.161 -0.7687  1.6158  0.4836
  667MOL0     H91991   0.760   2.219   9.239 -0.7342  1.6532  0.2844
  667MOL0     H91992   0.869   2.292   9.134 -0.6337  0.6149  0.7504
  667MOL0     H91993   0.888   2.334   9.436 -1.8393 -0.7087 -0.8408
  667MOL0     H91994   1.014   2.383   9.321 -0.5677 -0.6180  0.0586
  667MOL0     H91995   0.855   2.594   9.506  2.1102  0.7874 -0.4525
  667MOL0     H91996   0.711   2.887   9.281  2.5976  1.1191  0.6868
  667MOL0     H91997   0.789   2.864   9.440 -0.9020 -1.7404  2.5119
  667MOL0     H91998   0.506   2.781   9.366  0.3146 -0.0991 -1.0579
  667MOL0     H91999   0.563   2.748   9.523 -4.8497 -1.2545 -2.1391
  667MOL0     H92000   0.560   2.967   9.593 -0.6050 -4.1478  1.0452
  667MOL0     H92001   0.593   3.038   9.439 -2.5757  1.1962 -1.5810
  667MOL0     H92002   0.331   2.950   9.545  0.3444  2.0639  1.4582
  667MOL0     H92003   0.363   3.103   9.465  0.7043 -0.2524 -2.1766
  667MOL0     H92004   0.249   2.966   9.103  1.4811  1.9297  2.1215
  667MOL0     H92005  -0.070   2.878   8.950  0.0375  0.8714 -0.9525
  667MOL0     H92006   0.088   2.945   8.919 -1.7333 -1.4274 -1.5860
  667MOL0     H92007  -0.050   3.050   8.968 -1.5894 -0.3085 -0.7901
  667MOL0     H92008  -0.440   2.712   9.183 -2.3827 -0.1472 -3.7975
  667MOL0     H92009  -0.692   2.727   9.130  0.9297  0.2521 -1.4858
  667MOL0     H92010  -0.945   3.045   9.112  0.6516 -0.2952  0.8236
  667MOL0     H92011  -0.802   2.965   9.038 -0.8720  4.4092  0.4308
  667MOL0     H92012  -1.012   2.892   8.933  1.4058 -3.1939 -2.5826
  667MOL0     H92013  -0.936   2.758   9.019  1.2177  1.3411  4.9295
  667MOL0     H92014  -1.183   2.919   9.088  0.7812  0.5377 -2.7548
  667MOL0     H92015  -1.095   2.873   9.226  0.4561  1.5091 -1.1723
  667MOL0     H92016  -1.118   2.637   9.178 -1.1934 -0.7913 -1.1842
  667MOL0     H92017  -1.152   2.686   9.013  0.7841  0.6778  0.3598
  667MOL0     H92018  -1.346   2.604   9.177 -2.3824 -0.1530  1.3687
  667MOL0     H92019  -1.303   2.747   9.281  0.5776  1.8199 -1.0849
  667MOL0     H92020  -1.395   2.735   8.985 -0.5910 -0.8766  0.1867
  667MOL0     H92021  -1.395   2.880   9.065 -0.2912  0.6773 -1.4821
  667MOL0     H92022  -1.581   2.644   9.139 -3.8039  1.1908  0.4208
  667MOL0     H92023  -1.615   2.778   9.033 -1.7754 -5.3807 -1.8913
  667MOL0     H92024  -1.554   2.781   9.345  0.9658  0.0770 -0.5488
  667MOL0     H92025  -1.705   2.837   9.279 -0.4312 -0.1858 -3.3216
  667MOL0     H92026  -0.713   3.062   9.392 -3.2899 -2.1782  0.2436
  667MOL0     H92027  -0.475   3.097   9.384  2.6723 -0.0393 -1.9163
  667MOL0     H92028  -0.093   2.865   9.438  0.5809  0.9883  1.3276
  667MOL0     H92029   0.125   2.908   9.505  0.8892  2.1319  0.5475
  667MOL0     H92030   1.157   1.835  10.044 -0.7519 -0.4677  4.2523
  667MOL0     H92031   1.090   1.724  10.238 -1.1571 -2.6613  1.3304
  667MOL0     H92032   0.809   1.434  10.427  2.1291 -0.9608  2.5478
  667MOL0     H92033   0.685   1.294  10.583  0.1257 -0.1932 -0.6600
  667MOL0     H92034   0.397   1.481  10.874 -1.7725  4.6132 -3.7996
  667MOL0     H92035   0.294   1.441  10.737 -1.1508 -0.5847  1.1486
  667MOL0     H92036   0.394   1.230  10.949 -1.2739  0.7887  2.4879
  667MOL0     H92037   0.282   1.193  10.815  1.7397 -1.8083  0.1416
  667MOL0     H92038   0.114   1.354  10.921 -0.8422 -0.5837 -0.0072
  667MOL0     H92039   0.150   1.210  11.017 -0.7919  0.8775  2.8490
  667MOL0     H92040   0.132   1.421  11.154  1.5219  0.9036  1.4957
  667MOL0     H92041   0.271   1.494  11.078  3.5982 -1.3199 -1.3696
  667MOL0     H92042   0.442   1.215  11.329  0.0296  0.8677  0.6284
  667MOL0     H92043   0.451   1.621  10.723  0.2451 -1.1514  1.9022
  667MOL0     H92044   0.649   1.877  10.605 -0.3231  0.7523  0.3449
  667MOL0     H92045   0.519   1.846  10.482  2.7384 -2.0498 -2.0001
  667MOL0     H92046   0.485   1.835  10.653 -0.7455  0.0127  0.5877
  668MOL0     O92047  11.419   8.826   2.538  0.8251 -0.1184  0.8101
  668MOL0     C92048  11.535   8.819   2.499  0.1965  0.5979  0.7654
  668MOL0     O92049  11.583   8.862   2.379  0.0882  0.0187  0.4906
  668MOL0     C92050  11.502   8.926   2.286 -0.1133 -0.2127  0.7409
  668MOL0     C92051  11.496   8.887   2.157  0.0048 -0.1573  0.2481
  668MOL0     C92052  11.418   8.955   2.061  0.2233 -0.5958 -0.6386
  668MOL0     C92053  11.327   9.052   2.102  0.8764  0.5940 -0.3313
  668MOL0     O92054  11.252   9.134   2.020  0.6046 -0.6340 -0.2465
  668MOL0     C92055  11.282   9.134   1.874  0.5963  0.4901 -0.1450
  668MOL0     C92056  11.199   9.250   1.804  0.0470  0.3439  0.2795
  668MOL0     C92057  11.259   9.296   1.669  0.9623 -0.1158  0.4748
  668MOL0     C92058  11.384   9.385   1.690  0.4435 -0.1126  0.1928
  668MOL0     C92059  11.433   9.454   1.563  0.0013 -0.0326 -0.6241
  668MOL0     C92060  11.554   9.548   1.593  0.6292 -0.6768 -1.1059
  668MOL0     C92061  11.595   9.657   1.492 -0.4336  0.5838  0.3013
  668MOL0     C92062  11.730   9.636   1.427 -0.2014  0.8416  0.3160
  668MOL0     N92063  11.780   9.761   1.362 -0.1618  0.6921 -0.0831
  668MOL0     C92064  11.868   9.855   1.411  0.1016  0.7320  0.0689
  668MOL0     C92065  11.891   9.940   1.308  0.5133  0.5525 -0.1236
  668MOL0     C92066  11.981  10.061   1.307  0.2103 -0.2896  0.1728
  668MOL0     C92067  11.902  10.194   1.298 -0.4902 -0.8850 -0.5369
  668MOL0     C92068  11.844  10.216   1.156  0.2423 -0.2325 -0.4641
  668MOL0     C92069  11.769  10.335   1.145  0.7614 -0.0882  0.5402
  668MOL0     O92070  11.685  10.354   1.035  0.4009  0.6388  0.5303
  668MOL0     C92071  11.640  10.478   1.009 -0.1079 -1.1354 -1.0546
  668MOL0     C92072  11.560  10.500   0.893  0.2302  0.4102  0.3678
  668MOL0     C92073  11.502  10.625   0.859 -0.6572 -0.3142 -0.5573
  668MOL0     C92074  11.416  10.625   0.732  1.1368 -0.1338 -0.4246
  668MOL0     C92075  11.537  10.746   0.934  0.4476 -0.0272  0.1279
  668MOL0     C92076  11.480  10.886   0.917 -0.5415 -0.8627 -0.4396
  668MOL0     O92077  11.376  10.900   0.833 -0.6497  0.1379  0.0419
  668MOL0     C92078  11.357  10.995   0.742 -0.2763  0.0538 -0.5015
  668MOL0     C92079  11.245  10.991   0.657  0.5582 -0.2026 -0.8992
  668MOL0     C92080  11.204  11.101   0.583 -0.1136 -0.1362  0.3858
  668MOL0     C92081  11.284  11.210   0.574  0.2027 -0.4956  0.9136
  668MOL0     O92082  11.244  11.314   0.489  0.5349  0.4854 -0.2770
  668MOL0     C92083  11.135  11.391   0.539 -0.6246 -1.2367  0.4982
  668MOL0     C92084  11.171  11.545   0.538 -0.3659  0.6667 -0.3980
  668MOL0     C92085  11.066  11.621   0.626  0.0462 -0.6836  0.1936
  668MOL0     C92086  11.089  11.769   0.591 -0.3857  0.1703  0.2913
  668MOL0     C92087  10.997  11.857   0.667 -0.6308  0.5989 -0.4780
  668MOL0     C92088  11.012  12.004   0.637 -0.0497 -0.0855 -0.2205
  668MOL0     C92089  10.982  12.034   0.484 -0.1148  1.1430  0.8962
  668MOL0     C92090  10.950  12.176   0.444  0.1829 -0.5407  0.1410
  668MOL0    Cl92091  10.915  12.157   0.269  0.0535  0.3791 -0.5860
  668MOL0     C92092  11.406  11.210   0.636  1.0414  1.2993 -1.3587
  668MOL0     C92093  11.434  11.110   0.733 -0.4555  0.1472 -0.4394
  668MOL0     O92094  11.520  10.984   0.982  0.3643  0.0390 -0.2624
  668MOL0     C92095  11.611  10.715   1.043 -0.8079 -0.6119  0.5790
  668MOL0     C92096  11.660  10.598   1.087 -0.3699  0.1187 -0.2902
  668MOL0     N92097  11.815   9.901   1.191  0.0918  0.0841 -0.2113
  668MOL0     N92098  11.761   9.793   1.230  0.3542 -0.5593 -0.9334
  668MOL0     C92099  11.310   9.078   2.234 -1.0974  0.6275 -0.2455
  668MOL0     C92100  11.400   9.013   2.327  0.5402 -0.7445 -0.5277
  668MOL0     C92101  11.631   8.745   2.574  0.1135  0.8115  0.2521
  668MOL0     C92102  11.689   8.633   2.516  0.4189 -0.5034 -0.3663
  668MOL0     C92103  11.793   8.571   2.590  0.0884  0.1007  0.5628
  668MOL0     C92104  11.837   8.602   2.709  0.0897 -0.8319 -0.0281
  668MOL0     O92105  11.947   8.529   2.760  0.2895 -0.6599 -0.0990
  668MOL0     C92106  11.996   8.563   2.885  0.7218 -0.3674  0.5898
  668MOL0     C92107  12.111   8.669   2.885  0.8144 -0.2842 -0.5640
  668MOL0     C92108  12.134   8.730   3.033  0.8061 -0.1935  0.4024
  668MOL0     C92109  12.161   8.628   3.142  0.3275  0.0410 -0.3268
  668MOL0     C92110  12.286   8.558   3.102 -0.1914  0.1455 -0.0039
  668MOL0     C92111  12.390   8.501   3.093  0.0835 -0.6887  1.1341
  668MOL0     C92112  11.771   8.714   2.765  0.2338  0.0279 -0.8228
  668MOL0     C92113  11.666   8.786   2.702  0.7597 -0.0912 -0.2204
  668MOL0     C92114  11.602   8.895   2.791  0.2974 -0.4898 -0.0339
  668MOL0     H92115  11.568   8.813   2.124  0.3731  0.4032 -0.2347
  668MOL0     H92116  11.440   8.936   1.956 -1.5531  0.1743 -1.1851
  668MOL0     H92117  11.261   9.032   1.838  2.1360  0.3894 -0.8422
  668MOL0     H92118  11.387   9.163   1.871  0.5991  0.5925  0.7512
  668MOL0     H92119  11.093   9.227   1.793 -0.0579 -2.0805  4.3330
  668MOL0     H92120  11.208   9.321   1.887  0.4604 -1.8151  2.1956
  668MOL0     H92121  11.279   9.206   1.611  1.4355 -1.5241  2.6812
  668MOL0     H92122  11.185   9.362   1.623  1.1286  0.9034  1.6158
  668MOL0     H92123  11.363   9.465   1.762  0.3374  1.0950 -1.1438
  668MOL0     H92124  11.456   9.321   1.743  0.2829  2.2788  3.6939
  668MOL0     H92125  11.346   9.513   1.534 -0.8445 -0.7978  0.2670
  668MOL0     H92126  11.464   9.383   1.486  1.9979 -0.7718  0.7547
  668MOL0     H92127  11.529   9.609   1.680  0.8655  0.4470 -1.8108
  668MOL0     H92128  11.636   9.495   1.645 -0.0798  0.6169  1.5035
  668MOL0     H92129  11.593   9.753   1.545 -0.3629  3.4036 -4.2442
  668MOL0     H92130  11.516   9.673   1.418 -0.9488  1.7065  1.0753
  668MOL0     H92131  11.818   9.618   1.489  1.1352  0.1327 -1.6666
  668MOL0     H92132  11.720   9.554   1.356 -0.5405 -0.9700  2.3743
  668MOL0     H92133  11.918   9.844   1.507 -1.2803  0.5365  0.8027
  668MOL0     H92134  12.057  10.060   1.228  0.9261  3.7821  0.5975
  668MOL0     H92135  12.025  10.067   1.407 -2.3082  1.9392  1.2866
  668MOL0     H92136  11.819  10.195   1.369 -2.1532 -4.2426 -2.2335
  668MOL0     H92137  11.975  10.273   1.321  1.1612 -2.4891 -0.0297
  668MOL0     H92138  11.916  10.196   1.076  0.2898 -2.1076  0.0113
  668MOL0     H92139  11.772  10.139   1.129  2.9983 -1.8756 -3.9268
  668MOL0     H92140  11.721  10.355   1.241  0.3522 -1.1565  0.5730
  668MOL0     H92141  11.844  10.414   1.137  2.3952 -1.6836 -0.5965
  668MOL0     H92142  11.556  10.413   0.828 -0.4435 -2.1258  3.5188
  668MOL0     H92143  11.428  10.526   0.687  3.7829 -0.8599  1.6079
  668MOL0     H92144  11.449  10.713   0.677  0.4545  0.1970 -0.3189
  668MOL0     H92145  11.308  10.631   0.753  1.4492  0.6236  1.0619
  668MOL0     H92146  11.185  10.906   0.686 -0.8199  1.2181  0.6595
  668MOL0     H92147  11.106  11.093   0.538 -0.1083 -2.2974  0.6627
  668MOL0     H92148  11.045  11.376   0.478  0.3794 -2.5713 -0.7288
  668MOL0     H92149  11.126  11.355   0.642 -1.5788 -5.4024 -0.8408
  668MOL0     H92150  11.268  11.567   0.584 -0.0282  3.0357 -2.0773
  668MOL0     H92151  11.171  11.574   0.433 -0.8363  1.1239 -0.2731
  668MOL0     H92152  11.088  11.588   0.728  0.1122  0.3710  0.5322
  668MOL0     H92153  10.964  11.595   0.595  0.0111  0.5834 -0.8467
  668MOL0     H92154  11.091  11.774   0.482 -0.2446 -1.0409  0.2190
  668MOL0     H92155  11.196  11.787   0.603 -0.9156  3.2096  1.3379
  668MOL0     H92156  10.898  11.814   0.649  0.1690 -1.1598 -0.9265
  668MOL0     H92157  11.019  11.847   0.774 -1.4738  1.5448 -0.2009
  668MOL0     H92158  11.116  12.033   0.650 -0.4023  1.3899 -0.4007
  668MOL0     H92159  10.952  12.062   0.708  0.0207  1.0262 -1.0386
  668MOL0     H92160  10.911  11.964   0.439  2.3366 -1.1492  0.3350
  668MOL0     H92161  11.080  12.024   0.439  0.4191 -3.0393  2.5244
  668MOL0     H92162  11.035  12.242   0.464 -0.1776 -0.1050  0.2351
  668MOL0     H92163  10.860  12.216   0.491 -0.4000 -1.5035 -0.1203
  668MOL0     H92164  11.469  11.298   0.637 -0.2782  2.2934 -2.4613
  668MOL0     H92165  11.523  11.131   0.791 -0.5251 -0.5585 -0.0682
  668MOL0     H92166  11.644  10.798   1.106 -2.8024 -1.8985  3.5229
  668MOL0     H92167  11.706  10.593   1.185  1.0976 -4.3125 -0.9826
  668MOL0     H92168  11.237   9.146   2.276  0.3910  0.0914  3.6484
  668MOL0     H92169  11.394   9.033   2.434  0.5058 -0.3758 -0.5985
  668MOL0     H92170  11.656   8.596   2.420 -3.6473 -1.1353  1.0811
  668MOL0     H92171  11.858   8.502   2.537 -0.8406  1.0903 -2.0083
  668MOL0     H92172  11.919   8.576   2.962 -0.3992  1.2076 -0.7229
  668MOL0     H92173  12.050   8.478   2.929  0.8430  0.0280  1.2213
  668MOL0     H92174  12.083   8.746   2.813 -2.0502 -1.9221 -1.3767
  668MOL0     H92175  12.197   8.616   2.841  0.0711 -2.9099  0.8747
  668MOL0     H92176  12.196   8.820   3.037 -3.8079  3.2827  3.4660
  668MOL0     H92177  12.037   8.770   3.064  1.3023  2.7041 -1.4339
  668MOL0     H92178  12.082   8.554   3.157  1.1626 -1.1078 -1.3935
  668MOL0     H92179  12.184   8.684   3.233  0.1622  1.0313 -0.8749
  668MOL0     H92180  12.485   8.454   3.082 -0.7945 -2.4450  0.5690
  668MOL0     H92181  11.807   8.749   2.861 -1.9577  0.5679 -0.1542
  668MOL0     H92182  11.530   8.851   2.861  2.4293 -2.4255  1.0421
  668MOL0     H92183  11.674   8.945   2.857 -3.3684  2.5876  2.0673
  668MOL0     H92184  11.561   8.975   2.728  2.2172 -0.0209 -0.7321
  669MOL0     O92185   7.136   8.343   8.198  0.9210  0.8045  0.4735
  669MOL0     C92186   7.139   8.448   8.129  0.0630  0.4441  1.1188
  669MOL0     O92187   7.246   8.500   8.083 -1.0146  0.6925 -0.2195
  669MOL0     C92188   7.373   8.486   8.143  0.2313  0.5910  0.7234
  669MOL0     C92189   7.482   8.506   8.049  0.0017  0.8835 -0.2952
  669MOL0     C92190   7.611   8.502   8.094 -0.3150 -0.2361  0.0524
  669MOL0     C92191   7.646   8.490   8.233 -0.8094  0.1499 -0.1468
  669MOL0     O92192   7.777   8.483   8.285 -0.2982  0.5748  0.8689
  669MOL0     C92193   7.870   8.415   8.204  0.1394  0.3455  0.3108
  669MOL0     C92194   7.874   8.261   8.245  0.2761  0.1838  1.3251
  669MOL0     C92195   7.914   8.223   8.395 -0.0024  0.7416  1.0849
  669MOL0     C92196   7.984   8.086   8.387  0.0930  0.3440 -0.4404
  669MOL0     C92197   8.120   8.085   8.322 -0.0127  0.7212 -0.1564
  669MOL0     C92198   8.215   7.972   8.381 -0.4462  0.7074  0.1760
  669MOL0     C92199   8.342   7.960   8.290 -0.1921 -0.3402  0.0127
  669MOL0     C92200   8.322   7.839   8.185 -0.3216 -0.0923 -0.3685
  669MOL0     N92201   8.279   7.889   8.048 -0.2440  0.4057  0.0704
  669MOL0     C92202   8.150   7.883   7.993 -0.3121 -0.3665 -0.0634
  669MOL0     C92203   8.153   7.963   7.873 -0.3435  0.2567 -0.2442
  669MOL0     C92204   8.031   8.011   7.805 -0.1316  0.3208  0.9198
  669MOL0     C92205   7.944   8.090   7.917 -0.6184  0.3384  0.1008
  669MOL0     C92206   7.807   8.121   7.861 -0.2061 -0.5738 -0.5542
  669MOL0     C92207   7.803   8.210   7.734  0.7358  0.9482 -0.6644
  669MOL0     O92208   7.844   8.341   7.773  0.2837  0.3763 -0.2156
  669MOL0     C92209   7.813   8.453   7.703 -0.2324 -0.2583 -0.5594
  669MOL0     C92210   7.848   8.582   7.749 -0.3138 -0.4989  0.3959
  669MOL0     C92211   7.811   8.697   7.682  0.1700 -0.5906 -0.0270
  669MOL0     C92212   7.845   8.823   7.742 -0.0807 -0.4838 -0.2920
  669MOL0     C92213   7.758   8.698   7.556  0.2488 -0.0626  0.4036
  669MOL0     C92214   7.707   8.817   7.477 -0.2891  0.6596 -0.7938
  669MOL0     O92215   7.775   8.937   7.496  0.0811 -0.1130 -0.7727
  669MOL0     C92216   7.753   9.045   7.413 -0.1858  0.6641  0.1849
  669MOL0     C92217   7.738   9.032   7.273 -0.4206 -0.0811 -0.1230
  669MOL0     C92218   7.696   9.139   7.195  0.4332 -0.5446  0.6026
  669MOL0     C92219   7.677   9.263   7.257 -1.1795  0.2732  0.1460
  669MOL0     O92220   7.635   9.381   7.196  0.2659 -0.2042  0.6606
  669MOL0     C92221   7.702   9.416   7.070  0.7019  0.5676  0.7400
  669MOL0     C92222   7.719   9.561   7.045 -0.9812  0.6629 -0.4025
  669MOL0     C92223   7.592   9.635   6.989  0.2685  0.4263 -0.1411
  669MOL0     C92224   7.525   9.723   7.099 -0.2186 -0.7407 -0.5670
  669MOL0     C92225   7.385   9.776   7.065 -0.2586  0.2808  0.5867
  669MOL0     C92226   7.382   9.874   6.950  0.4803  1.4092  0.5901
  669MOL0     C92227   7.278   9.829   6.847  0.0538 -0.1180  0.0427
  669MOL0     C92228   7.251   9.919   6.723 -0.0552 -0.0854 -0.5181
  669MOL0    Cl92229   7.158  10.055   6.784 -0.7386 -0.0859 -0.4142
  669MOL0     C92230   7.697   9.277   7.397  0.4128 -0.7952 -0.2824
  669MOL0     C92231   7.742   9.169   7.469  0.5673  0.5610 -0.2146
  669MOL0     O92232   7.621   8.797   7.392 -0.3723 -0.2578  0.2069
  669MOL0     C92233   7.753   8.565   7.485 -0.9490 -1.2648 -0.9217
  669MOL0     C92234   7.763   8.452   7.569 -0.4984 -0.1157 -0.6074
  669MOL0     N92235   8.284   8.011   7.856  0.2395 -0.3251 -0.3707
  669MOL0     N92236   8.357   7.946   7.947 -0.0699  0.0481  0.7650
  669MOL0     C92237   7.530   8.487   8.323 -0.2049  0.8298  0.5712
  669MOL0     C92238   7.399   8.482   8.278 -0.1709  0.6665  0.3454
  669MOL0     C92239   7.017   8.505   8.088  0.7747 -0.6186 -0.2574
  669MOL0     C92240   7.001   8.645   8.095  0.1213  1.3730  0.4763
  669MOL0     C92241   6.886   8.708   8.042  0.6069 -1.0043 -0.4189
  669MOL0     C92242   6.774   8.634   7.988 -0.1407 -0.5069  0.0841
  669MOL0     O92243   6.667   8.704   7.952  0.2037 -0.3267  0.4294
  669MOL0     C92244   6.545   8.639   7.966  0.3022 -0.9911 -0.0148
  669MOL0     C92245   6.435   8.743   7.932 -0.2793 -0.4064 -0.4917
  669MOL0     C92246   6.294   8.682   7.939  1.4837  0.4809  0.1327
  669MOL0     C92247   6.219   8.685   7.805  0.5481  1.1212  0.0473
  669MOL0     C92248   6.278   8.583   7.708 -0.4287 -0.3121 -0.3562
  669MOL0     C92249   6.351   8.522   7.632  0.9553 -0.8260 -0.4114
  669MOL0     C92250   6.791   8.499   7.993 -0.1311  0.7597 -0.7181
  669MOL0     C92251   6.904   8.429   8.042 -0.4263  0.7499 -0.4343
  669MOL0     C92252   6.903   8.285   8.032 -0.2739  0.3166 -0.7659
  669MOL0     H92253   7.461   8.482   7.945 -1.9806 -2.1969  0.6642
  669MOL0     H92254   7.676   8.512   8.008 -1.4432 -2.6329 -1.1606
  669MOL0     H92255   7.965   8.468   8.216  1.1712 -0.6034 -2.5977
  669MOL0     H92256   7.849   8.428   8.097 -0.8379 -2.6847  0.0471
  669MOL0     H92257   7.771   8.229   8.228  0.7249 -1.9774  2.2984
  669MOL0     H92258   7.932   8.209   8.167 -1.2245 -1.9329  1.5353
  669MOL0     H92259   7.989   8.291   8.435 -0.2374  1.8673 -0.2965
  669MOL0     H92260   7.826   8.217   8.460 -2.6532  0.5800 -2.2099
  669MOL0     H92261   7.992   8.049   8.490  0.7705 -0.4884 -0.7734
  669MOL0     H92262   7.917   8.015   8.340  1.8572 -2.7058  1.2965
  669MOL0     H92263   8.154   8.189   8.328  0.5810  0.4716  0.9972
  669MOL0     H92264   8.101   8.064   8.216 -2.1974 -0.2520  0.3690
  669MOL0     H92265   8.227   7.999   8.486 -1.7641 -0.3138  0.6123
  669MOL0     H92266   8.175   7.870   8.387 -0.9797  1.0195  2.6367
  669MOL0     H92267   8.439   7.945   8.338  0.5658 -0.1888 -1.4209
  669MOL0     H92268   8.358   8.048   8.227  1.5942 -0.9955 -0.4795
  669MOL0     H92269   8.419   7.790   8.180  2.0772  4.1547 -0.3493
  669MOL0     H92270   8.252   7.769   8.231 -0.7526 -0.1635 -1.1149
  669MOL0     H92271   8.066   7.840   8.045 -0.3020 -0.3273 -0.0147
  669MOL0     H92272   7.974   7.920   7.783 -1.7222  0.9887  2.0393
  669MOL0     H92273   8.040   8.064   7.711 -0.0369 -0.6061  0.3898
  669MOL0     H92274   7.926   8.019   7.998  2.8385 -1.0061 -0.1237
  669MOL0     H92275   7.995   8.178   7.957 -0.9598 -0.7546  3.2413
  669MOL0     H92276   7.772   8.028   7.816 -0.3544 -0.6547 -0.2706
  669MOL0     H92277   7.750   8.169   7.941 -0.3085  1.1731 -1.6331
  669MOL0     H92278   7.867   8.178   7.651  1.9326 -1.7866  1.1480
  669MOL0     H92279   7.701   8.211   7.695 -0.6033 -2.0710  2.2336
  669MOL0     H92280   7.894   8.595   7.847 -0.2767 -5.3523  1.2734
  669MOL0     H92281   7.757   8.882   7.769  1.4985  0.8676  2.3069
  669MOL0     H92282   7.917   8.879   7.681  1.3384 -0.7798  1.0466
  669MOL0     H92283   7.881   8.810   7.844 -0.0549  3.0069  0.2910
  669MOL0     H92284   7.746   8.930   7.237 -1.7276 -0.3543  0.3025
  669MOL0     H92285   7.672   9.136   7.090 -1.2788  2.3900  0.7991
  669MOL0     H92286   7.803   9.375   7.064  1.1297  1.5189  1.1517
  669MOL0     H92287   7.643   9.388   6.983  2.3692  1.6279 -0.7875
  669MOL0     H92288   7.754   9.609   7.137 -3.7287 -1.5772  1.9850
  669MOL0     H92289   7.807   9.572   6.981  0.4152  1.7691  1.6155
  669MOL0     H92290   7.527   9.560   6.943 -2.4715  1.9361  1.0433
  669MOL0     H92291   7.613   9.708   6.910  0.7058  0.8522  0.3610
  669MOL0     H92292   7.590   9.805   7.130  0.0086 -1.2340  0.2943
  669MOL0     H92293   7.509   9.658   7.185 -2.0837 -0.1433 -0.4046
  669MOL0     H92294   7.325   9.685   7.052 -0.0797  0.2177  0.2097
  669MOL0     H92295   7.349   9.827   7.155  0.6767  1.0829  0.5215
  669MOL0     H92296   7.474   9.864   6.892 -1.0761  0.0036 -1.7935
  669MOL0     H92297   7.369   9.976   6.986  1.5822  2.2607 -1.2967
  669MOL0     H92298   7.179   9.813   6.891  0.3790  0.0798  0.8667
  669MOL0     H92299   7.307   9.728   6.817 -0.0083  0.0658 -0.6568
  669MOL0     H92300   7.198   9.862   6.646 -0.9982 -2.2699  1.6206
  669MOL0     H92301   7.347   9.962   6.690 -0.7859  0.7509 -1.6290
  669MOL0     H92302   7.685   9.378   7.436 -2.3854 -0.8676 -0.7867
  669MOL0     H92303   7.740   9.184   7.576 -1.5641  0.8500 -0.2597
  669MOL0     H92304   7.734   8.563   7.378  0.9152 -0.0520 -1.3236
  669MOL0     H92305   7.724   8.363   7.521 -2.2601  0.5071 -0.4002
  669MOL0     H92306   7.543   8.496   8.430  1.5472  2.6088  0.2729
  669MOL0     H92307   7.316   8.489   8.348 -0.0736  0.6780  0.4615
  669MOL0     H92308   7.074   8.703   8.152 -0.1066  4.7331 -2.3014
  669MOL0     H92309   6.883   8.817   8.036 -0.9804 -1.0750 -1.6394
  669MOL0     H92310   6.537   8.544   7.911 -2.7114  0.1479 -1.8093
  669MOL0     H92311   6.523   8.612   8.070  1.6005  3.0271  1.4849
  669MOL0     H92312   6.452   8.772   7.828 -4.2981 -3.1260 -2.1341
  669MOL0     H92313   6.435   8.832   7.995 -2.2867  0.9753 -2.3281
  669MOL0     H92314   6.286   8.575   7.964  1.4812  0.4295 -0.0811
  669MOL0     H92315   6.230   8.715   8.021 -1.2308 -3.5120 -0.0796
  669MOL0     H92316   6.221   8.790   7.775 -2.5390  2.4559  3.7230
  669MOL0     H92317   6.113   8.665   7.824  0.0490  0.6868 -2.7552
  669MOL0     H92318   6.422   8.492   7.558  3.1090  1.5164  0.5721
  669MOL0     H92319   6.710   8.435   7.959  2.5671 -2.0860 -2.4690
  669MOL0     H92320   6.801   8.251   8.053  0.1992  0.0876  1.3982
  669MOL0     H92321   6.913   8.261   7.926 -0.7338 -0.3091 -0.6720
  669MOL0     H92322   6.958   8.219   8.100 -1.6633 -0.2755 -0.1763
  670MOL0     O92323   8.850   1.257  11.158  0.9182 -0.2250  0.6410
  670MOL0     C92324   8.965   1.312  11.172  0.2073 -1.2212 -0.7837
  670MOL0     O92325   9.024   1.330  11.295 -0.6846  0.3296 -0.3313
  670MOL0     C92326   8.960   1.283  11.405  0.6792  0.2859 -0.0482
  670MOL0     C92327   8.898   1.158  11.420 -0.1921 -0.0653  0.6027
  670MOL0     C92328   8.831   1.138  11.541 -0.0444  0.3236 -0.4422
  670MOL0     C92329   8.833   1.219  11.656  0.0620  0.9512 -0.5194
  670MOL0     O92330   8.747   1.178  11.756  0.2060 -0.4531 -0.1800
  670MOL0     C92331   8.775   1.236  11.886 -0.4163 -0.3469  1.2194
  670MOL0     C92332   8.709   1.170  12.007  0.3531  0.3922 -0.1677
  670MOL0     C92333   8.562   1.177  12.024  0.5633  0.6931 -0.5069
  670MOL0     C92334   8.519   1.100  12.151  0.5039 -0.1591  0.1559
  670MOL0     C92335   8.369   1.088  12.168 -0.1362  0.2516 -0.1304
  670MOL0     C92336   8.328   1.005  12.289 -0.4635 -0.4900  0.1082
  670MOL0     C92337   8.172   1.004  12.291 -0.0515  1.2764 -0.6176
  670MOL0     C92338   8.131   0.894  12.400 -0.8475  0.2358  0.1604
  670MOL0     N92339   7.988   0.867  12.400  0.3771  0.0304  0.5154
  670MOL0     C92340   7.902   0.945  12.472 -0.8850  0.1200  0.3890
  670MOL0     C92341   7.782   0.884  12.451 -0.3161  0.2344 -0.2661
  670MOL0     C92342   7.657   0.917  12.529  0.2266 -0.9881 -0.1865
  670MOL0     C92343   7.682   0.903  12.681 -0.6037 -0.6170 -0.3990
  670MOL0     C92344   7.557   0.948  12.751 -0.0231  1.0139 -0.6920
  670MOL0     C92345   7.447   0.836  12.749 -0.2910  0.0731  0.3224
  670MOL0     O92346   7.465   0.737  12.853 -0.7236 -0.0959  0.8923
  670MOL0     C92347   7.410   0.611  12.856  0.7513  0.2523 -0.4523
  670MOL0     C92348   7.308   0.577  12.775 -0.0520  0.4112  0.9143
  670MOL0     C92349   7.263   0.439  12.790 -0.3650 -0.1332 -0.4040
  670MOL0     C92350   7.157   0.388  12.690  0.5877  0.2796 -0.2590
  670MOL0     C92351   7.320   0.350  12.891 -0.2700  0.2602  0.4662
  670MOL0     C92352   7.274   0.208  12.918  0.4378  0.0438  0.6720
  670MOL0     O92353   7.350   0.133  13.005  0.0485 -0.0909 -0.3300
  670MOL0     C92354   7.291   0.014  13.040  0.2773  0.3278 -0.3885
  670MOL0     C92355   7.222   0.012  13.159 -0.0403 -0.7114 -0.4623
  670MOL0     C92356   7.167  -0.100  13.216  0.6130 -0.6063 -0.1466
  670MOL0     C92357   7.172  -0.220  13.138  0.7811 -0.1694 -0.2373
  670MOL0     O92358   7.119  -0.341  13.167 -0.6983  0.1316 -0.0734
  670MOL0     C92359   6.999  -0.380  13.102  0.0669  0.9496  0.7831
  670MOL0     C92360   6.882  -0.419  13.208  0.7784  1.2663 -0.7103
  670MOL0     C92361   6.880  -0.314  13.309 -1.0183 -1.1192 -0.0181
  670MOL0     C92362   6.764  -0.317  13.407  0.9290 -0.1683 -0.2885
  670MOL0     C92363   6.811  -0.289  13.537 -0.2803 -0.6833 -0.3935
  670MOL0     C92364   6.844  -0.143  13.570  1.0120 -0.4651 -0.2281
  670MOL0     C92365   6.878  -0.111  13.719  0.1556  0.9066 -0.4190
  670MOL0     C92366   6.787  -0.168  13.827  0.0555  0.9658 -0.1653
  670MOL0    Cl92367   6.634  -0.118  13.779 -0.5463 -0.1487  0.0736
  670MOL0     C92368   7.237  -0.210  13.008 -0.5054 -0.8227  0.0727
  670MOL0     C92369   7.308  -0.096  12.966 -0.1627 -0.8829 -0.9682
  670MOL0     O92370   7.157   0.177  12.874 -0.2829 -0.1844  0.1214
  670MOL0     C92371   7.431   0.393  12.965 -0.5270  0.6627 -0.5218
  670MOL0     C92372   7.470   0.523  12.950 -0.1857  0.2455  0.0561
  670MOL0     N92373   7.803   0.771  12.378  0.2240 -0.1695  0.2342
  670MOL0     N92374   7.924   0.755  12.350  0.1173  0.2069 -0.2184
  670MOL0     C92375   8.903   1.340  11.647  0.8776  0.0674 -0.5690
  670MOL0     C92376   8.969   1.359  11.524  0.3139 -0.7872 -0.7579
  670MOL0     C92377   9.051   1.349  11.063  0.6416 -0.0149 -0.7726
  670MOL0     C92378   9.147   1.450  11.079  0.0885 -0.4959  0.2330
  670MOL0     C92379   9.221   1.493  10.976 -0.1373 -0.8114 -0.6071
  670MOL0     C92380   9.223   1.429  10.855  0.6833  0.0809  0.4572
  670MOL0     O92381   9.304   1.491  10.759  0.2056  0.4335  0.2959
  670MOL0     C92382   9.306   1.411  10.631  1.0687 -0.3775  0.6199
  670MOL0     C92383   9.407   1.461  10.522  0.2493 -0.0455 -0.2439
  670MOL0     C92384   9.554   1.422  10.544  0.1595 -0.2787 -0.4490
  670MOL0     C92385   9.599   1.325  10.429 -0.7074 -0.1657 -0.4897
  670MOL0     C92386   9.540   1.191  10.447  0.3445 -0.6521 -0.7147
  670MOL0     C92387   9.486   1.085  10.460  0.1132  0.5313  0.0801
  670MOL0     C92388   9.131   1.320  10.830  0.3677  0.4040  0.2611
  670MOL0     C92389   9.049   1.284  10.932  0.2990 -0.2033  0.8310
  670MOL0     C92390   8.976   1.150  10.916 -0.3102 -0.6747  0.3750
  670MOL0     H92391   8.895   1.079  11.344 -2.2265 -0.4810  1.0430
  670MOL0     H92392   8.774   1.046  11.545  0.4898 -0.0350 -0.9481
  670MOL0     H92393   8.750   1.342  11.885 -0.2204 -0.3006  0.8108
  670MOL0     H92394   8.883   1.223  11.900 -0.1100 -0.2682 -0.7413
  670MOL0     H92395   8.732   1.064  11.993  1.7951  0.6714 -0.0650
  670MOL0     H92396   8.751   1.214  12.097 -1.1568 -2.2090  1.9423
  670MOL0     H92397   8.513   1.275  12.025  0.9078  0.9282 -2.6987
  670MOL0     H92398   8.520   1.130  11.935  1.9700  1.2909 -1.5187
  670MOL0     H92399   8.550   0.997  12.131  1.5838 -0.3659  2.5851
  670MOL0     H92400   8.574   1.135  12.239 -1.9912 -0.2305  1.8745
  670MOL0     H92401   8.314   1.056  12.079 -1.2459  0.9996  0.2626
  670MOL0     H92402   8.337   1.192  12.172  2.1525  1.0560 -1.1974
  670MOL0     H92403   8.358   0.900  12.291  0.6359 -0.1914  2.0458
  670MOL0     H92404   8.367   1.037  12.386 -0.2894  2.3278 -0.8052
  670MOL0     H92405   8.129   0.963  12.199 -4.3985  0.8782  1.3788
  670MOL0     H92406   8.118   1.096  12.314 -1.4991 -0.3217  3.0231
  670MOL0     H92407   8.183   0.800  12.377 -1.6921 -0.5850  1.4580
  670MOL0     H92408   8.157   0.925  12.501  0.7787 -0.6190  0.0372
  670MOL0     H92409   7.926   1.035  12.527 -3.4056  0.6465  0.7355
  670MOL0     H92410   7.576   0.848  12.502 -2.7509  2.4218 -0.8513
  670MOL0     H92411   7.609   1.011  12.499  2.7433  0.9294  1.3745
  670MOL0     H92412   7.709   0.798  12.697 -4.3714 -1.4142  1.9510
  670MOL0     H92413   7.767   0.962  12.717 -1.5594  0.7390 -0.2608
  670MOL0     H92414   7.590   0.964  12.854  0.0244  0.3710 -0.5994
  670MOL0     H92415   7.521   1.044  12.715 -3.2043  0.3890  0.5323
  670MOL0     H92416   7.355   0.895  12.755 -0.8305 -0.4910 -1.8064
  670MOL0     H92417   7.441   0.783  12.654 -0.7498  1.2868 -0.3488
  670MOL0     H92418   7.269   0.644  12.700  0.9344  0.9077  0.8375
  670MOL0     H92419   7.064   0.393  12.747  0.7174  2.1259 -0.1526
  670MOL0     H92420   7.182   0.289  12.650 -4.6207 -1.2065 -0.5691
  670MOL0     H92421   7.151   0.454  12.603 -0.2979  1.1087  0.4131
  670MOL0     H92422   7.208   0.109  13.206  1.5185 -0.3106 -0.7463
  670MOL0     H92423   7.113  -0.092  13.311  0.9169 -2.8342  0.2745
  670MOL0     H92424   6.960  -0.306  13.032 -2.4857 -0.2775  0.7823
  670MOL0     H92425   7.009  -0.475  13.048  0.3239  1.2945  0.2184
  670MOL0     H92426   6.783  -0.440  13.166 -0.0736  0.8013  1.4261
  670MOL0     H92427   6.911  -0.516  13.249 -0.0401 -0.4252 -3.8172
  670MOL0     H92428   6.884  -0.213  13.267  0.3249 -0.8621  0.6606
  670MOL0     H92429   6.975  -0.323  13.363  1.6378  0.6114 -3.9091
  670MOL0     H92430   6.734  -0.421  13.387  0.9439  0.3708 -3.6675
  670MOL0     H92431   6.687  -0.244  13.380 -0.0266 -0.6764  0.9378
  670MOL0     H92432   6.732  -0.321  13.605 -2.9507  4.1678 -0.7691
  670MOL0     H92433   6.896  -0.352  13.565  1.1430  1.1306 -0.4467
  670MOL0     H92434   6.759  -0.082  13.539  0.3701 -2.8627 -3.9111
  670MOL0     H92435   6.930  -0.111  13.510  1.2226 -1.3986 -0.4422
  670MOL0     H92436   6.860  -0.004  13.731 -1.3966  0.4908  1.3597
  670MOL0     H92437   6.985  -0.128  13.733  0.3037  1.4473 -0.8675
  670MOL0     H92438   6.803  -0.146  13.933  1.8052 -0.3151 -0.1111
  670MOL0     H92439   6.788  -0.277  13.825 -2.4877  0.1597  7.9380
  670MOL0     H92440   7.239  -0.287  12.932 -3.0989  1.6174 -2.7219
  670MOL0     H92441   7.364  -0.087  12.873  1.9019  1.2429  0.3581
  670MOL0     H92442   7.479   0.336  13.044 -0.7985 -0.4295 -1.1257
  670MOL0     H92443   7.542   0.577  13.010 -0.7116 -0.7268  1.6170
  670MOL0     H92444   8.928   1.403  11.732  2.9725  2.3431 -2.7235
  670MOL0     H92445   9.038   1.442  11.506  1.4138 -1.2851  0.9360
  670MOL0     H92446   9.155   1.486  11.181 -2.0100 -2.1662  1.0666
  670MOL0     H92447   9.282   1.579  11.000 -1.9535 -0.3688  3.2402
  670MOL0     H92448   9.318   1.306  10.658  0.8720  0.1873  3.1129
  670MOL0     H92449   9.203   1.420  10.595  2.0290  3.7082 -1.7066
  670MOL0     H92450   9.404   1.567  10.547 -0.5095  0.3957 -2.0460
  670MOL0     H92451   9.377   1.446  10.418  3.0503 -2.3623 -0.8732
  670MOL0     H92452   9.615   1.511  10.523 -2.2845  1.7442  0.4388
  670MOL0     H92453   9.578   1.380  10.642 -3.2425  1.6234  1.4043
  670MOL0     H92454   9.706   1.305  10.428 -0.3986  1.1596  1.0166
  670MOL0     H92455   9.567   1.352  10.328 -2.2222 -3.4695 -1.0366
  670MOL0     H92456   9.433   0.993  10.468  0.2366  0.1743 -2.5013
  670MOL0     H92457   9.109   1.265  10.740  0.8206 -2.5856  1.8530
  670MOL0     H92458   8.981   1.096  11.011  0.5918  0.1654  0.8190
  670MOL0     H92459   8.870   1.177  10.909  0.8013  4.1126 -2.4524
  670MOL0     H92460   9.007   1.078  10.840  0.2468  0.1654 -0.2074
  671MOL0     O92461   7.333  10.500   6.383  0.1683  0.4465 -0.4472
  671MOL0     C92462   7.437  10.432   6.349 -0.1766 -0.4843 -0.3379
  671MOL0     O92463   7.478  10.425   6.214 -0.3186 -0.2774  0.2986
  671MOL0     C92464   7.383  10.469   6.120 -0.1836  0.2431  0.0214
  671MOL0     C92465   7.349  10.607   6.089 -0.3416  0.9939 -0.8714
  671MOL0     C92466   7.254  10.629   5.998  0.9548  0.0974 -0.0250
  671MOL0     C92467   7.183  10.531   5.920 -0.6421 -0.8862  0.3640
  671MOL0     O92468   7.096  10.566   5.824  1.0996  0.5757  0.0597
  671MOL0     C92469   6.985  10.482   5.810  0.0763  0.1412 -0.0979
  671MOL0     C92470   6.881  10.495   5.932  1.4841 -0.2683 -0.4415
  671MOL0     C92471   6.895  10.391   6.046 -0.3589 -0.2504 -0.5661
  671MOL0     C92472   6.947  10.440   6.170  0.1140 -1.0988 -0.7842
  671MOL0     C92473   6.959  10.316   6.273 -0.4243 -0.3380  0.4559
  671MOL0     C92474   6.817  10.287   6.337 -0.5751  0.2134  1.1736
  671MOL0     C92475   6.781  10.383   6.452 -0.5562  0.3814  0.4724
  671MOL0     C92476   6.651  10.348   6.538 -0.0016  0.6515  0.4360
  671MOL0     N92477   6.589  10.460   6.611 -0.4281 -0.4139  0.7016
  671MOL0     C92478   6.510  10.559   6.552  0.3923 -0.7254 -0.4995
  671MOL0     C92479   6.487  10.636   6.663  0.4655 -1.0392  0.8264
  671MOL0     C92480   6.392  10.754   6.666  0.3948  0.6461  0.0127
  671MOL0     C92481   6.248  10.706   6.640 -0.7787 -1.7279 -0.0916
  671MOL0     C92482   6.149  10.822   6.629  1.5062 -0.3061  0.1614
  671MOL0     C92483   6.167  10.903   6.503 -0.1691  0.6648 -0.3486
  671MOL0     O92484   6.147  10.823   6.382  0.3870 -0.0219  0.3007
  671MOL0     C92485   6.143  10.889   6.260  0.3138 -1.1492  1.4122
  671MOL0     C92486   6.200  11.014   6.233 -0.6404 -1.3135 -0.5538
  671MOL0     C92487   6.179  11.082   6.108  0.0708  0.4192  0.1971
  671MOL0     C92488   6.232  11.224   6.097 -0.0143 -0.0854 -1.2341
  671MOL0     C92489   6.116  11.016   5.999 -0.3515  0.0387 -0.0454
  671MOL0     C92490   6.120  11.069   5.855 -0.0739  0.5197  0.4005
  671MOL0     O92491   6.211  11.168   5.829  0.2743 -1.9565  0.6226
  671MOL0     C92492   6.190  11.252   5.724 -0.0328  0.2637 -0.4263
  671MOL0     C92493   6.178  11.395   5.742  0.3767 -0.1854  0.3727
  671MOL0     C92494   6.148  11.482   5.637 -0.2348  0.1279  0.2346
  671MOL0     C92495   6.145  11.435   5.503 -0.1267  0.1821 -0.9566
  671MOL0     O92496   6.096  11.511   5.400 -0.5760 -0.3233 -0.0873
  671MOL0     C92497   6.207  11.582   5.337 -0.1126 -0.1401  0.0792
  671MOL0     C92498   6.172  11.721   5.313 -0.4446 -1.1447 -0.2171
  671MOL0     C92499   6.141  11.794   5.446 -0.8994  0.5491 -0.0550
  671MOL0     C92500   6.159  11.951   5.433 -0.2275  0.6879  0.2951
  671MOL0     C92501   6.073  12.040   5.521 -0.0837  0.3195  0.4212
  671MOL0     C92502   6.110  12.029   5.671  0.0259 -0.1268 -0.5143
  671MOL0     C92503   6.040  12.129   5.747 -1.0030 -0.5466 -0.2259
  671MOL0     C92504   6.088  12.137   5.892  0.0865  1.2689 -0.1367
  671MOL0    Cl92505   6.036  11.988   5.983  0.3835 -0.2099  0.5316
  671MOL0     C92506   6.168  11.299   5.484 -0.1980 -1.1584  0.6263
  671MOL0     C92507   6.179  11.207   5.594 -0.0127 -0.9367  0.6211
  671MOL0     O92508   6.059  11.011   5.768  0.9536  0.7717  0.5475
  671MOL0     C92509   6.070  10.884   6.031 -0.6325 -0.6429 -0.3584
  671MOL0     C92510   6.077  10.826   6.150  0.5907  0.0218  0.4186
  671MOL0     N92511   6.550  10.588   6.780 -0.7586 -0.7075 -0.4402
  671MOL0     N92512   6.610  10.475   6.739 -0.5956 -0.9095  0.5369
  671MOL0     C92513   7.225  10.398   5.953 -0.9887 -0.4463  0.7133
  671MOL0     C92514   7.320  10.371   6.054  1.3280  0.1828  0.3400
  671MOL0     C92515   7.514  10.363   6.457 -0.2664 -0.9149 -0.3938
  671MOL0     C92516   7.648  10.409   6.488 -0.3804 -0.2699 -0.1378
  671MOL0     C92517   7.721  10.348   6.594  0.2230 -0.2479 -0.6047
  671MOL0     C92518   7.658  10.262   6.685  0.2604  0.5492 -0.4200
  671MOL0     O92519   7.734  10.212   6.784  0.5200  0.7323 -0.0756
  671MOL0     C92520   7.687  10.116   6.884 -0.3902 -0.6978  0.4670
  671MOL0     C92521   7.805  10.037   6.942  0.4190 -0.1896  1.2752
  671MOL0     C92522   7.901   9.962   6.844 -0.1981 -0.1600 -0.4357
  671MOL0     C92523   8.036   9.927   6.916  0.4823 -0.2642  0.0991
  671MOL0     C92524   8.029   9.801   6.990  1.1370 -0.1661  0.0399
  671MOL0     C92525   8.028   9.707   7.063  0.2258  1.0330 -0.5934
  671MOL0     C92526   7.520  10.234   6.659 -0.4032  0.7309  0.2629
  671MOL0     C92527   7.452  10.287   6.548 -0.0798 -0.2561  0.5959
  671MOL0     C92528   7.309  10.254   6.531 -1.2569  0.4212  0.2707
  671MOL0     H92529   7.406  10.683   6.142  0.1229 -0.5094  0.8655
  671MOL0     H92530   7.237  10.733   5.970  1.1603  0.4664  1.1591
  671MOL0     H92531   7.016  10.379   5.791  4.1114  1.4183 -1.3782
  671MOL0     H92532   6.930  10.500   5.717  0.9193 -1.1242 -0.8765
  671MOL0     H92533   6.866  10.586   5.990  3.1334 -0.0464 -0.3160
  671MOL0     H92534   6.784  10.475   5.885  0.3033  0.3823  1.6214
  671MOL0     H92535   6.792  10.356   6.053 -0.3796 -0.1263 -0.2239
  671MOL0     H92536   6.955  10.304   6.020  0.4811 -0.1479  0.9069
  671MOL0     H92537   7.037  10.502   6.168 -0.3219 -0.0306  3.2193
  671MOL0     H92538   6.878  10.512   6.216 -0.5424 -1.6058 -0.9503
  671MOL0     H92539   7.040  10.339   6.343  3.5929 -1.1796 -3.4063
  671MOL0     H92540   6.996  10.231   6.214  1.4726  0.4565  0.4244
  671MOL0     H92541   6.738  10.292   6.262 -2.0701 -3.8215  2.2649
  671MOL0     H92542   6.822  10.186   6.378 -1.8951 -1.5188 -2.5454
  671MOL0     H92543   6.768  10.487   6.420  2.0052  1.0735  1.4305
  671MOL0     H92544   6.872  10.370   6.512  0.0598 -3.0055 -0.9401
  671MOL0     H92545   6.569  10.322   6.470 -0.4970  3.4492 -0.1876
  671MOL0     H92546   6.674  10.270   6.611  3.2641  1.8793  0.9107
  671MOL0     H92547   6.466  10.561   6.453  1.3112  1.3610 -0.9068
  671MOL0     H92548   6.424  10.807   6.576 -1.5890  1.3570 -0.3309
  671MOL0     H92549   6.400  10.819   6.753  1.2778  3.5760 -2.1027
  671MOL0     H92550   6.236  10.648   6.548 -1.7062 -1.5754 -0.0785
  671MOL0     H92551   6.213  10.649   6.727 -3.0519  0.2006  0.3697
  671MOL0     H92552   6.049  10.778   6.629  1.6526 -0.6673 -1.0348
  671MOL0     H92553   6.179  10.884   6.714 -1.2777  1.7106 -0.1613
  671MOL0     H92554   6.096  10.986   6.496 -1.1890  0.0349  1.8768
  671MOL0     H92555   6.267  10.947   6.498  1.0483 -1.6187  1.9709
  671MOL0     H92556   6.258  11.064   6.309 -0.7798 -0.1373 -1.1973
  671MOL0     H92557   6.206  11.254   6.199 -3.4277  1.8181 -2.4924
  671MOL0     H92558   6.180  11.293   6.030  0.9547  0.5272 -1.3815
  671MOL0     H92559   6.334  11.230   6.057  0.5744  2.4989  0.3782
  671MOL0     H92560   6.201  11.446   5.836  1.7093  0.8779 -0.4914
  671MOL0     H92561   6.114  11.585   5.645 -2.5140 -0.6574  1.8311
  671MOL0     H92562   6.297  11.584   5.400 -1.4623 -3.5605  2.4202
  671MOL0     H92563   6.218  11.518   5.249  1.9913 -0.8029  0.7585
  671MOL0     H92564   6.261  11.773   5.276 -0.7984  1.7190  2.5833
  671MOL0     H92565   6.099  11.731   5.231 -0.9744  0.7683  0.4477
  671MOL0     H92566   6.215  11.763   5.520 -0.6390  2.4772  0.5589
  671MOL0     H92567   6.040  11.773   5.484  0.3264 -0.8234  2.6821
  671MOL0     H92568   6.130  11.972   5.329 -0.5286  0.5745  0.3565
  671MOL0     H92569   6.265  11.976   5.444  0.4288 -2.5097  2.4941
  671MOL0     H92570   6.087  12.144   5.490 -0.0001  0.1418 -0.1432
  671MOL0     H92571   5.965  12.024   5.517 -0.5904  1.3545  4.5842
  671MOL0     H92572   6.217  12.050   5.675  0.5812 -2.6112  3.3982
  671MOL0     H92573   6.089  11.928   5.708 -0.3599 -0.1608 -0.8217
  671MOL0     H92574   5.932  12.114   5.741 -1.4309  1.0942  2.0121
  671MOL0     H92575   6.039  12.230   5.704 -2.2529  0.3388  1.7102
  671MOL0     H92576   6.031  12.214   5.946 -3.6142 -1.6881  0.5429
  671MOL0     H92577   6.194  12.159   5.911 -0.1009  2.0665  0.0213
  671MOL0     H92578   6.170  11.258   5.383  0.3831 -0.4817  0.3584
  671MOL0     H92579   6.208  11.108   5.562  1.5416  0.2305 -1.9669
  671MOL0     H92580   6.036  10.826   5.945  0.6771  0.9104 -2.0033
  671MOL0     H92581   6.043  10.723   6.153 -0.7915  0.2591 -3.0794
  671MOL0     H92582   7.187  10.315   5.894  4.7332 -2.3500 -0.9693
  671MOL0     H92583   7.338  10.265   6.066 -1.5076 -0.3559  0.4861
  671MOL0     H92584   7.710  10.473   6.426 -1.0253  0.8585  0.3422
  671MOL0     H92585   7.827  10.358   6.615 -0.1019 -2.3992  2.9252
  671MOL0     H92586   7.636  10.169   6.965 -0.3809 -0.3732  0.2621
  671MOL0     H92587   7.612  10.053   6.837 -3.1359  3.3325 -1.1444
  671MOL0     H92588   7.780   9.971   7.025 -1.3258  0.4892  1.3210
  671MOL0     H92589   7.862  10.115   6.993  0.4210  0.6178  0.0836
  671MOL0     H92590   7.854   9.870   6.808  1.3637 -1.4396  0.5880
  671MOL0     H92591   7.924  10.017   6.752 -0.3300  2.0791  0.7904
  671MOL0     H92592   8.061  10.005   6.989  2.2501 -0.4066 -0.3161
  671MOL0     H92593   8.119   9.920   6.846 -1.0983 -1.4959 -1.7761
  671MOL0     H92594   8.025   9.636   7.143 -0.6226  1.1139 -0.5394
  671MOL0     H92595   7.469  10.150   6.705  3.2200 -1.2819  0.9704
  671MOL0     H92596   7.271  10.240   6.429 -0.7145 -1.8013  0.3323
  671MOL0     H92597   7.278  10.159   6.574 -0.0222  0.1220  0.5257
  671MOL0     H92598   7.264  10.339   6.583 -1.4884  1.2506 -1.2108
  672MOL0     O92599   2.216   7.456   2.069  0.0278 -0.8856  0.4173
  672MOL0     C92600   2.231   7.418   1.952 -0.0905 -0.6220 -0.4266
  672MOL0     O92601   2.199   7.490   1.842 -0.3288 -0.0952 -0.1031
  672MOL0     C92602   2.109   7.603   1.859  0.8620  1.0714 -1.0294
  672MOL0     C92603   2.160   7.722   1.818 -0.1325 -0.3808 -0.2599
  672MOL0     C92604   2.077   7.836   1.812 -0.3336  0.2323  0.3149
  672MOL0     C92605   1.946   7.830   1.862  0.9487 -0.1361  0.1606
  672MOL0     O92606   1.877   7.946   1.859  0.6357 -1.0644 -0.2831
  672MOL0     C92607   1.742   7.947   1.908 -0.2421 -0.5800 -0.2493
  672MOL0     C92608   1.674   8.083   1.893  0.0870 -1.0329 -0.0235
  672MOL0     C92609   1.525   8.069   1.909 -0.5249 -0.3320 -0.4029
  672MOL0     C92610   1.459   8.201   1.896  0.1523  0.5060 -0.8505
  672MOL0     C92611   1.530   8.322   1.967 -0.3059  0.1703  0.3784
  672MOL0     C92612   1.445   8.444   2.029 -0.2972  0.2731 -0.3676
  672MOL0     C92613   1.382   8.519   1.909 -0.0925  0.5990 -0.7017
  672MOL0     C92614   1.302   8.640   1.953 -0.9211 -0.2843 -0.2201
  672MOL0     N92615   1.169   8.632   2.009 -0.0198  0.1237  1.2596
  672MOL0     C92616   1.119   8.567   2.113 -0.3117  0.5504  0.1141
  672MOL0     C92617   0.983   8.586   2.107  0.2832  0.0563 -0.2318
  672MOL0     C92618   0.886   8.552   2.220 -0.4467  0.1813  0.2286
  672MOL0     C92619   0.867   8.668   2.318 -0.0155 -0.2461 -1.9078
  672MOL0     C92620   0.741   8.657   2.409  0.1087 -1.3251 -0.1282
  672MOL0     C92621   0.734   8.554   2.514 -0.0383  0.6593  0.5770
  672MOL0     O92622   0.740   8.419   2.456 -0.1966  0.5503  0.5270
  672MOL0     C92623   0.618   8.344   2.443  0.1506 -0.4108 -0.5246
  672MOL0     C92624   0.557   8.354   2.316  0.1611 -0.5837 -0.0147
  672MOL0     C92625   0.423   8.322   2.298 -0.6682 -0.0541 -0.7461
  672MOL0     C92626   0.361   8.359   2.172  0.7801  0.5774 -0.1303
  672MOL0     C92627   0.356   8.253   2.413 -0.2921  0.4053  0.5290
  672MOL0     C92628   0.220   8.200   2.402 -0.8353 -0.2991  0.7916
  672MOL0     O92629   0.162   8.186   2.517  0.8086  0.0581  0.1288
  672MOL0     C92630   0.032   8.149   2.515  0.2373  0.0288  0.9926
  672MOL0     C92631   0.003   8.014   2.501 -0.3190 -0.3966  0.0610
  672MOL0     C92632  -0.133   7.959   2.501 -0.8610 -0.2379  0.1185
  672MOL0     C92633  -0.231   8.049   2.514 -0.6642 -0.7836 -0.6798
  672MOL0     O92634  -0.364   8.017   2.513 -0.6825 -1.5635 -0.3396
  672MOL0     C92635  -0.406   7.925   2.603 -0.5843  0.3310 -0.9710
  672MOL0     C92636  -0.551   7.922   2.613  0.2220 -0.0553  0.3179
  672MOL0     C92637  -0.615   8.065   2.625 -0.2042 -1.3246 -0.6350
  672MOL0     C92638  -0.595   8.120   2.768 -0.1310 -0.0589 -0.0352
  672MOL0     C92639  -0.665   8.269   2.782  0.7377 -1.3359 -1.0298
  672MOL0     C92640  -0.636   8.346   2.914 -0.3525 -0.1251 -0.0941
  672MOL0     C92641  -0.693   8.272   3.040 -0.1488 -0.8245  0.0611
  672MOL0     C92642  -0.682   8.355   3.164 -0.5160 -0.0236 -0.2114
  672MOL0    Cl92643  -0.508   8.382   3.209 -0.4879 -0.2959  0.3775
  672MOL0     C92644  -0.212   8.194   2.513 -0.3774  0.6838  0.3103
  672MOL0     C92645  -0.078   8.245   2.521 -1.4683  0.9242 -0.3205
  672MOL0     O92646   0.175   8.172   2.294 -0.0457  0.4447  0.5949
  672MOL0     C92647   0.428   8.249   2.533  0.6427  0.9151 -0.0414
  672MOL0     C92648   0.559   8.289   2.551 -0.1537  0.2603  0.0847
  672MOL0     N92649   0.950   8.628   1.989  0.6548 -0.6469  0.3646
  672MOL0     N92650   1.058   8.669   1.937 -0.3450  0.0524  0.2916
  672MOL0     C92651   1.893   7.703   1.903 -1.3074  0.3685 -0.6469
  672MOL0     C92652   1.981   7.590   1.895  0.6273 -0.2526 -1.5965
  672MOL0     C92653   2.311   7.298   1.936 -0.5719 -0.4435 -0.2668
  672MOL0     C92654   2.391   7.286   1.819  1.2835 -0.3865 -0.0498
  672MOL0     C92655   2.476   7.184   1.795  0.3224 -0.7185 -0.0625
  672MOL0     C92656   2.481   7.076   1.885 -1.0615  0.2268 -0.5653
  672MOL0     O92657   2.573   6.974   1.865 -0.1440 -0.6176 -0.0876
  672MOL0     C92658   2.634   6.938   1.738  0.2574 -0.0185 -0.5845
  672MOL0     C92659   2.534   6.923   1.621 -0.1620  0.0602  0.4772
  672MOL0     C92660   2.471   6.784   1.603 -0.2517 -0.5609 -0.9373
  672MOL0     C92661   2.450   6.746   1.462  0.3402  0.2519 -0.0253
  672MOL0     C92662   2.563   6.696   1.384 -0.6992 -0.5342  0.3229
  672MOL0     C92663   2.669   6.666   1.330 -0.5965 -0.1043  0.5522
  672MOL0     C92664   2.399   7.078   2.005  1.1674 -0.0228  0.2893
  672MOL0     C92665   2.306   7.191   2.026 -0.4034  0.6016  0.2261
  672MOL0     C92666   2.220   7.173   2.148 -0.0867 -0.0017 -0.5223
  672MOL0     H92667   2.263   7.735   1.785 -0.6052  0.4025 -1.5039
  672MOL0     H92668   2.115   7.929   1.772 -3.2112  1.4948  0.2874
  672MOL0     H92669   1.756   7.918   2.013  1.1223  1.4014  0.1769
  672MOL0     H92670   1.679   7.877   1.852 -1.0825  0.1642 -0.2653
  672MOL0     H92671   1.723   8.146   1.968 -0.6013 -1.2128  0.5789
  672MOL0     H92672   1.700   8.126   1.795 -1.8583  2.4263  0.8174
  672MOL0     H92673   1.486   7.993   1.841 -0.6257 -0.2151 -0.4758
  672MOL0     H92674   1.505   8.044   2.013 -0.5992  1.1799 -0.0331
  672MOL0     H92675   1.464   8.218   1.788  0.3518 -1.2195 -1.1341
  672MOL0     H92676   1.352   8.191   1.916 -0.4499  4.6305 -1.0673
  672MOL0     H92677   1.603   8.364   1.897  0.2553  2.7223  2.3304
  672MOL0     H92678   1.583   8.281   2.054  0.6136  1.8506  0.6523
  672MOL0     H92679   1.364   8.415   2.096 -0.3386  1.0326 -0.0697
  672MOL0     H92680   1.509   8.509   2.090  0.6168 -0.1905 -0.8035
  672MOL0     H92681   1.317   8.445   1.861  0.4598 -1.9990  2.2530
  672MOL0     H92682   1.462   8.546   1.839 -0.4824 -0.3602 -1.5482
  672MOL0     H92683   1.373   8.694   2.017 -1.6002  3.1380 -2.0820
  672MOL0     H92684   1.283   8.711   1.871 -5.2315 -2.4306 -1.3961
  672MOL0     H92685   1.177   8.518   2.191 -4.2477  0.5157  3.3717
  672MOL0     H92686   0.923   8.459   2.265 -0.1194  0.1613 -0.0778
  672MOL0     H92687   0.784   8.535   2.183 -2.2198  3.1681  3.1801
  672MOL0     H92688   0.951   8.686   2.385 -2.2094  1.1353  0.6805
  672MOL0     H92689   0.869   8.758   2.256  3.2125  2.9628  2.2355
  672MOL0     H92690   0.735   8.746   2.473 -2.7386 -1.4870 -0.0450
  672MOL0     H92691   0.657   8.653   2.339  0.2131 -1.6930 -0.2342
  672MOL0     H92692   0.813   8.576   2.586  1.7463  2.4309 -1.7505
  672MOL0     H92693   0.645   8.548   2.578  0.6232  0.9479  1.5377
  672MOL0     H92694   0.616   8.400   2.237  1.4828 -0.4139  1.0208
  672MOL0     H92695   0.329   8.264   2.130 -2.5255  0.4845  2.1949
  672MOL0     H92696   0.427   8.414   2.104  2.4700 -2.2826 -0.9530
  672MOL0     H92697   0.270   8.414   2.197  0.1511 -0.7344  0.5812
  672MOL0     H92698   0.092   7.955   2.485 -1.0738 -0.6151 -4.5446
  672MOL0     H92699  -0.136   7.854   2.474 -4.1898 -0.2689  0.1654
  672MOL0     H92700  -0.361   7.832   2.568 -2.8973 -0.2173 -2.7535
  672MOL0     H92701  -0.377   7.954   2.704  0.7152 -2.6851 -0.3811
  672MOL0     H92702  -0.593   7.864   2.530  0.4969 -0.5287  0.5028
  672MOL0     H92703  -0.589   7.871   2.703 -0.9497  0.8722  0.3663
  672MOL0     H92704  -0.722   8.054   2.610 -0.2470 -0.8547 -0.6744
  672MOL0     H92705  -0.568   8.137   2.557 -1.8095 -1.2400 -1.6865
  672MOL0     H92706  -0.488   8.127   2.784 -0.3264 -1.0016  1.9039
  672MOL0     H92707  -0.640   8.052   2.840 -3.6074 -0.1904 -2.0831
  672MOL0     H92708  -0.653   8.332   2.694  3.3023 -0.0182  0.1511
  672MOL0     H92709  -0.771   8.246   2.769  0.6973  0.1052 -3.8876
  672MOL0     H92710  -0.673   8.448   2.904 -1.6499 -0.6843 -1.1855
  672MOL0     H92711  -0.527   8.339   2.928 -0.5146 -5.4349  0.6339
  672MOL0     H92712  -0.651   8.172   3.053 -1.9614 -1.2675  3.3150
  672MOL0     H92713  -0.802   8.262   3.042 -0.6208  2.9386  0.4693
  672MOL0     H92714  -0.738   8.303   3.242  2.1267 -0.2358  1.6496
  672MOL0     H92715  -0.721   8.457   3.154 -0.7717  0.2250  2.5787
  672MOL0     H92716  -0.300   8.257   2.516 -1.9403 -1.3597 -0.1222
  672MOL0     H92717  -0.049   8.348   2.535  2.2991 -0.2873  2.4712
  672MOL0     H92718   0.381   8.205   2.620  1.0481 -1.8963 -1.1397
  672MOL0     H92719   0.589   8.291   2.655 -4.1742 -0.0917  1.4038
  672MOL0     H92720   1.794   7.685   1.944 -0.3565 -3.6266  0.3280
  672MOL0     H92721   1.935   7.494   1.919  1.1899 -0.4489 -1.2824
  672MOL0     H92722   2.383   7.371   1.751 -3.1765  0.8552  1.6909
  672MOL0     H92723   2.545   7.188   1.712  2.2917 -2.6637  1.3718
  672MOL0     H92724   2.713   7.011   1.719  0.3178 -0.7445 -3.6649
  672MOL0     H92725   2.684   6.842   1.752  0.3463 -0.3412 -2.7227
  672MOL0     H92726   2.607   6.947   1.543 -1.0916  0.3121 -0.3206
  672MOL0     H92727   2.461   7.004   1.630  0.7491  0.8906  0.6285
  672MOL0     H92728   2.546   6.720   1.651  2.3744  3.2096  0.4713
  672MOL0     H92729   2.372   6.785   1.649  0.5476  1.8137  0.9634
  672MOL0     H92730   2.409   6.835   1.413  0.4946 -0.3535 -1.2796
  672MOL0     H92731   2.396   6.651   1.464  0.3299  0.2027 -1.7151
  672MOL0     H92732   2.764   6.643   1.287  0.9175 -0.9639  3.9467
  672MOL0     H92733   2.399   6.989   2.067  0.4981 -1.0757 -1.1687
  672MOL0     H92734   2.227   7.256   2.219 -1.7735 -0.3830  0.1298
  672MOL0     H92735   2.117   7.154   2.117 -0.5686  1.6838 -0.0257
  672MOL0     H92736   2.243   7.088   2.214  1.9280  1.3310  0.6197
  673MOL0     O92737  10.781  11.609   7.473  0.4043 -0.2477 -0.0123
  673MOL0     C92738  10.821  11.505   7.525  0.3488 -0.1598  0.4553
  673MOL0     O92739  10.879  11.496   7.654 -0.1372 -0.0672  0.6914
  673MOL0     C92740  10.801  11.532   7.762  0.1099 -0.6516  0.0990
  673MOL0     C92741  10.664  11.585   7.753  0.2499  0.2869 -0.0682
  673MOL0     C92742  10.598  11.632   7.866  0.0166 -0.5928  0.2894
  673MOL0     C92743  10.653  11.613   7.993  0.2167 -0.2154 -0.4819
  673MOL0     O92744  10.589  11.662   8.105 -0.4673 -0.7849 -0.8010
  673MOL0     C92745  10.631  11.643   8.237  0.0711  0.2852 -0.6366
  673MOL0     C92746  10.518  11.701   8.333 -0.6455  0.4729 -0.1694
  673MOL0     C92747  10.393  11.616   8.341 -0.4814 -0.0259  0.5015
  673MOL0     C92748  10.394  11.514   8.461 -0.0954 -0.0991  0.2093
  673MOL0     C92749  10.287  11.411   8.469  0.1461  0.1012 -0.4844
  673MOL0     C92750  10.263  11.328   8.343 -0.4055 -0.0289  0.5407
  673MOL0     C92751  10.107  11.298   8.337 -0.1682  0.1084  0.3275
  673MOL0     C92752  10.055  11.205   8.448  0.3642  0.7366 -0.1513
  673MOL0     N92753   9.919  11.180   8.407  1.1084  0.4786  0.3712
  673MOL0     C92754   9.800  11.245   8.441 -1.1892 -0.9320  0.1169
  673MOL0     C92755   9.711  11.185   8.371  0.9789 -0.4491  0.6144
  673MOL0     C92756   9.568  11.225   8.366 -1.1495 -0.5407 -0.3584
  673MOL0     C92757   9.538  11.345   8.275 -0.7881 -0.3532  0.2012
  673MOL0     C92758   9.406  11.332   8.188  0.0952 -0.6160  0.7660
  673MOL0     C92759   9.263  11.312   8.245 -0.5221 -0.6859 -0.1681
  673MOL0     O92760   9.172  11.295   8.132 -0.6195  0.3513  0.4774
  673MOL0     C92761   9.041  11.313   8.148 -1.5775  0.5015 -0.4275
  673MOL0     C92762   8.975  11.309   8.273 -0.5164  1.1640  0.7015
  673MOL0     C92763   8.839  11.334   8.272  0.0232  0.4222  0.3570
  673MOL0     C92764   8.765  11.358   8.406 -0.0193 -0.2970  0.0517
  673MOL0     C92765   8.767  11.368   8.153  0.2161  0.3997 -0.0744
  673MOL0     C92766   8.631  11.428   8.142 -0.1059  0.0680  0.2103
  673MOL0     O92767   8.535  11.400   8.238  0.9779 -0.7269  0.5166
  673MOL0     C92768   8.401  11.423   8.219  0.6392 -0.8803  0.3272
  673MOL0     C92769   8.327  11.504   8.306  0.0807  0.3329 -0.0279
  673MOL0     C92770   8.192  11.531   8.281  0.5344 -0.5277 -0.1123
  673MOL0     C92771   8.117  11.460   8.182  0.1352 -0.0723  0.3457
  673MOL0     O92772   7.984  11.491   8.155  0.0923  0.5737  0.3607
  673MOL0     C92773   7.904  11.406   8.072 -0.3602  0.3482  0.2426
  673MOL0     C92774   7.765  11.462   8.098  0.6696  0.8128  0.5565
  673MOL0     C92775   7.652  11.368   8.050  0.7122 -0.1606  0.2907
  673MOL0     C92776   7.513  11.422   8.102 -0.1408 -0.3337  0.3395
  673MOL0     C92777   7.405  11.343   8.030  0.3694 -0.1748  0.0960
  673MOL0     C92778   7.265  11.377   8.083 -0.1382  1.1682  0.2413
  673MOL0     C92779   7.167  11.287   8.008  0.2565 -0.4564 -0.8309
  673MOL0     C92780   7.029  11.272   8.090  0.3446  0.4714  0.2167
  673MOL0    Cl92781   6.929  11.161   7.990  0.2094  0.1339  0.4415
  673MOL0     C92782   8.188  11.373   8.104 -0.5505 -0.5266  0.3741
  673MOL0     C92783   8.324  11.350   8.125 -0.9701 -0.5953  0.0320
  673MOL0     O92784   8.608  11.491   8.030  0.6000  1.2098 -0.6733
  673MOL0     C92785   8.843  11.357   8.033 -0.0491 -0.0415 -0.0325
  673MOL0     C92786   8.980  11.337   8.028  0.1892  0.0227  0.0540
  673MOL0     N92787   9.764  11.086   8.284  0.2124  1.0260  0.5251
  673MOL0     N92788   9.892  11.079   8.311 -0.3028  0.1311 -0.7454
  673MOL0     C92789  10.781  11.557   7.999 -0.3934  1.0702  0.5428
  673MOL0     C92790  10.854  11.519   7.888  0.6842  0.6228  1.0326
  673MOL0     C92791  10.830  11.379   7.440 -0.4842  0.8897 -1.0904
  673MOL0     C92792  10.930  11.288   7.478 -0.4772  0.5986  0.1435
  673MOL0     C92793  10.962  11.174   7.398  0.1270 -0.4280 -0.4478
  673MOL0     C92794  10.877  11.133   7.300  0.6986 -0.6138  0.4249
  673MOL0     O92795  10.909  11.016   7.237 -0.1131 -0.1081  0.7052
  673MOL0     C92796  10.826  10.963   7.121 -0.1034 -0.7687 -0.4249
  673MOL0     C92797  10.863  10.817   7.096 -0.0996 -0.6408 -0.2583
  673MOL0     C92798  11.007  10.803   7.033  0.7030  0.9955  0.1321
  673MOL0     C92799  11.115  10.822   7.135  0.1789  0.1931  0.0365
  673MOL0     C92800  11.236  10.791   7.062 -1.2169  1.0597  0.4051
  673MOL0     C92801  11.333  10.756   6.994  0.2487 -0.2637 -0.9457
  673MOL0     C92802  10.785  11.233   7.253 -0.4662  0.5939  0.3877
  673MOL0     C92803  10.763  11.354   7.316  0.1313 -1.1803 -0.3564
  673MOL0     C92804  10.641  11.441   7.262  0.5785  0.3310  0.1940
  673MOL0     H92805  10.619  11.578   7.655  1.1893 -0.6289 -0.4515
  673MOL0     H92806  10.496  11.668   7.857  0.2347  0.3717  1.4215
  673MOL0     H92807  10.718  11.708   8.242 -0.0701  0.5124 -1.0153
  673MOL0     H92808  10.658  11.543   8.270  2.9680  0.5722 -1.8237
  673MOL0     H92809  10.562  11.712   8.432  0.6503 -0.1640 -0.6518
  673MOL0     H92810  10.493  11.802   8.301 -0.4804  1.9349  3.7573
  673MOL0     H92811  10.316  11.688   8.371  0.7992  0.1920  3.6773
  673MOL0     H92812  10.377  11.570   8.243 -2.2253  0.3165  0.6018
  673MOL0     H92813  10.496  11.475   8.452  0.2755  0.9905 -0.5694
  673MOL0     H92814  10.397  11.571   8.554  0.0163 -1.1066  0.8355
  673MOL0     H92815  10.200  11.476   8.484 -0.9322 -1.2578 -0.6243
  673MOL0     H92816  10.294  11.343   8.554 -3.1039  1.4508  1.0527
  673MOL0     H92817  10.289  11.372   8.247 -0.3235  1.3416  1.1724
  673MOL0     H92818  10.314  11.234   8.364 -1.6265 -0.6254  0.9430
  673MOL0     H92819  10.084  11.256   8.239  1.1576 -0.2324  0.1482
  673MOL0     H92820  10.044  11.386   8.358  0.0196  0.0428  1.2264
  673MOL0     H92821  10.126  11.122   8.458 -2.5923 -1.7143  3.2855
  673MOL0     H92822  10.044  11.252   8.546 -1.2233 -0.3122  0.2052
  673MOL0     H92823   9.803  11.332   8.505 -0.7009 -0.3398 -0.6892
  673MOL0     H92824   9.544  11.254   8.469  2.0106  0.3111  0.2748
  673MOL0     H92825   9.509  11.135   8.344 -2.7736  0.2545  0.5555
  673MOL0     H92826   9.516  11.434   8.335 -0.4548 -1.7918  2.6102
  673MOL0     H92827   9.630  11.364   8.218 -1.6422 -1.0040 -1.4750
  673MOL0     H92828   9.401  11.428   8.137 -0.5860 -0.7681  0.5327
  673MOL0     H92829   9.431  11.266   8.104 -0.6266 -0.3706  0.3466
  673MOL0     H92830   9.253  11.230   8.317 -0.6811  0.7041  1.4339
  673MOL0     H92831   9.250  11.411   8.288  2.2862 -0.1815 -0.2520
  673MOL0     H92832   9.034  11.301   8.363  1.3522 -0.8565 -0.5808
  673MOL0     H92833   8.837  11.372   8.487  0.4465  0.8347 -0.5391
  673MOL0     H92834   8.695  11.274   8.415 -2.3884  1.4191 -1.0825
  673MOL0     H92835   8.706  11.450   8.408  0.9731  0.3835 -0.8578
  673MOL0     H92836   8.373  11.548   8.393  2.1371 -0.1455 -0.8113
  673MOL0     H92837   8.147  11.613   8.335  2.7239  0.2131  0.6527
  673MOL0     H92838   7.910  11.409   7.963 -2.1795 -0.7907  0.0731
  673MOL0     H92839   7.920  11.302   8.100  1.8216  0.1135 -1.5692
  673MOL0     H92840   7.753  11.488   8.203 -0.2598  1.0233  0.4046
  673MOL0     H92841   7.763  11.556   8.042  2.6206  1.4499  1.4670
  673MOL0     H92842   7.668  11.265   8.083  2.8011  0.2498  0.7057
  673MOL0     H92843   7.655  11.361   7.940 -0.6384  3.3087 -0.0962
  673MOL0     H92844   7.497  11.530   8.095 -0.8533 -0.2836  2.2942
  673MOL0     H92845   7.500  11.387   8.205  1.2004  1.0080  1.0122
  673MOL0     H92846   7.409  11.364   7.922  0.1694  1.3150  0.3588
  673MOL0     H92847   7.426  11.237   8.046 -0.1981 -0.5692 -1.5022
  673MOL0     H92848   7.239  11.475   8.042  3.3858  2.0231 -0.3026
  673MOL0     H92849   7.255  11.366   8.191 -2.3393  2.3066  0.2074
  673MOL0     H92850   7.205  11.188   7.981 -0.6620 -0.8001 -0.8875
  673MOL0     H92851   7.138  11.338   7.916  7.0717  3.8295 -1.2717
  673MOL0     H92852   6.970  11.364   8.095 -0.8966 -0.1845 -1.2547
  673MOL0     H92853   7.036  11.227   8.189 -0.9367  0.9536  0.5477
  673MOL0     H92854   8.131  11.301   8.046 -1.3506 -3.0250  3.8834
  673MOL0     H92855   8.370  11.283   8.053  0.5015  1.8850 -1.5153
  673MOL0     H92856   8.797  11.398   7.943 -0.5068  0.8982  0.6054
  673MOL0     H92857   9.034  11.350   7.935 -4.3676 -1.4120 -3.1755
  673MOL0     H92858  10.828  11.534   8.093 -1.3536 -1.3810  0.4889
  673MOL0     H92859  10.957  11.488   7.900  1.7248  2.9104 -1.0894
  673MOL0     H92860  10.981  11.307   7.572  1.1062 -2.0694 -0.0840
  673MOL0     H92861  11.045  11.117   7.438 -1.0746 -0.3974  2.3529
  673MOL0     H92862  10.718  10.973   7.136  0.2886  1.0204  1.7993
  673MOL0     H92863  10.848  11.020   7.030  2.7934  2.1992  1.8834
  673MOL0     H92864  10.786  10.766   7.037 -2.1035  2.1520 -0.2686
  673MOL0     H92865  10.866  10.779   7.198 -0.4484  1.9461  0.8080
  673MOL0     H92866  11.012  10.700   6.997 -0.4192  1.0575 -0.2211
  673MOL0     H92867  11.029  10.872   6.951  1.1897  0.2378 -0.3792
  673MOL0     H92868  11.105  10.751   7.217  2.4232  1.8043  1.8309
  673MOL0     H92869  11.115  10.925   7.174 -1.7890 -0.3036  1.4753
  673MOL0     H92870  11.418  10.752   6.929  1.5226  1.1647  0.5221
  673MOL0     H92871  10.731  11.220   7.159 -2.2504  0.9813  1.3130
  673MOL0     H92872  10.642  11.547   7.289 -0.4990 -0.2945  2.9986
  673MOL0     H92873  10.639  11.436   7.153 -0.0539 -3.4585  0.2416
  673MOL0     H92874  10.547  11.396   7.295 -0.7660  2.9406  0.1405
  674MOL0     O92875   3.012   5.193   1.475  0.9851  0.7189  0.0783
  674MOL0     C92876   2.905   5.133   1.457 -0.3286 -0.5424  0.4078
  674MOL0     O92877   2.882   5.010   1.502  0.2837 -0.4893  0.9534
  674MOL0     C92878   2.976   4.911   1.508  0.5633 -0.4291 -0.4596
  674MOL0     C92879   2.959   4.812   1.606  0.5243  0.5066 -0.1003
  674MOL0     C92880   3.028   4.691   1.611 -0.4664 -0.9249  0.0174
  674MOL0     C92881   3.133   4.681   1.521 -0.2905  1.2851  0.1089
  674MOL0     O92882   3.200   4.555   1.528 -0.2077 -0.0986 -0.2229
  674MOL0     C92883   3.322   4.535   1.454  0.1115  0.2874 -0.0936
  674MOL0     C92884   3.406   4.425   1.513  0.2255  0.1642  0.0048
  674MOL0     C92885   3.429   4.424   1.665  0.0685  0.6454  0.0899
  674MOL0     C92886   3.478   4.559   1.721 -0.3803 -0.5114  0.1788
  674MOL0     C92887   3.459   4.562   1.872 -0.4250  0.2001  0.4263
  674MOL0     C92888   3.314   4.576   1.932  0.3388 -0.1671 -0.2678
  674MOL0     C92889   3.249   4.718   1.931  0.4820 -0.2073  0.3669
  674MOL0     C92890   3.136   4.741   2.043  0.2060 -0.2549 -0.4559
  674MOL0     N92891   3.022   4.662   2.006 -0.5165 -0.6555 -0.5850
  674MOL0     C92892   2.988   4.533   2.026 -0.6772  0.3108 -0.5177
  674MOL0     C92893   2.867   4.517   1.977 -0.1529  0.8520 -0.0816
  674MOL0     C92894   2.787   4.388   1.954  0.7885 -0.5262 -0.2264
  674MOL0     C92895   2.863   4.270   2.005 -0.9291 -0.0840  0.2281
  674MOL0     C92896   2.781   4.140   1.994  1.2050 -0.2230  0.8373
  674MOL0     C92897   2.853   4.043   2.058  0.0384  0.2526  1.1794
  674MOL0     O92898   2.795   3.915   2.027  0.3673  0.0317  0.5988
  674MOL0     C92899   2.840   3.805   2.094  0.3652 -0.2122  0.0087
  674MOL0     C92900   2.778   3.678   2.068 -0.6245  0.3669 -0.2633
  674MOL0     C92901   2.830   3.556   2.123  0.2825 -0.2381 -0.3714
  674MOL0     C92902   2.758   3.430   2.071 -0.2897 -0.3220 -0.1616
  674MOL0     C92903   2.932   3.565   2.223 -0.7052 -0.7366  0.3046
  674MOL0     C92904   3.000   3.453   2.282  0.1167 -0.7404  0.4741
  674MOL0     O92905   3.098   3.477   2.376 -0.1853  0.3590 -0.6600
  674MOL0     C92906   3.166   3.373   2.432  1.1559 -0.4430  0.0390
  674MOL0     C92907   3.297   3.322   2.393 -0.1259  0.3743 -0.1906
  674MOL0     C92908   3.361   3.216   2.448 -0.4713 -0.2548  0.1528
  674MOL0     C92909   3.310   3.167   2.570  0.0614  0.4271  0.5548
  674MOL0     O92910   3.373   3.061   2.634  0.1756  0.2644 -0.4797
  674MOL0     C92911   3.273   2.964   2.675 -0.3223 -0.4046 -0.1409
  674MOL0     C92912   3.338   2.829   2.716 -0.8323 -0.4459  0.2484
  674MOL0     C92913   3.252   2.750   2.811  0.4449 -1.2754 -0.0342
  674MOL0     C92914   3.334   2.644   2.884 -1.1037  0.2349 -0.5769
  674MOL0     C92915   3.259   2.569   2.998 -0.2482 -0.3416  0.5434
  674MOL0     C92916   3.162   2.459   2.953  0.4601 -0.9557  0.9378
  674MOL0     C92917   3.085   2.397   3.068  0.6407  0.8201  0.1091
  674MOL0     C92918   3.006   2.271   3.037  0.3095 -0.0182  0.8015
  674MOL0    Cl92919   2.861   2.294   2.940 -0.1307 -0.3978  0.4024
  674MOL0     C92920   3.176   3.219   2.614  0.6401 -0.4254  0.3584
  674MOL0     C92921   3.108   3.324   2.547 -0.2533  0.5536  0.4056
  674MOL0     O92922   2.971   3.336   2.235 -0.2188  0.0356  0.1593
  674MOL0     C92923   2.996   3.693   2.242 -0.1944  0.1272 -0.1363
  674MOL0     C92924   2.956   3.807   2.173 -0.0738  0.1662  0.1497
  674MOL0     N92925   2.828   4.644   1.941  0.1651  0.1670 -0.4685
  674MOL0     N92926   2.921   4.729   1.956 -0.5369 -0.5736  0.2681
  674MOL0     C92927   3.148   4.768   1.411  0.5103 -0.4528  0.5013
  674MOL0     C92928   3.065   4.881   1.399 -0.5377  0.1505  0.0134
  674MOL0     C92929   2.792   5.214   1.421 -0.4574  0.0795  0.1107
  674MOL0     C92930   2.670   5.176   1.457 -0.1656  0.6148  0.0386
  674MOL0     C92931   2.553   5.253   1.426 -0.2152  0.0595  0.6401
  674MOL0     C92932   2.563   5.356   1.332 -0.1869 -0.0607 -0.0922
  674MOL0     O92933   2.448   5.417   1.309 -0.0316  0.1815  0.5626
  674MOL0     C92934   2.439   5.535   1.223 -0.1045 -0.0559 -0.7047
  674MOL0     C92935   2.408   5.490   1.082 -0.6292 -1.4339  0.0118
  674MOL0     C92936   2.425   5.606   0.983  0.1390 -0.7172 -0.7433
  674MOL0     C92937   2.426   5.552   0.845 -0.5344 -0.2236  0.4070
  674MOL0     C92938   2.556   5.486   0.809  1.0455 -0.0480 -0.0491
  674MOL0     C92939   2.661   5.452   0.766  0.5985  0.8627 -0.6150
  674MOL0     C92940   2.684   5.384   1.266 -0.1737  0.1762  0.7329
  674MOL0     C92941   2.800   5.331   1.318 -0.1090  0.3185 -0.7601
  674MOL0     C92942   2.927   5.391   1.275  0.2459 -0.3713  0.8225
  674MOL0     H92943   2.886   4.816   1.686  2.0265 -5.6447  2.1619
  674MOL0     H92944   3.015   4.617   1.689  1.7074 -0.1669  1.1840
  674MOL0     H92945   3.383   4.626   1.461  0.7218 -0.1248 -0.0282
  674MOL0     H92946   3.301   4.511   1.349 -0.7938 -0.7514  0.3088
  674MOL0     H92947   3.353   4.332   1.491  1.2394  0.0612 -2.2535
  674MOL0     H92948   3.493   4.430   1.446  0.8176  0.3847  0.7725
  674MOL0     H92949   3.334   4.394   1.711  0.9416 -3.0144 -0.1564
  674MOL0     H92950   3.500   4.343   1.683 -1.8746 -1.1642  0.1438
  674MOL0     H92951   3.582   4.563   1.687 -1.3910 -0.0794 -3.2679
  674MOL0     H92952   3.414   4.635   1.674  1.1569 -0.5266 -2.0950
  674MOL0     H92953   3.527   4.639   1.909 -1.4829  0.4570  1.9019
  674MOL0     H92954   3.499   4.470   1.915 -1.5588 -1.3346 -1.5870
  674MOL0     H92955   3.248   4.509   1.875  2.8553 -2.7910 -0.3123
  674MOL0     H92956   3.314   4.545   2.037 -0.4123  2.1875  0.4996
  674MOL0     H92957   3.196   4.727   1.836  2.0087 -0.3249 -0.5225
  674MOL0     H92958   3.336   4.783   1.943  1.5815 -1.0242 -2.5010
  674MOL0     H92959   3.173   4.717   2.143 -0.1601 -0.1514 -0.2934
  674MOL0     H92960   3.114   4.848   2.044  2.0945  0.1674 -0.7798
  674MOL0     H92961   3.062   4.463   2.064 -1.1362 -0.3866 -0.8961
  674MOL0     H92962   2.787   4.358   1.849  0.0701  1.0302 -0.6948
  674MOL0     H92963   2.682   4.401   1.982  0.1354  3.4206 -3.5901
  674MOL0     H92964   2.958   4.247   1.955 -0.3503  1.7930  0.3749
  674MOL0     H92965   2.894   4.290   2.108 -1.2613  2.1171 -0.0349
  674MOL0     H92966   2.684   4.136   2.046  0.1259  0.1757 -1.0573
  674MOL0     H92967   2.763   4.103   1.893 -0.1367 -0.3981  1.1137
  674MOL0     H92968   2.956   4.026   2.027 -0.1457  1.3558 -0.1468
  674MOL0     H92969   2.862   4.058   2.166 -1.1614  2.9421  0.9901
  674MOL0     H92970   2.705   3.676   1.987 -0.5022 -2.0497 -0.3833
  674MOL0     H92971   2.833   3.370   2.020 -0.0145 -1.0526  1.0545
  674MOL0     H92972   2.670   3.464   2.015  0.1069 -0.8842 -1.1431
  674MOL0     H92973   2.718   3.365   2.149  0.1871  0.8490  1.0970
  674MOL0     H92974   3.354   3.367   2.312 -2.2165 -0.8932 -2.4959
  674MOL0     H92975   3.461   3.197   2.409 -0.4601  1.0253 -0.4981
  674MOL0     H92976   3.210   2.998   2.757 -1.7523  0.7055 -1.6287
  674MOL0     H92977   3.204   2.935   2.595 -1.5838  0.3203  0.6577
  674MOL0     H92978   3.358   2.790   2.616  1.8525  4.3900 -1.4178
  674MOL0     H92979   3.440   2.845   2.753 -0.1841  0.4608 -1.8085
  674MOL0     H92980   3.174   2.699   2.752 -1.6138 -0.4431  1.8089
  674MOL0     H92981   3.198   2.810   2.885  0.8780  0.4409 -1.0645
  674MOL0     H92982   3.414   2.700   2.933  1.3347 -0.5975 -3.3210
  674MOL0     H92983   3.372   2.575   2.808 -2.4242  0.6499 -1.6618
  674MOL0     H92984   3.333   2.528   3.067  0.1187  2.0290  1.6649
  674MOL0     H92985   3.209   2.647   3.056  2.0174  1.9521 -0.4135
  674MOL0     H92986   3.228   2.385   2.907 -0.0094  0.4409 -2.2748
  674MOL0     H92987   3.098   2.506   2.878  2.6084 -0.0644 -0.4336
  674MOL0     H92988   3.017   2.464   3.121  1.3529  1.5796  0.0738
  674MOL0     H92989   3.158   2.366   3.143 -1.2570 -1.6576  1.0955
  674MOL0     H92990   2.979   2.226   3.132 -0.8386 -0.4474  0.2959
  674MOL0     H92991   3.073   2.195   2.995  0.7779  0.7508  0.0890
  674MOL0     H92992   3.139   3.174   2.706  0.1902  1.5840  1.2272
  674MOL0     H92993   3.016   3.364   2.589 -0.2766  2.7477 -1.4983
  674MOL0     H92994   3.079   3.692   2.311 -2.5868 -0.7193  2.9515
  674MOL0     H92995   3.032   3.885   2.175  1.0597 -0.7395 -2.9726
  674MOL0     H92996   3.217   4.751   1.329  1.4854  2.6561  0.5391
  674MOL0     H92997   3.073   4.949   1.315  0.1721  0.1317  0.0610
  674MOL0     H92998   2.640   5.100   1.529  1.6904  0.3321  0.5717
  674MOL0     H92999   2.452   5.243   1.466 -1.0223  0.9627 -1.0483
  674MOL0     H93000   2.362   5.601   1.264 -0.4326 -1.8039  1.7472
  674MOL0     H93001   2.539   5.580   1.221  1.0907 -2.5643 -1.5049
  674MOL0     H93002   2.307   5.450   1.073 -0.2381 -2.8654  1.4529
  674MOL0     H93003   2.478   5.411   1.053  0.2059 -0.8690  0.4601
  674MOL0     H93004   2.345   5.679   1.000 -0.2848 -1.0953 -1.0729
  674MOL0     H93005   2.516   5.666   0.993 -0.3712 -0.0572  0.1839
  674MOL0     H93006   2.416   5.625   0.763  6.9202  0.4854 -0.6085
  674MOL0     H93007   2.349   5.475   0.847 -0.5902 -0.2059 -0.5480
  674MOL0     H93008   2.757   5.423   0.730  0.5743 -0.2640  0.1837
  674MOL0     H93009   2.690   5.443   1.175  1.4027 -0.6241  0.2894
  674MOL0     H93010   2.903   5.471   1.205  1.7036 -0.3537  0.3163
  674MOL0     H93011   2.992   5.430   1.354  0.3132 -0.7499  0.9615
  674MOL0     H93012   2.988   5.316   1.224 -2.3440 -0.2346 -2.8445
  675MOL0     O93013   9.241   3.172  11.612  0.1430 -0.8140  0.2030
  675MOL0     C93014   9.285   3.200  11.726  0.3364 -0.6192 -1.0265
  675MOL0     O93015   9.371   3.307  11.759 -0.5992  0.2879  0.0414
  675MOL0     C93016   9.397   3.376  11.649 -1.0122  0.1251  0.8840
  675MOL0     C93017   9.327   3.490  11.626  0.1716  0.4415 -0.6030
  675MOL0     C93018   9.355   3.572  11.517 -0.4860 -0.3205  1.5139
  675MOL0     C93019   9.443   3.536  11.422 -0.5217  0.2733  0.7799
  675MOL0     O93020   9.475   3.624  11.318  0.4368  0.0251  0.0161
  675MOL0     C93021   9.401   3.595  11.197 -0.3143  1.0234 -0.5188
  675MOL0     C93022   9.403   3.696  11.082  0.1972 -0.4402 -1.3761
  675MOL0     C93023   9.323   3.665  10.955 -0.1550 -0.8345  0.8819
  675MOL0     C93024   9.321   3.794  10.884 -0.7025  0.5312 -0.1153
  675MOL0     C93025   9.221   3.785  10.758  0.0796 -0.0721 -1.1888
  675MOL0     C93026   9.255   3.897  10.658 -0.4419  0.6022  0.8618
  675MOL0     C93027   9.182   4.023  10.698  0.9907 -0.2681 -0.6191
  675MOL0     C93028   9.201   4.135  10.602 -1.1874  0.5530 -0.5855
  675MOL0     N93029   9.158   4.097  10.470 -0.5117  0.2459 -0.0904
  675MOL0     C93030   9.042   4.135  10.410  0.1757 -0.3764  1.4119
  675MOL0     C93031   9.043   4.079  10.288 -0.0158  0.2049 -0.2100
  675MOL0     C93032   8.939   4.107  10.180 -0.8430  0.7905 -0.3714
  675MOL0     C93033   8.951   4.252  10.131  0.3607 -0.2569  0.7421
  675MOL0     C93034   8.830   4.338  10.190 -0.5548 -0.2470 -0.6389
  675MOL0     C93035   8.698   4.316  10.118  0.6090 -0.1098  0.7798
  675MOL0     O93036   8.724   4.370   9.985  0.0504  0.4455 -0.0232
  675MOL0     C93037   8.666   4.488   9.953 -0.5543  0.5063 -0.0462
  675MOL0     C93038   8.612   4.499   9.827 -0.5150  0.6193 -0.3384
  675MOL0     C93039   8.544   4.617   9.787 -0.0066  0.0951 -0.7452
  675MOL0     C93040   8.481   4.610   9.655 -0.1998  0.4773  0.2408
  675MOL0     C93041   8.544   4.735   9.870  0.1594 -0.2299 -0.5520
  675MOL0     C93042   8.501   4.866   9.815 -0.3298  0.2001  0.5633
  675MOL0     O93043   8.512   4.968   9.909 -0.3065  1.0098 -0.4175
  675MOL0     C93044   8.542   5.088   9.847  0.3320  0.5204  0.2194
  675MOL0     C93045   8.467   5.194   9.887 -0.4425  0.1754  0.5744
  675MOL0     C93046   8.490   5.316   9.824 -0.1606 -0.6793  0.1256
  675MOL0     C93047   8.586   5.346   9.728 -0.2611 -0.8430  0.6886
  675MOL0     O93048   8.618   5.465   9.676  0.4817  0.2157 -0.4601
  675MOL0     C93049   8.614   5.557   9.784  0.1352 -1.7149 -0.1081
  675MOL0     C93050   8.681   5.680   9.720 -0.4251 -0.5912  0.5460
  675MOL0     C93051   8.834   5.639   9.688 -0.2262  0.1546  0.2712
  675MOL0     C93052   8.915   5.747   9.605  0.3041 -0.4329 -0.8096
  675MOL0     C93053   8.968   5.850   9.704 -0.6349 -0.2766 -0.1691
  675MOL0     C93054   9.064   5.960   9.631  0.7335 -0.2856 -0.2685
  675MOL0     C93055   9.132   6.050   9.741  0.5972  0.5069 -0.2846
  675MOL0     C93056   9.146   6.188   9.687  0.9295 -0.0067  0.7637
  675MOL0    Cl93057   9.273   6.192   9.556  0.2017  0.0085  0.4153
  675MOL0     C93058   8.655   5.236   9.693 -0.0936 -0.1424 -0.0299
  675MOL0     C93059   8.642   5.111   9.751 -0.3343 -0.2231  0.3467
  675MOL0     O93060   8.457   4.881   9.699 -0.1024 -0.2169  0.1961
  675MOL0     C93061   8.606   4.721   9.995 -0.8093 -1.2891  0.6011
  675MOL0     C93062   8.653   4.597  10.037 -0.6372  0.2465 -1.0402
  675MOL0     N93063   9.151   3.995  10.277  0.0199 -0.7946 -0.7637
  675MOL0     N93064   9.224   4.016  10.381  0.1053  0.1622  0.8043
  675MOL0     C93065   9.531   3.433  11.452  0.4691  0.3610  0.1469
  675MOL0     C93066   9.509   3.356  11.564 -0.4186 -0.0817  0.1874
  675MOL0     C93067   9.243   3.116  11.841  0.1640  0.8065  0.3505
  675MOL0     C93068   9.266   3.162  11.964 -0.8550  0.0135  0.1550
  675MOL0     C93069   9.231   3.091  12.078 -0.1582 -0.8398 -0.5132
  675MOL0     C93070   9.161   2.976  12.065  0.4423  0.5867 -0.6868
  675MOL0     O93071   9.101   2.895  12.168  0.3262  0.3881 -0.2269
  675MOL0     C93072   9.111   2.938  12.305  0.3169 -0.5561  0.3599
  675MOL0     C93073   9.010   2.862  12.372  0.8182 -0.4157 -0.5837
  675MOL0     C93074   9.060   2.734  12.442  1.4309  0.7493 -0.1972
  675MOL0     C93075   9.080   2.608  12.346 -0.8537 -0.8263 -0.1380
  675MOL0     C93076   9.215   2.617  12.278  0.2089 -0.4350  0.1554
  675MOL0     C93077   9.328   2.632  12.239 -0.1372  0.1614  0.2697
  675MOL0     C93078   9.124   2.937  11.942 -0.2270  0.9095  0.8546
  675MOL0     C93079   9.170   2.998  11.828  0.1503 -0.8561 -0.9124
  675MOL0     C93080   9.137   2.935  11.698  0.2709  0.4239  1.1908
  675MOL0     H93081   9.249   3.512  11.698 -0.4223  0.6446 -1.2951
  675MOL0     H93082   9.304   3.668  11.506 -0.0763 -0.3232 -0.7196
  675MOL0     H93083   9.298   3.576  11.229  0.9157 -1.5083  2.4840
  675MOL0     H93084   9.443   3.498  11.169  1.0875  1.1023  1.1144
  675MOL0     H93085   9.389   3.795  11.127 -0.1181 -1.6220  1.3163
  675MOL0     H93086   9.502   3.696  11.035 -0.2046 -0.9032 -2.2523
  675MOL0     H93087   9.363   3.586  10.890 -0.1896 -0.5155  0.4690
  675MOL0     H93088   9.219   3.636  10.975 -0.6564  0.1345 -0.1897
  675MOL0     H93089   9.285   3.873  10.951 -0.4303 -1.2916  2.2989
  675MOL0     H93090   9.426   3.810  10.854 -0.1597 -0.1898  1.3390
  675MOL0     H93091   9.121   3.797  10.801  0.6046 -0.8885  0.3320
  675MOL0     H93092   9.245   3.689  10.710  0.8759 -0.4256 -0.1343
  675MOL0     H93093   9.361   3.924  10.660 -0.8691  2.7619  4.9257
  675MOL0     H93094   9.228   3.864  10.557 -0.0473 -1.0080  1.2578
  675MOL0     H93095   9.211   4.061  10.796 -1.2987 -1.1968  0.4870
  675MOL0     H93096   9.074   4.006  10.702  0.8520  0.3879 -1.2880
  675MOL0     H93097   9.139   4.219  10.636  1.1161  2.3302 -0.5952
  675MOL0     H93098   9.299   4.179  10.584 -0.9176  0.3889  0.4380
  675MOL0     H93099   8.974   4.211  10.450  2.2101  1.3237  1.8255
  675MOL0     H93100   8.836   4.095  10.215 -1.0482  0.9790 -0.9063
  675MOL0     H93101   8.958   4.039  10.097 -1.9598  1.3537 -1.1169
  675MOL0     H93102   9.051   4.291  10.153  0.3749 -0.5702  1.2360
  675MOL0     H93103   8.948   4.269  10.023 -0.9779  1.7366  1.0478
  675MOL0     H93104   8.816   4.308  10.294 -3.7651 -1.3788 -1.2782
  675MOL0     H93105   8.853   4.445  10.180 -2.3909  0.2647  0.2958
  675MOL0     H93106   8.677   4.209  10.103  2.1117 -0.0629 -2.3973
  675MOL0     H93107   8.619   4.371  10.170  1.9987  1.5140  1.2725
  675MOL0     H93108   8.610   4.409   9.766  3.0529  0.8880 -1.0947
  675MOL0     H93109   8.508   4.516   9.607  3.9539  0.3837  2.2311
  675MOL0     H93110   8.506   4.690   9.585  1.9828  0.7084  1.1951
  675MOL0     H93111   8.374   4.605   9.678  0.3578  1.4620  3.7854
  675MOL0     H93112   8.393   5.176   9.964 -1.8975  0.0186 -0.8010
  675MOL0     H93113   8.434   5.402   9.859 -0.0717 -0.8247  0.6380
  675MOL0     H93114   8.510   5.583   9.807 -0.1609  0.9070 -3.5222
  675MOL0     H93115   8.674   5.523   9.868  2.5526  0.1270 -0.9602
  675MOL0     H93116   8.643   5.693   9.619 -0.4834 -0.8935  0.5260
  675MOL0     H93117   8.675   5.770   9.782 -0.4699  0.1497 -0.5087
  675MOL0     H93118   8.841   5.552   9.622 -0.1252 -1.1846  1.9824
  675MOL0     H93119   8.895   5.614   9.775  4.9255 -1.0204 -3.1551
  675MOL0     H93120   8.847   5.806   9.544 -3.8133 -3.6320  0.2127
  675MOL0     H93121   8.991   5.693   9.547 -0.5725 -0.7751 -1.6451
  675MOL0     H93122   8.884   5.907   9.744  0.8790 -0.5592  3.9036
  675MOL0     H93123   9.027   5.802   9.783 -1.7185  1.4478  1.8075
  675MOL0     H93124   9.006   6.015   9.556 -1.5388  0.9126  2.1947
  675MOL0     H93125   9.142   5.915   9.569  2.3234  2.9599 -0.8436
  675MOL0     H93126   9.233   6.011   9.761 -0.5232 -2.8788 -0.4790
  675MOL0     H93127   9.079   6.055   9.836 -1.0710 -0.4128 -1.1202
  675MOL0     H93128   9.180   6.250   9.770 -2.2760  0.6947  1.6819
  675MOL0     H93129   9.050   6.222   9.646  1.7312 -0.1118 -1.3562
  675MOL0     H93130   8.727   5.245   9.613 -3.2936  1.2446 -2.9743
  675MOL0     H93131   8.704   5.036   9.703  1.5902 -0.2022  2.5924
  675MOL0     H93132   8.607   4.807  10.060 -4.2449 -0.3706 -0.3496
  675MOL0     H93133   8.691   4.576  10.137 -0.2093 -0.9878 -1.4404
  675MOL0     H93134   9.626   3.418  11.401  1.1115  1.3917  0.9966
  675MOL0     H93135   9.572   3.269  11.581  0.0583  0.0358 -0.8827
  675MOL0     H93136   9.315   3.259  11.974  1.2646 -0.7635 -1.8608
  675MOL0     H93137   9.270   3.146  12.163  0.9552 -0.7902 -1.0481
  675MOL0     H93138   9.213   2.913  12.336  1.3219  2.5002 -0.1577
  675MOL0     H93139   9.108   3.047  12.296  2.3997 -0.6088 -2.4788
  675MOL0     H93140   8.923   2.844  12.309 -1.3740  0.7503  1.9144
  675MOL0     H93141   8.984   2.928  12.456  0.1291  0.3841 -1.4186
  675MOL0     H93142   9.142   2.750  12.512  0.4680  0.4544  1.0413
  675MOL0     H93143   8.972   2.706  12.502  0.9497  1.3777 -0.5940
  675MOL0     H93144   8.995   2.613  12.278 -0.4365 -1.1993 -0.6961
  675MOL0     H93145   9.079   2.516  12.405  2.7996 -0.6266  0.4485
  675MOL0     H93146   9.425   2.669  12.211  0.0082  2.5182  3.3568
  675MOL0     H93147   9.054   2.855  11.931 -0.2050  1.1055 -1.0123
  675MOL0     H93148   9.229   2.918  11.641 -0.9568 -1.8409 -0.2674
  675MOL0     H93149   9.082   2.841  11.708  1.6423 -0.3953  1.2847
  675MOL0     H93150   9.077   3.005  11.639  0.7240  0.2018  0.4505
  676MOL0     O93151   4.932   8.593  11.217  0.7101 -0.0790  0.1352
  676MOL0     C93152   5.030   8.652  11.253 -0.1129  0.8444 -1.2313
  676MOL0     O93153   5.060   8.685  11.383  0.0628  0.0338  0.6135
  676MOL0     C93154   4.980   8.652  11.484  0.1210 -0.6194  0.0509
  676MOL0     C93155   5.026   8.560  11.568  0.1618  0.3154 -0.6240
  676MOL0     C93156   4.959   8.514  11.682  0.7342  0.3917 -0.2682
  676MOL0     C93157   4.849   8.585  11.720  0.5476  0.3259  0.0787
  676MOL0     O93158   4.795   8.574  11.842 -1.0523  0.8955 -0.0663
  676MOL0     C93159   4.798   8.445  11.903  0.7444  1.0759 -0.4609
  676MOL0     C93160   4.749   8.451  12.039  0.2354 -0.0734 -1.0138
  676MOL0     C93161   4.593   8.444  12.064 -0.5652  0.2850  0.7548
  676MOL0     C93162   4.524   8.551  11.979 -0.7301  0.3333 -0.5492
  676MOL0     C93163   4.381   8.576  12.004  0.1775 -0.2329 -0.3489
  676MOL0     C93164   4.343   8.720  11.977  0.7734  0.1875 -0.1949
  676MOL0     C93165   4.188   8.735  12.005  0.6369  0.4496 -0.1979
  676MOL0     C93166   4.161   8.750  12.156  0.4879 -0.6536 -0.8986
  676MOL0     N93167   4.018   8.754  12.195  0.6364  0.2692  0.2526
  676MOL0     C93168   3.930   8.850  12.152  1.0534 -0.8148 -0.9186
  676MOL0     C93169   3.809   8.813  12.190  0.9138  0.1265 -0.2795
  676MOL0     C93170   3.684   8.908  12.189 -0.0020  1.8174  1.0689
  676MOL0     C93171   3.587   8.857  12.082  0.1362  0.2373  0.3539
  676MOL0     C93172   3.462   8.956  12.077  0.1071  0.8199 -0.3260
  676MOL0     C93173   3.489   9.095  12.001  0.3219 -0.4900 -0.9241
  676MOL0     O93174   3.548   9.073  11.874 -0.2876  0.1554 -0.0916
  676MOL0     C93175   3.545   9.177  11.785 -1.0079 -0.1233 -0.1452
  676MOL0     C93176   3.561   9.144  11.651  0.4639 -0.1842 -0.4595
  676MOL0     C93177   3.565   9.239  11.549  0.2184  0.0584  0.3992
  676MOL0     C93178   3.584   9.203  11.406 -0.8394 -0.1720 -0.6939
  676MOL0     C93179   3.566   9.379  11.586  1.1944  0.9954  0.1037
  676MOL0     C93180   3.574   9.496  11.496 -0.1298  0.6430  0.6563
  676MOL0     O93181   3.510   9.486  11.375 -0.9251  0.8057 -0.6320
  676MOL0     C93182   3.507   9.597  11.287  1.1580 -0.5176  0.3484
  676MOL0     C93183   3.497   9.731  11.318  0.2432 -1.0060 -0.4153
  676MOL0     C93184   3.459   9.826  11.220  0.3696 -0.7979 -0.5200
  676MOL0     C93185   3.434   9.785  11.090  0.4687 -0.9865 -0.5973
  676MOL0     O93186   3.386   9.858  10.983 -0.1376  0.0295 -0.6049
  676MOL0     C93187   3.435   9.993  10.972  0.0355  0.1457 -0.2614
  676MOL0     C93188   3.330  10.097  10.984  0.3921 -0.1365 -1.1260
  676MOL0     C93189   3.197  10.094  10.916  0.0243  0.2314  0.1039
  676MOL0     C93190   3.228  10.090  10.769 -0.3363 -0.1758  0.7602
  676MOL0     C93191   3.118  10.134  10.669 -0.4349  0.0697  0.7087
  676MOL0     C93192   3.161  10.088  10.521  0.1143  0.5511  0.2511
  676MOL0     C93193   3.030  10.076  10.440  0.8812 -0.5352  0.0074
  676MOL0     C93194   3.051  10.077  10.285  0.1177 -0.4532  0.8886
  676MOL0    Cl93195   3.166   9.958  10.226 -0.4386  0.0528 -0.2020
  676MOL0     C93196   3.427   9.649  11.067  0.0573 -0.4411 -0.0886
  676MOL0     C93197   3.461   9.556  11.159 -1.6116  0.3882 -0.5663
  676MOL0     O93198   3.630   9.594  11.535  0.7613 -0.0461 -0.1491
  676MOL0     C93199   3.567   9.410  11.729 -0.1528  0.2919 -0.8220
  676MOL0     C93200   3.550   9.311  11.826  0.0716  0.5994  0.5023
  676MOL0     N93201   3.825   8.682  12.240 -0.7412 -0.3425 -0.3794
  676MOL0     N93202   3.951   8.643  12.229 -0.2410 -0.0258  0.9763
  676MOL0     C93203   4.797   8.683  11.632  0.1702  0.1954 -0.0552
  676MOL0     C93204   4.865   8.720  11.522  0.3729 -0.3842  1.1807
  676MOL0     C93205   5.121   8.701  11.147 -0.2101 -0.8514 -0.0087
  676MOL0     C93206   5.153   8.633  11.032 -0.3160 -0.3919 -0.2218
  676MOL0     C93207   5.236   8.691  10.932 -0.3662  0.6521  0.0068
  676MOL0     C93208   5.298   8.812  10.958  0.2087 -0.3488 -0.0484
  676MOL0     O93209   5.406   8.846  10.884 -0.5078  0.2759 -0.1507
  676MOL0     C93210   5.394   8.979  10.839  0.8567 -0.6133  0.2874
  676MOL0     C93211   5.376   8.976  10.686  1.0988  0.3625  0.6253
  676MOL0     C93212   5.500   9.001  10.600 -0.4926 -0.1619 -0.0824
  676MOL0     C93213   5.617   8.893  10.607  1.0213 -0.7043  0.2872
  676MOL0     C93214   5.737   8.962  10.552  1.7758 -0.7359  0.0952
  676MOL0     C93215   5.833   9.030  10.526 -0.7923  0.7497 -0.7248
  676MOL0     C93216   5.276   8.868  11.079  0.9449  1.0074 -0.3547
  676MOL0     C93217   5.179   8.824  11.175  0.5593 -0.2541  0.5125
  676MOL0     C93218   5.166   8.916  11.291  0.3410 -0.5147  0.1653
  676MOL0     H93219   5.122   8.519  11.542 -0.5987 -0.9083 -1.6150
  676MOL0     H93220   5.013   8.443  11.744 -0.5658  1.0832  1.7700
  676MOL0     H93221   4.901   8.406  11.900 -0.8785 -3.7585 -2.3950
  676MOL0     H93222   4.738   8.376  11.844 -0.2722  0.9717  0.6538
  676MOL0     H93223   4.789   8.355  12.071 -0.2489 -1.0606 -3.1849
  676MOL0     H93224   4.799   8.533  12.092  0.1756  0.4284 -1.7201
  676MOL0     H93225   4.550   8.345  12.045 -1.9259  1.1123 -0.6179
  676MOL0     H93226   4.574   8.466  12.169  0.8567  0.3956  1.0069
  676MOL0     H93227   4.577   8.643  12.008 -1.0997  0.3830 -0.0170
  676MOL0     H93228   4.541   8.536  11.872  3.1096  1.1826 -0.2057
  676MOL0     H93229   4.374   8.549  12.109  0.4540 -3.6301 -1.1109
  676MOL0     H93230   4.317   8.514  11.940  0.2899 -0.4519 -0.2488
  676MOL0     H93231   4.404   8.786  12.041  0.1629  0.0341  0.5632
  676MOL0     H93232   4.351   8.727  11.868  2.4104  4.5805 -0.0015
  676MOL0     H93233   4.124   8.659  11.959 -1.6435  0.3393  2.7649
  676MOL0     H93234   4.166   8.831  11.959  0.1479  1.5618  2.1752
  676MOL0     H93235   4.195   8.660  12.209 -2.6917 -1.1847  0.4631
  676MOL0     H93236   4.205   8.841  12.199 -2.3641  0.9696 -1.1725
  676MOL0     H93237   3.949   8.954  12.126 -1.8882  0.5037  1.5470
  676MOL0     H93238   3.722   8.995  12.134 -3.6071  3.0651  0.2372
  676MOL0     H93239   3.646   8.930  12.290 -2.5824  1.6461  0.2139
  676MOL0     H93240   3.642   8.862  11.988 -0.1419 -4.1818 -0.2851
  676MOL0     H93241   3.543   8.758  12.095 -1.2462  0.6687 -0.8133
  676MOL0     H93242   3.378   8.893  12.045  1.6152 -2.3034  1.3963
  676MOL0     H93243   3.427   8.980  12.177 -1.8074  1.9339 -1.1952
  676MOL0     H93244   3.394   9.148  11.986  0.9740  0.9078 -0.3122
  676MOL0     H93245   3.554   9.157  12.064  1.1362 -1.7819 -0.4632
  676MOL0     H93246   3.564   9.039  11.625 -1.3137 -0.3109 -0.2534
  676MOL0     H93247   3.506   9.234  11.335  0.8047  1.9295 -1.7046
  676MOL0     H93248   3.602   9.095  11.404 -1.6518 -0.3022 -1.8186
  676MOL0     H93249   3.666   9.263  11.365 -0.1299 -1.6696 -1.5628
  676MOL0     H93250   3.499   9.772  11.418  0.9376 -0.7098 -0.5478
  676MOL0     H93251   3.464   9.930  11.250  1.9208 -1.3526  1.3371
  676MOL0     H93252   3.516  10.014  11.042  2.1441 -1.7536 -1.9636
  676MOL0     H93253   3.467   9.998  10.867 -0.5304 -3.2022 -0.7044
  676MOL0     H93254   3.307  10.109  11.091  4.5438  1.0834 -0.1771
  676MOL0     H93255   3.384  10.191  10.968 -1.4650  0.9751 -1.1458
  676MOL0     H93256   3.147  10.188  10.941 -0.5044 -1.1199  5.1254
  676MOL0     H93257   3.130  10.012  10.943 -1.9589  1.0933 -1.8322
  676MOL0     H93258   3.272   9.994  10.741 -1.3382 -0.8551  1.4992
  676MOL0     H93259   3.308  10.163  10.749  1.1571 -2.0960 -0.7573
  676MOL0     H93260   3.025  10.081  10.695 -0.0507 -0.3090  1.3377
  676MOL0     H93261   3.108  10.243  10.670  0.1065  0.1209  0.8234
  676MOL0     H93262   3.208   9.989  10.521 -0.6405  0.1755 -0.6110
  676MOL0     H93263   3.226  10.156  10.467 -1.8024  0.3357 -2.5425
  676MOL0     H93264   2.957  10.150  10.474  0.7642 -0.9357  0.6477
  676MOL0     H93265   2.991   9.978  10.470  1.5484 -0.8340 -0.0810
  676MOL0     H93266   3.097  10.170  10.250  0.3303 -1.8661 -3.0511
  676MOL0     H93267   2.960  10.074  10.224  0.4117  0.8204  0.3438
  676MOL0     H93268   3.382   9.616  10.974  1.8143  2.3012 -2.0493
  676MOL0     H93269   3.464   9.450  11.133  1.6186 -0.0331  1.0157
  676MOL0     H93270   3.577   9.510  11.771 -0.8390  0.6639 -1.5134
  676MOL0     H93271   3.551   9.334  11.932  0.4026 -0.5890  0.7674
  676MOL0     H93272   4.727   8.758  11.667 -0.9082 -1.4631  1.4739
  676MOL0     H93273   4.837   8.800  11.454 -2.0602 -1.0073  1.3458
  676MOL0     H93274   5.115   8.532  11.022  0.5183 -0.5081 -3.0005
  676MOL0     H93275   5.256   8.634  10.841 -1.2996  2.1654 -1.2088
  676MOL0     H93276   5.309   9.041  10.869 -0.2461 -1.7337 -0.3864
  676MOL0     H93277   5.480   9.039  10.870 -0.7336  2.4632 -0.8828
  676MOL0     H93278   5.312   9.062  10.665 -0.5338 -0.0794  3.3427
  676MOL0     H93279   5.318   8.886  10.664  0.2018  1.5520 -2.2811
  676MOL0     H93280   5.461   8.999  10.498  1.7749 -0.7127 -1.0142
  676MOL0     H93281   5.544   9.098  10.622  0.0078  0.2514 -2.5621
  676MOL0     H93282   5.606   8.806  10.542 -2.1821  0.6700 -1.2590
  676MOL0     H93283   5.628   8.867  10.713 -1.7674 -2.2613  0.2973
  676MOL0     H93284   5.925   9.083  10.514 -0.0549  0.2787  2.1153
  676MOL0     H93285   5.323   8.963  11.106  1.8488  0.1324  1.2751
  676MOL0     H93286   5.064   8.931  11.326  1.0026  1.4946  1.3443
  676MOL0     H93287   5.238   8.881  11.366 -0.2815 -4.5263 -0.8734
  676MOL0     H93288   5.192   9.014  11.251  2.8730 -1.6489 -1.2891
  677MOL0     O93289   8.542  10.037   9.375  0.4224  0.0513 -0.2721
  677MOL0     C93290   8.566   9.929   9.322 -0.2158 -0.3368  0.1777
  677MOL0     O93291   8.688   9.864   9.306 -0.2981  0.6461 -0.0935
  677MOL0     C93292   8.801   9.937   9.322  0.3210  0.3106  1.1090
  677MOL0     C93293   8.887   9.947   9.209 -0.6195  0.2872 -0.8355
  677MOL0     C93294   9.012  10.006   9.228 -0.3156 -0.3377 -0.5275
  677MOL0     C93295   9.046  10.061   9.355 -0.2196  0.5101 -0.8599
  677MOL0     O93296   9.161  10.120   9.393  0.4041  0.1883 -0.3646
  677MOL0     C93297   9.228  10.184   9.287 -0.1852  0.5854 -0.2995
  677MOL0     C93298   9.330  10.283   9.350  0.0788 -1.2390  0.6572
  677MOL0     C93299   9.393  10.388   9.252  0.8880  0.7802 -0.5248
  677MOL0     C93300   9.377  10.533   9.304 -0.7439  0.4711  0.8612
  677MOL0     C93301   9.456  10.620   9.207 -0.1936  0.5036 -0.1131
  677MOL0     C93302   9.437  10.773   9.226 -0.9336 -0.5771 -0.4691
  677MOL0     C93303   9.559  10.853   9.176  0.0617  0.2097 -1.0642
  677MOL0     C93304   9.512  11.001   9.159 -0.0091 -1.0251  0.0916
  677MOL0     N93305   9.413  11.003   9.055 -0.1232  0.0595  0.0403
  677MOL0     C93306   9.304  11.071   9.071  0.2123  0.0436 -1.0291
  677MOL0     C93307   9.248  11.079   8.952 -0.2216 -0.3507 -0.6135
  677MOL0     C93308   9.107  11.141   8.918 -0.2142  0.4446  0.2282
  677MOL0     C93309   9.074  11.268   9.000 -0.7512 -0.3042 -0.8813
  677MOL0     C93310   8.945  11.331   8.967  0.3340  0.4074 -0.3604
  677MOL0     C93311   8.938  11.394   8.828 -0.3232 -0.3649  0.1154
  677MOL0     O93312   8.827  11.481   8.819 -0.5582 -0.3305 -0.2614
  677MOL0     C93313   8.692  11.453   8.838  0.2057 -0.5693  0.2001
  677MOL0     C93314   8.633  11.322   8.859  0.8793  0.3785  0.2229
  677MOL0     C93315   8.500  11.309   8.876  0.0349  0.8178  0.2282
  677MOL0     C93316   8.450  11.161   8.870 -0.0017 -0.9590 -0.4252
  677MOL0     C93317   8.413  11.419   8.881 -0.5844 -0.4052 -0.5698
  677MOL0     C93318   8.265  11.401   8.875  0.4003 -0.2696 -0.5281
  677MOL0     O93319   8.193  11.295   8.948 -0.1083  0.0065  0.2127
  677MOL0     C93320   8.054  11.286   8.950 -0.6877  0.2645 -0.0956
  677MOL0     C93321   7.958  11.389   8.925 -0.6884 -0.6082 -0.6617
  677MOL0     C93322   7.821  11.366   8.930 -0.3331  0.2313  0.1705
  677MOL0     C93323   7.777  11.242   8.971 -0.2104  0.8553  0.3260
  677MOL0     O93324   7.646  11.209   8.973  0.4309  0.8702  0.2945
  677MOL0     C93325   7.556  11.230   8.859 -0.0893 -0.8788  0.9135
  677MOL0     C93326   7.481  11.102   8.813  0.1712 -0.5496  0.7758
  677MOL0     C93327   7.575  10.989   8.783  0.1458  0.5590  0.1810
  677MOL0     C93328   7.599  10.962   8.630  0.0417  0.0150 -1.2955
  677MOL0     C93329   7.711  10.866   8.607  0.4996  0.2576  0.4833
  677MOL0     C93330   7.843  10.900   8.665 -0.4978  0.5334 -1.3844
  677MOL0     C93331   7.975  10.837   8.630  0.4066 -0.0635  0.0926
  677MOL0     C93332   8.082  10.920   8.699 -0.0816  0.6189  0.2828
  677MOL0    Cl93333   8.222  10.817   8.706 -0.0076 -0.0645 -0.0088
  677MOL0     C93334   7.875  11.145   9.004  1.0413  0.3060  0.7394
  677MOL0     C93335   8.009  11.171   8.999  0.9971  0.9379  0.4523
  677MOL0     O93336   8.212  11.487   8.802  0.4266 -0.8335 -0.8198
  677MOL0     C93337   8.473  11.547   8.868  0.3551 -0.1473 -1.3301
  677MOL0     C93338   8.607  11.566   8.853  0.4609 -0.6048  0.4341
  677MOL0     N93339   9.325  11.002   8.855 -0.2683  0.1207  0.3059
  677MOL0     N93340   9.422  10.967   8.925  0.5534 -0.3675 -0.3275
  677MOL0     C93341   8.958  10.039   9.467  0.8184 -0.3652 -0.6548
  677MOL0     C93342   8.835   9.984   9.446  0.1772 -0.4256 -0.1571
  677MOL0     C93343   8.441   9.850   9.287 -0.3491 -0.3554  1.3099
  677MOL0     C93344   8.433   9.721   9.335 -0.2409 -0.0359 -0.6021
  677MOL0     C93345   8.347   9.634   9.270  0.8189  0.1882  0.4176
  677MOL0     C93346   8.250   9.681   9.180 -0.3512  0.8430 -0.3855
  677MOL0     O93347   8.176   9.583   9.126  0.3828 -0.2180 -0.4974
  677MOL0     C93348   8.051   9.618   9.058 -0.1789 -0.5438  0.4985
  677MOL0     C93349   7.938   9.670   9.152  0.1184 -0.7198 -0.5507
  677MOL0     C93350   7.862   9.568   9.246 -0.8524  0.2508  0.4565
  677MOL0     C93351   7.715   9.589   9.277  0.0631  0.0905 -0.4272
  677MOL0     C93352   7.651   9.478   9.357 -0.7812 -0.0054  0.9648
  677MOL0     C93353   7.589   9.397   9.429 -0.5117 -0.6592 -0.1028
  677MOL0     C93354   8.249   9.815   9.144 -0.0884 -0.7250 -0.0183
  677MOL0     C93355   8.347   9.904   9.191 -0.9475  0.0018 -0.4151
  677MOL0     C93356   8.352  10.046   9.133 -0.5127  0.1858 -0.4389
  677MOL0     H93357   8.870   9.890   9.119  0.9382 -0.1686 -0.8694
  677MOL0     H93358   9.089   9.994   9.152 -1.8394 -1.5324 -1.9699
  677MOL0     H93359   9.149  10.240   9.237 -0.6244 -1.3499 -1.8780
  677MOL0     H93360   9.285  10.121   9.217  3.9991  1.2964  2.1583
  677MOL0     H93361   9.280  10.350   9.420  2.4239  0.2057  1.0425
  677MOL0     H93362   9.413  10.232   9.401  2.5731 -0.1473 -1.9965
  677MOL0     H93363   9.495  10.358   9.230 -0.0768 -2.4807 -1.0958
  677MOL0     H93364   9.335  10.372   9.161  1.7294 -0.2546 -0.8910
  677MOL0     H93365   9.271  10.559   9.288 -0.8529 -0.8880 -0.9964
  677MOL0     H93366   9.398  10.548   9.410 -1.0942  1.8518  0.7533
  677MOL0     H93367   9.432  10.586   9.106  1.7911 -0.1367 -0.4147
  677MOL0     H93368   9.564  10.609   9.222  0.0804  2.0177 -0.8156
  677MOL0     H93369   9.344  10.797   9.173 -1.2393  0.2562  0.4197
  677MOL0     H93370   9.415  10.794   9.331 -3.4485 -1.1182 -0.8196
  677MOL0     H93371   9.602  10.817   9.082  0.1857  1.5412 -1.5400
  677MOL0     H93372   9.626  10.848   9.262  0.0557  2.9006 -0.8226
  677MOL0     H93373   9.474  11.047   9.250  0.5244 -0.5156  0.0666
  677MOL0     H93374   9.590  11.070   9.125 -1.5358  1.9401  2.2117
  677MOL0     H93375   9.261  11.113   9.161  2.1491  0.6634 -0.3282
  677MOL0     H93376   9.038  11.059   8.941 -1.5170  1.2487 -0.6852
  677MOL0     H93377   9.107  11.173   8.814  0.0359  4.0063  1.1902
  677MOL0     H93378   9.078  11.255   9.108  2.0225  2.6803 -0.4786
  677MOL0     H93379   9.157  11.338   8.986 -1.0216  0.1584 -0.1990
  677MOL0     H93380   8.869  11.254   8.981  1.6653 -0.9836 -0.5675
  677MOL0     H93381   8.916  11.399   9.048 -2.2694 -1.5363  0.4850
  677MOL0     H93382   9.024  11.460   8.814 -0.4466 -0.6375 -2.2983
  677MOL0     H93383   8.939  11.324   8.744 -3.3094 -0.7982  0.3500
  677MOL0     H93384   8.700  11.237   8.851 -0.0244 -0.3169 -0.1230
  677MOL0     H93385   8.534  11.092   8.881  0.1356 -1.3175 -3.1279
  677MOL0     H93386   8.387  11.133   8.785 -2.1522 -3.3480  1.8101
  677MOL0     H93387   8.379  11.144   8.951 -0.1124 -3.1945 -0.9470
  677MOL0     H93388   7.989  11.480   8.875 -1.1832 -0.7581 -1.2553
  677MOL0     H93389   7.752  11.449   8.916 -0.3881  0.2169  0.3624
  677MOL0     H93390   7.480  11.295   8.902  0.2747 -0.6511  1.2225
  677MOL0     H93391   7.603  11.281   8.774 -0.9099  0.8023  1.4274
  677MOL0     H93392   7.409  11.073   8.890  0.5658  0.2715  1.4663
  677MOL0     H93393   7.427  11.119   8.719  1.9670 -0.6549 -0.3245
  677MOL0     H93394   7.537  10.893   8.820  2.3946 -0.4769 -0.0183
  677MOL0     H93395   7.668  11.010   8.838  0.1797  1.3345 -0.1669
  677MOL0     H93396   7.616  11.052   8.570 -0.5445  0.3176 -1.0179
  677MOL0     H93397   7.507  10.916   8.595 -1.4484  0.9603  1.0871
  677MOL0     H93398   7.674  10.773   8.652 -3.1340  0.4378 -1.7658
  677MOL0     H93399   7.719  10.848   8.500 -0.6288 -0.0730  0.4448
  677MOL0     H93400   7.832  10.891   8.773 -1.0711  1.3470 -1.3630
  677MOL0     H93401   7.856  11.005   8.637 -2.2767  0.8193 -1.2701
  677MOL0     H93402   8.001  10.853   8.524 -0.1535  1.4227  0.1549
  677MOL0     H93403   7.980  10.730   8.653 -2.2454  0.0601  1.6304
  677MOL0     H93404   8.046  10.953   8.796 -1.0463  0.9429 -0.1745
  677MOL0     H93405   8.105  10.998   8.626  1.3768 -0.6760 -0.7145
  677MOL0     H93406   7.830  11.053   9.041  2.2945  0.1142  1.8384
  677MOL0     H93407   8.068  11.087   9.033  0.1814  0.6979  1.3388
  677MOL0     H93408   8.414  11.637   8.877  1.7949  0.6714  0.7265
  677MOL0     H93409   8.637  11.671   8.851  0.2400 -0.5084  1.7052
  677MOL0     H93410   8.988  10.078   9.564  0.4828  2.2092 -1.5344
  677MOL0     H93411   8.772   9.976   9.534 -1.7583 -0.0041 -1.4390
  677MOL0     H93412   8.498   9.675   9.409 -0.5028 -3.1204 -2.1085
  677MOL0     H93413   8.362   9.528   9.292 -0.2027 -0.2232 -0.7444
  677MOL0     H93414   8.062   9.699   8.984  0.5139  1.8205  3.0372
  677MOL0     H93415   8.015   9.528   9.006  2.3184 -2.4813  1.9340
  677MOL0     H93416   7.868   9.706   9.076  2.3215 -4.2133 -4.6308
  677MOL0     H93417   7.972   9.752   9.216  0.5592  0.5907 -2.3969
  677MOL0     H93418   7.861   9.471   9.194 -0.8473  1.5405 -2.1153
  677MOL0     H93419   7.927   9.570   9.334 -0.9125  3.2733  0.5208
  677MOL0     H93420   7.657   9.607   9.186 -2.2579 -3.5367  0.1193
  677MOL0     H93421   7.694   9.679   9.335 -1.3099 -1.2441  1.2575
  677MOL0     H93422   7.536   9.335   9.499 -1.0836  1.5856  1.5623
  677MOL0     H93423   8.190   9.853   9.062  1.4319 -0.6773 -1.1129
  677MOL0     H93424   8.458  10.072   9.122  0.6535 -4.3395 -2.5866
  677MOL0     H93425   8.306  10.037   9.034 -0.6962 -0.2403 -0.3186
  677MOL0     H93426   8.311  10.116   9.205  1.1741  1.1511 -0.3503
  678MOL0     O93427  10.495   1.283   1.963 -0.1065 -0.5174 -0.3987
  678MOL0     C93428  10.461   1.381   2.032  0.6992  0.3159 -0.7223
  678MOL0     O93429  10.472   1.392   2.167  0.4788  0.3256 -0.2703
  678MOL0     C93430  10.557   1.307   2.232 -0.7837 -0.1467 -0.1017
  678MOL0     C93431  10.528   1.174   2.252  0.3716  0.0740  0.1125
  678MOL0     C93432  10.608   1.105   2.330 -0.1904 -0.0772 -0.3978
  678MOL0     C93433  10.708   1.167   2.408 -0.6791  0.2452 -0.8078
  678MOL0     O93434  10.793   1.101   2.484  0.0676  0.4443 -0.4273
  678MOL0     C93435  10.749   0.973   2.548 -0.2327  0.0236  0.5124
  678MOL0     C93436  10.859   0.943   2.639  0.0724 -0.6768 -1.2043
  678MOL0     C93437  10.987   0.887   2.580  0.4298  0.0837 -0.4307
  678MOL0     C93438  11.092   0.876   2.686  0.6568 -0.4693 -0.7823
  678MOL0     C93439  11.231   0.852   2.635 -0.0391 -0.1493 -0.2933
  678MOL0     C93440  11.310   0.740   2.711  0.4387  0.0059 -0.0772
  678MOL0     C93441  11.435   0.702   2.635  0.6279 -0.3549 -0.8912
  678MOL0     C93442  11.513   0.597   2.716  0.3836  0.6943 -1.3287
  678MOL0     N93443  11.576   0.647   2.847  0.2622 -0.0284 -0.2509
  678MOL0     C93444  11.684   0.736   2.876  0.2449  0.1452 -1.0941
  678MOL0     C93445  11.683   0.734   3.013  1.0405  0.0883  0.1728
  678MOL0     C93446  11.741   0.849   3.098  0.2723 -1.3000 -0.3280
  678MOL0     C93447  11.850   0.785   3.184 -0.6345 -0.7145  0.1895
  678MOL0     C93448  11.907   0.888   3.283 -0.1939 -0.6735  0.4906
  678MOL0     C93449  11.947   0.816   3.423  0.0453 -0.7517  0.5764
  678MOL0     O93450  11.817   0.763   3.479  0.8028 -0.4081 -0.4148
  678MOL0     C93451  11.809   0.671   3.587  0.6622  0.1582  0.3331
  678MOL0     C93452  11.914   0.670   3.678  0.2091 -0.5338  0.1975
  678MOL0     C93453  11.900   0.615   3.798  0.9459  0.2760 -1.2953
  678MOL0     C93454  12.013   0.610   3.898 -0.1844 -0.3154 -0.7746
  678MOL0     C93455  11.769   0.563   3.829  0.2613  0.4628 -0.2258
  678MOL0     C93456  11.740   0.527   3.971 -0.3498 -0.7777  0.9628
  678MOL0     O93457  11.749   0.624   4.062  1.0197 -1.3015  0.8992
  678MOL0     C93458  11.743   0.592   4.193  0.5956  0.8413  0.7077
  678MOL0     C93459  11.634   0.512   4.244  0.0559 -0.2449 -0.2438
  678MOL0     C93460  11.622   0.478   4.378  0.4739 -0.0964  1.1287
  678MOL0     C93461  11.706   0.541   4.469  0.0339  1.2524  0.1136
  678MOL0     O93462  11.709   0.525   4.608  1.2203 -0.8749 -0.0100
  678MOL0     C93463  11.595   0.538   4.680  0.8129  0.5887 -0.0230
  678MOL0     C93464  11.575   0.676   4.735  0.3431  0.0079  1.1259
  678MOL0     C93465  11.451   0.669   4.821  0.2480 -0.7562  0.8626
  678MOL0     C93466  11.459   0.602   4.952  0.0658 -0.3335 -0.7443
  678MOL0     C93467  11.344   0.639   5.055 -0.5677  0.0758 -0.7299
  678MOL0     C93468  11.385   0.583   5.191  0.7381 -1.1875 -0.7843
  678MOL0     C93469  11.304   0.635   5.307  1.5477 -0.7690  0.3982
  678MOL0     C93470  11.362   0.559   5.435  1.8811  0.3519  0.0051
  678MOL0    Cl93471  11.293   0.635   5.572 -0.0032 -0.2042  0.0477
  678MOL0     C93472  11.810   0.618   4.422  0.1820  0.3764 -0.0126
  678MOL0     C93473  11.828   0.638   4.288  0.5834 -0.2902  0.8275
  678MOL0     O93474  11.716   0.410   3.988 -0.3829  0.4789  0.4289
  678MOL0     C93475  11.666   0.541   3.732 -0.4554  0.6070  0.5294
  678MOL0     C93476  11.684   0.602   3.614 -0.1255 -0.9156  0.3752
  678MOL0     N93477  11.593   0.639   3.060  0.1971 -0.1214 -0.2025
  678MOL0     N93478  11.535   0.587   2.965 -0.2499  0.6263 -0.5984
  678MOL0     C93479  10.734   1.302   2.404  0.4406  0.1345  0.6570
  678MOL0     C93480  10.652   1.375   2.309 -0.1785 -0.0310 -0.3210
  678MOL0     C93481  10.419   1.495   1.950  0.7230  0.5271 -0.7320
  678MOL0     C93482  10.354   1.475   1.824 -0.0377 -0.0240 -0.2678
  678MOL0     C93483  10.295   1.573   1.740  0.5707  1.1905 -1.1469
  678MOL0     C93484  10.295   1.707   1.786 -0.1147  1.1160  0.2519
  678MOL0     O93485  10.213   1.806   1.738  0.6000 -0.1314  0.8125
  678MOL0     C93486  10.136   1.810   1.606 -0.6303  0.5076  0.1556
  678MOL0     C93487   9.992   1.838   1.655  0.4014 -0.1939  0.9622
  678MOL0     C93488   9.971   1.986   1.700  0.6169 -0.0380  0.3260
  678MOL0     C93489   9.824   2.030   1.699 -0.0821 -0.1882  0.3577
  678MOL0     C93490   9.814   2.180   1.722  0.2072  0.6765  0.9845
  678MOL0     C93491   9.789   2.295   1.750 -0.8641  0.3233  0.1419
  678MOL0     C93492  10.372   1.734   1.902  0.6665 -0.6394  1.0628
  678MOL0     C93493  10.431   1.633   1.992  0.1338  0.1040 -0.8366
  678MOL0     C93494  10.524   1.682   2.102 -0.5195 -0.6251 -0.0775
  678MOL0     H93495  10.440   1.135   2.203  1.8460 -2.6220 -0.6146
  678MOL0     H93496  10.589   0.999   2.340  0.6192 -0.2896 -0.9831
  678MOL0     H93497  10.739   0.897   2.470  2.2565 -0.3588  0.4877
  678MOL0     H93498  10.648   0.997   2.584 -1.2547 -2.5657 -0.4023
  678MOL0     H93499  10.885   1.033   2.696 -4.2346 -0.3864  0.7697
  678MOL0     H93500  10.822   0.871   2.713  0.3446  0.2459 -0.1203
  678MOL0     H93501  10.973   0.792   2.527 -2.4798  0.7907 -1.0933
  678MOL0     H93502  11.025   0.958   2.506  1.0770 -1.4184 -1.6032
  678MOL0     H93503  11.097   0.963   2.752 -0.3482 -1.1222  0.1787
  678MOL0     H93504  11.067   0.794   2.753  1.8500  1.4049  2.1712
  678MOL0     H93505  11.290   0.944   2.637 -1.1728  0.5856  2.2832
  678MOL0     H93506  11.213   0.817   2.533  1.1653 -3.2971  0.4594
  678MOL0     H93507  11.341   0.763   2.814  0.5366  0.9317 -0.3064
  678MOL0     H93508  11.253   0.647   2.709  1.4928 -0.6522 -1.3128
  678MOL0     H93509  11.494   0.794   2.627 -3.5048  2.7473  0.6553
  678MOL0     H93510  11.414   0.665   2.534 -1.8271  1.4735 -1.1524
  678MOL0     H93511  11.448   0.512   2.741  0.3273  0.9527 -0.5617
  678MOL0     H93512  11.599   0.563   2.658  1.3535  1.6353 -0.4678
  678MOL0     H93513  11.733   0.812   2.817 -1.6648  4.2104  2.0303
  678MOL0     H93514  11.664   0.896   3.161  0.6430 -0.3135 -0.5833
  678MOL0     H93515  11.766   0.937   3.038 -0.5692 -0.6989  0.1685
  678MOL0     H93516  11.798   0.709   3.244 -1.2497  1.3735  2.5152
  678MOL0     H93517  11.922   0.749   3.111 -1.0928  3.0724 -2.4171
  678MOL0     H93518  12.000   0.933   3.246  0.2880 -0.9710  1.3181
  678MOL0     H93519  11.835   0.968   3.304  2.2334  1.9151 -0.3821
  678MOL0     H93520  12.020   0.736   3.412  4.4339  2.3955  3.6511
  678MOL0     H93521  11.986   0.885   3.499 -0.5201  1.3820 -0.9784
  678MOL0     H93522  12.004   0.723   3.646 -0.6484  1.4259  0.8796
  678MOL0     H93523  11.993   0.579   4.001  1.7731 -0.3114 -0.3469
  678MOL0     H93524  12.048   0.714   3.904 -1.1314  0.0645 -1.4856
  678MOL0     H93525  12.092   0.541   3.867  1.7628  0.7317  1.5307
  678MOL0     H93526  11.566   0.475   4.168 -1.1322  0.2042  0.5642
  678MOL0     H93527  11.540   0.430   4.430  1.4919  0.0081  2.9224
  678MOL0     H93528  11.508   0.515   4.617  0.7804  3.1840 -1.0427
  678MOL0     H93529  11.599   0.468   4.764 -2.8985 -0.6613 -0.6993
  678MOL0     H93530  11.666   0.703   4.791  1.0664 -0.3828  0.1684
  678MOL0     H93531  11.561   0.756   4.662 -1.1183 -1.5007 -0.3182
  678MOL0     H93532  11.365   0.620   4.775 -0.8236  2.0395 -0.3851
  678MOL0     H93533  11.421   0.773   4.839 -0.8174 -0.5651 -1.5497
  678MOL0     H93534  11.552   0.636   5.000 -2.1831  1.3743  2.8660
  678MOL0     H93535  11.477   0.494   4.942  4.0134  0.1724 -0.9287
  678MOL0     H93536  11.335   0.748   5.059  1.1786  0.2864 -1.6208
  678MOL0     H93537  11.244   0.604   5.025 -1.3476  1.3208  0.3116
  678MOL0     H93538  11.490   0.601   5.216  0.5732 -3.5707  2.2603
  678MOL0     H93539  11.367   0.475   5.188 -1.8066 -0.8711  0.5702
  678MOL0     H93540  11.203   0.599   5.283  1.5408 -1.0631  0.8695
  678MOL0     H93541  11.295   0.743   5.310 -4.5634 -0.9546  0.7865
  678MOL0     H93542  11.471   0.568   5.435  2.1608 -2.2937 -0.4192
  678MOL0     H93543  11.344   0.451   5.430  1.0496  0.5047 -0.5463
  678MOL0     H93544  11.888   0.672   4.475  2.0182 -0.2057 -1.9639
  678MOL0     H93545  11.905   0.708   4.256  1.1738 -1.0823  0.4918
  678MOL0     H93546  11.571   0.493   3.756  0.6985 -1.4254  1.2156
  678MOL0     H93547  11.605   0.614   3.540 -1.2105  3.0836  1.9069
  678MOL0     H93548  10.813   1.347   2.463 -0.9323  0.2744  2.4837
  678MOL0     H93549  10.673   1.479   2.286 -2.3369  0.4165 -0.4589
  678MOL0     H93550  10.350   1.370   1.797  1.7977 -0.0173 -0.6929
  678MOL0     H93551  10.241   1.541   1.652  1.0827 -0.2178 -0.9684
  678MOL0     H93552  10.161   1.887   1.532 -3.2352  1.7974  0.5136
  678MOL0     H93553  10.145   1.710   1.561 -2.6511 -0.0633  0.9236
  678MOL0     H93554   9.959   1.774   1.737 -2.0331  1.1368  1.1369
  678MOL0     H93555   9.922   1.814   1.574  0.5038  0.3175  0.7188
  678MOL0     H93556  10.013   1.998   1.800  0.9418  0.6852  0.1052
  678MOL0     H93557  10.026   2.052   1.632 -1.5329  1.1210 -0.3621
  678MOL0     H93558   9.779   1.975   1.782  0.7000 -1.1338  0.1719
  678MOL0     H93559   9.772   2.007   1.606 -3.4648  1.7709  1.5842
  678MOL0     H93560   9.776   2.397   1.779 -1.3700  0.1124  0.6749
  678MOL0     H93561  10.378   1.838   1.931  1.6770 -0.4921  0.3722
  678MOL0     H93562  10.503   1.639   2.201  2.2723 -0.0948  0.8426
  678MOL0     H93563  10.627   1.657   2.076  0.0601 -1.4792  2.6894
  678MOL0     H93564  10.516   1.791   2.110  1.4851 -0.3081 -1.5555
  679MOL0     O93565   2.930   0.437   4.742  0.0553 -0.2595 -0.3871
  679MOL0     C93566   2.918   0.524   4.818 -0.1560 -0.5200  0.3615
  679MOL0     O93567   2.863   0.506   4.943 -0.0473 -0.0416  0.7327
  679MOL0     C93568   2.858   0.377   5.000  0.6842 -0.7752 -0.4019
  679MOL0     C93569   2.948   0.350   5.101  0.0543 -0.1237 -0.2768
  679MOL0     C93570   2.950   0.228   5.161  1.1426  0.0219  0.3775
  679MOL0     C93571   2.863   0.124   5.118  0.3506 -0.7899 -0.4820
  679MOL0     O93572   2.865  -0.001   5.161 -0.0808  0.3319 -0.9220
  679MOL0     C93573   2.984  -0.057   5.223  0.0621  0.0151  0.6533
  679MOL0     C93574   2.960  -0.206   5.220 -0.4161 -0.6068 -0.3802
  679MOL0     C93575   3.082  -0.290   5.164  0.2773  1.2019 -0.1387
  679MOL0     C93576   3.066  -0.334   5.018 -0.5620 -0.4684 -0.3329
  679MOL0     C93577   3.183  -0.413   4.966 -0.2934 -0.1066 -0.0593
  679MOL0     C93578   3.172  -0.451   4.813  0.0893  0.2366 -0.2748
  679MOL0     C93579   3.179  -0.336   4.714 -0.0642 -0.3742 -0.0531
  679MOL0     C93580   3.136  -0.368   4.568 -0.4789 -0.2372  0.5422
  679MOL0     N93581   3.232  -0.468   4.512 -0.6562 -0.3578  1.5674
  679MOL0     C93582   3.214  -0.607   4.506 -0.6031  0.5191 -0.5502
  679MOL0     C93583   3.323  -0.661   4.451  0.1884  0.5011 -1.1070
  679MOL0     C93584   3.328  -0.804   4.393 -1.1590 -1.0678  1.1720
  679MOL0     C93585   3.456  -0.879   4.356 -0.3340  0.4981  1.3808
  679MOL0     C93586   3.529  -0.798   4.249 -0.7649 -0.6111 -0.1905
  679MOL0     C93587   3.471  -0.770   4.109 -0.1382 -0.2091 -0.7523
  679MOL0     O93588   3.396  -0.889   4.077 -0.2794 -0.1890  0.5719
  679MOL0     C93589   3.301  -0.873   3.983 -0.0939 -0.8216  1.4336
  679MOL0     C93590   3.240  -0.990   3.951 -0.7567  0.6081  0.7871
  679MOL0     C93591   3.127  -0.997   3.859 -0.3854  0.3479  0.7778
  679MOL0     C93592   3.059  -1.137   3.823  0.5148 -0.4685  0.8246
  679MOL0     C93593   3.082  -0.879   3.795 -0.6686  1.2745 -0.0333
  679MOL0     C93594   2.972  -0.870   3.693  0.0116 -0.8268 -0.1025
  679MOL0     O93595   2.991  -0.768   3.603  0.7351 -0.2679  0.9043
  679MOL0     C93596   2.909  -0.774   3.490 -0.4523  0.7921  0.2788
  679MOL0     C93597   2.898  -0.892   3.414 -0.7352  0.8343  0.2833
  679MOL0     C93598   2.847  -0.892   3.284  0.2737  0.4628 -0.7055
  679MOL0     C93599   2.785  -0.775   3.233 -0.4271  0.0229 -0.0323
  679MOL0     O93600   2.736  -0.777   3.104  0.2826 -0.6133  0.0938
  679MOL0     C93601   2.651  -0.887   3.076  0.3647 -0.1626 -0.0898
  679MOL0     C93602   2.547  -0.836   2.975 -0.2271  0.1890 -0.4630
  679MOL0     C93603   2.438  -0.936   2.934  0.4257  0.5191 -0.1246
  679MOL0     C93604   2.463  -0.984   2.792 -0.5599 -0.7326 -0.0211
  679MOL0     C93605   2.355  -1.065   2.733  1.0299 -0.6032 -0.9095
  679MOL0     C93606   2.383  -1.074   2.580  0.3658 -0.0902 -0.1114
  679MOL0     C93607   2.271  -1.161   2.527 -0.8028 -0.9063 -0.0928
  679MOL0     C93608   2.325  -1.263   2.424 -0.2711  0.4840  0.2505
  679MOL0    Cl93609   2.301  -1.192   2.261  0.9164  0.0326  0.2375
  679MOL0     C93610   2.797  -0.656   3.302  0.4103 -0.6668 -0.5996
  679MOL0     C93611   2.856  -0.653   3.430  0.0251  0.6193  0.5215
  679MOL0     O93612   2.880  -0.948   3.695 -0.1869 -0.6222 -0.7845
  679MOL0     C93613   3.148  -0.762   3.833 -0.5299  0.2873  0.0493
  679MOL0     C93614   3.262  -0.761   3.916  1.0249  0.8240  0.4580
  679MOL0     N93615   3.420  -0.552   4.443 -0.7814  0.3489 -0.4617
  679MOL0     N93616   3.360  -0.446   4.481 -0.3234 -0.0964 -0.0757
  679MOL0     C93617   2.760   0.158   5.024  1.1914 -0.3255 -0.2698
  679MOL0     C93618   2.760   0.280   4.960  0.8832 -0.1202  0.1565
  679MOL0     C93619   2.952   0.663   4.769 -0.3713  0.3493 -0.5786
  679MOL0     C93620   2.913   0.766   4.855  0.5968 -0.3384  0.1421
  679MOL0     C93621   2.960   0.898   4.841  0.9636  1.3577 -0.2150
  679MOL0     C93622   3.046   0.924   4.739 -0.7255  0.0829  1.0160
  679MOL0     O93623   3.092   1.061   4.737  0.5675  0.3489  0.8139
  679MOL0     C93624   3.218   1.082   4.815 -0.7732 -0.2776 -0.2703
  679MOL0     C93625   3.336   1.116   4.731 -0.2593 -0.3277  0.1612
  679MOL0     C93626   3.304   1.236   4.622  0.8741  1.0935 -0.7373
  679MOL0     C93627   3.399   1.347   4.636  0.1705 -0.1195  1.0345
  679MOL0     C93628   3.399   1.437   4.526 -0.2852  0.2033  0.3149
  679MOL0     C93629   3.403   1.518   4.433 -0.5217 -0.1310  0.7059
  679MOL0     C93630   3.073   0.826   4.643  0.4685 -0.2042  0.4596
  679MOL0     C93631   3.031   0.694   4.659 -0.6196 -0.3026 -0.3991
  679MOL0     C93632   3.103   0.593   4.564  0.1746 -0.6586  0.0874
  679MOL0     H93633   3.015   0.429   5.134 -1.1812  0.1177  1.7734
  679MOL0     H93634   3.017   0.201   5.243  2.6432  3.4448  0.4337
  679MOL0     H93635   3.002  -0.016   5.323 -1.3668  4.2315 -0.5728
  679MOL0     H93636   3.076  -0.032   5.169  0.1205 -0.8594  0.3384
  679MOL0     H93637   2.938  -0.240   5.322 -0.5385 -0.6392 -0.4184
  679MOL0     H93638   2.883  -0.244   5.152  0.2903 -2.5834 -0.1580
  679MOL0     H93639   3.174  -0.238   5.193  3.4476 -4.1479  0.7364
  679MOL0     H93640   3.085  -0.386   5.216  2.6624 -0.1576 -2.6027
  679MOL0     H93641   2.981  -0.399   4.998 -0.5849  0.1355 -2.5539
  679MOL0     H93642   3.044  -0.244   4.959 -1.6708 -1.9804 -2.3279
  679MOL0     H93643   3.187  -0.505   5.025  4.3685  1.0971  1.9633
  679MOL0     H93644   3.276  -0.359   4.986  0.8292 -2.1747  0.5745
  679MOL0     H93645   3.250  -0.523   4.786 -2.3939 -1.1198 -4.8149
  679MOL0     H93646   3.076  -0.497   4.793 -0.3943  1.9214 -2.0971
  679MOL0     H93647   3.279  -0.294   4.700 -1.8355  3.8328 -1.5767
  679MOL0     H93648   3.110  -0.261   4.754 -1.7965  0.0193 -3.3953
  679MOL0     H93649   3.036  -0.413   4.565 -1.1825  1.2484 -2.0312
  679MOL0     H93650   3.124  -0.273   4.515 -0.6044  0.9610  2.5806
  679MOL0     H93651   3.119  -0.653   4.529 -1.8131  3.7739  1.7061
  679MOL0     H93652   3.265  -0.805   4.303 -0.2399 -0.6462  0.5110
  679MOL0     H93653   3.284  -0.879   4.460  1.9496 -3.4052  0.8212
  679MOL0     H93654   3.522  -0.903   4.440  0.0853 -1.6739  0.5158
  679MOL0     H93655   3.425  -0.971   4.305  0.3709  0.7564  0.4633
  679MOL0     H93656   3.562  -0.705   4.296  2.4675 -2.7755  2.2477
  679MOL0     H93657   3.620  -0.853   4.221 -0.6446 -0.8704  0.6973
  679MOL0     H93658   3.411  -0.679   4.110 -0.2029  0.0654  5.0894
  679MOL0     H93659   3.559  -0.758   4.045 -0.1392 -0.8439 -0.8826
  679MOL0     H93660   3.275  -1.085   3.991 -0.8669 -1.2124 -2.9794
  679MOL0     H93661   2.949  -1.134   3.832  0.5410  0.9628  0.8495
  679MOL0     H93662   3.093  -1.218   3.889  1.6627 -0.7210 -0.0610
  679MOL0     H93663   3.083  -1.162   3.720  2.9013 -0.8301  1.4210
  679MOL0     H93664   2.932  -0.988   3.451  1.7530  1.6336  0.2186
  679MOL0     H93665   2.848  -0.981   3.222  0.3166  1.4178 -2.1130
  679MOL0     H93666   2.703  -0.970   3.027 -0.4851  0.4146 -2.0618
  679MOL0     H93667   2.598  -0.913   3.168  0.6767  3.7360  1.3438
  679MOL0     H93668   2.496  -0.750   3.018  0.0272 -0.2526  0.7711
  679MOL0     H93669   2.616  -0.812   2.893  0.1081  1.0613  0.0615
  679MOL0     H93670   2.336  -0.903   2.953 -0.5078 -2.9347  1.7336
  679MOL0     H93671   2.444  -1.027   2.995 -1.9358  0.4653  0.0970
  679MOL0     H93672   2.564  -1.025   2.788  0.2150  1.1683 -0.9922
  679MOL0     H93673   2.470  -0.891   2.735 -0.5605 -0.1170  0.9569
  679MOL0     H93674   2.350  -1.161   2.784  3.7451 -1.5018 -2.1664
  679MOL0     H93675   2.255  -1.024   2.749  0.0768 -2.9011 -0.7061
  679MOL0     H93676   2.481  -1.121   2.565  0.1173 -0.4277 -0.6893
  679MOL0     H93677   2.384  -0.975   2.534 -2.9356 -0.4908 -1.3498
  679MOL0     H93678   2.199  -1.090   2.485 -0.7951  0.5658  2.1861
  679MOL0     H93679   2.220  -1.220   2.604  3.2302 -2.8896  1.3687
  679MOL0     H93680   2.287  -1.364   2.440  2.3487 -0.5371  0.5023
  679MOL0     H93681   2.434  -1.273   2.434 -0.3752 -1.0992 -0.0425
  679MOL0     H93682   2.764  -0.563   3.257  0.4561 -0.7591 -0.8238
  679MOL0     H93683   2.859  -0.554   3.475 -3.5312  3.3723 -4.3489
  679MOL0     H93684   3.127  -0.661   3.798 -2.3993 -0.5052 -1.3101
  679MOL0     H93685   3.321  -0.670   3.921  3.1767 -0.4271 -0.8623
  679MOL0     H93686   2.672   0.100   4.994  1.3289 -1.2644  1.0344
  679MOL0     H93687   2.690   0.300   4.880  1.5806  0.5743 -0.2981
  679MOL0     H93688   2.856   0.745   4.945 -0.8610  0.1824 -0.6205
  679MOL0     H93689   2.929   0.969   4.917 -0.8345 -1.9426  2.4235
  679MOL0     H93690   3.194   1.171   4.874 -0.0552  0.9608 -1.7605
  679MOL0     H93691   3.235   1.007   4.893 -0.4564 -2.0060 -1.9311
  679MOL0     H93692   3.380   1.029   4.682  1.9001 -0.7245  2.5778
  679MOL0     H93693   3.421   1.149   4.793  0.4596 -0.4940 -0.7120
  679MOL0     H93694   3.309   1.185   4.526 -1.1902 -2.6701  0.9418
  679MOL0     H93695   3.201   1.270   4.636  0.3641 -1.0806  1.6153
  679MOL0     H93696   3.503   1.314   4.644  1.3007  3.0726  0.8847
  679MOL0     H93697   3.368   1.387   4.733 -2.8614 -1.6338  0.8237
  679MOL0     H93698   3.404   1.596   4.359  0.5247  0.9524  1.8115
  679MOL0     H93699   3.137   0.850   4.559 -0.5334 -1.4287 -0.7015
  679MOL0     H93700   3.117   0.645   4.469 -2.3189  1.8491  0.9726
  679MOL0     H93701   3.197   0.571   4.616  1.0947  3.5537  0.5641
  679MOL0     H93702   3.045   0.501   4.549  2.2725 -2.0863  0.2489
  680MOL0     O93703   0.350  10.906   8.402  0.2767 -0.3847 -0.6909
  680MOL0     C93704   0.427  10.840   8.467 -1.0219  0.3184 -0.2814
  680MOL0     O93705   0.475  10.872   8.591 -0.2677 -0.3944 -0.7737
  680MOL0     C93706   0.503  11.000   8.631  0.2209 -0.1454 -0.3961
  680MOL0     C93707   0.524  11.028   8.759  0.5514  0.2295 -0.7394
  680MOL0     C93708   0.543  11.157   8.813  0.1417  0.7221 -0.4077
  680MOL0     C93709   0.564  11.266   8.722  0.5371  1.0308 -0.0707
  680MOL0     O93710   0.575  11.390   8.782  0.8225  0.0937 -0.1515
  680MOL0     C93711   0.715  11.442   8.781  0.7817  0.6844 -0.5921
  680MOL0     C93712   0.718  11.586   8.855 -0.1785  1.3708  0.1604
  680MOL0     C93713   0.702  11.712   8.768  0.9590  0.3190  0.1895
  680MOL0     C93714   0.574  11.693   8.677  0.3216  0.1048 -0.1453
  680MOL0     C93715   0.555  11.819   8.601 -0.5232  0.0614  0.0877
  680MOL0     C93716   0.509  11.945   8.673 -0.5224  0.0663  0.2565
  680MOL0     C93717   0.409  12.020   8.596  0.7984 -0.6973  0.5500
  680MOL0     C93718   0.380  12.161   8.669  0.0979 -0.3649  0.0417
  680MOL0     N93719   0.341  12.147   8.810 -1.0904  0.1396 -0.2815
  680MOL0     C93720   0.266  12.047   8.864 -0.2126  0.6570  0.3030
  680MOL0     C93721   0.303  12.044   8.993  0.5445  0.3869 -0.9689
  680MOL0     C93722   0.260  11.933   9.087  0.2191  0.1309 -0.2313
  680MOL0     C93723   0.161  11.984   9.197  0.2023 -0.2620  0.1300
  680MOL0     C93724   0.049  12.072   9.152  1.4413 -0.3362 -0.3363
  680MOL0     C93725  -0.041  12.010   9.050  0.7968  0.5816  0.2495
  680MOL0     O93726  -0.091  11.893   9.118 -0.9475  0.1437 -0.3585
  680MOL0     C93727  -0.133  11.793   9.035 -0.7256  0.3790 -0.4911
  680MOL0     C93728  -0.145  11.665   9.098  0.4458  0.2940 -0.0975
  680MOL0     C93729  -0.196  11.552   9.030  0.6338 -0.2809 -0.0740
  680MOL0     C93730  -0.179  11.424   9.097 -0.0524  0.1043  0.3193
  680MOL0     C93731  -0.250  11.568   8.895 -0.1050 -0.8557 -0.3428
  680MOL0     C93732  -0.313  11.462   8.810 -0.2005 -0.8929 -0.1613
  680MOL0     O93733  -0.323  11.339   8.857  0.3606 -0.1714 -0.1228
  680MOL0     C93734  -0.366  11.244   8.774 -0.1009  0.8853 -0.8849
  680MOL0     C93735  -0.277  11.205   8.670  1.3639  0.3373  0.0451
  680MOL0     C93736  -0.336  11.123   8.570  0.6434  1.0106  0.1582
  680MOL0     C93737  -0.465  11.058   8.585 -0.9674 -0.4028  0.1189
  680MOL0     O93738  -0.501  10.968   8.486 -0.0651 -0.4594 -0.2889
  680MOL0     C93739  -0.595  10.868   8.519 -0.0128 -1.0838  0.3395
  680MOL0     C93740  -0.603  10.755   8.415 -0.4749  0.3272  0.4477
  680MOL0     C93741  -0.631  10.815   8.269 -0.1158  0.1052 -1.6706
  680MOL0     C93742  -0.597  10.711   8.157 -0.6431 -0.1353  0.4857
  680MOL0     C93743  -0.639  10.767   8.028  0.0078  0.0173 -0.4505
  680MOL0     C93744  -0.651  10.660   7.918 -1.2436  1.0149 -0.6088
  680MOL0     C93745  -0.702  10.721   7.785  1.0697 -0.6595 -0.6715
  680MOL0     C93746  -0.608  10.811   7.705 -0.1467  0.5379 -0.2399
  680MOL0    Cl93747  -0.657  10.829   7.528  0.0602 -0.1885  0.0700
  680MOL0     C93748  -0.536  11.077   8.701 -0.2379  0.2122 -0.0090
  680MOL0     C93749  -0.487  11.171   8.799 -0.3086 -0.1281 -0.0314
  680MOL0     O93750  -0.350  11.496   8.699 -0.0636 -0.3928  0.0816
  680MOL0     C93751  -0.252  11.705   8.846  1.6189  0.2437 -0.7638
  680MOL0     C93752  -0.201  11.819   8.911  0.3865  1.0664  0.8086
  680MOL0     N93753   0.384  12.148   9.024 -0.7304 -0.0023  0.2914
  680MOL0     N93754   0.409  12.205   8.913  0.1220  0.3261  0.2441
  680MOL0     C93755   0.566  11.239   8.583  0.3773  0.8033 -0.3250
  680MOL0     C93756   0.530  11.108   8.540 -0.7256 -0.2096 -0.2571
  680MOL0     C93757   0.486  10.722   8.410  0.4001  0.2824 -0.2179
  680MOL0     C93758   0.512  10.624   8.503 -1.6616  0.5370 -0.5194
  680MOL0     C93759   0.571  10.502   8.473  0.0196  0.9420 -0.1307
  680MOL0     C93760   0.607  10.471   8.339  0.7758  0.0290 -0.9980
  680MOL0     O93761   0.673  10.354   8.303  0.5055  0.3837 -0.0461
  680MOL0     C93762   0.730  10.266   8.405 -0.0149 -0.6575  0.3598
  680MOL0     C93763   0.823  10.156   8.350 -0.6748 -0.6186  0.6118
  680MOL0     C93764   0.962  10.214   8.304  0.9067  0.7196 -0.2380
  680MOL0     C93765   1.059  10.107   8.254 -0.3972  0.8632  0.0638
  680MOL0     C93766   1.087  10.115   8.111  1.2352  0.4505 -0.1603
  680MOL0     C93767   1.108  10.105   7.995 -0.4460  1.0697  0.0828
  680MOL0     C93768   0.573  10.577   8.252  0.0240  0.6218 -0.4650
  680MOL0     C93769   0.517  10.700   8.279  0.6611  0.6094  0.0744
  680MOL0     C93770   0.484  10.789   8.170  0.3997 -0.9807 -0.2204
  680MOL0     H93771   0.503  10.936   8.813  0.9111 -0.8108 -2.2819
  680MOL0     H93772   0.567  11.174   8.917  0.1819 -1.5507 -0.0017
  680MOL0     H93773   0.748  11.460   8.678  1.3956  1.8066 -0.2164
  680MOL0     H93774   0.766  11.366   8.840 -1.2133  0.8992  1.5699
  680MOL0     H93775   0.647  11.585   8.939  0.7668 -0.5735  0.9895
  680MOL0     H93776   0.818  11.597   8.898  0.3324 -1.6312 -0.0409
  680MOL0     H93777   0.691  11.799   8.834  1.8511 -0.7459  1.7770
  680MOL0     H93778   0.785  11.715   8.696 -0.2443 -2.4018 -1.4598
  680MOL0     H93779   0.583  11.612   8.605 -0.4831  1.6818 -2.1067
  680MOL0     H93780   0.482  11.663   8.727  0.5534 -1.4153 -0.6043
  680MOL0     H93781   0.478  11.810   8.524 -0.7103  1.4174  0.1036
  680MOL0     H93782   0.647  11.846   8.549  0.0035 -2.8236 -0.6863
  680MOL0     H93783   0.463  11.911   8.767 -1.2968  0.1717 -0.0755
  680MOL0     H93784   0.591  12.004   8.713  0.5990 -0.2554 -1.4790
  680MOL0     H93785   0.314  11.966   8.596  0.9841 -1.0372 -0.2534
  680MOL0     H93786   0.442  12.026   8.492  0.5207 -3.7251  0.1932
  680MOL0     H93787   0.475  12.215   8.673  0.0646 -0.3102  0.0841
  680MOL0     H93788   0.309  12.211   8.603  0.1410  0.5636  0.6787
  680MOL0     H93789   0.203  11.965   8.829  1.0094 -1.9815  3.7280
  680MOL0     H93790   0.343  11.885   9.139 -1.4357 -3.4066 -0.5856
  680MOL0     H93791   0.201  11.851   9.045  1.1689 -0.8566  0.2964
  680MOL0     H93792   0.125  11.907   9.265 -2.5208  0.5131 -0.3225
  680MOL0     H93793   0.227  12.053   9.251  0.2120 -1.3794  1.6077
  680MOL0     H93794  -0.012  12.101   9.238  0.3524 -0.0609 -1.1780
  680MOL0     H93795   0.087  12.159   9.098 -1.0218  0.4556 -0.9302
  680MOL0     H93796  -0.119  12.083   9.027 -0.3943 -0.1417  1.8064
  680MOL0     H93797   0.006  11.988   8.954 -0.6775  0.7133 -0.5357
  680MOL0     H93798  -0.102  11.658   9.198  0.2228 -0.8809 -0.0739
  680MOL0     H93799  -0.169  11.453   9.202  0.2560  1.0208  0.0431
  680MOL0     H93800  -0.098  11.360   9.059  0.3222 -0.0808  1.3992
  680MOL0     H93801  -0.268  11.362   9.093 -1.1881  1.4905  2.3028
  680MOL0     H93802  -0.191  11.265   8.643  3.4313 -2.8496 -1.0265
  680MOL0     H93803  -0.278  11.110   8.479 -0.9625  3.4636 -1.3641
  680MOL0     H93804  -0.552  10.827   8.611  0.6815  0.9853  0.9923
  680MOL0     H93805  -0.693  10.914   8.533  0.1794 -0.8848  1.0562
  680MOL0     H93806  -0.504  10.709   8.401 -0.6176  0.0626  0.2878
  680MOL0     H93807  -0.679  10.680   8.439 -0.5618  0.7494  1.5065
  680MOL0     H93808  -0.567  10.901   8.249 -0.4115  1.2941  1.7723
  680MOL0     H93809  -0.736  10.845   8.275 -0.6967 -1.9777  1.1992
  680MOL0     H93810  -0.655  10.620   8.179 -0.0400 -0.9733 -1.2019
  680MOL0     H93811  -0.488  10.700   8.152 -0.4364  2.0744 -1.5408
  680MOL0     H93812  -0.735  10.817   8.038 -0.7280 -1.5937  1.1630
  680MOL0     H93813  -0.565  10.847   8.014 -0.7698  0.2827 -3.7063
  680MOL0     H93814  -0.733  10.595   7.951 -1.2035  2.3346  2.4281
  680MOL0     H93815  -0.555  10.612   7.898 -0.7875  2.1907 -1.3509
  680MOL0     H93816  -0.801  10.765   7.799  1.6198  0.0707  1.2020
  680MOL0     H93817  -0.717  10.639   7.714 -1.8136  0.9241 -2.0445
  680MOL0     H93818  -0.511  10.762   7.692 -0.3245  0.6436 -2.2661
  680MOL0     H93819  -0.598  10.910   7.749 -1.4265  1.7894 -2.5907
  680MOL0     H93820  -0.637  11.040   8.710 -0.6777  1.6858  1.8069
  680MOL0     H93821  -0.530  11.204   8.893  0.4177  3.0910 -0.7308
  680MOL0     H93822  -0.296  11.724   8.748 -2.6703  0.1194  0.9238
  680MOL0     H93823  -0.191  11.916   8.864  2.3721  2.5027  3.9152
  680MOL0     H93824   0.583  11.326   8.519 -0.9377  1.0650 -0.3408
  680MOL0     H93825   0.527  11.100   8.432 -2.5385  5.2801 -0.9531
  680MOL0     H93826   0.486  10.626   8.608  1.1475 -3.2663  0.4906
  680MOL0     H93827   0.582  10.429   8.553  1.6249  1.1333 -0.1381
  680MOL0     H93828   0.783  10.324   8.482  0.1885  0.5155 -0.6385
  680MOL0     H93829   0.650  10.218   8.463 -0.9016  0.6329  0.2416
  680MOL0     H93830   0.765  10.109   8.270 -2.4657 -0.3858  1.7031
  680MOL0     H93831   0.850  10.089   8.433 -3.5328 -2.0749  0.4968
  680MOL0     H93832   0.948  10.289   8.226 -2.0946 -0.3176 -0.8510
  680MOL0     H93833   1.000  10.256   8.398 -2.6407 -2.3027  2.9128
  680MOL0     H93834   1.023  10.009   8.285  2.1471  0.4907  2.2856
  680MOL0     H93835   1.152  10.132   8.308 -0.0552  3.1763 -1.4401
  680MOL0     H93836   1.132  10.109   7.890  0.9858  3.2144  0.4128
  680MOL0     H93837   0.575  10.548   8.147 -1.0458 -0.7303 -0.1370
  680MOL0     H93838   0.480  10.732   8.077 -1.6596 -1.7022  0.2552
  680MOL0     H93839   0.389  10.842   8.183  1.7054  1.2174  1.1237
  680MOL0     H93840   0.557  10.871   8.164 -2.1858  2.4514  5.6741
  681MOL0     O93841   3.451   8.074  10.095 -0.0635  0.4176  0.0121
  681MOL0     C93842   3.448   8.107   9.969  0.1212 -0.1871 -0.1932
  681MOL0     O93843   3.337   8.107   9.888  0.3409  0.0712 -0.1473
  681MOL0     C93844   3.213   8.088   9.937 -0.2142  0.1766  0.1944
  681MOL0     C93845   3.167   7.952   9.954  0.0505  0.8112  0.7230
  681MOL0     C93846   3.044   7.941  10.033  0.1879  0.6874 -0.2391
  681MOL0     C93847   2.968   8.050  10.060  1.0882  0.3116  0.3646
  681MOL0     O93848   2.846   8.046  10.126  0.2389  0.3763 -0.4884
  681MOL0     C93849   2.778   7.928  10.175 -0.1252 -0.0250  0.1392
  681MOL0     C93850   2.669   7.979  10.274 -0.0650  0.4806 -0.0410
  681MOL0     C93851   2.591   7.878  10.363 -0.6664  0.3927  0.1530
  681MOL0     C93852   2.502   7.956  10.456 -0.0119 -0.3426 -0.2697
  681MOL0     C93853   2.448   7.865  10.574  0.0301  0.6173  1.3971
  681MOL0     C93854   2.325   7.927  10.648 -0.5558 -0.2238 -0.2595
  681MOL0     C93855   2.371   8.038  10.740  1.1107  0.4904  0.4662
  681MOL0     C93856   2.438   8.002  10.870  0.7202 -0.3672  0.2543
  681MOL0     N93857   2.441   8.114  10.962 -0.1005 -0.0282  0.4496
  681MOL0     C93858   2.325   8.146  11.025 -1.1905  0.1285 -0.0590
  681MOL0     C93859   2.366   8.244  11.101  0.3835  0.2813 -0.5365
  681MOL0     C93860   2.280   8.337  11.188 -0.0743  0.2801 -0.0166
  681MOL0     C93861   2.195   8.263  11.284 -0.5496 -0.0237  0.1748
  681MOL0     C93862   2.055   8.231  11.222 -0.3397 -0.6990  0.1503
  681MOL0     C93863   1.979   8.150  11.336  0.4968  0.0685  0.8994
  681MOL0     O93864   1.944   8.226  11.456 -0.8441  1.2333 -0.7641
  681MOL0     C93865   1.939   8.177  11.583  0.4741  0.8858 -0.6145
  681MOL0     C93866   2.012   8.069  11.629 -0.1054  0.1873  0.3483
  681MOL0     C93867   2.011   8.035  11.763  1.0801 -0.4492  0.3672
  681MOL0     C93868   2.086   7.908  11.782 -0.9193  0.0318  0.5959
  681MOL0     C93869   1.951   8.113  11.866 -0.7863  0.1113  0.9139
  681MOL0     C93870   1.961   8.094  12.012 -0.9727  0.0731 -1.1588
  681MOL0     O93871   2.063   7.998  12.043  0.6554  0.4399  0.0446
  681MOL0     C93872   2.098   7.994  12.175  0.0222  0.2555  0.2335
  681MOL0     C93873   2.121   8.101  12.259 -0.1149  0.6509 -0.1471
  681MOL0     C93874   2.159   8.081  12.396 -0.2129 -0.2953 -0.3470
  681MOL0     C93875   2.181   7.954  12.449  0.3038  0.8004 -0.5977
  681MOL0     O93876   2.220   7.943  12.589 -0.3221  0.8576  0.6878
  681MOL0     C93877   2.232   7.813  12.645 -0.5937  0.0185  0.4083
  681MOL0     C93878   2.367   7.764  12.616 -0.1035  0.6248  0.1691
  681MOL0     C93879   2.396   7.637  12.687  0.2820  1.0576 -0.0599
  681MOL0     C93880   2.540   7.624  12.727 -0.4576 -0.4314 -0.0073
  681MOL0     C93881   2.553   7.496  12.808  0.6984  0.0220 -0.3677
  681MOL0     C93882   2.667   7.507  12.911  0.4467 -0.2640  0.3870
  681MOL0     C93883   2.803   7.562  12.848  0.0053  0.3776  0.2571
  681MOL0     C93884   2.858   7.481  12.725 -0.2320 -0.2463  0.6271
  681MOL0    Cl93885   3.004   7.585  12.681  0.6095  0.2661 -0.1295
  681MOL0     C93886   2.171   7.848  12.358  0.6030 -0.6638 -0.1242
  681MOL0     C93887   2.117   7.858  12.225  0.5135  0.3602 -0.0622
  681MOL0     O93888   1.893   8.160  12.092  0.1593  0.9846 -0.2491
  681MOL0     C93889   1.874   8.215  11.815  1.1464 -1.3113  0.1575
  681MOL0     C93890   1.869   8.253  11.681 -0.1474  0.5635  0.2059
  681MOL0     N93891   2.505   8.262  11.097 -0.0020  0.2998 -0.2788
  681MOL0     N93892   2.541   8.196  10.994 -0.4243 -0.3498  0.1286
  681MOL0     C93893   3.010   8.181  10.018  0.5261 -0.5454  0.5630
  681MOL0     C93894   3.134   8.195   9.963 -0.3801 -0.1696  0.4639
  681MOL0     C93895   3.563   8.168   9.908 -0.6880 -0.0769  0.2903
  681MOL0     C93896   3.542   8.285   9.835 -0.9448  0.3248 -0.0784
  681MOL0     C93897   3.640   8.347   9.763 -0.4470  0.0262  0.0350
  681MOL0     C93898   3.769   8.301   9.761 -0.7177 -0.4482 -0.6780
  681MOL0     O93899   3.871   8.384   9.719 -0.5412  0.5784  0.1258
  681MOL0     C93900   3.973   8.422   9.809 -0.0006 -1.1728 -0.2200
  681MOL0     C93901   3.918   8.475   9.934 -0.1018 -0.5450 -0.0175
  681MOL0     C93902   3.837   8.604   9.911 -0.4947  0.4943 -0.1353
  681MOL0     C93903   3.859   8.703  10.025  0.5432 -0.8298 -0.1091
  681MOL0     C93904   3.998   8.736  10.035  0.9063 -0.7383  0.1771
  681MOL0     C93905   4.110   8.765  10.056 -0.1025  0.5813 -0.2455
  681MOL0     C93906   3.794   8.190   9.844 -0.2538  0.2764 -0.2206
  681MOL0     C93907   3.699   8.119   9.916  0.2959  0.2123 -0.4525
  681MOL0     C93908   3.750   8.002   9.999  1.0081  0.4809 -0.6246
  681MOL0     H93909   3.238   7.871   9.945  1.9308  2.4970 -0.4080
  681MOL0     H93910   3.013   7.844  10.068  2.3714 -0.4108 -1.1167
  681MOL0     H93911   2.833   7.853  10.232 -1.4129 -2.9272 -2.0915
  681MOL0     H93912   2.722   7.887  10.090 -0.6722  1.5441 -0.2902
  681MOL0     H93913   2.727   8.035  10.348 -0.1664 -1.3879  1.5344
  681MOL0     H93914   2.602   8.051  10.227 -0.4742 -0.7733 -1.4468
  681MOL0     H93915   2.532   7.814  10.296 -0.8308  1.5233 -0.8367
  681MOL0     H93916   2.653   7.812  10.424 -1.4208 -0.4644  0.0212
  681MOL0     H93917   2.550   8.044  10.499 -2.7486  1.5354 -0.8312
  681MOL0     H93918   2.414   7.990  10.400  0.5970 -2.1559 -2.4628
  681MOL0     H93919   2.537   7.850  10.635  0.6035 -1.2537  0.1863
  681MOL0     H93920   2.422   7.767  10.534  0.2997  1.2023 -0.2782
  681MOL0     H93921   2.258   7.969  10.572 -0.5915  2.0843  0.9427
  681MOL0     H93922   2.266   7.858  10.709  1.0020 -1.2057  0.2024
  681MOL0     H93923   2.288   8.110  10.746  0.8223  0.3108 -1.1284
  681MOL0     H93924   2.449   8.097  10.691  1.4228 -0.2932 -0.0030
  681MOL0     H93925   2.381   7.926  10.925  4.9205 -2.0985  2.6955
  681MOL0     H93926   2.537   7.958  10.854  0.2650 -2.5203  2.6409
  681MOL0     H93927   2.235   8.089  11.005  0.6089 -2.4685 -1.1958
  681MOL0     H93928   2.210   8.394  11.125 -1.3167  2.9493  3.4091
  681MOL0     H93929   2.346   8.403  11.245  0.1396  0.4079 -0.4103
  681MOL0     H93930   2.242   8.165  11.297 -0.2580 -0.0181 -0.8162
  681MOL0     H93931   2.201   8.315  11.380 -1.5809 -1.0137  0.8059
  681MOL0     H93932   1.991   8.318  11.204  1.4891  0.9055  1.1015
  681MOL0     H93933   2.061   8.170  11.131  1.5616 -0.3485  0.0016
  681MOL0     H93934   1.880   8.120  11.300  1.9767 -3.3277 -0.8206
  681MOL0     H93935   2.042   8.063  11.358 -1.7214 -1.7990  0.3510
  681MOL0     H93936   2.073   8.001  11.570  2.4936 -0.5909  3.6041
  681MOL0     H93937   2.098   7.850  11.690  1.5243  0.3288  0.6425
  681MOL0     H93938   2.032   7.843  11.852 -1.8050  0.6290  0.4803
  681MOL0     H93939   2.182   7.919  11.835 -1.8082 -0.6942  2.4584
  681MOL0     H93940   2.103   8.203  12.226 -7.0114 -1.3467 -4.8955
  681MOL0     H93941   2.173   8.176  12.447  3.5410 -1.6028  1.3488
  681MOL0     H93942   2.227   7.823  12.754  2.1333  2.2169  0.4651
  681MOL0     H93943   2.165   7.738  12.602  3.4441 -2.5496 -2.1220
  681MOL0     H93944   2.390   7.764  12.509 -1.0959  5.5404 -0.3091
  681MOL0     H93945   2.436   7.838  12.658  0.6073 -0.6939  1.4342
  681MOL0     H93946   2.376   7.552  12.621  1.8927  1.2372 -0.8250
  681MOL0     H93947   2.336   7.621  12.777  1.8791 -2.0029  0.6323
  681MOL0     H93948   2.559   7.710  12.792 -3.0359 -0.0110  0.2732
  681MOL0     H93949   2.608   7.613  12.642  0.6883 -3.0223  1.1079
  681MOL0     H93950   2.466   7.475  12.871 -1.4575  0.2260 -3.0886
  681MOL0     H93951   2.562   7.410  12.742  2.9919  0.5498 -0.8283
  681MOL0     H93952   2.674   7.406  12.954 -0.2290 -2.0454 -3.2817
  681MOL0     H93953   2.644   7.572  12.995  1.6904 -2.2330  2.3732
  681MOL0     H93954   2.879   7.547  12.925  1.5903  1.2336 -1.0910
  681MOL0     H93955   2.801   7.671  12.843 -1.1842  0.5892  3.1650
  681MOL0     H93956   2.777   7.465  12.654  1.2508  0.5956 -1.3467
  681MOL0     H93957   2.889   7.386  12.770 -1.8720 -0.3208  1.6924
  681MOL0     H93958   2.167   7.745  12.390 -4.2100 -0.3268  0.9666
  681MOL0     H93959   2.085   7.783  12.154  4.8659  0.4585 -2.4570
  681MOL0     H93960   1.817   8.279  11.882 -1.2045 -4.0098  0.9271
  681MOL0     H93961   1.794   8.325  11.649 -0.6186  0.4565  1.0486
  681MOL0     H93962   2.962   8.277  10.032 -1.3886 -1.7558  3.3712
  681MOL0     H93963   3.185   8.287   9.938  2.6358 -2.1228 -1.0992
  681MOL0     H93964   3.448   8.339   9.822  0.3487  2.2344 -2.2610
  681MOL0     H93965   3.609   8.441   9.718  0.1573 -0.1819 -0.8410
  681MOL0     H93966   4.030   8.334   9.840 -0.5938 -2.0249 -1.4560
  681MOL0     H93967   4.048   8.485   9.762  0.3967 -1.7358 -0.3487
  681MOL0     H93968   3.994   8.482  10.013 -2.0476  2.0466  1.7975
  681MOL0     H93969   3.841   8.407   9.973 -3.2992  3.0105  0.4436
  681MOL0     H93970   3.871   8.647   9.817 -1.7588 -1.2284 -1.4517
  681MOL0     H93971   3.735   8.577   9.883  0.1183 -1.3712 -0.7469
  681MOL0     H93972   3.826   8.661  10.121 -0.9178  1.0419  0.2867
  681MOL0     H93973   3.803   8.791   9.992 -0.4744 -2.3939 -2.8624
  681MOL0     H93974   4.214   8.790  10.068  0.3890 -0.2951 -2.3352
  681MOL0     H93975   3.898   8.168   9.864  0.0403  2.3535  0.8531
  681MOL0     H93976   3.859   8.007   9.998  1.0979 -0.0230  1.6593
  681MOL0     H93977   3.724   8.016  10.104  0.2490 -1.4861 -0.5101
  681MOL0     H93978   3.712   7.904   9.968  2.0599  0.0067 -0.4861
  682MOL0     O93979   3.576   6.550   0.401 -0.3443 -0.2267 -1.0415
  682MOL0     C93980   3.632   6.466   0.476  0.1790 -0.5839  0.7535
  682MOL0     O93981   3.758   6.441   0.487  0.3976 -0.1697 -0.4953
  682MOL0     C93982   3.856   6.518   0.431 -1.0971  0.8831 -0.5298
  682MOL0     C93983   3.854   6.573   0.297 -0.0054  0.0348 -0.7781
  682MOL0     C93984   3.973   6.610   0.233 -0.0118  0.1081 -0.6816
  682MOL0     C93985   4.094   6.607   0.303  0.4982 -0.4933  0.3269
  682MOL0     O93986   4.203   6.664   0.240 -0.1383  0.0584  0.0730
  682MOL0     C93987   4.331   6.614   0.279 -0.3836  0.3615  0.3175
  682MOL0     C93988   4.425   6.725   0.325  0.3392 -0.1809 -0.6436
  682MOL0     C93989   4.578   6.687   0.338  0.0966  0.6468  1.6088
  682MOL0     C93990   4.655   6.823   0.349 -0.7601  0.4465  0.0892
  682MOL0     C93991   4.785   6.785   0.416 -0.5032  0.2548  0.8411
  682MOL0     C93992   4.874   6.917   0.415 -0.3916  0.7018  0.8446
  682MOL0     C93993   4.916   6.976   0.272 -0.3758  0.3974  0.0130
  682MOL0     C93994   5.017   6.898   0.196 -0.3136  0.6271  0.2277
  682MOL0     N93995   5.030   6.962   0.064 -0.0769  0.0128  0.6310
  682MOL0     C93996   5.153   6.983   0.001  0.8263  0.4765  0.0712
  682MOL0     C93997   5.125   6.997  -0.135  0.5018  0.2857  0.5834
  682MOL0     C93998   5.217   6.974  -0.254  0.1316  0.1510 -0.2471
  682MOL0     C93999   5.325   7.071  -0.287 -0.5881  0.2778  0.2468
  682MOL0     C94000   5.400   7.032  -0.421  0.3619 -0.8277  0.3026
  682MOL0     C94001   5.506   7.140  -0.468  0.3938  1.4152 -0.3032
  682MOL0     O94002   5.566   7.199  -0.350 -0.5307  0.5720  0.0900
  682MOL0     C94003   5.636   7.318  -0.375 -0.3177 -0.4768 -0.3223
  682MOL0     C94004   5.725   7.325  -0.478  1.2167 -0.0845  0.1274
  682MOL0     C94005   5.806   7.438  -0.498  0.0139 -0.0442  0.2809
  682MOL0     C94006   5.921   7.436  -0.600  0.8320  0.3364  0.2470
  682MOL0     C94007   5.784   7.546  -0.416 -0.4448 -0.6149  0.2781
  682MOL0     C94008   5.857   7.675  -0.428  0.4138 -0.3276  1.2316
  682MOL0     O94009   5.786   7.781  -0.379 -0.2669 -1.0013  1.1792
  682MOL0     C94010   5.817   7.906  -0.433  0.3442  0.8039  0.4903
  682MOL0     C94011   5.829   7.937  -0.574  0.4338  0.4595  0.6820
  682MOL0     C94012   5.866   8.068  -0.607  0.2403  0.5025  0.7218
  682MOL0     C94013   5.892   8.170  -0.516  0.0696 -0.2634 -0.0148
  682MOL0     O94014   5.912   8.296  -0.558  0.3323  0.0061  1.0155
  682MOL0     C94015   5.983   8.386  -0.474 -0.3724  0.8477  0.3431
  682MOL0     C94016   6.132   8.343  -0.466 -0.0161 -0.6787 -0.6164
  682MOL0     C94017   6.198   8.350  -0.603 -0.9191  0.7186  0.3395
  682MOL0     C94018   6.345   8.296  -0.601 -0.0971  0.4625  0.6659
  682MOL0     C94019   6.412   8.331  -0.736 -0.7806  0.4691  1.0485
  682MOL0     C94020   6.533   8.244  -0.736 -1.1237  0.3506  0.0436
  682MOL0     C94021   6.658   8.336  -0.761  0.7041  0.3302 -0.3031
  682MOL0     C94022   6.790   8.265  -0.772  0.0289 -0.4787 -0.5790
  682MOL0    Cl94023   6.915   8.362  -0.877  0.3059  0.4478  0.1263
  682MOL0     C94024   5.883   8.137  -0.381 -1.0134 -0.4071  0.2896
  682MOL0     C94025   5.832   8.012  -0.338 -0.2099 -0.1379 -0.6508
  682MOL0     O94026   5.976   7.681  -0.474 -0.3677 -0.4787  0.2001
  682MOL0     C94027   5.692   7.541  -0.314  0.6833 -1.0997 -0.5160
  682MOL0     C94028   5.617   7.428  -0.300 -0.7102 -0.2672 -0.3971
  682MOL0     N94029   4.983   7.000  -0.146 -0.2277 -0.1617 -0.5483
  682MOL0     N94030   4.930   6.978  -0.026  0.6957  0.2711  0.4126
  682MOL0     C94031   4.096   6.568   0.431  0.2057  1.0492  0.1477
  682MOL0     C94032   3.986   6.517   0.493  0.3639  0.2114 -0.1591
  682MOL0     C94033   3.527   6.377   0.557 -1.3941 -0.3227  0.8856
  682MOL0     C94034   3.556   6.242   0.569 -0.3978 -0.2936 -0.4781
  682MOL0     C94035   3.455   6.158   0.620 -0.9309  1.0410  0.7865
  682MOL0     C94036   3.333   6.205   0.676 -1.1348 -0.1539  0.3949
  682MOL0     O94037   3.239   6.129   0.735 -0.4908 -0.6987 -0.0818
  682MOL0     C94038   3.231   5.992   0.690  0.1332 -1.0811 -0.1511
  682MOL0     C94039   3.279   5.900   0.802  0.0959  0.1148 -0.3106
  682MOL0     C94040   3.251   5.754   0.780  0.6496  0.7077  0.0737
  682MOL0     C94041   3.118   5.712   0.842 -0.0485  0.4700  0.2571
  682MOL0     C94042   3.106   5.566   0.844  0.1799 -1.0064 -1.0426
  682MOL0     C94043   3.074   5.452   0.838 -0.2163  0.4334  0.3804
  682MOL0     C94044   3.316   6.342   0.661 -0.7114 -0.4650 -0.1585
  682MOL0     C94045   3.401   6.428   0.602 -0.5301 -0.2194 -0.2980
  682MOL0     C94046   3.362   6.567   0.600  0.7491  0.4191  0.9035
  682MOL0     H94047   3.759   6.592   0.249 -2.2486  0.3508  3.4269
  682MOL0     H94048   3.976   6.660   0.137 -2.2662 -0.0300 -0.8699
  682MOL0     H94049   4.379   6.552   0.203  3.0670 -0.0958  2.6650
  682MOL0     H94050   4.319   6.538   0.357 -0.0224  0.0631  0.0819
  682MOL0     H94051   4.406   6.809   0.258  0.0707 -1.3030 -2.0326
  682MOL0     H94052   4.385   6.760   0.420  0.8391 -0.8405 -0.1849
  682MOL0     H94053   4.583   6.626   0.429  0.0850  2.1466  2.6409
  682MOL0     H94054   4.611   6.616   0.262  0.1102 -0.4729  2.6212
  682MOL0     H94055   4.652   6.863   0.248 -2.0644 -2.1399 -0.9814
  682MOL0     H94056   4.601   6.882   0.424 -0.1959  0.7048  0.3019
  682MOL0     H94057   4.814   6.696   0.359 -1.1513  1.3270 -1.2582
  682MOL0     H94058   4.773   6.745   0.518  1.9725  0.0019  1.1062
  682MOL0     H94059   4.817   6.990   0.473 -2.5991 -1.2668  1.3320
  682MOL0     H94060   4.963   6.897   0.475 -1.1190 -1.2317  1.3833
  682MOL0     H94061   4.966   7.071   0.292  2.5344 -1.0552  0.1568
  682MOL0     H94062   4.828   6.995   0.209 -0.9503  0.1779  0.7281
  682MOL0     H94063   5.117   6.890   0.240 -0.4955  1.3580  0.7936
  682MOL0     H94064   4.981   6.796   0.177 -0.0397  0.0895  2.2653
  682MOL0     H94065   5.253   6.984   0.044 -0.7758  1.1942  4.1679
  682MOL0     H94066   5.155   6.952  -0.341  0.9177  1.2720 -1.1296
  682MOL0     H94067   5.271   6.884  -0.225  0.7105  0.7675  0.6494
  682MOL0     H94068   5.275   7.168  -0.290  0.0659  0.6269  0.3741
  682MOL0     H94069   5.399   7.085  -0.207  2.0956 -0.2881 -1.9671
  682MOL0     H94070   5.459   6.943  -0.400  0.8031 -0.6526 -0.1581
  682MOL0     H94071   5.326   7.001  -0.496  1.1793  0.0374 -0.9139
  682MOL0     H94072   5.579   7.087  -0.530 -1.0353 -2.8807  1.3384
  682MOL0     H94073   5.460   7.211  -0.537 -1.2008  0.9513  0.2386
  682MOL0     H94074   5.743   7.232  -0.532 -0.6779 -0.2828 -0.2219
  682MOL0     H94075   5.925   7.332  -0.632  0.4763  0.1228  0.8779
  682MOL0     H94076   6.020   7.461  -0.562  1.6339  2.2031 -2.6733
  682MOL0     H94077   5.911   7.507  -0.683 -0.6991  0.9284  0.8964
  682MOL0     H94078   5.799   7.867  -0.651  0.3827 -1.2888  2.2371
  682MOL0     H94079   5.862   8.078  -0.715 -1.7457 -1.5633  0.5269
  682MOL0     H94080   5.978   8.482  -0.528  2.8972  0.8914 -0.1092
  682MOL0     H94081   5.943   8.406  -0.375 -0.0701 -1.9164  1.0927
  682MOL0     H94082   6.177   8.417  -0.398 -3.5503  0.6851  0.5250
  682MOL0     H94083   6.143   8.238  -0.437  2.4031 -0.8478 -1.8883
  682MOL0     H94084   6.203   8.455  -0.635  1.2041 -0.1725 -2.6588
  682MOL0     H94085   6.140   8.286  -0.670 -3.7460  1.0861  2.2609
  682MOL0     H94086   6.348   8.189  -0.577 -0.0884  1.0997  3.8859
  682MOL0     H94087   6.404   8.355  -0.531 -0.3052  0.9874  0.4080
  682MOL0     H94088   6.355   8.293  -0.821  1.0075 -1.1852  0.5071
  682MOL0     H94089   6.433   8.436  -0.756 -0.2452  0.4465  1.4794
  682MOL0     H94090   6.525   8.168  -0.814  3.5085  0.1084 -0.4835
  682MOL0     H94091   6.559   8.194  -0.642  0.2554  1.0287  0.0497
  682MOL0     H94092   6.661   8.402  -0.674 -0.6872  2.3370 -1.7078
  682MOL0     H94093   6.638   8.392  -0.852 -0.2108  0.3219 -0.1136
  682MOL0     H94094   6.764   8.167  -0.814 -2.4845 -0.1900  0.1309
  682MOL0     H94095   6.829   8.253  -0.670  0.0849  0.8635 -0.4219
  682MOL0     H94096   5.915   8.208  -0.306  0.2237 -0.7528  0.1057
  682MOL0     H94097   5.833   7.995  -0.231  2.3577  1.6172 -0.3072
  682MOL0     H94098   5.672   7.621  -0.243  1.3124 -1.0992 -0.3248
  682MOL0     H94099   5.547   7.414  -0.218 -0.7069 -0.6158 -0.4529
  682MOL0     H94100   4.183   6.581   0.495  0.4347  0.0134  0.0641
  682MOL0     H94101   4.010   6.482   0.593 -2.8866  1.6461  1.2698
  682MOL0     H94102   3.647   6.219   0.515 -0.5730 -1.4024 -0.3358
  682MOL0     H94103   3.472   6.051   0.610  0.0836  1.3552 -1.6513
  682MOL0     H94104   3.124   5.969   0.687 -0.4839  1.5459 -1.7045
  682MOL0     H94105   3.274   5.974   0.591 -0.9380 -2.2376 -0.4402
  682MOL0     H94106   3.235   5.938   0.895 -0.8702  0.4686 -0.8981
  682MOL0     H94107   3.389   5.899   0.808  0.1282 -2.3553 -0.3237
  682MOL0     H94108   3.246   5.733   0.673 -1.3162 -3.6855  0.8237
  682MOL0     H94109   3.331   5.699   0.830 -0.3849 -3.0738 -2.0325
  682MOL0     H94110   3.044   5.760   0.778  1.6804  2.7392 -0.1651
  682MOL0     H94111   3.115   5.752   0.944 -0.1253  0.3228  0.3125
  682MOL0     H94112   3.019   5.361   0.838  0.0631  0.2125  2.7305
  682MOL0     H94113   3.219   6.376   0.696  0.1988  1.1477  0.9770
  682MOL0     H94114   3.276   6.581   0.667 -0.7433 -1.3321 -0.5331
  682MOL0     H94115   3.449   6.622   0.635  1.9065  0.2143 -1.4530
  682MOL0     H94116   3.325   6.598   0.501  0.3397 -1.5074  0.4155
  683MOL0     O94117   1.023   9.013   5.154 -1.0457 -0.3349  0.2858
  683MOL0     C94118   1.110   9.028   5.073 -0.7966  0.5320 -0.3212
  683MOL0     O94119   1.144   9.149   5.013 -0.5599  0.6872  0.8289
  683MOL0     C94120   1.206   9.238   5.096  0.2446 -0.5533 -0.0995
  683MOL0     C94121   1.201   9.378   5.056 -0.7986  0.1659  0.3855
  683MOL0     C94122   1.281   9.470   5.124  0.1944 -1.7957 -0.2960
  683MOL0     C94123   1.346   9.437   5.243  0.1062 -0.6542 -0.0660
  683MOL0     O94124   1.437   9.520   5.315  0.3600 -0.5527  0.6843
  683MOL0     C94125   1.451   9.657   5.272  0.4440 -0.0110 -0.0086
  683MOL0     C94126   1.578   9.709   5.331 -0.2803  0.7694  0.9929
  683MOL0     C94127   1.693   9.643   5.256 -0.3233  1.0889  0.1204
  683MOL0     C94128   1.820   9.735   5.237  0.1571  0.3192  0.4567
  683MOL0     C94129   1.834   9.758   5.086  0.2104 -0.8859 -0.2513
  683MOL0     C94130   1.712   9.845   5.040 -0.6588  0.0849 -0.5143
  683MOL0     C94131   1.701   9.875   4.892  0.2068  0.0890 -0.6635
  683MOL0     C94132   1.565   9.951   4.860  0.2994  0.7446 -0.3048
  683MOL0     N94133   1.444   9.862   4.855  0.4183  0.6729 -0.1076
  683MOL0     C94134   1.320   9.896   4.808  0.5366  0.6503  0.0025
  683MOL0     C94135   1.247   9.777   4.812  0.5374  0.7094 -0.8748
  683MOL0     C94136   1.096   9.743   4.781  0.4009  0.8320 -0.4800
  683MOL0     C94137   0.998   9.805   4.889 -0.0159  0.1425  0.1947
  683MOL0     C94138   0.860   9.784   4.839  0.0100  0.6230 -0.0928
  683MOL0     C94139   0.764   9.878   4.901 -0.3309  0.0783  0.2680
  683MOL0     O94140   0.759   9.849   5.047  0.8269 -0.8565 -0.4006
  683MOL0     C94141   0.684   9.925   5.135  0.7318  0.1265 -0.0466
  683MOL0     C94142   0.592  10.024   5.097 -0.2705  0.3078  0.7598
  683MOL0     C94143   0.506  10.091   5.182  0.4076 -0.1354  0.3198
  683MOL0     C94144   0.412  10.189   5.120  0.5831  0.6374  0.3679
  683MOL0     C94145   0.521  10.077   5.324 -0.7237  0.3757  0.3390
  683MOL0     C94146   0.454  10.167   5.415  0.2211 -0.0265  0.7483
  683MOL0     O94147   0.330  10.193   5.397 -0.7129 -0.3583  0.5310
  683MOL0     C94148   0.241  10.248   5.478  1.0296 -0.1370 -0.2644
  683MOL0     C94149   0.121  10.288   5.417  0.3991  0.2803 -0.1779
  683MOL0     C94150   0.015  10.351   5.479 -1.1248 -0.8182 -0.4531
  683MOL0     C94151   0.031  10.380   5.620  0.1775 -0.7309  0.7688
  683MOL0     O94152  -0.077  10.438   5.689  0.4194  0.0494 -0.0058
  683MOL0     C94153  -0.098  10.415   5.832 -0.0405  0.3756 -0.5259
  683MOL0     C94154  -0.212  10.499   5.890 -0.6927 -0.5160  0.2240
  683MOL0     C94155  -0.224  10.450   6.039 -0.3943 -0.8791  0.4510
  683MOL0     C94156  -0.286  10.548   6.132 -0.1507 -0.0183  0.7021
  683MOL0     C94157  -0.335  10.472   6.260 -0.0410 -0.2953  0.3251
  683MOL0     C94158  -0.379  10.573   6.359 -0.0440 -0.6422  0.2371
  683MOL0     C94159  -0.428  10.500   6.487  0.8733  0.1031 -0.1735
  683MOL0     C94160  -0.504  10.597   6.581 -0.9422  0.5341  0.2401
  683MOL0    Cl94161  -0.376  10.721   6.632 -0.0975  0.0665 -0.2032
  683MOL0     C94162   0.151  10.346   5.679  0.6526 -0.2932 -0.5521
  683MOL0     C94163   0.251  10.274   5.617 -1.0168 -0.2411 -0.3002
  683MOL0     O94164   0.528  10.218   5.499  0.0901  0.0952 -0.7618
  683MOL0     C94165   0.610   9.971   5.360  0.9302 -0.6663 -0.2502
  683MOL0     C94166   0.680   9.889   5.269  1.4278 -0.8556 -0.4466
  683MOL0     N94167   1.329   9.669   4.850 -0.0990 -0.4495  0.0286
  683MOL0     N94168   1.446   9.726   4.874 -0.0436 -0.8558 -0.1022
  683MOL0     C94169   1.332   9.307   5.287  0.3225  0.6834 -0.4980
  683MOL0     C94170   1.278   9.205   5.209  0.0745 -0.9589  0.5789
  683MOL0     C94171   1.156   8.902   5.005  0.3444 -0.2375  0.4624
  683MOL0     C94172   1.169   8.904   4.862 -0.4821 -0.0580 -0.1277
  683MOL0     C94173   1.188   8.789   4.779  0.2565 -1.5749 -0.1155
  683MOL0     C94174   1.207   8.668   4.840 -0.0289  0.0771 -2.0236
  683MOL0     O94175   1.231   8.563   4.760 -0.5358  0.1719 -0.0541
  683MOL0     C94176   1.281   8.441   4.819 -0.8535  0.9655 -0.3429
  683MOL0     C94177   1.327   8.341   4.711  0.1872 -0.3746 -0.4670
  683MOL0     C94178   1.398   8.222   4.771 -0.7959  0.4574 -0.1374
  683MOL0     C94179   1.446   8.136   4.651 -0.5138 -0.0065  0.5102
  683MOL0     C94180   1.539   8.034   4.697  0.5399  0.1874 -0.6646
  683MOL0     C94181   1.613   7.940   4.726  0.1829  0.7111  0.1205
  683MOL0     C94182   1.208   8.667   4.986  1.1501  0.7825 -0.3380
  683MOL0     C94183   1.183   8.774   5.068 -0.1471  0.0116 -0.3150
  683MOL0     C94184   1.218   8.772   5.211  0.0263 -0.7399 -0.4730
  683MOL0     H94185   1.137   9.421   4.980  0.2952 -0.3844 -0.8812
  683MOL0     H94186   1.294   9.572   5.091 -1.7877 -1.0196  1.1247
  683MOL0     H94187   1.367   9.704   5.326  1.1675  1.0790  0.2020
  683MOL0     H94188   1.444   9.677   5.164 -0.2850 -0.3136 -0.0249
  683MOL0     H94189   1.583   9.818   5.324  0.5726  0.8448  2.3827
  683MOL0     H94190   1.594   9.692   5.438  2.7847  0.5367  0.6073
  683MOL0     H94191   1.732   9.555   5.309 -1.3352  1.4330  1.4914
  683MOL0     H94192   1.663   9.598   5.161  2.9816  0.0287 -0.5628
  683MOL0     H94193   1.802   9.833   5.283 -3.8949 -0.3744  0.7137
  683MOL0     H94194   1.912   9.686   5.269  0.1631  0.1624  0.2011
  683MOL0     H94195   1.839   9.675   5.014  0.8004  0.4565 -1.8237
  683MOL0     H94196   1.922   9.822   5.087  0.0601 -0.5829  3.1874
  683MOL0     H94197   1.620   9.796   5.076  0.4155  1.2457  4.5591
  683MOL0     H94198   1.730   9.941   5.088 -0.2281  1.6821 -3.6388
  683MOL0     H94199   1.696   9.775   4.847 -0.5347 -0.3149  0.2629
  683MOL0     H94200   1.779   9.937   4.848 -0.9219 -0.1384 -3.1760
  683MOL0     H94201   1.562  10.035   4.930  0.1774  0.8254 -0.4064
  683MOL0     H94202   1.571  10.015   4.771  0.7968 -1.4631 -1.9511
  683MOL0     H94203   1.275   9.985   4.764  0.2936  0.0633 -0.9764
  683MOL0     H94204   1.070   9.638   4.766  1.4712  0.4333  0.3126
  683MOL0     H94205   1.080   9.793   4.685 -2.4103 -2.1988 -1.7702
  683MOL0     H94206   1.032   9.749   4.977  2.1236 -1.7174 -1.6730
  683MOL0     H94207   1.015   9.913   4.900  0.6058 -0.1102  2.1548
  683MOL0     H94208   0.856   9.795   4.730 -1.8003  0.4726 -0.0718
  683MOL0     H94209   0.818   9.687   4.866 -1.2544  1.4693  1.1613
  683MOL0     H94210   0.794   9.983   4.891 -3.6126  1.0322 -0.8389
  683MOL0     H94211   0.666   9.870   4.852  0.7855  0.8187 -2.2383
  683MOL0     H94212   0.584  10.049   4.992  0.3642  3.5492  1.3781
  683MOL0     H94213   0.431  10.277   5.182 -0.6553  1.1637  0.0440
  683MOL0     H94214   0.305  10.166   5.112  0.1460  2.8072 -1.0993
  683MOL0     H94215   0.426  10.206   5.013 -0.7844  2.4292  0.4334
  683MOL0     H94216   0.107  10.269   5.311 -3.0689 -1.2218  0.4079
  683MOL0     H94217  -0.071  10.372   5.416 -0.9008  1.2183 -0.1723
  683MOL0     H94218  -0.111  10.307   5.845 -1.9512  0.8799  3.3803
  683MOL0     H94219  -0.006  10.443   5.883 -1.1035  0.5597  1.4046
  683MOL0     H94220  -0.192  10.607   5.884 -0.3398 -0.5086  1.3622
  683MOL0     H94221  -0.301  10.473   5.832 -1.9256  1.7888  0.9728
  683MOL0     H94222  -0.133  10.410   6.085 -0.1688  0.8076  1.5690
  683MOL0     H94223  -0.286  10.362   6.021  0.4814 -1.3729 -0.2646
  683MOL0     H94224  -0.371  10.597   6.083  0.8007 -0.1294 -1.1498
  683MOL0     H94225  -0.214  10.626   6.156  0.5881 -0.4218 -0.1252
  683MOL0     H94226  -0.421  10.408   6.235  0.4320 -0.5778 -0.6317
  683MOL0     H94227  -0.257  10.411   6.305  0.3362 -0.4399 -0.5050
  683MOL0     H94228  -0.463  10.630   6.318  2.0836 -0.4706 -4.6014
  683MOL0     H94229  -0.288  10.625   6.390  0.5944 -2.3586  1.4274
  683MOL0     H94230  -0.345  10.465   6.549  1.3030  2.1826  0.5289
  683MOL0     H94231  -0.491  10.414   6.462  1.9787 -0.1907 -2.0800
  683MOL0     H94232  -0.546  10.553   6.672 -2.9039  1.4694 -0.1460
  683MOL0     H94233  -0.582  10.654   6.528  1.5493  2.2621 -1.7976
  683MOL0     H94234   0.169  10.403   5.769 -2.5935 -1.0525  0.7242
  683MOL0     H94235   0.337  10.241   5.674 -0.2881 -0.2182 -1.3374
  683MOL0     H94236   0.603   9.944   5.465 -2.7268 -1.1827 -0.4800
  683MOL0     H94237   0.740   9.805   5.302  0.7977 -1.3755 -0.6102
  683MOL0     H94238   1.381   9.280   5.380  1.5482  1.5747 -0.8669
  683MOL0     H94239   1.288   9.104   5.247 -4.5821 -0.3652  4.2811
  683MOL0     H94240   1.153   9.001   4.815  2.3343  0.8779  0.6236
  683MOL0     H94241   1.188   8.793   4.671  0.1527 -0.6303 -0.0887
  683MOL0     H94242   1.369   8.466   4.879  0.5548  2.1777 -2.7593
  683MOL0     H94243   1.203   8.391   4.878  0.3646 -2.5395 -1.4891
  683MOL0     H94244   1.395   8.399   4.648  1.8785 -0.4820  1.1751
  683MOL0     H94245   1.239   8.321   4.649 -0.1006  0.5193 -0.3641
  683MOL0     H94246   1.490   8.260   4.817 -2.2766  5.6924 -0.8787
  683MOL0     H94247   1.333   8.164   4.837 -2.4146  2.8401  0.4938
  683MOL0     H94248   1.494   8.193   4.570  0.1390  0.7835  1.4384
  683MOL0     H94249   1.365   8.079   4.605  1.5428 -3.7657  1.1227
  683MOL0     H94250   1.687   7.864   4.741 -0.5985 -0.7915 -2.7609
  683MOL0     H94251   1.238   8.579   5.043  0.3726 -0.1484 -1.3354
  683MOL0     H94252   1.322   8.742   5.224  0.1160  0.3125  1.6467
  683MOL0     H94253   1.215   8.864   5.270 -0.5071 -0.4234 -0.9896
  683MOL0     H94254   1.151   8.700   5.259 -1.5760 -0.7784 -2.6223
  684MOL0     O94255  11.067   3.522   2.184 -0.6608  1.2321 -0.7093
  684MOL0     C94256  11.073   3.451   2.290 -0.2476 -0.2468 -0.0214
  684MOL0     O94257  11.078   3.503   2.413  0.1877  0.1604 -0.6871
  684MOL0     C94258  11.057   3.631   2.454  0.7384  0.3483  1.5296
  684MOL0     C94259  11.093   3.746   2.383  0.9065 -0.5472  0.6506
  684MOL0     C94260  11.059   3.876   2.432  0.1087  0.4460 -0.6255
  684MOL0     C94261  11.002   3.888   2.556  0.4429  0.1311  0.0367
  684MOL0     O94262  10.984   4.013   2.617 -0.8472  0.2189  0.1374
  684MOL0     C94263  11.001   4.127   2.534  0.0742 -0.3353 -0.2665
  684MOL0     C94264  10.881   4.150   2.443 -0.0499  0.0237  0.6481
  684MOL0     C94265  10.747   4.165   2.513  0.6530  0.5182  0.9038
  684MOL0     C94266  10.632   4.209   2.416  0.5385  0.0705  0.5323
  684MOL0     C94267  10.504   4.258   2.492  0.8624  0.4154 -0.0318
  684MOL0     C94268  10.403   4.331   2.396 -0.2167 -0.1463 -0.4897
  684MOL0     C94269  10.289   4.406   2.471  0.0193 -0.5946  0.7236
  684MOL0     C94270  10.229   4.531   2.395 -1.1607  0.1430 -0.0732
  684MOL0     N94271  10.341   4.625   2.372 -0.5621 -0.9216 -0.1982
  684MOL0     C94272  10.418   4.695   2.466 -0.3467  0.4812 -0.3688
  684MOL0     C94273  10.492   4.785   2.394 -0.8766  0.2918 -0.4159
  684MOL0     C94274  10.576   4.885   2.463  0.1318 -0.1467  1.1656
  684MOL0     C94275  10.639   4.976   2.361 -0.2707  0.4494  0.8633
  684MOL0     C94276  10.730   5.074   2.438  0.7608  0.7373  0.6287
  684MOL0     C94277  10.839   5.010   2.519  0.7629 -0.1237 -0.7011
  684MOL0     O94278  10.902   4.918   2.435 -0.5196  0.1862 -0.3144
  684MOL0     C94279  10.998   4.848   2.508 -0.2775  0.5000 -0.1748
  684MOL0     C94280  11.126   4.894   2.542  0.4931 -1.1416 -0.0743
  684MOL0     C94281  11.215   4.815   2.613 -0.2072  0.0843 -0.0144
  684MOL0     C94282  11.343   4.881   2.676  0.9817 -0.4494 -0.4448
  684MOL0     C94283  11.186   4.680   2.642 -1.1494 -0.1406  0.0263
  684MOL0     C94284  11.281   4.582   2.707 -0.0065  1.1110  0.4232
  684MOL0     O94285  11.229   4.456   2.735  0.1945  0.4402 -0.0228
  684MOL0     C94286  11.304   4.367   2.805 -0.3214  0.4326  1.1241
  684MOL0     C94287  11.388   4.281   2.733 -0.5807 -1.0846 -0.4649
  684MOL0     C94288  11.469   4.188   2.800  0.1296  0.5709  0.2254
  684MOL0     C94289  11.451   4.158   2.938 -0.1831 -0.0410 -0.5523
  684MOL0     O94290  11.495   4.035   2.985 -0.2365 -0.0554  0.3168
  684MOL0     C94291  11.529   4.035   3.118  0.2503  0.4437 -0.0332
  684MOL0     C94292  11.572   3.896   3.169  0.0568  0.2789  0.0003
  684MOL0     C94293  11.684   3.824   3.083  0.3986  0.1761 -1.3628
  684MOL0     C94294  11.824   3.896   3.101  1.2984 -0.4193 -1.2235
  684MOL0     C94295  11.942   3.812   3.040  0.1349 -0.0091 -0.6282
  684MOL0     C94296  12.023   3.739   3.150 -0.8875  1.0496  0.1554
  684MOL0     C94297  12.164   3.720   3.095  0.0299 -0.2373 -0.2349
  684MOL0     C94298  12.256   3.689   3.213  0.6324 -0.1751 -0.3179
  684MOL0    Cl94299  12.226   3.515   3.261  0.3791 -0.0202  0.2260
  684MOL0     C94300  11.368   4.246   3.007 -0.1240 -0.1958  1.1109
  684MOL0     C94301  11.298   4.349   2.941 -0.4981 -0.4998  0.0744
  684MOL0     O94302  11.402   4.602   2.717 -0.8384  0.4455  0.1005
  684MOL0     C94303  11.068   4.630   2.588 -0.3023 -0.0439  0.2837
  684MOL0     C94304  10.970   4.712   2.528 -1.1830 -0.6926 -0.3619
  684MOL0     N94305  10.469   4.762   2.256 -0.0076 -0.2670 -0.5102
  684MOL0     N94306  10.385   4.663   2.247  0.1551 -0.1703 -0.6945
  684MOL0     C94307  10.971   3.777   2.633  0.3168 -0.3981  0.0088
  684MOL0     C94308  10.996   3.653   2.580  0.0473  0.0034  0.6460
  684MOL0     C94309  11.096   3.293   2.274 -0.0277 -0.3131  0.2402
  684MOL0     C94310  11.060   3.235   2.150  1.1428  0.3028 -0.2918
  684MOL0     C94311  11.078   3.100   2.127 -0.4027 -0.1096  0.0150
  684MOL0     C94312  11.151   3.018   2.212 -0.3869 -0.6391 -0.8217
  684MOL0     O94313  11.175   2.895   2.155 -0.1152  0.4240 -0.0244
  684MOL0     C94314  11.248   2.818   2.247 -0.4339 -0.1408 -0.2648
  684MOL0     C94315  11.245   2.673   2.199  0.1943 -0.5794  0.4454
  684MOL0     C94316  11.347   2.651   2.078  0.9706 -0.0038 -0.1739
  684MOL0     C94317  11.298   2.692   1.946 -0.0930  0.9104  0.8895
  684MOL0     C94318  11.196   2.604   1.889  0.6547 -0.0489 -0.2089
  684MOL0     C94319  11.105   2.534   1.856  0.1569 -0.0012 -0.5025
  684MOL0     C94320  11.183   3.079   2.336 -0.3240 -0.2966  0.8912
  684MOL0     C94321  11.157   3.211   2.373  0.7995 -0.4400  0.7227
  684MOL0     C94322  11.206   3.257   2.506  0.5308 -0.3009 -0.6027
  684MOL0     H94323  11.139   3.739   2.285 -1.9126  1.3473 -0.9553
  684MOL0     H94324  11.095   3.956   2.369  3.8550  2.0245  3.0110
  684MOL0     H94325  11.096   4.121   2.479 -0.3705 -0.2186 -1.0546
  684MOL0     H94326  11.015   4.217   2.595  2.5160 -0.1674 -0.9594
  684MOL0     H94327  10.896   4.245   2.392 -1.5938 -0.0654 -0.0334
  684MOL0     H94328  10.870   4.078   2.361  0.7739 -0.3898  0.8883
  684MOL0     H94329  10.721   4.064   2.547  2.3755  0.0586  0.9990
  684MOL0     H94330  10.750   4.224   2.605  1.8439 -1.0658  1.9461
  684MOL0     H94331  10.669   4.296   2.362  2.2825 -0.1785  1.2688
  684MOL0     H94332  10.608   4.135   2.339 -3.7917 -1.9420  3.3846
  684MOL0     H94333  10.525   4.337   2.564 -3.0908  2.6321 -1.0374
  684MOL0     H94334  10.467   4.170   2.547  3.0699  0.9513  2.5292
  684MOL0     H94335  10.447   4.399   2.323 -1.3354 -0.6074 -1.6393
  684MOL0     H94336  10.359   4.249   2.339  1.7291 -3.0107  1.8432
  684MOL0     H94337  10.342   4.460   2.550 -1.5649  1.6617  0.3252
  684MOL0     H94338  10.212   4.334   2.499  0.8293 -1.6766  0.2429
  684MOL0     H94339  10.196   4.481   2.304  0.8629 -1.3362 -0.0550
  684MOL0     H94340  10.151   4.582   2.452  0.4259  0.2660  2.1385
  684MOL0     H94341  10.424   4.701   2.574  1.7014 -0.3947 -0.3894
  684MOL0     H94342  10.651   4.823   2.514  0.0229 -3.1276 -1.8864
  684MOL0     H94343  10.521   4.950   2.531  1.5883  4.4912 -1.6786
  684MOL0     H94344  10.685   4.922   2.278 -2.1739  1.8680 -1.2531
  684MOL0     H94345  10.557   5.028   2.311  0.6908 -0.3202 -1.6790
  684MOL0     H94346  10.778   5.147   2.372 -1.0036  1.8668  0.5296
  684MOL0     H94347  10.668   5.148   2.490  1.5832  2.5284 -0.7793
  684MOL0     H94348  10.919   5.076   2.555 -0.2329  0.7758 -0.0957
  684MOL0     H94349  10.793   4.954   2.600  1.3686 -3.8177 -2.6747
  684MOL0     H94350  11.148   4.999   2.529 -0.9198 -0.7432  0.5293
  684MOL0     H94351  11.323   4.988   2.684  2.2787 -0.2735  0.6480
  684MOL0     H94352  11.437   4.863   2.624  0.7448 -0.2012 -0.9671
  684MOL0     H94353  11.364   4.845   2.777  1.2982  0.1132 -0.3070
  684MOL0     H94354  11.401   4.293   2.625  1.7587  2.5192  0.0421
  684MOL0     H94355  11.536   4.126   2.741  0.1102  1.4384 -0.7488
  684MOL0     H94356  11.600   4.113   3.148  0.8022  0.2286 -0.7512
  684MOL0     H94357  11.439   4.046   3.179 -0.1107 -0.9115 -0.2841
  684MOL0     H94358  11.596   3.903   3.275 -2.2382  0.4691  0.5566
  684MOL0     H94359  11.478   3.842   3.151 -0.7130  2.2449 -2.4208
  684MOL0     H94360  11.652   3.825   2.979 -0.0766 -2.2248 -1.2910
  684MOL0     H94361  11.703   3.723   3.121  3.1565  0.0993 -2.6786
  684MOL0     H94362  11.831   3.908   3.209 -0.1657 -0.6914 -1.0786
  684MOL0     H94363  11.801   3.991   3.052 -3.6071 -1.2856 -1.0354
  684MOL0     H94364  11.900   3.742   2.967  0.8422 -1.3316  0.1973
  684MOL0     H94365  12.012   3.879   2.989  1.1230 -1.1928 -0.8558
  684MOL0     H94366  11.975   3.643   3.173  1.8815 -0.3352  0.6374
  684MOL0     H94367  12.014   3.801   3.240 -1.4352  3.6794 -1.6049
  684MOL0     H94368  12.193   3.819   3.059  3.7843 -1.5860 -1.4068
  684MOL0     H94369  12.173   3.648   3.014 -0.5794  1.5345 -1.9539
  684MOL0     H94370  12.231   3.751   3.299 -2.4078 -0.6986 -0.7018
  684MOL0     H94371  12.361   3.705   3.185  0.9367 -0.9154  0.3572
  684MOL0     H94372  11.356   4.243   3.115 -3.2166  2.5561  0.9976
  684MOL0     H94373  11.239   4.422   2.996  0.1891 -1.0638  1.6478
  684MOL0     H94374  11.040   4.525   2.587 -1.4425  0.2443  0.1866
  684MOL0     H94375  10.872   4.678   2.498 -0.8960 -1.0252 -0.9412
  684MOL0     H94376  10.918   3.782   2.727  0.3568  0.1153  0.0085
  684MOL0     H94377  10.981   3.563   2.639  0.0568  1.0774  2.3722
  684MOL0     H94378  10.998   3.288   2.078  1.2000 -0.6763 -1.0790
  684MOL0     H94379  11.045   3.069   2.029 -2.8133 -1.1377  1.0715
  684MOL0     H94380  11.349   2.858   2.262 -0.4186  0.7711 -2.3191
  684MOL0     H94381  11.193   2.824   2.341 -0.5699  3.4286 -0.4556
  684MOL0     H94382  11.142   2.662   2.162 -0.4531  1.6698  1.4314
  684MOL0     H94383  11.242   2.589   2.270 -3.6661 -1.0651 -0.0751
  684MOL0     H94384  11.443   2.697   2.104  0.4392  1.7760 -1.1597
  684MOL0     H94385  11.358   2.542   2.079 -0.1866 -0.1560  2.2872
  684MOL0     H94386  11.386   2.679   1.882 -1.5725  0.6576 -1.1995
  684MOL0     H94387  11.284   2.800   1.947  2.2016  1.2582  0.5993
  684MOL0     H94388  11.017   2.479   1.831  0.2576  0.0616 -1.0143
  684MOL0     H94389  11.228   3.017   2.412  0.4916  1.6907  2.1041
  684MOL0     H94390  11.235   3.177   2.574  0.8790 -1.9318 -2.5565
  684MOL0     H94391  11.290   3.326   2.500  1.7880 -1.6406  0.8709
  684MOL0     H94392  11.133   3.312   2.567  0.5121 -1.7756  0.7644
  685MOL0     O94393   3.090   0.952   3.139 -0.2370  0.4546  0.7376
  685MOL0     C94394   3.000   0.963   3.227  0.5465 -0.8629 -0.5724
  685MOL0     O94395   2.913   1.069   3.237  1.0575  0.1697  0.8743
  685MOL0     C94396   2.913   1.140   3.124  0.0559 -0.1816 -0.3089
  685MOL0     C94397   3.016   1.217   3.087  0.1650 -0.3472 -0.8914
  685MOL0     C94398   2.999   1.301   2.976 -0.1705  0.3250 -0.6920
  685MOL0     C94399   2.889   1.302   2.899  0.4942  0.2847  0.3631
  685MOL0     O94400   2.895   1.382   2.791  0.2686 -0.5589 -0.6783
  685MOL0     C94401   2.777   1.387   2.712  1.3424  0.7566 -0.1107
  685MOL0     C94402   2.655   1.462   2.778  0.0703  0.8050 -1.0014
  685MOL0     C94403   2.589   1.565   2.682  0.3878  0.7063 -0.0877
  685MOL0     C94404   2.456   1.601   2.741  0.3773 -1.0456  0.1004
  685MOL0     C94405   2.367   1.648   2.623 -0.4528 -0.8156  0.7577
  685MOL0     C94406   2.385   1.776   2.554 -0.0066 -0.3439  0.3243
  685MOL0     C94407   2.256   1.787   2.463 -0.1223  0.6152  0.3239
  685MOL0     C94408   2.259   1.925   2.404 -0.0360  0.1642 -0.7255
  685MOL0     N94409   2.268   2.040   2.490 -0.3736 -0.6217  0.0153
  685MOL0     C94410   2.356   2.146   2.465 -0.2263  1.0659  0.8008
  685MOL0     C94411   2.333   2.223   2.578  0.3504 -0.2077  0.8871
  685MOL0     C94412   2.410   2.341   2.618  0.1275  0.4366  0.2363
  685MOL0     C94413   2.334   2.468   2.590  0.3827  0.6191 -0.2772
  685MOL0     C94414   2.408   2.587   2.646 -0.2179 -1.2158  0.4121
  685MOL0     C94415   2.350   2.719   2.593 -0.7522 -0.5970  0.1514
  685MOL0     O94416   2.353   2.724   2.443 -0.3093  0.3480 -0.0488
  685MOL0     C94417   2.355   2.859   2.394  0.5524  0.9158 -0.4732
  685MOL0     C94418   2.388   2.877   2.262  0.1648  0.6799  0.3411
  685MOL0     C94419   2.410   3.005   2.204 -0.4135  0.5463 -0.5606
  685MOL0     C94420   2.462   3.011   2.059  0.2059 -0.8721  0.9267
  685MOL0     C94421   2.387   3.122   2.285  0.5090 -0.1903  0.4223
  685MOL0     C94422   2.403   3.268   2.244 -0.0245 -0.6100  0.5747
  685MOL0     O94423   2.353   3.362   2.330  0.3058  0.3515 -0.8446
  685MOL0     C94424   2.378   3.503   2.308 -1.4276 -0.1138 -0.1105
  685MOL0     C94425   2.516   3.546   2.298 -0.4271 -0.6844  0.8961
  685MOL0     C94426   2.545   3.687   2.281 -0.0828 -0.2537  0.3132
  685MOL0     C94427   2.439   3.770   2.261 -0.2397  0.8552  0.0958
  685MOL0     O94428   2.476   3.898   2.226 -0.5237 -0.1027  0.0580
  685MOL0     C94429   2.414   4.006   2.295 -0.8817 -0.3784  0.0326
  685MOL0     C94430   2.499   4.125   2.280  1.0207 -0.1204 -0.2766
  685MOL0     C94431   2.436   4.267   2.259 -0.5931  0.5831  0.1627
  685MOL0     C94432   2.534   4.375   2.208 -0.5086  0.2683 -0.6964
  685MOL0     C94433   2.513   4.513   2.272  0.0847  0.2073  0.5174
  685MOL0     C94434   2.573   4.619   2.187  0.0579 -1.6127  0.1888
  685MOL0     C94435   2.556   4.751   2.255  0.8690  0.2054 -0.3356
  685MOL0     C94436   2.646   4.857   2.192  0.1504  0.4678 -0.6500
  685MOL0    Cl94437   2.666   5.002   2.299  0.1048  0.1666 -0.2189
  685MOL0     C94438   2.302   3.729   2.280  0.1852  0.8798  0.2902
  685MOL0     C94439   2.270   3.590   2.304  0.5291 -0.0663 -1.0706
  685MOL0     O94440   2.483   3.291   2.156  0.1131  0.1503  0.7927
  685MOL0     C94441   2.344   3.101   2.415  0.2454 -0.5104  0.8711
  685MOL0     C94442   2.327   2.974   2.473 -0.4242  0.6843 -0.0578
  685MOL0     N94443   2.225   2.178   2.660  0.0885 -0.5425 -0.7940
  685MOL0     N94444   2.189   2.070   2.606  0.2037  0.2779 -0.6138
  685MOL0     C94445   2.780   1.222   2.944 -0.0758 -0.4443  0.5408
  685MOL0     C94446   2.791   1.141   3.047  0.1653  0.5850  0.3968
  685MOL0     C94447   2.973   0.852   3.325 -0.7554  0.5661  0.9882
  685MOL0     C94448   2.893   0.879   3.437 -0.4707  0.0908 -0.1859
  685MOL0     C94449   2.858   0.795   3.542  0.5100  0.7595  0.0984
  685MOL0     C94450   2.903   0.663   3.538 -0.3450 -0.0772  0.5002
  685MOL0     O94451   2.894   0.585   3.650  0.5255  0.0406 -0.1282
  685MOL0     C94452   2.896   0.439   3.631 -0.0609 -0.7692  0.3930
  685MOL0     C94453   2.828   0.371   3.743  0.6957  0.5584 -0.5878
  685MOL0     C94454   2.912   0.259   3.806  0.9375 -0.3127 -0.3677
  685MOL0     C94455   2.836   0.154   3.904 -0.4120 -0.6241 -0.0946
  685MOL0     C94456   2.939   0.047   3.941 -0.0155 -0.9026 -0.3970
  685MOL0     C94457   3.022  -0.030   3.989  0.5803 -0.5013 -0.0569
  685MOL0     C94458   2.970   0.627   3.419 -0.0859 -0.3706 -0.4914
  685MOL0     C94459   3.011   0.721   3.318  0.4009  1.1710  0.2245
  685MOL0     C94460   3.089   0.664   3.203  0.9445 -0.2886  0.6292
  685MOL0     H94461   3.099   1.223   3.156 -0.4047 -2.3953  0.0441
  685MOL0     H94462   3.078   1.370   2.949 -1.6395  2.1581 -0.5113
  685MOL0     H94463   2.740   1.287   2.686 -0.8753  0.5188  3.3955
  685MOL0     H94464   2.810   1.430   2.617 -1.5178  1.1939 -0.9870
  685MOL0     H94465   2.576   1.395   2.809  1.6199  0.2087  1.9728
  685MOL0     H94466   2.679   1.503   2.877 -0.4814  1.5330 -1.1586
  685MOL0     H94467   2.648   1.657   2.669 -0.5118  1.2557 -0.3531
  685MOL0     H94468   2.591   1.520   2.583  3.1366 -0.7782  0.5300
  685MOL0     H94469   2.418   1.514   2.795  3.1824 -1.8959  0.8633
  685MOL0     H94470   2.474   1.681   2.814  1.1224 -2.0347  1.0378
  685MOL0     H94471   2.268   1.645   2.669 -2.3383 -0.2904 -2.9403
  685MOL0     H94472   2.370   1.567   2.550 -0.2049  1.2888 -1.6841
  685MOL0     H94473   2.404   1.861   2.619 -0.7005 -0.3143  0.4939
  685MOL0     H94474   2.474   1.778   2.491 -0.8072 -0.8764 -0.8599
  685MOL0     H94475   2.163   1.769   2.518  1.1353 -0.6854  2.1796
  685MOL0     H94476   2.263   1.704   2.393  5.1230  0.2391  0.8483
  685MOL0     H94477   2.343   1.928   2.334 -1.8020 -1.2200 -3.0596
  685MOL0     H94478   2.170   1.937   2.341 -0.9839  0.4666  0.6349
  685MOL0     H94479   2.432   2.155   2.388  1.3053 -1.6991  1.8479
  685MOL0     H94480   2.497   2.339   2.552 -0.2719 -0.6789 -0.2850
  685MOL0     H94481   2.439   2.329   2.723 -1.0150  2.0260  0.7614
  685MOL0     H94482   2.312   2.475   2.483 -0.7191 -2.1011 -0.2998
  685MOL0     H94483   2.248   2.451   2.654  2.2098 -2.6892  1.5746
  685MOL0     H94484   2.393   2.599   2.753  1.0926  2.4247  0.3435
  685MOL0     H94485   2.513   2.583   2.618 -0.7488 -0.5000 -1.9510
  685MOL0     H94486   2.243   2.729   2.614 -1.0325  0.1093 -1.5186
  685MOL0     H94487   2.402   2.804   2.638 -3.4667  2.2656 -1.6991
  685MOL0     H94488   2.418   2.789   2.205  1.8091  2.0032 -0.9380
  685MOL0     H94489   2.511   3.102   2.022  0.1975 -1.7231 -1.3177
  685MOL0     H94490   2.378   3.003   1.988  0.4684  2.0714  0.1484
  685MOL0     H94491   2.527   2.924   2.047 -0.9900 -1.4728 -2.1434
  685MOL0     H94492   2.603   3.488   2.328  1.2190  0.5218 -1.2737
  685MOL0     H94493   2.648   3.719   2.291 -0.1318  0.0543 -0.1307
  685MOL0     H94494   2.316   4.033   2.253 -0.9275  1.5779  1.2423
  685MOL0     H94495   2.401   3.987   2.402  2.6158 -1.8116  0.3460
  685MOL0     H94496   2.559   4.123   2.372  0.4676  1.4238  0.1527
  685MOL0     H94497   2.577   4.099   2.208  0.7402 -2.1307  0.0821
  685MOL0     H94498   2.382   4.308   2.346 -0.5898  2.8100 -0.8199
  685MOL0     H94499   2.359   4.269   2.181 -0.2732  0.3239 -0.1582
  685MOL0     H94500   2.508   4.383   2.103 -1.5183 -0.2450 -0.4962
  685MOL0     H94501   2.636   4.337   2.220 -1.7676 -2.9690  1.1112
  685MOL0     H94502   2.405   4.528   2.279 -0.1619 -1.2155 -0.0047
  685MOL0     H94503   2.571   4.505   2.365  4.2505 -0.8442 -1.9354
  685MOL0     H94504   2.520   4.628   2.091 -2.8855 -2.3482  1.6151
  685MOL0     H94505   2.677   4.592   2.169 -0.9852 -5.1815 -1.4382
  685MOL0     H94506   2.590   4.744   2.358 -0.9779  1.7231  0.4241
  685MOL0     H94507   2.454   4.790   2.257 -0.4967 -3.0738  2.3317
  685MOL0     H94508   2.609   4.902   2.099 -0.3075  2.2094  0.3203
  685MOL0     H94509   2.741   4.808   2.169 -0.3520 -1.3859  0.9947
  685MOL0     H94510   2.227   3.807   2.276 -0.8220 -0.1014 -1.2388
  685MOL0     H94511   2.170   3.559   2.333  0.1752  1.2782 -0.7674
  685MOL0     H94512   2.342   3.179   2.491  1.2273 -0.3081  0.7131
  685MOL0     H94513   2.302   2.953   2.577  0.7982  0.3380  0.1798
  685MOL0     H94514   2.681   1.218   2.901 -0.4966 -2.7325  1.5841
  685MOL0     H94515   2.702   1.088   3.078 -0.0573  0.7061 -0.0367
  685MOL0     H94516   2.878   0.986   3.452 -2.8123 -0.4479  1.9919
  685MOL0     H94517   2.808   0.831   3.630 -1.9607  0.6988 -1.1992
  685MOL0     H94518   2.865   0.390   3.539 -3.8425 -2.3634  2.2847
  685MOL0     H94519   3.000   0.406   3.634  1.2194  2.8576  2.1845
  685MOL0     H94520   2.747   0.313   3.698  1.3652 -1.5628  0.8340
  685MOL0     H94521   2.784   0.442   3.815  0.4164  0.1873 -0.3892
  685MOL0     H94522   2.957   0.203   3.724 -2.1499 -3.5351 -0.0824
  685MOL0     H94523   2.994   0.311   3.855  0.2669 -0.4135  0.8905
  685MOL0     H94524   2.751   0.112   3.849 -0.3228 -1.6208  0.5040
  685MOL0     H94525   2.806   0.206   3.995 -0.8165 -2.3247  0.7877
  685MOL0     H94526   3.087  -0.095   4.044 -1.6372 -3.4163 -0.6242
  685MOL0     H94527   2.990   0.524   3.390 -3.9405 -0.6733 -2.7067
  685MOL0     H94528   3.124   0.565   3.232  3.3371  0.8574  1.9282
  685MOL0     H94529   3.026   0.653   3.113 -1.1941 -2.6009  2.2795
  685MOL0     H94530   3.179   0.718   3.172  1.4967 -0.7367  1.4178
  686MOL0     O94531   5.611   1.060   0.307 -0.2115 -0.2307  0.9022
  686MOL0     C94532   5.532   1.147   0.318  0.2878  0.7515 -0.2848
  686MOL0     O94533   5.476   1.210   0.215  0.0575 -0.4931 -0.5479
  686MOL0     C94534   5.501   1.161   0.089 -0.3224 -0.0763 -1.0146
  686MOL0     C94535   5.601   1.209   0.011  0.1115 -0.8659  0.0221
  686MOL0     C94536   5.628   1.150  -0.116  0.6724  0.6966 -0.4384
  686MOL0     C94537   5.543   1.051  -0.163  0.5455  0.7490  0.6914
  686MOL0     O94538   5.575   0.982  -0.279  0.2138  0.2355 -0.0153
  686MOL0     C94539   5.472   0.920  -0.363 -0.6208 -0.0064  0.9798
  686MOL0     C94540   5.533   0.901  -0.507  0.3295 -0.5288 -0.0239
  686MOL0     C94541   5.460   0.814  -0.605  1.0436 -0.3144  0.4798
  686MOL0     C94542   5.512   0.807  -0.745 -0.5694 -0.3225 -0.6453
  686MOL0     C94543   5.421   0.734  -0.843 -0.3296  1.2239 -0.4863
  686MOL0     C94544   5.456   0.765  -0.988  0.4890  0.7202  0.7314
  686MOL0     C94545   5.387   0.670  -1.086  0.2103 -0.5073 -0.4952
  686MOL0     C94546   5.263   0.728  -1.155 -0.0485  0.0372 -0.6726
  686MOL0     N94547   5.315   0.825  -1.254  1.2356  0.1745  0.1822
  686MOL0     C94548   5.367   0.783  -1.373  0.1408  1.2553  0.6535
  686MOL0     C94549   5.409   0.893  -1.429  0.0893 -0.1382 -0.1669
  686MOL0     C94550   5.494   0.885  -1.547  0.1406 -0.3301  0.7627
  686MOL0     C94551   5.654   0.888  -1.528  0.5089  0.1159 -0.6785
  686MOL0     C94552   5.725   0.816  -1.648  0.3381 -0.0234 -0.1356
  686MOL0     C94553   5.874   0.817  -1.615 -0.0156 -0.7802 -0.4437
  686MOL0     O94554   5.915   0.681  -1.583  0.0769  0.0444 -0.6033
  686MOL0     C94555   5.909   0.586  -1.674 -1.0612 -0.6354  0.8666
  686MOL0     C94556   5.885   0.457  -1.638 -0.4778 -0.8776 -0.4397
  686MOL0     C94557   5.893   0.344  -1.719 -0.0206 -0.0395 -0.5389
  686MOL0     C94558   5.855   0.208  -1.656  0.4538  0.0135  0.4754
  686MOL0     C94559   5.937   0.365  -1.845  0.1430  0.4790  0.1121
  686MOL0     C94560   5.965   0.257  -1.940 -0.5276 -0.0460 -0.4437
  686MOL0     O94561   5.900   0.259  -2.055 -0.2399  0.2442 -0.4242
  686MOL0     C94562   5.957   0.201  -2.165 -0.4422  0.1115 -0.2780
  686MOL0     C94563   5.903   0.084  -2.196 -0.8449 -0.2529  0.3237
  686MOL0     C94564   5.949   0.014  -2.307 -0.4377 -0.3446 -1.4803
  686MOL0     C94565   6.045   0.070  -2.385 -0.4890  0.4835  0.1592
  686MOL0     O94566   6.079   0.017  -2.511 -0.0369  0.7396 -0.6222
  686MOL0     C94567   5.984  -0.033  -2.605 -1.2368 -0.3249  0.2579
  686MOL0     C94568   6.063  -0.108  -2.717  0.4960  0.7965  0.3362
  686MOL0     C94569   5.962  -0.191  -2.815  0.4541  0.0872  0.0888
  686MOL0     C94570   5.875  -0.094  -2.901  0.0480  0.9093  0.2548
  686MOL0     C94571   5.789  -0.165  -3.016  0.2786 -0.4086  0.3600
  686MOL0     C94572   5.761  -0.052  -3.115  0.6760  0.2280  0.9899
  686MOL0     C94573   5.706  -0.122  -3.244 -0.0029  0.1174  0.0598
  686MOL0     C94574   5.547  -0.154  -3.234 -1.2671 -0.2799  0.4128
  686MOL0    Cl94575   5.514  -0.247  -3.390 -0.3408  0.2632  0.5000
  686MOL0     C94576   6.107   0.189  -2.349  0.6046 -0.3974 -0.1727
  686MOL0     C94577   6.057   0.264  -2.240  0.2645  0.2603  0.2178
  686MOL0     O94578   6.055   0.178  -1.903 -0.2896  0.1008  0.2157
  686MOL0     C94579   5.959   0.496  -1.891 -0.4118 -0.3884 -0.2239
  686MOL0     C94580   5.944   0.604  -1.809 -0.1770  0.1928  0.1137
  686MOL0     N94581   5.379   1.006  -1.352 -0.1784 -0.3372  0.0949
  686MOL0     N94582   5.322   0.955  -1.243 -0.0367  0.0372 -0.2449
  686MOL0     C94583   5.456   0.992  -0.079  0.4144 -0.5211 -1.2392
  686MOL0     C94584   5.423   1.048   0.049 -0.6979 -0.6587  0.0039
  686MOL0     C94585   5.510   1.206   0.448 -0.5827 -0.6071 -0.0502
  686MOL0     C94586   5.499   1.115   0.564 -0.7218  0.4536  0.2504
  686MOL0     C94587   5.481   1.167   0.695  0.0332 -0.6219  1.4158
  686MOL0     C94588   5.471   1.305   0.713 -0.1864 -0.2990  0.5511
  686MOL0     O94589   5.432   1.349   0.842 -0.3748 -0.2434  0.5717
  686MOL0     C94590   5.396   1.492   0.872 -0.9857  0.8826  0.1282
  686MOL0     C94591   5.288   1.485   0.978 -0.3406  0.9417  0.5871
  686MOL0     C94592   5.317   1.388   1.097 -0.2468  0.1087 -0.7596
  686MOL0     C94593   5.193   1.339   1.177  0.0130  0.1971  0.4838
  686MOL0     C94594   5.121   1.454   1.244 -0.5878  0.0287  0.4317
  686MOL0     C94595   5.071   1.548   1.305  0.3810 -0.2056 -0.0664
  686MOL0     C94596   5.497   1.394   0.606  0.6871 -0.4859  0.8661
  686MOL0     C94597   5.515   1.348   0.472  0.4126 -0.4442 -0.3571
  686MOL0     C94598   5.516   1.460   0.365  1.2391  0.6402 -0.5610
  686MOL0     H94599   5.662   1.291   0.049  1.1652 -1.7438  0.2684
  686MOL0     H94600   5.704   1.188  -0.183  2.1747  1.1973  1.4566
  686MOL0     H94601   5.376   0.972  -0.370 -0.5250  0.0239 -0.5153
  686MOL0     H94602   5.463   0.816  -0.330 -0.4923 -0.9915 -1.8220
  686MOL0     H94603   5.539   1.004  -0.544  1.7776 -0.7164 -0.3510
  686MOL0     H94604   5.626   0.848  -0.485 -0.1671 -0.7975  1.6027
  686MOL0     H94605   5.447   0.713  -0.565  3.9776 -1.8481 -1.9608
  686MOL0     H94606   5.368   0.872  -0.611  0.8353 -0.3185  2.5916
  686MOL0     H94607   5.537   0.904  -0.789 -2.1412 -0.0857 -1.1028
  686MOL0     H94608   5.605   0.751  -0.731 -0.2672  0.8033  2.6970
  686MOL0     H94609   5.317   0.767  -0.839 -0.4397  0.7590  1.3183
  686MOL0     H94610   5.423   0.628  -0.817  0.5546  1.7233  1.7058
  686MOL0     H94611   5.442   0.872  -1.001  1.6389  0.8173  0.1666
  686MOL0     H94612   5.565   0.760  -0.999  0.3989 -1.3744  0.3466
  686MOL0     H94613   5.361   0.575  -1.037 -1.0718 -1.1165 -2.2417
  686MOL0     H94614   5.462   0.638  -1.158 -0.8720 -1.2793 -1.3079
  686MOL0     H94615   5.209   0.648  -1.207 -0.8339  1.9639 -3.0020
  686MOL0     H94616   5.190   0.773  -1.087 -1.2873 -2.1572 -0.4678
  686MOL0     H94617   5.382   0.685  -1.416 -0.1736  1.7587 -0.6448
  686MOL0     H94618   5.470   0.968  -1.613  1.2918 -0.4740  0.1211
  686MOL0     H94619   5.461   0.797  -1.603  0.6337 -1.0191  1.5204
  686MOL0     H94620   5.700   0.985  -1.509  3.3773 -1.6563  2.4438
  686MOL0     H94621   5.689   0.846  -1.433  0.7825  1.3218 -0.2288
  686MOL0     H94622   5.675   0.723  -1.674 -0.3743  0.1668  0.5211
  686MOL0     H94623   5.713   0.883  -1.734  2.9022  1.5204  0.5846
  686MOL0     H94624   5.933   0.866  -1.692  3.3457 -0.7866  1.8820
  686MOL0     H94625   5.880   0.885  -1.529 -2.4970 -0.8201 -0.1879
  686MOL0     H94626   5.861   0.425  -1.537 -1.3596  0.4650 -0.2038
  686MOL0     H94627   5.936   0.165  -1.596 -1.1258 -4.8163 -0.4339
  686MOL0     H94628   5.817   0.140  -1.733 -1.1910 -0.0072  1.2618
  686MOL0     H94629   5.763   0.221  -1.598 -0.1111  0.1978 -0.4376
  686MOL0     H94630   5.837   0.036  -2.124  1.2803 -1.8446  1.3277
  686MOL0     H94631   5.909  -0.083  -2.332 -0.7503 -0.6795  0.1649
  686MOL0     H94632   5.923  -0.104  -2.550 -1.5859 -0.6737 -0.5595
  686MOL0     H94633   5.917   0.042  -2.647 -0.6223 -0.0628 -0.2878
  686MOL0     H94634   6.119  -0.048  -2.788 -1.2850  0.2322 -1.6461
  686MOL0     H94635   6.135  -0.180  -2.677  0.7222  1.1738  0.6120
  686MOL0     H94636   5.904  -0.256  -2.749 -2.2525 -0.3382 -2.5177
  686MOL0     H94637   6.012  -0.262  -2.881 -0.8309 -0.6045 -0.1821
  686MOL0     H94638   5.939  -0.022  -2.951 -1.6236  1.9598 -0.4715
  686MOL0     H94639   5.797  -0.041  -2.846  1.3000  1.7624  1.2403
  686MOL0     H94640   5.847  -0.251  -3.049 -0.2797 -1.8063  2.7156
  686MOL0     H94641   5.697  -0.192  -2.963 -1.4801  3.5046 -0.3482
  686MOL0     H94642   5.847   0.013  -3.132 -1.2804  2.6641 -0.2198
  686MOL0     H94643   5.684   0.014  -3.074 -1.4401 -1.0395 -0.7217
  686MOL0     H94644   5.771  -0.207  -3.269 -0.9771 -0.9420  0.9884
  686MOL0     H94645   5.703  -0.055  -3.330 -1.6151  1.6168  1.2341
  686MOL0     H94646   5.485  -0.064  -3.238  0.1238  0.8752  2.8595
  686MOL0     H94647   5.514  -0.212  -3.147 -3.3876  0.6263  0.2687
  686MOL0     H94648   6.175   0.243  -2.414  0.6348 -1.8079 -1.3551
  686MOL0     H94649   6.079   0.365  -2.208  0.1220 -0.3690  2.4792
  686MOL0     H94650   6.003   0.515  -1.989 -0.9348  0.5664 -0.2871
  686MOL0     H94651   5.951   0.705  -1.849  0.1834  0.0105 -0.2881
  686MOL0     H94652   5.395   0.905  -0.102 -0.6524 -0.1359  0.0330
  686MOL0     H94653   5.355   1.004   0.121 -0.3186 -0.8654  0.2390
  686MOL0     H94654   5.501   1.009   0.544 -0.8753  0.5179 -0.1019
  686MOL0     H94655   5.469   1.096   0.777 -0.1634 -1.2904  0.8243
  686MOL0     H94656   5.477   1.555   0.911  0.2844 -1.0431  0.7257
  686MOL0     H94657   5.347   1.531   0.782 -4.4460 -3.2339 -0.0756
  686MOL0     H94658   5.196   1.458   0.925 -0.5504 -0.8454  1.7922
  686MOL0     H94659   5.280   1.584   1.023  1.1928  0.5301  1.8587
  686MOL0     H94660   5.361   1.296   1.058 -1.3008 -0.7041 -0.0834
  686MOL0     H94661   5.391   1.425   1.170 -1.2348 -1.1927  0.9758
  686MOL0     H94662   5.231   1.270   1.252  0.8603  1.9227  1.7103
  686MOL0     H94663   5.118   1.296   1.109  1.2726 -2.3952  0.6108
  686MOL0     H94664   5.030   1.636   1.352  1.3525 -1.2609  2.9761
  686MOL0     H94665   5.497   1.503   0.599  1.9573 -0.5798 -3.6449
  686MOL0     H94666   5.408   1.473   0.351  0.4121 -3.9057  0.0588
  686MOL0     H94667   5.556   1.554   0.404 -0.6141  0.8667  0.9399
  686MOL0     H94668   5.570   1.429   0.275  0.6245 -2.5277  0.0213
  687MOL0     O94669   8.133   1.113   7.614  0.1789 -0.2389 -0.7541
  687MOL0     C94670   8.139   1.123   7.740 -0.3208 -0.0542 -0.0364
  687MOL0     O94671   8.165   1.235   7.806  0.2362 -0.3335 -0.3000
  687MOL0     C94672   8.135   1.351   7.749 -0.6844  0.2722  0.9599
  687MOL0     C94673   8.239   1.415   7.674  0.4312  0.5519  0.9939
  687MOL0     C94674   8.214   1.539   7.620 -0.2693 -0.3609 -1.0973
  687MOL0     C94675   8.085   1.594   7.620  0.0402 -0.1160  0.4404
  687MOL0     O94676   8.069   1.708   7.543 -0.2219 -0.5005  0.9281
  687MOL0     C94677   7.946   1.771   7.529  0.0012 -0.2710 -0.9283
  687MOL0     C94678   7.882   1.834   7.661  0.4003  0.5211  0.8534
  687MOL0     C94679   7.737   1.888   7.623 -0.2194  0.0331 -0.4257
  687MOL0     C94680   7.657   1.914   7.758  0.5702 -0.0054 -1.0785
  687MOL0     C94681   7.539   2.015   7.734 -0.7640 -0.4269 -0.2530
  687MOL0     C94682   7.463   1.999   7.862 -0.1032 -0.2759  0.2808
  687MOL0     C94683   7.346   2.090   7.863 -0.0311 -0.1714 -0.5570
  687MOL0     C94684   7.374   2.233   7.917 -0.2791  0.8802 -0.0297
  687MOL0     N94685   7.247   2.317   7.940  0.3076  0.1037  0.1691
  687MOL0     C94686   7.180   2.350   8.057  0.2372  0.0273 -0.7309
  687MOL0     C94687   7.084   2.437   8.024  0.3074 -0.9379  0.3803
  687MOL0     C94688   6.985   2.489   8.126 -0.3676  0.7941 -0.8534
  687MOL0     C94689   6.927   2.377   8.215  0.7830  0.5297  0.0045
  687MOL0     C94690   6.855   2.274   8.134 -0.5593 -0.5635  0.1920
  687MOL0     C94691   6.789   2.161   8.208 -1.4364  0.2631 -0.1037
  687MOL0     O94692   6.902   2.083   8.263 -0.7253  0.0832 -0.1890
  687MOL0     C94693   6.873   2.015   8.382 -0.6953  0.2278  0.5757
  687MOL0     C94694   6.979   1.960   8.451  0.2795  0.7906 -0.0721
  687MOL0     C94695   6.968   1.874   8.566  0.2143 -0.0265 -0.4730
  687MOL0     C94696   7.097   1.818   8.621  0.2765 -0.1206 -0.2610
  687MOL0     C94697   6.837   1.836   8.611 -1.2795 -0.8756 -1.3728
  687MOL0     C94698   6.801   1.768   8.740  0.3030 -0.3078 -0.5941
  687MOL0     O94699   6.669   1.729   8.770 -0.7250  0.5128 -0.1564
  687MOL0     C94700   6.654   1.654   8.881 -0.5851  0.8468  0.4321
  687MOL0     C94701   6.668   1.698   9.008  0.8836 -0.6234 -0.9137
  687MOL0     C94702   6.653   1.608   9.122  0.4596  0.5761  0.7598
  687MOL0     C94703   6.623   1.466   9.099  0.6533 -0.0982  0.3492
  687MOL0     O94704   6.613   1.369   9.199 -1.1305  0.7943  0.2603
  687MOL0     C94705   6.632   1.409   9.337  0.2760  0.5506  0.3406
  687MOL0     C94706   6.570   1.304   9.430 -0.5517  0.1118  0.8540
  687MOL0     C94707   6.607   1.352   9.568 -1.4116  0.0396 -0.1855
  687MOL0     C94708   6.502   1.454   9.605  0.0622 -0.5982 -0.5922
  687MOL0     C94709   6.530   1.536   9.746  0.1376 -0.1441 -0.3096
  687MOL0     C94710   6.412   1.627   9.782  0.0337  0.1200  0.4438
  687MOL0     C94711   6.419   1.684   9.923  0.9126 -0.8092 -0.9285
  687MOL0     C94712   6.290   1.756   9.957  0.5559  0.9410 -0.0444
  687MOL0    Cl94713   6.156   1.624   9.960 -0.1060  0.3861  0.1022
  687MOL0     C94714   6.616   1.429   8.970  0.0254  0.1203 -0.3644
  687MOL0     C94715   6.628   1.517   8.863 -0.3894  0.1147 -0.8159
  687MOL0     O94716   6.892   1.750   8.815  0.6249 -0.6983 -0.5443
  687MOL0     C94717   6.732   1.893   8.547  0.2805 -0.1874 -1.3920
  687MOL0     C94718   6.745   1.979   8.435 -0.6448 -0.1577 -0.5187
  687MOL0     N94719   7.095   2.459   7.886  0.2118  0.6457 -0.0249
  687MOL0     N94720   7.196   2.392   7.841  0.2030 -0.2584  0.4795
  687MOL0     C94721   7.984   1.513   7.682  0.4436 -0.3634 -0.2296
  687MOL0     C94722   8.003   1.403   7.751 -0.4444 -0.4234  0.5435
  687MOL0     C94723   8.124   1.003   7.825  0.9239  0.0394  0.6150
  687MOL0     C94724   8.034   1.025   7.936  0.2535  0.3961  0.4741
  687MOL0     C94725   8.005   0.918   8.019  0.6092  0.5659 -0.4698
  687MOL0     C94726   8.056   0.784   7.998  0.3633  0.8422  0.6798
  687MOL0     O94727   8.024   0.675   8.076  0.1255  0.9590 -0.0069
  687MOL0     C94728   8.020   0.537   8.034  0.9259  0.3098  0.5749
  687MOL0     C94729   7.962   0.451   8.144  0.4208  0.4875  0.3936
  687MOL0     C94730   8.084   0.418   8.237  0.7357  0.7778 -1.5614
  687MOL0     C94731   8.016   0.370   8.369  0.0724  0.2794  0.0580
  687MOL0     C94732   8.107   0.296   8.465 -0.5797  0.0243  0.7323
  687MOL0     C94733   8.181   0.253   8.552 -0.9143 -0.0131  0.3228
  687MOL0     C94734   8.124   0.766   7.884  1.3784 -0.6560  0.9012
  687MOL0     C94735   8.173   0.875   7.800  0.3101 -0.7061 -0.1003
  687MOL0     C94736   8.260   0.838   7.684 -0.3773 -0.3840 -0.8604
  687MOL0     H94737   8.335   1.374   7.643 -0.0653  1.0603 -1.4394
  687MOL0     H94738   8.294   1.585   7.564  0.4834 -2.0332 -1.4482
  687MOL0     H94739   7.888   1.686   7.491  0.7545  0.4163 -3.8264
  687MOL0     H94740   7.958   1.847   7.452  1.6056  0.0145 -0.4222
  687MOL0     H94741   7.878   1.760   7.742  2.3709 -1.2577 -0.6014
  687MOL0     H94742   7.950   1.910   7.699  2.2118 -1.5202  1.9123
  687MOL0     H94743   7.749   1.985   7.573  1.2333 -0.1802 -0.5625
  687MOL0     H94744   7.676   1.821   7.562 -0.9483 -1.4339  1.8098
  687MOL0     H94745   7.620   1.815   7.788 -2.2596  0.4993 -2.4899
  687MOL0     H94746   7.724   1.953   7.835 -2.9586  0.1790  2.1910
  687MOL0     H94747   7.481   1.993   7.643  0.1843 -1.2083 -0.6751
  687MOL0     H94748   7.574   2.119   7.733 -1.7288  0.0613  3.3168
  687MOL0     H94749   7.418   1.900   7.877 -0.8513  0.3088  2.3660
  687MOL0     H94750   7.535   2.024   7.940  1.0922 -0.4459 -0.7438
  687MOL0     H94751   7.272   2.048   7.931  1.1698 -0.4655  0.5999
  687MOL0     H94752   7.294   2.098   7.767  1.0360 -1.6443 -1.3012
  687MOL0     H94753   7.429   2.248   8.010  0.5064  0.5321 -0.4327
  687MOL0     H94754   7.438   2.276   7.839  3.2849 -0.3933  1.9775
  687MOL0     H94755   7.188   2.312   8.159 -2.7545 -1.4002 -0.9330
  687MOL0     H94756   6.901   2.526   8.066 -2.6520  2.1114  2.8720
  687MOL0     H94757   7.031   2.564   8.191  0.1685 -1.5865  1.6903
  687MOL0     H94758   6.995   2.326   8.284 -0.0023  2.4257  2.3682
  687MOL0     H94759   6.852   2.423   8.281  0.9612 -0.3642  0.8674
  687MOL0     H94760   6.767   2.316   8.084 -1.1612 -1.5922  0.3610
  687MOL0     H94761   6.925   2.235   8.059 -0.8411 -0.4765 -0.1184
  687MOL0     H94762   6.723   2.200   8.287 -1.2839  2.5092 -1.0134
  687MOL0     H94763   6.741   2.093   8.138 -1.3631 -1.7407  1.6884
  687MOL0     H94764   7.080   1.984   8.420  0.4346  0.2958  0.0403
  687MOL0     H94765   7.176   1.823   8.545  0.4440 -2.9614 -0.3954
  687MOL0     H94766   7.084   1.714   8.652 -3.7220  0.6481  1.2618
  687MOL0     H94767   7.128   1.877   8.707 -0.5152 -2.2273  1.5738
  687MOL0     H94768   6.682   1.805   9.021  1.8921 -0.7092 -1.2176
  687MOL0     H94769   6.666   1.647   9.222 -0.5953  1.0293  0.7235
  687MOL0     H94770   6.741   1.417   9.348  0.1368  3.0663  0.5321
  687MOL0     H94771   6.576   1.502   9.348 -0.4335  0.0317  1.2468
  687MOL0     H94772   6.464   1.297   9.403  0.1845 -0.9401 -2.2222
  687MOL0     H94773   6.621   1.209   9.413  0.5018  0.8789 -0.5039
  687MOL0     H94774   6.708   1.394   9.568 -2.2163  2.1235 -0.5494
  687MOL0     H94775   6.596   1.262   9.629 -3.8087  0.3399 -0.1026
  687MOL0     H94776   6.408   1.401   9.622 -1.6467  2.4703  0.2511
  687MOL0     H94777   6.495   1.529   9.526 -1.6762  0.2823  0.3236
  687MOL0     H94778   6.530   1.461   9.825 -3.1217 -0.2900 -0.3031
  687MOL0     H94779   6.630   1.580   9.747  1.0458 -1.8990 -2.6251
  687MOL0     H94780   6.325   1.560   9.784  0.5759 -0.6642 -0.7388
  687MOL0     H94781   6.397   1.708   9.710  0.8069 -0.4466 -0.3876
  687MOL0     H94782   6.502   1.749   9.953 -0.4175  0.1225  0.9290
  687MOL0     H94783   6.417   1.602   9.995 -4.2631 -0.8312 -0.7407
  687MOL0     H94784   6.270   1.837   9.887 -1.2125 -0.5460 -1.3450
  687MOL0     H94785   6.310   1.799  10.056  1.5616 -2.0536  1.1652
  687MOL0     H94786   6.591   1.325   8.952  0.1163  0.3886 -2.3222
  687MOL0     H94787   6.640   1.480   8.762  2.5866 -0.1964 -0.4356
  687MOL0     H94788   6.633   1.889   8.592 -0.7134  1.4226 -3.2801
  687MOL0     H94789   6.651   2.013   8.394 -0.9248  1.6700  1.4214
  687MOL0     H94790   7.882   1.546   7.669 -0.0002 -2.6554 -4.2707
  687MOL0     H94791   7.922   1.339   7.786 -2.3368  0.8847 -1.2386
  687MOL0     H94792   7.978   1.118   7.939  0.6628  1.0567 -4.5053
  687MOL0     H94793   7.930   0.934   8.096 -1.9345 -2.0524 -2.1546
  687MOL0     H94794   7.952   0.529   7.949  0.9093 -1.5002  0.7166
  687MOL0     H94795   8.115   0.497   7.997  0.3839 -0.6861  0.2282
  687MOL0     H94796   7.923   0.354   8.112 -1.2878  1.1813  0.2838
  687MOL0     H94797   7.881   0.500   8.199 -2.0816 -3.0091  0.1431
  687MOL0     H94798   8.147   0.341   8.191  1.3402 -0.5656  1.3078
  687MOL0     H94799   8.145   0.507   8.259 -1.7420  2.5337 -1.4061
  687MOL0     H94800   7.923   0.314   8.359 -0.1550  0.9070 -1.6850
  687MOL0     H94801   7.979   0.454   8.430  0.8443  0.6005  0.0937
  687MOL0     H94802   8.240   0.201   8.625 -1.7388  1.5273  2.1954
  687MOL0     H94803   8.168   0.668   7.866 -0.0248 -0.9709 -1.3217
  687MOL0     H94804   8.325   0.754   7.710  1.2649  0.9745 -0.3956
  687MOL0     H94805   8.199   0.806   7.600 -0.9526  0.2695 -0.7036
  687MOL0     H94806   8.313   0.930   7.656 -1.3563  1.7076  3.3104
  688MOL0     O94807   6.398   5.153   1.637  0.0352  0.7766 -1.3705
  688MOL0     C94808   6.460   5.046   1.648  0.3315  0.8928 -0.6099
  688MOL0     O94809   6.507   4.961   1.547 -0.1269 -1.0145 -0.0386
  688MOL0     C94810   6.499   4.999   1.412  0.0417  0.3520  0.3763
  688MOL0     C94811   6.549   4.896   1.327  0.6907 -0.3437  0.3732
  688MOL0     C94812   6.561   4.920   1.181 -0.5438  0.9267 -0.5581
  688MOL0     C94813   6.530   5.049   1.135 -1.2709 -0.0073 -0.1837
  688MOL0     O94814   6.545   5.075   1.005  0.4396 -1.1359  0.8835
  688MOL0     C94815   6.449   5.024   0.911  0.7797 -0.2922  0.3772
  688MOL0     C94816   6.366   5.152   0.860 -0.1101 -0.5476 -0.4777
  688MOL0     C94817   6.269   5.114   0.742  0.8461 -0.6060 -0.4399
  688MOL0     C94818   6.362   5.101   0.613  0.8151  0.7869 -0.2249
  688MOL0     C94819   6.271   5.075   0.492  0.0282  0.4118 -0.0524
  688MOL0     C94820   6.359   5.049   0.368  0.0414 -0.1155 -0.5910
  688MOL0     C94821   6.289   5.060   0.234  0.1266  0.2068  0.4181
  688MOL0     C94822   6.269   5.207   0.210  1.3532  0.7024 -0.0288
  688MOL0     N94823   6.227   5.210   0.073  0.1621 -0.2256  0.0490
  688MOL0     C94824   6.097   5.243   0.041  0.8476 -0.3223  1.1212
  688MOL0     C94825   6.089   5.264  -0.091 -1.1030  0.1253 -0.2566
  688MOL0     C94826   5.960   5.299  -0.171 -0.6418 -0.2766 -0.3965
  688MOL0     C94827   5.950   5.208  -0.300 -0.5625 -0.1656 -0.7639
  688MOL0     C94828   5.804   5.236  -0.360 -0.5464  0.4546 -0.3356
  688MOL0     C94829   5.695   5.176  -0.280 -0.1712  0.9448 -0.1393
  688MOL0     O94830   5.564   5.211  -0.329 -0.3794  0.0909  0.4750
  688MOL0     C94831   5.528   5.132  -0.432  0.0297 -0.0385 -0.4791
  688MOL0     C94832   5.496   5.184  -0.556  0.3589 -0.4009  0.0333
  688MOL0     C94833   5.435   5.110  -0.661 -0.4287  0.0635  0.2914
  688MOL0     C94834   5.387   5.194  -0.785  0.4626 -1.5518 -0.7557
  688MOL0     C94835   5.407   4.976  -0.641 -0.1368 -0.3140 -0.5502
  688MOL0     C94836   5.331   4.892  -0.739 -0.1199  0.3049 -0.6783
  688MOL0     O94837   5.345   4.752  -0.731  0.2290 -0.1840  0.3962
  688MOL0     C94838   5.265   4.652  -0.792  0.9538 -0.0234 -0.3916
  688MOL0     C94839   5.315   4.530  -0.830 -0.1932 -0.5676  0.6199
  688MOL0     C94840   5.234   4.430  -0.883  0.0929 -0.0244 -0.3925
  688MOL0     C94841   5.104   4.455  -0.902  1.1630  0.2611 -0.6520
  688MOL0     O94842   5.032   4.361  -0.962  0.0480  0.4268 -0.2448
  688MOL0     C94843   4.918   4.379  -1.043 -0.4126  0.0390  0.5113
  688MOL0     C94844   4.827   4.256  -1.022 -0.7131  0.5607 -0.3328
  688MOL0     C94845   4.872   4.143  -1.131  0.3592 -0.5873 -0.7038
  688MOL0     C94846   4.799   4.018  -1.086  0.8079  0.0622  0.5485
  688MOL0     C94847   4.829   3.897  -1.168 -0.1712  0.3140 -0.1294
  688MOL0     C94848   4.740   3.891  -1.294 -0.8949  0.4875 -0.6946
  688MOL0     C94849   4.768   3.767  -1.391  0.2584 -0.2993  0.2329
  688MOL0     C94850   4.664   3.745  -1.497 -0.3311 -0.8955  0.7479
  688MOL0    Cl94851   4.497   3.739  -1.439 -0.4734  0.2077  0.3034
  688MOL0     C94852   5.050   4.582  -0.863  0.2857  0.6234  0.2059
  688MOL0     C94853   5.127   4.676  -0.806 -0.2260 -0.4652  0.2297
  688MOL0     O94854   5.259   4.948  -0.818 -0.4628  0.2768  0.0303
  688MOL0     C94855   5.453   4.920  -0.524 -0.7540 -0.1228 -0.0728
  688MOL0     C94856   5.505   5.001  -0.422 -0.4168 -0.0529  0.4079
  688MOL0     N94857   6.222   5.251  -0.137 -0.7783  0.4550 -0.6918
  688MOL0     N94858   6.303   5.212  -0.041  0.2771 -0.0387  0.2693
  688MOL0     C94859   6.470   5.146   1.214  0.2109  0.0514  0.2615
  688MOL0     C94860   6.457   5.120   1.353 -0.2157  0.1652  0.1068
  688MOL0     C94861   6.529   5.028   1.776 -0.1666  0.1222 -1.0089
  688MOL0     C94862   6.661   4.994   1.769  0.2149 -0.0374 -0.8037
  688MOL0     C94863   6.740   4.970   1.885 -0.5563 -0.5401 -0.6463
  688MOL0     C94864   6.678   4.981   2.009 -0.6264  1.1218 -0.4217
  688MOL0     O94865   6.736   4.948   2.124  0.5248 -0.1029  0.3266
  688MOL0     C94866   6.872   4.896   2.114  0.1647  0.1848  0.8707
  688MOL0     C94867   6.919   4.860   2.254  0.8471  0.5030  0.5711
  688MOL0     C94868   7.066   4.888   2.292  0.5274  0.2085 -0.1386
  688MOL0     C94869   7.078   5.046   2.325 -0.3621 -0.4704  0.3942
  688MOL0     C94870   7.198   5.086   2.394  0.0941  0.2229  0.2450
  688MOL0     C94871   7.298   5.121   2.462 -0.4020 -0.0791  1.0900
  688MOL0     C94872   6.549   5.036   2.021 -0.0792 -0.1014 -0.6409
  688MOL0     C94873   6.474   5.060   1.904  0.2969  0.3293  0.9860
  688MOL0     C94874   6.333   5.113   1.933 -0.2028  0.9902  0.3266
  688MOL0     H94875   6.580   4.801   1.369 -0.3938 -1.6862 -1.6723
  688MOL0     H94876   6.615   4.845   1.124 -0.5185 -0.1268  0.8022
  688MOL0     H94877   6.389   4.947   0.962 -2.0147  2.2032  1.1657
  688MOL0     H94878   6.491   4.973   0.824 -1.6303 -3.5817  0.9319
  688MOL0     H94879   6.313   5.192   0.947  1.3738 -2.0091  1.1747
  688MOL0     H94880   6.421   5.240   0.826  0.5504 -0.7954 -0.0457
  688MOL0     H94881   6.219   5.025   0.781 -1.5498  1.0289  0.4588
  688MOL0     H94882   6.180   5.175   0.724 -1.1347 -2.9366  0.7787
  688MOL0     H94883   6.421   5.191   0.596  0.4726  2.2558  4.6696
  688MOL0     H94884   6.431   5.017   0.626  0.0112  0.4390  2.5490
  688MOL0     H94885   6.201   5.159   0.483 -1.0736 -0.5109 -0.2759
  688MOL0     H94886   6.208   4.987   0.511  1.5808 -0.8605 -0.6053
  688MOL0     H94887   6.445   5.116   0.377  0.0734 -0.4099  1.7497
  688MOL0     H94888   6.406   4.950   0.370  0.3528  0.0126  1.9972
  688MOL0     H94889   6.200   4.997   0.241  0.1673 -0.1299 -1.6021
  688MOL0     H94890   6.345   5.021   0.149 -2.2390  0.6578 -1.4286
  688MOL0     H94891   6.181   5.238   0.267  0.0200 -2.9631  0.1896
  688MOL0     H94892   6.356   5.271   0.226  0.7931  1.5717 -0.3943
  688MOL0     H94893   6.012   5.240   0.109 -0.5200  1.8968 -0.3420
  688MOL0     H94894   5.958   5.407  -0.183 -2.0359 -0.1564  0.6184
  688MOL0     H94895   5.875   5.282  -0.104 -0.1186  1.2651  0.7215
  688MOL0     H94896   6.018   5.249  -0.375 -1.5305 -0.1235 -1.6350
  688MOL0     H94897   5.968   5.102  -0.280 -1.7274  0.1861  2.9042
  688MOL0     H94898   5.791   5.344  -0.366  0.2068  0.7539  2.1491
  688MOL0     H94899   5.808   5.177  -0.452 -0.5848 -3.7744  2.1188
  688MOL0     H94900   5.711   5.068  -0.277 -0.3940  0.9237  1.8742
  688MOL0     H94901   5.708   5.207  -0.176 -0.7354  0.3659  0.1091
  688MOL0     H94902   5.506   5.292  -0.564 -1.5635 -0.1077  0.9604
  688MOL0     H94903   5.396   5.303  -0.777 -2.9907 -1.1712 -0.5847
  688MOL0     H94904   5.278   5.188  -0.779  0.5973 -2.9583  1.5067
  688MOL0     H94905   5.407   5.163  -0.888  2.1850 -3.8262  0.1801
  688MOL0     H94906   5.421   4.505  -0.828  0.1417  0.5853 -1.0831
  688MOL0     H94907   5.271   4.335  -0.923 -1.4587 -0.4684 -0.8183
  688MOL0     H94908   4.856   4.461  -1.004  0.3462  1.8641 -1.8560
  688MOL0     H94909   4.924   4.404  -1.149 -4.3882  0.6998  0.2878
  688MOL0     H94910   4.841   4.222  -0.919 -1.5790  2.5722  0.4791
  688MOL0     H94911   4.727   4.292  -1.048  0.9204  3.2054 -3.7676
  688MOL0     H94912   4.980   4.130  -1.121  0.5463  2.2158  3.6009
  688MOL0     H94913   4.848   4.169  -1.234  0.9846  1.2472 -0.4243
  688MOL0     H94914   4.691   4.036  -1.082  0.7866 -0.1660  1.0407
  688MOL0     H94915   4.830   3.997  -0.984 -2.3150 -2.3815  1.1516
  688MOL0     H94916   4.933   3.904  -1.201 -0.1881  1.8724  0.0774
  688MOL0     H94917   4.817   3.814  -1.098 -1.1804 -2.0662 -2.9027
  688MOL0     H94918   4.758   3.979  -1.357  0.8597  0.1324 -0.7427
  688MOL0     H94919   4.637   3.905  -1.262 -0.7181 -3.4756  2.4418
  688MOL0     H94920   4.756   3.680  -1.325 -0.2535 -1.3421 -1.1780
  688MOL0     H94921   4.866   3.783  -1.436 -1.5234  3.0276 -2.9824
  688MOL0     H94922   4.707   3.660  -1.551  1.0844  0.4895 -0.3863
  688MOL0     H94923   4.665   3.825  -1.571 -0.5016 -1.5199  0.0590
  688MOL0     H94924   4.945   4.607  -0.874 -0.1488 -1.0051  0.3773
  688MOL0     H94925   5.086   4.774  -0.783 -0.6125 -0.8190  1.0606
  688MOL0     H94926   5.433   4.817  -0.498 -3.7803  0.9569  2.6064
  688MOL0     H94927   5.527   4.954  -0.327  0.4702  0.7924  0.6352
  688MOL0     H94928   6.427   5.236   1.171  0.4287  0.6285  1.2219
  688MOL0     H94929   6.429   5.203   1.417  0.3546  0.1822  0.3360
  688MOL0     H94930   6.706   4.966   1.674 -0.3050 -1.4455 -0.6541
  688MOL0     H94931   6.836   4.923   1.870  0.4536  0.3383  2.3379
  688MOL0     H94932   6.878   4.805   2.053  2.4301 -0.3737  1.8336
  688MOL0     H94933   6.948   4.968   2.081  4.0832 -3.6096  0.6703
  688MOL0     H94934   6.910   4.751   2.255 -0.8312  0.5844  3.1422
  688MOL0     H94935   6.848   4.895   2.329  0.8791 -1.7423  1.7360
  688MOL0     H94936   7.082   4.829   2.383 -2.5285  0.0036  0.3687
  688MOL0     H94937   7.127   4.866   2.204  0.3673  1.5917 -0.6112
  688MOL0     H94938   6.997   5.089   2.384  0.2757  1.6812 -0.2203
  688MOL0     H94939   7.056   5.093   2.228 -1.5654  0.2012  0.9699
  688MOL0     H94940   7.391   5.138   2.514 -0.5383 -0.9044  1.6347
  688MOL0     H94941   6.491   5.056   2.110  0.0495  2.9662 -1.1384
  688MOL0     H94942   6.259   5.101   1.853 -1.5033  0.6500  1.5398
  688MOL0     H94943   6.303   5.066   2.027  0.5489  0.2589  0.2063
  688MOL0     H94944   6.342   5.222   1.935 -0.1118  0.9951  2.4486
  689MOL0     O94945   7.766   6.920  10.838 -0.3679 -0.1103 -0.3488
  689MOL0     C94946   7.816   6.817  10.871  0.2441  0.5227  0.4501
  689MOL0     O94947   7.750   6.714  10.937  0.7250 -0.8122 -0.2678
  689MOL0     C94948   7.624   6.739  10.976  0.4110  0.0132 -0.7250
  689MOL0     C94949   7.613   6.769  11.115 -0.1998 -0.2454  0.6947
  689MOL0     C94950   7.488   6.800  11.165  0.4293  0.3528 -1.0813
  689MOL0     C94951   7.374   6.810  11.086  0.5418 -0.0007 -0.2783
  689MOL0     O94952   7.268   6.873  11.145  0.6035 -0.5971  0.3486
  689MOL0     C94953   7.130   6.840  11.092 -0.4443 -0.1304  0.0016
  689MOL0     C94954   7.026   6.916  11.177 -0.0248  0.6919  0.0068
  689MOL0     C94955   6.999   7.064  11.133 -0.9707  0.6123 -0.6677
  689MOL0     C94956   6.920   7.080  11.011 -0.7094  0.0481 -0.8644
  689MOL0     C94957   6.923   7.217  10.946 -0.0090 -0.5605  0.3674
  689MOL0     C94958   6.814   7.246  10.845  0.6125  0.0961  0.8388
  689MOL0     C94959   6.857   7.383  10.773  0.1063  0.0544  0.2440
  689MOL0     C94960   6.765   7.407  10.653  0.3211  0.5100 -0.7211
  689MOL0     N94961   6.808   7.535  10.606 -0.7850 -0.9186  0.3205
  689MOL0     C94962   6.891   7.564  10.502 -0.4365 -0.4446  0.5215
  689MOL0     C94963   6.929   7.691  10.504 -0.4496  0.6224 -0.2636
  689MOL0     C94964   7.018   7.770  10.411  0.4100 -0.6909 -0.7477
  689MOL0     C94965   7.118   7.689  10.317  0.6529 -0.0241  0.1082
  689MOL0     C94966   7.250   7.625  10.381 -0.4808 -1.1951 -0.6837
  689MOL0     C94967   7.226   7.505  10.466  0.6401  0.7023  0.2158
  689MOL0     O94968   7.149   7.406  10.390  0.5984 -0.5407  0.0392
  689MOL0     C94969   7.218   7.310  10.317  0.6762  0.0324  0.8400
  689MOL0     C94970   7.142   7.207  10.261 -0.6008 -0.1806  0.0656
  689MOL0     C94971   7.199   7.119  10.175 -0.2006  1.2732  0.2981
  689MOL0     C94972   7.110   7.019  10.111 -0.2588  0.1910 -0.3797
  689MOL0     C94973   7.344   7.124  10.141 -0.4118  0.0565  0.5346
  689MOL0     C94974   7.422   7.034  10.067  0.2562 -0.3286  1.0651
  689MOL0     O94975   7.558   7.057  10.044 -0.0880 -0.6421  0.0215
  689MOL0     C94976   7.644   6.988   9.964  0.2507 -0.5744 -1.1749
  689MOL0     C94977   7.614   6.912   9.843 -0.5832  0.5600 -0.4309
  689MOL0     C94978   7.709   6.855   9.760 -1.0462 -0.2403 -0.5871
  689MOL0     C94979   7.838   6.854   9.812 -0.2324 -0.2358  0.4300
  689MOL0     O94980   7.932   6.796   9.734  0.7080  0.2646  0.3093
  689MOL0     C94981   7.994   6.884   9.637  0.0176 -0.2191 -0.4182
  689MOL0     C94982   8.005   6.808   9.507  0.0174  0.6835 -0.3322
  689MOL0     C94983   7.867   6.807   9.441  0.0170 -0.0138 -0.6346
  689MOL0     C94984   7.872   6.737   9.300  0.2474 -0.4244  0.1393
  689MOL0     C94985   7.749   6.794   9.220 -0.5025  0.7250 -0.0210
  689MOL0     C94986   7.621   6.783   9.301  0.6645  1.0038  0.4182
  689MOL0     C94987   7.509   6.811   9.199 -0.0110  0.0231  0.2962
  689MOL0     C94988   7.372   6.829   9.257  0.2310  0.2376 -1.2290
  689MOL0    Cl94989   7.282   6.687   9.339 -0.6094  0.2027  0.4373
  689MOL0     C94990   7.871   6.918   9.937 -0.7692  0.7740 -0.3308
  689MOL0     C94991   7.771   6.982  10.013  0.8930  0.0960  0.0814
  689MOL0     O94992   7.368   6.930  10.024  0.0689 -0.2871 -0.6252
  689MOL0     C94993   7.407   7.220  10.199  0.7057  0.3197 -0.2055
  689MOL0     C94994   7.350   7.315  10.280 -0.2618 -0.1206  0.4759
  689MOL0     N94995   6.858   7.746  10.614 -0.0669 -0.0593 -0.3314
  689MOL0     N94996   6.784   7.657  10.673  0.3829  0.9269 -0.6174
  689MOL0     C94997   7.385   6.776  10.954  0.3915 -0.3100  0.7331
  689MOL0     C94998   7.512   6.730  10.899  0.0223 -0.6743 -0.4444
  689MOL0     C94999   7.949   6.785  10.818 -0.4355  0.5544 -0.6803
  689MOL0     C95000   7.995   6.651  10.830 -0.0062 -0.0144  0.2636
  689MOL0     C95001   8.123   6.612  10.788  0.1844  0.3582 -0.1946
  689MOL0     C95002   8.197   6.697  10.703  0.5371 -0.5765  0.0743
  689MOL0     O95003   8.311   6.678  10.633 -0.8372  0.0851  0.4393
  689MOL0     C95004   8.386   6.557  10.653  0.8087  0.0599 -0.0613
  689MOL0     C95005   8.323   6.453  10.562 -0.2102 -1.0258  0.5264
  689MOL0     C95006   8.405   6.330  10.538  0.5250  0.0988  0.8738
  689MOL0     C95007   8.560   6.333  10.533 -0.0152  0.3184 -0.4338
  689MOL0     C95008   8.610   6.194  10.513  0.5567  0.2217 -1.5867
  689MOL0     C95009   8.670   6.087  10.510  0.5836  0.3627  0.3781
  689MOL0     C95010   8.146   6.831  10.680  0.1583  0.1086 -0.7436
  689MOL0     C95011   8.029   6.874  10.743 -1.0275  0.0124  1.0246
  689MOL0     C95012   7.991   7.022  10.708  0.9275 -0.8260 -0.1176
  689MOL0     H95013   7.698   6.781  11.181 -0.8347 -0.1059  1.4999
  689MOL0     H95014   7.485   6.837  11.267  4.9506 -0.7812 -0.3153
  689MOL0     H95015   7.098   6.740  11.125 -2.1247  0.4182  0.1519
  689MOL0     H95016   7.117   6.853  10.984 -1.1242 -3.0923 -0.3576
  689MOL0     H95017   6.928   6.869  11.185  0.1784  0.5800  3.7297
  689MOL0     H95018   7.062   6.921  11.281 -0.0870  1.5645 -0.0055
  689MOL0     H95019   6.964   7.119  11.221 -0.7489  1.0195 -0.8320
  689MOL0     H95020   7.098   7.101  11.105 -0.5999 -1.2473 -1.9823
  689MOL0     H95021   6.933   7.001  10.936 -0.9297 -3.2379  2.2682
  689MOL0     H95022   6.821   7.059  11.052  0.4590  0.3449  2.3336
  689MOL0     H95023   7.017   7.235  10.894 -1.1747  3.9078 -0.6311
  689MOL0     H95024   6.910   7.297  11.019 -2.8997  0.9776 -1.6192
  689MOL0     H95025   6.801   7.170  10.766 -3.7129 -0.3043  1.6798
  689MOL0     H95026   6.721   7.264  10.899  0.6073  1.2178  0.4675
  689MOL0     H95027   6.958   7.383  10.731 -1.1907  4.8735 -3.8507
  689MOL0     H95028   6.848   7.465  10.844 -4.7786  0.3780 -0.4245
  689MOL0     H95029   6.777   7.336  10.571  2.6538 -1.3409  1.0321
  689MOL0     H95030   6.660   7.415  10.682  0.7847  1.0886  0.9394
  689MOL0     H95031   6.925   7.494  10.427  0.8115  1.1771 -0.4824
  689MOL0     H95032   7.073   7.843  10.472 -0.4515 -0.6180 -0.0491
  689MOL0     H95033   6.956   7.833  10.346  0.6089  1.4767  1.0412
  689MOL0     H95034   7.055   7.610  10.277  1.0939  0.3368 -1.3490
  689MOL0     H95035   7.151   7.749  10.231 -2.2133 -2.3696 -2.8506
  689MOL0     H95036   7.329   7.601  10.310 -0.6443  1.1521 -1.7386
  689MOL0     H95037   7.299   7.698  10.445  0.5330 -1.4117 -1.1916
  689MOL0     H95038   7.314   7.455  10.508 -0.7215 -1.2856  0.8027
  689MOL0     H95039   7.161   7.545  10.544 -1.3947 -2.0962  0.0873
  689MOL0     H95040   7.041   7.174  10.282  0.1575 -4.4384 -1.8130
  689MOL0     H95041   7.123   7.025  10.003 -1.9393 -1.2594 -0.6904
  689MOL0     H95042   7.003   7.024  10.133 -0.3712 -2.4939  0.0479
  689MOL0     H95043   7.139   6.917  10.138  0.4136 -0.2699 -2.6238
  689MOL0     H95044   7.512   6.894   9.811  0.0101 -0.2424 -1.9645
  689MOL0     H95045   7.685   6.789   9.677 -0.7275  1.1553 -1.8224
  689MOL0     H95046   7.937   6.975   9.615  1.1879  0.6203 -0.0702
  689MOL0     H95047   8.099   6.895   9.666  0.3727 -1.3273 -1.2106
  689MOL0     H95048   8.080   6.835   9.432 -0.1391  0.0490 -0.7287
  689MOL0     H95049   8.034   6.706   9.535  1.7702  1.9569  3.1564
  689MOL0     H95050   7.837   6.912   9.428 -1.5181 -0.2972  0.2824
  689MOL0     H95051   7.795   6.756   9.505  0.3461 -0.7819 -0.8707
  689MOL0     H95052   7.871   6.627   9.303  0.5937 -0.4220  0.4210
  689MOL0     H95053   7.962   6.774   9.251  0.3170  1.5040  1.6200
  689MOL0     H95054   7.757   6.903   9.217  1.2306  0.6911  1.3782
  689MOL0     H95055   7.739   6.751   9.120  0.9469  1.7596 -0.6606
  689MOL0     H95056   7.628   6.852   9.385  1.1405 -0.0934  1.3040
  689MOL0     H95057   7.603   6.687   9.351 -0.7458  0.2134 -1.4652
  689MOL0     H95058   7.503   6.736   9.120  0.7068  0.4358 -0.1603
  689MOL0     H95059   7.538   6.901   9.143 -0.8379 -0.7540 -1.4686
  689MOL0     H95060   7.314   6.862   9.171  2.0887 -0.1374 -2.6732
  689MOL0     H95061   7.375   6.904   9.337  2.1961  2.9972 -3.6909
  689MOL0     H95062   7.976   6.918   9.964  0.0728 -0.1099 -3.2705
  689MOL0     H95063   7.795   7.035  10.104  0.9535 -0.1731  0.2238
  689MOL0     H95064   7.514   7.233  10.183  1.4836 -1.1645  2.9611
  689MOL0     H95065   7.411   7.400  10.307 -2.0014  1.7580 -1.1968
  689MOL0     H95066   7.302   6.797  10.887  0.0758 -2.7013  0.2973
  689MOL0     H95067   7.528   6.688  10.801 -2.8014  0.0290 -1.3067
  689MOL0     H95068   7.943   6.572  10.884 -0.2239  1.1825  1.8887
  689MOL0     H95069   8.140   6.511  10.823  0.2061  0.8089  1.1620
  689MOL0     H95070   8.485   6.590  10.622  0.0303  1.6219 -0.9855
  689MOL0     H95071   8.384   6.512  10.753 -4.1270 -2.6631 -1.0618
  689MOL0     H95072   8.313   6.501  10.464  1.0826 -2.0144 -0.1220
  689MOL0     H95073   8.224   6.426  10.600 -1.1971 -1.1783 -2.0038
  689MOL0     H95074   8.387   6.265  10.624 -2.1882 -1.7248 -0.8919
  689MOL0     H95075   8.371   6.272  10.450  0.3301  0.3577  0.7777
  689MOL0     H95076   8.599   6.377  10.624  0.0946 -2.2515  0.8567
  689MOL0     H95077   8.588   6.393  10.446 -1.5675 -0.2584 -1.3845
  689MOL0     H95078   8.714   5.993  10.483  0.9703 -0.7830  4.3867
  689MOL0     H95079   8.195   6.916  10.633 -0.5646  1.6784  1.2341
  689MOL0     H95080   7.896   7.027  10.653  0.2940  0.9501  1.0542
  689MOL0     H95081   7.967   7.074  10.801 -1.4201  0.4322 -1.3240
  689MOL0     H95082   8.081   7.072  10.671 -0.2165  1.7294  0.3348
  690MOL0     O95083  10.915   2.907   2.615 -0.6474  0.0623 -0.9059
  690MOL0     C95084  10.915   2.841   2.514  0.8041 -0.1330  1.2140
  690MOL0     O95085  10.979   2.722   2.487 -0.1311  0.7227  0.4123
  690MOL0     C95086  11.053   2.671   2.585 -0.4538  0.6270 -0.6819
  690MOL0     C95087  11.032   2.536   2.610 -0.4370 -0.0285  0.5968
  690MOL0     C95088  11.107   2.473   2.717  0.4839 -0.0019 -0.1564
  690MOL0     C95089  11.210   2.536   2.789  0.1156 -0.7866  0.7533
  690MOL0     O95090  11.313   2.463   2.854  0.1754  0.0559  0.6599
  690MOL0     C95091  11.305   2.318   2.868  0.2918 -0.4805  0.6847
  690MOL0     C95092  11.210   2.288   2.985  0.4024 -0.4042 -0.6125
  690MOL0     C95093  11.209   2.140   3.008 -0.2030 -0.2354 -1.2747
  690MOL0     C95094  11.341   2.070   3.067 -0.2797 -0.4520  1.0741
  690MOL0     C95095  11.299   1.939   3.124  1.3808  0.3123  0.2131
  690MOL0     C95096  11.401   1.878   3.212  0.8867 -0.2772 -0.4547
  690MOL0     C95097  11.367   1.733   3.257 -0.2751  1.0094 -0.6729
  690MOL0     C95098  11.480   1.660   3.336 -0.2141  0.5180 -0.2556
  690MOL0     N95099  11.596   1.640   3.257  0.0894 -0.3813  0.9505
  690MOL0     C95100  11.606   1.527   3.181  0.2201  0.1213  0.0687
  690MOL0     C95101  11.706   1.559   3.095  0.1712 -0.6867  0.1801
  690MOL0     C95102  11.745   1.486   2.978 -0.2048  0.2087 -0.2183
  690MOL0     C95103  11.642   1.493   2.873 -0.4825 -0.1702  1.3407
  690MOL0     C95104  11.619   1.626   2.792  0.3550  0.1103 -0.2660
  690MOL0     C95105  11.552   1.604   2.664 -0.3588 -0.4452 -0.6844
  690MOL0     O95106  11.441   1.511   2.686  0.5809 -0.1574 -0.7312
  690MOL0     C95107  11.392   1.441   2.578  1.1282 -0.7067  0.2851
  690MOL0     C95108  11.418   1.480   2.444 -0.2660 -0.2724 -1.0611
  690MOL0     C95109  11.363   1.409   2.338  0.1261 -0.4846  0.4353
  690MOL0     C95110  11.411   1.462   2.204  0.5992  0.0540 -0.5843
  690MOL0     C95111  11.258   1.314   2.357 -0.5620  0.4864 -0.0954
  690MOL0     C95112  11.188   1.251   2.248 -0.2375  0.6303  0.3382
  690MOL0     O95113  11.107   1.145   2.273 -0.4519  0.1244 -0.3493
  690MOL0     C95114  11.046   1.075   2.171  0.1583  0.5026 -1.2427
  690MOL0     C95115  11.073   0.935   2.148 -0.5934  0.7254 -0.0648
  690MOL0     C95116  11.011   0.865   2.045 -0.7104  0.5564 -1.1660
  690MOL0     C95117  10.923   0.930   1.961 -0.6624 -0.0735 -0.8348
  690MOL0     O95118  10.862   0.847   1.879 -0.3817 -0.7374 -0.4315
  690MOL0     C95119  10.793   0.901   1.767 -0.3746  0.8006  0.4016
  690MOL0     C95120  10.731   0.771   1.695 -0.3079 -0.0104  0.0250
  690MOL0     C95121  10.625   0.833   1.603  0.7414  0.9079  1.6408
  690MOL0     C95122  10.554   0.727   1.514 -0.0485  0.5326  0.1549
  690MOL0     C95123  10.444   0.798   1.425 -0.0432 -0.6886  0.3358
  690MOL0     C95124  10.363   0.699   1.337 -0.9085 -0.2220  0.3759
  690MOL0     C95125  10.253   0.620   1.410  0.0975 -0.3302  0.4310
  690MOL0     C95126  10.214   0.498   1.333  0.0263  0.2080  0.1251
  690MOL0    Cl95127  10.125   0.555   1.192 -0.3644  0.0860 -0.4146
  690MOL0     C95128  10.889   1.061   1.988  0.2535  0.2985  0.0768
  690MOL0     C95129  10.939   1.126   2.100 -0.1743  0.2204  0.2246
  690MOL0     O95130  11.186   1.308   2.139  0.4510 -0.3302  0.0110
  690MOL0     C95131  11.231   1.281   2.491 -0.1775 -0.1551  0.5703
  690MOL0     C95132  11.299   1.338   2.593  0.5382 -0.8717 -0.4475
  690MOL0     N95133  11.765   1.673   3.139 -0.8699 -0.0146  0.2181
  690MOL0     N95134  11.705   1.717   3.236 -0.2729  0.7256  0.1442
  690MOL0     C95135  11.240   2.667   2.758  0.0101  0.7062  0.7333
  690MOL0     C95136  11.162   2.733   2.654  0.1532  0.6902  0.1620
  690MOL0     C95137  10.866   2.905   2.379 -0.4382  0.6423 -0.4571
  690MOL0     C95138  10.850   2.829   2.263 -0.0915  0.5487 -0.3194
  690MOL0     C95139  10.784   2.867   2.144  0.3372 -0.0619  0.7144
  690MOL0     C95140  10.736   2.995   2.148 -0.0932 -0.2451 -0.6344
  690MOL0     O95141  10.672   3.046   2.039  0.6539  0.5368  0.2970
  690MOL0     C95142  10.749   3.148   1.975 -0.0147  0.4799  0.3763
  690MOL0     C95143  10.668   3.238   1.877  0.1963  0.3276 -0.3792
  690MOL0     C95144  10.558   3.309   1.958 -0.1315 -0.2852  0.3464
  690MOL0     C95145  10.619   3.457   1.988  0.1449  0.7420  0.1345
  690MOL0     C95146  10.641   3.548   1.873  0.5270 -0.4810  0.0799
  690MOL0     C95147  10.654   3.618   1.777 -0.4777 -0.2130 -0.7306
  690MOL0     C95148  10.756   3.084   2.264 -0.0855 -0.6820  0.0485
  690MOL0     C95149  10.819   3.043   2.381 -0.9095  0.2907 -0.7358
  690MOL0     C95150  10.845   3.146   2.488  0.4245 -0.1766 -0.0916
  690MOL0     H95151  10.959   2.479   2.554 -1.2221  1.5615 -0.0666
  690MOL0     H95152  11.090   2.368   2.736 -3.7472  0.7103  1.0478
  690MOL0     H95153  11.409   2.283   2.873 -0.0990 -2.0175 -0.7534
  690MOL0     H95154  11.257   2.266   2.785 -0.5118 -0.1538  0.9407
  690MOL0     H95155  11.239   2.342   3.075 -1.1973 -2.1386  1.0265
  690MOL0     H95156  11.108   2.303   2.947  0.2750 -1.0544 -0.5481
  690MOL0     H95157  11.123   2.112   3.070 -0.6183 -0.8713 -2.1190
  690MOL0     H95158  11.208   2.093   2.909  0.4844  2.0600 -2.4413
  690MOL0     H95159  11.415   2.058   2.988 -1.6358  0.6020 -0.4012
  690MOL0     H95160  11.395   2.142   3.129  0.4119  0.4668 -0.5400
  690MOL0     H95161  11.256   1.873   3.048 -4.7468  2.8612  0.8782
  690MOL0     H95162  11.207   1.953   3.183  0.0681 -2.3193 -1.0229
  690MOL0     H95163  11.490   1.866   3.149  0.4693 -2.8763 -0.6486
  690MOL0     H95164  11.430   1.940   3.297  2.7310 -1.8480  0.1176
  690MOL0     H95165  11.331   1.675   3.171  1.7335  0.2726 -1.0711
  690MOL0     H95166  11.274   1.750   3.312 -1.0041 -2.7423 -0.5078
  690MOL0     H95167  11.511   1.721   3.422  1.5991  2.3672 -2.0910
  690MOL0     H95168  11.443   1.562   3.368  3.5466 -1.8434 -2.3815
  690MOL0     H95169  11.529   1.452   3.192 -2.9000  2.7329 -1.9073
  690MOL0     H95170  11.767   1.380   2.996  1.7604  0.9431  2.4823
  690MOL0     H95171  11.834   1.539   2.943  0.2805  2.0174  3.2895
  690MOL0     H95172  11.670   1.424   2.793  1.1635  0.5807  1.2327
  690MOL0     H95173  11.547   1.461   2.918 -0.6130 -0.7963  0.6304
  690MOL0     H95174  11.559   1.700   2.847  3.8086  1.0888  2.5547
  690MOL0     H95175  11.712   1.677   2.767  2.5517 -3.8912 -1.0606
  690MOL0     H95176  11.525   1.703   2.628 -0.3238 -0.7774 -1.6619
  690MOL0     H95177  11.629   1.566   2.595  2.8885  0.1495  2.3346
  690MOL0     H95178  11.485   1.561   2.417  0.1713 -0.0395  0.6289
  690MOL0     H95179  11.517   1.488   2.206  0.7334 -0.2682 -2.3515
  690MOL0     H95180  11.346   1.542   2.168  0.3048  1.7128  3.1027
  690MOL0     H95181  11.408   1.386   2.126 -0.6038  2.5929 -3.1747
  690MOL0     H95182  11.132   0.892   2.228  0.4146  2.3074  0.1011
  690MOL0     H95183  11.026   0.758   2.045  1.0202  0.7587 -0.1965
  690MOL0     H95184  10.721   0.969   1.814  1.2437  0.9843  2.8011
  690MOL0     H95185  10.855   0.967   1.707 -1.5376  0.9513 -0.6863
  690MOL0     H95186  10.804   0.707   1.645 -1.0148 -0.9102  0.1177
  690MOL0     H95187  10.690   0.708   1.774  1.2968 -2.4738 -1.0013
  690MOL0     H95188  10.669   0.899   1.528  1.3200 -0.8361  0.4005
  690MOL0     H95189  10.555   0.883   1.671 -0.7135  0.8152  0.2572
  690MOL0     H95190  10.501   0.669   1.590  2.2780  0.9493  2.1918
  690MOL0     H95191  10.617   0.666   1.449 -2.8158 -0.4975 -1.7480
  690MOL0     H95192  10.375   0.854   1.490  0.1839  3.7880 -2.8125
  690MOL0     H95193  10.498   0.870   1.363  0.9081 -0.5855  1.2633
  690MOL0     H95194  10.448   0.638   1.307 -1.7384 -1.6367  0.8295
  690MOL0     H95195  10.329   0.761   1.253  1.0031  0.5802  0.1448
  690MOL0     H95196  10.159   0.675   1.423  0.4024 -0.0572  1.5989
  690MOL0     H95197  10.287   0.598   1.511  0.7042 -0.3720  0.2228
  690MOL0     H95198  10.156   0.419   1.381  0.0483  1.0457  1.6096
  690MOL0     H95199  10.307   0.447   1.305 -0.9694 -1.2306 -0.6647
  690MOL0     H95200  10.811   1.114   1.934  0.3416  0.9718  0.5981
  690MOL0     H95201  10.919   1.229   2.127 -1.4061 -0.6990  3.2312
  690MOL0     H95202  11.154   1.209   2.512 -0.6285 -0.3573 -1.5031
  690MOL0     H95203  11.295   1.292   2.691  0.0225  0.5219  0.2143
  690MOL0     H95204  11.331   2.705   2.803  0.7101  0.0844 -0.1134
  690MOL0     H95205  11.192   2.834   2.626  0.1332  0.1763 -1.8385
  690MOL0     H95206  10.883   2.726   2.271  0.0111  0.7042  1.7147
  690MOL0     H95207  10.773   2.798   2.061  2.8948 -1.1918  1.2183
  690MOL0     H95208  10.784   3.214   2.056 -4.8100  0.2750  2.9815
  690MOL0     H95209  10.829   3.106   1.914  0.1848  2.2909 -0.6944
  690MOL0     H95210  10.619   3.167   1.810  0.7138 -0.5258  0.1269
  690MOL0     H95211  10.735   3.297   1.813  0.3318 -3.6200 -4.3318
  690MOL0     H95212  10.464   3.322   1.904 -1.4956 -2.7510  1.9046
  690MOL0     H95213  10.527   3.261   2.052 -3.9944  0.9802 -0.1000
  690MOL0     H95214  10.714   3.450   2.041 -0.2348  4.1766  1.5092
  690MOL0     H95215  10.548   3.498   2.060 -3.9698 -3.0438 -1.2866
  690MOL0     H95216  10.652   3.691   1.698 -2.7709  0.8212  0.2062
  690MOL0     H95217  10.711   3.183   2.266  0.6460 -0.3511  0.3897
  690MOL0     H95218  10.843   3.243   2.437 -2.5105  1.3811  2.5870
  690MOL0     H95219  10.760   3.138   2.557 -0.7546 -2.7594 -1.6813
  690MOL0     H95220  10.940   3.128   2.539  0.6968 -4.1489 -1.7000
  691MOL0     O95221   8.478  11.143   0.634 -0.0069  1.0646 -0.7940
  691MOL0     C95222   8.377  11.079   0.610 -0.4385 -0.0422  0.8910
  691MOL0     O95223   8.319  10.973   0.683  0.6159 -0.0067 -0.5070
  691MOL0     C95224   8.405  10.901   0.767  0.3656 -1.1618  0.2367
  691MOL0     C95225   8.370  10.905   0.901  0.8525 -0.6736  0.2989
  691MOL0     C95226   8.457  10.839   0.989  0.1530  0.5014 -0.7389
  691MOL0     C95227   8.560  10.749   0.946 -0.2413  0.5205  0.3290
  691MOL0     O95228   8.628  10.659   1.021  0.5419  0.0208 -0.5132
  691MOL0     C95229   8.575  10.637   1.151 -0.4265  0.8381 -0.1796
  691MOL0     C95230   8.629  10.514   1.208  0.0745  0.0677  0.3173
  691MOL0     C95231   8.571  10.388   1.125 -0.2974 -0.3521 -1.0808
  691MOL0     C95232   8.647  10.260   1.168  0.0873 -0.9088  1.0158
  691MOL0     C95233   8.645  10.232   1.321  0.1519 -0.4692 -0.0347
  691MOL0     C95234   8.508  10.240   1.387 -0.1768  0.3661  0.4708
  691MOL0     C95235   8.516  10.182   1.527  0.1956 -0.5514  0.3048
  691MOL0     C95236   8.375  10.162   1.590 -0.7077 -0.2795  0.2282
  691MOL0     N95237   8.337  10.297   1.636  0.3278  0.2821  0.0391
  691MOL0     C95238   8.389  10.351   1.755 -0.4469  0.2211 -0.7933
  691MOL0     C95239   8.279  10.426   1.796 -0.2946 -0.0218  0.2538
  691MOL0     C95240   8.271  10.499   1.929 -1.4432  1.0394 -0.4239
  691MOL0     C95241   8.227  10.645   1.908  0.9406 -0.6103  0.7114
  691MOL0     C95242   8.070  10.662   1.892 -0.4875 -0.3708  0.3827
  691MOL0     C95243   8.020  10.801   1.886  0.3719 -0.0614 -1.0670
  691MOL0     O95244   8.063  10.877   2.010  0.5277  0.4643  0.6816
  691MOL0     C95245   8.032  11.008   2.011  0.9632 -0.4378  0.0118
  691MOL0     C95246   8.064  11.074   2.128  0.2059  0.0401 -0.2353
  691MOL0     C95247   8.051  11.211   2.147 -0.7719 -0.2617  0.0855
  691MOL0     C95248   8.125  11.269   2.272 -0.1699  0.2504  0.2237
  691MOL0     C95249   7.981  11.285   2.052  0.3574 -0.7648  1.1872
  691MOL0     C95250   7.936  11.427   2.073  0.0243  0.5389 -0.1583
  691MOL0     O95251   7.938  11.471   2.201  0.3858 -0.5325 -0.5664
  691MOL0     C95252   7.892  11.600   2.217 -0.1623 -0.0820  0.2109
  691MOL0     C95253   7.973  11.710   2.215  0.0866  1.2387 -0.4273
  691MOL0     C95254   7.926  11.837   2.241 -0.1029 -0.2735  0.2188
  691MOL0     C95255   7.791  11.857   2.264 -0.2891  0.5669 -0.5207
  691MOL0     O95256   7.730  11.981   2.274  0.1054  0.2189 -0.3163
  691MOL0     C95257   7.758  12.045   2.397 -0.5309  0.8252 -0.2287
  691MOL0     C95258   7.670  11.979   2.512  0.1241  0.1213 -0.8157
  691MOL0     C95259   7.515  12.004   2.505  0.8329  0.5741 -0.3056
  691MOL0     C95260   7.424  11.883   2.546  0.2819  0.0377 -0.2637
  691MOL0     C95261   7.412  11.874   2.699  0.5261  0.2170 -0.2713
  691MOL0     C95262   7.277  11.791   2.726 -0.5427 -0.3401 -0.3566
  691MOL0     C95263   7.262  11.777   2.882  0.9120  0.4399  0.4227
  691MOL0     C95264   7.142  11.670   2.908 -0.4176  0.1670 -0.0526
  691MOL0    Cl95265   7.090  11.698   3.079  0.3539  0.6131  0.7275
  691MOL0     C95266   7.698  11.753   2.266  0.0393 -0.5430 -0.6127
  691MOL0     C95267   7.752  11.619   2.232  0.2778 -0.5100 -0.4370
  691MOL0     O95268   7.889  11.490   1.979  0.1575  0.2802  0.5526
  691MOL0     C95269   7.952  11.217   1.928 -0.4918  0.1235 -0.5559
  691MOL0     C95270   7.968  11.083   1.912 -0.5296  0.3040  0.1953
  691MOL0     N95271   8.185  10.430   1.692  0.7996  0.1689 -0.2228
  691MOL0     N95272   8.225  10.357   1.588  0.2927  0.0903  0.0606
  691MOL0     C95273   8.583  10.744   0.809 -0.2895  0.7751 -0.1838
  691MOL0     C95274   8.503  10.821   0.714  0.3035 -0.5615  0.5617
  691MOL0     C95275   8.278  11.150   0.518  0.3069  1.3065 -0.9609
  691MOL0     C95276   8.150  11.091   0.507 -0.6075 -0.6489 -0.7182
  691MOL0     C95277   8.053  11.165   0.438 -1.0298 -0.2545  0.4213
  691MOL0     C95278   8.074  11.287   0.368 -0.8587 -0.3837  0.1577
  691MOL0     O95279   7.983  11.344   0.281 -0.0758  0.0719 -0.4379
  691MOL0     C95280   7.857  11.384   0.336  0.3046 -0.0537 -1.1294
  691MOL0     C95281   7.744  11.434   0.243 -0.1059  0.3535 -0.5103
  691MOL0     C95282   7.777  11.568   0.187 -0.8303  0.2914  0.0313
  691MOL0     C95283   7.694  11.602   0.067 -0.1116  0.5808 -0.7293
  691MOL0     C95284   7.556  11.554   0.076 -0.5779  0.4151 -0.8475
  691MOL0     C95285   7.443  11.492   0.085  0.7399 -0.5771 -0.0608
  691MOL0     C95286   8.204  11.324   0.378 -0.6541 -0.7811 -0.6185
  691MOL0     C95287   8.307  11.269   0.441 -0.4579 -0.6053 -1.0506
  691MOL0     C95288   8.447  11.323   0.425  0.3089  0.4728 -0.6720
  691MOL0     H95289   8.297  10.977   0.937 -0.2242 -1.5086 -0.1721
  691MOL0     H95290   8.442  10.846   1.096  2.7013 -1.2043 -0.1531
  691MOL0     H95291   8.467  10.626   1.145 -0.2572 -4.0896  1.1783
  691MOL0     H95292   8.603  10.722   1.213  1.1471  0.9421 -0.9795
  691MOL0     H95293   8.737  10.522   1.192 -0.1767  0.8111 -1.1021
  691MOL0     H95294   8.599  10.512   1.313 -1.0356  0.6880  0.0214
  691MOL0     H95295   8.464  10.365   1.135 -0.3883 -1.2402 -3.4354
  691MOL0     H95296   8.566  10.396   1.016 -1.0698 -2.1262 -1.2097
  691MOL0     H95297   8.590  10.184   1.112 -3.2427  0.7846  1.8318
  691MOL0     H95298   8.747  10.270   1.126  0.1210 -1.7044  0.8928
  691MOL0     H95299   8.701  10.308   1.376 -0.7588  0.8781 -0.8954
  691MOL0     H95300   8.694  10.136   1.339  1.7446  0.4278  0.6265
  691MOL0     H95301   8.469  10.342   1.392  1.4157  0.9344  2.2187
  691MOL0     H95302   8.448  10.178   1.320 -0.0638  0.3400  0.3934
  691MOL0     H95303   8.581  10.245   1.588 -1.6351  3.1564 -1.2505
  691MOL0     H95304   8.561  10.083   1.514 -1.0145 -0.9938 -0.8513
  691MOL0     H95305   8.309  10.117   1.516  2.1523  0.2717 -2.8698
  691MOL0     H95306   8.369  10.085   1.667  1.2911 -2.5586 -1.7462
  691MOL0     H95307   8.485  10.343   1.804 -0.9465  0.7813  0.2948
  691MOL0     H95308   8.370  10.504   1.975 -0.8925 -2.0520 -1.0499
  691MOL0     H95309   8.207  10.446   2.000  1.2047  0.5560  1.7465
  691MOL0     H95310   8.272  10.704   1.988  0.4341 -1.5705  1.7378
  691MOL0     H95311   8.278  10.680   1.818  1.4414  0.2282  1.3143
  691MOL0     H95312   8.040  10.606   1.803  1.0932 -1.7843  0.6930
  691MOL0     H95313   8.022  10.615   1.978 -2.4383  2.5604  1.0495
  691MOL0     H95314   8.059  10.840   1.791  2.6303  0.0855 -0.1240
  691MOL0     H95315   7.910  10.801   1.883  0.1228  4.5522  0.9905
  691MOL0     H95316   8.094  11.014   2.213 -2.6673 -0.9855  0.1718
  691MOL0     H95317   8.174  11.186   2.324  0.5409 -0.0885 -0.9593
  691MOL0     H95318   8.060  11.318   2.345 -1.3480 -4.8591  3.1084
  691MOL0     H95319   8.210  11.326   2.234  0.5168 -1.2890 -0.6159
  691MOL0     H95320   8.079  11.696   2.197  0.4683  3.3684 -0.1006
  691MOL0     H95321   7.999  11.916   2.256 -1.3834  0.6829  1.7751
  691MOL0     H95322   7.859  12.026   2.436 -1.1878 -3.6441 -0.1898
  691MOL0     H95323   7.745  12.153   2.403  1.3664  1.0320  0.9951
  691MOL0     H95324   7.694  11.873   2.527 -1.1724 -0.0347  0.2608
  691MOL0     H95325   7.707  12.035   2.599  0.6320  0.7382 -1.4166
  691MOL0     H95326   7.487  12.029   2.402 -3.0993  1.2504  0.7497
  691MOL0     H95327   7.480  12.094   2.556 -0.2829  2.6728 -4.3537
  691MOL0     H95328   7.461  11.793   2.497  0.3277  0.4192 -0.9440
  691MOL0     H95329   7.323  11.907   2.510  0.3697 -3.7934 -3.8477
  691MOL0     H95330   7.499  11.824   2.741  0.3432 -1.2116 -1.4839
  691MOL0     H95331   7.399  11.964   2.760 -0.0039 -1.7576  2.7318
  691MOL0     H95332   7.288  11.692   2.680  0.1088 -0.7258  0.5889
  691MOL0     H95333   7.185  11.844   2.697 -0.1377 -0.2651 -1.5810
  691MOL0     H95334   7.235  11.877   2.918  2.6164  1.4845 -1.0462
  691MOL0     H95335   7.350  11.739   2.934 -0.7200 -2.1601  1.4844
  691MOL0     H95336   7.178  11.567   2.895 -1.1434 -0.7913  3.9686
  691MOL0     H95337   7.057  11.691   2.843 -1.6665 -0.4887  1.3118
  691MOL0     H95338   7.597  11.772   2.300  0.8257  3.4333 -0.0768
  691MOL0     H95339   7.668  11.550   2.230 -0.5216  0.4616 -1.2475
  691MOL0     H95340   7.906  11.275   1.848  0.9745  2.6267  0.2878
  691MOL0     H95341   7.934  11.049   1.814 -0.8289  1.4466 -0.1113
  691MOL0     H95342   8.668  10.690   0.767  0.1882  0.4768  1.1360
  691MOL0     H95343   8.526  10.814   0.608 -0.5542  2.4730  0.0750
  691MOL0     H95344   8.120  10.998   0.555  0.4053  0.4919  2.2914
  691MOL0     H95345   7.955  11.119   0.439 -1.6243  0.9232  2.4726
  691MOL0     H95346   7.810  11.293   0.373 -2.2577  2.1525  1.5535
  691MOL0     H95347   7.864  11.455   0.420 -0.0349 -1.8587  0.4914
  691MOL0     H95348   7.651  11.437   0.300  0.4328 -2.7655  0.6820
  691MOL0     H95349   7.731  11.351   0.173 -0.9857 -0.4607  0.5780
  691MOL0     H95350   7.770  11.647   0.262 -1.2865 -1.6011  2.0689
  691MOL0     H95351   7.883  11.565   0.162  0.5950 -0.5625  5.0804
  691MOL0     H95352   7.746  11.563  -0.021  2.0253 -1.5235  1.2911
  691MOL0     H95353   7.703  11.711   0.066  2.1065  0.5881  2.6002
  691MOL0     H95354   7.344  11.452   0.094  1.5300 -2.0830  4.7401
  691MOL0     H95355   8.222  11.406   0.309  0.4752  0.3227  0.9283
  691MOL0     H95356   8.510  11.238   0.398 -0.0334 -0.6248  1.7154
  691MOL0     H95357   8.452  11.393   0.341 -0.5850  0.4430 -0.7640
  691MOL0     H95358   8.478  11.383   0.511  1.7992 -1.4315  0.1916
  692MOL0     O95359   4.830   8.010   2.594  0.0922 -0.1651 -0.1079
  692MOL0     C95360   4.755   7.920   2.563 -0.0334  1.0072 -0.6705
  692MOL0     O95361   4.623   7.937   2.546  0.1891 -0.7631  0.0323
  692MOL0     C95362   4.571   8.071   2.535  0.0108  0.0447  0.2634
  692MOL0     C95363   4.486   8.106   2.435 -0.4271 -0.2535  0.7514
  692MOL0     C95364   4.429   8.236   2.429 -0.7161  1.0769  0.3046
  692MOL0     C95365   4.443   8.324   2.532  0.3143 -0.3402 -0.9504
  692MOL0     O95366   4.384   8.449   2.525 -0.1210 -0.1857  0.8220
  692MOL0     C95367   4.468   8.558   2.566 -0.1036 -0.5822 -0.3268
  692MOL0     C95368   4.479   8.662   2.453  0.3469  0.6111  0.4582
  692MOL0     C95369   4.541   8.599   2.326  0.1432  0.4582  0.7419
  692MOL0     C95370   4.528   8.676   2.193  0.1372  0.4572  0.3786
  692MOL0     C95371   4.612   8.602   2.091 -0.1920 -0.4639  0.1062
  692MOL0     C95372   4.591   8.645   1.940  0.5684  0.9561 -0.7911
  692MOL0     C95373   4.588   8.540   1.830  0.7509  1.0226  0.5816
  692MOL0     C95374   4.646   8.591   1.703  0.3687  0.6807 -0.9524
  692MOL0     N95375   4.795   8.615   1.705 -0.1594  0.1475  0.9497
  692MOL0     C95376   4.906   8.534   1.740  0.1364 -0.0392  0.2465
  692MOL0     C95377   5.016   8.599   1.694  0.7608  0.0942 -0.7668
  692MOL0     C95378   5.165   8.567   1.716 -0.5838 -0.3172  0.0236
  692MOL0     C95379   5.237   8.647   1.827 -0.3162  0.3659 -0.5625
  692MOL0     C95380   5.192   8.613   1.968  0.7926 -0.2261 -0.3033
  692MOL0     C95381   5.198   8.465   2.017 -0.4427  0.2642 -0.1606
  692MOL0     O95382   5.114   8.370   1.942  0.5162 -0.3836 -0.5421
  692MOL0     C95383   5.040   8.276   2.009 -0.4146  0.2513 -1.7690
  692MOL0     C95384   4.944   8.309   2.116  0.1792  0.2487  0.6648
  692MOL0     C95385   4.858   8.213   2.172 -0.4589  0.1508  1.7021
  692MOL0     C95386   4.757   8.268   2.263 -0.8177 -0.0849  0.6880
  692MOL0     C95387   4.866   8.076   2.122 -0.3901  0.1020 -0.2993
  692MOL0     C95388   4.782   7.974   2.171  0.4354 -0.1886  0.6739
  692MOL0     O95389   4.844   7.854   2.173 -0.1832  0.5063  0.3995
  692MOL0     C95390   4.789   7.739   2.126  0.9858  0.2926  0.8266
  692MOL0     C95391   4.849   7.623   2.170 -0.5310  0.2891 -1.3007
  692MOL0     C95392   4.816   7.496   2.125 -1.5349 -0.2804  0.0379
  692MOL0     C95393   4.702   7.490   2.042  0.0844 -1.2349  0.6783
  692MOL0     O95394   4.652   7.374   2.004 -0.4946 -0.7627  0.5233
  692MOL0     C95395   4.595   7.283   2.102  0.4777  0.6887  0.0454
  692MOL0     C95396   4.467   7.329   2.162  0.6075 -0.2538 -0.0955
  692MOL0     C95397   4.364   7.370   2.051  0.2133  0.3369 -0.0417
  692MOL0     C95398   4.245   7.469   2.092  0.5601  1.0392  0.7212
  692MOL0     C95399   4.107   7.420   2.023  0.2573 -0.1355  0.3320
  692MOL0     C95400   3.998   7.521   2.066 -0.2754  1.2555  0.0401
  692MOL0     C95401   3.976   7.524   2.217  0.0949 -0.3677 -0.1486
  692MOL0     C95402   3.879   7.622   2.245  0.0012  0.6298  0.1503
  692MOL0    Cl95403   3.730   7.590   2.164 -0.1077 -0.4230 -0.1214
  692MOL0     C95404   4.641   7.613   1.997 -0.3356 -0.0695  0.0185
  692MOL0     C95405   4.686   7.730   2.035  0.0752 -0.8119  0.0986
  692MOL0     O95406   4.669   8.001   2.207  0.0274  0.2727 -0.1438
  692MOL0     C95407   4.960   8.046   2.025 -0.2843 -0.3268 -1.0148
  692MOL0     C95408   5.040   8.143   1.959 -1.0822 -0.9350  0.0831
  692MOL0     N95409   4.965   8.720   1.658 -0.4079 -0.3372 -0.5159
  692MOL0     N95410   4.841   8.733   1.658  0.0932  0.6160 -0.0310
  692MOL0     C95411   4.532   8.290   2.631  0.8714  0.6923 -0.1965
  692MOL0     C95412   4.597   8.165   2.638 -0.1764  0.6065  0.7288
  692MOL0     C95413   4.796   7.779   2.547 -0.0645  0.1222 -1.4639
  692MOL0     C95414   4.718   7.688   2.474  0.2444 -1.0362 -0.2848
  692MOL0     C95415   4.756   7.555   2.447 -0.4020 -0.1671  0.0347
  692MOL0     C95416   4.868   7.506   2.498 -0.9335 -0.7670 -0.5855
  692MOL0     O95417   4.889   7.376   2.469 -0.8511 -0.3540  0.6931
  692MOL0     C95418   5.017   7.314   2.495  0.0111  0.6347  0.4270
  692MOL0     C95419   5.023   7.179   2.435  0.1386 -0.1123  0.7454
  692MOL0     C95420   5.038   7.186   2.280  0.4828 -0.3284  0.5967
  692MOL0     C95421   5.169   7.239   2.240 -0.8836 -0.2123 -0.9191
  692MOL0     C95422   5.220   7.170   2.111  0.4007 -0.0454 -0.5754
  692MOL0     C95423   5.267   7.121   2.012  0.5656  0.4422 -0.3868
  692MOL0     C95424   4.953   7.591   2.577  0.0894  1.3535 -0.5311
  692MOL0     C95425   4.909   7.720   2.607 -0.9018 -0.0963  0.4161
  692MOL0     C95426   5.010   7.804   2.693  0.0968  0.0835  0.3796
  692MOL0     H95427   4.464   8.032   2.358  0.8356  0.4011 -0.2571
  692MOL0     H95428   4.370   8.255   2.340  0.3760 -1.1662 -0.9743
  692MOL0     H95429   4.570   8.531   2.594  0.1127  1.4994  1.1628
  692MOL0     H95430   4.423   8.584   2.663  1.9196 -0.4260  0.6130
  692MOL0     H95431   4.376   8.695   2.432  0.4133  0.0977 -0.7690
  692MOL0     H95432   4.536   8.752   2.477  1.7755 -0.0949 -0.1848
  692MOL0     H95433   4.648   8.584   2.344 -0.0052 -0.9395  0.6038
  692MOL0     H95434   4.486   8.506   2.307 -2.4383  2.0377 -0.0417
  692MOL0     H95435   4.422   8.684   2.165 -0.6968 -1.5879  2.6833
  692MOL0     H95436   4.563   8.779   2.203  0.9105  0.1156  1.3229
  692MOL0     H95437   4.589   8.495   2.086  1.6971 -0.9153  0.5883
  692MOL0     H95438   4.717   8.613   2.120  1.1156  0.6960 -4.3113
  692MOL0     H95439   4.499   8.704   1.937 -1.4587 -1.8317  0.9865
  692MOL0     H95440   4.678   8.707   1.915  1.3022  1.6631  3.0264
  692MOL0     H95441   4.486   8.503   1.818  1.3906 -0.7990  0.4333
  692MOL0     H95442   4.644   8.450   1.855  1.3486  2.0027  3.0721
  692MOL0     H95443   4.627   8.512   1.630 -3.4536  0.0498  0.4962
  692MOL0     H95444   4.598   8.683   1.666 -2.3506  0.3403  1.3519
  692MOL0     H95445   4.898   8.434   1.783  1.4567  0.0638  0.7626
  692MOL0     H95446   5.209   8.598   1.621 -0.2345 -2.4634 -0.5678
  692MOL0     H95447   5.187   8.460   1.724  1.2346 -0.2973 -3.1348
  692MOL0     H95448   5.344   8.623   1.821 -0.1929  0.2885  1.3580
  692MOL0     H95449   5.233   8.754   1.803 -2.0736  0.4897  0.1926
  692MOL0     H95450   5.255   8.681   2.026 -0.7998  1.7737 -0.7833
  692MOL0     H95451   5.089   8.643   1.991  1.4886  2.0250  0.0798
  692MOL0     H95452   5.300   8.426   2.014 -1.2802 -1.9798 -2.3463
  692MOL0     H95453   5.166   8.463   2.122  0.2981 -0.2217  0.0658
  692MOL0     H95454   4.930   8.408   2.158  0.9372  0.0770  1.3475
  692MOL0     H95455   4.775   8.215   2.357  1.6061  0.3506  0.5505
  692MOL0     H95456   4.659   8.272   2.216  0.2322  0.4671 -1.5912
  692MOL0     H95457   4.775   8.374   2.283  1.3260 -0.7508  2.6905
  692MOL0     H95458   4.928   7.618   2.244 -2.0792  0.6187  0.4415
  692MOL0     H95459   4.870   7.411   2.166  0.3876  1.8462  2.2450
  692MOL0     H95460   4.569   7.188   2.054  2.1573  0.5224 -0.5909
  692MOL0     H95461   4.667   7.263   2.181  1.0748  3.2912  0.2259
  692MOL0     H95462   4.442   7.240   2.221  1.6914 -0.2638  0.3646
  692MOL0     H95463   4.484   7.409   2.233  1.0641  2.7064 -3.2807
  692MOL0     H95464   4.325   7.284   1.997  0.2419 -0.0003  0.4581
  692MOL0     H95465   4.421   7.421   1.973 -0.5019 -0.2076 -0.9410
  692MOL0     H95466   4.261   7.574   2.066  1.2576  0.8542  0.3833
  692MOL0     H95467   4.247   7.478   2.201 -0.1065  0.9309  0.7488
  692MOL0     H95468   4.112   7.417   1.914 -3.4309 -2.0766  0.0823
  692MOL0     H95469   4.082   7.320   2.059 -1.5333  0.5576  1.1250
  692MOL0     H95470   3.907   7.484   2.017  1.2514  0.1876 -2.2198
  692MOL0     H95471   4.010   7.622   2.025 -2.0391  0.7785 -1.8502
  692MOL0     H95472   4.063   7.580   2.254  0.0460  1.2083 -2.2029
  692MOL0     H95473   3.965   7.423   2.257 -1.0390 -1.6140 -3.3058
  692MOL0     H95474   3.906   7.723   2.213  0.1713  0.4052 -0.4343
  692MOL0     H95475   3.843   7.627   2.348 -2.7388 -0.7280 -0.6549
  692MOL0     H95476   4.558   7.601   1.928 -1.4243 -0.8219  1.4055
  692MOL0     H95477   4.638   7.812   1.982 -0.2177 -0.1180  1.3831
  692MOL0     H95478   4.975   7.951   1.976  0.4051 -0.1545 -1.1575
  692MOL0     H95479   5.090   8.104   1.871 -1.1764  0.6042 -0.7033
  692MOL0     H95480   4.556   8.349   2.719  0.7059 -0.9564  0.9932
  692MOL0     H95481   4.653   8.126   2.722  0.3068 -3.2306 -1.1373
  692MOL0     H95482   4.630   7.719   2.419 -1.0868 -2.0889  1.1790
  692MOL0     H95483   4.691   7.491   2.389  0.1393 -1.6937  1.0759
  692MOL0     H95484   5.092   7.378   2.447 -0.4544 -0.0851 -1.3587
  692MOL0     H95485   5.049   7.306   2.599 -1.4962 -2.2800  0.7646
  692MOL0     H95486   4.927   7.129   2.455 -0.4071  0.3123 -0.6894
  692MOL0     H95487   5.110   7.127   2.475  0.2367  0.6214  1.5208
  692MOL0     H95488   5.017   7.089   2.234 -2.0292  1.3737 -2.1873
  692MOL0     H95489   4.957   7.238   2.228  0.2849 -2.0441 -0.9314
  692MOL0     H95490   5.241   7.206   2.316 -1.2247 -1.1547 -0.9969
  692MOL0     H95491   5.172   7.348   2.230 -0.0766 -0.3107 -1.9363
  692MOL0     H95492   5.320   7.065   1.938  0.4548 -0.5545  0.2630
  692MOL0     H95493   5.039   7.557   2.634 -1.3477  0.8535  1.4383
  692MOL0     H95494   4.967   7.872   2.766 -0.9247 -0.6264  0.4704
  692MOL0     H95495   5.065   7.730   2.751 -1.7886  0.4873  2.8404
  692MOL0     H95496   5.079   7.857   2.627  1.6716  0.6332  2.3829
  693MOL0     O95497   9.891   4.597   0.520 -0.1242 -0.4430 -0.3461
  693MOL0     C95498   9.953   4.501   0.559 -0.8984  0.1195  0.6032
  693MOL0     O95499   9.941   4.442   0.683 -0.0455  0.4035  0.7044
  693MOL0     C95500   9.819   4.454   0.742 -0.2684 -0.7328  0.2957
  693MOL0     C95501   9.696   4.399   0.701  0.3625 -0.5440 -0.2110
  693MOL0     C95502   9.570   4.441   0.753 -1.3816  0.6265  0.0593
  693MOL0     C95503   9.567   4.549   0.843  0.2275  0.1316 -0.1025
  693MOL0     O95504   9.442   4.603   0.878  0.1404 -0.3866  0.1176
  693MOL0     C95505   9.448   4.712   0.973  0.6850 -0.8809 -0.2315
  693MOL0     C95506   9.302   4.721   1.028 -0.8264  0.1888 -0.9456
  693MOL0     C95507   9.320   4.815   1.150  0.0585  0.5602  0.4274
  693MOL0     C95508   9.198   4.821   1.228 -1.5280 -0.2623 -1.4391
  693MOL0     C95509   9.071   4.846   1.146  0.1491 -0.1084  0.6025
  693MOL0     C95510   9.062   4.976   1.071 -0.5409  0.2716  0.4876
  693MOL0     C95511   9.084   5.092   1.172 -0.1498  0.5890 -0.0264
  693MOL0     C95512   9.014   5.223   1.133 -0.0864  0.1285  1.0741
  693MOL0     N95513   9.061   5.337   1.214 -0.0840  0.1921  0.5464
  693MOL0     C95514   9.182   5.408   1.234 -1.0371 -0.3971  0.2289
  693MOL0     C95515   9.159   5.488   1.339  0.3022 -0.1922 -0.9376
  693MOL0     C95516   9.258   5.587   1.404 -0.2185  1.3286  0.0832
  693MOL0     C95517   9.188   5.674   1.506  0.2085 -0.2527 -0.0424
  693MOL0     C95518   9.296   5.728   1.612 -0.2745 -0.4611  0.5783
  693MOL0     C95519   9.255   5.855   1.685  0.3050 -0.2863 -0.3674
  693MOL0     O95520   9.216   5.825   1.824  1.0016 -0.0297 -0.8124
  693MOL0     C95521   9.091   5.773   1.848  1.0462 -0.5979  0.3872
  693MOL0     C95522   9.070   5.707   1.966  0.0532 -0.4954 -0.1561
  693MOL0     C95523   8.946   5.651   2.007 -1.1518 -0.1901 -0.3263
  693MOL0     C95524   8.944   5.578   2.135  0.4080  0.3914 -0.0896
  693MOL0     C95525   8.843   5.649   1.914 -0.3061  1.1649 -0.8001
  693MOL0     C95526   8.700   5.594   1.954 -0.2298  0.4222 -0.1215
  693MOL0     O95527   8.590   5.665   1.912  0.2171 -0.2183  0.5386
  693MOL0     C95528   8.490   5.670   2.004 -0.6574 -0.1480  0.0896
  693MOL0     C95529   8.379   5.585   1.970  0.7657 -0.6809 -0.3690
  693MOL0     C95530   8.267   5.581   2.045  0.6443  0.0514  0.2163
  693MOL0     C95531   8.261   5.646   2.164  0.4477  0.0434 -1.0241
  693MOL0     O95532   8.142   5.635   2.248 -0.0027  0.3492 -0.2830
  693MOL0     C95533   8.058   5.515   2.234  0.3523 -0.9655  0.3789
  693MOL0     C95534   7.956   5.538   2.341  0.0959  0.4193  0.3962
  693MOL0     C95535   7.894   5.673   2.362 -0.2072  0.9205  0.1133
  693MOL0     C95536   7.841   5.729   2.234  0.1515  0.6697  0.0078
  693MOL0     C95537   7.779   5.868   2.252  0.2029  1.0362  0.7674
  693MOL0     C95538   7.870   5.977   2.307  0.2317 -0.3172  0.2210
  693MOL0     C95539   8.005   6.002   2.225 -0.3280 -0.1893 -0.6832
  693MOL0     C95540   8.076   6.108   2.295  0.1884 -0.3939  0.0223
  693MOL0    Cl95541   8.206   6.170   2.193  0.5320 -0.1622 -0.4184
  693MOL0     C95542   8.370   5.717   2.210 -0.5408  0.9381  0.4896
  693MOL0     C95543   8.487   5.745   2.131 -0.0933 -0.2282  0.6814
  693MOL0     O95544   8.692   5.494   2.023  0.6200  0.7765 -0.4365
  693MOL0     C95545   8.855   5.711   1.801 -0.4202 -0.3874  1.0758
  693MOL0     C95546   8.977   5.770   1.754  0.0887 -1.2162  0.4729
  693MOL0     N95547   9.030   5.460   1.386  0.5233 -0.2601  0.2785
  693MOL0     N95548   8.971   5.385   1.301 -0.2864  0.9489  0.0856
  693MOL0     C95549   9.697   4.592   0.900 -0.2148  0.0874  0.0924
  693MOL0     C95550   9.816   4.541   0.849  0.3482  1.1786  0.0658
  693MOL0     C95551  10.077   4.457   0.472  1.4071 -0.2716 -0.2570
  693MOL0     C95552  10.185   4.413   0.534 -0.3041  0.6063  0.3181
  693MOL0     C95553  10.309   4.397   0.465  0.5582  0.3913  0.4830
  693MOL0     C95554  10.316   4.409   0.328  0.3203  0.4614  0.2124
  693MOL0     O95555  10.436   4.394   0.261 -0.1343  1.0076  0.0525
  693MOL0     C95556  10.480   4.256   0.256  0.1647  0.1673 -0.1199
  693MOL0     C95557  10.626   4.260   0.277  0.6703  0.0388  0.1571
  693MOL0     C95558  10.695   4.330   0.165  0.1586 -0.1261  1.0795
  693MOL0     C95559  10.844   4.291   0.156 -0.6375  0.1497 -0.3283
  693MOL0     C95560  10.913   4.360   0.047  1.1300 -0.0261  0.0753
  693MOL0     C95561  10.976   4.404  -0.046  0.7561  0.4497 -0.7975
  693MOL0     C95562  10.201   4.440   0.258  0.3125 -0.5432 -0.4051
  693MOL0     C95563  10.079   4.467   0.330 -0.0029 -0.2700  0.3503
  693MOL0     C95564   9.963   4.501   0.239  0.7921  0.4846  0.1442
  693MOL0     H95565   9.700   4.327   0.620  1.8001 -1.0198  0.2451
  693MOL0     H95566   9.481   4.398   0.708 -1.1894 -0.7109  0.8876
  693MOL0     H95567   9.489   4.806   0.935  0.1584 -0.1887  0.8784
  693MOL0     H95568   9.507   4.673   1.057 -2.4031 -3.5864  0.8661
  693MOL0     H95569   9.218   4.747   0.963 -3.4823 -0.8558  1.8166
  693MOL0     H95570   9.258   4.627   1.064 -0.7112  1.4266  2.8042
  693MOL0     H95571   9.394   4.780   1.222  2.5017  0.9753 -1.7375
  693MOL0     H95572   9.351   4.918   1.132 -0.5473  1.2702  2.9908
  693MOL0     H95573   9.206   4.735   1.296  2.8769 -0.3252 -1.7530
  693MOL0     H95574   9.205   4.904   1.299  0.6343 -0.9539 -0.7658
  693MOL0     H95575   8.979   4.834   1.204 -1.0627 -2.0273 -1.5544
  693MOL0     H95576   9.060   4.764   1.074  2.7441  1.4610 -1.7716
  693MOL0     H95577   9.141   4.974   0.996 -1.3575 -1.1429 -0.3902
  693MOL0     H95578   8.970   4.990   1.012  0.8225 -1.8443 -2.4270
  693MOL0     H95579   9.189   5.122   1.165  0.0306 -0.4224 -4.7359
  693MOL0     H95580   9.053   5.057   1.271 -0.0195 -1.9604 -0.8317
  693MOL0     H95581   9.015   5.229   1.024 -0.8210 -2.8759  0.8031
  693MOL0     H95582   8.910   5.211   1.164 -0.1915 -0.1101  0.6461
  693MOL0     H95583   9.275   5.390   1.181 -1.4666  0.0397 -0.7056
  693MOL0     H95584   9.297   5.662   1.335 -1.0370  1.7332  0.0526
  693MOL0     H95585   9.341   5.529   1.448 -2.5556 -3.6555 -1.3569
  693MOL0     H95586   9.139   5.760   1.458  1.1437  0.1934 -0.2268
  693MOL0     H95587   9.110   5.621   1.560  0.3801  1.2702  1.7877
  693MOL0     H95588   9.310   5.643   1.678  2.0654  2.1022  3.6781
  693MOL0     H95589   9.395   5.737   1.567  0.6333 -0.0397  2.5819
  693MOL0     H95590   9.329   5.935   1.692 -0.8261  1.1723 -3.2632
  693MOL0     H95591   9.173   5.903   1.630 -0.8159 -2.3398 -0.6120
  693MOL0     H95592   9.155   5.702   2.034 -2.0508 -3.1879  2.5845
  693MOL0     H95593   8.852   5.605   2.187 -0.9859 -3.8199  0.0563
  693MOL0     H95594   9.033   5.599   2.196  0.6261  0.3085 -0.3769
  693MOL0     H95595   8.933   5.472   2.109 -0.1602  0.6853 -1.0655
  693MOL0     H95596   8.404   5.534   1.878  5.2453 -0.7628  0.6574
  693MOL0     H95597   8.198   5.501   2.019 -0.1750  0.4450  1.1108
  693MOL0     H95598   8.004   5.513   2.139  1.1655  0.8470 -0.1722
  693MOL0     H95599   8.122   5.427   2.243 -0.0784 -1.1728  1.7595
  693MOL0     H95600   7.871   5.470   2.338  1.6850 -1.6909  1.1193
  693MOL0     H95601   8.010   5.526   2.435  0.9533 -0.1268 -0.1473
  693MOL0     H95602   7.974   5.737   2.401  0.3660 -0.9185  2.1394
  693MOL0     H95603   7.816   5.669   2.438 -0.5663 -1.6119 -0.3167
  693MOL0     H95604   7.764   5.662   2.194  1.8258 -2.0747  1.0381
  693MOL0     H95605   7.918   5.729   2.156  0.6382  1.8134  0.4782
  693MOL0     H95606   7.731   5.894   2.157  1.1237  1.9520  0.5311
  693MOL0     H95607   7.696   5.863   2.323  0.0286  0.2658  0.5183
  693MOL0     H95608   7.900   5.943   2.406 -1.7385  1.5661  1.5681
  693MOL0     H95609   7.803   6.064   2.307  1.3595  0.5744  1.1968
  693MOL0     H95610   7.990   6.034   2.121  0.6418 -0.5471 -0.9453
  693MOL0     H95611   8.057   5.906   2.222 -1.0796 -0.5831 -1.1115
  693MOL0     H95612   8.113   6.065   2.389  0.3858  0.1399  0.1901
  693MOL0     H95613   8.007   6.191   2.308  1.9948  1.2207 -0.2023
  693MOL0     H95614   8.359   5.754   2.312  1.2125  5.7804 -0.7860
  693MOL0     H95615   8.567   5.801   2.178  0.0041 -0.7082  1.1057
  693MOL0     H95616   8.780   5.722   1.724  1.6432  1.2018 -0.8587
  693MOL0     H95617   8.976   5.827   1.662 -2.3819 -0.8309  0.6613
  693MOL0     H95618   9.682   4.678   0.964 -0.7412  0.4454 -0.5027
  693MOL0     H95619   9.908   4.587   0.883  0.5589  0.4752  0.4676
  693MOL0     H95620  10.194   4.400   0.642  0.6344  0.6697  0.2603
  693MOL0     H95621  10.398   4.376   0.524  0.8614 -1.5157 -0.5576
  693MOL0     H95622  10.451   4.192   0.340  3.3416 -0.3856  0.6873
  693MOL0     H95623  10.456   4.214   0.158  0.4276  1.4314 -0.7477
  693MOL0     H95624  10.658   4.156   0.289 -0.3517 -0.2518  0.4310
  693MOL0     H95625  10.644   4.311   0.372  0.8288 -1.2741  0.8569
  693MOL0     H95626  10.640   4.317   0.071  0.1949  1.2159  0.8494
  693MOL0     H95627  10.702   4.437   0.185  1.7972 -0.4853  2.6707
  693MOL0     H95628  10.850   4.182   0.147  1.3633 -0.5762  5.6372
  693MOL0     H95629  10.893   4.323   0.248 -0.4759 -0.1603 -0.3044
  693MOL0     H95630  11.026   4.427  -0.138  0.3260 -2.6242 -1.9186
  693MOL0     H95631  10.234   4.457   0.156  2.0134  1.9815  0.4724
  693MOL0     H95632   9.886   4.573   0.270 -2.2095 -1.8091 -1.4306
  693MOL0     H95633   9.992   4.539   0.140  0.2988 -4.8635 -2.3743
  693MOL0     H95634   9.918   4.404   0.215 -0.7780  1.5580 -1.5773
  694MOL0     O95635  11.251   7.016   8.648 -0.3001 -0.2298  1.4609
  694MOL0     C95636  11.352   7.087   8.625  0.4142  0.3235  0.0784
  694MOL0     O95637  11.448   7.058   8.534  0.7956  0.0480 -0.3684
  694MOL0     C95638  11.474   6.940   8.471  0.4273 -0.6865  0.1217
  694MOL0     C95639  11.576   6.953   8.378  0.0354  0.2375  0.3065
  694MOL0     C95640  11.639   6.838   8.319 -0.5952  0.3257 -0.2034
  694MOL0     C95641  11.608   6.712   8.361 -0.4543 -0.5232 -0.5658
  694MOL0     O95642  11.674   6.604   8.308 -0.1297  0.2940 -0.6583
  694MOL0     C95643  11.662   6.479   8.380 -0.1325  0.2170 -0.1893
  694MOL0     C95644  11.735   6.388   8.272  1.0203  0.9706  0.6933
  694MOL0     C95645  11.736   6.243   8.326  0.4786 -1.0514 -0.5660
  694MOL0     C95646  11.602   6.176   8.325 -0.5296 -0.3862 -0.0868
  694MOL0     C95647  11.625   6.024   8.360  0.3140  0.4338 -0.8501
  694MOL0     C95648  11.666   5.929   8.238 -0.1936  0.3147 -0.3868
  694MOL0     C95649  11.611   5.949   8.097 -0.3539 -0.7796  0.7758
  694MOL0     C95650  11.469   5.893   8.065  0.0233  0.4851 -0.3112
  694MOL0     N95651  11.447   5.756   8.105 -0.2482  0.3607  0.0107
  694MOL0     C95652  11.488   5.647   8.026  0.1811 -0.5211 -0.7210
  694MOL0     C95653  11.470   5.533   8.105  0.2950 -0.3880 -0.0962
  694MOL0     C95654  11.495   5.391   8.062 -0.6872 -0.7442 -0.1265
  694MOL0     C95655  11.370   5.311   8.045 -0.0226 -0.0802 -1.0070
  694MOL0     C95656  11.267   5.374   7.939 -0.0440 -0.5278 -0.7994
  694MOL0     C95657  11.153   5.274   7.909  0.1792 -0.6521 -0.3790
  694MOL0     O95658  11.203   5.147   7.853 -0.0053 -0.2109 -0.5292
  694MOL0     C95659  11.246   5.140   7.721 -0.1382 -0.0851  0.5652
  694MOL0     C95660  11.239   5.243   7.629  0.2899  0.2289  0.4351
  694MOL0     C95661  11.289   5.223   7.496 -0.4887 -0.3922  0.1172
  694MOL0     C95662  11.272   5.340   7.403  0.1716  0.5146  1.0941
  694MOL0     C95663  11.346   5.104   7.457  0.4506  0.1824  0.1153
  694MOL0     C95664  11.394   5.065   7.322 -0.8583 -0.3904  0.4020
  694MOL0     O95665  11.507   4.987   7.335  0.0431  0.3129 -0.5774
  694MOL0     C95666  11.557   4.959   7.209  0.2702  0.2527  0.8231
  694MOL0     C95667  11.633   5.043   7.124 -0.0926  0.2482 -0.0950
  694MOL0     C95668  11.661   4.999   7.000 -0.3592 -0.2232  0.6559
  694MOL0     C95669  11.631   4.873   6.956  0.3515  0.6169 -0.5821
  694MOL0     O95670  11.679   4.830   6.831  0.7895  0.0166  0.1775
  694MOL0     C95671  11.647   4.713   6.773 -0.4145 -0.0468  0.4336
  694MOL0     C95672  11.500   4.708   6.727 -0.1068 -0.4375 -0.2195
  694MOL0     C95673  11.467   4.568   6.681  0.1423 -0.1734 -1.1181
  694MOL0     C95674  11.471   4.465   6.789 -0.4180  0.2019 -0.0052
  694MOL0     C95675  11.444   4.320   6.742 -0.4636  0.4823 -0.3679
  694MOL0     C95676  11.310   4.304   6.659 -0.3348  0.5824 -0.3854
  694MOL0     C95677  11.316   4.149   6.626 -0.3408 -0.3392 -0.4667
  694MOL0     C95678  11.182   4.103   6.591  0.1866  1.1457  0.8327
  694MOL0    Cl95679  11.194   3.949   6.519  0.0766  0.2780 -0.8889
  694MOL0     C95680  11.557   4.794   7.041  0.2173 -0.5335  0.0152
  694MOL0     C95681  11.519   4.835   7.166  0.0622 -0.3288  0.0209
  694MOL0     O95682  11.345   5.112   7.222  0.2357  0.5113 -0.0095
  694MOL0     C95683  11.343   4.995   7.553 -1.0142  0.1607  0.0356
  694MOL0     C95684  11.300   5.016   7.681 -0.0695  0.7274 -0.6012
  694MOL0     N95685  11.415   5.577   8.230  0.3310  0.3727  0.3890
  694MOL0     N95686  11.404   5.707   8.222  0.1768 -0.4346  0.2278
  694MOL0     C95687  11.503   6.704   8.461  0.7292 -0.2112  0.2549
  694MOL0     C95688  11.435   6.811   8.510 -0.1815  0.5695  0.3908
  694MOL0     C95689  11.361   7.213   8.676  0.0241 -0.2518  0.2252
  694MOL0     C95690  11.485   7.281   8.656  0.1179  0.1969  0.4880
  694MOL0     C95691  11.525   7.401   8.716 -0.4430  0.6715  0.4731
  694MOL0     C95692  11.436   7.476   8.793  0.4938  0.4540  0.0361
  694MOL0     O95693  11.459   7.606   8.850 -0.1660  0.7387  0.4736
  694MOL0     C95694  11.587   7.653   8.805  0.1761  0.0610  0.0962
  694MOL0     C95695  11.600   7.799   8.855 -0.7761  0.1361  0.9609
  694MOL0     C95696  11.738   7.845   8.819 -0.2194 -0.1362  0.0106
  694MOL0     C95697  11.741   8.004   8.810  0.2244  1.0125 -0.2577
  694MOL0     C95698  11.879   8.046   8.787 -0.5604  0.1365  0.4559
  694MOL0     C95699  11.992   8.063   8.780 -0.3965 -0.0718  0.1584
  694MOL0     C95700  11.305   7.426   8.797 -1.0839 -0.1375 -0.0289
  694MOL0     C95701  11.267   7.293   8.752 -0.4145  1.2901  0.1932
  694MOL0     C95702  11.135   7.237   8.801  0.0711 -0.4649 -0.4078
  694MOL0     H95703  11.612   7.050   8.346 -4.1249  0.5303 -4.8863
  694MOL0     H95704  11.712   6.852   8.239 -2.6856  0.4727 -2.1956
  694MOL0     H95705  11.556   6.454   8.381 -0.9925  3.1258 -2.8301
  694MOL0     H95706  11.716   6.481   8.475  2.5025  0.4473 -1.5816
  694MOL0     H95707  11.681   6.399   8.177 -1.1320  2.2025  1.9591
  694MOL0     H95708  11.841   6.414   8.272  1.6663 -1.4296  1.4983
  694MOL0     H95709  11.809   6.188   8.266  0.0408 -2.4240  0.1312
  694MOL0     H95710  11.769   6.254   8.430 -2.1783  2.2344  0.1104
  694MOL0     H95711  11.540   6.229   8.398  0.1076  1.2312 -0.6815
  694MOL0     H95712  11.559   6.183   8.225  0.2690  4.7331 -0.3363
  694MOL0     H95713  11.524   5.988   8.385  0.8782  0.4973  1.8888
  694MOL0     H95714  11.687   6.000   8.447 -2.7146  0.6607  1.5379
  694MOL0     H95715  11.775   5.916   8.228  0.1395 -0.9118  3.4490
  694MOL0     H95716  11.631   5.828   8.261 -2.7179  0.6311 -2.3566
  694MOL0     H95717  11.665   5.903   8.015 -2.0630 -0.6753 -0.4586
  694MOL0     H95718  11.627   6.055   8.073 -1.6679 -0.3243  1.7502
  694MOL0     H95719  11.396   5.962   8.109 -0.7877  0.8626 -2.1071
  694MOL0     H95720  11.458   5.916   7.958 -0.1034  4.2470  0.3618
  694MOL0     H95721  11.516   5.649   7.921  0.4636  0.6564 -0.6407
  694MOL0     H95722  11.560   5.352   8.141  0.8917  5.5720  2.3331
  694MOL0     H95723  11.557   5.391   7.971 -1.3867 -0.7278 -0.6072
  694MOL0     H95724  11.408   5.213   8.016  1.4393  0.5152 -1.1949
  694MOL0     H95725  11.325   5.300   8.144  0.9246 -4.3820 -0.8482
  694MOL0     H95726  11.230   5.462   7.993  3.3692  0.5044  0.1068
  694MOL0     H95727  11.330   5.396   7.853  1.5520  0.2884  0.5190
  694MOL0     H95728  11.097   5.263   8.002  2.4263  0.0086  1.1319
  694MOL0     H95729  11.081   5.322   7.841 -0.8465  3.7289  3.2802
  694MOL0     H95730  11.201   5.342   7.653  0.1145  1.0764 -2.7828
  694MOL0     H95731  11.209   5.318   7.316  1.4656  0.3323  0.1753
  694MOL0     H95732  11.369   5.378   7.370 -0.6017  0.2984 -1.6610
  694MOL0     H95733  11.232   5.423   7.462 -1.8335 -2.0460  3.6057
  694MOL0     H95734  11.656   5.146   7.151  0.8654 -0.7102  3.2432
  694MOL0     H95735  11.714   5.071   6.938 -2.7797 -1.6475 -3.4556
  694MOL0     H95736  11.710   4.700   6.684 -0.5653  3.1408 -0.2421
  694MOL0     H95737  11.682   4.633   6.838  0.1847 -1.6100 -1.6976
  694MOL0     H95738  11.443   4.737   6.816 -0.9068 -0.7105 -0.6366
  694MOL0     H95739  11.478   4.774   6.642 -2.3433 -1.1875 -0.2896
  694MOL0     H95740  11.535   4.532   6.604 -1.7887 -0.4625 -2.7724
  694MOL0     H95741  11.375   4.570   6.622 -1.8322 -1.3297  1.6894
  694MOL0     H95742  11.400   4.488   6.869 -0.9926 -0.3944 -0.3284
  694MOL0     H95743  11.572   4.471   6.829  0.0936  3.3257 -1.4551
  694MOL0     H95744  11.529   4.276   6.690  0.3536 -2.2119  2.8663
  694MOL0     H95745  11.455   4.264   6.836  0.0330 -1.9171 -1.7546
  694MOL0     H95746  11.319   4.355   6.563 -0.8780  1.7348  0.1567
  694MOL0     H95747  11.218   4.341   6.705 -1.9319  0.8392 -3.5444
  694MOL0     H95748  11.358   4.086   6.705 -1.3003 -0.3842  0.0215
  694MOL0     H95749  11.371   4.138   6.532 -3.0216  2.5468 -2.5624
  694MOL0     H95750  11.133   4.169   6.519 -0.3899  0.3583  0.4944
  694MOL0     H95751  11.119   4.091   6.679 -0.7717  1.0992  0.1580
  694MOL0     H95752  11.522   4.701   6.998 -0.3138  0.9058 -2.8917
  694MOL0     H95753  11.456   4.770   7.226  0.8449 -0.7598  0.3883
  694MOL0     H95754  11.377   4.895   7.528  0.4174 -0.1749  2.8541
  694MOL0     H95755  11.298   4.947   7.764  2.2429  0.3995 -0.7578
  694MOL0     H95756  11.476   6.600   8.482  2.2052 -1.8401 -4.4713
  694MOL0     H95757  11.362   6.790   8.587 -0.1693  0.1592  0.2916
  694MOL0     H95758  11.552   7.246   8.578 -0.0444 -1.2086  0.9538
  694MOL0     H95759  11.626   7.426   8.684  0.3808 -1.6617  0.9909
  694MOL0     H95760  11.679   7.597   8.822  1.0688  1.1319 -1.0267
  694MOL0     H95761  11.581   7.659   8.696  1.1404  0.9191  0.0756
  694MOL0     H95762  11.589   7.800   8.964 -1.4162  2.5409  0.9230
  694MOL0     H95763  11.529   7.868   8.808  0.2415 -0.1324 -1.1048
  694MOL0     H95764  11.814   7.817   8.892 -0.4252 -1.6787 -0.3282
  694MOL0     H95765  11.768   7.801   8.724  2.5316 -0.6710  1.0425
  694MOL0     H95766  11.697   8.070   8.885  3.5392  3.0081  0.1425
  694MOL0     H95767  11.675   8.025   8.725 -0.3503  1.5844  0.3177
  694MOL0     H95768  12.096   8.089   8.777  0.2824 -2.5828 -1.9043
  694MOL0     H95769  11.236   7.490   8.850  0.9002  2.2506 -0.1890
  694MOL0     H95770  11.150   7.155   8.872  2.7751 -2.1880 -2.7474
  694MOL0     H95771  11.070   7.315   8.841 -2.3442 -1.0152 -2.9608
  694MOL0     H95772  11.073   7.202   8.718 -1.1109  2.2777 -0.7930
  695MOL0     O95773   2.657   1.892  11.209  0.2229  0.0583 -0.3792
  695MOL0     C95774   2.556   1.822  11.208 -0.3026  0.1071  0.8336
  695MOL0     O95775   2.462   1.819  11.111  1.0303  0.7837 -0.1810
  695MOL0     C95776   2.412   1.949  11.080 -0.7555 -0.7524 -0.1662
  695MOL0     C95777   2.300   2.001  11.143 -0.6209 -0.3714  0.3065
  695MOL0     C95778   2.260   2.137  11.127  0.5334 -0.0629 -0.5885
  695MOL0     C95779   2.320   2.219  11.037 -1.0180 -0.4116 -0.6968
  695MOL0     O95780   2.268   2.348  11.018 -0.5704  0.4330  0.0268
  695MOL0     C95781   2.133   2.366  10.973  0.2600  0.2706  0.0849
  695MOL0     C95782   2.137   2.473  10.871 -0.1158 -0.0608 -0.2026
  695MOL0     C95783   2.180   2.437  10.730  0.3126  0.1340  0.3792
  695MOL0     C95784   2.193   2.565  10.640 -1.1068  0.6163  0.4024
  695MOL0     C95785   2.211   2.546  10.488 -0.5026 -0.5739 -0.2315
  695MOL0     C95786   2.084   2.510  10.410  0.1960 -0.1397 -0.1743
  695MOL0     C95787   2.121   2.489  10.263  0.4663  0.6482 -0.0490
  695MOL0     C95788   2.016   2.411  10.179  0.0203  0.2506 -0.3112
  695MOL0     N95789   1.905   2.500  10.147  0.0105 -0.8054  0.2591
  695MOL0     C95790   1.820   2.564  10.237  0.0119 -0.6323  1.0092
  695MOL0     C95791   1.769   2.675  10.180 -0.6147  0.6402 -0.0797
  695MOL0     C95792   1.696   2.792  10.234 -1.0224  0.7410 -0.0606
  695MOL0     C95793   1.785   2.910  10.269  0.3986  0.2379 -0.1164
  695MOL0     C95794   1.911   2.882  10.359 -0.2531  1.4777 -0.5372
  695MOL0     C95795   1.981   3.011  10.373  0.1687  0.4456 -0.1306
  695MOL0     O95796   2.103   2.967  10.432  0.2779  0.6117  0.2447
  695MOL0     C95797   2.121   3.023  10.551 -0.4337  0.2893 -0.7884
  695MOL0     C95798   2.157   2.947  10.666  0.1692 -0.5045  0.2174
  695MOL0     C95799   2.187   3.006  10.789  0.1054 -0.5065 -0.4990
  695MOL0     C95800   2.232   2.907  10.897  0.5856 -0.1480 -0.5979
  695MOL0     C95801   2.184   3.146  10.800 -0.5352 -1.8783  0.3186
  695MOL0     C95802   2.221   3.226  10.928  0.4999  0.6033  0.7570
  695MOL0     O95803   2.247   3.361  10.902  0.0819 -0.2787  0.4214
  695MOL0     C95804   2.325   3.435  10.984  0.5523  1.2672 -0.7520
  695MOL0     C95805   2.415   3.392  11.085 -0.5057  0.4678  0.7057
  695MOL0     C95806   2.486   3.492  11.155  0.0982 -0.7605  0.2642
  695MOL0     C95807   2.454   3.628  11.139 -0.8260 -0.4224 -1.1680
  695MOL0     O95808   2.525   3.722  11.212  0.4207  0.3233 -0.4671
  695MOL0     C95809   2.549   3.714  11.352 -0.1062 -0.3853  0.3498
  695MOL0     C95810   2.688   3.672  11.375  0.5610 -0.2373 -1.5229
  695MOL0     C95811   2.713   3.609  11.519 -0.3196 -0.1473  0.4896
  695MOL0     C95812   2.838   3.535  11.513  0.6670  0.1316 -0.0697
  695MOL0     C95813   2.889   3.518  11.661  0.6567  0.1907  0.7918
  695MOL0     C95814   3.025   3.446  11.660 -0.3349  0.0189 -0.3696
  695MOL0     C95815   3.081   3.464  11.809  0.2933  0.0140  0.1474
  695MOL0     C95816   3.218   3.402  11.831  0.1883  0.2520 -0.5139
  695MOL0    Cl95817   3.260   3.391  12.010 -0.2462  0.3027  0.4485
  695MOL0     C95818   2.353   3.666  11.043 -0.2088 -0.1695  1.2114
  695MOL0     C95819   2.300   3.572  10.961  0.1707  0.4068 -0.3696
  695MOL0     O95820   2.202   3.168  11.037  0.0961 -0.4622 -0.1132
  695MOL0     C95821   2.174   3.227  10.686  0.1231 -0.6008  0.0744
  695MOL0     C95822   2.128   3.166  10.571 -0.2602 -0.7818  0.3497
  695MOL0     N95823   1.817   2.684  10.055 -0.4249 -0.0595 -0.3896
  695MOL0     N95824   1.898   2.579  10.033 -0.0508  0.1906 -0.6260
  695MOL0     C95825   2.428   2.170  10.968  0.9488 -0.0553 -0.3094
  695MOL0     C95826   2.471   2.039  10.991  0.4409  0.3593 -0.4571
  695MOL0     C95827   2.528   1.716  11.309 -0.3502 -0.0718  0.7392
  695MOL0     C95828   2.401   1.697  11.363  0.3922 -0.5243  0.7694
  695MOL0     C95829   2.372   1.607  11.460  0.4450  0.1696  0.2545
  695MOL0     C95830   2.466   1.517  11.515  0.3449  0.2915 -0.5507
  695MOL0     O95831   2.443   1.439  11.623 -0.5007 -0.3161  0.1705
  695MOL0     C95832   2.316   1.411  11.679 -0.1287 -0.4859 -0.0861
  695MOL0     C95833   2.293   1.494  11.799  0.3260 -0.8549 -0.8689
  695MOL0     C95834   2.147   1.467  11.855 -0.1526  0.0214  0.8359
  695MOL0     C95835   2.155   1.348  11.955 -0.1748  0.3708 -0.0449
  695MOL0     C95836   2.026   1.305  11.991  1.0418  0.3415 -0.5781
  695MOL0     C95837   1.913   1.269  12.014  0.7721 -0.3198  0.0915
  695MOL0     C95838   2.597   1.526  11.459  0.0120  0.2673 -0.0464
  695MOL0     C95839   2.620   1.628  11.362 -0.7515  0.4074 -0.3396
  695MOL0     C95840   2.766   1.622  11.310  0.4485 -0.6111  0.6871
  695MOL0     H95841   2.251   1.929  11.208  1.3221 -3.1507 -1.1199
  695MOL0     H95842   2.193   2.181  11.200  2.1253 -1.5154  1.8880
  695MOL0     H95843   2.069   2.410  11.051  0.3486  0.7251 -0.0976
  695MOL0     H95844   2.071   2.283  10.938 -0.5191  1.3626 -1.1928
  695MOL0     H95845   2.033   2.507  10.870 -0.0168  0.2904 -1.6040
  695MOL0     H95846   2.187   2.562  10.909 -0.4111  0.0283 -0.0201
  695MOL0     H95847   2.282   2.402  10.750  0.6190 -1.0790 -2.8108
  695MOL0     H95848   2.130   2.353  10.680  0.7297  0.9633 -1.4665
  695MOL0     H95849   2.105   2.629  10.641 -2.0068 -0.3093 -3.3931
  695MOL0     H95850   2.284   2.616  10.672  0.4312 -1.7337  0.0759
  695MOL0     H95851   2.292   2.475  10.469 -1.4179 -2.1920  1.5301
  695MOL0     H95852   2.243   2.641  10.443 -2.2388 -0.7051 -1.8744
  695MOL0     H95853   2.037   2.425  10.460  0.2052 -0.5536 -0.8640
  695MOL0     H95854   2.017   2.596  10.420  1.2053  0.5724  0.6809
  695MOL0     H95855   2.213   2.431  10.271  0.6435  0.5707 -2.0908
  695MOL0     H95856   2.136   2.588  10.219 -2.8060  0.2908 -2.3651
  695MOL0     H95857   2.062   2.365  10.091  2.3787 -2.8985  2.3008
  695MOL0     H95858   1.989   2.327  10.243  3.6092  1.2901  2.9837
  695MOL0     H95859   1.785   2.532  10.335 -1.3715  2.2077  1.5468
  695MOL0     H95860   1.637   2.764  10.322 -1.3008  0.7907 -0.2315
  695MOL0     H95861   1.625   2.825  10.158 -0.7714 -0.2031 -0.7280
  695MOL0     H95862   1.820   2.960  10.178  2.1895 -0.4839  0.1417
  695MOL0     H95863   1.717   2.983  10.315 -3.0914 -1.6445 -1.8250
  695MOL0     H95864   1.899   2.833  10.456  3.8567 -0.9017 -1.0060
  695MOL0     H95865   1.985   2.821  10.306 -0.4068  0.9667 -0.1759
  695MOL0     H95866   2.012   3.043  10.274 -0.2998 -0.1438 -0.4732
  695MOL0     H95867   1.910   3.081  10.421 -0.8755  0.8388 -2.1449
  695MOL0     H95868   2.170   2.841  10.650  1.9956 -0.2295 -0.3843
  695MOL0     H95869   2.154   2.876  10.968 -0.7062 -1.9238 -2.6613
  695MOL0     H95870   2.316   2.955  10.948 -0.5515  1.3490 -0.0354
  695MOL0     H95871   2.268   2.813  10.854 -2.8134 -1.4531 -0.8749
  695MOL0     H95872   2.449   3.290  11.102  0.7725  0.2334 -2.5809
  695MOL0     H95873   2.566   3.474  11.227  0.1695  0.0758  0.4045
  695MOL0     H95874   2.538   3.810  11.404  0.0962  0.3032 -0.8493
  695MOL0     H95875   2.482   3.637  11.394 -1.1958 -0.7332 -1.8845
  695MOL0     H95876   2.709   3.600  11.295 -1.7427 -0.6450 -1.8335
  695MOL0     H95877   2.750   3.762  11.369  1.6438 -0.8357 -0.1097
  695MOL0     H95878   2.631   3.543  11.548  0.7670 -1.8169 -0.0692
  695MOL0     H95879   2.719   3.692  11.590 -1.1968  1.0137 -0.7275
  695MOL0     H95880   2.916   3.583  11.454  0.4526 -2.1211 -2.3880
  695MOL0     H95881   2.818   3.437  11.468  0.1240  0.6484 -0.9930
  695MOL0     H95882   2.895   3.624  11.688 -0.5713  0.9235 -1.5485
  695MOL0     H95883   2.821   3.463  11.726 -0.8639 -1.6992 -2.1656
  695MOL0     H95884   3.093   3.488  11.586  0.3131  0.6594  0.5626
  695MOL0     H95885   2.999   3.342  11.637 -1.7026  0.4498 -0.8403
  695MOL0     H95886   3.011   3.412  11.875 -5.4549  0.8633 -4.4542
  695MOL0     H95887   3.085   3.572  11.828 -0.0691 -0.1508  1.2232
  695MOL0     H95888   3.293   3.458  11.774  0.4557 -1.1622 -1.5971
  695MOL0     H95889   3.212   3.297  11.802 -0.4017 -0.0876  0.7819
  695MOL0     H95890   2.321   3.769  11.026 -0.8342 -0.4957  0.3957
  695MOL0     H95891   2.244   3.585  10.869 -1.5348 -2.1739  0.1882
  695MOL0     H95892   2.206   3.330  10.681 -0.2062 -0.3229  2.4092
  695MOL0     H95893   2.116   3.226  10.482 -1.1565 -0.4975  0.6535
  695MOL0     H95894   2.468   2.238  10.894  1.6831 -0.8717 -0.6764
  695MOL0     H95895   2.558   1.995  10.943  0.7855 -1.2884  1.4972
  695MOL0     H95896   2.324   1.768  11.334 -1.0304 -2.4970 -0.5880
  695MOL0     H95897   2.269   1.616  11.494  0.0852 -0.3929 -0.6626
  695MOL0     H95898   2.245   1.421  11.597 -1.7694  1.1148  1.4660
  695MOL0     H95899   2.322   1.310  11.721 -0.0754  0.2793  1.8315
  695MOL0     H95900   2.307   1.600  11.776 -0.1696 -0.5691  0.0996
  695MOL0     H95901   2.363   1.474  11.881  1.4608 -0.0432 -1.5961
  695MOL0     H95902   2.116   1.556  11.910  0.6312 -0.5793  2.3188
  695MOL0     H95903   2.078   1.438  11.776  0.2790 -2.6388  1.3402
  695MOL0     H95904   2.211   1.374  12.045 -1.0093  0.4082  0.4627
  695MOL0     H95905   2.204   1.269  11.897 -0.9075 -0.5844  0.6198
  695MOL0     H95906   1.826   1.211  12.037  1.4568 -1.3389  0.2307
  695MOL0     H95907   2.678   1.464  11.497  0.0645  1.6528  2.3073
  695MOL0     H95908   2.833   1.552  11.360 -0.9462 -2.1978  0.4141
  695MOL0     H95909   2.767   1.611  11.201  2.7550 -1.1716  0.7042
  695MOL0     H95910   2.822   1.713  11.334  2.1458 -1.5588  0.4846
  696MOL0     O95911   3.873   1.120   2.515 -0.2399 -0.4217  0.5380
  696MOL0     C95912   3.870   1.044   2.608  0.2065  0.5162 -0.7296
  696MOL0     O95913   3.887   1.066   2.742  0.2285 -0.7704  0.0683
  696MOL0     C95914   3.902   1.199   2.790 -0.8863 -0.2801 -0.2968
  696MOL0     C95915   3.867   1.320   2.725 -0.1507  0.1320  0.6552
  696MOL0     C95916   3.881   1.441   2.799  0.3760 -0.3939 -0.4025
  696MOL0     C95917   3.943   1.440   2.926 -1.1390 -0.6737  0.8171
  696MOL0     O95918   3.977   1.557   2.994  0.4685  0.0782  0.4491
  696MOL0     C95919   3.863   1.632   3.027  0.3151 -2.1659  0.1063
  696MOL0     C95920   3.907   1.787   3.018  0.1317 -0.5609 -0.4924
  696MOL0     C95921   3.873   1.833   2.879 -0.0771 -0.5647 -1.3727
  696MOL0     C95922   3.872   1.982   2.873  0.6334  0.0108 -0.3012
  696MOL0     C95923   4.016   2.042   2.912 -0.3357  0.2263  0.3504
  696MOL0     C95924   4.032   2.198   2.896  1.1211 -0.1258  0.0358
  696MOL0     C95925   4.183   2.233   2.904 -0.0203  0.1650  0.3071
  696MOL0     C95926   4.217   2.381   2.857  0.0397 -0.0733 -0.8526
  696MOL0     N95927   4.179   2.408   2.719  0.3588  0.1492  0.9253
  696MOL0     C95928   4.216   2.327   2.616 -0.0024  0.7752  0.5547
  696MOL0     C95929   4.142   2.380   2.515 -1.3900  0.1100 -0.0873
  696MOL0     C95930   4.135   2.335   2.370  0.6670 -0.2885  0.1071
  696MOL0     C95931   4.020   2.240   2.352  0.3237  0.0090 -0.9970
  696MOL0     C95932   4.016   2.177   2.216 -0.5545  0.9406 -0.0206
  696MOL0     C95933   3.931   2.257   2.122  0.6698 -0.1647  1.4350
  696MOL0     O95934   3.949   2.397   2.137  0.4508 -0.2121  0.2536
  696MOL0     C95935   3.857   2.485   2.097 -1.0641 -0.3359 -0.4433
  696MOL0     C95936   3.760   2.460   2.000  0.9835  0.1499  0.2391
  696MOL0     C95937   3.667   2.557   1.956  0.5498 -0.0674  0.3714
  696MOL0     C95938   3.575   2.533   1.839 -0.0202  0.0486 -0.2694
  696MOL0     C95939   3.662   2.677   2.037 -0.3576 -0.8572  0.1635
  696MOL0     C95940   3.567   2.794   2.016 -0.2768  0.2741  0.9465
  696MOL0     O95941   3.564   2.896   2.102  0.3553  0.1373 -0.2386
  696MOL0     C95942   3.497   3.005   2.057  0.0858 -0.7780 -0.0981
  696MOL0     C95943   3.373   3.059   2.112 -1.3629 -0.5438  0.0502
  696MOL0     C95944   3.336   3.187   2.066  0.9368  0.1328  0.4697
  696MOL0     C95945   3.400   3.252   1.963 -0.1248  0.2889  1.0515
  696MOL0     O95946   3.352   3.368   1.904  0.0963 -0.4593  0.6569
  696MOL0     C95947   3.212   3.405   1.928 -0.4107  0.7923  0.3593
  696MOL0     C95948   3.157   3.521   1.830  0.2015  0.3337  0.2429
  696MOL0     C95949   3.261   3.589   1.758  0.0417 -0.8516  0.2149
  696MOL0     C95950   3.213   3.711   1.680 -0.6795 -0.2466 -0.7003
  696MOL0     C95951   3.205   3.837   1.786  0.6712  1.5991  0.6896
  696MOL0     C95952   3.336   3.884   1.835 -0.4571 -0.0686  0.0680
  696MOL0     C95953   3.320   4.017   1.900  0.3655  0.1284  0.4064
  696MOL0     C95954   3.407   4.035   2.023  0.1733 -0.1304 -0.5735
  696MOL0    Cl95955   3.335   4.170   2.104  0.1737  0.3382  0.1927
  696MOL0     C95956   3.526   3.201   1.918  0.4639 -0.3572 -0.6427
  696MOL0     C95957   3.577   3.085   1.972  1.1513  0.0334  0.1803
  696MOL0     O95958   3.496   2.782   1.916 -0.2028  0.0562 -0.0887
  696MOL0     C95959   3.749   2.695   2.149  0.1690 -0.3946  0.6994
  696MOL0     C95960   3.843   2.600   2.171  0.3009  0.4392  0.0556
  696MOL0     N95961   4.068   2.478   2.565 -0.5146  0.5910  0.0977
  696MOL0     N95962   4.088   2.508   2.687  0.2054  1.1756 -0.8906
  696MOL0     C95963   3.995   1.327   2.977 -1.0508  0.0188  0.5209
  696MOL0     C95964   3.963   1.206   2.918 -0.0223 -0.1353 -0.0852
  696MOL0     C95965   3.841   0.901   2.585  0.2648  0.2883 -0.1269
  696MOL0     C95966   3.854   0.806   2.687 -0.4277 -0.3085 -0.1927
  696MOL0     C95967   3.820   0.672   2.673  0.3266 -0.9420 -0.6875
  696MOL0     C95968   3.777   0.616   2.558  0.2440  0.5411  0.4067
  696MOL0     O95969   3.745   0.481   2.564 -0.0344  0.0018 -1.3244
  696MOL0     C95970   3.716   0.395   2.454  0.0452 -0.4195 -0.2848
  696MOL0     C95971   3.814   0.281   2.450 -0.2492  0.1333 -0.3929
  696MOL0     C95972   3.955   0.331   2.459 -0.0115  0.7747 -0.4482
  696MOL0     C95973   4.016   0.393   2.327  0.4473  1.1897 -0.9157
  696MOL0     C95974   4.023   0.303   2.213 -0.3070 -0.7026  0.1379
  696MOL0     C95975   4.064   0.233   2.122  0.6678 -0.0768  0.4614
  696MOL0     C95976   3.755   0.714   2.450  1.0432 -0.1846 -0.2605
  696MOL0     C95977   3.781   0.851   2.464  0.3252  0.0192  0.3714
  696MOL0     C95978   3.727   0.940   2.357 -0.9972  0.3767 -0.2009
  696MOL0     H95979   3.832   1.317   2.622 -1.1477 -2.0045  0.9895
  696MOL0     H95980   3.864   1.535   2.748 -0.7931 -0.5458 -0.3148
  696MOL0     H95981   3.820   1.606   3.125 -2.0770  2.0376  0.3851
  696MOL0     H95982   3.778   1.614   2.961  0.1450 -0.2525 -0.2330
  696MOL0     H95983   3.850   1.843   3.093 -0.9312 -0.5213 -1.2935
  696MOL0     H95984   4.011   1.804   3.048 -0.0917  2.0616 -0.9237
  696MOL0     H95985   3.949   1.795   2.809  0.9326 -2.1032  0.4741
  696MOL0     H95986   3.774   1.802   2.844 -1.0451  1.6163 -0.7117
  696MOL0     H95987   3.856   2.011   2.769  3.9109 -0.3996 -1.0271
  696MOL0     H95988   3.792   2.027   2.932 -0.2039  0.7005 -1.9074
  696MOL0     H95989   4.087   1.999   2.841 -1.7001 -1.2074 -0.1967
  696MOL0     H95990   4.047   2.019   3.014  1.7824 -1.3273 -0.5656
  696MOL0     H95991   3.992   2.221   2.796  0.4230 -1.2137  0.0434
  696MOL0     H95992   3.974   2.253   2.970  2.1553  0.5043  0.3913
  696MOL0     H95993   4.231   2.167   2.831 -1.3820 -1.6119  0.9287
  696MOL0     H95994   4.228   2.204   3.000  2.3056  1.4667 -0.3135
  696MOL0     H95995   4.159   2.449   2.919 -2.3554 -1.4567 -1.4289
  696MOL0     H95996   4.326   2.393   2.865  0.4857 -3.0128 -1.3203
  696MOL0     H95997   4.265   2.230   2.609  1.9231  1.7534 -0.1087
  696MOL0     H95998   4.228   2.282   2.344 -0.7194 -1.5247 -2.7347
  696MOL0     H95999   4.119   2.420   2.305 -0.5145 -0.7366 -0.2046
  696MOL0     H96000   4.017   2.164   2.431 -0.0814  0.6936 -0.3371
  696MOL0     H96001   3.929   2.299   2.363 -0.5119 -0.4865 -4.2546
  696MOL0     H96002   4.121   2.177   2.185 -0.8302 -0.4741 -1.0662
  696MOL0     H96003   3.976   2.076   2.228 -0.6480  0.9078 -0.5587
  696MOL0     H96004   3.943   2.215   2.021 -0.3481 -1.3028  1.7602
  696MOL0     H96005   3.827   2.238   2.148  0.2278 -1.8614 -1.1815
  696MOL0     H96006   3.765   2.374   1.934  3.5574 -0.2255  0.8111
  696MOL0     H96007   3.596   2.599   1.755  2.1763 -1.7064 -1.1811
  696MOL0     H96008   3.468   2.537   1.865  0.0605  2.0077 -0.0366
  696MOL0     H96009   3.592   2.429   1.814  1.8858  0.1930  0.2801
  696MOL0     H96010   3.333   3.004   2.196 -1.1089 -0.9268 -0.0765
  696MOL0     H96011   3.247   3.239   2.100  1.2021  2.1058 -1.6910
  696MOL0     H96012   3.162   3.310   1.907  1.3927  0.4403 -3.2235
  696MOL0     H96013   3.221   3.445   2.029 -1.1019 -0.6367  1.0066
  696MOL0     H96014   3.095   3.479   1.750  0.8033  2.5804 -1.5098
  696MOL0     H96015   3.097   3.593   1.885 -1.6875 -2.8020  2.6369
  696MOL0     H96016   3.291   3.513   1.686 -0.4089 -2.5257  1.7195
  696MOL0     H96017   3.341   3.615   1.828  0.7131 -3.7475  0.6371
  696MOL0     H96018   3.112   3.698   1.639 -1.7066 -1.3047  1.9369
  696MOL0     H96019   3.277   3.744   1.598 -3.2944  0.5821 -2.5572
  696MOL0     H96020   3.152   3.909   1.724 -2.7863 -0.4023  1.0633
  696MOL0     H96021   3.139   3.813   1.870 -0.6485  0.3689 -0.6477
  696MOL0     H96022   3.409   3.888   1.754 -0.4063  1.2914  0.1655
  696MOL0     H96023   3.381   3.814   1.906  3.7892  0.7400 -1.5734
  696MOL0     H96024   3.214   4.026   1.927 -0.1609 -2.0106 -0.7122
  696MOL0     H96025   3.334   4.102   1.833 -0.3905 -0.2557 -0.2588
  696MOL0     H96026   3.511   4.062   1.999  0.2828 -2.2671 -2.7991
  696MOL0     H96027   3.399   3.952   2.093 -0.3174 -0.1969 -0.7096
  696MOL0     H96028   3.586   3.258   1.848  0.5763 -0.0098 -0.2623
  696MOL0     H96029   3.679   3.052   1.958  1.2835  0.4000  0.2586
  696MOL0     H96030   3.752   2.778   2.219 -0.8320 -2.8414  3.9299
  696MOL0     H96031   3.916   2.617   2.250  1.8995 -1.4088 -0.9376
  696MOL0     H96032   4.035   1.348   3.076  1.7966 -0.3889 -0.4454
  696MOL0     H96033   3.998   1.111   2.957  3.3320 -0.6456 -3.7397
  696MOL0     H96034   3.885   0.843   2.784 -0.5259 -3.0599  0.9981
  696MOL0     H96035   3.846   0.609   2.758  0.8893 -0.2825 -0.3654
  696MOL0     H96036   3.618   0.349   2.471  0.4068 -1.6198 -1.2556
  696MOL0     H96037   3.722   0.436   2.353  1.1334 -0.9251 -0.4454
  696MOL0     H96038   3.801   0.236   2.352 -0.4616 -0.4140 -0.1198
  696MOL0     H96039   3.794   0.204   2.525 -0.2402  1.3263  0.8760
  696MOL0     H96040   3.971   0.405   2.537 -3.1368  0.3121  0.7660
  696MOL0     H96041   4.013   0.240   2.477 -0.2684  0.8596  0.8520
  696MOL0     H96042   4.117   0.423   2.356  1.3729 -0.7547 -1.9732
  696MOL0     H96043   3.945   0.471   2.297 -0.2781  1.4818  1.4162
  696MOL0     H96044   4.071   0.168   2.037 -2.8467 -0.1441  0.0855
  696MOL0     H96045   3.717   0.671   2.359 -2.3518  0.7332  0.5861
  696MOL0     H96046   3.701   0.879   2.271  2.7059 -0.3281 -0.9549
  696MOL0     H96047   3.662   1.022   2.390  2.1776  1.9610  2.7895
  696MOL0     H96048   3.811   0.993   2.312 -2.1093  2.4481  0.0252
  697MOL0     O96049  10.691   2.124   5.255  0.5330  0.0495  0.6807
  697MOL0     C96050  10.627   2.120   5.151  1.2021 -0.8024  0.2163
  697MOL0     O96051  10.529   2.027   5.116  0.3028 -0.0106  0.7434
  697MOL0     C96052  10.480   1.941   5.203 -0.1372  0.3161  1.2208
  697MOL0     C96053  10.340   1.921   5.198  0.3336 -0.3835  0.2538
  697MOL0     C96054  10.280   1.835   5.281 -1.3225 -0.3889 -0.5771
  697MOL0     C96055  10.345   1.773   5.382 -0.0994  1.3315 -0.3091
  697MOL0     O96056  10.287   1.692   5.476 -0.0232  0.0070 -0.4254
  697MOL0     C96057  10.151   1.659   5.465 -0.3427 -0.7279 -0.1433
  697MOL0     C96058  10.128   1.525   5.538  0.2012  0.1750 -0.2089
  697MOL0     C96059  10.180   1.415   5.446  0.0960  0.5769 -0.4483
  697MOL0     C96060  10.056   1.338   5.393 -0.1857  0.0381 -0.3999
  697MOL0     C96061   9.991   1.414   5.283 -0.8104 -0.1244  1.0228
  697MOL0     C96062   9.877   1.343   5.218 -0.5647 -0.5728 -1.1029
  697MOL0     C96063   9.762   1.327   5.316 -0.2802 -0.3152 -0.6453
  697MOL0     C96064   9.618   1.278   5.252 -0.4512  1.0243  0.6580
  697MOL0     N96065   9.638   1.143   5.200 -0.4395 -0.2776  0.3201
  697MOL0     C96066   9.579   1.097   5.087 -0.2894  0.5453 -0.0088
  697MOL0     C96067   9.633   0.965   5.073 -0.2252 -0.2620  0.3867
  697MOL0     C96068   9.601   0.872   4.956  0.3237  0.4167 -0.1095
  697MOL0     C96069   9.502   0.762   5.014  0.1720  0.8830  0.9158
  697MOL0     C96070   9.437   0.682   4.900  1.2246  0.4390  0.1101
  697MOL0     C96071   9.317   0.623   4.962  0.5596  0.0922  0.3982
  697MOL0     O96072   9.213   0.713   4.983 -1.0199 -0.5989  0.8442
  697MOL0     C96073   9.118   0.660   5.061  0.1888 -0.4142  0.0848
  697MOL0     C96074   8.998   0.609   5.008  0.2084 -0.2408 -0.3561
  697MOL0     C96075   8.889   0.568   5.097 -0.3969 -0.1552  0.7158
  697MOL0     C96076   8.776   0.498   5.029 -0.0323 -0.3315 -0.6710
  697MOL0     C96077   8.897   0.591   5.228  0.4317  0.6120 -0.0340
  697MOL0     C96078   8.786   0.575   5.321  0.1906  0.3180 -0.1382
  697MOL0     O96079   8.674   0.489   5.289 -0.5270  0.1820  0.7769
  697MOL0     C96080   8.588   0.465   5.392  0.6709  0.0134  0.2792
  697MOL0     C96081   8.462   0.515   5.383  0.7172  0.3073 -0.4180
  697MOL0     C96082   8.366   0.490   5.482  0.3633  0.3188 -0.8363
  697MOL0     C96083   8.394   0.420   5.598  0.8358 -0.4905  0.5457
  697MOL0     O96084   8.288   0.395   5.678  0.0763 -0.1674 -0.4200
  697MOL0     C96085   8.322   0.394   5.821 -0.9430  0.3016  0.3406
  697MOL0     C96086   8.263   0.521   5.883 -0.6185  0.0595 -0.3619
  697MOL0     C96087   8.111   0.526   5.877  0.3598  1.3997  0.1486
  697MOL0     C96088   8.052   0.652   5.930 -0.2871  0.1976 -0.2677
  697MOL0     C96089   8.062   0.681   6.079  0.1180 -0.8527  0.0169
  697MOL0     C96090   7.989   0.817   6.106 -0.0238 -0.0930 -0.3529
  697MOL0     C96091   7.926   0.807   6.250  0.3992 -0.3747  0.4957
  697MOL0     C96092   7.784   0.811   6.241  0.0223 -0.6979 -0.6199
  697MOL0    Cl96093   7.728   0.656   6.161 -0.1220 -0.5293  0.3911
  697MOL0     C96094   8.527   0.375   5.617  0.0078  0.1567 -0.0986
  697MOL0     C96095   8.621   0.399   5.509 -0.3364  0.6523 -0.2060
  697MOL0     O96096   8.799   0.614   5.440 -0.1746  0.0631  0.9271
  697MOL0     C96097   9.024   0.634   5.280  0.9588  0.8507 -0.4272
  697MOL0     C96098   9.129   0.676   5.201 -0.9819  0.0599 -0.1910
  697MOL0     N96099   9.729   0.944   5.167 -0.5950  0.0104  0.9731
  697MOL0     N96100   9.723   1.047   5.237 -0.8478 -0.4483  0.1720
  697MOL0     C96101  10.483   1.796   5.391 -0.2326 -0.1401  0.0925
  697MOL0     C96102  10.553   1.874   5.298  0.0163 -0.2449  0.5106
  697MOL0     C96103  10.641   2.231   5.059 -0.0703 -0.2762  0.0527
  697MOL0     C96104  10.572   2.218   4.938 -0.0356 -0.2460 -0.8647
  697MOL0     C96105  10.581   2.315   4.844  0.1319  0.3799  0.3688
  697MOL0     C96106  10.675   2.418   4.858 -0.1153 -0.6159  0.2411
  697MOL0     O96107  10.683   2.514   4.752  0.5352 -0.4308  0.0700
  697MOL0     C96108  10.597   2.629   4.790 -0.8855  0.2679  0.4161
  697MOL0     C96109  10.566   2.719   4.673 -0.8039  1.0812 -0.5753
  697MOL0     C96110  10.509   2.851   4.729 -0.2653  0.7160  0.3411
  697MOL0     C96111  10.477   2.936   4.612  0.0432 -0.2485  0.0411
  697MOL0     C96112  10.442   3.065   4.663  0.8515 -0.0013 -0.1109
  697MOL0     C96113  10.398   3.177   4.686 -1.0757  0.3846  0.0632
  697MOL0     C96114  10.743   2.444   4.970 -0.6234 -0.4713 -1.4532
  697MOL0     C96115  10.736   2.344   5.065  0.4874 -0.6886 -0.7075
  697MOL0     C96116  10.832   2.363   5.190 -0.0854  0.3936  0.4428
  697MOL0     H96117  10.287   1.978   5.123  1.5013 -1.3129 -1.3531
  697MOL0     H96118  10.173   1.826   5.266 -1.5667  0.7981  0.3425
  697MOL0     H96119  10.121   1.646   5.361  0.3828 -0.8360 -0.3448
  697MOL0     H96120  10.112   1.746   5.518  0.0490 -0.7856  0.2473
  697MOL0     H96121  10.195   1.525   5.625 -2.5772  1.9038  2.1018
  697MOL0     H96122  10.022   1.523   5.565 -0.2543 -1.2450 -1.9079
  697MOL0     H96123  10.240   1.448   5.361  0.7693 -2.4423 -1.2855
  697MOL0     H96124  10.250   1.351   5.502  0.4758  0.2480 -1.2833
  697MOL0     H96125  10.107   1.252   5.348 -1.0170  1.2565 -4.0073
  697MOL0     H96126   9.980   1.314   5.467 -0.4845 -1.2043 -1.0913
  697MOL0     H96127  10.076   1.434   5.217 -1.4434 -0.1878  0.1656
  697MOL0     H96128   9.940   1.507   5.309 -0.8170 -0.4192  2.0952
  697MOL0     H96129   9.844   1.400   5.131 -1.0974  0.9150  0.0456
  697MOL0     H96130   9.905   1.242   5.187 -0.6081 -0.4821 -1.4405
  697MOL0     H96131   9.736   1.425   5.359 -0.7280 -1.8046  2.8257
  697MOL0     H96132   9.787   1.263   5.401  0.1263 -0.6376 -1.0062
  697MOL0     H96133   9.539   1.290   5.327 -1.1491  2.9086 -0.3299
  697MOL0     H96134   9.586   1.349   5.176  1.8681  0.5904 -0.8417
  697MOL0     H96135   9.513   1.147   5.017 -0.0324 -1.7695 -2.0225
  697MOL0     H96136   9.694   0.830   4.917  0.6475 -2.7835  3.4837
  697MOL0     H96137   9.560   0.930   4.873 -2.3143 -0.8064  0.2094
  697MOL0     H96138   9.547   0.688   5.081 -3.2233  0.4936  2.9899
  697MOL0     H96139   9.430   0.820   5.072 -0.6164  2.7166 -1.7164
  697MOL0     H96140   9.399   0.745   4.819  0.7620 -0.1044 -0.1096
  697MOL0     H96141   9.493   0.601   4.852 -4.0263 -2.7540 -1.4626
  697MOL0     H96142   9.289   0.544   4.892  3.1011 -0.6249  0.0886
  697MOL0     H96143   9.342   0.566   5.051 -1.7295 -2.0947 -0.2328
  697MOL0     H96144   8.991   0.576   4.905  1.1999 -1.3818 -0.0735
  697MOL0     H96145   8.685   0.555   5.047 -0.2114 -0.8704  0.2179
  697MOL0     H96146   8.759   0.400   5.076 -1.6791  0.6556  0.8966
  697MOL0     H96147   8.798   0.496   4.922  1.3727 -2.2294 -0.4109
  697MOL0     H96148   8.433   0.564   5.291 -3.0502 -2.0327 -0.6750
  697MOL0     H96149   8.265   0.524   5.464 -0.3545 -0.6103  1.2148
  697MOL0     H96150   8.261   0.310   5.856 -1.8035 -0.3074 -2.3871
  697MOL0     H96151   8.427   0.381   5.848 -0.8614 -2.4095 -0.9928
  697MOL0     H96152   8.292   0.529   5.989  0.4408 -1.7350 -0.4813
  697MOL0     H96153   8.294   0.605   5.821 -3.2887  0.3779 -1.4063
  697MOL0     H96154   8.071   0.447   5.941  0.3883  1.4848  0.2717
  697MOL0     H96155   8.077   0.501   5.776  0.8055  1.7008 -0.0747
  697MOL0     H96156   7.947   0.648   5.898  0.2055 -0.9924 -1.8821
  697MOL0     H96157   8.103   0.727   5.869  0.1293  0.7934  0.7955
  697MOL0     H96158   8.022   0.599   6.140  1.0156 -0.2958  1.4222
  697MOL0     H96159   8.170   0.692   6.091  0.1021  0.6923 -1.1046
  697MOL0     H96160   7.914   0.849   6.034 -1.1372 -0.3951  0.6410
  697MOL0     H96161   8.074   0.887   6.104  1.2047 -1.4550  1.1426
  697MOL0     H96162   7.960   0.893   6.310  1.5237 -1.8091  2.0010
  697MOL0     H96163   7.966   0.719   6.301 -0.7038 -0.4541  1.2748
  697MOL0     H96164   7.756   0.902   6.186 -0.6815 -1.1054 -0.9513
  697MOL0     H96165   7.745   0.824   6.342 -1.3448 -1.9189 -0.9568
  697MOL0     H96166   8.556   0.301   5.690 -0.0487 -1.0026 -1.2150
  697MOL0     H96167   8.721   0.355   5.513  0.1623  1.6695 -0.9504
  697MOL0     H96168   9.040   0.649   5.386 -3.0036  0.7032  0.3166
  697MOL0     H96169   9.219   0.704   5.255 -1.6234  0.6295  0.6107
  697MOL0     H96170  10.529   1.737   5.470 -2.0334  1.7457  2.7194
  697MOL0     H96171  10.661   1.875   5.298  0.0559 -1.9225 -0.1363
  697MOL0     H96172  10.504   2.136   4.918 -1.1480  1.0867 -2.8800
  697MOL0     H96173  10.520   2.300   4.755 -2.2999  3.1826  1.3888
  697MOL0     H96174  10.506   2.595   4.839 -0.7496 -0.7228  0.0090
  697MOL0     H96175  10.644   2.684   4.872  1.3305 -0.9802  0.0803
  697MOL0     H96176  10.494   2.675   4.604  1.0613 -1.8813 -0.8181
  697MOL0     H96177  10.662   2.745   4.627  0.1845  0.1144  0.8684
  697MOL0     H96178  10.414   2.833   4.779 -1.1466  2.5367 -0.5905
  697MOL0     H96179  10.573   2.909   4.798  1.1244  0.7622 -0.9322
  697MOL0     H96180  10.382   2.902   4.570 -1.9780  3.0320  1.5641
  697MOL0     H96181  10.550   2.925   4.532  0.3313 -3.5078  0.5939
  697MOL0     H96182  10.360   3.277   4.694  1.1744  1.2410  0.9681
  697MOL0     H96183  10.798   2.537   4.978 -0.2076 -0.7726 -0.6577
  697MOL0     H96184  10.888   2.457   5.186 -1.5112  1.3631  1.7803
  697MOL0     H96185  10.784   2.364   5.288 -0.4551 -3.2125  0.4261
  697MOL0     H96186  10.897   2.276   5.201 -1.2653 -0.6593 -0.5851
  698MOL0     O96187   3.995   9.588   3.823  0.7895 -0.4327  0.1358
  698MOL0     C96188   3.897   9.557   3.896 -1.0754 -0.3720 -0.5115
  698MOL0     O96189   3.835   9.440   3.887  0.0802 -0.2476 -1.0584
  698MOL0     C96190   3.874   9.360   3.791  0.3629  0.3363  0.2261
  698MOL0     C96191   3.977   9.280   3.824  0.9503  0.8270 -0.7711
  698MOL0     C96192   4.010   9.171   3.741  0.1922  0.2046 -0.1115
  698MOL0     C96193   3.934   9.145   3.625 -1.0478 -0.0354  0.7130
  698MOL0     O96194   3.981   9.042   3.542 -0.3435  0.1473  0.2722
  698MOL0     C96195   3.913   9.018   3.413 -0.3316 -0.0679 -0.1177
  698MOL0     C96196   3.967   9.104   3.300 -0.1454 -0.3198  0.0149
  698MOL0     C96197   4.129   9.106   3.300  0.8314 -0.0646  0.4593
  698MOL0     C96198   4.191   8.960   3.322  0.7841  1.0190  1.0935
  698MOL0     C96199   4.349   8.950   3.330  0.3512  0.5148 -0.5567
  698MOL0     C96200   4.396   9.008   3.462  0.5044  0.0717  0.4541
  698MOL0     C96201   4.542   8.990   3.490  1.5394 -0.4946 -0.0752
  698MOL0     C96202   4.572   9.056   3.627 -0.8544 -0.1803  0.6793
  698MOL0     N96203   4.520   9.194   3.651  0.5789  0.1446  0.0657
  698MOL0     C96204   4.424   9.224   3.743 -0.8347 -0.8652  0.0438
  698MOL0     C96205   4.397   9.351   3.711 -0.0901 -0.4296  0.4508
  698MOL0     C96206   4.290   9.437   3.779 -0.1073 -0.9750  0.8203
  698MOL0     C96207   4.337   9.568   3.834 -0.9130 -0.3127  0.1577
  698MOL0     C96208   4.387   9.668   3.726  0.6544 -1.4170  0.1597
  698MOL0     C96209   4.366   9.806   3.791 -0.3875  0.7381 -0.1123
  698MOL0     O96210   4.389   9.909   3.695  0.1081  0.0007  0.3336
  698MOL0     C96211   4.288   9.929   3.605 -0.1482 -0.4004  0.0228
  698MOL0     C96212   4.298   9.863   3.489 -0.0410 -1.0000  0.4156
  698MOL0     C96213   4.204   9.888   3.382  0.7917  0.3866 -0.2896
  698MOL0     C96214   4.213   9.811   3.247  0.3932  0.0159 -0.1133
  698MOL0     C96215   4.093   9.980   3.406  1.0500  0.1714 -1.2948
  698MOL0     C96216   3.989  10.002   3.299 -0.0441  0.2741  0.4971
  698MOL0     O96217   3.871  10.069   3.336 -0.2752  0.4170  0.1266
  698MOL0     C96218   3.785  10.126   3.242  0.4511  0.1031 -1.4599
  698MOL0     C96219   3.800  10.148   3.104  1.1102  1.4250 -0.3436
  698MOL0     C96220   3.688  10.187   3.030 -0.2437  0.6259 -0.1103
  698MOL0     C96221   3.571  10.205   3.099  0.2814  0.2432  0.9913
  698MOL0     O96222   3.475  10.222   3.007 -0.5304  0.0240  1.1461
  698MOL0     C96223   3.344  10.250   3.049 -0.5254  0.1851 -0.3231
  698MOL0     C96224   3.256  10.223   2.927  0.1746 -0.6497  0.1032
  698MOL0     C96225   3.118  10.190   2.966  0.4529 -0.3985 -0.7108
  698MOL0     C96226   3.019  10.234   2.851 -0.2732 -0.4800  0.2994
  698MOL0     C96227   2.895  10.150   2.866  0.3120 -0.3841  0.2660
  698MOL0     C96228   2.791  10.204   2.767 -0.5534 -0.3027  0.1057
  698MOL0     C96229   2.656  10.147   2.790  1.0614  0.2789  0.8325
  698MOL0     C96230   2.559  10.224   2.704 -0.0701  0.8059 -0.0894
  698MOL0    Cl96231   2.412  10.115   2.643  0.0742  0.0358 -0.1909
  698MOL0     C96232   3.554  10.207   3.241 -0.0640  0.5924 -0.6222
  698MOL0     C96233   3.668  10.180   3.311  0.2855 -0.9575  0.2131
  698MOL0     O96234   4.029   9.991   3.184  0.1437 -0.1602  0.6288
  698MOL0     C96235   4.078  10.032   3.531 -0.1273  0.0127 -0.2003
  698MOL0     C96236   4.172  10.009   3.634  0.0285 -0.1839 -0.7843
  698MOL0     N96237   4.468   9.397   3.604 -0.6731  0.2370  0.1782
  698MOL0     N96238   4.533   9.301   3.567  0.1566 -0.0753 -0.3737
  698MOL0     C96239   3.837   9.239   3.587 -0.4809  0.5109 -0.2528
  698MOL0     C96240   3.801   9.345   3.672  0.2415  0.2903 -0.0719
  698MOL0     C96241   3.864   9.637   4.017  1.0796  1.0893  0.8020
  698MOL0     C96242   3.787   9.588   4.124 -0.2350  0.1082  0.5370
  698MOL0     C96243   3.757   9.674   4.237 -1.0378  0.0884  0.5477
  698MOL0     C96244   3.781   9.812   4.230 -0.7609 -0.2012 -0.3362
  698MOL0     O96245   3.746   9.894   4.339  0.9833 -0.1470  0.3456
  698MOL0     C96246   3.610   9.890   4.383 -0.5587  0.0863 -0.2056
  698MOL0     C96247   3.597   9.827   4.528 -1.0036  0.1833 -0.0989
  698MOL0     C96248   3.467   9.853   4.597 -0.6428  0.5462  0.1903
  698MOL0     C96249   3.449   9.801   4.741  0.3686  0.4457 -0.5328
  698MOL0     C96250   3.321   9.841   4.800  0.3245  0.7226  1.3241
  698MOL0     C96251   3.211   9.860   4.847  0.0369  0.2260 -0.3261
  698MOL0     C96252   3.847   9.863   4.126  0.2227  0.7672 -0.0354
  698MOL0     C96253   3.890   9.779   4.021 -0.8352  0.1252 -0.3634
  698MOL0     C96254   3.980   9.854   3.920 -0.7274 -0.5401 -0.1103
  698MOL0     H96255   4.041   9.292   3.911  0.7066  1.8821 -0.7160
  698MOL0     H96256   4.081   9.090   3.760 -0.4161  0.0014  1.3849
  698MOL0     H96257   3.804   9.021   3.422 -0.4219 -1.7503 -0.4383
  698MOL0     H96258   3.936   8.920   3.372  2.3618  1.4672 -2.6602
  698MOL0     H96259   3.918   9.075   3.207 -3.5750  0.4150  1.4458
  698MOL0     H96260   3.936   9.208   3.312 -0.5425 -0.5557  1.2457
  698MOL0     H96261   4.169   9.139   3.203 -1.7455  0.5147 -0.4927
  698MOL0     H96262   4.166   9.164   3.385  1.9367 -1.1989  0.7861
  698MOL0     H96263   4.141   8.919   3.411 -3.5474  2.0223 -0.6244
  698MOL0     H96264   4.159   8.891   3.244 -0.4689  3.2450 -0.4608
  698MOL0     H96265   4.385   9.005   3.243 -1.6780 -0.3817 -2.0546
  698MOL0     H96266   4.365   8.843   3.314  1.5766  0.7837 -1.2264
  698MOL0     H96267   4.367   9.112   3.477 -0.3487 -0.3035  1.6591
  698MOL0     H96268   4.335   8.962   3.541 -0.1686 -0.1959 -0.2063
  698MOL0     H96269   4.608   9.050   3.426  0.3220  0.6791 -0.2639
  698MOL0     H96270   4.565   8.884   3.501 -1.8504 -1.2419  0.7959
  698MOL0     H96271   4.545   8.994   3.713 -1.2921 -0.3867  0.3917
  698MOL0     H96272   4.682   9.051   3.630 -0.8570 -1.7325 -0.7038
  698MOL0     H96273   4.373   9.170   3.822 -2.6016  1.8799  0.8911
  698MOL0     H96274   4.258   9.378   3.866  0.3678 -0.3365  1.4470
  698MOL0     H96275   4.206   9.459   3.713  0.4095 -0.6412  0.2733
  698MOL0     H96276   4.274   9.609   3.914  1.3561  2.4970  0.6775
  698MOL0     H96277   4.425   9.568   3.899 -0.4543 -2.0368 -0.4006
  698MOL0     H96278   4.491   9.653   3.697  1.1795  3.1831 -1.2280
  698MOL0     H96279   4.322   9.657   3.638 -1.0422 -0.1033  1.1767
  698MOL0     H96280   4.260   9.805   3.819 -1.6533  0.1112 -4.1655
  698MOL0     H96281   4.425   9.822   3.881 -2.7202  2.5724  1.1969
  698MOL0     H96282   4.397   9.820   3.480 -0.0708 -1.3930  1.6958
  698MOL0     H96283   4.262   9.880   3.178 -0.1943  0.4216 -0.1348
  698MOL0     H96284   4.115   9.784   3.208 -1.4391  2.9238  2.0315
  698MOL0     H96285   4.282   9.726   3.252  1.1285  0.5282 -1.1271
  698MOL0     H96286   3.896  10.127   3.058  1.1071  3.4093 -1.3564
  698MOL0     H96287   3.681  10.204   2.924 -2.3864 -1.7556 -0.4537
  698MOL0     H96288   3.317  10.171   3.121  0.7972 -1.2298 -1.3187
  698MOL0     H96289   3.330  10.352   3.087 -3.5103 -1.1986  2.8391
  698MOL0     H96290   3.264  10.315   2.869 -2.9330  1.4315  2.6004
  698MOL0     H96291   3.294  10.135   2.874  0.9982 -1.9826  2.7222
  698MOL0     H96292   3.092  10.240   3.059  0.3356  0.2650 -1.0954
  698MOL0     H96293   3.121  10.082   2.985  1.0939 -0.3374 -0.4613
  698MOL0     H96294   3.066  10.214   2.754  3.8861  2.3043  1.5004
  698MOL0     H96295   2.995  10.340   2.861 -1.0046 -0.4345 -1.5529
  698MOL0     H96296   2.916  10.045   2.843  0.7105 -0.3556  0.4813
  698MOL0     H96297   2.877  10.170   2.972  0.0727  1.7386 -0.1444
  698MOL0     H96298   2.829  10.183   2.666 -1.6444  0.2257 -0.4307
  698MOL0     H96299   2.780  10.313   2.765  0.5260 -0.1971 -0.7774
  698MOL0     H96300   2.622  10.140   2.894 -0.6394 -2.0153  0.2119
  698MOL0     H96301   2.663  10.040   2.766 -1.9097  0.3028 -0.7176
  698MOL0     H96302   2.600  10.272   2.614  3.2451  4.8356  3.1444
  698MOL0     H96303   2.521  10.304   2.769 -2.1546 -0.1868 -0.0171
  698MOL0     H96304   3.459  10.232   3.287  1.1827 -0.1796  2.6270
  698MOL0     H96305   3.669  10.190   3.419  2.6818 -2.9030  0.4657
  698MOL0     H96306   3.994  10.093   3.563  1.4120  2.3623 -0.3292
  698MOL0     H96307   4.164  10.060   3.729 -1.1191 -1.2483 -0.2811
  698MOL0     H96308   3.783   9.223   3.494  0.5463 -3.7060 -0.3510
  698MOL0     H96309   3.719   9.412   3.647 -0.2281 -0.0409  0.5764
  698MOL0     H96310   3.760   9.484   4.139  0.5883 -0.0238  1.2191
  698MOL0     H96311   3.712   9.634   4.327  1.0293 -2.0727  0.7077
  698MOL0     H96312   3.563   9.989   4.373 -0.8902  0.0742  1.1155
  698MOL0     H96313   3.553   9.822   4.319 -1.4580 -0.0549  0.7103
  698MOL0     H96314   3.686   9.856   4.584 -0.4542 -1.4751 -0.0571
  698MOL0     H96315   3.604   9.717   4.525 -0.0529  0.2311  0.2214
  698MOL0     H96316   3.428   9.954   4.584 -1.3666  0.4296  1.3854
  698MOL0     H96317   3.391   9.800   4.539 -1.6155  0.3014  1.6503
  698MOL0     H96318   3.526   9.840   4.808 -0.7248 -0.2404  1.1879
  698MOL0     H96319   3.456   9.692   4.752  1.1153  0.3235 -1.9899
  698MOL0     H96320   3.112   9.886   4.879 -0.5414  0.8836 -2.4901
  698MOL0     H96321   3.870   9.969   4.126 -1.4436  1.1457  0.3693
  698MOL0     H96322   4.086   9.837   3.938 -0.5180  2.0502  1.5978
  698MOL0     H96323   3.948   9.841   3.816 -1.5203 -0.8028  0.1560
  698MOL0     H96324   3.979   9.963   3.934  0.2767 -0.8035  2.5821
  699MOL0     O96325   4.623   7.277   3.278  0.9168 -0.2561 -0.2171
  699MOL0     C96326   4.743   7.289   3.279  0.0760 -0.0779  0.1674
  699MOL0     O96327   4.837   7.200   3.228  0.5563  0.2106  0.3734
  699MOL0     C96328   4.801   7.077   3.178 -0.1924 -0.1607 -0.5309
  699MOL0     C96329   4.677   7.012   3.171 -0.0971 -0.7094  0.5664
  699MOL0     C96330   4.665   6.879   3.134 -0.4338 -0.4017  0.2983
  699MOL0     C96331   4.779   6.814   3.089 -1.4385 -1.0476  0.0688
  699MOL0     O96332   4.746   6.688   3.037 -0.3049 -0.0908 -0.0060
  699MOL0     C96333   4.811   6.623   2.925  0.4914 -0.1206 -0.7732
  699MOL0     C96334   4.881   6.487   2.974 -0.3850 -0.0187 -0.0216
  699MOL0     C96335   4.890   6.378   2.857 -0.3471  0.6201  0.3303
  699MOL0     C96336   4.931   6.444   2.725 -0.2565  0.0949  0.3015
  699MOL0     C96337   4.901   6.347   2.609  0.0145  0.1850 -0.6598
  699MOL0     C96338   5.017   6.250   2.575 -0.5135  0.0347 -0.3912
  699MOL0     C96339   4.986   6.155   2.453  0.4961 -0.7311 -0.6900
  699MOL0     C96340   5.007   6.224   2.326 -0.1626 -0.7294  0.4270
  699MOL0     N96341   5.145   6.203   2.280 -0.3083  0.4148  0.7454
  699MOL0     C96342   5.176   6.100   2.201 -0.6078  0.0392 -0.2670
  699MOL0     C96343   5.311   6.107   2.169 -0.5859 -1.4120  0.2677
  699MOL0     C96344   5.398   6.023   2.079 -0.4499  0.1378  0.7248
  699MOL0     C96345   5.380   5.870   2.115  0.0760  1.1287 -0.7660
  699MOL0     C96346   5.511   5.806   2.093 -0.0122 -0.4141 -0.2880
  699MOL0     C96347   5.497   5.658   2.113 -0.4027  0.3350  0.4760
  699MOL0     O96348   5.615   5.582   2.122  0.8091 -0.2478 -0.7260
  699MOL0     C96349   5.588   5.447   2.105  0.7026 -0.2932 -0.8231
  699MOL0     C96350   5.634   5.392   1.986 -0.3661  0.7641 -0.8827
  699MOL0     C96351   5.621   5.252   1.972 -1.2839 -0.6604  0.9631
  699MOL0     C96352   5.669   5.203   1.844  0.4693  0.3457  0.4507
  699MOL0     C96353   5.538   5.180   2.063  0.3516  0.7801  0.9087
  699MOL0     C96354   5.500   5.044   2.037  0.3927  0.8188  0.5684
  699MOL0     O96355   5.600   4.961   2.004 -0.5560  0.3995  0.7768
  699MOL0     C96356   5.574   4.847   1.942  0.6010  0.7322 -0.5573
  699MOL0     C96357   5.601   4.722   2.011  0.7896  0.3242 -0.8104
  699MOL0     C96358   5.587   4.602   1.941  0.0750 -0.7850  0.1858
  699MOL0     C96359   5.547   4.604   1.808 -0.2901 -0.2053 -1.3365
  699MOL0     O96360   5.561   4.477   1.743 -1.1044  0.5771 -0.4637
  699MOL0     C96361   5.614   4.464   1.614 -0.5793  0.0365 -0.5259
  699MOL0     C96362   5.754   4.532   1.595  0.4261 -0.4752  0.0866
  699MOL0     C96363   5.829   4.530   1.454 -0.0302  0.5549  0.1943
  699MOL0     C96364   5.776   4.425   1.359  0.8716 -0.7005 -0.1504
  699MOL0     C96365   5.855   4.399   1.220 -0.0161 -0.0206 -1.0784
  699MOL0     C96366   5.983   4.315   1.244  0.9250  0.2881  0.2790
  699MOL0     C96367   6.027   4.242   1.119 -0.3629  0.5217  0.2266
  699MOL0     C96368   6.123   4.321   1.035 -0.2464 -0.2361 -0.8662
  699MOL0    Cl96369   6.275   4.351   1.118 -0.2206  0.5305 -0.3122
  699MOL0     C96370   5.497   4.724   1.746 -0.3213 -0.3195 -0.2448
  699MOL0     C96371   5.514   4.848   1.816  0.4936  0.2847  0.2887
  699MOL0     O96372   5.382   5.022   2.031 -0.0146  0.8955  0.2073
  699MOL0     C96373   5.481   5.248   2.172  0.2678 -0.1129  0.4009
  699MOL0     C96374   5.505   5.380   2.193 -0.2270 -0.4245  0.3582
  699MOL0     N96375   5.353   6.223   2.213 -1.0885 -0.0220  0.3413
  699MOL0     N96376   5.251   6.282   2.276 -0.4133 -1.3624  0.3515
  699MOL0     C96377   4.908   6.882   3.087 -0.2464 -0.1501 -0.2073
  699MOL0     C96378   4.917   7.010   3.134  0.7912  0.1606  0.0958
  699MOL0     C96379   4.798   7.423   3.303 -0.1965  0.1205  0.6914
  699MOL0     C96380   5.008   7.458   3.289 -0.1740 -0.2602 -0.2071
  699MOL0     C96381   5.087   7.647   3.345 -0.2773 -1.3326 -0.3776
  699MOL0     C96382   4.956   7.800   3.416 -0.2300  0.5132  0.7252
  699MOL0     O96383   5.008   7.927   3.446 -0.0161  1.1811 -0.3686
  699MOL0     C96384   4.921   8.027   3.496  0.2683 -0.0274  0.2904
  699MOL0     C96385   4.887   8.009   3.649 -0.8534  0.0294  0.1510
  699MOL0     C96386   4.873   8.142   3.728  0.4139  1.4249 -0.7278
  699MOL0     C96387   4.759   8.139   3.835 -0.4060 -0.3486 -0.5871
  699MOL0     C96388   4.790   8.054   3.954 -1.4976  0.2699  0.8915
  699MOL0     C96389   4.808   7.980   4.053  0.4280  0.4752  0.5110
  699MOL0     C96390   4.748   7.764   3.424  0.4742  0.6765  0.3102
  699MOL0     C96391   4.667   7.578   3.365 -0.9630  0.1894  0.7597
  699MOL0     C96392   4.513   7.564   3.380  0.5461  0.3880  0.0454
  699MOL0     H96393   4.583   7.055   3.204  0.5605  1.2096  0.1041
  699MOL0     H96394   4.577   6.815   3.143 -0.2123 -0.7142  0.2257
  699MOL0     H96395   4.887   6.694   2.891  1.6165  0.0749  1.8467
  699MOL0     H96396   4.734   6.604   2.850 -1.4848  0.2866  1.0823
  699MOL0     H96397   4.980   6.508   3.014 -0.6678 -2.3376  2.1789
  699MOL0     H96398   4.835   6.431   3.056 -2.1764  2.0157  0.4769
  699MOL0     H96399   4.965   6.302   2.878 -0.8984 -0.0508 -0.0675
  699MOL0     H96400   4.795   6.324   2.844  0.9814 -1.5888 -0.7753
  699MOL0     H96401   4.867   6.527   2.696 -0.9044 -1.3312 -2.8435
  699MOL0     H96402   5.037   6.472   2.731 -0.1428 -0.6112  1.9780
  699MOL0     H96403   4.897   6.406   2.517  2.2702 -1.0219 -1.6069
  699MOL0     H96404   4.806   6.297   2.631  0.7802 -0.0577  2.5650
  699MOL0     H96405   5.112   6.294   2.544  0.7702 -2.2807  0.0200
  699MOL0     H96406   5.038   6.185   2.661 -0.2773  1.0559  0.3372
  699MOL0     H96407   4.887   6.110   2.463 -0.7037  1.9193  0.6170
  699MOL0     H96408   5.056   6.072   2.465 -1.9215 -2.8420 -0.3329
  699MOL0     H96409   4.939   6.189   2.247  0.2959  1.6551 -1.1337
  699MOL0     H96410   4.996   6.332   2.324  2.7041 -0.3603 -0.9661
  699MOL0     H96411   5.122   6.012   2.167 -1.3734 -0.3384  1.7903
  699MOL0     H96412   5.504   6.049   2.077  0.2545 -2.4702 -0.9493
  699MOL0     H96413   5.363   6.034   1.976  0.3063  2.5619  0.6639
  699MOL0     H96414   5.336   5.843   2.211 -1.1738  2.7481 -0.8461
  699MOL0     H96415   5.307   5.833   2.043 -1.6545  0.5824  1.1811
  699MOL0     H96416   5.563   5.834   2.000  1.1769 -2.9262 -0.4558
  699MOL0     H96417   5.562   5.841   2.183  0.9701 -2.9952  0.2286
  699MOL0     H96418   5.445   5.652   2.210  0.6814 -1.6493  0.9863
  699MOL0     H96419   5.434   5.626   2.029  0.6913  1.5983 -0.8740
  699MOL0     H96420   5.694   5.468   1.937  1.5267  0.0989  0.2961
  699MOL0     H96421   5.642   5.098   1.826  2.5105 -0.4473  1.6975
  699MOL0     H96422   5.776   5.209   1.824  0.5723 -2.2453 -0.2028
  699MOL0     H96423   5.629   5.273   1.771  0.7623  1.4428  1.3235
  699MOL0     H96424   5.639   4.732   2.112 -0.3575 -2.4859 -0.0196
  699MOL0     H96425   5.625   4.515   1.995  1.3427 -0.4739 -0.1779
  699MOL0     H96426   5.618   4.359   1.583 -2.1809 -0.8778  2.0664
  699MOL0     H96427   5.533   4.517   1.563 -1.3152  0.5330  1.1104
  699MOL0     H96428   5.756   4.636   1.629 -0.4184 -0.2485 -0.5225
  699MOL0     H96429   5.825   4.476   1.656 -0.8015 -2.3479 -0.1296
  699MOL0     H96430   5.930   4.504   1.487 -1.1182 -1.1023  2.4778
  699MOL0     H96431   5.829   4.630   1.408 -1.3848 -0.1686 -1.4929
  699MOL0     H96432   5.670   4.449   1.345  0.5133 -3.1028 -2.2324
  699MOL0     H96433   5.766   4.334   1.417 -0.8484  0.0339  0.7714
  699MOL0     H96434   5.793   4.335   1.157 -1.8824 -2.8845  3.1846
  699MOL0     H96435   5.862   4.493   1.165 -4.5199 -0.3305 -2.5416
  699MOL0     H96436   5.972   4.232   1.315 -0.0979  2.0595  2.3233
  699MOL0     H96437   6.071   4.368   1.282  1.6015 -0.7004  0.1303
  699MOL0     H96438   5.940   4.224   1.055  0.4771 -0.7895 -0.5871
  699MOL0     H96439   6.084   4.151   1.139  5.0784  3.2115 -1.1302
  699MOL0     H96440   6.076   4.418   1.016 -2.6941 -0.4997  2.8901
  699MOL0     H96441   6.127   4.267   0.939 -0.8861 -2.0013  0.0554
  699MOL0     H96442   5.450   4.718   1.648  0.8532  1.2186 -0.9438
  699MOL0     H96443   5.485   4.939   1.765  1.2068 -0.0060 -0.6737
  699MOL0     H96444   5.424   5.192   2.245  1.5729 -1.5778  0.3584
  699MOL0     H96445   5.482   5.424   2.289 -3.5464  0.2571 -0.6171
  699MOL0     H96446   4.997   6.838   3.044 -0.8610 -2.0267  0.3475
  699MOL0     H96447   5.015   7.055   3.146  1.4114 -1.1446  0.1193
  699MOL0     H96448   5.063   7.371   3.255 -2.5529 -0.6947 -3.4672
  699MOL0     H96449   5.195   7.654   3.339 -0.3458  1.2882  0.4999
  699MOL0     H96450   4.977   8.121   3.486  0.1850 -0.0593 -0.6310
  699MOL0     H96451   4.828   8.035   3.438  0.0990  2.5478  0.7606
  699MOL0     H96452   4.962   7.944   3.694 -0.7396 -2.2728 -3.0420
  699MOL0     H96453   4.801   7.941   3.650  0.5149 -1.7879 -1.1298
  699MOL0     H96454   4.962   8.164   3.787 -0.1289  0.8179  0.3351
  699MOL0     H96455   4.848   8.221   3.657  1.2471  0.7401 -1.8201
  699MOL0     H96456   4.664   8.101   3.796 -1.2448 -3.7772  3.9222
  699MOL0     H96457   4.744   8.241   3.871 -1.2094 -0.4933 -0.4943
  699MOL0     H96458   4.835   7.933   4.145  2.8433  1.6810  0.5162
  699MOL0     H96459   4.679   7.842   3.454  0.8507  1.0325  0.2584
  699MOL0     H96460   4.500   7.514   3.476  2.4752  2.3725  1.4313
  699MOL0     H96461   4.482   7.666   3.401 -0.0521  0.3508 -0.6131
  699MOL0     H96462   4.451   7.525   3.299  1.6665  2.0940 -1.7293
  700MOL0     O96463   5.947  10.678   8.574 -0.5737 -0.3795 -0.5113
  700MOL0     C96464   5.937  10.568   8.522 -0.9497  0.1175 -0.3279
  700MOL0     O96465   5.942  10.453   8.599 -0.0526  0.2984  0.1582
  700MOL0     C96466   5.932  10.455   8.733 -0.7343  0.3800 -0.4784
  700MOL0     C96467   6.043  10.499   8.809 -0.6014 -0.5564 -0.4453
  700MOL0     C96468   6.034  10.508   8.948  0.0878  0.6906  0.2144
  700MOL0     C96469   5.922  10.460   9.011 -0.1083  0.1108 -0.9260
  700MOL0     O96470   5.917  10.447   9.152 -0.2090  0.1603 -0.2740
  700MOL0     C96471   6.020  10.376   9.216 -0.4194  0.0675 -0.3769
  700MOL0     C96472   6.072  10.253   9.123  0.2782  0.9776 -0.5537
  700MOL0     C96473   5.974  10.129   9.143 -0.5883 -0.1372  0.1604
  700MOL0     C96474   6.036  10.018   9.067  0.0508  0.3042 -0.2463
  700MOL0     C96475   5.979   9.873   9.084  0.3345 -0.7063  0.0717
  700MOL0     C96476   5.995   9.827   9.230 -0.0267  0.3542 -0.5558
  700MOL0     C96477   6.127   9.751   9.259  0.2471 -0.6377 -0.8872
  700MOL0     C96478   6.254   9.839   9.272 -0.1292 -0.2271 -0.4433
  700MOL0     N96479   6.356   9.750   9.339 -0.4964 -0.3570  0.2833
  700MOL0     C96480   6.387   9.618   9.335 -0.0860  0.6960  0.1115
  700MOL0     C96481   6.512   9.598   9.389 -0.1598 -0.6822  0.1460
  700MOL0     C96482   6.598   9.471   9.383  0.2085  1.0008  0.1694
  700MOL0     C96483   6.725   9.473   9.293  0.0522 -0.4178  1.2818
  700MOL0     C96484   6.789   9.334   9.292 -0.2090  0.0506  1.0134
  700MOL0     C96485   6.927   9.321   9.212  0.1209  0.4063  0.1723
  700MOL0     O96486   7.038   9.404   9.252  0.2456 -0.0908 -0.3237
  700MOL0     C96487   7.101   9.378   9.375  0.4695 -0.1378  0.2607
  700MOL0     C96488   7.168   9.264   9.398  0.5839  0.0946 -0.5787
  700MOL0     C96489   7.253   9.249   9.507  1.0270 -0.7346  0.9470
  700MOL0     C96490   7.300   9.114   9.526 -0.4167  0.6731 -0.4550
  700MOL0     C96491   7.267   9.358   9.600  0.6533 -0.2447 -0.3805
  700MOL0     C96492   7.345   9.355   9.726 -0.1253  0.5021 -0.4782
  700MOL0     O96493   7.308   9.436   9.833 -0.6956 -0.1221  0.1628
  700MOL0     C96494   7.392   9.445   9.936  0.3635 -0.1514  0.3711
  700MOL0     C96495   7.502   9.532   9.927 -0.1911 -0.2973  0.4399
  700MOL0     C96496   7.577   9.565  10.031 -0.7477  0.6197  0.5901
  700MOL0     C96497   7.551   9.517  10.159 -0.6922  0.3522 -0.5752
  700MOL0     O96498   7.628   9.544  10.270 -0.1151 -0.0630 -0.1691
  700MOL0     C96499   7.563   9.610  10.375  0.0853  0.5613 -0.7508
  700MOL0     C96500   7.671   9.698  10.449 -0.1641 -0.3698  0.4282
  700MOL0     C96501   7.602   9.782  10.558  0.3058  0.6159 -0.0100
  700MOL0     C96502   7.700   9.867  10.623  0.2226  0.6870 -0.2005
  700MOL0     C96503   7.648   9.941  10.744  0.2544  0.6485  0.6339
  700MOL0     C96504   7.626   9.842  10.871  0.0284  0.3551  1.1641
  700MOL0     C96505   7.564   9.924  10.975  1.3927 -0.4588  0.5430
  700MOL0     C96506   7.526   9.849  11.101 -0.1492 -0.3359  0.6533
  700MOL0    Cl96507   7.437   9.691  11.087 -0.0265  0.6432  0.1510
  700MOL0     C96508   7.447   9.431  10.172 -0.1240 -0.2379  0.3633
  700MOL0     C96509   7.367   9.387  10.062 -0.0366  0.1050 -0.2705
  700MOL0     O96510   7.440   9.273   9.729 -0.2858  0.2392 -0.3611
  700MOL0     C96511   7.201   9.475   9.570  0.0577  0.2403 -0.1051
  700MOL0     C96512   7.113   9.480   9.467  0.7915  0.4635  0.5354
  700MOL0     N96513   6.560   9.728   9.420 -0.3469  0.1030 -0.8618
  700MOL0     N96514   6.475   9.820   9.381  0.0823  0.3647  0.6899
  700MOL0     C96515   5.817  10.406   8.935  0.3417  0.5479 -1.1367
  700MOL0     C96516   5.820  10.408   8.793  0.1720 -0.2319  0.1051
  700MOL0     C96517   5.919  10.556   8.371 -0.5311  0.3030 -0.8183
  700MOL0     C96518   5.960  10.445   8.300  0.0122  0.4820  0.3031
  700MOL0     C96519   5.956  10.440   8.160  0.5501 -0.2770  0.2693
  700MOL0     C96520   5.892  10.543   8.087 -0.1255  0.6082 -0.1547
  700MOL0     O96521   5.878  10.525   7.953 -0.4226  0.6139 -0.2247
  700MOL0     C96522   5.852  10.648   7.871 -0.7071 -0.3234 -0.4754
  700MOL0     C96523   5.974  10.748   7.866  0.2200 -1.3560 -0.2296
  700MOL0     C96524   6.073  10.687   7.763 -0.2271  0.3692 -0.3141
  700MOL0     C96525   6.185  10.786   7.728  0.2461  0.9173  0.0950
  700MOL0     C96526   6.126  10.882   7.632  1.0530 -0.3253  0.1065
  700MOL0     C96527   6.072  10.972   7.571 -0.1261 -0.2547 -0.3900
  700MOL0     C96528   5.859  10.658   8.163 -0.1817  0.6907  0.5207
  700MOL0     C96529   5.874  10.675   8.298  0.5594  0.8326 -0.3155
  700MOL0     C96530   5.821  10.804   8.352 -0.1904 -0.4178  0.7904
  700MOL0     H96531   6.138  10.533   8.768  0.6782 -0.8836  2.0674
  700MOL0     H96532   6.121  10.548   8.999 -2.3782  3.1263  2.8574
  700MOL0     H96533   5.978  10.342   9.311 -0.5644  0.3477 -0.3396
  700MOL0     H96534   6.099  10.449   9.231  0.1200 -0.7108  0.7617
  700MOL0     H96535   6.078  10.278   9.017  0.9712 -2.2707 -1.3864
  700MOL0     H96536   6.170  10.230   9.165 -0.1642  2.8135  1.6718
  700MOL0     H96537   5.984  10.094   9.246 -1.4358  0.0751  0.3258
  700MOL0     H96538   5.865  10.142   9.136 -0.7723 -2.0573 -1.3834
  700MOL0     H96539   6.017  10.045   8.963  2.9573  1.7262 -0.5090
  700MOL0     H96540   6.145  10.016   9.075  0.2428  2.8611 -1.2242
  700MOL0     H96541   6.029   9.805   9.014 -1.4929 -0.5105 -1.5109
  700MOL0     H96542   5.872   9.867   9.060  0.8038  0.6336 -2.7004
  700MOL0     H96543   5.973   9.904   9.304 -0.2835 -1.1927  1.0369
  700MOL0     H96544   5.916   9.754   9.249 -0.7424  1.3088  0.1898
  700MOL0     H96545   6.136   9.664   9.193 -0.8419 -0.0117 -1.9206
  700MOL0     H96546   6.107   9.725   9.363  1.0261  1.4599 -0.1551
  700MOL0     H96547   6.292   9.882   9.180 -0.0831  0.0363 -0.3011
  700MOL0     H96548   6.232   9.927   9.333 -3.5512 -1.0803 -0.2088
  700MOL0     H96549   6.326   9.531   9.312  0.5679 -0.3830  2.1268
  700MOL0     H96550   6.537   9.386   9.352 -3.1313  3.3510 -0.3041
  700MOL0     H96551   6.644   9.453   9.481  0.3361 -0.2168 -0.1082
  700MOL0     H96552   6.696   9.516   9.197 -2.8475  0.3975  2.4146
  700MOL0     H96553   6.787   9.552   9.335 -1.2489  0.0734  2.3750
  700MOL0     H96554   6.810   9.311   9.397  1.1932 -1.1498  0.5189
  700MOL0     H96555   6.726   9.260   9.241  1.6184  0.8185 -2.6878
  700MOL0     H96556   6.954   9.216   9.206 -0.4059  0.3068 -0.7547
  700MOL0     H96557   6.906   9.354   9.110 -0.6384  1.2803  0.5919
  700MOL0     H96558   7.168   9.185   9.323 -0.0171  0.1719 -0.6684
  700MOL0     H96559   7.229   9.037   9.493  2.3277 -2.6406  0.7499
  700MOL0     H96560   7.314   9.084   9.630 -0.2129  1.0311 -0.3757
  700MOL0     H96561   7.398   9.113   9.478 -0.6032  3.1646 -1.0241
  700MOL0     H96562   7.528   9.584   9.835 -0.3282 -1.2390 -0.1574
  700MOL0     H96563   7.656   9.640  10.027 -0.0745 -0.1180 -1.4336
  700MOL0     H96564   7.474   9.663  10.339 -1.1212 -0.8970 -0.0033
  700MOL0     H96565   7.528   9.533  10.444 -1.2412  1.2968 -0.5767
  700MOL0     H96566   7.740   9.633  10.504 -0.7266  1.0249  2.9597
  700MOL0     H96567   7.729   9.764  10.384  1.0405  1.2543  2.9874
  700MOL0     H96568   7.558   9.717  10.634 -1.2607 -0.1208 -1.4775
  700MOL0     H96569   7.521   9.841  10.513  0.5933  0.6796 -0.4582
  700MOL0     H96570   7.741   9.934  10.547  1.8199 -1.1059 -0.9748
  700MOL0     H96571   7.786   9.809  10.659  2.4619  3.7951 -0.0431
  700MOL0     H96572   7.715  10.024  10.770 -2.1508  1.8210  3.7601
  700MOL0     H96573   7.551   9.985  10.721 -0.0223  0.4269  1.3705
  700MOL0     H96574   7.722   9.793  10.891  0.8484  0.9512 -1.0639
  700MOL0     H96575   7.565   9.756  10.840  1.8494 -0.1202 -1.4572
  700MOL0     H96576   7.472   9.970  10.937  2.3483 -0.0621 -1.4530
  700MOL0     H96577   7.635  10.005  10.992 -0.8568  2.4734 -2.6815
  700MOL0     H96578   7.488   9.920  11.174  1.5731 -1.4816  2.7742
  700MOL0     H96579   7.621   9.817  11.144  0.4455 -0.1294 -0.4743
  700MOL0     H96580   7.428   9.385  10.269 -1.3638 -0.4250  0.0429
  700MOL0     H96581   7.304   9.299  10.074  0.7112 -0.7371 -2.2248
  700MOL0     H96582   7.209   9.549   9.650  0.8928 -2.2749  2.3056
  700MOL0     H96583   7.057   9.573   9.465 -2.0810 -1.1452 -1.5290
  700MOL0     H96584   5.723  10.372   8.978 -0.6681  0.5633 -3.1583
  700MOL0     H96585   5.741  10.368   8.731  0.3202 -0.3090 -0.0347
  700MOL0     H96586   6.014  10.363   8.347 -1.4787 -0.3039  0.7023
  700MOL0     H96587   5.988  10.350   8.108  1.3082  1.6594 -2.9205
  700MOL0     H96588   5.829  10.618   7.768  0.9545  2.7606 -1.8714
  700MOL0     H96589   5.763  10.693   7.916 -1.5757 -0.6027 -1.8401
  700MOL0     H96590   6.017  10.771   7.964  1.6789  0.2218 -1.1819
  700MOL0     H96591   5.950  10.848   7.829  2.3414 -0.3061  1.0844
  700MOL0     H96592   6.118  10.595   7.800  3.4452  0.0530 -4.7082
  700MOL0     H96593   6.013  10.669   7.674  0.0501  0.0840 -0.4417
  700MOL0     H96594   6.274  10.740   7.683 -0.8007 -0.5945 -0.4855
  700MOL0     H96595   6.219  10.837   7.819  2.4521 -1.2722  0.6085
  700MOL0     H96596   6.017  11.058   7.540 -0.7546 -0.4728  0.0941
  700MOL0     H96597   5.838  10.754   8.116  0.4299  0.7872  0.4350
  700MOL0     H96598   5.725  10.769   8.390 -0.5543  0.6939  0.9267
  700MOL0     H96599   5.880  10.859   8.426 -0.8919 -0.7440  1.6009
  700MOL0     H96600   5.787  10.873   8.274 -1.6713 -2.6317 -0.6453
  701MOL0     O96601   9.968  11.515   7.550  0.8856  0.1376 -0.9743
  701MOL0     C96602   9.979  11.607   7.476 -0.6235 -0.4227  0.0377
  701MOL0     O96603  10.017  11.732   7.507  0.4244 -0.2747  0.0215
  701MOL0     C96604  10.004  11.777   7.629  0.1238  0.7105 -0.4604
  701MOL0     C96605   9.953  11.909   7.652  0.2033 -0.6845  0.0865
  701MOL0     C96606   9.957  11.967   7.777 -1.0663 -1.0779 -0.3210
  701MOL0     C96607  10.006  11.906   7.892 -1.1313  0.6403  0.7504
  701MOL0     O96608  10.012  11.970   8.010 -0.5955  0.1716 -0.0232
  701MOL0     C96609  10.054  11.892   8.130  0.0852 -0.3730  0.6818
  701MOL0     C96610  10.047  11.986   8.254  0.1508 -0.3204  0.4754
  701MOL0     C96611   9.925  11.992   8.331  0.6773  0.1679 -0.1518
  701MOL0     C96612   9.803  12.038   8.250 -0.3149  0.5660  0.2524
  701MOL0     C96613   9.686  12.053   8.347  0.5977  0.2323 -0.7973
  701MOL0     C96614   9.555  12.060   8.268  0.9626  0.2538  0.0603
  701MOL0     C96615   9.437  12.071   8.364 -0.7272  0.3704 -0.9302
  701MOL0     C96616   9.303  12.040   8.289  0.0102 -0.3909 -0.1402
  701MOL0     N96617   9.194  12.105   8.358 -0.6009  0.7578  0.1946
  701MOL0     C96618   9.121  12.224   8.333 -0.0777  0.5316 -0.2970
  701MOL0     C96619   9.018  12.220   8.426  0.3980 -0.4693  0.5523
  701MOL0     C96620   8.909  12.322   8.440 -0.4580 -0.2343 -0.2121
  701MOL0     C96621   8.956  12.462   8.420  0.5485 -0.5296  0.3812
  701MOL0     C96622   8.861  12.584   8.460 -0.4322 -0.1051 -0.0036
  701MOL0     C96623   8.941  12.710   8.475  0.5150 -0.2136  0.3151
  701MOL0     O96624   8.873  12.796   8.567 -0.0389  0.6259  0.2805
  701MOL0     C96625   8.780  12.885   8.522  0.8964  0.3352  0.0576
  701MOL0     C96626   8.729  12.958   8.623  0.0300 -0.2496 -0.1114
  701MOL0     C96627   8.618  13.038   8.614 -0.1199 -0.9271 -0.5211
  701MOL0     C96628   8.580  13.104   8.737 -0.4630  0.2533  0.2392
  701MOL0     C96629   8.560  13.055   8.478 -1.1226  0.7676  0.9221
  701MOL0     C96630   8.450  13.149   8.456  0.4799 -0.4934  0.7696
  701MOL0     O96631   8.425  13.258   8.542  0.6669 -0.1941  0.1174
  701MOL0     C96632   8.302  13.318   8.529  0.6568 -0.3392 -0.4335
  701MOL0     C96633   8.297  13.442   8.458 -0.1208 -0.0489  0.4859
  701MOL0     C96634   8.177  13.519   8.471  1.4323  0.3021  0.3013
  701MOL0     C96635   8.070  13.474   8.558  0.5127 -0.1955  0.5723
  701MOL0     O96636   7.965  13.563   8.567 -0.2276 -0.1110 -0.6808
  701MOL0     C96637   7.836  13.532   8.614 -0.5729 -1.1303  0.6296
  701MOL0     C96638   7.784  13.657   8.691 -0.3727  0.3822  0.1808
  701MOL0     C96639   7.849  13.667   8.822 -0.0460 -1.0511 -0.3714
  701MOL0     C96640   7.795  13.790   8.910 -1.2969  0.2482 -0.6473
  701MOL0     C96641   7.830  13.926   8.863  0.3816  0.0035 -0.1389
  701MOL0     C96642   7.840  14.032   8.969 -1.1604  0.5299  0.4162
  701MOL0     C96643   7.897  14.154   8.909  0.0859  0.2822  0.7221
  701MOL0     C96644   7.897  14.264   9.020  0.5778 -0.0329  0.1244
  701MOL0    Cl96645   7.720  14.300   9.054 -0.1351  0.5259 -0.6369
  701MOL0     C96646   8.076  13.343   8.607 -0.1824  0.1714 -0.7290
  701MOL0     C96647   8.192  13.269   8.598 -0.7366 -0.1139  0.0435
  701MOL0     O96648   8.375  13.116   8.369 -0.2913  0.2263  0.3959
  701MOL0     C96649   8.613  12.986   8.370  0.1440  0.0253  0.4882
  701MOL0     C96650   8.725  12.896   8.396  0.7720 -1.1157 -0.3605
  701MOL0     N96651   9.044  12.125   8.518  0.2282 -0.0376 -0.5936
  701MOL0     N96652   9.155  12.061   8.485 -0.0480  0.1907  0.1397
  701MOL0     C96653  10.068  11.782   7.865 -0.2312 -0.4220 -0.2891
  701MOL0     C96654  10.070  11.723   7.737  0.3724  0.4259  0.0694
  701MOL0     C96655   9.957  11.572   7.338  0.9273  0.7380 -0.9731
  701MOL0     C96656   9.920  11.437   7.295  0.3425  0.5650  0.7366
  701MOL0     C96657   9.915  11.410   7.162  0.1115  0.3021  0.8123
  701MOL0     C96658   9.924  11.505   7.060  0.5748 -0.0367  0.6464
  701MOL0     O96659   9.894  11.480   6.926  1.0776  0.5948 -0.2806
  701MOL0     C96660   9.906  11.353   6.860  0.0045 -0.2011 -0.1272
  701MOL0     C96661  10.062  11.342   6.836 -0.3947 -0.1687 -0.2210
  701MOL0     C96662  10.131  11.441   6.743 -0.5019  0.1084  0.2861
  701MOL0     C96663  10.103  11.417   6.593  0.2081  0.7950  0.0272
  701MOL0     C96664  10.160  11.528   6.517  0.2696  0.1072  0.3299
  701MOL0     C96665  10.204  11.633   6.471  0.4566  0.0354 -0.8375
  701MOL0     C96666   9.949  11.631   7.097  0.0289  0.5262 -1.1593
  701MOL0     C96667   9.966  11.669   7.234  0.1597 -0.1915  0.5253
  701MOL0     C96668   9.984  11.824   7.257  0.1786 -0.2684  0.9924
  701MOL0     H96669   9.914  11.960   7.564 -0.0814 -2.1845 -0.7067
  701MOL0     H96670   9.934  12.072   7.791  2.0180 -0.2115 -0.9305
  701MOL0     H96671  10.158  11.864   8.117  1.0793  2.7862  0.8364
  701MOL0     H96672   9.985  11.809   8.148 -0.6997  0.7670  3.6333
  701MOL0     H96673  10.121  11.956   8.329  0.4554  3.8398  2.1172
  701MOL0     H96674  10.073  12.083   8.212  2.2463 -2.0259 -2.5643
  701MOL0     H96675   9.914  11.893   8.376 -1.5184 -0.3614 -1.6882
  701MOL0     H96676   9.924  12.073   8.404 -2.6658  1.4668 -1.4194
  701MOL0     H96677   9.818  12.138   8.206  0.0524  0.6783  0.6334
  701MOL0     H96678   9.790  11.976   8.161 -2.2935 -1.1338  1.6493
  701MOL0     H96679   9.684  12.148   8.401 -0.4569 -1.3273  2.0942
  701MOL0     H96680   9.690  11.961   8.406  1.8930  0.6982 -0.1097
  701MOL0     H96681   9.563  12.141   8.194  3.0532 -0.0776 -0.1285
  701MOL0     H96682   9.545  11.967   8.212 -0.5537  1.4781 -1.8825
  701MOL0     H96683   9.446  12.168   8.414  0.5132 -0.2416  0.0862
  701MOL0     H96684   9.454  11.998   8.444 -1.6278  0.8930 -0.2494
  701MOL0     H96685   9.307  12.076   8.186 -0.4048  2.9322  0.8980
  701MOL0     H96686   9.286  11.932   8.287 -0.5752 -0.2835 -1.6213
  701MOL0     H96687   9.142  12.301   8.260  0.3290  0.4546 -0.2642
  701MOL0     H96688   8.854  12.309   8.534 -0.3955  0.6988 -0.0444
  701MOL0     H96689   8.840  12.293   8.359 -1.2758 -3.8784  1.5540
  701MOL0     H96690   9.052  12.473   8.470  0.6091 -2.0604  0.6561
  701MOL0     H96691   8.964  12.466   8.311 -2.6849  0.6790  0.0881
  701MOL0     H96692   8.772  12.589   8.396 -0.9706 -0.9172  0.6506
  701MOL0     H96693   8.821  12.551   8.557  1.2807 -2.9121 -0.1658
  701MOL0     H96694   9.045  12.689   8.504  0.1919 -0.4824  1.3037
  701MOL0     H96695   8.964  12.755   8.378 -0.5822 -4.6544 -2.2991
  701MOL0     H96696   8.786  12.965   8.715 -0.6533  0.1799  0.2876
  701MOL0     H96697   8.641  13.194   8.728 -1.8947  1.0401 -3.4919
  701MOL0     H96698   8.593  13.037   8.822 -2.9232  0.0276  0.5342
  701MOL0     H96699   8.472  13.124   8.740 -0.4989  0.4459 -1.3038
  701MOL0     H96700   8.370  13.492   8.396  0.7878 -0.3582  1.2823
  701MOL0     H96701   8.176  13.621   8.433 -0.7717  1.7421  3.7170
  701MOL0     H96702   7.774  13.507   8.527 -0.0533  3.1751 -1.1906
  701MOL0     H96703   7.834  13.451   8.688 -0.6482 -0.4183  1.4281
  701MOL0     H96704   7.803  13.751   8.637 -2.2307 -1.3264 -3.8287
  701MOL0     H96705   7.676  13.647   8.697 -0.5709  1.8759 -0.4956
  701MOL0     H96706   7.957  13.677   8.825 -0.0512 -0.7759 -1.0092
  701MOL0     H96707   7.826  13.576   8.879 -0.3580  0.5251  2.1735
  701MOL0     H96708   7.843  13.775   9.007  1.1883 -0.8140 -1.9487
  701MOL0     H96709   7.687  13.784   8.920 -1.2108  0.0567  0.3057
  701MOL0     H96710   7.924  13.917   8.807  1.3187 -0.4545  1.4504
  701MOL0     H96711   7.755  13.975   8.800  1.2220  0.9881 -0.4064
  701MOL0     H96712   7.920  14.001   9.037 -0.7005  2.3877  0.7661
  701MOL0     H96713   7.740  14.037   9.011 -1.1187  1.6724  0.3993
  701MOL0     H96714   7.841  14.180   8.819  4.4726  0.5761 -2.2599
  701MOL0     H96715   7.999  14.138   8.873 -0.0823  1.8965 -0.6186
  701MOL0     H96716   7.953  14.348   8.979  2.3987 -1.0244  0.4639
  701MOL0     H96717   7.948  14.236   9.113 -2.5869  1.8804  2.6610
  701MOL0     H96718   7.988  13.302   8.654 -0.8185 -0.3194 -2.2971
  701MOL0     H96719   8.207  13.175   8.650  2.9745 -1.0683 -2.3618
  701MOL0     H96720   8.578  12.997   8.268  1.1619  1.5142  0.2654
  701MOL0     H96721   8.770  12.851   8.308  2.7192 -0.2170  0.1199
  701MOL0     H96722  10.129  11.733   7.939  1.1948 -0.0023 -1.1501
  701MOL0     H96723  10.123  11.632   7.713 -0.4542  0.1534 -0.7882
  701MOL0     H96724   9.913  11.357   7.368 -1.4202  1.0431  1.1508
  701MOL0     H96725   9.911  11.302   7.147 -0.2456  0.5057 -0.8274
  701MOL0     H96726   9.862  11.272   6.919  0.7111  0.3070  1.1144
  701MOL0     H96727   9.848  11.350   6.767 -1.2046 -0.5618  0.6161
  701MOL0     H96728  10.089  11.244   6.796  3.0742  0.5676  0.0535
  701MOL0     H96729  10.113  11.343   6.932  0.8230  1.5833 -0.8356
  701MOL0     H96730  10.112  11.545   6.773  2.6358  0.3983  1.6992
  701MOL0     H96731  10.240  11.443   6.753 -0.3736 -0.1445 -0.9309
  701MOL0     H96732   9.995  11.430   6.586 -0.1497 -1.7740 -0.0832
  701MOL0     H96733  10.123  11.318   6.552 -0.9566  1.3291 -1.9635
  701MOL0     H96734  10.236  11.735   6.458 -3.5228  1.4514 -1.0472
  701MOL0     H96735   9.948  11.698   7.012 -2.9048  1.5639 -0.4470
  701MOL0     H96736   9.989  11.869   7.157  1.8524  0.4220  1.3385
  701MOL0     H96737   9.915  11.877   7.323  0.2614  2.9905 -1.2698
  701MOL0     H96738  10.085  11.844   7.295  2.1943  1.8211 -4.4576
  702MOL0     O96739   6.708   7.829   4.557  0.2096  0.9607  0.0303
  702MOL0     C96740   6.645   7.750   4.626  0.1204  0.1649  0.3345
  702MOL0     O96741   6.532   7.683   4.596  0.1442  0.1729  0.5387
  702MOL0     C96742   6.437   7.747   4.521 -1.0940 -0.0403  0.5955
  702MOL0     C96743   6.376   7.860   4.562  1.0856 -0.3455 -1.0327
  702MOL0     C96744   6.265   7.920   4.501  0.4794 -0.8815 -0.3905
  702MOL0     C96745   6.217   7.868   4.384  0.7853 -0.7971  0.4745
  702MOL0     O96746   6.105   7.939   4.336  0.6988  0.1004 -0.0118
  702MOL0     C96747   5.990   7.861   4.279 -0.2324 -0.4826  0.1676
  702MOL0     C96748   5.883   7.828   4.386 -0.0014 -0.7758 -0.3476
  702MOL0     C96749   5.842   7.960   4.461 -0.3668  0.1231  0.5572
  702MOL0     C96750   5.716   8.008   4.391 -0.3984 -0.2819 -0.1557
  702MOL0     C96751   5.647   8.113   4.478 -0.0862  0.0030 -0.2749
  702MOL0     C96752   5.715   8.257   4.506 -0.4662  1.1521  0.0975
  702MOL0     C96753   5.623   8.373   4.548 -0.4845  0.0517 -0.3429
  702MOL0     C96754   5.538   8.335   4.670  0.6968  1.2493 -0.3582
  702MOL0     N96755   5.502   8.450   4.749 -0.3359  0.4751  0.4116
  702MOL0     C96756   5.385   8.520   4.739 -0.2763  0.5900 -0.3789
  702MOL0     C96757   5.381   8.617   4.829 -0.0237  0.3241  0.3318
  702MOL0     C96758   5.256   8.686   4.864 -0.1521  0.3672 -0.1338
  702MOL0     C96759   5.170   8.607   4.957 -0.0678 -0.6889 -0.3438
  702MOL0     C96760   5.021   8.634   4.962  0.7113 -0.3281  0.5918
  702MOL0     C96761   4.992   8.768   5.032 -0.0027 -0.0482 -0.5129
  702MOL0     O96762   5.049   8.758   5.165  0.6521  0.7663 -0.2598
  702MOL0     C96763   5.098   8.877   5.210 -0.1100 -0.4898  0.5238
  702MOL0     C96764   5.010   8.988   5.216 -0.6811 -0.4855 -0.0196
  702MOL0     C96765   5.044   9.123   5.256 -0.4409  1.2152  0.1222
  702MOL0     C96766   4.951   9.236   5.253 -0.4245 -0.2113 -0.7269
  702MOL0     C96767   5.178   9.138   5.295 -0.7485 -0.8234  0.6473
  702MOL0     C96768   5.240   9.257   5.351  0.3481 -0.8175 -1.9847
  702MOL0     O96769   5.369   9.246   5.402 -0.2637  0.0705 -0.4046
  702MOL0     C96770   5.432   9.366   5.422  0.2888 -0.6853 -0.6235
  702MOL0     C96771   5.421   9.427   5.552 -0.5947  0.7915  0.9573
  702MOL0     C96772   5.468   9.559   5.577 -0.6603 -0.2882 -0.5710
  702MOL0     C96773   5.524   9.634   5.473  0.2206  0.0437  0.4991
  702MOL0     O96774   5.561   9.767   5.494  0.4342  0.2080  0.6419
  702MOL0     C96775   5.704   9.802   5.511  0.2569  0.7690  0.7369
  702MOL0     C96776   5.743   9.815   5.661  0.5091 -0.2259  0.6902
  702MOL0     C96777   5.887   9.822   5.655 -0.6351  0.1795 -0.1619
  702MOL0     C96778   5.944   9.866   5.793  0.6837  0.0291 -0.2447
  702MOL0     C96779   6.079   9.791   5.811  0.7885  0.4017 -0.5343
  702MOL0     C96780   6.146   9.838   5.932 -0.6126 -0.1592 -0.4184
  702MOL0     C96781   6.063   9.834   6.070  0.1118 -0.3100  0.5161
  702MOL0     C96782   6.165   9.860   6.185  0.9936 -0.2659 -0.1632
  702MOL0    Cl96783   6.228  10.015   6.167  0.2250 -0.6260  0.5941
  702MOL0     C96784   5.559   9.567   5.353  0.0253  1.1553 -0.4255
  702MOL0     C96785   5.501   9.440   5.324 -0.3224  0.2008 -0.1047
  702MOL0     O96786   5.194   9.367   5.336  1.1761  0.0260  0.4198
  702MOL0     C96787   5.254   9.024   5.294 -0.2489 -0.0112  0.0542
  702MOL0     C96788   5.218   8.899   5.259 -0.0424 -0.0121  0.5309
  702MOL0     N96789   5.497   8.597   4.906 -0.2062  1.0427  0.1795
  702MOL0     N96790   5.571   8.500   4.854 -1.1728 -0.3490  0.2314
  702MOL0     C96791   6.275   7.750   4.335  0.9527  0.7536 -0.0094
  702MOL0     C96792   6.378   7.685   4.405  0.6864 -0.7196 -0.1453
  702MOL0     C96793   6.711   7.702   4.744  0.7558 -0.4507 -0.2847
  702MOL0     C96794   6.706   7.564   4.773 -0.8890 -0.1026 -0.6311
  702MOL0     C96795   6.789   7.508   4.869  1.0353 -0.2888  0.1787
  702MOL0     C96796   6.864   7.582   4.953  0.3923 -0.0221 -0.4512
  702MOL0     O96797   6.944   7.538   5.062 -0.2361 -0.2154  0.9442
  702MOL0     C96798   6.957   7.396   5.068  0.2217  0.0879 -0.5451
  702MOL0     C96799   7.056   7.347   5.176  0.0300  0.2792 -0.1914
  702MOL0     C96800   7.098   7.201   5.169 -0.6596  0.8969 -0.8576
  702MOL0     C96801   7.179   7.155   5.295  0.0604  1.1399 -0.5874
  702MOL0     C96802   7.289   7.244   5.333 -0.2289  0.9712  0.6443
  702MOL0     C96803   7.373   7.323   5.351 -0.8088  0.6234 -0.4325
  702MOL0     C96804   6.869   7.717   4.930 -0.5311 -0.0591 -0.4661
  702MOL0     C96805   6.796   7.780   4.824 -0.6864  1.1640 -0.7529
  702MOL0     C96806   6.818   7.928   4.804 -0.1657 -1.0528 -0.0324
  702MOL0     H96807   6.402   7.902   4.658 -3.6584  1.6971 -0.3477
  702MOL0     H96808   6.200   7.995   4.546  3.2132  3.7064 -3.2474
  702MOL0     H96809   6.027   7.775   4.222 -0.1695  0.1350 -0.7501
  702MOL0     H96810   5.943   7.924   4.203  1.1670 -0.2331 -0.5080
  702MOL0     H96811   5.799   7.764   4.356 -0.7089  0.5502 -1.2572
  702MOL0     H96812   5.929   7.764   4.463 -2.9267 -1.4229  1.0290
  702MOL0     H96813   5.813   7.932   4.563 -0.4411 -0.8445  0.2794
  702MOL0     H96814   5.912   8.044   4.464 -0.7595  0.4259  2.7171
  702MOL0     H96815   5.751   8.055   4.299 -0.5710  0.8400  0.3367
  702MOL0     H96816   5.643   7.927   4.384  0.3364 -1.2303  2.1781
  702MOL0     H96817   5.617   8.066   4.572  0.0845 -0.5347 -0.4857
  702MOL0     H96818   5.557   8.143   4.424 -2.4579 -0.5769  3.0596
  702MOL0     H96819   5.783   8.233   4.588  0.0735 -1.5869 -1.0210
  702MOL0     H96820   5.773   8.287   4.418 -0.8122  0.1113 -0.5108
  702MOL0     H96821   5.558   8.409   4.468 -0.3896  0.7682 -0.1033
  702MOL0     H96822   5.689   8.455   4.579 -1.0800  0.4703 -0.1663
  702MOL0     H96823   5.448   8.285   4.631  2.1301 -0.7485 -1.2563
  702MOL0     H96824   5.593   8.268   4.736  0.3593 -1.2640 -2.4641
  702MOL0     H96825   5.307   8.509   4.664  1.1726 -1.2503 -1.7038
  702MOL0     H96826   5.203   8.698   4.769 -0.7027  2.3805  0.3865
  702MOL0     H96827   5.279   8.783   4.910 -2.0532 -0.3421  2.5624
  702MOL0     H96828   5.177   8.501   4.928  0.1938 -1.3676  2.0029
  702MOL0     H96829   5.218   8.611   5.055 -3.4555  1.5974  1.4016
  702MOL0     H96830   4.985   8.631   4.859  1.0877  3.8996  0.1604
  702MOL0     H96831   4.970   8.554   5.016  1.7704 -1.3179  0.1736
  702MOL0     H96832   5.044   8.839   4.967 -0.2755 -1.8018 -2.7400
  702MOL0     H96833   4.883   8.779   5.021 -0.7088 -1.9821  3.0359
  702MOL0     H96834   4.902   8.987   5.206 -0.4991 -1.1974 -2.5796
  702MOL0     H96835   4.989   9.322   5.198 -2.3545 -1.3376 -4.0947
  702MOL0     H96836   4.939   9.273   5.355  0.8705  1.9514 -1.2946
  702MOL0     H96837   4.855   9.227   5.202 -0.3460  1.0189 -1.1236
  702MOL0     H96838   5.400   9.363   5.637  0.3785  0.0476  0.6457
  702MOL0     H96839   5.457   9.601   5.677  2.2900  1.7206 -0.9493
  702MOL0     H96840   5.757   9.718   5.466  1.0670  0.4018  2.3137
  702MOL0     H96841   5.719   9.896   5.457  2.9683 -0.6770 -1.2831
  702MOL0     H96842   5.696   9.900   5.711 -1.0357 -0.4102 -0.3718
  702MOL0     H96843   5.707   9.730   5.720 -1.2352  1.1283  1.6698
  702MOL0     H96844   5.921   9.890   5.577  5.0504 -0.1703  1.6016
  702MOL0     H96845   5.916   9.719   5.635 -2.5102 -0.5021  0.3973
  702MOL0     H96846   5.868   9.847   5.868 -0.0147 -2.8904 -1.5272
  702MOL0     H96847   5.957   9.974   5.788 -2.5793  1.0170  5.2594
  702MOL0     H96848   6.055   9.687   5.834  2.4427  0.4100  1.6407
  702MOL0     H96849   6.142   9.787   5.722  1.2256 -2.2135 -0.1958
  702MOL0     H96850   6.189   9.936   5.908  0.5274 -0.8147 -1.1359
  702MOL0     H96851   6.232   9.771   5.937 -0.9832 -0.8219 -2.2647
  702MOL0     H96852   6.002   9.744   6.071 -1.0037  0.3086 -2.1164
  702MOL0     H96853   6.002   9.925   6.073  2.2426  1.1616  2.2658
  702MOL0     H96854   6.245   9.785   6.182  1.8117  0.6173 -1.3880
  702MOL0     H96855   6.101   9.862   6.274 -0.2536  0.3930 -1.0401
  702MOL0     H96856   5.624   9.614   5.281  0.6236 -0.6095 -1.0684
  702MOL0     H96857   5.490   9.405   5.222 -1.2085 -0.4295  0.1893
  702MOL0     H96858   5.357   9.024   5.329 -0.9369 -0.4597  2.2412
  702MOL0     H96859   5.274   8.807   5.273 -2.4927 -1.3733  2.2393
  702MOL0     H96860   6.232   7.705   4.247 -0.5680  2.4130 -0.1813
  702MOL0     H96861   6.402   7.587   4.366  0.4689 -1.3843  1.3407
  702MOL0     H96862   6.649   7.502   4.705 -1.3033 -1.9058  1.2507
  702MOL0     H96863   6.802   7.400   4.865 -2.9363 -0.9104 -0.9773
  702MOL0     H96864   6.860   7.345   5.066  1.1084 -1.7356 -3.2562
  702MOL0     H96865   7.003   7.369   4.972 -3.5462  0.0031 -2.5121
  702MOL0     H96866   7.022   7.363   5.279  2.6157  0.0356  0.7871
  702MOL0     H96867   7.153   7.396   5.163  0.3372 -0.2260  0.1525
  702MOL0     H96868   7.007   7.141   5.181 -1.6649  1.9994 -2.6542
  702MOL0     H96869   7.148   7.176   5.076 -0.4045  1.5146 -0.8894
  702MOL0     H96870   7.199   7.047   5.290 -2.1712  0.5863  1.1658
  702MOL0     H96871   7.101   7.151   5.371 -0.6887  0.6039 -1.3577
  702MOL0     H96872   7.451   7.389   5.381 -1.2328  2.6034 -3.2818
  702MOL0     H96873   6.937   7.769   4.996 -0.6176  0.0134 -0.4334
  702MOL0     H96874   6.732   7.986   4.769 -0.1884 -1.9691 -1.6022
  702MOL0     H96875   6.871   7.980   4.884  1.0958  0.4975 -1.8242
  702MOL0     H96876   6.882   7.926   4.716 -1.7752  1.0433 -1.3278
  703MOL0     O96877   8.187   4.475  11.493 -0.1546 -0.8119 -0.1049
  703MOL0     C96878   8.215   4.416  11.602  0.3005  0.0780 -0.6144
  703MOL0     O96879   8.230   4.480  11.722  0.1217 -0.4573 -0.3942
  703MOL0     C96880   8.205   4.616  11.721 -1.2797 -0.1717 -0.3568
  703MOL0     C96881   8.307   4.707  11.766  1.0666 -0.0255 -0.0375
  703MOL0     C96882   8.284   4.845  11.778  0.9683 -0.4364 -0.2679
  703MOL0     C96883   8.150   4.891  11.751 -0.6116  0.7661  0.0560
  703MOL0     O96884   8.128   5.024  11.771  0.9552  0.1028  0.1129
  703MOL0     C96885   8.197   5.089  11.883  0.0878 -0.0354  0.4472
  703MOL0     C96886   8.315   5.177  11.842  0.0538 -1.2805  0.5411
  703MOL0     C96887   8.290   5.318  11.808 -0.0185 -0.8259  0.2975
  703MOL0     C96888   8.432   5.385  11.774 -0.2042 -0.8086  0.3253
  703MOL0     C96889   8.425   5.537  11.807 -0.2525 -0.8340  0.3738
  703MOL0     C96890   8.547   5.608  11.741  0.3535  0.0127  0.2230
  703MOL0     C96891   8.545   5.762  11.734 -0.3598  0.0569  0.8232
  703MOL0     C96892   8.630   5.813  11.621 -0.0041 -0.0963 -0.1870
  703MOL0     N96893   8.643   5.964  11.614  0.5119  0.6487 -0.2837
  703MOL0     C96894   8.673   6.035  11.728  0.9893  1.1565 -1.3350
  703MOL0     C96895   8.646   6.159  11.699  1.1254  0.0625 -0.0630
  703MOL0     C96896   8.675   6.282  11.782  0.1559 -0.1268 -0.2952
  703MOL0     C96897   8.570   6.314  11.902 -0.3303  0.7400 -0.3006
  703MOL0     C96898   8.601   6.433  11.987 -0.0015  1.2007  1.2339
  703MOL0     C96899   8.471   6.468  12.056  0.5267  0.3962 -0.0641
  703MOL0     O96900   8.416   6.357  12.133  0.1033  0.6750 -0.2680
  703MOL0     C96901   8.325   6.393  12.225  1.0440 -0.0272  0.9305
  703MOL0     C96902   8.291   6.293  12.318  0.4899 -0.5995 -0.1133
  703MOL0     C96903   8.202   6.318  12.422  0.0090  0.5734  0.8078
  703MOL0     C96904   8.194   6.213  12.534 -1.2134  0.1392  0.2795
  703MOL0     C96905   8.142   6.442  12.437 -0.3171  0.1523 -0.1205
  703MOL0     C96906   8.059   6.468  12.554 -1.1692 -0.7511  0.7893
  703MOL0     O96907   7.972   6.380  12.595  0.2997  0.2592 -0.1647
  703MOL0     C96908   7.890   6.395  12.706  0.0462  0.5921  0.4370
  703MOL0     C96909   7.754   6.385  12.702  0.4557 -0.5760  0.2352
  703MOL0     C96910   7.684   6.401  12.829 -0.1777  0.2463 -0.0960
  703MOL0     C96911   7.743   6.408  12.951  0.6467  0.0416  0.3469
  703MOL0     O96912   7.666   6.417  13.065 -0.0393 -0.2703 -1.2405
  703MOL0     C96913   7.566   6.318  13.073  0.6920  0.8653 -0.1862
  703MOL0     C96914   7.567   6.254  13.211 -0.7050 -0.3910 -1.0774
  703MOL0     C96915   7.707   6.180  13.227  0.6225  0.4666  0.0404
  703MOL0     C96916   7.703   6.102  13.362  0.4298 -0.2864 -0.0533
  703MOL0     C96917   7.714   6.193  13.478  0.5096 -0.0997  0.2031
  703MOL0     C96918   7.819   6.298  13.470 -0.7017 -0.4233 -0.7535
  703MOL0     C96919   7.878   6.350  13.602 -0.0575 -0.0315 -0.9942
  703MOL0     C96920   7.981   6.465  13.593  0.7487  0.2389 -0.0078
  703MOL0    Cl96921   8.038   6.480  13.768  0.2768 -0.3332 -0.1001
  703MOL0     C96922   7.879   6.416  12.950 -0.4052 -0.1508  0.5011
  703MOL0     C96923   7.963   6.409  12.833 -0.4788  1.0126 -0.1166
  703MOL0     O96924   8.057   6.589  12.592 -0.6466  0.0204  0.6358
  703MOL0     C96925   8.167   6.534  12.336 -0.4536  0.4820 -0.7106
  703MOL0     C96926   8.252   6.508  12.226  1.4284 -0.3213 -0.3522
  703MOL0     N96927   8.608   6.162  11.567  0.1474 -0.5574 -1.0774
  703MOL0     N96928   8.603   6.048  11.517  0.6590 -1.2631  0.7196
  703MOL0     C96929   8.054   4.805  11.708  0.2011  0.2723 -0.1510
  703MOL0     C96930   8.078   4.670  11.692 -0.1040 -0.1868 -0.3966
  703MOL0     C96931   8.250   4.266  11.619 -0.8487  0.7257  0.6998
  703MOL0     C96932   8.361   4.224  11.693 -0.0051 -0.3684  0.6224
  703MOL0     C96933   8.389   4.088  11.707 -0.4077 -1.0831 -0.6924
  703MOL0     C96934   8.308   3.991  11.648 -0.2528 -0.6820  0.3291
  703MOL0     O96935   8.349   3.858  11.644  0.7209 -0.2252 -0.0009
  703MOL0     C96936   8.483   3.812  11.685 -0.2978 -0.3033 -0.5544
  703MOL0     C96937   8.469   3.704  11.794  0.4085 -0.5026  0.1846
  703MOL0     C96938   8.394   3.769  11.909 -0.8752  0.4861  0.5424
  703MOL0     C96939   8.410   3.668  12.030 -0.1488  0.6362  1.1957
  703MOL0     C96940   8.369   3.713  12.159  0.3084  0.3028 -0.3666
  703MOL0     C96941   8.334   3.762  12.257 -0.0001 -0.7623 -0.0091
  703MOL0     C96942   8.194   4.036  11.583  0.0243 -0.7350  0.3476
  703MOL0     C96943   8.163   4.174  11.561 -0.0183 -0.9378  0.3071
  703MOL0     C96944   8.047   4.230  11.474  0.7035  0.6141  0.5662
  703MOL0     H96945   8.402   4.670  11.805  1.4016 -0.4168 -1.1863
  703MOL0     H96946   8.371   4.901  11.807  2.3605 -2.7076  0.2136
  703MOL0     H96947   8.238   5.019  11.957 -1.3327 -0.7541  0.5858
  703MOL0     H96948   8.121   5.160  11.918  0.3648  1.4747 -1.8333
  703MOL0     H96949   8.379   5.174  11.931  0.3057  1.3443  0.5341
  703MOL0     H96950   8.374   5.140  11.758 -0.6053 -0.7900 -0.1440
  703MOL0     H96951   8.217   5.322  11.727  0.9668  0.8311 -0.5526
  703MOL0     H96952   8.250   5.367  11.898  2.9621  1.7214  0.4041
  703MOL0     H96953   8.517   5.344  11.829  1.1480  1.6688  0.2336
  703MOL0     H96954   8.445   5.360  11.668  3.3137 -0.6653  0.6208
  703MOL0     H96955   8.424   5.553  11.915 -0.8797  2.4027 -0.0186
  703MOL0     H96956   8.338   5.593  11.770  0.8004  1.2543  0.9130
  703MOL0     H96957   8.635   5.573  11.797  2.4894 -1.3498 -3.6528
  703MOL0     H96958   8.562   5.577  11.638  1.8277  0.4491  0.2855
  703MOL0     H96959   8.564   5.806  11.832 -0.0846  0.3615  0.6350
  703MOL0     H96960   8.440   5.782  11.712 -1.3903 -3.5737  1.7262
  703MOL0     H96961   8.725   5.762  11.640 -0.9583 -0.9163  3.1925
  703MOL0     H96962   8.608   5.774  11.521  2.8389  0.6080 -1.1730
  703MOL0     H96963   8.710   6.000  11.823  0.1856  1.0278 -1.0589
  703MOL0     H96964   8.662   6.365  11.712 -3.9562  1.1622  1.6565
  703MOL0     H96965   8.776   6.281  11.825 -1.4034 -2.7182  3.9969
  703MOL0     H96966   8.470   6.324  11.859 -1.1601 -0.0741  1.3528
  703MOL0     H96967   8.564   6.232  11.974  0.5654 -0.1545 -1.2005
  703MOL0     H96968   8.677   6.396  12.056 -2.9842 -0.1527  4.0639
  703MOL0     H96969   8.629   6.517  11.922 -1.4003  0.1409 -0.8584
  703MOL0     H96970   8.501   6.560  12.106  3.9906  1.0084 -2.8637
  703MOL0     H96971   8.401   6.507  11.982  1.2905  2.2849  0.1494
  703MOL0     H96972   8.348   6.201  12.321  3.2437  1.0164  1.8047
  703MOL0     H96973   8.095   6.172  12.513 -0.9334 -1.2893  1.6204
  703MOL0     H96974   8.201   6.239  12.640  2.8662 -2.2123  0.7927
  703MOL0     H96975   8.278   6.144  12.523  0.7392  2.4359 -0.1506
  703MOL0     H96976   7.706   6.367  12.607 -1.9724 -0.0011  1.2909
  703MOL0     H96977   7.576   6.397  12.831 -0.1857 -3.3568  2.4906
  703MOL0     H96978   7.471   6.371  13.065  0.8759  1.4777  1.4181
  703MOL0     H96979   7.581   6.247  12.991  1.5391  0.3271  0.4167
  703MOL0     H96980   7.554   6.328  13.291  1.1650 -1.2825  0.1428
  703MOL0     H96981   7.479   6.190  13.213 -1.8843  1.1354  1.0961
  703MOL0     H96982   7.787   6.253  13.215 -0.0111  1.0134 -1.0021
  703MOL0     H96983   7.715   6.103  13.149  1.0823 -2.4060  2.7107
  703MOL0     H96984   7.794   6.042  13.371  1.3360  0.8649 -1.2400
  703MOL0     H96985   7.611   6.046  13.380 -1.1412  2.7691  2.1882
  703MOL0     H96986   7.620   6.247  13.492  1.2827  1.8691 -1.6338
  703MOL0     H96987   7.719   6.135  13.571  1.1380 -2.0936 -1.0186
  703MOL0     H96988   7.777   6.388  13.424  1.1832  0.7441 -0.3324
  703MOL0     H96989   7.902   6.257  13.412 -1.2559 -3.1936  0.2549
  703MOL0     H96990   7.936   6.266  13.640 -2.5794 -0.4546  2.4303
  703MOL0     H96991   7.801   6.368  13.678  3.1232  0.5594  2.3674
  703MOL0     H96992   7.924   6.557  13.578  0.4907  0.4572  2.0474
  703MOL0     H96993   8.050   6.458  13.508  0.9720 -1.0784  0.2566
  703MOL0     H96994   7.915   6.423  13.052  1.8565 -0.6274 -0.1950
  703MOL0     H96995   8.071   6.412  12.844 -0.4328  0.2507 -0.3380
  703MOL0     H96996   8.109   6.624  12.351 -2.9272 -1.0900 -0.0879
  703MOL0     H96997   8.265   6.582  12.148 -1.0944  0.0253 -0.5102
  703MOL0     H96998   7.953   4.843  11.712 -0.0894 -0.6002  1.1916
  703MOL0     H96999   8.003   4.599  11.657 -0.3129 -0.2303  0.1258
  703MOL0     H97000   8.425   4.301  11.735 -1.0346 -0.3858  2.3050
  703MOL0     H97001   8.477   4.061  11.764 -0.2605  0.5180 -0.1086
  703MOL0     H97002   8.525   3.759  11.598  1.2127 -0.3787  0.1947
  703MOL0     H97003   8.561   3.884  11.708  0.0094 -0.4318 -1.1683
  703MOL0     H97004   8.571   3.674  11.817  0.8870  0.7287 -0.2533
  703MOL0     H97005   8.415   3.616  11.757 -0.2644 -0.0031 -0.0552
  703MOL0     H97006   8.444   3.858  11.947  0.1792 -0.6110  1.8473
  703MOL0     H97007   8.289   3.781  11.879 -0.5101 -0.7920 -1.4786
  703MOL0     H97008   8.511   3.635  12.055  0.6642  3.5025  2.0567
  703MOL0     H97009   8.348   3.578  12.025  2.9707 -1.7885  2.6450
  703MOL0     H97010   8.295   3.813  12.343  2.2716 -1.1097  1.3266
  703MOL0     H97011   8.126   3.971  11.529 -0.6884 -0.0684  0.4213
  703MOL0     H97012   8.094   4.249  11.377 -0.8341  1.1529 -0.0990
  703MOL0     H97013   7.987   4.139  11.462  4.0151 -2.0964  2.5172
  703MOL0     H97014   7.983   4.314  11.503  3.1067  2.6423  0.3424
  704MOL0     O97015   7.405   1.775   6.184 -0.0952  0.5103 -0.7028
  704MOL0     C97016   7.285   1.782   6.207 -0.2037  0.8337  0.4613
  704MOL0     O97017   7.233   1.889   6.283 -0.0249 -0.6051 -0.6563
  704MOL0     C97018   7.311   1.980   6.334 -1.0722  0.0445 -0.6799
  704MOL0     C97019   7.328   2.103   6.269 -0.4496 -0.6665  0.7916
  704MOL0     C97020   7.418   2.201   6.313 -0.6679  0.0974 -0.2924
  704MOL0     C97021   7.495   2.168   6.423 -0.8111  0.8618 -0.0314
  704MOL0     O97022   7.592   2.255   6.480  1.0336 -0.3454  0.1905
  704MOL0     C97023   7.592   2.392   6.422 -0.0024  0.1602 -0.0120
  704MOL0     C97024   7.482   2.478   6.494 -1.0039  0.4129 -0.7133
  704MOL0     C97025   7.503   2.629   6.496  1.4615 -0.6525  0.7590
  704MOL0     C97026   7.637   2.676   6.562 -0.1719  0.5554  0.2702
  704MOL0     C97027   7.649   2.832   6.556 -0.0525  0.3087  0.6067
  704MOL0     C97028   7.773   2.892   6.624  0.6460  0.7308 -0.6240
  704MOL0     C97029   7.755   3.044   6.622 -0.6466  0.2407  1.1960
  704MOL0     C97030   7.731   3.108   6.472 -0.8314  1.0683 -0.7961
  704MOL0     N97031   7.811   3.057   6.364  0.0264 -0.9407 -0.1170
  704MOL0     C97032   7.947   3.076   6.353  0.0506 -1.1376  0.4039
  704MOL0     C97033   7.986   3.014   6.238  0.1844 -0.1292 -0.0438
  704MOL0     C97034   8.123   3.000   6.187  0.3830 -1.1060  0.7740
  704MOL0     C97035   8.160   3.129   6.119 -0.0857  1.0250 -0.9079
  704MOL0     C97036   8.118   3.121   5.973 -1.2099 -0.3234 -0.2817
  704MOL0     C97037   8.180   3.252   5.919  0.2819 -0.4687 -0.5930
  704MOL0     O97038   8.175   3.229   5.781  0.2246 -0.1304 -1.2623
  704MOL0     C97039   8.273   3.158   5.712 -0.4725  0.1249 -0.1607
  704MOL0     C97040   8.381   3.090   5.776  0.1956 -0.2117  0.6274
  704MOL0     C97041   8.477   3.026   5.701 -0.3338  0.3687  0.1608
  704MOL0     C97042   8.565   2.945   5.778 -0.3154  0.0442 -1.4217
  704MOL0     C97043   8.470   3.033   5.561  0.5248  1.0665  0.0710
  704MOL0     C97044   8.573   2.963   5.482 -0.8589 -0.4739  0.5647
  704MOL0     O97045   8.705   2.963   5.529 -0.0551  0.1821  0.1687
  704MOL0     C97046   8.804   2.896   5.450 -0.2641 -0.2930 -0.2282
  704MOL0     C97047   8.796   2.787   5.356 -0.3240  0.9458  0.0649
  704MOL0     C97048   8.916   2.755   5.285 -0.3784  0.5454 -0.3319
  704MOL0     C97049   9.037   2.818   5.295 -0.2206  0.1532  0.4245
  704MOL0     O97050   9.155   2.800   5.223 -0.7964  0.9083  0.6465
  704MOL0     C97051   9.176   2.693   5.128  0.2553 -0.1183 -0.4383
  704MOL0     C97052   9.325   2.678   5.105 -0.4922  0.4755 -0.0199
  704MOL0     C97053   9.365   2.741   4.970 -0.8678 -0.4279  0.5302
  704MOL0     C97054   9.516   2.774   4.983 -0.1369  0.5457  0.2260
  704MOL0     C97055   9.580   2.816   4.852  0.7477  1.2393  0.4304
  704MOL0     C97056   9.598   2.696   4.765 -0.7034  0.6567  0.9318
  704MOL0     C97057   9.655   2.753   4.631 -0.1870  0.0555 -0.0422
  704MOL0     C97058   9.534   2.792   4.540  1.2928  0.4392 -0.7305
  704MOL0    Cl97059   9.529   2.954   4.456  0.0121  0.1993 -0.0696
  704MOL0     C97060   9.035   2.917   5.391  0.4870 -0.8599  0.5057
  704MOL0     C97061   8.926   2.960   5.460 -0.0354  0.2558  0.3104
  704MOL0     O97062   8.534   2.911   5.378  0.7653 -0.5325  0.8010
  704MOL0     C97063   8.357   3.090   5.502 -0.0775  0.7344 -0.1441
  704MOL0     C97064   8.258   3.151   5.574  0.2959 -0.0908  0.7141
  704MOL0     N97065   7.875   2.947   6.188  0.0607  0.0062 -0.0261
  704MOL0     N97066   7.771   2.982   6.260  0.2609 -0.2939 -0.3756
  704MOL0     C97067   7.479   2.046   6.495 -0.9383  0.0222  0.1943
  704MOL0     C97068   7.392   1.955   6.453  0.3326 -0.4877  0.4920
  704MOL0     C97069   7.200   1.659   6.187 -0.3825  0.0828 -0.0716
  704MOL0     C97070   7.258   1.556   6.105  0.0172  0.2748 -0.2540
  704MOL0     C97071   7.199   1.426   6.087  0.3394  0.9147 -0.7194
  704MOL0     C97072   7.072   1.403   6.128  0.9722 -0.0363 -0.0006
  704MOL0     O97073   7.011   1.282   6.119 -0.1310 -0.5297 -0.3888
  704MOL0     C97074   6.880   1.254   6.139 -0.1837  0.8469 -0.1274
  704MOL0     C97075   6.863   1.108   6.081  0.7849  0.2273  0.1398
  704MOL0     C97076   6.722   1.089   6.025 -0.2461  0.0702  1.0330
  704MOL0     C97077   6.700   0.946   5.980  0.3479 -0.5871 -0.3260
  704MOL0     C97078   6.788   0.909   5.867 -0.5326 -0.3563 -0.8040
  704MOL0     C97079   6.861   0.891   5.774  0.2164 -0.3580  0.6502
  704MOL0     C97080   7.005   1.505   6.190  0.4706 -0.3688 -0.4922
  704MOL0     C97081   7.064   1.630   6.219 -1.1373 -0.8852 -1.5877
  704MOL0     C97082   6.980   1.738   6.284  0.6341 -0.1909 -0.0128
  704MOL0     H97083   7.259   2.124   6.188 -3.5936 -0.2297  3.3493
  704MOL0     H97084   7.435   2.292   6.256  1.0019  0.4085  0.6368
  704MOL0     H97085   7.591   2.398   6.313 -3.3281  1.8785 -0.0130
  704MOL0     H97086   7.687   2.433   6.457  0.7950 -1.0776 -0.6360
  704MOL0     H97087   7.383   2.464   6.451 -0.8390 -0.8666 -0.7135
  704MOL0     H97088   7.491   2.443   6.598 -0.0491 -1.3680 -1.3550
  704MOL0     H97089   7.497   2.657   6.390 -4.5834 -3.1632  0.0018
  704MOL0     H97090   7.425   2.684   6.549 -0.3380 -0.4631 -1.8922
  704MOL0     H97091   7.647   2.645   6.666 -2.5273 -0.4415  0.2756
  704MOL0     H97092   7.726   2.645   6.507  1.2953 -0.2118  2.9086
  704MOL0     H97093   7.563   2.885   6.599 -1.1305 -0.1951 -0.8492
  704MOL0     H97094   7.644   2.855   6.449  3.6581  2.0479  0.6810
  704MOL0     H97095   7.769   2.869   6.731  0.0147  0.4550 -0.6974
  704MOL0     H97096   7.870   2.861   6.586  0.6340 -1.1643  0.7077
  704MOL0     H97097   7.842   3.094   6.666  0.5410  4.2434 -4.6440
  704MOL0     H97098   7.662   3.065   6.675 -2.1943 -0.9560 -0.8935
  704MOL0     H97099   7.624   3.096   6.449 -0.4905  0.0755 -1.9460
  704MOL0     H97100   7.752   3.213   6.493 -1.4546  0.6832  2.2973
  704MOL0     H97101   8.003   3.128   6.430 -0.1748  0.0718 -0.2259
  704MOL0     H97102   8.143   2.917   6.119 -2.3633 -1.3717  0.1720
  704MOL0     H97103   8.199   3.001   6.266 -1.1125  2.3063  2.3680
  704MOL0     H97104   8.123   3.220   6.167 -1.5407 -0.8034  1.6433
  704MOL0     H97105   8.268   3.135   6.133 -0.4704  1.1959  2.6976
  704MOL0     H97106   8.162   3.031   5.930  0.9019  0.3588  0.3659
  704MOL0     H97107   8.008   3.126   5.970 -1.2051 -0.6438 -2.0689
  704MOL0     H97108   8.126   3.339   5.957  1.9973 -0.1559  1.3423
  704MOL0     H97109   8.282   3.271   5.953  0.2580  0.7079 -1.1364
  704MOL0     H97110   8.390   3.098   5.884 -1.8737 -0.2948  0.8365
  704MOL0     H97111   8.590   2.849   5.732  1.0574  0.8567 -2.4395
  704MOL0     H97112   8.523   2.933   5.878  1.2763  0.6980 -0.6464
  704MOL0     H97113   8.661   2.995   5.793 -0.3919  0.1154 -1.1661
  704MOL0     H97114   8.707   2.727   5.344  1.0604 -1.3264  0.5350
  704MOL0     H97115   8.913   2.666   5.222 -1.8827  0.2854  0.0680
  704MOL0     H97116   9.136   2.603   5.176  1.5679  1.5365  4.3210
  704MOL0     H97117   9.121   2.716   5.036 -1.6870 -3.2150 -0.2172
  704MOL0     H97118   9.375   2.727   5.189  1.1748 -0.6031 -0.3376
  704MOL0     H97119   9.349   2.571   5.102 -1.6224  0.2177 -2.6878
  704MOL0     H97120   9.305   2.825   4.933 -0.5222 -0.4107 -0.0102
  704MOL0     H97121   9.361   2.652   4.905  2.9809 -1.2016  1.0851
  704MOL0     H97122   9.559   2.685   5.030 -1.6995  1.0198  2.7476
  704MOL0     H97123   9.535   2.855   5.053  0.3187  1.9780 -1.4835
  704MOL0     H97124   9.515   2.894   4.812 -2.2255 -0.7573  1.0062
  704MOL0     H97125   9.684   2.836   4.881  3.0845 -4.6655 -2.2444
  704MOL0     H97126   9.507   2.639   4.749  0.7531 -1.9690  1.4089
  704MOL0     H97127   9.668   2.628   4.814 -0.3163 -0.7700 -1.4411
  704MOL0     H97128   9.699   2.671   4.574 -1.2257 -0.1748 -0.5454
  704MOL0     H97129   9.725   2.835   4.646  0.7085 -1.0266  2.0754
  704MOL0     H97130   9.438   2.790   4.593  0.8247  0.9053 -1.5361
  704MOL0     H97131   9.533   2.718   4.461 -5.4532 -0.6228 -0.1906
  704MOL0     H97132   9.128   2.969   5.410  0.1086  0.9926 -2.1321
  704MOL0     H97133   8.938   3.041   5.531 -3.3329  1.0239  0.1520
  704MOL0     H97134   8.339   3.089   5.395 -4.0725 -2.6992  0.2926
  704MOL0     H97135   8.173   3.196   5.523 -0.6288 -2.9917 -0.5194
  704MOL0     H97136   7.538   2.044   6.585  0.5102  2.0260 -0.6353
  704MOL0     H97137   7.383   1.859   6.502 -3.2232 -1.3149 -1.4311
  704MOL0     H97138   7.358   1.562   6.062 -0.1594  1.8122 -0.4944
  704MOL0     H97139   7.252   1.348   6.033  1.3346  0.0325  1.3821
  704MOL0     H97140   6.858   1.258   6.246  0.1925  0.6469 -0.0413
  704MOL0     H97141   6.817   1.325   6.084  1.6834  1.5867 -1.4246
  704MOL0     H97142   6.866   1.038   6.166  0.1173  1.2801  1.0578
  704MOL0     H97143   6.936   1.096   6.000 -3.5904 -0.1995 -4.1654
  704MOL0     H97144   6.642   1.129   6.088 -1.6495 -0.2460 -0.4718
  704MOL0     H97145   6.724   1.138   5.927 -3.1937 -0.9702  0.3405
  704MOL0     H97146   6.596   0.954   5.946  0.1895  2.4230  0.5192
  704MOL0     H97147   6.717   0.879   6.064  0.8672  0.6466  0.5859
  704MOL0     H97148   6.929   0.870   5.694 -0.6802 -0.6973 -0.0388
  704MOL0     H97149   6.905   1.485   6.225  0.8820 -0.9992  0.3445
  704MOL0     H97150   7.003   1.762   6.389 -2.8054 -0.7935  0.9864
  704MOL0     H97151   6.996   1.829   6.226 -2.4429 -0.2220 -1.0840
  704MOL0     H97152   6.877   1.704   6.277  1.0888 -1.5548 -0.3311
  705MOL0     O97153   2.671   7.910   9.724 -0.6607  1.1333  0.1596
  705MOL0     C97154   2.785   7.953   9.726 -0.2132 -0.6567  0.3288
  705MOL0     O97155   2.894   7.883   9.708  0.6365 -0.4020  0.4545
  705MOL0     C97156   2.904   7.752   9.641  0.3614 -0.6897 -0.5444
  705MOL0     C97157   3.013   7.677   9.699  0.4184 -0.7827 -0.2773
  705MOL0     C97158   3.028   7.547   9.656  0.2824 -0.1057  0.1355
  705MOL0     C97159   2.937   7.494   9.559  1.3432  0.4859 -0.6684
  705MOL0     O97160   2.952   7.357   9.539 -0.2012  0.3131 -0.1194
  705MOL0     C97161   2.924   7.288   9.412  0.5851  0.9906  0.7288
  705MOL0     C97162   2.999   7.308   9.287  1.6205 -0.1862  0.0896
  705MOL0     C97163   3.151   7.345   9.298 -0.0676 -0.0634  0.2684
  705MOL0     C97164   3.211   7.390   9.162  1.0371  1.6970 -0.7683
  705MOL0     C97165   3.344   7.455   9.171  0.0052 -1.0046  0.5357
  705MOL0     C97166   3.341   7.603   9.242  0.1691 -0.6911  0.6702
  705MOL0     C97167   3.465   7.689   9.199 -0.9232 -0.7673 -0.6996
  705MOL0     C97168   3.609   7.645   9.258 -0.2627 -0.2481 -0.0688
  705MOL0     N97169   3.671   7.541   9.180 -0.5962 -0.0820  0.2263
  705MOL0     C97170   3.673   7.559   9.045 -0.2497 -0.5425 -0.9246
  705MOL0     C97171   3.690   7.431   8.997 -0.3114  1.0304 -0.6406
  705MOL0     C97172   3.681   7.384   8.854  0.5295  0.1023  0.0149
  705MOL0     C97173   3.807   7.411   8.766 -0.1853  0.2583 -0.2650
  705MOL0     C97174   3.928   7.366   8.835 -0.6579  0.2707 -0.1102
  705MOL0     C97175   4.043   7.368   8.733  0.3860 -0.7685 -0.3782
  705MOL0     O97176   4.047   7.496   8.654  0.2423 -0.6004  0.4302
  705MOL0     C97177   4.119   7.588   8.720 -0.0548 -0.3758  0.4957
  705MOL0     C97178   4.044   7.701   8.764  0.2629 -0.0503 -0.7234
  705MOL0     C97179   4.108   7.814   8.820 -0.6632  0.4941  0.9111
  705MOL0     C97180   4.033   7.932   8.864 -0.2038 -0.0762 -0.2235
  705MOL0     C97181   4.250   7.808   8.847  0.8604  0.1304  0.3836
  705MOL0     C97182   4.332   7.919   8.899 -0.2886  0.3530 -0.7939
  705MOL0     O97183   4.294   8.045   8.875 -0.4570 -0.0191  0.4091
  705MOL0     C97184   4.366   8.137   8.946 -0.3498  0.0975 -0.9748
  705MOL0     C97185   4.302   8.200   9.055  0.3641  0.2022 -0.8983
  705MOL0     C97186   4.365   8.297   9.130  0.4453 -0.6013 -0.2628
  705MOL0     C97187   4.496   8.324   9.105 -0.4093  0.0436 -0.2529
  705MOL0     O97188   4.563   8.404   9.195  0.2645  0.3756 -0.6315
  705MOL0     C97189   4.700   8.428   9.204 -1.0556 -0.5599  0.4173
  705MOL0     C97190   4.785   8.329   9.285  0.6104 -0.1343  0.2907
  705MOL0     C97191   4.713   8.285   9.422 -1.0230 -0.6510  0.1631
  705MOL0     C97192   4.814   8.242   9.531 -0.1538 -0.0678  0.0552
  705MOL0     C97193   4.734   8.137   9.621  0.0685  0.6824  1.2567
  705MOL0     C97194   4.812   8.117   9.748 -0.0657 -0.6572  0.4480
  705MOL0     C97195   4.921   8.002   9.725  0.3049 -0.7040 -0.5653
  705MOL0     C97196   4.871   7.853   9.716  0.0928  0.9974  0.9770
  705MOL0    Cl97197   4.827   7.769   9.875 -0.2053 -0.6875 -0.1154
  705MOL0     C97198   4.564   8.268   8.997  0.3624  0.3884 -0.5448
  705MOL0     C97199   4.498   8.176   8.917  0.4919  0.0256 -0.3878
  705MOL0     O97200   4.440   7.881   8.949 -0.0673 -0.0131 -0.8531
  705MOL0     C97201   4.316   7.684   8.805  0.8407  1.0134 -0.2475
  705MOL0     C97202   4.249   7.580   8.750  0.1534  0.7540  0.6972
  705MOL0     N97203   3.701   7.337   9.103 -0.0119 -0.9993 -0.1201
  705MOL0     N97204   3.699   7.411   9.212  0.1930  0.3007  0.4570
  705MOL0     C97205   2.835   7.577   9.506  0.5820 -0.2501 -0.4608
  705MOL0     C97206   2.827   7.714   9.537  0.4633 -0.0644 -0.9422
  705MOL0     C97207   2.796   8.103   9.744  0.3704  0.1638 -0.1643
  705MOL0     C97208   2.911   8.163   9.689 -0.2336 -0.6791  0.1866
  705MOL0     C97209   2.923   8.301   9.690  0.1990  0.3087 -1.0320
  705MOL0     C97210   2.830   8.383   9.749 -0.1831  0.8955 -0.2589
  705MOL0     O97211   2.831   8.522   9.743  0.2991  0.1570 -0.0221
  705MOL0     C97212   2.943   8.584   9.689  0.0770  0.4871  1.3296
  705MOL0     C97213   3.059   8.603   9.776 -0.5034 -0.3613  0.6004
  705MOL0     C97214   3.070   8.731   9.858 -0.1157  1.3415 -0.3843
  705MOL0     C97215   2.952   8.742   9.950  0.1783 -0.3356  0.4768
  705MOL0     C97216   2.943   8.877  10.011 -0.8229 -0.3023 -0.0794
  705MOL0     C97217   2.911   8.988  10.045 -0.4807 -0.0578  0.3220
  705MOL0     C97218   2.720   8.325   9.802  0.3588 -0.2646 -0.6998
  705MOL0     C97219   2.706   8.184   9.812  0.1411  0.7216  0.6569
  705MOL0     C97220   2.596   8.136   9.899 -0.3409 -0.7019  1.5695
  705MOL0     H97221   3.087   7.726   9.762  0.3489 -1.7817  0.6006
  705MOL0     H97222   3.096   7.477   9.704  0.4628  0.6235  0.9715
  705MOL0     H97223   2.817   7.292   9.390  0.2029 -1.4177  1.7594
  705MOL0     H97224   2.938   7.181   9.434 -0.6534  0.5936 -0.2936
  705MOL0     H97225   2.970   7.225   9.221 -1.9468  1.9477 -1.3018
  705MOL0     H97226   2.959   7.397   9.239  3.6712 -0.8676 -3.2103
  705MOL0     H97227   3.156   7.432   9.365  0.4450 -0.0226  0.1809
  705MOL0     H97228   3.208   7.262   9.341 -0.5435 -0.7807 -0.4705
  705MOL0     H97229   3.222   7.303   9.096 -0.2224  1.2630 -0.4253
  705MOL0     H97230   3.146   7.463   9.114 -3.3905 -0.5846  1.2082
  705MOL0     H97231   3.380   7.478   9.070 -2.0788  3.3764  0.5563
  705MOL0     H97232   3.416   7.393   9.224  1.1736 -2.1642 -2.2053
  705MOL0     H97233   3.254   7.666   9.224 -0.0841 -1.7562 -2.2551
  705MOL0     H97234   3.353   7.598   9.351  0.1873  1.7449  0.8327
  705MOL0     H97235   3.455   7.795   9.223  1.0149 -1.0861  2.0578
  705MOL0     H97236   3.467   7.676   9.091 -1.4564  0.4237 -0.8638
  705MOL0     H97237   3.682   7.727   9.254 -2.6681  2.1055  1.1737
  705MOL0     H97238   3.609   7.612   9.362  0.4696 -2.4154 -0.6869
  705MOL0     H97239   3.655   7.652   8.992 -0.4074  0.3915  0.6811
  705MOL0     H97240   3.598   7.438   8.808  0.3688  0.9766  1.2788
  705MOL0     H97241   3.655   7.279   8.843 -0.1136  0.2918 -0.3067
  705MOL0     H97242   3.807   7.365   8.667 -3.1692  1.0084 -0.6922
  705MOL0     H97243   3.805   7.520   8.755  1.7471  0.7367  2.9281
  705MOL0     H97244   3.962   7.444   8.904  2.5162  1.6285 -2.8927
  705MOL0     H97245   3.922   7.269   8.885 -1.8789 -0.6632 -1.9694
  705MOL0     H97246   4.138   7.347   8.782 -1.2198 -1.3265  2.7479
  705MOL0     H97247   4.019   7.289   8.662  3.4701 -0.0190 -2.4337
  705MOL0     H97248   3.936   7.695   8.748  0.2001 -3.4424  0.1750
  705MOL0     H97249   4.052   8.025   8.810 -2.2544  0.4948 -0.0446
  705MOL0     H97250   4.039   7.949   8.972  0.0256  0.7536 -0.3609
  705MOL0     H97251   3.930   7.907   8.835  0.2257 -0.2193 -1.7103
  705MOL0     H97252   4.197   8.172   9.055  0.8251 -1.6749 -1.5150
  705MOL0     H97253   4.324   8.348   9.217  3.0039  4.2046 -1.5201
  705MOL0     H97254   4.755   8.431   9.110  0.2394  0.0964  1.1633
  705MOL0     H97255   4.724   8.516   9.264  0.6994 -1.7126  1.5186
  705MOL0     H97256   4.795   8.236   9.228  2.7188 -1.1883  2.2000
  705MOL0     H97257   4.888   8.363   9.302  1.3189 -2.5904  1.3896
  705MOL0     H97258   4.639   8.208   9.400 -2.4080  0.9922 -1.3324
  705MOL0     H97259   4.656   8.375   9.447 -0.9609  1.7540 -6.2508
  705MOL0     H97260   4.853   8.327   9.588  3.7161 -0.4115 -1.7934
  705MOL0     H97261   4.899   8.187   9.490 -2.4873 -3.0499 -1.2305
  705MOL0     H97262   4.629   8.155   9.647 -0.2082 -0.2552  0.8253
  705MOL0     H97263   4.729   8.043   9.565  1.9338  0.8871  0.6924
  705MOL0     H97264   4.755   8.070   9.829  1.5605 -1.3119  1.2580
  705MOL0     H97265   4.866   8.209   9.773  0.2352 -0.5893 -0.4369
  705MOL0     H97266   4.993   8.002   9.807 -0.3918  0.2397  0.0691
  705MOL0     H97267   4.985   8.032   9.642 -0.7596 -1.0607 -1.5333
  705MOL0     H97268   4.944   7.786   9.669 -1.6519 -3.1787  3.6436
  705MOL0     H97269   4.782   7.856   9.654  2.7201 -0.4320 -3.3012
  705MOL0     H97270   4.659   8.310   8.964 -0.1423  2.3911  0.3890
  705MOL0     H97271   4.551   8.141   8.828 -0.3062 -1.2030 -0.4108
  705MOL0     H97272   4.423   7.674   8.824  1.4615 -0.1483 -3.6554
  705MOL0     H97273   4.296   7.483   8.737 -1.9990 -0.1015 -1.5960
  705MOL0     H97274   2.769   7.534   9.432 -1.4203  0.5492  0.7684
  705MOL0     H97275   2.741   7.773   9.509 -2.0157 -2.6848  0.6235
  705MOL0     H97276   2.994   8.112   9.640 -0.8979 -1.3712 -0.2365
  705MOL0     H97277   3.017   8.344   9.658  1.3913 -0.2446  1.4997
  705MOL0     H97278   2.963   8.526   9.598 -1.5693 -0.4626  1.5260
  705MOL0     H97279   2.904   8.676   9.645 -0.6592 -0.3171  0.2467
  705MOL0     H97280   3.142   8.613   9.705 -1.5063  1.8232 -0.3309
  705MOL0     H97281   3.075   8.524   9.849  0.9472 -0.6823 -0.0294
  705MOL0     H97282   3.169   8.724   9.904 -1.4850 -0.4891  2.6273
  705MOL0     H97283   3.058   8.818   9.793  0.2476  3.1198  1.8014
  705MOL0     H97284   2.947   8.670  10.032 -1.1294  3.2423  3.8872
  705MOL0     H97285   2.855   8.737   9.900  0.2957  3.1957 -0.3392
  705MOL0     H97286   2.887   9.090  10.067 -1.0014 -0.4696  1.7462
  705MOL0     H97287   2.641   8.386   9.844  1.1402  0.6874 -0.5592
  705MOL0     H97288   2.584   8.028   9.894 -3.1520 -0.3911 -0.3620
  705MOL0     H97289   2.603   8.164  10.005  0.5464  0.8659  1.1385
  705MOL0     H97290   2.505   8.175   9.855  0.7380  3.2989  2.4476
  706MOL0     O97291   2.411   3.633   8.991  0.7469 -0.6735  0.4514
  706MOL0     C97292   2.443   3.689   8.890 -1.3504 -0.3415  0.2513
  706MOL0     O97293   2.436   3.628   8.760  0.0329 -0.0207 -0.5784
  706MOL0     C97294   2.376   3.504   8.743  0.8906  0.3661  0.3152
  706MOL0     C97295   2.416   3.450   8.618  0.8842  0.5597 -0.7933
  706MOL0     C97296   2.349   3.337   8.560  0.3099  0.3616 -0.4322
  706MOL0     C97297   2.271   3.264   8.640 -1.0371  1.3951 -0.7913
  706MOL0     O97298   2.217   3.142   8.597 -0.7473  0.8707 -0.1412
  706MOL0     C97299   2.310   3.036   8.559 -0.2786  0.1770 -0.7566
  706MOL0     C97300   2.376   2.980   8.684 -0.7614  1.3608  0.4199
  706MOL0     C97301   2.498   2.898   8.645  0.9795 -0.0435  0.4602
  706MOL0     C97302   2.571   2.833   8.761 -0.5854 -0.0162 -0.0948
  706MOL0     C97303   2.473   2.743   8.831 -0.3951 -0.1694  0.6522
  706MOL0     C97304   2.537   2.622   8.903 -0.1103  0.0692  0.5703
  706MOL0     C97305   2.430   2.521   8.926  0.4220  0.9871  0.8531
  706MOL0     C97306   2.463   2.428   9.048 -0.2285  0.5702 -0.1865
  706MOL0     N97307   2.588   2.343   9.009 -0.2522  0.0615 -0.2916
  706MOL0     C97308   2.603   2.273   8.897 -0.4312 -0.0098 -0.0745
  706MOL0     C97309   2.715   2.199   8.912  0.6128 -0.4395 -0.2455
  706MOL0     C97310   2.783   2.107   8.815 -0.4309 -0.3361  0.6292
  706MOL0     C97311   2.886   2.176   8.727 -0.3551 -0.6436 -0.1834
  706MOL0     C97312   2.982   2.075   8.685 -0.1116  0.5121 -0.2442
  706MOL0     C97313   2.919   1.960   8.593  0.2548 -0.6929 -0.0704
  706MOL0     O97314   2.867   1.862   8.689 -0.5516 -0.2066 -0.2610
  706MOL0     C97315   2.842   1.734   8.660  0.2939 -0.1835  0.0888
  706MOL0     C97316   2.867   1.640   8.762 -0.2352  0.3559  0.7224
  706MOL0     C97317   2.836   1.501   8.743  0.3352 -0.6979  0.7388
  706MOL0     C97318   2.851   1.415   8.859 -0.8249  1.2643 -0.3514
  706MOL0     C97319   2.778   1.460   8.618 -0.2927 -0.7522 -0.1954
  706MOL0     C97320   2.737   1.324   8.576  0.3506  0.6530  0.2087
  706MOL0     O97321   2.625   1.330   8.499  0.2101  0.7174  0.4064
  706MOL0     C97322   2.582   1.214   8.440  0.0503  0.0806 -0.3768
  706MOL0     C97323   2.644   1.157   8.328  0.3152  0.5860  0.6877
  706MOL0     C97324   2.599   1.036   8.278  0.3545 -1.0217  0.4064
  706MOL0     C97325   2.479   0.974   8.321  0.5731 -0.9266  0.3894
  706MOL0     O97326   2.447   0.840   8.272 -0.8058 -0.5527 -0.3297
  706MOL0     C97327   2.313   0.797   8.282 -0.0675 -0.7836 -0.3413
  706MOL0     C97328   2.303   0.642   8.258 -0.5842  0.3145  0.4083
  706MOL0     C97329   2.186   0.570   8.311  0.4202  0.3679 -0.2259
  706MOL0     C97330   2.103   0.510   8.212  0.3315 -0.3797  0.7629
  706MOL0     C97331   1.996   0.611   8.161  0.2821 -0.1662  0.4488
  706MOL0     C97332   1.935   0.575   8.018 -0.2764  0.0575 -0.2031
  706MOL0     C97333   1.862   0.443   8.011 -0.0494 -0.7085  0.1776
  706MOL0     C97334   1.768   0.430   8.129  0.8302  0.3295 -0.3194
  706MOL0    Cl97335   1.690   0.594   8.146  0.5612 -0.4678  0.1725
  706MOL0     C97336   2.403   1.036   8.430  0.1039 -0.1800  0.1322
  706MOL0     C97337   2.465   1.151   8.489  0.5154 -0.0903 -0.0049
  706MOL0     O97338   2.803   1.227   8.607  0.5065 -0.4621 -0.0695
  706MOL0     C97339   2.752   1.561   8.527  0.9210 -0.0115  0.2284
  706MOL0     C97340   2.785   1.692   8.544 -0.0301 -0.4374  0.9169
  706MOL0     N97341   2.770   2.229   9.032 -0.3440  0.0509 -0.5270
  706MOL0     N97342   2.694   2.310   9.094 -0.0990 -0.0530 -0.2871
  706MOL0     C97343   2.230   3.310   8.769 -0.6255 -0.1730 -0.1141
  706MOL0     C97344   2.282   3.433   8.817 -0.9606 -0.2080  0.2487
  706MOL0     C97345   2.507   3.821   8.909 -0.2961  0.1450 -0.0920
  706MOL0     C97346   2.549   3.873   8.778 -0.4221  0.4673  0.0301
  706MOL0     C97347   2.586   4.010   8.775 -0.3357  0.5486  0.8242
  706MOL0     C97348   2.599   4.087   8.895 -0.1418  0.7601 -0.2459
  706MOL0     O97349   2.638   4.215   8.882  0.6070 -0.5390  0.4386
  706MOL0     C97350   2.629   4.298   8.991 -0.3628  1.1316  0.2873
  706MOL0     C97351   2.621   4.436   8.938 -0.7085 -0.5054  0.1019
  706MOL0     C97352   2.745   4.519   8.912 -0.3460  0.2278  0.6352
  706MOL0     C97353   2.797   4.456   8.785 -0.8020  0.4498 -0.3746
  706MOL0     C97354   2.893   4.338   8.806 -0.5412  0.6374 -0.6720
  706MOL0     C97355   2.958   4.235   8.835  0.4870  0.7605 -0.4049
  706MOL0     C97356   2.579   4.026   9.022 -0.7270  0.7090 -0.9365
  706MOL0     C97357   2.531   3.887   9.032  0.7039 -0.5638 -0.4316
  706MOL0     C97358   2.507   3.823   9.164  0.4946 -0.1644  0.1203
  706MOL0     H97359   2.476   3.515   8.555 -1.9392  1.2770 -2.9592
  706MOL0     H97360   2.372   3.305   8.459  1.4540  2.3842 -0.8859
  706MOL0     H97361   2.386   3.068   8.487  1.1985 -2.6154 -0.5736
  706MOL0     H97362   2.264   2.951   8.507  1.0027 -0.7261 -0.4434
  706MOL0     H97363   2.388   3.061   8.756  0.9089  1.6437 -0.1229
  706MOL0     H97364   2.300   2.915   8.728  0.0411 -1.1239 -1.6333
  706MOL0     H97365   2.467   2.827   8.567  0.3698 -1.5736  2.0395
  706MOL0     H97366   2.572   2.957   8.589  2.3618 -0.6803  1.5700
  706MOL0     H97367   2.659   2.782   8.720  1.6082  2.1969  1.4605
  706MOL0     H97368   2.616   2.902   8.834 -5.2128  1.2520  1.9356
  706MOL0     H97369   2.411   2.699   8.752 -0.2842  0.8720 -0.0283
  706MOL0     H97370   2.399   2.800   8.887  0.0238 -1.3732  2.5340
  706MOL0     H97371   2.613   2.571   8.844 -0.6073  0.8769 -0.8259
  706MOL0     H97372   2.590   2.647   8.995  2.5387  1.0743 -1.1030
  706MOL0     H97373   2.420   2.463   8.834 -1.6884 -1.3484  2.3863
  706MOL0     H97374   2.330   2.561   8.946  0.1087  1.3773 -1.2906
  706MOL0     H97375   2.489   2.485   9.137 -3.4277  2.3785 -0.2682
  706MOL0     H97376   2.379   2.366   9.079 -0.0086  2.0609  4.0864
  706MOL0     H97377   2.538   2.259   8.812 -1.3889  2.0585  0.2623
  706MOL0     H97378   2.703   2.068   8.752  1.7022 -1.3611 -1.6397
  706MOL0     H97379   2.830   2.023   8.865  0.3826  0.0928  0.6077
  706MOL0     H97380   2.834   2.225   8.644  0.9652 -0.6514 -1.0395
  706MOL0     H97381   2.938   2.250   8.788 -1.5022  0.5776 -0.6263
  706MOL0     H97382   3.062   2.120   8.626  1.0549 -0.8567  0.2317
  706MOL0     H97383   3.025   2.019   8.768  2.3454 -1.9487 -2.9290
  706MOL0     H97384   2.841   2.003   8.528 -1.4473 -3.2137  0.1421
  706MOL0     H97385   2.998   1.908   8.538 -1.5673 -0.7664 -2.8065
  706MOL0     H97386   2.874   1.686   8.860 -1.0451 -0.6689  1.2686
  706MOL0     H97387   2.868   1.311   8.831  2.6371  1.5172  0.3124
  706MOL0     H97388   2.759   1.416   8.918  0.0212  0.0281  1.0683
  706MOL0     H97389   2.926   1.439   8.936 -2.1884 -2.3024  2.3583
  706MOL0     H97390   2.737   1.201   8.292  0.1528 -1.1527 -2.1424
  706MOL0     H97391   2.641   0.998   8.185 -0.2761  0.5799 -0.5789
  706MOL0     H97392   2.280   0.799   8.386 -0.1322  1.8490 -0.3417
  706MOL0     H97393   2.253   0.862   8.217  2.9171  4.6457  1.6568
  706MOL0     H97394   2.325   0.624   8.152  0.2709  0.0418  0.6186
  706MOL0     H97395   2.394   0.603   8.304 -0.0910 -1.6487 -1.9891
  706MOL0     H97396   2.123   0.629   8.379 -0.6257  0.4445 -1.2321
  706MOL0     H97397   2.223   0.476   8.352  1.8404  0.0889 -2.0035
  706MOL0     H97398   2.039   0.444   8.271  2.7086 -3.2757  0.3220
  706MOL0     H97399   2.152   0.453   8.133  0.9176  1.7308 -0.4735
  706MOL0     H97400   1.924   0.626   8.241 -0.3995 -3.3341  0.5871
  706MOL0     H97401   2.030   0.713   8.142 -2.8012  1.2098  1.7194
  706MOL0     H97402   2.020   0.582   7.950  1.5261  1.1714  2.0372
  706MOL0     H97403   1.873   0.659   7.986  1.1376  0.6916 -1.4127
  706MOL0     H97404   1.926   0.354   8.010  2.5570  1.0527 -0.6726
  706MOL0     H97405   1.799   0.435   7.922  0.7731  1.6883 -0.6891
  706MOL0     H97406   1.815   0.394   8.221 -3.3257 -3.0101  0.8505
  706MOL0     H97407   1.690   0.358   8.102  3.8504 -3.7070  0.7452
  706MOL0     H97408   2.326   0.981   8.483  4.8410 -5.2360  2.8334
  706MOL0     H97409   2.418   1.188   8.580  2.2902 -1.0709  1.3709
  706MOL0     H97410   2.721   1.532   8.427 -1.3991  1.9645  0.2752
  706MOL0     H97411   2.782   1.772   8.471  0.3405  1.8284  3.2389
  706MOL0     H97412   2.161   3.246   8.823 -0.8728 -0.6149 -0.9228
  706MOL0     H97413   2.242   3.463   8.913 -0.2160 -0.0060  0.4947
  706MOL0     H97414   2.541   3.817   8.686 -1.9259 -0.8926  0.9453
  706MOL0     H97415   2.627   4.048   8.682  2.6729 -0.6413  1.5199
  706MOL0     H97416   2.540   4.286   9.054 -0.3293 -0.3557  0.0806
  706MOL0     H97417   2.716   4.290   9.057 -3.3592 -0.4073  4.4573
  706MOL0     H97418   2.588   4.488   9.028  3.8085 -0.1513  1.8385
  706MOL0     H97419   2.557   4.443   8.850  1.9067 -2.6820 -2.1427
  706MOL0     H97420   2.731   4.623   8.882 -0.6496 -0.5180 -2.0270
  706MOL0     H97421   2.810   4.515   9.000 -0.4862 -0.1995  0.7247
  706MOL0     H97422   2.856   4.529   8.729  4.0181 -0.7273  2.5770
  706MOL0     H97423   2.717   4.433   8.714 -1.7511  1.9192  0.1566
  706MOL0     H97424   3.007   4.145   8.866 -4.0388 -1.5049  1.0039
  706MOL0     H97425   2.582   4.080   9.116 -2.1356 -0.3532 -0.2475
  706MOL0     H97426   2.564   3.870   9.245  1.9287  0.1416 -1.0114
  706MOL0     H97427   2.400   3.827   9.184  0.1623 -1.7946 -1.0930
  706MOL0     H97428   2.533   3.717   9.165  1.2344 -0.0535 -2.0596
  707MOL0     O97429   3.463   1.549   1.824 -0.3778 -0.5495  0.1878
  707MOL0     C97430   3.470   1.592   1.940  0.6352 -0.5458 -0.3228
  707MOL0     O97431   3.573   1.655   1.998  0.1700 -0.0505 -0.3300
  707MOL0     C97432   3.679   1.667   1.922 -1.0394  0.2276  0.2864
  707MOL0     C97433   3.777   1.569   1.933 -0.2679  0.5777 -0.2221
  707MOL0     C97434   3.885   1.571   1.840 -0.4511  1.2826 -0.2316
  707MOL0     C97435   3.887   1.655   1.730  0.1365 -0.9440  0.0582
  707MOL0     O97436   3.975   1.634   1.638  0.5653  0.3576  0.3323
  707MOL0     C97437   3.977   1.701   1.516 -0.4205 -0.8695 -0.4184
  707MOL0     C97438   4.015   1.592   1.410 -0.4591  0.1501 -0.3909
  707MOL0     C97439   4.163   1.564   1.387 -0.4017 -0.4270 -0.4395
  707MOL0     C97440   4.236   1.674   1.296 -0.0256  0.0763 -0.4747
  707MOL0     C97441   4.372   1.636   1.249  0.2587  0.5437  0.4154
  707MOL0     C97442   4.360   1.508   1.157 -0.9669 -0.1243 -0.0485
  707MOL0     C97443   4.494   1.491   1.077  0.0326 -0.0966  0.1306
  707MOL0     C97444   4.621   1.466   1.163 -0.3616  1.0245  0.9589
  707MOL0     N97445   4.718   1.567   1.118 -0.0425  0.1443  0.5405
  707MOL0     C97446   4.767   1.582   0.991 -0.2577  0.0809 -0.5797
  707MOL0     C97447   4.858   1.682   0.989  0.2625  0.1342 -0.4097
  707MOL0     C97448   4.932   1.734   0.864  0.7757  0.3947 -0.6716
  707MOL0     C97449   4.856   1.846   0.793  0.4150 -0.2109 -0.1413
  707MOL0     C97450   4.765   1.922   0.895  0.0442 -0.3604  0.3501
  707MOL0     C97451   4.691   2.041   0.827 -0.2826  0.7517  0.5626
  707MOL0     O97452   4.780   2.130   0.766  0.1589  0.8599 -0.8993
  707MOL0     C97453   4.724   2.259   0.765  0.8553  0.1089 -0.2677
  707MOL0     C97454   4.710   2.347   0.884  0.0808  0.1569  0.7211
  707MOL0     C97455   4.665   2.481   0.866 -1.0646  0.0303 -0.2369
  707MOL0     C97456   4.685   2.569   0.991  0.3386  0.3782 -0.0813
  707MOL0     C97457   4.609   2.516   0.746  0.5134  0.7300  0.5411
  707MOL0     C97458   4.555   2.647   0.713  0.0539 -0.6654 -1.3673
  707MOL0     O97459   4.454   2.665   0.618 -0.5417  0.0421 -0.8072
  707MOL0     C97460   4.353   2.751   0.636 -0.4201 -0.7260 -0.8767
  707MOL0     C97461   4.272   2.787   0.526  0.9554 -0.3042 -0.1933
  707MOL0     C97462   4.155   2.863   0.535 -0.1378  0.2788  0.0596
  707MOL0     C97463   4.117   2.928   0.650  0.6741 -0.4602  0.6108
  707MOL0     O97464   4.005   3.005   0.650  0.4108 -0.5378  0.4748
  707MOL0     C97465   4.002   3.097   0.759 -0.1272 -0.5025  0.3409
  707MOL0     C97466   3.883   3.203   0.737  0.1368 -0.4445 -0.2773
  707MOL0     C97467   3.902   3.336   0.820  0.6280  0.5928 -0.0811
  707MOL0     C97468   3.776   3.428   0.828  0.6195 -0.3316 -0.1486
  707MOL0     C97469   3.712   3.457   0.692  1.0722 -1.1062 -0.5765
  707MOL0     C97470   3.587   3.541   0.707  0.4451 -0.1522  0.0467
  707MOL0     C97471   3.511   3.571   0.574  0.1743 -0.7003  0.1857
  707MOL0     C97472   3.574   3.687   0.490 -0.0358 -0.2836  0.3275
  707MOL0    Cl97473   3.497   3.699   0.325 -0.0659  0.3605  0.1385
  707MOL0     C97474   4.196   2.896   0.763 -0.4927 -0.4245 -0.1788
  707MOL0     C97475   4.308   2.816   0.756  0.6524  0.5289 -0.2070
  707MOL0     O97476   4.610   2.742   0.771 -0.3616  0.3924  1.3582
  707MOL0     C97477   4.614   2.426   0.642 -0.0443 -0.2748  0.2910
  707MOL0     C97478   4.671   2.304   0.648 -0.1398 -0.2927  0.3665
  707MOL0     N97479   4.851   1.743   1.114 -0.0955  1.1846  0.8112
  707MOL0     N97480   4.767   1.673   1.186 -0.2991 -1.1078 -0.3284
  707MOL0     C97481   3.787   1.749   1.720  0.0989 -0.3272  0.1770
  707MOL0     C97482   3.679   1.758   1.813 -0.8662  0.9220 -0.3394
  707MOL0     C97483   3.364   1.565   2.040  0.2934 -0.2514  1.1586
  707MOL0     C97484   3.328   1.660   2.136  0.7557  0.3359  0.2847
  707MOL0     C97485   3.231   1.632   2.236  0.1760 -0.2359  0.3480
  707MOL0     C97486   3.160   1.513   2.246 -1.6685 -0.1783  0.6917
  707MOL0     O97487   3.068   1.478   2.337  0.1943 -0.6878 -0.4523
  707MOL0     C97488   3.060   1.566   2.455 -0.0072 -0.2076  0.0922
  707MOL0     C97489   2.988   1.701   2.423  0.1461 -0.3491  0.0722
  707MOL0     C97490   2.840   1.678   2.412 -0.0708  0.5675 -0.3258
  707MOL0     C97491   2.752   1.795   2.351  0.3799  0.4586  0.6420
  707MOL0     C97492   2.736   1.920   2.437 -0.5995 -0.3017  0.0539
  707MOL0     C97493   2.714   2.021   2.505 -0.9262  0.5170  0.3058
  707MOL0     C97494   3.209   1.423   2.152  0.7380  0.7645 -0.4459
  707MOL0     C97495   3.297   1.441   2.051 -1.3284 -0.3545  0.3043
  707MOL0     C97496   3.316   1.328   1.960 -0.9833  0.2086 -0.6773
  707MOL0     H97497   3.766   1.485   2.001 -0.4086 -0.7044 -1.7657
  707MOL0     H97498   3.949   1.483   1.838 -1.8176  0.2272  0.0796
  707MOL0     H97499   4.055   1.778   1.519 -0.7794 -0.4439 -1.5479
  707MOL0     H97500   3.879   1.745   1.493 -1.8787 -1.4704  3.7411
  707MOL0     H97501   3.968   1.500   1.443 -1.7637  1.3998  1.4398
  707MOL0     H97502   3.959   1.629   1.324  2.3538  6.2533 -0.1821
  707MOL0     H97503   4.214   1.541   1.481 -0.7222  2.2840  0.4716
  707MOL0     H97504   4.160   1.465   1.342 -0.2086 -1.1581  1.1000
  707MOL0     H97505   4.170   1.685   1.210  1.4945 -0.6914 -1.7819
  707MOL0     H97506   4.246   1.767   1.354 -2.9903  1.1851 -1.5358
  707MOL0     H97507   4.446   1.615   1.326  3.6357 -4.5550 -3.5931
  707MOL0     H97508   4.397   1.718   1.181 -0.9022  0.6191  0.0521
  707MOL0     H97509   4.353   1.407   1.197  1.9758 -1.0203 -1.5652
  707MOL0     H97510   4.274   1.529   1.092 -0.2467  0.5693 -0.8052
  707MOL0     H97511   4.504   1.578   1.011  1.1181 -0.5406 -0.3022
  707MOL0     H97512   4.489   1.404   1.012 -0.2854  0.9177 -1.2675
  707MOL0     H97513   4.600   1.466   1.271  0.3578 -0.8338  1.1272
  707MOL0     H97514   4.671   1.373   1.136  3.6053  2.9613  0.9331
  707MOL0     H97515   4.740   1.516   0.910 -3.7431  1.2481 -0.5411
  707MOL0     H97516   4.942   1.666   0.778  0.1682 -2.5218  1.4307
  707MOL0     H97517   5.027   1.780   0.893 -1.1687  2.4114  3.0972
  707MOL0     H97518   4.921   1.907   0.729  5.4519 -2.9840  1.7437
  707MOL0     H97519   4.779   1.806   0.727  1.1633 -1.2099 -0.4306
  707MOL0     H97520   4.687   1.859   0.938 -0.3461 -0.9626 -1.1927
  707MOL0     H97521   4.817   1.973   0.977 -0.0545 -1.0610  0.8572
  707MOL0     H97522   4.623   2.003   0.751  1.7125 -1.0427 -0.4358
  707MOL0     H97523   4.633   2.092   0.905 -2.5799 -1.9279  0.7388
  707MOL0     H97524   4.737   2.302   0.980 -0.5159 -1.1702  0.2910
  707MOL0     H97525   4.696   2.518   1.087 -1.1723  0.8522  0.3809
  707MOL0     H97526   4.602   2.639   1.006 -1.8939 -2.2236  0.5736
  707MOL0     H97527   4.775   2.630   0.978  0.8366  0.4575  2.9125
  707MOL0     H97528   4.317   2.745   0.436 -0.5090  0.7820 -1.4827
  707MOL0     H97529   4.099   2.872   0.442 -1.9063 -1.6286  0.8447
  707MOL0     H97530   3.980   3.047   0.854 -1.3279  1.1487  0.9939
  707MOL0     H97531   4.095   3.153   0.765 -0.7373  0.3588  2.6956
  707MOL0     H97532   3.882   3.240   0.634 -3.6228  0.6949  0.0293
  707MOL0     H97533   3.791   3.149   0.760 -0.3251 -1.3832 -3.7372
  707MOL0     H97534   3.982   3.390   0.769  4.3788 -4.7427 -0.7326
  707MOL0     H97535   3.922   3.311   0.925  0.5749 -0.4473 -0.3096
  707MOL0     H97536   3.804   3.518   0.884 -1.8211  1.2267 -1.2546
  707MOL0     H97537   3.704   3.374   0.890  1.3495  1.8520  2.8498
  707MOL0     H97538   3.790   3.498   0.628 -0.3212 -2.4393 -3.3138
  707MOL0     H97539   3.684   3.361   0.647  1.5550 -0.2346 -2.8703
  707MOL0     H97540   3.614   3.631   0.763  3.0113 -2.1855  2.4118
  707MOL0     H97541   3.521   3.484   0.773 -0.1399  0.6481  0.1589
  707MOL0     H97542   3.412   3.602   0.607  1.7790  3.4996  1.8134
  707MOL0     H97543   3.496   3.488   0.505 -0.5827 -1.1890  0.9230
  707MOL0     H97544   3.679   3.667   0.465 -0.1074 -0.6059  0.2819
  707MOL0     H97545   3.562   3.782   0.543  0.0339  0.6006 -1.1802
  707MOL0     H97546   4.174   2.940   0.860  1.7422  3.3501 -1.1486
  707MOL0     H97547   4.363   2.793   0.846  1.2418 -4.4859 -1.5470
  707MOL0     H97548   4.591   2.461   0.542  2.0358  0.9102  0.1708
  707MOL0     H97549   4.682   2.237   0.563 -0.5380 -2.0128  1.5966
  707MOL0     H97550   3.757   1.798   1.627 -0.4699 -1.2768 -0.1531
  707MOL0     H97551   3.600   1.831   1.802 -1.0009  0.5898 -1.8332
  707MOL0     H97552   3.378   1.756   2.136  0.7022  0.4479 -2.5038
  707MOL0     H97553   3.230   1.712   2.308  1.5745  0.4661 -0.3817
  707MOL0     H97554   3.005   1.517   2.536  1.0878 -0.9791  0.3981
  707MOL0     H97555   3.162   1.586   2.491  0.5082 -0.0051 -1.4326
  707MOL0     H97556   3.020   1.751   2.331  2.0551  3.7202  2.6570
  707MOL0     H97557   3.000   1.775   2.503 -4.1998 -1.0662  1.6957
  707MOL0     H97558   2.826   1.590   2.348  0.4676  1.4176 -1.6737
  707MOL0     H97559   2.809   1.657   2.514 -2.7538 -1.2951 -1.4017
  707MOL0     H97560   2.656   1.747   2.331  1.6398 -2.7796  1.7761
  707MOL0     H97561   2.801   1.812   2.255  0.0088 -0.8002  0.2120
  707MOL0     H97562   2.705   2.115   2.556  3.1445  0.7615  0.8718
  707MOL0     H97563   3.157   1.328   2.161  3.7069 -0.8650  1.3995
  707MOL0     H97564   3.406   1.328   1.897 -2.5097 -1.9216 -3.0182
  707MOL0     H97565   3.315   1.236   2.019 -3.4765 -1.4422 -3.0613
  707MOL0     H97566   3.233   1.310   1.892 -0.2700 -3.1168 -0.8622
  708MOL0     O97567   5.107   4.821   0.639  0.7545  0.5042 -0.3178
  708MOL0     C97568   5.062   4.930   0.610 -0.0365  0.4817 -0.4547
  708MOL0     O97569   4.946   4.950   0.545  0.5516 -0.6623  0.5118
  708MOL0     C97570   4.840   4.857   0.552  0.2684 -0.7252 -0.4643
  708MOL0     C97571   4.717   4.904   0.603  1.0628  0.8748  0.4014
  708MOL0     C97572   4.602   4.815   0.611  0.0370 -0.2146 -0.3172
  708MOL0     C97573   4.608   4.679   0.582 -0.1096  0.3075 -0.3045
  708MOL0     O97574   4.501   4.593   0.616  0.1524  0.1585  0.2835
  708MOL0     C97575   4.520   4.448   0.626 -0.1872  0.7348 -0.3937
  708MOL0     C97576   4.578   4.419   0.763  0.1892  0.2509 -0.4901
  708MOL0     C97577   4.489   4.458   0.888  0.1267 -0.0489 -0.6020
  708MOL0     C97578   4.536   4.387   1.017  0.2332  0.4471 -1.1649
  708MOL0     C97579   4.504   4.242   1.020  1.0967 -0.0463 -0.2438
  708MOL0     C97580   4.530   4.184   1.157 -0.5628 -0.1880  0.3276
  708MOL0     C97581   4.487   4.036   1.168  0.3612  0.2769 -0.6783
  708MOL0     C97582   4.349   4.008   1.214  0.2066 -0.1781  0.2482
  708MOL0     N97583   4.261   4.099   1.161 -0.2655  1.2812 -0.4443
  708MOL0     C97584   4.193   4.082   1.044  0.4492 -0.6323  1.3329
  708MOL0     C97585   4.115   4.195   1.041  0.8817  0.0005 -0.6579
  708MOL0     C97586   4.013   4.213   0.934 -0.8804 -0.9421  0.5626
  708MOL0     C97587   4.059   4.292   0.812  0.0348 -0.6999 -0.6607
  708MOL0     C97588   4.079   4.443   0.831 -0.1535 -0.8366 -0.2225
  708MOL0     C97589   4.098   4.509   0.701 -0.4799  0.5485 -0.0689
  708MOL0     O97590   3.992   4.474   0.609  0.2164 -0.1338 -0.2552
  708MOL0     C97591   3.889   4.568   0.608  0.1293 -0.3924 -0.3242
  708MOL0     C97592   3.914   4.702   0.597 -0.3642  0.1557 -0.6040
  708MOL0     C97593   3.818   4.801   0.625 -0.0593  0.7363 -0.4843
  708MOL0     C97594   3.857   4.940   0.591  0.5788  0.0965 -0.0259
  708MOL0     C97595   3.688   4.762   0.655 -0.0423  0.1021  0.1467
  708MOL0     C97596   3.574   4.855   0.666 -0.5204  1.0997  0.0376
  708MOL0     O97597   3.447   4.794   0.683 -0.9834 -0.1179  0.2966
  708MOL0     C97598   3.332   4.863   0.658 -0.1803 -0.6476  0.0702
  708MOL0     C97599   3.222   4.847   0.745  1.1554 -0.0755  1.0099
  708MOL0     C97600   3.094   4.912   0.720 -0.0019  0.3854  0.2767
  708MOL0     C97601   3.083   4.990   0.608  0.3543  0.1905  0.5265
  708MOL0     O97602   2.976   5.065   0.572 -0.6086 -0.2413  1.0125
  708MOL0     C97603   2.842   5.016   0.592  0.0490  0.0316 -1.1374
  708MOL0     C97604   2.798   4.920   0.487  0.3493  0.6479 -0.1882
  708MOL0     C97605   2.773   4.780   0.532  0.0527  0.4490  0.2710
  708MOL0     C97606   2.648   4.742   0.624 -0.0571  0.9010 -0.8846
  708MOL0     C97607   2.518   4.767   0.559  0.3794  0.3473 -0.4527
  708MOL0     C97608   2.397   4.717   0.620  0.5732  0.3606 -0.2104
  708MOL0     C97609   2.390   4.567   0.634 -0.6567 -0.8454 -0.3227
  708MOL0     C97610   2.244   4.533   0.619 -0.3782  0.5894 -0.7117
  708MOL0    Cl97611   2.205   4.359   0.636 -0.2513  0.1306  0.3639
  708MOL0     C97612   3.192   5.002   0.526 -0.0331 -0.8434  0.1718
  708MOL0     C97613   3.314   4.953   0.548  0.7189  0.3053 -0.1436
  708MOL0     O97614   3.590   4.975   0.666  0.1176  0.4104 -0.6171
  708MOL0     C97615   3.667   4.626   0.685  0.0154 -0.2824 -0.8637
  708MOL0     C97616   3.764   4.526   0.670 -0.3260  0.0843  1.4899
  708MOL0     N97617   4.134   4.275   1.152 -0.3137  0.0289 -0.5272
  708MOL0     N97618   4.215   4.213   1.225 -0.2814  0.0584  0.0726
  708MOL0     C97619   4.731   4.637   0.532  0.2699 -0.4508 -1.1797
  708MOL0     C97620   4.840   4.722   0.516 -0.1927 -0.1444 -0.6374
  708MOL0     C97621   5.157   5.050   0.615 -0.3562  0.0709  0.4702
  708MOL0     C97622   5.132   5.158   0.531  0.4898 -0.3973 -0.1423
  708MOL0     C97623   5.209   5.275   0.537  0.8898 -0.5690  1.0375
  708MOL0     C97624   5.315   5.280   0.628 -0.1474  0.6563 -0.6457
  708MOL0     O97625   5.391   5.387   0.658  0.3825  0.5456 -1.3094
  708MOL0     C97626   5.382   5.520   0.595 -0.6389 -0.4771  0.1408
  708MOL0     C97627   5.531   5.563   0.588 -0.2593  0.2053  0.5863
  708MOL0     C97628   5.583   5.573   0.738  1.1326 -0.1267  0.5716
  708MOL0     C97629   5.723   5.632   0.739 -0.3467  0.8397  0.3323
  708MOL0     C97630   5.789   5.596   0.865  0.8884  0.5970 -0.0148
  708MOL0     C97631   5.832   5.553   0.970 -0.1847  0.0892  0.9130
  708MOL0     C97632   5.355   5.164   0.697 -0.5961  0.3731 -0.5064
  708MOL0     C97633   5.272   5.049   0.698 -0.4195  0.0589 -0.8534
  708MOL0     C97634   5.326   4.932   0.785 -0.1470  0.2764 -0.4250
  708MOL0     H97635   4.688   5.005   0.630 -1.4826  1.0456 -2.3521
  708MOL0     H97636   4.522   4.867   0.662  2.3655  2.7417  0.6345
  708MOL0     H97637   4.592   4.414   0.551 -1.1345 -3.4542  0.3248
  708MOL0     H97638   4.426   4.395   0.607  0.2826 -0.2192 -0.0974
  708MOL0     H97639   4.594   4.311   0.772  1.1152  0.3297 -1.0688
  708MOL0     H97640   4.675   4.467   0.781  0.2941  0.3321 -1.2311
  708MOL0     H97641   4.514   4.563   0.903  1.4181 -0.2418 -1.2360
  708MOL0     H97642   4.385   4.458   0.854  0.8176  0.5683 -2.8284
  708MOL0     H97643   4.642   4.399   1.038  0.6424 -3.0001 -0.6809
  708MOL0     H97644   4.497   4.442   1.104 -0.8348 -1.4475 -0.3721
  708MOL0     H97645   4.550   4.179   0.943 -2.8178 -2.8321 -0.6293
  708MOL0     H97646   4.395   4.236   1.009  1.1833 -4.3199 -0.6224
  708MOL0     H97647   4.639   4.175   1.167 -0.3840 -1.1903 -1.8707
  708MOL0     H97648   4.492   4.255   1.231  0.0721  0.4997  0.0128
  708MOL0     H97649   4.556   3.985   1.236 -1.2962 -3.2217 -1.4183
  708MOL0     H97650   4.503   3.977   1.078 -2.0233 -0.2862 -0.7807
  708MOL0     H97651   4.326   3.906   1.181  1.3115 -0.6635  0.9327
  708MOL0     H97652   4.339   4.006   1.323 -1.6320  0.3855  0.1226
  708MOL0     H97653   4.196   4.004   0.968  0.2268  0.7118 -0.0945
  708MOL0     H97654   3.933   4.265   0.987 -0.7392  0.0547 -0.1842
  708MOL0     H97655   3.984   4.114   0.897  0.9333 -1.2265 -0.2038
  708MOL0     H97656   4.152   4.256   0.768  1.2883  1.3061  0.1729
  708MOL0     H97657   3.980   4.281   0.737 -0.5956  1.5955 -0.4100
  708MOL0     H97658   3.999   4.491   0.888 -0.3333  2.6397 -3.0414
  708MOL0     H97659   4.167   4.453   0.894  0.3361 -3.3375 -0.4033
  708MOL0     H97660   4.122   4.613   0.724 -0.1481  0.3844  0.3449
  708MOL0     H97661   4.194   4.472   0.666 -0.3682  0.1093  0.6805
  708MOL0     H97662   4.012   4.731   0.560 -0.0108 -2.2537 -1.7615
  708MOL0     H97663   3.796   4.966   0.504 -1.3849 -0.2458  1.2045
  708MOL0     H97664   3.964   4.946   0.568  0.7727  2.2956  1.1579
  708MOL0     H97665   3.840   5.008   0.675  0.8972  1.7503 -1.2536
  708MOL0     H97666   3.221   4.774   0.825 -3.6438 -3.5990 -1.7326
  708MOL0     H97667   3.012   4.892   0.788  0.6143  2.4112  1.7146
  708MOL0     H97668   2.841   4.963   0.688 -1.4746 -2.7175 -2.5465
  708MOL0     H97669   2.763   5.091   0.598 -2.4619 -2.2507 -3.0293
  708MOL0     H97670   2.698   4.954   0.459  0.3433 -0.6427 -1.9621
  708MOL0     H97671   2.863   4.924   0.399 -1.9067 -0.1596 -1.9936
  708MOL0     H97672   2.864   4.756   0.588 -0.9768 -1.8963  1.1071
  708MOL0     H97673   2.763   4.722   0.440 -2.8446  1.2621 -0.0377
  708MOL0     H97674   2.654   4.791   0.722  1.2134 -0.4056 -0.2657
  708MOL0     H97675   2.659   4.634   0.630  0.2208  0.9270 -0.9119
  708MOL0     H97676   2.513   4.876   0.554  2.2758  0.8062  3.5102
  708MOL0     H97677   2.523   4.723   0.459  1.7616 -0.5136 -0.0346
  708MOL0     H97678   2.323   4.761   0.552  2.8682  0.3838 -2.8578
  708MOL0     H97679   2.399   4.769   0.716  2.4636  1.8596 -1.0087
  708MOL0     H97680   2.433   4.539   0.731 -0.6400  0.6052  0.1134
  708MOL0     H97681   2.443   4.528   0.547 -0.4023  1.7269 -1.3946
  708MOL0     H97682   2.207   4.566   0.521 -0.1301 -0.8971 -1.3425
  708MOL0     H97683   2.193   4.594   0.694 -2.6602 -0.0393 -1.6686
  708MOL0     H97684   3.178   5.061   0.436  1.0099 -1.4521 -0.4129
  708MOL0     H97685   3.395   4.978   0.479 -1.8311  3.4074 -2.3357
  708MOL0     H97686   3.572   4.602   0.730 -0.3083  3.9211  1.1593
  708MOL0     H97687   3.734   4.422   0.666  1.6346 -0.5134 -1.4222
  708MOL0     H97688   4.758   4.537   0.502  0.0835 -0.6188 -0.7928
  708MOL0     H97689   4.926   4.671   0.474 -1.7170 -2.8377 -0.7225
  708MOL0     H97690   5.044   5.162   0.468 -0.2274  1.0294  0.8835
  708MOL0     H97691   5.177   5.357   0.474 -0.8555  0.8443  3.5575
  708MOL0     H97692   5.347   5.507   0.492 -1.3243  3.4107 -0.2916
  708MOL0     H97693   5.315   5.592   0.643 -1.4271  0.4516 -2.1568
  708MOL0     H97694   5.538   5.659   0.537  1.0867 -0.0201  0.3133
  708MOL0     H97695   5.584   5.481   0.539 -2.1656  0.2681 -1.7996
  708MOL0     H97696   5.525   5.647   0.794  1.2052  0.3604  0.0090
  708MOL0     H97697   5.570   5.482   0.798 -1.8521  1.7497  3.0571
  708MOL0     H97698   5.710   5.740   0.728  0.8690  0.9749  0.1646
  708MOL0     H97699   5.784   5.593   0.657 -1.4875  1.2209 -0.7369
  708MOL0     H97700   5.863   5.522   1.068  1.8667 -0.7734  0.0479
  708MOL0     H97701   5.444   5.169   0.759  0.2061 -1.3406 -1.4363
  708MOL0     H97702   5.422   4.958   0.831  0.4079 -0.2857 -1.2324
  708MOL0     H97703   5.266   4.918   0.876  0.1893 -1.6975 -0.4530
  708MOL0     H97704   5.358   4.845   0.727  1.5248  2.1076 -2.4206
  709MOL0     O97705   5.493   5.084   7.080  0.5430 -0.8430  0.1011
  709MOL0     C97706   5.426   4.999   7.014  0.6514 -0.4077  0.8612
  709MOL0     O97707   5.453   4.873   6.986  0.2234 -1.2968 -0.4798
  709MOL0     C97708   5.550   4.818   7.066 -0.6953 -1.3388  0.2033
  709MOL0     C97709   5.515   4.763   7.187 -0.1330  0.3621 -0.8953
  709MOL0     C97710   5.602   4.694   7.257 -0.6943  0.3679  0.8630
  709MOL0     C97711   5.742   4.684   7.216  0.8791 -0.4082 -0.3448
  709MOL0     O97712   5.837   4.624   7.294 -0.0915 -0.2435  0.5886
  709MOL0     C97713   5.794   4.545   7.401 -0.1020 -0.0088  0.6166
  709MOL0     C97714   5.906   4.479   7.491  0.1336  1.0616  0.4965
  709MOL0     C97715   6.005   4.561   7.560 -0.2440 -0.6665 -0.0931
  709MOL0     C97716   6.116   4.476   7.628  0.4155  0.3259  0.8192
  709MOL0     C97717   6.225   4.440   7.520 -0.0882 -0.3379 -0.1977
  709MOL0     C97718   6.348   4.400   7.605  0.2517  0.6348  0.5278
  709MOL0     C97719   6.466   4.322   7.535  0.2486 -0.2791 -0.1231
  709MOL0     C97720   6.521   4.398   7.416  1.0230 -0.0827  1.2048
  709MOL0     N97721   6.583   4.313   7.309  0.5136  0.5098 -0.4898
  709MOL0     C97722   6.524   4.226   7.222  1.2355 -0.3243 -0.4349
  709MOL0     C97723   6.623   4.202   7.142 -0.1178  0.5927 -0.0289
  709MOL0     C97724   6.615   4.105   7.023 -0.2336  0.2430  1.1219
  709MOL0     C97725   6.502   4.129   6.924  0.9835 -0.0761 -1.0321
  709MOL0     C97726   6.496   4.266   6.859  0.2538 -0.0502 -0.8269
  709MOL0     C97727   6.631   4.322   6.827  0.2070 -0.2625  0.2245
  709MOL0     O97728   6.631   4.446   6.755  0.1686  0.2004  1.1467
  709MOL0     C97729   6.552   4.552   6.804  0.4926 -0.2301 -0.0859
  709MOL0     C97730   6.527   4.566   6.936 -0.2398 -0.0564 -0.1741
  709MOL0     C97731   6.432   4.661   6.983 -0.1587  0.0990 -1.0947
  709MOL0     C97732   6.429   4.683   7.134  0.1939 -0.1599  0.1975
  709MOL0     C97733   6.352   4.735   6.891 -0.4344 -0.0016  0.5982
  709MOL0     C97734   6.244   4.837   6.936  0.5542  0.1583 -0.5693
  709MOL0     O97735   6.200   4.910   6.828  0.4619 -0.1735  0.0338
  709MOL0     C97736   6.122   5.019   6.864  1.0178  0.2547 -0.9169
  709MOL0     C97737   6.175   5.148   6.844  0.6018  0.9396 -0.4761
  709MOL0     C97738   6.103   5.254   6.887  0.2109 -0.1693  0.1455
  709MOL0     C97739   5.979   5.243   6.950 -0.3172  0.8665 -0.2673
  709MOL0     O97740   5.917   5.353   6.992  0.3253 -0.3714 -0.0399
  709MOL0     C97741   5.815   5.345   7.094 -0.1820  0.2201  0.6230
  709MOL0     C97742   5.684   5.379   7.017  0.2159 -0.4984 -1.0940
  709MOL0     C97743   5.561   5.407   7.107  0.1627  0.1168 -0.6806
  709MOL0     C97744   5.423   5.410   7.042  0.1188  0.6550  0.9385
  709MOL0     C97745   5.349   5.533   7.089 -0.1074  0.8225  0.3074
  709MOL0     C97746   5.211   5.528   7.045  1.1738  1.3814 -0.2213
  709MOL0     C97747   5.192   5.529   6.892 -0.5698  0.3215 -0.7532
  709MOL0     C97748   5.052   5.515   6.841 -0.4936 -1.2272  0.1128
  709MOL0    Cl97749   4.945   5.627   6.925  0.4473  0.0411  0.1066
  709MOL0     C97750   5.922   5.109   6.962 -0.1647 -0.4811 -0.2578
  709MOL0     C97751   5.990   4.999   6.914 -0.0092  0.0563  0.2784
  709MOL0     O97752   6.196   4.834   7.051  0.2326  0.5052 -0.0295
  709MOL0     C97753   6.395   4.725   6.758 -0.2788 -0.0575  0.2367
  709MOL0     C97754   6.491   4.631   6.716 -0.3623  0.3754 -0.0630
  709MOL0     N97755   6.739   4.256   7.190  0.2518 -0.4327 -0.4104
  709MOL0     N97756   6.715   4.322   7.287 -0.6958 -0.8638 -0.1623
  709MOL0     C97757   5.772   4.731   7.088 -0.6319 -0.0719 -0.3313
  709MOL0     C97758   5.680   4.801   7.011 -0.1834 -1.0921  0.4383
  709MOL0     C97759   5.287   5.036   6.958 -0.6830  0.9031  0.6172
  709MOL0     C97760   5.274   5.033   6.818 -0.1878 -0.0436  0.0355
  709MOL0     C97761   5.158   5.085   6.759 -0.0370 -0.8746  0.2295
  709MOL0     C97762   5.050   5.132   6.823 -0.0975  1.3836  0.5025
  709MOL0     O97763   4.939   5.169   6.753 -0.9255 -0.1347  0.6449
  709MOL0     C97764   4.825   5.218   6.829  0.5627 -0.8113 -0.0461
  709MOL0     C97765   4.714   5.238   6.726  0.3636 -0.3163 -0.7048
  709MOL0     C97766   4.663   5.112   6.660 -0.3194 -0.4307  0.2758
  709MOL0     C97767   4.649   4.982   6.735  0.1284  0.1161 -0.6090
  709MOL0     C97768   4.566   4.989   6.855  0.1008  1.0166  0.9054
  709MOL0     C97769   4.506   5.000   6.963 -0.6247 -0.9697  0.7738
  709MOL0     C97770   5.058   5.135   6.964 -0.0490 -0.2727  0.7061
  709MOL0     C97771   5.183   5.091   7.025  0.2707 -0.0854  0.4146
  709MOL0     C97772   5.178   5.082   7.175 -0.4440  0.9238 -0.5811
  709MOL0     H97773   5.417   4.762   7.234  1.4067  0.0025  2.6173
  709MOL0     H97774   5.557   4.638   7.338  0.4097  2.1797  2.8363
  709MOL0     H97775   5.717   4.476   7.366 -2.1076  1.8897  1.0464
  709MOL0     H97776   5.734   4.603   7.471 -0.0014 -0.6244  1.2299
  709MOL0     H97777   5.871   4.402   7.560  1.3113 -1.3506 -1.4607
  709MOL0     H97778   5.958   4.413   7.422 -1.1125 -1.9486  2.2396
  709MOL0     H97779   6.042   4.621   7.477  0.2256 -3.9953 -2.5268
  709MOL0     H97780   5.946   4.618   7.632 -0.7985 -0.2214 -0.8809
  709MOL0     H97781   6.168   4.535   7.704  0.5432 -1.9240  2.6035
  709MOL0     H97782   6.075   4.389   7.682 -1.3480 -1.1681 -2.6412
  709MOL0     H97783   6.228   4.519   7.445 -4.7867 -2.1029 -2.6657
  709MOL0     H97784   6.182   4.354   7.468 -1.2828  0.5992 -0.8258
  709MOL0     H97785   6.383   4.485   7.663 -0.8245  2.6314 -1.5687
  709MOL0     H97786   6.300   4.329   7.673  0.1687  1.3195  1.1934
  709MOL0     H97787   6.435   4.219   7.510  2.8896 -0.7604 -1.7788
  709MOL0     H97788   6.545   4.307   7.609  1.7119 -0.4420 -1.6674
  709MOL0     H97789   6.438   4.437   7.356  1.2808 -1.7628 -0.3040
  709MOL0     H97790   6.588   4.480   7.444  0.8392  0.3943  0.2832
  709MOL0     H97791   6.416   4.214   7.214  0.8881  1.4328  1.1428
  709MOL0     H97792   6.603   4.001   7.055  2.4614  0.0776  1.8259
  709MOL0     H97793   6.708   4.102   6.965 -1.5548 -0.9695 -1.0798
  709MOL0     H97794   6.502   4.061   6.838 -0.3776 -2.1143  0.4681
  709MOL0     H97795   6.404   4.108   6.968 -0.1527  0.1389 -3.2995
  709MOL0     H97796   6.427   4.262   6.773  2.7415  0.4702 -2.9576
  709MOL0     H97797   6.454   4.318   6.945  2.0321 -0.4718  0.3359
  709MOL0     H97798   6.691   4.343   6.916 -1.3732 -1.4713  1.6524
  709MOL0     H97799   6.686   4.254   6.761 -0.9740  0.7096 -1.8626
  709MOL0     H97800   6.589   4.511   7.006 -1.2532 -1.2366 -0.1710
  709MOL0     H97801   6.520   4.651   7.185  1.5416 -0.7508 -2.3804
  709MOL0     H97802   6.347   4.625   7.177  1.7410 -2.1750  0.5744
  709MOL0     H97803   6.415   4.790   7.151  2.8588  0.6063 -1.6942
  709MOL0     H97804   6.278   5.150   6.809  0.3941 -1.2228 -1.3269
  709MOL0     H97805   6.135   5.357   6.878 -0.7302 -0.0075 -2.0690
  709MOL0     H97806   5.807   5.247   7.140 -1.2141  0.4472  0.9746
  709MOL0     H97807   5.815   5.432   7.161 -1.5087  2.0350 -1.5868
  709MOL0     H97808   5.687   5.466   6.951 -1.7610  0.8588  0.4807
  709MOL0     H97809   5.665   5.301   6.943  2.0727 -1.2707 -0.8150
  709MOL0     H97810   5.580   5.501   7.158  2.5031 -1.1232  0.8759
  709MOL0     H97811   5.568   5.333   7.187  0.1818 -0.5693 -1.2960
  709MOL0     H97812   5.373   5.314   7.060  1.5226 -1.0134 -2.9554
  709MOL0     H97813   5.431   5.415   6.933 -0.1273  1.5854  0.9580
  709MOL0     H97814   5.354   5.531   7.198  1.8987 -0.7600  0.2632
  709MOL0     H97815   5.398   5.628   7.062  3.4162 -1.1506 -0.8671
  709MOL0     H97816   5.154   5.615   7.079  0.6194  3.2212 -5.0615
  709MOL0     H97817   5.171   5.443   7.101  4.2852  2.1617  3.6673
  709MOL0     H97818   5.241   5.442   6.848  4.1880  2.7656 -1.0305
  709MOL0     H97819   5.244   5.619   6.856  3.9145 -0.8725  1.8319
  709MOL0     H97820   5.018   5.411   6.852  1.5987 -2.1098 -1.1214
  709MOL0     H97821   5.062   5.533   6.734  0.6589 -0.6536  0.2994
  709MOL0     H97822   5.823   5.090   7.002 -0.0255 -3.8222 -1.1569
  709MOL0     H97823   5.946   4.899   6.911  1.5926 -0.7288 -3.8970
  709MOL0     H97824   6.364   4.793   6.679  1.3871  0.5121  0.0159
  709MOL0     H97825   6.524   4.611   6.614  2.2733  2.7301  0.2000
  709MOL0     H97826   5.875   4.736   7.054 -0.6020  0.0141 -0.2304
  709MOL0     H97827   5.715   4.842   6.917  1.8558 -2.9693  0.2908
  709MOL0     H97828   5.354   4.989   6.760 -0.8098  0.4908 -1.2709
  709MOL0     H97829   5.148   5.101   6.652 -2.2176 -2.8553  0.0556
  709MOL0     H97830   4.799   5.149   6.909  1.7004 -0.5059  0.6128
  709MOL0     H97831   4.844   5.316   6.874  2.7830 -0.5227 -1.4783
  709MOL0     H97832   4.751   5.306   6.648 -1.3796  0.1829 -1.1275
  709MOL0     H97833   4.639   5.301   6.776  2.8042  1.0384  1.5335
  709MOL0     H97834   4.578   5.135   6.595  0.8706  1.6281 -0.6564
  709MOL0     H97835   4.748   5.090   6.595  1.6357 -0.0170  2.5253
  709MOL0     H97836   4.745   4.938   6.761 -0.3098 -0.3689  0.2134
  709MOL0     H97837   4.596   4.917   6.664  0.7543 -0.5558 -0.4669
  709MOL0     H97838   4.459   5.021   7.057  1.0023 -1.1914  1.6629
  709MOL0     H97839   4.976   5.165   7.029 -1.4522 -1.2337 -0.5489
  709MOL0     H97840   5.268   5.134   7.209  1.4244 -2.8444  0.8716
  709MOL0     H97841   5.084   5.117   7.217  0.2297  0.9819  0.9405
  709MOL0     H97842   5.197   4.981   7.213  1.6999  2.4205  2.7475
  710MOL0     O97843   5.562  10.039  11.269  0.3726 -0.9611  0.8046
  710MOL0     C97844   5.657  10.079  11.338  0.4051  0.6997  0.1732
  710MOL0     O97845   5.697  10.211  11.365  0.5637 -0.3501 -0.6133
  710MOL0     C97846   5.627  10.328  11.325 -0.4952 -0.0024 -0.2615
  710MOL0     C97847   5.654  10.450  11.394  1.1226 -0.0767 -0.2572
  710MOL0     C97848   5.590  10.565  11.356 -0.7837 -0.1926 -0.8453
  710MOL0     C97849   5.506  10.577  11.248  0.3738 -0.3148  0.3684
  710MOL0     O97850   5.458  10.704  11.217 -0.0207 -0.1719 -0.4763
  710MOL0     C97851   5.366  10.718  11.105 -0.1569  0.1485  0.0578
  710MOL0     C97852   5.290  10.853  11.118  0.0054  0.6902 -0.8985
  710MOL0     C97853   5.214  10.861  11.247 -0.0781 -0.2418  0.1615
  710MOL0     C97854   5.169  10.998  11.263  0.5596 -0.0587  0.0914
  710MOL0     C97855   5.096  11.007  11.401  0.1446 -0.0418  0.2463
  710MOL0     C97856   5.000  11.125  11.414 -0.1486 -0.5634  1.5869
  710MOL0     C97857   4.988  11.166  11.562  0.4142  1.1794  0.6551
  710MOL0     C97858   4.874  11.267  11.584 -0.7542  0.3747  0.6001
  710MOL0     N97859   4.849  11.263  11.728  0.1402 -0.6157 -0.2084
  710MOL0     C97860   4.887  11.363  11.817 -0.2718 -0.2253  0.2198
  710MOL0     C97861   4.831  11.315  11.934  0.3111  0.9318  0.4630
  710MOL0     C97862   4.854  11.383  12.066  0.4804  0.2442 -0.7615
  710MOL0     C97863   4.996  11.427  12.096 -0.1290 -0.1042 -0.7810
  710MOL0     C97864   5.096  11.307  12.077 -0.4326 -0.0315 -1.5436
  710MOL0     C97865   5.059  11.175  12.160 -0.3783 -0.3440  0.4379
  710MOL0     O97866   5.085  11.187  12.302  0.2389  0.5293 -0.0887
  710MOL0     C97867   5.108  11.072  12.383  0.0224  0.4432 -0.2474
  710MOL0     C97868   5.085  10.934  12.350  0.3264  0.2654  0.3234
  710MOL0     C97869   5.128  10.831  12.430 -0.1424  0.0756 -0.6299
  710MOL0     C97870   5.101  10.691  12.391  0.0986  0.0307 -0.0787
  710MOL0     C97871   5.193  10.864  12.566  0.2839 -0.4899 -0.9303
  710MOL0     C97872   5.257  10.764  12.650 -0.7723  0.2934 -0.0445
  710MOL0     O97873   5.312  10.643  12.593 -0.3145 -0.5844  0.5378
  710MOL0     C97874   5.345  10.538  12.677  1.0246  0.3319  0.2405
  710MOL0     C97875   5.344  10.409  12.622 -0.5883  0.1561  0.3777
  710MOL0     C97876   5.363  10.286  12.696  0.8983 -0.4673  1.0357
  710MOL0     C97877   5.360  10.296  12.840  0.1400 -0.0511  0.6305
  710MOL0     O97878   5.370  10.180  12.902  0.2622 -0.2160 -0.4757
  710MOL0     C97879   5.510  10.158  12.936  0.3222  0.7831  0.0631
  710MOL0     C97880   5.552  10.013  12.929  0.6950  0.4217 -0.5741
  710MOL0     C97881   5.669   9.971  13.017 -0.5967  0.5320 -0.3328
  710MOL0     C97882   5.755   9.850  12.978  0.6479  0.2948  0.1864
  710MOL0     C97883   5.867   9.886  12.875 -0.2575  0.3931  0.1636
  710MOL0     C97884   5.937   9.755  12.846 -0.1147  0.2920 -0.5955
  710MOL0     C97885   6.052   9.787  12.749 -0.2659 -0.2406  0.4547
  710MOL0     C97886   6.182   9.698  12.772 -0.1906  0.0274  0.4386
  710MOL0    Cl97887   6.158   9.520  12.752  0.0163 -0.4887 -0.2510
  710MOL0     C97888   5.351  10.417  12.906  0.1487 -0.2367  0.7618
  710MOL0     C97889   5.355  10.534  12.819  0.5362  0.1364 -1.0319
  710MOL0     O97890   5.246  10.794  12.769  0.6747 -0.3028 -0.9078
  710MOL0     C97891   5.216  11.003  12.598  0.4713 -0.2821 -0.2869
  710MOL0     C97892   5.180  11.100  12.505  0.4031  0.8400 -0.1353
  710MOL0     N97893   4.771  11.193  11.914 -0.0346  1.0875  0.3980
  710MOL0     N97894   4.792  11.165  11.790 -0.2173  0.0117 -0.7305
  710MOL0     C97895   5.475  10.453  11.190  0.8819  0.5039  0.1405
  710MOL0     C97896   5.535  10.338  11.222  0.1407 -0.1984 -1.0730
  710MOL0     C97897   5.722   9.977  11.422  0.4079 -0.4437 -0.4438
  710MOL0     C97898   5.631   9.901  11.494  0.6721  0.2211 -0.3815
  710MOL0     C97899   5.671   9.801  11.582 -1.2455  0.0473 -0.5816
  710MOL0     C97900   5.813   9.771  11.600  0.3553  0.4380  0.9472
  710MOL0     O97901   5.866   9.653  11.655  0.8876  0.3249  0.1529
  710MOL0     C97902   5.767   9.564  11.714 -0.1028  0.5936  0.4084
  710MOL0     C97903   5.805   9.411  11.737 -0.0167 -0.9081 -0.6717
  710MOL0     C97904   5.952   9.402  11.781  0.2271  0.0275 -0.4386
  710MOL0     C97905   5.996   9.265  11.829 -0.0556 -0.2876  1.3835
  710MOL0     C97906   5.935   9.225  11.951 -0.2773  0.2807  0.0710
  710MOL0     C97907   5.857   9.196  12.036  0.1903  0.7180  0.0315
  710MOL0     C97908   5.898   9.841  11.510  0.7358 -0.9288 -0.3759
  710MOL0     C97909   5.860   9.950  11.426 -0.6435  0.8874 -0.1693
  710MOL0     C97910   5.963  10.017  11.335 -0.0561  0.0936 -0.2595
  710MOL0     H97911   5.718  10.451  11.482  2.3909 -3.2805 -0.9913
  710MOL0     H97912   5.627  10.656  11.403 -0.9546 -0.7162  0.3442
  710MOL0     H97913   5.300  10.632  11.093  1.7467 -1.1983 -1.5363
  710MOL0     H97914   5.425  10.731  11.013 -1.4741  2.7951 -0.5226
  710MOL0     H97915   5.361  10.935  11.130 -0.7636  1.1847  0.5541
  710MOL0     H97916   5.232  10.874  11.027 -0.5960  1.6832 -0.3030
  710MOL0     H97917   5.127  10.801  11.220  0.0813  1.1954 -4.5471
  710MOL0     H97918   5.272  10.823  11.332 -1.0304 -2.0736  0.0474
  710MOL0     H97919   5.249  11.072  11.275  0.5213  0.6789 -3.2329
  710MOL0     H97920   5.096  11.038  11.191 -2.1970 -0.7337  2.3417
  710MOL0     H97921   5.162  11.016  11.487 -1.2343  1.5126  1.1998
  710MOL0     H97922   5.026  10.923  11.410  0.3226 -0.1230  0.9333
  710MOL0     H97923   5.033  11.203  11.344  0.5666 -0.3027  2.1991
  710MOL0     H97924   4.897  11.099  11.389 -0.7885  0.9882  2.4977
  710MOL0     H97925   5.078  11.211  11.607 -1.6128  1.4049  4.9407
  710MOL0     H97926   4.961  11.073  11.614 -2.3549  0.9630 -1.0362
  710MOL0     H97927   4.905  11.366  11.549  1.4017  0.6750  3.0430
  710MOL0     H97928   4.777  11.244  11.539 -0.9607 -1.4154  1.8434
  710MOL0     H97929   4.933  11.460  11.811  0.8102 -0.7654 -0.5121
  710MOL0     H97930   4.832  11.318  12.150  2.5520  1.6168  0.9704
  710MOL0     H97931   4.788  11.470  12.059  0.6510  0.5705  1.0901
  710MOL0     H97932   5.026  11.515  12.038 -1.9211  0.6158 -0.7026
  710MOL0     H97933   5.003  11.468  12.197 -2.3097  0.6803 -0.8828
  710MOL0     H97934   5.102  11.265  11.976 -1.2829 -0.6698 -1.3378
  710MOL0     H97935   5.195  11.331  12.117 -0.9090 -2.2141  1.2657
  710MOL0     H97936   4.957  11.146  12.133 -0.5041  3.1221 -3.9322
  710MOL0     H97937   5.123  11.094  12.125 -0.8105 -0.0019 -1.2613
  710MOL0     H97938   5.040  10.918  12.253  0.4305  2.2508 -0.0911
  710MOL0     H97939   5.163  10.655  12.308 -1.6023  2.4468 -2.5750
  710MOL0     H97940   4.995  10.680  12.367 -1.1185  2.2813  3.4115
  710MOL0     H97941   5.102  10.623  12.477 -3.4908 -3.2676 -2.3631
  710MOL0     H97942   5.331  10.396  12.515  0.6602 -2.3318  0.4427
  710MOL0     H97943   5.380  10.193  12.643 -0.0333 -0.1931  0.2299
  710MOL0     H97944   5.581  10.217  12.877  2.7132 -0.7785  1.2123
  710MOL0     H97945   5.510  10.186  13.042  0.4061 -0.2466  0.3452
  710MOL0     H97946   5.460   9.970  12.969  2.5777 -1.8288  1.6872
  710MOL0     H97947   5.568   9.978  12.826  0.8353  0.2845 -0.5077
  710MOL0     H97948   5.620   9.941  13.110  1.6716 -1.5431  0.3026
  710MOL0     H97949   5.741  10.047  13.049 -1.3588 -0.2555  3.8779
  710MOL0     H97950   5.679   9.789  12.929  0.6835 -0.1485  0.6829
  710MOL0     H97951   5.798   9.790  13.059 -3.4695 -1.5736  1.2470
  710MOL0     H97952   5.820   9.924  12.784 -0.0906 -2.2740 -1.1274
  710MOL0     H97953   5.931   9.957  12.928  0.5835 -1.2665  1.4679
  710MOL0     H97954   5.869   9.683  12.799 -0.1624 -0.7354  0.9729
  710MOL0     H97955   5.985   9.712  12.934  1.9673  4.0710  0.3260
  710MOL0     H97956   6.085   9.891  12.749 -1.9832  0.4149 -2.3651
  710MOL0     H97957   6.008   9.778  12.649 -1.9114 -2.5473  1.3036
  710MOL0     H97958   6.222   9.712  12.873  0.4695 -3.4749  0.7813
  710MOL0     H97959   6.264   9.736  12.709 -0.5550  0.9739  0.5268
  710MOL0     H97960   5.364  10.409  13.014 -0.9205 -0.3614  0.8877
  710MOL0     H97961   5.367  10.618  12.887  2.0985 -0.6094 -0.3458
  710MOL0     H97962   5.276  11.033  12.684 -0.4327  2.8048 -0.6033
  710MOL0     H97963   5.214  11.203  12.510  2.8470  0.0960 -0.3260
  710MOL0     H97964   5.402  10.454  11.110  1.4282  3.5661 -0.4416
  710MOL0     H97965   5.500  10.250  11.168 -0.1839 -1.8931  1.6700
  710MOL0     H97966   5.525   9.916  11.477  0.5817 -1.8857 -2.1865
  710MOL0     H97967   5.596   9.737  11.628  1.0373 -1.4103  1.3371
  710MOL0     H97968   5.740   9.617  11.805 -0.2667 -0.3114  0.8983
  710MOL0     H97969   5.685   9.559  11.641  0.3633 -0.4928 -0.0759
  710MOL0     H97970   5.791   9.358  11.642  1.4411  0.0615 -1.4664
  710MOL0     H97971   5.733   9.384  11.814  0.4221 -0.7007 -0.1874
  710MOL0     H97972   6.014   9.428  11.696  1.2655 -4.2881 -1.2384
  710MOL0     H97973   5.966   9.483  11.853 -1.3414 -0.7268  0.7829
  710MOL0     H97974   6.102   9.275  11.853 -0.2747  0.9816  1.9214
  710MOL0     H97975   5.988   9.173  11.771  1.2887 -0.9690  2.2379
  710MOL0     H97976   5.783   9.175  12.111 -0.3514  1.1367 -0.3701
  710MOL0     H97977   6.003   9.814  11.500  1.3909  0.1694  2.5181
  710MOL0     H97978   5.917  10.102  11.284 -0.3945  0.8314  1.2047
  710MOL0     H97979   6.040  10.061  11.400 -2.3808  1.0501  2.0598
  710MOL0     H97980   5.998   9.940  11.266 -2.6227  1.0184 -2.8145
  711MOL0     O97981   5.952   2.761   4.966  0.7831 -0.5818 -0.6929
  711MOL0     C97982   5.860   2.674   5.004 -1.1994  0.7897  0.1612
  711MOL0     O97983   5.723   2.696   5.011 -0.6459  0.4938 -0.9643
  711MOL0     C97984   5.666   2.823   4.998 -0.8667  0.6277  1.2221
  711MOL0     C97985   5.625   2.868   4.868 -0.2548 -0.8350 -0.6992
  711MOL0     C97986   5.570   2.997   4.856  0.7423  0.1528 -0.7410
  711MOL0     C97987   5.545   3.079   4.976 -0.6060  0.3834 -0.3827
  711MOL0     O97988   5.471   3.189   4.979 -0.1227  0.5858  0.1557
  711MOL0     C97989   5.396   3.218   4.863  1.7126 -0.6545 -0.5414
  711MOL0     C97990   5.321   3.354   4.891 -0.1725  0.1156 -0.2569
  711MOL0     C97991   5.266   3.396   4.756 -0.3551  0.7340 -0.0759
  711MOL0     C97992   5.197   3.518   4.793 -0.5167 -0.7935 -0.8414
  711MOL0     C97993   5.148   3.613   4.684  0.6743 -0.5115  0.3910
  711MOL0     C97994   5.077   3.552   4.565 -0.7853  0.6016  1.1829
  711MOL0     C97995   4.924   3.526   4.602  0.1744  0.2865 -0.0041
  711MOL0     C97996   4.877   3.414   4.523  0.6715  0.0330  0.2229
  711MOL0     N97997   4.745   3.356   4.569  0.1449  0.0752 -0.2374
  711MOL0     C97998   4.735   3.225   4.608 -0.1869 -0.3448  0.0853
  711MOL0     C97999   4.598   3.219   4.636 -0.8632 -0.2225 -0.5325
  711MOL0     C98000   4.534   3.097   4.689 -0.2994 -0.0658 -0.0913
  711MOL0     C98001   4.477   3.096   4.825  0.1487 -0.1115 -0.1829
  711MOL0     C98002   4.571   3.155   4.934  0.1261 -0.0273 -0.4579
  711MOL0     C98003   4.494   3.160   5.062  1.0437 -0.1704 -0.4201
  711MOL0     O98004   4.400   3.269   5.057 -0.2486  0.2049 -0.2388
  711MOL0     C98005   4.265   3.233   5.086  0.4110 -0.1746  0.1253
  711MOL0     C98006   4.166   3.292   5.014 -0.2179  0.2961 -0.3678
  711MOL0     C98007   4.031   3.276   5.041  0.5024 -0.5228  0.3485
  711MOL0     C98008   3.933   3.364   4.950  0.1583  0.0822  0.0863
  711MOL0     C98009   3.998   3.182   5.150 -0.2198  0.4185  0.8728
  711MOL0     C98010   3.858   3.162   5.199  0.2281  0.4264 -0.0860
  711MOL0     O98011   3.839   3.105   5.319  0.4528 -0.0867  0.4453
  711MOL0     C98012   3.711   3.090   5.380 -0.1108 -1.1899 -0.0090
  711MOL0     C98013   3.673   3.190   5.476  0.3119 -0.0828 -0.5392
  711MOL0     C98014   3.562   3.161   5.554 -0.8405 -0.0348  0.2132
  711MOL0     C98015   3.489   3.043   5.546  0.9012  0.7724  0.1377
  711MOL0     O98016   3.384   3.025   5.635  0.5334  0.4407  0.3708
  711MOL0     C98017   3.424   3.002   5.775 -0.3741 -0.1184  0.4404
  711MOL0     C98018   3.366   2.862   5.819  0.3218 -0.0530  0.5893
  711MOL0     C98019   3.213   2.883   5.840 -0.0223 -0.0832  0.2610
  711MOL0     C98020   3.124   2.903   5.709 -0.3675  0.1831 -1.2879
  711MOL0     C98021   2.990   2.814   5.730  1.6292 -0.2021 -0.0577
  711MOL0     C98022   2.891   2.876   5.826 -0.6999  0.3703  0.3098
  711MOL0     C98023   2.778   2.777   5.862  0.5807 -0.5482  0.0537
  711MOL0     C98024   2.674   2.832   5.954  0.0250  0.2163  0.2190
  711MOL0    Cl98025   2.611   2.988   5.889  0.1285 -0.6816 -0.3163
  711MOL0     C98026   3.518   2.961   5.433  0.4042  0.0790  0.4927
  711MOL0     C98027   3.637   2.981   5.363 -0.5075 -0.7721  0.1221
  711MOL0     O98028   3.761   3.195   5.128  0.8079  0.0511 -0.6090
  711MOL0     C98029   4.099   3.118   5.214  0.2147  0.6204  0.6808
  711MOL0     C98030   4.226   3.150   5.192 -0.0405 -0.0865 -0.0441
  711MOL0     N98031   4.525   3.332   4.590 -0.2527  0.1957  0.2216
  711MOL0     N98032   4.618   3.411   4.546  0.5092  0.5717  0.1698
  711MOL0     C98033   5.600   3.033   5.101  0.0986 -0.9719  0.2756
  711MOL0     C98034   5.650   2.907   5.105 -0.6010  0.4633  0.0377
  711MOL0     C98035   5.896   2.534   5.042  0.0895  0.4531  0.2585
  711MOL0     C98036   5.807   2.430   5.011  0.3077 -0.3908  0.7754
  711MOL0     C98037   5.832   2.293   5.030 -1.6274  0.3240 -0.0243
  711MOL0     C98038   5.956   2.261   5.079  0.2908 -0.0129  0.0592
  711MOL0     O98039   5.989   2.128   5.107 -0.2210 -0.0603 -0.0846
  711MOL0     C98040   6.065   2.051   5.008 -0.4999  0.2240  0.4712
  711MOL0     C98041   6.053   1.891   5.008 -0.2272 -0.6164  0.5912
  711MOL0     C98042   6.132   1.826   4.898  0.6356  0.3095  0.1624
  711MOL0     C98043   6.107   1.677   4.893 -0.3485 -0.7871 -0.0437
  711MOL0     C98044   5.964   1.644   4.878  0.7779 -0.7071 -0.1634
  711MOL0     C98045   5.852   1.591   4.890  0.8747 -0.6538 -0.0988
  711MOL0     C98046   6.053   2.362   5.117 -1.2096  0.0064 -0.4492
  711MOL0     C98047   6.029   2.494   5.083  0.7572 -0.3923  0.1905
  711MOL0     C98048   6.149   2.594   5.085  0.5247  0.2228 -0.7523
  711MOL0     H98049   5.654   2.799   4.790  1.0562 -1.1999  0.0838
  711MOL0     H98050   5.532   3.011   4.755 -2.0898 -1.5954 -0.0210
  711MOL0     H98051   5.321   3.142   4.840  0.8128 -0.0958  0.4922
  711MOL0     H98052   5.475   3.229   4.788  1.6794 -2.5907 -0.9261
  711MOL0     H98053   5.244   3.330   4.964 -0.0824  0.5695 -0.0103
  711MOL0     H98054   5.381   3.431   4.941 -0.8352 -1.0389  2.4956
  711MOL0     H98055   5.348   3.408   4.685  1.3668 -0.7980  1.5400
  711MOL0     H98056   5.189   3.320   4.736  0.1215 -0.3530  1.9156
  711MOL0     H98057   5.110   3.493   4.857 -1.6352  1.4010 -1.4198
  711MOL0     H98058   5.261   3.574   4.862  1.3793 -4.6049  0.8051
  711MOL0     H98059   5.228   3.681   4.652  0.0594 -0.1419 -0.3901
  711MOL0     H98060   5.074   3.676   4.732 -0.7897 -2.7245  1.2015
  711MOL0     H98061   5.081   3.619   4.479  2.1262 -2.0781 -1.0166
  711MOL0     H98062   5.125   3.460   4.530  3.7390  2.2227  2.3775
  711MOL0     H98063   4.866   3.613   4.570 -1.2064  0.0998  1.8078
  711MOL0     H98064   4.905   3.513   4.709 -0.1257 -0.9134 -0.1887
  711MOL0     H98065   4.880   3.453   4.421  1.4603 -2.6442 -0.8722
  711MOL0     H98066   4.955   3.337   4.514 -1.4861 -2.2223 -0.1306
  711MOL0     H98067   4.805   3.143   4.622  1.1420  0.9366  1.1987
  711MOL0     H98068   4.608   3.016   4.689 -0.2737 -0.1208 -2.6468
  711MOL0     H98069   4.460   3.063   4.617 -3.3787 -0.1923  2.8796
  711MOL0     H98070   4.383   3.153   4.817  0.3342  0.0056 -2.2442
  711MOL0     H98071   4.454   2.994   4.856 -0.1343 -0.7375 -2.2520
  711MOL0     H98072   4.656   3.086   4.943 -1.5632 -1.9876  2.0338
  711MOL0     H98073   4.603   3.256   4.906 -1.3230  1.1185  1.6994
  711MOL0     H98074   4.447   3.066   5.090  0.5405  1.1559  3.9044
  711MOL0     H98075   4.568   3.194   5.135 -1.0460  2.6778  0.5630
  711MOL0     H98076   4.189   3.358   4.931 -0.6505  0.5249 -0.3106
  711MOL0     H98077   3.878   3.443   5.001  1.5448  2.0783 -1.3530
  711MOL0     H98078   3.859   3.298   4.903  1.0128 -0.1247 -1.0076
  711MOL0     H98079   3.989   3.421   4.875  0.4806 -0.3058  0.0273
  711MOL0     H98080   3.744   3.270   5.492  1.8667 -1.5616  0.2828
  711MOL0     H98081   3.525   3.234   5.626  0.8123  0.5047  0.5639
  711MOL0     H98082   3.533   3.008   5.783 -0.4971  1.5535  1.3761
  711MOL0     H98083   3.384   3.074   5.847 -1.5942  0.8863 -1.1640
  711MOL0     H98084   3.395   2.783   5.749  0.1956  1.0697 -0.7718
  711MOL0     H98085   3.411   2.846   5.918 -0.3263 -0.6151  0.7975
  711MOL0     H98086   3.193   2.965   5.910  0.6780  2.5284 -2.4055
  711MOL0     H98087   3.183   2.793   5.895  1.4416 -0.0514  1.1545
  711MOL0     H98088   3.169   2.867   5.616 -1.6294 -0.4077 -1.6884
  711MOL0     H98089   3.101   3.009   5.697  0.5204  0.5493 -0.0637
  711MOL0     H98090   2.947   2.808   5.629  2.2439 -0.6860 -0.2998
  711MOL0     H98091   3.025   2.714   5.759  1.3041 -0.3247 -0.0892
  711MOL0     H98092   2.849   2.962   5.772 -0.3677 -0.6874 -1.7177
  711MOL0     H98093   2.938   2.895   5.923  0.9204 -3.4104  0.4163
  711MOL0     H98094   2.818   2.696   5.923 -2.7423 -1.1882  1.6289
  711MOL0     H98095   2.730   2.738   5.772 -0.0094  3.3109 -1.4744
  711MOL0     H98096   2.723   2.837   6.051  0.7111 -2.6065  0.1079
  711MOL0     H98097   2.585   2.773   5.979 -1.0636 -0.5724 -4.5463
  711MOL0     H98098   3.468   2.865   5.426  0.9497 -0.2687  1.2229
  711MOL0     H98099   3.679   2.906   5.297 -2.4370 -0.8830 -1.0414
  711MOL0     H98100   4.075   3.053   5.298 -2.6901 -0.6821 -0.9983
  711MOL0     H98101   4.302   3.118   5.262 -0.9154  2.0594  2.0458
  711MOL0     H98102   5.593   3.105   5.182 -2.2611 -0.1752 -0.5661
  711MOL0     H98103   5.696   2.869   5.196 -0.8821 -0.9319 -0.3827
  711MOL0     H98104   5.721   2.450   4.949  2.3454  0.4787 -1.9495
  711MOL0     H98105   5.755   2.228   4.990 -2.5839  1.4731 -0.1090
  711MOL0     H98106   6.030   2.085   4.910 -0.1847  0.6305  0.4999
  711MOL0     H98107   6.167   2.082   5.032 -1.2242  2.7642  0.5928
  711MOL0     H98108   5.946   1.890   4.986  0.2749  2.9653 -3.5769
  711MOL0     H98109   6.089   1.854   5.104  1.6552 -1.3335 -0.3332
  711MOL0     H98110   6.108   1.866   4.800 -0.4182  1.9856  1.0605
  711MOL0     H98111   6.238   1.842   4.922  0.1517 -0.3201  3.2187
  711MOL0     H98112   6.155   1.633   4.981  1.8711  1.2105 -0.1398
  711MOL0     H98113   6.166   1.651   4.805  0.7648  3.5327 -0.7650
  711MOL0     H98114   5.756   1.543   4.892  0.0155  0.9679 -0.4906
  711MOL0     H98115   6.149   2.329   5.155 -0.3518  3.0115  0.2984
  711MOL0     H98116   6.143   2.669   5.164  0.7434 -2.7052  2.2438
  711MOL0     H98117   6.238   2.532   5.100  1.7693  2.0863 -0.1504
  711MOL0     H98118   6.143   2.632   4.983  3.6403 -1.6715 -1.7772
  712MOL0     O98119   7.643   3.213  10.999 -0.1689 -0.7689 -0.3809
  712MOL0     C98120   7.704   3.120  11.039  0.2543  0.6974  0.3768
  712MOL0     O98121   7.763   3.109  11.158  0.2941  0.4291 -0.4384
  712MOL0     C98122   7.781   3.225  11.230 -0.0797 -0.8549  0.0984
  712MOL0     C98123   7.847   3.337  11.174 -0.2946  0.4055 -0.4699
  712MOL0     C98124   7.857   3.453  11.245  0.0703  0.3954 -1.4537
  712MOL0     C98125   7.809   3.472  11.373  0.3016  0.4263 -0.2111
  712MOL0     O98126   7.809   3.586  11.448 -0.2474  0.1945 -0.1100
  712MOL0     C98127   7.830   3.715  11.392  0.3047 -0.9482  0.7651
  712MOL0     C98128   7.717   3.750  11.301  0.8253 -0.6218  0.7275
  712MOL0     C98129   7.600   3.824  11.350 -0.4221 -0.7225  0.2190
  712MOL0     C98130   7.485   3.840  11.252 -0.1239  0.2482 -0.1985
  712MOL0     C98131   7.376   3.932  11.293  0.4152 -0.4780  0.0012
  712MOL0     C98132   7.284   3.877  11.407  0.1051 -0.4437  0.2401
  712MOL0     C98133   7.205   3.754  11.350  0.0233 -0.2750 -0.3983
  712MOL0     C98134   7.116   3.679  11.461 -0.9440 -0.3583  0.5924
  712MOL0     N98135   7.202   3.622  11.571 -0.8974  0.7872 -0.0172
  712MOL0     C98136   7.287   3.509  11.566  0.0157 -0.0186  0.3515
  712MOL0     C98137   7.378   3.519  11.663  0.6518 -0.6990 -0.2532
  712MOL0     C98138   7.506   3.441  11.663  0.0010 -0.2762  0.7472
  712MOL0     C98139   7.532   3.363  11.790 -0.9226  0.5273  0.1637
  712MOL0     C98140   7.460   3.226  11.786 -0.1666  0.0476  1.0085
  712MOL0     C98141   7.480   3.142  11.910  0.3501  0.4761 -0.5447
  712MOL0     O98142   7.619   3.160  11.963  0.1459  0.5804  0.0592
  712MOL0     C98143   7.623   3.103  12.086 -0.5425  0.6420  0.9804
  712MOL0     C98144   7.656   2.962  12.100 -0.1163 -0.0066 -0.8751
  712MOL0     C98145   7.649   2.901  12.222  0.4471 -1.1539 -1.4647
  712MOL0     C98146   7.720   2.763  12.233 -0.9122  1.6389 -0.4283
  712MOL0     C98147   7.602   2.972  12.343  0.2079 -0.2550 -0.5917
  712MOL0     C98148   7.588   2.913  12.480  0.5684 -0.1362  2.0825
  712MOL0     O98149   7.543   2.991  12.578 -0.2636  0.0375  0.7984
  712MOL0     C98150   7.526   2.925  12.695 -0.1686 -0.7458  0.2149
  712MOL0     C98151   7.611   2.947  12.804 -0.3253 -0.5029  0.5439
  712MOL0     C98152   7.595   2.886  12.925 -0.0209 -0.7240 -0.4355
  712MOL0     C98153   7.485   2.798  12.940 -1.2257  0.1790  0.1252
  712MOL0     O98154   7.488   2.733  13.055  0.6488 -0.1462  0.2509
  712MOL0     C98155   7.366   2.666  13.090  0.8489  0.7148 -0.0600
  712MOL0     C98156   7.352   2.636  13.240  0.9210  0.4845 -0.0556
  712MOL0     C98157   7.198   2.628  13.281 -0.3166  0.8172 -1.1599
  712MOL0     C98158   7.187   2.628  13.428  0.9936 -1.6936 -0.3686
  712MOL0     C98159   7.179   2.776  13.485  0.3036  0.4746 -0.4818
  712MOL0     C98160   7.168   2.782  13.646 -0.4546  0.4453  0.1185
  712MOL0     C98161   7.298   2.740  13.727  0.6352 -0.2916 -0.3014
  712MOL0     C98162   7.431   2.752  13.658 -1.3919  0.3305  0.2306
  712MOL0    Cl98163   7.549   2.712  13.788 -0.0498 -0.4657  0.4079
  712MOL0     C98164   7.387   2.777  12.831 -0.4567  0.0787  0.0487
  712MOL0     C98165   7.417   2.840  12.711  1.0878  0.0532 -0.4089
  712MOL0     O98166   7.618   2.791  12.491  0.3648 -0.4646 -0.2675
  712MOL0     C98167   7.586   3.113  12.327 -0.0882  0.2304  0.8225
  712MOL0     C98168   7.594   3.174  12.201 -0.1446  1.0439  0.3596
  712MOL0     N98169   7.347   3.631  11.738  0.0726 -0.7229 -0.4985
  712MOL0     N98170   7.240   3.678  11.689  0.1021 -0.2426  0.6577
  712MOL0     C98171   7.771   3.350  11.435  0.0149  0.2877 -0.6593
  712MOL0     C98172   7.746   3.232  11.361 -0.2867 -1.0310 -0.4299
  712MOL0     C98173   7.715   3.010  10.942 -0.2570  0.5617 -0.5017
  712MOL0     C98174   7.704   2.870  10.994 -0.4846  0.1652  1.2405
  712MOL0     C98175   7.705   2.771  10.912 -1.1336  0.7207  0.2612
  712MOL0     C98176   7.715   2.789  10.777 -0.6063 -0.8882  0.8316
  712MOL0     O98177   7.710   2.676  10.696  0.0785 -0.5141  0.6183
  712MOL0     C98178   7.739   2.686  10.550  0.0883 -0.2954  0.6981
  712MOL0     C98179   7.622   2.680  10.450 -0.3958 -0.2320 -0.2762
  712MOL0     C98180   7.538   2.558  10.473 -0.7770  0.5418  0.7797
  712MOL0     C98181   7.427   2.573  10.580  0.3346 -0.9604  0.3264
  712MOL0     C98182   7.321   2.670  10.529  0.1889  0.4665 -0.7922
  712MOL0     C98183   7.225   2.737  10.492 -0.9272  0.9367  0.5610
  712MOL0     C98184   7.716   2.923  10.722 -0.8677 -0.8667  0.2453
  712MOL0     C98185   7.731   3.026  10.809 -0.7039  0.4556  0.6703
  712MOL0     C98186   7.761   3.160  10.745 -0.1948  0.3869 -0.6212
  712MOL0     H98187   7.874   3.338  11.069 -1.7753 -1.5980 -0.9283
  712MOL0     H98188   7.908   3.540  11.205  0.9004  0.0903 -1.0795
  712MOL0     H98189   7.927   3.713  11.343 -1.6485  2.0070 -3.8825
  712MOL0     H98190   7.841   3.798  11.463  4.4430  0.2931 -1.0405
  712MOL0     H98191   7.760   3.826  11.235 -0.5869 -0.4775 -0.0671
  712MOL0     H98192   7.684   3.669  11.235  3.3022 -0.0921 -1.3279
  712MOL0     H98193   7.557   3.755  11.424 -1.2147  1.4541  1.9001
  712MOL0     H98194   7.623   3.922  11.393 -0.0440 -0.5341 -0.4014
  712MOL0     H98195   7.525   3.866  11.154 -3.3317 -2.1212 -2.3633
  712MOL0     H98196   7.446   3.738  11.241  2.3775 -1.0157  1.5276
  712MOL0     H98197   7.312   3.948  11.206  1.3908 -1.1521 -0.8680
  712MOL0     H98198   7.412   4.027  11.333  0.8016 -0.3561 -0.6244
  712MOL0     H98199   7.346   3.840  11.490 -0.6817 -0.4079  0.8538
  712MOL0     H98200   7.213   3.947  11.450  0.2770 -1.2777  2.0088
  712MOL0     H98201   7.267   3.673  11.311 -0.2320 -1.0852  0.8069
  712MOL0     H98202   7.130   3.793  11.281 -0.5800 -2.2555 -0.9452
  712MOL0     H98203   7.032   3.738  11.498  1.3296  1.3824  3.3301
  712MOL0     H98204   7.080   3.599  11.395 -1.7706  2.8421 -3.2693
  712MOL0     H98205   7.290   3.441  11.481 -0.1558  1.5432 -0.9678
  712MOL0     H98206   7.590   3.507  11.639 -1.7534  1.7097 -0.2899
  712MOL0     H98207   7.496   3.381  11.572 -0.9448  1.4093 -0.3103
  712MOL0     H98208   7.641   3.364  11.798 -0.8629  1.3473 -0.6296
  712MOL0     H98209   7.499   3.421  11.877  4.6618  3.2518  0.9001
  712MOL0     H98210   7.353   3.241  11.765 -0.5334 -5.1832 -3.0625
  712MOL0     H98211   7.481   3.158  11.702 -0.8016  0.5765  0.4024
  712MOL0     H98212   7.410   3.174  11.988  1.5332 -0.5908  1.0518
  712MOL0     H98213   7.460   3.038  11.885 -0.3453 -0.9320  4.5776
  712MOL0     H98214   7.684   2.900  12.016  1.1481 -3.3226  1.7436
  712MOL0     H98215   7.799   2.768  12.309 -2.6934  2.2550  1.4879
  712MOL0     H98216   7.760   2.727  12.138  0.2636 -2.0231  1.2415
  712MOL0     H98217   7.652   2.692  12.282  3.8868 -4.8617 -1.7288
  712MOL0     H98218   7.686   3.022  12.779 -2.3451  1.3049 -0.4362
  712MOL0     H98219   7.662   2.899  13.009 -1.2876 -1.0583  0.6604
  712MOL0     H98220   7.286   2.738  13.069 -0.7935 -0.3917  1.9881
  712MOL0     H98221   7.344   2.583  13.023  0.6029  1.7416 -1.2999
  712MOL0     H98222   7.409   2.546  13.265 -1.5701 -1.2084 -0.1442
  712MOL0     H98223   7.391   2.723  13.293  3.4770 -0.0126 -0.9520
  712MOL0     H98224   7.155   2.537  13.240 -1.7917  1.8505 -1.9861
  712MOL0     H98225   7.146   2.717  13.245  0.2804  2.7120  2.1709
  712MOL0     H98226   7.271   2.575  13.473  1.1307 -1.0785  0.1203
  712MOL0     H98227   7.088   2.588  13.451 -0.0920  0.9512 -0.0928
  712MOL0     H98228   7.272   2.828  13.459  0.9471  1.0176  2.5392
  712MOL0     H98229   7.089   2.823  13.443 -1.0164  0.8438  2.5213
  712MOL0     H98230   7.079   2.723  13.669  0.7049 -1.0218  1.0468
  712MOL0     H98231   7.147   2.886  13.673 -1.3833  0.5069 -0.7504
  712MOL0     H98232   7.266   2.641  13.759  1.4156  0.2511  2.3674
  712MOL0     H98233   7.299   2.809  13.811  0.5027 -0.5296 -0.1044
  712MOL0     H98234   7.450   2.856  13.627  1.5930 -0.3559 -0.5677
  712MOL0     H98235   7.421   2.693  13.567 -0.7955  1.0874 -0.3499
  712MOL0     H98236   7.301   2.711  12.839 -1.3901  0.9385 -2.2009
  712MOL0     H98237   7.356   2.814  12.625  2.1846 -0.9272 -0.9249
  712MOL0     H98238   7.553   3.172  12.412 -0.9764 -1.3406  1.6109
  712MOL0     H98239   7.563   3.276  12.179 -0.6183  0.8396  0.0681
  712MOL0     H98240   7.741   3.350  11.539 -1.3038 -0.9461 -1.0128
  712MOL0     H98241   7.705   3.146  11.413 -2.4739 -0.4871 -1.1366
  712MOL0     H98242   7.687   2.859  11.101 -0.2427  1.3250  1.4165
  712MOL0     H98243   7.681   2.680  10.966  0.4334 -1.1439 -1.9736
  712MOL0     H98244   7.805   2.770  10.531  3.4256 -3.3639 -3.2539
  712MOL0     H98245   7.810   2.610  10.515  0.9153  0.1628  1.3736
  712MOL0     H98246   7.657   2.669  10.347 -2.5651  2.3122 -1.4000
  712MOL0     H98247   7.559   2.768  10.465  0.4205 -0.1167  3.1575
  712MOL0     H98248   7.498   2.516  10.379 -1.0773 -0.2360  1.2443
  712MOL0     H98249   7.592   2.473  10.514 -2.0679 -0.3093  0.7760
  712MOL0     H98250   7.454   2.613  10.678 -1.9479 -0.0115  0.6410
  712MOL0     H98251   7.379   2.481  10.615 -0.1426 -0.6951  0.3792
  712MOL0     H98252   7.142   2.803  10.476 -0.2524  1.9582  1.1324
  712MOL0     H98253   7.722   2.943  10.615 -2.1624  0.3911  0.3790
  712MOL0     H98254   7.816   3.144  10.652 -2.2454 -1.1694 -1.6457
  712MOL0     H98255   7.672   3.221  10.728  1.1879  3.6466  2.5410
  712MOL0     H98256   7.833   3.210  10.810  2.7472 -2.3313 -1.5339
  713MOL0     O98257   0.130   4.027   8.799 -1.1371 -0.3994  0.0478
  713MOL0     C98258   0.163   3.913   8.783  0.6830  0.8141  0.8067
  713MOL0     O98259   0.073   3.807   8.804  0.1224  0.8519  0.0325
  713MOL0     C98260  -0.029   3.830   8.884 -0.1506  1.2326  0.2815
  713MOL0     C98261  -0.030   3.766   9.016  0.3337 -0.1560 -0.0225
  713MOL0     C98262  -0.133   3.782   9.105  0.4759 -0.0119 -0.3033
  713MOL0     C98263  -0.240   3.855   9.064 -0.6068 -0.3046  0.6283
  713MOL0     O98264  -0.353   3.869   9.137 -0.6404  0.1021  0.4754
  713MOL0     C98265  -0.383   3.781   9.241 -0.6774  0.2345 -0.5174
  713MOL0     C98266  -0.512   3.823   9.319 -0.0270  0.3899  0.5674
  713MOL0     C98267  -0.644   3.818   9.247 -0.1097  0.3534  1.2948
  713MOL0     C98268  -0.769   3.862   9.324  0.5022 -0.2914 -0.0083
  713MOL0     C98269  -0.895   3.877   9.240 -0.8731 -0.4387 -0.9570
  713MOL0     C98270  -0.998   3.946   9.322  0.1315  0.3758 -0.5613
  713MOL0     C98271  -1.067   3.826   9.405  0.4319  0.4594  0.1440
  713MOL0     C98272  -1.129   3.880   9.533 -0.5227 -0.2459  0.2315
  713MOL0     N98273  -1.175   3.775   9.625 -0.2239  0.4066  0.5452
  713MOL0     C98274  -1.253   3.668   9.598  0.4554  0.3278 -0.4777
  713MOL0     C98275  -1.266   3.601   9.708  0.4740  0.7056 -1.1125
  713MOL0     C98276  -1.345   3.487   9.724  1.8087 -0.4986 -0.0361
  713MOL0     C98277  -1.278   3.373   9.654 -0.2652  1.0279 -0.1560
  713MOL0     C98278  -1.377   3.278   9.587 -0.6446  0.2478  0.6824
  713MOL0     C98279  -1.481   3.337   9.493  1.1520  0.7140  0.1512
  713MOL0     O98280  -1.443   3.439   9.400 -0.4699 -0.4839 -0.2869
  713MOL0     C98281  -1.535   3.487   9.305  0.2488 -0.2666  0.8456
  713MOL0     C98282  -1.497   3.564   9.199 -1.1970  0.3137  0.7975
  713MOL0     C98283  -1.566   3.597   9.088  0.7691 -0.4870  0.2829
  713MOL0     C98284  -1.508   3.670   8.979 -0.9653 -0.3451  0.4261
  713MOL0     C98285  -1.709   3.579   9.093 -0.7078  0.9805 -0.6421
  713MOL0     C98286  -1.808   3.639   8.982 -0.7930 -0.2564 -0.8709
  713MOL0     O98287  -1.936   3.585   8.997  0.4896  0.0284 -0.0046
  713MOL0     C98288  -2.022   3.566   8.895 -0.4977  0.6154 -0.7016
  713MOL0     C98289  -2.089   3.670   8.825  0.0085 -0.4090  0.0198
  713MOL0     C98290  -2.173   3.633   8.720 -0.5004  0.2239 -0.1235
  713MOL0     C98291  -2.188   3.507   8.671  0.4720  0.3228 -0.5825
  713MOL0     O98292  -2.276   3.468   8.574 -0.7830 -0.6482 -0.3245
  713MOL0     C98293  -2.412   3.538   8.568  0.1354  0.6162 -0.2726
  713MOL0     C98294  -2.467   3.511   8.428 -0.1001 -0.3178 -0.2199
  713MOL0     C98295  -2.607   3.572   8.401  0.4233 -0.2237  0.5600
  713MOL0     C98296  -2.720   3.510   8.483  0.5322 -0.3996  0.2999
  713MOL0     C98297  -2.852   3.561   8.437 -0.0068 -0.0394  0.6426
  713MOL0     C98298  -2.964   3.470   8.478  1.1991 -0.1829 -1.0573
  713MOL0     C98299  -3.002   3.444   8.621 -0.5887 -0.5030  0.3481
  713MOL0     C98300  -3.120   3.347   8.622 -0.0111  0.0003  0.8572
  713MOL0    Cl98301  -3.179   3.301   8.790 -0.3354 -0.7018  0.2087
  713MOL0     C98302  -2.123   3.404   8.735 -0.0983 -0.0786 -0.1725
  713MOL0     C98303  -2.042   3.435   8.846 -1.0368  0.8861  0.9015
  713MOL0     O98304  -1.777   3.725   8.905  0.2509  0.5603 -0.3976
  713MOL0     C98305  -1.756   3.513   9.213 -0.8189 -0.0433  0.6349
  713MOL0     C98306  -1.671   3.470   9.315 -0.5000 -0.1093  0.7401
  713MOL0     N98307  -1.206   3.666   9.808  0.2308  0.3095 -0.5053
  713MOL0     N98308  -1.144   3.766   9.756 -0.1379  0.0765 -0.2142
  713MOL0     C98309  -0.245   3.914   8.930  0.4348  0.9828 -0.8211
  713MOL0     C98310  -0.147   3.896   8.839 -0.7839  0.4703  0.2997
  713MOL0     C98311   0.298   3.869   8.733  0.1599 -1.0380 -0.7445
  713MOL0     C98312   0.316   3.730   8.716 -0.0905  0.1790 -1.3141
  713MOL0     C98313   0.434   3.676   8.669 -0.1471  1.0210  1.1916
  713MOL0     C98314   0.543   3.764   8.650 -0.3258 -0.6913 -0.4711
  713MOL0     O98315   0.653   3.693   8.608  0.6248  0.2737  0.7367
  713MOL0     C98316   0.768   3.764   8.564  0.4207  0.2561  0.0384
  713MOL0     C98317   0.879   3.663   8.534 -0.6515 -0.9818  0.4967
  713MOL0     C98318   0.999   3.728   8.472  0.3992  0.3945  0.4882
  713MOL0     C98319   1.090   3.620   8.430  1.1956  1.1415  0.8241
  713MOL0     C98320   1.083   3.584   8.285  0.5046  0.5481 -0.9854
  713MOL0     C98321   1.054   3.550   8.172  0.9382  0.5682  0.2462
  713MOL0     C98322   0.527   3.901   8.663 -0.8099 -0.2684 -0.3922
  713MOL0     C98323   0.404   3.957   8.711  0.3530 -0.1502 -0.5460
  713MOL0     C98324   0.410   4.102   8.746 -0.3612 -0.8948 -0.3802
  713MOL0     H98325   0.067   3.721   9.037 -0.8113 -3.0795 -0.5613
  713MOL0     H98326  -0.117   3.745   9.206 -0.4951  1.5385  0.4482
  713MOL0     H98327  -0.305   3.794   9.316 -1.1782 -1.1215  0.2755
  713MOL0     H98328  -0.380   3.678   9.203  1.5535  0.5486 -1.3633
  713MOL0     H98329  -0.521   3.740   9.390  0.4731  0.7372  1.0540
  713MOL0     H98330  -0.493   3.914   9.376  0.6425  1.2909 -1.0442
  713MOL0     H98331  -0.630   3.889   9.164 -0.4777 -0.1834  0.7659
  713MOL0     H98332  -0.658   3.719   9.204 -5.5225  2.2576 -2.4995
  713MOL0     H98333  -0.792   3.786   9.398 -3.9199  0.7301 -0.0564
  713MOL0     H98334  -0.765   3.963   9.367 -3.1612  0.0001 -0.0307
  713MOL0     H98335  -0.923   3.781   9.194 -2.1427 -0.0286 -1.0899
  713MOL0     H98336  -0.866   3.943   9.158 -1.0093  0.0138 -0.6483
  713MOL0     H98337  -0.958   4.031   9.378  0.7447 -0.3683  0.1542
  713MOL0     H98338  -1.068   4.002   9.259 -1.2592  2.6376  2.7221
  713MOL0     H98339  -0.988   3.756   9.436 -0.8891 -0.6907  1.0380
  713MOL0     H98340  -1.128   3.783   9.325  0.6230  2.4099 -1.1183
  713MOL0     H98341  -1.046   3.925   9.588  0.6456  1.6653 -2.7819
  713MOL0     H98342  -1.206   3.958   9.536  2.8763  3.4413  2.1725
  713MOL0     H98343  -1.300   3.636   9.505  0.1444  0.0657 -0.2325
  713MOL0     H98344  -1.431   3.524   9.668  2.8106  0.6605 -0.8446
  713MOL0     H98345  -1.368   3.459   9.828  1.8666  3.4341  1.1908
  713MOL0     H98346  -1.204   3.400   9.578 -1.2767  1.3911 -1.0395
  713MOL0     H98347  -1.210   3.332   9.729 -0.4387  0.9463 -0.0449
  713MOL0     H98348  -1.328   3.211   9.516 -0.3627  1.3573 -0.1870
  713MOL0     H98349  -1.438   3.222   9.659  1.5856 -3.7829 -0.2576
  713MOL0     H98350  -1.536   3.253   9.449 -0.7083  1.8766  0.1392
  713MOL0     H98351  -1.561   3.378   9.556 -0.5156 -1.5984 -0.2981
  713MOL0     H98352  -1.399   3.611   9.195 -0.8572 -0.4784 -1.0948
  713MOL0     H98353  -1.528   3.777   8.994 -0.5306 -0.1698 -0.1764
  713MOL0     H98354  -1.537   3.636   8.879  0.6142  1.4298 -0.7051
  713MOL0     H98355  -1.398   3.675   8.978 -0.9851  1.1605  1.8526
  713MOL0     H98356  -2.093   3.771   8.863  0.7777  0.0817 -1.1725
  713MOL0     H98357  -2.227   3.717   8.677 -0.5648 -0.2776 -1.0339
  713MOL0     H98358  -2.478   3.488   8.640  1.4694 -1.1256 -0.1992
  713MOL0     H98359  -2.411   3.640   8.607  1.6383  1.3839 -2.1664
  713MOL0     H98360  -2.399   3.552   8.352 -1.2984 -0.9137 -1.6469
  713MOL0     H98361  -2.463   3.404   8.404  4.4971  0.0217 -2.1204
  713MOL0     H98362  -2.622   3.573   8.293 -0.2558  0.6097  0.6508
  713MOL0     H98363  -2.601   3.678   8.427 -2.8932  0.8480 -2.2766
  713MOL0     H98364  -2.701   3.527   8.589  0.5192  2.1291 -0.0495
  713MOL0     H98365  -2.714   3.404   8.456 -3.1916 -1.0847  1.6403
  713MOL0     H98366  -2.872   3.656   8.488 -0.1325 -0.8932  2.2529
  713MOL0     H98367  -2.866   3.583   8.331  1.8950  3.0341  0.9123
  713MOL0     H98368  -2.937   3.370   8.444  2.1742 -0.0110 -0.8219
  713MOL0     H98369  -3.052   3.501   8.421  1.3528  1.8666 -0.2514
  713MOL0     H98370  -3.034   3.543   8.651  1.0260  0.5745 -1.2595
  713MOL0     H98371  -2.929   3.403   8.692 -2.6063 -1.2848  2.0759
  713MOL0     H98372  -3.100   3.250   8.575 -3.9789 -0.6214  0.1255
  713MOL0     H98373  -3.197   3.384   8.553  1.2269 -2.0173 -1.8041
  713MOL0     H98374  -2.144   3.302   8.705 -3.7463  0.6763 -0.5825
  713MOL0     H98375  -1.982   3.360   8.896  2.6718  1.6582 -1.9955
  713MOL0     H98376  -1.859   3.480   9.226  0.4250 -3.6930  2.7617
  713MOL0     H98377  -1.711   3.413   9.398  2.0703  0.7390  2.6651
  713MOL0     H98378  -0.339   3.959   8.902  0.5389  1.1526 -0.9034
  713MOL0     H98379  -0.155   3.929   8.736  1.3107 -1.4596 -0.5667
  713MOL0     H98380   0.230   3.665   8.727  0.8723 -1.1219 -1.2989
  713MOL0     H98381   0.454   3.570   8.658  0.7107  1.3425 -0.7981
  713MOL0     H98382   0.751   3.821   8.472 -0.7915  2.6472  1.6430
  713MOL0     H98383   0.790   3.844   8.635  0.3811 -1.4298  2.0444
  713MOL0     H98384   0.847   3.579   8.472  2.7300 -0.7391 -1.8169
  713MOL0     H98385   0.912   3.613   8.626  1.3903  1.4912  1.2035
  713MOL0     H98386   0.979   3.793   8.386  2.0501  1.7365  1.0722
  713MOL0     H98387   1.048   3.798   8.539  3.5496  0.2763 -1.4881
  713MOL0     H98388   1.096   3.531   8.494 -0.6348 -0.1570 -0.6871
  713MOL0     H98389   1.189   3.664   8.443  1.4438 -0.0991  4.1556
  713MOL0     H98390   1.045   3.517   8.070 -0.3365 -0.2194  0.5883
  713MOL0     H98391   0.620   3.955   8.648  1.3958 -3.6612  0.0173
  713MOL0     H98392   0.503   4.151   8.717 -1.6137  1.1078 -1.2458
  713MOL0     H98393   0.333   4.154   8.687  0.6032  0.5736 -0.4108
  713MOL0     H98394   0.398   4.133   8.850 -0.7397  0.0814 -0.7017
  714MOL0     O98395   6.071   6.681   4.121  0.2060 -0.1922  1.0180
  714MOL0     C98396   5.970   6.617   4.091 -0.4465  0.6086 -0.8071
  714MOL0     O98397   5.928   6.612   3.963  0.4885 -1.0608  0.1998
  714MOL0     C98398   5.993   6.682   3.860  0.1894 -0.0990  0.7572
  714MOL0     C98399   6.116   6.749   3.850  0.8122 -0.0812 -0.8966
  714MOL0     C98400   6.157   6.792   3.724  0.5082 -0.9112  0.9698
  714MOL0     C98401   6.079   6.791   3.607  0.2620  0.4404 -0.3133
  714MOL0     O98402   6.114   6.840   3.479  0.1717  0.2322  0.9039
  714MOL0     C98403   6.223   6.930   3.462 -0.4108  0.6000  0.4002
  714MOL0     C98404   6.196   7.055   3.555  0.1940 -0.5165  0.4924
  714MOL0     C98405   6.162   7.194   3.491 -0.3886 -0.7542 -0.5987
  714MOL0     C98406   6.128   7.292   3.608 -0.4825 -0.4287 -0.1098
  714MOL0     C98407   6.254   7.355   3.672  0.1634 -0.2221  0.4579
  714MOL0     C98408   6.213   7.458   3.778  0.4612 -0.3213  0.0397
  714MOL0     C98409   6.335   7.539   3.825 -0.1581  0.8354 -0.6604
  714MOL0     C98410   6.284   7.629   3.938 -0.0304 -0.0561  0.0358
  714MOL0     N98411   6.218   7.756   3.882 -0.8118 -1.0987 -0.3162
  714MOL0     C98412   6.228   7.828   3.766 -0.4824 -0.0166  0.1087
  714MOL0     C98413   6.131   7.926   3.754 -0.7181  0.0792 -0.8060
  714MOL0     C98414   6.101   8.025   3.651 -0.3951 -0.3639  0.5384
  714MOL0     C98415   6.155   8.172   3.688  0.9469  0.6110 -1.2797
  714MOL0     C98416   6.308   8.189   3.694  0.7386 -1.1619 -0.9017
  714MOL0     C98417   6.340   8.328   3.760 -0.3825 -0.3022 -0.4781
  714MOL0     O98418   6.299   8.436   3.679 -0.9747 -0.5218 -0.5066
  714MOL0     C98419   6.316   8.567   3.732  0.0319 -0.8574 -0.4183
  714MOL0     C98420   6.250   8.674   3.675 -0.3292 -0.3560  0.3047
  714MOL0     C98421   6.255   8.808   3.720 -0.8114  0.0323 -0.6196
  714MOL0     C98422   6.181   8.911   3.631  0.6657 -0.8849 -0.6474
  714MOL0     C98423   6.341   8.841   3.826 -1.0560  0.2818 -0.3706
  714MOL0     C98424   6.361   8.975   3.878 -1.0463  0.0478 -0.1627
  714MOL0     O98425   6.352   8.979   4.020 -0.1186 -0.2757  0.5473
  714MOL0     C98426   6.400   9.086   4.094  0.4884 -0.0847 -0.8733
  714MOL0     C98427   6.499   9.174   4.048 -0.4313 -0.7043  0.4266
  714MOL0     C98428   6.535   9.289   4.118  0.0705 -0.1488 -0.5045
  714MOL0     C98429   6.492   9.303   4.249 -0.0828 -0.1020 -0.5748
  714MOL0     O98430   6.541   9.405   4.336  0.2965  0.2677 -0.4601
  714MOL0     C98431   6.673   9.377   4.396  0.5821  1.1705  0.4576
  714MOL0     C98432   6.752   9.499   4.462  0.2994  0.4951 -0.4165
  714MOL0     C98433   6.807   9.578   4.349 -0.6413  0.6131 -0.2373
  714MOL0     C98434   6.881   9.700   4.404 -0.3693 -0.1760  0.6049
  714MOL0     C98435   6.802   9.828   4.375 -0.7059 -0.3592 -0.2366
  714MOL0     C98436   6.825   9.937   4.477  0.6625 -0.0335 -0.5342
  714MOL0     C98437   6.717  10.049   4.484  0.3725  1.1751 -0.7908
  714MOL0     C98438   6.651  10.071   4.623  0.5620 -0.4046 -0.0538
  714MOL0    Cl98439   6.607  10.238   4.654  0.4919  0.6584 -0.2317
  714MOL0     C98440   6.402   9.220   4.305  1.0680 -0.7216 -0.2382
  714MOL0     C98441   6.349   9.115   4.230  0.4587 -0.4755  0.3317
  714MOL0     O98442   6.394   9.063   3.810  0.4245 -0.2592  0.2071
  714MOL0     C98443   6.402   8.737   3.899 -0.3791  0.3330  0.7053
  714MOL0     C98444   6.380   8.604   3.855  0.0638 -0.5988  0.3816
  714MOL0     N98445   6.064   7.917   3.875  0.2130 -0.2962 -0.2249
  714MOL0     N98446   6.117   7.820   3.951  0.0992  1.1447  1.4301
  714MOL0     C98447   5.951   6.726   3.621  0.2323 -0.4657  0.4483
  714MOL0     C98448   5.904   6.672   3.745 -0.5270  0.5719 -0.0287
  714MOL0     C98449   5.884   6.534   4.191 -0.0101 -0.0455 -0.0809
  714MOL0     C98450   5.771   6.467   4.136 -0.1034  1.0850 -0.6481
  714MOL0     C98451   5.679   6.396   4.225 -0.1473  0.5771  0.1778
  714MOL0     C98452   5.702   6.396   4.356 -0.6118 -0.2306 -0.0852
  714MOL0     O98453   5.593   6.352   4.425  1.1490 -0.3771 -0.4930
  714MOL0     C98454   5.587   6.373   4.567  1.0707  0.2990  0.1917
  714MOL0     C98455   5.531   6.508   4.604  0.5652 -0.9985  0.3108
  714MOL0     C98456   5.391   6.524   4.560  0.3415 -0.2311 -0.7227
  714MOL0     C98457   5.361   6.674   4.546 -0.1783 -0.0633 -0.0340
  714MOL0     C98458   5.356   6.726   4.682  1.1002 -0.5985  0.0302
  714MOL0     C98459   5.362   6.764   4.799 -0.7136 -0.2241  0.4236
  714MOL0     C98460   5.815   6.454   4.410  0.4431 -0.1426  0.5413
  714MOL0     C98461   5.910   6.521   4.322  0.7920  0.5560 -1.4516
  714MOL0     C98462   6.040   6.565   4.394  0.0259 -0.1778 -0.3591
  714MOL0     H98463   6.192   6.770   3.924  0.3430  0.1950 -0.4947
  714MOL0     H98464   6.249   6.850   3.722  0.4694 -0.8623  0.2446
  714MOL0     H98465   6.225   6.957   3.356 -1.4761 -1.6986 -0.2657
  714MOL0     H98466   6.309   6.869   3.492 -0.8024 -1.2666 -1.9396
  714MOL0     H98467   6.116   7.036   3.628 -0.5786 -1.2678 -0.5173
  714MOL0     H98468   6.287   7.071   3.613  2.3619  0.1463 -2.7939
  714MOL0     H98469   6.243   7.237   3.432 -0.0525  0.5220  0.7311
  714MOL0     H98470   6.074   7.189   3.427 -0.5736  1.5888 -0.6035
  714MOL0     H98471   6.087   7.381   3.559 -0.1735 -1.2290 -1.9214
  714MOL0     H98472   6.066   7.239   3.680 -0.9645 -0.4012 -0.5009
  714MOL0     H98473   6.309   7.415   3.599  2.6558 -0.2207  2.2060
  714MOL0     H98474   6.321   7.278   3.711  2.3932  0.2138 -2.2454
  714MOL0     H98475   6.135   7.526   3.743 -1.4684 -2.2903  0.2892
  714MOL0     H98476   6.179   7.410   3.871  3.4490  1.6892  2.3753
  714MOL0     H98477   6.372   7.600   3.743  0.6080  1.4306  0.1018
  714MOL0     H98478   6.408   7.467   3.865  0.5026  1.0724 -1.3974
  714MOL0     H98479   6.209   7.584   4.003  0.4910 -0.7089  0.1885
  714MOL0     H98480   6.373   7.647   3.999  0.3100 -4.6287  1.2097
  714MOL0     H98481   6.294   7.808   3.682 -1.1475 -2.4112  0.0987
  714MOL0     H98482   5.996   8.002   3.631  0.0281 -0.5324 -1.7660
  714MOL0     H98483   6.143   7.991   3.556  0.1227 -0.5857  0.8469
  714MOL0     H98484   6.114   8.248   3.620 -2.5635 -0.2283 -0.3347
  714MOL0     H98485   6.105   8.193   3.783  0.6103 -6.2289  0.5394
  714MOL0     H98486   6.355   8.104   3.743  0.2066 -1.8788 -1.6114
  714MOL0     H98487   6.346   8.193   3.591 -1.0486  0.4959 -1.5745
  714MOL0     H98488   6.290   8.338   3.857 -0.0505  1.2621 -0.4473
  714MOL0     H98489   6.447   8.343   3.774 -0.7185 -0.4926  3.7558
  714MOL0     H98490   6.180   8.651   3.596  1.6826  0.2625 -1.7719
  714MOL0     H98491   6.144   8.857   3.544  0.3631  0.5745 -1.4575
  714MOL0     H98492   6.244   8.993   3.596 -1.0365  0.9303  0.2900
  714MOL0     H98493   6.099   8.966   3.680  2.0672  0.5628  0.1636
  714MOL0     H98494   6.553   9.167   3.954  1.0275 -0.3274  1.1962
  714MOL0     H98495   6.596   9.362   4.065 -0.0097 -1.6708 -2.8460
  714MOL0     H98496   6.666   9.299   4.472 -0.0675 -1.4963 -2.1413
  714MOL0     H98497   6.734   9.326   4.321 -0.4382  1.0908 -0.3495
  714MOL0     H98498   6.677   9.551   4.522  0.1870  2.0663 -1.8357
  714MOL0     H98499   6.840   9.461   4.514  1.6525  0.0765 -2.8544
  714MOL0     H98500   6.729   9.611   4.279 -1.4143 -2.4482 -0.9611
  714MOL0     H98501   6.872   9.508   4.296 -1.4579  1.1101 -1.9928
  714MOL0     H98502   6.974   9.709   4.347 -1.5525  1.3168 -1.2315
  714MOL0     H98503   6.911   9.689   4.508 -0.5412  1.4902  0.8670
  714MOL0     H98504   6.830   9.881   4.284  0.1373  1.2036  0.8903
  714MOL0     H98505   6.695   9.807   4.368 -0.4437 -1.4871 -1.1970
  714MOL0     H98506   6.927   9.976   4.471  1.1418 -1.1467 -0.0195
  714MOL0     H98507   6.810   9.882   4.571  2.4709  3.4856  2.0495
  714MOL0     H98508   6.634  10.021   4.418 -0.7004  0.1362  0.9220
  714MOL0     H98509   6.761  10.142   4.449 -0.2233  1.7090 -0.1548
  714MOL0     H98510   6.725  10.045   4.700  3.1275  3.6929 -0.8490
  714MOL0     H98511   6.561  10.010   4.618 -0.2132  0.8217 -1.8270
  714MOL0     H98512   6.386   9.227   4.412  2.5344  1.0580 -0.0902
  714MOL0     H98513   6.283   9.050   4.287  0.5526 -1.3760 -0.5524
  714MOL0     H98514   6.452   8.760   3.992 -1.7394 -1.0839  1.8525
  714MOL0     H98515   6.433   8.527   3.910  0.4496  1.3818  3.0041
  714MOL0     H98516   5.890   6.712   3.532 -2.6923  1.6802  1.9423
  714MOL0     H98517   5.807   6.625   3.735 -1.2012  1.4140  2.0714
  714MOL0     H98518   5.750   6.466   4.029 -0.7061 -4.4838 -0.7912
  714MOL0     H98519   5.592   6.344   4.189  0.3819 -0.9633  1.0505
  714MOL0     H98520   5.529   6.293   4.616 -0.0732  1.2469  0.4337
  714MOL0     H98521   5.686   6.355   4.610  1.6842  0.2082 -1.2068
  714MOL0     H98522   5.583   6.589   4.551  0.7410 -0.8134  0.7568
  714MOL0     H98523   5.548   6.540   4.707  1.3374  2.4416 -0.7266
  714MOL0     H98524   5.361   6.472   4.469  0.6799 -3.4768  0.8765
  714MOL0     H98525   5.327   6.479   4.637  0.2740 -0.3069 -0.8222
  714MOL0     H98526   5.261   6.682   4.503 -0.7740 -1.4269  0.9953
  714MOL0     H98527   5.432   6.728   4.483 -0.3831  0.8995  0.5339
  714MOL0     H98528   5.379   6.799   4.899 -3.0278 -0.0774  0.8128
  714MOL0     H98529   5.828   6.438   4.516 -2.8194 -2.0563  0.8043
  714MOL0     H98530   6.124   6.513   4.347  1.7108  2.3168 -0.2764
  714MOL0     H98531   6.041   6.673   4.379 -0.7597  0.2589  2.1844
  714MOL0     H98532   6.039   6.543   4.502 -2.3107 -1.7970 -0.6203
  715MOL0     O98533   9.752   4.537  10.184 -0.3386 -0.4470  0.6841
  715MOL0     C98534   9.771   4.611  10.285  0.6616 -0.2787  0.5429
  715MOL0     O98535   9.864   4.592  10.378  0.1160 -0.1168 -1.4887
  715MOL0     C98536   9.948   4.486  10.352 -0.8723  0.2956  0.6203
  715MOL0     C98537  10.066   4.511  10.276  0.2870  0.3582  0.4702
  715MOL0     C98538  10.165   4.413  10.244  0.0221 -0.9616 -0.5738
  715MOL0     C98539  10.156   4.286  10.299 -0.5871 -0.9647 -0.1391
  715MOL0     O98540  10.255   4.187  10.297  1.0157  0.0703  0.0544
  715MOL0     C98541  10.363   4.213  10.206 -0.0122  0.0593  0.0136
  715MOL0     C98542  10.446   4.095  10.168 -0.0595 -0.1426 -0.5110
  715MOL0     C98543  10.553   4.133  10.057 -0.2648 -0.9024 -0.0786
  715MOL0     C98544  10.638   4.021  10.003 -0.4226 -0.0098 -0.2516
  715MOL0     C98545  10.721   4.063   9.876 -0.1294 -0.7313 -0.4290
  715MOL0     C98546  10.822   4.188   9.901  0.5008 -0.0792  0.1456
  715MOL0     C98547  10.909   4.195   9.782 -0.2162  0.8703  0.7445
  715MOL0     C98548  11.008   4.302   9.796  0.1752  0.1329 -0.7092
  715MOL0     N98549  11.104   4.284   9.908  0.6112 -0.1189  0.4059
  715MOL0     C98550  11.180   4.170   9.918  0.5285  0.7182 -0.6995
  715MOL0     C98551  11.235   4.172  10.039  0.6566  0.0686  0.1141
  715MOL0     C98552  11.322   4.071  10.103 -0.3455  1.0760 -0.6373
  715MOL0     C98553  11.438   4.136  10.182 -1.0378 -1.1124 -0.0686
  715MOL0     C98554  11.531   4.218  10.100 -1.2235  0.4610 -1.1041
  715MOL0     C98555  11.605   4.154   9.985  0.3969 -0.2911  0.6351
  715MOL0     O98556  11.686   4.034  10.023  0.3980  0.4036 -0.1819
  715MOL0     C98557  11.787   4.060  10.111 -0.1845  0.6333  0.5291
  715MOL0     C98558  11.856   4.183  10.114 -0.4387  0.5065  0.4172
  715MOL0     C98559  11.956   4.211  10.206 -0.0484  0.9635  0.1522
  715MOL0     C98560  12.014   4.345  10.204  0.7693  0.4092 -0.9023
  715MOL0     C98561  12.000   4.105  10.296 -0.4503 -0.2122 -0.1152
  715MOL0     C98562  12.119   4.120  10.385  0.8463  0.0875 -0.3585
  715MOL0     O98563  12.108   4.070  10.514  0.4576 -0.2663 -0.0200
  715MOL0     C98564  12.213   4.047  10.596  0.0848 -0.3362 -0.8386
  715MOL0     C98565  12.316   4.141  10.612  0.4895  0.1218 -0.3518
  715MOL0     C98566  12.412   4.118  10.703 -0.1158  0.0807 -0.6551
  715MOL0     C98567  12.419   3.995  10.771 -0.6766 -0.4416  0.7059
  715MOL0     O98568  12.542   3.971  10.833  0.6076 -0.0652  0.1309
  715MOL0     C98569  12.586   3.836  10.855 -0.7919 -0.0161 -0.6891
  715MOL0     C98570  12.574   3.801  11.005 -0.3516 -0.4188 -0.7351
  715MOL0     C98571  12.681   3.867  11.096 -0.5164 -0.3422 -0.6831
  715MOL0     C98572  12.668   3.835  11.251 -0.4065  0.2773  0.2828
  715MOL0     C98573  12.542   3.918  11.304 -0.7678 -0.1785 -1.0278
  715MOL0     C98574  12.522   3.925  11.462  1.2633  0.3597 -0.2086
  715MOL0     C98575  12.510   3.774  11.525  0.4766 -1.4374 -0.8177
  715MOL0     C98576  12.532   3.783  11.674  0.1372 -1.0855 -0.0056
  715MOL0    Cl98577  12.509   3.621  11.749  0.6310 -0.6129 -0.5453
  715MOL0     C98578  12.306   3.907  10.775 -1.7354 -1.0572 -0.2832
  715MOL0     C98579  12.200   3.940  10.692 -0.0948 -0.1825 -0.4458
  715MOL0     O98580  12.219   4.186  10.345  0.5721  0.7592  0.7155
  715MOL0     C98581  11.936   3.985  10.292 -0.5616  0.2307 -0.2404
  715MOL0     C98582  11.828   3.963  10.204 -0.5259  1.1043  0.5801
  715MOL0     N98583  11.195   4.291  10.100  0.8065  0.0932 -0.5651
  715MOL0     N98584  11.126   4.363  10.017  0.2946  1.6728  0.6221
  715MOL0     C98585  10.046   4.257  10.376 -0.6899 -0.3428 -1.0759
  715MOL0     C98586   9.936   4.355  10.404  0.6302  0.2479  0.0782
  715MOL0     C98587   9.656   4.710  10.313  0.3798  0.3172  1.1052
  715MOL0     C98588   9.523   4.676  10.286  0.2391 -0.5377  0.8779
  715MOL0     C98589   9.419   4.767  10.311  0.0462  0.9190 -0.5315
  715MOL0     C98590   9.444   4.898  10.359  0.6292 -0.2549  0.7204
  715MOL0     O98591   9.340   4.989  10.381 -0.1217  0.5531  0.3037
  715MOL0     C98592   9.239   4.954  10.478 -0.4727 -0.4096  0.8464
  715MOL0     C98593   9.139   5.076  10.501 -0.6514  0.0161 -0.3564
  715MOL0     C98594   9.056   5.095  10.372  0.3549  0.1536  0.5374
  715MOL0     C98595   8.910   5.080  10.390  0.8185 -1.4263 -0.2995
  715MOL0     C98596   8.826   5.088  10.279  0.9099 -0.4731  0.1411
  715MOL0     C98597   8.747   5.092  10.185 -0.5526  0.3973  0.2313
  715MOL0     C98598   9.581   4.937  10.372 -0.0193  0.8060  0.7368
  715MOL0     C98599   9.673   4.842  10.361 -1.2640  0.3748  0.2345
  715MOL0     C98600   9.816   4.882  10.408 -0.3561 -0.8023 -0.2762
  715MOL0     H98601  10.066   4.614  10.240 -3.4420  0.5513  0.5386
  715MOL0     H98602  10.251   4.446  10.186 -0.7364  1.4390 -0.4216
  715MOL0     H98603  10.427   4.294  10.244 -1.1133  0.8450  0.2596
  715MOL0     H98604  10.320   4.253  10.114 -2.4307  1.4470  1.6396
  715MOL0     H98605  10.489   4.055  10.260  1.7811  0.6308 -0.9861
  715MOL0     H98606  10.374   4.024  10.125 -3.5319  2.8837 -0.2446
  715MOL0     H98607  10.504   4.175   9.969 -1.2960 -0.5806  0.6366
  715MOL0     H98608  10.615   4.209  10.106 -0.7120  0.1327 -1.0716
  715MOL0     H98609  10.696   3.969  10.080 -0.6668 -1.0471 -0.7637
  715MOL0     H98610  10.565   3.955   9.955  2.1833 -1.8672 -1.9331
  715MOL0     H98611  10.648   4.094   9.800  3.0730  1.3515 -2.9297
  715MOL0     H98612  10.766   3.973   9.833  1.8518  0.8644 -1.8528
  715MOL0     H98613  10.760   4.278   9.897 -3.4360 -2.5789 -0.4690
  715MOL0     H98614  10.873   4.179   9.998  1.5875  3.1311 -0.0217
  715MOL0     H98615  10.847   4.234   9.700  1.1007 -0.8418 -1.1744
  715MOL0     H98616  10.927   4.090   9.757 -2.2300  0.0828  2.2909
  715MOL0     H98617  11.069   4.315   9.706  2.8198  1.4103  1.1304
  715MOL0     H98618  10.959   4.400   9.804  0.1269 -0.0523  1.9432
  715MOL0     H98619  11.191   4.088   9.848 -0.6876  0.3978 -0.5365
  715MOL0     H98620  11.365   4.001  10.030 -1.5282  0.5565 -0.8487
  715MOL0     H98621  11.262   4.019  10.178  2.2286  1.9531  2.2373
  715MOL0     H98622  11.397   4.184  10.271 -0.9930  2.6135 -1.8561
  715MOL0     H98623  11.501   4.058  10.226 -2.6470 -1.5659  1.5648
  715MOL0     H98624  11.475   4.299  10.054 -0.2217  0.5797 -2.1502
  715MOL0     H98625  11.607   4.253  10.170  1.3481  0.8182 -3.8744
  715MOL0     H98626  11.534   4.136   9.904 -0.7874  0.8153  1.4024
  715MOL0     H98627  11.666   4.229   9.934 -1.1966 -0.3682 -1.5350
  715MOL0     H98628  11.838   4.263  10.043 -1.1640  0.6541  0.7534
  715MOL0     H98629  12.101   4.339  10.138  1.1943 -2.1203 -0.2202
  715MOL0     H98630  12.046   4.385  10.300 -1.3362  2.2984 -0.8987
  715MOL0     H98631  11.934   4.408  10.165  0.7812 -0.7763 -3.0557
  715MOL0     H98632  12.313   4.239  10.567  0.5556  0.3012  0.0297
  715MOL0     H98633  12.482   4.199  10.723  2.0160 -1.2143 -2.4064
  715MOL0     H98634  12.538   3.756  10.798  1.6807 -2.5926  0.6071
  715MOL0     H98635  12.693   3.825  10.836 -0.5871 -1.6822  1.1109
  715MOL0     H98636  12.473   3.805  11.046  0.1605 -1.7323  0.7333
  715MOL0     H98637  12.612   3.699  11.017  1.3858  0.1857 -0.8597
  715MOL0     H98638  12.676   3.975  11.078 -0.7339 -0.1453  0.4610
  715MOL0     H98639  12.774   3.827  11.053  1.1364 -0.3539  2.5861
  715MOL0     H98640  12.757   3.852  11.312 -1.1949  1.7027  1.0645
  715MOL0     H98641  12.654   3.726  11.259  0.7526  0.2257  2.2951
  715MOL0     H98642  12.556   4.020  11.267 -3.3554  1.3527  1.7460
  715MOL0     H98643  12.450   3.881  11.257 -0.2536  1.5018 -3.5575
  715MOL0     H98644  12.428   3.978  11.481  1.0053 -0.9457  2.7890
  715MOL0     H98645  12.590   3.986  11.522 -1.0919  0.7558  2.2567
  715MOL0     H98646  12.584   3.705  11.482  0.4392 -1.3809 -0.9746
  715MOL0     H98647  12.415   3.724  11.508  0.4431 -2.8221  2.7229
  715MOL0     H98648  12.470   3.862  11.716  0.6603 -0.0986 -1.0552
  715MOL0     H98649  12.632   3.822  11.696 -0.8593  1.9817 -0.5107
  715MOL0     H98650  12.336   3.822  10.836  2.1461 -1.3743 -2.2725
  715MOL0     H98651  12.121   3.866  10.703  1.2627 -1.6910 -0.4766
  715MOL0     H98652  11.981   3.905  10.351 -0.6707 -1.1653 -1.9753
  715MOL0     H98653  11.782   3.865  10.215  3.0272 -0.9079 -0.7922
  715MOL0     H98654  10.047   4.160  10.424  1.8583 -1.6385 -3.4832
  715MOL0     H98655   9.847   4.324  10.459 -0.5100  0.6280 -1.4677
  715MOL0     H98656   9.507   4.580  10.237 -0.5446  1.4098 -3.1724
  715MOL0     H98657   9.318   4.739  10.283 -0.8872  1.3547  2.1734
  715MOL0     H98658   9.186   4.867  10.437 -1.1942 -1.4063  3.6538
  715MOL0     H98659   9.281   4.916  10.571 -0.7461 -3.9364 -0.3238
  715MOL0     H98660   9.197   5.165  10.523  0.2036  0.0608 -2.5269
  715MOL0     H98661   9.076   5.055  10.588  0.6012  0.4401  0.6728
  715MOL0     H98662   9.091   5.187  10.324 -1.4783  0.5931 -0.0331
  715MOL0     H98663   9.089   5.023  10.297  3.9493 -1.2514  3.1805
  715MOL0     H98664   8.880   5.146  10.472 -2.0887 -1.7089 -1.0282
  715MOL0     H98665   8.897   4.977  10.424  3.9542 -1.4080  1.3202
  715MOL0     H98666   8.659   5.083  10.124 -0.9323  0.0749  0.8148
  715MOL0     H98667   9.604   5.035  10.413  1.3522  1.1276 -0.7006
  715MOL0     H98668   9.826   4.981  10.454  1.0236  0.5481 -3.2042
  715MOL0     H98669   9.864   4.814  10.479 -3.2556 -1.9143  0.7456
  715MOL0     H98670   9.865   4.884  10.310  1.8016 -0.4637  0.7586
  716MOL0     O98671   2.599   0.355   3.449  0.1553  0.2159  0.0877
  716MOL0     C98672   2.577   0.331   3.330  1.2663 -0.5355 -0.7400
  716MOL0     O98673   2.673   0.311   3.232 -0.1877 -0.0948  0.0421
  716MOL0     C98674   2.805   0.289   3.265 -0.8144  0.2657 -0.0248
  716MOL0     C98675   2.911   0.360   3.193  0.3011  0.3564 -0.1119
  716MOL0     C98676   3.044   0.316   3.205 -1.6301  0.5014  1.1578
  716MOL0     C98677   3.087   0.218   3.294 -0.3978 -0.1015 -0.1472
  716MOL0     O98678   3.226   0.204   3.316  1.2220 -1.2954  0.1093
  716MOL0     C98679   3.263   0.088   3.389 -0.6001 -0.2989  0.4968
  716MOL0     C98680   3.242   0.102   3.536 -0.3833  0.3953  0.2365
  716MOL0     C98681   3.375   0.150   3.602  0.1165 -0.4078  0.8019
  716MOL0     C98682   3.353   0.242   3.718  0.4756 -0.7365  0.0117
  716MOL0     C98683   3.467   0.341   3.746 -0.2489  0.9867  0.8496
  716MOL0     C98684   3.449   0.424   3.868 -0.2535  0.2150  0.5473
  716MOL0     C98685   3.455   0.346   3.998  0.5318 -0.0914 -0.0530
  716MOL0     C98686   3.464   0.447   4.107  0.7880 -1.3866 -0.0041
  716MOL0     N98687   3.343   0.540   4.122  0.3674  1.3026  0.4801
  716MOL0     C98688   3.340   0.683   4.112 -0.6228  0.6615  0.9810
  716MOL0     C98689   3.214   0.708   4.154  0.0969  0.7241 -0.6661
  716MOL0     C98690   3.145   0.843   4.166  0.3833  0.2833  0.1598
  716MOL0     C98691   3.157   0.928   4.048  0.6099 -0.1870 -0.4403
  716MOL0     C98692   3.089   0.864   3.932 -0.5171  0.6606 -0.1787
  716MOL0     C98693   3.101   0.948   3.807 -0.1824 -0.1257 -0.8094
  716MOL0     O98694   3.233   0.956   3.759 -0.1529  0.9640  0.1077
  716MOL0     C98695   3.274   0.864   3.663 -0.8914  0.6228  0.2447
  716MOL0     C98696   3.393   0.889   3.588  0.3356 -0.9758 -0.5382
  716MOL0     C98697   3.435   0.807   3.482 -0.5520  1.8294  0.4286
  716MOL0     C98698   3.546   0.853   3.391 -0.1215  0.1023  0.2940
  716MOL0     C98699   3.366   0.678   3.469 -1.2197  1.3980  0.1776
  716MOL0     C98700   3.384   0.579   3.352  0.2195 -0.9159  0.1031
  716MOL0     O98701   3.401   0.634   3.219  0.6351 -0.4455  0.6849
  716MOL0     C98702   3.401   0.552   3.101  0.3750  0.7628 -1.0775
  716MOL0     C98703   3.389   0.622   2.987 -0.5609 -0.9893 -0.4140
  716MOL0     C98704   3.399   0.555   2.859  0.8337 -0.2502 -0.4987
  716MOL0     C98705   3.411   0.410   2.848  0.2119 -0.8868 -0.4198
  716MOL0     O98706   3.395   0.333   2.736 -0.3481 -0.0707  0.3048
  716MOL0     C98707   3.348   0.391   2.609  0.2951 -0.9855  0.1095
  716MOL0     C98708   3.342   0.281   2.501  0.4031  0.2822  0.1678
  716MOL0     C98709   3.201   0.219   2.471  0.7538  1.4099  0.1118
  716MOL0     C98710   3.218   0.108   2.355 -0.4622 -0.4420 -0.1061
  716MOL0     C98711   3.075   0.082   2.307  0.2660  0.1229 -0.5049
  716MOL0     C98712   3.079  -0.011   2.179 -0.0874 -0.2356 -0.3903
  716MOL0     C98713   2.940   0.009   2.117  0.1126 -1.2145  0.3650
  716MOL0     C98714   2.823  -0.051   2.196  0.2620  0.4264 -0.1653
  716MOL0    Cl98715   2.653   0.001   2.149  0.0653  0.5266 -0.3828
  716MOL0     C98716   3.422   0.347   2.966  0.2519  0.5219 -0.1444
  716MOL0     C98717   3.420   0.405   3.097 -0.0607 -0.4023  0.2439
  716MOL0     O98718   3.394   0.457   3.387 -0.6232 -1.1828  0.7976
  716MOL0     C98719   3.261   0.651   3.555  0.2685  0.4032  0.0122
  716MOL0     C98720   3.216   0.730   3.650 -0.5552 -0.4170 -0.8009
  716MOL0     N98721   3.143   0.592   4.199  0.0861  0.2998  0.2282
  716MOL0     N98722   3.221   0.490   4.177 -0.2825  0.5335  0.2526
  716MOL0     C98723   2.980   0.142   3.360 -0.3407 -0.5039 -0.3294
  716MOL0     C98724   2.840   0.181   3.353 -1.0186  0.0480 -0.6149
  716MOL0     C98725   2.432   0.318   3.299 -1.1840 -0.6102 -0.4669
  716MOL0     C98726   2.387   0.304   3.164 -0.3546 -1.4958  0.4288
  716MOL0     C98727   2.255   0.278   3.129 -0.4082 -0.6659 -0.1038
  716MOL0     C98728   2.162   0.260   3.227 -0.5649 -0.2532 -0.0367
  716MOL0     O98729   2.028   0.240   3.188  0.8739 -0.1090  0.4874
  716MOL0     C98730   1.931   0.327   3.260  0.6268 -0.2580  0.5654
  716MOL0     C98731   1.808   0.291   3.182  0.2028  0.6827 -0.4016
  716MOL0     C98732   1.690   0.363   3.250 -0.7558  0.4211 -0.8470
  716MOL0     C98733   1.593   0.440   3.165 -0.2360 -0.4446  0.1020
  716MOL0     C98734   1.653   0.535   3.070 -0.4873 -0.3875  0.1898
  716MOL0     C98735   1.693   0.624   2.989 -0.3273 -0.1541 -1.3080
  716MOL0     C98736   2.200   0.281   3.358  0.2460 -0.8382 -0.5473
  716MOL0     C98737   2.330   0.310   3.398 -0.9852  0.6504  0.3700
  716MOL0     C98738   2.341   0.327   3.546 -1.2762 -0.1682 -1.4333
  716MOL0     H98739   2.886   0.452   3.141  1.4929  2.3826  2.6642
  716MOL0     H98740   3.122   0.366   3.148 -0.8411 -1.9267 -0.0048
  716MOL0     H98741   3.366   0.064   3.360 -0.4982  2.5481 -1.9768
  716MOL0     H98742   3.204  -0.000   3.364 -0.9291  0.2516 -0.6877
  716MOL0     H98743   3.167   0.180   3.551 -0.3099  0.4229  0.4600
  716MOL0     H98744   3.200   0.010   3.578 -0.6055  0.3816 -0.0152
  716MOL0     H98745   3.448   0.077   3.640  1.0925  1.1351  2.0124
  716MOL0     H98746   3.421   0.207   3.521 -0.7907 -0.5123  0.1996
  716MOL0     H98747   3.275   0.315   3.691  2.2014  1.8321  1.5038
  716MOL0     H98748   3.325   0.189   3.809  2.8674  2.3111  2.7471
  716MOL0     H98749   3.478   0.415   3.666 -0.2826 -0.5363 -0.6023
  716MOL0     H98750   3.556   0.279   3.761 -0.9574 -0.2138  0.2276
  716MOL0     H98751   3.528   0.499   3.868  0.1562 -0.2123  0.9618
  716MOL0     H98752   3.358   0.484   3.861  0.8786  2.0891  1.1887
  716MOL0     H98753   3.543   0.280   3.999 -1.2617 -2.6309  1.3836
  716MOL0     H98754   3.364   0.288   4.016  0.6097 -0.3146 -0.3746
  716MOL0     H98755   3.489   0.398   4.201  0.3432 -0.5905  0.5450
  716MOL0     H98756   3.552   0.509   4.093  0.3227 -1.2163 -2.7686
  716MOL0     H98757   3.411   0.753   4.069  3.7559 -2.2338  2.7799
  716MOL0     H98758   3.202   0.901   4.240  0.6336  0.8066 -0.4377
  716MOL0     H98759   3.037   0.835   4.182  0.0588  1.0479 -1.4483
  716MOL0     H98760   3.107   1.022   4.073 -0.4914 -0.8168 -0.2356
  716MOL0     H98761   3.263   0.944   4.028  0.6553 -0.5976 -0.5396
  716MOL0     H98762   3.129   0.765   3.909 -0.8313  0.2446  0.9935
  716MOL0     H98763   2.985   0.847   3.961 -0.7640 -3.1835 -2.5910
  716MOL0     H98764   3.047   0.899   3.725  0.3249 -0.4993 -0.9230
  716MOL0     H98765   3.064   1.049   3.825  1.5420  0.3978  0.0222
  716MOL0     H98766   3.429   0.992   3.591 -0.3346 -0.3626 -5.2662
  716MOL0     H98767   3.510   0.942   3.339  2.0940 -0.1384 -1.8254
  716MOL0     H98768   3.578   0.781   3.315  2.8155  1.2204  0.3430
  716MOL0     H98769   3.636   0.881   3.448  0.4984 -2.4447  0.7064
  716MOL0     H98770   3.392   0.729   3.008 -0.3450 -0.3901 -3.1921
  716MOL0     H98771   3.393   0.624   2.776  0.3011 -1.7242 -1.7280
  716MOL0     H98772   3.256   0.449   2.621  1.7605  0.9441  3.3901
  716MOL0     H98773   3.417   0.471   2.581 -0.8665 -0.0981 -0.3160
  716MOL0     H98774   3.380   0.324   2.408  0.5038  1.7571  0.8613
  716MOL0     H98775   3.407   0.199   2.533  1.7104  1.6401  1.1616
  716MOL0     H98776   3.143   0.300   2.424 -1.1802  0.3706  0.5867
  716MOL0     H98777   3.148   0.194   2.564  1.8110 -0.6093  0.2252
  716MOL0     H98778   3.272   0.025   2.400 -1.6937 -0.7225  0.9443
  716MOL0     H98779   3.267   0.147   2.265  3.5189 -0.7292  1.7293
  716MOL0     H98780   3.010   0.039   2.383 -2.6924  2.5599 -1.4221
  716MOL0     H98781   3.033   0.182   2.295  1.8234  0.7448 -1.0882
  716MOL0     H98782   3.106  -0.112   2.213  1.6908  0.5851  0.7391
  716MOL0     H98783   3.149   0.028   2.104  1.1003  2.0879  1.7841
  716MOL0     H98784   2.944  -0.023   2.013  0.5067 -0.1889  0.0604
  716MOL0     H98785   2.923   0.117   2.116  0.2090 -1.2019 -0.7763
  716MOL0     H98786   2.841  -0.033   2.302  0.5059 -0.0798 -0.1173
  716MOL0     H98787   2.823  -0.160   2.191 -0.9786  0.1048  3.7799
  716MOL0     H98788   3.439   0.240   2.961 -1.9371  0.0715  1.0184
  716MOL0     H98789   3.427   0.334   3.179  0.0681 -2.0762 -1.1649
  716MOL0     H98790   3.202   0.560   3.552  0.4049  0.3403 -1.2463
  716MOL0     H98791   3.136   0.686   3.708  1.7529 -2.4919  1.0100
  716MOL0     H98792   2.994   0.051   3.418  1.7206  0.5839  0.9887
  716MOL0     H98793   2.765   0.119   3.401  1.1249 -2.0316  0.2560
  716MOL0     H98794   2.464   0.303   3.088 -4.1601 -1.7414 -3.8553
  716MOL0     H98795   2.238   0.255   3.024  1.2371  0.6154 -0.7010
  716MOL0     H98796   1.928   0.303   3.367 -1.3094 -0.7205  0.4362
  716MOL0     H98797   1.946   0.434   3.244 -1.3603 -0.2967 -2.3038
  716MOL0     H98798   1.790   0.184   3.177  0.9615  0.5076  0.4090
  716MOL0     H98799   1.832   0.327   3.081  1.8578  2.3803  0.5280
  716MOL0     H98800   1.642   0.296   3.321  2.3230  2.2683  3.3763
  716MOL0     H98801   1.721   0.444   3.317  0.4134 -0.1152 -0.7055
  716MOL0     H98802   1.537   0.504   3.233 -1.2478  0.3372 -1.4226
  716MOL0     H98803   1.518   0.371   3.125 -0.1848 -0.1313 -0.5314
  716MOL0     H98804   1.713   0.710   2.928 -1.1058  1.7692  1.0110
  716MOL0     H98805   2.126   0.274   3.438  1.4197  2.1375  0.9479
  716MOL0     H98806   2.383   0.428   3.554 -1.3142 -0.0970 -2.0584
  716MOL0     H98807   2.246   0.320   3.599 -0.6928  0.6410 -0.2521
  716MOL0     H98808   2.404   0.254   3.598 -3.8584 -0.9142  0.9063
  717MOL0     O98809   4.269   5.591   1.137  0.7249 -0.4830 -0.0404
  717MOL0     C98810   4.249   5.681   1.054  0.0737  0.3672 -0.0051
  717MOL0     O98811   4.148   5.781   1.062 -0.7410  0.2895  0.2547
  717MOL0     C98812   4.070   5.766   1.168 -0.7306 -0.0038 -0.6083
  717MOL0     C98813   3.973   5.663   1.176  0.0506 -1.4134  1.4443
  717MOL0     C98814   3.879   5.666   1.276  0.6863  0.4949  0.4529
  717MOL0     C98815   3.863   5.778   1.355  1.1913 -0.4742 -0.0787
  717MOL0     O98816   3.759   5.785   1.448 -0.2146  0.3316 -0.4136
  717MOL0     C98817   3.790   5.718   1.575  0.4562 -0.3744  0.7817
  717MOL0     C98818   3.660   5.684   1.651 -0.3742  0.8291  0.5203
  717MOL0     C98819   3.681   5.637   1.795  0.1315 -0.3056  0.6869
  717MOL0     C98820   3.548   5.586   1.836  0.3331 -0.4710 -0.9929
  717MOL0     C98821   3.537   5.613   1.991 -0.1036 -0.0550  0.1164
  717MOL0     C98822   3.395   5.576   2.053 -0.4570 -0.9224  0.7958
  717MOL0     C98823   3.362   5.427   2.047 -0.0405 -0.2810  0.3725
  717MOL0     C98824   3.444   5.342   2.154  0.3823 -0.1696  0.2312
  717MOL0     N98825   3.391   5.373   2.289  0.8993 -0.3122 -0.4235
  717MOL0     C98826   3.259   5.339   2.324 -1.0859 -0.5515 -0.0250
  717MOL0     C98827   3.252   5.377   2.455 -0.0843  0.1732  0.2658
  717MOL0     C98828   3.134   5.331   2.537  0.5007 -0.3615 -0.8450
  717MOL0     C98829   3.004   5.352   2.473 -0.3163 -0.0069 -0.2597
  717MOL0     C98830   2.902   5.265   2.555  0.5489  0.0341 -0.0906
  717MOL0     C98831   2.758   5.277   2.505  0.0491 -0.1834 -0.2529
  717MOL0     O98832   2.711   5.408   2.515  0.2646 -0.4748 -0.3458
  717MOL0     C98833   2.589   5.429   2.455  0.5680  1.2242 -0.5749
  717MOL0     C98834   2.492   5.337   2.422 -0.0218 -0.5197 -0.2881
  717MOL0     C98835   2.368   5.376   2.352  0.1545  0.3670  0.7417
  717MOL0     C98836   2.274   5.263   2.302  1.5366 -0.1245  0.3347
  717MOL0     C98837   2.342   5.513   2.322 -0.3357  0.8309 -0.5991
  717MOL0     C98838   2.239   5.570   2.242  0.2184  0.4861  0.3446
  717MOL0     O98839   2.227   5.705   2.242  0.4305  0.3814  0.1904
  717MOL0     C98840   2.143   5.768   2.162  0.5564 -0.8480 -0.0804
  717MOL0     C98841   2.104   5.891   2.209  0.6321  0.9747  0.1472
  717MOL0     C98842   2.019   5.967   2.123 -0.2429  0.3716 -0.2499
  717MOL0     C98843   1.987   5.930   1.995 -0.1027 -0.6938  0.1203
  717MOL0     O98844   1.898   6.019   1.933 -0.2216  0.0806 -0.5221
  717MOL0     C98845   1.819   5.962   1.810 -0.5173  0.7048 -0.5240
  717MOL0     C98846   1.783   6.072   1.717  0.3507 -0.6549  0.3334
  717MOL0     C98847   1.692   6.180   1.774  0.5677  0.3662  0.4070
  717MOL0     C98848   1.539   6.146   1.803  0.4469  0.1576 -0.1011
  717MOL0     C98849   1.474   6.255   1.884 -0.1514 -0.6571  0.4373
  717MOL0     C98850   1.318   6.265   1.860  0.1985  0.7504 -0.9722
  717MOL0     C98851   1.247   6.177   1.956  0.2431 -0.1007 -0.5961
  717MOL0     C98852   1.217   6.255   2.089 -0.1989  0.3882 -0.4240
  717MOL0    Cl98853   1.056   6.323   2.089  0.2422  0.1695  0.2589
  717MOL0     C98854   2.039   5.805   1.944 -0.3480  0.5872 -0.4362
  717MOL0     C98855   2.113   5.726   2.029 -1.3620 -0.6846  0.6153
  717MOL0     O98856   2.170   5.492   2.181 -0.4736 -0.2886 -0.0883
  717MOL0     C98857   2.449   5.604   2.350  0.9735 -0.2060  0.0576
  717MOL0     C98858   2.570   5.559   2.405  0.0302 -0.8153  1.4054
  717MOL0     N98859   3.376   5.432   2.494  0.4952 -0.8252  0.3129
  717MOL0     N98860   3.456   5.422   2.397 -0.8749  0.4816  0.4148
  717MOL0     C98861   3.969   5.869   1.358  0.0297 -0.2404 -0.5979
  717MOL0     C98862   4.061   5.877   1.257 -0.5468 -0.6235  0.5204
  717MOL0     C98863   4.330   5.683   0.938  0.2157 -1.4279  0.8671
  717MOL0     C98864   4.261   5.699   0.821 -0.2231  0.6807  0.2335
  717MOL0     C98865   4.332   5.722   0.705  1.0995 -0.7641  0.5230
  717MOL0     C98866   4.466   5.740   0.702 -0.3353 -0.9886  0.0423
  717MOL0     O98867   4.545   5.795   0.605  0.5479  0.4183  0.4620
  717MOL0     C98868   4.474   5.875   0.506  0.1794  0.2061 -0.3791
  717MOL0     C98869   4.584   5.950   0.431  0.5696  0.5445  0.6068
  717MOL0     C98870   4.697   5.867   0.373 -0.1998  1.0023  0.6103
  717MOL0     C98871   4.789   5.934   0.274 -0.3301  0.0570 -0.9007
  717MOL0     C98872   4.721   6.001   0.154  0.7984 -0.4299 -0.1208
  717MOL0     C98873   4.658   6.042   0.056  0.0491  1.1953 -0.6109
  717MOL0     C98874   4.541   5.727   0.815 -0.0149 -0.3689 -0.3162
  717MOL0     C98875   4.473   5.693   0.937  0.6142 -0.5850  0.6509
  717MOL0     C98876   4.546   5.674   1.071 -0.1970 -0.7615  0.5433
  717MOL0     H98877   3.984   5.575   1.114  3.2215 -0.7506  0.9149
  717MOL0     H98878   3.806   5.587   1.291  1.7675 -0.5790  0.2201
  717MOL0     H98879   3.845   5.787   1.640  0.4258  0.8466 -0.4317
  717MOL0     H98880   3.853   5.631   1.552  0.8594  0.5189 -1.9041
  717MOL0     H98881   3.604   5.777   1.636 -1.7127 -0.1842 -1.1233
  717MOL0     H98882   3.598   5.612   1.597  0.3667 -2.8329  4.0849
  717MOL0     H98883   3.767   5.570   1.787  0.9709  0.6491  1.3751
  717MOL0     H98884   3.725   5.721   1.851  3.6059 -0.4342 -1.5354
  717MOL0     H98885   3.465   5.631   1.781  0.7336  1.1346 -0.3436
  717MOL0     H98886   3.556   5.478   1.822  2.4464 -0.1874 -2.5439
  717MOL0     H98887   3.550   5.717   2.023 -0.2931 -0.2556  0.8442
  717MOL0     H98888   3.612   5.559   2.047  0.2271  1.9551  1.7301
  717MOL0     H98889   3.386   5.616   2.154  0.3186  1.7526 -0.1154
  717MOL0     H98890   3.324   5.627   1.987 -0.2365 -0.3314  1.0169
  717MOL0     H98891   3.384   5.380   1.950  2.0828  1.4918 -0.0925
  717MOL0     H98892   3.257   5.402   2.064 -0.1712 -0.9502 -1.1689
  717MOL0     H98893   3.437   5.239   2.118 -0.5177  1.5017 -5.4106
  717MOL0     H98894   3.549   5.370   2.143 -0.2098  2.6823  0.8733
  717MOL0     H98895   3.191   5.279   2.263  0.1461 -0.4673 -1.5488
  717MOL0     H98896   3.138   5.378   2.636  0.8914  1.8831 -1.8504
  717MOL0     H98897   3.146   5.224   2.552 -2.2888 -0.4561  1.6661
  717MOL0     H98898   2.967   5.455   2.467 -1.6075 -0.5351 -4.2878
  717MOL0     H98899   3.013   5.316   2.370  2.5649 -0.8842  0.2166
  717MOL0     H98900   2.928   5.161   2.534 -0.8483  0.2334 -3.4612
  717MOL0     H98901   2.902   5.289   2.661 -1.3974 -0.2608  0.0176
  717MOL0     H98902   2.756   5.248   2.400  2.0228  3.8979 -1.5901
  717MOL0     H98903   2.688   5.212   2.559 -2.1114  1.7882 -0.5131
  717MOL0     H98904   2.511   5.230   2.434 -1.7253 -0.7664  0.5635
  717MOL0     H98905   2.308   5.173   2.354  1.3663  0.5425  1.6564
  717MOL0     H98906   2.280   5.241   2.195  0.9020 -0.6938  0.4090
  717MOL0     H98907   2.176   5.300   2.332  1.2304 -0.6742  0.0218
  717MOL0     H98908   2.122   5.926   2.310 -0.7137 -0.6570  0.9951
  717MOL0     H98909   1.988   6.067   2.150  0.1884  0.7926 -1.2827
  717MOL0     H98910   1.881   5.895   1.750 -1.0715  0.6312 -1.0201
  717MOL0     H98911   1.732   5.905   1.847 -2.2442  1.5328 -3.0609
  717MOL0     H98912   1.874   6.114   1.674 -0.9140 -1.0074 -2.9213
  717MOL0     H98913   1.734   6.022   1.633 -0.4283  0.4591  0.1044
  717MOL0     H98914   1.702   6.269   1.711  1.6114  1.3305  1.8642
  717MOL0     H98915   1.739   6.210   1.868 -0.9395  0.9171  1.0201
  717MOL0     H98916   1.528   6.055   1.864  0.1427  0.7733  0.7929
  717MOL0     H98917   1.480   6.114   1.717 -0.6687  0.3594  0.5612
  717MOL0     H98918   1.483   6.241   1.992  1.8811 -0.4075  0.3408
  717MOL0     H98919   1.517   6.353   1.861  2.4595 -1.9566 -0.6291
  717MOL0     H98920   1.287   6.240   1.758 -3.4733 -2.8454  0.7182
  717MOL0     H98921   1.282   6.367   1.877 -0.1727  0.0533  3.9180
  717MOL0     H98922   1.313   6.095   1.983 -0.2204 -0.2473  0.1380
  717MOL0     H98923   1.154   6.135   1.918  0.5830 -0.1615 -1.3678
  717MOL0     H98924   1.280   6.341   2.114  1.5885 -0.9721 -0.0587
  717MOL0     H98925   1.227   6.178   2.165  2.7494 -0.6055 -1.6494
  717MOL0     H98926   2.014   5.753   1.852  1.4120 -1.5894  0.2208
  717MOL0     H98927   2.159   5.638   1.986  1.4447  1.2172 -0.5596
  717MOL0     H98928   2.456   5.708   2.320  0.4350  0.0274  0.7283
  717MOL0     H98929   2.648   5.634   2.415  1.7262 -2.0848 -1.3216
  717MOL0     H98930   3.974   5.957   1.420 -1.2614  0.6412 -1.6634
  717MOL0     H98931   4.129   5.960   1.250 -2.8184  1.2899 -0.2291
  717MOL0     H98932   4.154   5.695   0.804  0.0555 -1.5486 -1.3991
  717MOL0     H98933   4.282   5.733   0.609  2.2412 -3.5462 -0.5174
  717MOL0     H98934   4.420   5.811   0.436  2.2593  0.5320 -2.3982
  717MOL0     H98935   4.396   5.942   0.542  1.8588  2.6634 -1.0876
  717MOL0     H98936   4.623   6.023   0.502 -0.1374  0.6692  0.8771
  717MOL0     H98937   4.543   6.004   0.345  0.6740  2.4976  1.7170
  717MOL0     H98938   4.757   5.845   0.462  0.9778  3.5247  0.5014
  717MOL0     H98939   4.667   5.775   0.321  2.2275  0.4596 -0.0053
  717MOL0     H98940   4.852   5.851   0.239 -0.7789 -1.2708  1.2341
  717MOL0     H98941   4.851   6.002   0.334 -1.4539  0.8953 -0.6751
  717MOL0     H98942   4.620   6.083  -0.035 -2.1475  0.3110 -0.1516
  717MOL0     H98943   4.649   5.726   0.803  0.0630 -1.7781  0.3777
  717MOL0     H98944   4.520   5.578   1.116  0.4619 -1.3388 -0.2799
  717MOL0     H98945   4.653   5.680   1.051 -0.9476  1.3924 -3.9630
  717MOL0     H98946   4.530   5.759   1.138  2.9532  0.3761  0.0259
  718MOL0     O98947   8.385   3.809   8.323  0.1845 -0.0235  0.6390
  718MOL0     C98948   8.444   3.825   8.431 -0.0198  0.7184  0.7642
  718MOL0     O98949   8.561   3.882   8.439  0.2214  0.1497 -0.5659
  718MOL0     C98950   8.593   3.967   8.331  0.1283  0.0162 -0.4228
  718MOL0     C98951   8.684   3.933   8.218  0.5048 -0.5363  0.4153
  718MOL0     C98952   8.707   4.031   8.116 -0.4955 -0.7573 -0.3735
  718MOL0     C98953   8.646   4.152   8.124 -0.9541  0.1708 -0.8593
  718MOL0     O98954   8.670   4.232   8.025  0.8666 -0.2614  0.1654
  718MOL0     C98955   8.554   4.312   7.982 -1.3274 -0.6847 -0.2346
  718MOL0     C98956   8.562   4.466   8.020 -0.6734  0.2370  0.2287
  718MOL0     C98957   8.701   4.522   7.981  0.1694 -0.5448  0.7261
  718MOL0     C98958   8.755   4.603   8.093 -0.3200 -0.6866  0.4004
  718MOL0     C98959   8.903   4.592   8.089 -0.2565 -0.2335 -0.2191
  718MOL0     C98960   8.980   4.678   8.186  0.2820 -0.4298 -0.4948
  718MOL0     C98961   9.131   4.684   8.178  0.9537 -0.5925 -0.2613
  718MOL0     C98962   9.161   4.804   8.081 -0.7921  1.2067  0.2096
  718MOL0     N98963   9.148   4.758   7.935  0.1578  0.3790 -0.0088
  718MOL0     C98964   9.215   4.641   7.881 -0.5713 -0.3178  0.2625
  718MOL0     C98965   9.180   4.629   7.754 -0.0785  0.3987 -0.9954
  718MOL0     C98966   9.227   4.537   7.647 -0.3907 -0.5562 -0.0551
  718MOL0     C98967   9.372   4.499   7.663 -0.2085 -0.2400 -0.8018
  718MOL0     C98968   9.411   4.391   7.574 -0.2532  0.4486  0.0991
  718MOL0     C98969   9.424   4.436   7.423  0.1545  1.2927  0.7716
  718MOL0     O98970   9.459   4.308   7.354 -1.1220  0.0326 -1.0724
  718MOL0     C98971   9.585   4.283   7.313 -0.4948  0.2338 -0.8508
  718MOL0     C98972   9.660   4.374   7.232 -0.3911  0.7129  0.1296
  718MOL0     C98973   9.797   4.337   7.198  0.6774 -0.7894 -0.0987
  718MOL0     C98974   9.856   4.437   7.098  0.4507  0.1167  0.1386
  718MOL0     C98975   9.861   4.224   7.255  0.8145 -0.4464 -1.0935
  718MOL0     C98976  10.012   4.189   7.238 -0.0565  1.3184 -0.3326
  718MOL0     O98977  10.047   4.048   7.250  0.0695  0.3234  0.0907
  718MOL0     C98978  10.176   4.016   7.223  0.2112 -0.1886  0.4176
  718MOL0     C98979  10.193   3.942   7.108  0.3261 -0.0241 -0.2092
  718MOL0     C98980  10.320   3.882   7.087  0.4694  0.2639  0.5337
  718MOL0     C98981  10.435   3.917   7.172 -0.2134 -0.6717  0.5865
  718MOL0     O98982  10.561   3.873   7.156 -0.3377 -0.3156 -0.6052
  718MOL0     C98983  10.608   3.815   7.039  0.2106  0.2548  1.1339
  718MOL0     C98984  10.665   3.912   6.934 -0.5717 -0.5228  1.1485
  718MOL0     C98985  10.793   3.995   6.971 -0.2125  0.3288  0.6552
  718MOL0     C98986  10.812   4.114   6.868 -0.2542 -0.1989 -0.0257
  718MOL0     C98987  10.942   4.198   6.886 -0.5285 -0.6889 -0.3030
  718MOL0     C98988  10.943   4.299   6.993  0.4371  0.6572 -1.5753
  718MOL0     C98989  11.092   4.340   7.018  0.3651 -0.0999  0.3698
  718MOL0     C98990  11.109   4.442   7.132  0.1290 -0.4519  0.6232
  718MOL0    Cl98991  11.284   4.472   7.150 -0.2050  0.2392 -0.1593
  718MOL0     C98992  10.410   3.989   7.295  0.7853 -0.2394  0.0485
  718MOL0     C98993  10.280   4.035   7.319  1.3373  0.1544  0.4358
  718MOL0     O98994  10.081   4.285   7.228 -0.4090 -0.0050 -0.1755
  718MOL0     C98995   9.778   4.128   7.319  0.5863  0.3900 -0.2935
  718MOL0     C98996   9.643   4.158   7.354  0.3913 -0.3458 -0.6692
  718MOL0     N98997   9.091   4.724   7.724 -0.0822  0.7809  0.6168
  718MOL0     N98998   9.068   4.797   7.830 -0.4655  0.5793  0.4838
  718MOL0     C98999   8.556   4.181   8.232  0.3426 -0.4675  0.3142
  718MOL0     C99000   8.531   4.089   8.334  0.7231 -0.1359  0.5923
  718MOL0     C99001   8.381   3.770   8.550 -1.3909 -0.0502 -0.2237
  718MOL0     C99002   8.320   3.642   8.536 -0.0064  0.0415  0.9451
  718MOL0     C99003   8.260   3.583   8.647 -0.5684  0.0208 -0.3539
  718MOL0     C99004   8.251   3.649   8.766  0.5238  0.5314 -0.3376
  718MOL0     O99005   8.175   3.593   8.868 -0.6910  0.3457 -0.0148
  718MOL0     C99006   8.055   3.657   8.896 -0.8093  0.7452  0.3908
  718MOL0     C99007   8.043   3.661   9.045  0.9208  0.3137 -0.5027
  718MOL0     C99008   8.144   3.758   9.115 -0.5778  1.3295  0.1607
  718MOL0     C99009   8.109   3.778   9.265  0.1541 -0.9884  0.8718
  718MOL0     C99010   8.196   3.872   9.338  0.7020 -0.5113  0.8634
  718MOL0     C99011   8.255   3.952   9.409 -0.7547  0.5073 -0.1075
  718MOL0     C99012   8.309   3.772   8.785  0.5276  0.1673  0.3457
  718MOL0     C99013   8.380   3.827   8.678 -0.6263 -0.5421 -0.2125
  718MOL0     C99014   8.454   3.951   8.705  0.4988 -0.4114  0.0630
  718MOL0     H99015   8.723   3.831   8.212 -0.1817 -0.7402 -0.8453
  718MOL0     H99016   8.765   4.007   8.027 -2.9339 -3.9437 -1.2791
  718MOL0     H99017   8.464   4.255   8.010 -0.8646 -1.1186  0.3788
  718MOL0     H99018   8.557   4.320   7.873  0.7529 -0.8672 -0.2134
  718MOL0     H99019   8.493   4.505   7.945  0.3054 -1.0770 -1.4443
  718MOL0     H99020   8.541   4.489   8.125 -0.5422 -1.4634  0.6488
  718MOL0     H99021   8.771   4.441   7.959 -0.5651 -1.1654  0.6254
  718MOL0     H99022   8.690   4.579   7.888  0.5605  3.6246  3.0185
  718MOL0     H99023   8.714   4.704   8.102 -1.5392 -1.2534  1.5934
  718MOL0     H99024   8.730   4.554   8.188 -1.0591  0.7369  0.9685
  718MOL0     H99025   8.920   4.631   7.989 -3.8386  1.1803 -0.4213
  718MOL0     H99026   8.953   4.495   8.099  0.5130  0.1783 -0.0059
  718MOL0     H99027   8.934   4.777   8.189 -1.9710 -1.4374  0.3540
  718MOL0     H99028   8.970   4.615   8.275 -0.6842 -1.0136 -0.9975
  718MOL0     H99029   9.177   4.590   8.145  0.6580 -0.7813 -0.1308
  718MOL0     H99030   9.160   4.722   8.276  0.1732 -1.5720  0.3686
  718MOL0     H99031   9.088   4.882   8.104 -0.7496  1.1240  0.6400
  718MOL0     H99032   9.263   4.844   8.082  0.9137 -2.6703 -0.2907
  718MOL0     H99033   9.293   4.589   7.935  0.1520 -0.3338 -0.7814
  718MOL0     H99034   9.221   4.586   7.549  5.5454 -1.3961 -1.2459
  718MOL0     H99035   9.163   4.449   7.645  1.5024 -2.1481  2.7334
  718MOL0     H99036   9.431   4.585   7.629 -3.3100  1.2862 -2.7495
  718MOL0     H99037   9.392   4.471   7.767 -0.6140  1.3703 -0.2642
  718MOL0     H99038   9.509   4.344   7.591 -0.7049 -0.6647 -0.2346
  718MOL0     H99039   9.350   4.303   7.599 -1.6259  0.8741 -1.5930
  718MOL0     H99040   9.321   4.460   7.394 -1.2959 -4.0212  0.4019
  718MOL0     H99041   9.501   4.512   7.410 -0.0148  1.4198  0.4988
  718MOL0     H99042   9.628   4.470   7.192  0.4480  0.5843 -0.9070
  718MOL0     H99043   9.893   4.390   7.006 -0.8673 -0.7373  0.0217
  718MOL0     H99044   9.941   4.494   7.137 -0.6684  1.0496  1.2812
  718MOL0     H99045   9.777   4.496   7.051  1.6075  0.1762 -1.8290
  718MOL0     H99046  10.110   3.909   7.048  0.9656  0.1516 -1.2073
  718MOL0     H99047  10.336   3.812   7.006  1.6611 -0.7766  1.6283
  718MOL0     H99048  10.696   3.753   7.056  1.0405  1.0192 -0.1440
  718MOL0     H99049  10.535   3.750   6.990  0.4085  1.3085 -0.6936
  718MOL0     H99050  10.687   3.853   6.845 -0.7719 -0.5282  1.1027
  718MOL0     H99051  10.591   3.991   6.914  0.9863  0.7635  0.0998
  718MOL0     H99052  10.880   3.930   6.954  1.3831  2.5439 -0.1763
  718MOL0     H99053  10.794   4.038   7.071  2.4946 -1.0612  1.3291
  718MOL0     H99054  10.727   4.182   6.875  0.1477  0.3635 -0.5429
  718MOL0     H99055  10.820   4.064   6.771  2.2622 -0.6337  0.3269
  718MOL0     H99056  11.032   4.136   6.897  0.2156  0.6983  2.6523
  718MOL0     H99057  10.951   4.252   6.791 -0.5876  2.5502  1.3875
  718MOL0     H99058  10.912   4.265   7.092  1.8633  1.5927 -0.7742
  718MOL0     H99059  10.874   4.383   6.978  0.2982  1.2845  1.8999
  718MOL0     H99060  11.130   4.385   6.926  1.5216  0.9859  1.3473
  718MOL0     H99061  11.159   4.260   7.051  1.4127  1.1641  1.3977
  718MOL0     H99062  11.056   4.417   7.224 -2.2319 -2.7648 -1.1903
  718MOL0     H99063  11.057   4.526   7.085 -0.7576 -0.8307  0.8844
  718MOL0     H99064  10.492   4.002   7.365  1.4328 -0.0340 -0.7278
  718MOL0     H99065  10.258   4.090   7.410 -0.3566  1.5105 -0.7449
  718MOL0     H99066   9.824   4.039   7.360  1.8909  1.2080  0.0677
  718MOL0     H99067   9.588   4.078   7.404  4.0364 -3.6466 -1.4257
  718MOL0     H99068   8.510   4.279   8.240 -1.9150 -1.3182 -1.1960
  718MOL0     H99069   8.461   4.120   8.412  1.1342 -1.0294  1.3440
  718MOL0     H99070   8.310   3.602   8.436  0.0468 -0.0145  0.9622
  718MOL0     H99071   8.213   3.486   8.659 -1.9494  0.9741  3.0226
  718MOL0     H99072   8.051   3.752   8.840 -1.9502  1.0893  1.0186
  718MOL0     H99073   7.966   3.613   8.851 -1.0987  1.4802  0.2221
  718MOL0     H99074   8.053   3.558   9.081 -1.6721  0.6121  1.2988
  718MOL0     H99075   7.938   3.681   9.065  0.6716  2.4991 -3.3042
  718MOL0     H99076   8.249   3.728   9.107 -1.0846 -0.2669 -0.7570
  718MOL0     H99077   8.120   3.851   9.063  1.2333  1.3358 -0.7349
  718MOL0     H99078   8.116   3.676   9.303  2.9793 -0.2649  2.5677
  718MOL0     H99079   8.005   3.812   9.271  0.1302  1.4240 -5.3213
  718MOL0     H99080   8.287   4.036   9.468 -4.3422  1.4961  0.6903
  718MOL0     H99081   8.302   3.821   8.882  0.6771  0.9973 -0.0484
  718MOL0     H99082   8.404   4.025   8.642 -1.2378  2.3849  4.2437
  718MOL0     H99083   8.461   3.983   8.810  4.2301 -2.1289  0.4971
  718MOL0     H99084   8.557   3.939   8.672  0.6848  2.9045 -0.8753
  719MOL0     O99085   6.589   0.585   8.326 -0.0495  0.1537  0.3132
  719MOL0     C99086   6.583   0.633   8.212 -0.6135  0.3515 -0.5115
  719MOL0     O99087   6.472   0.694   8.169 -1.0517 -0.2562 -0.4636
  719MOL0     C99088   6.342   0.639   8.201  0.7684 -0.3862 -0.1002
  719MOL0     C99089   6.228   0.716   8.185 -0.9495 -0.1668 -0.1575
  719MOL0     C99090   6.102   0.666   8.229  0.3928  0.2192 -0.1783
  719MOL0     C99091   6.086   0.538   8.293  0.0923 -0.8587  0.0474
  719MOL0     O99092   5.964   0.510   8.352 -0.0051 -0.2957  0.1206
  719MOL0     C99093   5.965   0.400   8.441  0.1285  0.7049  0.3060
  719MOL0     C99094   5.829   0.395   8.504  0.0371  0.8003  0.8803
  719MOL0     C99095   5.811   0.497   8.609  0.0664 -0.3674  0.3320
  719MOL0     C99096   5.664   0.500   8.643  0.1323  0.6114 -0.1136
  719MOL0     C99097   5.641   0.589   8.753  0.6792 -0.2584  0.3912
  719MOL0     C99098   5.625   0.731   8.710 -0.4096 -0.5686 -0.3306
  719MOL0     C99099   5.615   0.818   8.835  0.4305  0.1426 -0.3122
  719MOL0     C99100   5.608   0.964   8.809 -0.4306 -0.6003  0.2666
  719MOL0     N99101   5.730   1.034   8.762  0.6665 -0.1727 -0.3138
  719MOL0     C99102   5.736   1.158   8.690 -0.5612 -0.0904 -0.6001
  719MOL0     C99103   5.857   1.215   8.705  0.4489  0.9167 -0.3307
  719MOL0     C99104   5.900   1.357   8.667  0.3065  0.2690 -1.1767
  719MOL0     C99105   5.941   1.365   8.523  0.5449  0.3283 -0.3152
  719MOL0     C99106   5.967   1.509   8.496 -0.2617 -0.2905  0.5449
  719MOL0     C99107   5.987   1.513   8.340  0.1947  0.8824 -0.3361
  719MOL0     O99108   6.026   1.643   8.304  0.2992 -0.1764 -0.0658
  719MOL0     C99109   6.050   1.658   8.171 -1.0617  0.2126  0.5720
  719MOL0     C99110   6.040   1.792   8.136  0.0392  0.3449 -0.4337
  719MOL0     C99111   6.050   1.833   8.001  0.4172  1.3413 -0.0680
  719MOL0     C99112   6.013   1.976   7.961 -0.0438 -0.7037 -0.0024
  719MOL0     C99113   6.076   1.736   7.898  0.2371  0.4079  0.1026
  719MOL0     C99114   6.103   1.753   7.752 -0.3003  0.3244 -0.2653
  719MOL0     O99115   6.111   1.890   7.723  0.4007  0.6755 -0.2855
  719MOL0     C99116   6.156   1.907   7.601  0.0737 -0.2045  0.5432
  719MOL0     C99117   6.290   1.955   7.595 -0.2566  1.4892 -0.5074
  719MOL0     C99118   6.356   1.971   7.481 -0.6231 -0.4550 -0.5387
  719MOL0     C99119   6.292   1.938   7.359 -0.8804  0.4621 -0.2074
  719MOL0     O99120   6.358   1.962   7.238 -0.2306 -0.2797  0.0110
  719MOL0     C99121   6.487   1.906   7.215  0.4501  0.8326 -0.6888
  719MOL0     C99122   6.586   2.014   7.192  0.6435 -0.0486  0.1217
  719MOL0     C99123   6.538   2.082   7.061  0.9026  0.4737 -0.3835
  719MOL0     C99124   6.641   2.160   7.002  0.2195 -0.3932  0.2184
  719MOL0     C99125   6.752   2.081   6.931  0.9109 -1.2225 -0.5061
  719MOL0     C99126   6.859   2.183   6.885  1.2683  0.0750  0.0188
  719MOL0     C99127   6.992   2.118   6.862  1.3209  0.7737  0.3373
  719MOL0     C99128   7.097   2.219   6.854 -0.7254  0.4075  0.9569
  719MOL0    Cl99129   7.252   2.153   6.792 -0.1054 -0.1575 -0.2690
  719MOL0     C99130   6.157   1.890   7.359 -0.0513 -0.4293 -0.0769
  719MOL0     C99131   6.090   1.879   7.481 -0.1246 -0.9659 -0.8852
  719MOL0     O99132   6.130   1.658   7.678  0.2984  0.8890  0.4492
  719MOL0     C99133   6.080   1.603   7.943 -0.7580  1.1348  1.0504
  719MOL0     C99134   6.075   1.559   8.075  0.5755 -2.0961 -0.0796
  719MOL0     N99135   5.937   1.121   8.775  0.9231  0.8999  0.3077
  719MOL0     N99136   5.861   1.007   8.791 -0.1991 -0.6822  0.3614
  719MOL0     C99137   6.201   0.466   8.306 -0.0242 -0.2779 -0.4227
  719MOL0     C99138   6.319   0.501   8.248 -0.3657 -1.3683  0.0398
  719MOL0     C99139   6.713   0.657   8.156 -0.4250  0.8497 -0.1043
  719MOL0     C99140   6.726   0.735   8.041  0.5670 -0.1293 -0.5518
  719MOL0     C99141   6.843   0.786   7.991  0.6252  0.0550  0.3279
  719MOL0     C99142   6.967   0.746   8.041 -0.2502 -0.1182  0.0429
  719MOL0     O99143   7.080   0.819   7.996  0.3674 -0.0039 -0.2133
  719MOL0     C99144   7.219   0.771   8.030  0.6701  0.4343 -0.3446
  719MOL0     C99145   7.256   0.842   8.161 -0.8748  0.1542  0.1741
  719MOL0     C99146   7.411   0.814   8.193 -0.2200  0.4874  0.8559
  719MOL0     C99147   7.512   0.908   8.139  0.2885  0.3799  0.0329
  719MOL0     C99148   7.632   0.877   8.212  0.4785  0.1892 -0.1006
  719MOL0     C99149   7.725   0.829   8.276  0.4113  0.0635 -1.5760
  719MOL0     C99150   6.959   0.657   8.152 -0.5678 -0.4816 -0.4420
  719MOL0     C99151   6.839   0.607   8.208  0.1459 -0.1449 -0.0192
  719MOL0     C99152   6.869   0.527   8.333  0.1724  0.5606 -0.3624
  719MOL0     H99153   6.247   0.817   8.152  0.8728 -0.5154 -0.3149
  719MOL0     H99154   6.021   0.738   8.222 -0.0355 -0.1835  0.4931
  719MOL0     H99155   6.042   0.410   8.519  1.3710 -2.9502 -0.2436
  719MOL0     H99156   5.994   0.314   8.380  0.3194  0.9867 -0.0095
  719MOL0     H99157   5.758   0.396   8.420  1.9883  2.8910 -0.9059
  719MOL0     H99158   5.819   0.298   8.552 -0.1198  1.3801  2.0620
  719MOL0     H99159   5.869   0.457   8.693  1.3818 -0.8438 -0.7766
  719MOL0     H99160   5.848   0.594   8.575  0.6237 -0.5396  0.4331
  719MOL0     H99161   5.598   0.533   8.562 -1.9605  0.8638  1.6088
  719MOL0     H99162   5.655   0.396   8.675  2.0260  0.6214  0.5665
  719MOL0     H99163   5.729   0.584   8.817  1.0408 -1.1937 -0.1608
  719MOL0     H99164   5.551   0.552   8.803  0.4721 -1.9341 -1.1144
  719MOL0     H99165   5.715   0.762   8.658 -0.7396 -0.1191 -0.6374
  719MOL0     H99166   5.533   0.753   8.654  0.3233 -1.0941 -1.7880
  719MOL0     H99167   5.701   0.793   8.898 -0.2136  0.9600  0.9343
  719MOL0     H99168   5.525   0.788   8.889 -0.7411  2.1139 -1.0429
  719MOL0     H99169   5.522   0.978   8.742 -1.1450 -2.5809  0.6877
  719MOL0     H99170   5.573   1.000   8.906 -3.3953  1.3403 -1.3648
  719MOL0     H99171   5.652   1.215   8.652 -0.0573  0.6931 -0.5466
  719MOL0     H99172   5.986   1.376   8.731 -0.5634  0.7138 -0.0982
  719MOL0     H99173   5.818   1.428   8.687 -0.9471 -1.6324  0.9628
  719MOL0     H99174   6.026   1.297   8.509 -1.4006 -2.4200  0.4739
  719MOL0     H99175   5.860   1.339   8.455 -2.3768  5.0374  0.8887
  719MOL0     H99176   5.879   1.570   8.516  0.1716  1.0810 -1.4564
  719MOL0     H99177   6.048   1.529   8.567 -1.0234 -1.4004  1.7890
  719MOL0     H99178   6.059   1.433   8.316  0.2357  1.1804 -1.2632
  719MOL0     H99179   5.890   1.488   8.296  0.3405  0.0634 -0.2119
  719MOL0     H99180   6.010   1.864   8.211 -0.2191 -0.9431  0.7390
  719MOL0     H99181   6.005   2.030   8.055 -1.2114  1.5261 -1.2997
  719MOL0     H99182   5.922   1.987   7.901  0.9474  1.8651 -1.1818
  719MOL0     H99183   6.087   2.040   7.913 -1.9533  1.6937  0.0935
  719MOL0     H99184   6.342   1.969   7.689  0.3342 -1.5194 -0.2902
  719MOL0     H99185   6.461   1.996   7.494 -0.1202 -3.0410  1.2615
  719MOL0     H99186   6.525   1.862   7.307  2.9449  2.3456 -0.9185
  719MOL0     H99187   6.477   1.824   7.142  1.1316 -3.3300  3.4364
  719MOL0     H99188   6.589   2.078   7.280  1.2303 -0.8721  0.7143
  719MOL0     H99189   6.686   1.972   7.176  0.4983 -2.3474  4.0807
  719MOL0     H99190   6.449   2.143   7.080  0.0559 -0.4882 -1.1631
  719MOL0     H99191   6.507   2.004   6.991 -0.1757  0.7239 -0.2014
  719MOL0     H99192   6.682   2.222   7.082  1.5111 -1.5196  0.4625
  719MOL0     H99193   6.602   2.236   6.934 -2.4604  0.2283  2.2414
  719MOL0     H99194   6.800   2.002   6.990 -0.1166 -1.5692 -0.1111
  719MOL0     H99195   6.703   2.028   6.850 -0.1422 -1.4070  0.2329
  719MOL0     H99196   6.866   2.262   6.961 -2.2190 -1.0357  1.6919
  719MOL0     H99197   6.825   2.239   6.797 -0.1534  3.1554  2.3400
  719MOL0     H99198   6.969   2.065   6.769 -1.2265  1.8222  0.3115
  719MOL0     H99199   7.023   2.043   6.936  1.7338 -1.3500 -1.8268
  719MOL0     H99200   7.116   2.261   6.953  2.2543 -0.5369  0.9103
  719MOL0     H99201   7.064   2.296   6.783 -1.3119  0.5744  1.4088
  719MOL0     H99202   6.108   1.867   7.265 -4.1732 -0.8278  1.9391
  719MOL0     H99203   5.989   1.839   7.485  0.1385 -1.5673  2.1129
  719MOL0     H99204   6.102   1.525   7.871 -0.3668 -1.1781  3.4951
  719MOL0     H99205   6.086   1.457   8.111 -1.4433 -1.3635  3.0886
  719MOL0     H99206   6.211   0.370   8.355  0.2043  0.5933  1.3235
  719MOL0     H99207   6.398   0.429   8.268  0.5023 -1.0212 -1.8996
  719MOL0     H99208   6.633   0.775   8.000 -0.6285 -2.0045  0.2387
  719MOL0     H99209   6.839   0.858   7.909 -1.1793 -0.4349 -0.0610
  719MOL0     H99210   7.236   0.664   8.048  2.8885  1.1782  2.7383
  719MOL0     H99211   7.289   0.800   7.951  0.0423  2.7397 -0.1109
  719MOL0     H99212   7.197   0.813   8.248 -2.1201  0.7599 -0.4402
  719MOL0     H99213   7.242   0.950   8.147 -2.5412  0.2115  1.8821
  719MOL0     H99214   7.409   0.815   8.302  2.1381 -2.0148  1.0455
  719MOL0     H99215   7.431   0.713   8.156 -0.0310  0.4993  0.9236
  719MOL0     H99216   7.489   1.015   8.149 -0.2710  0.4465 -1.7424
  719MOL0     H99217   7.533   0.885   8.035  0.2438 -1.9711  0.4912
  719MOL0     H99218   7.799   0.771   8.328  0.2218 -1.3118 -2.7648
  719MOL0     H99219   7.059   0.629   8.183 -0.1388 -0.4328 -1.7268
  719MOL0     H99220   6.806   0.438   8.337 -2.8541  2.3514 -2.9852
  719MOL0     H99221   6.975   0.500   8.331  0.0973  0.1371 -3.0898
  719MOL0     H99222   6.855   0.595   8.418  1.8796 -0.7926  1.1030
  720MOL0     O99223   7.174   2.158  10.943 -1.0549  0.4562  0.3134
  720MOL0     C99224   7.145   2.268  10.974  0.8467  0.7151 -0.2966
  720MOL0     O99225   7.233   2.368  11.007  0.4037 -0.5996 -0.9927
  720MOL0     C99226   7.364   2.366  10.975 -0.0669 -0.2371 -0.0212
  720MOL0     C99227   7.424   2.298  10.875 -0.2534  0.0913  0.8684
  720MOL0     C99228   7.559   2.321  10.843 -0.6632  0.6495 -0.2671
  720MOL0     C99229   7.641   2.378  10.940  0.0400  1.2899  0.3798
  720MOL0     O99230   7.772   2.360  10.900 -0.8097 -0.2168  0.1503
  720MOL0     C99231   7.865   2.315  10.992  0.1810  0.0508  0.7951
  720MOL0     C99232   7.927   2.438  11.069 -0.0019 -0.1712  0.0478
  720MOL0     C99233   8.004   2.530  10.971 -0.2380  0.2774  0.0014
  720MOL0     C99234   8.030   2.675  11.019 -0.7524  0.3328 -0.0262
  720MOL0     C99235   8.134   2.745  10.937 -0.3779  0.5207 -0.2669
  720MOL0     C99236   8.102   2.891  10.937 -0.2082 -0.9277 -0.3571
  720MOL0     C99237   8.210   2.971  10.860  0.6698 -0.3593  0.1445
  720MOL0     C99238   8.189   3.114  10.892 -1.1334 -0.0014  0.8753
  720MOL0     N99239   8.258   3.144  11.019 -0.5403  0.5390 -0.0254
  720MOL0     C99240   8.396   3.133  11.045  1.3908  0.4343 -0.2394
  720MOL0     C99241   8.402   3.154  11.177  0.9975  0.0023 -0.0210
  720MOL0     C99242   8.534   3.149  11.258  0.6202 -0.0636 -0.2010
  720MOL0     C99243   8.511   3.226  11.386  0.6811 -0.2134  0.4771
  720MOL0     C99244   8.653   3.250  11.444  0.4675  0.2954 -1.3761
  720MOL0     C99245   8.635   3.328  11.579 -0.4193 -0.1547 -0.5778
  720MOL0     O99246   8.588   3.235  11.682 -0.1928  0.2204 -0.2230
  720MOL0     C99247   8.612   3.267  11.816 -0.4111 -0.4731  0.9563
  720MOL0     C99248   8.739   3.286  11.861  0.6208  0.2752  0.7597
  720MOL0     C99249   8.764   3.313  11.996 -0.7902 -0.2059  0.0816
  720MOL0     C99250   8.911   3.335  12.041 -0.2369 -1.1379  0.5422
  720MOL0     C99251   8.656   3.320  12.088 -0.7937 -0.8152  0.9350
  720MOL0     C99252   8.658   3.368  12.230  0.0697 -0.0996 -0.4150
  720MOL0     O99253   8.563   3.323  12.322 -0.4955  0.6162  0.3702
  720MOL0     C99254   8.520   3.195  12.313  0.1294 -0.8688  1.1873
  720MOL0     C99255   8.397   3.175  12.370  0.5086 -0.1612 -0.2014
  720MOL0     C99256   8.336   3.037  12.384 -0.5701 -1.2671  0.0841
  720MOL0     C99257   8.399   2.930  12.327  0.3942  0.5008 -0.0328
  720MOL0     O99258   8.346   2.803  12.340 -0.3168  0.5451  0.1162
  720MOL0     C99259   8.211   2.769  12.300  0.2250 -0.3803  0.0564
  720MOL0     C99260   8.149   2.865  12.190 -0.2987  0.2111  0.4410
  720MOL0     C99261   8.225   2.871  12.052  0.6584  0.1855 -0.5073
  720MOL0     C99262   8.144   2.911  11.924 -0.4892 -0.6589  0.6505
  720MOL0     C99263   8.070   3.043  11.926  0.3168 -0.2258 -0.2521
  720MOL0     C99264   8.001   3.060  11.780  0.0745 -0.5988  0.7305
  720MOL0     C99265   7.880   2.967  11.752 -0.1616  0.0056 -0.2518
  720MOL0     C99266   7.773   3.042  11.679  0.2796 -0.8503 -0.0620
  720MOL0    Cl99267   7.630   2.952  11.640  0.1747  0.0090 -0.0341
  720MOL0     C99268   8.516   2.956  12.264 -0.1865  0.2648 -0.7191
  720MOL0     C99269   8.579   3.076  12.256 -0.0177 -0.2029  0.0733
  720MOL0     O99270   8.735   3.461  12.257  0.1255 -0.2530  0.1038
  720MOL0     C99271   8.528   3.314  12.032  0.2814 -0.3370  0.4580
  720MOL0     C99272   8.507   3.273  11.900 -0.6795  0.5454 -0.5007
  720MOL0     N99273   8.271   3.185  11.224 -0.1283 -0.1782 -0.3939
  720MOL0     N99274   8.182   3.177  11.130  0.2369  0.2733 -0.1106
  720MOL0     C99275   7.588   2.435  11.053  0.0745  0.0540  0.7002
  720MOL0     C99276   7.446   2.439  11.065 -0.0041 -0.1872 -0.4832
  720MOL0     C99277   7.005   2.308  10.966  0.0870  0.2761 -0.7868
  720MOL0     C99278   6.968   2.422  10.886 -0.3938 -0.8729  0.3161
  720MOL0     C99279   6.840   2.460  10.877  0.9565 -0.7932  0.5918
  720MOL0     C99280   6.734   2.391  10.936 -0.5317 -0.5954  0.1573
  720MOL0     O99281   6.608   2.443  10.916  0.2363 -0.3487  0.5361
  720MOL0     C99282   6.543   2.412  10.795  0.2220 -0.8260 -0.1499
  720MOL0     C99283   6.462   2.527  10.745  1.1103 -0.3092 -0.0213
  720MOL0     C99284   6.354   2.580  10.843  1.1936 -0.4664  0.8726
  720MOL0     C99285   6.243   2.481  10.869 -0.0466  0.1272  0.4163
  720MOL0     C99286   6.168   2.460  10.739 -0.4096 -0.2857  0.7891
  720MOL0     C99287   6.123   2.441  10.621  0.0490  0.5093  0.0664
  720MOL0     C99288   6.761   2.276  11.013  0.2057  0.1833 -0.1772
  720MOL0     C99289   6.894   2.233  11.021  0.0528 -0.0835  0.0263
  720MOL0     C99290   6.918   2.105  11.103  0.6835 -0.6838  0.6813
  720MOL0     H99291   7.359   2.238  10.812 -1.3545 -1.7930  3.6083
  720MOL0     H99292   7.599   2.290  10.747  1.4720 -0.5439  0.9352
  720MOL0     H99293   7.951   2.266  10.946  0.0647  2.8935 -2.9699
  720MOL0     H99294   7.826   2.244  11.065 -1.5378 -1.7476 -1.7045
  720MOL0     H99295   7.852   2.501  11.118  0.8754  0.2798  0.8443
  720MOL0     H99296   7.992   2.404  11.150 -0.4680  3.0736  1.9678
  720MOL0     H99297   8.098   2.475  10.965  0.8159  1.9559  0.3404
  720MOL0     H99298   7.953   2.523  10.875 -0.7893  2.1940  0.1115
  720MOL0     H99299   7.935   2.730  11.024  0.0735  1.6742  1.8571
  720MOL0     H99300   8.069   2.671  11.121  1.3426  1.1429 -0.7491
  720MOL0     H99301   8.140   2.701  10.837  1.7878 -0.1127  0.0912
  720MOL0     H99302   8.227   2.729  10.993 -1.7406 -0.8355  1.7045
  720MOL0     H99303   7.998   2.920  10.919 -0.2432 -1.7154 -1.5141
  720MOL0     H99304   8.117   2.915  11.042 -1.1339 -0.1562 -0.3830
  720MOL0     H99305   8.186   2.954  10.754  2.2436  1.4197 -0.5443
  720MOL0     H99306   8.310   2.933  10.884 -0.7886 -2.6454  3.3464
  720MOL0     H99307   8.234   3.168  10.808  0.2587 -1.9513  0.3029
  720MOL0     H99308   8.087   3.151  10.901 -0.3606  2.9156 -0.8699
  720MOL0     H99309   8.476   3.104  10.977 -0.5411 -0.3588 -2.2876
  720MOL0     H99310   8.615   3.182  11.193  3.3082 -2.7418  1.5497
  720MOL0     H99311   8.554   3.044  11.281  1.5442  0.5204  1.9524
  720MOL0     H99312   8.454   3.314  11.356 -4.5791 -2.4457  2.7591
  720MOL0     H99313   8.448   3.165  11.451  0.2085  3.7960  4.2044
  720MOL0     H99314   8.709   3.156  11.444  0.2264  0.1521 -1.1251
  720MOL0     H99315   8.701   3.313  11.369 -1.3797 -1.2027 -3.9522
  720MOL0     H99316   8.735   3.365  11.601 -0.5338 -0.2910  0.1744
  720MOL0     H99317   8.577   3.421  11.573  0.4916  0.5399  0.8202
  720MOL0     H99318   8.823   3.270  11.794 -0.4036 -1.1097 -0.2550
  720MOL0     H99319   8.962   3.239  12.051  0.7243 -0.6287  0.7007
  720MOL0     H99320   8.926   3.399  12.128  1.6823  3.5141 -2.7775
  720MOL0     H99321   8.965   3.392  11.964 -0.6283 -1.1143  0.2835
  720MOL0     H99322   8.335   3.240  12.432 -2.7974 -3.2794  0.1129
  720MOL0     H99323   8.247   3.022  12.445  0.7288 -2.8017  1.7017
  720MOL0     H99324   8.211   2.667  12.262  3.0686  0.0548 -1.3798
  720MOL0     H99325   8.158   2.773  12.395  2.4349 -1.9318  1.4524
  720MOL0     H99326   8.045   2.836  12.170 -0.3691  0.5738  0.2731
  720MOL0     H99327   8.146   2.967  12.229  0.1441  1.5008 -2.5874
  720MOL0     H99328   8.277   2.779  12.026  2.0677  0.5900  0.7575
  720MOL0     H99329   8.299   2.950  12.062  2.3845 -1.5179  0.6591
  720MOL0     H99330   8.075   2.829  11.899  1.6248 -1.9710 -1.3215
  720MOL0     H99331   8.219   2.921  11.844 -1.1743  1.0426  0.1835
  720MOL0     H99332   7.994   3.043  12.005 -0.9082 -0.2016 -1.3957
  720MOL0     H99333   8.138   3.124  11.954  0.9898 -0.8425 -0.0908
  720MOL0     H99334   8.054   3.051  11.685 -3.0523  1.8253 -1.4852
  720MOL0     H99335   7.965   3.162  11.770 -2.3437 -1.3879  0.6778
  720MOL0     H99336   7.835   2.943  11.849 -0.8874  0.3026 -0.5064
  720MOL0     H99337   7.901   2.873  11.699  0.3550  0.1783 -0.3600
  720MOL0     H99338   7.806   3.090  11.587 -1.9366 -2.0413 -1.5576
  720MOL0     H99339   7.735   3.124  11.741 -0.5735 -2.1758  1.2319
  720MOL0     H99340   8.581   2.879  12.225  4.4363  2.5376  1.6903
  720MOL0     H99341   8.674   3.075  12.203 -0.8130 -0.0593 -1.3901
  720MOL0     H99342   8.438   3.340  12.087  1.5241 -0.6324  2.7931
  720MOL0     H99343   8.406   3.259  11.862 -0.8020 -1.1103  0.3363
  720MOL0     H99344   7.645   2.478  11.135  1.9514 -2.1127  0.6065
  720MOL0     H99345   7.397   2.488  11.148 -0.9838  0.0683 -1.1950
  720MOL0     H99346   7.032   2.498  10.842 -0.9968 -0.1030  0.7592
  720MOL0     H99347   6.814   2.539  10.807  0.5734  0.3591  1.9605
  720MOL0     H99348   6.624   2.406  10.721  1.6237  1.7397  1.0262
  720MOL0     H99349   6.486   2.320  10.808 -1.0808  0.1963  1.7480
  720MOL0     H99350   6.411   2.499  10.652 -3.3886  1.4413  1.6422
  720MOL0     H99351   6.534   2.605  10.719  0.0057  0.7809  0.0960
  720MOL0     H99352   6.402   2.592  10.940  3.2075  1.7068 -0.3007
  720MOL0     H99353   6.311   2.672  10.803  0.5586 -0.8002  0.7671
  720MOL0     H99354   6.170   2.531  10.933  0.2585  0.8567  0.2010
  720MOL0     H99355   6.274   2.387  10.915  1.7371  1.1258  1.3523
  720MOL0     H99356   6.102   2.405  10.522 -0.2954 -1.3896  0.7994
  720MOL0     H99357   6.690   2.223  11.076 -0.7866  0.9376 -0.6381
  720MOL0     H99358   7.003   2.122  11.170 -0.8256 -0.4822  2.6042
  720MOL0     H99359   6.833   2.084  11.169 -0.1839  1.3730  0.2965
  720MOL0     H99360   6.933   2.017  11.040 -0.8449  1.0612 -2.3744
  721MOL0     O99361   4.111   3.284   5.741 -0.5603 -0.5889 -0.2622
  721MOL0     C99362   4.108   3.403   5.702  0.0645 -0.6176 -0.1677
  721MOL0     O99363   4.139   3.513   5.776 -0.1518  0.2654  0.0803
  721MOL0     C99364   4.180   3.496   5.903  0.0650  0.0333  0.2572
  721MOL0     C99365   4.088   3.454   6.000 -0.5536 -0.3803  0.0245
  721MOL0     C99366   4.125   3.468   6.140  0.8216 -0.1789 -0.4335
  721MOL0     C99367   4.249   3.509   6.181 -0.0421 -0.5852 -0.5703
  721MOL0     O99368   4.294   3.516   6.312 -0.6701 -0.2124  0.0156
  721MOL0     C99369   4.197   3.517   6.417 -0.2467 -0.5915 -1.0413
  721MOL0     C99370   4.273   3.569   6.544  0.4771 -0.2443 -0.1318
  721MOL0     C99371   4.194   3.522   6.679  0.2794  1.0135  0.3884
  721MOL0     C99372   4.259   3.587   6.797 -0.3032  0.2269  0.1308
  721MOL0     C99373   4.201   3.573   6.936 -0.6028  0.0761 -0.2786
  721MOL0     C99374   4.171   3.427   6.973 -0.0062 -0.4770 -0.3888
  721MOL0     C99375   4.139   3.439   7.121 -0.2542  0.5114 -0.1063
  721MOL0     C99376   4.164   3.299   7.178 -0.2244 -1.2686  0.3923
  721MOL0     N99377   4.055   3.208   7.151  0.5584  0.5383  0.8199
  721MOL0     C99378   4.033   3.138   7.035  1.3906 -0.8080  0.2348
  721MOL0     C99379   3.902   3.116   7.029  0.6477  0.0865 -0.1274
  721MOL0     C99380   3.830   3.057   6.903  0.2702  0.6553 -0.5629
  721MOL0     C99381   3.878   3.138   6.776  0.2316 -0.4549  0.1243
  721MOL0     C99382   3.809   3.072   6.659  0.7556 -0.4958 -1.0968
  721MOL0     C99383   3.854   3.111   6.520 -1.0338  1.0889 -0.9390
  721MOL0     O99384   3.844   3.254   6.494 -0.7988 -0.5490 -0.3683
  721MOL0     C99385   3.801   3.299   6.373 -0.2855  0.2226  0.0857
  721MOL0     C99386   3.790   3.442   6.361  0.1134  0.1524  0.6908
  721MOL0     C99387   3.740   3.491   6.242  0.0508 -0.5471 -1.0309
  721MOL0     C99388   3.745   3.643   6.227 -0.0730  0.2546 -0.5846
  721MOL0     C99389   3.718   3.405   6.124 -0.2539 -0.9098 -0.1507
  721MOL0     C99390   3.702   3.467   5.983 -0.2965 -0.3141  0.3656
  721MOL0     O99391   3.696   3.603   5.966  0.1488 -0.5985 -0.4344
  721MOL0     C99392   3.655   3.673   5.852  0.4641 -0.4131  0.0532
  721MOL0     C99393   3.573   3.618   5.748  0.3249  0.2163 -0.4602
  721MOL0     C99394   3.551   3.691   5.628 -0.0756  0.3681 -0.0543
  721MOL0     C99395   3.607   3.819   5.616  0.3871  0.0549 -0.8218
  721MOL0     O99396   3.579   3.883   5.494 -0.1230  0.6308  0.1366
  721MOL0     C99397   3.553   4.026   5.489 -0.9572  0.2137 -0.4032
  721MOL0     C99398   3.538   4.064   5.343 -0.4870  0.1419 -0.6368
  721MOL0     C99399   3.411   4.003   5.287 -0.5134  0.9573  0.2753
  721MOL0     C99400   3.397   4.027   5.130 -0.5410  0.1024 -0.4577
  721MOL0     C99401   3.259   3.985   5.071  0.2981 -0.0738  0.6116
  721MOL0     C99402   3.258   3.863   4.987 -1.1027  1.0575  0.3000
  721MOL0     C99403   3.116   3.832   4.939 -0.0138  0.0803 -0.8424
  721MOL0     C99404   3.105   3.696   4.879  0.8572  0.3123  0.2858
  721MOL0    Cl99405   2.931   3.688   4.819 -0.4755  0.2677 -0.0138
  721MOL0     C99406   3.694   3.861   5.717 -0.7373 -0.6160  0.1390
  721MOL0     C99407   3.709   3.800   5.834  0.1556 -0.0216  0.7081
  721MOL0     O99408   3.719   3.389   5.884  0.1345 -0.5100 -0.4761
  721MOL0     C99409   3.731   3.267   6.145  0.3648  0.0578 -0.2977
  721MOL0     C99410   3.768   3.217   6.261 -0.1297  0.0650  0.1497
  721MOL0     N99411   3.846   3.147   7.157 -0.1217 -0.1809 -0.9220
  721MOL0     N99412   3.941   3.192   7.222  0.3976  0.1025 -0.3672
  721MOL0     C99413   4.336   3.540   6.088  0.4815  0.3089  0.3399
  721MOL0     C99414   4.306   3.537   5.957  0.0383  0.3184 -0.3528
  721MOL0     C99415   4.050   3.438   5.574  0.4505 -0.4342 -0.0757
  721MOL0     C99416   3.915   3.490   5.584  0.4050 -0.7741 -0.3677
  721MOL0     C99417   3.828   3.510   5.471 -0.2355  1.0391  0.5110
  721MOL0     C99418   3.895   3.505   5.344 -0.5490 -0.2061 -0.1880
  721MOL0     O99419   3.825   3.544   5.236 -0.1755 -0.1434 -0.6329
  721MOL0     C99420   3.868   3.671   5.194 -0.2102  0.4169 -0.1147
  721MOL0     C99421   3.751   3.747   5.132  0.4086  0.0429 -0.4302
  721MOL0     C99422   3.662   3.685   5.023  0.0868  0.1137  0.0428
  721MOL0     C99423   3.560   3.588   5.085  0.0659 -0.0882 -0.5559
  721MOL0     C99424   3.484   3.536   4.973 -0.1596 -1.0857 -0.1738
  721MOL0     C99425   3.425   3.481   4.881  0.2164  0.1389  0.0873
  721MOL0     C99426   4.036   3.468   5.337  0.2594 -0.5184 -0.3583
  721MOL0     C99427   4.111   3.429   5.454 -0.1936  0.1312  0.5920
  721MOL0     C99428   4.256   3.380   5.440  0.0726 -1.1164 -0.0241
  721MOL0     H99429   3.993   3.419   5.962 -0.7386 -1.0735  1.0825
  721MOL0     H99430   4.044   3.454   6.210 -0.4714  1.8211 -1.4417
  721MOL0     H99431   4.162   3.415   6.436  1.0731 -0.7817  0.5933
  721MOL0     H99432   4.110   3.581   6.400  0.9748  1.6483  0.6699
  721MOL0     H99433   4.376   3.532   6.549  0.8371  0.7170 -0.0497
  721MOL0     H99434   4.275   3.678   6.533  4.1413 -0.2824 -1.4150
  721MOL0     H99435   4.087   3.542   6.673 -0.4901 -2.7239 -2.8371
  721MOL0     H99436   4.196   3.413   6.688  1.7279  0.5679 -3.4293
  721MOL0     H99437   4.349   3.525   6.804 -2.0208 -2.3717  0.6389
  721MOL0     H99438   4.293   3.690   6.777  3.2265 -0.8398 -0.0740
  721MOL0     H99439   4.110   3.634   6.942 -0.1909  0.7000 -0.3387
  721MOL0     H99440   4.272   3.618   7.006  1.7025 -0.9184 -1.8617
  721MOL0     H99441   4.092   3.383   6.911  0.8831 -0.0265 -1.8867
  721MOL0     H99442   4.255   3.359   6.960 -0.3554 -0.7661 -1.1603
  721MOL0     H99443   4.036   3.469   7.143 -2.3449 -4.1938 -2.2603
  721MOL0     H99444   4.209   3.509   7.167  2.3644 -0.8199 -1.8082
  721MOL0     H99445   4.260   3.258   7.145  1.3965  2.3009  0.2176
  721MOL0     H99446   4.158   3.307   7.287  0.8655  1.5610  0.3363
  721MOL0     H99447   4.095   3.145   6.946 -1.1695 -0.9753 -1.6463
  721MOL0     H99448   3.721   3.060   6.908  0.2484  1.0316 -1.1349
  721MOL0     H99449   3.847   2.949   6.913 -0.6342  0.6461  1.4667
  721MOL0     H99450   3.847   3.242   6.788 -3.6186 -1.4142 -0.1305
  721MOL0     H99451   3.987   3.132   6.771  0.3230 -1.0433  2.1044
  721MOL0     H99452   3.819   2.964   6.673  0.8559 -0.3506 -0.0161
  721MOL0     H99453   3.704   3.095   6.676  0.1371 -4.0013  0.7455
  721MOL0     H99454   3.957   3.075   6.517 -0.0715  3.6491 -1.4916
  721MOL0     H99455   3.801   3.051   6.445  0.9542  0.4787 -1.9278
  721MOL0     H99456   3.804   3.505   6.448 -2.6614  1.5103  0.2507
  721MOL0     H99457   3.769   3.697   6.319 -4.7406  1.3408  0.2311
  721MOL0     H99458   3.644   3.678   6.205 -0.7149  0.0405  1.7384
  721MOL0     H99459   3.815   3.678   6.150 -1.6840  3.3104 -0.8060
  721MOL0     H99460   3.538   3.515   5.745  2.5120 -0.5956  0.0472
  721MOL0     H99461   3.481   3.644   5.559 -1.6511 -1.6208  2.7127
  721MOL0     H99462   3.456   4.052   5.533 -2.1404  1.8046 -3.6506
  721MOL0     H99463   3.635   4.084   5.531  0.9471 -2.0846 -0.7534
  721MOL0     H99464   3.524   4.172   5.352 -4.5326 -0.0915 -2.2484
  721MOL0     H99465   3.621   4.031   5.279 -1.0506 -2.7928 -0.0208
  721MOL0     H99466   3.326   4.050   5.337 -0.4270  0.2040  1.1692
  721MOL0     H99467   3.414   3.896   5.309  1.2364  0.7786 -0.6491
  721MOL0     H99468   3.472   3.970   5.075 -0.7816  1.1352 -1.9176
  721MOL0     H99469   3.405   4.134   5.110  1.6745  0.4077  1.6595
  721MOL0     H99470   3.188   3.978   5.154 -0.4984  1.3690  0.0847
  721MOL0     H99471   3.214   4.059   5.004 -2.2510 -1.6251  0.4876
  721MOL0     H99472   3.297   3.787   5.056 -1.1440  1.6990  1.0325
  721MOL0     H99473   3.331   3.871   4.905 -1.6158  0.5949 -0.2153
  721MOL0     H99474   3.075   3.913   4.877 -2.0498 -0.3248 -0.1039
  721MOL0     H99475   3.048   3.828   5.025  0.7812 -1.0216 -0.2472
  721MOL0     H99476   3.118   3.612   4.949  0.6220  1.0849  1.2806
  721MOL0     H99477   3.165   3.674   4.791 -0.4016 -0.8846 -0.3091
  721MOL0     H99478   3.740   3.959   5.703  0.3206 -1.1615 -0.2346
  721MOL0     H99479   3.768   3.848   5.911  1.1214 -0.0312 -0.0005
  721MOL0     H99480   3.726   3.192   6.067 -2.3466 -0.5831  0.4109
  721MOL0     H99481   3.790   3.111   6.252  0.5487  0.2991 -1.1619
  721MOL0     H99482   4.434   3.581   6.109 -0.6250  3.4983 -0.1984
  721MOL0     H99483   4.373   3.580   5.883  2.0863  1.3206  1.9304
  721MOL0     H99484   3.876   3.496   5.685  2.6940  0.9998  0.4963
  721MOL0     H99485   3.721   3.519   5.482 -0.2767 -0.2124  1.3573
  721MOL0     H99486   3.909   3.718   5.284  1.7480 -1.4114  0.0235
  721MOL0     H99487   3.952   3.668   5.125 -0.7867 -3.4994 -0.8758
  721MOL0     H99488   3.788   3.846   5.106  0.7793  0.4813  1.6130
  721MOL0     H99489   3.679   3.764   5.212  3.2545  0.3786  2.2452
  721MOL0     H99490   3.604   3.769   4.986  1.1377  0.5007 -0.7471
  721MOL0     H99491   3.725   3.640   4.946  0.2703  1.3928 -0.5639
  721MOL0     H99492   3.492   3.647   5.146 -0.9748 -2.1347  0.3691
  721MOL0     H99493   3.610   3.511   5.145  2.5575  0.0235 -2.3351
  721MOL0     H99494   3.368   3.447   4.796 -3.3809  0.8168  2.0097
  721MOL0     H99495   4.081   3.460   5.239 -0.5660 -2.3187 -0.6175
  721MOL0     H99496   4.258   3.273   5.417 -0.3022 -0.6562 -2.4519
  721MOL0     H99497   4.302   3.428   5.354  1.7557  0.5530  1.7212
  721MOL0     H99498   4.317   3.400   5.529 -0.7871 -0.2784  0.3937
  722MOL0     O99499   7.969  10.042  11.420 -0.3488  0.2616  0.0991
  722MOL0     C99500   7.850  10.042  11.381 -0.4002 -0.1630  0.4416
  722MOL0     O99501   7.807   9.998  11.259  0.3812  0.1598  0.7300
  722MOL0     C99502   7.899   9.968  11.160 -0.5255 -0.8793 -0.0476
  722MOL0     C99503   7.950   9.840  11.141  1.0589 -0.2766 -0.2458
  722MOL0     C99504   8.044   9.809  11.042  0.1362  0.2462  0.3778
  722MOL0     C99505   8.067   9.905  10.933  1.1688  0.4635 -0.3725
  722MOL0     O99506   8.151   9.879  10.822 -0.0334 -0.2721 -0.4533
  722MOL0     C99507   8.184   9.737  10.788  0.2648  0.4233 -0.8996
  722MOL0     C99508   8.280   9.736  10.665 -0.0127  0.2968  0.0479
  722MOL0     C99509   8.200   9.781  10.534  0.4394 -0.4308 -0.5282
  722MOL0     C99510   8.167   9.933  10.515 -0.7356  0.0608 -0.6238
  722MOL0     C99511   8.071   9.962  10.396  0.3023  0.7549  0.7848
  722MOL0     C99512   8.113   9.923  10.255  0.5473 -0.3322 -0.5505
  722MOL0     C99513   8.028   9.822  10.197  0.0672  0.4884 -0.1165
  722MOL0     C99514   7.891   9.870  10.138 -0.2519 -0.0716 -0.0645
  722MOL0     N99515   7.916   9.940  10.012 -0.1240 -0.2168 -0.7390
  722MOL0     C99516   7.845   9.925   9.895 -0.9115  0.3851  1.0593
  722MOL0     C99517   7.903  10.008   9.800 -0.2447  0.7890  0.7499
  722MOL0     C99518   7.870   9.995   9.654  0.2710 -0.4886 -1.1063
  722MOL0     C99519   7.992  10.030   9.568  0.6481  0.4464  0.6754
  722MOL0     C99520   7.979   9.968   9.433 -0.1870 -0.1602  0.3026
  722MOL0     C99521   7.868  10.017   9.346  1.5866 -0.1646 -0.6288
  722MOL0     O99522   7.730   9.968   9.376 -0.1944  0.0785  0.1245
  722MOL0     C99523   7.626  10.040   9.333 -0.5441 -0.1496 -0.5483
  722MOL0     C99524   7.546  10.106   9.431 -1.0574  0.8528 -0.1149
  722MOL0     C99525   7.429  10.168   9.388  0.5792 -0.6626 -0.5678
  722MOL0     C99526   7.361  10.228   9.508  0.0007  0.4859  0.4872
  722MOL0     C99527   7.399  10.188   9.244  0.2207 -0.0496  0.1526
  722MOL0     C99528   7.285  10.268   9.212 -0.4677 -0.5436  0.0122
  722MOL0     O99529   7.181  10.281   9.287  0.4609  0.1700 -0.6928
  722MOL0     C99530   7.065  10.317   9.222  0.3722 -0.1711 -0.6876
  722MOL0     C99531   6.975  10.210   9.188  0.5110 -0.2883  0.9879
  722MOL0     C99532   6.866  10.237   9.104 -0.3568  0.4758 -0.7514
  722MOL0     C99533   6.843  10.363   9.056 -0.2139  0.2815  1.7793
  722MOL0     O99534   6.726  10.389   8.983 -0.2675  0.1713 -0.3168
  722MOL0     C99535   6.741  10.359   8.844 -0.2735 -0.2828  0.3677
  722MOL0     C99536   6.611  10.405   8.781 -0.2805  0.1141 -0.2169
  722MOL0     C99537   6.483  10.347   8.847  0.3661 -0.3830 -0.1640
  722MOL0     C99538   6.468  10.191   8.854  0.2689 -0.1771  0.2222
  722MOL0     C99539   6.320  10.159   8.872 -0.4765  0.3928  0.7754
  722MOL0     C99540   6.231  10.192   8.759  0.2745 -0.4005  0.3073
  722MOL0     C99541   6.257  10.119   8.627 -0.7373  0.1221  0.5797
  722MOL0     C99542   6.285   9.968   8.638  0.1881 -0.4607  0.4110
  722MOL0    Cl99543   6.318   9.901   8.471 -0.4263  0.5416 -0.5084
  722MOL0     C99544   6.926  10.464   9.097  0.0082  0.6720  1.1187
  722MOL0     C99545   7.039  10.443   9.173 -0.2892  0.0698  0.4759
  722MOL0     O99546   7.293  10.312   9.098  0.9178  0.4108  0.0238
  722MOL0     C99547   7.492  10.136   9.154 -1.0343 -0.8080  0.2178
  722MOL0     C99548   7.595  10.054   9.201  0.7082  0.1904  0.9884
  722MOL0     N99549   8.008  10.083   9.865  0.3717  0.8193 -0.9787
  722MOL0     N99550   8.003  10.043   9.987 -0.6323  0.6884  0.2017
  722MOL0     C99551   8.013  10.029  10.958  0.3368 -0.9930 -0.1825
  722MOL0     C99552   7.932  10.062  11.060 -0.0378 -0.2321 -0.5295
  722MOL0     C99553   7.749  10.061  11.489  0.0499 -1.1018 -0.3953
  722MOL0     C99554   7.776  10.017  11.620  0.1149  0.8762 -0.3766
  722MOL0     C99555   7.680  10.034  11.718  0.2553  0.5829 -0.0138
  722MOL0     C99556   7.562  10.101  11.693 -0.3361 -0.0847 -0.6099
  722MOL0     O99557   7.477  10.092  11.798  0.4481 -0.0131  0.7860
  722MOL0     C99558   7.354  10.167  11.792  0.0345 -0.4701 -0.3336
  722MOL0     C99559   7.264  10.095  11.696 -0.0281 -0.6207 -0.6316
  722MOL0     C99560   7.144  10.028  11.768  0.2365  0.1014  0.1131
  722MOL0     C99561   7.052   9.978  11.652  0.6166  0.3527 -0.7321
  722MOL0     C99562   6.950   9.884  11.713  0.6740  1.4616 -0.2729
  722MOL0     C99563   6.882   9.796  11.766 -0.3333 -0.3569 -0.5590
  722MOL0     C99564   7.536  10.161  11.564 -0.2102  0.2915  0.3886
  722MOL0     C99565   7.624  10.135  11.461  0.8695  0.7492 -0.4093
  722MOL0     C99566   7.583  10.209  11.332 -0.7041 -0.6552 -0.3722
  722MOL0     H99567   7.924   9.771  11.221  0.1917  0.9658  0.5821
  722MOL0     H99568   8.096   9.714  11.032 -1.1924 -0.5567  0.8090
  722MOL0     H99569   8.096   9.674  10.773 -0.4430  1.2798 -0.4797
  722MOL0     H99570   8.242   9.696  10.870  0.3209 -0.3801 -1.3309
  722MOL0     H99571   8.360   9.809  10.683 -1.4242  1.3028  2.7634
  722MOL0     H99572   8.318   9.635  10.648 -1.5371 -0.4634  0.9613
  722MOL0     H99573   8.267   9.743  10.457  1.4777 -1.6137  0.8929
  722MOL0     H99574   8.103   9.730  10.529 -0.4435  1.0455  0.6465
  722MOL0     H99575   8.108   9.971  10.598 -4.6353 -0.6992 -2.7906
  722MOL0     H99576   8.262   9.987  10.507 -1.8355  1.9854 -1.1341
  722MOL0     H99577   8.069  10.071  10.382  2.9017  0.7975  0.1834
  722MOL0     H99578   7.977   9.915  10.424 -0.4867  3.7494  3.7781
  722MOL0     H99579   8.130  10.010  10.191 -0.3468  0.3720  0.1466
  722MOL0     H99580   8.212   9.875  10.263  1.7302  1.5954 -2.4601
  722MOL0     H99581   8.026   9.735  10.263 -1.3138 -1.8457 -2.9986
  722MOL0     H99582   8.092   9.789  10.115  0.4067 -1.6756  0.9695
  722MOL0     H99583   7.805   9.804  10.122 -3.6800  3.8450  0.5770
  722MOL0     H99584   7.848   9.937  10.212 -2.4518 -0.2922 -1.0618
  722MOL0     H99585   7.776   9.844   9.873 -0.8739  0.8447 -0.9796
  722MOL0     H99586   7.787  10.066   9.647 -2.2697 -2.7542  2.4545
  722MOL0     H99587   7.825   9.903   9.616 -2.3408  1.5321 -3.3495
  722MOL0     H99588   8.002  10.138   9.554  2.9798  0.2878  0.7483
  722MOL0     H99589   8.089  10.004   9.612 -1.5847 -2.7281  4.3975
  722MOL0     H99590   8.068  10.001   9.378  1.5891 -1.4535  2.2245
  722MOL0     H99591   7.984   9.859   9.442 -1.4267 -0.1622  1.1027
  722MOL0     H99592   7.861  10.126   9.347 -1.6302 -0.2785 -0.1603
  722MOL0     H99593   7.885   9.982   9.243  1.0716 -3.6801  0.3346
  722MOL0     H99594   7.575  10.082   9.533 -0.3556  0.4044 -0.4120
  722MOL0     H99595   7.405  10.203   9.605 -2.8470 -0.1074  1.7147
  722MOL0     H99596   7.256  10.201   9.516  0.4472 -0.9763  1.9250
  722MOL0     H99597   7.363  10.337   9.495 -2.2712  0.4406 -0.5944
  722MOL0     H99598   7.011  10.111   9.215  0.9452 -1.3614 -2.9881
  722MOL0     H99599   6.795  10.156   9.089  1.5523 -1.7621  1.4195
  722MOL0     H99600   6.825  10.414   8.800 -1.2584 -0.5888 -2.0363
  722MOL0     H99601   6.755  10.252   8.823 -2.1700 -0.2308 -1.4823
  722MOL0     H99602   6.608  10.512   8.802  0.4572  0.0508  0.2693
  722MOL0     H99603   6.614  10.395   8.673 -2.1633  2.1861 -0.5181
  722MOL0     H99604   6.396  10.396   8.803 -0.2048  1.8454  3.0137
  722MOL0     H99605   6.475  10.384   8.950  0.2713  1.1185 -0.6723
  722MOL0     H99606   6.517  10.153   8.943  1.0964  1.3444  0.4454
  722MOL0     H99607   6.514  10.146   8.765  0.5925 -1.8752  1.2062
  722MOL0     H99608   6.314  10.053   8.899 -2.4201  1.2183  4.0992
  722MOL0     H99609   6.293  10.215   8.961  1.7236  2.3068  0.3112
  722MOL0     H99610   6.224  10.296   8.727 -2.6463 -0.7687 -0.5996
  722MOL0     H99611   6.130  10.164   8.790 -0.5286  1.5346 -0.4104
  722MOL0     H99612   6.340  10.161   8.569 -2.2174  1.5157 -0.6312
  722MOL0     H99613   6.170  10.140   8.564  0.3132  1.3042 -0.5356
  722MOL0     H99614   6.196   9.920   8.680  0.5928 -2.9388 -1.3583
  722MOL0     H99615   6.381   9.954   8.688 -0.5201  2.1865  2.7340
  722MOL0     H99616   6.915  10.557   9.042 -0.5207 -0.1931 -0.3148
  722MOL0     H99617   7.108  10.525   9.190 -0.6896  1.0305 -2.1300
  722MOL0     H99618   7.475  10.151   9.048  0.7484  0.1438  0.0333
  722MOL0     H99619   7.663  10.007   9.131 -0.6883 -1.8840  0.9273
  722MOL0     H99620   8.035  10.098  10.877 -0.8842  1.4753  1.4819
  722MOL0     H99621   7.893  10.162  11.077  4.1217  1.2362  1.8421
  722MOL0     H99622   7.872   9.978  11.651 -1.4038 -5.0696 -1.9439
  722MOL0     H99623   7.691   9.998  11.820 -1.2810  1.0760  0.3475
  722MOL0     H99624   7.313  10.155  11.893 -0.7046 -0.3693 -0.6145
  722MOL0     H99625   7.361  10.270  11.757  0.5678 -0.8864 -1.4826
  722MOL0     H99626   7.322  10.013  11.651  1.9178 -0.1413  0.8610
  722MOL0     H99627   7.232  10.165  11.618 -1.7595  0.0083  0.5915
  722MOL0     H99628   7.177   9.939  11.824 -1.3715  0.2127  1.3009
  722MOL0     H99629   7.081  10.094  11.828  0.7083  0.4464  0.2366
  722MOL0     H99630   7.095   9.907  11.582  0.3779 -3.7289  2.8213
  722MOL0     H99631   7.016  10.061  11.590  1.0442  0.4678 -0.8284
  722MOL0     H99632   6.812   9.736  11.820  0.9397 -1.0465  0.3647
  722MOL0     H99633   7.442  10.215  11.553 -1.7570 -2.2838  0.1675
  722MOL0     H99634   7.499  10.279  11.344  0.8348  1.0421  1.4374
  722MOL0     H99635   7.664  10.276  11.303 -0.5854 -0.9909 -0.8086
  722MOL0     H99636   7.545  10.146  11.252 -2.9524  1.4402 -1.0854
  723MOL0     O99637  10.834   3.720   8.559 -0.1239  0.4053 -0.4327
  723MOL0     C99638  10.773   3.709   8.446  0.7858  0.3488  0.3850
  723MOL0     O99639  10.802   3.779   8.336 -0.0798 -0.4838 -0.3304
  723MOL0     C99640  10.911   3.862   8.344  0.1864  0.4188 -0.0847
  723MOL0     C99641  10.891   3.991   8.404  0.9293  0.5382 -0.4621
  723MOL0     C99642  11.014   4.069   8.435 -1.2224  0.6089  0.3076
  723MOL0     C99643  11.139   4.031   8.396  0.5475 -0.2541 -0.2182
  723MOL0     O99644  11.247   4.103   8.438  0.5991 -0.4060  0.0257
  723MOL0     C99645  11.374   4.044   8.448 -0.6568  0.1057 -0.2781
  723MOL0     C99646  11.476   4.161   8.476 -0.3518 -0.1216  0.1808
  723MOL0     C99647  11.616   4.107   8.492  0.1757 -0.3035 -0.7675
  723MOL0     C99648  11.723   4.220   8.501  0.8446 -0.0715 -1.9507
  723MOL0     C99649  11.856   4.188   8.436 -0.2334  0.5028  1.5300
  723MOL0     C99650  11.957   4.311   8.460  0.4123 -0.3160 -0.9414
  723MOL0     C99651  12.107   4.303   8.401  0.1951  0.0467 -0.1329
  723MOL0     C99652  12.174   4.167   8.408  0.6922  0.2867  0.1493
  723MOL0     N99653  12.318   4.164   8.392 -0.1303 -0.1508  0.8146
  723MOL0     C99654  12.397   4.171   8.273  0.0072  0.4163 -0.2237
  723MOL0     C99655  12.527   4.163   8.308 -0.6009  0.5851  0.7117
  723MOL0     C99656  12.652   4.179   8.222  0.1722 -0.1274 -0.2470
  723MOL0     C99657  12.684   4.323   8.193 -0.0121 -0.0982 -0.3460
  723MOL0     C99658  12.694   4.418   8.320 -0.1660 -0.3019  0.3507
  723MOL0     C99659  12.751   4.550   8.292 -0.2970 -0.0367 -0.1932
  723MOL0     O99660  12.663   4.620   8.205  0.0957  0.0092 -0.2332
  723MOL0     C99661  12.690   4.753   8.177 -0.3862  0.5326  1.1169
  723MOL0     C99662  12.597   4.828   8.094 -0.5009 -0.3738  0.5621
  723MOL0     C99663  12.618   4.965   8.052 -1.3209 -1.8508  0.3075
  723MOL0     C99664  12.536   5.028   7.950  0.5969  0.1380  0.2845
  723MOL0     C99665  12.729   5.033   8.122  0.2929  0.7611 -0.0724
  723MOL0     C99666  12.764   5.179   8.103  0.9356 -0.0476 -0.0314
  723MOL0     O99667  12.787   5.255   8.217 -0.4171 -0.2261  0.8266
  723MOL0     C99668  12.814   5.392   8.231  0.7147  0.5785  1.1047
  723MOL0     C99669  12.852   5.482   8.127 -0.1160 -0.0110  0.3450
  723MOL0     C99670  12.889   5.617   8.141  0.0126  0.4926  0.2660
  723MOL0     C99671  12.920   5.658   8.274  0.6940 -0.6573  0.0531
  723MOL0     O99672  12.952   5.785   8.304 -0.3361  0.1824  0.3526
  723MOL0     C99673  13.038   5.856   8.212 -0.3316 -0.3545 -0.4799
  723MOL0     C99674  13.174   5.790   8.190 -1.4206 -0.0343 -0.6301
  723MOL0     C99675  13.193   5.769   8.043  0.4017 -0.3072  0.1876
  723MOL0     C99676  13.314   5.685   7.998  0.2047 -0.2138 -0.5815
  723MOL0     C99677  13.331   5.678   7.839  0.2886 -0.2687 -1.0349
  723MOL0     C99678  13.423   5.790   7.791 -0.2431 -0.5153  1.1386
  723MOL0     C99679  13.445   5.772   7.643 -0.0386  0.3339  0.6935
  723MOL0     C99680  13.329   5.839   7.541 -1.2971  0.2004  0.1307
  723MOL0    Cl99681  13.157   5.832   7.605 -0.3443  0.3566 -0.1221
  723MOL0     C99682  12.889   5.575   8.373 -0.5901 -0.4184  0.2387
  723MOL0     C99683  12.837   5.441   8.354 -0.5464  0.4567  0.2520
  723MOL0     O99684  12.768   5.217   7.986 -0.0662  0.2334 -0.4501
  723MOL0     C99685  12.810   4.967   8.223  0.3594 -0.3014  0.3048
  723MOL0     C99686  12.788   4.829   8.254  0.3506 -0.9531  0.0158
  723MOL0     N99687  12.526   4.155   8.442 -0.4555  0.3549  0.0883
  723MOL0     N99688  12.410   4.131   8.490  0.1627 -0.3724  0.4287
  723MOL0     C99689  11.148   3.906   8.337 -0.8400  0.0941  0.3210
  723MOL0     C99690  11.040   3.821   8.314 -0.3668  0.2965  0.3876
  723MOL0     C99691  10.684   3.590   8.429 -0.5767  0.5469 -1.4147
  723MOL0     C99692  10.705   3.518   8.312  0.5637  0.0978 -0.4993
  723MOL0     C99693  10.622   3.408   8.290 -0.1398  0.2293 -0.0051
  723MOL0     C99694  10.523   3.362   8.378  0.2717 -0.1084  1.3038
  723MOL0     O99695  10.467   3.236   8.371  1.4695  0.1434 -0.1031
  723MOL0     C99696  10.556   3.124   8.381 -0.1019 -0.0560 -0.4179
  723MOL0     C99697  10.565   3.070   8.530 -0.2794  0.4458 -0.0487
  723MOL0     C99698  10.712   3.099   8.587  0.1587 -0.1614  0.2452
  723MOL0     C99699  10.809   2.995   8.541  0.1380 -0.1704  0.0197
  723MOL0     C99700  10.785   2.861   8.590  0.6127 -0.1965  0.5128
  723MOL0     C99701  10.788   2.748   8.631  0.4919 -0.3453  0.0388
  723MOL0     C99702  10.502   3.446   8.489  0.4702 -0.5059  0.3034
  723MOL0     C99703  10.579   3.562   8.518 -1.2771  1.0284 -0.7278
  723MOL0     C99704  10.565   3.634   8.647  0.1990 -0.0184 -0.6544
  723MOL0     H99705  10.797   4.019   8.449  1.4557  1.0077  0.3664
  723MOL0     H99706  11.013   4.160   8.493 -1.1932  0.3516  0.7134
  723MOL0     H99707  11.397   3.994   8.353 -0.4534  0.2928 -0.3294
  723MOL0     H99708  11.376   3.972   8.530  1.4546  0.0236 -0.3589
  723MOL0     H99709  11.460   4.235   8.396 -2.3910  1.6528  2.0949
  723MOL0     H99710  11.447   4.207   8.571  0.3264 -2.9210  1.8654
  723MOL0     H99711  11.625   4.030   8.570 -0.2427 -0.6619 -1.0711
  723MOL0     H99712  11.635   4.043   8.405  3.7802  0.1599 -0.4832
  723MOL0     H99713  11.681   4.307   8.449 -0.6252 -0.4378 -1.4277
  723MOL0     H99714  11.744   4.248   8.604 -0.8081  1.3648 -1.9595
  723MOL0     H99715  11.837   4.164   8.331  1.1703  0.8621  1.1672
  723MOL0     H99716  11.900   4.093   8.469 -0.7678  0.5561  2.4111
  723MOL0     H99717  11.907   4.402   8.427  0.0160  0.8780  2.4946
  723MOL0     H99718  11.969   4.324   8.568 -3.2137  1.2534 -0.5862
  723MOL0     H99719  12.167   4.375   8.457 -2.1891  2.9009 -0.9537
  723MOL0     H99720  12.113   4.330   8.295 -1.2061 -0.7576 -0.4451
  723MOL0     H99721  12.151   4.122   8.505  1.0767 -0.3336 -0.0414
  723MOL0     H99722  12.121   4.098   8.341  0.6173  0.5273 -0.0420
  723MOL0     H99723  12.353   4.165   8.175  1.8987  0.4538 -1.1208
  723MOL0     H99724  12.632   4.146   8.120  0.1841  2.6869 -1.2398
  723MOL0     H99725  12.725   4.117   8.276  0.8572  0.9517  0.0872
  723MOL0     H99726  12.779   4.329   8.139  0.1012 -0.5982 -0.2146
  723MOL0     H99727  12.607   4.368   8.130 -0.7029  0.7307  1.0435
  723MOL0     H99728  12.597   4.429   8.371 -0.9149  2.1647 -1.3909
  723MOL0     H99729  12.760   4.372   8.394  1.9920  0.5832 -0.9538
  723MOL0     H99730  12.754   4.604   8.387 -0.6009  1.2147 -0.8796
  723MOL0     H99731  12.857   4.550   8.266 -0.1887  1.7183  0.1246
  723MOL0     H99732  12.520   4.781   8.033 -1.0340  1.6145 -0.3825
  723MOL0     H99733  12.569   5.013   7.847 -0.7589 -0.5728 -0.0727
  723MOL0     H99734  12.532   5.136   7.970 -1.6833 -0.0984  1.3913
  723MOL0     H99735  12.430   5.003   7.961 -0.2174  2.1455 -2.1656
  723MOL0     H99736  12.851   5.445   8.025  2.4401  0.3218  0.1301
  723MOL0     H99737  12.892   5.687   8.057 -3.8242  1.2192  0.5881
  723MOL0     H99738  12.985   5.882   8.120  1.8719  0.5417 -1.5754
  723MOL0     H99739  13.060   5.950   8.263 -1.0755 -0.2760 -0.3001
  723MOL0     H99740  13.253   5.852   8.234  0.2260  2.1357 -5.8449
  723MOL0     H99741  13.177   5.689   8.232  0.6655 -0.2682 -1.2437
  723MOL0     H99742  13.210   5.860   7.985  0.4342  0.7319  1.7635
  723MOL0     H99743  13.106   5.719   7.999  1.9982 -2.1024 -1.0576
  723MOL0     H99744  13.311   5.586   8.044  0.5614  0.6062  1.2684
  723MOL0     H99745  13.403   5.729   8.043 -0.2768 -0.8343  1.0345
  723MOL0     H99746  13.394   5.590   7.822 -1.4234 -2.3443  2.2475
  723MOL0     H99747  13.232   5.686   7.793 -1.6332  1.7422  2.9692
  723MOL0     H99748  13.517   5.775   7.845 -0.2752  1.8359  1.9324
  723MOL0     H99749  13.382   5.888   7.815 -2.8986 -0.5184 -2.5690
  723MOL0     H99750  13.445   5.669   7.607  3.4114  1.0074 -1.6741
  723MOL0     H99751  13.541   5.818   7.620  0.4056  0.6559  2.9262
  723MOL0     H99752  13.344   5.790   7.445 -2.7513  1.2489 -0.6594
  723MOL0     H99753  13.352   5.942   7.515  0.0618 -0.5559 -1.9542
  723MOL0     H99754  12.911   5.621   8.468 -0.8843  2.3219 -0.9205
  723MOL0     H99755  12.836   5.375   8.440 -5.2168 -0.7590 -0.4770
  723MOL0     H99756  12.872   5.028   8.288  0.9208  0.1591 -0.6546
  723MOL0     H99757  12.849   4.778   8.328 -0.8133 -0.8756  1.0477
  723MOL0     H99758  11.242   3.863   8.304 -0.8743  1.7825 -2.2044
  723MOL0     H99759  11.070   3.726   8.271  0.9353  1.3519 -1.1638
  723MOL0     H99760  10.779   3.547   8.239  0.8697 -2.4625 -1.2751
  723MOL0     H99761  10.641   3.356   8.197  0.4416  3.6949 -1.9832
  723MOL0     H99762  10.513   3.041   8.325 -2.2309 -0.4343  1.6334
  723MOL0     H99763  10.657   3.141   8.343 -0.1853  3.0431  0.4202
  723MOL0     H99764  10.537   2.964   8.530 -4.0029  1.3099  0.0603
  723MOL0     H99765  10.493   3.129   8.587 -0.9878  2.9634 -3.2415
  723MOL0     H99766  10.743   3.198   8.553 -0.7682  0.1527  0.2836
  723MOL0     H99767  10.711   3.103   8.696 -0.6074 -3.7889  0.5051
  723MOL0     H99768  10.914   3.022   8.556  0.6511 -1.2827 -1.4162
  723MOL0     H99769  10.798   2.994   8.432 -1.7727  0.2145  0.1589
  723MOL0     H99770  10.779   2.645   8.658  4.6809 -0.7504  0.6607
  723MOL0     H99771  10.439   3.409   8.570 -1.6267  1.0938 -0.4982
  723MOL0     H99772  10.657   3.631   8.706  1.3377  5.1262 -1.7061
  723MOL0     H99773  10.541   3.740   8.631  0.1790 -0.1597 -1.6161
  723MOL0     H99774  10.473   3.603   8.698  0.0788  0.3992 -0.6140
  724MOL0     O99775   4.448   9.748   2.203 -0.5334 -0.3397 -0.4741
  724MOL0     C99776   4.412   9.664   2.124  0.6335 -0.1465 -0.7381
  724MOL0     O99777   4.490   9.572   2.052  0.1962  0.5805 -0.3848
  724MOL0     C99778   4.627   9.557   2.078  0.2806 -0.0908  0.3810
  724MOL0     C99779   4.670   9.425   2.038  0.6235 -0.2772 -0.0408
  724MOL0     C99780   4.809   9.399   2.042  0.1626 -0.1447 -0.4091
  724MOL0     C99781   4.904   9.495   2.086 -0.1085 -0.5895  0.3381
  724MOL0     O99782   5.043   9.456   2.081  0.1655  0.7755 -0.5803
  724MOL0     C99783   5.153   9.555   2.083 -0.0893 -0.3023  0.4484
  724MOL0     C99784   5.274   9.486   2.026 -0.7192 -0.0172 -0.2055
  724MOL0     C99785   5.390   9.585   1.986  0.4593  0.3691  1.2258
  724MOL0     C99786   5.519   9.514   1.932  0.3376  0.6441  0.8148
  724MOL0     C99787   5.632   9.608   1.909  0.0241 -0.1287 -0.4937
  724MOL0     C99788   5.751   9.540   1.854  0.0067 -0.0549  0.1352
  724MOL0     C99789   5.859   9.628   1.775 -0.0808  0.3243 -0.2078
  724MOL0     C99790   5.846   9.782   1.767  0.3439  0.0537 -0.5604
  724MOL0     N99791   5.973   9.850   1.737 -0.1804 -0.1565 -0.8346
  724MOL0     C99792   6.075   9.866   1.828  0.4897  0.2035 -0.6440
  724MOL0     C99793   6.178   9.902   1.745 -0.0435 -0.7664 -0.4643
  724MOL0     C99794   6.320   9.911   1.780  0.5979 -0.3203 -0.3571
  724MOL0     C99795   6.378  10.037   1.855  0.4132  0.3032 -0.1271
  724MOL0     C99796   6.432  10.147   1.757 -0.5307  0.2739 -0.7796
  724MOL0     C99797   6.548  10.097   1.662 -0.4802  0.5190  1.1801
  724MOL0     O99798   6.635  10.035   1.754 -0.2368 -0.0417  0.2721
  724MOL0     C99799   6.762  10.014   1.709  0.9122 -0.2275  0.0023
  724MOL0     C99800   6.813  10.053   1.590 -0.2309 -0.2201  0.1313
  724MOL0     C99801   6.937  10.002   1.554 -0.3769  0.4366  0.4560
  724MOL0     C99802   7.005  10.057   1.431 -0.4155 -0.0660  0.0393
  724MOL0     C99803   7.007   9.904   1.630  0.2825 -0.5823  0.9298
  724MOL0     C99804   7.136   9.834   1.588  0.7285 -0.2406  0.4285
  724MOL0     O99805   7.178   9.860   1.458  0.4042  0.4740 -0.2491
  724MOL0     C99806   7.303   9.823   1.417 -0.7036  0.2476 -0.5422
  724MOL0     C99807   7.324   9.696   1.366  0.0849  0.1303  0.0465
  724MOL0     C99808   7.448   9.657   1.315  0.3291 -1.6582  0.5066
  724MOL0     C99809   7.555   9.751   1.308 -0.2592  0.8554  0.0213
  724MOL0     O99810   7.682   9.726   1.256  0.2094  0.1792  0.4497
  724MOL0     C99811   7.737   9.816   1.151  0.5356 -0.8519 -0.9912
  724MOL0     C99812   7.767   9.730   1.037 -0.4677  0.5697  0.1973
  724MOL0     C99813   7.891   9.636   1.065 -1.3148 -0.8511 -0.0206
  724MOL0     C99814   7.889   9.515   0.969  1.0927  0.5594 -0.2866
  724MOL0     C99815   7.997   9.404   1.001 -0.2105  0.2945  0.0452
  724MOL0     C99816   7.992   9.288   0.901 -0.3101  0.2470 -0.1890
  724MOL0     C99817   8.137   9.231   0.902  0.4359 -0.6588 -0.2026
  724MOL0     C99818   8.155   9.090   0.830  0.4033 -0.7023 -0.6620
  724MOL0    Cl99819   8.328   9.043   0.814  0.3996  0.7901 -0.0503
  724MOL0     C99820   7.528   9.886   1.348 -0.1866  0.7770  0.5810
  724MOL0     C99821   7.407   9.922   1.415  0.3585 -0.8058 -0.6558
  724MOL0     O99822   7.192   9.760   1.673 -0.3898 -0.2270 -0.0552
  724MOL0     C99823   6.962   9.878   1.756  1.0701 -0.7119  0.9750
  724MOL0     C99824   6.835   9.926   1.791  0.1792 -0.8247  1.2066
  724MOL0     N99825   6.137   9.895   1.612 -0.1574  0.6410 -0.7069
  724MOL0     N99826   6.014   9.859   1.609 -0.5075  0.7570 -0.1207
  724MOL0     C99827   4.865   9.624   2.120  0.8017  0.6314  0.1063
  724MOL0     C99828   4.723   9.653   2.127  0.0442 -0.6272  0.8920
  724MOL0     C99829   4.265   9.676   2.074 -0.6209  1.0425 -0.3127
  724MOL0     C99830   4.236   9.622   1.945 -0.7390 -0.4058 -0.3069
  724MOL0     C99831   4.126   9.654   1.868 -0.3560 -0.0585 -0.1638
  724MOL0     C99832   4.030   9.738   1.932 -0.0577  0.0530 -0.2435
  724MOL0     O99833   3.917   9.769   1.866  0.9658  0.3399  1.7720
  724MOL0     C99834   3.937   9.805   1.728  0.0730 -0.1131 -0.9204
  724MOL0     C99835   3.844   9.914   1.684 -0.4864  0.6121 -0.6083
  724MOL0     C99836   3.851   9.956   1.539  0.5634 -0.3806  0.4192
  724MOL0     C99837   3.813   9.853   1.433 -0.2164  0.0487 -0.1819
  724MOL0     C99838   3.701   9.768   1.461  0.6209 -1.7947  1.0510
  724MOL0     C99839   3.607   9.688   1.473 -0.5490  0.6207  1.3567
  724MOL0     C99840   4.047   9.785   2.064 -1.0113  0.1339 -0.2811
  724MOL0     C99841   4.161   9.756   2.141  0.4473  0.0766  0.3754
  724MOL0     C99842   4.174   9.808   2.282 -0.4465 -0.0905 -0.4364
  724MOL0     H99843   4.596   9.356   2.001  0.5291 -0.9831  1.3887
  724MOL0     H99844   4.833   9.297   2.012 -4.3613 -1.0888 -1.5616
  724MOL0     H99845   5.169   9.586   2.187  0.1423 -0.4238  0.4501
  724MOL0     H99846   5.124   9.642   2.024 -2.7508 -1.5202 -0.2033
  724MOL0     H99847   5.313   9.425   2.108  0.6678  1.9442  0.6913
  724MOL0     H99848   5.250   9.425   1.938  2.2344  0.7167 -1.6374
  724MOL0     H99849   5.356   9.647   1.903 -2.7476 -3.6388 -0.8393
  724MOL0     H99850   5.422   9.652   2.067  2.5804  0.8024  0.0993
  724MOL0     H99851   5.542   9.436   2.005 -1.1407 -0.6287 -0.0358
  724MOL0     H99852   5.506   9.459   1.839  2.4554  2.0759 -0.4251
  724MOL0     H99853   5.649   9.661   2.003 -1.5131 -0.1246 -0.1973
  724MOL0     H99854   5.597   9.680   1.834  0.6721 -0.4995 -1.1741
  724MOL0     H99855   5.803   9.506   1.944  0.4783 -2.1273 -0.8666
  724MOL0     H99856   5.721   9.454   1.794 -0.2952 -1.7066  2.5136
  724MOL0     H99857   5.873   9.587   1.674  1.0867 -1.7416  0.7207
  724MOL0     H99858   5.957   9.619   1.823  0.2645  1.9221 -0.5344
  724MOL0     H99859   5.770   9.817   1.696  0.4112 -0.5038 -0.9108
  724MOL0     H99860   5.810   9.807   1.868  2.3453 -2.5572  0.9382
  724MOL0     H99861   6.073   9.847   1.935 -2.9783  1.3955 -0.3860
  724MOL0     H99862   6.381   9.898   1.690  1.1844 -2.0553  0.2484
  724MOL0     H99863   6.337   9.824   1.844 -0.0811 -1.1199 -1.2290
  724MOL0     H99864   6.299  10.075   1.920  2.0603 -0.9790  2.8909
  724MOL0     H99865   6.456  10.002   1.924 -0.0956  2.9616  1.9859
  724MOL0     H99866   6.351  10.192   1.698 -0.9139  0.5813 -0.0294
  724MOL0     H99867   6.467  10.227   1.823 -0.1547 -1.4196  1.1826
  724MOL0     H99868   6.526  10.015   1.593  3.1412  0.0455  0.3805
  724MOL0     H99869   6.587  10.184   1.608 -0.0807  0.9113  2.0873
  724MOL0     H99870   6.764  10.124   1.524  0.8809 -0.4950 -1.0242
  724MOL0     H99871   6.992   9.990   1.346  0.4820  1.0080 -0.9765
  724MOL0     H99872   7.111  10.078   1.450 -0.6032 -0.8409  2.3302
  724MOL0     H99873   6.953  10.150   1.407  0.2697  0.5043  0.6980
  724MOL0     H99874   7.241   9.626   1.374  2.0300 -2.4694 -1.2915
  724MOL0     H99875   7.452   9.559   1.269 -0.9196 -0.8327 -1.5234
  724MOL0     H99876   7.666   9.897   1.129 -0.2463 -1.4252 -0.5922
  724MOL0     H99877   7.838   9.845   1.183  0.2270 -1.2415  0.4141
  724MOL0     H99878   7.683   9.669   1.004  0.5649  0.1762 -1.8859
  724MOL0     H99879   7.789   9.800   0.956  1.5082 -2.0815 -1.7635
  724MOL0     H99880   7.898   9.597   1.167  0.2648  0.7121  0.5065
  724MOL0     H99881   7.990   9.681   1.055 -0.8965 -1.7507 -0.0152
  724MOL0     H99882   7.894   9.554   0.867 -2.0331  1.5107 -0.1701
  724MOL0     H99883   7.792   9.466   0.975  0.0231  2.5040 -0.8343
  724MOL0     H99884   8.096   9.450   1.001 -1.0407  2.2589  2.4498
  724MOL0     H99885   7.985   9.375   1.106  0.2417 -0.3409 -0.0707
  724MOL0     H99886   7.962   9.318   0.800  2.1635 -1.3165 -1.4875
  724MOL0     H99887   7.931   9.207   0.941  1.2142  0.3956  2.7017
  724MOL0     H99888   8.179   9.222   1.003  0.3719  0.2934 -0.0826
  724MOL0     H99889   8.208   9.292   0.846  1.8417 -0.9894  1.1344
  724MOL0     H99890   8.125   9.112   0.727  3.5452  0.6477 -1.4011
  724MOL0     H99891   8.089   9.017   0.879  2.5305 -1.1088  1.8017
  724MOL0     H99892   7.600   9.966   1.340 -1.8895  2.3531  0.3882
  724MOL0     H99893   7.385  10.026   1.434  0.9952 -0.5734 -1.1621
  724MOL0     H99894   7.021   9.824   1.829  2.2064 -3.2941 -1.6159
  724MOL0     H99895   6.793   9.891   1.885 -1.2381  1.0849  1.3570
  724MOL0     H99896   4.934   9.704   2.144 -0.3871  1.4758  0.8165
  724MOL0     H99897   4.689   9.757   2.128  0.0273 -0.5883 -0.6744
  724MOL0     H99898   4.294   9.543   1.898 -0.0257 -0.5976  0.8613
  724MOL0     H99899   4.104   9.591   1.782 -4.7466 -0.9185  1.3288
  724MOL0     H99900   4.040   9.826   1.699  0.0881 -2.1275 -2.6114
  724MOL0     H99901   3.918   9.711   1.676 -1.9257 -0.3918  0.2016
  724MOL0     H99902   3.861   9.994   1.757  3.1464 -2.0974  1.8748
  724MOL0     H99903   3.742   9.883   1.708 -0.0567  1.0465  2.1209
  724MOL0     H99904   3.774  10.033   1.530 -1.2360 -2.0372  0.6576
  724MOL0     H99905   3.948  10.004   1.527 -0.1547  0.9772 -0.2242
  724MOL0     H99906   3.902   9.792   1.417 -0.0649 -0.4964  2.3037
  724MOL0     H99907   3.797   9.916   1.345  3.0155  0.6071 -0.5030
  724MOL0     H99908   3.531   9.613   1.473  0.2592 -0.2490  0.2460
  724MOL0     H99909   3.972   9.857   2.096 -0.9353  1.3705 -2.6631
  724MOL0     H99910   4.240   9.895   2.285 -0.7800  0.2157 -1.5539
  724MOL0     H99911   4.070   9.835   2.302 -1.0487 -0.4446 -2.7530
  724MOL0     H99912   4.210   9.731   2.351 -2.5055 -0.7778 -0.0612
  725MOL0     O99913   0.662   7.085   6.620 -0.0923  0.7250  0.2914
  725MOL0     C99914   0.629   7.161   6.530  0.0781  0.0336 -0.1251
  725MOL0     O99915   0.705   7.234   6.445 -0.7484  0.2994  0.2509
  725MOL0     C99916   0.843   7.234   6.447 -0.8095 -0.7866 -0.7568
  725MOL0     C99917   0.915   7.204   6.339 -0.0325 -0.2494  0.1533
  725MOL0     C99918   1.056   7.212   6.340  0.1317  0.7698  0.6229
  725MOL0     C99919   1.113   7.232   6.458 -0.1219 -0.2064  0.4231
  725MOL0     O99920   1.253   7.218   6.448  0.4511  0.5903 -0.0151
  725MOL0     C99921   1.323   7.330   6.509 -0.1700 -0.7998  1.2471
  725MOL0     C99922   1.465   7.337   6.449 -0.0959 -0.2652 -0.0712
  725MOL0     C99923   1.562   7.222   6.494 -0.1862 -0.2403  0.7049
  725MOL0     C99924   1.697   7.221   6.425 -0.6620 -0.4209  0.4598
  725MOL0     C99925   1.789   7.110   6.492 -0.0135  0.0931  0.1376
  725MOL0     C99926   1.846   7.143   6.625  0.0476 -0.2109  0.6076
  725MOL0     C99927   1.943   7.029   6.675 -0.3105 -0.3791 -1.5416
  725MOL0     C99928   1.985   7.035   6.824  0.0199  0.1865  0.9731
  725MOL0     N99929   2.085   7.134   6.851 -0.3354  0.2296 -0.8274
  725MOL0     C99930   2.219   7.101   6.833  0.5413 -0.4533  0.3541
  725MOL0     C99931   2.278   7.174   6.927  0.7949  0.8135 -0.9687
  725MOL0     C99932   2.430   7.181   6.949  0.1474 -1.2114 -0.6684
  725MOL0     C99933   2.506   7.176   6.820 -0.0483  0.0014 -0.0822
  725MOL0     C99934   2.651   7.206   6.848  0.1838 -0.0379  0.7727
  725MOL0     C99935   2.730   7.239   6.715  0.1596 -0.8057  0.2600
  725MOL0     O99936   2.866   7.261   6.735  0.1782  0.2851  0.2118
  725MOL0     C99937   2.905   7.390   6.739  1.4628  0.2994 -1.0807
  725MOL0     C99938   2.835   7.507   6.793 -0.1701  0.4266  0.6214
  725MOL0     C99939   2.897   7.637   6.802 -0.0060  0.4143  0.6406
  725MOL0     C99940   2.803   7.735   6.874 -0.0991  0.0294 -0.3920
  725MOL0     C99941   3.026   7.658   6.759 -0.2740 -1.4682 -0.1308
  725MOL0     C99942   3.090   7.790   6.773 -1.2334  0.5567 -0.1630
  725MOL0     O99943   3.206   7.800   6.704 -0.4850 -0.3182  0.0879
  725MOL0     C99944   3.257   7.921   6.701 -0.3742  0.1407  0.0697
  725MOL0     C99945   3.236   8.008   6.591  0.0102  0.8821  0.6231
  725MOL0     C99946   3.295   8.141   6.582  0.7919  0.6493  0.4405
  725MOL0     C99947   3.372   8.187   6.689 -0.3034  1.3956  0.9660
  725MOL0     O99948   3.427   8.311   6.681 -0.0145  1.0225 -0.1222
  725MOL0     C99949   3.393   8.395   6.789  0.1656 -0.4478 -0.8654
  725MOL0     C99950   3.525   8.478   6.842  0.0707  0.7452  1.0439
  725MOL0     C99951   3.464   8.593   6.923 -0.0105 -0.6039 -0.1215
  725MOL0     C99952   3.575   8.698   6.954 -0.3020  0.4731 -0.1855
  725MOL0     C99953   3.551   8.730   7.101 -0.8170 -0.6478  0.8442
  725MOL0     C99954   3.675   8.777   7.183  0.0442  0.8617  0.0097
  725MOL0     C99955   3.757   8.882   7.095 -0.5641  0.6432 -0.5048
  725MOL0     C99956   3.898   8.912   7.158  0.0258  0.5575  0.6805
  725MOL0    Cl99957   4.014   8.976   7.035  0.6183 -0.4585  0.7863
  725MOL0     C99958   3.400   8.097   6.793 -0.1471  0.2907  0.8360
  725MOL0     C99959   3.346   7.966   6.803  0.0307  0.1632  0.4422
  725MOL0     O99960   3.043   7.878   6.848  0.3266  0.0875  0.4590
  725MOL0     C99961   3.092   7.549   6.695 -0.6630 -0.2275 -0.0662
  725MOL0     C99962   3.038   7.419   6.692  1.0095 -0.0606  0.3088
  725MOL0     N99963   2.183   7.258   6.994 -0.0046 -0.0603 -1.0183
  725MOL0     N99964   2.065   7.215   6.955  0.1980 -0.7754  1.0320
  725MOL0     C99965   1.053   7.267   6.576 -0.1810  0.0069 -0.1849
  725MOL0     C99966   0.908   7.271   6.566 -0.1243  0.9152 -0.1542
  725MOL0     C99967   0.486   7.188   6.512 -0.0168  0.1926  0.4089
  725MOL0     C99968   0.443   7.317   6.471  0.3427  0.1618 -0.1712
  725MOL0     C99969   0.301   7.336   6.462  0.3065  0.4614  0.2455
  725MOL0     C99970   0.203   7.233   6.461  0.6575 -0.5520 -0.1682
  725MOL0     O99971   0.067   7.256   6.444 -0.0955  0.2994 -0.0903
  725MOL0     C99972   0.013   7.263   6.316  0.4726 -0.3400 -0.2384
  725MOL0     C99973   0.038   7.408   6.257  0.1980 -0.3766  1.0212
  725MOL0     C99974  -0.069   7.452   6.145 -0.9409 -0.3950  0.6173
  725MOL0     C99975  -0.057   7.609   6.108  1.0925 -0.0596  0.1709
  725MOL0     C99976   0.046   7.633   6.008  0.0016 -0.9105 -0.1441
  725MOL0     C99977   0.108   7.661   5.913  0.0478 -0.6883 -0.2548
  725MOL0     C99978   0.256   7.110   6.508  0.0444 -0.0227 -0.5941
  725MOL0     C99979   0.394   7.087   6.530 -0.3357  0.5460 -0.2996
  725MOL0     C99980   0.436   6.940   6.572  0.2866 -0.2946  0.6626
  725MOL0     H99981   0.851   7.173   6.256  0.9550  0.5518 -0.9443
  725MOL0     H99982   1.107   7.188   6.248 -1.2563  1.6779 -0.4250
  725MOL0     H99983   1.339   7.313   6.616 -1.5093 -2.9378  1.1784
  725MOL0     H99984   1.271   7.424   6.488  1.0923 -0.3558 -0.0421
  725MOL0     H99985   1.445   7.334   6.342 -2.2110  0.3090  0.2410
  725MOL0     H99986   1.514   7.430   6.479  1.6173 -0.6206 -1.5990
  725MOL0     H99987   1.581   7.230   6.601  0.3984  1.3174  0.5015
  725MOL0     H99988   1.519   7.124   6.470  0.5813 -0.1628 -1.1949
  725MOL0     H99989   1.674   7.202   6.320 -0.5875 -1.8090  0.6691
  725MOL0     H99990   1.744   7.319   6.420 -1.4352 -0.0790 -0.1342
  725MOL0     H99991   1.871   7.087   6.423  1.0068  1.4270  0.8638
  725MOL0     H99992   1.746   7.009   6.490 -2.0892  0.7769 -4.7698
  725MOL0     H99993   1.902   7.237   6.618  0.6980 -0.6918 -1.2781
  725MOL0     H99994   1.760   7.158   6.691 -0.5252  1.2015 -0.4083
  725MOL0     H99995   2.031   7.043   6.612 -1.1916 -0.0288 -2.7243
  725MOL0     H99996   1.895   6.932   6.658 -0.6593 -0.9715  1.9012
  725MOL0     H99997   1.900   7.070   6.884  0.0829 -0.3416  1.3798
  725MOL0     H99998   2.025   6.940   6.862  2.4898  0.5268 -0.5588
  725MOL0     H99999   2.253   7.023   6.766 -4.1197 -3.0706  0.5983
  725MOL0     H    0   2.479   7.109   7.014  2.6759 -0.7685 -1.9276
  725MOL0     H    1   2.453   7.273   7.003 -2.0502 -1.4405  0.7559
  725MOL0     H    2   2.502   7.075   6.779 -1.3259  0.4412 -1.1091
  725MOL0     H    3   2.463   7.244   6.746  1.2786  1.5122  0.4592
  725MOL0     H    4   2.678   7.284   6.919 -1.6746  0.2466  1.2016
  725MOL0     H    5   2.703   7.111   6.865  0.1606 -0.2562 -0.2748
  725MOL0     H    6   2.719   7.154   6.647  0.1263 -2.0998  1.8145
  725MOL0     H    7   2.682   7.330   6.678  1.5859 -0.7942 -1.6975
  725MOL0     H    8   2.734   7.487   6.828 -1.2305  0.9312 -1.9450
  725MOL0     H    9   2.713   7.689   6.914 -0.6407 -0.1308 -1.7360
  725MOL0     H   10   2.771   7.795   6.788  3.0833 -1.0332 -2.5211
  725MOL0     H   11   2.854   7.782   6.959  0.9489  1.4863 -1.7596
  725MOL0     H   12   3.167   7.961   6.522  0.8545 -3.9979  2.7200
  725MOL0     H   13   3.264   8.207   6.501 -0.0047  4.3821  3.4782
  725MOL0     H   14   3.329   8.472   6.745 -1.5149 -0.1760  1.7821
  725MOL0     H   15   3.329   8.353   6.867  1.5712 -4.5876 -1.7097
  725MOL0     H   16   3.592   8.408   6.892  0.9858 -0.9033 -2.2222
  725MOL0     H   17   3.586   8.521   6.763 -0.3252  1.3890  1.0804
  725MOL0     H   18   3.400   8.554   7.003 -1.5616  1.3927 -0.2795
  725MOL0     H   19   3.398   8.642   6.850  1.0805 -1.9989 -2.1386
  725MOL0     H   20   3.569   8.796   6.905  3.0620  1.9618  2.0028
  725MOL0     H   21   3.676   8.664   6.933 -1.2225 -1.3007 -2.0252
  725MOL0     H   22   3.467   8.799   7.110 -0.7092 -0.1862 -1.2274
  725MOL0     H   23   3.525   8.633   7.146  0.0102 -0.8906  0.8115
  725MOL0     H   24   3.743   8.692   7.198  0.0720  0.7981 -0.4623
  725MOL0     H   25   3.645   8.802   7.285 -0.0709  1.6797 -0.2228
  725MOL0     H   26   3.699   8.975   7.092 -1.5779  0.2821  2.8935
  725MOL0     H   27   3.791   8.841   7.000  4.7295 -1.9622  2.0283
  725MOL0     H   28   3.934   8.819   7.202  0.7819  0.7657  0.5155
  725MOL0     H   29   3.883   8.986   7.237  1.2950 -1.6543  3.1620
  725MOL0     H   30   3.461   8.133   6.875  0.1785 -1.5188  1.4462
  725MOL0     H   31   3.362   7.910   6.895  0.3065  1.9546  1.5189
  725MOL0     H   32   3.192   7.569   6.658 -0.6408  0.8367  0.5172
  725MOL0     H   33   3.091   7.331   6.659 -0.3953 -0.7462 -0.2103
  725MOL0     H   34   1.112   7.289   6.664  0.0281 -0.5359 -0.1811
  725MOL0     H   35   0.858   7.309   6.655  0.8051 -0.4229  0.9791
  725MOL0     H   36   0.516   7.391   6.441  1.3994  0.0228  1.9203
  725MOL0     H   37   0.269   7.427   6.414  1.0113  0.4544 -0.2615
  725MOL0     H   38   0.074   7.197   6.253 -0.0014 -0.2273 -0.8231
  725MOL0     H   39  -0.093   7.239   6.309  0.2708  0.3763  0.2684
  725MOL0     H   40   0.140   7.406   6.218 -0.1685  0.9284 -0.0623
  725MOL0     H   41   0.032   7.488   6.331  0.5891  2.2684 -1.6179
  725MOL0     H   42  -0.065   7.406   6.046  0.3868  2.0509 -0.5729
  725MOL0     H   43  -0.166   7.414   6.178 -2.0686 -1.6454 -3.5052
  725MOL0     H   44  -0.036   7.669   6.198 -0.0458  0.6439 -0.0117
  725MOL0     H   45  -0.155   7.640   6.073  0.3209 -1.0746  1.3576
  725MOL0     H   46   0.152   7.689   5.819 -1.9613  1.3643 -0.6647
  725MOL0     H   47   0.194   7.029   6.544 -0.5808  1.8440  3.0225
  725MOL0     H   48   0.506   6.894   6.501 -0.7947  0.8694 -1.2491
  725MOL0     H   49   0.486   6.936   6.669  0.3424 -1.7701  0.6030
  725MOL0     H   50   0.349   6.873   6.577 -0.5846  0.7577  0.1767
  726MOL0     O   51   1.305   8.047   6.378 -0.1512 -0.5837 -0.3318
  726MOL0     C   52   1.282   8.072   6.498 -0.4288 -0.1990 -0.2696
  726MOL0     O   53   1.162   8.104   6.545 -0.3061 -0.5330 -0.1956
  726MOL0     C   54   1.051   8.118   6.461  0.0917  0.2834  0.0742
  726MOL0     C   55   1.052   8.155   6.323  0.1861 -0.2102  0.2190
  726MOL0     C   56   0.937   8.156   6.250 -0.2122 -0.3108  0.2570
  726MOL0     C   57   0.821   8.100   6.307  1.2356 -1.0736  0.8422
  726MOL0     O   58   0.690   8.101   6.246 -0.3907  0.0163  0.2860
  726MOL0     C   59   0.676   8.130   6.104 -0.3672  0.3105  0.3446
  726MOL0     C   60   0.519   8.117   6.053 -0.7329  0.1337 -0.2839
  726MOL0     C   61   0.461   7.984   6.106  0.1490  0.6041 -0.3206
  726MOL0     C   62   0.316   7.967   6.054 -0.3016 -0.5950  0.4330
  726MOL0     C   63   0.211   8.025   6.151  0.7808  1.0623  0.0906
  726MOL0     C   64   0.078   7.966   6.132  0.0849  0.6093 -0.9123
  726MOL0     C   65  -0.033   8.009   6.237  1.7117  0.6354 -0.2359
  726MOL0     C   66  -0.039   7.935   6.371  0.5659 -0.1264 -1.3887
  726MOL0     N   67  -0.109   7.991   6.483  0.1135  0.1826  0.4006
  726MOL0     C   68  -0.240   7.981   6.531  0.0572 -0.2206  0.4642
  726MOL0     C   69  -0.237   8.032   6.654 -0.6145  0.0157 -0.8187
  726MOL0     C   70  -0.333   8.036   6.756 -0.2233 -0.3523 -0.1200
  726MOL0     C   71  -0.321   7.908   6.854 -0.1338  0.7133  0.6563
  726MOL0     C   72  -0.407   7.942   6.977 -0.0752  0.0764 -0.9968
  726MOL0     C   73  -0.405   7.831   7.087 -1.0384 -0.5176 -0.2797
  726MOL0     O   74  -0.288   7.859   7.162 -1.1747 -0.6018 -0.5878
  726MOL0     C   75  -0.255   7.783   7.272 -0.1023 -0.7340 -0.1132
  726MOL0     C   76  -0.324   7.676   7.310  0.2088  0.2271 -0.0175
  726MOL0     C   77  -0.293   7.607   7.433  0.4261 -0.9704  0.7037
  726MOL0     C   78  -0.376   7.482   7.456  0.2943  0.4520 -0.6059
  726MOL0     C   79  -0.189   7.656   7.517 -0.4201  0.5225 -0.4359
  726MOL0     C   80  -0.181   7.597   7.652  0.0189  0.1440 -1.1920
  726MOL0     O   81  -0.289   7.619   7.725 -0.1623  0.2536 -0.7088
  726MOL0     C   82  -0.308   7.544   7.839 -1.1661  0.8542  0.3793
  726MOL0     C   83  -0.318   7.407   7.834  0.3954  0.6158 -0.6036
  726MOL0     C   84  -0.340   7.336   7.948  0.8423 -0.1007 -0.0628
  726MOL0     C   85  -0.341   7.402   8.076 -0.1036 -0.6946  0.1987
  726MOL0     O   86  -0.365   7.338   8.198  0.9232 -0.3617  0.4951
  726MOL0     C   87  -0.435   7.210   8.191 -0.8389 -0.9639 -0.1658
  726MOL0     C   88  -0.517   7.199   8.307 -0.1575  0.2566 -0.1932
  726MOL0     C   89  -0.601   7.077   8.303  0.1730  0.2734 -0.5112
  726MOL0     C   90  -0.670   7.034   8.439  0.1340 -0.8034 -0.4629
  726MOL0     C   91  -0.740   6.902   8.417  0.6965  0.4936 -0.4991
  726MOL0     C   92  -0.817   6.835   8.539 -0.2241 -0.3014 -0.2237
  726MOL0     C   93  -0.932   6.932   8.589 -1.0477  0.0442 -0.2295
  726MOL0     C   94  -1.015   6.871   8.699  0.8883  0.2233 -0.1345
  726MOL0    Cl   95  -1.114   7.006   8.763 -0.0797  0.2632 -0.2580
  726MOL0     C   96  -0.334   7.540   8.077 -0.8212  0.7665 -0.0029
  726MOL0     C   97  -0.319   7.610   7.960  0.1826 -0.0817 -0.9520
  726MOL0     O   98  -0.089   7.527   7.688 -0.0019 -0.3970 -0.5085
  726MOL0     C   99  -0.116   7.768   7.471 -0.2370 -0.3725  0.0644
  726MOL0     C  100  -0.145   7.829   7.350 -0.1618  0.1632  0.6310
  726MOL0     N  101  -0.113   8.098   6.671 -0.4819  0.0887  0.4184
  726MOL0     N  102  -0.034   8.068   6.567  0.4214  0.3278  0.0483
  726MOL0     C  103   0.818   8.060   6.448  1.0323  0.5056  0.0799
  726MOL0     C  104   0.931   8.075   6.521 -0.6901 -0.1434 -0.8696
  726MOL0     C  105   1.396   8.057   6.591 -0.2868  0.5849  0.3095
  726MOL0     C  106   1.521   8.017   6.544  0.4707  0.2851  0.0861
  726MOL0     C  107   1.625   7.989   6.626 -0.6798 -0.1995 -0.2081
  726MOL0     C  108   1.626   8.019   6.755 -0.3581 -0.3576 -0.8608
  726MOL0     O  109   1.731   8.007   6.851 -0.0056 -0.0841 -0.1186
  726MOL0     C  110   1.814   7.892   6.826  0.0306 -0.0843 -0.0361
  726MOL0     C  111   1.941   7.922   6.907  0.4846  0.0720  0.0821
  726MOL0     C  112   1.931   7.897   7.062 -0.5914  0.0904 -0.3626
  726MOL0     C  113   2.073   7.875   7.113 -0.1822  0.1404 -1.2481
  726MOL0     C  114   2.122   7.741   7.086 -0.2561 -0.0684 -0.4307
  726MOL0     C  115   2.148   7.633   7.036  1.0406 -0.4833  0.5894
  726MOL0     C  116   1.507   8.075   6.807  0.3792  0.3428 -0.4869
  726MOL0     C  117   1.389   8.081   6.736  0.8342  0.3853  0.5255
  726MOL0     C  118   1.263   8.124   6.804 -0.6456  0.3952  0.5753
  726MOL0     H  119   1.145   8.189   6.279  0.2339  2.2586  2.0379
  726MOL0     H  120   0.946   8.196   6.150 -2.0190  0.2150  0.2550
  726MOL0     H  121   0.748   8.064   6.054  0.4640 -1.3553  3.4409
  726MOL0     H  122   0.712   8.231   6.083 -0.3451 -0.2172 -2.5123
  726MOL0     H  123   0.459   8.196   6.098 -0.3785  0.0987  0.2559
  726MOL0     H  124   0.515   8.123   5.944  1.0098 -0.0379 -0.3954
  726MOL0     H  125   0.516   7.902   6.059 -1.6375 -0.3697 -0.7896
  726MOL0     H  126   0.469   7.968   6.214  0.3077  2.4064 -0.0228
  726MOL0     H  127   0.300   7.996   5.950  0.2087 -1.9889 -0.0677
  726MOL0     H  128   0.291   7.860   6.054  1.1513 -1.0232 -2.6628
  726MOL0     H  129   0.201   8.132   6.131 -1.6936  0.5125 -2.0838
  726MOL0     H  130   0.233   7.991   6.253 -0.5691 -2.6790 -0.7338
  726MOL0     H  131   0.049   7.998   6.031  0.4971 -1.6291 -1.8118
  726MOL0     H  132   0.087   7.858   6.145 -3.1299  0.5334  2.0548
  726MOL0     H  133  -0.134   8.004   6.196  0.1153 -2.2003  3.5300
  726MOL0     H  134  -0.022   8.114   6.268 -3.6086  1.0512  1.1749
  726MOL0     H  135  -0.078   7.833   6.357 -1.7154  0.4354  0.3214
  726MOL0     H  136   0.064   7.926   6.405 -0.0616  1.7091  1.2688
  726MOL0     H  137  -0.326   7.936   6.482 -0.1354  1.0976 -0.4420
  726MOL0     H  138  -0.436   8.044   6.718  0.0329  0.1226 -0.7241
  726MOL0     H  139  -0.313   8.126   6.814 -0.2460 -2.4481  3.4894
  726MOL0     H  140  -0.353   7.816   6.803  0.5489  0.6791  0.2746
  726MOL0     H  141  -0.221   7.880   6.889 -0.5867  1.5329  2.7126
  726MOL0     H  142  -0.384   8.040   7.019  0.5449 -0.0971 -0.9180
  726MOL0     H  143  -0.506   7.943   6.930 -0.3734  2.4653 -0.4280
  726MOL0     H  144  -0.485   7.852   7.158 -0.9858 -3.2158  0.7009
  726MOL0     H  145  -0.406   7.725   7.060  3.4539 -1.1674  1.2030
  726MOL0     H  146  -0.396   7.638   7.238 -0.3115  0.7421  0.2211
  726MOL0     H  147  -0.472   7.491   7.404 -0.4475  2.2136  0.9406
  726MOL0     H  148  -0.392   7.462   7.562 -2.2776 -0.5931 -1.1284
  726MOL0     H  149  -0.318   7.397   7.419  1.8242  1.1458  0.1082
  726MOL0     H  150  -0.318   7.352   7.740 -1.2798  3.2729 -2.2795
  726MOL0     H  151  -0.359   7.230   7.931  1.3947 -0.3888  1.0312
  726MOL0     H  152  -0.494   7.194   8.100  0.9495 -2.7264 -1.1189
  726MOL0     H  153  -0.356   7.134   8.181  1.1032  1.2294 -3.6541
  726MOL0     H  154  -0.452   7.196   8.395  0.7929 -1.1023 -0.9016
  726MOL0     H  155  -0.571   7.294   8.302  0.2739  0.5456  0.4637
  726MOL0     H  156  -0.526   6.999   8.288  0.5927 -0.1372  3.0340
  726MOL0     H  157  -0.672   7.073   8.219 -2.1191  1.3614  1.2550
  726MOL0     H  158  -0.738   7.112   8.475 -0.1480 -1.8907  1.4488
  726MOL0     H  159  -0.593   7.017   8.514  2.0066 -1.3959 -2.4068
  726MOL0     H  160  -0.801   6.916   8.328  1.0687 -0.2250 -0.8773
  726MOL0     H  161  -0.666   6.828   8.385  0.4193 -1.2988  2.6051
  726MOL0     H  162  -0.753   6.816   8.625  1.9504 -2.2953 -2.1210
  726MOL0     H  163  -0.860   6.743   8.497 -0.9432  1.1726 -2.9848
  726MOL0     H  164  -1.001   6.947   8.505 -1.6765  0.8943  0.4219
  726MOL0     H  165  -0.889   7.029   8.616 -1.3377 -0.6714  3.1541
  726MOL0     H  166  -0.959   6.833   8.785  2.2685 -1.5599 -1.7523
  726MOL0     H  167  -1.082   6.791   8.666  1.7810 -0.3627 -0.5556
  726MOL0     H  168  -0.343   7.591   8.172  2.3146  1.1880  0.1718
  726MOL0     H  169  -0.312   7.718   7.967  4.1194 -0.2970  0.7358
  726MOL0     H  170  -0.040   7.809   7.537  0.7038 -1.4986 -0.3113
  726MOL0     H  171  -0.107   7.930   7.337 -0.7651  0.5892  1.9700
  726MOL0     H  172   0.722   8.025   6.485  2.2341 -2.8751  0.3701
  726MOL0     H  173   0.934   8.054   6.627  1.8019 -0.1841 -0.8971
  726MOL0     H  174   1.544   7.984   6.443  1.0559 -2.8955  1.1286
  726MOL0     H  175   1.718   7.958   6.578  0.2144  2.2454 -0.2013
  726MOL0     H  176   1.774   7.798   6.865 -1.5513  1.0357  1.1637
  726MOL0     H  177   1.829   7.870   6.720  0.6954 -3.4679  0.6341
  726MOL0     H  178   1.992   8.017   6.896  2.5118 -0.6247  2.4404
  726MOL0     H  179   2.017   7.851   6.872 -0.4696 -1.5086  1.0705
  726MOL0     H  180   1.890   7.986   7.112 -1.9292 -0.5165 -0.3265
  726MOL0     H  181   1.857   7.819   7.084 -1.7767  1.3148  0.1644
  726MOL0     H  182   2.068   7.877   7.222  2.5854 -0.2328 -1.0456
  726MOL0     H  183   2.151   7.949   7.096 -1.7679  2.5448  1.1935
  726MOL0     H  184   2.169   7.537   6.994 -0.4659 -0.4432 -0.2965
  726MOL0     H  185   1.493   8.097   6.913 -3.5907 -0.3873 -0.7074
  726MOL0     H  186   1.232   8.218   6.758  0.5403  0.1398 -0.8323
  726MOL0     H  187   1.184   8.049   6.790  1.2120 -1.5570  0.0772
  726MOL0     H  188   1.274   8.129   6.912  1.7199  1.1117  0.3525
  727MOL0     O  189   9.536   4.031  10.000  1.1564 -0.3423  0.0573
  727MOL0     C  190   9.569   4.146  10.034  0.8114  0.7921  0.3981
  727MOL0     O  191   9.675   4.182  10.107  0.2730 -0.0852 -0.1059
  727MOL0     C  192   9.763   4.081  10.142  0.1713  0.4105  0.8394
  727MOL0     C  193   9.895   4.104  10.091 -0.7023  0.3937 -0.9530
  727MOL0     C  194   9.986   4.003  10.138 -0.2101 -0.4264  0.5910
  727MOL0     C  195   9.949   3.891  10.216  1.1680  0.8074  1.4804
  727MOL0     O  196  10.027   3.788  10.253  0.2575  0.1235  0.2978
  727MOL0     C  197  10.130   3.743  10.165  0.2042  0.9886  1.0638
  727MOL0     C  198  10.201   3.623  10.231 -1.4525 -0.0330 -0.0431
  727MOL0     C  199  10.321   3.585  10.138 -0.0550  0.5423  0.4638
  727MOL0     C  200  10.446   3.661  10.172 -0.7853 -0.5155  1.2166
  727MOL0     C  201  10.577   3.586  10.125  0.9637  0.5749 -0.1994
  727MOL0     C  202  10.718   3.640  10.177 -0.4989 -0.4544 -0.6064
  727MOL0     C  203  10.839   3.597  10.091 -1.0143  1.0628 -0.1157
  727MOL0     C  204  10.859   3.442  10.090  0.5437 -0.4484 -0.2573
  727MOL0     N  205  10.933   3.403  10.214  0.1721 -1.4329  0.5071
  727MOL0     C  206  10.886   3.369  10.344 -0.9357  0.3343  0.0591
  727MOL0     C  207  10.993   3.316  10.411 -0.2231 -0.4123 -0.5003
  727MOL0     C  208  11.009   3.256  10.550 -0.6831 -0.9155  0.4823
  727MOL0     C  209  10.970   3.371  10.651 -0.2735  0.6874 -0.7675
  727MOL0     C  210  10.979   3.306  10.794 -0.7832 -0.2651 -0.3770
  727MOL0     C  211  10.922   3.407  10.897  0.0286 -0.7606 -0.5163
  727MOL0     O  212  10.775   3.415  10.885 -0.1744 -0.4619  0.0660
  727MOL0     C  213  10.705   3.355  10.987  0.2376 -0.3917  0.2413
  727MOL0     C  214  10.643   3.231  10.982 -0.0694 -0.6714  0.4910
  727MOL0     C  215  10.579   3.178  11.088 -0.4068  0.1339  0.2463
  727MOL0     C  216  10.502   3.058  11.060 -0.1571 -0.6787 -1.0655
  727MOL0     C  217  10.582   3.241  11.211 -0.3027 -0.7334  0.2523
  727MOL0     C  218  10.533   3.181  11.343 -0.9587 -0.2160  0.3842
  727MOL0     O  219  10.544   3.261  11.454 -0.5026 -0.5915  0.7981
  727MOL0     C  220  10.458   3.219  11.556 -0.8387 -0.4867 -0.1278
  727MOL0     C  221  10.521   3.198  11.682  0.2835  0.2654  0.3384
  727MOL0     C  222  10.445   3.173  11.800  0.0667  0.5578  0.5695
  727MOL0     C  223  10.308   3.175  11.793  0.6673 -0.7932  0.7105
  727MOL0     O  224  10.248   3.141  11.906  0.1721  0.3550  0.1193
  727MOL0     C  225  10.109   3.150  11.911  0.8449  0.5275 -0.3599
  727MOL0     C  226  10.068   3.142  12.063 -0.5759  0.6877 -0.1828
  727MOL0     C  227  10.102   3.009  12.141  0.7097  0.7396 -0.2013
  727MOL0     C  228  10.067   3.034  12.285  1.0216 -0.0531  0.7994
  727MOL0     C  229  10.062   2.900  12.356 -0.1944 -0.3248 -0.3370
  727MOL0     C  230  10.048   2.930  12.508  1.2129  0.4057 -0.0616
  727MOL0     C  231   9.911   2.997  12.557 -0.1960 -0.7960 -0.8481
  727MOL0     C  232   9.886   2.983  12.709 -0.4943 -0.8438 -0.2643
  727MOL0    Cl  233  10.010   3.033  12.821 -0.2710 -0.1003 -0.3185
  727MOL0     C  234  10.236   3.189  11.665 -0.1468 -0.7574  0.6860
  727MOL0     C  235  10.314   3.209  11.541 -0.4485 -0.0656  0.4282
  727MOL0     O  236  10.487   3.069  11.341 -0.6186 -0.7604 -0.6244
  727MOL0     C  237  10.631   3.378  11.218 -0.6433  1.1649  1.0315
  727MOL0     C  238  10.695   3.432  11.107 -0.6145 -0.2394  1.0077
  727MOL0     N  239  11.099   3.336  10.324  0.4182 -0.2247  0.6553
  727MOL0     N  240  11.066   3.390  10.221 -0.2352  0.1781 -0.1055
  727MOL0     C  241   9.818   3.894  10.265 -0.3847  0.1627  0.0617
  727MOL0     C  242   9.726   3.988  10.234 -0.6616  0.3857  0.6409
  727MOL0     C  243   9.479   4.259   9.992 -0.1105  0.1618  0.5443
  727MOL0     C  244   9.535   4.389   9.971 -0.6757  1.2734  0.0526
  727MOL0     C  245   9.453   4.494   9.949  1.2151 -0.0079  0.6189
  727MOL0     C  246   9.317   4.484   9.929  0.0783  1.5265 -0.1772
  727MOL0     O  247   9.241   4.579   9.877 -0.2808  0.1461 -0.8183
  727MOL0     C  248   9.269   4.721   9.894  0.2559  0.5406  0.3388
  727MOL0     C  249   9.136   4.806   9.883 -0.4503 -0.6527 -0.6903
  727MOL0     C  250   9.147   4.944   9.941  0.1254 -0.0489  0.0907
  727MOL0     C  251   9.016   5.028   9.949 -0.0815  0.0153  0.0028
  727MOL0     C  252   8.975   5.067   9.808  0.3718  0.0617 -0.3726
  727MOL0     C  253   8.961   5.104   9.692  0.0594  0.5502 -0.0272
  727MOL0     C  254   9.259   4.359   9.951  0.4773 -0.4991 -0.1820
  727MOL0     C  255   9.334   4.247   9.974 -0.4583  0.2655 -0.8965
  727MOL0     C  256   9.268   4.120  10.010 -0.3304 -0.0648 -0.3418
  727MOL0     H  257   9.922   4.190  10.032  4.1848 -0.7990 -0.9183
  727MOL0     H  258  10.090   4.006  10.108 -1.2391  2.8111 -3.7108
  727MOL0     H  259  10.195   3.830  10.150 -3.0417  3.7323  1.7702
  727MOL0     H  260  10.096   3.704  10.068  1.3566  1.5341  0.4164
  727MOL0     H  261  10.236   3.647  10.332  0.2095 -2.9957  0.1814
  727MOL0     H  262  10.128   3.542  10.225 -1.3413 -0.0310 -3.7892
  727MOL0     H  263  10.347   3.481  10.162  1.0766  0.4481 -1.0175
  727MOL0     H  264  10.285   3.607  10.037  0.8354 -4.2120 -1.1706
  727MOL0     H  265  10.432   3.764  10.137 -3.4478 -0.9389  0.8595
  727MOL0     H  266  10.470   3.672  10.278  1.4088 -1.4230  0.8688
  727MOL0     H  267  10.587   3.584  10.017 -0.0035 -1.3485 -0.2937
  727MOL0     H  268  10.556   3.487  10.167  0.9902  0.6964  0.1099
  727MOL0     H  269  10.711   3.748  10.161 -1.9359 -0.3562  0.5010
  727MOL0     H  270  10.725   3.616  10.283 -1.8593 -1.1709 -0.6662
  727MOL0     H  271  10.937   3.633  10.121 -0.5952  0.8895 -1.2285
  727MOL0     H  272  10.842   3.629   9.987  1.8515 -0.7555 -0.6921
  727MOL0     H  273  10.761   3.395  10.086  0.2813  0.1220 -3.5453
  727MOL0     H  274  10.924   3.412  10.007  3.0661  4.7159 -0.5343
  727MOL0     H  275  10.788   3.388  10.386 -2.5497 -2.7192 -1.9680
  727MOL0     H  276  11.114   3.229  10.563  0.6536  3.6914  0.9020
  727MOL0     H  277  10.946   3.166  10.557 -3.7284  1.1069  1.0301
  727MOL0     H  278  11.034   3.459  10.637  3.2775 -1.3244  1.1565
  727MOL0     H  279  10.864   3.390  10.638 -0.8474 -0.9059  1.0659
  727MOL0     H  280  10.914   3.218  10.795 -2.5912  0.8781 -3.5155
  727MOL0     H  281  11.081   3.280  10.824 -0.4848 -0.0393 -1.1759
  727MOL0     H  282  10.951   3.374  10.997  0.6051  3.0319  0.7169
  727MOL0     H  283  10.969   3.506  10.892 -2.2221  0.3638 -0.7441
  727MOL0     H  284  10.641   3.189  10.881  0.0385  1.7717 -0.5962
  727MOL0     H  285  10.552   2.972  11.106 -2.3590 -1.9198 -0.8165
  727MOL0     H  286  10.479   3.038  10.955 -1.5160 -1.3844 -0.6660
  727MOL0     H  287  10.405   3.072  11.110 -0.1051  0.9008 -1.3489
  727MOL0     H  288  10.628   3.212  11.683  0.6409 -0.2967 -4.7383
  727MOL0     H  289  10.485   3.185  11.900  1.1419 -0.4948  0.2918
  727MOL0     H  290  10.074   3.246  11.871  2.3909  0.9781 -0.6946
  727MOL0     H  291  10.060   3.067  11.860  0.6665  1.1814 -1.2857
  727MOL0     H  292  10.116   3.230  12.107 -2.2909  2.4680 -1.6767
  727MOL0     H  293   9.959   3.148  12.054 -0.8863 -2.4869  0.1450
  727MOL0     H  294  10.204   2.975  12.122  0.1812 -0.0586 -1.8296
  727MOL0     H  295  10.039   2.927  12.105  1.4596  0.5756 -1.1941
  727MOL0     H  296   9.971   3.085  12.291  0.4967 -0.7375 -1.0599
  727MOL0     H  297  10.146   3.090  12.335  1.8198 -0.5361  0.0977
  727MOL0     H  298   9.980   2.837  12.320 -0.1055  0.2837 -1.6616
  727MOL0     H  299  10.158   2.848  12.350  0.6373  1.2695 -2.5814
  727MOL0     H  300  10.123   3.002  12.540  3.0612 -1.7352  0.6916
  727MOL0     H  301  10.056   2.831  12.554  0.9919 -0.3924 -1.6698
  727MOL0     H  302   9.829   2.957  12.497 -0.9146  3.2620 -2.9297
  727MOL0     H  303   9.907   3.104  12.535  2.3033 -0.3768  0.4558
  727MOL0     H  304   9.882   2.874  12.715 -0.0869 -0.7732  2.0599
  727MOL0     H  305   9.784   3.011  12.740 -0.0288 -1.7440  2.3013
  727MOL0     H  306  10.131   3.167  11.654 -0.3108  0.1892  0.2183
  727MOL0     H  307  10.253   3.221  11.452 -0.6902  0.4627  0.6613
  727MOL0     H  308  10.636   3.432  11.312 -1.6774  2.4470  0.3669
  727MOL0     H  309  10.742   3.528  11.124  0.7394  0.5179 -4.7590
  727MOL0     H  310   9.786   3.809  10.324  2.3318 -0.2858  1.0240
  727MOL0     H  311   9.623   3.982  10.268  0.0073 -3.0605  2.4919
  727MOL0     H  312   9.642   4.400   9.957 -0.7417  1.2057 -0.5074
  727MOL0     H  313   9.499   4.592   9.938 -1.3682  1.2837  0.5073
  727MOL0     H  314   9.319   4.747   9.988  2.3780 -0.6099 -0.3952
  727MOL0     H  315   9.344   4.739   9.817  2.6142 -1.4913  1.9754
  727MOL0     H  316   9.056   4.756   9.939  0.3592  1.6380  2.9108
  727MOL0     H  317   9.126   4.828   9.777  1.8376  3.5939 -0.2657
  727MOL0     H  318   9.198   4.945  10.038 -1.4304  1.6346  0.9580
  727MOL0     H  319   9.210   5.008   9.879 -0.7953  0.0857 -0.7374
  727MOL0     H  320   9.032   5.123  10.001  0.4056 -0.1136  0.0949
  727MOL0     H  321   8.950   4.959  10.002  1.1742 -1.4228 -0.2388
  727MOL0     H  322   8.928   5.124   9.592 -3.7965 -2.8122  0.2832
  727MOL0     H  323   9.152   4.344   9.962  0.6130 -0.4421  1.4721
  727MOL0     H  324   9.160   4.121   9.991  0.0193  0.0072 -2.6277
  727MOL0     H  325   9.301   4.039   9.944  2.0242 -2.4489  3.3927
  727MOL0     H  326   9.293   4.086  10.111  0.4395 -2.1573 -1.1685
  728MOL0     O  327   1.856  10.622   9.230 -0.8626  0.0388 -0.5263
  728MOL0     C  328   1.786  10.707   9.276  0.0717 -0.3097 -0.4228
  728MOL0     O  329   1.702  10.777   9.205 -0.3583  0.3064  0.5667
  728MOL0     C  330   1.661  10.723   9.085  0.6993 -1.1724  0.3516
  728MOL0     C  331   1.543  10.643   9.082  0.3638  0.2202  0.0998
  728MOL0     C  332   1.489  10.613   8.950 -0.4965  0.1004 -0.1450
  728MOL0     C  333   1.562  10.636   8.835  0.6890  0.5076  0.1224
  728MOL0     O  334   1.523  10.587   8.712  1.1969  0.2247  0.1695
  728MOL0     C  335   1.408  10.659   8.664  0.1331 -0.1495  0.8438
  728MOL0     C  336   1.322  10.541   8.619 -0.8209  0.4922  0.6696
  728MOL0     C  337   1.374  10.479   8.488  0.0477  0.1910 -0.3236
  728MOL0     C  338   1.314  10.551   8.368 -0.8023  0.1702 -0.2833
  728MOL0     C  339   1.358  10.540   8.222 -0.2043 -0.3329 -0.1695
  728MOL0     C  340   1.340  10.395   8.180  0.3744 -0.0179 -0.4728
  728MOL0     C  341   1.347  10.382   8.022  0.3593 -0.7997  0.1221
  728MOL0     C  342   1.488  10.403   7.971  0.1641  0.3221  0.1535
  728MOL0     N  343   1.487  10.355   7.831 -0.3427  0.9823  0.8713
  728MOL0     C  344   1.496  10.224   7.784  0.5656  1.2567  1.8885
  728MOL0     C  345   1.492  10.244   7.652 -0.1972  0.2048  0.2446
  728MOL0     C  346   1.506  10.142   7.537 -0.3304  0.3312  0.8559
  728MOL0     C  347   1.654  10.107   7.516  1.1130 -0.3972 -0.2901
  728MOL0     C  348   1.709  10.011   7.620  0.2454  0.0089 -0.1360
  728MOL0     C  349   1.859   9.986   7.586  0.6007 -0.9896  0.1199
  728MOL0     O  350   1.888   9.875   7.671  0.5356  0.6919  0.7446
  728MOL0     C  351   1.998   9.809   7.621 -0.0887 -0.2937 -0.4562
  728MOL0     C  352   2.000   9.675   7.594  0.3386 -0.6362 -0.3589
  728MOL0     C  353   2.104   9.598   7.535 -0.4198  1.2979 -0.0644
  728MOL0     C  354   2.085   9.447   7.511 -0.1139 -0.5887 -0.1771
  728MOL0     C  355   2.225   9.660   7.523 -0.5427  0.2584  0.0444
  728MOL0     C  356   2.346   9.594   7.475  0.7291 -0.2532  1.0147
  728MOL0     O  357   2.333   9.489   7.393  0.1525 -0.3410 -0.0985
  728MOL0     C  358   2.445   9.443   7.336 -0.7876  0.3358 -0.4037
  728MOL0     C  359   2.520   9.344   7.399 -0.0088  0.8659 -0.6249
  728MOL0     C  360   2.617   9.268   7.337  0.0786 -0.4251 -0.2055
  728MOL0     C  361   2.662   9.312   7.213  0.2940 -0.4244 -0.6464
  728MOL0     O  362   2.765   9.238   7.163  0.0791 -0.3951 -0.3516
  728MOL0     C  363   2.723   9.124   7.095 -0.1700  0.0577  0.1553
  728MOL0     C  364   2.835   9.018   7.097  0.0812  0.3414  1.1516
  728MOL0     C  365   2.801   8.906   6.985  0.0359 -0.0921 -0.1367
  728MOL0     C  366   2.666   8.835   7.008 -0.2437  0.4919  0.2611
  728MOL0     C  367   2.659   8.691   6.939 -0.9884 -0.3663  0.0324
  728MOL0     C  368   2.521   8.650   6.895  0.0028  0.1081 -0.1743
  728MOL0     C  369   2.439   8.641   7.022  0.8952 -0.1483  0.2419
  728MOL0     C  370   2.304   8.563   7.003 -0.4466 -0.0536 -0.5442
  728MOL0    Cl  371   2.303   8.432   6.885 -0.2396 -0.0873  0.4308
  728MOL0     C  372   2.600   9.421   7.140 -0.7707  1.0983 -0.2944
  728MOL0     C  373   2.482   9.482   7.202 -0.1048 -0.7026 -0.0594
  728MOL0     O  374   2.447   9.622   7.533  0.1573 -0.6363  0.3481
  728MOL0     C  375   2.235   9.797   7.553  0.1958  1.2188  0.0273
  728MOL0     C  376   2.118   9.876   7.589 -0.4590 -0.0357 -0.1027
  728MOL0     N  377   1.495  10.377   7.617 -0.2693  0.0106  0.2201
  728MOL0     N  378   1.478  10.441   7.723 -0.4804  0.3862 -0.0814
  728MOL0     C  379   1.682  10.707   8.846 -0.1306  1.0527 -0.1373
  728MOL0     C  380   1.731  10.746   8.971 -0.4930 -1.5060 -0.1955
  728MOL0     C  381   1.818  10.742   9.415  2.0182 -1.2988  0.2326
  728MOL0     C  382   1.702  10.737   9.486 -0.4650  0.0484  0.6257
  728MOL0     C  383   1.705  10.771   9.619 -0.0379 -0.6896 -0.3951
  728MOL0     C  384   1.831  10.799   9.683 -0.1889 -0.2313 -0.5704
  728MOL0     O  385   1.842  10.836   9.817  0.3752  0.0916 -0.3912
  728MOL0     C  386   1.959  10.837   9.906 -0.0862  0.4186 -0.0492
  728MOL0     C  387   1.920  10.889  10.041  0.1928 -0.0672  0.1703
  728MOL0     C  388   1.873  11.032  10.028 -0.0901  0.8763 -0.5921
  728MOL0     C  389   2.001  11.120   9.994 -0.8194  0.1982 -0.3597
  728MOL0     C  390   1.992  11.165   9.855 -0.0459  0.5239 -0.0656
  728MOL0     C  391   1.993  11.189   9.740  0.7074 -0.1878  0.7120
  728MOL0     C  392   1.953  10.788   9.611  0.6171  0.3002  1.0036
  728MOL0     C  393   1.944  10.759   9.469  0.9818  0.1166  0.3738
  728MOL0     C  394   2.069  10.765   9.375 -0.1545 -0.0322  0.7996
  728MOL0     H  395   1.502  10.609   9.177  1.3698  0.9332  0.8255
  728MOL0     H  396   1.390  10.569   8.941  0.4209 -2.2897  0.5871
  728MOL0     H  397   1.424  10.718   8.574  0.3676 -2.2149 -0.5564
  728MOL0     H  398   1.371  10.723   8.744  0.7992 -1.3230  2.1288
  728MOL0     H  399   1.315  10.461   8.694  0.2114 -0.4808 -0.2389
  728MOL0     H  400   1.221  10.584   8.611 -0.6861  0.4771 -1.5849
  728MOL0     H  401   1.482  10.464   8.475 -0.2394  0.6328 -5.1696
  728MOL0     H  402   1.334  10.378   8.482  0.0490  0.1488  0.3236
  728MOL0     H  403   1.206  10.546   8.380 -0.3998 -2.0214  3.8329
  728MOL0     H  404   1.336  10.656   8.393 -1.8021  0.7778 -1.8048
  728MOL0     H  405   1.465  10.566   8.216 -0.2009 -0.1350  0.6452
  728MOL0     H  406   1.301  10.612   8.162  1.8574  1.1677 -0.4427
  728MOL0     H  407   1.414  10.326   8.223  0.8970 -0.3161 -1.8005
  728MOL0     H  408   1.239  10.367   8.211  1.5844 -0.7047  3.3516
  728MOL0     H  409   1.274  10.455   7.986 -1.3153 -1.6855  1.5755
  728MOL0     H  410   1.306  10.285   7.991  1.1823 -0.2981 -2.8683
  728MOL0     H  411   1.510  10.509   7.962 -2.5459  1.0133  0.8217
  728MOL0     H  412   1.562  10.364   8.042  0.8051 -0.1198 -0.7394
  728MOL0     H  413   1.497  10.132   7.842 -3.6613  1.1986  2.1944
  728MOL0     H  414   1.472  10.180   7.440 -2.5585 -4.0914 -0.3849
  728MOL0     H  415   1.460  10.044   7.555 -0.7370  0.3033 -0.2767
  728MOL0     H  416   1.672  10.058   7.420 -1.7642 -1.5678 -0.3449
  728MOL0     H  417   1.711  10.200   7.517 -2.4842  2.0495  1.1107
  728MOL0     H  418   1.694  10.047   7.723  0.4797 -0.3728  0.0322
  728MOL0     H  419   1.653   9.919   7.603  1.2721 -1.2939  2.8636
  728MOL0     H  420   1.874   9.956   7.482  0.0432  0.2656 -0.3461
  728MOL0     H  421   1.921  10.075   7.600 -2.0982  1.1292 -0.5728
  728MOL0     H  422   1.902   9.630   7.611  1.2442 -2.0360  1.5170
  728MOL0     H  423   2.141   9.378   7.574  0.3619  1.1224  1.3551
  728MOL0     H  424   2.116   9.419   7.409 -1.0427  1.4045 -1.0669
  728MOL0     H  425   1.977   9.434   7.523  0.0812 -1.8768  0.3918
  728MOL0     H  426   2.495   9.303   7.496  0.2581 -6.1308 -2.9111
  728MOL0     H  427   2.662   9.186   7.392  1.1127  0.1627 -0.1520
  728MOL0     H  428   2.636   9.073   7.139  0.8579 -1.5617  0.4060
  728MOL0     H  429   2.690   9.165   6.999  1.6079  1.8387  0.2574
  728MOL0     H  430   2.936   9.060   7.085  0.1594 -0.3662 -1.2074
  728MOL0     H  431   2.835   8.977   7.198  1.3435  1.4549  1.6407
  728MOL0     H  432   2.880   8.832   6.999 -0.9583 -1.4371 -1.4086
  728MOL0     H  433   2.799   8.957   6.888 -1.9135  2.4364  1.0929
  728MOL0     H  434   2.594   8.899   6.956  0.9884  0.9080 -0.9757
  728MOL0     H  435   2.654   8.821   7.116  2.4998 -0.3654  0.5355
  728MOL0     H  436   2.712   8.698   6.844  0.3954  3.2417  0.9265
  728MOL0     H  437   2.729   8.630   6.997  2.9185  1.6951 -2.1012
  728MOL0     H  438   2.522   8.556   6.839  2.4170 -0.0308 -0.0104
  728MOL0     H  439   2.471   8.724   6.832  0.7610  1.0540  0.3084
  728MOL0     H  440   2.418   8.744   7.052 -1.5480 -1.0324  1.8127
  728MOL0     H  441   2.492   8.582   7.097 -0.7554 -0.5996  1.0967
  728MOL0     H  442   2.221   8.632   6.985 -1.9042 -1.2318  1.2696
  728MOL0     H  443   2.284   8.505   7.094  0.9342 -0.3039 -0.3880
  728MOL0     H  444   2.635   9.462   7.046  0.4680  0.5666 -0.0890
  728MOL0     H  445   2.437   9.564   7.147  0.5060  1.0556  1.9617
  728MOL0     H  446   2.327   9.851   7.535  1.6865 -1.3565 -0.5251
  728MOL0     H  447   2.130   9.984   7.594 -1.2831  0.1368 -1.5052
  728MOL0     H  448   1.738  10.729   8.755 -3.4109 -2.4229 -3.3690
  728MOL0     H  449   1.817  10.810   8.986 -0.7478 -0.9843 -0.8824
  728MOL0     H  450   1.607  10.722   9.437  0.1968 -2.2754 -0.0712
  728MOL0     H  451   1.609  10.770   9.670 -0.9417 -2.8281 -1.9526
  728MOL0     H  452   1.996  10.737   9.927 -2.6477 -0.5235  0.3512
  728MOL0     H  453   2.038  10.898   9.861 -2.0281  3.6437  0.5949
  728MOL0     H  454   2.000  10.873  10.114  0.8093 -0.9809 -0.6730
  728MOL0     H  455   1.839  10.822  10.072 -0.1457 -0.2583 -1.0691
  728MOL0     H  456   1.791  11.044   9.957 -0.0148 -1.3250 -1.1109
  728MOL0     H  457   1.831  11.072  10.121 -2.2090 -3.4195  0.5262
  728MOL0     H  458   2.091  11.060  10.010 -1.9982 -1.9018 -1.1192
  728MOL0     H  459   2.002  11.205  10.062  1.3286  0.5132 -0.7167
  728MOL0     H  460   1.989  11.232   9.642 -2.0045  1.5624  1.4760
  728MOL0     H  461   2.046  10.797   9.666  0.2583 -0.6115  1.7849
  728MOL0     H  462   2.086  10.663   9.341  1.1452  0.3768  0.1679
  728MOL0     H  463   2.043  10.824   9.287  2.0580 -1.7683 -1.1413
  728MOL0     H  464   2.161  10.796   9.426  1.5059 -0.7662 -1.6052
  729MOL0     O  465   5.924   2.116   8.775 -0.0070 -0.9923  0.0417
  729MOL0     C  466   5.920   1.994   8.793 -0.7719 -0.6473  0.2822
  729MOL0     O  467   5.893   1.901   8.709 -0.4265 -0.0917  0.6446
  729MOL0     C  468   5.817   1.938   8.599 -0.2290  0.2603 -1.1683
  729MOL0     C  469   5.675   1.905   8.589 -0.6585  0.0812  0.3953
  729MOL0     C  470   5.602   1.947   8.476  0.6081  1.3203  0.3115
  729MOL0     C  471   5.658   2.027   8.370 -0.7266  0.2471  0.4342
  729MOL0     O  472   5.581   2.063   8.258 -0.2179  1.0005 -0.8703
  729MOL0     C  473   5.651   2.095   8.137 -0.0778 -0.7695  0.4207
  729MOL0     C  474   5.667   2.244   8.122  0.0692 -1.2968  0.7893
  729MOL0     C  475   5.723   2.288   7.989 -0.2692  0.6344  0.0451
  729MOL0     C  476   5.622   2.286   7.877  0.6997  0.6749 -0.0873
  729MOL0     C  477   5.552   2.421   7.852 -1.1444  0.1392 -0.2799
  729MOL0     C  478   5.462   2.410   7.734  0.6219 -0.6993  0.3833
  729MOL0     C  479   5.423   2.548   7.685  0.7859  0.4298 -0.3111
  729MOL0     C  480   5.358   2.646   7.794  0.2644  0.3633 -0.2962
  729MOL0     N  481   5.243   2.712   7.741  0.2416  0.6765 -0.1423
  729MOL0     C  482   5.244   2.828   7.663 -0.1236  0.4444  0.4133
  729MOL0     C  483   5.127   2.830   7.605 -0.9027 -0.5449 -0.0609
  729MOL0     C  484   5.062   2.931   7.513 -0.9208 -0.2569 -0.6840
  729MOL0     C  485   5.067   3.065   7.583 -0.7261  0.3634  0.3288
  729MOL0     C  486   4.990   3.174   7.499 -0.6567  0.0557  0.7584
  729MOL0     C  487   4.835   3.155   7.517  1.2866 -0.5757 -0.1905
  729MOL0     O  488   4.763   3.258   7.448  0.9589  0.3827  0.7719
  729MOL0     C  489   4.709   3.220   7.332  0.2580  0.3456 -0.7551
  729MOL0     C  490   4.597   3.133   7.321 -0.6358 -0.9641 -0.5869
  729MOL0     C  491   4.555   3.091   7.200  0.6158 -0.5997  0.7226
  729MOL0     C  492   4.422   3.001   7.206 -1.0032 -0.7250 -0.0568
  729MOL0     C  493   4.611   3.144   7.077 -0.1148 -0.6453 -1.0169
  729MOL0     C  494   4.550   3.115   6.951  0.6414 -0.8958 -0.0693
  729MOL0     O  495   4.415   3.097   6.938 -0.4046 -0.5205  0.8218
  729MOL0     C  496   4.374   3.079   6.808 -0.9199  1.6879  0.2172
  729MOL0     C  497   4.329   2.960   6.768 -0.0703 -0.0963  0.1420
  729MOL0     C  498   4.282   2.932   6.637 -0.5425 -0.2084  0.1730
  729MOL0     C  499   4.260   3.042   6.553 -0.1283  0.6361 -0.2732
  729MOL0     O  500   4.185   3.009   6.442  0.4655 -0.4742 -0.0126
  729MOL0     C  501   4.173   3.110   6.345  0.0917 -0.2246  0.1486
  729MOL0     C  502   4.080   3.071   6.235  0.2257  0.2488 -0.9341
  729MOL0     C  503   4.155   2.979   6.142  0.8307  0.1639 -0.5047
  729MOL0     C  504   4.051   2.908   6.050 -0.4756  0.0376 -0.1428
  729MOL0     C  505   4.018   3.003   5.930 -0.0085 -0.1529  1.0167
  729MOL0     C  506   3.934   2.926   5.831 -0.1496 -0.3142  0.4885
  729MOL0     C  507   3.895   3.014   5.708 -0.8434 -0.0827 -0.3568
  729MOL0     C  508   4.020   3.042   5.624 -0.3684 -0.1863  0.7380
  729MOL0    Cl  509   4.044   2.921   5.496  0.4290 -0.5683 -0.7348
  729MOL0     C  510   4.323   3.161   6.586  0.0685  0.4952 -0.4096
  729MOL0     C  511   4.367   3.185   6.707  0.0184  0.2015  0.5475
  729MOL0     O  512   4.634   3.108   6.860 -0.2125 -0.0143  0.4256
  729MOL0     C  513   4.720   3.229   7.087  0.2262 -0.9401 -0.0182
  729MOL0     C  514   4.765   3.276   7.218  0.6575 -0.0048  0.4663
  729MOL0     N  515   5.047   2.726   7.651  1.3356 -0.4836  0.4134
  729MOL0     N  516   5.119   2.649   7.735 -0.7526  0.1589  0.2868
  729MOL0     C  517   5.797   2.064   8.389  0.7081 -0.1046  0.3556
  729MOL0     C  518   5.876   2.024   8.500  0.5932  0.8920 -0.0662
  729MOL0     C  519   5.951   1.948   8.936 -0.4289 -0.5014 -0.0142
  729MOL0     C  520   5.934   1.817   8.952 -0.3723  0.2474 -0.0368
  729MOL0     C  521   5.964   1.744   9.062 -0.9764  0.9517 -0.0965
  729MOL0     C  522   6.002   1.815   9.176  0.0755  0.8463  0.8638
  729MOL0     O  523   6.040   1.752   9.290  0.9247 -0.3259  0.1370
  729MOL0     C  524   5.958   1.641   9.331  0.3463  1.1002 -0.0199
  729MOL0     C  525   5.913   1.651   9.472 -0.1741  0.4942 -1.0706
  729MOL0     C  526   5.834   1.778   9.493  0.5159  0.8608 -0.0930
  729MOL0     C  527   5.817   1.809   9.648 -0.1288 -0.4526 -1.4124
  729MOL0     C  528   5.923   1.886   9.713 -0.1642  0.1671 -0.3074
  729MOL0     C  529   6.021   1.956   9.753  0.2173 -0.6446 -0.5655
  729MOL0     C  530   6.012   1.950   9.160 -0.0621 -0.0949 -0.5713
  729MOL0     C  531   5.991   2.020   9.046  0.0743  0.4845  0.5263
  729MOL0     C  532   5.990   2.174   9.052 -0.0887  0.4989  0.5709
  729MOL0     H  533   5.617   1.856   8.666 -1.6659 -0.2380 -0.5429
  729MOL0     H  534   5.499   1.925   8.452  1.2262 -0.1836 -1.2238
  729MOL0     H  535   5.591   2.055   8.055  2.3573  0.3876 -2.0715
  729MOL0     H  536   5.745   2.041   8.127  1.0269  1.1967 -0.3066
  729MOL0     H  537   5.567   2.286   8.123  0.5360  0.1024 -2.0921
  729MOL0     H  538   5.729   2.290   8.199  0.4933  1.1083 -0.8930
  729MOL0     H  539   5.755   2.393   7.989  0.7036  0.3562 -0.5529
  729MOL0     H  540   5.811   2.223   7.984  0.4296  1.3595  2.0073
  729MOL0     H  541   5.672   2.248   7.787  0.0190 -2.6850  0.7800
  729MOL0     H  542   5.550   2.210   7.910  2.5188 -1.1914 -0.1817
  729MOL0     H  543   5.638   2.484   7.827 -0.8988 -0.0466  0.0887
  729MOL0     H  544   5.509   2.456   7.946 -0.1157  1.0617 -0.1311
  729MOL0     H  545   5.519   2.374   7.648 -1.0277  1.7714 -1.9096
  729MOL0     H  546   5.374   2.350   7.761 -0.3124 -0.0381 -1.0296
  729MOL0     H  547   5.346   2.533   7.608  2.0278 -0.8113 -1.3714
  729MOL0     H  548   5.495   2.603   7.624  1.7524 -0.3218  0.1373
  729MOL0     H  549   5.321   2.587   7.879  0.3711 -0.3770 -0.7528
  729MOL0     H  550   5.423   2.721   7.839  1.7066 -2.0326  1.8951
  729MOL0     H  551   5.327   2.897   7.653  1.1478 -0.6037  2.7493
  729MOL0     H  552   4.960   2.904   7.485 -0.6697 -1.7670 -0.1946
  729MOL0     H  553   5.125   2.939   7.424  1.4865 -0.7958  0.9045
  729MOL0     H  554   5.022   3.064   7.682 -5.2087  2.1602 -1.4576
  729MOL0     H  555   5.175   3.083   7.588 -0.4268 -1.1907 -0.0318
  729MOL0     H  556   5.014   3.275   7.532 -3.7826  0.7242  1.2763
  729MOL0     H  557   5.006   3.163   7.391  1.2921 -1.2606  1.1294
  729MOL0     H  558   4.812   3.051   7.490 -0.9166 -0.0122 -0.6371
  729MOL0     H  559   4.812   3.173   7.623  0.2207 -0.0991 -0.4865
  729MOL0     H  560   4.539   3.094   7.404  2.2752 -3.1476  0.5810
  729MOL0     H  561   4.434   2.912   7.144 -0.8619 -1.7960  1.4587
  729MOL0     H  562   4.332   3.041   7.158 -0.9134 -2.2794 -1.6309
  729MOL0     H  563   4.406   2.980   7.312  1.0771  1.3495  0.7708
  729MOL0     H  564   4.327   2.885   6.846 -2.0366 -0.2678 -0.0239
  729MOL0     H  565   4.248   2.836   6.599  1.6718 -0.7350 -0.6600
  729MOL0     H  566   4.133   3.200   6.392  1.8941  0.8704 -0.3464
  729MOL0     H  567   4.271   3.142   6.309 -1.8276  3.2208 -2.6579
  729MOL0     H  568   3.995   3.024   6.285  0.6937  0.1716 -0.1953
  729MOL0     H  569   4.051   3.164   6.184 -1.1680 -0.7144 -1.9843
  729MOL0     H  570   4.210   2.906   6.203  1.5778  0.6773 -0.5541
  729MOL0     H  571   4.229   3.042   6.092  1.9889 -1.0489 -0.3838
  729MOL0     H  572   3.950   2.889   6.087 -1.1086  2.2279 -0.6090
  729MOL0     H  573   4.090   2.810   6.021 -0.7821 -0.8509  2.2046
  729MOL0     H  574   3.962   3.092   5.961  1.4952  3.1388 -4.4392
  729MOL0     H  575   4.111   3.039   5.885  2.3309 -1.3689  4.4688
  729MOL0     H  576   3.842   2.894   5.881 -0.4659 -1.2066 -0.6358
  729MOL0     H  577   3.996   2.844   5.794  0.9579  0.9443 -0.5573
  729MOL0     H  578   3.861   3.115   5.735  0.2152  0.0401  0.5612
  729MOL0     H  579   3.823   2.970   5.638  0.2350 -1.1120 -0.8331
  729MOL0     H  580   4.110   3.043   5.686  0.0970  1.2068  0.0927
  729MOL0     H  581   4.017   3.131   5.560  0.2887  0.7171  1.9281
  729MOL0     H  582   4.329   3.244   6.517  2.7696 -0.8594 -1.9719
  729MOL0     H  583   4.403   3.286   6.721  2.1193 -0.1217 -1.7704
  729MOL0     H  584   4.768   3.270   6.998 -0.7218  0.4906  0.0920
  729MOL0     H  585   4.850   3.342   7.224  2.6942 -1.7961 -3.8590
  729MOL0     H  586   5.856   2.123   8.320 -0.9729  2.8120  1.2331
  729MOL0     H  587   5.978   2.057   8.516  0.3791  0.9967  1.1328
  729MOL0     H  588   5.903   1.747   8.876  1.6319 -0.0775 -0.6171
  729MOL0     H  589   5.965   1.636   9.068 -1.0297  1.0271  2.0885
  729MOL0     H  590   5.862   1.642   9.279 -0.8745  0.7597  2.1123
  729MOL0     H  591   6.011   1.547   9.313  1.6411  1.1914  2.7853
  729MOL0     H  592   6.005   1.658   9.530 -2.2204 -1.2248  2.7242
  729MOL0     H  593   5.861   1.560   9.505 -0.4786  0.3599 -1.8775
  729MOL0     H  594   5.890   1.847   9.429  0.5089  0.7587 -0.2077
  729MOL0     H  595   5.733   1.767   9.455  0.2310 -1.5053  1.1537
  729MOL0     H  596   5.800   1.719   9.708 -0.8644 -0.0955 -1.0862
  729MOL0     H  597   5.723   1.863   9.655  0.5391  0.5946 -0.2168
  729MOL0     H  598   6.099   2.015   9.797 -0.9681  1.0081 -0.5767
  729MOL0     H  599   6.020   2.004   9.254  0.5627 -1.5060  0.2226
  729MOL0     H  600   6.074   2.209   8.992 -0.5626 -0.4279 -0.6594
  729MOL0     H  601   5.902   2.211   8.999  0.7299  1.5515 -0.1023
  729MOL0     H  602   6.013   2.219   9.150 -1.3855  1.8024  0.3097
  730MOL0     O  603   3.159   5.206   4.816  0.7467 -0.2385 -0.3076
  730MOL0     C  604   3.122   5.094   4.860 -0.0989 -0.1279 -0.1112
  730MOL0     O  605   3.163   4.975   4.814  0.3101 -0.4044 -1.1316
  730MOL0     C  606   3.250   4.963   4.705 -0.6277  0.1451 -0.4493
  730MOL0     C  607   3.277   5.044   4.599  0.3826 -0.1151  0.4051
  730MOL0     C  608   3.371   5.008   4.504 -0.5731  0.0583 -0.0663
  730MOL0     C  609   3.448   4.888   4.513 -0.3299  0.2124 -0.1503
  730MOL0     O  610   3.552   4.859   4.426  0.5045 -0.0226  0.1486
  730MOL0     C  611   3.498   4.819   4.299  0.3104 -0.1621  0.5998
  730MOL0     C  612   3.602   4.757   4.211  0.9046 -0.0730 -0.4803
  730MOL0     C  613   3.554   4.641   4.115 -0.3577 -0.7072  0.2782
  730MOL0     C  614   3.459   4.703   4.010  0.6612 -0.5212  0.3196
  730MOL0     C  615   3.417   4.581   3.923 -0.2699 -0.5365  0.0382
  730MOL0     C  616   3.393   4.626   3.777 -0.1283  0.5702 -0.6417
  730MOL0     C  617   3.364   4.499   3.692 -0.0666  0.0856  0.3015
  730MOL0     C  618   3.237   4.518   3.609  0.4112 -0.4493 -1.2292
  730MOL0     N  619   3.225   4.406   3.511  0.3883 -0.3885 -0.0569
  730MOL0     C  620   3.215   4.277   3.557 -0.4526  0.3131 -0.0690
  730MOL0     C  621   3.257   4.203   3.464 -0.4199  0.1316  1.3520
  730MOL0     C  622   3.267   4.050   3.467  0.1353  0.5777  0.1865
  730MOL0     C  623   3.382   3.987   3.534  0.5900  0.0222 -0.2918
  730MOL0     C  624   3.359   3.844   3.566  0.3584  0.3341  0.3410
  730MOL0     C  625   3.434   3.768   3.463 -0.1287  0.1399 -0.1947
  730MOL0     O  626   3.466   3.639   3.507  0.7797  0.5239 -0.0332
  730MOL0     C  627   3.371   3.540   3.496 -0.1849  0.3967 -0.5055
  730MOL0     C  628   3.236   3.550   3.455 -0.1610  0.4807  0.5950
  730MOL0     C  629   3.141   3.448   3.461 -0.6804  0.2770 -0.7682
  730MOL0     C  630   3.012   3.504   3.429  1.3981 -0.2646  0.3318
  730MOL0     C  631   3.179   3.319   3.499  0.6853 -0.3260  1.4405
  730MOL0     C  632   3.091   3.205   3.511 -1.7416 -0.0985 -0.1101
  730MOL0     O  633   3.120   3.118   3.611 -0.2044 -0.2464 -0.2006
  730MOL0     C  634   3.017   3.041   3.649  0.5569  1.0168 -0.6210
  730MOL0     C  635   3.018   2.901   3.629 -0.1715  0.4150  0.7321
  730MOL0     C  636   2.926   2.809   3.682  0.5321  0.5084 -0.2454
  730MOL0     C  637   2.829   2.861   3.768  0.4076  0.6478  0.3929
  730MOL0     O  638   2.745   2.781   3.840 -0.3078  0.2319 -0.7814
  730MOL0     C  639   2.625   2.826   3.911  0.3298 -0.3554 -0.1610
  730MOL0     C  640   2.531   2.702   3.939 -0.5487  0.1347  0.1942
  730MOL0     C  641   2.438   2.724   4.067 -0.6472 -0.0174  0.4758
  730MOL0     C  642   2.343   2.612   4.114 -0.5376 -0.1019  0.6624
  730MOL0     C  643   2.412   2.471   4.138 -0.0690  0.3198 -0.1578
  730MOL0     C  644   2.504   2.462   4.257  0.0933 -0.1747 -0.0692
  730MOL0     C  645   2.542   2.325   4.304  0.9502  0.2366 -0.6555
  730MOL0     C  646   2.628   2.314   4.420 -0.4828 -0.6352 -0.2322
  730MOL0    Cl  647   2.567   2.404   4.564 -0.2705  0.2245  0.0065
  730MOL0     C  648   2.822   2.994   3.787  0.1208 -0.8113 -0.1461
  730MOL0     C  649   2.914   3.083   3.731 -0.3792 -0.4759  0.4319
  730MOL0     O  650   2.993   3.190   3.438  0.0269 -0.6793 -0.2502
  730MOL0     C  651   3.311   3.299   3.536 -1.1267 -0.3455  0.0724
  730MOL0     C  652   3.408   3.408   3.539 -0.0769 -0.7233 -0.7725
  730MOL0     N  653   3.316   4.282   3.356  0.7374  0.0894  0.0625
  730MOL0     N  654   3.287   4.404   3.386 -1.0191  0.1464  0.1229
  730MOL0     C  655   3.423   4.807   4.633 -0.2500  0.3378 -0.3710
  730MOL0     C  656   3.328   4.842   4.721 -0.6365  0.0289 -0.1202
  730MOL0     C  657   3.020   5.096   4.963  0.4189 -0.2268  0.5019
  730MOL0     C  658   3.020   5.203   5.063  0.5005  0.5901 -0.1572
  730MOL0     C  659   2.924   5.196   5.164 -1.0305 -0.8414 -0.3953
  730MOL0     C  660   2.834   5.092   5.175 -0.2583  1.0339  1.1216
  730MOL0     O  661   2.735   5.069   5.265 -0.3369 -0.0541  0.8604
  730MOL0     C  662   2.703   5.174   5.362  0.4143 -0.1288 -0.5124
  730MOL0     C  663   2.795   5.170   5.479 -0.6013 -0.4421  0.6644
  730MOL0     C  664   2.824   5.023   5.533  0.5344 -0.1303 -0.1478
  730MOL0     C  665   2.961   5.021   5.620 -0.1958 -0.1595  0.1780
  730MOL0     C  666   2.993   4.897   5.687 -0.2973  0.3391 -0.1588
  730MOL0     C  667   3.025   4.792   5.745 -0.0841  0.6925 -0.7937
  730MOL0     C  668   2.824   5.009   5.063 -0.5516  1.0772 -0.1002
  730MOL0     C  669   2.920   4.994   4.963 -0.2032 -0.1713  0.0882
  730MOL0     C  670   2.914   4.870   4.876 -0.5006 -0.4673  0.4453
  730MOL0     H  671   3.220   5.137   4.594  0.5908 -0.0230 -0.5395
  730MOL0     H  672   3.385   5.075   4.419 -0.4664 -0.8081 -0.7527
  730MOL0     H  673   3.463   4.909   4.247  2.2739  1.9496  2.6699
  730MOL0     H  674   3.409   4.757   4.293 -1.9667  2.9235 -4.7553
  730MOL0     H  675   3.655   4.839   4.162 -0.2969  0.4428 -0.9814
  730MOL0     H  676   3.677   4.702   4.268  0.7462  0.0048 -0.1939
  730MOL0     H  677   3.632   4.581   4.068 -0.7296 -0.7828 -0.2507
  730MOL0     H  678   3.495   4.567   4.170 -0.7340 -0.9135 -0.3868
  730MOL0     H  679   3.361   4.744   4.037 -1.4593 -3.6403 -1.8392
  730MOL0     H  680   3.519   4.763   3.941  1.8964 -1.5270  0.5035
  730MOL0     H  681   3.331   4.533   3.971 -1.0286  2.3840  1.8440
  730MOL0     H  682   3.496   4.507   3.910 -2.8923 -3.4981 -0.3030
  730MOL0     H  683   3.307   4.693   3.786  0.7554  1.5254  1.3533
  730MOL0     H  684   3.487   4.669   3.743  2.0441 -1.8919  1.7912
  730MOL0     H  685   3.357   4.410   3.755 -2.0448  0.5346  0.7691
  730MOL0     H  686   3.445   4.484   3.620  0.7419 -0.3337  1.2705
  730MOL0     H  687   3.153   4.517   3.680 -0.6099  1.8938 -2.3099
  730MOL0     H  688   3.247   4.614   3.558  0.2642  0.9668  1.2114
  730MOL0     H  689   3.168   4.247   3.651 -0.8156  0.2370 -0.2737
  730MOL0     H  690   3.259   4.018   3.362 -0.7418 -2.7127  1.1476
  730MOL0     H  691   3.175   4.011   3.512  1.0979 -1.7062  0.2572
  730MOL0     H  692   3.469   4.001   3.468  0.7361  4.0446  0.5060
  730MOL0     H  693   3.383   4.053   3.621 -4.4992 -0.3559  0.3333
  730MOL0     H  694   3.389   3.828   3.670 -3.5402  1.2483  1.7812
  730MOL0     H  695   3.252   3.823   3.563  0.1729  1.3354 -0.3562
  730MOL0     H  696   3.384   3.766   3.366  0.0890 -1.4775 -0.2972
  730MOL0     H  697   3.535   3.804   3.440  0.1092  0.1954  0.8645
  730MOL0     H  698   3.209   3.649   3.418 -0.0873 -0.9569 -3.9880
  730MOL0     H  699   2.928   3.435   3.417  1.4907  0.0690 -4.0672
  730MOL0     H  700   2.994   3.568   3.342 -0.3285 -1.5019 -0.3021
  730MOL0     H  701   2.992   3.560   3.521  1.9783 -5.5621  4.1716
  730MOL0     H  702   3.096   2.868   3.562 -1.2381  1.6477 -1.2337
  730MOL0     H  703   2.929   2.705   3.652  1.6462  0.6446 -0.6803
  730MOL0     H  704   2.648   2.867   4.009 -1.7889  2.2457 -0.6436
  730MOL0     H  705   2.576   2.902   3.849  1.7556  0.4803 -0.3149
  730MOL0     H  706   2.478   2.678   3.846  0.7827  0.4324 -0.6573
  730MOL0     H  707   2.602   2.621   3.951  0.4943  0.9481 -0.3301
  730MOL0     H  708   2.383   2.819   4.060  1.5231  1.2403 -0.7987
  730MOL0     H  709   2.503   2.737   4.154 -0.4833  0.2326  0.3153
  730MOL0     H  710   2.262   2.598   4.042 -1.0826 -0.2854  1.3020
  730MOL0     H  711   2.302   2.646   4.209 -4.1354  1.4246 -1.2518
  730MOL0     H  712   2.327   2.404   4.147  0.1427  0.0239 -0.3326
  730MOL0     H  713   2.487   2.446   4.062  2.6957 -1.8666  2.9587
  730MOL0     H  714   2.462   2.519   4.340 -0.1014  2.1488 -1.6913
  730MOL0     H  715   2.600   2.511   4.241 -0.1397  1.2443  2.4368
  730MOL0     H  716   2.590   2.265   4.225 -1.1561 -1.5942 -0.6209
  730MOL0     H  717   2.453   2.271   4.336  0.2708  1.3069 -0.7022
  730MOL0     H  718   2.724   2.362   4.397 -1.4729  0.5880 -2.0190
  730MOL0     H  719   2.651   2.209   4.441  1.1570 -0.8926 -2.9233
  730MOL0     H  720   2.748   3.046   3.846  0.4731  0.1832 -0.5585
  730MOL0     H  721   2.921   3.184   3.770 -0.4611 -0.1636 -0.3482
  730MOL0     H  722   3.343   3.201   3.569 -1.0189 -0.1839  0.4573
  730MOL0     H  723   3.515   3.395   3.553  0.2466 -0.0066 -2.3572
  730MOL0     H  724   3.476   4.714   4.650  0.8356  0.8637 -0.8303
  730MOL0     H  725   3.288   4.781   4.802 -3.1405  0.5764 -0.8630
  730MOL0     H  726   3.069   5.298   5.046 -1.1311  1.0060 -3.3418
  730MOL0     H  727   2.914   5.280   5.231  0.3183  0.3144 -1.5917
  730MOL0     H  728   2.716   5.271   5.314  1.9488  0.3188  0.7229
  730MOL0     H  729   2.599   5.161   5.395  0.9282 -0.4519  1.0387
  730MOL0     H  730   2.751   5.232   5.557  3.5716  1.2993  1.9203
  730MOL0     H  731   2.896   5.198   5.446 -1.2348  0.3585 -0.7215
  730MOL0     H  732   2.743   4.985   5.596  0.6169 -1.4434 -0.7927
  730MOL0     H  733   2.826   4.949   5.452 -0.0531 -3.5402  2.6784
  730MOL0     H  734   2.959   5.100   5.696 -0.0255 -1.8197  1.9863
  730MOL0     H  735   3.040   5.049   5.550 -2.6139  1.9539 -1.9152
  730MOL0     H  736   3.058   4.697   5.784  1.2360  0.4217 -2.4377
  730MOL0     H  737   2.751   4.930   5.071 -0.7118  1.1061 -1.1638
  730MOL0     H  738   2.992   4.798   4.904  0.8191  0.5366 -0.5286
  730MOL0     H  739   2.827   4.809   4.900 -0.8510 -0.4141 -0.6183
  730MOL0     H  740   2.916   4.902   4.771 -3.5244 -0.5178  0.3057
  731MOL0     O  741   4.906   5.951   8.973 -0.2595  0.8101 -0.9390
  731MOL0     C  742   4.964   5.852   8.926  0.8471 -0.6771  0.5927
  731MOL0     O  743   5.033   5.760   9.003  0.4273 -0.0335  0.3259
  731MOL0     C  744   5.051   5.790   9.140  0.0861  0.0324  0.5537
  731MOL0     C  745   4.970   5.736   9.238  0.1783  0.5460 -0.1093
  731MOL0     C  746   4.995   5.760   9.373 -0.4525 -0.8435  0.1251
  731MOL0     C  747   5.094   5.854   9.408  0.3393  0.6063  0.3704
  731MOL0     O  748   5.122   5.886   9.542  0.4411 -0.0153  0.5589
  731MOL0     C  749   5.189   6.004   9.578 -0.5842 -0.0780  0.4264
  731MOL0     C  750   5.228   5.990   9.725 -0.7152 -0.6911  0.7075
  731MOL0     C  751   5.124   5.931   9.815  0.1936 -0.7979 -0.3886
  731MOL0     C  752   5.009   6.028   9.842 -0.2279 -0.0232 -0.0199
  731MOL0     C  753   4.899   5.946   9.908  0.2419 -0.2941  0.6528
  731MOL0     C  754   4.801   6.053   9.952  0.1959 -0.1408  0.2836
  731MOL0     C  755   4.671   5.995   9.993 -0.1693 -0.4668 -0.4447
  731MOL0     C  756   4.568   6.108  10.016 -0.1404 -0.2928 -0.5234
  731MOL0     N  757   4.439   6.065  10.079 -0.3001 -0.2745  0.1922
  731MOL0     C  758   4.346   5.995  10.002 -0.1140  0.4071  0.0420
  731MOL0     C  759   4.244   5.990  10.090 -1.2778  1.1241  0.1722
  731MOL0     C  760   4.121   5.914  10.053  0.4924  0.2539 -0.2415
  731MOL0     C  761   4.037   5.987   9.951 -0.5985  0.9158 -0.0406
  731MOL0     C  762   3.929   5.879   9.923  0.0280  0.0667  0.4576
  731MOL0     C  763   3.835   5.921   9.809 -0.3451 -0.2032 -0.2269
  731MOL0     O  764   3.722   5.829   9.794 -0.0326 -0.0012 -0.5705
  731MOL0     C  765   3.627   5.844   9.702 -0.4402 -0.3458  0.3961
  731MOL0     C  766   3.631   5.941   9.597 -0.2065  0.9542 -0.2589
  731MOL0     C  767   3.520   5.959   9.508  0.0286  0.0824 -1.4032
  731MOL0     C  768   3.512   6.080   9.425  0.0279 -0.4171 -0.2625
  731MOL0     C  769   3.402   5.874   9.518  0.0536  0.9885 -0.4271
  731MOL0     C  770   3.286   5.876   9.423 -0.2046  0.2089 -0.4946
  731MOL0     O  771   3.173   5.836   9.483 -0.5306 -0.1097 -0.0211
  731MOL0     C  772   3.077   5.779   9.396  1.1631  0.2935 -0.7083
  731MOL0     C  773   3.090   5.645   9.353 -0.7877 -0.3535 -0.0960
  731MOL0     C  774   2.995   5.593   9.263 -0.6977 -0.5153 -0.5330
  731MOL0     C  775   2.894   5.672   9.205 -1.1384 -0.4872 -0.6104
  731MOL0     O  776   2.808   5.640   9.111 -0.4758 -0.4260 -0.7989
  731MOL0     C  777   2.801   5.502   9.071 -0.9692 -0.5537 -0.1001
  731MOL0     C  778   2.688   5.493   8.974  0.1715  0.7589 -0.7214
  731MOL0     C  779   2.655   5.352   8.942  0.6060 -0.2056  0.6353
  731MOL0     C  780   2.605   5.352   8.803  0.2638 -1.1919  0.5381
  731MOL0     C  781   2.613   5.218   8.735  0.7340  0.0298 -0.0661
  731MOL0     C  782   2.570   5.234   8.591 -0.6165  1.2016  0.1232
  731MOL0     C  783   2.654   5.167   8.494 -0.1752 -0.9874 -0.2298
  731MOL0     C  784   2.586   5.177   8.355  0.3624  0.1496  0.3432
  731MOL0    Cl  785   2.692   5.105   8.224  0.3611  0.6770  0.0747
  731MOL0     C  786   2.883   5.809   9.247 -1.2485 -0.7297 -0.3220
  731MOL0     C  787   2.969   5.861   9.345 -0.5259 -0.8504  0.3210
  731MOL0     O  788   3.296   5.904   9.304 -0.7795 -0.3989 -0.0129
  731MOL0     C  789   3.413   5.774   9.622  0.7928  0.5671 -0.2128
  731MOL0     C  790   3.519   5.759   9.707 -0.3918  0.1432 -0.4124
  731MOL0     N  791   4.272   6.050  10.211  0.2779  0.0459  0.6312
  731MOL0     N  792   4.391   6.085  10.206  0.1513 -0.7108  0.2148
  731MOL0     C  793   5.176   5.898   9.304 -0.1212 -0.0780 -0.5697
  731MOL0     C  794   5.147   5.886   9.173  0.4308  0.4363 -0.8906
  731MOL0     C  795   4.959   5.839   8.778 -0.4681  1.4073  0.4478
  731MOL0     C  796   5.096   5.713   8.672  0.0343 -0.5328  0.4457
  731MOL0     C  797   5.086   5.695   8.464 -0.3951  0.5996 -0.2362
  731MOL0     C  798   4.937   5.795   8.358 -0.6242  0.4793  0.3519
  731MOL0     O  799   4.922   5.792   8.221 -0.6178  0.4101 -1.0066
  731MOL0     C  800   5.046   5.766   8.164 -0.2222 -0.3486  1.7092
  731MOL0     C  801   5.029   5.789   8.005  0.1612 -0.7116 -0.8544
  731MOL0     C  802   5.013   5.935   7.969  0.5132  0.1024 -0.0816
  731MOL0     C  803   4.878   5.998   8.011 -0.2919  0.1965  0.5184
  731MOL0     C  804   4.887   6.142   7.967 -1.1096 -0.2996 -0.7309
  731MOL0     C  805   4.905   6.259   7.922  0.1137  0.5202 -0.5715
  731MOL0     C  806   4.800   5.917   8.461  0.8229  0.1656 -0.4383
  731MOL0     C  807   4.807   5.941   8.666  0.5392  0.3448  1.3345
  731MOL0     C  808   4.711   6.022   8.740  0.4037 -0.4527  0.2052
  731MOL0     H  809   4.893   5.669   9.201  0.4500  0.3407 -0.3029
  731MOL0     H  810   4.937   5.712   9.451 -1.5242  1.6583  0.9530
  731MOL0     H  811   5.127   6.090   9.554 -0.6409 -0.7019 -1.8422
  731MOL0     H  812   5.287   6.011   9.531 -0.0016  2.6772  1.8495
  731MOL0     H  813   5.317   5.927   9.732 -1.0808 -1.1044  2.1208
  731MOL0     H  814   5.259   6.084   9.774 -1.8173  0.1446 -0.1585
  731MOL0     H  815   5.091   5.835   9.773 -2.9144  0.6978 -1.6324
  731MOL0     H  816   5.172   5.909   9.911 -1.0120  1.7038  0.8860
  731MOL0     H  817   5.046   6.103   9.914 -1.2509  1.5054 -1.0218
  731MOL0     H  818   4.973   6.084   9.755 -4.9543 -1.2891  0.8239
  731MOL0     H  819   4.933   5.880   9.988  4.3312 -1.0660 -1.4387
  731MOL0     H  820   4.848   5.884   9.835 -0.5499 -1.5228  2.1990
  731MOL0     H  821   4.845   6.108  10.036 -1.2834  2.1602 -0.3456
  731MOL0     H  822   4.780   6.119   9.868  1.6971 -0.5155 -0.4177
  731MOL0     H  823   4.685   5.943  10.088 -1.1728 -2.8876 -1.5313
  731MOL0     H  824   4.627   5.922   9.924 -0.5482 -2.5374  1.8531
  731MOL0     H  825   4.614   6.189  10.073 -0.3356  0.2854 -1.1756
  731MOL0     H  826   4.536   6.155   9.922  1.9346 -0.8953 -1.5972
  731MOL0     H  827   4.365   5.947   9.907  0.6003 -0.4941  0.6183
  731MOL0     H  828   4.059   5.895  10.141  1.1637 -0.3420  0.1075
  731MOL0     H  829   4.158   5.820  10.012  0.5167  1.4609 -3.2736
  731MOL0     H  830   3.994   6.081   9.986 -1.7357  0.2683  0.3533
  731MOL0     H  831   4.104   6.012   9.868 -2.0220  1.7273 -1.0027
  731MOL0     H  832   3.973   5.781   9.899  0.8247 -0.9769  5.2295
  731MOL0     H  833   3.872   5.875  10.017  1.6724 -0.9474  1.4475
  731MOL0     H  834   3.795   6.020   9.833 -0.0168  0.4040 -2.0115
  731MOL0     H  835   3.896   5.939   9.720  1.8109  0.5039  1.3101
  731MOL0     H  836   3.713   6.011   9.596 -1.3655  2.4063  1.4389
  731MOL0     H  837   3.508   6.053   9.319  0.3670 -2.3999  0.1714
  731MOL0     H  838   3.605   6.133   9.448  0.0785  0.3629 -2.1152
  731MOL0     H  839   3.430   6.141   9.463  1.3311  1.1293  0.1480
  731MOL0     H  840   3.164   5.581   9.399 -0.5537  1.0406  1.6064
  731MOL0     H  841   3.006   5.493   9.222  0.7051 -1.3212  1.6437
  731MOL0     H  842   2.889   5.460   9.021  0.5922  0.9814  1.2331
  731MOL0     H  843   2.784   5.437   9.158 -3.7836 -0.9696 -0.8580
  731MOL0     H  844   2.594   5.536   9.010  0.7343  1.9086 -0.6073
  731MOL0     H  845   2.729   5.548   8.889  0.1311 -1.5856 -2.3428
  731MOL0     H  846   2.588   5.292   9.006 -1.5571  2.0839  0.6876
  731MOL0     H  847   2.742   5.288   8.956 -0.9437 -2.3005  1.2315
  731MOL0     H  848   2.656   5.430   8.746 -0.5496 -0.2413  1.0776
  731MOL0     H  849   2.500   5.375   8.826  0.7903  3.3786 -0.6207
  731MOL0     H  850   2.717   5.185   8.743  1.0243  0.5967 -1.2854
  731MOL0     H  851   2.553   5.139   8.782 -2.5846  1.1180 -2.1265
  731MOL0     H  852   2.571   5.341   8.566  1.2063  0.7556 -1.9822
  731MOL0     H  853   2.472   5.187   8.584 -0.8948  1.7485  0.2770
  731MOL0     H  854   2.671   5.060   8.509 -0.9727 -2.0927 -5.3749
  731MOL0     H  855   2.755   5.210   8.499  1.0293 -3.5852  5.0277
  731MOL0     H  856   2.549   5.273   8.316 -0.6650 -0.3872 -0.0436
  731MOL0     H  857   2.494   5.120   8.344 -0.0261  1.1732 -2.8807
  731MOL0     H  858   2.808   5.883   9.220  1.3118  1.2424 -2.8196
  731MOL0     H  859   2.953   5.964   9.377 -0.2440 -0.8356  0.4096
  731MOL0     H  860   3.329   5.705   9.632  1.7479 -0.5486  0.4469
  731MOL0     H  861   3.533   5.687   9.787  0.0083  1.8216  1.0916
  731MOL0     H  862   5.263   5.957   9.331 -0.3621 -0.3117  0.8090
  731MOL0     H  863   5.216   5.927   9.099  3.2001  0.0151  1.2924
  731MOL0     H  864   5.171   5.668   8.737  0.8193 -0.6992 -0.5523
  731MOL0     H  865   5.167   5.637   8.421 -0.9316 -0.4139  0.0760
  731MOL0     H  866   5.124   5.835   8.198  3.4094 -2.8503 -0.8144
  731MOL0     H  867   5.081   5.662   8.166  0.9093 -0.1715 -1.9673
  731MOL0     H  868   4.940   5.733   7.974  0.3692 -0.7597 -1.3734
  731MOL0     H  869   5.114   5.742   7.954  0.1695 -1.0307 -0.5508
  731MOL0     H  870   5.094   5.975   8.031  0.9847 -0.9623  0.0059
  731MOL0     H  871   5.037   5.954   7.864  1.6302  0.3558  0.2057
  731MOL0     H  872   4.850   5.978   8.114 -1.7039 -0.1218  0.0936
  731MOL0     H  873   4.787   5.965   7.960 -2.4843  2.3196  2.7651
  731MOL0     H  874   4.911   6.361   7.889  0.2463  0.5033 -0.6003
  731MOL0     H  875   4.721   5.959   8.398  2.1718 -0.1822 -2.4706
  731MOL0     H  876   4.751   6.117   8.778 -2.1253 -0.3580  3.0151
  731MOL0     H  877   4.623   6.042   8.679  2.3280 -0.6223 -2.8710
  731MOL0     H  878   4.691   5.969   8.833  2.5163  2.5003  2.5443
  732MOL0     O  879   6.101   4.482  10.415 -0.8810 -0.0039  0.5038
  732MOL0     C  880   6.202   4.513  10.351  0.1203 -0.3910  0.3945
  732MOL0     O  881   6.289   4.419  10.293 -0.8405  0.0720 -0.2424
  732MOL0     C  882   6.313   4.301  10.352 -0.5891 -0.1460 -0.8339
  732MOL0     C  883   6.270   4.266  10.487  0.6442 -0.8061 -0.6367
  732MOL0     C  884   6.289   4.134  10.528  0.4723 -0.6063  0.6792
  732MOL0     C  885   6.348   4.037  10.444 -0.0089  0.3318  0.2383
  732MOL0     O  886   6.372   3.901  10.487  0.6392 -0.3536  0.3587
  732MOL0     C  887   6.314   3.803  10.399 -0.3487  0.0155  0.0177
  732MOL0     C  888   6.404   3.734  10.293 -0.0357 -0.2401  1.0048
  732MOL0     C  889   6.541   3.716  10.353  0.4722 -0.3179 -0.0386
  732MOL0     C  890   6.629   3.617  10.269 -0.2936  0.0106 -0.6298
  732MOL0     C  891   6.771   3.608  10.298  0.1577 -1.1317  0.0367
  732MOL0     C  892   6.807   3.638  10.445 -0.2201 -0.1471  1.1524
  732MOL0     C  893   6.949   3.602  10.483  0.2375  0.1119  0.7138
  732MOL0     C  894   6.971   3.575  10.635 -0.0824 -0.3190  0.2954
  732MOL0     N  895   7.012   3.686  10.717  0.5879 -0.4175 -0.4344
  732MOL0     C  896   7.126   3.761  10.702 -0.5556 -0.3926 -0.3658
  732MOL0     C  897   7.119   3.851  10.797  0.3266 -0.7088 -0.2561
  732MOL0     C  898   7.232   3.960  10.830  0.3818  0.5317 -0.3074
  732MOL0     C  899   7.188   4.086  10.908 -0.5890  0.0239 -0.1565
  732MOL0     C  900   7.294   4.205  10.903 -0.1152  0.2841 -0.5564
  732MOL0     C  901   7.423   4.169  10.979  0.2244  0.5171 -0.5921
  732MOL0     O  902   7.529   4.246  10.915 -0.0258 -0.1472 -0.6623
  732MOL0     C  903   7.517   4.385  10.908  0.0008 -0.7266  0.2822
  732MOL0     C  904   7.602   4.447  10.817  0.0906 -0.4470 -0.6610
  732MOL0     C  905   7.631   4.582  10.810  0.4816  0.1892 -1.0305
  732MOL0     C  906   7.740   4.619  10.713 -0.5208 -0.6381  0.7763
  732MOL0     C  907   7.551   4.666  10.897 -0.6387  0.3077  0.5340
  732MOL0     C  908   7.570   4.812  10.905 -0.0164  0.6172 -0.2759
  732MOL0     O  909   7.474   4.887  10.950  0.4773  0.8133  0.2299
  732MOL0     C  910   7.514   5.010  10.995 -1.2106 -0.1971 -0.2645
  732MOL0     C  911   7.593   5.020  11.113 -0.2302  0.6741 -0.8915
  732MOL0     C  912   7.642   5.139  11.155 -1.1635  0.3955  0.5165
  732MOL0     C  913   7.616   5.254  11.088 -0.6797 -1.4792  0.7431
  732MOL0     O  914   7.649   5.383  11.120  0.2476  0.1110 -0.0799
  732MOL0     C  915   7.697   5.408  11.252  0.3415  0.2095  0.5025
  732MOL0     C  916   7.774   5.544  11.257 -0.7821 -0.0266  0.5577
  732MOL0     C  917   7.916   5.519  11.194 -1.1076  0.7540 -0.0046
  732MOL0     C  918   7.999   5.647  11.178 -0.7113  0.1774  1.0043
  732MOL0     C  919   8.136   5.613  11.113 -0.6635  1.1162 -0.9272
  732MOL0     C  920   8.235   5.714  11.138  0.8222 -0.4586  0.3411
  732MOL0     C  921   8.348   5.727  11.037  0.3015  0.9379  0.0323
  732MOL0     C  922   8.433   5.597  11.005  0.1824 -0.0504  0.7078
  732MOL0    Cl  923   8.496   5.533  11.170  0.0662  0.8053  0.3746
  732MOL0     C  924   7.537   5.249  10.971 -0.0801 -0.8474  0.0099
  732MOL0     C  925   7.493   5.123  10.916  1.1676 -0.3637 -0.0709
  732MOL0     O  926   7.681   4.861  10.872 -0.1478  0.1717  0.4351
  732MOL0     C  927   7.465   4.604  10.989 -0.5476  0.7563 -0.0119
  732MOL0     C  928   7.441   4.468  10.986  0.0266  0.1838  0.3659
  732MOL0     N  929   7.004   3.832  10.871 -0.6124  0.5227  0.2930
  732MOL0     N  930   6.949   3.720  10.839 -0.5951  0.3045  0.1720
  732MOL0     C  931   6.390   4.075  10.319  0.3157 -1.0485  0.2383
  732MOL0     C  932   6.373   4.205  10.274  0.4623  1.1721 -0.1868
  732MOL0     C  933   6.220   4.653  10.305  0.3861  0.2701  1.0032
  732MOL0     C  934   6.300   4.684  10.195 -0.3049 -0.3514  0.8699
  732MOL0     C  935   6.301   4.803  10.133  1.0425 -0.2143  0.8483
  732MOL0     C  936   6.200   4.902  10.159 -0.7942  0.8756 -0.3542
  732MOL0     O  937   6.174   5.007  10.079 -0.3506 -0.0318 -0.1784
  732MOL0     C  938   6.220   5.016   9.931  0.0562 -0.5189 -0.8936
  732MOL0     C  939   6.087   5.052   9.861  0.2586  0.1886 -0.4175
  732MOL0     C  940   5.974   4.941   9.865  0.2052 -0.5767 -0.7753
  732MOL0     C  941   5.963   4.877   9.730  0.4142 -0.8135 -1.3612
  732MOL0     C  942   6.092   4.824   9.681 -0.3120  0.1884 -0.3037
  732MOL0     C  943   6.198   4.770   9.654 -0.1719  0.1353 -0.1567
  732MOL0     C  944   6.123   4.880  10.273 -0.4781  0.2179 -0.2585
  732MOL0     C  945   6.129   4.760  10.337  0.3393  0.1145 -0.4981
  732MOL0     C  946   6.030   4.755  10.450 -0.2505  0.9490 -0.9198
  732MOL0     H  947   6.218   4.331  10.557  0.0843 -0.0754 -1.6958
  732MOL0     H  948   6.282   4.124  10.636  1.3352 -0.8338  0.7181
  732MOL0     H  949   6.220   3.842  10.361  0.1499  0.1894 -1.0907
  732MOL0     H  950   6.270   3.735  10.473  0.5740 -1.1886 -0.5071
  732MOL0     H  951   6.363   3.635  10.273 -0.0016  0.4357 -3.2627
  732MOL0     H  952   6.394   3.782  10.196 -3.4689 -0.0150  1.3318
  732MOL0     H  953   6.592   3.813  10.360  0.4336 -0.2902 -0.1414
  732MOL0     H  954   6.532   3.686  10.458  1.4416 -2.3797 -0.5006
  732MOL0     H  955   6.589   3.516  10.261  0.4166 -0.3283  0.0094
  732MOL0     H  956   6.625   3.660  10.169  2.4622 -0.1673 -0.8714
  732MOL0     H  957   6.826   3.669  10.225 -0.6188 -2.8800 -2.1516
  732MOL0     H  958   6.801   3.506  10.274  4.9861 -0.4309  2.1070
  732MOL0     H  959   6.787   3.741  10.477  0.6564  1.1205 -2.0492
  732MOL0     H  960   6.762   3.559  10.506 -0.5924 -2.4977 -1.9596
  732MOL0     H  961   7.023   3.678  10.457  0.0182  1.0216  2.5811
  732MOL0     H  962   6.981   3.517  10.422 -0.5179  2.2679 -2.9664
  732MOL0     H  963   6.880   3.531  10.679 -0.4362  0.0505 -0.0544
  732MOL0     H  964   7.053   3.504  10.647 -0.5069 -1.2320 -1.8255
  732MOL0     H  965   7.211   3.741  10.638 -0.3842 -1.1590  0.0902
  732MOL0     H  966   7.253   3.995  10.728 -1.7733 -1.2586 -1.4519
  732MOL0     H  967   7.323   3.911  10.864  0.7506  1.7976  0.6015
  732MOL0     H  968   7.099   4.136  10.868 -0.3932  0.8168  0.3716
  732MOL0     H  969   7.174   4.050  11.010 -1.2800  0.7043 -0.0022
  732MOL0     H  970   7.313   4.227  10.798 -3.6450  3.0928 -0.8067
  732MOL0     H  971   7.252   4.300  10.937 -0.5482  0.7545 -2.3020
  732MOL0     H  972   7.416   4.209  11.080  3.2736 -0.5912  0.1682
  732MOL0     H  973   7.441   4.062  10.988 -1.6705  0.2235  0.0303
  732MOL0     H  974   7.668   4.388  10.754 -0.8893 -1.6539 -0.5959
  732MOL0     H  975   7.790   4.533  10.668  1.7362  1.8393 -1.9166
  732MOL0     H  976   7.824   4.675  10.755  0.7988 -0.7578 -1.5430
  732MOL0     H  977   7.700   4.677  10.629 -2.9404 -0.4063  1.9945
  732MOL0     H  978   7.609   4.929  11.169  0.1990  1.5668  0.4803
  732MOL0     H  979   7.690   5.146  11.253 -1.1724  2.3005  0.4269
  732MOL0     H  980   7.612   5.412  11.321  1.7057  0.9043  2.2296
  732MOL0     H  981   7.769   5.333  11.288 -0.0901 -0.5183 -0.1180
  732MOL0     H  982   7.720   5.619  11.198 -2.1095 -2.7144 -1.9278
  732MOL0     H  983   7.790   5.589  11.355 -1.6427  0.6277  0.4183
  732MOL0     H  984   7.901   5.483  11.091 -2.0770  0.9314  0.0698
  732MOL0     H  985   7.970   5.442  11.250 -1.7219  0.1503 -0.2183
  732MOL0     H  986   8.011   5.687  11.279 -4.8367 -1.2985  2.2593
  732MOL0     H  987   7.937   5.709  11.113  2.4004  0.0756 -2.4005
  732MOL0     H  988   8.192   5.527  11.149 -0.4118  2.4573  2.2060
  732MOL0     H  989   8.117   5.600  11.006  0.9364 -0.7362 -1.0330
  732MOL0     H  990   8.266   5.692  11.240 -0.9105  0.3268  1.0656
  732MOL0     H  991   8.193   5.812  11.163  0.7035 -0.6687  0.9736
  732MOL0     H  992   8.422   5.803  11.066  0.7498 -0.6778  3.6835
  732MOL0     H  993   8.290   5.745  10.946  1.3271  1.8399 -0.4637
  732MOL0     H  994   8.528   5.616  10.953  0.5859  2.5820  2.2449
  732MOL0     H  995   8.379   5.519  10.951 -1.3996  1.9700 -0.7899
  732MOL0     H  996   7.511   5.339  10.916  3.2482 -0.1492 -0.6540
  732MOL0     H  997   7.438   5.109  10.824  1.2702 -1.7871  0.0644
  732MOL0     H  998   7.408   4.672  11.052 -0.3555 -0.3221  1.3666
  732MOL0     H  999   7.379   4.426  11.064  3.1296 -3.6565  1.1263
  732MOL0     H 1000   6.427   4.007  10.243 -0.3222  1.6803 -2.7436
  732MOL0     H 1001   6.401   4.217  10.170 -0.6852 -1.1166 -0.8089
  732MOL0     H 1002   6.372   4.611  10.159  1.1727  1.3813  0.1278
  732MOL0     H 1003   6.367   4.817  10.048 -0.3944  0.4822 -0.2089
  732MOL0     H 1004   6.306   5.081   9.915 -0.0118  0.6792  2.7018
  732MOL0     H 1005   6.260   4.917   9.907 -0.7206 -1.2266  0.5560
  732MOL0     H 1006   6.117   5.071   9.758  0.2353  1.0728 -0.2695
  732MOL0     H 1007   6.049   5.143   9.908 -1.8717 -1.4893  1.4007
  732MOL0     H 1008   5.993   4.863   9.938 -1.6913 -1.7995 -1.5178
  732MOL0     H 1009   5.880   4.981   9.902 -0.9157 -0.5864 -3.3871
  732MOL0     H 1010   5.914   4.937   9.653  0.5212 -2.6702 -2.9642
  732MOL0     H 1011   5.902   4.790   9.756  4.7259 -3.0972  2.8710
  732MOL0     H 1012   6.276   4.702   9.628  0.1404  0.5947 -0.4208
  732MOL0     H 1013   6.042   4.948  10.295 -0.6170  0.7446 -2.1586
  732MOL0     H 1014   5.962   4.675  10.419  1.6131 -0.5558 -1.3248
  732MOL0     H 1015   6.085   4.721  10.538  1.1742  0.5873 -1.9272
  732MOL0     H 1016   5.974   4.845  10.478 -2.2023  0.1587 -2.0433
  733MOL0     O 1017   7.001   4.348   3.704  0.1912 -0.0433 -0.9010
  733MOL0     C 1018   7.048   4.315   3.593  0.4810  0.2721  0.2704
  733MOL0     O 1019   7.022   4.374   3.468  0.3895 -0.6984  0.1000
  733MOL0     C 1020   6.907   4.454   3.457  0.3093 -0.1232 -0.6983
  733MOL0     C 1021   6.910   4.554   3.355  0.0166 -0.7956 -0.7870
  733MOL0     C 1022   6.790   4.622   3.321 -0.0949  0.2166 -0.2457
  733MOL0     C 1023   6.665   4.593   3.382 -0.4706 -0.6487 -0.4390
  733MOL0     O 1024   6.550   4.655   3.353  0.2461 -0.7500  1.0132
  733MOL0     C 1025   6.530   4.717   3.226  0.0056 -0.0604 -0.7171
  733MOL0     C 1026   6.435   4.633   3.140 -0.0117  0.0372 -0.2284
  733MOL0     C 1027   6.418   4.680   2.995 -0.2749 -0.0836  0.4951
  733MOL0     C 1028   6.341   4.584   2.913  1.1507  0.5191  0.4308
  733MOL0     C 1029   6.304   4.644   2.774  0.4210 -1.1328  0.3383
  733MOL0     C 1030   6.190   4.571   2.703 -0.3965 -0.3269  0.4998
  733MOL0     C 1031   6.074   4.654   2.678  0.8932  0.4223  0.6248
  733MOL0     C 1032   5.991   4.705   2.795 -0.6092  1.1222 -0.0210
  733MOL0     N 1033   6.021   4.842   2.838  0.2172 -0.5251 -0.2394
  733MOL0     C 1034   5.955   4.943   2.783  0.1835 -0.6050  0.2555
  733MOL0     C 1035   5.985   5.058   2.850 -0.7165  0.6481 -1.3027
  733MOL0     C 1036   5.953   5.196   2.805 -0.0592 -0.3761 -0.1204
  733MOL0     C 1037   6.071   5.291   2.813  0.0888 -1.5500 -0.9017
  733MOL0     C 1038   6.024   5.420   2.738  0.5734  1.2144 -0.1190
  733MOL0     C 1039   6.109   5.535   2.778 -0.4549 -0.1045 -0.0559
  733MOL0     O 1040   6.069   5.654   2.697  0.5409  0.0318 -0.9362
  733MOL0     C 1041   6.158   5.754   2.678  0.3517 -0.1386 -0.1122
  733MOL0     C 1042   6.296   5.750   2.701 -0.8543  0.6609  0.0913
  733MOL0     C 1043   6.387   5.861   2.687 -0.1023  0.6686 -0.5773
  733MOL0     C 1044   6.538   5.833   2.699 -0.0843 -0.0134 -0.6314
  733MOL0     C 1045   6.331   5.984   2.664 -0.1732 -0.6458  0.2644
  733MOL0     C 1046   6.403   6.119   2.674  0.9239 -0.1494 -0.0845
  733MOL0     O 1047   6.316   6.228   2.661 -0.1449  0.1381 -0.2059
  733MOL0     C 1048   6.362   6.353   2.657 -0.0476  0.0777 -0.1153
  733MOL0     C 1049   6.411   6.414   2.547 -0.1852 -0.0055 -0.0836
  733MOL0     C 1050   6.470   6.541   2.558  0.2833 -0.2547 -0.2820
  733MOL0     C 1051   6.489   6.602   2.684 -0.3165 -0.0351  0.3181
  733MOL0     O 1052   6.557   6.727   2.688 -0.3588  0.0342 -0.5980
  733MOL0     C 1053   6.601   6.777   2.809  0.2084 -0.1556 -0.5096
  733MOL0     C 1054   6.714   6.881   2.779  0.5435  1.1161  0.3342
  733MOL0     C 1055   6.783   6.920   2.911  0.0659  0.6970  0.5371
  733MOL0     C 1056   6.898   7.024   2.906  0.5454 -0.1137 -0.0684
  733MOL0     C 1057   6.912   7.087   3.039  0.3784  0.3310 -0.4734
  733MOL0     C 1058   6.963   7.008   3.160  0.3297 -0.1311 -0.9677
  733MOL0     C 1059   6.977   7.098   3.286 -0.7350  0.0280  0.0087
  733MOL0     C 1060   7.076   7.036   3.378 -0.4980  1.0475  1.1696
  733MOL0    Cl 1061   7.109   7.152   3.511 -0.0760  0.3386 -0.3464
  733MOL0     C 1062   6.428   6.550   2.791  0.5446 -0.0306 -0.0194
  733MOL0     C 1063   6.370   6.425   2.780  0.7084  0.0514 -0.4183
  733MOL0     O 1064   6.521   6.125   2.678 -0.1422  0.1309 -0.2791
  733MOL0     C 1065   6.184   5.988   2.637  0.1859  0.3430  0.2445
  733MOL0     C 1066   6.098   5.875   2.655  1.0876 -0.4627  0.6344
  733MOL0     N 1067   6.070   5.026   2.956  1.0749  0.3591 -0.4726
  733MOL0     N 1068   6.099   4.900   2.935  0.0058  0.2345  0.2357
  733MOL0     C 1069   6.675   4.505   3.481  0.5257  0.4439 -0.1308
  733MOL0     C 1070   6.786   4.426   3.520  0.9367  0.0680  0.6372
  733MOL0     C 1071   7.141   4.199   3.604  0.2487  0.4760  0.5872
  733MOL0     C 1072   7.193   4.164   3.726 -0.0815 -0.8652  0.0073
  733MOL0     C 1073   7.291   4.074   3.742  0.2933  0.9725 -0.4949
  733MOL0     C 1074   7.340   3.999   3.637  0.0312 -0.7230  1.1616
  733MOL0     O 1075   7.437   3.906   3.654  0.0298 -0.3756 -0.2351
  733MOL0     C 1076   7.484   3.821   3.544  0.8367  0.5100 -0.8156
  733MOL0     C 1077   7.579   3.705   3.582 -0.7842  0.0568 -0.0268
  733MOL0     C 1078   7.605   3.617   3.457  0.1222  0.8993  0.2169
  733MOL0     C 1079   7.493   3.522   3.429 -0.4905  0.0899  0.4685
  733MOL0     C 1080   7.508   3.447   3.298 -0.8852 -0.2470 -0.0520
  733MOL0     C 1081   7.532   3.389   3.194  0.2992 -0.7702 -0.8576
  733MOL0     C 1082   7.290   4.029   3.505 -1.2331  0.1141 -0.3506
  733MOL0     C 1083   7.194   4.123   3.490  1.5671 -0.1290 -0.6876
  733MOL0     C 1084   7.152   4.170   3.347 -0.0140  0.0770  0.7948
  733MOL0     H 1085   7.003   4.579   3.305 -0.5804  3.0969 -0.2957
  733MOL0     H 1086   6.789   4.696   3.241 -3.2550 -1.7478 -2.2027
  733MOL0     H 1087   6.615   4.728   3.158 -0.1318 -0.8159 -1.0138
  733MOL0     H 1088   6.494   4.819   3.243  0.6815  0.7131 -3.4150
  733MOL0     H 1089   6.476   4.533   3.123  1.6395  0.5535  0.4857
  733MOL0     H 1090   6.339   4.625   3.192 -1.5797  2.3213 -2.5354
  733MOL0     H 1091   6.380   4.783   2.994 -0.4672 -0.1461 -0.6341
  733MOL0     H 1092   6.519   4.689   2.953 -0.2201  0.7082  0.7769
  733MOL0     H 1093   6.402   4.498   2.885 -1.0000 -0.6528 -1.0289
  733MOL0     H 1094   6.254   4.559   2.975 -0.0394 -1.5987 -1.9086
  733MOL0     H 1095   6.394   4.656   2.713  1.1782 -1.2785  1.4033
  733MOL0     H 1096   6.268   4.744   2.798  1.0220 -0.8731  0.1668
  733MOL0     H 1097   6.220   4.521   2.610 -1.1756  0.8066 -0.3870
  733MOL0     H 1098   6.158   4.500   2.780 -2.3464  0.0114  0.0369
  733MOL0     H 1099   6.004   4.603   2.611  1.8742  1.4847 -1.2868
  733MOL0     H 1100   6.100   4.745   2.625 -1.8643  0.6591 -0.4917
  733MOL0     H 1101   5.884   4.703   2.774 -0.6806  1.1230  0.3282
  733MOL0     H 1102   5.994   4.640   2.883 -2.7223  0.5342 -0.3388
  733MOL0     H 1103   5.887   4.936   2.699 -0.0329  2.0059  0.1336
  733MOL0     H 1104   5.871   5.233   2.867  0.7362 -1.3213  1.5625
  733MOL0     H 1105   5.919   5.189   2.701  0.2888 -3.0538 -0.1170
  733MOL0     H 1106   6.086   5.325   2.915 -0.7499 -0.5845 -1.0779
  733MOL0     H 1107   6.161   5.246   2.771  2.0017  0.6870  0.5991
  733MOL0     H 1108   6.036   5.402   2.630  2.0768 -0.9017  0.3364
  733MOL0     H 1109   5.916   5.434   2.750  0.6632  1.9815 -0.1633
  733MOL0     H 1110   6.097   5.569   2.881  0.7657 -2.2792  0.8771
  733MOL0     H 1111   6.214   5.507   2.761  0.1275  0.3039  2.4893
  733MOL0     H 1112   6.343   5.658   2.735 -0.2849  0.4860 -1.1209
  733MOL0     H 1113   6.550   5.727   2.723 -3.6661 -0.4936 -0.4054
  733MOL0     H 1114   6.593   5.886   2.777  0.5350 -1.0139 -0.3596
  733MOL0     H 1115   6.593   5.839   2.605  0.4251 -1.3989 -0.4513
  733MOL0     H 1116   6.407   6.361   2.452 -2.2303  1.5947 -0.9687
  733MOL0     H 1117   6.509   6.591   2.470 -1.2770 -1.5752 -1.8051
  733MOL0     H 1118   6.522   6.821   2.868  0.1708 -1.0055  0.0947
  733MOL0     H 1119   6.642   6.690   2.862  1.4577  0.9913  0.4574
  733MOL0     H 1120   6.788   6.833   2.715 -1.2073  1.3819 -1.9952
  733MOL0     H 1121   6.678   6.967   2.722  2.7053  0.5101 -2.1033
  733MOL0     H 1122   6.822   6.833   2.965  1.1831  1.5062  1.0568
  733MOL0     H 1123   6.707   6.965   2.977  2.6307  1.9123  2.8493
  733MOL0     H 1124   6.873   7.094   2.825 -0.3522 -1.7491 -1.2610
  733MOL0     H 1125   6.998   6.987   2.885  0.7239  0.0820  0.4163
  733MOL0     H 1126   6.985   7.168   3.029 -0.3020  0.8802 -1.1607
  733MOL0     H 1127   6.815   7.133   3.060  0.5476  1.5269 -2.1137
  733MOL0     H 1128   7.059   6.962   3.136  0.6718  0.2014 -0.2671
  733MOL0     H 1129   6.897   6.924   3.181 -0.2685  0.2319 -1.3389
  733MOL0     H 1130   6.878   7.091   3.332 -1.3237  0.3000 -1.1728
  733MOL0     H 1131   7.006   7.198   3.254 -4.4524  0.6174 -2.0878
  733MOL0     H 1132   7.173   7.018   3.331  0.4507 -2.3393  4.0415
  733MOL0     H 1133   7.037   6.938   3.407  4.5304 -2.8785 -3.1805
  733MOL0     H 1134   6.415   6.605   2.883  0.2446  2.4808 -1.4686
  733MOL0     H 1135   6.322   6.381   2.867 -3.2246  1.0677 -1.8595
  733MOL0     H 1136   6.130   6.080   2.613  0.8448  1.1873  1.8670
  733MOL0     H 1137   5.991   5.889   2.654  0.4175 -4.4109  1.1618
  733MOL0     H 1138   6.582   4.478   3.532 -0.2702  0.2636 -1.6205
  733MOL0     H 1139   6.782   4.337   3.581  1.1277  0.1034  0.7037
  733MOL0     H 1140   7.154   4.210   3.816 -0.6479  1.1472 -1.2062
  733MOL0     H 1141   7.327   4.058   3.843 -0.2372 -3.4852 -0.8101
  733MOL0     H 1142   7.393   3.791   3.493 -0.4808  3.4427 -0.4195
  733MOL0     H 1143   7.533   3.882   3.467  0.0622  3.5888  0.9518
  733MOL0     H 1144   7.537   3.640   3.659 -1.8771 -1.2843 -1.6917
  733MOL0     H 1145   7.676   3.754   3.598 -0.4288  0.5334 -2.9744
  733MOL0     H 1146   7.608   3.686   3.372  0.4679  3.0495  1.9027
  733MOL0     H 1147   7.694   3.556   3.476 -0.2337 -0.1708 -1.3578
  733MOL0     H 1148   7.393   3.563   3.447 -0.9357 -1.5099  1.9905
  733MOL0     H 1149   7.518   3.459   3.515  0.3110  2.5381  2.1405
  733MOL0     H 1150   7.543   3.341   3.100  0.3767 -2.5343  0.0182
  733MOL0     H 1151   7.332   3.965   3.428 -4.1439 -3.3142  0.6167
  733MOL0     H 1152   7.044   4.160   3.344  0.1215 -2.4432 -3.4450
  733MOL0     H 1153   7.184   4.267   3.306 -2.0207  0.2347 -0.5164
  733MOL0     H 1154   7.189   4.100   3.271  2.8771  2.5679 -0.3328
  734MOL0     O 1155  10.563   6.626   3.364  0.2121  0.6277 -0.3663
  734MOL0     C 1156  10.439   6.616   3.379  0.7953  0.2120  0.1862
  734MOL0     O 1157  10.347   6.708   3.347 -0.0028 -0.2673 -0.8047
  734MOL0     C 1158  10.373   6.788   3.241 -0.2079 -0.6082  0.9355
  734MOL0     C 1159  10.455   6.753   3.135 -0.8946  0.3416  0.3300
  734MOL0     C 1160  10.479   6.847   3.031 -0.4048  0.8559  0.9593
  734MOL0     C 1161  10.432   6.971   3.042  0.0277 -0.5054  0.7396
  734MOL0     O 1162  10.420   7.066   2.937 -0.4550  1.0162 -0.6296
  734MOL0     C 1163  10.442   7.045   2.797  0.0091  0.0983 -0.2480
  734MOL0     C 1164  10.319   7.101   2.726 -0.0655 -0.5423 -0.9814
  734MOL0     C 1165  10.305   7.061   2.576  0.2247 -0.1384 -0.9334
  734MOL0     C 1166  10.168   7.098   2.535 -0.0952 -0.3098 -0.3538
  734MOL0     C 1167  10.148   7.108   2.375 -0.4413  0.1084 -0.7350
  734MOL0     C 1168  10.209   6.995   2.295  0.4280  0.2570 -0.2314
  734MOL0     C 1169  10.156   6.851   2.332 -0.2826  0.4275 -0.0276
  734MOL0     C 1170  10.152   6.744   2.220 -0.9304  0.4873 -0.4072
  734MOL0     N 1171  10.166   6.611   2.282 -0.1152 -0.0888  0.4356
  734MOL0     C 1172  10.279   6.558   2.336 -0.6928  0.4900 -0.0105
  734MOL0     C 1173  10.253   6.428   2.361  0.3468  0.1742 -0.2474
  734MOL0     C 1174  10.349   6.323   2.406  0.0222  0.1100 -0.8815
  734MOL0     C 1175  10.476   6.320   2.308 -0.0126 -0.4664  0.0657
  734MOL0     C 1176  10.573   6.204   2.339  0.0232  0.1501 -0.0872
  734MOL0     C 1177  10.704   6.202   2.254 -0.2263 -0.0833 -0.5335
  734MOL0     O 1178  10.780   6.082   2.255 -0.3347 -0.1544 -0.0923
  734MOL0     C 1179  10.884   6.058   2.168 -0.2182 -0.0738  0.0431
  734MOL0     C 1180  10.954   5.946   2.198  0.2068  0.4400 -0.4787
  734MOL0     C 1181  11.056   5.896   2.119  0.4939  0.1289 -0.5495
  734MOL0     C 1182  11.113   5.765   2.166  0.1012 -0.3049 -0.0100
  734MOL0     C 1183  11.091   5.961   1.992 -0.0002 -0.0001 -0.3088
  734MOL0     C 1184  11.199   5.906   1.896  0.4561 -1.0954 -0.4960
  734MOL0     O 1185  11.236   5.999   1.798 -0.1216  1.1186  0.0281
  734MOL0     C 1186  11.323   5.960   1.704 -0.9947 -0.6229 -0.0128
  734MOL0     C 1187  11.288   5.985   1.575 -0.6908 -0.0879 -0.0772
  734MOL0     C 1188  11.383   5.971   1.472 -0.4016 -0.4348 -0.0780
  734MOL0     C 1189  11.505   5.911   1.499 -0.4334  0.7497  0.2428
  734MOL0     O 1190  11.583   5.892   1.389  0.1521 -0.9993 -1.0400
  734MOL0     C 1191  11.711   5.843   1.396 -0.5601  0.6517 -0.2815
  734MOL0     C 1192  11.802   5.900   1.280 -0.3202  0.2040 -0.9664
  734MOL0     C 1193  11.951   5.881   1.320 -0.2825 -0.2161  0.5567
  734MOL0     C 1194  12.002   5.749   1.254 -0.6686  0.3433 -0.7188
  734MOL0     C 1195  12.015   5.750   1.103 -0.8653 -0.4250  1.3880
  734MOL0     C 1196  12.096   5.866   1.032  1.7876 -0.5918  0.6431
  734MOL0     C 1197  12.083   5.855   0.877 -0.2016 -0.3293 -0.3337
  734MOL0     C 1198  11.941   5.895   0.822 -0.5605  0.9896 -0.1320
  734MOL0    Cl 1199  11.935   5.880   0.650 -0.3811 -0.5024  0.2993
  734MOL0     C 1200  11.531   5.858   1.630  0.7577  0.1583 -0.6616
  734MOL0     C 1201  11.449   5.896   1.733  0.3464  0.1005 -0.2488
  734MOL0     O 1202  11.237   5.790   1.898 -0.3975  0.7802 -0.2697
  734MOL0     C 1203  11.026   6.086   1.969  0.4313  0.1400  0.3627
  734MOL0     C 1204  10.920   6.132   2.049 -0.2937 -0.0535  0.8469
  734MOL0     N 1205  10.123   6.401   2.318 -0.4971  0.2336 -1.0440
  734MOL0     N 1206  10.075   6.515   2.288  0.4275 -0.0639  0.0749
  734MOL0     C 1207  10.349   7.003   3.146  0.1382 -0.1273 -0.2332
  734MOL0     C 1208  10.324   6.919   3.246 -0.8589  0.5836 -0.0094
  734MOL0     C 1209  10.388   6.487   3.430 -0.4723 -1.2197 -0.1979
  734MOL0     C 1210  10.253   6.488   3.469  0.8139 -0.0489 -0.4943
  734MOL0     C 1211  10.193   6.380   3.544 -0.0552 -0.1678  0.2934
  734MOL0     C 1212  10.263   6.258   3.556  0.0131 -0.0830 -0.3896
  734MOL0     O 1213  10.222   6.143   3.627  0.0716 -0.6276  0.5065
  734MOL0     C 1214  10.145   6.052   3.551 -0.3194 -0.2076 -0.4831
  734MOL0     C 1215  10.235   5.961   3.479  0.2947 -0.8341 -0.6613
  734MOL0     C 1216  10.171   5.855   3.394 -0.3379  0.4685  0.5588
  734MOL0     C 1217  10.277   5.796   3.301  1.0440 -0.8810  0.9250
  734MOL0     C 1218  10.417   5.782   3.330  0.6531  0.5572 -0.1121
  734MOL0     C 1219  10.531   5.780   3.378  0.1086  0.9334  0.2656
  734MOL0     C 1220  10.389   6.254   3.505  0.8180  0.2868  0.6731
  734MOL0     C 1221  10.454   6.361   3.444 -0.3790 -0.1735  0.7307
  734MOL0     C 1222  10.608   6.326   3.422 -0.3254 -0.9370 -0.1614
  734MOL0     H 1223  10.497   6.653   3.134 -2.2945 -0.3359 -2.2896
  734MOL0     H 1224  10.533   6.810   2.944 -0.6570 -0.1366  1.2059
  734MOL0     H 1225  10.446   6.937   2.781  0.3238 -0.4763  2.9744
  734MOL0     H 1226  10.536   7.097   2.775 -0.6189  2.3909  1.9389
  734MOL0     H 1227  10.233   7.063   2.783  0.4466 -0.6000 -0.2328
  734MOL0     H 1228  10.318   7.210   2.728 -0.3464 -0.5497  0.0133
  734MOL0     H 1229  10.385   7.108   2.518 -0.1785  3.2192  0.9729
  734MOL0     H 1230  10.310   6.953   2.561 -1.3700 -0.2955 -0.4846
  734MOL0     H 1231  10.098   7.021   2.568 -3.9578  1.9652 -2.4042
  734MOL0     H 1232  10.134   7.191   2.581  2.3459 -0.7520  2.6426
  734MOL0     H 1233  10.192   7.201   2.339 -1.1135 -0.6651 -3.8771
  734MOL0     H 1234  10.041   7.114   2.351 -0.6086 -1.3822 -0.4631
  734MOL0     H 1235  10.180   7.004   2.190  0.7824 -1.1374 -0.4704
  734MOL0     H 1236  10.318   7.000   2.298  0.8915 -4.9471  1.6334
  734MOL0     H 1237  10.054   6.853   2.373  0.2377 -0.1707  1.3838
  734MOL0     H 1238  10.219   6.818   2.416 -0.3768 -0.2588 -0.2238
  734MOL0     H 1239  10.064   6.753   2.156 -1.3498 -0.9032 -0.0570
  734MOL0     H 1240  10.231   6.754   2.145 -0.2323 -1.1166  0.0766
  734MOL0     H 1241  10.377   6.599   2.355 -0.8671  1.3046 -0.7981
  734MOL0     H 1242  10.303   6.223   2.402  1.6873 -0.6400 -2.7713
  734MOL0     H 1243  10.370   6.356   2.508 -1.5113  1.1894 -0.8791
  734MOL0     H 1244  10.443   6.319   2.203  0.7230  2.7277 -0.2899
  734MOL0     H 1245  10.537   6.409   2.324 -0.1241 -0.7033  2.0066
  734MOL0     H 1246  10.600   6.212   2.445 -0.2085  0.5802 -0.0613
  734MOL0     H 1247  10.527   6.105   2.326 -0.1396  0.1707  0.3204
  734MOL0     H 1248  10.681   6.247   2.156 -2.3634  2.0427  0.8261
  734MOL0     H 1249  10.774   6.270   2.302 -0.8503 -0.3070  0.7211
  734MOL0     H 1250  10.930   5.887   2.286 -0.7386  0.7247 -0.5311
  734MOL0     H 1251  11.223   5.767   2.163  0.1273 -1.0121  0.1975
  734MOL0     H 1252  11.074   5.674   2.120  0.5284 -2.7173  3.9349
  734MOL0     H 1253  11.085   5.759   2.272 -4.2783 -0.1135 -0.9772
  734MOL0     H 1254  11.198   6.037   1.544 -0.0322 -0.7021 -3.4375
  734MOL0     H 1255  11.375   5.996   1.366  1.3676 -2.8952 -0.8772
  734MOL0     H 1256  11.759   5.867   1.491  0.3707 -2.9796  0.3162
  734MOL0     H 1257  11.719   5.734   1.393 -0.8701  0.6440 -1.0656
  734MOL0     H 1258  11.763   5.855   1.188 -2.7073  1.1061 -0.4767
  734MOL0     H 1259  11.776   6.006   1.290 -0.5423  0.0135  0.8474
  734MOL0     H 1260  11.961   5.871   1.428 -1.1128 -2.2662  0.4943
  734MOL0     H 1261  11.996   5.970   1.276 -4.0416  2.3728  1.4452
  734MOL0     H 1262  11.927   5.675   1.283  0.9519 -1.0783 -0.0398
  734MOL0     H 1263  12.093   5.723   1.308 -2.4973 -0.7710  2.0249
  734MOL0     H 1264  12.068   5.658   1.076  1.3756  0.8019  1.3860
  734MOL0     H 1265  11.915   5.739   1.060  0.1719  1.3002 -1.7722
  734MOL0     H 1266  12.199   5.862   1.067  2.2075  0.9326 -0.3407
  734MOL0     H 1267  12.064   5.963   1.071 -0.7387 -0.3910 -1.5678
  734MOL0     H 1268  12.117   5.755   0.850  2.5194  0.0501  1.2708
  734MOL0     H 1269  12.154   5.923   0.829 -0.9565  1.8683  1.4665
  734MOL0     H 1270  11.922   5.999   0.852 -0.8700  0.3562  1.9952
  734MOL0     H 1271  11.862   5.837   0.869  0.2119 -0.7047 -0.8565
  734MOL0     H 1272  11.618   5.798   1.654 -1.5800 -2.7805  1.1841
  734MOL0     H 1273  11.466   5.856   1.832  1.3050 -2.4318 -1.3640
  734MOL0     H 1274  11.062   6.142   1.884 -4.1219  0.4497 -1.6215
  734MOL0     H 1275  10.870   6.222   2.014  0.5157 -0.6633 -2.1340
  734MOL0     H 1276  10.316   7.106   3.143  1.6272  0.3670 -2.9977
  734MOL0     H 1277  10.272   6.948   3.337  2.3898 -1.5807  2.7479
  734MOL0     H 1278  10.194   6.578   3.475  0.9823 -0.0042  0.6504
  734MOL0     H 1279  10.087   6.378   3.564 -0.3741  0.3303 -1.2172
  734MOL0     H 1280  10.098   5.984   3.623  1.5224  0.9179  1.9157
  734MOL0     H 1281  10.065   6.091   3.488 -0.0520 -1.9863 -1.9796
  734MOL0     H 1282  10.294   5.910   3.555  5.5560  0.1843 -3.5835
  734MOL0     H 1283  10.294   6.029   3.417 -2.3308  2.5542  0.2441
  734MOL0     H 1284  10.121   5.777   3.452 -1.1158 -1.0602 -2.0144
  734MOL0     H 1285  10.090   5.908   3.343 -2.1135 -0.3133  2.4168
  734MOL0     H 1286  10.265   5.848   3.205  1.0709 -0.5492  1.0985
  734MOL0     H 1287  10.231   5.697   3.288 -0.7823 -0.1801  1.6809
  734MOL0     H 1288  10.630   5.769   3.419  0.7390  0.4820 -1.2917
  734MOL0     H 1289  10.457   6.172   3.523  1.1934  0.1045 -1.3488
  734MOL0     H 1290  10.610   6.218   3.408  0.6547 -0.6989 -2.1183
  734MOL0     H 1291  10.648   6.370   3.330 -0.2882 -0.2929  0.1583
  734MOL0     H 1292  10.671   6.362   3.504 -2.2673  0.9985  0.5886
  735MOL0     O 1293   9.880   9.678   1.425 -0.0490  0.0008 -0.2059
  735MOL0     C 1294   9.998   9.694   1.467  0.0068 -0.0532 -0.5709
  735MOL0     O 1295  10.082   9.604   1.519 -0.6411  0.9299  0.0651
  735MOL0     C 1296  10.066   9.476   1.473  0.0964  0.3446  0.9995
  735MOL0     C 1297  10.019   9.389   1.565  0.2963 -0.0909  0.7157
  735MOL0     C 1298  10.001   9.252   1.551 -0.0181 -1.1621  0.8150
  735MOL0     C 1299  10.043   9.196   1.427  0.4038 -0.6879 -0.5514
  735MOL0     O 1300  10.049   9.064   1.401 -0.8414  1.0965  0.4270
  735MOL0     C 1301  10.109   8.983   1.505  0.4831 -0.7123  0.1234
  735MOL0     C 1302  10.101   8.848   1.449  0.4760 -0.0120  0.2570
  735MOL0     C 1303  10.193   8.820   1.321  0.4475 -0.0200  0.4599
  735MOL0     C 1304  10.308   8.730   1.346  0.4606 -0.5434  0.2404
  735MOL0     C 1305  10.400   8.722   1.220  0.1085 -0.2943 -0.3125
  735MOL0     C 1306  10.539   8.692   1.253 -1.3166  0.4941 -0.9404
  735MOL0     C 1307  10.621   8.677   1.124  0.3137  0.2370  1.2883
  735MOL0     C 1308  10.630   8.815   1.037  0.1027  0.8307 -1.2819
  735MOL0     N 1309  10.710   8.799   0.913 -0.1535  0.0238 -0.4982
  735MOL0     C 1310  10.701   8.703   0.811 -0.1863 -0.5553  0.9141
  735MOL0     C 1311  10.795   8.746   0.726  0.1984 -0.2802  0.4874
  735MOL0     C 1312  10.841   8.680   0.598 -0.6745  0.6805  1.1368
  735MOL0     C 1313  10.994   8.686   0.577 -0.9360 -0.5991 -0.3241
  735MOL0     C 1314  11.078   8.626   0.683  0.3630  0.8181  0.3047
  735MOL0     C 1315  11.228   8.653   0.661 -0.0738 -0.6090  0.1579
  735MOL0     O 1316  11.308   8.551   0.723  0.2245 -0.6741  0.2413
  735MOL0     C 1317  11.391   8.580   0.831 -0.0830  0.4849  0.5875
  735MOL0     C 1318  11.363   8.688   0.922 -0.2975  0.3100 -0.8313
  735MOL0     C 1319  11.451   8.721   1.023  0.1089 -0.0804  0.3718
  735MOL0     C 1320  11.412   8.835   1.119 -0.4653 -0.1496 -0.0353
  735MOL0     C 1321  11.566   8.644   1.043  0.3664 -0.2593  0.0996
  735MOL0     C 1322  11.663   8.680   1.154  1.3071  0.0746 -0.8434
  735MOL0     O 1323  11.731   8.587   1.221 -0.3301 -0.7992 -0.9797
  735MOL0     C 1324  11.783   8.643   1.338 -0.0105 -0.6454  0.2960
  735MOL0     C 1325  11.896   8.732   1.334  1.0157 -0.2239 -0.2300
  735MOL0     C 1326  11.939   8.787   1.458  0.0569  0.0801 -0.7053
  735MOL0     C 1327  11.897   8.749   1.586 -0.2118 -0.0701  1.5554
  735MOL0     O 1328  11.963   8.796   1.701  0.7827  0.1242  1.2396
  735MOL0     C 1329  12.005   8.702   1.802 -0.0636  0.8827 -0.1190
  735MOL0     C 1330  12.128   8.618   1.749 -0.3785 -1.8660  0.9021
  735MOL0     C 1331  12.182   8.529   1.851 -0.1928 -0.0713 -0.7338
  735MOL0     C 1332  12.309   8.457   1.799 -0.8023  0.3621 -0.1000
  735MOL0     C 1333  12.346   8.338   1.893  0.9350 -0.8355 -0.0423
  735MOL0     C 1334  12.480   8.277   1.856 -0.4514  0.6208  0.3132
  735MOL0     C 1335  12.514   8.198   1.977 -0.2284 -0.3195 -0.3045
  735MOL0     C 1336  12.667   8.171   1.996 -0.9566  0.5799 -0.1521
  735MOL0    Cl 1337  12.714   8.060   1.886  0.3855 -0.2407 -0.2581
  735MOL0     C 1338  11.782   8.668   1.581 -0.2740  0.2623  0.1081
  735MOL0     C 1339  11.732   8.612   1.463 -0.6352  0.3825  0.2624
  735MOL0     O 1340  11.678   8.805   1.163 -0.7119  0.0995 -0.5300
  735MOL0     C 1341  11.592   8.529   0.961 -0.5184  0.3026  0.0582
  735MOL0     C 1342  11.505   8.505   0.854 -0.5058  0.1766 -0.5955
  735MOL0     N 1343  10.840   8.868   0.765 -0.3732  0.1377  0.1867
  735MOL0     N 1344  10.812   8.883   0.885 -0.1149  0.4120 -0.4188
  735MOL0     C 1345  10.083   9.280   1.319 -0.4132  0.2896 -0.0628
  735MOL0     C 1346  10.091   9.428   1.341  0.4105 -0.0509 -0.1768
  735MOL0     C 1347  10.047   9.836   1.466 -0.0126  0.0882  0.8068
  735MOL0     C 1348  10.177   9.865   1.520 -1.1441 -0.1033 -0.4117
  735MOL0     C 1349  10.238   9.991   1.534  0.6786 -0.0408  0.2476
  735MOL0     C 1350  10.173  10.100   1.470 -0.0433  0.4923  0.2063
  735MOL0     O 1351  10.239  10.217   1.498  0.0109  0.3363  0.2078
  735MOL0     C 1352  10.166  10.328   1.549  1.0252 -0.9633  0.2687
  735MOL0     C 1353  10.254  10.436   1.610 -0.7629 -0.0557  0.6969
  735MOL0     C 1354  10.315  10.395   1.749  0.2958  0.4526  0.5566
  735MOL0     C 1355  10.426  10.494   1.782 -0.0929  0.0863 -1.1215
  735MOL0     C 1356  10.550  10.493   1.699  0.8452  0.5312  0.1446
  735MOL0     C 1357  10.649  10.493   1.628 -0.1648  0.4826 -0.0594
  735MOL0     C 1358  10.050  10.080   1.405 -0.2408  1.3799  0.6770
  735MOL0     C 1359   9.987   9.949   1.394  0.1830 -0.1621  0.4825
  735MOL0     C 1360   9.860   9.943   1.324 -0.0302 -0.5431 -0.4627
  735MOL0     H 1361   9.987   9.431   1.660  1.3012  1.8900  0.2223
  735MOL0     H 1362   9.966   9.190   1.632  0.0125 -3.6461 -0.9520
  735MOL0     H 1363  10.045   8.979   1.593 -2.2860  4.4039 -1.2362
  735MOL0     H 1364  10.213   9.008   1.525  1.9544 -3.2194 -3.3031
  735MOL0     H 1365  10.128   8.793   1.539 -1.6705  2.3276  2.4657
  735MOL0     H 1366  10.000   8.809   1.437  0.0113  0.1553  3.0390
  735MOL0     H 1367  10.127   8.775   1.247 -2.0699 -0.2458  2.6682
  735MOL0     H 1368  10.241   8.915   1.296 -0.2143  0.3422  0.5112
  735MOL0     H 1369  10.356   8.782   1.430  1.2889  4.0309 -2.6720
  735MOL0     H 1370  10.282   8.628   1.373 -1.1664 -0.1822  0.1147
  735MOL0     H 1371  10.398   8.823   1.176 -0.7450  1.1573  2.7754
  735MOL0     H 1372  10.358   8.650   1.150 -1.3805  0.6564 -0.4486
  735MOL0     H 1373  10.589   8.767   1.315  1.9808 -0.4519 -2.2743
  735MOL0     H 1374  10.549   8.607   1.321  2.1935  1.3137 -0.2454
  735MOL0     H 1375  10.565   8.596   1.075  1.2973 -0.1397  0.7489
  735MOL0     H 1376  10.721   8.643   1.152  0.4446 -1.5225 -0.9794
  735MOL0     H 1377  10.524   8.831   1.013 -1.6397 -4.9697  0.7893
  735MOL0     H 1378  10.663   8.894   1.104 -1.4015 -1.0091  1.8843
  735MOL0     H 1379  10.630   8.621   0.798 -1.5422  0.7799 -0.5665
  735MOL0     H 1380  10.799   8.718   0.505  1.7102 -1.0534 -0.7912
  735MOL0     H 1381  10.805   8.577   0.602  0.1652  0.3303  0.0716
  735MOL0     H 1382  11.019   8.628   0.488 -1.2399 -0.9880 -0.1590
  735MOL0     H 1383  11.016   8.793   0.573 -0.4122 -0.6987 -0.1942
  735MOL0     H 1384  11.050   8.671   0.778  0.0673  0.4546  0.3931
  735MOL0     H 1385  11.067   8.519   0.703  1.6431  0.4176 -0.9077
  735MOL0     H 1386  11.261   8.665   0.557 -1.8437 -0.4963 -0.4139
  735MOL0     H 1387  11.257   8.749   0.706 -0.4457 -0.7966  0.8136
  735MOL0     H 1388  11.270   8.744   0.935  1.2773  2.8659  0.1634
  735MOL0     H 1389  11.463   8.927   1.090 -2.6308  1.4845  1.0291
  735MOL0     H 1390  11.424   8.805   1.224  0.1750  0.1317 -0.0256
  735MOL0     H 1391  11.305   8.859   1.111 -0.4185  1.4436  2.8378
  735MOL0     H 1392  11.932   8.762   1.237  0.7680  1.6239  0.2129
  735MOL0     H 1393  12.022   8.856   1.462  0.1951 -0.1316  0.4630
  735MOL0     H 1394  12.043   8.747   1.895  0.4748  1.5009 -0.6327
  735MOL0     H 1395  11.928   8.627   1.816 -1.8520  2.6456 -0.0858
  735MOL0     H 1396  12.092   8.553   1.668 -4.4088 -1.1279  1.8628
  735MOL0     H 1397  12.210   8.680   1.711 -1.5506 -2.4632 -3.0649
  735MOL0     H 1398  12.108   8.450   1.866  0.7172 -1.4174 -2.8797
  735MOL0     H 1399  12.198   8.579   1.947  1.0270 -1.7662 -0.0009
  735MOL0     H 1400  12.384   8.537   1.794  1.2498 -1.5244 -1.9898
  735MOL0     H 1401  12.290   8.416   1.699 -1.1436 -3.2522  1.2907
  735MOL0     H 1402  12.349   8.386   1.991 -1.5031 -1.5192  0.4440
  735MOL0     H 1403  12.267   8.262   1.896 -1.4681  1.2662 -2.8254
  735MOL0     H 1404  12.564   8.344   1.838  0.6288 -1.1352 -1.7101
  735MOL0     H 1405  12.466   8.205   1.775 -2.8168  0.0871  1.1144
  735MOL0     H 1406  12.466   8.100   1.968 -2.4339  0.4268  2.0367
  735MOL0     H 1407  12.471   8.248   2.065  0.9828 -0.1146  0.1930
  735MOL0     H 1408  12.688   8.125   2.093  0.6770 -0.2232 -0.8398
  735MOL0     H 1409  12.734   8.257   2.004 -0.5087  0.1102  1.5313
  735MOL0     H 1410  11.722   8.647   1.669 -3.3563  0.1359 -1.8672
  735MOL0     H 1411  11.647   8.550   1.490 -2.5468  3.2298  1.2596
  735MOL0     H 1412  11.665   8.451   0.980 -0.5504  0.4125  0.6696
  735MOL0     H 1413  11.531   8.437   0.774  1.1465 -0.0346  0.0940
  735MOL0     H 1414  10.109   9.235   1.223  0.5478  1.3586 -0.3377
  735MOL0     H 1415  10.112   9.492   1.256  1.0278 -2.9940 -2.4009
  735MOL0     H 1416  10.243   9.785   1.552  1.2556  1.6448 -0.7247
  735MOL0     H 1417  10.343  10.002   1.559  1.8169  0.9512 -4.1424
  735MOL0     H 1418  10.114  10.360   1.457 -0.3131 -2.3432  0.4947
  735MOL0     H 1419  10.093  10.301   1.626  2.5992  2.4286  3.2284
  735MOL0     H 1420  10.201  10.530   1.628  1.8020  1.2083  2.3196
  735MOL0     H 1421  10.338  10.469   1.548 -0.4004  0.9383  1.6650
  735MOL0     H 1422  10.235  10.385   1.823 -0.0937 -1.6372 -0.0964
  735MOL0     H 1423  10.360  10.296   1.737 -1.2879 -0.1120 -1.1967
  735MOL0     H 1424  10.454  10.472   1.885  0.0230  2.1624 -0.6561
  735MOL0     H 1425  10.396  10.599   1.784 -1.4983 -0.3039 -1.1502
  735MOL0     H 1426  10.726  10.516   1.557 -0.0918 -1.9634 -0.8371
  735MOL0     H 1427  10.002  10.168   1.363  2.6052  1.9009 -1.7909
  735MOL0     H 1428   9.775   9.911   1.385  0.5497 -1.0092  0.1185
  735MOL0     H 1429   9.834  10.040   1.280  0.6810  0.7506  1.7944
  735MOL0     H 1430   9.858   9.864   1.249  0.8503 -1.2389  0.2221
  736MOL0     O 1431   5.927  10.290   0.742  0.7290  0.1613 -0.0295
  736MOL0     C 1432   5.992  10.392   0.752 -0.3717  0.9914 -0.0194
  736MOL0     O 1433   6.127  10.394   0.751  0.0508 -0.0291 -0.5818
  736MOL0     C 1434   6.188  10.270   0.737 -0.5864 -0.0862  0.4644
  736MOL0     C 1435   6.258  10.227   0.616  0.2050  0.9097  1.4594
  736MOL0     C 1436   6.319  10.101   0.607 -0.3645 -0.2875  0.1691
  736MOL0     C 1437   6.329  10.026   0.728 -0.3377  0.8786  1.0272
  736MOL0     O 1438   6.389   9.905   0.691 -0.4381  0.1555  0.3067
  736MOL0     C 1439   6.377   9.793   0.783 -0.9346  0.2086  0.6408
  736MOL0     C 1440   6.338   9.665   0.704  0.4366  0.0181  0.7398
  736MOL0     C 1441   6.201   9.671   0.629 -0.0892  0.5781 -0.5369
  736MOL0     C 1442   6.089   9.712   0.726  0.7737  0.8306 -0.5027
  736MOL0     C 1443   5.949   9.701   0.667  0.4207 -0.0056 -0.0602
  736MOL0     C 1444   5.846   9.780   0.748 -0.3647  0.0015 -0.2967
  736MOL0     C 1445   5.842   9.933   0.742 -0.0285 -0.5488 -0.6134
  736MOL0     C 1446   5.781   9.993   0.878  0.1940 -0.1910  0.4519
  736MOL0     N 1447   5.639   9.944   0.897 -0.3619 -0.0558  0.2345
  736MOL0     C 1448   5.523   9.992   0.845  0.0450  0.9076 -0.2858
  736MOL0     C 1449   5.426   9.905   0.881  0.3053 -0.5344 -0.1029
  736MOL0     C 1450   5.274   9.911   0.840 -0.6106  0.5827 -0.3726
  736MOL0     C 1451   5.230  10.040   0.762  0.2267  0.1387  0.2698
  736MOL0     C 1452   5.282  10.039   0.618 -0.1297 -0.0998  0.1367
  736MOL0     C 1453   5.282  10.175   0.548 -0.0872  1.1587 -0.9438
  736MOL0     O 1454   5.386  10.266   0.585  0.0690  0.2495  0.9015
  736MOL0     C 1455   5.388  10.396   0.548 -0.2990 -0.1132  0.2800
  736MOL0     C 1456   5.303  10.462   0.461  0.5744  0.2180 -0.0615
  736MOL0     C 1457   5.318  10.602   0.429 -0.1106  0.2395  0.4441
  736MOL0     C 1458   5.217  10.678   0.337  0.3401 -0.3547  0.1725
  736MOL0     C 1459   5.430  10.669   0.476 -0.4308  0.2542  0.0215
  736MOL0     C 1460   5.451  10.811   0.457 -0.9450  0.0937  0.4988
  736MOL0     O 1461   5.357  10.900   0.475  0.3833 -0.1766  0.0626
  736MOL0     C 1462   5.388  11.022   0.422 -0.6733 -0.9996  0.3829
  736MOL0     C 1463   5.356  11.041   0.282  0.4357  0.2114 -0.4537
  736MOL0     C 1464   5.371  11.163   0.220 -1.0945  0.3600 -0.2158
  736MOL0     C 1465   5.440  11.261   0.288  0.1985  1.0460  0.5534
  736MOL0     O 1466   5.462  11.387   0.240  0.1274 -0.2321  0.5727
  736MOL0     C 1467   5.382  11.443   0.142  0.6752 -0.2229  0.1066
  736MOL0     C 1468   5.434  11.588   0.120 -0.3058  0.6348 -0.2050
  736MOL0     C 1469   5.337  11.678   0.033 -0.9823  0.4133 -0.2497
  736MOL0     C 1470   5.378  11.830   0.062 -0.5147 -0.1498  0.0792
  736MOL0     C 1471   5.295  11.934  -0.009  0.5486  0.2494 -0.1123
  736MOL0     C 1472   5.334  12.074   0.025 -0.7373  0.9824 -0.4647
  736MOL0     C 1473   5.277  12.188  -0.063 -0.2900  0.7256  0.6772
  736MOL0     C 1474   5.294  12.166  -0.210  0.9232  0.1400 -0.6907
  736MOL0    Cl 1475   5.239  12.304  -0.292  0.3290 -0.0188  0.3909
  736MOL0     C 1476   5.464  11.241   0.426 -0.0223  0.1399 -0.0287
  736MOL0     C 1477   5.437  11.124   0.494 -0.0020  1.0369 -0.7403
  736MOL0     O 1478   5.567  10.843   0.425  0.1768 -0.4279 -0.3002
  736MOL0     C 1479   5.527  10.596   0.548 -0.3792  0.2023 -0.0364
  736MOL0     C 1480   5.497  10.463   0.587 -0.0280  0.3218  0.6941
  736MOL0     N 1481   5.479   9.797   0.943  0.6991 -0.7516 -0.1252
  736MOL0     N 1482   5.608   9.819   0.952 -0.0437 -0.6359  0.4065
  736MOL0     C 1483   6.273  10.062   0.846  0.2286 -0.0716  0.0435
  736MOL0     C 1484   6.199  10.189   0.852 -0.9423 -0.0955 -1.0703
  736MOL0     C 1485   5.917  10.512   0.784 -0.0120  0.0306  0.3320
  736MOL0     C 1486   5.974  10.645   0.752 -0.0040  0.1442 -0.3815
  736MOL0     C 1487   5.902  10.760   0.778  0.3100 -0.5550 -0.0510
  736MOL0     C 1488   5.769  10.761   0.807 -0.9533  0.2898 -0.4075
  736MOL0     O 1489   5.707  10.878   0.802  0.8988 -0.2912  0.4934
  736MOL0     C 1490   5.606  10.916   0.899 -1.1220  0.4680 -0.4392
  736MOL0     C 1491   5.538  11.053   0.899 -0.7518  0.2232 -0.1247
  736MOL0     C 1492   5.631  11.188   0.906 -0.1252  0.1053 -0.6099
  736MOL0     C 1493   5.753  11.194   1.010  0.1879 -0.1387  0.4895
  736MOL0     C 1494   5.704  11.152   1.138 -0.3505  0.8470 -0.6351
  736MOL0     C 1495   5.646  11.129   1.239 -0.1698  0.5327 -0.6164
  736MOL0     C 1496   5.710  10.637   0.838  0.2799 -1.0122  0.1701
  736MOL0     C 1497   5.783  10.520   0.827 -0.4495  0.4883  0.1332
  736MOL0     C 1498   5.717  10.398   0.883  0.4321 -0.3540  0.6729
  736MOL0     H 1499   6.270  10.299   0.536 -1.1613 -1.3116 -0.8930
  736MOL0     H 1500   6.365  10.068   0.514  3.0433  0.9055  1.2618
  736MOL0     H 1501   6.298   9.818   0.855 -1.1934 -0.0617  0.4561
  736MOL0     H 1502   6.467   9.776   0.842  2.6741  2.2578 -3.6176
  736MOL0     H 1503   6.423   9.639   0.640  0.2027  1.1158 -0.0526
  736MOL0     H 1504   6.327   9.580   0.772 -0.4673 -0.9960 -0.6241
  736MOL0     H 1505   6.206   9.737   0.542 -0.4769  0.2019 -0.8492
  736MOL0     H 1506   6.178   9.569   0.599  0.5160  0.2475  0.0767
  736MOL0     H 1507   6.094   9.639   0.807  2.2426  3.6895  2.2410
  736MOL0     H 1508   6.102   9.809   0.776  1.2129  0.0773  0.9123
  736MOL0     H 1509   5.915   9.597   0.666 -0.9112  0.4070  0.4051
  736MOL0     H 1510   5.959   9.712   0.559  2.0547 -1.6655 -0.1459
  736MOL0     H 1511   5.745   9.745   0.723 -0.7552 -0.3430  1.6326
  736MOL0     H 1512   5.848   9.755   0.854  0.7518  1.0048 -0.0557
  736MOL0     H 1513   5.778   9.965   0.659  1.4211  0.2535 -1.4657
  736MOL0     H 1514   5.942   9.976   0.730 -0.6199  0.8373 -0.7474
  736MOL0     H 1515   5.845   9.968   0.964 -0.5250  0.1942  1.1087
  736MOL0     H 1516   5.780  10.102   0.885  1.7549 -0.1237  0.0185
  736MOL0     H 1517   5.498  10.087   0.799  1.2163  1.7760  0.7982
  736MOL0     H 1518   5.218   9.896   0.933 -3.3222  1.0099 -1.8268
  736MOL0     H 1519   5.261   9.828   0.771  1.2068  0.9717 -1.2469
  736MOL0     H 1520   5.122  10.049   0.756  0.2018 -0.9805 -1.7117
  736MOL0     H 1521   5.274  10.126   0.815 -0.1807 -0.9401  2.4856
  736MOL0     H 1522   5.382   9.995   0.622  0.3836  0.9487 -0.6709
  736MOL0     H 1523   5.217   9.977   0.557 -1.3723  1.1890  0.0842
  736MOL0     H 1524   5.294  10.141   0.445  0.6473 -2.2213  0.1392
  736MOL0     H 1525   5.179  10.209   0.565 -0.6131 -0.3156 -1.0831
  736MOL0     H 1526   5.212  10.417   0.423  0.4741 -0.0340  0.4744
  736MOL0     H 1527   5.178  10.617   0.255 -1.0910  1.0098 -0.2304
  736MOL0     H 1528   5.266  10.767   0.297 -1.0304 -0.5228 -2.0806
  736MOL0     H 1529   5.131  10.716   0.394  0.6972  0.2447  0.3215
  736MOL0     H 1530   5.323  10.961   0.217  1.1586  1.0910 -1.9661
  736MOL0     H 1531   5.357  11.174   0.112  2.5214 -2.4355 -1.1529
  736MOL0     H 1532   5.402  11.400   0.043  0.0473  3.1276 -1.6290
  736MOL0     H 1533   5.277  11.436   0.172 -0.1726 -1.8757 -2.7993
  736MOL0     H 1534   5.442  11.640   0.216  1.3492  0.1464 -0.0535
  736MOL0     H 1535   5.534  11.577   0.077 -0.3536 -1.1025  0.0360
  736MOL0     H 1536   5.236  11.648   0.063 -0.9843 -3.2627 -3.1157
  736MOL0     H 1537   5.319  11.660  -0.073 -1.5034  2.6143 -0.5714
  736MOL0     H 1538   5.479  11.832   0.019 -0.6768  0.6836 -0.2777
  736MOL0     H 1539   5.393  11.859   0.167  0.9210  1.2505 -0.4742
  736MOL0     H 1540   5.308  11.914  -0.115 -1.2782 -0.9639 -0.1588
  736MOL0     H 1541   5.187  11.927   0.010  0.4030  0.8130 -0.7256
  736MOL0     H 1542   5.438  12.078  -0.008 -1.1943 -2.1295 -2.6891
  736MOL0     H 1543   5.329  12.097   0.132  2.1095 -2.3905  0.5652
  736MOL0     H 1544   5.309  12.284  -0.024 -3.5844  2.0834  0.3609
  736MOL0     H 1545   5.168  12.196  -0.051 -0.3552  0.5899  0.1901
  736MOL0     H 1546   5.237  12.077  -0.237 -0.0164 -0.3580  2.5428
  736MOL0     H 1547   5.401  12.154  -0.227  0.5714 -1.8447 -1.7941
  736MOL0     H 1548   5.520  11.319   0.477  0.3899  0.2732 -0.6670
  736MOL0     H 1549   5.447  11.115   0.602 -0.2053  3.2595 -0.4969
  736MOL0     H 1550   5.606  10.659   0.588 -1.7828  0.5960  2.3187
  736MOL0     H 1551   5.574  10.410   0.643 -1.5192 -1.7458  0.8783
  736MOL0     H 1552   6.266  10.005   0.939 -0.9376  0.2390  0.1638
  736MOL0     H 1553   6.151  10.227   0.942  3.6218  1.4561  1.0071
  736MOL0     H 1554   6.074  10.668   0.716  0.3655  0.3546  0.7406
  736MOL0     H 1555   5.952  10.855   0.762 -2.4621  0.9604 -0.3497
  736MOL0     H 1556   5.515  10.858   0.883 -0.7200 -0.8545  1.6469
  736MOL0     H 1557   5.632  10.884   1.000 -2.0374 -2.4294 -1.0328
  736MOL0     H 1558   5.461  11.044   0.977 -1.7268 -1.6695 -1.2313
  736MOL0     H 1559   5.478  11.063   0.808  1.4698  2.5596 -1.4636
  736MOL0     H 1560   5.666  11.194   0.802  0.1208  0.5348 -0.5048
  736MOL0     H 1561   5.567  11.274   0.926  0.7822  0.5068  0.7332
  736MOL0     H 1562   5.797  11.294   1.012 -3.5004  1.7519 -1.2625
  736MOL0     H 1563   5.820  11.115   0.976 -0.9860 -0.3886 -1.3878
  736MOL0     H 1564   5.605  11.127   1.338  1.1932 -2.0014 -0.0154
  736MOL0     H 1565   5.609  10.637   0.878  0.2909  4.5098  0.9233
  736MOL0     H 1566   5.786  10.358   0.957  0.4705  1.9725  1.9835
  736MOL0     H 1567   5.628  10.426   0.941 -0.4058  2.9266 -1.8548
  736MOL0     H 1568   5.699  10.324   0.804 -0.6807 -2.2664  2.6048
  737MOL0     O 1569   8.701  10.574   1.739  0.0851  0.2868 -0.0835
  737MOL0     C 1570   8.758  10.672   1.786  0.2947 -1.3876  0.1157
  737MOL0     O 1571   8.856  10.745   1.731 -0.2495 -0.9670  0.6879
  737MOL0     C 1572   8.879  10.738   1.596  0.5366  0.0735 -0.7701
  737MOL0     C 1573   8.933  10.634   1.530 -0.5964  0.5922  0.1499
  737MOL0     C 1574   8.943  10.631   1.394  0.3589  0.9907  1.0995
  737MOL0     C 1575   8.896  10.736   1.315  0.4388  1.0337  0.1843
  737MOL0     O 1576   8.911  10.737   1.178 -0.6881 -0.3061 -0.1543
  737MOL0     C 1577   8.928  10.870   1.117  1.0744 -0.3916 -0.2335
  737MOL0     C 1578   8.961  10.859   0.974 -0.1515 -0.2923  0.4980
  737MOL0     C 1579   8.938  10.981   0.891  0.7374 -0.0426  0.3361
  737MOL0     C 1580   8.980  10.965   0.736  1.3670 -0.1872 -0.0468
  737MOL0     C 1581   8.947  11.093   0.658  0.4281 -0.6301 -0.8402
  737MOL0     C 1582   8.931  11.087   0.511  0.9331  0.6734  0.0755
  737MOL0     C 1583   8.851  11.214   0.443 -0.9707  0.4568 -0.2490
  737MOL0     C 1584   8.787  11.160   0.311  1.2363 -0.3034 -2.0791
  737MOL0     N 1585   8.731  11.264   0.228  0.4118 -0.2631  0.0775
  737MOL0     C 1586   8.633  11.237   0.141 -0.7570  0.9898  0.1286
  737MOL0     C 1587   8.592  11.346   0.091  0.2352 -0.4264 -0.1202
  737MOL0     C 1588   8.486  11.364  -0.013  0.4600 -0.1522 -0.0707
  737MOL0     C 1589   8.342  11.333   0.025 -0.6644 -0.2958 -1.4393
  737MOL0     C 1590   8.242  11.349  -0.089  0.0368 -0.3093  0.8517
  737MOL0     C 1591   8.094  11.322  -0.051  0.2278  0.5897 -0.7720
  737MOL0     O 1592   8.074  11.204   0.023  0.2874 -0.5979  0.5825
  737MOL0     C 1593   7.944  11.171   0.032 -0.4079 -1.1031  0.5839
  737MOL0     C 1594   7.919  11.069   0.123  0.2011 -0.7973 -1.4484
  737MOL0     C 1595   7.793  11.019   0.169 -0.2285  0.7918  0.2049
  737MOL0     C 1596   7.805  10.915   0.278 -0.5051  1.2252  0.6957
  737MOL0     C 1597   7.676  11.072   0.108 -0.2603 -0.1251 -0.9274
  737MOL0     C 1598   7.547  11.033   0.160 -0.1304  0.0276  0.5595
  737MOL0     O 1599   7.456  11.009   0.062 -0.4155  0.0277 -0.3374
  737MOL0     C 1600   7.333  10.947   0.088  0.1552 -1.1545  0.0728
  737MOL0     C 1601   7.219  10.999   0.022 -0.6712 -0.8179  0.8875
  737MOL0     C 1602   7.094  10.949   0.052 -0.7322 -0.0945 -0.9384
  737MOL0     C 1603   7.072  10.842   0.141 -1.2563 -0.7124 -0.5641
  737MOL0     O 1604   6.957  10.784   0.174  0.3691 -0.0397 -0.2314
  737MOL0     C 1605   6.838  10.859   0.143 -0.0965  0.2447  0.3815
  737MOL0     C 1606   6.709  10.795   0.211  0.0843  0.4540  0.8364
  737MOL0     C 1607   6.717  10.792   0.364 -0.3854  0.1245  0.1405
  737MOL0     C 1608   6.598  10.752   0.447 -0.2680  0.0906 -0.7784
  737MOL0     C 1609   6.629  10.757   0.597  0.4453  0.2315  0.0338
  737MOL0     C 1610   6.499  10.723   0.677  0.5822  1.0290  0.0318
  737MOL0     C 1611   6.515  10.679   0.821  0.1899 -0.0442  0.0468
  737MOL0     C 1612   6.372  10.660   0.883  1.1563 -0.1687 -0.6127
  737MOL0    Cl 1613   6.366  10.576   1.046 -0.3678  0.0512 -0.9672
  737MOL0     C 1614   7.188  10.778   0.204  0.5595 -0.4252 -0.4330
  737MOL0     C 1615   7.311  10.840   0.176  0.9578  0.8115 -0.8201
  737MOL0     O 1616   7.523  11.044   0.284  0.1118 -0.4439  0.2839
  737MOL0     C 1617   7.696  11.165  -0.005 -0.0140  0.0454  0.2115
  737MOL0     C 1618   7.830  11.221  -0.028  0.2100  0.9353 -0.9143
  737MOL0     N 1619   8.651  11.442   0.165 -0.0755  0.4797 -0.5141
  737MOL0     N 1620   8.734  11.395   0.247  0.1752  0.6442  0.0276
  737MOL0     C 1621   8.826  10.847   1.382  0.5887 -0.9645  0.0943
  737MOL0     C 1622   8.823  10.852   1.523 -0.6093 -0.1093 -0.1879
  737MOL0     C 1623   8.706  10.739   1.905  0.7730 -0.6815 -0.4918
  737MOL0     C 1624   8.669  10.869   1.900 -0.4985  0.2061  0.9751
  737MOL0     C 1625   8.621  10.936   2.007  0.4838 -0.4054  0.5701
  737MOL0     C 1626   8.602  10.872   2.129  0.6500 -1.0125  0.1228
  737MOL0     O 1627   8.561  10.961   2.224 -0.1367 -0.3813 -0.3751
  737MOL0     C 1628   8.526  10.916   2.360  0.9550 -0.5444  0.7860
  737MOL0     C 1629   8.371  10.897   2.368 -1.5463 -1.3970  0.0260
  737MOL0     C 1630   8.327  10.753   2.339 -0.2799 -0.1442  0.6089
  737MOL0     C 1631   8.178  10.724   2.354 -0.0395 -1.0680  1.0584
  737MOL0     C 1632   8.128  10.583   2.359 -1.4362  1.0730  0.4981
  737MOL0     C 1633   8.073  10.473   2.369  0.1478  0.6652 -0.4493
  737MOL0     C 1634   8.639  10.736   2.146  0.2390  1.0364 -0.5018
  737MOL0     C 1635   8.690  10.663   2.027  0.1646 -0.8311 -0.2449
  737MOL0     C 1636   8.738  10.521   2.038  0.6180 -0.3456  0.3530
  737MOL0     H 1637   8.975  10.551   1.585  0.1889  1.6655  1.2087
  737MOL0     H 1638   8.976  10.549   1.332 -1.3555 -0.6219  2.2063
  737MOL0     H 1639   9.018  10.917   1.159  1.6463 -2.9997  1.7470
  737MOL0     H 1640   8.839  10.928   1.142  1.1807 -0.6705  0.8317
  737MOL0     H 1641   9.059  10.813   0.958 -0.2524 -0.7398  1.1268
  737MOL0     H 1642   8.893  10.783   0.935 -0.3888  1.0214 -1.8148
  737MOL0     H 1643   8.829  10.993   0.884  0.7294  0.1009  0.6814
  737MOL0     H 1644   8.983  11.073   0.928 -1.3716  0.9107  0.7227
  737MOL0     H 1645   9.088  10.952   0.727  1.2800  0.3104 -2.7421
  737MOL0     H 1646   8.927  10.876   0.702 -0.1456  0.1522  1.2778
  737MOL0     H 1647   9.015  11.172   0.691 -2.7888  1.4432  1.3888
  737MOL0     H 1648   8.856  11.136   0.700  2.8216  3.7745  0.4890
  737MOL0     H 1649   9.032  11.080   0.470  0.7589 -3.2575 -0.1294
  737MOL0     H 1650   8.887  10.992   0.480  1.2114  0.7870 -0.6806
  737MOL0     H 1651   8.926  11.291   0.421  1.0434 -0.6488  2.2609
  737MOL0     H 1652   8.774  11.252   0.511 -0.2319 -1.1625  1.5873
  737MOL0     H 1653   8.864  11.103   0.258  1.9877  0.4921 -1.8704
  737MOL0     H 1654   8.706  11.092   0.339  0.9780  1.3557  1.8604
  737MOL0     H 1655   8.591  11.140   0.114 -0.4139  0.5779  1.0471
  737MOL0     H 1656   8.511  11.304  -0.101  0.4215  1.2607 -1.0827
  737MOL0     H 1657   8.485  11.468  -0.048 -0.7330 -0.1285 -0.0009
  737MOL0     H 1658   8.339  11.235   0.074 -0.4754  1.5087  2.6243
  737MOL0     H 1659   8.320  11.408   0.102  2.4184  0.4778 -1.1733
  737MOL0     H 1660   8.235  11.455  -0.116 -1.0579 -0.5828 -0.0087
  737MOL0     H 1661   8.283  11.299  -0.177  0.1346  1.4671 -0.1805
  737MOL0     H 1662   8.078  11.408   0.015 -0.6469 -0.5335  0.5532
  737MOL0     H 1663   8.037  11.322  -0.144  2.0128 -0.2153 -1.9127
  737MOL0     H 1664   8.009  11.030   0.168  0.6611  1.5278 -0.2127
  737MOL0     H 1665   7.885  10.841   0.269 -2.8049 -1.3971  0.5177
  737MOL0     H 1666   7.715  10.852   0.279  0.3363 -0.0272  0.1772
  737MOL0     H 1667   7.812  10.967   0.374  2.1318  1.9248  0.2109
  737MOL0     H 1668   7.242  11.071  -0.055 -3.3736 -0.3801  0.4189
  737MOL0     H 1669   7.010  10.992  -0.002 -1.1601  0.2963  0.0038
  737MOL0     H 1670   6.845  10.964   0.173  0.5835 -0.1386  1.6137
  737MOL0     H 1671   6.826  10.863   0.034  0.2390 -0.7460  0.2973
  737MOL0     H 1672   6.615  10.845   0.187  0.9993  1.0425 -1.8669
  737MOL0     H 1673   6.695  10.695   0.167 -0.6462  1.5528 -1.5825
  737MOL0     H 1674   6.743  10.894   0.392  0.8375 -0.1841  0.2007
  737MOL0     H 1675   6.806  10.739   0.400 -0.3510 -0.5998 -0.9529
  737MOL0     H 1676   6.563  10.652   0.420  1.0949 -1.5267  2.7873
  737MOL0     H 1677   6.518  10.824   0.430 -1.9408 -0.9684  2.0258
  737MOL0     H 1678   6.696  10.672   0.616 -0.9558 -0.6163  1.3691
  737MOL0     H 1679   6.681  10.850   0.620 -1.2984  1.1439  0.4055
  737MOL0     H 1680   6.450  10.636   0.633 -0.3144  1.4129  0.2693
  737MOL0     H 1681   6.429  10.806   0.666 -1.2964 -0.4582  0.3114
  737MOL0     H 1682   6.579  10.750   0.875 -0.9744  1.4926 -0.5109
  737MOL0     H 1683   6.571  10.585   0.828  0.8881  0.3502 -0.1116
  737MOL0     H 1684   6.299  10.611   0.817 -1.6254  1.6657  0.9076
  737MOL0     H 1685   6.335  10.760   0.907  0.7745 -0.0445 -1.6715
  737MOL0     H 1686   7.172  10.686   0.259 -3.0496 -1.2256 -2.4641
  737MOL0     H 1687   7.398  10.799   0.227  0.7253  1.9483  0.5593
  737MOL0     H 1688   7.603  11.202  -0.047  1.3812  3.0587 -0.5138
  737MOL0     H 1689   7.837  11.310  -0.091  1.9226  2.5893  1.4495
  737MOL0     H 1690   8.775  10.926   1.329  0.4820 -0.1392  1.3701
  737MOL0     H 1691   8.785  10.937   1.579  0.0601 -0.3454  0.6382
  737MOL0     H 1692   8.681  10.909   1.800 -0.9375 -3.1779 -0.5555
  737MOL0     H 1693   8.608  11.042   1.986  3.4014 -0.0567  0.0981
  737MOL0     H 1694   8.593  10.835   2.388  0.6241 -1.9014 -2.0053
  737MOL0     H 1695   8.544  10.995   2.433  3.8046 -1.5943  1.3240
  737MOL0     H 1696   8.321  10.961   2.294 -0.5125  1.7363  1.8678
  737MOL0     H 1697   8.335  10.931   2.465  0.4427 -0.5312  0.5089
  737MOL0     H 1698   8.362  10.739   2.237 -0.8671 -1.1526  0.5325
  737MOL0     H 1699   8.378  10.676   2.398 -2.1812 -1.9585 -0.0045
  737MOL0     H 1700   8.119  10.769   2.274 -0.6828  1.9979  3.0704
  737MOL0     H 1701   8.139  10.773   2.444 -0.0791  2.8674 -0.9060
  737MOL0     H 1702   8.011  10.386   2.376  0.4081  0.3065 -2.0785
  737MOL0     H 1703   8.606  10.678   2.231 -0.5155 -2.1180 -2.7390
  737MOL0     H 1704   8.741  10.489   2.142 -0.6135 -0.9943  0.2004
  737MOL0     H 1705   8.670  10.454   1.984 -1.7552  1.9737  0.2797
  737MOL0     H 1706   8.833  10.501   1.987 -0.1041 -2.7901 -0.1507
  738MOL0     O 1707   2.136   6.183   7.299  1.2551  0.1125 -0.1389
  738MOL0     C 1708   2.055   6.096   7.340  0.8410  0.3703  0.3662
  738MOL0     O 1709   1.949   6.123   7.422  0.4569  0.5522  0.0327
  738MOL0     C 1710   1.977   6.206   7.530  0.2110 -0.0639  0.5639
  738MOL0     C 1711   1.977   6.346   7.509  0.4600  0.6798 -0.5087
  738MOL0     C 1712   1.990   6.435   7.617 -1.0096 -0.1934  0.1883
  738MOL0     C 1713   2.014   6.387   7.744 -0.1414 -0.4674 -0.2126
  738MOL0     O 1714   2.035   6.490   7.834  0.3722  0.8707  0.2310
  738MOL0     C 1715   1.966   6.482   7.955  0.2978 -0.0973 -0.9064
  738MOL0     C 1716   1.999   6.608   8.033  0.1102 -0.1526  0.3977
  738MOL0     C 1717   1.957   6.733   7.959 -0.6360 -0.2932 -0.0623
  738MOL0     C 1718   1.958   6.851   8.061 -0.4289 -0.1415  1.2470
  738MOL0     C 1719   1.928   6.985   7.988 -1.0129 -0.4406 -0.1373
  738MOL0     C 1720   1.978   7.095   8.074 -0.4409  0.6678 -0.2327
  738MOL0     C 1721   1.904   7.124   8.216  0.0211  0.0204  0.5079
  738MOL0     C 1722   1.749   7.106   8.212  0.4987 -0.1206 -0.2775
  738MOL0     N 1723   1.684   7.169   8.331 -1.2031 -0.3076 -0.2900
  738MOL0     C 1724   1.699   7.301   8.363 -0.6182  0.5510  0.7638
  738MOL0     C 1725   1.634   7.318   8.476  0.2971 -0.4849 -0.1840
  738MOL0     C 1726   1.623   7.435   8.578  0.4009 -0.1364 -0.6426
  738MOL0     C 1727   1.745   7.449   8.669 -0.0257 -0.7323  0.6914
  738MOL0     C 1728   1.742   7.338   8.772  1.4810 -1.0684  0.8818
  738MOL0     C 1729   1.855   7.364   8.874  0.9087  0.5021 -0.1130
  738MOL0     O 1730   1.819   7.481   8.942  0.0370  0.0122  0.4760
  738MOL0     C 1731   1.868   7.498   9.066  0.4815  0.1606  0.2156
  738MOL0     C 1732   1.963   7.430   9.137  0.1585 -1.3829  0.2034
  738MOL0     C 1733   2.010   7.460   9.267 -0.5405 -0.5832  0.5353
  738MOL0     C 1734   2.109   7.370   9.335 -0.6249  0.3887 -0.5034
  738MOL0     C 1735   1.948   7.572   9.336  0.1861  1.4401  0.0559
  738MOL0     C 1736   1.969   7.611   9.479 -0.4015 -0.1242  0.4202
  738MOL0     O 1737   1.951   7.746   9.496 -0.5276 -0.5164 -0.6432
  738MOL0     C 1738   2.007   7.797   9.613  0.1189 -0.1500  0.4701
  738MOL0     C 1739   1.924   7.799   9.730  0.0487 -0.7351  0.5534
  738MOL0     C 1740   1.974   7.861   9.842 -0.8234 -0.0203  0.0483
  738MOL0     C 1741   2.099   7.929   9.844  0.0519 -0.7220  0.3597
  738MOL0     O 1742   2.136   7.997   9.956  0.1741 -0.1081 -0.5461
  738MOL0     C 1743   2.258   8.066   9.958 -0.4414  0.3153 -0.4801
  738MOL0     C 1744   2.319   8.076  10.092 -0.7878  0.5057 -0.8053
  738MOL0     C 1745   2.236   8.160  10.179 -0.0402  0.4012 -0.9920
  738MOL0     C 1746   2.314   8.245  10.279  0.4565  0.4793 -0.0616
  738MOL0     C 1747   2.409   8.347  10.220  0.8533 -0.5642 -0.1112
  738MOL0     C 1748   2.354   8.422  10.090 -0.8704  0.2702 -1.1172
  738MOL0     C 1749   2.472   8.519  10.058  0.2317  0.2535 -0.4020
  738MOL0     C 1750   2.430   8.619   9.955  0.7225  0.4034 -0.7259
  738MOL0    Cl 1751   2.568   8.700   9.889  0.3881  0.7589  0.2043
  738MOL0     C 1752   2.176   7.932   9.726  0.9519  0.2816  0.1743
  738MOL0     C 1753   2.132   7.868   9.607  0.9390  1.0809  0.0846
  738MOL0     O 1754   2.014   7.538   9.569  0.0830 -0.3427  0.6949
  738MOL0     C 1755   1.859   7.648   9.252  0.0097  0.0781  0.3013
  738MOL0     C 1756   1.812   7.607   9.129  0.3056 -0.7203 -0.1518
  738MOL0     N 1757   1.583   7.197   8.512  1.3115  0.7302 -0.5626
  738MOL0     N 1758   1.624   7.101   8.433  0.2070 -0.2983  0.2083
  738MOL0     C 1759   2.043   6.251   7.761 -0.4994  0.3500 -0.1945
  738MOL0     C 1760   2.019   6.160   7.654  0.6894  0.8885 -0.7783
  738MOL0     C 1761   2.051   5.974   7.251  0.0443 -0.2572 -0.1018
  738MOL0     C 1762   1.927   5.931   7.203 -0.7262  0.5905  0.7555
  738MOL0     C 1763   1.914   5.811   7.125  0.3966  0.5658  0.2514
  738MOL0     C 1764   2.025   5.729   7.089  0.6322 -0.7569 -0.4823
  738MOL0     O 1765   2.012   5.610   7.021  0.6962  0.1223 -0.4934
  738MOL0     C 1766   1.932   5.515   7.105  0.4179  0.1065 -0.3677
  738MOL0     C 1767   1.967   5.501   7.257 -0.5448  0.3969 -0.1668
  738MOL0     C 1768   1.869   5.417   7.347  0.9138 -1.6809  0.5425
  738MOL0     C 1769   1.822   5.282   7.286 -0.2063  0.0609  0.8815
  738MOL0     C 1770   1.927   5.175   7.299 -0.3999 -0.2712 -0.6556
  738MOL0     C 1771   2.018   5.084   7.298  0.3557  0.5706  0.6901
  738MOL0     C 1772   2.144   5.780   7.145 -0.1514 -0.7961 -0.1980
  738MOL0     C 1773   2.162   5.897   7.219  0.4871 -0.6685 -0.9509
  738MOL0     C 1774   2.300   5.922   7.279  0.9230  0.5930  0.1391
  738MOL0     H 1775   1.949   6.368   7.406  0.9419 -2.7198 -1.4884
  738MOL0     H 1776   1.987   6.541   7.592  1.0321  0.1173  1.1032
  738MOL0     H 1777   1.991   6.394   8.015 -0.2001  0.6673  0.4855
  738MOL0     H 1778   1.859   6.490   7.938  0.4970 -1.8251 -3.3630
  738MOL0     H 1779   1.947   6.611   8.129  1.6643 -0.1947  1.2760
  738MOL0     H 1780   2.105   6.609   8.059  1.1693 -0.5154 -3.3533
  738MOL0     H 1781   2.025   6.763   7.879 -0.9163  1.1447  0.2115
  738MOL0     H 1782   1.854   6.731   7.921 -1.8952  0.4077  3.0188
  738MOL0     H 1783   1.891   6.818   8.141 -1.5057 -3.0186 -0.6424
  738MOL0     H 1784   2.059   6.851   8.101 -0.1660 -0.0460  0.6002
  738MOL0     H 1785   1.822   7.005   7.970 -0.6009  1.5160 -0.6585
  738MOL0     H 1786   1.976   6.969   7.891  1.8790 -0.6673  1.2069
  738MOL0     H 1787   2.086   7.082   8.089 -0.4747  1.7555  1.1066
  738MOL0     H 1788   1.976   7.191   8.021 -0.2224  1.0142  0.3753
  738MOL0     H 1789   1.926   7.226   8.250  1.9804  1.0591 -3.2891
  738MOL0     H 1790   1.942   7.051   8.289 -0.3913 -0.4638  0.2442
  738MOL0     H 1791   1.718   7.165   8.125  0.6512  1.6849  0.8397
  738MOL0     H 1792   1.716   7.003   8.191  0.4786 -0.2763  0.5095
  738MOL0     H 1793   1.756   7.372   8.303  0.5312 -0.1329  1.0261
  738MOL0     H 1794   1.535   7.409   8.637 -0.6408  0.0807 -2.0326
  738MOL0     H 1795   1.618   7.530   8.522  0.4149  1.0477  1.2854
  738MOL0     H 1796   1.834   7.426   8.609  2.2713 -0.1332  3.5875
  738MOL0     H 1797   1.760   7.545   8.719  4.4999 -0.6382 -0.3810
  738MOL0     H 1798   1.645   7.346   8.822 -0.4007 -0.4776 -2.5514
  738MOL0     H 1799   1.738   7.238   8.729 -1.7430 -1.7487  2.3966
  738MOL0     H 1800   1.856   7.279   8.943  1.6044  0.0466 -0.6665
  738MOL0     H 1801   1.962   7.366   8.849  0.8076  3.4275 -0.6566
  738MOL0     H 1802   2.023   7.358   9.082  0.3473 -4.5555  4.1412
  738MOL0     H 1803   2.064   7.303   9.409  1.8869 -0.1157  0.6642
  738MOL0     H 1804   2.182   7.430   9.389  0.3660  0.1935 -1.5846
  738MOL0     H 1805   2.170   7.321   9.258 -1.4547 -0.0398 -0.9043
  738MOL0     H 1806   1.824   7.759   9.730 -2.0668  3.8516  0.7278
  738MOL0     H 1807   1.923   7.885   9.935  0.5734  1.8237  0.4023
  738MOL0     H 1808   2.335   8.011   9.902 -0.5119  0.8488 -1.1120
  738MOL0     H 1809   2.242   8.168   9.922  1.4852  0.9342  0.2543
  738MOL0     H 1810   2.326   7.981  10.146 -2.3321  0.4998 -0.5655
  738MOL0     H 1811   2.424   8.106  10.087  0.1228 -1.8829  1.3141
  738MOL0     H 1812   2.159   8.093  10.219 -0.0138  1.9943  2.0848
  738MOL0     H 1813   2.172   8.227  10.122 -3.0200 -1.9129 -0.5707
  738MOL0     H 1814   2.369   8.184  10.351  2.2140  1.8696 -0.1614
  738MOL0     H 1815   2.244   8.302  10.340 -2.0032 -1.8968 -0.4198
  738MOL0     H 1816   2.437   8.423  10.292  2.6631 -0.7368 -0.5649
  738MOL0     H 1817   2.501   8.293  10.194  0.8982 -1.0230  0.9459
  738MOL0     H 1818   2.267   8.482  10.115 -0.0033  1.0189  0.2684
  738MOL0     H 1819   2.339   8.344  10.015  1.8383 -2.8267  1.2518
  738MOL0     H 1820   2.562   8.471  10.018  0.8548  1.9526 -1.1418
  738MOL0     H 1821   2.504   8.577  10.144  0.2889  1.4025 -1.1675
  738MOL0     H 1822   2.362   8.685  10.009  0.4439 -3.4029  4.3023
  738MOL0     H 1823   2.379   8.562   9.877  1.5803  2.3720 -2.8609
  738MOL0     H 1824   2.271   7.985   9.719  2.1853 -1.3346  2.9543
  738MOL0     H 1825   2.179   7.897   9.513  0.1652  3.1483  0.2713
  738MOL0     H 1826   1.813   7.742   9.283 -1.2678 -1.1972  2.4961
  738MOL0     H 1827   1.743   7.677   9.083  0.7428  0.2196  0.5852
  738MOL0     H 1828   2.095   6.220   7.851  1.3291 -1.2877 -1.7105
  738MOL0     H 1829   2.036   6.053   7.668 -0.7172  0.7182 -0.2491
  738MOL0     H 1830   1.844   5.998   7.221 -0.5837  1.1653 -0.6566
  738MOL0     H 1831   1.817   5.772   7.095  0.9775  1.9256 -4.0266
  738MOL0     H 1832   1.826   5.543   7.099 -0.6556 -3.5026 -5.7762
  738MOL0     H 1833   1.948   5.412   7.074  0.0557 -1.0481  2.9231
  738MOL0     H 1834   1.956   5.598   7.306 -0.0857 -0.0583  0.8692
  738MOL0     H 1835   2.069   5.463   7.253  0.4722  2.7592  1.0061
  738MOL0     H 1836   1.925   5.394   7.438 -1.8488 -0.8130  2.5772
  738MOL0     H 1837   1.777   5.470   7.372  0.9750 -1.2043 -0.2221
  738MOL0     H 1838   1.795   5.284   7.180 -0.6094 -0.4515  0.9724
  738MOL0     H 1839   1.733   5.250   7.340 -0.5701  0.1305  0.3351
  738MOL0     H 1840   2.085   5.001   7.290 -1.1331 -0.8181  1.8741
  738MOL0     H 1841   2.224   5.717   7.109  0.6251  0.2284 -0.3057
  738MOL0     H 1842   2.362   5.953   7.195 -3.4761  0.8687 -3.3213
  738MOL0     H 1843   2.283   6.006   7.347 -0.5894  3.3149 -3.3481
  738MOL0     H 1844   2.344   5.839   7.336  0.0505  0.1982  0.2641
  739MOL0     O 1845   9.030   3.762   6.923 -0.1639  0.1021 -0.0234
  739MOL0     C 1846   9.038   3.642   6.959  1.1298 -1.0469 -0.8253
  739MOL0     O 1847   9.148   3.586   7.009 -0.1163  0.1208 -0.1107
  739MOL0     C 1848   9.260   3.670   7.022  0.6074  0.5459 -0.5276
  739MOL0     C 1849   9.363   3.664   6.928  0.9814  0.4107  0.1096
  739MOL0     C 1850   9.456   3.769   6.935  0.1434 -0.6684  0.1980
  739MOL0     C 1851   9.481   3.851   7.053 -0.2429 -0.4311  1.2110
  739MOL0     O 1852   9.580   3.951   7.070 -0.4964  0.3024  0.1095
  739MOL0     C 1853   9.710   3.935   7.006  0.5623  0.5358 -0.5587
  739MOL0     C 1854   9.734   4.070   6.930 -0.9680  0.0936 -0.8012
  739MOL0     C 1855   9.870   4.079   6.888 -1.6862 -0.4832 -0.4707
  739MOL0     C 1856   9.903   4.009   6.759  0.6254  0.2153  0.4301
  739MOL0     C 1857  10.049   4.004   6.720 -0.1073 -0.2103 -0.1813
  739MOL0     C 1858  10.102   4.142   6.687  0.7410 -0.5512  0.0256
  739MOL0     C 1859  10.231   4.151   6.617 -0.3918 -0.3879  0.0808
  739MOL0     C 1860  10.356   4.133   6.711 -0.1904 -0.8507  0.3325
  739MOL0     N 1861  10.434   4.021   6.666 -0.3604  1.1195  0.4169
  739MOL0     C 1862  10.410   3.888   6.707 -0.5334 -0.2806 -0.5137
  739MOL0     C 1863  10.500   3.820   6.630 -0.0836  0.8491 -0.1757
  739MOL0     C 1864  10.528   3.674   6.646 -0.4659  0.7884 -0.8416
  739MOL0     C 1865  10.471   3.599   6.519  0.5573  0.3197 -0.3018
  739MOL0     C 1866  10.576   3.578   6.408  0.2486  0.4991  0.9875
  739MOL0     C 1867  10.553   3.669   6.284  0.1644 -0.2505 -0.0104
  739MOL0     O 1868  10.420   3.659   6.229  0.0912  0.2090  0.5426
  739MOL0     C 1869  10.324   3.754   6.248  0.6832  0.2375  1.1132
  739MOL0     C 1870  10.198   3.714   6.215  0.2747 -0.5726 -0.5791
  739MOL0     C 1871  10.079   3.797   6.217 -0.4366  0.3369 -0.1308
  739MOL0     C 1872   9.942   3.731   6.190 -1.0050 -0.3561 -0.2798
  739MOL0     C 1873  10.095   3.931   6.259 -0.9137  0.3645 -0.0353
  739MOL0     C 1874   9.993   4.038   6.246  0.8823  0.4919 -1.0176
  739MOL0     O 1875  10.003   4.150   6.324  0.9080  0.6998  0.1373
  739MOL0     C 1876   9.923   4.257   6.290 -1.1971 -0.6791 -0.6475
  739MOL0     C 1877   9.784   4.262   6.295 -0.9495  0.6068 -0.3408
  739MOL0     C 1878   9.709   4.381   6.283  0.0861  0.9923  0.0002
  739MOL0     C 1879   9.777   4.502   6.272 -0.5527  0.5459  0.0424
  739MOL0     O 1880   9.715   4.613   6.279 -0.4523 -0.7516  0.7180
  739MOL0     C 1881   9.728   4.697   6.155 -0.0893  0.2487  0.3925
  739MOL0     C 1882   9.743   4.850   6.187 -1.2193 -0.5675  0.4346
  739MOL0     C 1883   9.761   4.932   6.057 -1.1595  0.1816  0.3225
  739MOL0     C 1884   9.823   5.070   6.083 -0.0190 -0.2686 -0.8351
  739MOL0     C 1885   9.868   5.138   5.953  0.8259  0.7093 -0.0576
  739MOL0     C 1886   9.992   5.216   6.002  0.0858  1.2208 -0.5819
  739MOL0     C 1887  10.046   5.326   5.909  0.2589  0.0515 -0.0586
  739MOL0     C 1888  10.105   5.283   5.776  0.0068  0.0280 -0.4295
  739MOL0    Cl 1889  10.163   5.419   5.674 -0.0705  0.2579 -0.7824
  739MOL0     C 1890   9.919   4.502   6.270 -0.8587  0.7513 -0.2145
  739MOL0     C 1891   9.990   4.378   6.279 -0.4658 -0.2281 -0.8979
  739MOL0     O 1892   9.905   4.019   6.161 -0.4808 -0.1183  0.1949
  739MOL0     C 1893  10.229   3.973   6.282 -0.4916 -0.3220  0.7496
  739MOL0     C 1894  10.337   3.890   6.281  0.0247 -0.9107  0.0966
  739MOL0     N 1895  10.562   3.904   6.538  0.8502 -0.3405 -1.1170
  739MOL0     N 1896  10.527   4.022   6.561  0.1736  0.9988  0.1542
  739MOL0     C 1897   9.380   3.835   7.151 -0.4475  0.1650 -0.9998
  739MOL0     C 1898   9.274   3.748   7.139  0.7222  0.3229  0.6675
  739MOL0     C 1899   8.916   3.557   6.957  0.5400  0.4378  0.5573
  739MOL0     C 1900   8.911   3.432   7.020 -0.1658  0.8234  0.6493
  739MOL0     C 1901   8.806   3.343   7.020  0.8631 -0.2601 -0.7161
  739MOL0     C 1902   8.698   3.367   6.937  0.0876 -1.2965  1.2065
  739MOL0     O 1903   8.594   3.282   6.909  0.7709 -0.3360  0.3003
  739MOL0     C 1904   8.634   3.150   6.906  0.1997  1.1426  0.6642
  739MOL0     C 1905   8.530   3.065   6.830 -0.7258 -0.0181  0.2000
  739MOL0     C 1906   8.561   2.914   6.797  0.0538 -0.6294 -0.0426
  739MOL0     C 1907   8.703   2.905   6.727  0.3902 -0.2369  0.4325
  739MOL0     C 1908   8.722   2.778   6.665 -0.2528  0.4231 -0.2216
  739MOL0     C 1909   8.745   2.662   6.624 -0.0733  0.1202  0.5111
  739MOL0     C 1910   8.701   3.489   6.876  0.7640  0.4867  0.7254
  739MOL0     C 1911   8.797   3.587   6.880 -0.2318  0.3433 -0.4129
  739MOL0     C 1912   8.774   3.716   6.797  0.6027  0.5411  0.8366
  739MOL0     H 1913   9.364   3.583   6.856 -2.6605 -0.6767  1.0482
  739MOL0     H 1914   9.525   3.787   6.853 -0.7203 -2.2073 -0.9059
  739MOL0     H 1915   9.724   3.845   6.945 -0.1534 -2.6071  3.4711
  739MOL0     H 1916   9.791   3.923   7.079  0.6454  1.1176 -0.5503
  739MOL0     H 1917   9.662   4.086   6.849 -0.8023  2.2972 -0.5772
  739MOL0     H 1918   9.729   4.153   7.001 -0.1952 -0.9286  0.4943
  739MOL0     H 1919   9.889   4.186   6.873 -2.8026 -0.0333  1.0862
  739MOL0     H 1920   9.933   4.042   6.969 -0.1412  1.3578 -0.7584
  739MOL0     H 1921   9.868   3.906   6.769  2.7742 -0.5751  0.3533
  739MOL0     H 1922   9.858   4.055   6.670  0.2566 -1.5755 -0.3364
  739MOL0     H 1923  10.063   3.943   6.631  1.4390  2.1895 -1.6882
  739MOL0     H 1924  10.105   3.963   6.805  3.0499  0.8174 -1.5975
  739MOL0     H 1925  10.026   4.197   6.632 -0.1029 -0.0475  1.6287
  739MOL0     H 1926  10.109   4.198   6.781 -0.5905  1.1146 -0.8208
  739MOL0     H 1927  10.235   4.245   6.563  0.7332  0.3020  1.3167
  739MOL0     H 1928  10.244   4.078   6.536 -1.9734  1.7008 -2.1706
  739MOL0     H 1929  10.420   4.222   6.707 -0.4513 -0.6676  0.2134
  739MOL0     H 1930  10.321   4.114   6.813  0.9674 -1.3131  0.6510
  739MOL0     H 1931  10.344   3.846   6.782 -0.8380  1.9336  0.5548
  739MOL0     H 1932  10.476   3.639   6.735 -1.9439 -2.1947 -2.7262
  739MOL0     H 1933  10.636   3.658   6.652 -0.4421  0.6238 -1.5785
  739MOL0     H 1934  10.446   3.497   6.547  3.4823  0.0616  1.8744
  739MOL0     H 1935  10.376   3.643   6.489 -0.5562 -1.6072  0.2320
  739MOL0     H 1936  10.682   3.598   6.421  0.7715  3.2322 -4.3820
  739MOL0     H 1937  10.569   3.473   6.378 -0.3130  1.1757 -1.4917
  739MOL0     H 1938  10.571   3.773   6.312 -0.2088 -0.2174  0.1097
  739MOL0     H 1939  10.616   3.649   6.197 -1.1584 -3.9326 -0.2738
  739MOL0     H 1940  10.189   3.615   6.173 -1.3152 -0.2505 -1.0571
  739MOL0     H 1941   9.846   3.784   6.194 -1.8208 -1.8528  1.3854
  739MOL0     H 1942   9.930   3.648   6.259  1.4401 -0.2714  0.3092
  739MOL0     H 1943   9.960   3.688   6.091  0.5977 -2.6846  0.9484
  739MOL0     H 1944   9.725   4.174   6.321 -1.9898  2.2186  3.3678
  739MOL0     H 1945   9.601   4.380   6.292  0.0970 -1.4251  0.5864
  739MOL0     H 1946   9.815   4.666   6.096 -1.4695 -1.8131 -0.6535
  739MOL0     H 1947   9.639   4.680   6.094 -0.0692 -1.5149  0.8052
  739MOL0     H 1948   9.654   4.886   6.239 -2.9634 -3.2839 -0.4430
  739MOL0     H 1949   9.837   4.853   6.242 -1.1900 -2.9107  0.6227
  739MOL0     H 1950   9.668   4.953   6.003 -1.7853  0.4416  1.4757
  739MOL0     H 1951   9.817   4.867   5.989 -1.9210 -1.2369  0.9915
  739MOL0     H 1952   9.906   5.046   6.150  0.1141 -4.0111 -2.0968
  739MOL0     H 1953   9.758   5.128   6.149 -0.4713  0.1846 -1.6732
  739MOL0     H 1954   9.893   5.060   5.881 -4.3806 -2.4875  0.9870
  739MOL0     H 1955   9.782   5.191   5.910 -1.5077  1.6223  4.9399
  739MOL0     H 1956  10.076   5.151   6.028  1.7047  3.6790  0.6724
  739MOL0     H 1957   9.971   5.273   6.093 -2.0546 -0.3853  0.0092
  739MOL0     H 1958  10.107   5.393   5.970 -1.1648 -0.6751  2.3364
  739MOL0     H 1959   9.961   5.388   5.877 -0.2930 -0.2144  0.8475
  739MOL0     H 1960  10.023   5.241   5.717  2.7783  0.7011 -5.2833
  739MOL0     H 1961  10.187   5.213   5.794 -0.0174 -0.1489 -1.0014
  739MOL0     H 1962   9.974   4.594   6.254  1.9748 -0.9863 -1.5679
  739MOL0     H 1963  10.098   4.385   6.281 -0.2394 -2.9992  0.5837
  739MOL0     H 1964  10.241   4.079   6.300 -0.2199 -0.4542  1.3585
  739MOL0     H 1965  10.430   3.934   6.315  0.8485 -1.4529 -1.4006
  739MOL0     H 1966   9.380   3.887   7.247  0.2403 -2.7444  0.7165
  739MOL0     H 1967   9.192   3.741   7.209  1.1376  0.5303  1.1847
  739MOL0     H 1968   8.997   3.405   7.081 -0.4312 -1.2654  0.1705
  739MOL0     H 1969   8.832   3.250   7.069  2.2069 -0.1482 -1.1587
  739MOL0     H 1970   8.731   3.144   6.855 -0.0772 -3.0863  0.2618
  739MOL0     H 1971   8.643   3.108   7.006 -0.9041 -0.9463 -0.0511
  739MOL0     H 1972   8.493   3.105   6.735 -0.7144 -3.5615 -1.4308
  739MOL0     H 1973   8.444   3.063   6.898 -2.3402 -0.5663 -1.7727
  739MOL0     H 1974   8.562   2.864   6.894  0.9580  0.9265  0.8000
  739MOL0     H 1975   8.485   2.875   6.730  0.6236 -0.6155 -0.7101
  739MOL0     H 1976   8.786   2.923   6.797  1.7814  0.7189 -1.3608
  739MOL0     H 1977   8.707   2.990   6.658  1.9348 -0.1057  0.6424
  739MOL0     H 1978   8.758   2.565   6.581 -1.1897  0.2337 -0.1123
  739MOL0     H 1979   8.615   3.504   6.811  1.9076  1.8778 -0.5693
  739MOL0     H 1980   8.861   3.743   6.737  0.5666  1.5370  1.2214
  739MOL0     H 1981   8.688   3.704   6.730 -0.5576 -2.2768  2.6375
  739MOL0     H 1982   8.766   3.804   6.861  3.3843  2.1907 -0.8975
  740MOL0     O 1983   9.746   8.562   5.420 -0.0072 -0.8906  0.2771
  740MOL0     C 1984   9.759   8.559   5.297  0.2010  0.5067  0.7142
  740MOL0     O 1985   9.670   8.482   5.228  0.5175  0.0258 -0.2881
  740MOL0     C 1986   9.560   8.427   5.290 -0.2470  0.3064  0.7579
  740MOL0     C 1987   9.487   8.479   5.399 -0.9764 -0.9785  0.3535
  740MOL0     C 1988   9.377   8.410   5.447  0.0529  0.6905 -0.4005
  740MOL0     C 1989   9.339   8.289   5.395 -0.2445  0.4680 -0.2437
  740MOL0     O 1990   9.246   8.199   5.445  0.2927 -0.9591 -0.0048
  740MOL0     C 1991   9.148   8.242   5.534 -1.0237 -0.8207  0.0100
  740MOL0     C 1992   9.037   8.309   5.450  0.5252 -0.3860 -0.3754
  740MOL0     C 1993   8.927   8.385   5.520  0.4981  0.8255  0.1303
  740MOL0     C 1994   8.841   8.277   5.583 -0.3693 -0.1158  0.1954
  740MOL0     C 1995   8.691   8.324   5.611  0.0568 -0.1881  0.2913
  740MOL0     C 1996   8.590   8.204   5.600 -0.2246 -0.5588 -0.2920
  740MOL0     C 1997   8.463   8.214   5.679  0.0110 -0.5041  0.5398
  740MOL0     C 1998   8.386   8.080   5.659  0.3120  0.2317 -0.3875
  740MOL0     N 1999   8.252   8.098   5.708  0.1695  0.0483  0.6882
  740MOL0     C 2000   8.214   8.157   5.821  0.9103 -0.7124  0.2714
  740MOL0     C 2001   8.082   8.125   5.837  0.9451  0.5112 -0.0809
  740MOL0     C 2002   7.997   8.154   5.953  0.5075 -0.0784  0.4431
  740MOL0     C 2003   7.859   8.222   5.924 -0.4689  0.6890  0.3211
  740MOL0     C 2004   7.858   8.360   5.858  0.3120 -0.4549 -0.9001
  740MOL0     C 2005   7.941   8.371   5.738  0.0677  0.2498 -0.1627
  740MOL0     O 2006   7.923   8.500   5.665 -0.8204 -0.0938 -0.8157
  740MOL0     C 2007   8.023   8.542   5.585 -1.0997  0.6058  0.1532
  740MOL0     C 2008   8.012   8.674   5.538  0.9384  0.4690  0.1086
  740MOL0     C 2009   8.116   8.731   5.456  0.6877  1.0098  0.7990
  740MOL0     C 2010   8.108   8.877   5.420  0.9094  1.2093  0.6486
  740MOL0     C 2011   8.222   8.649   5.424 -0.3386  0.2220  0.2657
  740MOL0     C 2012   8.351   8.692   5.352  1.4447 -0.6824  0.4529
  740MOL0     O 2013   8.432   8.594   5.289 -1.2958 -0.3037 -0.5598
  740MOL0     C 2014   8.567   8.599   5.278  0.0159 -0.6302  0.3925
  740MOL0     C 2015   8.628   8.543   5.171 -0.4898 -0.0662 -0.6197
  740MOL0     C 2016   8.767   8.540   5.154  0.1798 -0.4144 -0.7071
  740MOL0     C 2017   8.853   8.604   5.248 -0.8058  0.6499 -0.7673
  740MOL0     O 2018   8.991   8.608   5.257  0.0374  0.8539  0.0402
  740MOL0     C 2019   9.048   8.520   5.162 -0.4014  0.0208  0.2677
  740MOL0     C 2020   9.208   8.528   5.183 -1.4219  0.1033  1.0864
  740MOL0     C 2021   9.260   8.662   5.135 -0.5431  0.3174  0.8970
  740MOL0     C 2022   9.402   8.701   5.173  0.2221  0.4970  0.5222
  740MOL0     C 2023   9.444   8.838   5.100 -0.8416 -0.1072  0.3800
  740MOL0     C 2024   9.590   8.881   5.151 -1.0333  0.5267 -0.5876
  740MOL0     C 2025   9.607   9.024   5.172 -0.3641  0.5449  0.3760
  740MOL0     C 2026   9.542   9.093   5.299 -0.5110  1.0865  0.0727
  740MOL0    Cl 2027   9.656   9.101   5.435  0.5378 -0.6091 -0.4096
  740MOL0     C 2028   8.796   8.673   5.356  0.1067 -0.6933 -0.4419
  740MOL0     C 2029   8.650   8.680   5.363 -0.4362  0.3752  0.4733
  740MOL0     O 2030   8.368   8.819   5.354 -0.3110  0.5916  0.0538
  740MOL0     C 2031   8.225   8.512   5.462  0.7990 -0.1557 -0.1860
  740MOL0     C 2032   8.127   8.456   5.535  0.0834  0.2079 -0.9336
  740MOL0     N 2033   8.043   8.042   5.733  0.2176  0.2924 -0.2140
  740MOL0     N 2034   8.146   8.024   5.663  0.1563 -0.1628  0.2248
  740MOL0     C 2035   9.405   8.249   5.279 -0.0470 -0.4103  0.6657
  740MOL0     C 2036   9.516   8.312   5.222 -0.0174 -0.6307 -0.8915
  740MOL0     C 2037   9.880   8.628   5.230  0.1145  0.0007  1.0822
  740MOL0     C 2038   9.913   8.604   5.088  0.2446 -0.0408  0.7458
  740MOL0     C 2039  10.029   8.637   5.029 -1.2775  0.5308 -0.9318
  740MOL0     C 2040  10.123   8.715   5.094  0.5397  0.4045 -0.2681
  740MOL0     O 2041  10.234   8.758   5.025  0.4163 -0.4419  0.0451
  740MOL0     C 2042  10.323   8.860   5.084  0.1433 -1.1453  0.4614
  740MOL0     C 2043  10.440   8.883   4.992 -0.1385  0.1006  0.2153
  740MOL0     C 2044  10.414   8.970   4.871 -0.0306  0.2315 -0.3669
  740MOL0     C 2045  10.535   9.039   4.809 -0.2947 -0.3561 -0.6463
  740MOL0     C 2046  10.631   9.091   4.913 -0.2489 -0.6857 -0.0893
  740MOL0     C 2047  10.714   9.140   4.980 -0.6220 -0.2228 -0.4461
  740MOL0     C 2048  10.085   8.757   5.226 -0.6602  0.1361 -1.0248
  740MOL0     C 2049   9.974   8.713   5.298  1.0338 -0.2827 -0.5084
  740MOL0     C 2050   9.949   8.761   5.437  0.1467 -0.2713 -0.1062
  740MOL0     H 2051   9.517   8.566   5.457  0.0013 -0.5253 -0.7933
  740MOL0     H 2052   9.321   8.442   5.534 -3.9095 -1.4622 -1.9113
  740MOL0     H 2053   9.181   8.310   5.613  2.4727 -2.2223 -0.0941
  740MOL0     H 2054   9.099   8.164   5.593 -1.7212 -2.5922 -2.7171
  740MOL0     H 2055   9.085   8.391   5.395 -1.4142  0.5261 -0.8110
  740MOL0     H 2056   9.000   8.231   5.383  1.9905  0.3942 -2.1676
  740MOL0     H 2057   8.977   8.451   5.592  0.2645 -1.1020  2.1764
  740MOL0     H 2058   8.866   8.443   5.451 -1.9340  0.5531  1.9351
  740MOL0     H 2059   8.838   8.181   5.531  1.0247 -0.7140  1.1754
  740MOL0     H 2060   8.879   8.266   5.684 -2.7180  0.8727  1.2725
  740MOL0     H 2061   8.650   8.391   5.535  0.0335 -1.0104 -0.4322
  740MOL0     H 2062   8.691   8.379   5.706  3.0316  1.8502 -0.7548
  740MOL0     H 2063   8.570   8.184   5.495 -0.3070  0.6505 -0.5294
  740MOL0     H 2064   8.637   8.117   5.647 -2.3562 -1.0718  1.0068
  740MOL0     H 2065   8.404   8.287   5.622  1.5009  0.4405  0.1394
  740MOL0     H 2066   8.467   8.241   5.785 -2.1124  1.5203  0.2106
  740MOL0     H 2067   8.393   8.045   5.556  0.0266 -1.0975  0.0212
  740MOL0     H 2068   8.441   8.004   5.715 -2.5464 -2.2016 -0.5973
  740MOL0     H 2069   8.273   8.201   5.901  0.6539 -1.3427  0.8311
  740MOL0     H 2070   8.048   8.227   6.017  0.3528 -1.9573  2.8820
  740MOL0     H 2071   7.978   8.065   6.015 -2.2406  1.7247  2.4227
  740MOL0     H 2072   7.799   8.154   5.864  0.2083  2.0430 -2.0124
  740MOL0     H 2073   7.814   8.233   6.023  3.4751  0.7682  2.3143
  740MOL0     H 2074   7.752   8.386   5.851 -0.8171 -4.5985 -1.6482
  740MOL0     H 2075   7.898   8.427   5.934 -4.1356  0.0622  1.3251
  740MOL0     H 2076   8.048   8.358   5.758 -0.1506 -3.4761 -0.8554
  740MOL0     H 2077   7.906   8.296   5.667 -1.3911 -0.5990  1.3787
  740MOL0     H 2078   7.928   8.738   5.561 -0.1173  0.0829 -2.3623
  740MOL0     H 2079   8.102   8.883   5.311 -2.1645  0.3849  0.6838
  740MOL0     H 2080   8.188   8.932   5.470  0.7344  0.9666  1.2108
  740MOL0     H 2081   8.016   8.910   5.469  1.8480 -0.6856  3.9826
  740MOL0     H 2082   8.558   8.494   5.105 -1.4276  2.9928 -2.0648
  740MOL0     H 2083   8.801   8.481   5.069 -5.1786 -1.9276 -2.1964
  740MOL0     H 2084   9.011   8.418   5.174 -1.3167  0.2189 -0.7494
  740MOL0     H 2085   9.022   8.546   5.059 -3.9344  0.4781  1.1598
  740MOL0     H 2086   9.240   8.518   5.287  2.0752  0.9382  0.2107
  740MOL0     H 2087   9.259   8.451   5.124  1.6371  0.0733  3.5330
  740MOL0     H 2088   9.189   8.740   5.164 -1.7638 -1.4461  2.8855
  740MOL0     H 2089   9.249   8.656   5.026 -2.1792  0.9680  1.0056
  740MOL0     H 2090   9.476   8.622   5.157  0.5423  1.0861 -1.1225
  740MOL0     H 2091   9.397   8.710   5.281  1.4423  0.1960  0.6205
  740MOL0     H 2092   9.448   8.842   4.991  0.5595  2.5715  0.4430
  740MOL0     H 2093   9.380   8.921   5.130 -0.0532  1.8652 -2.9406
  740MOL0     H 2094   9.672   8.834   5.096  0.6066  1.7156  0.7496
  740MOL0     H 2095   9.599   8.834   5.249 -0.1728  2.2119  0.1848
  740MOL0     H 2096   9.558   9.081   5.093  1.8953  2.8250  0.4545
  740MOL0     H 2097   9.712   9.053   5.164 -0.1920 -0.2426 -0.3460
  740MOL0     H 2098   9.455   9.039   5.339  0.7073 -0.2950  0.9699
  740MOL0     H 2099   9.524   9.195   5.264 -0.2203  0.8776 -0.7039
  740MOL0     H 2100   8.848   8.726   5.435 -2.1927 -0.8466  1.2704
  740MOL0     H 2101   8.617   8.751   5.438 -1.8737  0.2136  0.0107
  740MOL0     H 2102   8.315   8.452   5.446  1.6144  1.5436 -2.5706
  740MOL0     H 2103   8.138   8.353   5.567  1.7365 -0.0019 -2.0666
  740MOL0     H 2104   9.361   8.160   5.236  2.4703 -1.2244 -0.4100
  740MOL0     H 2105   9.571   8.270   5.138  0.8047 -4.3869  1.2671
  740MOL0     H 2106   9.851   8.541   5.025  1.4333 -1.5529  1.0566
  740MOL0     H 2107  10.058   8.598   4.932  3.2885  0.0934  0.3672
  740MOL0     H 2108  10.259   8.948   5.096  0.1632 -0.4571 -3.2791
  740MOL0     H 2109  10.367   8.836   5.181 -2.1443 -1.6252  1.4449
  740MOL0     H 2110  10.463   8.783   4.952  0.7798  1.0248 -1.7342
  740MOL0     H 2111  10.530   8.916   5.045  0.2067  2.2544 -1.5409
  740MOL0     H 2112  10.368   8.917   4.788  2.5568  1.1370 -2.5446
  740MOL0     H 2113  10.343   9.049   4.897 -2.5529 -1.7045 -0.9898
  740MOL0     H 2114  10.499   9.134   4.770 -0.4905  0.4366  1.3587
  740MOL0     H 2115  10.602   8.982   4.744  2.7743 -1.4580  3.0447
  740MOL0     H 2116  10.786   9.193   5.039  0.2157 -0.4824 -1.2130
  740MOL0     H 2117  10.151   8.822   5.283 -1.3356  0.5959 -0.7499
  740MOL0     H 2118   9.891   8.853   5.448  0.0675 -0.1573 -1.3766
  740MOL0     H 2119   9.903   8.689   5.506  1.9708 -0.4818  0.9644
  740MOL0     H 2120  10.050   8.773   5.479 -0.3993  0.3724  1.0758
  741MOL0     O 2121   9.322   8.841   3.397 -0.7010 -0.4661  0.3128
  741MOL0     C 2122   9.331   8.740   3.327 -0.9015 -0.4977 -0.2288
  741MOL0     O 2123   9.244   8.639   3.327  0.1123 -0.1484 -0.1188
  741MOL0     C 2124   9.131   8.643   3.413 -0.2917  0.5244  0.3294
  741MOL0     C 2125   9.041   8.752   3.405  0.7484  0.0230 -0.4854
  741MOL0     C 2126   8.926   8.758   3.489  0.5367 -0.1256  1.0271
  741MOL0     C 2127   8.897   8.655   3.578  0.0923 -0.2927  0.1368
  741MOL0     O 2128   8.792   8.686   3.667  0.9660  0.1933  0.1085
  741MOL0     C 2129   8.699   8.584   3.697  0.2051 -0.1935  0.6020
  741MOL0     C 2130   8.611   8.610   3.812 -0.4743 -1.1164 -0.7624
  741MOL0     C 2131   8.546   8.502   3.888  0.3327  0.4399 -0.5780
  741MOL0     C 2132   8.508   8.538   4.035 -1.0395  0.4606  0.0676
  741MOL0     C 2133   8.414   8.429   4.089 -0.6918 -0.4063 -0.2420
  741MOL0     C 2134   8.445   8.418   4.239 -0.3437 -0.5307 -0.4581
  741MOL0     C 2135   8.370   8.310   4.306  0.7646 -0.0796  0.4548
  741MOL0     C 2136   8.220   8.325   4.292 -0.2349 -0.2181  0.6814
  741MOL0     N 2137   8.156   8.455   4.333 -0.5175  0.7621 -0.4865
  741MOL0     C 2138   8.173   8.524   4.452  0.1923  0.9442  0.1649
  741MOL0     C 2139   8.101   8.636   4.439  0.2051  1.0341 -0.0346
  741MOL0     C 2140   8.081   8.744   4.546  0.1126 -0.3011  0.9068
  741MOL0     C 2141   8.209   8.803   4.593 -0.4976 -0.0977  0.1682
  741MOL0     C 2142   8.199   8.931   4.677 -0.5241  0.5633  0.2550
  741MOL0     C 2143   8.160   9.050   4.578 -0.2486  0.2888 -0.4751
  741MOL0     O 2144   8.201   9.185   4.624  0.1221  0.4230  0.5857
  741MOL0     C 2145   8.334   9.224   4.639  0.2327  0.7090 -0.7448
  741MOL0     C 2146   8.447   9.165   4.589  0.2095  0.2822 -0.0893
  741MOL0     C 2147   8.577   9.218   4.611  0.0764  0.1918  0.5497
  741MOL0     C 2148   8.690   9.153   4.544 -0.9632 -0.8462 -0.4765
  741MOL0     C 2149   8.586   9.328   4.700 -1.0955  0.6104  0.1158
  741MOL0     C 2150   8.714   9.395   4.738  0.3725 -0.0984  0.5305
  741MOL0     O 2151   8.771   9.335   4.851 -0.0888 -0.0936 -0.1526
  741MOL0     C 2152   8.872   9.402   4.930  0.1272 -0.4690  1.3052
  741MOL0     C 2153   8.895   9.537   4.957 -0.1038 -0.9833 -0.7758
  741MOL0     C 2154   9.018   9.576   5.022  0.4029 -0.3727  0.5369
  741MOL0     C 2155   9.109   9.489   5.074 -0.8015  1.3750  0.7453
  741MOL0     O 2156   9.222   9.523   5.134  0.3612 -1.1203  0.6339
  741MOL0     C 2157   9.266   9.477   5.260 -0.3669  0.6987 -0.3041
  741MOL0     C 2158   9.309   9.601   5.346 -0.3242  0.6743  0.2740
  741MOL0     C 2159   9.199   9.702   5.368  0.0394 -0.5639  0.0009
  741MOL0     C 2160   9.208   9.793   5.484 -0.0942 -0.7655 -0.3711
  741MOL0     C 2161   9.316   9.902   5.478 -0.2109  0.6655 -0.9133
  741MOL0     C 2162   9.343   9.969   5.624  0.3836 -0.2172 -0.7808
  741MOL0     C 2163   9.479  10.031   5.606  0.1475 -1.0953 -0.3488
  741MOL0     C 2164   9.520  10.107   5.736  0.7144 -0.4288  1.2856
  741MOL0    Cl 2165   9.693  10.122   5.731 -0.9493  0.0098 -0.6499
  741MOL0     C 2166   9.075   9.347   5.061 -0.5839 -0.1898 -0.0764
  741MOL0     C 2167   8.959   9.310   4.987 -0.1526  0.4430  0.0113
  741MOL0     O 2168   8.748   9.501   4.688  0.3602 -0.5202 -0.2736
  741MOL0     C 2169   8.473   9.383   4.750  0.3516  0.2569  0.0502
  741MOL0     C 2170   8.344   9.339   4.725  0.4120  0.6671 -0.8480
  741MOL0     N 2171   8.050   8.638   4.303 -0.5723  0.1651 -0.5299
  741MOL0     N 2172   8.091   8.533   4.248 -0.0917  0.2753 -0.1720
  741MOL0     C 2173   8.984   8.540   3.583  1.2493  0.1614 -0.6938
  741MOL0     C 2174   9.097   8.537   3.498 -0.1678  1.2081 -0.2219
  741MOL0     C 2175   9.449   8.736   3.230 -0.8448 -0.1379 -0.0511
  741MOL0     C 2176   9.422   8.689   3.106 -0.6362 -0.6185  0.1701
  741MOL0     C 2177   9.521   8.683   3.009  0.4561 -0.5464 -0.0544
  741MOL0     C 2178   9.647   8.723   3.041 -1.2640 -1.6060  0.2628
  741MOL0     O 2179   9.745   8.729   2.943 -1.0164  0.0790  0.0409
  741MOL0     C 2180   9.756   8.843   2.852 -0.6936 -0.2113  0.9280
  741MOL0     C 2181   9.851   8.791   2.751 -1.6428  1.0458 -0.0188
  741MOL0     C 2182   9.915   8.893   2.654  0.2770 -0.9388  0.2937
  741MOL0     C 2183   9.807   8.963   2.575  0.9381  0.5889 -0.7476
  741MOL0     C 2184   9.853   9.094   2.531 -0.5444  1.4793 -0.0712
  741MOL0     C 2185   9.891   9.197   2.483  1.3318  0.3151  0.0754
  741MOL0     C 2186   9.674   8.780   3.169  0.0078  1.3707 -0.5885
  741MOL0     C 2187   9.574   8.792   3.272 -0.0246 -0.8868 -0.1540
  741MOL0     C 2188   9.613   8.860   3.409 -0.3171 -0.5281  0.1753
  741MOL0     H 2189   9.066   8.830   3.335  1.0068  0.3346 -0.0503
  741MOL0     H 2190   8.858   8.842   3.478  0.1424 -0.7174 -1.7059
  741MOL0     H 2191   8.743   8.486   3.720  1.7422 -0.0275 -1.3355
  741MOL0     H 2192   8.644   8.568   3.604  0.9859 -1.9317  0.4113
  741MOL0     H 2193   8.679   8.644   3.890 -2.0500  3.7117 -1.1166
  741MOL0     H 2194   8.532   8.683   3.791 -1.8697 -1.5922  2.3486
  741MOL0     H 2195   8.450   8.474   3.843  0.6474 -3.5735  0.8393
  741MOL0     H 2196   8.600   8.407   3.890  2.2276  1.4774  0.6070
  741MOL0     H 2197   8.603   8.549   4.087 -0.8846  3.7217 -0.7242
  741MOL0     H 2198   8.449   8.628   4.016  0.3114  1.0564 -1.4692
  741MOL0     H 2199   8.433   8.340   4.029  2.5383  1.5312 -2.3474
  741MOL0     H 2200   8.310   8.459   4.073 -0.8707 -0.2966  1.0116
  741MOL0     H 2201   8.547   8.395   4.270 -0.6848  0.2798  1.4248
  741MOL0     H 2202   8.417   8.511   4.290 -1.2469 -0.7428 -0.5472
  741MOL0     H 2203   8.392   8.296   4.413  0.2125 -1.6225  0.3838
  741MOL0     H 2204   8.391   8.220   4.247  1.1969 -0.1753  0.7440
  741MOL0     H 2205   8.191   8.320   4.187  0.5477  4.5080  0.0402
  741MOL0     H 2206   8.170   8.245   4.349 -0.1992 -1.9056 -1.5188
  741MOL0     H 2207   8.237   8.495   4.535 -0.1032 -1.1177 -0.2726
  741MOL0     H 2208   8.022   8.710   4.631  0.9631  0.5201  1.8545
  741MOL0     H 2209   8.028   8.828   4.500 -0.8730 -0.0793  2.3682
  741MOL0     H 2210   8.248   8.731   4.665 -2.6335  0.5021  2.0591
  741MOL0     H 2211   8.276   8.824   4.509 -1.6150  2.1894 -0.2469
  741MOL0     H 2212   8.129   8.906   4.757  0.5858 -0.6054  0.9123
  741MOL0     H 2213   8.293   8.953   4.729  1.0585 -3.3038 -0.6519
  741MOL0     H 2214   8.201   9.035   4.477  0.1759 -0.5252 -0.1856
  741MOL0     H 2215   8.051   9.052   4.582 -0.2308  2.7942  1.5878
  741MOL0     H 2216   8.431   9.076   4.530 -0.7274 -0.4304  1.1945
  741MOL0     H 2217   8.724   9.226   4.470 -0.4466  0.7352  1.2302
  741MOL0     H 2218   8.659   9.061   4.495 -0.4900 -1.0897 -0.3309
  741MOL0     H 2219   8.771   9.124   4.612 -3.6179 -0.9755  2.8633
  741MOL0     H 2220   8.832   9.616   4.917  0.2778  1.0206  2.2168
  741MOL0     H 2221   9.032   9.683   5.038 -0.3520 -0.1559 -0.2167
  741MOL0     H 2222   9.193   9.413   5.312  2.2265 -0.2992  2.3717
  741MOL0     H 2223   9.351   9.410   5.248 -1.0596 -0.4167  0.8145
  741MOL0     H 2224   9.349   9.572   5.443  0.5667  2.1477  0.3884
  741MOL0     H 2225   9.394   9.649   5.297 -1.7436  1.3336 -1.7074
  741MOL0     H 2226   9.096   9.666   5.375 -0.0754 -0.6564 -1.7083
  741MOL0     H 2227   9.196   9.765   5.279 -1.1444 -0.2286  0.2681
  741MOL0     H 2228   9.229   9.736   5.574  0.1976  3.3727  2.4545
  741MOL0     H 2229   9.111   9.843   5.488  0.9269  1.5529 -2.1490
  741MOL0     H 2230   9.407   9.854   5.442 -0.8827  0.2626 -2.1247
  741MOL0     H 2231   9.289   9.986   5.412  2.1967  4.0021  1.9780
  741MOL0     H 2232   9.354   9.897   5.705  5.6383  1.8188  0.6844
  741MOL0     H 2233   9.264  10.039   5.654 -0.5945 -2.3178  1.9196
  741MOL0     H 2234   9.476  10.116   5.537 -0.5022  0.1179  1.1141
  741MOL0     H 2235   9.559   9.965   5.570  1.6113  0.4046  0.0416
  741MOL0     H 2236   9.492  10.069   5.834  2.2678 -2.8099  0.8745
  741MOL0     H 2237   9.464  10.200   5.721 -0.8568 -0.9157  3.5466
  741MOL0     H 2238   9.152   9.275   5.089 -0.1324 -0.5898 -2.1627
  741MOL0     H 2239   8.934   9.205   4.975  2.5467 -0.0661 -2.2368
  741MOL0     H 2240   8.477   9.470   4.814  1.4860 -0.6366  1.2305
  741MOL0     H 2241   8.257   9.393   4.761 -1.3284 -1.2775 -1.8937
  741MOL0     H 2242   8.979   8.476   3.670  0.5779  0.6540 -0.3589
  741MOL0     H 2243   9.174   8.461   3.502 -1.7477 -0.6114 -2.0994
  741MOL0     H 2244   9.327   8.642   3.081 -0.7060 -0.8375  0.8111
  741MOL0     H 2245   9.485   8.650   2.913 -0.8099 -1.8283  0.8107
  741MOL0     H 2246   9.655   8.875   2.824 -0.9098 -2.9839 -1.9738
  741MOL0     H 2247   9.797   8.924   2.914  2.1744  0.4974 -1.6611
  741MOL0     H 2248   9.779   8.718   2.711  0.9639 -0.7627 -1.7001
  741MOL0     H 2249   9.932   8.745   2.809 -0.2658  5.2848  1.7894
  741MOL0     H 2250   9.963   8.968   2.716  0.8625  0.3556 -1.6320
  741MOL0     H 2251   9.991   8.847   2.590 -0.1606 -1.5069  0.1745
  741MOL0     H 2252   9.721   8.980   2.640  1.8015 -1.1214  0.9177
  741MOL0     H 2253   9.781   8.895   2.494 -0.5926  0.3682 -0.1053
  741MOL0     H 2254   9.937   9.288   2.449  1.6052  0.3498  0.5251
  741MOL0     H 2255   9.774   8.815   3.191  1.3865 -1.5390 -1.6019
  741MOL0     H 2256   9.722   8.872   3.411 -0.3084  0.0541  4.0174
  741MOL0     H 2257   9.562   8.957   3.403 -1.5767 -1.2572 -2.2055
  741MOL0     H 2258   9.584   8.790   3.488 -1.0373 -0.7275 -0.2563
  742MOL0     O 2259   4.812   9.890   0.750  0.1356 -0.1373 -0.5193
  742MOL0     C 2260   4.903   9.839   0.687 -0.1131  0.8014 -0.5359
  742MOL0     O 2261   4.972   9.734   0.738 -0.3931  0.6155  0.3540
  742MOL0     C 2262   4.931   9.671   0.860  0.3243 -0.3896  0.1404
  742MOL0     C 2263   4.813   9.606   0.889 -0.0809 -0.2545 -0.0147
  742MOL0     C 2264   4.796   9.542   1.011  0.2758  0.5709 -0.4891
  742MOL0     C 2265   4.892   9.546   1.117  0.3712  0.4439 -0.3034
  742MOL0     O 2266   4.869   9.471   1.230  0.0067 -0.1719  0.0227
  742MOL0     C 2267   4.965   9.481   1.330 -0.0504 -0.9642  0.9461
  742MOL0     C 2268   4.914   9.399   1.451  0.1724  0.0214  0.5721
  742MOL0     C 2269   4.768   9.444   1.495 -0.0223 -0.4797 -0.2980
  742MOL0     C 2270   4.745   9.599   1.477  1.3120 -0.0769 -0.8335
  742MOL0     C 2271   4.613   9.652   1.533  0.2195  0.3774 -0.9298
  742MOL0     C 2272   4.582   9.643   1.684 -1.0397 -1.0253 -0.1640
  742MOL0     C 2273   4.464   9.713   1.733 -0.3902 -0.1138  0.1407
  742MOL0     C 2274   4.472   9.865   1.687 -0.7605  0.5093  0.6924
  742MOL0     N 2275   4.367   9.922   1.769  0.2037  0.2047 -0.2282
  742MOL0     C 2276   4.361   9.945   1.903 -0.5396 -1.0648 -0.1304
  742MOL0     C 2277   4.254  10.027   1.925 -0.2438  0.0445 -1.0576
  742MOL0     C 2278   4.220  10.084   2.051 -0.3484 -0.2676 -0.2264
  742MOL0     C 2279   4.295  10.208   2.087  0.3372 -0.3003 -0.9048
  742MOL0     C 2280   4.372  10.277   1.982 -0.2414  0.3187 -0.3932
  742MOL0     C 2281   4.421  10.410   2.034 -0.2449 -0.5775 -0.2955
  742MOL0     O 2282   4.530  10.476   1.960 -0.2894  0.4665  0.5292
  742MOL0     C 2283   4.502  10.604   1.910 -0.7011 -0.2158 -0.5132
  742MOL0     C 2284   4.403  10.623   1.818 -0.0567  0.3916  0.6366
  742MOL0     C 2285   4.374  10.757   1.794  0.5869 -0.3669 -0.0634
  742MOL0     C 2286   4.273  10.762   1.690  0.2338  0.2924  0.4433
  742MOL0     C 2287   4.432  10.875   1.859 -0.9588 -0.6035  0.2265
  742MOL0     C 2288   4.388  11.009   1.850  0.3490  0.5479 -0.5568
  742MOL0     O 2289   4.483  11.110   1.862  0.0253 -0.1272  0.6867
  742MOL0     C 2290   4.473  11.210   1.767  0.0997 -0.0521 -0.3960
  742MOL0     C 2291   4.447  11.177   1.635 -0.0743 -0.9136  0.0749
  742MOL0     C 2292   4.420  11.290   1.550 -0.4420  0.4146 -0.1040
  742MOL0     C 2293   4.442  11.417   1.597  1.3599 -0.3861  1.0379
  742MOL0     O 2294   4.426  11.515   1.498  0.6611 -0.4837 -0.5713
  742MOL0     C 2295   4.383  11.649   1.537 -0.2999  0.4684 -0.5689
  742MOL0     C 2296   4.233  11.645   1.568  0.4719 -1.1695  0.6069
  742MOL0     C 2297   4.184  11.777   1.626  0.3732  0.5540  0.0494
  742MOL0     C 2298   4.039  11.779   1.631  1.3447 -0.8542 -0.5871
  742MOL0     C 2299   3.986  11.911   1.697 -0.6912  0.7921 -0.2598
  742MOL0     C 2300   3.837  11.901   1.726 -0.3674 -0.4527  0.1699
  742MOL0     C 2301   3.743  11.902   1.606 -0.4375 -0.7921  0.8383
  742MOL0     C 2302   3.600  11.877   1.654 -0.7500 -0.8672 -0.3391
  742MOL0    Cl 2303   3.488  11.871   1.515 -0.7487  0.3415  0.4176
  742MOL0     C 2304   4.471  11.447   1.727  0.8477 -0.0444 -0.3268
  742MOL0     C 2305   4.486  11.342   1.814 -0.0935  0.8786 -0.2860
  742MOL0     O 2306   4.263  11.033   1.837  0.3969  0.1358 -0.0876
  742MOL0     C 2307   4.535  10.843   1.947  0.6085 -0.1036  0.4077
  742MOL0     C 2308   4.577  10.711   1.963  0.4826 -0.2675  0.3798
  742MOL0     N 2309   4.176  10.017   1.814 -0.3720  1.1879  0.3208
  742MOL0     N 2310   4.239   9.953   1.720 -0.1436  0.4032 -0.3635
  742MOL0     C 2311   5.013   9.606   1.084 -0.3461  0.6222  1.2117
  742MOL0     C 2312   5.029   9.652   0.951  0.3407 -0.7169 -0.1044
  742MOL0     C 2313   4.937   9.893   0.548  0.8101 -0.3553 -0.0566
  742MOL0     C 2314   4.868  10.018   0.512 -0.3111 -0.1886 -0.2065
  742MOL0     C 2315   4.890  10.080   0.395 -0.0473 -0.6954  0.1250
  742MOL0     C 2316   4.987  10.032   0.299 -0.2116 -0.4666 -0.7361
  742MOL0     O 2317   5.011  10.107   0.192  0.9838  0.5521  0.4028
  742MOL0     C 2318   4.987  10.041   0.071  0.3825  0.6144  0.1132
  742MOL0     C 2319   4.834  10.045   0.050  0.3553  0.0332  0.4810
  742MOL0     C 2320   4.759   9.909   0.068  0.3494 -0.7542 -0.3345
  742MOL0     C 2321   4.727   9.834  -0.058  0.1644  0.4672 -0.5891
  742MOL0     C 2322   4.838   9.825  -0.154  0.8219 -0.6389 -0.0933
  742MOL0     C 2323   4.931   9.817  -0.229  0.6403 -0.6705  0.3056
  742MOL0     C 2324   5.050   9.906   0.328 -0.9108  0.0899  0.4779
  742MOL0     C 2325   5.024   9.832   0.446  0.1782  0.1863 -1.1324
  742MOL0     C 2326   5.093   9.694   0.462 -0.2704  0.4026  0.0203
  742MOL0     H 2327   4.726   9.597   0.824  1.5072 -0.7056 -2.1942
  742MOL0     H 2328   4.702   9.494   1.036 -0.5077  2.8000  1.2388
  742MOL0     H 2329   4.991   9.577   1.375 -2.5179 -1.5151  3.8367
  742MOL0     H 2330   5.057   9.434   1.293 -0.7389 -1.0598 -0.7271
  742MOL0     H 2331   4.903   9.291   1.432 -0.5854 -0.4204  3.1193
  742MOL0     H 2332   4.987   9.403   1.532  2.2298  0.6197 -1.2210
  742MOL0     H 2333   4.685   9.385   1.454  0.6098 -0.8575 -1.0371
  742MOL0     H 2334   4.761   9.430   1.604 -3.2806  1.4712 -0.1166
  742MOL0     H 2335   4.830   9.641   1.530  1.2984 -0.3907 -0.5582
  742MOL0     H 2336   4.742   9.624   1.370 -0.8627  2.0818 -0.3657
  742MOL0     H 2337   4.531   9.613   1.472 -2.5702  2.0759  1.4797
  742MOL0     H 2338   4.617   9.758   1.509 -0.5810  0.4357 -0.8302
  742MOL0     H 2339   4.584   9.537   1.712 -0.7268 -0.4663  2.1796
  742MOL0     H 2340   4.673   9.689   1.724 -1.3363  1.9099 -2.5655
  742MOL0     H 2341   4.467   9.700   1.842  0.0476 -4.1270 -0.1906
  742MOL0     H 2342   4.376   9.669   1.685  1.2315 -0.9413 -2.2400
  742MOL0     H 2343   4.571   9.911   1.683 -0.5072 -0.0971 -1.7216
  742MOL0     H 2344   4.436   9.872   1.583  3.8585  2.3479 -1.0283
  742MOL0     H 2345   4.443   9.937   1.973  0.1216  4.9264  0.3513
  742MOL0     H 2346   4.246  10.012   2.129 -0.8440  1.0880  1.2540
  742MOL0     H 2347   4.111  10.090   2.057 -0.3623 -0.8010  0.2102
  742MOL0     H 2348   4.219  10.282   2.117  2.0628  0.7398  1.2449
  742MOL0     H 2349   4.349  10.183   2.179 -0.2001  4.4621  1.0257
  742MOL0     H 2350   4.450  10.202   1.966 -0.0281  0.4945 -0.1679
  742MOL0     H 2351   4.306  10.287   1.896 -2.3640 -1.8337  0.8458
  742MOL0     H 2352   4.335  10.476   2.047 -0.1569 -0.4575 -0.3180
  742MOL0     H 2353   4.469  10.390   2.130 -0.9211 -0.3996  0.0855
  742MOL0     H 2354   4.347  10.539   1.780 -0.7348 -0.7914  3.9519
  742MOL0     H 2355   4.292  10.699   1.603 -2.2698 -3.3426  2.2464
  742MOL0     H 2356   4.251  10.858   1.644 -2.2027 -0.7894 -0.8686
  742MOL0     H 2357   4.181  10.719   1.731  1.8702 -4.4966 -0.2147
  742MOL0     H 2358   4.441  11.075   1.600 -0.3683 -1.3710  1.4236
  742MOL0     H 2359   4.392  11.273   1.446  0.4049  2.0352 -0.6270
  742MOL0     H 2360   4.449  11.680   1.618 -0.6651 -1.6445  0.5996
  742MOL0     H 2361   4.408  11.716   1.454  3.3004 -0.2313 -0.2098
  742MOL0     H 2362   4.178  11.637   1.474 -3.3766  1.6644  2.3350
  742MOL0     H 2363   4.211  11.562   1.637 -0.3321 -1.4025  0.0753
  742MOL0     H 2364   4.212  11.857   1.556 -0.1012 -0.1645 -0.9852
  742MOL0     H 2365   4.222  11.781   1.728  1.5053 -1.4448 -0.2519
  742MOL0     H 2366   3.999  11.688   1.678 -0.7833 -1.5464 -3.4645
  742MOL0     H 2367   4.003  11.762   1.529  2.0022  1.4907 -1.2697
  742MOL0     H 2368   4.038  11.914   1.794 -0.5735  1.4090 -0.3393
  742MOL0     H 2369   4.007  12.002   1.641 -1.1639  0.7468 -0.5124
  742MOL0     H 2370   3.817  11.988   1.790  4.1334 -1.0367  2.8129
  742MOL0     H 2371   3.815  11.811   1.784 -1.6324  0.4222  1.1078
  742MOL0     H 2372   3.779  11.826   1.535 -2.4928 -1.6713  0.6541
  742MOL0     H 2373   3.742  12.000   1.557  0.3370 -0.4076  1.5662
  742MOL0     H 2374   3.576  11.963   1.718  2.3515 -1.9234  2.5255
  742MOL0     H 2375   3.595  11.784   1.712 -5.1243 -1.5995 -1.5085
  742MOL0     H 2376   4.510  11.543   1.761 -0.9152  0.7738 -0.5018
  742MOL0     H 2377   4.519  11.357   1.916 -1.3794  1.3480  0.0868
  742MOL0     H 2378   4.599  10.912   2.002  2.4572  0.8945 -2.7273
  742MOL0     H 2379   4.663  10.684   2.023  1.3473 -1.6134 -1.3671
  742MOL0     H 2380   5.096   9.600   1.154  0.1204  1.2430  0.7249
  742MOL0     H 2381   5.134   9.667   0.929  0.2216  0.5349  0.1446
  742MOL0     H 2382   4.790  10.068   0.568 -1.9404 -1.5625 -1.1556
  742MOL0     H 2383   4.849  10.180   0.389  1.0778 -0.1208  1.4590
  742MOL0     H 2384   5.039  10.083  -0.016 -2.5426  0.0788 -2.0378
  742MOL0     H 2385   5.017   9.936   0.072  0.9167  0.7474 -0.9647
  742MOL0     H 2386   4.814  10.067  -0.056 -0.2779 -0.2000  0.5517
  742MOL0     H 2387   4.786  10.122   0.111 -0.4387  1.4902 -1.8349
  742MOL0     H 2388   4.818   9.854   0.142 -0.0952 -2.7070 -1.3672
  742MOL0     H 2389   4.663   9.927   0.118  0.4683 -0.7164 -0.1200
  742MOL0     H 2390   4.647   9.894  -0.103 -0.5815 -2.0398 -2.8483
  742MOL0     H 2391   4.694   9.733  -0.035  1.3714  0.1708 -0.1175
  742MOL0     H 2392   5.001   9.810  -0.309 -0.1146 -1.6715 -0.3043
  742MOL0     H 2393   5.121   9.860   0.260  0.3211  3.3290 -0.6333
  742MOL0     H 2394   5.018   9.628   0.507 -1.5005 -1.9776 -4.8007
  742MOL0     H 2395   5.112   9.646   0.366  1.2854 -0.4114  0.7110
  742MOL0     H 2396   5.188   9.703   0.515  0.8546 -0.9301 -1.6738
  743MOL0     O 2397   9.297   1.351   1.038  0.1929  0.3343 -0.1438
  743MOL0     C 2398   9.354   1.244   1.055  0.2931  0.6364 -0.8490
  743MOL0     O 2399   9.311   1.141   1.122 -0.0247  0.9549 -0.2139
  743MOL0     C 2400   9.187   1.156   1.177 -0.0863 -0.1187  0.2999
  743MOL0     C 2401   9.098   1.052   1.150 -0.0538  0.5859 -0.1324
  743MOL0     C 2402   8.968   1.066   1.205 -0.0998 -0.8443  0.3504
  743MOL0     C 2403   8.927   1.179   1.283 -0.3432  0.2818 -0.1357
  743MOL0     O 2404   8.803   1.186   1.340  0.0436 -0.6573  0.7295
  743MOL0     C 2405   8.768   1.299   1.431 -0.6865  0.0247 -0.1169
  743MOL0     C 2406   8.638   1.290   1.500 -0.3186  0.3780 -0.6621
  743MOL0     C 2407   8.632   1.170   1.596  0.8364 -0.2411  1.0087
  743MOL0     C 2408   8.498   1.156   1.664 -1.3919  0.3989 -0.2003
  743MOL0     C 2409   8.516   1.100   1.812  0.6087  0.3215 -0.2486
  743MOL0     C 2410   8.574   0.966   1.832 -0.4535  0.1006 -0.6797
  743MOL0     C 2411   8.488   0.853   1.766 -0.0841  0.3868  0.0924
  743MOL0     C 2412   8.518   0.715   1.813  0.3798 -0.1279 -0.8492
  743MOL0     N 2413   8.467   0.669   1.943 -0.3735  0.7260 -0.1370
  743MOL0     C 2414   8.393   0.734   2.044 -0.4540  0.1195  0.3157
  743MOL0     C 2415   8.399   0.659   2.158 -0.1944  1.2277 -0.2620
  743MOL0     C 2416   8.328   0.675   2.300 -0.2162  0.2139  0.7164
  743MOL0     C 2417   8.183   0.602   2.307  0.0896 -0.5638 -0.3843
  743MOL0     C 2418   8.127   0.617   2.455 -0.6812 -0.1382 -1.0783
  743MOL0     C 2419   8.098   0.770   2.480  0.4522 -0.8158 -0.1165
  743MOL0     O 2420   8.018   0.840   2.391 -0.5045  0.4101  0.1349
  743MOL0     C 2421   7.914   0.925   2.430  0.1924  0.5410 -1.2706
  743MOL0     C 2422   7.837   0.976   2.326 -0.1316 -0.8521 -0.0179
  743MOL0     C 2423   7.722   1.056   2.348 -0.1577  0.7542  0.3332
  743MOL0     C 2424   7.625   1.079   2.236 -0.4946  0.1208 -0.3976
  743MOL0     C 2425   7.691   1.095   2.477 -0.0941  0.2209 -0.6807
  743MOL0     C 2426   7.581   1.186   2.509 -0.0759  0.3092  0.6946
  743MOL0     O 2427   7.538   1.281   2.432 -0.6220  0.6787  0.4812
  743MOL0     C 2428   7.619   1.362   2.369 -1.5032 -0.6646  0.5362
  743MOL0     C 2429   7.735   1.418   2.415  0.4236 -0.2901 -0.9516
  743MOL0     C 2430   7.796   1.530   2.348 -0.2145  0.2736  0.0317
  743MOL0     C 2431   7.752   1.569   2.221  0.0791  0.0270 -0.6499
  743MOL0     O 2432   7.828   1.671   2.167 -0.8642  0.8155 -0.2721
  743MOL0     C 2433   7.772   1.733   2.046 -0.0560  0.0998  0.3128
  743MOL0     C 2434   7.807   1.639   1.933  0.5130  0.0487  0.8141
  743MOL0     C 2435   7.755   1.668   1.797  0.1417 -0.2257 -0.5799
  743MOL0     C 2436   7.605   1.625   1.789  0.4175  0.1493 -0.0009
  743MOL0     C 2437   7.516   1.695   1.684 -0.1429 -0.0423  0.4387
  743MOL0     C 2438   7.573   1.683   1.544  0.0696 -0.6104 -0.0844
  743MOL0     C 2439   7.508   1.790   1.454  0.0974  0.0187  0.4794
  743MOL0     C 2440   7.571   1.811   1.326  0.4133 -0.3988  0.3345
  743MOL0    Cl 2441   7.618   1.673   1.225  0.3028  0.7238  0.1199
  743MOL0     C 2442   7.627   1.505   2.181 -0.8499  0.8627 -0.5024
  743MOL0     C 2443   7.562   1.402   2.255  0.6410  0.0952  0.1900
  743MOL0     O 2444   7.525   1.155   2.611  0.2573  0.6083  0.4504
  743MOL0     C 2445   7.771   1.042   2.583  0.6940 -0.8159  0.3791
  743MOL0     C 2446   7.888   0.972   2.562  1.4963  0.9178 -0.1285
  743MOL0     N 2447   8.491   0.553   2.131  0.9680 -0.1885  1.0162
  743MOL0     N 2448   8.517   0.556   2.004  0.3764  0.0365 -0.0316
  743MOL0     C 2449   9.025   1.279   1.319 -1.0046  0.1354  0.5558
  743MOL0     C 2450   9.150   1.265   1.258 -0.3394  0.3704  1.0476
  743MOL0     C 2451   9.468   1.214   0.958  0.2597 -0.6160  0.0538
  743MOL0     C 2452   9.475   1.088   0.894 -0.0004 -0.1001  0.2238
  743MOL0     C 2453   9.571   1.063   0.798  0.3731 -0.1013  0.1241
  743MOL0     C 2454   9.679   1.147   0.774 -0.3352  0.2819 -1.0402
  743MOL0     O 2455   9.775   1.106   0.680  0.0504 -0.2539  0.2897
  743MOL0     C 2456   9.859   1.196   0.619 -0.1543  0.2842  1.2761
  743MOL0     C 2457   9.930   1.121   0.505  0.3217  0.9620 -0.7975
  743MOL0     C 2458  10.056   1.195   0.471 -0.2836 -0.4218  0.6886
  743MOL0     C 2459  10.035   1.321   0.384  0.2952 -0.6967  0.5936
  743MOL0     C 2460  10.003   1.439   0.467 -0.7284  0.2362  0.5212
  743MOL0     C 2461   9.967   1.539   0.520  0.0475 -0.0974 -0.6513
  743MOL0     C 2462   9.675   1.276   0.841 -0.1602 -0.4030  0.7210
  743MOL0     C 2463   9.575   1.302   0.932  0.2887 -0.2722  1.0882
  743MOL0     C 2464   9.588   1.417   1.022  0.5904  1.4321  1.1640
  743MOL0     H 2465   9.136   0.979   1.078  1.5554  4.6102 -3.8030
  743MOL0     H 2466   8.884   0.998   1.205 -2.0205  1.4032 -0.3456
  743MOL0     H 2467   8.777   1.395   1.379 -2.6697  0.2165 -0.1825
  743MOL0     H 2468   8.851   1.313   1.501  0.6726  1.0702 -1.8588
  743MOL0     H 2469   8.625   1.363   1.580  3.0251 -2.5480  2.9948
  743MOL0     H 2470   8.554   1.282   1.431 -1.0238 -2.1678  0.3581
  743MOL0     H 2471   8.654   1.076   1.544 -3.8010 -1.1154  0.2402
  743MOL0     H 2472   8.710   1.184   1.672 -0.0869  0.7182  1.8017
  743MOL0     H 2473   8.442   1.250   1.661 -2.8503 -0.4624 -1.9558
  743MOL0     H 2474   8.430   1.092   1.607 -2.0753  0.8774  0.0606
  743MOL0     H 2475   8.420   1.106   1.865 -0.1542  0.2917 -1.5663
  743MOL0     H 2476   8.580   1.173   1.864 -1.0845  0.9144  1.1035
  743MOL0     H 2477   8.674   0.964   1.789 -0.2072  2.3783 -0.3290
  743MOL0     H 2478   8.581   0.950   1.941  2.8467 -1.1792 -0.9616
  743MOL0     H 2479   8.503   0.851   1.658 -2.6912 -1.3482 -0.3227
  743MOL0     H 2480   8.389   0.884   1.801 -0.9884 -2.4660  0.2900
  743MOL0     H 2481   8.480   0.654   1.731 -0.6193 -0.5948 -0.0566
  743MOL0     H 2482   8.625   0.694   1.807  0.8435  0.1096  3.2421
  743MOL0     H 2483   8.345   0.831   2.035 -1.1084 -0.1472  0.8566
  743MOL0     H 2484   8.313   0.781   2.324  1.9747  0.9857 -1.0213
  743MOL0     H 2485   8.387   0.632   2.382  3.2148 -2.6702 -2.8950
  743MOL0     H 2486   8.130   0.640   2.219  0.1182 -3.0296 -1.5327
  743MOL0     H 2487   8.202   0.497   2.287 -0.6494 -0.0245 -4.7839
  743MOL0     H 2488   8.045   0.545   2.467  0.0798 -0.7120  1.2297
  743MOL0     H 2489   8.198   0.586   2.533  2.9100  1.4215 -3.4880
  743MOL0     H 2490   8.045   0.766   2.576 -1.0392  1.2653 -0.7676
  743MOL0     H 2491   8.189   0.829   2.495 -0.7703  1.2297 -0.2474
  743MOL0     H 2492   7.854   0.953   2.221  0.2494  0.7103 -0.3204
  743MOL0     H 2493   7.620   1.003   2.158  2.4099 -1.6077  0.9314
  743MOL0     H 2494   7.652   1.173   2.186  2.2541 -0.7561 -0.7356
  743MOL0     H 2495   7.524   1.089   2.277  0.5497 -1.3419  2.8856
  743MOL0     H 2496   7.765   1.377   2.512 -2.3436  2.7561  1.4248
  743MOL0     H 2497   7.888   1.576   2.384  1.9186 -3.6388  0.1706
  743MOL0     H 2498   7.664   1.745   2.054 -0.2856 -0.0341 -1.8858
  743MOL0     H 2499   7.819   1.827   2.013 -1.0350 -0.5645 -3.4855
  743MOL0     H 2500   7.915   1.649   1.920  0.8558  0.2933  3.4472
  743MOL0     H 2501   7.788   1.532   1.948  3.0765 -0.8245 -1.4053
  743MOL0     H 2502   7.814   1.607   1.727  0.4044 -0.7763  0.1128
  743MOL0     H 2503   7.754   1.774   1.769  0.7543  0.3810  1.5588
  743MOL0     H 2504   7.545   1.637   1.879 -2.8265  0.6643 -2.0749
  743MOL0     H 2505   7.615   1.517   1.776  0.0429  0.0135  0.7531
  743MOL0     H 2506   7.419   1.644   1.683  1.0050 -2.3919  0.9296
  743MOL0     H 2507   7.495   1.800   1.708 -2.9888  0.2673 -2.6725
  743MOL0     H 2508   7.563   1.581   1.506  3.1033 -1.7394  1.7997
  743MOL0     H 2509   7.681   1.696   1.553  0.0236  2.4086 -2.2108
  743MOL0     H 2510   7.515   1.880   1.516  3.6498 -0.0640  0.4093
  743MOL0     H 2511   7.407   1.753   1.436  0.7562 -0.0802 -4.2205
  743MOL0     H 2512   7.647   1.888   1.344  3.5059 -3.3816  1.0800
  743MOL0     H 2513   7.492   1.858   1.267  0.3809 -1.9744 -0.9442
  743MOL0     H 2514   7.588   1.533   2.084  2.1496  0.3395 -1.9679
  743MOL0     H 2515   7.474   1.353   2.214  1.0202  0.0374 -0.5608
  743MOL0     H 2516   7.735   1.054   2.685 -1.6637  1.2279 -0.5996
  743MOL0     H 2517   7.951   0.926   2.637  0.1429 -3.0104 -1.1539
  743MOL0     H 2518   9.013   1.366   1.384 -0.2070 -0.1273  1.0816
  743MOL0     H 2519   9.224   1.339   1.285 -0.5212  1.5697 -1.4861
  743MOL0     H 2520   9.389   1.022   0.906 -1.3899  0.5902 -4.0403
  743MOL0     H 2521   9.556   0.985   0.723 -0.2505  0.9489 -0.8865
  743MOL0     H 2522   9.806   1.287   0.587 -1.0107 -1.2747 -2.2413
  743MOL0     H 2523   9.940   1.230   0.684  3.7900 -1.4424 -2.2505
  743MOL0     H 2524   9.867   1.106   0.416 -0.6640  0.4747 -0.0398
  743MOL0     H 2525   9.965   1.022   0.535  2.3845  1.6735 -0.7073
  743MOL0     H 2526  10.122   1.209   0.556  3.1005 -0.0248 -1.8189
  743MOL0     H 2527  10.121   1.131   0.411  0.0757  0.5654  0.0051
  743MOL0     H 2528   9.946   1.304   0.322 -0.8289  0.6195  1.7809
  743MOL0     H 2529  10.118   1.351   0.319 -1.0437  4.6166  0.8236
  743MOL0     H 2530   9.926   1.619   0.578  2.0378  0.0421  0.6533
  743MOL0     H 2531   9.765   1.331   0.817  0.1948 -1.2769 -0.0140
  743MOL0     H 2532   9.694   1.427   1.049  0.2253  1.9794  2.4692
  743MOL0     H 2533   9.566   1.511   0.970 -0.5689  0.9152  0.6933
  743MOL0     H 2534   9.529   1.396   1.111  1.1706 -0.7862  1.0972
  744MOL0     O 2535   1.340   6.111   0.418 -0.2354  0.4148  0.5477
  744MOL0     C 2536   1.258   6.135   0.505 -0.5792  0.0281  0.5620
  744MOL0     O 2537   1.280   6.150   0.643 -0.3052  0.5854 -0.0453
  744MOL0     C 2538   1.394   6.206   0.690 -0.2772  0.5489  1.2540
  744MOL0     C 2539   1.425   6.178   0.825  0.1830 -0.0991  0.6804
  744MOL0     C 2540   1.539   6.245   0.881  0.5764 -0.3851 -0.3974
  744MOL0     C 2541   1.608   6.339   0.811  0.9436  0.1882  0.4051
  744MOL0     O 2542   1.704   6.417   0.865 -0.2495 -0.5223 -0.0633
  744MOL0     C 2543   1.644   6.513   0.959  0.1391 -0.1841 -0.8661
  744MOL0     C 2544   1.673   6.658   0.919 -0.3739 -0.2895 -0.0551
  744MOL0     C 2545   1.574   6.713   0.813 -1.3251  0.4140  0.4643
  744MOL0     C 2546   1.599   6.868   0.779  0.0101  0.7865  0.8893
  744MOL0     C 2547   1.573   6.972   0.888 -0.6443 -0.6890 -0.4713
  744MOL0     C 2548   1.571   7.120   0.833  0.0008  0.2644  0.3676
  744MOL0     C 2549   1.682   7.158   0.739  0.5828  0.0226 -0.6241
  744MOL0     C 2550   1.812   7.194   0.810  0.9707 -0.3972  0.6924
  744MOL0     N 2551   1.871   7.098   0.903 -0.3268  0.0827 -0.2048
  744MOL0     C 2552   1.933   6.976   0.874  0.2494 -1.0407 -0.1580
  744MOL0     C 2553   1.960   6.925   0.998 -0.2435 -0.0114  0.8290
  744MOL0     C 2554   2.020   6.799   1.032 -0.4371  0.0742 -0.3544
  744MOL0     C 2555   2.070   6.704   0.921  1.3971 -0.1959  0.6773
  744MOL0     C 2556   2.141   6.571   0.964 -0.7016  0.2922 -0.6906
  744MOL0     C 2557   2.259   6.595   1.056 -0.0735  0.5155  0.9906
  744MOL0     O 2558   2.339   6.470   1.059  0.5770  0.7263 -0.0224
  744MOL0     C 2559   2.303   6.369   1.151 -0.1464 -0.0093  0.1234
  744MOL0     C 2560   2.371   6.242   1.139  0.5738 -0.7009 -0.1931
  744MOL0     C 2561   2.341   6.126   1.206  0.9241  0.1839 -0.2569
  744MOL0     C 2562   2.422   6.001   1.188  0.1968  0.1385  0.1215
  744MOL0     C 2563   2.235   6.132   1.295 -0.2211  0.0351  0.1669
  744MOL0     C 2564   2.179   6.012   1.374 -0.7687 -0.2709 -0.2597
  744MOL0     O 2565   2.194   5.886   1.328 -0.5818  0.0491 -0.1395
  744MOL0     C 2566   2.140   5.796   1.418  0.7184  0.6581 -0.2796
  744MOL0     C 2567   2.010   5.736   1.408 -0.5942  1.1044  0.0330
  744MOL0     C 2568   1.969   5.636   1.497  0.2835  0.5880 -0.0320
  744MOL0     C 2569   2.047   5.594   1.603 -0.2411  0.1699 -0.3108
  744MOL0     O 2570   1.998   5.490   1.687  0.2179  0.0594  1.1436
  744MOL0     C 2571   2.089   5.396   1.741  0.6726  0.3954 -0.0112
  744MOL0     C 2572   2.038   5.256   1.746  0.5454  0.4551 -0.5494
  744MOL0     C 2573   1.916   5.225   1.843  0.1177 -0.0334 -0.5033
  744MOL0     C 2574   1.938   5.265   1.990 -0.2701  0.4549 -1.2902
  744MOL0     C 2575   1.847   5.172   2.070  0.5259 -0.0426 -0.8668
  744MOL0     C 2576   1.704   5.175   2.028 -0.4709  0.5920 -0.7189
  744MOL0     C 2577   1.628   5.075   2.127  0.2310  0.4740 -0.4308
  744MOL0     C 2578   1.492   5.056   2.067 -1.0461  0.5909  0.3560
  744MOL0    Cl 2579   1.399   5.202   1.997  0.0296  0.0823  0.2744
  744MOL0     C 2580   2.169   5.657   1.628 -0.5349 -0.2939  0.7251
  744MOL0     C 2581   2.217   5.758   1.529  0.7250  1.0183  0.1497
  744MOL0     O 2582   2.125   6.052   1.476  0.2481  1.3471  0.6473
  744MOL0     C 2583   2.191   6.259   1.323 -0.5232 -0.1077  0.2903
  744MOL0     C 2584   2.217   6.384   1.260  0.5118  0.5660 -0.9754
  744MOL0     N 2585   1.908   7.003   1.093 -0.1121  0.8046  0.4397
  744MOL0     N 2586   1.856   7.111   1.035 -1.5517 -1.3513 -0.3475
  744MOL0     C 2587   1.581   6.363   0.675 -0.4243  0.5710 -0.3387
  744MOL0     C 2588   1.475   6.296   0.617 -0.3942 -0.8841 -0.2593
  744MOL0     C 2589   1.121   6.136   0.461  0.2100 -0.7639 -0.0166
  744MOL0     C 2590   1.022   6.111   0.551  1.5033 -0.3215  1.3530
  744MOL0     C 2591   0.888   6.139   0.525  0.4105 -0.3153 -1.1498
  744MOL0     C 2592   0.847   6.192   0.408 -0.3244  0.4625  0.2555
  744MOL0     O 2593   0.711   6.209   0.377 -1.2445  0.1928  0.1411
  744MOL0     C 2594   0.607   6.236   0.473 -0.4267 -0.1267 -0.5524
  744MOL0     C 2595   0.472   6.250   0.408 -0.1239 -0.6171  0.3025
  744MOL0     C 2596   0.372   6.310   0.501 -0.3857 -0.7745  0.5536
  744MOL0     C 2597   0.251   6.372   0.426 -0.3824  1.0363 -0.5310
  744MOL0     C 2598   0.235   6.523   0.435 -0.0509 -0.0893 -0.2186
  744MOL0     C 2599   0.202   6.642   0.413 -0.1872 -0.5081 -0.1105
  744MOL0     C 2600   0.936   6.195   0.306  0.3988  0.0118 -0.5654
  744MOL0     C 2601   1.073   6.186   0.334  1.1870  0.2569 -0.2239
  744MOL0     C 2602   1.163   6.226   0.224 -0.6598 -1.1844  0.4540
  744MOL0     H 2603   1.383   6.091   0.875 -0.4916 -1.1017 -1.4852
  744MOL0     H 2604   1.583   6.228   0.979  0.0414  2.5881  0.4572
  744MOL0     H 2605   1.690   6.492   1.056 -3.4210 -0.3295  0.9258
  744MOL0     H 2606   1.538   6.490   0.966 -0.9049  2.9886 -3.4092
  744MOL0     H 2607   1.649   6.710   1.013 -2.0980 -0.5262 -0.3314
  744MOL0     H 2608   1.777   6.675   0.889 -0.4325  0.8728  0.3310
  744MOL0     H 2609   1.588   6.664   0.717  0.4929 -0.2044  0.9942
  744MOL0     H 2610   1.472   6.700   0.850 -1.6400 -1.0019 -0.8258
  744MOL0     H 2611   1.699   6.882   0.737 -0.2863 -1.4364 -0.7009
  744MOL0     H 2612   1.531   6.878   0.694 -0.8896  1.4899  1.6777
  744MOL0     H 2613   1.644   6.964   0.970  1.1758 -0.4657 -1.9603
  744MOL0     H 2614   1.484   6.942   0.944 -1.3394 -0.6074 -1.4810
  744MOL0     H 2615   1.480   7.116   0.773  0.1420 -2.1540  0.2102
  744MOL0     H 2616   1.555   7.196   0.910 -0.3790  1.4379 -0.8279
  744MOL0     H 2617   1.661   7.262   0.711  2.6694  1.2412  1.9149
  744MOL0     H 2618   1.695   7.102   0.645  0.8760 -0.4998 -0.2809
  744MOL0     H 2619   1.884   7.226   0.734  1.5392  2.5365  2.3014
  744MOL0     H 2620   1.796   7.288   0.864 -1.1482  1.1573 -2.3496
  744MOL0     H 2621   1.967   6.945   0.776  0.5307  2.3336 -1.2729
  744MOL0     H 2622   1.945   6.745   1.090  0.2956 -1.0495 -0.4390
  744MOL0     H 2623   2.095   6.826   1.107 -1.0972 -0.1945  0.4233
  744MOL0     H 2624   1.983   6.688   0.856  2.9033  4.3416 -3.0901
  744MOL0     H 2625   2.129   6.767   0.853  1.1523  0.7939  1.3612
  744MOL0     H 2626   2.068   6.505   1.012  2.2440 -0.5588  3.1613
  744MOL0     H 2627   2.177   6.516   0.877  0.4081 -0.7450  0.3863
  744MOL0     H 2628   2.322   6.669   1.006 -0.3810 -1.2591 -2.3345
  744MOL0     H 2629   2.238   6.626   1.158  0.7686 -0.4721  1.4828
  744MOL0     H 2630   2.447   6.242   1.062 -0.8775  1.5645 -1.7551
  744MOL0     H 2631   2.528   6.016   1.164 -0.0819 -0.4797 -1.5819
  744MOL0     H 2632   2.379   5.942   1.108  1.1546 -1.3451  0.6611
  744MOL0     H 2633   2.413   5.944   1.281 -3.0072 -0.3216 -0.3747
  744MOL0     H 2634   1.945   5.777   1.332 -2.5674 -2.0845 -0.1731
  744MOL0     H 2635   1.870   5.593   1.496  0.2534  0.6501  0.1697
  744MOL0     H 2636   2.181   5.395   1.682  2.8683 -0.3997  3.1506
  744MOL0     H 2637   2.134   5.434   1.833 -0.1736  1.0372  0.1541
  744MOL0     H 2638   1.997   5.223   1.650  0.8527  0.9212 -0.8437
  744MOL0     H 2639   2.113   5.184   1.778 -0.8609 -0.6418  0.4349
  744MOL0     H 2640   1.896   5.118   1.838 -4.0812  0.5257  0.6854
  744MOL0     H 2641   1.826   5.273   1.804 -0.0877 -0.0436 -0.0451
  744MOL0     H 2642   1.907   5.367   2.013 -1.0912 -0.0267 -0.1593
  744MOL0     H 2643   2.043   5.249   2.016 -1.5713 -0.2586  5.2474
  744MOL0     H 2644   1.889   5.071   2.078  2.3791  0.4740 -3.1016
  744MOL0     H 2645   1.862   5.213   2.170  4.6799 -1.7656 -0.5925
  744MOL0     H 2646   1.691   5.153   1.922  0.0148  3.3196 -1.4268
  744MOL0     H 2647   1.663   5.275   2.046 -1.9140 -0.1565  0.3812
  744MOL0     H 2648   1.632   5.115   2.229  0.4820 -0.5299 -0.0394
  744MOL0     H 2649   1.684   4.982   2.136 -0.3296  0.2120  0.4049
  744MOL0     H 2650   1.437   5.004   2.146  2.5083 -1.8928  1.4227
  744MOL0     H 2651   1.495   4.984   1.984  1.5642  0.6343  0.3389
  744MOL0     H 2652   2.225   5.626   1.715 -1.9497  0.2163  1.8534
  744MOL0     H 2653   2.316   5.800   1.538  0.6096  1.8046 -1.8343
  744MOL0     H 2654   2.118   6.259   1.403 -0.2545  1.0024  0.5504
  744MOL0     H 2655   2.167   6.476   1.288  0.2132  0.5877 -1.5674
  744MOL0     H 2656   1.640   6.436   0.621  3.3332 -0.9436  1.3852
  744MOL0     H 2657   1.441   6.331   0.519 -2.8449  0.3648  0.9406
  744MOL0     H 2658   1.054   6.067   0.644  3.1835 -0.4724  0.7535
  744MOL0     H 2659   0.810   6.129   0.600 -2.0047 -0.3243 -3.5241
  744MOL0     H 2660   0.614   6.148   0.538  4.9247  0.3198 -0.1181
  744MOL0     H 2661   0.638   6.314   0.544 -0.0494 -1.3671  0.6904
  744MOL0     H 2662   0.437   6.154   0.370  0.7307 -1.0355  0.5616
  744MOL0     H 2663   0.489   6.323   0.328  0.0630 -0.6970  0.2705
  744MOL0     H 2664   0.339   6.227   0.564  2.8958 -1.5562  1.4594
  744MOL0     H 2665   0.423   6.380   0.567 -0.9391 -0.2743  0.4593
  744MOL0     H 2666   0.158   6.322   0.457 -1.2116  1.2524 -2.5439
  744MOL0     H 2667   0.245   6.341   0.322 -0.0076  2.9738 -1.1691
  744MOL0     H 2668   0.191   6.747   0.396 -0.4087 -0.5634 -0.3112
  744MOL0     H 2669   0.901   6.224   0.207 -3.0937  3.9202  1.4901
  744MOL0     H 2670   1.234   6.295   0.270 -0.4023 -1.4641  0.4783
  744MOL0     H 2671   1.217   6.147   0.172  0.2761 -0.2057 -0.1060
  744MOL0     H 2672   1.109   6.286   0.150 -2.7053 -1.6277  1.5298
  745MOL0     O 2673   8.222   8.983   3.688  0.0339  0.9383 -0.8549
  745MOL0     C 2674   8.191   8.893   3.768  0.9312  0.0115  0.1875
  745MOL0     O 2675   8.215   8.885   3.900 -0.1254  0.0019 -0.4937
  745MOL0     C 2676   8.339   8.924   3.951  0.6557 -0.3783  0.0892
  745MOL0     C 2677   8.452   8.961   3.870 -0.1558  0.0101  0.6842
  745MOL0     C 2678   8.568   8.995   3.944 -0.6753  0.5952 -0.2849
  745MOL0     C 2679   8.575   9.005   4.079  0.6862  0.4162 -0.2311
  745MOL0     O 2680   8.681   9.058   4.149 -0.6227  0.2556 -0.1665
  745MOL0     C 2681   8.813   9.076   4.080  1.7953 -0.4457 -0.2057
  745MOL0     C 2682   8.933   9.069   4.179  0.3110  0.3709  0.6872
  745MOL0     C 2683   8.953   8.931   4.247  0.1034  0.1062 -0.4906
  745MOL0     C 2684   9.095   8.898   4.298 -0.2788  0.3555 -0.0082
  745MOL0     C 2685   9.198   8.902   4.186  0.2567 -0.1522  0.0004
  745MOL0     C 2686   9.323   8.839   4.225 -0.0151  0.3385  0.4835
  745MOL0     C 2687   9.392   8.906   4.344 -0.3183  0.6068  0.1117
  745MOL0     C 2688   9.486   8.801   4.409  0.8687 -0.5166  0.1637
  745MOL0     N 2689   9.604   8.778   4.326 -0.1787  1.0549  0.1721
  745MOL0     C 2690   9.710   8.865   4.311  0.3685  0.2304 -0.7459
  745MOL0     C 2691   9.791   8.803   4.219 -0.3630 -0.0196  0.0878
  745MOL0     C 2692   9.908   8.853   4.131  0.9089 -0.7445 -0.2622
  745MOL0     C 2693  10.037   8.793   4.149 -0.5666  1.0348  0.1072
  745MOL0     C 2694  10.095   8.811   4.293 -0.2089 -0.3034  0.2899
  745MOL0     C 2695  10.107   8.962   4.338 -0.3046  0.4569  0.0553
  745MOL0     O 2696  10.212   9.036   4.271 -0.0306  0.6689  0.6800
  745MOL0     C 2697  10.176   9.170   4.252 -0.0147 -0.5138 -0.0494
  745MOL0     C 2698  10.197   9.269   4.348  1.0695  1.3265  0.5184
  745MOL0     C 2699  10.180   9.406   4.319  0.1101 -0.5530  0.8055
  745MOL0     C 2700  10.200   9.510   4.431 -0.3490 -0.0586 -0.1230
  745MOL0     C 2701  10.153   9.446   4.182  0.4728  0.3042  0.0682
  745MOL0     C 2702  10.137   9.586   4.138  0.7212  1.0210 -0.7266
  745MOL0     O 2703  10.039   9.665   4.185  0.5510  0.1372 -0.0914
  745MOL0     C 2704  10.030   9.783   4.125 -0.3578 -0.2409 -0.7783
  745MOL0     C 2705   9.929   9.797   4.029  0.4143 -0.7803 -0.2930
  745MOL0     C 2706   9.904   9.916   3.960 -0.9446 -0.4619  0.3388
  745MOL0     C 2707   9.973  10.034   4.002 -0.2424  0.2723 -0.3180
  745MOL0     O 2708   9.958  10.155   3.933  1.0717 -0.2165  0.0649
  745MOL0     C 2709  10.025  10.280   3.960 -0.6982 -0.4600 -0.4127
  745MOL0     C 2710   9.973  10.366   4.064 -0.6327 -0.7407 -0.0292
  745MOL0     C 2711   9.837  10.424   4.018 -0.3113  0.3415 -0.3173
  745MOL0     C 2712   9.744  10.438   4.144  0.5947  0.6006 -0.6988
  745MOL0     C 2713   9.608  10.482   4.112  0.1705  0.4114  0.4449
  745MOL0     C 2714   9.597  10.633   4.122 -0.1566  0.6494  0.0216
  745MOL0     C 2715   9.449  10.673   4.095 -1.1044 -0.1955  0.2823
  745MOL0     C 2716   9.418  10.678   3.949 -0.0175  0.0006  0.0527
  745MOL0    Cl 2717   9.245  10.705   3.909 -0.1496  0.2867 -0.2395
  745MOL0     C 2718  10.066  10.017   4.106  0.5759  0.1646 -0.2538
  745MOL0     C 2719  10.090   9.899   4.176  0.3137 -0.1241  0.3213
  745MOL0     O 2720  10.210   9.618   4.041 -0.2073  0.4533 -0.3113
  745MOL0     C 2721  10.139   9.343   4.093  0.1804 -0.9213  0.3778
  745MOL0     C 2722  10.158   9.206   4.121  0.5041 -0.7373  0.1275
  745MOL0     N 2723   9.738   8.668   4.194 -0.0251  1.0996 -0.1248
  745MOL0     N 2724   9.628   8.657   4.268 -0.4487  0.4047 -0.3596
  745MOL0     C 2725   8.454   8.963   4.153 -0.1287 -0.8365  0.2836
  745MOL0     C 2726   8.342   8.924   4.086  0.1875 -0.6753 -0.2552
  745MOL0     C 2727   8.087   8.790   3.714 -0.4777  0.2870 -0.3135
  745MOL0     C 2728   8.002   8.824   3.612  1.1285 -0.8952 -0.2089
  745MOL0     C 2729   7.907   8.745   3.557  0.4901  0.9122  0.0314
  745MOL0     C 2730   7.893   8.619   3.604  0.1503 -0.8541 -0.2816
  745MOL0     O 2731   7.795   8.535   3.555 -0.5760  0.5583  1.0968
  745MOL0     C 2732   7.811   8.392   3.595 -0.1456  0.0279 -0.1541
  745MOL0     C 2733   7.716   8.299   3.504 -0.3338  0.9230 -0.1282
  745MOL0     C 2734   7.621   8.375   3.414 -0.2503 -0.9579 -0.3403
  745MOL0     C 2735   7.527   8.280   3.330 -0.3424  0.0066  0.2898
  745MOL0     C 2736   7.466   8.372   3.226 -1.7228 -0.0926  0.8717
  745MOL0     C 2737   7.417   8.443   3.139 -0.0961 -0.1427  0.4865
  745MOL0     C 2738   7.973   8.571   3.714 -0.7801  0.0723  0.3394
  745MOL0     C 2739   8.062   8.663   3.764  0.7916  0.0915  0.3670
  745MOL0     C 2740   8.143   8.595   3.875 -0.6756 -0.0820 -0.5113
  745MOL0     H 2741   8.450   8.960   3.761  1.1038 -0.6110  0.6380
  745MOL0     H 2742   8.644   9.030   3.875 -0.7934 -0.0040 -0.7283
  745MOL0     H 2743   8.807   9.178   4.042 -2.0649 -0.7890 -0.8848
  745MOL0     H 2744   8.829   9.007   3.997  1.4207  0.4993 -1.0758
  745MOL0     H 2745   9.023   9.099   4.125 -0.8612  0.2961 -1.3878
  745MOL0     H 2746   8.914   9.142   4.259 -0.1012 -0.8213  1.7170
  745MOL0     H 2747   8.886   8.936   4.333 -1.3506  0.5304 -1.5954
  745MOL0     H 2748   8.911   8.849   4.187  0.7783 -0.8585  0.3200
  745MOL0     H 2749   9.120   8.973   4.373  1.5067  1.8736 -1.9898
  745MOL0     H 2750   9.094   8.797   4.339  0.4063 -0.9075 -2.8341
  745MOL0     H 2751   9.228   9.004   4.159  0.1453  0.1925  1.1358
  745MOL0     H 2752   9.160   8.845   4.101  0.6423 -0.9579  0.3605
  745MOL0     H 2753   9.313   8.732   4.244  2.2599 -0.3147 -1.4286
  745MOL0     H 2754   9.393   8.853   4.142  0.1224  5.1305  1.1157
  745MOL0     H 2755   9.319   8.932   4.420 -1.6753  1.8144 -1.5200
  745MOL0     H 2756   9.449   8.998   4.324  0.2547  0.6356  1.7565
  745MOL0     H 2757   9.518   8.842   4.506 -0.0175 -5.0951  2.6825
  745MOL0     H 2758   9.438   8.704   4.422  0.6422 -0.1123  3.1806
  745MOL0     H 2759   9.725   8.965   4.352  1.8495 -1.4364  3.1808
  745MOL0     H 2760   9.916   8.962   4.138 -4.1953 -0.1984  1.6920
  745MOL0     H 2761   9.864   8.831   4.033 -0.5869 -1.1832  0.4624
  745MOL0     H 2762  10.028   8.688   4.122 -0.8119  1.2872 -0.8389
  745MOL0     H 2763  10.114   8.828   4.080  0.3537 -1.5555 -0.2700
  745MOL0     H 2764  10.026   8.762   4.362 -1.4049  1.7260  0.6396
  745MOL0     H 2765  10.190   8.757   4.295 -0.5842 -1.0090 -0.2443
  745MOL0     H 2766  10.008   9.006   4.320 -0.4224 -0.3992 -1.5154
  745MOL0     H 2767  10.142   8.970   4.442  4.4064  1.3699 -1.3775
  745MOL0     H 2768  10.216   9.222   4.443 -1.5548 -0.6010  0.2268
  745MOL0     H 2769  10.216   9.453   4.524  4.5795 -2.8676 -2.2984
  745MOL0     H 2770  10.110   9.571   4.429 -2.5097 -2.9179 -4.0852
  745MOL0     H 2771  10.290   9.571   4.421 -1.1473  1.3790  1.0846
  745MOL0     H 2772   9.863   9.720   3.990 -1.6616  1.4316 -1.4530
  745MOL0     H 2773   9.839   9.890   3.877  2.9609 -0.7205 -2.9481
  745MOL0     H 2774  10.134  10.277   3.976 -0.3774  0.7648 -2.0414
  745MOL0     H 2775  10.006  10.334   3.867 -0.9188  0.5688  0.2033
  745MOL0     H 2776   9.970  10.314   4.160 -0.7074  0.7608  0.8019
  745MOL0     H 2777  10.046  10.445   4.081  0.8297 -1.9995 -0.1953
  745MOL0     H 2778   9.794  10.376   3.931 -0.2811 -0.0190 -0.1348
  745MOL0     H 2779   9.855  10.527   3.986  1.8732  0.2897  0.5700
  745MOL0     H 2780   9.794  10.502   4.218  2.7162  4.2273 -4.8012
  745MOL0     H 2781   9.747  10.340   4.191  1.2617  1.1008  0.3333
  745MOL0     H 2782   9.581  10.438   4.015  2.0027  0.8226 -0.2951
  745MOL0     H 2783   9.545  10.450   4.195  0.9297  2.5813  1.9439
  745MOL0     H 2784   9.661  10.679   4.047 -0.2683 -0.5279 -0.8236
  745MOL0     H 2785   9.616  10.668   4.224 -1.7198  1.2181  0.1377
  745MOL0     H 2786   9.426  10.775   4.127  0.0289  0.9239 -2.2062
  745MOL0     H 2787   9.385  10.601   4.147  1.3937 -0.7288  2.8382
  745MOL0     H 2788   9.439  10.581   3.902 -1.2676 -0.5876  0.6669
  745MOL0     H 2789   9.476  10.763   3.911  1.3412 -0.0839  1.8273
  745MOL0     H 2790  10.138  10.094   4.130  2.7094 -2.1368  1.2590
  745MOL0     H 2791  10.158   9.891   4.260  2.3454  0.4083 -1.1852
  745MOL0     H 2792  10.115   9.371   3.991 -0.3492 -1.6132  0.3028
  745MOL0     H 2793  10.157   9.123   4.050  5.0880 -1.0000  0.0540
  745MOL0     H 2794   8.470   8.967   4.261 -0.9638  0.9544  0.3789
  745MOL0     H 2795   8.259   8.906   4.153 -0.7978 -0.2249 -1.3322
  745MOL0     H 2796   8.000   8.927   3.576 -1.5003 -0.7817  0.0616
  745MOL0     H 2797   7.845   8.790   3.480  1.9009  1.9742 -0.5269
  745MOL0     H 2798   7.911   8.357   3.572  0.0381 -0.3886  1.1710
  745MOL0     H 2799   7.781   8.370   3.698 -1.2866  2.9762  0.2445
  745MOL0     H 2800   7.654   8.236   3.569 -0.7855 -1.6798 -2.8465
  745MOL0     H 2801   7.779   8.240   3.437 -0.3850  0.1464  0.4913
  745MOL0     H 2802   7.568   8.457   3.464 -1.1625 -1.1457 -0.9674
  745MOL0     H 2803   7.689   8.419   3.341  2.6280 -2.8428  1.0309
  745MOL0     H 2804   7.446   8.226   3.382  1.4351 -0.2576  3.0265
  745MOL0     H 2805   7.582   8.201   3.278 -1.9898 -0.0861 -1.4262
  745MOL0     H 2806   7.383   8.514   3.065  0.5796 -0.3035  0.0150
  745MOL0     H 2807   7.959   8.482   3.774 -0.9474  1.3462  2.2687
  745MOL0     H 2808   8.124   8.489   3.894  0.8597 -0.2708  0.1560
  745MOL0     H 2809   8.250   8.596   3.849 -0.8182  0.6834 -1.0710
  745MOL0     H 2810   8.138   8.655   3.967 -0.2165 -0.4513 -0.2376
  746MOL0     O 2811  10.396   3.691  11.312  0.4024 -0.7275 -0.7197
  746MOL0     C 2812  10.301   3.611  11.306  1.4968 -1.6374  0.1626
  746MOL0     O 2813  10.215   3.588  11.415 -0.1731 -0.6424 -0.1973
  746MOL0     C 2814  10.263   3.601  11.542  0.0090  0.7397 -0.8392
  746MOL0     C 2815  10.169   3.611  11.642  0.5769  0.5549  0.0659
  746MOL0     C 2816  10.195   3.610  11.773  0.2066  0.0344  0.1925
  746MOL0     C 2817  10.332   3.601  11.816  0.1176 -0.7993  0.3715
  746MOL0     O 2818  10.368   3.588  11.947  0.4607 -0.8259 -0.0963
  746MOL0     C 2819  10.282   3.501  12.028 -1.1571  0.0966  1.4013
  746MOL0     C 2820  10.333   3.513  12.179  0.1562  0.1085 -0.4775
  746MOL0     C 2821  10.464   3.452  12.197  0.0855 -1.2180  0.2794
  746MOL0     C 2822  10.467   3.306  12.226 -0.1902 -0.4545  0.6934
  746MOL0     C 2823  10.604   3.243  12.237 -0.0868 -0.6609 -0.6862
  746MOL0     C 2824  10.588   3.094  12.217 -0.6159  0.2971  0.1403
  746MOL0     C 2825  10.508   3.021  12.317  0.9229  0.5475 -0.3595
  746MOL0     C 2826  10.515   2.855  12.299 -0.7196  0.2698 -0.1353
  746MOL0     N 2827  10.458   2.812  12.177  0.6744  0.2113  0.0306
  746MOL0     C 2828  10.524   2.800  12.057 -0.1540 -0.0923  1.1031
  746MOL0     C 2829  10.442   2.737  11.973  0.1852  0.5575 -0.3828
  746MOL0     C 2830  10.470   2.693  11.831 -0.1303  0.3050  0.0887
  746MOL0     C 2831  10.471   2.821  11.741 -0.6334  0.5686  0.0454
  746MOL0     C 2832  10.528   2.772  11.601  0.4328 -0.5760 -0.0092
  746MOL0     C 2833  10.668   2.725  11.580 -0.6765 -0.8076 -0.3761
  746MOL0     O 2834  10.770   2.813  11.643  0.1251  0.8710  0.1715
  746MOL0     C 2835  10.902   2.786  11.625 -0.7552 -0.0307  0.1413
  746MOL0     C 2836  10.942   2.660  11.584  1.0008 -0.2492  0.4839
  746MOL0     C 2837  11.073   2.636  11.539  0.5853 -0.9021  0.8410
  746MOL0     C 2838  11.099   2.500  11.488 -0.7178  0.4398 -0.1486
  746MOL0     C 2839  11.175   2.739  11.561  0.0783 -0.2385 -0.7796
  746MOL0     C 2840  11.315   2.731  11.521  0.6604 -0.4764  0.8097
  746MOL0     O 2841  11.394   2.847  11.530  0.0627 -0.1467 -0.5198
  746MOL0     C 2842  11.529   2.839  11.479  1.4326  0.5389 -0.7100
  746MOL0     C 2843  11.616   2.748  11.541 -0.2381 -1.3727 -0.5436
  746MOL0     C 2844  11.751   2.735  11.506 -0.3756 -0.7666 -0.4402
  746MOL0     C 2845  11.800   2.801  11.398 -0.0927 -1.0240  0.2372
  746MOL0     O 2846  11.925   2.792  11.349 -0.4257 -0.9152 -0.0785
  746MOL0     C 2847  12.037   2.753  11.442  1.2255  0.3039 -0.2233
  746MOL0     C 2848  12.169   2.834  11.407  0.2356  0.6170 -0.0421
  746MOL0     C 2849  12.142   2.981  11.388  0.2282  0.2894 -1.0594
  746MOL0     C 2850  12.279   3.053  11.373 -0.3994  0.0270  0.7931
  746MOL0     C 2851  12.273   3.199  11.360 -0.4588  0.1388 -0.0171
  746MOL0     C 2852  12.420   3.238  11.327  0.0480 -0.6256  0.1260
  746MOL0     C 2853  12.427   3.373  11.264 -0.1361 -0.3210 -0.9079
  746MOL0     C 2854  12.432   3.486  11.362  0.2863  1.7175 -0.6721
  746MOL0    Cl 2855  12.347   3.615  11.279 -0.0756  0.2736 -0.6156
  746MOL0     C 2856  11.703   2.878  11.320 -0.0517 -0.0240 -0.3321
  746MOL0     C 2857  11.569   2.904  11.362 -0.5064 -0.1959 -0.0707
  746MOL0     O 2858  11.348   2.628  11.464  0.6330 -0.4821 -0.3460
  746MOL0     C 2859  11.130   2.860  11.611  0.2085 -0.3863  0.3096
  746MOL0     C 2860  11.003   2.880  11.654  1.6418 -0.6230  0.4959
  746MOL0     N 2861  10.322   2.712  12.039  0.3417  0.0592 -0.1926
  746MOL0     N 2862  10.334   2.764  12.158 -0.5764  0.2578 -0.2038
  746MOL0     C 2863  10.434   3.587  11.716 -0.2587 -0.9561 -0.7978
  746MOL0     C 2864  10.401   3.585  11.583 -0.4205 -0.0687  0.0642
  746MOL0     C 2865  10.284   3.522  11.182  0.7442 -0.5668 -0.8732
  746MOL0     C 2866  10.227   3.396  11.185  0.0635 -0.3405  0.1085
  746MOL0     C 2867  10.238   3.309  11.075 -0.5763  0.6683 -0.0091
  746MOL0     C 2868  10.298   3.344  10.954  0.9629 -0.3541 -0.9321
  746MOL0     O 2869  10.306   3.258  10.846 -0.5419  0.5896 -0.6820
  746MOL0     C 2870  10.281   3.317  10.711  0.2169  0.3163 -0.5631
  746MOL0     C 2871  10.346   3.214  10.617 -0.6648  0.1293 -0.5071
  746MOL0     C 2872  10.389   3.268  10.482  1.0240 -0.4865  1.2174
  746MOL0     C 2873  10.526   3.322  10.476 -0.1504 -0.2659  0.6023
  746MOL0     C 2874  10.552   3.452  10.530 -0.3615  0.0307  0.5733
  746MOL0     C 2875  10.580   3.563  10.561 -0.3926  0.3023 -0.4213
  746MOL0     C 2876  10.340   3.473  10.950 -0.4868 -0.1889  0.2084
  746MOL0     C 2877  10.333   3.573  11.058  0.0736  1.2346  1.0929
  746MOL0     C 2878  10.398   3.707  11.029  0.1034 -0.4106  0.3288
  746MOL0     H 2879  10.065   3.627  11.614  0.5813  1.6012  0.6301
  746MOL0     H 2880  10.108   3.607  11.836 -1.1963 -0.7819 -1.6832
  746MOL0     H 2881  10.274   3.401  11.984 -1.0421 -0.1886  2.0115
  746MOL0     H 2882  10.183   3.547  12.022 -1.5866 -0.5388  2.9599
  746MOL0     H 2883  10.331   3.618  12.208 -1.5472  0.8746 -2.9659
  746MOL0     H 2884  10.272   3.462  12.254  0.2703 -0.8931 -1.0529
  746MOL0     H 2885  10.529   3.469  12.110 -0.0935 -3.5727 -0.3847
  746MOL0     H 2886  10.515   3.497  12.283 -0.6904  0.7380 -0.2162
  746MOL0     H 2887  10.421   3.292  12.324  2.3829 -1.0508  1.9136
  746MOL0     H 2888  10.401   3.250  12.160  0.5798  1.7915 -2.2254
  746MOL0     H 2889  10.655   3.265  12.331  0.5264  0.9688 -1.3517
  746MOL0     H 2890  10.669   3.268  12.152  2.1017 -2.0757  0.4838
  746MOL0     H 2891  10.539   3.074  12.121 -0.5318 -1.9217  0.5086
  746MOL0     H 2892  10.691   3.058  12.209 -0.3145  0.4820  2.5113
  746MOL0     H 2893  10.403   3.053  12.319  1.5930  2.8694  1.2264
  746MOL0     H 2894  10.540   3.041  12.419 -0.7025  2.4070 -0.1339
  746MOL0     H 2895  10.621   2.825  12.296 -0.4890  1.1117 -0.9854
  746MOL0     H 2896  10.464   2.802  12.380  0.2693  0.6538  0.7674
  746MOL0     H 2897  10.621   2.835  12.025 -0.1399 -2.2481 -1.5426
  746MOL0     H 2898  10.389   2.629  11.797 -0.3288  1.4237 -1.6542
  746MOL0     H 2899  10.565   2.639  11.821  0.1094  1.1974 -3.8872
  746MOL0     H 2900  10.369   2.860  11.737 -1.9647 -2.6617 -0.9979
  746MOL0     H 2901  10.532   2.899  11.786  1.8999  0.1941 -2.4873
  746MOL0     H 2902  10.475   2.691  11.551  1.0390 -0.0335 -1.5809
  746MOL0     H 2903  10.512   2.864  11.544 -2.2633 -1.6688 -1.2096
  746MOL0     H 2904  10.673   2.628  11.630 -0.8120  0.7003  2.8848
  746MOL0     H 2905  10.680   2.721  11.472 -0.2469  3.8460 -0.7180
  746MOL0     H 2906  10.884   2.569  11.573  0.8902  0.0306 -1.7714
  746MOL0     H 2907  11.122   2.499  11.381 -1.6406  3.3263 -0.4559
  746MOL0     H 2908  11.015   2.433  11.512 -0.6528  0.3765 -0.0971
  746MOL0     H 2909  11.175   2.445  11.545 -0.5678  0.8674  0.0621
  746MOL0     H 2910  11.575   2.714  11.636  0.4975  2.0300  1.1774
  746MOL0     H 2911  11.814   2.671  11.567  0.9008 -0.7408 -1.6667
  746MOL0     H 2912  12.000   2.790  11.538 -0.8517  1.0607 -1.2437
  746MOL0     H 2913  12.061   2.647  11.439 -0.3377 -0.0679 -0.9725
  746MOL0     H 2914  12.234   2.817  11.493  0.0837  1.7255  0.3072
  746MOL0     H 2915  12.216   2.792  11.317  2.9514 -2.2195  2.4487
  746MOL0     H 2916  12.104   3.028  11.479  1.6466  2.4003 -1.4786
  746MOL0     H 2917  12.073   2.996  11.303 -2.4991  0.5172  1.0463
  746MOL0     H 2918  12.317   3.008  11.281 -1.8831 -1.1799  0.7286
  746MOL0     H 2919  12.342   3.029  11.459 -0.1016  1.1989  0.9202
  746MOL0     H 2920  12.205   3.232  11.280 -0.5874 -0.3649 -0.1229
  746MOL0     H 2921  12.240   3.255  11.448  1.7398  4.6042 -1.7459
  746MOL0     H 2922  12.459   3.171  11.249 -0.4264  1.8232 -2.3555
  746MOL0     H 2923  12.486   3.226  11.414  0.2494  2.1818  0.4328
  746MOL0     H 2924  12.342   3.393  11.198 -0.7703  0.5008  0.1405
  746MOL0     H 2925  12.524   3.374  11.214  1.8937  1.7554  2.6423
  746MOL0     H 2926  12.538   3.500  11.385  0.6089 -2.3363  1.0957
  746MOL0     H 2927  12.382   3.464  11.457  1.7754  0.9682 -0.0315
  746MOL0     H 2928  11.744   2.913  11.226  0.9804 -2.5416 -0.8901
  746MOL0     H 2929  11.505   2.970  11.305  0.0860 -0.4240 -1.0165
  746MOL0     H 2930  11.192   2.948  11.629 -0.5578  0.3630 -0.6128
  746MOL0     H 2931  10.962   2.972  11.694 -0.1038 -0.3152 -1.7917
  746MOL0     H 2932  10.536   3.572  11.750 -1.1161 -1.8524  1.6356
  746MOL0     H 2933  10.487   3.590  11.517  0.2654  2.5545  1.0312
  746MOL0     H 2934  10.170   3.353  11.266  0.1080  3.0025  2.1331
  746MOL0     H 2935  10.192   3.211  11.080  1.1797 -0.2212 -0.5738
  746MOL0     H 2936  10.176   3.327  10.681  0.0294  0.5060  0.1441
  746MOL0     H 2937  10.316   3.419  10.693 -5.1795  2.5174 -0.5639
  746MOL0     H 2938  10.275   3.132  10.601 -2.0647 -0.1565  5.0774
  746MOL0     H 2939  10.440   3.172  10.654 -1.2174  0.3875  1.2868
  746MOL0     H 2940  10.396   3.184  10.412  1.7422 -0.6842  1.5242
  746MOL0     H 2941  10.317   3.338  10.439  0.2116 -1.8922  0.1940
  746MOL0     H 2942  10.543   3.328  10.368 -2.5425 -1.6549  0.0801
  746MOL0     H 2943  10.605   3.253  10.506  1.3066  1.1491  0.2266
  746MOL0     H 2944  10.616   3.657  10.597  0.7405  0.1478 -1.1282
  746MOL0     H 2945  10.388   3.507  10.858  0.0246  0.7828  0.8180
  746MOL0     H 2946  10.424   3.730  10.925  2.4611  1.3875  1.2301
  746MOL0     H 2947  10.323   3.784  11.052 -1.5686 -1.3387 -1.6917
  746MOL0     H 2948  10.494   3.721  11.078 -0.5985  2.7514  1.0720
  747MOL0     O 2949  10.990   9.290   1.072  0.0022  0.7115  0.1093
  747MOL0     C 2950  11.053   9.183   1.070 -0.1460 -0.5261  0.2160
  747MOL0     O 2951  11.153   9.155   0.982 -0.1529  0.4509  0.2212
  747MOL0     C 2952  11.156   9.224   0.864  0.5234 -0.5097  0.5414
  747MOL0     C 2953  11.083   9.191   0.750  0.5343 -0.0303 -0.0264
  747MOL0     C 2954  11.075   9.277   0.646  0.2884 -0.1223 -0.3537
  747MOL0     C 2955  11.160   9.395   0.643  0.0963 -0.0806 -0.2827
  747MOL0     O 2956  11.155   9.471   0.523 -0.5644  0.2745 -0.4728
  747MOL0     C 2957  11.268   9.560   0.504  0.3482  0.2808  0.6731
  747MOL0     C 2958  11.286   9.625   0.358 -0.2721 -0.6803  0.0532
  747MOL0     C 2959  11.399   9.561   0.280 -0.0654 -0.9632  0.1857
  747MOL0     C 2960  11.427   9.631   0.147  0.4079 -0.3226  0.4999
  747MOL0     C 2961  11.523   9.551   0.055  0.2250  0.0030 -0.7867
  747MOL0     C 2962  11.464   9.423  -0.003  0.3045 -0.1146 -0.2689
  747MOL0     C 2963  11.557   9.332  -0.071  0.6732 -0.5772  0.2646
  747MOL0     C 2964  11.588   9.373  -0.219 -0.6583  0.3644 -0.3818
  747MOL0     N 2965  11.734   9.355  -0.251 -0.2539  0.0657  1.1375
  747MOL0     C 2966  11.805   9.442  -0.340 -0.7119  0.3363  0.4291
  747MOL0     C 2967  11.925   9.387  -0.361 -0.0621 -0.1622 -0.6387
  747MOL0     C 2968  12.028   9.436  -0.449  0.2641  0.7080  0.1479
  747MOL0     C 2969  12.111   9.548  -0.393 -0.2842 -0.3881  0.7035
  747MOL0     C 2970  12.183   9.525  -0.261  0.3477 -1.1449  0.6230
  747MOL0     C 2971  12.295   9.634  -0.243 -0.5285 -0.0133 -0.0905
  747MOL0     O 2972  12.398   9.635  -0.347 -0.3313  0.1124  0.2560
  747MOL0     C 2973  12.485   9.737  -0.383 -0.6172  0.9791  0.6316
  747MOL0     C 2974  12.503   9.839  -0.286  0.2151 -0.4356  0.6387
  747MOL0     C 2975  12.598   9.941  -0.308  0.7679 -0.3476  0.2160
  747MOL0     C 2976  12.613  10.034  -0.187  0.4433  0.9671  0.0847
  747MOL0     C 2977  12.684   9.946  -0.424 -0.1888  0.2658  0.6035
  747MOL0     C 2978  12.760  10.060  -0.468 -0.8088  0.5041  0.0950
  747MOL0     O 2979  12.815  10.047  -0.583  0.0181 -0.2115  0.9376
  747MOL0     C 2980  12.831  10.152  -0.663 -0.8370 -0.8296  0.4599
  747MOL0     C 2981  12.754  10.268  -0.655 -0.5535 -0.3366  0.0609
  747MOL0     C 2982  12.776  10.371  -0.749 -0.7290 -0.0151  0.6584
  747MOL0     C 2983  12.867  10.368  -0.855 -0.3652 -0.0180  0.6179
  747MOL0     O 2984  12.896  10.460  -0.953 -0.2782 -0.4974  0.6697
  747MOL0     C 2985  12.861  10.597  -0.944 -0.7540 -0.2925 -1.1690
  747MOL0     C 2986  12.950  10.648  -1.051  1.2139  0.8928  0.0206
  747MOL0     C 2987  12.896  10.597  -1.192 -0.0702  0.3592 -0.2928
  747MOL0     C 2988  12.945  10.712  -1.291 -0.0920 -0.3525 -0.0963
  747MOL0     C 2989  12.863  10.716  -1.428 -0.2218  1.3108 -0.5426
  747MOL0     C 2990  12.884  10.838  -1.513  0.6620 -0.0878 -0.4878
  747MOL0     C 2991  13.027  10.840  -1.569 -0.0436  0.5457  0.5976
  747MOL0     C 2992  13.080  10.985  -1.580  0.5696  1.0337  0.2304
  747MOL0    Cl 2993  13.136  11.017  -1.422 -0.2789  0.0814 -0.1623
  747MOL0     C 2994  12.947  10.251  -0.851 -0.5997 -0.1987 -0.5591
  747MOL0     C 2995  12.929  10.147  -0.764 -0.5434  0.0194 -1.2769
  747MOL0     O 2996  12.781  10.149  -0.388 -0.2414 -0.1568  0.3686
  747MOL0     C 2997  12.673   9.830  -0.506  0.4795 -0.0612 -0.0883
  747MOL0     C 2998  12.579   9.735  -0.493 -0.0647 -0.8593  0.4494
  747MOL0     N 2999  11.931   9.275  -0.277  0.0851  0.0829  0.6756
  747MOL0     N 3000  11.811   9.247  -0.226  0.2967  0.3735 -0.6281
  747MOL0     C 3001  11.244   9.419   0.749 -0.6355  0.0229  0.5166
  747MOL0     C 3002  11.238   9.335   0.860  0.3795 -0.3762  0.0123
  747MOL0     C 3003  11.027   9.076   1.161 -0.4582 -0.7514  0.3225
  747MOL0     C 3004  11.041   8.944   1.107  0.3312 -0.4201 -0.0709
  747MOL0     C 3005  11.029   8.836   1.188  0.0432 -0.1317  0.4090
  747MOL0     C 3006  10.987   8.849   1.325  0.3751  0.4181 -0.3771
  747MOL0     O 3007  10.969   8.739   1.403  0.1559  0.3087 -0.2525
  747MOL0     C 3008  10.902   8.738   1.535 -0.0465 -0.5223 -0.1897
  747MOL0     C 3009  10.996   8.764   1.649  0.1666 -0.0073 -0.9509
  747MOL0     C 3010  10.911   8.782   1.782  0.2141 -0.5066  1.4084
  747MOL0     C 3011  10.984   8.890   1.864  0.0784 -0.3255 -0.1696
  747MOL0     C 3012  10.946   8.900   2.004  0.1705  0.2544  0.2103
  747MOL0     C 3013  10.907   8.896   2.120  0.2495  0.1266 -0.1688
  747MOL0     C 3014  10.980   8.983   1.379 -0.5726  0.4867 -0.7714
  747MOL0     C 3015  11.005   9.094   1.298 -0.3298  0.0990 -0.6662
  747MOL0     C 3016  10.997   9.222   1.369 -0.0055  0.3787  0.6536
  747MOL0     H 3017  11.026   9.099   0.747  0.1394  0.2206 -0.3883
  747MOL0     H 3018  10.997   9.285   0.572  0.1396 -0.5094 -0.2400
  747MOL0     H 3019  11.361   9.506   0.522  0.8717  0.5087 -1.1959
  747MOL0     H 3020  11.274   9.645   0.573 -0.5166  0.3740  0.6511
  747MOL0     H 3021  11.192   9.632   0.303 -0.5427  2.5230  0.6774
  747MOL0     H 3022  11.308   9.732   0.365 -0.5509 -0.3984 -2.3754
  747MOL0     H 3023  11.483   9.576   0.349 -1.6664 -1.3059  2.3206
  747MOL0     H 3024  11.377   9.455   0.267  1.4245 -1.0566 -2.0169
  747MOL0     H 3025  11.327   9.657   0.112 -0.2287  1.2662  3.1639
  747MOL0     H 3026  11.473   9.729   0.166  2.4616 -1.4465  1.6964
  747MOL0     H 3027  11.622   9.540   0.100  1.2233 -0.5533 -2.9577
  747MOL0     H 3028  11.560   9.614  -0.026  1.1150  2.0831  1.1494
  747MOL0     H 3029  11.420   9.361   0.075 -1.2207  2.3484  0.9561
  747MOL0     H 3030  11.378   9.446  -0.067  0.5530 -0.6426 -0.8026
  747MOL0     H 3031  11.521   9.228  -0.072 -0.4129 -0.4252  4.6286
  747MOL0     H 3032  11.642   9.324  -0.003  1.8364  2.3789 -0.6992
  747MOL0     H 3033  11.534   9.312  -0.293  2.3319 -0.8205 -1.7455
  747MOL0     H 3034  11.559   9.477  -0.234 -0.9419  0.5723  1.4153
  747MOL0     H 3035  11.774   9.529  -0.398  0.2387  0.1816 -0.3281
  747MOL0     H 3036  11.971   9.477  -0.533 -2.2735  0.2055  1.5294
  747MOL0     H 3037  12.095   9.354  -0.477 -1.9375 -0.8054 -0.8976
  747MOL0     H 3038  12.179   9.568  -0.476 -1.6529  1.9307  0.0607
  747MOL0     H 3039  12.046   9.636  -0.392 -1.0884 -0.9709  1.3851
  747MOL0     H 3040  12.116   9.529  -0.174 -0.0017 -2.1994  0.4250
  747MOL0     H 3041  12.223   9.425  -0.284 -0.6458 -0.9512 -2.3890
  747MOL0     H 3042  12.229   9.721  -0.251  0.4316  0.6007 -2.6141
  747MOL0     H 3043  12.338   9.639  -0.142 -1.8076  1.2514  0.4241
  747MOL0     H 3044  12.444   9.837  -0.194  1.2660 -0.3853  1.3286
  747MOL0     H 3045  12.626  10.141  -0.208  1.3831  0.6022 -1.2758
  747MOL0     H 3046  12.700  10.009  -0.125  0.3895  0.7085  0.0553
  747MOL0     H 3047  12.527  10.013  -0.122  0.8921 -0.3484  0.2762
  747MOL0     H 3048  12.670  10.283  -0.587 -1.3964  6.0217 -1.7187
  747MOL0     H 3049  12.698  10.446  -0.758 -1.7374 -0.9111  1.6064
  747MOL0     H 3050  12.754  10.612  -0.962 -0.1302  2.5938 -3.1659
  747MOL0     H 3051  12.880  10.637  -0.844  0.8730 -0.9459 -1.1954
  747MOL0     H 3052  12.955  10.757  -1.051  0.4660  0.9382 -0.6150
  747MOL0     H 3053  13.049  10.605  -1.035  0.6425 -1.6920 -2.5614
  747MOL0     H 3054  12.788  10.591  -1.177  0.0131  1.0006  0.6136
  747MOL0     H 3055  12.925  10.496  -1.224  2.4081  1.1800 -0.8365
  747MOL0     H 3056  13.053  10.733  -1.292  0.0574 -0.3294  3.4486
  747MOL0     H 3057  12.919  10.807  -1.244  2.0847 -0.3157  1.2232
  747MOL0     H 3058  12.892  10.631  -1.492 -2.6634 -0.8440  0.9978
  747MOL0     H 3059  12.759  10.691  -1.405  0.0883 -1.9777 -2.0768
  747MOL0     H 3060  12.848  10.925  -1.458  0.3310 -0.5331  0.0188
  747MOL0     H 3061  12.813  10.837  -1.596 -0.2835 -3.5251  0.1852
  747MOL0     H 3062  13.037  10.783  -1.661 -0.0882 -0.7169  1.3573
  747MOL0     H 3063  13.102  10.787  -1.510  1.1861  0.0234 -1.3593
  747MOL0     H 3064  13.001  11.053  -1.613 -2.5477 -2.3091  0.1738
  747MOL0     H 3065  13.152  10.994  -1.662 -0.9682  2.3202 -1.0461
  747MOL0     H 3066  13.022  10.236  -0.929  1.1283 -3.0407  1.4481
  747MOL0     H 3067  13.002  10.067  -0.755 -1.5943 -0.6979  4.1563
  747MOL0     H 3068  12.741   9.819  -0.590  2.0428 -2.2345  1.3661
  747MOL0     H 3069  12.572   9.650  -0.560  0.1596  0.4136 -1.2248
  747MOL0     H 3070  11.321   9.496   0.748 -1.8847  1.4222 -3.2954
  747MOL0     H 3071  11.312   9.340   0.940  1.0233 -1.5320 -0.4884
  747MOL0     H 3072  11.071   8.925   1.005  1.7855  2.0769 -0.1960
  747MOL0     H 3073  11.042   8.734   1.153  0.7512 -0.2428  0.9503
  747MOL0     H 3074  10.811   8.800   1.535 -0.1317 -0.6141 -1.7298
  747MOL0     H 3075  10.864   8.636   1.541  2.7749 -1.6338  0.1748
  747MOL0     H 3076  11.058   8.852   1.634  0.6946  0.5432  3.1225
  747MOL0     H 3077  11.060   8.677   1.666  2.1820  1.1738 -2.1619
  747MOL0     H 3078  10.809   8.816   1.767 -0.1625 -2.2749 -0.3722
  747MOL0     H 3079  10.895   8.686   1.833 -3.2899 -2.1396 -2.2334
  747MOL0     H 3080  10.987   8.982   1.805  3.5099 -0.8237 -0.9786
  747MOL0     H 3081  11.088   8.856   1.869  1.0552  2.0868 -2.2291
  747MOL0     H 3082  10.879   8.872   2.220  2.2219 -1.9281 -0.0237
  747MOL0     H 3083  10.946   8.993   1.482 -1.3409 -1.6695 -0.7622
  747MOL0     H 3084  10.964   9.308   1.310 -0.1092  0.1835  0.4270
  747MOL0     H 3085  10.925   9.219   1.452  1.8423  0.4564  2.3360
  747MOL0     H 3086  11.097   9.255   1.398  0.7483 -0.3644 -1.0113
  748MOL0     O 3087   8.049   5.842   1.304  0.0852 -0.6429 -0.9527
  748MOL0     C 3088   8.045   5.965   1.318  0.0503  0.7152 -0.0039
  748MOL0     O 3089   7.927   6.032   1.307 -0.2160 -0.4875  0.1339
  748MOL0     C 3090   7.819   5.971   1.251 -1.2745 -0.4586 -0.3081
  748MOL0     C 3091   7.809   5.954   1.107  0.7187 -0.5101 -0.5366
  748MOL0     C 3092   7.722   5.858   1.045  1.0200  0.1750 -0.6432
  748MOL0     C 3093   7.631   5.793   1.125  0.2263  0.6670  0.1431
  748MOL0     O 3094   7.536   5.709   1.080  0.1353  0.4268  0.1901
  748MOL0     C 3095   7.516   5.590   1.152  0.2647 -0.0211  0.6350
  748MOL0     C 3096   7.601   5.481   1.085  0.5243 -0.0187  0.7045
  748MOL0     C 3097   7.584   5.454   0.943  0.5371  0.4616  0.1715
  748MOL0     C 3098   7.717   5.437   0.879 -0.1863 -0.7397 -0.7544
  748MOL0     C 3099   7.699   5.389   0.732 -0.3925  0.2383  0.1741
  748MOL0     C 3100   7.833   5.373   0.662 -0.5346 -0.5649  0.4783
  748MOL0     C 3101   7.820   5.316   0.520  0.3510  1.7694  0.6548
  748MOL0     C 3102   7.958   5.320   0.455  0.0191  1.0178 -0.0786
  748MOL0     N 3103   8.003   5.459   0.426  0.5804  0.7374  0.0268
  748MOL0     C 3104   7.946   5.565   0.349 -0.2010  0.0798 -0.4979
  748MOL0     C 3105   8.012   5.676   0.405  0.5583  0.9520  0.4939
  748MOL0     C 3106   7.996   5.817   0.376 -0.1357 -1.1993 -0.2679
  748MOL0     C 3107   7.919   5.884   0.485  0.6356  0.4945 -0.1117
  748MOL0     C 3108   7.928   6.031   0.521 -0.3966  0.0502 -1.0085
  748MOL0     C 3109   7.847   6.070   0.643  0.0616  0.6494 -1.0199
  748MOL0     O 3110   7.712   6.080   0.594  0.6757 -0.0716  0.7987
  748MOL0     C 3111   7.609   6.112   0.683  0.4007  0.9627  0.3734
  748MOL0     C 3112   7.497   6.164   0.619  0.0493 -0.4158  0.0092
  748MOL0     C 3113   7.384   6.211   0.688  0.5743 -0.0243  0.9436
  748MOL0     C 3114   7.272   6.241   0.600  0.1610  0.7632 -0.1065
  748MOL0     C 3115   7.384   6.200   0.826  0.3261 -0.7027  1.0479
  748MOL0     C 3116   7.271   6.239   0.910 -0.1495 -0.4009  0.2805
  748MOL0     O 3117   7.165   6.296   0.852 -0.1121 -0.1972  0.2394
  748MOL0     C 3118   7.068   6.347   0.930 -0.2705 -0.3447  0.7008
  748MOL0     C 3119   7.061   6.480   0.944  0.1263 -0.0533  0.6388
  748MOL0     C 3120   6.953   6.536   1.021  0.6001 -0.1568  0.1223
  748MOL0     C 3121   6.867   6.443   1.080 -0.4105  0.3914 -0.0709
  748MOL0     O 3122   6.745   6.477   1.121 -0.5072 -0.0341 -0.1789
  748MOL0     C 3123   6.709   6.606   1.163  0.6085  0.0348  0.1532
  748MOL0     C 3124   6.632   6.607   1.290  0.1429  0.2215 -0.2100
  748MOL0     C 3125   6.558   6.484   1.314 -0.4621 -0.0052 -0.0555
  748MOL0     C 3126   6.491   6.499   1.454 -0.0053 -0.2734 -0.8939
  748MOL0     C 3127   6.341   6.494   1.436  0.6510 -0.0983 -0.3548
  748MOL0     C 3128   6.267   6.534   1.561 -0.0527  0.4278  0.6660
  748MOL0     C 3129   6.118   6.559   1.523 -0.9220  0.2560  0.3454
  748MOL0     C 3130   6.055   6.691   1.557  0.5288  0.3623 -0.6754
  748MOL0    Cl 3131   6.146   6.821   1.466  0.0630  0.4873 -0.2419
  748MOL0     C 3132   6.885   6.299   1.073 -0.1467 -0.0219  0.0341
  748MOL0     C 3133   6.990   6.256   0.990 -0.0224 -0.3557 -0.6255
  748MOL0     O 3134   7.290   6.213   1.029  0.4148  0.2902  0.0853
  748MOL0     C 3135   7.503   6.156   0.884  0.0726 -0.1355 -0.4175
  748MOL0     C 3136   7.614   6.107   0.817  0.1655 -0.1672 -0.5934
  748MOL0     N 3137   8.097   5.638   0.496  0.8500 -1.0760  0.2790
  748MOL0     N 3138   8.092   5.513   0.513  0.8818 -0.4764 -0.0151
  748MOL0     C 3139   7.632   5.821   1.264  0.0599 -0.4162 -0.6588
  748MOL0     C 3140   7.726   5.894   1.326 -0.2448 -0.4868 -0.6017
  748MOL0     C 3141   8.178   6.034   1.324  0.3414  0.1415  0.0149
  748MOL0     C 3142   8.276   6.009   1.224  0.1691 -0.4551  0.4554
  748MOL0     C 3143   8.388   6.091   1.226 -0.1672 -0.0414  0.0666
  748MOL0     C 3144   8.404   6.194   1.320  0.0252 -0.4658 -0.3686
  748MOL0     O 3145   8.515   6.270   1.314  0.0685  0.3848 -0.2594
  748MOL0     C 3146   8.493   6.406   1.296 -0.1383 -0.7861 -0.5950
  748MOL0     C 3147   8.630   6.469   1.273  0.0404 -0.0493  1.1936
  748MOL0     C 3148   8.744   6.425   1.373 -0.9669  0.0678  0.2013
  748MOL0     C 3149   8.720   6.431   1.521  0.5095  0.1197  0.5943
  748MOL0     C 3150   8.711   6.573   1.555  0.2097  0.2229 -0.6461
  748MOL0     C 3151   8.707   6.687   1.601  0.5912  0.4369 -0.7142
  748MOL0     C 3152   8.303   6.215   1.414  0.5665 -0.9384  0.2982
  748MOL0     C 3153   8.192   6.130   1.424 -0.4152  0.0628 -0.3301
  748MOL0     C 3154   8.092   6.145   1.537 -1.1124 -0.4029 -0.2374
  748MOL0     H 3155   7.876   6.008   1.041 -0.4649  0.1372 -1.2204
  748MOL0     H 3156   7.722   5.833   0.940 -2.5855 -1.0705 -0.4776
  748MOL0     H 3157   7.411   5.565   1.136 -0.5309  3.3001  0.0825
  748MOL0     H 3158   7.527   5.594   1.261  4.7888 -3.9422  0.6886
  748MOL0     H 3159   7.706   5.503   1.104  0.1967  2.2720  0.1481
  748MOL0     H 3160   7.577   5.383   1.127  0.6691 -2.6326 -4.4722
  748MOL0     H 3161   7.530   5.359   0.933 -0.7601  0.8834  2.5397
  748MOL0     H 3162   7.527   5.527   0.884 -2.6790 -2.3042 -0.5117
  748MOL0     H 3163   7.770   5.532   0.886 -0.3595 -0.7606  1.4920
  748MOL0     H 3164   7.771   5.355   0.927 -0.6669 -0.5816  0.0738
  748MOL0     H 3165   7.642   5.468   0.683 -1.2077  1.5352  2.9875
  748MOL0     H 3166   7.650   5.293   0.717  3.4903 -1.8925 -0.1486
  748MOL0     H 3167   7.878   5.471   0.647 -0.7267 -0.8420 -2.8326
  748MOL0     H 3168   7.897   5.303   0.717  1.1565  0.4223 -0.1599
  748MOL0     H 3169   7.749   5.377   0.464 -1.8313 -2.8807 -2.3547
  748MOL0     H 3170   7.789   5.211   0.526  1.6137  1.3523  0.2065
  748MOL0     H 3171   8.021   5.257   0.518 -0.9997 -0.8167 -0.8106
  748MOL0     H 3172   7.952   5.262   0.362  1.1877 -0.2991  0.6299
  748MOL0     H 3173   7.865   5.559   0.277 -0.4402 -0.7139 -0.1696
  748MOL0     H 3174   7.945   5.827   0.280 -0.7415 -3.0627 -0.1737
  748MOL0     H 3175   8.094   5.863   0.361  0.1879 -1.6273  0.5271
  748MOL0     H 3176   7.816   5.865   0.452  1.0282 -1.0093 -0.5682
  748MOL0     H 3177   7.944   5.829   0.576  3.5618 -1.3312 -1.8840
  748MOL0     H 3178   8.030   6.047   0.557 -0.5460  3.6815 -1.7946
  748MOL0     H 3179   7.927   6.101   0.437 -0.0958  1.1803 -0.0978
  748MOL0     H 3180   7.860   5.984   0.710  1.1282  0.4785 -1.4219
  748MOL0     H 3181   7.880   6.163   0.689 -1.8431  0.3903  1.0188
  748MOL0     H 3182   7.496   6.162   0.511 -2.6210  2.9772 -0.1602
  748MOL0     H 3183   7.304   6.240   0.496 -0.0616 -0.7854 -0.1906
  748MOL0     H 3184   7.240   6.342   0.625 -1.4371  1.5637 -4.5599
  748MOL0     H 3185   7.189   6.172   0.621 -0.3879  1.5950  0.5250
  748MOL0     H 3186   7.120   6.552   0.887 -0.6337 -1.0503 -1.5215
  748MOL0     H 3187   6.938   6.643   1.030  1.2658 -0.1048  0.6371
  748MOL0     H 3188   6.788   6.677   1.186  2.8290 -2.3649  0.3935
  748MOL0     H 3189   6.639   6.645   1.089 -0.7136 -0.8330  0.8769
  748MOL0     H 3190   6.700   6.618   1.375 -2.6024 -1.0582  2.3318
  748MOL0     H 3191   6.571   6.697   1.301  2.4608  1.6636  1.8191
  748MOL0     H 3192   6.630   6.403   1.319  1.4658  1.3118 -3.4151
  748MOL0     H 3193   6.479   6.460   1.242 -0.3409 -2.2375  0.4806
  748MOL0     H 3194   6.521   6.589   1.507 -0.1421 -0.9990  0.4796
  748MOL0     H 3195   6.500   6.421   1.530  0.4378  2.3027  1.8481
  748MOL0     H 3196   6.307   6.563   1.358 -0.2573  0.0071  0.1316
  748MOL0     H 3197   6.309   6.391   1.416 -0.1979  0.4563 -2.0141
  748MOL0     H 3198   6.305   6.629   1.599  0.0665  1.8090 -2.6258
  748MOL0     H 3199   6.277   6.444   1.623  2.8910 -0.1311 -0.4390
  748MOL0     H 3200   6.047   6.483   1.555 -1.7335  0.0953 -1.6900
  748MOL0     H 3201   6.112   6.554   1.414 -1.3431 -0.5203  0.4023
  748MOL0     H 3202   6.066   6.707   1.665 -0.4619  3.8076 -0.9734
  748MOL0     H 3203   5.948   6.678   1.536 -0.1429  1.3899  1.6912
  748MOL0     H 3204   6.812   6.234   1.119 -1.6593  2.1073  0.7894
  748MOL0     H 3205   6.995   6.148   0.980 -0.8543 -0.4253 -0.3830
  748MOL0     H 3206   7.514   6.150   0.992  1.5797 -2.3543 -0.6173
  748MOL0     H 3207   7.697   6.062   0.871  1.2583  3.3104  0.9391
  748MOL0     H 3208   7.560   5.773   1.329  1.4214 -1.4863  0.1206
  748MOL0     H 3209   7.715   5.909   1.433  1.2400  2.7447 -0.7941
  748MOL0     H 3210   8.261   5.932   1.149 -1.3996 -0.8758  1.1677
  748MOL0     H 3211   8.460   6.086   1.145 -2.7588  5.9314 -3.2303
  748MOL0     H 3212   8.428   6.407   1.208 -4.8301 -3.2722  2.4191
  748MOL0     H 3213   8.430   6.443   1.377  0.3862  1.5325 -1.1590
  748MOL0     H 3214   8.633   6.578   1.283 -1.9434  0.2424 -0.6108
  748MOL0     H 3215   8.665   6.436   1.175 -0.4454  1.0574  0.6277
  748MOL0     H 3216   8.768   6.321   1.351 -0.2007  0.0256  1.1347
  748MOL0     H 3217   8.836   6.477   1.346 -0.9185 -0.7618 -1.3068
  748MOL0     H 3218   8.802   6.382   1.575  2.6329  0.0802 -2.4455
  748MOL0     H 3219   8.628   6.380   1.553 -0.3885  1.3549  0.0716
  748MOL0     H 3220   8.714   6.781   1.651 -0.3751 -1.1615  2.7690
  748MOL0     H 3221   8.314   6.306   1.473 -1.1180 -1.9748  2.3686
  748MOL0     H 3222   8.150   6.169   1.627  1.2055 -3.2438 -0.8306
  748MOL0     H 3223   8.012   6.217   1.519 -0.1671  1.1590  1.4637
  748MOL0     H 3224   8.045   6.051   1.564 -0.6302 -1.0226 -1.4921
  749MOL0     O 3225   2.246  11.620   4.368 -0.9777  0.4275 -0.7312
  749MOL0     C 3226   2.277  11.602   4.486  0.3952  0.7864 -0.3076
  749MOL0     O 3227   2.374  11.665   4.546  0.1112  0.4950  1.1351
  749MOL0     C 3228   2.453  11.757   4.487 -0.2835 -0.0239 -0.7018
  749MOL0     C 3229   2.529  11.837   4.563  0.3226 -0.7364 -0.9082
  749MOL0     C 3230   2.611  11.936   4.511  0.0703  0.2405  0.2955
  749MOL0     C 3231   2.625  11.957   4.371  0.7963 -0.8674  0.3142
  749MOL0     O 3232   2.682  12.060   4.302 -0.1128  0.6402 -0.0073
  749MOL0     C 3233   2.787  12.130   4.365 -0.7505 -0.8183 -0.0514
  749MOL0     C 3234   2.772  12.276   4.325  0.7355  0.0513 -0.6739
  749MOL0     C 3235   2.637  12.337   4.366  0.1837  0.0373 -0.5666
  749MOL0     C 3236   2.619  12.321   4.516 -0.5064  0.1324  0.5442
  749MOL0     C 3237   2.483  12.380   4.554  0.4008  0.4909 -0.0346
  749MOL0     C 3238   2.445  12.327   4.695  0.3465 -0.2957  0.0667
  749MOL0     C 3239   2.296  12.370   4.733  0.4450  0.3744 -0.7021
  749MOL0     C 3240   2.265  12.341   4.883  0.9805 -0.0554  0.7620
  749MOL0     N 3241   2.140  12.421   4.916  0.8294 -0.4174  0.3680
  749MOL0     C 3242   2.026  12.373   4.977  1.2305  0.7715 -0.4363
  749MOL0     C 3243   1.938  12.478   4.994  0.1472  0.4346  1.1697
  749MOL0     C 3244   1.797  12.476   5.048  0.1421 -0.6885  0.6615
  749MOL0     C 3245   1.697  12.485   4.929  0.0718 -0.0320 -0.3903
  749MOL0     C 3246   1.663  12.631   4.875 -0.8818 -0.0997  1.0836
  749MOL0     C 3247   1.529  12.627   4.790  1.0872  0.0980 -0.3744
  749MOL0     O 3248   1.409  12.596   4.870 -0.3628 -0.3669 -1.2165
  749MOL0     C 3249   1.286  12.609   4.812  0.0151  1.0355  0.3071
  749MOL0     C 3250   1.268  12.638   4.667  0.7603  0.7810 -0.3225
  749MOL0     C 3251   1.146  12.673   4.620  0.4853 -0.8250  0.7367
  749MOL0     C 3252   1.154  12.700   4.473 -0.6493 -0.5737  0.3859
  749MOL0     C 3253   1.034  12.683   4.702 -0.0873  0.6242  0.3344
  749MOL0     C 3254   0.900  12.738   4.671  0.1068 -0.3898  0.8980
  749MOL0     O 3255   0.823  12.770   4.788  0.4400 -0.0772  0.3795
  749MOL0     C 3256   0.707  12.832   4.778 -0.1620 -1.2330  0.2645
  749MOL0     C 3257   0.684  12.945   4.698 -0.3450 -0.5673  0.7010
  749MOL0     C 3258   0.556  13.005   4.700  0.3111  0.1416  0.3440
  749MOL0     C 3259   0.451  12.954   4.773  0.1698  0.4183 -0.6047
  749MOL0     O 3260   0.324  12.998   4.753 -0.2767 -0.6809  0.2510
  749MOL0     C 3261   0.208  12.964   4.837 -0.1721 -0.0655  0.3868
  749MOL0     C 3262   0.192  13.060   4.960  0.7957 -0.1599  0.3357
  749MOL0     C 3263   0.045  13.069   5.011 -0.7439 -0.2329  0.1905
  749MOL0     C 3264   0.040  13.166   5.136  0.0315  0.5666 -0.2472
  749MOL0     C 3265  -0.100  13.201   5.172  0.0245 -0.0458 -1.1287
  749MOL0     C 3266  -0.196  13.078   5.188  0.5035 -0.2875  0.2661
  749MOL0     C 3267  -0.350  13.111   5.206 -0.9504  0.5749  0.3502
  749MOL0     C 3268  -0.395  13.183   5.342 -0.4934  0.0073  0.5003
  749MOL0    Cl 3269  -0.348  13.073   5.470  0.1257  0.0376 -0.2542
  749MOL0     C 3270   0.480  12.851   4.859 -1.0044  0.6587  0.5585
  749MOL0     C 3271   0.605  12.790   4.864  0.5559  1.0659  0.3384
  749MOL0     O 3272   0.861  12.760   4.551  0.1222  0.2184 -0.3814
  749MOL0     C 3273   1.053  12.639   4.842  0.1909  0.2288 -0.0466
  749MOL0     C 3274   1.179  12.609   4.894 -0.1160  1.0751 -0.1313
  749MOL0     N 3275   2.004  12.590   4.948  0.2465  0.6369 -0.7764
  749MOL0     N 3276   2.126  12.557   4.916  1.1733 -0.8696  0.0915
  749MOL0     C 3277   2.582  11.846   4.297 -0.1594 -0.4055  0.4366
  749MOL0     C 3278   2.485  11.759   4.348  0.7674 -0.0126 -0.6227
  749MOL0     C 3279   2.201  11.504   4.563  0.0671  0.4897 -0.5127
  749MOL0     C 3280   2.268  11.433   4.661  0.4604  0.0720 -0.5265
  749MOL0     C 3281   2.194  11.336   4.743 -0.5035 -1.1552  0.1588
  749MOL0     C 3282   2.057  11.319   4.724  0.0118 -0.3326 -0.2150
  749MOL0     O 3283   1.963  11.240   4.792 -0.4522 -0.8323  0.2108
  749MOL0     C 3284   2.029  11.161   4.898 -1.1702  0.4365 -0.9021
  749MOL0     C 3285   1.931  11.070   4.970 -0.1643 -0.5720  0.2371
  749MOL0     C 3286   1.837  11.137   5.068  0.9124  0.3689  0.0275
  749MOL0     C 3287   1.747  11.256   5.013  0.2102  0.0287 -0.0195
  749MOL0     C 3288   1.664  11.302   5.124 -0.7638  0.1885 -0.7672
  749MOL0     C 3289   1.608  11.360   5.221 -0.5755  0.3291 -0.0687
  749MOL0     C 3290   2.001  11.379   4.614 -0.8037  0.1949  0.6812
  749MOL0     C 3291   2.067  11.479   4.537  0.0820  0.8633  1.0884
  749MOL0     C 3292   1.987  11.539   4.419 -0.0070 -0.4247 -0.1014
  749MOL0     H 3293   2.517  11.829   4.671 -1.4383  0.9548 -0.9089
  749MOL0     H 3294   2.654  12.008   4.580  0.8958 -0.8124  0.9055
  749MOL0     H 3295   2.890  12.114   4.331  1.6543  3.0917  4.2020
  749MOL0     H 3296   2.789  12.113   4.473 -1.0519 -2.1151 -0.2312
  749MOL0     H 3297   2.848  12.339   4.374  1.6085 -1.8825  0.5611
  749MOL0     H 3298   2.775  12.252   4.219  1.9887 -3.0530 -0.0391
  749MOL0     H 3299   2.644  12.443   4.343 -3.4165 -0.2763 -4.2121
  749MOL0     H 3300   2.557  12.280   4.318 -1.7730  0.5046  1.9279
  749MOL0     H 3301   2.616  12.214   4.539  0.2241  0.2303  1.1364
  749MOL0     H 3302   2.703  12.363   4.573 -0.3835 -1.3078  1.4881
  749MOL0     H 3303   2.409  12.335   4.487 -1.5414  3.1720  0.1496
  749MOL0     H 3304   2.484  12.489   4.539 -2.8288  0.8340  1.4624
  749MOL0     H 3305   2.458  12.219   4.687  0.4632 -0.1737 -1.8892
  749MOL0     H 3306   2.523  12.364   4.763 -0.5614  1.8159  0.0430
  749MOL0     H 3307   2.213  12.322   4.678  0.0984  0.9764 -0.7094
  749MOL0     H 3308   2.292  12.478   4.716 -1.4420  0.2167 -1.6135
  749MOL0     H 3309   2.249  12.237   4.914  1.2605 -0.6224 -0.8490
  749MOL0     H 3310   2.342  12.381   4.950  1.2209  0.0088  0.4504
  749MOL0     H 3311   2.012  12.275   5.021 -3.0293  0.5279 -1.8652
  749MOL0     H 3312   1.783  12.566   5.110 -1.1128  0.4629 -1.1845
  749MOL0     H 3313   1.778  12.387   5.108 -2.7570 -0.8851 -0.4093
  749MOL0     H 3314   1.753  12.443   4.845  1.0783  1.9557 -0.7705
  749MOL0     H 3315   1.600  12.437   4.946 -1.9035  2.6411 -2.8810
  749MOL0     H 3316   1.674  12.712   4.948 -4.0544  0.9154  0.5830
  749MOL0     H 3317   1.741  12.654   4.802 -0.1167 -0.0022  1.9153
  749MOL0     H 3318   1.528  12.718   4.729  1.4146  0.1073 -0.3680
  749MOL0     H 3319   1.541  12.544   4.719  2.8650 -0.8901  0.9769
  749MOL0     H 3320   1.348  12.627   4.595  0.7608 -1.4434 -0.0584
  749MOL0     H 3321   1.224  12.633   4.423 -2.2290 -0.9213 -1.4615
  749MOL0     H 3322   1.162  12.805   4.445 -4.8468  0.1082  0.9593
  749MOL0     H 3323   1.062  12.660   4.430 -1.5551  2.7209 -1.0367
  749MOL0     H 3324   0.764  12.982   4.635 -1.3459 -1.3809 -1.1223
  749MOL0     H 3325   0.541  13.096   4.643 -1.6462  1.8019  3.2741
  749MOL0     H 3326   0.122  12.988   4.773  0.3965  0.9931  0.0087
  749MOL0     H 3327   0.219  12.860   4.870  1.7436 -1.6674 -4.3744
  749MOL0     H 3328   0.259  13.024   5.039 -0.9548 -2.5628  0.8539
  749MOL0     H 3329   0.230  13.156   4.925  0.0605  0.4761  1.2305
  749MOL0     H 3330   0.010  12.971   5.044 -2.9268  0.2831 -0.3832
  749MOL0     H 3331  -0.021  13.088   4.925 -1.4505  2.5555  1.2379
  749MOL0     H 3332   0.090  13.260   5.108  1.0461  0.5493  1.3932
  749MOL0     H 3333   0.096  13.124   5.220 -2.4441  0.2523  1.3294
  749MOL0     H 3334  -0.091  13.248   5.270 -2.0601  0.0291 -0.9275
  749MOL0     H 3335  -0.147  13.262   5.094  0.2917 -1.0960 -2.1401
  749MOL0     H 3336  -0.152  12.998   5.249  0.8967  0.6138  1.1819
  749MOL0     H 3337  -0.207  13.034   5.088 -4.1648 -0.6606  0.7167
  749MOL0     H 3338  -0.394  13.011   5.198  3.1582 -1.5395  1.6658
  749MOL0     H 3339  -0.385  13.180   5.129  1.6027  1.6996  0.1112
  749MOL0     H 3340  -0.503  13.199   5.336 -0.4048  1.2944  1.8508
  749MOL0     H 3341  -0.349  13.283   5.344  2.2852 -1.0467 -2.2232
  749MOL0     H 3342   0.402  12.798   4.914  0.5493  1.8120  4.1244
  749MOL0     H 3343   0.626  12.704   4.927  1.9345  0.8018 -0.4317
  749MOL0     H 3344   0.972  12.629   4.914  0.2172 -0.4024 -0.1001
  749MOL0     H 3345   1.195  12.595   5.000  2.1651 -1.6918 -0.7171
  749MOL0     H 3346   2.606  11.847   4.191 -0.7212  2.7677  0.2536
  749MOL0     H 3347   2.439  11.696   4.273  1.9018 -1.8092  0.1273
  749MOL0     H 3348   2.372  11.446   4.689  0.3466 -3.2476  2.2541
  749MOL0     H 3349   2.242  11.290   4.828 -0.8679 -2.4613 -0.3212
  749MOL0     H 3350   2.122  11.112   4.867 -1.7576 -1.1284 -0.3166
  749MOL0     H 3351   2.062  11.227   4.978 -0.4450  0.6396 -1.3638
  749MOL0     H 3352   1.982  11.002   5.038  4.5725  2.1869 -0.1474
  749MOL0     H 3353   1.884  11.016   4.887 -1.3873  1.6187 -0.6065
  749MOL0     H 3354   1.774  11.060   5.116 -0.6249  1.0482 -0.8209
  749MOL0     H 3355   1.896  11.179   5.150 -1.0071 -0.8579  2.1688
  749MOL0     H 3356   1.676  11.231   4.934 -1.4553 -0.8552  1.6615
  749MOL0     H 3357   1.803  11.346   4.985 -2.9310  2.7591  1.6910
  749MOL0     H 3358   1.554  11.399   5.305 -2.8190 -2.3564 -0.1027
  749MOL0     H 3359   1.896  11.369   4.587 -0.3997  2.5310 -2.3016
  749MOL0     H 3360   1.979  11.647   4.430  2.6630 -0.2496  0.7914
  749MOL0     H 3361   2.023  11.511   4.319  0.5354  1.4677 -0.4683
  749MOL0     H 3362   1.885  11.502   4.432 -0.1481  0.4543  1.6004
  750MOL0     O 3363   2.319   0.516   5.134  0.1826  0.2858 -0.1036
  750MOL0     C 3364   2.302   0.460   5.243 -0.0960  1.3280 -0.1916
  750MOL0     O 3365   2.185   0.408   5.292 -0.2983 -0.0707  0.5143
  750MOL0     C 3366   2.071   0.419   5.215  1.0746  0.0230 -0.5417
  750MOL0     C 3367   1.967   0.473   5.291 -0.0651  0.3708  0.2614
  750MOL0     C 3368   1.836   0.478   5.240  0.2772  0.2734  0.1287
  750MOL0     C 3369   1.815   0.431   5.113 -1.1331 -0.2693  0.1447
  750MOL0     O 3370   1.689   0.414   5.063 -0.0621  0.6470  0.0230
  750MOL0     C 3371   1.577   0.464   5.124 -0.3821 -0.4666 -0.1208
  750MOL0     C 3372   1.452   0.435   5.034 -0.0177  0.2335  0.2400
  750MOL0     C 3373   1.449   0.536   4.903 -0.3513  0.1133 -0.2688
  750MOL0     C 3374   1.347   0.476   4.802 -0.0018  0.2983 -0.2099
  750MOL0     C 3375   1.377   0.525   4.659  0.5473  0.4523 -0.4979
  750MOL0     C 3376   1.391   0.678   4.630  0.7847  0.2099  0.0477
  750MOL0     C 3377   1.428   0.688   4.470 -0.1243 -0.0962  0.0082
  750MOL0     C 3378   1.585   0.685   4.444 -0.5403  0.1167  0.5634
  750MOL0     N 3379   1.611   0.695   4.293  0.1505 -0.1591 -0.1950
  750MOL0     C 3380   1.621   0.818   4.228 -0.0186  0.8540  1.0990
  750MOL0     C 3381   1.586   0.792   4.100  0.0076  0.5750 -0.4553
  750MOL0     C 3382   1.575   0.894   3.981 -0.2461  0.9661 -0.4283
  750MOL0     C 3383   1.433   0.954   3.966 -0.7094  0.4964  0.1785
  750MOL0     C 3384   1.418   1.056   4.084 -0.0343  0.3483  0.0055
  750MOL0     C 3385   1.275   1.123   4.090  0.1073 -0.4718 -0.4694
  750MOL0     O 3386   1.188   1.030   4.149 -0.7174  0.7547  0.2157
  750MOL0     C 3387   1.082   0.973   4.084 -0.2473 -0.8880 -0.5865
  750MOL0     C 3388   1.028   0.867   4.138  0.0281  1.5484 -0.8966
  750MOL0     C 3389   0.934   0.784   4.071  0.8170 -0.3366 -0.2054
  750MOL0     C 3390   0.892   0.657   4.139  0.7201  0.1254  0.0993
  750MOL0     C 3391   0.896   0.815   3.937 -0.7895 -0.8931  0.0106
  750MOL0     C 3392   0.809   0.739   3.847 -0.2466  0.0108  0.2393
  750MOL0     O 3393   0.777   0.798   3.728 -0.2776 -0.2570  0.4176
  750MOL0     C 3394   0.744   0.721   3.617 -0.3687 -0.2245 -0.1883
  750MOL0     C 3395   0.740   0.791   3.498  0.6704 -0.4727 -0.6035
  750MOL0     C 3396   0.705   0.739   3.373 -0.3928 -0.2011  0.2677
  750MOL0     C 3397   0.669   0.611   3.365  0.8814  1.6552 -0.0241
  750MOL0     O 3398   0.637   0.539   3.249 -0.1801  0.1607  0.5820
  750MOL0     C 3399   0.725   0.569   3.138 -0.0068  0.2345 -0.3968
  750MOL0     C 3400   0.664   0.514   3.016 -0.0191 -0.9257  0.0647
  750MOL0     C 3401   0.749   0.529   2.882  0.0621  0.3774 -0.4275
  750MOL0     C 3402   0.715   0.408   2.787 -0.6166 -0.3632  0.4641
  750MOL0     C 3403   0.800   0.389   2.652 -0.0228  0.4201 -0.3793
  750MOL0     C 3404   0.791   0.245   2.596 -0.1420  0.3351 -0.0851
  750MOL0     C 3405   0.654   0.192   2.592  0.2929  0.3102  0.0542
  750MOL0     C 3406   0.668   0.058   2.522 -0.6129  0.1878 -0.3442
  750MOL0    Cl 3407   0.505  -0.013   2.494  0.2678 -0.0084 -0.3099
  750MOL0     C 3408   0.670   0.533   3.485  0.4703 -1.2194 -0.7351
  750MOL0     C 3409   0.711   0.587   3.609 -0.4999  0.7153  0.5440
  750MOL0     O 3410   0.773   0.629   3.886 -0.2784 -0.2261  0.4853
  750MOL0     C 3411   0.942   0.943   3.894  0.8923 -0.4547 -0.0558
  750MOL0     C 3412   1.042   1.017   3.957  1.1365 -0.6571  0.1020
  750MOL0     N 3413   1.566   0.659   4.088  0.2905 -0.9122 -0.6708
  750MOL0     N 3414   1.570   0.595   4.203 -0.5779 -0.1234 -0.1830
  750MOL0     C 3415   1.922   0.396   5.033 -0.4682  0.6536  0.4628
  750MOL0     C 3416   2.053   0.396   5.078 -0.4082  0.0907 -0.1276
  750MOL0     C 3417   2.424   0.431   5.327 -0.7730 -0.3555  1.1490
  750MOL0     C 3418   2.552   0.437   5.274 -0.3274 -0.4764 -0.4468
  750MOL0     C 3419   2.668   0.412   5.341 -0.1794 -0.2786  0.2241
  750MOL0     C 3420   2.665   0.383   5.473 -0.4715 -1.0591 -0.6189
  750MOL0     O 3421   2.788   0.346   5.529 -0.2151  0.8841 -0.7172
  750MOL0     C 3422   2.792   0.290   5.666 -0.4671 -0.9696  0.5879
  750MOL0     C 3423   2.942   0.254   5.708 -0.8735  0.9505  0.6138
  750MOL0     C 3424   3.035   0.374   5.709 -0.2289  0.2741  0.7575
  750MOL0     C 3425   3.181   0.343   5.716  0.4791  0.3091  0.3749
  750MOL0     C 3426   3.264   0.469   5.715  0.2624 -0.4194  0.1515
  750MOL0     C 3427   3.324   0.570   5.698  0.0799  0.0389 -0.0720
  750MOL0     C 3428   2.545   0.394   5.532 -0.1065 -0.0663  1.0551
  750MOL0     C 3429   2.424   0.413   5.466  0.8779 -1.0354  0.5480
  750MOL0     C 3430   2.303   0.422   5.560 -1.0278 -0.4021  0.0866
  750MOL0     H 3431   1.989   0.507   5.391  0.3084 -0.6152  0.5280
  750MOL0     H 3432   1.748   0.504   5.296  0.7425 -0.6826  1.3434
  750MOL0     H 3433   1.593   0.567   5.157  1.8741 -1.3105  1.6877
  750MOL0     H 3434   1.553   0.408   5.216 -0.9228 -0.5898 -0.3331
  750MOL0     H 3435   1.465   0.336   4.990 -2.3652  1.3003 -3.3828
  750MOL0     H 3436   1.359   0.434   5.091 -0.9998 -1.2180 -1.2882
  750MOL0     H 3437   1.421   0.639   4.925 -0.3527  0.4504 -1.7241
  750MOL0     H 3438   1.549   0.541   4.860  0.3697  0.6430  1.3883
  750MOL0     H 3439   1.340   0.368   4.819  0.1995  0.5934  1.9814
  750MOL0     H 3440   1.247   0.508   4.833  0.7511  1.8919  0.6906
  750MOL0     H 3441   1.307   0.477   4.591  0.7097 -2.1981  1.0854
  750MOL0     H 3442   1.471   0.480   4.627  2.0310  3.2463 -0.3722
  750MOL0     H 3443   1.296   0.730   4.648 -0.3662 -1.8791  0.3876
  750MOL0     H 3444   1.471   0.711   4.696  0.8503 -1.1531  0.7057
  750MOL0     H 3445   1.380   0.784   4.449  0.7865  0.7576  1.5857
  750MOL0     H 3446   1.379   0.608   4.415  2.9722 -2.6455  0.6438
  750MOL0     H 3447   1.632   0.768   4.498 -0.4033  0.3687  0.0625
  750MOL0     H 3448   1.632   0.591   4.473 -2.9151 -1.6620 -1.0003
  750MOL0     H 3449   1.659   0.911   4.269  1.2723  0.3611  1.0644
  750MOL0     H 3450   1.593   0.842   3.887 -0.9577  1.8133 -1.0495
  750MOL0     H 3451   1.652   0.968   4.006  1.7871 -0.8391 -0.9766
  750MOL0     H 3452   1.428   0.994   3.865  1.0953 -1.8550 -0.9523
  750MOL0     H 3453   1.363   0.869   3.960  2.1599 -2.1823  1.5250
  750MOL0     H 3454   1.445   1.013   4.181 -0.3831  0.4420  0.1451
  750MOL0     H 3455   1.482   1.140   4.054 -0.5489  1.1427  1.0817
  750MOL0     H 3456   1.283   1.216   4.149  0.2152 -0.7513 -0.0336
  750MOL0     H 3457   1.234   1.162   3.997 -3.0558 -0.4991  0.7892
  750MOL0     H 3458   1.064   0.831   4.234 -0.4431  0.5434 -1.0835
  750MOL0     H 3459   0.930   0.640   4.240  2.0424 -1.5571 -0.6288
  750MOL0     H 3460   0.929   0.567   4.089 -2.7267  0.4905 -3.6736
  750MOL0     H 3461   0.782   0.654   4.146  0.4204  0.6141 -3.1588
  750MOL0     H 3462   0.758   0.898   3.503 -0.0393 -0.4107  2.3891
  750MOL0     H 3463   0.705   0.801   3.284 -1.7301 -0.6444 -0.0660
  750MOL0     H 3464   0.734   0.676   3.115  1.8698 -0.2410 -2.1597
  750MOL0     H 3465   0.824   0.524   3.153 -0.1796 -0.7099 -1.9344
  750MOL0     H 3466   0.622   0.414   3.033 -0.8594 -0.1383  3.4439
  750MOL0     H 3467   0.576   0.576   2.997 -0.1196 -1.4465 -1.3160
  750MOL0     H 3468   0.856   0.540   2.903  0.0194  0.2666 -0.1501
  750MOL0     H 3469   0.707   0.621   2.840  1.2400  2.0294  1.8210
  750MOL0     H 3470   0.613   0.433   2.756 -1.3148 -2.2243  1.1662
  750MOL0     H 3471   0.719   0.307   2.828  1.0272 -0.7997 -0.6482
  750MOL0     H 3472   0.761   0.463   2.583  1.7539 -0.8437 -2.8691
  750MOL0     H 3473   0.901   0.418   2.681 -1.2859  0.7737  4.6424
  750MOL0     H 3474   0.855   0.177   2.652  0.3747  0.2362 -0.7739
  750MOL0     H 3475   0.827   0.246   2.492 -2.5425 -2.4327 -1.0703
  750MOL0     H 3476   0.586   0.256   2.535 -1.7700  0.4767  2.5060
  750MOL0     H 3477   0.613   0.177   2.692 -1.1446  0.1668 -0.5395
  750MOL0     H 3478   0.717  -0.023   2.577 -0.5923  0.8996  0.7264
  750MOL0     H 3479   0.731   0.073   2.433  0.7953  1.8983  0.8751
  750MOL0     H 3480   0.648   0.427   3.473  0.6504 -1.5147  1.2047
  750MOL0     H 3481   0.715   0.515   3.690 -0.5606 -0.1622 -0.2181
  750MOL0     H 3482   0.918   0.983   3.797  1.7599  2.8247  0.9667
  750MOL0     H 3483   1.082   1.104   3.906  0.9048 -0.8255 -0.3732
  750MOL0     H 3484   1.903   0.369   4.930  0.5443 -2.7339  1.0628
  750MOL0     H 3485   2.142   0.369   5.022 -1.5334 -0.3258 -1.7549
  750MOL0     H 3486   2.560   0.450   5.166 -1.1774  2.6829 -0.2156
  750MOL0     H 3487   2.766   0.416   5.295  0.5403  1.1066  1.7594
  750MOL0     H 3488   2.758   0.366   5.736 -1.7127  0.2669 -1.2739
  750MOL0     H 3489   2.719   0.212   5.690  0.1005 -0.9443  2.5615
  750MOL0     H 3490   2.986   0.174   5.648  3.4348  1.6450  2.4499
  750MOL0     H 3491   2.939   0.224   5.813 -3.4706  2.4115  1.0397
  750MOL0     H 3492   3.026   0.433   5.618  2.3318  2.2382  1.6767
  750MOL0     H 3493   2.996   0.431   5.794  0.1669 -0.2341  1.2983
  750MOL0     H 3494   3.214   0.281   5.632 -0.0157  0.5193  0.0231
  750MOL0     H 3495   3.195   0.287   5.809 -1.4010 -1.3432 -0.2801
  750MOL0     H 3496   3.389   0.655   5.690  0.7244 -0.5450 -1.2837
  750MOL0     H 3497   2.542   0.371   5.638 -2.8216 -3.1820  0.4909
  750MOL0     H 3498   2.329   0.394   5.662 -1.9112  0.1007  0.4628
  750MOL0     H 3499   2.274   0.526   5.579  3.0248  0.5218  2.3880
  750MOL0     H 3500   2.218   0.364   5.524 -1.5727  0.3809  0.0858
  751MOL0     O 3501   1.686   8.196   8.533 -0.1862 -0.1050  0.4747
  751MOL0     C 3502   1.571   8.168   8.503 -0.1968  0.8780 -0.5508
  751MOL0     O 3503   1.486   8.142   8.602  0.1788 -0.2955 -0.3936
  751MOL0     C 3504   1.517   8.108   8.729  0.0180 -0.3201  0.6118
  751MOL0     C 3505   1.641   8.050   8.773 -0.5547  0.5914  1.4779
  751MOL0     C 3506   1.660   8.002   8.897 -0.2895 -0.2295  0.4892
  751MOL0     C 3507   1.559   8.020   8.996  0.2729  0.2786  0.7034
  751MOL0     O 3508   1.575   7.990   9.130  0.1767 -0.1518  0.0993
  751MOL0     C 3509   1.480   7.906   9.199  0.2318 -0.5591  0.4283
  751MOL0     C 3510   1.538   7.893   9.340 -0.6327  0.4590 -0.6912
  751MOL0     C 3511   1.477   7.779   9.422  0.7535 -0.3555  0.7856
  751MOL0     C 3512   1.529   7.808   9.567 -0.3967 -0.6410  0.0595
  751MOL0     C 3513   1.496   7.704   9.668  0.2324 -0.1434  0.4821
  751MOL0     C 3514   1.350   7.681   9.695 -0.2188  0.6577  0.3903
  751MOL0     C 3515   1.313   7.726   9.843  0.2180 -0.0082  1.0037
  751MOL0     C 3516   1.165   7.765   9.854 -0.0494 -0.2747  1.1317
  751MOL0     N 3517   1.126   7.766   9.994  0.7855 -0.3107 -0.5703
  751MOL0     C 3518   1.183   7.844  10.090 -0.8166  0.5186 -0.0580
  751MOL0     C 3519   1.126   7.802  10.206  0.3933  0.5508  0.8024
  751MOL0     C 3520   1.155   7.853  10.342  0.0477 -0.9499  0.3358
  751MOL0     C 3521   1.074   7.973  10.387  0.9393  0.2238 -0.9014
  751MOL0     C 3522   1.128   8.028  10.524  0.5832  0.1983  0.0649
  751MOL0     C 3523   1.022   8.094  10.615  0.1398  0.2446  0.3620
  751MOL0     O 3524   0.908   8.013  10.645  0.5748 -0.5190 -0.8910
  751MOL0     C 3525   0.921   7.892  10.712 -0.2774  0.4887  0.6910
  751MOL0     C 3526   0.897   7.882  10.849  0.1840 -0.7697 -0.7951
  751MOL0     C 3527   0.896   7.757  10.916 -0.0474 -0.1821  0.4745
  751MOL0     C 3528   0.872   7.778  11.062  0.4710  0.2404 -0.9560
  751MOL0     C 3529   0.893   7.640  10.843 -0.7067  0.7133  0.5614
  751MOL0     C 3530   0.875   7.510  10.899  0.5733  0.2973  0.1578
  751MOL0     O 3531   0.884   7.410  10.810  0.1066  0.0313  0.5246
  751MOL0     C 3532   0.843   7.282  10.851  1.2300  0.2129 -0.3313
  751MOL0     C 3533   0.930   7.176  10.828 -0.2011  1.5440 -0.3089
  751MOL0     C 3534   0.885   7.048  10.867  0.1954  1.1882 -0.4761
  751MOL0     C 3535   0.766   7.022  10.936  1.3390 -0.7476  0.3944
  751MOL0     O 3536   0.733   6.888  10.955  0.7289 -0.1334 -0.0696
  751MOL0     C 3537   0.769   6.786  10.856 -0.1204 -0.3445 -0.0188
  751MOL0     C 3538   0.667   6.667  10.861 -0.6065  0.1431 -0.5662
  751MOL0     C 3539   0.685   6.583  10.994 -0.5710  0.5957  0.5051
  751MOL0     C 3540   0.695   6.432  10.974 -0.6899  0.6481  0.4119
  751MOL0     C 3541   0.709   6.343  11.096 -1.3159 -0.0014 -0.1510
  751MOL0     C 3542   0.720   6.194  11.076  0.1244  0.2416 -0.9564
  751MOL0     C 3543   0.734   6.124  11.216 -0.3179 -0.3768  0.2366
  751MOL0     C 3544   0.609   6.057  11.267 -0.0037 -0.6095  0.9100
  751MOL0    Cl 3545   0.566   5.905  11.181 -0.0976  0.4151 -0.1196
  751MOL0     C 3546   0.681   7.133  10.959 -0.5081  0.0417 -0.2896
  751MOL0     C 3547   0.719   7.264  10.913 -1.1311  0.4784  0.4576
  751MOL0     O 3548   0.847   7.496  11.018 -0.1918  0.0977 -0.8073
  751MOL0     C 3549   0.886   7.645  10.701 -0.9956  0.3853 -0.2382
  751MOL0     C 3550   0.904   7.774  10.633  0.6377 -0.2266  0.5258
  751MOL0     N 3551   1.052   7.687  10.178 -0.5203  0.2507 -0.5787
  751MOL0     N 3552   1.049   7.670  10.048 -0.0220 -0.0865 -0.1516
  751MOL0     C 3553   1.439   8.067   8.944  0.2310 -0.0946  0.1385
  751MOL0     C 3554   1.416   8.113   8.819  0.7473 -0.2881  0.1121
  751MOL0     C 3555   1.522   8.181   8.359 -1.1732 -0.2635  0.8988
  751MOL0     C 3556   1.388   8.207   8.346  0.3090  0.5224 -0.7070
  751MOL0     C 3557   1.330   8.249   8.228  0.4196  0.5064 -0.7172
  751MOL0     C 3558   1.407   8.255   8.110 -0.4238 -1.1402  0.3441
  751MOL0     O 3559   1.362   8.316   7.997 -0.0922 -0.0957 -0.0482
  751MOL0     C 3560   1.262   8.257   7.919  1.0227 -0.5643  0.2269
  751MOL0     C 3561   1.343   8.157   7.848  0.0766  0.8940  0.3089
  751MOL0     C 3562   1.258   8.065   7.762  0.5446 -0.5288  0.5098
  751MOL0     C 3563   1.219   8.133   7.634 -0.7059 -0.0324  0.4632
  751MOL0     C 3564   1.156   8.032   7.544  0.1119 -0.4553 -0.1958
  751MOL0     C 3565   1.105   7.965   7.456 -0.4902 -0.0760 -0.1436
  751MOL0     C 3566   1.546   8.233   8.122  0.2607  0.2167 -0.1526
  751MOL0     C 3567   1.605   8.193   8.245 -0.2307 -0.8276 -0.9677
  751MOL0     C 3568   1.748   8.171   8.244 -0.8729  0.3868 -0.7440
  751MOL0     H 3569   1.721   8.030   8.703 -0.2742  1.7580  1.4345
  751MOL0     H 3570   1.749   7.944   8.920 -1.4614 -2.4830 -0.3345
  751MOL0     H 3571   1.469   7.810   9.149 -1.7598  1.0727 -2.5672
  751MOL0     H 3572   1.378   7.944   9.214  0.2162 -0.7029  0.6989
  751MOL0     H 3573   1.646   7.879   9.340 -0.5461  0.9845  0.7551
  751MOL0     H 3574   1.521   7.987   9.393  0.2932 -0.8375  2.0937
  751MOL0     H 3575   1.368   7.776   9.422  0.7380 -1.1329  2.7184
  751MOL0     H 3576   1.500   7.678   9.386  1.2731 -0.1717  0.5818
  751MOL0     H 3577   1.637   7.823   9.562 -0.6670  1.2465 -2.8471
  751MOL0     H 3578   1.488   7.904   9.602  1.4656  0.4682 -0.6640
  751MOL0     H 3579   1.539   7.724   9.767 -3.5906 -0.9393  2.5270
  751MOL0     H 3580   1.544   7.613   9.630 -0.0465 -0.3914  0.7213
  751MOL0     H 3581   1.288   7.733   9.621 -1.6940 -0.3369  0.8771
  751MOL0     H 3582   1.344   7.572   9.694  1.1882  0.5380  1.6959
  751MOL0     H 3583   1.374   7.813   9.867 -0.6372  1.1257 -0.7274
  751MOL0     H 3584   1.351   7.647   9.909  2.0376  0.5355  0.6688
  751MOL0     H 3585   1.156   7.868   9.820 -2.6277 -0.8241 -0.1765
  751MOL0     H 3586   1.095   7.723   9.781 -1.9218  2.0041  1.4960
  751MOL0     H 3587   1.247   7.929  10.067 -0.3543  0.0809 -0.4096
  751MOL0     H 3588   1.262   7.876  10.349  0.2721 -1.9784  0.4761
  751MOL0     H 3589   1.133   7.773  10.414 -1.4487 -0.9516 -0.0960
  751MOL0     H 3590   1.064   8.053  10.314  0.3098  1.0768  0.0832
  751MOL0     H 3591   0.973   7.937  10.411 -0.4259  4.4373  0.5532
  751MOL0     H 3592   1.162   7.938  10.575  0.5731  0.5827  0.7627
  751MOL0     H 3593   1.194   8.114  10.510  0.8222 -0.1976 -1.4236
  751MOL0     H 3594   1.070   8.122  10.709 -1.5689 -0.8776  1.6314
  751MOL0     H 3595   0.972   8.185  10.579  0.4956  0.4053  0.2783
  751MOL0     H 3596   0.905   7.980  10.894  2.8095 -0.8431 -0.9229
  751MOL0     H 3597   0.948   7.722  11.118 -2.3477 -3.2435 -0.1888
  751MOL0     H 3598   0.772   7.738  11.085 -0.2086  0.4246 -3.3790
  751MOL0     H 3599   0.879   7.886  11.073 -1.2350  0.4238 -1.4063
  751MOL0     H 3600   1.030   7.178  10.785  0.2288 -1.2767  0.3729
  751MOL0     H 3601   0.955   6.974  10.830  0.8745  2.5185 -1.9617
  751MOL0     H 3602   0.769   6.814  10.750  0.2794 -5.2438 -1.5888
  751MOL0     H 3603   0.874   6.762  10.875  0.8566  2.9868 -0.6674
  751MOL0     H 3604   0.560   6.685  10.845 -1.2928 -1.5122  1.6631
  751MOL0     H 3605   0.690   6.598  10.780  2.8874 -1.0310  1.2062
  751MOL0     H 3606   0.615   6.607  11.075 -0.7705 -1.9250  1.1391
  751MOL0     H 3607   0.783   6.609  11.036  0.5336 -2.3580 -0.0021
  751MOL0     H 3608   0.790   6.414  10.923 -0.9877  3.6178 -1.4620
  751MOL0     H 3609   0.617   6.406  10.901  1.2972  0.3701 -1.7332
  751MOL0     H 3610   0.791   6.385  11.156 -1.3713  1.9299 -1.3278
  751MOL0     H 3611   0.612   6.354  11.145 -2.2083 -0.6385 -1.6946
  751MOL0     H 3612   0.802   6.164  11.010 -0.4876  0.4168 -1.8055
  751MOL0     H 3613   0.637   6.155  11.017  0.7949 -0.0458 -1.7284
  751MOL0     H 3614   0.764   6.203  11.285  1.9710 -0.9124 -0.0456
  751MOL0     H 3615   0.814   6.052  11.197 -1.3034 -1.6497  0.7510
  751MOL0     H 3616   0.529   6.128  11.247  1.4917  0.5273 -1.4919
  751MOL0     H 3617   0.619   6.039  11.374  0.4284 -0.1456  0.9521
  751MOL0     H 3618   0.587   7.122  11.013  1.4901  0.6111  3.6890
  751MOL0     H 3619   0.654   7.351  10.920 -0.2530  1.2992 -1.1156
  751MOL0     H 3620   0.876   7.562  10.632  1.2138  1.2190 -1.6784
  751MOL0     H 3621   0.890   7.779  10.525 -0.6981 -2.5704  0.5118
  751MOL0     H 3622   1.370   8.080   9.027  0.4864  2.1138  0.0683
  751MOL0     H 3623   1.326   8.170   8.798  2.1577  2.7134  1.4938
  751MOL0     H 3624   1.326   8.205   8.435  0.3928 -5.1968 -0.3570
  751MOL0     H 3625   1.225   8.272   8.220  0.0559 -0.7344  0.3181
  751MOL0     H 3626   1.183   8.208   7.978 -3.1589  2.3540 -2.4450
  751MOL0     H 3627   1.213   8.333   7.858  3.6248  0.7160 -0.3999
  751MOL0     H 3628   1.392   8.106   7.931 -0.5862  0.0457  0.2003
  751MOL0     H 3629   1.411   8.220   7.790  0.9740  1.8212  2.2874
  751MOL0     H 3630   1.322   7.980   7.735 -0.9550 -0.6012 -3.5870
  751MOL0     H 3631   1.169   8.031   7.817  0.9517 -0.2115  1.3727
  751MOL0     H 3632   1.309   8.165   7.580 -2.4818  0.2908 -2.5743
  751MOL0     H 3633   1.157   8.221   7.653 -0.2019  0.6279 -0.7895
  751MOL0     H 3634   1.072   7.922   7.363 -1.2375  0.3260 -0.0715
  751MOL0     H 3635   1.608   8.241   8.033  0.4029 -1.9485 -0.2953
  751MOL0     H 3636   1.805   8.264   8.252 -1.2269  0.6896 -1.6096
  751MOL0     H 3637   1.774   8.114   8.334 -1.0122  0.5946 -0.5738
  751MOL0     H 3638   1.770   8.115   8.152  1.2456 -0.8889  0.4445
  752MOL0     O 3639  11.332   1.417   9.624  0.1504  0.2325  0.3897
  752MOL0     C 3640  11.407   1.341   9.683 -0.2188 -0.2401  0.0805
  752MOL0     O 3641  11.379   1.264   9.794 -0.1828 -0.3488  0.6040
  752MOL0     C 3642  11.254   1.257   9.843  0.2896 -0.2919  0.4698
  752MOL0     C 3643  11.185   1.374   9.886 -0.1476 -0.7337  0.2699
  752MOL0     C 3644  11.064   1.363   9.949  0.9308  0.5066 -0.4993
  752MOL0     C 3645  11.006   1.242   9.961 -0.4211  0.7012  0.1092
  752MOL0     O 3646  10.879   1.253  10.010 -0.2854 -0.2218 -0.5341
  752MOL0     C 3647  10.807   1.130  10.017  0.3227 -0.7203  0.0016
  752MOL0     C 3648  10.676   1.156  10.088  0.3618 -0.0113 -0.6327
  752MOL0     C 3649  10.589   1.254  10.003  0.8691 -0.8445 -0.5331
  752MOL0     C 3650  10.491   1.183   9.924  0.1973  0.4555 -0.6542
  752MOL0     C 3651  10.424   1.270   9.804  0.2101  0.5193 -0.0751
  752MOL0     C 3652  10.472   1.202   9.676 -0.0992  0.2878  0.0515
  752MOL0     C 3653  10.421   1.280   9.556  0.9528 -0.2680 -0.8414
  752MOL0     C 3654  10.488   1.240   9.429  0.1407  0.2835  0.2347
  752MOL0     N 3655  10.453   1.331   9.314 -1.2400 -0.0748 -0.4977
  752MOL0     C 3656  10.551   1.422   9.268  0.8691  0.1877  0.6417
  752MOL0     C 3657  10.488   1.512   9.192 -0.2809 -0.0649 -0.2054
  752MOL0     C 3658  10.563   1.604   9.104  0.7976  0.2445 -0.4757
  752MOL0     C 3659  10.485   1.737   9.077  0.3681  0.4326 -0.9162
  752MOL0     C 3660  10.541   1.812   8.949  0.3528 -0.3574  0.2526
  752MOL0     C 3661  10.451   1.791   8.825  0.2522  0.5945 -0.3493
  752MOL0     O 3662  10.449   1.652   8.796 -0.3964 -0.3342 -0.2621
  752MOL0     C 3663  10.455   1.635   8.657 -1.1312 -0.1597 -0.5240
  752MOL0     C 3664  10.354   1.688   8.577  0.6685 -0.1636  0.4797
  752MOL0     C 3665  10.336   1.662   8.441 -0.0255 -0.5455 -0.6543
  752MOL0     C 3666  10.228   1.739   8.363  0.0739  0.6347 -0.6051
  752MOL0     C 3667  10.444   1.593   8.382  0.7980  0.3041  0.1387
  752MOL0     C 3668  10.450   1.561   8.233  0.4166  0.3146 -0.3743
  752MOL0     O 3669  10.514   1.442   8.197  0.2670  0.5464 -0.6412
  752MOL0     C 3670  10.536   1.406   8.069 -0.3280  0.0349  0.9162
  752MOL0     C 3671  10.653   1.323   8.036  0.4651  0.4891  0.0651
  752MOL0     C 3672  10.669   1.274   7.906  0.2351  0.2669 -0.3125
  752MOL0     C 3673  10.591   1.330   7.799 -0.5761  0.0835 -0.5875
  752MOL0     O 3674  10.630   1.277   7.677 -0.1181  0.5110 -0.3586
  752MOL0     C 3675  10.579   1.333   7.559  0.9511 -0.0090 -0.1215
  752MOL0     C 3676  10.619   1.248   7.432 -0.4078 -0.5306  0.8802
  752MOL0     C 3677  10.561   1.106   7.441 -0.2064 -0.2669 -0.7995
  752MOL0     C 3678  10.554   1.039   7.307 -0.6363 -0.2945  0.8393
  752MOL0     C 3679  10.488   0.906   7.307 -0.1804  0.4066  0.5772
  752MOL0     C 3680  10.429   0.892   7.162 -0.4486  0.1666  0.9269
  752MOL0     C 3681  10.339   0.766   7.169 -0.4019 -0.6270 -0.5328
  752MOL0     C 3682  10.283   0.734   7.032  1.4062  0.0435  0.2139
  752MOL0    Cl 3683  10.171   0.872   6.969  0.0227 -0.0710 -0.0478
  752MOL0     C 3684  10.486   1.417   7.828 -0.9594  0.8734 -0.3863
  752MOL0     C 3685  10.446   1.441   7.959  0.4178  0.1731  0.1214
  752MOL0     O 3686  10.408   1.643   8.152  0.3567  0.4524 -0.1621
  752MOL0     C 3687  10.546   1.529   8.464  0.4711 -1.1378  1.0851
  752MOL0     C 3688  10.544   1.545   8.602 -0.0686  0.5479 -0.3011
  752MOL0     N 3689  10.357   1.494   9.211  0.3625 -0.4026  0.5087
  752MOL0     N 3690  10.330   1.385   9.282  0.4449 -0.3135 -0.0380
  752MOL0     C 3691  11.069   1.120   9.909 -0.1602 -0.3321 -0.4237
  752MOL0     C 3692  11.196   1.132   9.858  0.8401  0.0050  0.3483
  752MOL0     C 3693  11.545   1.327   9.630 -0.7166 -0.5636 -0.8498
  752MOL0     C 3694  11.613   1.207   9.654  0.5301  0.1348 -0.0986
  752MOL0     C 3695  11.726   1.174   9.594  0.6365 -0.7023  0.2291
  752MOL0     C 3696  11.799   1.268   9.524 -0.3705 -0.4459  0.1399
  752MOL0     O 3697  11.918   1.224   9.460 -0.6285  0.1931 -0.2716
  752MOL0     C 3698  12.007   1.162   9.557  0.5422  0.1801  0.3779
  752MOL0     C 3699  12.153   1.179   9.516 -0.3265  0.5935 -0.5813
  752MOL0     C 3700  12.201   1.144   9.377 -0.3465 -0.6426 -0.0654
  752MOL0     C 3701  12.242   1.000   9.371  0.1616 -0.1558  0.1285
  752MOL0     C 3702  12.198   0.939   9.245  0.0969 -0.3302 -1.0332
  752MOL0     C 3703  12.160   0.873   9.152  0.7572  1.1094  0.4806
  752MOL0     C 3704  11.741   1.389   9.490  0.6291 -1.2771 -0.6225
  752MOL0     C 3705  11.610   1.419   9.543  0.5166  0.0556 -1.2069
  752MOL0     C 3706  11.562   1.561   9.514  0.5815 -0.6744 -0.5626
  752MOL0     H 3707  11.237   1.469   9.875 -2.3824  1.1053  3.7737
  752MOL0     H 3708  11.014   1.451   9.990  1.7666  0.5639  0.4467
  752MOL0     H 3709  10.857   1.062  10.086  0.3515 -1.4081 -0.6834
  752MOL0     H 3710  10.782   1.095   9.916  1.3975 -1.5638  0.0089
  752MOL0     H 3711  10.624   1.062  10.109  1.8019 -0.3518  1.7592
  752MOL0     H 3712  10.697   1.204  10.184  0.0360  0.3632 -0.7481
  752MOL0     H 3713  10.533   1.322  10.068 -2.0284 -3.1728 -0.3854
  752MOL0     H 3714  10.653   1.321   9.944 -0.5436 -1.8220 -3.3770
  752MOL0     H 3715  10.531   1.088   9.885 -3.6840 -1.9684  0.6934
  752MOL0     H 3716  10.412   1.160   9.995  0.4553 -1.0614 -0.8177
  752MOL0     H 3717  10.460   1.373   9.794  0.7251  0.4306  0.7336
  752MOL0     H 3718  10.315   1.269   9.809 -0.0635  2.4787 -3.0110
  752MOL0     H 3719  10.581   1.210   9.683 -0.1927  1.4537  0.3899
  752MOL0     H 3720  10.442   1.097   9.668  0.3397 -0.1475  3.0559
  752MOL0     H 3721  10.420   1.388   9.572 -3.0101 -0.3811  0.6548
  752MOL0     H 3722  10.315   1.258   9.547  1.0438 -0.3083 -2.0040
  752MOL0     H 3723  10.596   1.240   9.447 -0.3547  0.5855  4.1204
  752MOL0     H 3724  10.434   1.147   9.407 -1.6582  0.8342  1.9874
  752MOL0     H 3725  10.659   1.413   9.262  0.9474 -0.0882  2.1978
  752MOL0     H 3726  10.589   1.555   9.010 -0.8291  1.0770 -1.4075
  752MOL0     H 3727  10.651   1.634   9.162  1.0029 -2.6118  0.8370
  752MOL0     H 3728  10.377   1.724   9.062  0.0666  3.5304 -2.3772
  752MOL0     H 3729  10.498   1.799   9.166  0.5968 -1.2253  0.2263
  752MOL0     H 3730  10.554   1.915   8.983 -0.0685  0.3790 -1.7077
  752MOL0     H 3731  10.646   1.781   8.944  0.4402  0.0891 -1.0339
  752MOL0     H 3732  10.353   1.833   8.850 -0.3829  0.0817 -1.8560
  752MOL0     H 3733  10.491   1.848   8.741  0.6798  0.4585 -0.2388
  752MOL0     H 3734  10.278   1.753   8.622  1.6519  1.4700 -0.1363
  752MOL0     H 3735  10.179   1.807   8.433  2.7365  1.7240  0.3199
  752MOL0     H 3736  10.154   1.670   8.321 -0.6947 -0.2337  2.0155
  752MOL0     H 3737  10.269   1.791   8.276  1.8675 -1.7441 -1.2784
  752MOL0     H 3738  10.736   1.307   8.103 -1.0102 -2.0982  1.3956
  752MOL0     H 3739  10.748   1.207   7.874  0.9476  1.1445 -0.4406
  752MOL0     H 3740  10.471   1.335   7.568  0.8131 -0.1977 -1.4230
  752MOL0     H 3741  10.612   1.434   7.535 -3.9686  0.9384 -5.0293
  752MOL0     H 3742  10.562   1.303   7.357  1.7122 -0.6583 -0.9236
  752MOL0     H 3743  10.726   1.254   7.409 -0.4828 -0.9684  0.4044
  752MOL0     H 3744  10.460   1.122   7.480 -0.1194  3.3071 -1.7205
  752MOL0     H 3745  10.624   1.044   7.506 -1.9736 -1.1554  0.1858
  752MOL0     H 3746  10.657   1.014   7.277  0.1167 -1.0276  3.7035
  752MOL0     H 3747  10.511   1.108   7.233 -1.6209 -1.8690 -0.1280
  752MOL0     H 3748  10.559   0.828   7.336  0.8006  1.5257  1.2433
  752MOL0     H 3749  10.404   0.902   7.377  1.3128  2.4648  2.6132
  752MOL0     H 3750  10.508   0.881   7.087  0.3419 -0.3050  1.8088
  752MOL0     H 3751  10.361   0.975   7.139 -1.2692 -0.6265  0.4720
  752MOL0     H 3752  10.249   0.786   7.227 -0.0204 -0.8714  0.1527
  752MOL0     H 3753  10.392   0.680   7.210 -1.7906 -0.9115  0.7645
  752MOL0     H 3754  10.222   0.647   7.060 -1.5600  2.9094  3.5857
  752MOL0     H 3755  10.357   0.708   6.955  2.2342  2.7926 -0.0140
  752MOL0     H 3756  10.428   1.462   7.748  0.8043 -0.3736 -2.4921
  752MOL0     H 3757  10.354   1.497   7.975  0.6832  1.1993 -1.6708
  752MOL0     H 3758  10.625   1.482   8.406  0.3145 -1.7684  1.3691
  752MOL0     H 3759  10.626   1.495   8.654  1.1577  1.2526 -1.4742
  752MOL0     H 3760  11.036   1.018   9.926  2.2144 -0.8655  1.4923
  752MOL0     H 3761  11.258   1.043   9.849  2.1523  1.0657 -2.8448
  752MOL0     H 3762  11.564   1.122   9.701  1.2295 -0.5813 -0.6221
  752MOL0     H 3763  11.770   1.075   9.602  3.3923  0.5284  1.6936
  752MOL0     H 3764  12.014   1.210   9.655  2.3483 -1.5185  1.1330
  752MOL0     H 3765  11.981   1.058   9.575 -0.6452  0.6872  1.7930
  752MOL0     H 3766  12.198   1.127   9.601 -4.0123  1.1691  1.9633
  752MOL0     H 3767  12.193   1.279   9.531  0.5241  0.6594 -2.8937
  752MOL0     H 3768  12.124   1.161   9.301 -0.4800  0.7384  0.3399
  752MOL0     H 3769  12.285   1.199   9.334 -1.3974 -1.1781 -3.0530
  752MOL0     H 3770  12.212   0.938   9.456  0.8384 -1.0322 -0.2549
  752MOL0     H 3771  12.352   0.996   9.372  0.1238 -1.6037  0.2317
  752MOL0     H 3772  12.118   0.816   9.071 -1.9325  1.4933  1.4899
  752MOL0     H 3773  11.788   1.465   9.427 -4.6635 -0.7194 -4.6749
  752MOL0     H 3774  11.457   1.569   9.484 -0.6161  2.4819  3.6317
  752MOL0     H 3775  11.579   1.617   9.606  0.8766  0.3100 -1.2002
  752MOL0     H 3776  11.618   1.608   9.432  1.5245 -0.7296  0.0266
  753MOL0     O 3777   9.021   8.314   8.932  0.7015 -0.2556  0.0987
  753MOL0     C 3778   8.977   8.390   8.842 -0.2162  0.1608 -0.0776
  753MOL0     O 3779   9.031   8.411   8.721  0.0089 -0.3769  0.2908
  753MOL0     C 3780   9.163   8.370   8.702  0.7150  0.3404  0.2653
  753MOL0     C 3781   9.267   8.452   8.728 -0.1252  0.5043  0.1369
  753MOL0     C 3782   9.396   8.413   8.686  0.5413 -0.0301  0.1601
  753MOL0     C 3783   9.418   8.289   8.632  0.1848 -0.6441  0.0162
  753MOL0     O 3784   9.529   8.239   8.578 -0.9385 -0.3374  0.3832
  753MOL0     C 3785   9.648   8.293   8.642  0.1096  0.4394  0.0896
  753MOL0     C 3786   9.776   8.243   8.580  0.5666 -0.1898  0.6828
  753MOL0     C 3787   9.907   8.318   8.602 -0.6671 -1.3977 -0.7683
  753MOL0     C 3788   9.926   8.377   8.734 -0.2832 -0.7739 -0.4749
  753MOL0     C 3789  10.049   8.465   8.734 -1.0864 -0.1107 -0.1389
  753MOL0     C 3790  10.087   8.510   8.879  0.5942  0.0658 -0.8004
  753MOL0     C 3791  10.228   8.568   8.898 -0.1573  0.7296  0.2702
  753MOL0     C 3792  10.347   8.464   8.876  0.0615 -1.1369 -1.2097
  753MOL0     N 3793  10.475   8.528   8.924  0.6236 -0.4060  0.2222
  753MOL0     C 3794  10.500   8.569   9.053 -0.7922  0.0386 -0.0816
  753MOL0     C 3795  10.618   8.635   9.031  0.0419  0.0405 -0.0053
  753MOL0     C 3796  10.705   8.687   9.136  1.2030 -0.7454  1.0283
  753MOL0     C 3797  10.730   8.832   9.111 -0.4006 -0.3237  0.7110
  753MOL0     C 3798  10.860   8.882   9.163 -0.3095 -1.1157 -0.5240
  753MOL0     C 3799  10.875   8.870   9.314 -0.4555  0.1241  0.0924
  753MOL0     O 3800  10.764   8.841   9.401  0.5313 -1.0629 -1.2112
  753MOL0     C 3801  10.765   8.746   9.505 -0.1478 -0.6635  0.4342
  753MOL0     C 3802  10.651   8.700   9.566  1.0349  0.5814 -0.3527
  753MOL0     C 3803  10.649   8.604   9.667 -0.9283 -0.2303  0.4077
  753MOL0     C 3804  10.514   8.570   9.724  0.8113 -0.0818  0.4247
  753MOL0     C 3805  10.776   8.550   9.707 -0.7469  0.3890 -0.7703
  753MOL0     C 3806  10.786   8.435   9.794 -0.0288 -0.7486 -0.3911
  753MOL0     O 3807  10.671   8.413   9.858  0.2557  0.0278  0.4992
  753MOL0     C 3808  10.676   8.310   9.949  0.0773  0.1101 -0.7274
  753MOL0     C 3809  10.767   8.307  10.062 -0.1353  0.9097 -1.1992
  753MOL0     C 3810  10.766   8.190  10.146  0.2460  0.4716  0.0683
  753MOL0     C 3811  10.654   8.102  10.143 -0.8792 -0.1828 -0.7220
  753MOL0     O 3812  10.634   8.002  10.229  0.9139  1.2428  0.3095
  753MOL0     C 3813  10.699   8.024  10.355  0.7701  0.1383 -0.9533
  753MOL0     C 3814  10.640   7.920  10.456 -0.0431  0.1995 -1.1730
  753MOL0     C 3815  10.722   7.781  10.466 -0.4717  0.8915 -0.6402
  753MOL0     C 3816  10.733   7.726  10.320  0.1086  0.3753  0.5995
  753MOL0     C 3817  10.769   7.580  10.328 -1.0059 -0.2745  1.1682
  753MOL0     C 3818  10.818   7.509  10.186  0.0583 -0.0716 -0.3254
  753MOL0     C 3819  10.701   7.476  10.089  0.2244  0.0247 -0.6556
  753MOL0     C 3820  10.665   7.592  10.008  0.3037 -0.2397 -0.2418
  753MOL0    Cl 3821  10.492   7.584   9.958  0.1010 -0.1051  0.3907
  753MOL0     C 3822  10.560   8.121  10.040 -0.0365  0.0720 -0.7922
  753MOL0     C 3823  10.575   8.221   9.953 -0.0145  0.0336  1.4541
  753MOL0     O 3824  10.893   8.377   9.805  0.2286 -0.1591  0.1604
  753MOL0     C 3825  10.893   8.605   9.643 -0.2001  0.4955 -0.4023
  753MOL0     C 3826  10.887   8.711   9.559 -0.0854  0.1257  1.1895
  753MOL0     N 3827  10.646   8.644   8.891 -0.7922 -0.1514 -0.1991
  753MOL0     N 3828  10.567   8.570   8.825 -0.1881  0.3187 -1.0922
  753MOL0     C 3829   9.315   8.196   8.629  0.0104 -0.1856  0.5855
  753MOL0     C 3830   9.180   8.242   8.660 -0.0251  0.7716  0.6295
  753MOL0     C 3831   8.839   8.453   8.857  0.5540  1.1172  1.0718
  753MOL0     C 3832   8.788   8.519   8.747 -0.4565  0.5151 -1.4093
  753MOL0     C 3833   8.669   8.591   8.758  0.6126 -0.1665 -0.0304
  753MOL0     C 3834   8.604   8.603   8.881  0.7936  0.3894 -0.3470
  753MOL0     O 3835   8.497   8.682   8.909  0.0349 -0.5338 -0.1280
  753MOL0     C 3836   8.377   8.653   8.837 -0.3164 -0.1686 -0.5983
  753MOL0     C 3837   8.275   8.766   8.884 -1.3672 -0.8318  0.2462
  753MOL0     C 3838   8.251   8.782   9.028 -0.0734 -0.7535  0.3319
  753MOL0     C 3839   8.180   8.648   9.083 -0.2207 -0.5228 -0.2043
  753MOL0     C 3840   8.214   8.651   9.221  0.4313 -0.0579  1.0140
  753MOL0     C 3841   8.247   8.656   9.337 -0.7602 -0.2075  0.9440
  753MOL0     C 3842   8.663   8.543   8.992 -0.9312  0.2991 -0.5927
  753MOL0     C 3843   8.772   8.470   8.986 -0.3978 -0.1023  0.7375
  753MOL0     C 3844   8.834   8.426   9.115  0.8901 -0.0541 -1.1067
  753MOL0     H 3845   9.251   8.554   8.761  0.4600  0.7892 -0.4344
  753MOL0     H 3846   9.472   8.491   8.691 -0.8549  1.7174 -3.0639
  753MOL0     H 3847   9.642   8.258   8.745 -0.1111 -2.6369 -0.8690
  753MOL0     H 3848   9.657   8.401   8.626  0.8280  0.3780  0.0336
  753MOL0     H 3849   9.790   8.137   8.602 -3.4705 -0.8864  0.6258
  753MOL0     H 3850   9.764   8.252   8.472 -2.6869  2.8698  1.1106
  753MOL0     H 3851   9.996   8.261   8.574  1.2461  1.9585 -2.1061
  753MOL0     H 3852   9.911   8.409   8.541 -4.3744 -1.7029 -1.7484
  753MOL0     H 3853   9.850   8.452   8.757  1.3607  1.0252 -0.6699
  753MOL0     H 3854   9.920   8.297   8.809 -0.0585 -0.8299 -0.5158
  753MOL0     H 3855  10.029   8.559   8.681 -2.1148  0.4253  1.1418
  753MOL0     H 3856  10.126   8.414   8.675 -0.0913 -0.4913  1.4258
  753MOL0     H 3857  10.010   8.578   8.915 -2.3334 -3.3446 -0.0447
  753MOL0     H 3858  10.070   8.420   8.939 -2.3013  0.7283 -0.5037
  753MOL0     H 3859  10.220   8.609   9.000 -2.3224 -0.8169  0.8009
  753MOL0     H 3860  10.254   8.648   8.828  0.5866 -2.1020 -2.9237
  753MOL0     H 3861  10.331   8.372   8.932  0.6603 -0.5391 -0.0104
  753MOL0     H 3862  10.355   8.449   8.768 -3.1071 -1.2063 -1.5285
  753MOL0     H 3863  10.437   8.553   9.140 -0.2739 -1.7339  0.0175
  753MOL0     H 3864  10.796   8.627   9.145  0.7607 -1.1344  3.7874
  753MOL0     H 3865  10.654   8.689   9.233  1.0931  1.8923  1.0040
  753MOL0     H 3866  10.724   8.836   9.002 -3.4511 -3.0482  0.6000
  753MOL0     H 3867  10.651   8.896   9.152  0.1220 -0.8721  2.7081
  753MOL0     H 3868  10.941   8.826   9.115  0.0599  1.0244 -2.6379
  753MOL0     H 3869  10.876   8.987   9.136  1.4419 -1.3794 -0.6328
  753MOL0     H 3870  10.952   8.794   9.325 -3.0051 -2.5063  0.9436
  753MOL0     H 3871  10.927   8.952   9.365 -0.6650  0.3412 -0.0401
  753MOL0     H 3872  10.554   8.723   9.522 -0.4459 -5.6124 -1.2299
  753MOL0     H 3873  10.506   8.561   9.833  0.3836 -2.7278  0.2448
  753MOL0     H 3874  10.488   8.472   9.685 -0.9994  0.4067  0.3197
  753MOL0     H 3875  10.431   8.633   9.691  1.3231  0.3382 -0.0800
  753MOL0     H 3876  10.845   8.382  10.071 -1.9852  2.9568 -1.5729
  753MOL0     H 3877  10.842   8.189  10.224  0.7091 -2.8592 -0.2870
  753MOL0     H 3878  10.808   8.027  10.340  0.6307 -0.3638 -2.1848
  753MOL0     H 3879  10.672   8.121  10.396  4.5289  2.6433 -3.6710
  753MOL0     H 3880  10.639   7.960  10.558 -0.4484  0.0246 -1.1042
  753MOL0     H 3881  10.536   7.904  10.424 -1.4987  4.2261  0.7953
  753MOL0     H 3882  10.680   7.706  10.533 -0.7122  0.5375 -1.1791
  753MOL0     H 3883  10.823   7.799  10.501  0.3692 -1.1442 -1.8423
  753MOL0     H 3884  10.809   7.786  10.268 -0.3097  0.8291  0.5029
  753MOL0     H 3885  10.637   7.744  10.269 -0.2909 -1.1930  0.7404
  753MOL0     H 3886  10.856   7.578  10.396  0.0405  4.0119  0.2149
  753MOL0     H 3887  10.689   7.516  10.367 -3.6513  0.0660 -3.1767
  753MOL0     H 3888  10.869   7.415  10.211 -1.2241 -0.7708 -0.2243
  753MOL0     H 3889  10.882   7.572  10.125  0.7319 -0.6255 -0.2034
  753MOL0     H 3890  10.620   7.446  10.156  1.5294 -2.5154 -0.1108
  753MOL0     H 3891  10.723   7.390  10.026 -1.3460  0.7414 -2.2916
  753MOL0     H 3892  10.726   7.603   9.918 -2.6151  0.9856 -2.2569
  753MOL0     H 3893  10.681   7.686  10.062 -3.6247 -0.6337  1.9853
  753MOL0     H 3894  10.481   8.047  10.034 -1.1918  1.3474 -2.9886
  753MOL0     H 3895  10.516   8.241   9.864  0.7679  2.9837  1.4803
  753MOL0     H 3896  10.989   8.564   9.673 -0.2446  1.9386  1.9393
  753MOL0     H 3897  10.984   8.751   9.530  0.3636  1.0226  3.6815
  753MOL0     H 3898   9.343   8.101   8.584  2.1850  1.5087 -1.9039
  753MOL0     H 3899   9.101   8.169   8.657 -1.2696  2.0850  0.3175
  753MOL0     H 3900   8.841   8.535   8.653 -1.6911 -0.9170 -2.4081
  753MOL0     H 3901   8.629   8.648   8.675 -0.0108  0.2169  0.5297
  753MOL0     H 3902   8.394   8.666   8.730  0.7031  0.9561 -0.3144
  753MOL0     H 3903   8.339   8.553   8.859  0.6152 -0.1857  1.1553
  753MOL0     H 3904   8.176   8.745   8.843 -3.6735  4.6517  2.0888
  753MOL0     H 3905   8.308   8.859   8.836 -2.1158 -2.0042 -2.8121
  753MOL0     H 3906   8.347   8.799   9.076 -1.6990  1.6179  3.0517
  753MOL0     H 3907   8.186   8.866   9.053 -1.3307 -0.8939 -2.1124
  753MOL0     H 3908   8.227   8.556   9.047  2.1912 -0.1132  1.6144
  753MOL0     H 3909   8.072   8.638   9.073 -0.1812 -0.9883 -0.1719
  753MOL0     H 3910   8.277   8.667   9.439 -0.5656  3.8277  0.6230
  753MOL0     H 3911   8.625   8.573   9.089 -0.0323  0.3373 -0.2413
  753MOL0     H 3912   8.927   8.481   9.134 -1.8260  4.2060  1.5442
  753MOL0     H 3913   8.769   8.455   9.198 -1.6006  2.9969 -3.8435
  753MOL0     H 3914   8.858   8.319   9.119 -0.5837 -0.3656  1.0386
  754MOL0     O 3915   6.267   1.641   4.072  0.1862 -0.0480  0.0368
  754MOL0     C 3916   6.178   1.708   4.006 -1.6621  0.5476 -0.5819
  754MOL0     O 3917   6.206   1.822   3.940 -0.5618  0.1242 -0.0553
  754MOL0     C 3918   6.326   1.885   3.950 -0.3295  0.4746 -0.5644
  754MOL0     C 3919   6.336   1.997   4.027  0.2741 -0.7372  0.4215
  754MOL0     C 3920   6.458   2.061   4.063 -0.5460  0.4072  0.8002
  754MOL0     C 3921   6.574   2.016   4.004 -0.0000  0.6137 -0.7445
  754MOL0     O 3922   6.697   2.075   4.023  0.1947 -0.1915  0.5646
  754MOL0     C 3923   6.695   2.213   4.041  1.0681 -0.8130  0.3870
  754MOL0     C 3924   6.837   2.281   4.026  1.3073  0.2334 -0.8133
  754MOL0     C 3925   6.853   2.420   4.072 -0.5372 -1.0529 -0.7981
  754MOL0     C 3926   6.908   2.445   4.215 -0.4809  0.4373  0.7844
  754MOL0     C 3927   7.053   2.433   4.226 -0.0752 -0.3905 -0.8683
  754MOL0     C 3928   7.105   2.544   4.324 -0.2180  0.5770 -0.8955
  754MOL0     C 3929   7.259   2.552   4.340  0.4007 -0.7133  0.1675
  754MOL0     C 3930   7.302   2.643   4.466 -0.7106 -0.8102  0.8380
  754MOL0     N 3931   7.449   2.663   4.481  0.5492 -0.6593 -0.1238
  754MOL0     C 3932   7.560   2.595   4.427  0.5288 -0.4738 -0.3825
  754MOL0     C 3933   7.669   2.638   4.507  0.2265  0.3433  1.0208
  754MOL0     C 3934   7.823   2.602   4.480 -0.2585 -0.1461 -0.2226
  754MOL0     C 3935   7.899   2.612   4.619  0.6874 -0.4774  0.0040
  754MOL0     C 3936   8.048   2.574   4.622 -0.1577 -0.4624  0.0870
  754MOL0     C 3937   8.145   2.659   4.546  0.3363 -0.3640  0.8369
  754MOL0     O 3938   8.141   2.782   4.612 -0.8841 -0.4078  0.1845
  754MOL0     C 3939   8.219   2.879   4.575  0.2238  0.2228  0.4202
  754MOL0     C 3940   8.300   2.878   4.459 -0.4615  0.4229  0.1888
  754MOL0     C 3941   8.387   2.982   4.426 -0.5192  0.3849  0.6189
  754MOL0     C 3942   8.453   2.981   4.284 -0.3855 -0.2071 -0.5194
  754MOL0     C 3943   8.410   3.090   4.514  0.6386 -0.1119 -0.0998
  754MOL0     C 3944   8.522   3.185   4.496 -0.0531  0.2753  0.1180
  754MOL0     O 3945   8.485   3.295   4.557 -0.4632 -0.5724 -0.3014
  754MOL0     C 3946   8.565   3.410   4.562  0.7827  0.9644  0.0468
  754MOL0     C 3947   8.550   3.504   4.663  0.2205 -0.2844 -0.2492
  754MOL0     C 3948   8.630   3.615   4.671 -0.0274  0.5979 -0.2832
  754MOL0     C 3949   8.714   3.645   4.561 -0.1177 -0.6802  0.8892
  754MOL0     O 3950   8.771   3.765   4.543  0.3407 -0.8832 -0.8413
  754MOL0     C 3951   8.778   3.865   4.645  0.0957  0.0285 -0.0713
  754MOL0     C 3952   8.814   3.983   4.570 -1.0435 -0.2395  0.4841
  754MOL0     C 3953   8.852   4.097   4.671  1.1385  0.4225 -0.6937
  754MOL0     C 3954   8.950   4.202   4.610  0.2935 -0.2011  1.0485
  754MOL0     C 3955   8.975   4.332   4.690 -0.0183 -0.9520 -0.1508
  754MOL0     C 3956   8.857   4.419   4.727  0.6279  0.2936  0.2631
  754MOL0     C 3957   8.888   4.544   4.810 -0.8695 -1.2065 -0.1720
  754MOL0     C 3958   8.782   4.623   4.872  0.0601  0.3410  0.6417
  754MOL0    Cl 3959   8.701   4.524   4.984  0.2022 -0.1931  0.4285
  754MOL0     C 3960   8.730   3.560   4.463 -0.2615 -0.0848  1.1292
  754MOL0     C 3961   8.646   3.452   4.453 -0.9962  1.5689 -0.1763
  754MOL0     O 3962   8.629   3.164   4.446 -0.4284  0.2906  0.3452
  754MOL0     C 3963   8.324   3.095   4.630  0.2060  0.3203  0.7381
  754MOL0     C 3964   8.225   2.994   4.650  0.0225 -0.0991  0.5036
  754MOL0     N 3965   7.621   2.722   4.602 -0.3992 -0.2879 -0.4670
  754MOL0     N 3966   7.491   2.738   4.591  0.4616 -0.4632 -0.3769
  754MOL0     C 3967   6.571   1.903   3.920 -0.0898 -0.5013 -1.2055
  754MOL0     C 3968   6.452   1.834   3.904 -0.2860  0.8660 -0.0675
  754MOL0     C 3969   6.035   1.671   4.016 -0.2292  0.5165 -0.2303
  754MOL0     C 3970   5.943   1.766   3.968 -0.5671 -0.0795  0.4430
  754MOL0     C 3971   5.804   1.742   3.972 -0.3801  0.4333 -0.1067
  754MOL0     C 3972   5.752   1.627   4.014  0.7862  0.8839  0.6439
  754MOL0     O 3973   5.618   1.594   4.031 -0.3796  0.3685 -0.1396
  754MOL0     C 3974   5.523   1.690   3.993  0.4180 -0.4572 -1.0201
  754MOL0     C 3975   5.380   1.638   3.995  0.0893 -0.1701 -0.2672
  754MOL0     C 3976   5.363   1.507   3.907  0.1210 -0.9006 -0.1142
  754MOL0     C 3977   5.411   1.524   3.758  0.4102  0.1580 -0.8192
  754MOL0     C 3978   5.371   1.408   3.683  0.6465  0.7961 -0.7968
  754MOL0     C 3979   5.349   1.323   3.602  0.1028  0.7726  0.2842
  754MOL0     C 3980   5.844   1.522   4.035 -0.2201 -0.5386  0.2728
  754MOL0     C 3981   5.987   1.539   4.047 -0.3114  0.0885  0.3074
  754MOL0     C 3982   6.076   1.421   4.083  0.7413 -0.6310  0.0745
  754MOL0     H 3983   6.245   2.048   4.059  1.3548 -0.7441  3.9924
  754MOL0     H 3984   6.462   2.152   4.122 -1.4386  1.4008 -0.5911
  754MOL0     H 3985   6.666   2.233   4.145 -1.5123 -0.8673 -0.2501
  754MOL0     H 3986   6.616   2.254   3.978  0.3969 -2.5479  0.0388
  754MOL0     H 3987   6.909   2.221   4.082 -0.8735 -2.1640 -0.3875
  754MOL0     H 3988   6.867   2.278   3.921 -1.4660 -0.9561 -1.6662
  754MOL0     H 3989   6.918   2.474   4.002 -0.6120 -0.2395 -0.2560
  754MOL0     H 3990   6.751   2.456   4.061 -0.4279 -1.1230 -2.2036
  754MOL0     H 3991   6.888   2.552   4.222  1.1075  0.9156 -1.0187
  754MOL0     H 3992   6.852   2.393   4.293  2.5010  1.3200  3.7566
  754MOL0     H 3993   7.101   2.465   4.133  0.7236  0.5320 -0.1714
  754MOL0     H 3994   7.090   2.333   4.249 -1.3072 -1.2044 -2.3166
  754MOL0     H 3995   7.075   2.644   4.290  3.6814  3.5846  3.3874
  754MOL0     H 3996   7.064   2.516   4.421 -0.0552 -3.1359 -1.7314
  754MOL0     H 3997   7.296   2.614   4.258  0.1335  3.5418  2.9375
  754MOL0     H 3998   7.306   2.454   4.351  3.2712  0.6458  0.9585
  754MOL0     H 3999   7.249   2.735   4.442 -0.6521 -0.6324  1.3810
  754MOL0     H 4000   7.265   2.622   4.567  1.2024 -0.5622  1.6272
  754MOL0     H 4001   7.562   2.527   4.343  0.2091 -3.0337  1.5685
  754MOL0     H 4002   7.869   2.659   4.399 -0.2660 -3.9230 -3.1732
  754MOL0     H 4003   7.832   2.499   4.445  2.2504  0.4065 -1.3777
  754MOL0     H 4004   7.877   2.705   4.672 -4.4485 -1.8704  0.8191
  754MOL0     H 4005   7.840   2.539   4.675 -1.7623 -0.0542 -1.8612
  754MOL0     H 4006   8.098   2.563   4.719  1.1905 -2.5037 -0.7646
  754MOL0     H 4007   8.051   2.477   4.572 -0.5978  0.2327 -1.3542
  754MOL0     H 4008   8.240   2.608   4.533  1.3734  1.5650  0.4702
  754MOL0     H 4009   8.116   2.673   4.442  1.4071 -0.9137  0.4550
  754MOL0     H 4010   8.296   2.793   4.392 -1.8743  0.6215 -0.0131
  754MOL0     H 4011   8.407   3.046   4.209  2.0326  0.5093 -1.4786
  754MOL0     H 4012   8.447   2.881   4.241 -1.1636 -0.2404 -0.3529
  754MOL0     H 4013   8.555   3.020   4.297 -0.5352  1.1703 -2.9487
  754MOL0     H 4014   8.479   3.484   4.743 -0.0599  0.7244 -0.2375
  754MOL0     H 4015   8.614   3.689   4.749 -1.5081  2.5459 -2.3063
  754MOL0     H 4016   8.685   3.902   4.690  0.8803  0.3325  1.3606
  754MOL0     H 4017   8.849   3.834   4.722 -1.1114 -2.9597  0.0054
  754MOL0     H 4018   8.896   3.955   4.503 -1.7431 -0.3849 -0.3281
  754MOL0     H 4019   8.720   4.002   4.517 -2.1795 -1.5662  1.9287
  754MOL0     H 4020   8.877   4.059   4.771 -0.1465  0.0211 -0.4975
  754MOL0     H 4021   8.766   4.155   4.706  0.7786 -0.0963 -0.6981
  754MOL0     H 4022   8.902   4.240   4.520 -4.1908  0.6708  3.5611
  754MOL0     H 4023   9.042   4.156   4.571  0.9750  1.5835  0.4525
  754MOL0     H 4024   9.022   4.306   4.786  3.0215  2.2073 -0.6156
  754MOL0     H 4025   9.052   4.393   4.642 -0.4027  1.3479  1.9564
  754MOL0     H 4026   8.804   4.353   4.797  2.3209  1.3907  2.7299
  754MOL0     H 4027   8.786   4.444   4.648 -1.2440 -2.7888  0.7907
  754MOL0     H 4028   8.942   4.602   4.734 -0.2474 -1.1026  0.3378
  754MOL0     H 4029   8.963   4.525   4.887 -0.4263 -0.2147 -0.3449
  754MOL0     H 4030   8.718   4.664   4.793 -0.7036  0.0598  1.1067
  754MOL0     H 4031   8.825   4.715   4.913 -0.7625  0.8650  0.3606
  754MOL0     H 4032   8.815   3.575   4.397 -0.5652 -1.0260  0.5176
  754MOL0     H 4033   8.661   3.392   4.364 -2.2170  2.5493 -1.0807
  754MOL0     H 4034   8.335   3.170   4.707 -3.6516 -0.6305  2.4546
  754MOL0     H 4035   8.159   2.996   4.736 -2.0455 -0.0579 -0.9839
  754MOL0     H 4036   6.668   1.873   3.884  0.9718  0.7450  0.4959
  754MOL0     H 4037   6.458   1.740   3.849  5.3960  0.9471 -0.1850
  754MOL0     H 4038   5.973   1.858   3.918 -1.7280  0.9106  1.4912
  754MOL0     H 4039   5.739   1.828   3.958  1.9985  1.9082 -3.0298
  754MOL0     H 4040   5.529   1.776   4.060  2.1258  0.2637 -2.0330
  754MOL0     H 4041   5.540   1.730   3.893 -0.9110  2.0894 -0.3118
  754MOL0     H 4042   5.322   1.714   3.942  1.8947  1.5898  0.1839
  754MOL0     H 4043   5.339   1.637   4.096 -0.7593 -2.0859 -0.5819
  754MOL0     H 4044   5.410   1.420   3.955 -3.9791 -3.7779 -0.7608
  754MOL0     H 4045   5.257   1.478   3.903  0.5725 -2.8455  0.9536
  754MOL0     H 4046   5.519   1.513   3.744  0.9764  0.2019  2.5781
  754MOL0     H 4047   5.395   1.626   3.724  1.9264  0.6660 -0.0519
  754MOL0     H 4048   5.333   1.238   3.539  3.0187  1.0729 -1.0121
  754MOL0     H 4049   5.798   1.427   4.059  2.8822 -1.6920  2.2667
  754MOL0     H 4050   6.102   1.400   4.187  3.0810 -2.6351 -0.8351
  754MOL0     H 4051   6.022   1.334   4.046 -2.2528  0.1331  2.2266
  754MOL0     H 4052   6.170   1.426   4.027 -0.9323 -0.5357 -2.9665
  755MOL0     O 4053   4.088   8.151   6.605  0.1790  0.3006 -0.2309
  755MOL0     C 4054   4.095   8.263   6.552 -0.2505  0.9130 -0.2240
  755MOL0     O 4055   4.215   8.325   6.531 -0.2761  0.0245 -0.2064
  755MOL0     C 4056   4.329   8.253   6.532 -1.0209 -0.2547 -0.6409
  755MOL0     C 4057   4.429   8.293   6.632 -0.0381  0.2257 -0.4532
  755MOL0     C 4058   4.554   8.234   6.636 -0.6210 -1.0399  0.7336
  755MOL0     C 4059   4.589   8.130   6.548  0.3310  0.0032 -0.9250
  755MOL0     O 4060   4.707   8.068   6.580 -0.3667 -0.3054 -0.5834
  755MOL0     C 4061   4.754   7.972   6.485 -0.2980  0.8595  0.4623
  755MOL0     C 4062   4.838   8.033   6.377  0.3442 -0.2797  0.7615
  755MOL0     C 4063   4.916   7.923   6.308 -0.3105  0.4764  0.6435
  755MOL0     C 4064   5.070   7.950   6.300 -0.3844  0.5805  0.2505
  755MOL0     C 4065   5.137   7.843   6.221 -0.1551 -0.5272  0.0405
  755MOL0     C 4066   5.284   7.872   6.232 -0.0560  0.2854  0.2948
  755MOL0     C 4067   5.367   7.804   6.124  0.5402  1.0756 -1.4432
  755MOL0     C 4068   5.506   7.799   6.185 -0.0922  0.3635 -0.1145
  755MOL0     N 4069   5.611   7.786   6.079  0.5390 -0.3145  0.1655
  755MOL0     C 4070   5.742   7.820   6.095  0.5356 -0.3164  0.2025
  755MOL0     C 4071   5.805   7.760   5.987  0.6363  0.2990  0.5510
  755MOL0     C 4072   5.949   7.780   5.946 -0.3457  0.1399  0.3922
  755MOL0     C 4073   6.045   7.723   6.053 -0.2124  0.0694 -0.1325
  755MOL0     C 4074   6.185   7.704   5.991 -0.8888  1.1975 -0.4838
  755MOL0     C 4075   6.270   7.632   6.110  0.6360  0.6468 -0.7735
  755MOL0     O 4076   6.407   7.600   6.093 -0.4466 -0.3806 -0.4683
  755MOL0     C 4077   6.440   7.475   6.048 -0.1846 -0.0605  0.7933
  755MOL0     C 4078   6.520   7.390   6.120  0.1240  0.0507  0.0045
  755MOL0     C 4079   6.552   7.261   6.063  0.8027 -0.0739 -0.8659
  755MOL0     C 4080   6.628   7.173   6.146 -0.2486  0.0157 -1.0539
  755MOL0     C 4081   6.508   7.226   5.942 -0.1084  0.8799 -0.7160
  755MOL0     C 4082   6.539   7.094   5.879  0.9350  0.9224 -0.6162
  755MOL0     O 4083   6.600   7.086   5.761 -1.0330 -0.5252  0.5828
  755MOL0     C 4084   6.691   7.183   5.724  1.5251 -0.3903  0.7199
  755MOL0     C 4085   6.766   7.269   5.808  0.4103 -0.3413  0.5434
  755MOL0     C 4086   6.857   7.355   5.762 -0.3495 -0.3127  0.1868
  755MOL0     C 4087   6.893   7.362   5.624 -0.4690 -0.2913  0.0457
  755MOL0     O 4088   6.975   7.446   5.559 -0.2154 -0.8081 -0.1524
  755MOL0     C 4089   7.040   7.541   5.641 -0.4332  0.3675 -0.3411
  755MOL0     C 4090   7.139   7.630   5.564 -0.3890 -0.3508  0.0703
  755MOL0     C 4091   7.093   7.678   5.422 -0.1744 -0.7231  0.2998
  755MOL0     C 4092   7.206   7.699   5.319  0.3569 -0.9885 -0.5730
  755MOL0     C 4093   7.166   7.784   5.195 -0.0639 -0.5908 -0.4966
  755MOL0     C 4094   7.237   7.732   5.063 -0.2650 -0.1337  0.7324
  755MOL0     C 4095   7.389   7.716   5.071  0.3844  0.7243 -0.5310
  755MOL0     C 4096   7.460   7.854   5.071 -0.7227 -0.7875  0.3951
  755MOL0    Cl 4097   7.618   7.821   5.154  0.2065 -0.2009  0.2746
  755MOL0     C 4098   6.826   7.268   5.535 -0.6609 -1.4914 -0.3715
  755MOL0     C 4099   6.727   7.187   5.592  0.3104  0.8707 -0.1426
  755MOL0     O 4100   6.490   6.995   5.933  0.1272  0.3383 -0.3582
  755MOL0     C 4101   6.427   7.309   5.865 -1.2220  0.3549 -0.3049
  755MOL0     C 4102   6.395   7.431   5.923  0.1609 -0.3977 -0.1880
  755MOL0     N 4103   5.716   7.663   5.928 -0.1413  0.1774  0.1118
  755MOL0     N 4104   5.599   7.680   5.988  0.2107 -1.0764 -0.1463
  755MOL0     C 4105   4.497   8.091   6.454  0.3145 -0.5440 -0.5711
  755MOL0     C 4106   4.367   8.158   6.439 -0.3719  0.7977  0.2395
  755MOL0     C 4107   3.972   8.344   6.526  0.1203  1.1366 -0.0562
  755MOL0     C 4108   3.992   8.477   6.482  0.6921  0.1084 -0.2892
  755MOL0     C 4109   3.893   8.572   6.485  2.0140 -0.5342  0.3813
  755MOL0     C 4110   3.762   8.541   6.538  0.4037 -0.2381  0.8922
  755MOL0     O 4111   3.656   8.628   6.538 -0.4499 -0.4967 -0.5283
  755MOL0     C 4112   3.684   8.771   6.537 -0.5715  0.6712  0.4680
  755MOL0     C 4113   3.554   8.852   6.533 -0.7131 -0.6591 -0.2661
  755MOL0     C 4114   3.446   8.802   6.434  0.5454 -0.0887  0.3633
  755MOL0     C 4115   3.478   8.873   6.299 -0.6377 -0.1448 -0.3028
  755MOL0     C 4116   3.358   8.869   6.214  0.3726 -0.4067 -0.2267
  755MOL0     C 4117   3.257   8.837   6.150  0.4976 -0.1374  0.6245
  755MOL0     C 4118   3.736   8.406   6.567  0.1972  0.0730  0.2970
  755MOL0     C 4119   3.841   8.311   6.565  0.6265 -0.6158 -0.1053
  755MOL0     C 4120   3.802   8.177   6.632 -1.0553 -0.3507  0.5088
  755MOL0     H 4121   4.386   8.347   6.715 -2.2266 -1.9562 -0.0511
  755MOL0     H 4122   4.626   8.272   6.709 -0.6740  0.5407 -0.0019
  755MOL0     H 4123   4.674   7.920   6.430 -0.5509  2.4908 -0.7920
  755MOL0     H 4124   4.822   7.903   6.536  0.2656  0.5024 -0.7230
  755MOL0     H 4125   4.779   8.082   6.300  0.5529 -0.7286  0.3079
  755MOL0     H 4126   4.897   8.108   6.431 -0.5672  0.3642  0.8719
  755MOL0     H 4127   4.892   7.823   6.345 -1.7899 -0.0447 -1.4768
  755MOL0     H 4128   4.877   7.902   6.208  1.1692 -0.4322  0.2238
  755MOL0     H 4129   5.079   8.043   6.243  1.2549 -0.8418 -1.9687
  755MOL0     H 4130   5.101   7.944   6.405 -3.2892 -6.1778  1.2394
  755MOL0     H 4131   5.098   7.854   6.119  2.0694 -1.6424 -1.0134
  755MOL0     H 4132   5.110   7.739   6.239 -0.1696 -0.6764 -0.7986
  755MOL0     H 4133   5.304   7.979   6.222  3.3122 -0.1227  1.3632
  755MOL0     H 4134   5.312   7.826   6.328 -3.2149 -4.6931 -0.7740
  755MOL0     H 4135   5.373   7.852   6.025 -3.0342 -0.8474 -2.7820
  755MOL0     H 4136   5.334   7.701   6.108 -0.3912  0.5964  2.5764
  755MOL0     H 4137   5.528   7.888   6.244  3.8088 -1.0577  0.8327
  755MOL0     H 4138   5.516   7.708   6.244 -1.7045 -4.1002 -5.7429
  755MOL0     H 4139   5.782   7.888   6.169  2.6902 -3.7902  2.5442
  755MOL0     H 4140   5.981   7.879   5.912 -0.7644 -0.3119 -1.4201
  755MOL0     H 4141   5.956   7.719   5.855 -1.3036  2.1605 -1.1046
  755MOL0     H 4142   6.064   7.788   6.139 -0.6487  1.1819 -0.8432
  755MOL0     H 4143   6.018   7.628   6.099  3.5555  1.0748  5.0641
  755MOL0     H 4144   6.174   7.636   5.906  0.1859  1.0518 -0.5301
  755MOL0     H 4145   6.226   7.794   5.944 -0.9988  0.5057 -1.9667
  755MOL0     H 4146   6.273   7.686   6.204 -2.2834 -0.9968  0.3952
  755MOL0     H 4147   6.217   7.541   6.139 -3.1836  3.2236  1.0998
  755MOL0     H 4148   6.566   7.418   6.214  3.1365 -0.1310 -1.3118
  755MOL0     H 4149   6.544   7.116   6.188 -2.5423  1.7830 -2.9192
  755MOL0     H 4150   6.687   7.233   6.216 -2.1099  0.2771  0.3753
  755MOL0     H 4151   6.688   7.105   6.085  0.6105  1.2530 -1.6318
  755MOL0     H 4152   6.757   7.250   5.914  0.5817 -0.9267  0.4517
  755MOL0     H 4153   6.900   7.407   5.847  1.0417 -0.8379 -0.1612
  755MOL0     H 4154   6.970   7.614   5.683 -0.2166  1.1550 -1.3174
  755MOL0     H 4155   7.094   7.494   5.724  1.3801 -1.8534 -2.6234
  755MOL0     H 4156   7.161   7.708   5.637 -2.3855  0.7723 -0.4430
  755MOL0     H 4157   7.230   7.573   5.543 -1.1336 -0.5567 -3.0600
  755MOL0     H 4158   7.063   7.784   5.419  2.0802  0.3326  5.0413
  755MOL0     H 4159   7.009   7.620   5.385 -1.1027  0.7585 -0.0192
  755MOL0     H 4160   7.240   7.599   5.294  1.2584 -0.4925 -1.4035
  755MOL0     H 4161   7.286   7.757   5.366  0.1190  0.2054 -1.5610
  755MOL0     H 4162   7.059   7.767   5.180  0.0240 -1.6372 -0.0377
  755MOL0     H 4163   7.180   7.890   5.217 -0.3872 -0.2606 -1.7983
  755MOL0     H 4164   7.212   7.800   4.981  1.5645 -1.5939 -1.1495
  755MOL0     H 4165   7.204   7.630   5.042  0.9742 -0.2533 -0.8770
  755MOL0     H 4166   7.417   7.653   4.986 -0.6554 -2.5375  1.3547
  755MOL0     H 4167   7.414   7.668   5.166  1.2751  1.1790 -0.5283
  755MOL0     H 4168   7.410   7.925   5.137 -0.6321  1.9325 -2.2924
  755MOL0     H 4169   7.490   7.890   4.973  3.8897 -3.8287  0.3501
  755MOL0     H 4170   6.852   7.269   5.429 -1.2289 -2.0395 -0.5207
  755MOL0     H 4171   6.690   7.109   5.526  1.9372  2.3566 -3.0003
  755MOL0     H 4172   6.388   7.282   5.767 -2.4255 -0.3174  0.3397
  755MOL0     H 4173   6.346   7.500   5.854 -2.5310 -3.4839 -1.6049
  755MOL0     H 4174   4.503   8.007   6.385 -2.8259 -1.5659  0.2259
  755MOL0     H 4175   4.292   8.121   6.370  2.0037 -4.1580 -0.0800
  755MOL0     H 4176   4.089   8.499   6.440  0.6929  0.5359 -0.0604
  755MOL0     H 4177   3.894   8.660   6.422  0.3484 -2.3578 -2.4423
  755MOL0     H 4178   3.742   8.798   6.625 -0.7919 -0.0960  0.8556
  755MOL0     H 4179   3.743   8.786   6.446 -0.7696 -0.3190  0.1624
  755MOL0     H 4180   3.570   8.960   6.519  1.8688 -1.0876 -1.0508
  755MOL0     H 4181   3.511   8.829   6.631 -0.8515  4.4322  1.1732
  755MOL0     H 4182   3.453   8.694   6.422 -0.2859  0.0269 -1.4895
  755MOL0     H 4183   3.344   8.828   6.465 -0.5904 -2.3607 -1.2159
  755MOL0     H 4184   3.566   8.826   6.253  0.6106 -0.5017  2.2634
  755MOL0     H 4185   3.510   8.977   6.312  1.3833 -0.8935  1.3042
  755MOL0     H 4186   3.164   8.817   6.101 -0.1347  1.3573  1.1587
  755MOL0     H 4187   3.629   8.387   6.576  0.6781 -2.7807  1.2870
  755MOL0     H 4188   3.852   8.159   6.727 -0.3726  0.1104  0.2466
  755MOL0     H 4189   3.697   8.173   6.660 -0.7119 -1.0579  1.7437
  755MOL0     H 4190   3.841   8.106   6.559 -1.1194  0.5255 -0.4083
  756MOL0     O 4191  11.610   5.182   1.692 -0.2736  0.4289  0.2343
  756MOL0     C 4192  11.554   5.276   1.638 -0.0152 -0.1808 -0.1558
  756MOL0     O 4193  11.611   5.367   1.559  0.1909  0.3905  0.1711
  756MOL0     C 4194  11.725   5.328   1.485  0.8168  0.9152 -0.9291
  756MOL0     C 4195  11.724   5.199   1.432  0.3020  0.1675 -0.1921
  756MOL0     C 4196  11.831   5.167   1.349  0.3881 -0.2965  0.3269
  756MOL0     C 4197  11.928   5.260   1.304  0.6643  0.6687 -0.5844
  756MOL0     O 4198  12.015   5.224   1.204  1.2990 -0.3352  0.4630
  756MOL0     C 4199  11.969   5.263   1.074 -0.1084 -0.0975 -0.0769
  756MOL0     C 4200  12.026   5.164   0.976  0.3554  0.0855 -0.1380
  756MOL0     C 4201  11.930   5.043   0.952 -0.6460 -0.5886 -0.4157
  756MOL0     C 4202  12.020   4.924   0.909 -0.7016  1.0741  0.2183
  756MOL0     C 4203  12.077   4.954   0.760 -0.8842  0.7313  0.3417
  756MOL0     C 4204  12.177   4.857   0.709  0.2469 -0.5123 -0.3519
  756MOL0     C 4205  12.239   4.906   0.571  0.6231  0.7949 -0.4199
  756MOL0     C 4206  12.327   5.029   0.579  0.1519  0.0752 -0.3887
  756MOL0     N 4207  12.453   4.979   0.632  0.1866 -0.1097  0.6981
  756MOL0     C 4208  12.496   4.981   0.764  0.1911 -0.0766 -0.5805
  756MOL0     C 4209  12.629   4.944   0.761 -0.5908  0.7805  0.7112
  756MOL0     C 4210  12.703   4.909   0.889  0.5798 -0.6199 -1.2264
  756MOL0     C 4211  12.853   4.884   0.870  0.3364 -0.4526  0.1333
  756MOL0     C 4212  12.935   4.874   0.993 -0.3420  0.0552  0.1925
  756MOL0     C 4213  13.088   4.862   0.969 -0.6106  0.5383 -0.3617
  756MOL0     O 4214  13.109   4.738   0.903 -0.8437  0.5205  0.2011
  756MOL0     C 4215  13.241   4.699   0.894 -0.9272 -0.1320  0.4042
  756MOL0     C 4216  13.314   4.746   0.787 -0.1845 -0.0016 -0.0155
  756MOL0     C 4217  13.458   4.733   0.778 -0.1232 -1.1226  0.5534
  756MOL0     C 4218  13.527   4.768   0.641 -0.3353  0.3126 -0.9546
  756MOL0     C 4219  13.526   4.691   0.896 -0.5819 -0.3266  0.8617
  756MOL0     C 4220  13.675   4.695   0.912  0.3795  0.2922 -0.0769
  756MOL0     O 4221  13.725   4.613   0.999 -0.6517  0.3725  0.3702
  756MOL0     C 4222  13.863   4.614   1.020 -0.0349 -0.2771  0.8600
  756MOL0     C 4223  13.931   4.494   1.010 -0.3020 -0.8087 -0.3867
  756MOL0     C 4224  14.063   4.498   1.055  0.3824  0.1667 -0.3757
  756MOL0     C 4225  14.132   4.606   1.114 -0.2162 -0.2965 -0.5744
  756MOL0     O 4226  14.253   4.593   1.159  0.2106 -0.0263 -0.2045
  756MOL0     C 4227  14.340   4.705   1.123 -0.0116 -0.3910 -0.0664
  756MOL0     C 4228  14.487   4.660   1.129 -0.2837 -0.0076 -0.5213
  756MOL0     C 4229  14.508   4.540   1.044  0.0625  0.9372  0.0409
  756MOL0     C 4230  14.649   4.485   1.057  0.0963  1.1539  0.3410
  756MOL0     C 4231  14.690   4.419   1.189  0.2996  1.0561  0.7029
  756MOL0     C 4232  14.592   4.319   1.240  0.8069  0.1195  0.2132
  756MOL0     C 4233  14.653   4.244   1.365  0.0607  0.0599  0.8871
  756MOL0     C 4234  14.565   4.288   1.496 -0.4599  0.1586  0.5831
  756MOL0    Cl 4235  14.561   4.173   1.635  0.3514  0.5675 -0.2819
  756MOL0     C 4236  14.052   4.725   1.129  0.5100  0.2754 -0.4751
  756MOL0     C 4237  13.924   4.729   1.074  0.0891  0.3225  0.2891
  756MOL0     O 4238  13.745   4.770   0.845 -0.4815 -0.1480 -0.0560
  756MOL0     C 4239  13.448   4.632   0.998  0.3807  0.7798  0.5412
  756MOL0     C 4240  13.309   4.643   1.001 -0.4604  0.1032  1.0136
  756MOL0     N 4241  12.659   4.917   0.627  0.0092 -0.2532 -0.2480
  756MOL0     N 4242  12.558   4.940   0.548  0.4226 -0.2117  0.8754
  756MOL0     C 4243  11.921   5.388   1.355 -0.5598 -1.0671  0.1357
  756MOL0     C 4244  11.826   5.418   1.451 -0.2483 -0.8330 -0.2443
  756MOL0     C 4245  11.404   5.303   1.677  1.2556 -0.3181 -0.3609
  756MOL0     C 4246  11.357   5.432   1.657  0.9671  0.0665  0.0694
  756MOL0     C 4247  11.217   5.471   1.670 -0.4457 -0.2414  0.1686
  756MOL0     C 4248  11.131   5.365   1.715  0.3511 -0.2379  0.4454
  756MOL0     O 4249  10.995   5.386   1.719  0.2714  0.7545 -0.6176
  756MOL0     C 4250  10.939   5.517   1.741 -0.3789 -0.9465 -0.3742
  756MOL0     C 4251  10.968   5.550   1.889  0.4590  1.0523  0.5198
  756MOL0     C 4252  10.853   5.623   1.952 -0.9092 -0.1024  0.4057
  756MOL0     C 4253  10.804   5.747   1.871  0.3638 -0.2405  1.3529
  756MOL0     C 4254  10.716   5.829   1.950 -0.8512 -0.4905  0.7205
  756MOL0     C 4255  10.649   5.912   2.011 -1.2740 -0.1646 -0.7360
  756MOL0     C 4256  11.185   5.249   1.759  0.4159 -0.7276 -0.6925
  756MOL0     C 4257  11.313   5.212   1.727 -0.9244  0.6755 -0.9289
  756MOL0     C 4258  11.353   5.070   1.758 -0.1966 -0.5568  0.1990
  756MOL0     H 4259  11.640   5.133   1.453 -0.5167 -0.4164 -4.4426
  756MOL0     H 4260  11.825   5.066   1.309 -0.3546 -1.4480  3.1050
  756MOL0     H 4261  12.022   5.354   1.046  2.2573 -0.9656  1.2746
  756MOL0     H 4262  11.861   5.277   1.061  0.0550 -0.9908 -3.1098
  756MOL0     H 4263  12.025   5.214   0.879 -2.5237 -0.5593 -0.5097
  756MOL0     H 4264  12.127   5.140   1.010 -0.8989 -5.2077  0.6831
  756MOL0     H 4265  11.878   5.023   1.046  0.8450 -2.3959  0.0886
  756MOL0     H 4266  11.841   5.058   0.891 -1.9996  0.5627  1.6940
  756MOL0     H 4267  12.097   4.912   0.987 -2.8745  3.3506  2.9633
  756MOL0     H 4268  11.965   4.829   0.912 -0.4210  0.8487 -1.1503
  756MOL0     H 4269  12.130   5.049   0.750  2.1495 -0.9343 -0.5742
  756MOL0     H 4270  12.005   4.938   0.679 -0.0719 -0.1168 -0.2179
  756MOL0     H 4271  12.253   4.827   0.781 -0.4683 -0.4287  0.4554
  756MOL0     H 4272  12.109   4.772   0.694 -0.2799 -0.3723  1.0950
  756MOL0     H 4273  12.164   4.946   0.502  3.1975  2.1151 -2.6589
  756MOL0     H 4274  12.288   4.824   0.518 -0.2013 -1.1227  1.6314
  756MOL0     H 4275  12.355   5.058   0.478  2.6189  2.8650  0.9529
  756MOL0     H 4276  12.288   5.117   0.631  0.3621  0.7474 -1.3534
  756MOL0     H 4277  12.436   4.988   0.854 -0.4703 -3.6461 -0.5801
  756MOL0     H 4278  12.656   4.829   0.945  0.2933  1.2274  1.3652
  756MOL0     H 4279  12.697   4.995   0.956  3.0063 -1.5021  0.2303
  756MOL0     H 4280  12.856   4.784   0.825 -2.7923 -0.1276 -1.0760
  756MOL0     H 4281  12.893   4.955   0.797 -1.1040  2.0221  1.6294
  756MOL0     H 4282  12.930   4.975   1.036  0.6366 -0.2279  0.9887
  756MOL0     H 4283  12.892   4.814   1.074 -1.1374  1.0245  0.5163
  756MOL0     H 4284  13.128   4.951   0.921 -1.0237 -0.3900 -2.5609
  756MOL0     H 4285  13.129   4.855   1.070 -3.6327 -0.5098  0.9047
  756MOL0     H 4286  13.260   4.783   0.700  1.5792  1.5781 -0.4895
  756MOL0     H 4287  13.615   4.706   0.624 -0.7850 -0.2304 -1.3434
  756MOL0     H 4288  13.563   4.871   0.632  1.0823 -0.2784 -2.4639
  756MOL0     H 4289  13.454   4.750   0.562 -0.4796  0.3875 -0.8394
  756MOL0     H 4290  13.888   4.403   0.970 -3.5295  0.6581 -0.5111
  756MOL0     H 4291  14.126   4.409   1.053 -0.0975 -0.1834 -0.1511
  756MOL0     H 4292  14.325   4.733   1.018 -0.8334 -0.9072 -0.0990
  756MOL0     H 4293  14.336   4.791   1.191  1.8194 -0.0641 -0.3179
  756MOL0     H 4294  14.561   4.737   1.105 -1.9965  1.4899 -1.2525
  756MOL0     H 4295  14.517   4.642   1.233 -1.0114 -2.0556 -0.6271
  756MOL0     H 4296  14.481   4.558   0.939  2.3798  0.0452 -0.7766
  756MOL0     H 4297  14.441   4.458   1.074  2.0540  0.0372  2.3253
  756MOL0     H 4298  14.720   4.567   1.045  2.6907 -1.1957 -1.7978
  756MOL0     H 4299  14.656   4.426   0.965 -0.8081  0.2689  0.8251
  756MOL0     H 4300  14.780   4.358   1.181  0.3283  1.3475 -1.7423
  756MOL0     H 4301  14.690   4.488   1.274 -1.1275  0.0466  1.5887
  756MOL0     H 4302  14.566   4.249   1.160 -1.9885  2.6864 -1.3549
  756MOL0     H 4303  14.500   4.373   1.262 -0.2966 -1.4111 -0.4854
  756MOL0     H 4304  14.757   4.277   1.367 -0.8245  3.6027 -1.9898
  756MOL0     H 4305  14.653   4.138   1.337  1.9623 -0.0736  1.2553
  756MOL0     H 4306  14.458   4.286   1.474 -0.6626 -0.3244  1.5415
  756MOL0     H 4307  14.592   4.388   1.531 -1.2671  0.7102 -0.3492
  756MOL0     H 4308  14.088   4.820   1.168  0.3657  0.4415 -0.7399
  756MOL0     H 4309  13.871   4.823   1.076  0.5449  0.7887 -3.1848
  756MOL0     H 4310  13.490   4.570   1.077  0.5605  0.5687  0.2798
  756MOL0     H 4311  13.267   4.591   1.087  3.3508 -4.9272  0.2605
  756MOL0     H 4312  11.996   5.459   1.323 -2.7357  1.7817  1.0374
  756MOL0     H 4313  11.807   5.518   1.489 -1.0646 -0.7086 -0.9551
  756MOL0     H 4314  11.427   5.510   1.630 -0.0550  1.1271  0.3892
  756MOL0     H 4315  11.205   5.576   1.648 -0.1028  0.0053  1.1420
  756MOL0     H 4316  10.995   5.583   1.673  0.0038 -2.6238 -1.7458
  756MOL0     H 4317  10.830   5.515   1.731 -0.3744 -0.5185 -0.5502
  756MOL0     H 4318  11.064   5.600   1.902  2.7489 -3.4116  3.2496
  756MOL0     H 4319  10.973   5.459   1.949  2.0355 -0.3818 -1.6227
  756MOL0     H 4320  10.774   5.552   1.977  0.7786 -1.4220  2.2779
  756MOL0     H 4321  10.888   5.659   2.049 -2.9920 -0.6561  1.4327
  756MOL0     H 4322  10.769   5.715   1.772  3.3256  2.0663 -0.6152
  756MOL0     H 4323  10.899   5.800   1.855  0.6975 -1.3015 -0.5600
  756MOL0     H 4324  10.609   6.001   2.054  3.4421  3.0206 -2.1967
  756MOL0     H 4325  11.122   5.183   1.818 -0.2985  0.7013  0.1835
  756MOL0     H 4326  11.429   5.072   1.836  3.1273 -0.7202 -2.7753
  756MOL0     H 4327  11.267   5.016   1.797 -0.3852  0.3452  1.0732
  756MOL0     H 4328  11.391   5.024   1.666  3.1873  1.3165  0.4812
  757MOL0     O 4329   0.876   7.273   5.555 -0.9745 -0.1849 -0.5914
  757MOL0     C 4330   0.935   7.195   5.487  0.3551  1.6505 -0.0927
  757MOL0     O 4331   0.998   7.087   5.529  0.7102  0.1763 -0.4006
  757MOL0     C 4332   0.953   7.047   5.653  0.3355  0.3796  0.1879
  757MOL0     C 4333   0.840   6.968   5.671  1.1171  0.1929  0.4693
  757MOL0     C 4334   0.783   6.949   5.796  0.2022  0.7751 -0.5618
  757MOL0     C 4335   0.847   6.989   5.912 -0.8228  0.3677 -0.3121
  757MOL0     O 4336   0.807   6.963   6.046  0.0857  0.1151  0.6471
  757MOL0     C 4337   0.826   6.830   6.087  0.2303  0.0385 -0.3643
  757MOL0     C 4338   0.797   6.837   6.245  0.5233 -1.2428 -0.1951
  757MOL0     C 4339   0.832   6.707   6.321 -0.9876 -0.2929  0.2647
  757MOL0     C 4340   0.780   6.702   6.467  0.0213 -0.5114  0.8907
  757MOL0     C 4341   0.860   6.807   6.555 -0.1062 -0.4188  0.1897
  757MOL0     C 4342   1.008   6.769   6.579 -0.5040  0.3926 -0.6131
  757MOL0     C 4343   1.059   6.816   6.713  0.2379 -1.1256 -0.0294
  757MOL0     C 4344   1.077   6.968   6.709 -0.8596  0.3827 -0.2428
  757MOL0     N 4345   1.153   7.007   6.824 -0.5342 -0.3491 -0.0140
  757MOL0     C 4346   1.147   6.967   6.956 -1.0539  0.5306  0.6385
  757MOL0     C 4347   1.262   7.026   7.012 -0.3122  0.6593 -0.4904
  757MOL0     C 4348   1.312   7.002   7.142  0.4571 -0.3674  0.0094
  757MOL0     C 4349   1.274   7.130   7.223  0.6132  0.8233  0.1396
  757MOL0     C 4350   1.277   7.110   7.376 -0.1129  0.8097  0.2253
  757MOL0     C 4351   1.169   7.013   7.418 -0.0411 -0.5196 -0.0511
  757MOL0     O 4352   1.036   7.075   7.404  0.2707  0.0096  0.7373
  757MOL0     C 4353   1.009   7.201   7.455 -0.3037 -0.5129  0.2182
  757MOL0     C 4354   0.891   7.258   7.412 -0.6646 -0.5666  0.5570
  757MOL0     C 4355   0.859   7.384   7.456 -0.0379  1.1235  0.4426
  757MOL0     C 4356   0.731   7.446   7.387 -1.0503 -0.0046 -0.6502
  757MOL0     C 4357   0.936   7.446   7.556 -0.4198  0.1795  0.3006
  757MOL0     C 4358   0.912   7.583   7.609  0.1983  1.0989 -1.3955
  757MOL0     O 4359   0.801   7.646   7.571 -0.2612  0.5835  0.4396
  757MOL0     C 4360   0.796   7.779   7.601 -0.9373  0.5242  0.2600
  757MOL0     C 4361   0.806   7.840   7.730 -0.3040  0.8979  0.2341
  757MOL0     C 4362   0.800   7.977   7.748 -0.1046 -0.2411  0.4838
  757MOL0     C 4363   0.793   8.057   7.640  0.2768 -0.5930  0.3838
  757MOL0     O 4364   0.822   8.191   7.668 -0.0680  0.3949 -0.9149
  757MOL0     C 4365   0.741   8.286   7.593 -0.2626 -0.7194 -0.7791
  757MOL0     C 4366   0.776   8.438   7.613  0.5729 -0.2441 -0.7016
  757MOL0     C 4367   0.923   8.490   7.608  1.5082 -1.3899 -0.6570
  757MOL0     C 4368   0.918   8.637   7.634  0.3771 -0.6413 -1.0289
  757MOL0     C 4369   1.049   8.690   7.574 -0.7342  0.2413  0.8910
  757MOL0     C 4370   1.058   8.844   7.589 -0.8044  0.4485 -0.0515
  757MOL0     C 4371   1.031   8.900   7.737  0.2791 -0.5563  0.9646
  757MOL0     C 4372   1.142   8.870   7.851  0.0417  0.0041  0.8537
  757MOL0    Cl 4373   1.312   8.905   7.802  0.0845 -0.0086  0.4936
  757MOL0     C 4374   0.763   8.010   7.513  0.4527 -0.6604 -0.0924
  757MOL0     C 4375   0.783   7.865   7.482 -0.0536  0.4599 -0.6044
  757MOL0     O 4376   0.987   7.616   7.703  0.4579  0.7526  0.8725
  757MOL0     C 4377   1.051   7.376   7.605  1.3316 -0.7515 -0.0615
  757MOL0     C 4378   1.091   7.258   7.555 -0.5564  1.2096  0.8950
  757MOL0     N 4379   1.321   7.099   6.922  0.3156 -0.2135 -0.0038
  757MOL0     N 4380   1.261   7.092   6.809  0.4613 -0.5295  0.4642
  757MOL0     C 4381   0.967   7.072   5.891 -0.1039 -0.0037 -0.3638
  757MOL0     C 4382   1.021   7.096   5.763 -0.0907 -0.1715  1.1698
  757MOL0     C 4383   0.955   7.238   5.340 -0.0963 -0.0659 -0.2743
  757MOL0     C 4384   1.018   7.144   5.258 -0.1718  0.0179 -0.3761
  757MOL0     C 4385   1.064   7.185   5.132 -0.0670 -0.1280 -0.3662
  757MOL0     C 4386   1.028   7.307   5.067  0.8659 -0.6055 -0.5555
  757MOL0     O 4387   1.072   7.325   4.939 -0.1358  0.4290  0.0154
  757MOL0     C 4388   1.030   7.429   4.862  0.5179  0.0908  0.7963
  757MOL0     C 4389   0.919   7.375   4.766  0.9457 -0.2189 -0.4593
  757MOL0     C 4390   0.872   7.477   4.659  0.6448  0.4176 -0.8454
  757MOL0     C 4391   0.952   7.502   4.525  0.0637  0.6557 -0.1616
  757MOL0     C 4392   0.965   7.372   4.458  0.1335  1.0050  0.4461
  757MOL0     C 4393   0.969   7.268   4.395  0.2381 -0.8721 -0.0147
  757MOL0     C 4394   0.959   7.393   5.156  0.6232  0.7586 -0.1799
  757MOL0     C 4395   0.931   7.371   5.290  0.2023  0.5941  0.2181
  757MOL0     C 4396   0.879   7.477   5.365  0.1375  0.6373  0.7074
  757MOL0     H 4397   0.774   6.937   5.591 -2.9163  1.1077  3.1140
  757MOL0     H 4398   0.699   6.881   5.788 -0.8149  2.1816 -2.4401
  757MOL0     H 4399   0.931   6.801   6.076  0.0055 -1.4393  1.0729
  757MOL0     H 4400   0.761   6.763   6.032 -1.2295  2.4862 -1.8054
  757MOL0     H 4401   0.868   6.916   6.272 -0.6474  0.8181 -2.7546
  757MOL0     H 4402   0.695   6.861   6.276 -0.2141 -2.4705 -1.5575
  757MOL0     H 4403   0.781   6.628   6.265 -1.7007  0.2449  0.1337
  757MOL0     H 4404   0.941   6.701   6.317 -0.8783  0.8233  1.0279
  757MOL0     H 4405   0.673   6.724   6.470 -0.2614 -1.6930  0.2040
  757MOL0     H 4406   0.785   6.601   6.508  0.7585 -1.0888 -0.5381
  757MOL0     H 4407   0.821   6.806   6.657  0.9137 -0.3169  0.5904
  757MOL0     H 4408   0.849   6.907   6.513  0.9807  1.2505  3.5340
  757MOL0     H 4409   1.016   6.661   6.574 -0.0665  0.2912  1.4228
  757MOL0     H 4410   1.062   6.799   6.488 -1.8264 -2.9281 -2.6959
  757MOL0     H 4411   1.155   6.775   6.746  0.5234  0.7333  1.6168
  757MOL0     H 4412   0.990   6.796   6.795 -1.3293  4.8708  0.5812
  757MOL0     H 4413   1.115   7.011   6.616 -0.7266  1.7920  0.4390
  757MOL0     H 4414   0.984   7.025   6.725 -1.2191  0.5745 -2.6559
  757MOL0     H 4415   1.068   6.921   7.015 -0.2703  0.6303  1.7970
  757MOL0     H 4416   1.420   6.993   7.135  0.5568  1.4140 -1.9701
  757MOL0     H 4417   1.259   6.912   7.175 -1.4236 -0.0722 -1.9673
  757MOL0     H 4418   1.341   7.213   7.197  0.8057  0.1757 -1.5243
  757MOL0     H 4419   1.171   7.163   7.205 -0.4669 -0.3041  3.5772
  757MOL0     H 4420   1.376   7.074   7.407 -0.2932  1.3678  1.5040
  757MOL0     H 4421   1.269   7.215   7.405 -1.2054  2.1738 -4.2163
  757MOL0     H 4422   1.176   6.918   7.364  0.9778  0.1995 -1.2297
  757MOL0     H 4423   1.173   6.988   7.524  1.3323 -0.7740 -0.1523
  757MOL0     H 4424   0.827   7.200   7.346  0.2326 -0.7546 -0.1754
  757MOL0     H 4425   0.757   7.528   7.320 -0.5251 -0.1671 -0.6526
  757MOL0     H 4426   0.658   7.480   7.460  0.6464  1.1612  0.5796
  757MOL0     H 4427   0.682   7.372   7.322 -1.5622 -0.6292  0.4070
  757MOL0     H 4428   0.806   7.773   7.815 -0.7913 -0.5958 -0.8907
  757MOL0     H 4429   0.803   8.018   7.848 -0.5811  0.7500  0.1048
  757MOL0     H 4430   0.749   8.263   7.486  0.8145 -2.3265 -0.4030
  757MOL0     H 4431   0.638   8.291   7.630  1.0545  0.8628  3.2200
  757MOL0     H 4432   0.727   8.508   7.545  2.1001  2.0527  0.4707
  757MOL0     H 4433   0.743   8.457   7.716 -0.2503 -1.5685 -0.6927
  757MOL0     H 4434   0.977   8.460   7.517  2.6937 -1.8883  0.1860
  757MOL0     H 4435   0.989   8.446   7.683 -0.4431  0.0918  2.1129
  757MOL0     H 4436   0.915   8.632   7.743 -2.2391 -2.3495 -1.0991
  757MOL0     H 4437   0.830   8.687   7.593  0.0312 -1.0049 -0.7404
  757MOL0     H 4438   1.144   8.657   7.617  2.5989  4.2590 -2.4200
  757MOL0     H 4439   1.050   8.675   7.465 -2.4683  0.8566  0.7677
  757MOL0     H 4440   1.003   8.900   7.513 -0.3102  2.1542  0.7855
  757MOL0     H 4441   1.159   8.872   7.559 -1.4216 -0.8273 -3.8368
  757MOL0     H 4442   0.929   8.866   7.757 -0.3574 -2.7470 -4.3487
  757MOL0     H 4443   1.036   9.008   7.718  1.0540 -1.2153 -3.8318
  757MOL0     H 4444   1.133   8.763   7.873 -3.7774 -1.4355 -5.2412
  757MOL0     H 4445   1.109   8.918   7.944 -3.7035 -2.3697  0.9612
  757MOL0     H 4446   0.749   8.073   7.426 -2.7108 -0.6973  0.2659
  757MOL0     H 4447   0.775   7.823   7.382  0.8197 -2.2715  0.3697
  757MOL0     H 4448   1.112   7.411   7.688  1.0097 -1.2203  0.3836
  757MOL0     H 4449   1.175   7.203   7.597 -0.1822  0.2854 -0.9346
  757MOL0     H 4450   1.022   7.122   5.969  1.1415 -3.0505  0.8646
  757MOL0     H 4451   1.114   7.151   5.752  1.0208 -2.3910 -1.7970
  757MOL0     H 4452   1.044   7.047   5.300  0.3789 -0.8792 -2.6226
  757MOL0     H 4453   1.119   7.101   5.091  4.0060  1.7416  0.7250
  757MOL0     H 4454   1.006   7.521   4.917  3.2269 -0.8916  3.9732
  757MOL0     H 4455   1.109   7.447   4.789 -1.1219 -1.3986 -1.4973
  757MOL0     H 4456   0.828   7.365   4.826  1.7762 -1.8112  0.6255
  757MOL0     H 4457   0.957   7.286   4.715 -0.3174  0.3918 -2.5887
  757MOL0     H 4458   0.773   7.447   4.624 -0.4625 -0.7363  2.7625
  757MOL0     H 4459   0.861   7.568   4.719 -2.5201  0.0458 -0.6573
  757MOL0     H 4460   1.045   7.556   4.546  0.1736  0.4204 -0.0392
  757MOL0     H 4461   0.891   7.562   4.457 -2.5302 -1.8556 -0.2110
  757MOL0     H 4462   0.982   7.182   4.332 -1.8378 -1.0374 -0.2887
  757MOL0     H 4463   0.941   7.490   5.110 -1.1508  1.0814  1.0788
  757MOL0     H 4464   0.796   7.453   5.432 -0.4509  2.1963  0.5914
  757MOL0     H 4465   0.964   7.529   5.409 -0.0839  1.3144  0.3517
  757MOL0     H 4466   0.840   7.551   5.295  0.5657 -2.0277 -2.5948
  758MOL0     O 4467   9.638  10.033   4.270 -0.4392 -0.8489 -0.1906
  758MOL0     C 4468   9.676   9.921   4.237 -0.5549 -0.1475 -0.0295
  758MOL0     O 4469   9.780   9.858   4.291 -0.3125  0.4267 -0.4521
  758MOL0     C 4470   9.855   9.907   4.395 -0.8297 -0.7198  0.1166
  758MOL0     C 4471   9.931   9.813   4.472 -0.3500  0.4760  0.2137
  758MOL0     C 4472  10.005   9.849   4.581 -0.5017 -0.0504 -0.6347
  758MOL0     C 4473  10.012   9.980   4.631  0.4277 -0.1655  0.6991
  758MOL0     O 4474  10.075  10.015   4.747  0.3309  0.2377  0.2967
  758MOL0     C 4475  10.216  10.037   4.737 -0.6992 -0.0772 -0.4539
  758MOL0     C 4476  10.303   9.944   4.816 -0.9375 -0.3822  0.4067
  758MOL0     C 4477  10.276   9.960   4.957  0.0290  0.2170  0.0300
  758MOL0     C 4478  10.368   9.887   5.057  0.1958 -0.0062 -0.7514
  758MOL0     C 4479  10.512   9.954   5.061  0.6888  1.0748  0.7926
  758MOL0     C 4480  10.521  10.074   5.144  1.0199  0.4038  1.2212
  758MOL0     C 4481  10.636  10.158   5.102 -0.0828  0.3495 -0.0941
  758MOL0     C 4482  10.664  10.287   5.188  0.0244  0.5898  0.0349
  758MOL0     N 4483  10.780  10.359   5.127 -0.4575  0.2423  0.9890
  758MOL0     C 4484  10.828  10.484   5.160  0.4693  0.6193 -0.5501
  758MOL0     C 4485  10.894  10.531   5.050  0.3094 -0.0127  0.2702
  758MOL0     C 4486  10.967  10.659   5.039  0.5527  0.6325 -0.5286
  758MOL0     C 4487  10.931  10.724   4.911 -0.1834 -0.3293 -0.3240
  758MOL0     C 4488  11.027  10.839   4.891 -0.3826 -0.8207 -0.4191
  758MOL0     C 4489  11.032  10.913   4.750 -0.0201  0.5208 -0.6359
  758MOL0     O 4490  10.931  11.018   4.744 -0.2775  0.1962  0.4410
  758MOL0     C 4491  10.801  10.995   4.731  0.4574  0.0024  0.2031
  758MOL0     C 4492  10.742  10.883   4.675 -0.4897  0.5561 -1.1426
  758MOL0     C 4493  10.615  10.863   4.678  1.0524 -0.0832  0.3507
  758MOL0     C 4494  10.565  10.726   4.624 -0.6566 -0.6216  0.2319
  758MOL0     C 4495  10.525  10.960   4.741  0.6234  0.7665  0.4094
  758MOL0     C 4496  10.376  10.931   4.764 -0.5261 -0.0484  0.4617
  758MOL0     O 4497  10.303  10.873   4.667  0.4228  0.2438 -0.6578
  758MOL0     C 4498  10.169  10.858   4.700  0.3883  1.2560  0.2913
  758MOL0     C 4499  10.116  10.735   4.728  0.7194  0.0585 -0.8798
  758MOL0     C 4500   9.983  10.717   4.774 -0.5669 -0.1400 -0.1493
  758MOL0     C 4501   9.905  10.826   4.803 -0.0303 -0.2511  0.3597
  758MOL0     O 4502   9.775  10.807   4.841 -0.9535 -0.1461  0.2012
  758MOL0     C 4503   9.757  10.716   4.958 -0.6414 -0.1446 -0.2758
  758MOL0     C 4504   9.617  10.743   5.012  0.4214  0.3092 -0.1290
  758MOL0     C 4505   9.515  10.656   4.930  0.3125  0.4371  0.6874
  758MOL0     C 4506   9.368  10.698   4.959 -0.8463 -0.4088 -0.7072
  758MOL0     C 4507   9.271  10.630   4.870 -0.3253  0.1575 -0.1850
  758MOL0     C 4508   9.144  10.712   4.849 -0.3126  1.0335 -0.7499
  758MOL0     C 4509   9.070  10.752   4.977  0.3589  0.3403  1.1556
  758MOL0     C 4510   9.104  10.888   5.018  0.1202 -0.0833  0.3453
  758MOL0    Cl 4511   9.079  11.005   4.904  0.3627 -0.2949  0.2115
  758MOL0     C 4512   9.953  10.955   4.790  0.1874  0.1819  0.0761
  758MOL0     C 4513  10.083  10.966   4.750  0.2930 -1.4332  0.3023
  758MOL0     O 4514  10.342  10.971   4.877 -0.6543  0.3911 -0.8096
  758MOL0     C 4515  10.581  11.080   4.772  0.4561 -0.6509  0.3892
  758MOL0     C 4516  10.719  11.091   4.786  0.9010  0.5731  0.0366
  758MOL0     N 4517  10.904  10.431   4.953 -0.2714 -0.1690 -0.4766
  758MOL0     N 4518  10.833  10.342   4.996 -0.1463  0.3942 -0.5701
  758MOL0     C 4519   9.939  10.075   4.560 -0.7731  0.5619 -0.8129
  758MOL0     C 4520   9.867  10.045   4.448 -0.5093  0.0238  0.2370
  758MOL0     C 4521   9.587   9.855   4.134  0.2346  0.2603  0.4566
  758MOL0     C 4522   9.601   9.711   4.129  0.5178  0.0601 -0.4619
  758MOL0     C 4523   9.506   9.642   4.051 -0.9393 -0.1784  0.4956
  758MOL0     C 4524   9.405   9.705   3.977  0.1567  0.8543 -0.2385
  758MOL0     O 4525   9.312   9.626   3.918  0.3397  0.7620 -0.2069
  758MOL0     C 4526   9.206   9.689   3.842 -0.1419 -0.4887  0.2410
  758MOL0     C 4527   9.105   9.574   3.809 -0.4155 -0.3844  0.1608
  758MOL0     C 4528   8.982   9.622   3.731 -0.0552 -0.1662 -0.1208
  758MOL0     C 4529   9.027   9.703   3.607  0.5050  0.6899  0.9630
  758MOL0     C 4530   9.109   9.633   3.506  0.2958 -0.0472  0.2116
  758MOL0     C 4531   9.153   9.575   3.405  0.0727 -0.2474  0.2436
  758MOL0     C 4532   9.403   9.847   3.975  0.0665  0.1247  0.1262
  758MOL0     C 4533   9.488   9.927   4.055  0.4165 -0.5272  1.1623
  758MOL0     C 4534   9.484  10.080   4.042 -0.3113  0.1310 -0.0440
  758MOL0     H 4535   9.914   9.706   4.462 -3.2693  0.8886 -0.3519
  758MOL0     H 4536  10.038   9.760   4.634 -0.9283  0.0771 -0.1524
  758MOL0     H 4537  10.233  10.140   4.768  0.7523 -0.5928  0.6238
  758MOL0     H 4538  10.259  10.023   4.637 -0.8808 -2.8500 -0.2276
  758MOL0     H 4539  10.281   9.846   4.773  0.0306  0.3652 -1.9679
  758MOL0     H 4540  10.410   9.965   4.809 -1.1047  1.5195  2.4745
  758MOL0     H 4541  10.268  10.064   4.990  2.7163  0.4182  0.2773
  758MOL0     H 4542  10.183   9.904   4.965  0.2189 -0.4357 -1.8472
  758MOL0     H 4543  10.331   9.889   5.159 -1.1129 -0.3910 -1.1987
  758MOL0     H 4544  10.374   9.782   5.026  0.8861 -0.0324 -0.5405
  758MOL0     H 4545  10.538   9.961   4.955 -0.0994 -1.2822  0.3710
  758MOL0     H 4546  10.588   9.884   5.099  2.0238  1.3769 -1.1860
  758MOL0     H 4547  10.426  10.127   5.131  0.8285 -0.1733  0.2095
  758MOL0     H 4548  10.530  10.040   5.247 -1.0436  0.2549  1.4100
  758MOL0     H 4549  10.634  10.166   4.993  1.9722 -0.5027 -0.2262
  758MOL0     H 4550  10.720  10.091   5.125  0.0358  0.9027  1.1487
  758MOL0     H 4551  10.570  10.342   5.183 -1.7813 -2.0130  2.6829
  758MOL0     H 4552  10.675  10.266   5.294  0.1249  1.2830  0.1672
  758MOL0     H 4553  10.815  10.535   5.254 -1.4438  4.3440 -2.6248
  758MOL0     H 4554  11.073  10.633   5.030  0.1235 -1.3378 -0.2955
  758MOL0     H 4555  10.952  10.726   5.124  2.8294  1.3508 -0.6290
  758MOL0     H 4556  10.956  10.655   4.829  0.5961 -1.2791  0.6733
  758MOL0     H 4557  10.828  10.761   4.914  0.6949  2.2777  1.3015
  758MOL0     H 4558  11.013  10.918   4.965  4.3756  1.3055 -1.4328
  758MOL0     H 4559  11.129  10.808   4.916  0.1062  1.2255  0.3393
  758MOL0     H 4560  11.131  10.955   4.730  2.1969 -3.4471  0.8783
  758MOL0     H 4561  11.016  10.840   4.670 -0.4806  0.3313 -0.3760
  758MOL0     H 4562  10.810  10.808   4.637 -3.6684 -0.7657 -4.9958
  758MOL0     H 4563  10.639  10.676   4.561  0.4822  0.4371  0.6847
  758MOL0     H 4564  10.482  10.743   4.556  1.2520  3.8322 -1.3652
  758MOL0     H 4565  10.523  10.661   4.701 -3.4098 -1.5686 -1.9142
  758MOL0     H 4566  10.168  10.640   4.716  0.6237 -0.0921 -0.1480
  758MOL0     H 4567   9.943  10.616   4.781 -0.6011 -0.2930 -2.0771
  758MOL0     H 4568   9.772  10.611   4.932 -1.3087  0.1830 -2.1561
  758MOL0     H 4569   9.827  10.742   5.038  2.6012 -0.4908 -2.8014
  758MOL0     H 4570   9.615  10.698   5.112 -3.7418 -0.5148 -0.4035
  758MOL0     H 4571   9.595  10.850   5.011  1.8680  0.6546 -2.7096
  758MOL0     H 4572   9.533  10.551   4.956  0.4402  1.3061  4.7214
  758MOL0     H 4573   9.540  10.668   4.824 -0.9177 -2.3972 -0.0214
  758MOL0     H 4574   9.369  10.805   4.938  3.6997 -0.3960 -1.5383
  758MOL0     H 4575   9.352  10.680   5.066 -1.6899 -1.4255 -0.9962
  758MOL0     H 4576   9.319  10.608   4.775  1.5080 -1.3833  1.0280
  758MOL0     H 4577   9.235  10.537   4.915 -1.1916 -0.0923 -1.3716
  758MOL0     H 4578   9.080  10.655   4.780 -2.3362  2.4446 -0.1353
  758MOL0     H 4579   9.173  10.800   4.791 -0.8128 -0.1840 -2.9994
  758MOL0     H 4580   9.094  10.688   5.062  0.6013  0.7906  1.4239
  758MOL0     H 4581   8.963  10.747   4.953  0.7298  0.3937 -0.6645
  758MOL0     H 4582   9.210  10.890   5.044  0.3644  0.3643 -0.6692
  758MOL0     H 4583   9.041  10.926   5.100 -0.6270 -0.3867 -0.0819
  758MOL0     H 4584   9.898  11.049   4.792  0.0654  0.1058  2.1255
  758MOL0     H 4585  10.119  11.068   4.755  5.0470 -2.8526  0.3004
  758MOL0     H 4586  10.512  11.161   4.792 -0.7791 -0.7460 -2.8413
  758MOL0     H 4587  10.759  11.188   4.815  5.1716  0.0252 -3.0483
  758MOL0     H 4588   9.935  10.179   4.590 -1.9425  0.5410 -0.8321
  758MOL0     H 4589   9.808  10.127   4.408 -0.3981 -0.2381 -0.4747
  758MOL0     H 4590   9.675   9.663   4.191 -0.2570  0.4420  0.8073
  758MOL0     H 4591   9.485   9.535   4.053 -0.5198 -0.2521  1.5787
  758MOL0     H 4592   9.157   9.763   3.906 -0.7075  0.5850 -1.3843
  758MOL0     H 4593   9.245   9.748   3.759 -1.2497 -0.0957 -0.0159
  758MOL0     H 4594   9.074   9.538   3.908  1.3039  0.5994  1.1091
  758MOL0     H 4595   9.156   9.497   3.750  0.1696 -1.1681  1.6316
  758MOL0     H 4596   8.917   9.543   3.693 -0.5731  0.4551 -0.5388
  758MOL0     H 4597   8.919   9.686   3.794 -1.6587  1.6452 -3.3381
  758MOL0     H 4598   9.053   9.801   3.648  1.2423 -0.3369  3.1038
  758MOL0     H 4599   8.935   9.718   3.551  1.2632 -0.3704 -0.6406
  758MOL0     H 4600   9.174   9.526   3.312 -3.1383  1.1819 -1.4051
  758MOL0     H 4601   9.340   9.890   3.898 -0.2286 -2.7729 -1.4105
  758MOL0     H 4602   9.574  10.124   3.999  0.5890 -0.7364  0.8974
  758MOL0     H 4603   9.402  10.118   3.980  0.3461  1.3436 -0.1935
  758MOL0     H 4604   9.469  10.139   4.132  1.9176  2.1885 -0.9242
  759MOL0     O 4605   8.494   6.385   4.225 -0.1209 -0.1888 -0.1911
  759MOL0     C 4606   8.399   6.319   4.195 -0.1840  0.5369  0.1833
  759MOL0     O 4607   8.341   6.233   4.287 -0.2854  0.2791 -0.1529
  759MOL0     C 4608   8.373   6.245   4.419  0.3321  0.0156 -0.4225
  759MOL0     C 4609   8.439   6.144   4.486  0.0481 -0.0448  0.2327
  759MOL0     C 4610   8.471   6.147   4.622  0.1626  0.0708  0.2584
  759MOL0     C 4611   8.436   6.248   4.710 -0.6492  0.0243  0.4434
  759MOL0     O 4612   8.460   6.234   4.843 -0.1898 -0.3040  0.2543
  759MOL0     C 4613   8.493   6.353   4.916  0.0336 -0.3248  0.3205
  759MOL0     C 4614   8.639   6.404   4.899  0.4170 -0.3306  0.5092
  759MOL0     C 4615   8.645   6.532   4.975 -0.8235 -0.7839  0.0635
  759MOL0     C 4616   8.790   6.586   5.020 -0.4287 -0.4172 -0.7168
  759MOL0     C 4617   8.815   6.735   5.002 -0.0740 -0.7053 -0.1682
  759MOL0     C 4618   8.958   6.779   5.038  0.3464  0.0455  0.1224
  759MOL0     C 4619   8.985   6.930   5.001  0.1804  0.2408  0.4874
  759MOL0     C 4620   9.002   6.950   4.853 -0.4828  0.8929 -0.7920
  759MOL0     N 4621   9.132   6.899   4.807 -0.6242  0.2824  0.0051
  759MOL0     C 4622   9.260   6.944   4.843 -0.1078  0.7371  0.8750
  759MOL0     C 4623   9.351   6.880   4.763 -0.5858  0.2407  0.6592
  759MOL0     C 4624   9.501   6.891   4.742 -0.8447 -0.7787  0.7719
  759MOL0     C 4625   9.591   6.764   4.792  1.4734  0.1072 -0.4891
  759MOL0     C 4626   9.615   6.765   4.946  0.1875 -0.2182  0.7207
  759MOL0     C 4627   9.511   6.694   5.030  1.1529 -0.3928  0.6726
  759MOL0     O 4628   9.436   6.798   5.105 -0.2130  0.0305  1.0100
  759MOL0     C 4629   9.346   6.770   5.202 -0.2330 -0.7852  0.7418
  759MOL0     C 4630   9.306   6.642   5.241 -0.2088 -0.7220  0.2252
  759MOL0     C 4631   9.196   6.626   5.332 -0.3509 -0.2748  0.3927
  759MOL0     C 4632   9.123   6.494   5.316 -0.6649  0.5891 -0.3775
  759MOL0     C 4633   9.140   6.747   5.389 -0.3398  0.1982  0.1717
  759MOL0     C 4634   9.032   6.739   5.499  0.5089  0.1504  0.0278
  759MOL0     O 4635   9.020   6.852   5.576  0.3395 -0.7427  0.9214
  759MOL0     C 4636   8.931   6.863   5.683 -0.1585  1.2798  0.6654
  759MOL0     C 4637   8.792   6.840   5.666  0.3414  0.9252  0.2900
  759MOL0     C 4638   8.700   6.850   5.774  0.4080 -0.4877  0.0676
  759MOL0     C 4639   8.742   6.895   5.902 -0.3890 -0.4111 -0.5630
  759MOL0     O 4640   8.675   6.942   6.015 -0.4119  0.1974  0.6004
  759MOL0     C 4641   8.543   6.986   6.000 -0.5040  0.3915 -0.6733
  759MOL0     C 4642   8.511   7.069   6.120  0.8931 -0.0168 -0.0674
  759MOL0     C 4643   8.609   7.169   6.154  0.5879 -0.7831 -0.3866
  759MOL0     C 4644   8.594   7.290   6.061 -0.0888  0.8942 -0.1085
  759MOL0     C 4645   8.665   7.417   6.100 -0.2234  0.0174 -1.0533
  759MOL0     C 4646   8.569   7.506   6.174 -0.5924 -0.2009 -0.5768
  759MOL0     C 4647   8.625   7.639   6.224 -0.0623  0.6127  0.1563
  759MOL0     C 4648   8.681   7.628   6.369  1.1153 -0.3810 -0.6499
  759MOL0    Cl 4649   8.845   7.552   6.395  0.0745 -0.1953  0.3595
  759MOL0     C 4650   8.878   6.915   5.911 -0.3403  0.7122 -0.8488
  759MOL0     C 4651   8.969   6.899   5.812  0.1883 -0.4476  0.7883
  759MOL0     O 4652   8.964   6.639   5.515  0.5597  0.4935  0.2229
  759MOL0     C 4653   9.191   6.882   5.351  1.0712  0.1796 -0.4498
  759MOL0     C 4654   9.288   6.885   5.255  0.4693 -0.0240  0.3845
  759MOL0     N 4655   9.279   6.782   4.706  0.4588 -0.4936  0.5803
  759MOL0     N 4656   9.151   6.794   4.723 -1.2130 -0.0791 -0.2798
  759MOL0     C 4657   8.360   6.346   4.645  0.4915 -0.5682  0.3568
  759MOL0     C 4658   8.334   6.346   4.510  0.6661  0.3703 -0.0670
  759MOL0     C 4659   8.374   6.287   4.050  1.3078 -0.0499  1.0587
  759MOL0     C 4660   8.340   6.154   4.010  0.4720 -1.5474 -0.5466
  759MOL0     C 4661   8.326   6.122   3.876  0.4131 -1.0861  0.8962
  759MOL0     C 4662   8.355   6.213   3.774 -0.1898 -0.1408 -0.3763
  759MOL0     O 4663   8.362   6.152   3.650 -0.6986 -0.2485 -0.1129
  759MOL0     C 4664   8.325   6.240   3.547  0.0674  0.1782 -0.0819
  759MOL0     C 4665   8.271   6.169   3.423 -0.1012  0.2946  0.4124
  759MOL0     C 4666   8.212   6.257   3.317  1.0192  0.2402  0.7854
  759MOL0     C 4667   8.303   6.349   3.233 -0.1195  0.2291  0.1924
  759MOL0     C 4668   8.327   6.474   3.296 -0.0527  0.1499  0.0197
  759MOL0     C 4669   8.333   6.578   3.353  0.0691  1.0079  0.1022
  759MOL0     C 4670   8.389   6.344   3.803  0.3625  0.2956 -0.3122
  759MOL0     C 4671   8.391   6.385   3.941  0.5002  0.0751  0.9540
  759MOL0     C 4672   8.412   6.530   3.978 -0.7440  0.2769  0.3484
  759MOL0     H 4673   8.467   6.057   4.428 -2.5866 -0.6620 -0.2504
  759MOL0     H 4674   8.510   6.061   4.676  3.3200  1.2849  0.0824
  759MOL0     H 4675   8.492   6.321   5.021 -0.7706  0.1627  0.4704
  759MOL0     H 4676   8.413   6.427   4.908 -0.1143 -0.6397 -1.5986
  759MOL0     H 4677   8.706   6.328   4.939 -0.4789 -1.1972  0.3979
  759MOL0     H 4678   8.677   6.424   4.798  0.1398  0.5973  0.5733
  759MOL0     H 4679   8.599   6.607   4.911  0.6111 -2.0166 -2.5516
  759MOL0     H 4680   8.583   6.522   5.065  0.6586 -1.1273  1.0958
  759MOL0     H 4681   8.804   6.559   5.125 -0.9009  2.0099  0.0442
  759MOL0     H 4682   8.867   6.539   4.958  0.9819  2.3230 -1.2124
  759MOL0     H 4683   8.741   6.799   5.052  1.6020  2.6901 -1.7054
  759MOL0     H 4684   8.792   6.756   4.897  0.6611 -0.9922 -0.3921
  759MOL0     H 4685   8.962   6.770   5.147 -0.7558 -2.7910  0.0117
  759MOL0     H 4686   9.035   6.723   4.984  1.0760  2.2730 -1.3028
  759MOL0     H 4687   9.074   6.969   5.052  1.9016 -0.2324 -1.9833
  759MOL0     H 4688   8.898   6.989   5.032  0.4688  1.1746 -0.4569
  759MOL0     H 4689   8.929   6.893   4.795  0.2514 -0.4615 -0.4252
  759MOL0     H 4690   8.995   7.054   4.820 -3.3142  1.4286  1.0852
  759MOL0     H 4691   9.287   7.030   4.903  1.3964 -0.5507  2.1332
  759MOL0     H 4692   9.547   6.982   4.781 -3.0761  0.7649  0.0026
  759MOL0     H 4693   9.520   6.888   4.635 -1.5845 -2.2847  0.6602
  759MOL0     H 4694   9.552   6.665   4.768  2.2868  0.3067 -2.9822
  759MOL0     H 4695   9.682   6.766   4.731  0.3560 -2.7874 -2.4519
  759MOL0     H 4696   9.705   6.704   4.959  2.2151  1.9220 -1.9490
  759MOL0     H 4697   9.630   6.867   4.984 -0.9385  0.1140  0.2985
  759MOL0     H 4698   9.432   6.644   4.973  0.6070  0.2059  0.8918
  759MOL0     H 4699   9.557   6.619   5.095  1.0743 -4.2704 -3.2525
  759MOL0     H 4700   9.340   6.548   5.200  2.4192 -0.2118  1.0826
  759MOL0     H 4701   9.099   6.467   5.420  4.3235  2.7008  1.6665
  759MOL0     H 4702   9.172   6.415   5.258  0.0832  0.5644  0.2644
  759MOL0     H 4703   9.034   6.508   5.255 -1.3178 -1.0347  0.1419
  759MOL0     H 4704   8.762   6.789   5.576  0.7666 -0.7250  1.0384
  759MOL0     H 4705   8.593   6.834   5.766  0.0170  1.7000  0.2142
  759MOL0     H 4706   8.534   7.056   5.916  2.6807 -0.9397 -2.2873
  759MOL0     H 4707   8.475   6.905   5.975 -3.0537  2.1141  0.2520
  759MOL0     H 4708   8.413   7.118   6.120  0.6538 -0.4772  1.0903
  759MOL0     H 4709   8.502   6.984   6.189 -0.4607 -1.8533 -2.3412
  759MOL0     H 4710   8.713   7.134   6.154  0.5025 -1.0412 -0.6451
  759MOL0     H 4711   8.587   7.184   6.260  2.6339  0.2517 -0.0548
  759MOL0     H 4712   8.486   7.299   6.047 -0.3324 -2.1312 -0.7601
  759MOL0     H 4713   8.635   7.260   5.965 -2.3935 -2.2919 -0.2636
  759MOL0     H 4714   8.759   7.411   6.156 -0.2648  1.7949 -0.7544
  759MOL0     H 4715   8.694   7.470   6.010  0.4958  0.3535 -0.6382
  759MOL0     H 4716   8.524   7.445   6.253 -1.6480 -0.8733 -1.6593
  759MOL0     H 4717   8.493   7.538   6.102 -0.7812 -0.2616 -0.4055
  759MOL0     H 4718   8.540   7.708   6.217 -1.1299 -0.8061 -1.5219
  759MOL0     H 4719   8.702   7.665   6.151 -0.5737 -0.7389 -0.9194
  759MOL0     H 4720   8.613   7.567   6.429  0.0882  1.3924  0.0578
  759MOL0     H 4721   8.680   7.720   6.428  2.3208 -1.6169  1.4244
  759MOL0     H 4722   8.922   6.947   6.005  0.6206 -1.7259 -0.3735
  759MOL0     H 4723   9.074   6.914   5.838  1.3234 -4.2775 -0.8346
  759MOL0     H 4724   9.152   6.979   5.382 -1.0791 -0.9079  0.4573
  759MOL0     H 4725   9.312   6.981   5.212 -3.7694  0.4026 -1.6028
  759MOL0     H 4726   8.317   6.431   4.697  0.2505 -0.7036  0.3791
  759MOL0     H 4727   8.292   6.440   4.475  1.3789  1.2165  1.2752
  759MOL0     H 4728   8.351   6.088   4.095 -2.3780 -0.3494  0.8689
  759MOL0     H 4729   8.302   6.019   3.850  1.9037 -0.9868 -1.1061
  759MOL0     H 4730   8.243   6.297   3.593 -1.0039 -1.8601  0.6712
  759MOL0     H 4731   8.397   6.317   3.520 -2.5740  3.6914  1.9021
  759MOL0     H 4732   8.198   6.095   3.458  0.1801  1.0935  2.8801
  759MOL0     H 4733   8.341   6.104   3.371  0.6789  1.6397 -0.2798
  759MOL0     H 4734   8.145   6.205   3.248  4.1423 -0.1193 -2.2793
  759MOL0     H 4735   8.137   6.320   3.367  0.8512  0.0353  0.7924
  759MOL0     H 4736   8.273   6.355   3.127 -0.7169 -0.9819  0.2862
  759MOL0     H 4737   8.402   6.305   3.237 -0.0165  0.5599  2.1842
  759MOL0     H 4738   8.351   6.682   3.374 -0.6149  1.8594 -3.0600
  759MOL0     H 4739   8.398   6.407   3.715 -1.8073  1.2984  0.1077
  759MOL0     H 4740   8.501   6.560   4.033 -1.3249  2.1058  0.3319
  759MOL0     H 4741   8.407   6.592   3.889  2.1025 -0.0590 -0.1398
  759MOL0     H 4742   8.334   6.574   4.041 -0.4425 -0.1142  1.0048
  760MOL0     O 4743   2.258   6.272   3.226  0.1937  0.4791  0.3603
  760MOL0     C 4744   2.144   6.301   3.182  0.3972  0.0743  0.3915
  760MOL0     O 4745   2.048   6.213   3.149 -0.1077  0.3773 -0.6539
  760MOL0     C 4746   2.058   6.073   3.168 -1.0200 -0.4218 -1.1528
  760MOL0     C 4747   1.972   5.998   3.091 -0.4294 -0.8278  0.2987
  760MOL0     C 4748   1.975   5.865   3.109  0.5711  0.4326 -0.4282
  760MOL0     C 4749   2.045   5.798   3.217 -0.5785 -0.0819  0.3498
  760MOL0     O 4750   2.024   5.663   3.246  0.3084  0.0422 -0.1495
  760MOL0     C 4751   2.024   5.573   3.139  0.6569 -0.1421  0.1766
  760MOL0     C 4752   2.162   5.575   3.073  0.5152  0.1342  0.1117
  760MOL0     C 4753   2.261   5.557   3.193 -0.4995 -1.1740  0.2243
  760MOL0     C 4754   2.401   5.532   3.142  0.8816 -0.2564 -0.8851
  760MOL0     C 4755   2.510   5.540   3.236  0.6956 -0.2825 -0.1622
  760MOL0     C 4756   2.502   5.431   3.347  0.0056  0.7430 -0.1150
  760MOL0     C 4757   2.633   5.427   3.442  1.0197  0.0733 -0.3360
  760MOL0     C 4758   2.765   5.414   3.367  0.0895 -0.2104  0.3749
  760MOL0     N 4759   2.774   5.288   3.299  0.2840  0.6183  0.0733
  760MOL0     C 4760   2.777   5.268   3.169  0.0157 -1.2900  0.2094
  760MOL0     C 4761   2.791   5.130   3.153 -0.2294 -0.3314  0.2835
  760MOL0     C 4762   2.816   5.051   3.025  0.9949 -0.1366  0.1366
  760MOL0     C 4763   2.928   5.107   2.930 -0.0797 -0.1962 -0.5953
  760MOL0     C 4764   3.070   5.079   2.987  0.3226  0.1660 -0.0706
  760MOL0     C 4765   3.185   5.147   2.923 -0.4380  0.9651  0.0908
  760MOL0     O 4766   3.174   5.285   2.930 -0.1256 -0.3010 -0.2485
  760MOL0     C 4767   3.276   5.367   2.883 -0.5453  1.0224  0.1414
  760MOL0     C 4768   3.251   5.498   2.873 -0.5118 -1.1912 -0.4300
  760MOL0     C 4769   3.354   5.593   2.836  0.5653 -0.1290 -1.0160
  760MOL0     C 4770   3.310   5.739   2.833 -0.1028 -0.0357  0.0552
  760MOL0     C 4771   3.470   5.538   2.789 -0.8503  0.1276  0.9781
  760MOL0     C 4772   3.572   5.616   2.704  0.2438 -1.0744  0.0198
  760MOL0     O 4773   3.650   5.538   2.609 -0.6149  0.2900 -0.8682
  760MOL0     C 4774   3.707   5.616   2.511  0.2059 -0.0269 -0.7704
  760MOL0     C 4775   3.646   5.674   2.404 -0.3454 -0.2152 -0.7879
  760MOL0     C 4776   3.711   5.738   2.299  0.3667 -0.7120 -1.3836
  760MOL0     C 4777   3.843   5.754   2.312 -0.2068  0.1347 -1.0104
  760MOL0     O 4778   3.910   5.809   2.207  0.3454  0.4582  0.5935
  760MOL0     C 4779   3.864   5.770   2.073 -0.7757 -0.4760  0.3332
  760MOL0     C 4780   3.962   5.833   1.971  0.2412  0.1578 -0.5577
  760MOL0     C 4781   3.914   5.962   1.913 -0.1597  0.4090  0.5039
  760MOL0     C 4782   4.016   6.048   1.836 -0.2415 -0.7754 -0.1025
  760MOL0     C 4783   4.066   5.990   1.711 -0.0498 -0.8825 -0.6465
  760MOL0     C 4784   4.224   5.972   1.713 -0.0832 -0.5920 -0.2530
  760MOL0     C 4785   4.294   6.112   1.709  0.4406 -0.1817 -0.1280
  760MOL0     C 4786   4.442   6.090   1.654  0.0270 -0.6038  0.1957
  760MOL0    Cl 4787   4.432   6.085   1.478 -0.0916 -0.1735  0.1397
  760MOL0     C 4788   3.917   5.701   2.418 -0.4832 -0.9796 -0.5570
  760MOL0     C 4789   3.844   5.635   2.526 -0.6899 -0.2800  0.4278
  760MOL0     O 4790   3.577   5.742   2.714  0.5115 -0.3597 -0.6425
  760MOL0     C 4791   3.496   5.403   2.805 -0.0341  0.4294  0.2380
  760MOL0     C 4792   3.396   5.320   2.847 -1.4562  0.8059 -0.8981
  760MOL0     N 4793   2.789   5.075   3.279  0.2685 -1.1231  0.7613
  760MOL0     N 4794   2.768   5.165   3.359  0.5321 -1.0614  0.4800
  760MOL0     C 4795   2.118   5.874   3.308 -0.1411 -0.0387 -0.4886
  760MOL0     C 4796   2.131   6.012   3.279  0.3594 -1.1532 -0.7761
  760MOL0     C 4797   2.114   6.441   3.137 -0.3740 -0.8007  0.3094
  760MOL0     C 4798   1.982   6.489   3.117  0.1026  0.5970 -0.6543
  760MOL0     C 4799   1.940   6.612   3.070 -0.7045 -0.0560  0.6734
  760MOL0     C 4800   2.033   6.713   3.041  0.0208 -0.0704  0.1503
  760MOL0     O 4801   1.997   6.849   3.011  0.1635  0.4517  0.5640
  760MOL0     C 4802   1.872   6.895   3.066  0.4678  0.1993 -0.3592
  760MOL0     C 4803   1.895   7.034   3.110 -0.1345 -0.9039  0.2555
  760MOL0     C 4804   1.761   7.106   3.127 -0.0672  0.3509  0.6344
  760MOL0     C 4805   1.784   7.261   3.135  0.0502 -0.3486 -0.6142
  760MOL0     C 4806   1.761   7.325   3.013 -0.8177  0.1954  0.6143
  760MOL0     C 4807   1.758   7.370   2.900  0.6042  0.1319 -1.0670
  760MOL0     C 4808   2.171   6.668   3.055  1.3473 -0.5754 -0.1152
  760MOL0     C 4809   2.215   6.535   3.105 -0.7229 -0.5954  0.7440
  760MOL0     C 4810   2.364   6.516   3.103 -0.3115  0.1269  0.7822
  760MOL0     H 4811   1.905   6.044   3.019  1.6949 -0.6730 -1.6839
  760MOL0     H 4812   1.895   5.813   3.057  0.0342 -0.9533  1.6600
  760MOL0     H 4813   1.942   5.600   3.071 -0.2635  1.9432  1.9858
  760MOL0     H 4814   2.000   5.474   3.181 -0.2290  0.3338  0.8466
  760MOL0     H 4815   2.158   5.503   2.991 -0.8393 -0.6364  0.8296
  760MOL0     H 4816   2.185   5.673   3.029  0.1445 -0.3767 -1.2751
  760MOL0     H 4817   2.269   5.647   3.254  1.2291 -1.1944  0.0877
  760MOL0     H 4818   2.227   5.472   3.254 -2.0287 -1.2408 -0.6641
  760MOL0     H 4819   2.412   5.428   3.111  0.7762 -0.2072 -1.0880
  760MOL0     H 4820   2.429   5.606   3.066  3.0739  0.2109  0.2948
  760MOL0     H 4821   2.516   5.632   3.294  0.4963 -0.0939 -0.4369
  760MOL0     H 4822   2.600   5.517   3.179  1.4645 -4.3906  2.2811
  760MOL0     H 4823   2.421   5.475   3.407 -2.8415 -2.9200 -0.9441
  760MOL0     H 4824   2.469   5.334   3.311  2.8723 -0.2120 -0.4388
  760MOL0     H 4825   2.623   5.351   3.519 -0.9653  0.5418 -0.0707
  760MOL0     H 4826   2.633   5.528   3.483 -1.7946  0.8742 -2.0229
  760MOL0     H 4827   2.773   5.497   3.296 -3.5204  2.3613  2.6384
  760MOL0     H 4828   2.843   5.422   3.443 -1.5437  0.8257  2.0311
  760MOL0     H 4829   2.794   5.341   3.090 -1.0238 -0.4502  0.7437
  760MOL0     H 4830   2.722   5.051   2.970 -0.1547  1.9066  1.9575
  760MOL0     H 4831   2.829   4.946   3.052 -1.4205 -1.2360 -2.4619
  760MOL0     H 4832   2.912   5.068   2.829  3.3822 -0.4876 -1.1494
  760MOL0     H 4833   2.905   5.212   2.912 -0.8171 -0.2771 -0.1723
  760MOL0     H 4834   3.072   5.108   3.092  1.6450  1.0801 -0.3241
  760MOL0     H 4835   3.089   4.972   2.988 -2.5148 -0.4973 -1.9104
  760MOL0     H 4836   3.274   5.112   2.976 -0.7483 -0.3719 -0.2358
  760MOL0     H 4837   3.189   5.117   2.818  0.8095 -1.6677  0.7915
  760MOL0     H 4838   3.157   5.546   2.897  0.3513  1.1704 -1.5240
  760MOL0     H 4839   3.382   5.812   2.871 -0.5236  0.4222 -0.0213
  760MOL0     H 4840   3.222   5.746   2.896  0.2322  2.5309  0.3247
  760MOL0     H 4841   3.280   5.766   2.731 -4.0207  0.9556  1.3082
  760MOL0     H 4842   3.541   5.647   2.401 -0.0352 -2.8227  3.3621
  760MOL0     H 4843   3.657   5.785   2.217  2.3444 -0.0078 -2.3485
  760MOL0     H 4844   3.890   5.665   2.059 -2.8678 -0.8172 -1.4852
  760MOL0     H 4845   3.761   5.800   2.056 -0.6106 -1.2716 -2.5331
  760MOL0     H 4846   4.062   5.855   2.007  0.5478  2.0215 -2.3176
  760MOL0     H 4847   3.972   5.757   1.892  2.9307 -0.3451  0.1841
  760MOL0     H 4848   3.881   6.030   1.992 -1.6071  0.3076  0.0047
  760MOL0     H 4849   3.828   5.942   1.848  1.0540 -2.4392 -0.3714
  760MOL0     H 4850   4.092   6.078   1.909  0.2770 -3.2264  0.4844
  760MOL0     H 4851   3.973   6.143   1.805 -0.1552 -1.1898 -1.5773
  760MOL0     H 4852   4.035   5.885   1.708 -1.5420 -0.6381  2.6845
  760MOL0     H 4853   4.027   6.044   1.624  2.7053  2.6666  0.1097
  760MOL0     H 4854   4.247   5.913   1.624 -0.4352  0.6166 -1.1704
  760MOL0     H 4855   4.265   5.909   1.793 -1.5353 -1.9834 -0.5536
  760MOL0     H 4856   4.293   6.148   1.813 -2.2993 -1.9526  0.5661
  760MOL0     H 4857   4.229   6.174   1.647 -0.5777 -0.4486  0.6393
  760MOL0     H 4858   4.490   5.997   1.684  0.8464 -0.4566 -0.6085
  760MOL0     H 4859   4.511   6.175   1.668 -0.1627 -0.2654 -0.8259
  760MOL0     H 4860   4.025   5.707   2.426 -0.4551 -0.2693 -1.3280
  760MOL0     H 4861   3.900   5.596   2.610  1.7673 -0.3107 -1.1009
  760MOL0     H 4862   3.594   5.371   2.770  0.2971  0.5241  1.0572
  760MOL0     H 4863   3.424   5.217   2.864  3.1296  2.0728  0.9143
  760MOL0     H 4864   2.158   5.820   3.393  0.4530 -1.9212 -1.9156
  760MOL0     H 4865   2.194   6.063   3.351 -0.2261 -3.3712  1.4491
  760MOL0     H 4866   1.902   6.425   3.153  1.5396 -1.6537 -1.3121
  760MOL0     H 4867   1.834   6.632   3.082 -0.4928 -0.0673  2.8411
  760MOL0     H 4868   1.791   6.875   2.995 -1.0207  0.7385  1.1220
  760MOL0     H 4869   1.847   6.838   3.156  1.1923 -0.1192 -0.3570
  760MOL0     H 4870   1.950   7.095   3.038 -0.5952 -0.6472  0.1175
  760MOL0     H 4871   1.955   7.031   3.202  1.1994 -1.1753 -0.6100
  760MOL0     H 4872   1.698   7.086   3.040  1.8776 -0.2369 -0.7132
  760MOL0     H 4873   1.715   7.085   3.224  2.7016  1.7571  2.4034
  760MOL0     H 4874   1.887   7.281   3.166  0.4049 -1.8438 -0.7339
  760MOL0     H 4875   1.718   7.312   3.206  0.4821 -0.5703 -0.0457
  760MOL0     H 4876   1.744   7.409   2.801  0.3218  0.3916 -0.9255
  760MOL0     H 4877   2.250   6.737   3.031  1.9958 -1.3823 -0.3437
  760MOL0     H 4878   2.404   6.580   3.024 -4.3244  1.6835 -0.1968
  760MOL0     H 4879   2.420   6.545   3.193 -0.2839 -1.6271  1.3824
  760MOL0     H 4880   2.397   6.417   3.069  1.1571  1.2151 -1.1842
  761MOL0     O 4881   5.008  10.263  10.532  0.0958  0.5136  0.6131
  761MOL0     C 4882   5.104  10.218  10.595 -0.2133  0.5200 -1.1723
  761MOL0     O 4883   5.167  10.273  10.709 -0.3117 -0.2744  0.2321
  761MOL0     C 4884   5.116  10.395  10.754 -0.1641 -0.3113 -0.0850
  761MOL0     C 4885   5.114  10.511  10.680  0.6492  1.1390  0.1333
  761MOL0     C 4886   5.048  10.625  10.711 -0.2772 -1.1012 -0.6336
  761MOL0     C 4887   4.985  10.631  10.835  0.3573  0.4544 -0.1286
  761MOL0     O 4888   4.929  10.755  10.857  0.2670 -0.6742  1.1779
  761MOL0     C 4889   4.821  10.765  10.955 -0.5610 -0.2428  0.7039
  761MOL0     C 4890   4.868  10.825  11.083  0.7433  0.6520 -0.2566
  761MOL0     C 4891   4.745  10.833  11.180 -0.3076 -0.6597 -0.0740
  761MOL0     C 4892   4.687  10.973  11.182  0.7859 -0.5877 -0.8989
  761MOL0     C 4893   4.621  11.006  11.317 -0.1964 -0.6143  0.2289
  761MOL0     C 4894   4.487  10.945  11.344  0.3436  0.4141  0.1479
  761MOL0     C 4895   4.436  10.976  11.486  0.6955  0.4772  0.5671
  761MOL0     C 4896   4.464  10.863  11.593  0.1132  0.4088 -0.3047
  761MOL0     N 4897   4.420  10.929  11.717 -0.0277  0.2143  0.1894
  761MOL0     C 4898   4.502  10.979  11.818 -0.1558  0.0864  0.9686
  761MOL0     C 4899   4.411  11.013  11.916 -0.3144  0.3527  1.1592
  761MOL0     C 4900   4.430  11.087  12.045  0.4358  0.1592 -0.1308
  761MOL0     C 4901   4.460  10.991  12.146 -0.0641 -0.2552 -0.9560
  761MOL0     C 4902   4.527  11.052  12.273 -0.5664  0.0073 -0.5086
  761MOL0     C 4903   4.437  11.169  12.331 -0.5266 -0.3671 -0.2188
  761MOL0     O 4904   4.537  11.268  12.370 -0.8219 -0.2578  0.6514
  761MOL0     C 4905   4.617  11.234  12.476 -0.5554 -0.1578  0.9721
  761MOL0     C 4906   4.568  11.169  12.592  0.0343 -0.5214  0.6600
  761MOL0     C 4907   4.645  11.157  12.715 -0.1919  0.4116 -0.3259
  761MOL0     C 4908   4.570  11.097  12.831  0.6610 -0.1891 -0.9533
  761MOL0     C 4909   4.780  11.200  12.721 -0.3558 -0.0423 -0.1858
  761MOL0     C 4910   4.870  11.191  12.834  0.4626  0.4948 -0.3129
  761MOL0     O 4911   5.004  11.228  12.813  0.7928 -0.8746 -0.1882
  761MOL0     C 4912   5.094  11.199  12.917 -0.7345 -0.2934  0.6284
  761MOL0     C 4913   5.196  11.288  12.970  0.7600 -0.5060  0.3084
  761MOL0     C 4914   5.302  11.233  13.052  0.3807  0.2632  0.2641
  761MOL0     C 4915   5.315  11.097  13.088  0.1081  0.1508  1.2921
  761MOL0     O 4916   5.415  11.047  13.168 -0.3481 -0.0616  0.0795
  761MOL0     C 4917   5.453  10.911  13.152 -0.7371  0.2731 -0.8734
  761MOL0     C 4918   5.607  10.908  13.201 -0.1490 -1.0033 -0.2213
  761MOL0     C 4919   5.667  10.764  13.190  0.8149 -1.0667  0.5011
  761MOL0     C 4920   5.577  10.646  13.231  0.4164 -0.4546 -0.4190
  761MOL0     C 4921   5.635  10.508  13.219  0.7351  0.3890  0.3734
  761MOL0     C 4922   5.725  10.472  13.335  0.1873 -0.2455  0.1271
  761MOL0     C 4923   5.841  10.376  13.308 -0.0161 -0.2939  0.7494
  761MOL0     C 4924   5.811  10.245  13.230  0.0287  0.3294  0.5260
  761MOL0    Cl 4925   5.690  10.153  13.325  0.5778  0.1278  0.1874
  761MOL0     C 4926   5.220  11.014  13.017 -0.0631  0.0348 -0.5920
  761MOL0     C 4927   5.112  11.070  12.944  0.2275 -0.1051  0.6151
  761MOL0     O 4928   4.833  11.143  12.941  0.4191 -0.9528  1.2797
  761MOL0     C 4929   4.839  11.249  12.595  0.6798 -0.1634 -0.0027
  761MOL0     C 4930   4.754  11.266  12.476  0.4306 -0.1900  0.7185
  761MOL0     N 4931   4.287  10.973  11.873  0.0095 -1.0160  0.1015
  761MOL0     N 4932   4.287  10.927  11.750 -0.1202  0.4860 -0.2087
  761MOL0     C 4933   4.995  10.527  10.921 -0.3157  0.4761 -0.5691
  761MOL0     C 4934   5.052  10.404  10.877 -0.7258 -1.2023 -0.9107
  761MOL0     C 4935   5.170  10.094  10.555  0.5193 -0.6753  0.6486
  761MOL0     C 4936   5.285  10.108  10.482  0.1926  0.2184  0.5126
  761MOL0     C 4937   5.349   9.987  10.438 -0.3602 -0.4894 -0.6102
  761MOL0     C 4938   5.292   9.859  10.458 -0.3726 -0.5040  0.3304
  761MOL0     O 4939   5.359   9.759  10.403 -0.3517 -0.5663  0.2243
  761MOL0     C 4940   5.351   9.629  10.454  0.4788  0.4542  0.3717
  761MOL0     C 4941   5.475   9.578  10.542 -0.3713 -0.6214  0.1807
  761MOL0     C 4942   5.609   9.649  10.506  0.3489 -0.0203  0.2952
  761MOL0     C 4943   5.648   9.622  10.361 -1.0223 -1.1113 -0.0492
  761MOL0     C 4944   5.685   9.485  10.338 -1.3546  1.0967 -0.6145
  761MOL0     C 4945   5.730   9.372  10.306 -0.1689  0.0717 -0.4958
  761MOL0     C 4946   5.172   9.856  10.523  1.1344 -0.3363 -1.1545
  761MOL0     C 4947   5.106   9.972  10.577 -1.2986 -0.2290  0.9478
  761MOL0     C 4948   4.968   9.958  10.635  0.3527 -0.1039 -0.3762
  761MOL0     H 4949   5.162  10.501  10.583  0.1891 -1.1741  0.0815
  761MOL0     H 4950   5.051  10.715  10.651 -1.6259  0.3289  1.2920
  761MOL0     H 4951   4.777  10.665  10.963 -0.3320 -0.5169 -1.0921
  761MOL0     H 4952   4.734  10.818  10.915  0.4744  1.5221  0.7264
  761MOL0     H 4953   4.948  10.763  11.124 -0.0444 -0.7169 -0.7141
  761MOL0     H 4954   4.909  10.925  11.071 -1.0468  1.8425  2.4464
  761MOL0     H 4955   4.673  10.753  11.161 -1.4662  0.7136 -1.8772
  761MOL0     H 4956   4.780  10.814  11.282 -0.5608  2.5811  0.7128
  761MOL0     H 4957   4.771  11.043  11.189 -1.1801  1.8205 -0.0074
  761MOL0     H 4958   4.622  11.011  11.103  1.2645  4.6060  0.7884
  761MOL0     H 4959   4.601  11.114  11.312 -1.5552 -0.8494  0.1931
  761MOL0     H 4960   4.688  10.984  11.400 -2.4061  0.8758  2.5578
  761MOL0     H 4961   4.416  10.981  11.270  0.3162  3.6518  1.6003
  761MOL0     H 4962   4.503  10.838  11.330 -0.3814  0.6496 -3.1100
  761MOL0     H 4963   4.327  10.980  11.478  0.3892 -4.9932 -2.7684
  761MOL0     H 4964   4.484  11.065  11.527 -0.7928  1.2879  0.6142
  761MOL0     H 4965   4.415  10.770  11.561  0.7870  0.9096 -3.0040
  761MOL0     H 4966   4.568  10.834  11.612 -0.0803 -0.4110 -0.4477
  761MOL0     H 4967   4.608  10.997  11.803 -0.0228 -1.2369  0.0885
  761MOL0     H 4968   4.334  11.137  12.062 -0.2714 -0.8882 -0.8992
  761MOL0     H 4969   4.512  11.159  12.040  1.6516 -1.2225 -0.4680
  761MOL0     H 4970   4.362  10.958  12.181 -0.3431  0.6234 -0.8877
  761MOL0     H 4971   4.528  10.910  12.117  0.3404 -0.1764 -0.2547
  761MOL0     H 4972   4.535  10.968  12.343 -1.5164 -1.8315 -2.4428
  761MOL0     H 4973   4.624  11.089  12.242 -0.5593  0.5483  0.1427
  761MOL0     H 4974   4.374  11.220  12.257 -0.7243  0.5252  0.5505
  761MOL0     H 4975   4.379  11.141  12.420 -1.1817 -0.7486 -0.7475
  761MOL0     H 4976   4.466  11.134  12.595 -0.2408  0.2752  1.2424
  761MOL0     H 4977   4.479  11.042  12.804  0.8625 -0.2892 -1.4530
  761MOL0     H 4978   4.547  11.169  12.909 -0.3938 -4.3368  2.9965
  761MOL0     H 4979   4.639  11.032  12.886  0.0715  1.3536  1.7784
  761MOL0     H 4980   5.189  11.393  12.947 -0.2296 -0.8244 -0.9424
  761MOL0     H 4981   5.387  11.290  13.090  1.3514 -1.1024  0.2296
  761MOL0     H 4982   5.394  10.852  13.223  4.1439 -1.3407  2.3909
  761MOL0     H 4983   5.438  10.880  13.048 -2.1993 -1.6349 -0.1460
  761MOL0     H 4984   5.666  10.993  13.166 -1.8409  2.2272  3.8556
  761MOL0     H 4985   5.610  10.926  13.309 -1.0967 -0.8641 -0.2105
  761MOL0     H 4986   5.762  10.757  13.244 -0.2348 -1.8500  2.3401
  761MOL0     H 4987   5.690  10.752  13.083 -0.2489  0.6131  0.0415
  761MOL0     H 4988   5.478  10.645  13.185 -1.7340  2.2567  3.5194
  761MOL0     H 4989   5.568  10.645  13.340  2.7017 -1.9098 -0.1643
  761MOL0     H 4990   5.562  10.431  13.191 -0.3442  1.7370 -0.6218
  761MOL0     H 4991   5.686  10.507  13.122  1.5489 -0.0102  0.7952
  761MOL0     H 4992   5.667  10.424  13.414 -1.5562  0.8554 -0.4410
  761MOL0     H 4993   5.773  10.568  13.356 -0.6509 -0.0380  1.1508
  761MOL0     H 4994   5.891  10.357  13.403 -0.0056 -1.5839  0.5002
  761MOL0     H 4995   5.920  10.435  13.260  0.5762  1.2376  3.4204
  761MOL0     H 4996   5.901  10.185  13.211  0.3323  0.6163  1.0393
  761MOL0     H 4997   5.762  10.271  13.136  1.7205 -0.9559 -0.7867
  761MOL0     H 4998   5.209  10.906  13.023 -3.4280  0.3161  1.4835
  761MOL0     H 4999   5.048  10.995  12.898 -1.2938  0.7787  1.2535
  761MOL0     H 5000   4.944  11.273  12.580  0.4175 -0.0686 -1.9812
  761MOL0     H 5001   4.800  11.290  12.381  0.1018 -3.4782 -0.4295
  761MOL0     H 5002   4.961  10.527  11.024  2.3423  1.0344  0.3897
  761MOL0     H 5003   5.049  10.317  10.942 -0.0910 -0.8029 -0.3269
  761MOL0     H 5004   5.333  10.202  10.456  1.9406 -0.1753  2.1563
  761MOL0     H 5005   5.444   9.995  10.386  2.0467  2.4059  3.5962
  761MOL0     H 5006   5.259   9.612  10.510 -1.5127  3.2279 -1.8035
  761MOL0     H 5007   5.341   9.562  10.367 -0.8343  0.8002  0.2340
  761MOL0     H 5008   5.476   9.471  10.521 -1.6486 -0.2577 -1.9440
  761MOL0     H 5009   5.482   9.591  10.651 -0.7997 -2.2503  0.4332
  761MOL0     H 5010   5.595   9.756  10.526  1.8430  0.0281  1.2089
  761MOL0     H 5011   5.680   9.612  10.580  2.0957  2.6788  0.1175
  761MOL0     H 5012   5.727   9.685  10.318 -2.3221 -0.9131 -2.3004
  761MOL0     H 5013   5.565   9.659  10.301  1.6644  1.7913 -2.3524
  761MOL0     H 5014   5.764   9.272  10.288 -0.7310 -0.3001  0.4302
  761MOL0     H 5015   5.111   9.768  10.540  0.2222  0.5644  0.5077
  761MOL0     H 5016   4.922   9.865  10.601 -1.4427  0.2944  0.8209
  761MOL0     H 5017   4.963   9.946  10.744  0.5298 -3.2289 -0.6255
  761MOL0     H 5018   4.918  10.052  10.610  0.4105  0.9674  2.9384
  762MOL0     O 5019   9.501   5.900  10.083 -0.1252  0.0623  0.1605
  762MOL0     C 5020   9.399   5.868  10.026 -0.5965 -0.8343 -0.3619
  762MOL0     O 5021   9.279   5.891  10.082 -0.4126 -0.5029  0.5263
  762MOL0     C 5022   9.245   6.015  10.138  0.5949  0.4459  0.3045
  762MOL0     C 5023   9.305   6.140  10.136  0.8976 -0.4611  0.0294
  762MOL0     C 5024   9.254   6.239  10.235  0.0176  1.7151  0.0038
  762MOL0     C 5025   9.138   6.225  10.313 -1.3584  0.7551 -0.1317
  762MOL0     O 5026   9.098   6.323  10.407  0.2833  0.1678  0.0707
  762MOL0     C 5027   8.961   6.324  10.465  0.4903 -0.9218  0.2948
  762MOL0     C 5028   8.927   6.457  10.549 -0.1260  0.3377 -1.1722
  762MOL0     C 5029   8.943   6.590  10.478 -0.0062  0.7924 -0.4084
  762MOL0     C 5030   8.930   6.714  10.567  0.5581  0.5111  0.7880
  762MOL0     C 5031   8.781   6.733  10.607  0.2139 -0.0718 -0.2764
  762MOL0     C 5032   8.749   6.884  10.632  1.0249 -0.7439  0.9161
  762MOL0     C 5033   8.601   6.908  10.608  0.3150  0.1597 -1.0843
  762MOL0     C 5034   8.564   7.048  10.648 -0.8173 -0.0057 -1.1295
  762MOL0     N 5035   8.439   7.101  10.576  0.8799 -0.5909 -0.1585
  762MOL0     C 5036   8.399   7.063  10.445 -0.4673 -0.4390 -0.1837
  762MOL0     C 5037   8.287   7.137  10.430  0.6564 -0.7818  0.5961
  762MOL0     C 5038   8.191   7.109  10.309 -0.1939 -0.3295 -0.1733
  762MOL0     C 5039   8.223   7.198  10.186 -0.7639 -1.1354 -0.4850
  762MOL0     C 5040   8.170   7.340  10.210  0.1620 -0.4436 -0.5348
  762MOL0     C 5041   8.029   7.381  10.155 -0.9126  0.6847 -0.9085
  762MOL0     O 5042   8.028   7.352  10.021  0.3064 -0.0746  0.5176
  762MOL0     C 5043   7.899   7.366   9.963  0.7543 -0.6967  0.2091
  762MOL0     C 5044   7.800   7.463   9.991  0.4180 -0.3794  0.7233
  762MOL0     C 5045   7.680   7.470   9.921  0.2386  0.3083  0.2291
  762MOL0     C 5046   7.596   7.595   9.951  0.0868  0.4919 -0.0579
  762MOL0     C 5047   7.649   7.369   9.823 -0.6957  0.7946 -0.0835
  762MOL0     C 5048   7.509   7.353   9.764 -0.4442  0.3564 -0.2471
  762MOL0     O 5049   7.472   7.220   9.738 -0.5887 -0.5235  0.1167
  762MOL0     C 5050   7.368   7.189   9.657 -0.0049 -0.8251  0.4669
  762MOL0     C 5051   7.346   7.216   9.519  0.8636 -0.0628  0.5104
  762MOL0     C 5052   7.232   7.181   9.453  0.6543  0.5044  0.7776
  762MOL0     C 5053   7.128   7.114   9.512 -0.7877 -0.9861  0.6753
  762MOL0     O 5054   7.017   7.059   9.444 -0.5406 -0.1834  0.0367
  762MOL0     C 5055   7.014   7.080   9.303 -0.3322  0.1128 -0.4242
  762MOL0     C 5056   6.884   7.019   9.250 -0.7360  0.4207 -1.0660
  762MOL0     C 5057   6.883   6.858   9.252  0.4986 -0.1039  1.7452
  762MOL0     C 5058   6.973   6.795   9.136 -0.7763  0.0418  0.4111
  762MOL0     C 5059   6.983   6.647   9.157 -0.0110 -0.5493 -0.5146
  762MOL0     C 5060   7.050   6.584   9.034  0.1663  1.2177  0.7111
  762MOL0     C 5061   7.025   6.425   9.053 -0.0012 -0.4870  0.0902
  762MOL0     C 5062   7.119   6.336   8.969  0.7308 -0.2620  0.6023
  762MOL0    Cl 5063   7.093   6.169   9.014  0.1027  0.1265  0.1429
  762MOL0     C 5064   7.142   7.101   9.651  1.2548  0.5778 -1.1232
  762MOL0     C 5065   7.252   7.138   9.719 -0.6494 -0.1342 -0.0812
  762MOL0     O 5066   7.451   7.452   9.735  1.0207  0.0953  0.9803
  762MOL0     C 5067   7.748   7.276   9.793 -0.7890 -0.2169  0.1575
  762MOL0     C 5068   7.871   7.276   9.863  0.2452  0.5937  0.2775
  762MOL0     N 5069   8.254   7.223  10.534 -0.3134  0.4818  0.3541
  762MOL0     N 5070   8.348   7.200  10.616 -0.4614  0.0667  0.1348
  762MOL0     C 5071   9.071   6.098  10.308 -1.1425  0.1292 -0.4538
  762MOL0     C 5072   9.134   5.996  10.228  0.6118  0.7526 -0.8847
  762MOL0     C 5073   9.402   5.790   9.897  0.3186 -0.7210  0.3533
  762MOL0     C 5074   9.304   5.695   9.880 -0.0859  0.8768  0.5353
  762MOL0     C 5075   9.292   5.603   9.771 -0.3031  0.3177  0.9302
  762MOL0     C 5076   9.393   5.600   9.669  0.0344  0.2679 -0.0870
  762MOL0     O 5077   9.380   5.498   9.585  0.3177 -0.3696  0.3905
  762MOL0     C 5078   9.459   5.499   9.470  0.2977 -0.0746 -0.8020
  762MOL0     C 5079   9.387   5.396   9.382 -0.3761  0.2529 -0.5091
  762MOL0     C 5080   9.368   5.259   9.445 -0.3479 -0.6600 -0.3614
  762MOL0     C 5081   9.226   5.212   9.456  0.2938 -0.9180  0.1963
  762MOL0     C 5082   9.222   5.075   9.484 -0.9614  0.2531  0.1750
  762MOL0     C 5083   9.227   4.959   9.489  0.3611 -0.4826 -1.6111
  762MOL0     C 5084   9.495   5.695   9.684 -0.7177  1.0009  0.2641
  762MOL0     C 5085   9.504   5.789   9.796  0.3048  0.1440  0.0666
  762MOL0     C 5086   9.616   5.893   9.781  0.6662 -0.1076  0.0288
  762MOL0     H 5087   9.388   6.157  10.069  0.8391 -1.0103 -0.1885
  762MOL0     H 5088   9.306   6.334  10.229  0.9003  1.8578  5.3190
  762MOL0     H 5089   8.950   6.246  10.541 -0.9138 -0.4691  0.5942
  762MOL0     H 5090   8.881   6.314  10.390 -2.0057 -0.6620  2.7333
  762MOL0     H 5091   8.821   6.449  10.574 -1.6302  3.4494 -5.3585
  762MOL0     H 5092   8.993   6.454  10.636 -0.3275 -1.1072 -1.0425
  762MOL0     H 5093   9.041   6.604  10.431  0.1958  2.9596  0.5282
  762MOL0     H 5094   8.867   6.592  10.400 -3.8024 -1.4628  2.7997
  762MOL0     H 5095   8.991   6.703  10.657 -0.0792 -0.4425  1.1259
  762MOL0     H 5096   8.972   6.793  10.505 -0.3126  0.0181 -0.4605
  762MOL0     H 5097   8.743   6.683  10.697 -0.5476 -2.8709 -2.0135
  762MOL0     H 5098   8.729   6.699  10.517 -1.8661 -1.9432  1.5161
  762MOL0     H 5099   8.782   6.895  10.735  0.7786  1.5604  0.8128
  762MOL0     H 5100   8.800   6.954  10.565  0.7644  0.1641  1.6394
  762MOL0     H 5101   8.546   6.842  10.675  0.1402  0.3097 -1.0799
  762MOL0     H 5102   8.583   6.871  10.506 -0.1619  0.4644 -1.1106
  762MOL0     H 5103   8.549   7.057  10.756 -0.5223  2.0667 -1.2179
  762MOL0     H 5104   8.652   7.110  10.630 -0.9773  0.7722  0.6130
  762MOL0     H 5105   8.436   6.982  10.383  1.7368  0.1460  0.2711
  762MOL0     H 5106   8.086   7.119  10.341 -0.5555 -2.2077 -0.6585
  762MOL0     H 5107   8.193   7.005  10.275 -1.7142 -0.8740  1.2526
  762MOL0     H 5108   8.332   7.200  10.181 -0.6707 -1.2088  1.1415
  762MOL0     H 5109   8.183   7.157  10.093 -0.9217 -1.6600 -0.1892
  762MOL0     H 5110   8.163   7.369  10.315  1.2841 -0.4283 -0.4525
  762MOL0     H 5111   8.251   7.407  10.178  1.4537 -0.4353  2.4547
  762MOL0     H 5112   7.961   7.307  10.198  2.0067 -1.4192  0.4833
  762MOL0     H 5113   8.003   7.480  10.191 -1.4243  1.2662 -2.7780
  762MOL0     H 5114   7.820   7.546  10.058 -0.9555  2.6716 -2.3142
  762MOL0     H 5115   7.607   7.668   9.871 -0.9907  2.2968  1.3596
  762MOL0     H 5116   7.626   7.651  10.040  3.0727  0.0527 -0.6743
  762MOL0     H 5117   7.489   7.572   9.956 -0.1257  1.0668 -1.5030
  762MOL0     H 5118   7.428   7.266   9.469  2.4311 -0.5788  2.4271
  762MOL0     H 5119   7.226   7.220   9.352  1.4733  1.5023  1.0976
  762MOL0     H 5120   7.011   7.185   9.272  0.5814  0.0852 -0.6372
  762MOL0     H 5121   7.098   7.025   9.259 -0.7943 -2.4434  1.6646
  762MOL0     H 5122   6.807   7.051   9.320  2.6798  1.2622  2.6976
  762MOL0     H 5123   6.860   7.063   9.153  0.4506  1.2699 -0.9970
  762MOL0     H 5124   6.784   6.813   9.243  0.7723 -0.8232  2.1987
  762MOL0     H 5125   6.911   6.815   9.349 -0.6975 -3.0082  0.9239
  762MOL0     H 5126   7.079   6.822   9.141 -0.0726 -1.2399 -3.7594
  762MOL0     H 5127   6.953   6.822   9.032 -1.2402 -0.6539  0.3121
  762MOL0     H 5128   7.039   6.630   9.249 -0.2075  2.9217  0.3851
  762MOL0     H 5129   6.881   6.613   9.179  0.2505 -0.9947  0.0221
  762MOL0     H 5130   7.157   6.609   9.031  0.1977  1.1606  1.1789
  762MOL0     H 5131   7.009   6.609   8.936  1.6393 -1.4538 -0.6865
  762MOL0     H 5132   6.921   6.411   9.022 -0.9294  2.8607  1.1883
  762MOL0     H 5133   7.032   6.400   9.159  2.2645  3.3488  1.0313
  762MOL0     H 5134   7.217   6.376   8.997  1.2023 -1.0116  0.0413
  762MOL0     H 5135   7.103   6.367   8.866 -1.7170 -0.3948  0.8908
  762MOL0     H 5136   7.061   7.051   9.703  2.9416 -0.5038  0.5567
  762MOL0     H 5137   7.255   7.138   9.827 -0.5703  1.1731 -0.0723
  762MOL0     H 5138   7.728   7.198   9.721 -3.0706  0.3682  0.0751
  762MOL0     H 5139   7.943   7.200   9.834  1.6730  1.8692  0.3608
  762MOL0     H 5140   8.970   6.088  10.347 -0.9061 -0.7911 -0.0764
  762MOL0     H 5141   9.089   5.899  10.244  0.7816  0.5139 -1.8119
  762MOL0     H 5142   9.222   5.691   9.951 -0.4515 -0.1723  0.0765
  762MOL0     H 5143   9.217   5.525   9.782  2.0616 -1.9928  1.5489
  762MOL0     H 5144   9.458   5.596   9.421  0.4990 -0.0078 -0.6743
  762MOL0     H 5145   9.561   5.474   9.501 -0.0831  0.0548  0.6499
  762MOL0     H 5146   9.442   5.382   9.288 -0.9084 -3.0187 -0.4720
  762MOL0     H 5147   9.284   5.425   9.360 -0.7581 -0.7625 -0.1219
  762MOL0     H 5148   9.428   5.180   9.398 -0.6296 -1.2081  0.1915
  762MOL0     H 5149   9.410   5.257   9.546 -1.5259 -1.2557  0.1366
  762MOL0     H 5150   9.173   5.234   9.363 -0.7979 -1.0105  0.7779
  762MOL0     H 5151   9.182   5.267   9.540  0.8917 -0.6775  0.3580
  762MOL0     H 5152   9.232   4.852   9.489  2.4125 -0.4796  0.6851
  762MOL0     H 5153   9.583   5.690   9.621 -0.0848  3.4955  0.8505
  762MOL0     H 5154   9.712   5.841   9.789  0.0596 -1.2027  0.3854
  762MOL0     H 5155   9.606   5.946   9.685 -0.6691  0.7774  0.6183
  762MOL0     H 5156   9.606   5.972   9.856 -2.3923  0.4724 -0.8527
  763MOL0     O 5157   5.183   2.581   2.880 -0.1256  0.2864  0.5572
  763MOL0     C 5158   5.072   2.618   2.830  0.2810  0.4917  0.5710
  763MOL0     O 5159   5.049   2.652   2.702 -0.0335 -0.2489 -0.3952
  763MOL0     C 5160   5.130   2.599   2.601  0.6596  0.0501 -0.4341
  763MOL0     C 5161   5.140   2.676   2.495 -0.4383  0.5360  0.0667
  763MOL0     C 5162   5.199   2.634   2.374  0.1320 -0.1128  0.5527
  763MOL0     C 5163   5.251   2.507   2.372 -0.1315 -1.4914 -1.0685
  763MOL0     O 5164   5.307   2.479   2.252  0.8939  0.4089 -0.1088
  763MOL0     C 5165   5.424   2.390   2.252 -0.1272 -0.1539  0.6993
  763MOL0     C 5166   5.467   2.374   2.100  1.0748 -0.3731  0.7757
  763MOL0     C 5167   5.609   2.337   2.091 -0.0251  0.6871  0.4883
  763MOL0     C 5168   5.657   2.334   1.949  0.1364 -0.4525  0.2504
  763MOL0     C 5169   5.814   2.315   1.944  0.1495  1.2713  0.1231
  763MOL0     C 5170   5.888   2.338   1.819  0.5446  0.0469  0.4542
  763MOL0     C 5171   5.825   2.273   1.695  0.3094  0.4683  0.0951
  763MOL0     C 5172   5.923   2.296   1.581 -0.5350  0.2960  0.2117
  763MOL0     N 5173   5.949   2.432   1.537  0.7028 -0.2791  0.0112
  763MOL0     C 5174   6.061   2.496   1.477 -0.7269  0.4789 -0.3605
  763MOL0     C 5175   6.024   2.617   1.433  0.3035  0.2295  0.0790
  763MOL0     C 5176   6.102   2.707   1.347  1.2027  1.0047  1.1090
  763MOL0     C 5177   6.024   2.722   1.214  0.1640  0.1034  0.5237
  763MOL0     C 5178   6.104   2.808   1.109 -0.3270 -0.8242  0.6768
  763MOL0     C 5179   6.030   2.857   0.978  0.4941  0.6358 -0.4487
  763MOL0     O 5180   5.911   2.924   1.019  0.4398  1.1924  0.7305
  763MOL0     C 5181   5.839   2.998   0.922  0.6716  0.6020 -0.2064
  763MOL0     C 5182   5.843   2.976   0.784  0.3097 -1.0727  0.2046
  763MOL0     C 5183   5.779   3.054   0.693 -0.2723  0.2245  0.5795
  763MOL0     C 5184   5.806   3.032   0.546 -1.1644 -0.3715 -1.0330
  763MOL0     C 5185   5.698   3.168   0.739 -0.1613  0.0873 -0.1385
  763MOL0     C 5186   5.615   3.248   0.651  0.2232 -0.2747 -0.4238
  763MOL0     O 5187   5.545   3.187   0.552  0.8440 -0.1754  0.4772
  763MOL0     C 5188   5.509   3.268   0.446 -0.1196 -0.2187  0.6335
  763MOL0     C 5189   5.582   3.267   0.321  0.7645 -0.7565  0.2085
  763MOL0     C 5190   5.544   3.343   0.207 -0.4750 -0.5769 -0.1429
  763MOL0     C 5191   5.440   3.435   0.215 -0.0448  1.1285  0.3369
  763MOL0     O 5192   5.391   3.502   0.107 -0.4989 -0.0951  0.0105
  763MOL0     C 5193   5.485   3.534  -0.000 -0.0372 -0.5414 -0.7323
  763MOL0     C 5194   5.433   3.641  -0.087 -0.0012  0.1779  0.4910
  763MOL0     C 5195   5.401   3.769  -0.008 -0.3993  0.4786  0.8154
  763MOL0     C 5196   5.345   3.874  -0.107 -0.1693  0.1778 -0.7632
  763MOL0     C 5197   5.343   4.021  -0.056 -0.3739  0.1577 -0.5021
  763MOL0     C 5198   5.240   4.052   0.045  0.6031  1.0841 -0.5410
  763MOL0     C 5199   5.229   4.202   0.091  1.0936  0.1338  1.0809
  763MOL0     C 5200   5.210   4.292  -0.030 -0.3836  0.4990  0.1623
  763MOL0    Cl 5201   5.368   4.355  -0.073 -0.1703 -0.2322  0.0549
  763MOL0     C 5202   5.375   3.440   0.337 -0.3993 -0.1568  0.4356
  763MOL0     C 5203   5.415   3.371   0.457 -0.4272  0.2388  0.6438
  763MOL0     O 5204   5.625   3.367   0.678  0.7993  0.5333 -0.0642
  763MOL0     C 5205   5.701   3.186   0.877  0.0657  0.1357 -0.8125
  763MOL0     C 5206   5.770   3.106   0.969  0.2754 -0.0286  0.4503
  763MOL0     N 5207   5.889   2.636   1.477  0.2524  0.2478  0.1635
  763MOL0     N 5208   5.857   2.535   1.552  0.3147  0.5478 -0.9744
  763MOL0     C 5209   5.241   2.421   2.481 -0.4248 -0.3620 -0.8770
  763MOL0     C 5210   5.186   2.472   2.602  0.9788  0.0915  0.7744
  763MOL0     C 5211   4.972   2.637   2.936  0.0156 -0.2138 -0.5530
  763MOL0     C 5212   4.992   2.571   3.059 -0.4620 -0.0285  0.1262
  763MOL0     C 5213   4.906   2.581   3.161  0.3100 -0.3175 -0.8820
  763MOL0     C 5214   4.790   2.659   3.154 -1.1259 -0.0925  1.3273
  763MOL0     O 5215   4.697   2.663   3.247  0.3800 -1.0384  0.3516
  763MOL0     C 5216   4.710   2.592   3.372 -1.2048 -0.0427  0.0929
  763MOL0     C 5217   4.808   2.663   3.465 -0.3702  0.1875 -0.9273
  763MOL0     C 5218   4.798   2.620   3.611  0.0917  0.2335  0.8060
  763MOL0     C 5219   4.904   2.691   3.694 -0.1472  0.1537 -0.1521
  763MOL0     C 5220   4.873   2.842   3.691  1.0659 -0.9553  0.0789
  763MOL0     C 5221   4.845   2.965   3.685 -0.4358  0.8107  0.0956
  763MOL0     C 5222   4.763   2.716   3.027 -0.8571 -0.0644 -0.4613
  763MOL0     C 5223   4.852   2.712   2.916  0.5003 -0.0545 -0.2133
  763MOL0     C 5224   4.799   2.782   2.799  1.1789 -0.4051  0.6088
  763MOL0     H 5225   5.090   2.772   2.491 -1.4825 -0.0162 -0.4847
  763MOL0     H 5226   5.196   2.693   2.283 -1.4977 -0.5463  0.2803
  763MOL0     H 5227   5.412   2.298   2.310 -0.0582 -0.4726  0.2109
  763MOL0     H 5228   5.504   2.444   2.304  0.9731  0.5253 -1.5936
  763MOL0     H 5229   5.406   2.300   2.047  0.8427 -1.7407  2.8318
  763MOL0     H 5230   5.451   2.469   2.048  0.4995  0.7499  2.9036
  763MOL0     H 5231   5.669   2.409   2.145  3.3609 -0.3883 -1.5423
  763MOL0     H 5232   5.621   2.236   2.133  0.3802 -0.0545 -1.3113
  763MOL0     H 5233   5.607   2.262   1.884  0.4436 -0.2060 -0.2682
  763MOL0     H 5234   5.621   2.430   1.911  1.9284 -0.4954 -1.7252
  763MOL0     H 5235   5.829   2.213   1.982 -0.7672  0.3665 -1.7903
  763MOL0     H 5236   5.852   2.390   2.013 -0.4218 -0.6758  2.6881
  763MOL0     H 5237   5.877   2.447   1.814 -2.7952 -0.2136 -0.9719
  763MOL0     H 5238   5.991   2.304   1.826  0.3139 -0.5530  0.9902
  763MOL0     H 5239   5.738   2.335   1.674  3.8043  4.8522 -3.4813
  763MOL0     H 5240   5.800   2.166   1.701 -0.9680  0.7630  0.2763
  763MOL0     H 5241   6.023   2.262   1.612  0.5960  1.7849 -1.5651
  763MOL0     H 5242   5.888   2.238   1.495 -0.3176  1.8087 -0.9387
  763MOL0     H 5243   6.149   2.435   1.461 -0.7920 -0.3309  1.9283
  763MOL0     H 5244   6.207   2.675   1.336  0.4116 -1.7263  0.6422
  763MOL0     H 5245   6.110   2.807   1.390 -0.8283  1.7480 -0.0768
  763MOL0     H 5246   6.011   2.623   1.169  0.4516  1.5420 -3.0254
  763MOL0     H 5247   5.922   2.760   1.222 -0.0590 -0.3396 -0.1440
  763MOL0     H 5248   6.132   2.896   1.167 -3.7758 -0.2640  1.7390
  763MOL0     H 5249   6.191   2.749   1.077  0.9946  1.4874 -0.2443
  763MOL0     H 5250   6.087   2.919   0.909  0.8638 -0.2109 -0.9142
  763MOL0     H 5251   6.000   2.767   0.923 -1.3173  1.5377 -1.0208
  763MOL0     H 5252   5.915   2.906   0.742  1.2938  0.0092  0.0375
  763MOL0     H 5253   5.835   3.125   0.496 -0.2597  1.3148  2.2659
  763MOL0     H 5254   5.716   2.995   0.496  0.3149  0.9910 -5.1394
  763MOL0     H 5255   5.884   2.958   0.529 -2.6291 -1.2335 -5.0834
  763MOL0     H 5256   5.649   3.184   0.305 -2.3285 -3.6359  0.9210
  763MOL0     H 5257   5.595   3.317   0.115 -1.4778  4.0472 -2.3220
  763MOL0     H 5258   5.579   3.575   0.036  0.3662 -1.0027 -1.2507
  763MOL0     H 5259   5.515   3.451  -0.065  2.2769  0.7138 -1.3590
  763MOL0     H 5260   5.507   3.669  -0.162  0.9725 -0.3201  1.2381
  763MOL0     H 5261   5.345   3.608  -0.144  2.5038  1.1101 -4.4613
  763MOL0     H 5262   5.496   3.815   0.021  1.2706 -0.2290 -2.9314
  763MOL0     H 5263   5.325   3.753   0.068  1.5327  0.3555  2.8105
  763MOL0     H 5264   5.242   3.848  -0.135  0.2114 -0.6748 -1.4151
  763MOL0     H 5265   5.406   3.875  -0.198 -1.4278  0.9561 -1.6256
  763MOL0     H 5266   5.438   4.047  -0.010 -1.8804  1.7188  1.9864
  763MOL0     H 5267   5.330   4.086  -0.143  2.4320  1.9055  0.2830
  763MOL0     H 5268   5.263   3.997   0.137 -2.7373 -1.4763 -1.0478
  763MOL0     H 5269   5.142   4.016   0.014  0.3377  0.4529  0.9762
  763MOL0     H 5270   5.309   4.231   0.160  2.0170  0.2189  0.0047
  763MOL0     H 5271   5.137   4.211   0.150  2.4497  0.5028  3.2507
  763MOL0     H 5272   5.148   4.375   0.006  0.6865  1.4528 -0.1442
  763MOL0     H 5273   5.161   4.239  -0.112  1.7121  0.3537 -1.0450
  763MOL0     H 5274   5.297   3.516   0.343 -1.4565 -1.2403  0.8264
  763MOL0     H 5275   5.363   3.383   0.551  2.9187  1.1023  2.5325
  763MOL0     H 5276   5.635   3.268   0.906  0.5554  0.5140 -0.7568
  763MOL0     H 5277   5.752   3.117   1.075  0.4444 -0.2741  0.5056
  763MOL0     H 5278   5.282   2.321   2.472 -0.9721 -0.4432 -2.7419
  763MOL0     H 5279   5.175   2.401   2.684 -3.4426  3.0730  3.1731
  763MOL0     H 5280   5.087   2.520   3.074  0.4312  1.4517 -0.2761
  763MOL0     H 5281   4.943   2.539   3.254 -0.6063  1.7691  0.4971
  763MOL0     H 5282   4.607   2.585   3.407 -1.6876  2.5907 -0.5719
  763MOL0     H 5283   4.749   2.490   3.362  1.8971  0.3529  4.7665
  763MOL0     H 5284   4.773   2.767   3.466 -1.5670 -0.1933 -1.1406
  763MOL0     H 5285   4.914   2.657   3.442  0.2530 -1.1456  1.8516
  763MOL0     H 5286   4.709   2.643   3.671  1.4767 -0.7928  3.4002
  763MOL0     H 5287   4.821   2.515   3.629  1.3926  0.5755  1.2390
  763MOL0     H 5288   5.009   2.672   3.674 -0.5662 -5.2411  1.2103
  763MOL0     H 5289   4.897   2.649   3.794 -0.5243 -0.7094 -0.5315
  763MOL0     H 5290   4.820   3.069   3.682  0.8237  1.1418  0.1443
  763MOL0     H 5291   4.672   2.775   3.030 -1.0128 -0.1955 -2.0010
  763MOL0     H 5292   4.819   2.888   2.813 -1.8507  0.1326  1.4592
  763MOL0     H 5293   4.836   2.747   2.702 -0.8655 -1.2983  0.1108
  763MOL0     H 5294   4.691   2.768   2.803  1.1394 -2.2154 -2.8111
  764MOL0     O 5295   6.431   7.880   5.117 -0.6503  0.0696  0.0010
  764MOL0     C 5296   6.389   7.766   5.090 -0.5798 -1.4336 -0.1199
  764MOL0     O 5297   6.283   7.747   5.006  0.1247 -0.3331  0.8541
  764MOL0     C 5298   6.217   7.848   4.941 -0.1671 -1.0093  0.2425
  764MOL0     C 5299   6.268   7.970   4.905 -0.3498  0.6146 -0.5986
  764MOL0     C 5300   6.182   8.070   4.862 -0.2995 -0.0009 -0.2283
  764MOL0     C 5301   6.048   8.040   4.841  0.8481  0.6541  0.3270
  764MOL0     O 5302   5.972   8.153   4.812  0.5431  0.0484 -0.4630
  764MOL0     C 5303   5.939   8.258   4.898 -0.3534 -0.3442  0.1022
  764MOL0     C 5304   6.004   8.387   4.841 -0.2223 -0.1044  0.4439
  764MOL0     C 5305   5.998   8.504   4.944  0.3894 -0.2699  0.0262
  764MOL0     C 5306   5.975   8.640   4.864 -0.3272  0.0342 -0.2645
  764MOL0     C 5307   5.952   8.770   4.934 -0.0830 -0.3043 -0.2217
  764MOL0     C 5308   6.087   8.802   5.005 -0.1971  0.8046 -0.1053
  764MOL0     C 5309   6.083   8.953   5.035 -0.6045  0.5189 -0.0460
  764MOL0     C 5310   6.014   8.966   5.174  0.1022 -0.1541  0.4448
  764MOL0     N 5311   6.102   8.952   5.291 -0.9749  0.0362  0.7203
  764MOL0     C 5312   6.047   8.932   5.414 -1.1167 -0.7415 -0.3450
  764MOL0     C 5313   6.150   8.949   5.501 -0.9650 -0.7986  0.1260
  764MOL0     C 5314   6.148   8.934   5.648  0.0736 -0.2326  0.9253
  764MOL0     C 5315   6.010   8.891   5.704  0.6407 -1.2852 -0.0167
  764MOL0     C 5316   5.989   8.893   5.860 -0.1760  0.4966 -0.4355
  764MOL0     C 5317   5.863   8.809   5.893 -0.0405 -0.7287  0.4839
  764MOL0     O 5318   5.805   8.831   6.026  0.1489  0.1682 -0.0213
  764MOL0     C 5319   5.869   8.807   6.143 -0.0925 -0.2745 -0.1242
  764MOL0     C 5320   5.991   8.745   6.159  0.0380  1.2046 -0.3902
  764MOL0     C 5321   6.056   8.716   6.279  0.3509  0.6382 -0.1398
  764MOL0     C 5322   6.196   8.653   6.276 -0.3807  0.6648 -0.2079
  764MOL0     C 5323   5.986   8.747   6.392  0.0709  0.4071 -0.4001
  764MOL0     C 5324   6.039   8.701   6.518  0.4464 -0.6575  0.2564
  764MOL0     O 5325   6.112   8.798   6.604  0.2575 -0.2034  0.3181
  764MOL0     C 5326   6.138   8.774   6.732  0.1952 -0.4942  0.5513
  764MOL0     C 5327   6.241   8.844   6.801 -0.3220  0.2999 -0.2964
  764MOL0     C 5328   6.274   8.818   6.934 -0.0510  0.0773  0.5357
  764MOL0     C 5329   6.217   8.708   7.003 -0.1322  0.0956  0.1411
  764MOL0     O 5330   6.249   8.695   7.133 -0.3948 -0.0943  0.3236
  764MOL0     C 5331   6.151   8.666   7.231 -0.2004 -0.2667  0.3181
  764MOL0     C 5332   6.190   8.530   7.295 -1.1280  0.8411  0.2094
  764MOL0     C 5333   6.077   8.454   7.357  0.0590  0.3972  0.4883
  764MOL0     C 5334   5.949   8.534   7.396 -1.2693  0.0026 -0.2385
  764MOL0     C 5335   5.860   8.443   7.477  0.0859  0.1646  0.1888
  764MOL0     C 5336   5.897   8.435   7.621 -0.0901 -0.5126 -0.5948
  764MOL0     C 5337   5.796   8.345   7.705 -0.3283  0.0391 -0.5818
  764MOL0     C 5338   5.834   8.303   7.844 -0.5942  0.5953  0.4992
  764MOL0    Cl 5339   5.889   8.442   7.932 -0.3598 -0.3877 -0.1801
  764MOL0     C 5340   6.116   8.637   6.934 -0.1364  0.4125 -0.3041
  764MOL0     C 5341   6.074   8.664   6.800  0.2619 -0.0966  0.1270
  764MOL0     O 5342   6.029   8.582   6.527  0.1513 -0.4320 -0.1591
  764MOL0     C 5343   5.864   8.810   6.388 -0.8507  0.4446  0.9278
  764MOL0     C 5344   5.797   8.835   6.267  0.3186 -0.4292  0.8499
  764MOL0     N 5345   6.261   8.981   5.427  0.1476  0.2276 -0.1449
  764MOL0     N 5346   6.234   8.976   5.302 -0.2391  0.7528 -0.4603
  764MOL0     C 5347   6.000   7.910   4.842  0.0781  0.9087 -0.1919
  764MOL0     C 5348   6.082   7.815   4.909 -0.1599 -0.4941  0.3758
  764MOL0     C 5349   6.472   7.648   5.131  0.7621 -0.0885 -0.1411
  764MOL0     C 5350   6.401   7.526   5.122 -1.2309 -0.1244  0.3571
  764MOL0     C 5351   6.460   7.409   5.164 -0.5023  0.3035 -0.5456
  764MOL0     C 5352   6.586   7.396   5.220  0.4467 -0.2771  0.3945
  764MOL0     O 5353   6.659   7.274   5.244 -0.2895 -0.5739  0.1290
  764MOL0     C 5354   6.599   7.144   5.243  0.5364  0.4637 -0.6601
  764MOL0     C 5355   6.562   7.081   5.102  0.3678 -0.9392 -1.3684
  764MOL0     C 5356   6.668   7.125   4.999  0.4472 -0.2493 -0.9239
  764MOL0     C 5357   6.613   7.098   4.863 -0.1070 -0.9180  0.6536
  764MOL0     C 5358   6.528   7.214   4.809 -0.3156  0.0895 -0.2699
  764MOL0     C 5359   6.465   7.316   4.773 -0.3694 -0.2296  0.1699
  764MOL0     C 5360   6.658   7.520   5.235 -0.0770 -0.1408 -0.0337
  764MOL0     C 5361   6.604   7.649   5.188  0.1212  0.1631 -0.6852
  764MOL0     C 5362   6.682   7.777   5.212 -0.8188 -0.2570  0.3434
  764MOL0     H 5363   6.375   7.985   4.905  0.3859 -2.6543  4.1247
  764MOL0     H 5364   6.202   8.176   4.852 -0.2313  0.0139  0.0896
  764MOL0     H 5365   5.969   8.234   5.001 -0.1980 -0.3318  0.0602
  764MOL0     H 5366   5.831   8.270   4.893 -0.3064  0.2722  0.4067
  764MOL0     H 5367   6.106   8.369   4.805 -0.4581  1.9263 -1.4210
  764MOL0     H 5368   5.956   8.413   4.747 -0.5444  2.9906  1.3483
  764MOL0     H 5369   5.905   8.504   5.002  1.1709  1.1084  1.3562
  764MOL0     H 5370   6.084   8.494   5.011 -0.5908  0.8669  1.5375
  764MOL0     H 5371   6.046   8.650   4.781 -0.2166 -0.0009 -0.1750
  764MOL0     H 5372   5.878   8.624   4.816 -0.7030  0.8593  0.1919
  764MOL0     H 5373   5.876   8.767   5.013  1.4008  0.8805  1.3377
  764MOL0     H 5374   5.921   8.848   4.863 -0.7190  1.9770  2.3836
  764MOL0     H 5375   6.089   8.756   5.104 -0.7720  1.8962  0.4314
  764MOL0     H 5376   6.175   8.781   4.944 -0.3849 -0.0498 -0.0956
  764MOL0     H 5377   6.027   9.000   4.954  1.2902 -0.0266 -1.7640
  764MOL0     H 5378   6.182   8.999   5.046 -1.0631  1.1298  1.9877
  764MOL0     H 5379   5.985   9.071   5.177 -0.0231 -0.0665 -1.8046
  764MOL0     H 5380   5.925   8.904   5.186 -0.1971  0.1165 -0.3406
  764MOL0     H 5381   5.946   8.906   5.445 -1.3987  0.0145 -0.5950
  764MOL0     H 5382   6.185   9.026   5.693  0.6674 -0.0813  0.1520
  764MOL0     H 5383   6.222   8.859   5.677 -1.0631 -2.6033 -1.8034
  764MOL0     H 5384   5.938   8.961   5.661  0.6476 -0.5805  1.0911
  764MOL0     H 5385   6.009   8.786   5.673  1.3836 -0.8619 -1.5833
  764MOL0     H 5386   6.076   8.848   5.909 -1.5281  0.4031  2.0559
  764MOL0     H 5387   5.980   9.000   5.885  0.2820  0.8894 -1.8590
  764MOL0     H 5388   5.790   8.862   5.831 -0.0267  1.6693  2.3958
  764MOL0     H 5389   5.866   8.702   5.868  0.0198 -0.7768  0.6948
  764MOL0     H 5390   6.057   8.715   6.077  1.8411  1.6184  0.8522
  764MOL0     H 5391   6.235   8.660   6.378  0.3764 -0.2443 -0.4182
  764MOL0     H 5392   6.276   8.694   6.214 -0.4723 -0.2138 -0.9314
  764MOL0     H 5393   6.201   8.545   6.259  0.3254  0.8997 -1.6774
  764MOL0     H 5394   6.303   8.913   6.745 -1.1995 -0.2604 -2.0404
  764MOL0     H 5395   6.358   8.874   6.973 -0.4330  0.7671  0.3915
  764MOL0     H 5396   6.172   8.733   7.315  0.0915  1.9793 -1.4347
  764MOL0     H 5397   6.049   8.682   7.196 -0.7074 -0.6594  1.5726
  764MOL0     H 5398   6.220   8.472   7.207  1.3947  1.1697  0.7592
  764MOL0     H 5399   6.281   8.528   7.356 -0.5400  1.4486 -0.6161
  764MOL0     H 5400   6.119   8.401   7.443 -1.9440  1.8536  2.4902
  764MOL0     H 5401   6.061   8.371   7.288 -1.4206  0.5907  0.5705
  764MOL0     H 5402   5.883   8.568   7.315  1.2535  3.8749 -0.9562
  764MOL0     H 5403   5.967   8.623   7.457  2.2845 -1.1056  0.5982
  764MOL0     H 5404   5.756   8.468   7.456 -0.0977 -0.7245  0.0281
  764MOL0     H 5405   5.866   8.340   7.442  2.9709  0.1221  0.5611
  764MOL0     H 5406   5.901   8.536   7.664 -4.0821 -0.4445  0.0174
  764MOL0     H 5407   5.997   8.393   7.632 -0.0502  0.2917  4.8364
  764MOL0     H 5408   5.797   8.255   7.643  1.8883  0.0690 -0.6976
  764MOL0     H 5409   5.698   8.390   7.718 -0.3002 -0.0130 -0.1860
  764MOL0     H 5410   5.913   8.227   7.844 -1.8636 -0.9106 -2.4367
  764MOL0     H 5411   5.741   8.265   7.890  0.2124 -0.9047  0.9857
  764MOL0     H 5412   6.098   8.546   6.991  3.2676 -0.2435 -0.0181
  764MOL0     H 5413   5.999   8.592   6.767  0.2962 -1.9501  3.5947
  764MOL0     H 5414   5.822   8.832   6.486  1.3111  1.5068  1.6769
  764MOL0     H 5415   5.699   8.881   6.258 -0.9645 -2.6853  2.2645
  764MOL0     H 5416   5.893   7.899   4.825 -0.2405  2.2269  0.8141
  764MOL0     H 5417   6.037   7.720   4.935 -1.7282 -0.9724 -3.4397
  764MOL0     H 5418   6.301   7.545   5.085 -1.6204  0.7483  1.7783
  764MOL0     H 5419   6.413   7.313   5.149  1.0007 -1.0835  2.7272
  764MOL0     H 5420   6.679   7.077   5.276  0.1256 -0.2358 -1.0514
  764MOL0     H 5421   6.517   7.137   5.314 -0.2702 -0.6081 -1.6592
  764MOL0     H 5422   6.465   7.109   5.060 -0.2174 -1.6064 -0.5049
  764MOL0     H 5423   6.557   6.972   5.111  0.3831 -0.8147  0.4850
  764MOL0     H 5424   6.706   7.228   5.004  1.1948 -0.3811 -2.9043
  764MOL0     H 5425   6.760   7.066   5.001  2.2123  1.8296 -5.5906
  764MOL0     H 5426   6.554   7.006   4.861 -1.7036  0.0381 -1.7690
  764MOL0     H 5427   6.696   7.084   4.793 -0.0510  0.2886  0.4734
  764MOL0     H 5428   6.418   7.402   4.732  1.3457  1.2407  1.1468
  764MOL0     H 5429   6.760   7.516   5.271 -0.5055 -3.2771  1.1411
  764MOL0     H 5430   6.644   7.818   5.306  1.5781 -0.8895  1.6850
  764MOL0     H 5431   6.783   7.744   5.238 -0.2631  0.5601 -0.6695
  764MOL0     H 5432   6.699   7.851   5.133  3.3171 -1.5050 -0.1653
  765MOL0     O 5433   3.001   4.459   4.980 -0.0944 -0.2009 -0.0715
  765MOL0     C 5434   3.024   4.338   4.999 -0.0701  0.6621 -0.2268
  765MOL0     O 5435   3.142   4.286   5.047  0.1076  0.1673  0.0989
  765MOL0     C 5436   3.258   4.360   5.032  0.7837  1.2348 -0.8272
  765MOL0     C 5437   3.309   4.381   4.896  0.6352  0.6700 -0.5588
  765MOL0     C 5438   3.418   4.477   4.883 -0.5772 -0.6067  0.1121
  765MOL0     C 5439   3.483   4.527   4.996  0.9702 -0.0381 -0.7564
  765MOL0     O 5440   3.584   4.616   4.975 -0.7631 -0.1579  0.4011
  765MOL0     C 5441   3.618   4.709   5.078  1.0050  0.3297 -0.0801
  765MOL0     C 5442   3.662   4.841   5.024 -0.4827 -0.8912  0.0626
  765MOL0     C 5443   3.777   4.839   4.910 -0.2835 -0.2733  0.1394
  765MOL0     C 5444   3.889   4.732   4.942  0.0115  0.7095  0.5203
  765MOL0     C 5445   3.979   4.723   4.817  0.7959  0.5932  0.0285
  765MOL0     C 5446   4.112   4.645   4.838  0.4194 -0.7275  0.2330
  765MOL0     C 5447   4.214   4.672   4.733 -0.0791 -0.2572 -0.1706
  765MOL0     C 5448   4.188   4.585   4.610 -0.9556  0.3173 -0.2638
  765MOL0     N 5449   4.236   4.446   4.620  0.6490 -0.8019  0.3977
  765MOL0     C 5450   4.169   4.333   4.674  0.7442  0.4547  1.3110
  765MOL0     C 5451   4.261   4.241   4.673 -0.3982  0.1471  0.9293
  765MOL0     C 5452   4.246   4.105   4.731 -0.0828 -0.3563  0.2938
  765MOL0     C 5453   4.330   4.108   4.854 -0.5424  0.0902 -1.0480
  765MOL0     C 5454   4.304   3.999   4.956  0.1307 -0.0199  0.4920
  765MOL0     C 5455   4.387   4.035   5.077 -0.5329 -0.4031 -0.3579
  765MOL0     O 5456   4.338   4.149   5.154 -0.2198  0.2744 -0.1245
  765MOL0     C 5457   4.400   4.271   5.158 -0.4723  0.6375  0.3496
  765MOL0     C 5458   4.510   4.311   5.088 -1.6481 -0.8562  0.7329
  765MOL0     C 5459   4.568   4.444   5.092  0.1862 -0.0033 -0.9395
  765MOL0     C 5460   4.681   4.474   4.984 -0.6339  0.0995 -0.7334
  765MOL0     C 5461   4.484   4.532   5.167 -0.4842 -0.7682  0.0608
  765MOL0     C 5462   4.507   4.682   5.171 -0.6490 -0.0191  0.3672
  765MOL0     O 5463   4.400   4.754   5.224  0.1761 -0.1183 -0.4218
  765MOL0     C 5464   4.428   4.892   5.260  0.0449  0.5652 -0.0485
  765MOL0     C 5465   4.531   4.927   5.343  0.2552 -0.1031 -0.0041
  765MOL0     C 5466   4.565   5.060   5.385 -0.3481 -0.8150  0.3013
  765MOL0     C 5467   4.490   5.166   5.329  0.8573  0.5802 -0.5740
  765MOL0     O 5468   4.532   5.298   5.363 -0.5193 -0.2163  0.4927
  765MOL0     C 5469   4.667   5.321   5.328 -0.1913 -0.3644 -0.8507
  765MOL0     C 5470   4.751   5.363   5.454  0.2904  0.2077  0.2636
  765MOL0     C 5471   4.902   5.361   5.428  0.3183  0.2811  0.4106
  765MOL0     C 5472   4.945   5.459   5.315  0.7902  0.0631  0.0823
  765MOL0     C 5473   5.098   5.445   5.290  0.0565  0.4678  0.7912
  765MOL0     C 5474   5.183   5.495   5.404 -0.3244 -0.3704 -0.7678
  765MOL0     C 5475   5.332   5.458   5.382  0.1482 -0.3135 -0.3351
  765MOL0     C 5476   5.428   5.565   5.438 -0.4624 -0.0898 -0.6355
  765MOL0    Cl 5477   5.484   5.533   5.614  0.1500  0.2177 -0.1999
  765MOL0     C 5478   4.380   5.138   5.247 -0.6124 -0.5466 -0.0817
  765MOL0     C 5479   4.353   4.999   5.211  1.1632  0.0795  0.2734
  765MOL0     O 5480   4.606   4.729   5.120 -0.0746  0.1928 -1.1827
  765MOL0     C 5481   4.390   4.480   5.257  0.0312  0.2030 -0.4280
  765MOL0     C 5482   4.347   4.349   5.259 -1.1211 -0.4432  1.4308
  765MOL0     N 5483   4.380   4.286   4.619  0.3145  0.6080  0.4553
  765MOL0     N 5484   4.360   4.411   4.596  0.5480 -0.6870  0.4780
  765MOL0     C 5485   3.447   4.484   5.122  0.5569  0.3956 -0.4043
  765MOL0     C 5486   3.332   4.409   5.139  0.4493  0.3539  0.3740
  765MOL0     C 5487   2.917   4.239   4.973 -0.1093  0.2109  0.0618
  765MOL0     C 5488   2.927   4.121   5.052  0.4744 -0.7156  0.2193
  765MOL0     C 5489   2.824   4.027   5.043 -1.1394 -0.2033 -0.5787
  765MOL0     C 5490   2.720   4.030   4.952  0.5624 -0.8725 -0.8976
  765MOL0     O 5491   2.609   3.947   4.943  0.8269 -0.2621  0.0375
  765MOL0     C 5492   2.626   3.804   4.962 -0.4027 -0.1657  0.6704
  765MOL0     C 5493   2.530   3.733   4.880  0.9878  0.0405 -0.7319
  765MOL0     C 5494   2.383   3.760   4.907  0.3560 -0.5797  0.1291
  765MOL0     C 5495   2.301   3.674   4.803  0.1755  0.1200 -0.1554
  765MOL0     C 5496   2.161   3.713   4.812  0.2347  0.4991 -0.7993
  765MOL0     C 5497   2.059   3.769   4.821  1.2721 -0.0149  0.0655
  765MOL0     C 5498   2.726   4.141   4.863 -0.1530  0.2769 -0.3403
  765MOL0     C 5499   2.827   4.243   4.867  0.2951  0.7913  0.6139
  765MOL0     C 5500   2.831   4.358   4.766  0.9031 -0.2329 -0.6336
  765MOL0     H 5501   3.255   4.364   4.803 -0.7265  0.5982  0.2057
  765MOL0     H 5502   3.452   4.522   4.790  1.0718  0.4592  1.1861
  765MOL0     H 5503   3.700   4.656   5.129  0.5190 -0.7340 -0.3782
  765MOL0     H 5504   3.527   4.711   5.139 -1.0331 -2.9830 -2.6546
  765MOL0     H 5505   3.573   4.885   4.977 -1.0069 -0.1644  1.6555
  765MOL0     H 5506   3.692   4.912   5.102  1.5843 -1.2035 -0.3816
  765MOL0     H 5507   3.726   4.807   4.819 -2.1407 -0.5451  1.2230
  765MOL0     H 5508   3.819   4.940   4.905 -0.5359 -0.2036 -0.6963
  765MOL0     H 5509   3.937   4.772   5.033  0.6585 -0.6184  0.7922
  765MOL0     H 5510   3.844   4.637   4.971 -1.2997  0.3885 -2.3349
  765MOL0     H 5511   4.010   4.824   4.790  0.3300  0.2125 -2.1577
  765MOL0     H 5512   3.914   4.687   4.736 -3.6405  4.2040  1.5690
  765MOL0     H 5513   4.173   4.667   4.926  1.4306  1.6151 -0.9537
  765MOL0     H 5514   4.087   4.539   4.847 -1.7523 -0.2282  0.7557
  765MOL0     H 5515   4.315   4.647   4.767 -1.0036  0.7781  3.8313
  765MOL0     H 5516   4.218   4.778   4.708  1.0608  0.2062  1.7766
  765MOL0     H 5517   4.079   4.577   4.602 -0.8206 -0.0656 -1.9587
  765MOL0     H 5518   4.229   4.630   4.520 -2.4218  0.8754 -0.6827
  765MOL0     H 5519   4.069   4.329   4.716  0.9897  3.3358  2.3804
  765MOL0     H 5520   4.293   4.035   4.661  0.3702 -1.2461  1.4630
  765MOL0     H 5521   4.140   4.076   4.739 -0.4994  1.4788  2.2386
  765MOL0     H 5522   4.436   4.110   4.826  0.0005 -1.0177  0.7350
  765MOL0     H 5523   4.332   4.208   4.896 -0.5076 -0.6123  0.7018
  765MOL0     H 5524   4.199   4.001   4.987 -0.8319 -2.1616 -2.2474
  765MOL0     H 5525   4.331   3.900   4.919  0.3794 -0.2016  1.1389
  765MOL0     H 5526   4.378   3.943   5.136  0.2772  1.3498  2.7217
  765MOL0     H 5527   4.496   4.035   5.070 -0.1646 -2.1785  3.1332
  765MOL0     H 5528   4.540   4.238   5.014 -0.8280 -0.3456  0.5502
  765MOL0     H 5529   4.671   4.576   4.946  1.0523  0.1930 -1.0214
  765MOL0     H 5530   4.664   4.393   4.912 -0.6208 -0.3024 -0.2936
  765MOL0     H 5531   4.783   4.460   5.022 -1.8392 -0.8284  2.5046
  765MOL0     H 5532   4.590   4.843   5.378  1.8969  0.5926 -0.9754
  765MOL0     H 5533   4.650   5.076   5.451  0.9237  1.1887 -1.6566
  765MOL0     H 5534   4.725   5.237   5.289  0.5805 -1.2736  2.0086
  765MOL0     H 5535   4.670   5.403   5.255 -0.1269 -0.1871 -0.6487
  765MOL0     H 5536   4.715   5.462   5.484 -2.5001 -0.7455  0.3385
  765MOL0     H 5537   4.732   5.293   5.536  2.8200 -2.3903 -1.1668
  765MOL0     H 5538   4.949   5.265   5.407  1.4753  0.4223  2.1678
  765MOL0     H 5539   4.948   5.411   5.514  1.5651  0.4331 -0.3160
  765MOL0     H 5540   4.932   5.564   5.343  0.5790  0.2275 -0.6118
  765MOL0     H 5541   4.896   5.436   5.220  1.8487  0.7206 -0.6491
  765MOL0     H 5542   5.129   5.344   5.265  1.0303  1.0212 -0.3409
  765MOL0     H 5543   5.108   5.517   5.208 -3.1168 -0.5970 -0.7018
  765MOL0     H 5544   5.147   5.461   5.501 -0.6088  0.3187 -0.6252
  765MOL0     H 5545   5.172   5.604   5.408 -0.0023 -0.3567 -0.1025
  765MOL0     H 5546   5.360   5.423   5.282 -1.3908 -3.2950  0.1584
  765MOL0     H 5547   5.345   5.367   5.443 -1.7029  0.3146  1.1023
  765MOL0     H 5548   5.382   5.664   5.434  0.4438  0.3994  0.3271
  765MOL0     H 5549   5.521   5.559   5.380  1.3498  1.1468  1.9149
  765MOL0     H 5550   4.324   5.224   5.212 -1.2123 -0.9335 -0.0931
  765MOL0     H 5551   4.269   4.969   5.148 -0.9835  1.2455  2.4520
  765MOL0     H 5552   4.365   4.543   5.342  1.2956  1.7323 -1.1275
  765MOL0     H 5553   4.273   4.310   5.327 -1.9272 -1.6088 -0.0509
  765MOL0     H 5554   3.490   4.525   5.213 -0.4603  1.7471 -0.4987
  765MOL0     H 5555   3.293   4.401   5.240  2.9956  1.4396  1.5577
  765MOL0     H 5556   3.001   4.107   5.130 -0.6171  0.8238  1.5962
  765MOL0     H 5557   2.840   3.933   5.096 -0.5430  0.9416  1.3577
  765MOL0     H 5558   2.731   3.783   4.939  0.6394  0.4671  4.1458
  765MOL0     H 5559   2.602   3.785   5.067  0.3639 -0.0605  0.8742
  765MOL0     H 5560   2.557   3.627   4.874 -1.3118 -0.5858 -1.2375
  765MOL0     H 5561   2.545   3.769   4.778  1.2551  0.4922 -0.5361
  765MOL0     H 5562   2.354   3.737   5.010 -0.8168  0.2386 -0.0034
  765MOL0     H 5563   2.357   3.865   4.895  2.3589  0.2521  2.2773
  765MOL0     H 5564   2.312   3.567   4.819 -1.9787 -0.1399 -0.1090
  765MOL0     H 5565   2.342   3.688   4.702  0.2047 -1.1909 -0.3473
  765MOL0     H 5566   1.960   3.810   4.833  1.2337 -0.3679  1.0821
  765MOL0     H 5567   2.647   4.141   4.788 -1.0148  0.4914  0.5510
  765MOL0     H 5568   2.935   4.386   4.745  0.4685  1.7086 -0.3770
  765MOL0     H 5569   2.772   4.338   4.677 -1.4347  1.0082  0.5597
  765MOL0     H 5570   2.782   4.441   4.818 -0.7795 -1.1036 -0.7575
  766MOL0     O 5571   3.468  11.200   9.744 -0.6488  0.2504  0.9521
  766MOL0     C 5572   3.483  11.314   9.756  0.9336 -0.5394 -0.7519
  766MOL0     O 5573   3.413  11.392   9.850 -0.1924  0.4137 -0.3612
  766MOL0     C 5574   3.305  11.333   9.923  0.0042  0.1108  1.9137
  766MOL0     C 5575   3.208  11.263   9.850  0.1675  0.2086 -0.4502
  766MOL0     C 5576   3.092  11.210   9.915 -0.5718 -1.0131 -0.0766
  766MOL0     C 5577   3.080  11.227  10.060 -0.4965  0.1395 -0.6867
  766MOL0     O 5578   2.963  11.181  10.120 -0.4733 -0.0112 -0.6587
  766MOL0     C 5579   2.935  11.228  10.252  0.0051  0.1903 -0.6739
  766MOL0     C 5580   3.022  11.141  10.350  1.0773 -0.0499 -0.2708
  766MOL0     C 5581   3.003  11.181  10.495  0.1154  1.3240 -0.5241
  766MOL0     C 5582   3.096  11.305  10.521  0.1568  0.1851  0.3764
  766MOL0     C 5583   3.094  11.334  10.671 -0.2833 -0.9372 -0.3929
  766MOL0     C 5584   3.184  11.463  10.672  0.2570  0.6884  0.1241
  766MOL0     C 5585   3.168  11.556  10.797  0.1906 -0.7793 -0.1070
  766MOL0     C 5586   3.284  11.663  10.790  0.3986 -0.5949  0.3759
  766MOL0     N 5587   3.260  11.778  10.880  0.0519 -0.0656  0.1382
  766MOL0     C 5588   3.176  11.883  10.852 -0.1571  0.6813  0.0531
  766MOL0     C 5589   3.192  11.975  10.947  0.1602  0.8751  0.0271
  766MOL0     C 5590   3.125  12.124  10.963  1.0795  0.8710 -0.9704
  766MOL0     C 5591   3.051  12.167  10.844 -0.1392 -0.0251  0.6210
  766MOL0     C 5592   2.956  12.287  10.873 -0.0556  1.2636 -0.1456
  766MOL0     C 5593   2.835  12.291  10.786  0.9048  0.1522 -0.3295
  766MOL0     O 5594   2.737  12.199  10.838  0.0058 -0.6630 -0.2627
  766MOL0     C 5595   2.616  12.256  10.872  0.2407 -0.3759 -0.3077
  766MOL0     C 5596   2.495  12.226  10.806  0.5960 -1.8191 -0.0911
  766MOL0     C 5597   2.375  12.299  10.840 -0.2625  0.4793  0.5284
  766MOL0     C 5598   2.265  12.259  10.751 -0.4050  0.4007 -0.2450
  766MOL0     C 5599   2.366  12.394  10.945  1.1050 -0.3183  0.2422
  766MOL0     C 5600   2.239  12.459  10.990  0.4817 -0.1717 -1.0332
  766MOL0     O 5601   2.225  12.483  11.120  0.0942 -0.5083 -0.4275
  766MOL0     C 5602   2.101  12.516  11.168 -0.3865 -0.7514 -0.2523
  766MOL0     C 5603   2.042  12.638  11.130  0.6501  0.2794  1.8215
  766MOL0     C 5604   1.924  12.683  11.200  0.2116  0.9520  0.1864
  766MOL0     C 5605   1.870  12.610  11.300 -0.1442  0.8895  0.3284
  766MOL0     O 5606   1.763  12.669  11.360  0.0929  0.3395  0.2178
  766MOL0     C 5607   1.750  12.665  11.504  0.5637  0.2682  0.1262
  766MOL0     C 5608   1.650  12.768  11.532  0.1436 -0.2361  0.1072
  766MOL0     C 5609   1.635  12.806  11.675  0.2082  1.1071  0.2655
  766MOL0     C 5610   1.599  12.677  11.755 -0.1909  0.2519 -0.6227
  766MOL0     C 5611   1.545  12.692  11.898 -0.1273 -0.8167 -0.0374
  766MOL0     C 5612   1.566  12.568  11.985 -0.5097 -0.4926  0.8941
  766MOL0     C 5613   1.513  12.586  12.120 -1.2424 -0.2399 -1.0223
  766MOL0     C 5614   1.595  12.502  12.222  0.0348 -0.0858 -0.0649
  766MOL0    Cl 5615   1.619  12.332  12.174  0.2725 -0.2901 -0.2062
  766MOL0     C 5616   1.920  12.479  11.331  0.1412  0.1760  0.8382
  766MOL0     C 5617   2.040  12.447  11.269  0.5381 -0.1644 -0.3109
  766MOL0     O 5618   2.153  12.485  10.910  0.6302 -0.4738 -0.2527
  766MOL0     C 5619   2.482  12.404  11.019 -0.2978  0.1421  0.0468
  766MOL0     C 5620   2.601  12.344  10.987 -0.5558 -0.1208  0.1098
  766MOL0     N 5621   3.276  11.909  11.046  0.7457  0.8992  0.5549
  766MOL0     N 5622   3.313  11.793  11.003  0.1764 -0.3846 -0.0906
  766MOL0     C 5623   3.182  11.304  10.121  0.1959 -0.4888  0.3784
  766MOL0     C 5624   3.291  11.352  10.058  0.5876 -0.4571 -0.2651
  766MOL0     C 5625   3.581  11.394   9.670  0.0349 -0.3312 -0.1942
  766MOL0     C 5626   3.556  11.526   9.642  0.6632 -0.1972 -0.5148
  766MOL0     C 5627   3.643  11.614   9.574  0.5029  0.0061  0.5284
  766MOL0     C 5628   3.755  11.557   9.516 -1.1000  0.7817  0.0998
  766MOL0     O 5629   3.839  11.652   9.457  0.4901  0.5725 -0.9848
  766MOL0     C 5630   3.913  11.600   9.353  0.0170 -0.0239  0.0755
  766MOL0     C 5631   3.970  11.712   9.263  0.3788 -0.5292  0.1387
  766MOL0     C 5632   4.031  11.813   9.345  0.2341  0.2021 -0.0322
  766MOL0     C 5633   4.060  11.934   9.257  0.4379  0.3409 -0.8678
  766MOL0     C 5634   4.158  12.005   9.331 -0.3246 -0.8003  0.2600
  766MOL0     C 5635   4.251  12.064   9.387 -0.4654  0.7242  0.5120
  766MOL0     C 5636   3.772  11.422   9.525  0.0133  0.0254 -0.1742
  766MOL0     C 5637   3.691  11.335   9.599  0.3257  0.4522 -0.2946
  766MOL0     C 5638   3.716  11.191   9.584 -0.2625 -0.4015  0.0669
  766MOL0     H 5639   3.212  11.239   9.744 -4.3633 -1.1827 -0.5288
  766MOL0     H 5640   3.013  11.161   9.859 -0.6296  0.2238 -1.1377
  766MOL0     H 5641   2.827  11.219  10.271  0.2086 -0.4559  0.2478
  766MOL0     H 5642   2.962  11.333  10.268  2.7349 -0.5458 -0.0130
  766MOL0     H 5643   2.967  11.047  10.357  4.5388 -2.1507  1.7697
  766MOL0     H 5644   3.127  11.136  10.321  1.6236  1.1807  1.3605
  766MOL0     H 5645   2.902  11.204  10.527  0.5203  1.0439  1.0241
  766MOL0     H 5646   3.039  11.097  10.555 -0.6864  1.1876 -0.2218
  766MOL0     H 5647   3.194  11.278  10.480 -1.0814 -1.9431 -1.3859
  766MOL0     H 5648   3.061  11.396  10.473 -1.6819  0.4631  2.0922
  766MOL0     H 5649   3.136  11.254  10.732  0.8675 -0.8969 -1.1051
  766MOL0     H 5650   2.990  11.353  10.702 -0.0490  0.6257 -0.4877
  766MOL0     H 5651   3.289  11.438  10.654  0.6859  1.0838  1.8901
  766MOL0     H 5652   3.151  11.527  10.590  0.7265 -1.1249 -1.5571
  766MOL0     H 5653   3.178  11.504  10.893  0.9696 -1.8932 -0.7675
  766MOL0     H 5654   3.072  11.608  10.789  0.7667  0.4483  0.6604
  766MOL0     H 5655   3.382  11.618  10.812 -0.2708 -1.8606  0.8787
  766MOL0     H 5656   3.290  11.701  10.687  0.6259 -2.0380 -0.1850
  766MOL0     H 5657   3.127  11.898  10.756 -1.7805  0.3851  0.8090
  766MOL0     H 5658   3.198  12.198  10.998 -1.2940  2.7623  0.2987
  766MOL0     H 5659   3.047  12.115  11.039  1.1680 -0.6095 -1.0267
  766MOL0     H 5660   3.124  12.177  10.763  0.8578 -0.8249  1.3838
  766MOL0     H 5661   2.995  12.082  10.804  3.9046 -2.3650 -0.7947
  766MOL0     H 5662   2.935  12.296  10.980  3.3382  4.9437  0.4708
  766MOL0     H 5663   3.018  12.376  10.859  0.1615  1.2184  0.4770
  766MOL0     H 5664   2.789  12.389  10.773 -0.2482  0.2122  3.1148
  766MOL0     H 5665   2.864  12.268  10.684  0.7409 -2.5559  0.1529
  766MOL0     H 5666   2.502  12.160  10.720  1.6434  1.2223 -2.5106
  766MOL0     H 5667   2.294  12.197  10.665 -2.5846 -0.5753 -0.3521
  766MOL0     H 5668   2.221  12.349  10.707 -0.9489 -0.5331 -1.7066
  766MOL0     H 5669   2.198  12.191  10.805  2.3495 -1.3128  1.2980
  766MOL0     H 5670   2.082  12.691  11.044 -0.8364  2.6433  2.4956
  766MOL0     H 5671   1.879  12.778  11.174  2.9100  2.1542 -0.5242
  766MOL0     H 5672   1.719  12.564  11.532  1.9864  0.4446  2.6479
  766MOL0     H 5673   1.846  12.685  11.554  1.1065  2.1984 -1.5517
  766MOL0     H 5674   1.680  12.858  11.478  2.2582  1.5828  3.9263
  766MOL0     H 5675   1.548  12.750  11.495 -0.6557 -0.0465  2.1223
  766MOL0     H 5676   1.543  12.863  11.689 -0.9260 -1.3014  4.4219
  766MOL0     H 5677   1.724  12.854  11.716  1.8356  1.1266 -2.9458
  766MOL0     H 5678   1.695  12.628  11.775 -0.9535 -0.5046  1.4326
  766MOL0     H 5679   1.535  12.605  11.704 -0.3575 -1.8775  2.3212
  766MOL0     H 5680   1.600  12.776  11.941 -1.5587 -0.5822  1.4164
  766MOL0     H 5681   1.440  12.721  11.912  0.8084  1.9490  2.0911
  766MOL0     H 5682   1.674  12.550  11.989 -0.4607 -0.7294 -0.8342
  766MOL0     H 5683   1.525  12.482  11.932  2.2424  0.4715 -3.3364
  766MOL0     H 5684   1.405  12.568  12.118 -1.5410  1.3797 -1.9548
  766MOL0     H 5685   1.521  12.691  12.150 -1.7173 -0.1041 -1.3486
  766MOL0     H 5686   1.529  12.499  12.309 -2.1415 -0.9306 -1.6353
  766MOL0     H 5687   1.690  12.552  12.242  0.6152 -0.3928 -1.8797
  766MOL0     H 5688   1.865  12.418  11.402  1.6970 -2.2842  0.0297
  766MOL0     H 5689   2.097  12.361  11.302 -0.6866 -0.2957  1.6908
  766MOL0     H 5690   2.477  12.466  11.107 -0.3511  1.6080 -0.9620
  766MOL0     H 5691   2.689  12.365  11.047  0.1606  2.6852 -1.6960
  766MOL0     H 5692   3.156  11.341  10.220 -2.1855  1.5849 -0.8916
  766MOL0     H 5693   3.364  11.413  10.110 -1.3961  2.6780 -0.9421
  766MOL0     H 5694   3.457  11.561   9.670  1.1405  2.1693 -1.5356
  766MOL0     H 5695   3.631  11.720   9.554  2.8469 -0.1471 -2.4758
  766MOL0     H 5696   3.998  11.545   9.394  0.2402  0.7641  0.6983
  766MOL0     H 5697   3.864  11.523   9.293  1.5795  0.7488 -2.3654
  766MOL0     H 5698   3.893  11.760   9.201  1.7071  3.0053  1.0068
  766MOL0     H 5699   4.031  11.661   9.187 -1.4258 -1.5945 -0.6796
  766MOL0     H 5700   3.958  11.845   9.420 -3.2377 -3.8548 -1.3109
  766MOL0     H 5701   4.121  11.770   9.391  0.4720 -2.1927 -2.5288
  766MOL0     H 5702   3.963  11.982   9.239 -2.2377 -3.7896  0.7683
  766MOL0     H 5703   4.116  11.895   9.172  1.9621  2.2588 -0.8048
  766MOL0     H 5704   4.330  12.129   9.420 -0.4196  1.3452 -0.7544
  766MOL0     H 5705   3.851  11.366   9.477  1.0240  1.0867  0.2121
  766MOL0     H 5706   3.699  11.144   9.681 -1.4151  2.0599  1.1491
  766MOL0     H 5707   3.643  11.159   9.509 -3.0783  1.4193  1.8206
  766MOL0     H 5708   3.814  11.164   9.543 -0.4477  0.4252 -0.9778
  767MOL0     O 5709   0.124   2.278   9.616  0.6280 -0.5618 -0.0268
  767MOL0     C 5710   0.111   2.166   9.673 -1.0733 -0.4975  0.8342
  767MOL0     O 5711   0.152   2.046   9.617  0.3602  1.1054  0.4900
  767MOL0     C 5712   0.155   2.018   9.482  0.0795  0.9901 -0.3110
  767MOL0     C 5713   0.198   1.899   9.440 -0.1353  1.0344 -0.0221
  767MOL0     C 5714   0.205   1.871   9.308  0.0572  0.1811 -0.1774
  767MOL0     C 5715   0.156   1.957   9.218 -0.6015  0.3837 -0.0779
  767MOL0     O 5716   0.144   1.936   9.081  0.1555 -0.0275  0.1019
  767MOL0     C 5717   0.243   1.853   9.013  0.6346 -0.6509 -0.0609
  767MOL0     C 5718   0.279   1.918   8.887  0.0707 -0.7676  0.1336
  767MOL0     C 5719   0.397   1.855   8.816  0.3103 -0.8128  0.4422
  767MOL0     C 5720   0.416   1.911   8.673 -0.4477 -0.2523  0.2060
  767MOL0     C 5721   0.526   1.842   8.584 -0.4034 -0.1744  1.4288
  767MOL0     C 5722   0.507   1.690   8.572  1.0049  0.2508  1.1198
  767MOL0     C 5723   0.606   1.627   8.468  0.0307 -1.3008 -0.2047
  767MOL0     C 5724   0.593   1.479   8.480  0.3520  0.4944 -1.0253
  767MOL0     N 5725   0.688   1.396   8.399 -0.0970  0.2944 -0.0000
  767MOL0     C 5726   0.683   1.359   8.266 -0.6740  0.6569 -0.2546
  767MOL0     C 5727   0.815   1.342   8.232  0.6624  0.2051 -0.2083
  767MOL0     C 5728   0.866   1.308   8.099  0.4927  0.6541  0.0166
  767MOL0     C 5729   0.897   1.431   8.003 -0.1228  0.7106 -0.1535
  767MOL0     C 5730   0.984   1.386   7.888  0.4571 -0.6502 -0.2724
  767MOL0     C 5731   0.912   1.292   7.795  0.4921 -0.2383  0.1318
  767MOL0     O 5732   0.784   1.357   7.751 -0.0879  0.4162  0.2168
  767MOL0     C 5733   0.696   1.285   7.679 -0.7435  0.4488 -0.6624
  767MOL0     C 5734   0.572   1.330   7.641 -0.3055 -0.4184  0.5488
  767MOL0     C 5735   0.469   1.257   7.567 -0.2296  0.7310 -0.7783
  767MOL0     C 5736   0.337   1.325   7.551 -0.1893 -0.2609 -1.4192
  767MOL0     C 5737   0.498   1.115   7.537 -0.1981 -1.0142 -0.1390
  767MOL0     C 5738   0.395   1.022   7.482 -0.4184  0.0598 -0.0682
  767MOL0     O 5739   0.448   0.917   7.404 -0.3455 -0.8016 -0.1807
  767MOL0     C 5740   0.354   0.849   7.338 -0.1482  0.9178  0.2140
  767MOL0     C 5741   0.279   0.900   7.236 -0.4622  0.4221 -0.6694
  767MOL0     C 5742   0.198   0.824   7.157  0.4986  1.0380  0.1856
  767MOL0     C 5743   0.181   0.689   7.188  0.7933 -0.3072  0.2805
  767MOL0     O 5744   0.110   0.601   7.117  0.2996  0.2344 -0.4892
  767MOL0     C 5745   0.084   0.621   6.981 -0.3459  0.2325  0.1593
  767MOL0     C 5746   0.030   0.488   6.923 -1.1928 -0.0159 -0.3364
  767MOL0     C 5747   0.138   0.393   6.881 -0.5548 -0.2544  0.2549
  767MOL0     C 5748   0.068   0.273   6.834  0.9247  0.2795  1.1990
  767MOL0     C 5749   0.152   0.180   6.748  0.0507 -0.2776 -0.0797
  767MOL0     C 5750   0.078   0.062   6.685 -0.2691 -0.7120 -0.6557
  767MOL0     C 5751   0.149  -0.079   6.706 -0.1509  0.1369 -0.1782
  767MOL0     C 5752   0.138  -0.127   6.852  0.5457  0.4901  0.0825
  767MOL0    Cl 5753  -0.036  -0.152   6.891  0.0025  0.1271  0.0248
  767MOL0     C 5754   0.255   0.637   7.301  1.1859 -1.1029  0.5920
  767MOL0     C 5755   0.333   0.719   7.372 -0.2295  0.3019  0.3493
  767MOL0     O 5756   0.276   1.057   7.480 -0.8955 -0.3582  0.1845
  767MOL0     C 5757   0.630   1.064   7.569  0.1991 -0.9596  0.4521
  767MOL0     C 5758   0.723   1.154   7.638  1.1240  0.3924  0.4709
  767MOL0     N 5759   0.898   1.352   8.348  0.7953  0.2634  0.3312
  767MOL0     N 5760   0.813   1.382   8.443  0.0190  0.1755 -0.7781
  767MOL0     C 5761   0.094   2.071   9.255  0.2001 -0.6039 -0.3670
  767MOL0     C 5762   0.095   2.107   9.387  0.7202 -0.9250  0.9064
  767MOL0     C 5763   0.093   2.166   9.819  0.5315 -0.3878  0.6003
  767MOL0     C 5764   0.055   2.043   9.881 -0.3291 -0.0001 -0.6142
  767MOL0     C 5765   0.035   2.028  10.009  0.5436 -0.2460 -0.1804
  767MOL0     C 5766   0.044   2.134  10.098  0.2307 -0.1169 -0.5483
  767MOL0     O 5767   0.026   2.101  10.232  0.4781  0.1505  0.4162
  767MOL0     C 5768   0.071   2.176  10.339 -0.8874 -0.1609 -0.5557
  767MOL0     C 5769  -0.029   2.295  10.359 -0.0386  0.5421  0.0096
  767MOL0     C 5770  -0.150   2.259  10.438 -0.1494 -0.3587  1.0315
  767MOL0     C 5771  -0.124   2.247  10.589  0.1813  0.0518 -0.0311
  767MOL0     C 5772  -0.254   2.233  10.656 -0.1918 -0.5395 -0.0545
  767MOL0     C 5773  -0.370   2.223  10.702  1.0463  0.4581  0.2505
  767MOL0     C 5774   0.089   2.263  10.054  0.6268  0.2847  0.8360
  767MOL0     C 5775   0.116   2.277   9.918  0.7744 -0.9863 -0.9290
  767MOL0     C 5776   0.167   2.419   9.884 -0.8361  0.2015  1.1226
  767MOL0     H 5777   0.221   1.818   9.508 -2.6273  0.3745  0.1442
  767MOL0     H 5778   0.226   1.769   9.280 -0.3813 -0.3248  1.2717
  767MOL0     H 5779   0.194   1.755   9.008 -0.7129 -0.1440  2.0171
  767MOL0     H 5780   0.334   1.856   9.075  1.1975  4.4425 -0.7178
  767MOL0     H 5781   0.197   1.906   8.816  0.1560  0.2388 -0.1477
  767MOL0     H 5782   0.288   2.023   8.914 -1.0490 -0.1586 -1.6868
  767MOL0     H 5783   0.493   1.862   8.867 -0.3462 -0.0429  1.6235
  767MOL0     H 5784   0.370   1.749   8.806 -0.4924 -0.5022 -1.0318
  767MOL0     H 5785   0.323   1.878   8.625 -1.7436  3.4132 -0.1543
  767MOL0     H 5786   0.439   2.018   8.677 -2.7908  0.2590  1.4656
  767MOL0     H 5787   0.628   1.859   8.620  0.5501 -0.3787 -1.0008
  767MOL0     H 5788   0.513   1.896   8.490  1.0983 -0.2192  1.1811
  767MOL0     H 5789   0.524   1.651   8.673  0.6865 -0.2843  0.9682
  767MOL0     H 5790   0.407   1.663   8.538  0.3833  0.5121  2.6403
  767MOL0     H 5791   0.706   1.672   8.478 -0.1267 -1.0274  0.1724
  767MOL0     H 5792   0.586   1.650   8.363  4.8811  1.5649 -0.8422
  767MOL0     H 5793   0.615   1.445   8.582 -1.0967  0.8832 -0.5551
  767MOL0     H 5794   0.490   1.447   8.461 -0.1230 -0.9980  2.9977
  767MOL0     H 5795   0.591   1.355   8.210 -1.7485 -2.8133  1.4604
  767MOL0     H 5796   0.794   1.234   8.061 -0.4584 -0.9552  4.3003
  767MOL0     H 5797   0.958   1.251   8.113 -1.9686 -3.0095  3.7227
  767MOL0     H 5798   0.805   1.484   7.975 -2.8502 -3.3176  0.3175
  767MOL0     H 5799   0.952   1.492   8.075  0.4681 -0.3392  0.3134
  767MOL0     H 5800   1.023   1.469   7.829 -2.3492  0.0929 -1.2432
  767MOL0     H 5801   1.069   1.344   7.942  0.5190 -0.6265 -0.3509
  767MOL0     H 5802   0.966   1.274   7.702  0.1274 -1.0006  0.0613
  767MOL0     H 5803   0.885   1.198   7.844  2.3625 -0.0076  1.7068
  767MOL0     H 5804   0.557   1.430   7.681 -0.4249 -0.4137  0.4911
  767MOL0     H 5805   0.349   1.433   7.563 -3.7811 -0.0763  3.0888
  767MOL0     H 5806   0.264   1.296   7.626 -1.8134  0.2335 -2.7454
  767MOL0     H 5807   0.292   1.304   7.453 -0.1993  0.2305 -1.5240
  767MOL0     H 5808   0.294   1.007   7.224 -0.2218  0.4353 -0.2641
  767MOL0     H 5809   0.136   0.856   7.074 -0.5706 -1.7201 -0.1901
  767MOL0     H 5810   0.006   0.697   6.970 -0.9399 -0.1655  1.4664
  767MOL0     H 5811   0.175   0.655   6.931 -0.7237  1.2679  0.1575
  767MOL0     H 5812  -0.040   0.440   6.993 -2.2747 -0.8056 -1.8922
  767MOL0     H 5813  -0.021   0.517   6.830  0.4330 -1.2930 -1.6911
  767MOL0     H 5814   0.218   0.375   6.953  0.2423 -2.3136 -1.0222
  767MOL0     H 5815   0.192   0.432   6.794  0.1336  2.9121  1.9753
  767MOL0     H 5816  -0.031   0.294   6.792 -0.3795  0.9884  4.3407
  767MOL0     H 5817   0.045   0.215   6.923  1.0883 -1.9002 -0.1047
  767MOL0     H 5818   0.210   0.242   6.680  2.7528 -1.5079  0.9633
  767MOL0     H 5819   0.236   0.145   6.808  1.0273  0.3912 -1.0184
  767MOL0     H 5820   0.057   0.081   6.579 -0.5176 -1.8586 -0.8299
  767MOL0     H 5821  -0.021   0.052   6.731 -0.0687 -5.4681 -0.7694
  767MOL0     H 5822   0.250  -0.052   6.674 -0.3855  0.9746 -0.2268
  767MOL0     H 5823   0.114  -0.156   6.636  0.4134  0.6426 -1.0287
  767MOL0     H 5824   0.180  -0.062   6.929  2.7599  0.4604 -1.0294
  767MOL0     H 5825   0.193  -0.220   6.864 -0.2350  0.0651  0.5089
  767MOL0     H 5826   0.238   0.534   7.329  1.4689 -1.3273 -0.0345
  767MOL0     H 5827   0.376   0.659   7.451 -3.6354 -0.2919  1.9413
  767MOL0     H 5828   0.663   0.968   7.530  2.3387  0.3187 -1.1955
  767MOL0     H 5829   0.811   1.090   7.644  0.0727 -1.0184  1.9061
  767MOL0     H 5830   0.033   2.135   9.192  1.1576 -0.2054 -0.9061
  767MOL0     H 5831   0.041   2.195   9.420  0.4219 -0.6542 -0.2723
  767MOL0     H 5832   0.016   1.966   9.815  2.9849 -2.4276 -0.0035
  767MOL0     H 5833   0.022   1.929  10.051  1.8114 -0.2170  0.3231
  767MOL0     H 5834   0.067   2.120  10.433 -3.2723  0.9173  0.0650
  767MOL0     H 5835   0.171   2.218  10.323  0.0443 -0.2582  3.7034
  767MOL0     H 5836  -0.060   2.347  10.268 -2.6925 -0.6283  0.1589
  767MOL0     H 5837   0.022   2.379  10.407  0.8995 -0.1630  0.2841
  767MOL0     H 5838  -0.206   2.352  10.420  1.0857 -0.0445 -1.7823
  767MOL0     H 5839  -0.213   2.182  10.395 -1.4855  2.3899 -2.4125
  767MOL0     H 5840  -0.082   2.338  10.632  0.1377  0.6844 -1.2965
  767MOL0     H 5841  -0.057   2.162  10.605 -0.1385 -0.2510 -0.2681
  767MOL0     H 5842  -0.469   2.215  10.741 -0.1116 -2.8685 -2.7606
  767MOL0     H 5843   0.092   2.352  10.117 -2.9050  1.5962 -0.5797
  767MOL0     H 5844   0.109   2.498   9.933  0.5926  2.9552 -1.3533
  767MOL0     H 5845   0.275   2.433   9.899 -0.6279 -0.5964  0.4468
  767MOL0     H 5846   0.154   2.443   9.778  1.1069  0.2301  0.8537
  768MOL0     O 5847   0.574   5.164   4.861 -0.2254  0.2856  0.3310
  768MOL0     C 5848   0.601   5.042   4.854 -0.0047  0.1216  0.2923
  768MOL0     O 5849   0.526   4.936   4.915 -0.4918 -0.5260 -0.3423
  768MOL0     C 5850   0.406   4.979   4.964 -0.7239  0.1642 -0.9793
  768MOL0     C 5851   0.294   5.024   4.891  0.0139  0.5334 -0.3529
  768MOL0     C 5852   0.176   5.051   4.950 -0.2277  0.2540 -0.0272
  768MOL0     C 5853   0.148   5.034   5.085 -0.3159  0.5744 -0.2834
  768MOL0     O 5854   0.026   5.072   5.127  0.1132 -0.5270 -0.2044
  768MOL0     C 5855   0.010   5.096   5.263  0.6206 -0.1322 -0.4365
  768MOL0     C 5856   0.075   5.219   5.323  0.3632 -0.7814  0.6368
  768MOL0     C 5857   0.162   5.190   5.443  0.5504  0.4873 -0.3668
  768MOL0     C 5858   0.080   5.222   5.564  0.6331  0.3395  0.0432
  768MOL0     C 5859   0.156   5.195   5.690  0.5447 -0.7660 -0.6621
  768MOL0     C 5860   0.067   5.237   5.808 -0.3237 -0.0504 -0.2911
  768MOL0     C 5861   0.103   5.194   5.950  0.2822  0.4595 -0.4851
  768MOL0     C 5862   0.245   5.241   5.987 -0.7487  0.5520 -0.5048
  768MOL0     N 5863   0.251   5.241   6.131 -0.4764  0.2271 -0.8777
  768MOL0     C 5864   0.245   5.124   6.201  0.0367  0.3870  0.1689
  768MOL0     C 5865   0.261   5.156   6.331 -0.0822 -0.4611  0.5627
  768MOL0     C 5866   0.266   5.071   6.449  0.3306  0.6185 -0.8441
  768MOL0     C 5867   0.180   5.123   6.562  0.6973  0.5511  0.7924
  768MOL0     C 5868   0.030   5.100   6.540 -0.2997 -0.0004 -0.0923
  768MOL0     C 5869  -0.059   5.193   6.447 -0.0368 -1.2281 -0.1335
  768MOL0     O 5870  -0.194   5.164   6.476  0.1074 -0.2506  0.7451
  768MOL0     C 5871  -0.275   5.253   6.406 -0.1712  0.0755 -1.1136
  768MOL0     C 5872  -0.284   5.394   6.452 -0.3797  1.2780  0.0347
  768MOL0     C 5873  -0.370   5.489   6.395  0.1697 -0.4874  0.0571
  768MOL0     C 5874  -0.383   5.625   6.465  0.0935 -0.3272  0.3936
  768MOL0     C 5875  -0.448   5.446   6.282 -0.0275  0.3341  0.0007
  768MOL0     C 5876  -0.551   5.541   6.211  0.9468  0.6813 -0.2870
  768MOL0     O 5877  -0.560   5.670   6.244  0.6058 -0.4405  0.3751
  768MOL0     C 5878  -0.603   5.760   6.147  0.7555 -0.1210 -0.9260
  768MOL0     C 5879  -0.739   5.794   6.147 -1.0843 -0.6229  0.1723
  768MOL0     C 5880  -0.797   5.902   6.071  0.2442 -0.0463 -1.4513
  768MOL0     C 5881  -0.716   5.964   5.976 -0.2745  0.0510  0.0348
  768MOL0     O 5882  -0.746   6.083   5.909  0.0402 -0.1095 -0.1878
  768MOL0     C 5883  -0.716   6.211   5.978 -0.1242 -0.8729  0.0570
  768MOL0     C 5884  -0.840   6.249   6.056 -0.0384  0.0524  0.3118
  768MOL0     C 5885  -0.946   6.310   5.958 -0.2341  0.0328 -0.0283
  768MOL0     C 5886  -1.067   6.359   6.034  0.3239 -0.1381  0.7323
  768MOL0     C 5887  -1.186   6.391   5.946  0.9141 -0.4744  0.1939
  768MOL0     C 5888  -1.259   6.268   5.891  0.3856 -0.5145 -0.1453
  768MOL0     C 5889  -1.399   6.302   5.835  0.0709 -0.9525  0.6910
  768MOL0     C 5890  -1.483   6.184   5.794 -0.3915  0.3979 -0.4360
  768MOL0    Cl 5891  -1.506   6.070   5.934 -0.0673  0.6523 -0.2381
  768MOL0     C 5892  -0.577   5.923   5.968  1.0885  0.5087  0.0271
  768MOL0     C 5893  -0.521   5.835   6.052  0.6238  0.6851 -0.7867
  768MOL0     O 5894  -0.622   5.483   6.130 -0.2400 -0.0678  0.5374
  768MOL0     C 5895  -0.426   5.310   6.229  0.7387 -0.0595 -0.9508
  768MOL0     C 5896  -0.345   5.221   6.302 -0.7321 -0.0670  0.7145
  768MOL0     N 5897   0.266   5.299   6.326 -0.4304 -0.5077  0.8320
  768MOL0     N 5898   0.268   5.358   6.214  0.0116 -0.7965 -0.5730
  768MOL0     C 5899   0.254   4.978   5.155  0.7169  0.6677 -0.5279
  768MOL0     C 5900   0.373   4.948   5.101 -0.8135 -0.3217  0.5551
  768MOL0     C 5901   0.698   5.003   4.745 -0.0390 -0.0985  0.1628
  768MOL0     C 5902   0.687   4.877   4.683  0.3742 -0.1324  0.8089
  768MOL0     C 5903   0.766   4.840   4.572  0.0189 -0.1991 -0.0570
  768MOL0     C 5904   0.858   4.930   4.524 -0.0943 -0.8939 -0.1110
  768MOL0     O 5905   0.953   4.888   4.431 -0.4848  0.3775  0.4555
  768MOL0     C 5906   1.069   4.959   4.407 -0.0994 -0.3252 -0.2079
  768MOL0     C 5907   1.154   4.880   4.313  0.6243  0.4318  0.1486
  768MOL0     C 5908   1.254   4.958   4.219  0.6251  0.4459  0.3057
  768MOL0     C 5909   1.366   5.049   4.283  0.3555  0.0311  0.2642
  768MOL0     C 5910   1.321   5.137   4.398  0.5810 -0.5595 -0.1095
  768MOL0     C 5911   1.274   5.197   4.494 -0.1114  0.5400  1.1194
  768MOL0     C 5912   0.874   5.058   4.592  0.8968  0.3261  0.5724
  768MOL0     C 5913   0.806   5.090   4.704 -0.0767 -0.8764  0.3251
  768MOL0     C 5914   0.854   5.213   4.772  0.0349 -0.2358 -0.9637
  768MOL0     H 5915   0.303   5.039   4.784 -1.5348  1.8906 -0.3380
  768MOL0     H 5916   0.101   5.092   4.883  0.2343 -2.1927 -2.2169
  768MOL0     H 5917   0.030   5.003   5.317 -0.7907  0.0247  0.4190
  768MOL0     H 5918  -0.095   5.112   5.290  0.5668  0.3813 -0.9201
  768MOL0     H 5919   0.145   5.248   5.245 -0.4816  2.2854  0.9164
  768MOL0     H 5920   0.002   5.299   5.336 -0.3888 -1.8554  4.0903
  768MOL0     H 5921   0.205   5.090   5.449  0.6289  0.6120  1.7781
  768MOL0     H 5922   0.244   5.263   5.449  2.2017 -1.3323  0.1073
  768MOL0     H 5923   0.027   5.317   5.568 -0.6050 -0.2520 -1.2816
  768MOL0     H 5924  -0.002   5.149   5.571  2.0521 -1.1455  3.4465
  768MOL0     H 5925   0.249   5.252   5.684  1.3984 -2.2835 -4.3085
  768MOL0     H 5926   0.165   5.086   5.698 -2.1855 -1.0544 -0.3550
  768MOL0     H 5927   0.036   5.342   5.799  0.6324  0.2744  0.0620
  768MOL0     H 5928  -0.022   5.174   5.802  0.1167 -1.2682  3.3865
  768MOL0     H 5929   0.109   5.085   5.958  0.8023  0.6262  2.8481
  768MOL0     H 5930   0.040   5.235   6.029  1.4962  0.9214  0.2662
  768MOL0     H 5931   0.317   5.169   5.948 -0.8663 -0.9698  1.9019
  768MOL0     H 5932   0.255   5.341   5.944 -1.9890 -0.3924 -3.2024
  768MOL0     H 5933   0.236   5.022   6.164 -0.8238 -0.3382  2.2080
  768MOL0     H 5934   0.371   5.065   6.478  0.8745 -0.0604 -2.7999
  768MOL0     H 5935   0.252   4.969   6.413  0.5404  1.1951 -2.6845
  768MOL0     H 5936   0.196   5.052   6.643  0.6804 -0.5589 -0.1630
  768MOL0     H 5937   0.183   5.224   6.604  0.0218  1.3750 -1.0288
  768MOL0     H 5938   0.022   4.995   6.510 -1.5463 -0.1567  0.7359
  768MOL0     H 5939  -0.027   5.106   6.633 -1.7022 -2.5939 -0.6878
  768MOL0     H 5940  -0.022   5.296   6.454 -0.7223 -0.9178 -0.8463
  768MOL0     H 5941  -0.047   5.169   6.341  1.9047 -0.9709  0.0001
  768MOL0     H 5942  -0.214   5.420   6.530 -0.6631 -0.2703  0.8323
  768MOL0     H 5943  -0.492   5.632   6.476  0.4402  3.8380  3.5650
  768MOL0     H 5944  -0.338   5.710   6.413 -1.0993  0.6703  0.9510
  768MOL0     H 5945  -0.334   5.605   6.561 -1.5236 -3.2752  0.7466
  768MOL0     H 5946  -0.801   5.747   6.222 -2.2335 -0.9153 -0.9404
  768MOL0     H 5947  -0.895   5.943   6.092  0.2904 -0.3664 -0.5726
  768MOL0     H 5948  -0.629   6.195   6.043 -0.0093 -5.0398 -0.8193
  768MOL0     H 5949  -0.682   6.279   5.900  2.8921 -1.8073  0.4233
  768MOL0     H 5950  -0.885   6.169   6.115  0.0714 -0.1704  0.0974
  768MOL0     H 5951  -0.800   6.332   6.114 -0.3148  0.5209 -0.1579
  768MOL0     H 5952  -0.966   6.227   5.889 -0.1302  0.4302 -0.5382
  768MOL0     H 5953  -0.901   6.399   5.915 -2.0722  1.1676  0.2748
  768MOL0     H 5954  -1.051   6.444   6.101  1.2484 -1.2383  1.9730
  768MOL0     H 5955  -1.089   6.273   6.099 -2.3068 -1.6420 -1.8995
  768MOL0     H 5956  -1.256   6.439   6.015  2.7677  0.7012  1.3276
  768MOL0     H 5957  -1.168   6.463   5.866  0.0327  0.6336  0.9536
  768MOL0     H 5958  -1.278   6.197   5.972 -2.9772  0.2335 -0.1413
  768MOL0     H 5959  -1.201   6.219   5.813 -1.2554 -4.2979  0.7440
  768MOL0     H 5960  -1.390   6.369   5.749  1.7787 -1.4910  0.4084
  768MOL0     H 5961  -1.462   6.348   5.911  1.3569  1.3721  0.4545
  768MOL0     H 5962  -1.426   6.127   5.720 -0.8334 -1.3627  0.5080
  768MOL0     H 5963  -1.586   6.211   5.767 -0.3496  0.7557 -0.2367
  768MOL0     H 5964  -0.520   5.969   5.888  1.1141  0.6834  0.1436
  768MOL0     H 5965  -0.412   5.826   6.049  1.1332  4.4644  0.8508
  768MOL0     H 5966  -0.484   5.281   6.142  3.6924 -1.8341 -2.4690
  768MOL0     H 5967  -0.333   5.123   6.256  1.9243  0.4739  0.0470
  768MOL0     H 5968   0.249   4.967   5.263 -1.0611  0.3125 -0.6157
  768MOL0     H 5969   0.448   4.910   5.169 -3.0934 -4.7561  0.9462
  768MOL0     H 5970   0.610   4.811   4.719  1.8835 -1.9660  0.8368
  768MOL0     H 5971   0.760   4.752   4.509 -2.7693 -0.0174 -0.1686
  768MOL0     H 5972   1.043   5.053   4.359  1.4485  0.2618  0.0483
  768MOL0     H 5973   1.123   4.984   4.499  1.5821  0.8795 -1.4651
  768MOL0     H 5974   1.086   4.827   4.247  1.7659 -1.2602  0.2586
  768MOL0     H 5975   1.210   4.812   4.379 -0.1408 -1.8996 -1.4978
  768MOL0     H 5976   1.302   4.881   4.157  0.9526 -1.1995  2.4883
  768MOL0     H 5977   1.201   5.025   4.151  0.2126 -0.6861 -0.5215
  768MOL0     H 5978   1.402   5.115   4.203 -0.5830  1.1657  0.7550
  768MOL0     H 5979   1.451   4.989   4.318 -0.7113 -3.0644 -1.9527
  768MOL0     H 5980   1.211   5.253   4.560 -0.9800  1.9504 -0.8017
  768MOL0     H 5981   0.960   5.119   4.568  0.9656 -0.0644 -0.2000
  768MOL0     H 5982   0.921   5.273   4.710  0.1897 -0.3744 -0.9329
  768MOL0     H 5983   0.778   5.288   4.794  0.8412  0.6559 -1.1600
  768MOL0     H 5984   0.907   5.189   4.865 -0.3287 -0.7577 -0.8849
  769MOL0     O 5985   0.439   6.372   9.657 -0.2255  0.6060  0.7710
  769MOL0     C 5986   0.327   6.315   9.675 -0.7673 -0.2947  0.2308
  769MOL0     O 5987   0.235   6.352   9.772  0.6408  0.3363  0.1655
  769MOL0     C 5988   0.250   6.475   9.821  0.2270 -0.0558 -0.0222
  769MOL0     C 5989   0.229   6.491   9.959  0.1523  0.1075  0.1768
  769MOL0     C 5990   0.224   6.615  10.019 -0.2013  0.5686  0.8139
  769MOL0     C 5991   0.273   6.730   9.955 -0.4087  0.2331  0.0960
  769MOL0     O 5992   0.277   6.843  10.033  0.1535  0.3896  0.0336
  769MOL0     C 5993   0.321   6.965   9.980  0.0072 -0.8078  0.5424
  769MOL0     C 5994   0.198   7.041   9.918 -0.6310 -0.0840  0.5376
  769MOL0     C 5995   0.113   7.099  10.030  0.4460 -0.4552 -0.4733
  769MOL0     C 5996   0.029   7.221   9.983 -0.1743  0.0348 -0.0902
  769MOL0     C 5997  -0.078   7.256  10.095 -0.2050 -0.8191  0.4042
  769MOL0     C 5998  -0.006   7.315  10.225 -0.2203 -1.2602 -0.4834
  769MOL0     C 5999  -0.093   7.355  10.342 -0.8909  0.6764 -0.5744
  769MOL0     C 6000  -0.002   7.378  10.462  0.1014  0.2895  0.1984
  769MOL0     N 6001  -0.068   7.383  10.596  0.6896 -0.0188 -0.3954
  769MOL0     C 6002  -0.184   7.322  10.629 -0.0452 -0.1047 -0.8956
  769MOL0     C 6003  -0.219   7.377  10.749 -0.3367  0.2200 -1.4250
  769MOL0     C 6004  -0.342   7.328  10.827  0.2127  0.0794 -0.3426
  769MOL0     C 6005  -0.477   7.381  10.773 -0.1066  0.0215 -0.8329
  769MOL0     C 6006  -0.601   7.334  10.851  0.5580 -0.9392  0.8963
  769MOL0     C 6007  -0.719   7.386  10.767 -0.2168  0.9597  0.1968
  769MOL0     O 6008  -0.840   7.313  10.782  0.6427  1.2223  0.3281
  769MOL0     C 6009  -0.909   7.281  10.666  0.1673  0.0286 -0.3429
  769MOL0     C 6010  -0.855   7.231  10.551 -0.8164  0.4856 -0.1854
  769MOL0     C 6011  -0.930   7.182  10.442  0.5313 -0.4363 -0.4094
  769MOL0     C 6012  -0.857   7.122  10.327 -0.4849 -1.5782  0.1207
  769MOL0     C 6013  -1.079   7.195  10.449  0.4477 -1.5459 -0.2256
  769MOL0     C 6014  -1.183   7.160  10.352  0.9014 -0.0892 -0.1511
  769MOL0     O 6015  -1.151   7.119  10.227  0.2206 -0.0788  0.6946
  769MOL0     C 6016  -1.246   7.130  10.128 -0.3637 -0.0060 -0.9774
  769MOL0     C 6017  -1.331   7.017  10.095 -0.5701 -0.5010  0.6165
  769MOL0     C 6018  -1.421   7.030   9.987 -0.9211  0.2193 -0.1165
  769MOL0     C 6019  -1.413   7.144   9.896 -0.1833  0.9184  0.6967
  769MOL0     O 6020  -1.475   7.131   9.775 -0.5910 -0.4326 -0.3181
  769MOL0     C 6021  -1.458   7.238   9.687 -0.6748 -0.5262 -0.2480
  769MOL0     C 6022  -1.558   7.235   9.564 -0.2043  0.1172 -0.0184
  769MOL0     C 6023  -1.686   7.149   9.583  1.0363  0.4341  0.5352
  769MOL0     C 6024  -1.778   7.143   9.460 -0.9469  0.2334  0.6370
  769MOL0     C 6025  -1.694   7.078   9.345  0.7631  1.0178  0.8451
  769MOL0     C 6026  -1.796   7.025   9.244  0.7449  0.6826  0.1383
  769MOL0     C 6027  -1.729   6.958   9.125  0.3126 -0.9190  0.8215
  769MOL0     C 6028  -1.836   6.930   9.012  0.4576  0.2655 -0.7825
  769MOL0    Cl 6029  -1.968   6.834   9.079  0.1952  0.6494  0.1253
  769MOL0     C 6030  -1.333   7.245   9.935 -0.5308  0.6194 -0.8927
  769MOL0     C 6031  -1.250   7.239  10.050 -0.9245 -0.0850  1.1934
  769MOL0     O 6032  -1.310   7.180  10.381 -0.0075  0.1788 -0.1436
  769MOL0     C 6033  -1.127   7.253  10.572 -0.4129 -1.0073 -0.2175
  769MOL0     C 6034  -1.046   7.282  10.684 -0.1955 -0.5702  0.0684
  769MOL0     N 6035  -0.122   7.473  10.789  0.3479  0.1109 -0.7901
  769MOL0     N 6036  -0.035   7.478  10.696  0.0713  0.2700  0.3917
  769MOL0     C 6037   0.288   6.721   9.808 -0.3045 -0.0475  0.2734
  769MOL0     C 6038   0.280   6.591   9.748  0.9137  0.2569  0.4679
  769MOL0     C 6039   0.311   6.183   9.598  0.4856 -0.7688 -0.2397
  769MOL0     C 6040   0.420   6.122   9.539  0.8060 -0.0856 -0.8472
  769MOL0     C 6041   0.408   6.009   9.466 -0.1997 -1.2910 -0.0997
  769MOL0     C 6042   0.285   5.936   9.454 -0.1442  0.1231 -0.6372
  769MOL0     O 6043   0.277   5.819   9.382  0.3716 -0.1389 -0.0187
  769MOL0     C 6044   0.390   5.779   9.307 -0.1336  0.7887 -0.0768
  769MOL0     C 6045   0.380   5.652   9.221 -0.6003 -0.4444  0.4002
  769MOL0     C 6046   0.275   5.662   9.114 -0.4892  0.1847  0.1026
  769MOL0     C 6047   0.239   5.521   9.066 -0.8631 -0.0128  0.0282
  769MOL0     C 6048   0.142   5.544   8.955 -0.1205  0.3188 -0.6797
  769MOL0     C 6049   0.075   5.574   8.849 -0.2683  0.4427 -0.8511
  769MOL0     C 6050   0.172   5.987   9.522  1.1261 -0.5443  0.1126
  769MOL0     C 6051   0.188   6.103   9.601  0.8582 -0.7821  0.8526
  769MOL0     C 6052   0.059   6.140   9.677  0.2490  0.3495  0.4566
  769MOL0     H 6053   0.216   6.405  10.024 -1.4510  0.0703 -0.1334
  769MOL0     H 6054   0.200   6.603  10.124 -2.7567 -2.1283  0.0484
  769MOL0     H 6055   0.396   6.943   9.904 -1.7790 -1.5622 -1.0824
  769MOL0     H 6056   0.360   7.030  10.060 -1.8135  0.1894  0.6740
  769MOL0     H 6057   0.244   7.120   9.859  4.4048 -2.0817  1.3230
  769MOL0     H 6058   0.136   6.977   9.854  1.4539 -1.3536 -0.3029
  769MOL0     H 6059   0.056   7.023  10.084  1.1511 -0.9056 -0.3411
  769MOL0     H 6060   0.178   7.143  10.107 -1.5663 -2.8525  2.8793
  769MOL0     H 6061   0.101   7.303   9.977 -0.0827 -0.0957 -0.9739
  769MOL0     H 6062  -0.011   7.203   9.882 -1.1080  1.6440 -0.0360
  769MOL0     H 6063  -0.140   7.169  10.120  2.3855 -3.1213 -0.7225
  769MOL0     H 6064  -0.140   7.335  10.052  2.4763  0.9264 -0.4639
  769MOL0     H 6065   0.049   7.225  10.256  2.6607 -0.2847 -2.3644
  769MOL0     H 6066   0.072   7.385  10.195  3.7934 -6.2015 -3.0496
  769MOL0     H 6067  -0.172   7.286  10.372 -0.1848  0.2484  0.3390
  769MOL0     H 6068  -0.148   7.449  10.327 -0.7260  0.7141 -0.9398
  769MOL0     H 6069   0.064   7.291  10.465 -1.5070 -1.1334 -2.1762
  769MOL0     H 6070   0.048   7.472  10.438  1.5978 -0.4016  0.4941
  769MOL0     H 6071  -0.232   7.247  10.567 -2.7786  0.2433  0.6050
  769MOL0     H 6072  -0.326   7.365  10.929  0.7099 -1.4332  0.1556
  769MOL0     H 6073  -0.347   7.219  10.819 -0.4134 -0.0350  1.2736
  769MOL0     H 6074  -0.471   7.490  10.761  2.8597 -0.2604 -3.0683
  769MOL0     H 6075  -0.480   7.342  10.670  0.9594 -0.9211 -0.5223
  769MOL0     H 6076  -0.614   7.226  10.861 -4.2463 -0.4848  1.7282
  769MOL0     H 6077  -0.614   7.380  10.950 -0.9178 -2.1461  1.3105
  769MOL0     H 6078  -0.722   7.487  10.810  3.2156  0.8639  1.0035
  769MOL0     H 6079  -0.702   7.400  10.660 -2.0940  2.5458  0.0541
  769MOL0     H 6080  -0.748   7.216  10.538 -1.0700 -0.9953 -0.6989
  769MOL0     H 6081  -0.858   7.201  10.252 -3.8984  2.4353  3.8391
  769MOL0     H 6082  -0.897   7.035  10.275 -0.1130 -0.6039 -1.9027
  769MOL0     H 6083  -0.751   7.105  10.350 -0.2682  0.1945  0.5684
  769MOL0     H 6084  -1.338   6.942  10.174 -2.5794  0.7321  1.6869
  769MOL0     H 6085  -1.484   6.943   9.968 -0.1517  0.1450 -2.5458
  769MOL0     H 6086  -1.474   7.334   9.737 -0.6479  0.0361 -1.2937
  769MOL0     H 6087  -1.358   7.236   9.644 -1.3705  1.3039 -2.1457
  769MOL0     H 6088  -1.594   7.334   9.535 -1.6339 -0.6758 -1.0799
  769MOL0     H 6089  -1.505   7.213   9.471 -1.1226 -0.3851 -0.4376
  769MOL0     H 6090  -1.752   7.193   9.659 -0.3210 -2.3944  1.1094
  769MOL0     H 6091  -1.659   7.047   9.611 -1.7467 -0.3098  0.7648
  769MOL0     H 6092  -1.806   7.233   9.404  1.5098 -0.5999 -2.1794
  769MOL0     H 6093  -1.870   7.087   9.479 -1.8831  0.3747 -2.8613
  769MOL0     H 6094  -1.624   7.147   9.297 -0.0513 -0.8821 -3.5661
  769MOL0     H 6095  -1.645   6.983   9.368  0.4706  0.6948  0.1876
  769MOL0     H 6096  -1.870   7.095   9.206  1.5238  2.1001  1.1230
  769MOL0     H 6097  -1.844   6.944   9.299  0.1369  0.2276 -1.0361
  769MOL0     H 6098  -1.675   6.873   9.167 -1.0960 -1.8228  0.8319
  769MOL0     H 6099  -1.658   7.026   9.075 -3.3583  0.5777 -2.9429
  769MOL0     H 6100  -1.791   6.871   8.931  1.7085 -1.8163  1.2862
  769MOL0     H 6101  -1.856   7.025   8.963 -1.4264 -0.4797 -1.5545
  769MOL0     H 6102  -1.317   7.335   9.877 -2.6537 -0.0736 -2.7085
  769MOL0     H 6103  -1.173   7.315  10.053 -0.6812 -0.3638  3.4006
  769MOL0     H 6104  -1.230   7.287  10.571  1.3090  5.5207 -3.2338
  769MOL0     H 6105  -1.101   7.322  10.768 -1.8030  1.3043 -1.7578
  769MOL0     H 6106   0.327   6.808   9.757 -0.0329 -0.9097 -1.0416
  769MOL0     H 6107   0.303   6.582   9.643 -0.1021 -4.1509  0.4381
  769MOL0     H 6108   0.521   6.160   9.550  0.5575  0.4835 -0.4648
  769MOL0     H 6109   0.501   5.974   9.422  0.5185  0.1655  0.2130
  769MOL0     H 6110   0.417   5.858   9.236  2.0771  2.7049  2.6479
  769MOL0     H 6111   0.464   5.761   9.386 -0.7245 -1.1086  0.1003
  769MOL0     H 6112   0.335   5.575   9.285  0.0811 -0.6907  0.5872
  769MOL0     H 6113   0.478   5.630   9.177 -0.4165  0.6031  0.2760
  769MOL0     H 6114   0.182   5.698   9.159 -1.2858 -1.1912 -0.3742
  769MOL0     H 6115   0.309   5.736   9.041 -2.7471  3.7013  2.3101
  769MOL0     H 6116   0.192   5.454   9.140 -2.2411  1.8326  0.9007
  769MOL0     H 6117   0.334   5.476   9.035  0.1137  2.9134 -1.5331
  769MOL0     H 6118   0.009   5.575   8.764  1.4351 -0.9347 -2.2877
  769MOL0     H 6119   0.086   5.921   9.517  1.9322 -1.8826  2.4043
  769MOL0     H 6120   0.086   6.130   9.783 -0.2529 -0.2989  0.5311
  769MOL0     H 6121   0.023   6.243   9.670  0.5742  0.4551  0.3631
  769MOL0     H 6122  -0.024   6.070   9.658  0.5169  0.6838 -2.3339
  770MOL0     O 6123   2.209   2.054  10.305 -0.5286 -0.0208 -0.1423
  770MOL0     C 6124   2.128   2.029  10.385 -0.3758 -0.0210 -0.0686
  770MOL0     O 6125   2.143   2.004  10.523 -0.5618 -0.7824 -0.7742
  770MOL0     C 6126   2.276   2.004  10.566  0.1076 -0.4441 -0.9005
  770MOL0     C 6127   2.339   2.119  10.602 -0.4344  0.2540 -0.7586
  770MOL0     C 6128   2.482   2.122  10.632  1.4673  0.1075 -0.6160
  770MOL0     C 6129   2.550   1.995  10.632  0.3026  0.5468  0.8173
  770MOL0     O 6130   2.688   1.983  10.649  0.0489  0.0305 -0.1035
  770MOL0     C 6131   2.758   2.107  10.671 -0.1062  0.5937 -0.0841
  770MOL0     C 6132   2.908   2.085  10.647 -0.0124 -0.6939  0.3578
  770MOL0     C 6133   2.906   2.055  10.492 -0.4368  0.1383  0.0307
  770MOL0     C 6134   3.034   1.988  10.450 -0.8376 -0.9848  0.9444
  770MOL0     C 6135   3.035   1.846  10.492 -0.2842  0.3266  0.6765
  770MOL0     C 6136   3.158   1.766  10.458 -0.0257  0.1991 -1.1399
  770MOL0     C 6137   3.171   1.648  10.561 -0.3133  0.4436 -0.4595
  770MOL0     C 6138   3.317   1.588  10.540  0.1316 -0.2054 -1.1018
  770MOL0     N 6139   3.341   1.489  10.655  0.2922  0.6409 -0.5720
  770MOL0     C 6140   3.454   1.478  10.731 -0.7996 -0.9017 -1.4373
  770MOL0     C 6141   3.442   1.369  10.815  0.0369  0.8863 -0.2402
  770MOL0     C 6142   3.526   1.332  10.925 -0.0894  0.5704 -0.9180
  770MOL0     C 6143   3.521   1.187  10.969  0.2447  0.4657  0.2037
  770MOL0     C 6144   3.654   1.136  11.021 -0.2874 -1.1309  0.3813
  770MOL0     C 6145   3.653   0.992  11.078 -0.5638 -0.1027 -0.8572
  770MOL0     O 6146   3.781   0.926  11.068  0.7822 -0.6149  0.1626
  770MOL0     C 6147   3.894   0.987  11.124  0.7189  0.5424  0.2715
  770MOL0     C 6148   4.012   0.940  11.074 -1.2775 -0.6924  1.0563
  770MOL0     C 6149   4.138   0.992  11.114 -0.0371 -0.2177 -0.4207
  770MOL0     C 6150   4.253   0.922  11.055  0.2686 -0.5140 -0.7016
  770MOL0     C 6151   4.144   1.093  11.218 -1.0908 -0.8131 -0.2108
  770MOL0     C 6152   4.270   1.143  11.273  0.1034  0.8621  0.3088
  770MOL0     O 6153   4.258   1.209  11.382  0.4363 -0.2971 -1.2692
  770MOL0     C 6154   4.295   1.339  11.374 -1.1757  1.4872 -0.1613
  770MOL0     C 6155   4.315   1.407  11.255  0.0170  0.5221  0.1912
  770MOL0     C 6156   4.355   1.539  11.244  0.4267 -0.0953 -0.1302
  770MOL0     C 6157   4.384   1.606  11.365  0.1153 -0.5056  0.4704
  770MOL0     O 6158   4.411   1.742  11.352  0.5405 -0.2374 -0.2968
  770MOL0     C 6159   4.472   1.813  11.459 -0.3660 -0.9854  0.2200
  770MOL0     C 6160   4.483   1.974  11.438 -0.4274 -0.6030 -0.1686
  770MOL0     C 6161   4.603   2.043  11.514 -0.4559  0.6332  0.8686
  770MOL0     C 6162   4.545   2.149  11.603 -0.5136 -0.9804  0.0941
  770MOL0     C 6163   4.670   2.213  11.669  0.3167  0.3295  0.1136
  770MOL0     C 6164   4.630   2.326  11.763 -0.3886  0.2331  0.1788
  770MOL0     C 6165   4.623   2.461  11.698 -0.1566  0.0647  0.2503
  770MOL0     C 6166   4.649   2.577  11.801  0.1430 -0.7108  0.5011
  770MOL0    Cl 6167   4.508   2.619  11.910 -0.7284 -0.0512 -0.3013
  770MOL0     C 6168   4.376   1.529  11.492  0.2662  0.1035  0.3132
  770MOL0     C 6169   4.329   1.397  11.497  0.4583  0.2352  0.3942
  770MOL0     O 6170   4.377   1.123  11.211 -0.1898  0.2492 -0.4297
  770MOL0     C 6171   4.023   1.133  11.270  0.9263  0.0571  1.7211
  770MOL0     C 6172   3.895   1.071  11.230  0.4640 -0.6495  0.6024
  770MOL0     N 6173   3.312   1.319  10.789 -0.0551  0.2831  0.8052
  770MOL0     N 6174   3.264   1.383  10.685  0.5170  0.5649  0.5773
  770MOL0     C 6175   2.476   1.881  10.584 -0.1056  0.9747  0.3043
  770MOL0     C 6176   2.339   1.884  10.566 -0.9750 -0.3727 -0.2911
  770MOL0     C 6177   1.991   2.032  10.345 -0.0024  0.6726  0.3808
  770MOL0     C 6178   1.901   2.100  10.423  0.2694 -0.4709  0.6048
  770MOL0     C 6179   1.764   2.102  10.380 -0.4838 -0.0651  0.6345
  770MOL0     C 6180   1.729   2.033  10.265 -0.5924  1.2405 -0.1407
  770MOL0     O 6181   1.593   2.033  10.239  0.6216 -0.8776 -0.3403
  770MOL0     C 6182   1.563   2.120  10.135  0.1796 -0.0379  0.5062
  770MOL0     C 6183   1.428   2.178  10.173  0.7028 -0.1026 -0.3170
  770MOL0     C 6184   1.395   2.297  10.087 -0.2850 -0.0363  0.1829
  770MOL0     C 6185   1.293   2.277   9.983  0.6864 -1.1010 -0.0090
  770MOL0     C 6186   1.344   2.189   9.873 -0.9293  0.7651  0.1014
  770MOL0     C 6187   1.354   2.129   9.768  0.8936  0.9842  0.7163
  770MOL0     C 6188   1.818   1.970  10.184 -0.1673 -0.2551 -0.0467
  770MOL0     C 6189   1.949   1.961  10.226  0.4128 -0.6407 -0.6195
  770MOL0     C 6190   2.044   1.891  10.130 -0.0416 -0.5724  0.3040
  770MOL0     H 6191   2.281   2.210  10.597 -0.3868  0.2866 -0.7162
  770MOL0     H 6192   2.524   2.217  10.663 -2.1967  0.9397  2.5108
  770MOL0     H 6193   2.747   2.130  10.777  2.3649 -0.2924  0.4306
  770MOL0     H 6194   2.716   2.178  10.600 -2.8124 -2.0750 -1.3775
  770MOL0     H 6195   2.966   2.175  10.674 -1.6409  0.0448  1.6088
  770MOL0     H 6196   2.945   2.002  10.709  0.4861  0.4503  1.6636
  770MOL0     H 6197   2.817   1.998  10.463 -1.7190  2.0215  0.1000
  770MOL0     H 6198   2.888   2.144  10.430  1.8781 -0.4077 -1.5476
  770MOL0     H 6199   3.040   1.989  10.341 -0.8114  0.3467  0.9400
  770MOL0     H 6200   3.121   2.037  10.494 -2.5961 -0.0564  3.6754
  770MOL0     H 6201   2.943   1.803  10.451 -0.3739 -1.3962  2.5585
  770MOL0     H 6202   3.014   1.840  10.599 -3.4145 -2.0850  0.0703
  770MOL0     H 6203   3.159   1.744  10.350 -0.5139  0.3571 -1.1782
  770MOL0     H 6204   3.237   1.839  10.477 -2.9737  3.7293 -1.2096
  770MOL0     H 6205   3.101   1.565  10.551  1.5329 -1.7176  2.7561
  770MOL0     H 6206   3.154   1.674  10.665  2.8513 -1.9134  0.8102
  770MOL0     H 6207   3.340   1.542  10.444  4.5238  3.8503 -2.3658
  770MOL0     H 6208   3.391   1.669  10.542 -2.3278  2.2170 -2.0005
  770MOL0     H 6209   3.532   1.553  10.727 -0.9709 -0.1369  3.4913
  770MOL0     H 6210   3.508   1.384  11.020  0.1266  1.1928 -1.2194
  770MOL0     H 6211   3.631   1.351  10.902 -0.2635  1.0192 -1.3355
  770MOL0     H 6212   3.433   1.170  11.031 -0.6889  4.0817  0.1054
  770MOL0     H 6213   3.501   1.132  10.877 -1.1126  1.4408 -0.1139
  770MOL0     H 6214   3.723   1.139  10.937  0.5984 -0.1599  1.1125
  770MOL0     H 6215   3.693   1.210  11.091  0.1343 -1.5415  0.5881
  770MOL0     H 6216   3.600   0.995  11.174 -1.7247 -0.6113 -1.4570
  770MOL0     H 6217   3.591   0.944  11.001 -1.4634  0.7292 -0.6688
  770MOL0     H 6218   3.998   0.868  10.994  0.2757  0.5859 -0.4630
  770MOL0     H 6219   4.227   0.822  11.021  2.0402 -0.4706 -2.4323
  770MOL0     H 6220   4.337   0.901  11.122 -1.1727 -1.5210  0.8475
  770MOL0     H 6221   4.289   0.978  10.968  1.9638 -1.4817 -0.6635
  770MOL0     H 6222   4.301   1.357  11.159 -1.4787  0.0240  0.6390
  770MOL0     H 6223   4.366   1.600  11.154  3.2961  1.7687  1.3476
  770MOL0     H 6224   4.420   1.789  11.552 -0.5028  1.6400  0.9051
  770MOL0     H 6225   4.573   1.776  11.479 -0.0253  0.3748  1.1624
  770MOL0     H 6226   4.512   1.980  11.332 -0.1200  0.3344 -0.0412
  770MOL0     H 6227   4.388   2.028  11.448  1.5262  3.6294 -1.8121
  770MOL0     H 6228   4.670   2.093  11.444 -2.0417  1.3780 -0.1752
  770MOL0     H 6229   4.663   1.969  11.568 -0.7200 -0.5569 -0.4095
  770MOL0     H 6230   4.472   2.109  11.675 -1.0867 -1.3458 -0.6754
  770MOL0     H 6231   4.497   2.224  11.540 -2.2919 -1.3898  0.8990
  770MOL0     H 6232   4.719   2.147  11.740  0.7284  3.2614  2.7907
  770MOL0     H 6233   4.738   2.252  11.592 -0.9828  2.2121 -0.1562
  770MOL0     H 6234   4.704   2.333  11.843  2.4972  2.6689 -2.4456
  770MOL0     H 6235   4.534   2.307  11.811  0.9555 -1.2737  2.4361
  770MOL0     H 6236   4.520   2.473  11.663  0.0712 -0.0135 -0.4714
  770MOL0     H 6237   4.696   2.469  11.617  0.0614  2.4065  0.5985
  770MOL0     H 6238   4.660   2.668  11.742  3.6194  0.3026  2.4544
  770MOL0     H 6239   4.735   2.559  11.865  0.0682 -1.2815  0.4477
  770MOL0     H 6240   4.417   1.572  11.583  0.6410 -1.2662  0.8063
  770MOL0     H 6241   4.319   1.326  11.579  1.7059  1.8239  2.0163
  770MOL0     H 6242   4.006   1.206  11.348  0.1347  2.1044 -0.2696
  770MOL0     H 6243   3.804   1.120  11.263  0.3577 -1.4375  1.5019
  770MOL0     H 6244   2.536   1.799  10.547 -0.6607  0.0869  1.3218
  770MOL0     H 6245   2.291   1.793  10.529 -1.5554 -0.5403  0.8189
  770MOL0     H 6246   1.930   2.156  10.511  0.2575  1.3986 -0.5110
  770MOL0     H 6247   1.683   2.163  10.419 -0.8456  0.8581 -1.4486
  770MOL0     H 6248   1.645   2.185  10.106 -0.7414  0.7303 -0.4340
  770MOL0     H 6249   1.529   2.061  10.049  0.1889  0.2124  0.3307
  770MOL0     H 6250   1.438   2.218  10.274 -2.6530 -0.2769  0.1932
  770MOL0     H 6251   1.354   2.098  10.166  0.3865  0.3263 -3.6806
  770MOL0     H 6252   1.367   2.382  10.150  0.6832  2.1576 -2.1849
  770MOL0     H 6253   1.488   2.327  10.037 -0.9930 -1.1887 -1.9691
  770MOL0     H 6254   1.260   2.378   9.956 -1.5561 -0.6034  3.7800
  770MOL0     H 6255   1.214   2.221  10.033 -0.2117  0.0966 -0.0392
  770MOL0     H 6256   1.388   2.079   9.679  0.5654 -2.9476  2.5643
  770MOL0     H 6257   1.794   1.919  10.091 -0.9736 -2.7703  1.4449
  770MOL0     H 6258   1.987   1.851  10.046 -1.9992  0.8032  0.9040
  770MOL0     H 6259   2.121   1.954  10.084 -2.0142  0.3122 -1.9566
  770MOL0     H 6260   2.095   1.810  10.182 -2.1868  0.2400  4.0346
  771MOL0     O 6261   1.152  10.799   8.920  0.1191 -0.0347 -0.7783
  771MOL0     C 6262   1.069  10.753   8.843  0.0337  0.4421 -0.3706
  771MOL0     O 6263   0.994  10.646   8.859  0.9516  0.2074  0.1744
  771MOL0     C 6264   0.981  10.582   8.979  0.4038 -0.6330  0.8052
  771MOL0     C 6265   1.005  10.631   9.108 -0.1480  0.2283 -0.1803
  771MOL0     C 6266   0.976  10.563   9.221  0.8897  0.7959  0.1592
  771MOL0     C 6267   0.916  10.434   9.207  0.3842 -0.1856 -0.3205
  771MOL0     O 6268   0.869  10.364   9.315 -0.1666 -0.1261  0.1434
  771MOL0     C 6269   0.774  10.426   9.404 -0.3930 -0.0402 -0.3867
  771MOL0     C 6270   0.634  10.380   9.381  0.4061 -0.3715 -1.0842
  771MOL0     C 6271   0.595  10.279   9.493  0.6367 -0.0097 -0.1636
  771MOL0     C 6272   0.537  10.344   9.623  0.5903 -0.0765  0.4429
  771MOL0     C 6273   0.512  10.249   9.745 -0.5183 -0.4801 -0.4942
  771MOL0     C 6274   0.657  10.218   9.811  0.4375 -0.4348 -0.0663
  771MOL0     C 6275   0.675  10.097   9.895 -0.4358  0.0043  0.8675
  771MOL0     C 6276   0.684   9.969   9.801  0.5000  0.1293 -0.1342
  771MOL0     N 6277   0.625   9.855   9.878 -0.0963 -0.4599  0.7135
  771MOL0     C 6278   0.688   9.738   9.930 -0.3039 -0.3032  0.3166
  771MOL0     C 6279   0.593   9.665   9.981 -0.5718 -0.6775  0.7148
  771MOL0     C 6280   0.611   9.523  10.032  0.2142 -0.5639 -0.5542
  771MOL0     C 6281   0.660   9.507  10.180  0.0570 -0.2569 -0.0299
  771MOL0     C 6282   0.647   9.363  10.233  1.1586  0.1492  0.4044
  771MOL0     C 6283   0.732   9.275  10.142 -0.5878  0.5506 -0.4376
  771MOL0     O 6284   0.738   9.140  10.193 -0.2324  0.4842  0.8069
  771MOL0     C 6285   0.856   9.077  10.147 -0.0734 -0.9318  0.6727
  771MOL0     C 6286   0.851   8.995  10.036 -0.1771  0.5684  0.5699
  771MOL0     C 6287   0.964   8.914  10.004 -0.1976 -0.3087  0.5265
  771MOL0     C 6288   0.946   8.845   9.869 -0.1060 -0.0756  0.2682
  771MOL0     C 6289   1.079   8.915  10.094  0.3048 -0.5864  0.0047
  771MOL0     C 6290   1.197   8.823  10.077  0.2215  0.0282  0.8492
  771MOL0     O 6291   1.314   8.857  10.137 -0.3830  0.0466  0.4439
  771MOL0     C 6292   1.418   8.780  10.108  0.2379  0.7062 -0.7598
  771MOL0     C 6293   1.520   8.843  10.045  0.1497 -0.5549 -0.1871
  771MOL0     C 6294   1.637   8.781  10.006  0.3222  0.0243 -0.3698
  771MOL0     C 6295   1.659   8.650  10.058 -0.3689  0.6191 -0.2650
  771MOL0     O 6296   1.781   8.600  10.032 -0.5385 -0.0314 -0.3840
  771MOL0     C 6297   1.845   8.537  10.147  0.2635 -0.4029  0.0084
  771MOL0     C 6298   1.993   8.559  10.144  0.2453 -1.0261  0.0356
  771MOL0     C 6299   2.032   8.705  10.180  0.7640 -0.6437  0.5672
  771MOL0     C 6300   1.977   8.751  10.315  0.8785  0.9854 -0.4419
  771MOL0     C 6301   2.035   8.674  10.444 -0.4495  0.6650  0.0486
  771MOL0     C 6302   2.189   8.630  10.439 -0.3706  0.5649  0.4101
  771MOL0     C 6303   2.225   8.538  10.551  0.0635 -0.0358 -0.0174
  771MOL0     C 6304   2.197   8.591  10.700  0.3842 -0.8329  1.0559
  771MOL0    Cl 6305   2.258   8.458  10.798 -0.4418  0.4558  0.4220
  771MOL0     C 6306   1.550   8.583  10.117 -0.7432  0.3110 -0.7410
  771MOL0     C 6307   1.435   8.652  10.163 -0.8323 -0.2584 -0.4191
  771MOL0     O 6308   1.174   8.716  10.011  0.6179 -0.3634 -0.0233
  771MOL0     C 6309   1.083   9.002  10.202 -0.7931 -0.0276  0.4576
  771MOL0     C 6310   0.966   9.071  10.235 -0.1737 -0.1126  1.1569
  771MOL0     N 6311   0.485   9.744   9.989  0.3660 -0.7969 -0.2058
  771MOL0     N 6312   0.498   9.851   9.917  0.5724 -0.7790  0.3044
  771MOL0     C 6313   0.894  10.386   9.071  0.3231  0.5089 -0.4990
  771MOL0     C 6314   0.932  10.457   8.962  0.0922  0.1454 -0.7185
  771MOL0     C 6315   1.030  10.835   8.723 -1.5700 -0.5078 -0.4729
  771MOL0     C 6316   0.921  10.795   8.643 -0.3334  0.0562  0.2368
  771MOL0     C 6317   0.892  10.860   8.520 -1.0268  0.2592  0.3620
  771MOL0     C 6318   0.965  10.960   8.467  0.3342 -0.5936  0.6402
  771MOL0     O 6319   0.937  11.031   8.356 -0.6905 -0.3578 -0.2643
  771MOL0     C 6320   0.839  10.987   8.260 -0.2061 -0.0961  0.1877
  771MOL0     C 6321   0.816  11.103   8.161 -0.3655 -0.6783 -0.0980
  771MOL0     C 6322   0.757  11.223   8.230 -0.5009 -0.1193 -0.9269
  771MOL0     C 6323   0.856  11.314   8.304 -0.1105 -0.4833  0.0101
  771MOL0     C 6324   0.804  11.446   8.328  0.1092 -1.1024 -0.0628
  771MOL0     C 6325   0.767  11.555   8.372  0.5865 -0.0788  0.6009
  771MOL0     C 6326   1.068  11.005   8.548 -0.3823  0.0510  0.2854
  771MOL0     C 6327   1.103  10.947   8.675 -0.8610 -0.2873 -0.6098
  771MOL0     C 6328   1.213  11.014   8.743 -0.8006 -0.4362  0.0568
  771MOL0     H 6329   1.035  10.735   9.115  1.9524 -0.4682  2.7255
  771MOL0     H 6330   0.985  10.612   9.318 -1.8705  0.8779  0.4720
  771MOL0     H 6331   0.771  10.535   9.396  0.9505  0.1421  0.9973
  771MOL0     H 6332   0.811  10.397   9.503  3.3769 -2.6822 -2.3004
  771MOL0     H 6333   0.573  10.468   9.402  2.8197  0.9975  0.8398
  771MOL0     H 6334   0.611  10.343   9.281 -2.5494 -0.5821 -0.4140
  771MOL0     H 6335   0.518  10.213   9.451 -1.7933  1.8900  0.9802
  771MOL0     H 6336   0.679  10.222   9.532  0.3170  1.3071  2.7810
  771MOL0     H 6337   0.609  10.419   9.657  3.0658 -2.0563 -0.1296
  771MOL0     H 6338   0.441  10.387   9.596  1.2749  1.3262  0.1702
  771MOL0     H 6339   0.463  10.153   9.724 -0.5651 -0.4423 -0.5616
  771MOL0     H 6340   0.439  10.302   9.806  0.9809  1.9898 -0.7169
  771MOL0     H 6341   0.730  10.215   9.729 -0.3596  1.7102 -0.9250
  771MOL0     H 6342   0.683  10.305   9.872 -3.5224 -0.2522  1.6397
  771MOL0     H 6343   0.597  10.076   9.968  1.5632 -2.6430  2.4256
  771MOL0     H 6344   0.762  10.099   9.961 -0.0083 -1.4124  0.3785
  771MOL0     H 6345   0.628   9.983   9.709 -1.4329 -2.1173  0.6144
  771MOL0     H 6346   0.786   9.942   9.774 -0.5893 -2.8573 -1.6449
  771MOL0     H 6347   0.790   9.702   9.923  0.2429  1.2266  0.0487
  771MOL0     H 6348   0.686   9.485   9.961  0.1506  2.8991 -2.7161
  771MOL0     H 6349   0.511   9.480  10.024 -0.4632  0.6434  0.9979
  771MOL0     H 6350   0.764   9.538  10.188 -0.4216  1.2959  0.4295
  771MOL0     H 6351   0.594   9.562  10.248 -1.7887 -2.5921  0.2379
  771MOL0     H 6352   0.669   9.363  10.340 -2.4509 -0.9039  1.2979
  771MOL0     H 6353   0.541   9.338  10.225  1.2418  0.2371 -1.2819
  771MOL0     H 6354   0.693   9.254  10.042 -2.3506  0.0704  0.3027
  771MOL0     H 6355   0.834   9.313  10.135  1.7513 -3.7542  3.8927
  771MOL0     H 6356   0.760   8.986   9.979 -0.1015 -0.7135  0.6221
  771MOL0     H 6357   0.904   8.744   9.870 -3.2484  1.1029  1.6269
  771MOL0     H 6358   1.047   8.836   9.827  0.7446  2.9537  1.3436
  771MOL0     H 6359   0.873   8.905   9.814 -0.6686 -0.7145  0.3151
  771MOL0     H 6360   1.502   8.945  10.012 -1.2790 -0.0589  1.9673
  771MOL0     H 6361   1.714   8.820   9.940 -0.2299  0.3745 -0.8178
  771MOL0     H 6362   1.812   8.588  10.238  1.4818  0.4609 -0.0039
  771MOL0     H 6363   1.826   8.430  10.157 -0.8612 -0.1879  0.3570
  771MOL0     H 6364   2.046   8.496  10.216  4.9047  0.3882 -1.7283
  771MOL0     H 6365   2.029   8.532  10.044 -3.6425  0.4267 -1.9824
  771MOL0     H 6366   2.006   8.785  10.110  2.2578  0.6924  1.4577
  771MOL0     H 6367   2.141   8.711  10.183  0.8067  2.6963 -1.8909
  771MOL0     H 6368   1.871   8.772  10.299  1.4952  3.1036 -2.3952
  771MOL0     H 6369   2.007   8.854  10.339 -2.6741  1.9753  0.3751
  771MOL0     H 6370   2.020   8.736  10.532 -0.1263 -1.5475  1.7377
  771MOL0     H 6371   1.966   8.591  10.460 -2.3145  2.3991  1.3860
  771MOL0     H 6372   2.258   8.714  10.445 -1.5812  1.5276  1.2768
  771MOL0     H 6373   2.205   8.576  10.345 -0.2849  1.5215 -0.1364
  771MOL0     H 6374   2.331   8.510  10.549  1.6922  3.8742  5.7722
  771MOL0     H 6375   2.175   8.444  10.525  1.0499 -1.2376  2.1324
  771MOL0     H 6376   2.092   8.613  10.718  0.7733 -0.4281  3.1528
  771MOL0     H 6377   2.254   8.683  10.716 -1.0009  0.2076  0.2283
  771MOL0     H 6378   1.577   8.483  10.151  0.3367  1.1976  1.2405
  771MOL0     H 6379   1.355   8.617  10.227 -1.0619 -1.0953 -1.1407
  771MOL0     H 6380   1.167   8.995  10.271  0.4061  1.7895 -0.7515
  771MOL0     H 6381   0.962   9.131  10.326 -0.1030 -0.8390  1.6488
  771MOL0     H 6382   0.861  10.282   9.063 -0.5886  0.7178  0.3064
  771MOL0     H 6383   0.932  10.413   8.863 -2.0576  0.7576 -1.0490
  771MOL0     H 6384   0.838  10.732   8.672 -1.7817  1.0408 -1.5206
  771MOL0     H 6385   0.807  10.820   8.464  0.3391 -1.6706 -0.4377
  771MOL0     H 6386   0.881  10.901   8.206  0.8363  1.6456 -1.9174
  771MOL0     H 6387   0.747  10.955   8.310  2.2414 -2.5982  3.5616
  771MOL0     H 6388   0.752  11.070   8.078  1.6582  1.2164 -2.5940
  771MOL0     H 6389   0.906  11.148   8.118 -1.4835  0.9828 -0.8200
  771MOL0     H 6390   0.707  11.286   8.156 -2.5261  0.9734  1.2483
  771MOL0     H 6391   0.667  11.192   8.283  0.5664  0.9412  1.6824
  771MOL0     H 6392   0.950  11.323   8.250  0.2368 -1.5664  0.4119
  771MOL0     H 6393   0.880  11.269   8.401  1.0801 -3.3563 -1.5263
  771MOL0     H 6394   0.714  11.639   8.411  1.8481 -0.2109  2.7853
  771MOL0     H 6395   1.126  11.088   8.510 -1.7086  0.4231 -1.0239
  771MOL0     H 6396   1.253  11.101   8.689 -2.3077 -0.2789 -0.8729
  771MOL0     H 6397   1.169  11.041   8.839  0.0275  0.1080  0.2967
  771MOL0     H 6398   1.304  10.956   8.758  0.1605  1.6025  3.0333
  772MOL0     O 6399   0.725   3.626   4.196  0.7385  0.5211  0.3180
  772MOL0     C 6400   0.614   3.646   4.237  0.5025  0.7663 -0.8426
  772MOL0     O 6401   0.583   3.746   4.326 -0.1513  0.3150  0.7079
  772MOL0     C 6402   0.701   3.806   4.372 -0.3888  0.1074 -0.5433
  772MOL0     C 6403   0.729   3.921   4.304 -0.2910  0.1330  0.1051
  772MOL0     C 6404   0.850   3.985   4.328  0.3509 -0.0929  0.3107
  772MOL0     C 6405   0.937   3.954   4.430  0.4625  0.6065  0.6816
  772MOL0     O 6406   1.044   4.038   4.456 -0.8487 -0.2391  0.3980
  772MOL0     C 6407   1.136   3.997   4.552  0.4957 -0.8455  0.2573
  772MOL0     C 6408   1.248   4.095   4.541 -0.4340  1.0787  0.1332
  772MOL0     C 6409   1.226   4.223   4.629 -0.3729  1.1053 -0.8345
  772MOL0     C 6410   1.287   4.202   4.766 -1.4527 -0.4352 -0.1119
  772MOL0     C 6411   1.281   4.333   4.835  0.3038  0.1276  0.2577
  772MOL0     C 6412   1.145   4.379   4.891  0.7205 -0.2309  0.4873
  772MOL0     C 6413   1.087   4.275   4.979  0.9544  0.3870  0.6010
  772MOL0     C 6414   0.986   4.187   4.895  0.1799  0.6573  0.0940
  772MOL0     N 6415   0.870   4.255   4.833 -0.6648 -0.6895  0.2596
  772MOL0     C 6416   0.785   4.206   4.742  0.4795  0.8852  0.1033
  772MOL0     C 6417   0.694   4.308   4.728 -0.1405 -0.1357 -0.3732
  772MOL0     C 6418   0.582   4.308   4.629  0.4094 -0.9826 -0.4147
  772MOL0     C 6419   0.487   4.194   4.649 -0.0117  0.2078 -1.2217
  772MOL0     C 6420   0.507   4.090   4.540 -0.2685  0.0506  0.2590
  772MOL0     C 6421   0.425   3.960   4.566  0.5653  0.5349 -0.1593
  772MOL0     O 6422   0.287   3.994   4.581  0.2474  0.2989  0.5057
  772MOL0     C 6423   0.200   3.890   4.598 -0.7647  1.6443 -0.1311
  772MOL0     C 6424   0.163   3.798   4.501 -1.2411 -0.8746 -0.6113
  772MOL0     C 6425   0.076   3.689   4.539 -0.4973 -0.0779 -0.4813
  772MOL0     C 6426   0.026   3.613   4.420 -0.0901  0.1855 -0.3152
  772MOL0     C 6427   0.019   3.683   4.670 -0.8806 -1.0280  0.8351
  772MOL0     C 6428  -0.060   3.568   4.715 -0.1973  0.6797  0.0256
  772MOL0     O 6429  -0.079   3.550   4.853 -0.0351  0.2818  0.2853
  772MOL0     C 6430  -0.156   3.450   4.916 -0.3057 -0.8635 -0.5871
  772MOL0     C 6431  -0.282   3.411   4.862  0.0362  0.1023  0.1767
  772MOL0     C 6432  -0.357   3.327   4.932 -0.1211 -0.3977 -0.7531
  772MOL0     C 6433  -0.319   3.282   5.058 -0.5349 -0.3322 -0.2100
  772MOL0     O 6434  -0.405   3.227   5.147  0.1823  0.8409 -0.2549
  772MOL0     C 6435  -0.535   3.186   5.108 -0.7451 -0.6840 -0.4600
  772MOL0     C 6436  -0.587   3.111   5.225 -0.6592 -0.2875  0.3411
  772MOL0     C 6437  -0.512   2.974   5.243 -0.0810 -0.2510  0.1494
  772MOL0     C 6438  -0.499   2.949   5.392 -0.5205  0.2857 -0.4046
  772MOL0     C 6439  -0.384   2.845   5.421 -0.1809  0.8612  0.5895
  772MOL0     C 6440  -0.436   2.706   5.396  0.0954  0.9190 -0.0785
  772MOL0     C 6441  -0.331   2.609   5.429  0.1877  0.7787 -0.1051
  772MOL0     C 6442  -0.383   2.474   5.446  0.9911 -0.8026  0.3456
  772MOL0    Cl 6443  -0.460   2.403   5.290 -0.0723 -0.2802  0.0471
  772MOL0     C 6444  -0.189   3.318   5.108 -0.0317  0.0582 -0.3389
  772MOL0     C 6445  -0.111   3.412   5.044 -0.8663 -0.0753 -0.0659
  772MOL0     O 6446  -0.093   3.483   4.635 -0.0473  0.2773  0.9010
  772MOL0     C 6447   0.046   3.788   4.756 -0.9170  0.9132 -0.1701
  772MOL0     C 6448   0.135   3.892   4.724 -0.1628  0.1125  1.1904
  772MOL0     N 6449   0.728   4.417   4.814 -0.9043 -0.2674  0.5059
  772MOL0     N 6450   0.819   4.375   4.883 -0.2476  0.3982 -1.1063
  772MOL0     C 6451   0.901   3.842   4.510 -0.5009 -0.1370  1.3474
  772MOL0     C 6452   0.788   3.768   4.474  0.7919  0.0775  0.0715
  772MOL0     C 6453   0.504   3.558   4.201  0.5919  0.0104 -0.9310
  772MOL0     C 6454   0.375   3.607   4.207 -0.3558 -0.2216 -0.4461
  772MOL0     C 6455   0.262   3.528   4.178  0.0987 -0.2879  0.0702
  772MOL0     C 6456   0.269   3.388   4.143 -1.2207 -0.3464 -0.1387
  772MOL0     O 6457   0.167   3.309   4.091  0.3994  0.3608 -0.4639
  772MOL0     C 6458   0.136   3.334   3.958  0.3901  0.0965  0.2643
  772MOL0     C 6459  -0.010   3.361   3.931 -0.4716  0.2772  0.0766
  772MOL0     C 6460  -0.068   3.483   4.008  0.2545  0.3227 -1.1676
  772MOL0     C 6461  -0.047   3.624   3.946  0.7135 -0.1778  0.3729
  772MOL0     C 6462  -0.133   3.633   3.827 -0.2913  0.2032  0.0088
  772MOL0     C 6463  -0.200   3.661   3.738 -0.7301  0.9193  0.9914
  772MOL0     C 6464   0.405   3.337   4.147  0.5684 -0.9708 -0.4370
  772MOL0     C 6465   0.516   3.413   4.182  0.1303  0.1179 -0.2571
  772MOL0     C 6466   0.648   3.340   4.187 -0.0174 -0.3081 -0.3442
  772MOL0     H 6467   0.661   3.955   4.227 -2.6695  0.7531  2.3576
  772MOL0     H 6468   0.861   4.078   4.273 -0.7796  0.1298  0.4401
  772MOL0     H 6469   1.183   3.901   4.528 -1.8369 -2.1880  0.7346
  772MOL0     H 6470   1.092   3.998   4.652  1.0510 -0.5984  0.4977
  772MOL0     H 6471   1.341   4.051   4.580 -1.3613  0.5296  1.8126
  772MOL0     H 6472   1.267   4.107   4.434 -0.6557 -1.2304 -0.2229
  772MOL0     H 6473   1.277   4.303   4.574 -1.3053  2.8062  0.6916
  772MOL0     H 6474   1.121   4.248   4.645 -0.3107  2.1205 -1.8222
  772MOL0     H 6475   1.240   4.118   4.819 -2.1306 -0.6570 -1.0440
  772MOL0     H 6476   1.394   4.182   4.754 -0.7546  1.7682  1.7432
  772MOL0     H 6477   1.331   4.412   4.779 -1.4966  0.9986 -0.2048
  772MOL0     H 6478   1.348   4.329   4.921 -1.1567 -2.0917  1.3744
  772MOL0     H 6479   1.167   4.459   4.962  2.5591 -1.2641  1.1612
  772MOL0     H 6480   1.080   4.412   4.809 -0.5706  0.3331  1.7102
  772MOL0     H 6481   1.024   4.314   5.060 -0.6025 -0.2613 -0.2419
  772MOL0     H 6482   1.166   4.211   5.019 -1.2639 -2.5468  0.6270
  772MOL0     H 6483   1.031   4.135   4.811  0.3488  1.2708 -0.2018
  772MOL0     H 6484   0.937   4.126   4.971 -0.5969 -0.7533 -1.4966
  772MOL0     H 6485   0.797   4.108   4.697 -2.0291  0.9571 -0.8965
  772MOL0     H 6486   0.616   4.326   4.527  4.8213  0.9223  1.1068
  772MOL0     H 6487   0.545   4.409   4.647 -0.4594 -1.0095 -1.9070
  772MOL0     H 6488   0.484   4.150   4.749  3.8032 -0.4798 -1.2773
  772MOL0     H 6489   0.389   4.240   4.632 -1.8379 -2.2556  1.6034
  772MOL0     H 6490   0.463   4.133   4.450  0.0020 -2.0477 -0.9424
  772MOL0     H 6491   0.612   4.065   4.518 -0.6427 -0.6848 -0.7451
  772MOL0     H 6492   0.432   3.899   4.475  1.0172  1.9532 -1.1166
  772MOL0     H 6493   0.455   3.906   4.656  1.1335 -2.8362 -2.2109
  772MOL0     H 6494   0.212   3.808   4.405 -0.2258  0.8164  0.0351
  772MOL0     H 6495  -0.083   3.609   4.434  0.2936 -1.9928  3.0251
  772MOL0     H 6496   0.057   3.509   4.410  0.3040  0.5493 -4.3924
  772MOL0     H 6497   0.030   3.671   4.327 -1.2922 -0.4960 -0.8144
  772MOL0     H 6498  -0.324   3.453   4.771 -0.4769  0.4217  0.5545
  772MOL0     H 6499  -0.457   3.311   4.893  0.5522  0.1351 -2.8298
  772MOL0     H 6500  -0.599   3.272   5.086 -1.2621 -0.8900  0.1917
  772MOL0     H 6501  -0.531   3.113   5.026  4.2149 -3.4063  1.7469
  772MOL0     H 6502  -0.559   3.182   5.303  2.3397  2.7700 -3.1431
  772MOL0     H 6503  -0.696   3.105   5.232 -0.8562  3.1442  3.0527
  772MOL0     H 6504  -0.413   2.979   5.198  0.4060  1.6188  1.3293
  772MOL0     H 6505  -0.568   2.896   5.190  2.0884 -0.3597 -2.1328
  772MOL0     H 6506  -0.587   2.910   5.443 -0.1010 -1.3616 -0.8684
  772MOL0     H 6507  -0.469   3.045   5.434  0.6464  0.9353 -2.5181
  772MOL0     H 6508  -0.296   2.865   5.359  1.2811 -2.3917  1.4011
  772MOL0     H 6509  -0.356   2.846   5.527 -1.2029  2.4512  0.8790
  772MOL0     H 6510  -0.447   2.697   5.287  1.6948 -0.7935 -0.1551
  772MOL0     H 6511  -0.529   2.685   5.448  0.0365  0.5690 -0.3145
  772MOL0     H 6512  -0.274   2.641   5.517  1.5424  2.1510 -1.4179
  772MOL0     H 6513  -0.265   2.600   5.342 -0.7637  0.0454 -0.7777
  772MOL0     H 6514  -0.455   2.470   5.528 -0.3194 -0.8862 -0.7654
  772MOL0     H 6515  -0.309   2.400   5.477  1.9442 -0.8861 -1.9207
  772MOL0     H 6516  -0.157   3.275   5.202 -0.8945  0.6072  0.2180
  772MOL0     H 6517  -0.021   3.461   5.080 -0.9922 -0.2211  0.4517
  772MOL0     H 6518   0.016   3.791   4.860 -0.2667  1.6365  0.0019
  772MOL0     H 6519   0.156   3.973   4.794  1.4655  2.4888 -1.7889
  772MOL0     H 6520   0.965   3.811   4.592  0.3746 -0.6851  0.4625
  772MOL0     H 6521   0.776   3.678   4.534  0.4699 -1.6368 -2.4477
  772MOL0     H 6522   0.365   3.708   4.244  1.0878 -0.5905  1.0857
  772MOL0     H 6523   0.162   3.571   4.171  0.2876  0.0919 -0.3770
  772MOL0     H 6524   0.192   3.421   3.922  3.5693 -2.3879 -1.2434
  772MOL0     H 6525   0.170   3.251   3.896 -0.1661  2.4115 -3.4365
  772MOL0     H 6526  -0.077   3.276   3.944 -0.0717  0.0008  0.3563
  772MOL0     H 6527  -0.009   3.382   3.823  1.0014 -0.9257 -0.1843
  772MOL0     H 6528  -0.175   3.477   4.028 -0.0111  2.5848 -1.7427
  772MOL0     H 6529  -0.016   3.478   4.105 -1.8856  0.9244  0.0687
  772MOL0     H 6530   0.053   3.662   3.921  1.5327  0.1488  3.6245
  772MOL0     H 6531  -0.086   3.693   4.022 -0.4566 -0.2214 -0.1754
  772MOL0     H 6532  -0.277   3.676   3.665 -0.5808  2.3464  1.1004
  772MOL0     H 6533   0.427   3.237   4.111  0.2781 -0.6643 -1.5198
  772MOL0     H 6534   0.653   3.234   4.163  0.8865 -0.1038 -1.1556
  772MOL0     H 6535   0.727   3.396   4.136  0.8002  2.5920  3.6015
  772MOL0     H 6536   0.683   3.339   4.291 -0.4925 -3.3410 -0.1379
  773MOL0     O 6537   3.927  10.983   7.194 -0.1484 -0.3391 -0.3980
  773MOL0     C 6538   4.027  11.049   7.167  0.7411  0.8184 -0.8508
  773MOL0     O 6539   4.149  10.993   7.158  0.9054 -0.7654 -0.4328
  773MOL0     C 6540   4.172  10.857   7.171  0.1350  0.5614  0.2616
  773MOL0     C 6541   4.109  10.762   7.083  0.1770 -0.1632 -0.0817
  773MOL0     C 6542   4.136  10.629   7.107  0.0728  0.4000 -0.3506
  773MOL0     C 6543   4.224  10.575   7.206  0.2302 -1.2284 -0.1483
  773MOL0     O 6544   4.272  10.454   7.226  0.2450 -0.5483 -0.1258
  773MOL0     C 6545   4.221  10.347   7.141 -0.0444  0.4861 -0.3625
  773MOL0     C 6546   4.324  10.229   7.134 -0.2458 -0.1934  0.0708
  773MOL0     C 6547   4.471  10.277   7.127  0.3580 -1.0717  0.6680
  773MOL0     C 6548   4.562  10.169   7.107 -0.5340  1.2154  0.4325
  773MOL0     C 6549   4.715  10.220   7.108 -0.7454 -0.2614 -1.0831
  773MOL0     C 6550   4.766  10.259   7.250 -0.1768  0.5523  0.0502
  773MOL0     C 6551   4.918  10.288   7.258  0.1182 -1.1186  0.5171
  773MOL0     C 6552   4.964  10.289   7.408  0.4537 -0.3273 -0.9583
  773MOL0     N 6553   5.110  10.281   7.411  0.2669  0.1675  0.3986
  773MOL0     C 6554   5.166  10.149   7.424 -0.3013 -0.1951  0.0792
  773MOL0     C 6555   5.303  10.177   7.405  0.1172 -0.4093  0.1159
  773MOL0     C 6556   5.410  10.080   7.378  0.4648  0.8496  0.3179
  773MOL0     C 6557   5.553  10.139   7.382  0.1566  0.3875  0.7907
  773MOL0     C 6558   5.667  10.045   7.374 -0.2364 -0.3849  0.6123
  773MOL0     C 6559   5.677   9.944   7.496 -0.4980 -0.1569  0.3367
  773MOL0     O 6560   5.809   9.896   7.504  0.2585  0.5189  0.4861
  773MOL0     C 6561   5.906   9.934   7.594  0.0810  0.0702  0.7681
  773MOL0     C 6562   6.037   9.955   7.557  0.4919 -0.4606  0.6133
  773MOL0     C 6563   6.135  10.007   7.644  0.4964  0.4764  0.0470
  773MOL0     C 6564   6.279  10.034   7.591 -0.2331 -1.2113  0.3399
  773MOL0     C 6565   6.103  10.035   7.774 -0.3224 -0.4919 -0.3391
  773MOL0     C 6566   6.195  10.083   7.870 -0.2130  0.1444 -0.2281
  773MOL0     O 6567   6.183  10.218   7.907  0.1040 -0.0649 -0.3559
  773MOL0     C 6568   6.263  10.268   8.011 -0.5403  0.2629  0.1299
  773MOL0     C 6569   6.286  10.404   8.022 -0.5164 -0.0341  0.2499
  773MOL0     C 6570   6.331  10.469   8.134 -0.1416 -0.4047 -0.2846
  773MOL0     C 6571   6.342  10.401   8.253 -0.0169 -0.1037  0.2282
  773MOL0     O 6572   6.398  10.446   8.374  0.3225 -0.2814 -0.0706
  773MOL0     C 6573   6.403  10.592   8.380 -0.5567 -0.1863  0.1841
  773MOL0     C 6574   6.263  10.650   8.396 -1.0950 -0.7477  1.1181
  773MOL0     C 6575   6.256  10.807   8.395 -0.9295 -0.1248 -0.5899
  773MOL0     C 6576   6.342  10.864   8.501 -0.2361 -0.1823  0.6315
  773MOL0     C 6577   6.313  10.821   8.647  0.3510 -0.0929  0.2992
  773MOL0     C 6578   6.401  10.886   8.759 -1.3279  0.4797  0.1079
  773MOL0     C 6579   6.542  10.829   8.742  0.0180 -0.3570 -0.5677
  773MOL0     C 6580   6.622  10.810   8.878  0.3325 -0.0582  0.3237
  773MOL0    Cl 6581   6.620  10.969   8.955  0.0397  0.2435  0.0182
  773MOL0     C 6582   6.311  10.265   8.245 -0.2515  1.0391  0.3671
  773MOL0     C 6583   6.295  10.199   8.122 -0.7425 -0.1503 -0.3717
  773MOL0     O 6584   6.285   9.999   7.908  0.2365  0.0854 -0.5534
  773MOL0     C 6585   5.971  10.019   7.808 -0.9037  1.4438 -0.4208
  773MOL0     C 6586   5.873   9.967   7.724 -0.3423 -0.7819  0.9218
  773MOL0     N 6587   5.324  10.318   7.399 -0.0123 -0.2972 -0.5330
  773MOL0     N 6588   5.209  10.371   7.407  0.6808 -0.4719  1.1869
  773MOL0     C 6589   4.273  10.676   7.291 -0.7022  0.6591 -0.2241
  773MOL0     C 6590   4.251  10.816   7.278  0.5075 -0.5151  0.0738
  773MOL0     C 6591   4.025  11.194   7.150 -1.5119 -0.1509  0.2790
  773MOL0     C 6592   3.920  11.255   7.081  0.0394  0.8528  0.4444
  773MOL0     C 6593   3.926  11.389   7.056 -0.3345  0.5461  0.6317
  773MOL0     C 6594   4.030  11.470   7.110  0.3401 -0.1338  1.6182
  773MOL0     O 6595   4.038  11.604   7.086  0.0277 -0.0003 -0.3780
  773MOL0     C 6596   3.922  11.672   7.143 -0.5291 -0.0429  0.0641
  773MOL0     C 6597   3.886  11.814   7.086  0.2732  0.3242 -0.8370
  773MOL0     C 6598   3.833  11.799   6.949 -0.3384  0.0665  1.1334
  773MOL0     C 6599   3.815  11.934   6.880 -0.5579 -0.6914  0.6569
  773MOL0     C 6600   3.748  12.041   6.953 -0.4530 -1.0652  0.7622
  773MOL0     C 6601   3.710  12.115   7.042 -0.1136 -0.0425 -0.1255
  773MOL0     C 6602   4.134  11.411   7.171 -0.4865  0.2637 -0.4365
  773MOL0     C 6603   4.130  11.271   7.200 -0.6767 -0.9301  0.7058
  773MOL0     C 6604   4.252  11.222   7.279  0.0787 -0.4581  0.1900
  773MOL0     H 6605   4.032  10.796   7.014  1.0439  2.4846  0.1375
  773MOL0     H 6606   4.085  10.561   7.040 -4.1931  0.4125  2.4848
  773MOL0     H 6607   4.199  10.383   7.040 -1.3485  1.6335  0.3076
  773MOL0     H 6608   4.125  10.318   7.183 -2.7751  3.6904 -3.7695
  773MOL0     H 6609   4.321  10.165   7.222  1.7289 -0.7640 -0.2280
  773MOL0     H 6610   4.303  10.163   7.049 -0.6707  0.2751 -0.1950
  773MOL0     H 6611   4.480  10.345   7.042 -3.2222 -0.7021  0.4221
  773MOL0     H 6612   4.477  10.332   7.221  0.0740 -4.7326  3.0320
  773MOL0     H 6613   4.559  10.099   7.191 -2.9263  0.7027  0.0015
  773MOL0     H 6614   4.557  10.104   7.019  5.8067  1.0379 -0.2648
  773MOL0     H 6615   4.720  10.311   7.048  1.5781  1.1564  1.0697
  773MOL0     H 6616   4.777  10.142   7.064  0.6035  0.5112 -0.5922
  773MOL0     H 6617   4.714  10.347   7.289 -3.8521 -0.7778 -1.4584
  773MOL0     H 6618   4.753  10.174   7.317 -0.0611  0.4354 -0.0740
  773MOL0     H 6619   4.950  10.378   7.206 -0.1064 -0.4070  1.5882
  773MOL0     H 6620   4.960  10.195   7.218 -0.1697 -1.6069  1.3077
  773MOL0     H 6621   4.930  10.372   7.471  0.4696 -2.1007  1.4781
  773MOL0     H 6622   4.926  10.203   7.463 -0.9527  0.5690 -0.4390
  773MOL0     H 6623   5.111  10.055   7.424 -1.4651  0.2145  5.2246
  773MOL0     H 6624   5.373  10.034   7.286 -0.3950 -0.6411  1.3662
  773MOL0     H 6625   5.404  10.002   7.455 -0.1954  0.8016  0.2224
  773MOL0     H 6626   5.562  10.210   7.299 -1.7662 -1.8941 -1.5440
  773MOL0     H 6627   5.547  10.187   7.480 -0.0098  0.0067  0.9654
  773MOL0     H 6628   5.665   9.997   7.276  1.0985  2.2982 -0.8714
  773MOL0     H 6629   5.768  10.088   7.378 -0.1264 -0.4273 -1.1717
  773MOL0     H 6630   5.655   9.987   7.594 -0.5224  2.1562 -0.6117
  773MOL0     H 6631   5.615   9.859   7.467 -1.0405  0.1492  0.5873
  773MOL0     H 6632   6.067   9.928   7.456 -1.7221  0.4642 -0.3647
  773MOL0     H 6633   6.329  10.123   7.629  3.0962 -3.1343  0.8716
  773MOL0     H 6634   6.281  10.022   7.482 -1.6185  1.2874 -0.0350
  773MOL0     H 6635   6.345   9.959   7.636 -0.5797 -0.2221  2.6385
  773MOL0     H 6636   6.263  10.453   7.928  1.2785 -0.7898 -0.6193
  773MOL0     H 6637   6.345  10.576   8.130 -0.4976 -0.1852  2.3272
  773MOL0     H 6638   6.472  10.620   8.461  0.1076 -0.2306 -0.3562
  773MOL0     H 6639   6.453  10.629   8.290  2.5503 -1.6091  1.1776
  773MOL0     H 6640   6.212  10.636   8.300  0.9911  0.6571 -0.2713
  773MOL0     H 6641   6.214  10.596   8.478  3.1219 -3.2718  2.2977
  773MOL0     H 6642   6.158  10.846   8.424  1.0607  4.6678  0.6707
  773MOL0     H 6643   6.286  10.835   8.294  0.5859  0.7757  0.0827
  773MOL0     H 6644   6.333  10.973   8.492  1.2444 -0.1684 -1.3004
  773MOL0     H 6645   6.447  10.848   8.474  0.2732 -0.3677  2.5564
  773MOL0     H 6646   6.206  10.844   8.654  0.5133  0.9969 -0.4322
  773MOL0     H 6647   6.336  10.714   8.651  0.6939  0.0305  2.4815
  773MOL0     H 6648   6.352  10.863   8.854  0.4049  0.3750  1.0205
  773MOL0     H 6649   6.414  10.994   8.750  4.4347  0.6878  4.8319
  773MOL0     H 6650   6.599  10.888   8.670  1.5197 -2.4548 -1.1888
  773MOL0     H 6651   6.534  10.727   8.704  1.3131  0.7149 -4.1164
  773MOL0     H 6652   6.723  10.769   8.868 -0.8518 -3.0626 -0.4277
  773MOL0     H 6653   6.577  10.738   8.947 -1.2463  1.0008  0.4520
  773MOL0     H 6654   6.316  10.201   8.332  0.6287 -2.0502 -1.7645
  773MOL0     H 6655   6.280  10.092   8.126 -0.6181 -0.2219 -1.5395
  773MOL0     H 6656   5.941  10.039   7.910 -0.5224  1.2733 -0.2783
  773MOL0     H 6657   5.781   9.945   7.777 -0.5739 -1.1583  0.3788
  773MOL0     H 6658   4.333  10.641   7.374 -1.5598 -1.8270 -0.5517
  773MOL0     H 6659   4.292  10.894   7.342  0.2699 -0.0771 -0.3025
  773MOL0     H 6660   3.835  11.188   7.066 -1.5317  1.9833  3.3675
  773MOL0     H 6661   3.832  11.430   7.019 -0.8629  0.9943  2.3913
  773MOL0     H 6662   3.828  11.619   7.154 -2.3389  2.3919 -2.3666
  773MOL0     H 6663   3.957  11.683   7.246 -1.1767  1.5005  0.1408
  773MOL0     H 6664   3.981  11.868   7.086 -0.6728  2.1038  0.6384
  773MOL0     H 6665   3.802  11.854   7.143 -2.9011 -2.3777 -3.1802
  773MOL0     H 6666   3.891  11.741   6.877 -2.7487 -1.3339  0.2121
  773MOL0     H 6667   3.736  11.748   6.953 -0.5779  0.5094  1.0095
  773MOL0     H 6668   3.750  11.913   6.795  0.0039  2.8131 -0.7889
  773MOL0     H 6669   3.907  11.972   6.836 -1.0035 -1.2124 -0.7913
  773MOL0     H 6670   3.659  12.171   7.118 -3.4895 -4.1747  1.0098
  773MOL0     H 6671   4.220  11.472   7.198  0.5687 -1.0647 -0.6524
  773MOL0     H 6672   4.222  11.150   7.355 -1.8135 -0.3423 -0.3934
  773MOL0     H 6673   4.329  11.173   7.220  1.0237 -1.4257  2.1528
  773MOL0     H 6674   4.286  11.307   7.339 -0.7456 -0.0315  0.0702
  774MOL0     O 6675   4.270   9.284   8.194 -0.2349 -0.4881 -0.3116
  774MOL0     C 6676   4.202   9.384   8.231  0.6472  0.8131  1.5386
  774MOL0     O 6677   4.127   9.386   8.339 -0.7169  0.5322  0.0216
  774MOL0     C 6678   4.104   9.273   8.414 -0.5721  0.9510  0.2368
  774MOL0     C 6679   3.979   9.262   8.479 -0.0823 -0.4578  0.5500
  774MOL0     C 6680   3.951   9.156   8.567  0.8509 -0.1252 -0.3248
  774MOL0     C 6681   4.046   9.057   8.584 -0.0124 -0.0338  0.1018
  774MOL0     O 6682   4.005   8.960   8.669  0.2900 -0.6124  0.4161
  774MOL0     C 6683   3.889   8.889   8.620 -0.4519  0.4261  0.5674
  774MOL0     C 6684   3.813   8.831   8.735 -0.2330 -0.2514 -0.5930
  774MOL0     C 6685   3.682   8.753   8.693  0.0711 -0.1654  0.1093
  774MOL0     C 6686   3.720   8.610   8.700  0.5685  0.0145  0.1303
  774MOL0     C 6687   3.625   8.508   8.634 -0.0148  0.0233 -0.9873
  774MOL0     C 6688   3.619   8.507   8.486 -0.8692 -0.8840  0.5658
  774MOL0     C 6689   3.736   8.444   8.414  0.2779 -0.9130 -0.6388
  774MOL0     C 6690   3.776   8.528   8.289 -0.2873 -0.9283  1.0849
  774MOL0     N 6691   3.896   8.475   8.206  0.5715  0.0224 -0.3062
  774MOL0     C 6692   4.026   8.502   8.238  0.0434 -0.0336  0.1560
  774MOL0     C 6693   4.102   8.444   8.141 -0.1784 -0.2492 -0.1378
  774MOL0     C 6694   4.252   8.423   8.133 -0.4316  0.9103  0.6231
  774MOL0     C 6695   4.293   8.294   8.197 -0.4758  0.1954 -0.6681
  774MOL0     C 6696   4.227   8.175   8.129  0.4762  0.7087  0.6705
  774MOL0     C 6697   4.299   8.035   8.137 -0.0401  0.7290 -0.1115
  774MOL0     O 6698   4.345   7.989   8.001  0.4528 -0.2280 -0.6308
  774MOL0     C 6699   4.259   7.922   7.924 -0.5425 -0.4072  0.0728
  774MOL0     C 6700   4.304   7.899   7.797  0.0698 -1.2129  0.3243
  774MOL0     C 6701   4.227   7.827   7.700  0.2369  0.5251  0.2691
  774MOL0     C 6702   4.299   7.813   7.565  0.2165  0.2260  0.1437
  774MOL0     C 6703   4.102   7.770   7.738 -0.4377 -0.3542  0.3712
  774MOL0     C 6704   4.017   7.701   7.648  0.2166  0.5018 -0.7028
  774MOL0     O 6705   3.886   7.746   7.639  0.2047 -0.1529 -0.2087
  774MOL0     C 6706   3.794   7.707   7.547 -0.8758  0.0767 -0.3795
  774MOL0     C 6707   3.821   7.658   7.418 -0.5117  0.9601  0.1727
  774MOL0     C 6708   3.713   7.641   7.328 -0.1520  0.2362 -0.7544
  774MOL0     C 6709   3.586   7.684   7.355  0.7783  0.3365 -0.4768
  774MOL0     O 6710   3.487   7.692   7.267  0.7400  0.9229  0.5511
  774MOL0     C 6711   3.367   7.617   7.309  0.6055  0.1075  0.2527
  774MOL0     C 6712   3.277   7.609   7.186 -1.0494  0.3465  0.2716
  774MOL0     C 6713   3.148   7.528   7.194 -1.0517 -0.2102 -0.1117
  774MOL0     C 6714   3.040   7.597   7.256 -0.2846 -0.3017  0.2530
  774MOL0     C 6715   2.927   7.495   7.301  0.1742  0.5292  0.1138
  774MOL0     C 6716   2.789   7.552   7.351  0.3171  0.4162 -1.0093
  774MOL0     C 6717   2.699   7.592   7.233 -0.2092 -0.9360  1.0645
  774MOL0     C 6718   2.554   7.550   7.243 -0.3997 -0.8637 -0.3287
  774MOL0    Cl 6719   2.450   7.523   7.094 -0.6663  1.1016  0.4348
  774MOL0     C 6720   3.563   7.751   7.477 -0.4060 -0.3988 -0.1628
  774MOL0     C 6721   3.662   7.751   7.583  0.0928  0.4052  0.2958
  774MOL0     O 6722   4.065   7.613   7.579 -0.0482  0.0318  0.2412
  774MOL0     C 6723   4.062   7.786   7.872  0.0719  0.5250  0.8758
  774MOL0     C 6724   4.143   7.857   7.961 -0.1874  0.6232  0.3459
  774MOL0     N 6725   4.021   8.408   8.037  0.5846  0.3030  0.3991
  774MOL0     N 6726   3.898   8.435   8.076  0.3423 -0.2062  0.5895
  774MOL0     C 6727   4.174   9.074   8.530 -0.2859  0.0041  0.0676
  774MOL0     C 6728   4.209   9.179   8.450  0.7366 -1.3586  1.1518
  774MOL0     C 6729   4.203   9.503   8.136 -0.4392  0.4023  0.4516
  774MOL0     C 6730   4.294   9.503   8.030 -0.1674  0.4089  0.0660
  774MOL0     C 6731   4.283   9.597   7.929  0.5126 -1.0416 -0.7819
  774MOL0     C 6732   4.186   9.702   7.934  0.1410  0.6337 -1.3542
  774MOL0     O 6733   4.161   9.791   7.834  0.2335 -0.4737 -0.1715
  774MOL0     C 6734   4.194   9.749   7.697  0.6697 -0.3430 -0.0266
  774MOL0     C 6735   4.131   9.842   7.583 -0.4740  0.7635 -0.2842
  774MOL0     C 6736   4.112   9.989   7.629  0.7634  0.1329 -0.4002
  774MOL0     C 6737   4.242  10.064   7.611 -0.3628  0.0532 -0.2015
  774MOL0     C 6738   4.211  10.213   7.612 -0.6386  0.1853 -0.2568
  774MOL0     C 6739   4.207  10.330   7.633  0.0697  0.1647 -0.2539
  774MOL0     C 6740   4.115   9.709   8.056  0.2623 -0.0436 -0.4859
  774MOL0     C 6741   4.110   9.608   8.151  0.4775  0.3040  0.5494
  774MOL0     C 6742   4.001   9.615   8.254  0.7077 -0.2401  0.0692
  774MOL0     H 6743   3.912   9.347   8.476 -1.8651 -1.6965  2.2992
  774MOL0     H 6744   3.859   9.160   8.624  1.5599  2.7791  0.7759
  774MOL0     H 6745   3.918   8.807   8.554 -0.0386  1.2862 -0.3438
  774MOL0     H 6746   3.818   8.952   8.565 -0.9873  0.3624  1.1624
  774MOL0     H 6747   3.881   8.762   8.786 -1.7289 -0.3040  1.4767
  774MOL0     H 6748   3.789   8.908   8.809 -1.9234 -0.8129 -0.5277
  774MOL0     H 6749   3.598   8.768   8.762  1.2542 -4.1518  2.7470
  774MOL0     H 6750   3.648   8.774   8.591 -0.1469  2.3911  0.6356
  774MOL0     H 6751   3.820   8.601   8.656 -0.3296  0.7605 -2.2199
  774MOL0     H 6752   3.738   8.581   8.804  2.0405  1.7120  0.4094
  774MOL0     H 6753   3.525   8.518   8.679  0.8352  0.4439  0.9076
  774MOL0     H 6754   3.664   8.408   8.653  0.0063  0.2221  0.1050
  774MOL0     H 6755   3.529   8.448   8.465 -3.2573  1.9753  1.9242
  774MOL0     H 6756   3.595   8.603   8.439 -1.9321 -1.9731 -1.2028
  774MOL0     H 6757   3.702   8.347   8.376  2.3170 -0.9357 -2.6905
  774MOL0     H 6758   3.813   8.429   8.491 -0.2118 -1.5474 -0.2643
  774MOL0     H 6759   3.693   8.528   8.219  0.0564 -2.4748  0.6518
  774MOL0     H 6760   3.811   8.626   8.323 -4.8479  1.0854  0.6359
  774MOL0     H 6761   4.069   8.537   8.331 -1.6885 -1.7264  1.6875
  774MOL0     H 6762   4.302   8.503   8.189 -1.6855  2.4876 -0.3929
  774MOL0     H 6763   4.289   8.437   8.031 -0.0817  0.5520  0.7031
  774MOL0     H 6764   4.401   8.286   8.214 -0.8147  3.2277  5.5986
  774MOL0     H 6765   4.253   8.298   8.299  0.6362 -1.0887 -0.1517
  774MOL0     H 6766   4.121   8.169   8.153  0.8246 -0.2235  2.0925
  774MOL0     H 6767   4.224   8.203   8.023  0.4072  1.9732  0.9862
  774MOL0     H 6768   4.396   8.036   8.187  2.0975 -1.8117 -3.7313
  774MOL0     H 6769   4.247   7.951   8.183  0.5847 -1.4991 -3.1489
  774MOL0     H 6770   4.399   7.935   7.758 -0.0152 -0.7139  0.5678
  774MOL0     H 6771   4.382   7.883   7.556 -2.6825  3.5925 -3.6830
  774MOL0     H 6772   4.232   7.825   7.480 -1.2499 -1.6122  0.9473
  774MOL0     H 6773   4.338   7.711   7.549  0.7582 -0.0187  2.5837
  774MOL0     H 6774   3.919   7.637   7.378 -2.0307  0.6124 -3.7487
  774MOL0     H 6775   3.721   7.607   7.225 -1.9798 -1.8562 -0.2672
  774MOL0     H 6776   3.387   7.519   7.353 -1.6961 -1.1738 -1.2927
  774MOL0     H 6777   3.320   7.683   7.382 -0.2155 -0.1392 -0.0293
  774MOL0     H 6778   3.262   7.709   7.142  0.8008  1.2639  1.6220
  774MOL0     H 6779   3.341   7.549   7.120 -0.3400 -1.0852  2.1877
  774MOL0     H 6780   3.175   7.441   7.253  2.5076 -1.9550 -3.8167
  774MOL0     H 6781   3.119   7.496   7.093  1.2951 -0.1927 -0.8412
  774MOL0     H 6782   3.003   7.667   7.180  0.5795 -3.1670 -3.0340
  774MOL0     H 6783   3.069   7.646   7.349 -0.8315 -0.8580  0.7250
  774MOL0     H 6784   2.921   7.420   7.221  1.4393 -0.7455  1.1771
  774MOL0     H 6785   2.965   7.425   7.375 -2.5326 -2.5891 -1.1648
  774MOL0     H 6786   2.812   7.632   7.422 -2.0944  0.7245 -0.4986
  774MOL0     H 6787   2.722   7.489   7.410 -0.6920  2.6400  0.3500
  774MOL0     H 6788   2.736   7.541   7.144 -0.8822 -0.0652  0.2656
  774MOL0     H 6789   2.702   7.701   7.233 -0.0338 -0.9390  1.2964
  774MOL0     H 6790   2.502   7.608   7.321 -1.0037 -0.5308 -0.9707
  774MOL0     H 6791   2.564   7.449   7.284  0.0249 -0.7163 -0.0624
  774MOL0     H 6792   3.465   7.791   7.502 -0.6310 -0.9511 -0.1474
  774MOL0     H 6793   3.637   7.791   7.681  2.4828  0.1470  1.0804
  774MOL0     H 6794   3.969   7.743   7.908 -0.3208  0.0573 -0.6236
  774MOL0     H 6795   4.104   7.858   8.062  3.7248  3.2473  2.0887
  774MOL0     H 6796   4.254   9.004   8.552 -0.7391  0.1393  2.4534
  774MOL0     H 6797   4.308   9.187   8.408 -0.5905 -0.7651 -2.1483
  774MOL0     H 6798   4.367   9.423   8.023  2.3743  2.7442 -2.5753
  774MOL0     H 6799   4.353   9.590   7.846  0.6867  3.2097 -1.2127
  774MOL0     H 6800   4.303   9.745   7.690  0.9861  1.0649  2.7172
  774MOL0     H 6801   4.144   9.653   7.680 -4.3641  1.4419  2.8807
  774MOL0     H 6802   4.037   9.792   7.557 -0.2911  0.7182 -0.8586
  774MOL0     H 6803   4.190   9.819   7.494  1.5455  1.1120  0.9033
  774MOL0     H 6804   4.027  10.028   7.573 -0.5320 -0.5290  1.0035
  774MOL0     H 6805   4.079   9.986   7.734  4.3791 -0.0154  0.8907
  774MOL0     H 6806   4.306  10.023   7.532  1.2415 -3.4349  2.5914
  774MOL0     H 6807   4.296  10.041   7.704 -2.2650  0.3911  1.0447
  774MOL0     H 6808   4.197  10.435   7.650 -2.7586 -0.2369  1.0335
  774MOL0     H 6809   4.038   9.784   8.074 -2.5152 -2.6280 -0.7559
  774MOL0     H 6810   4.027   9.597   8.359 -1.5770 -3.5802  0.2036
  774MOL0     H 6811   3.958   9.716   8.255 -0.5624 -0.7482 -0.7299
  774MOL0     H 6812   3.910   9.562   8.224 -0.9635  2.2420  0.4115
  775MOL0     O 6813   7.475   6.664   8.680  0.0886 -0.2895  0.1071
  775MOL0     C 6814   7.361   6.661   8.647 -0.3954 -0.0711  0.7453
  775MOL0     O 6815   7.260   6.752   8.688  0.4437  0.6574  0.3327
  775MOL0     C 6816   7.287   6.865   8.767 -0.1023 -0.0859 -0.1749
  775MOL0     C 6817   7.175   6.923   8.816 -0.1582 -0.0241 -0.2027
  775MOL0     C 6818   7.182   7.040   8.899 -0.3215 -0.2437 -0.3553
  775MOL0     C 6819   7.306   7.100   8.921  0.4581  0.6558  0.8473
  775MOL0     O 6820   7.316   7.219   8.985  0.1822 -0.4767 -0.4710
  775MOL0     C 6821   7.436   7.290   9.006  1.1582  0.7196  0.4979
  775MOL0     C 6822   7.527   7.219   9.119  1.0537 -0.4757 -1.1006
  775MOL0     C 6823   7.619   7.302   9.200 -0.2880 -0.0414 -0.5288
  775MOL0     C 6824   7.553   7.434   9.255  0.1075 -0.0366 -0.1665
  775MOL0     C 6825   7.625   7.498   9.374 -0.1384  0.1977 -0.4721
  775MOL0     C 6826   7.759   7.562   9.330  0.4350 -0.6955  0.8114
  775MOL0     C 6827   7.843   7.601   9.449 -0.8582  0.2456 -0.4308
  775MOL0     C 6828   7.780   7.720   9.524  0.1950 -0.7679  0.2458
  775MOL0     N 6829   7.848   7.784   9.635 -0.0278 -0.0104  0.7473
  775MOL0     C 6830   7.869   7.722   9.751 -0.1305 -0.3900 -1.0811
  775MOL0     C 6831   7.929   7.813   9.831 -0.0746 -0.3153 -0.2782
  775MOL0     C 6832   7.954   7.804   9.989 -0.4180 -0.2733 -0.6360
  775MOL0     C 6833   8.078   7.739  10.039  0.9634  1.1499 -0.4348
  775MOL0     C 6834   8.197   7.780   9.967  0.3682 -0.1285 -0.0406
  775MOL0     C 6835   8.320   7.727  10.041  0.3300 -0.4652  0.6790
  775MOL0     O 6836   8.337   7.800  10.165  0.7212  0.9581 -0.2368
  775MOL0     C 6837   8.396   7.742  10.276  0.2366  0.6162  0.5240
  775MOL0     C 6838   8.420   7.832  10.381 -0.7189 -0.9561 -0.3814
  775MOL0     C 6839   8.456   7.778  10.512  0.4280 -0.0744  0.3011
  775MOL0     C 6840   8.512   7.878  10.610 -0.1573  0.2344 -0.9690
  775MOL0     C 6841   8.455   7.639  10.542  0.4707 -0.0443  1.1815
  775MOL0     C 6842   8.483   7.588  10.679 -1.0706  0.7023 -0.2847
  775MOL0     O 6843   8.548   7.471  10.674 -0.3535  0.0842 -0.2791
  775MOL0     C 6844   8.582   7.425  10.803  0.0707 -0.3229  0.6467
  775MOL0     C 6845   8.483   7.387  10.894 -0.0971  1.8223  0.2737
  775MOL0     C 6846   8.517   7.314  11.004 -0.2977  0.8996  0.3967
  775MOL0     C 6847   8.642   7.265  11.039  0.4045  0.1521  0.3358
  775MOL0     O 6848   8.661   7.195  11.148 -0.3526 -0.7042 -0.0456
  775MOL0     C 6849   8.580   7.223  11.272 -0.2942 -0.7386 -0.5445
  775MOL0     C 6850   8.609   7.146  11.398 -0.3479 -0.3822 -0.2482
  775MOL0     C 6851   8.717   7.215  11.469 -0.6120  0.1800 -0.0022
  775MOL0     C 6852   8.717   7.161  11.615  1.2680 -0.6668  0.1205
  775MOL0     C 6853   8.831   7.230  11.695  0.2009 -0.4755  1.3747
  775MOL0     C 6854   8.883   7.145  11.823  0.4237 -0.0376  0.6622
  775MOL0     C 6855   8.762   7.133  11.917 -0.9103  0.3314 -0.0226
  775MOL0     C 6856   8.791   7.081  12.053  0.4341 -0.3535 -0.5177
  775MOL0    Cl 6857   8.629   7.074  12.125 -0.0276  0.5306 -0.2832
  775MOL0     C 6858   8.744   7.305  10.956 -0.1492 -0.1955 -0.3638
  775MOL0     C 6859   8.716   7.379  10.830  0.1565  0.4457 -0.1542
  775MOL0     O 6860   8.459   7.657  10.780  0.0755 -0.0011 -0.3609
  775MOL0     C 6861   8.439   7.548  10.436 -0.3512  0.3872 -0.2108
  775MOL0     C 6862   8.414   7.602  10.304  0.6154 -0.0593  0.5367
  775MOL0     N 6863   7.957   7.928   9.756 -0.0642 -0.3243 -0.2987
  775MOL0     N 6864   7.895   7.910   9.641 -0.2386  0.0056  0.2430
  775MOL0     C 6865   7.422   7.045   8.863  0.0973 -0.2525 -0.2784
  775MOL0     C 6866   7.413   6.934   8.781 -0.6254 -0.1663 -0.6379
  775MOL0     C 6867   7.324   6.537   8.579  0.3077  0.4766  0.1059
  775MOL0     C 6868   7.417   6.471   8.491 -0.9499 -0.6037 -0.5209
  775MOL0     C 6869   7.387   6.371   8.401  0.2469  0.1527 -1.4384
  775MOL0     C 6870   7.260   6.322   8.389 -0.0425 -0.1462  0.5733
  775MOL0     O 6871   7.233   6.228   8.292 -0.3412  0.0426  0.3320
  775MOL0     C 6872   7.100   6.187   8.255  0.3386 -0.4606  0.6697
  775MOL0     C 6873   7.017   6.298   8.177 -0.0934  0.2531 -1.0259
  775MOL0     C 6874   7.086   6.365   8.050 -0.0121 -0.5207  0.5325
  775MOL0     C 6875   7.062   6.513   8.047 -0.1333  0.3000 -0.3840
  775MOL0     C 6876   6.915   6.546   8.045  0.0459  0.2828  0.2904
  775MOL0     C 6877   6.808   6.599   8.062 -0.1292 -0.2813  0.0628
  775MOL0     C 6878   7.166   6.378   8.473  0.7062 -0.2766  1.2923
  775MOL0     C 6879   7.191   6.481   8.569  0.3648 -0.1930 -1.1990
  775MOL0     C 6880   7.077   6.539   8.643  0.5905 -1.6866  0.4215
  775MOL0     H 6881   7.081   6.873   8.799 -0.0793 -0.1526 -0.2627
  775MOL0     H 6882   7.099   7.093   8.945  1.8743  1.7282  1.6119
  775MOL0     H 6883   7.396   7.378   9.057  0.1587 -0.4784  1.8803
  775MOL0     H 6884   7.479   7.316   8.909 -1.8823  3.0285 -0.3844
  775MOL0     H 6885   7.466   7.157   9.186  3.0889 -1.9215 -0.4824
  775MOL0     H 6886   7.600   7.158   9.065  1.8923  0.1736 -0.7064
  775MOL0     H 6887   7.675   7.245   9.274 -2.3180 -0.1050  1.0774
  775MOL0     H 6888   7.701   7.331   9.134 -0.3587  0.3875 -0.4321
  775MOL0     H 6889   7.568   7.514   9.182  5.0754  0.1999  0.7281
  775MOL0     H 6890   7.450   7.414   9.286  0.6994 -0.5096  1.6075
  775MOL0     H 6891   7.637   7.416   9.444  0.0179 -0.0607 -0.7967
  775MOL0     H 6892   7.558   7.576   9.413 -3.8605 -0.2309 -5.0507
  775MOL0     H 6893   7.816   7.491   9.270  0.8312  0.6167 -0.4123
  775MOL0     H 6894   7.745   7.644   9.260 -0.7259 -2.0252 -0.5771
  775MOL0     H 6895   7.938   7.633   9.406 -0.1998 -2.3754 -1.0906
  775MOL0     H 6896   7.865   7.516   9.514 -0.2823  1.7834  1.4908
  775MOL0     H 6897   7.756   7.792   9.445 -1.6999  0.1534  1.5929
  775MOL0     H 6898   7.682   7.697   9.568 -0.7820  1.8645 -0.3546
  775MOL0     H 6899   7.840   7.624   9.787 -1.0263 -0.1971 -1.2640
  775MOL0     H 6900   7.872   7.759  10.044 -1.1197 -1.0539 -2.2387
  775MOL0     H 6901   7.960   7.910  10.013  2.1558 -0.2464 -1.0500
  775MOL0     H 6902   8.086   7.756  10.147 -1.2697  1.1477 -0.2173
  775MOL0     H 6903   8.056   7.634  10.018 -0.5046  1.3725 -0.1357
  775MOL0     H 6904   8.206   7.735   9.868 -2.1659 -1.6014  0.3249
  775MOL0     H 6905   8.204   7.889   9.954 -2.3046 -0.0946 -1.8704
  775MOL0     H 6906   8.313   7.618  10.050 -2.2172 -0.3601  0.4973
  775MOL0     H 6907   8.409   7.757   9.986 -0.5510  1.1561  0.0910
  775MOL0     H 6908   8.436   7.933  10.346 -1.7287  1.1550  4.4300
  775MOL0     H 6909   8.603   7.839  10.656  0.4996  1.0626 -1.5435
  775MOL0     H 6910   8.431   7.896  10.682 -0.8047  1.7440 -2.0203
  775MOL0     H 6911   8.544   7.980  10.586  0.2431  0.4843  0.5037
  775MOL0     H 6912   8.385   7.432  10.880 -0.1648  1.0751 -2.2642
  775MOL0     H 6913   8.440   7.287  11.075  0.3347  2.0195  1.5424
  775MOL0     H 6914   8.584   7.329  11.296 -0.7039 -1.6912  5.1569
  775MOL0     H 6915   8.480   7.187  11.245 -0.4886  0.0814 -0.9430
  775MOL0     H 6916   8.525   7.125  11.464 -0.5471 -2.2687 -1.0523
  775MOL0     H 6917   8.648   7.049  11.366  1.0198  0.6642 -1.9608
  775MOL0     H 6918   8.713   7.324  11.467  2.5676  0.3697 -0.9197
  775MOL0     H 6919   8.812   7.204  11.416  0.3783  1.0936  1.5155
  775MOL0     H 6920   8.725   7.052  11.617 -0.3830 -0.8070  1.0972
  775MOL0     H 6921   8.626   7.179  11.672  1.3684 -2.1691  0.8214
  775MOL0     H 6922   8.918   7.239  11.629 -0.2884  0.2310  0.8102
  775MOL0     H 6923   8.789   7.326  11.724  0.2075 -0.2037  0.5014
  775MOL0     H 6924   8.951   7.213  11.874  2.6205 -0.2991 -1.7215
  775MOL0     H 6925   8.935   7.052  11.801  0.3335  0.5981 -2.8385
  775MOL0     H 6926   8.689   7.066  11.872 -0.9079  2.2265 -3.1358
  775MOL0     H 6927   8.716   7.230  11.936  2.3391  2.5385 -2.2925
  775MOL0     H 6928   8.850   7.162  12.098  1.9826 -0.3837 -2.3661
  775MOL0     H 6929   8.856   6.994  12.059  1.5583  0.3032 -2.2973
  775MOL0     H 6930   8.848   7.287  10.981  0.5619  2.3485 -1.2257
  775MOL0     H 6931   8.792   7.402  10.756  1.5153  0.4331  1.1680
  775MOL0     H 6932   8.434   7.441  10.454 -0.8502  0.2976 -0.8471
  775MOL0     H 6933   8.392   7.540  10.217  1.3291 -3.3452  2.5496
  775MOL0     H 6934   7.521   7.088   8.872  0.1744 -0.5837  0.6495
  775MOL0     H 6935   7.508   6.902   8.740  1.5109  3.1359  1.2798
  775MOL0     H 6936   7.522   6.495   8.492 -1.9632  5.2661  0.3873
  775MOL0     H 6937   7.465   6.331   8.337  0.0206 -3.7939  0.4143
  775MOL0     H 6938   7.108   6.095   8.196  1.1577  0.1874 -0.2615
  775MOL0     H 6939   7.043   6.170   8.347  0.8095 -1.2201  0.8297
  775MOL0     H 6940   7.000   6.383   8.244  1.3118  2.1371 -2.9117
  775MOL0     H 6941   6.918   6.268   8.141  0.4714 -2.4243 -0.5714
  775MOL0     H 6942   7.190   6.332   8.055  0.1962 -0.5852 -2.5666
  775MOL0     H 6943   7.042   6.324   7.959 -1.6382  0.0168  1.0493
  775MOL0     H 6944   7.104   6.552   7.953 -2.4646  4.3128  0.0204
  775MOL0     H 6945   7.102   6.563   8.135 -2.3037 -0.5429  1.1417
  775MOL0     H 6946   6.707   6.633   8.077  0.0111 -0.0436  0.4812
  775MOL0     H 6947   7.066   6.336   8.461  1.1941 -1.0365 -0.4464
  775MOL0     H 6948   6.985   6.479   8.648  0.1824 -1.0450  4.5719
  775MOL0     H 6949   7.101   6.556   8.748  0.6415  1.2517  0.0336
  775MOL0     H 6950   7.056   6.641   8.608  4.9796  0.0710  2.2371
  776MOL0     O 6951   9.920   1.483   6.989  0.1591 -0.2248  0.0987
  776MOL0     C 6952   9.968   1.447   6.877  0.5746  0.4261  0.4554
  776MOL0     O 6953   9.899   1.370   6.780  0.4541  0.0755 -0.5368
  776MOL0     C 6954   9.766   1.339   6.779  0.7730  0.4419 -0.2754
  776MOL0     C 6955   9.656   1.402   6.842  0.2842 -0.2987  0.3986
  776MOL0     C 6956   9.522   1.357   6.838  0.0412 -0.5217  0.6019
  776MOL0     C 6957   9.489   1.258   6.748  0.2907  0.1378 -0.4485
  776MOL0     O 6958   9.366   1.196   6.738 -0.1038 -0.8462  0.2812
  776MOL0     C 6959   9.256   1.253   6.817  1.0252 -0.7815 -0.9134
  776MOL0     C 6960   9.190   1.398   6.789 -0.3892  0.9879  0.4522
  776MOL0     C 6961   9.171   1.414   6.638  0.5132 -0.8610  0.3025
  776MOL0     C 6962   9.072   1.326   6.578  0.4665  0.8574  0.2135
  776MOL0     C 6963   9.038   1.365   6.437 -0.5628 -0.1144 -0.8245
  776MOL0     C 6964   8.959   1.250   6.357 -1.0364  0.2894 -0.1779
  776MOL0     C 6965   8.839   1.184   6.415  0.7414  0.2781 -0.0573
  776MOL0     C 6966   8.797   1.050   6.340  0.0953 -0.1080  0.6920
  776MOL0     N 6967   8.659   1.000   6.367  0.2280  1.1204 -0.3159
  776MOL0     C 6968   8.550   1.067   6.317  0.2052  0.5404  1.4546
  776MOL0     C 6969   8.457   0.966   6.291  0.9032 -0.0378  0.2205
  776MOL0     C 6970   8.323   0.989   6.215 -0.0963  0.6602 -1.4753
  776MOL0     C 6971   8.342   1.050   6.084 -0.9919 -0.0523  0.0883
  776MOL0     C 6972   8.427   0.987   5.974 -0.1669 -0.1230  0.0198
  776MOL0     C 6973   8.415   0.834   5.967 -0.2096  1.5107  0.1637
  776MOL0     O 6974   8.507   0.791   5.867  0.1458  0.1725  0.0889
  776MOL0     C 6975   8.602   0.698   5.902  0.7181  0.1534 -0.7510
  776MOL0     C 6976   8.638   0.672   6.042  0.2822  0.4310 -0.5350
  776MOL0     C 6977   8.718   0.571   6.081 -0.8851  0.2165  0.1766
  776MOL0     C 6978   8.774   0.567   6.214 -0.3806  0.6895 -0.9645
  776MOL0     C 6979   8.754   0.470   5.990 -1.0531 -0.7084 -0.5934
  776MOL0     C 6980   8.833   0.337   6.020 -1.1073 -0.1503 -0.3395
  776MOL0     O 6981   8.898   0.284   5.916 -0.5756 -0.7703  0.7276
  776MOL0     C 6982   8.984   0.176   5.934  0.7746  0.1775 -0.0167
  776MOL0     C 6983   8.942   0.046   5.913 -0.3036 -0.0831 -0.8071
  776MOL0     C 6984   9.038  -0.060   5.911  0.3270 -0.4040  0.1053
  776MOL0     C 6985   9.165  -0.045   5.926  0.0888 -0.1374 -0.5572
  776MOL0     O 6986   9.259  -0.144   5.915 -0.6633 -0.4996 -0.7950
  776MOL0     C 6987   9.211  -0.274   5.919 -0.5027  0.1232 -0.4845
  776MOL0     C 6988   9.328  -0.366   5.924  0.3165  0.3307 -0.0130
  776MOL0     C 6989   9.275  -0.506   5.947 -0.4008 -0.1828  0.2058
  776MOL0     C 6990   9.208  -0.577   5.828 -0.4960 -0.3172  0.4554
  776MOL0     C 6991   9.202  -0.730   5.849 -0.8551 -0.4264 -1.1676
  776MOL0     C 6992   9.097  -0.774   5.956 -0.1034 -0.4533  0.0603
  776MOL0     C 6993   9.092  -0.921   5.940 -0.6113 -0.2600  1.5350
  776MOL0     C 6994   8.998  -0.982   6.042  0.3563  0.0151  0.0279
  776MOL0    Cl 6995   8.844  -0.904   6.019 -0.2635  0.1302 -0.4515
  776MOL0     C 6996   9.212   0.089   5.940 -0.1119 -0.3529 -0.2848
  776MOL0     C 6997   9.118   0.202   5.933  0.1772  0.8754 -0.8972
  776MOL0     O 6998   8.847   0.303   6.134 -0.4570  0.2963 -0.7388
  776MOL0     C 6999   8.740   0.499   5.853 -0.1286 -0.1554  1.0067
  776MOL0     C 7000   8.655   0.609   5.811 -0.1335 -0.0120  0.0383
  776MOL0     N 7001   8.513   0.844   6.321  0.1654 -0.7425 -0.2031
  776MOL0     N 7002   8.630   0.866   6.369 -0.2543  0.6445 -0.2681
  776MOL0     C 7003   9.595   1.187   6.694  0.2705  0.4774  0.8073
  776MOL0     C 7004   9.728   1.233   6.699 -0.1672  1.4311 -0.6142
  776MOL0     C 7005  10.119   1.449   6.867 -0.4884 -0.6192  0.0690
  776MOL0     C 7006  10.185   1.333   6.809  0.6559  0.3304  0.4337
  776MOL0     C 7007  10.321   1.311   6.820 -0.2986 -0.2647  0.0170
  776MOL0     C 7008  10.404   1.420   6.875 -0.1535  0.6142  0.5164
  776MOL0     O 7009  10.547   1.408   6.887 -1.0469 -0.8045  0.0772
  776MOL0     C 7010  10.601   1.276   6.904 -0.4920 -0.2203 -1.2010
  776MOL0     C 7011  10.720   1.289   7.004 -0.2460  0.0472  0.4986
  776MOL0     C 7012  10.828   1.178   6.999  0.1501 -0.4442 -0.5036
  776MOL0     C 7013  10.939   1.167   7.104  0.2404 -0.1813  0.1404
  776MOL0     C 7014  10.994   1.031   7.122 -0.8208  0.8849  1.0406
  776MOL0     C 7015  11.030   0.923   7.155  0.0323  0.0544 -1.3332
  776MOL0     C 7016  10.340   1.536   6.917  0.4228  0.2015  0.1810
  776MOL0     C 7017  10.198   1.552   6.924  0.4735  0.2175  0.7345
  776MOL0     C 7018  10.131   1.678   6.970 -0.2401  0.6221 -0.5697
  776MOL0     H 7019   9.683   1.477   6.915 -0.3239 -0.4188  0.7529
  776MOL0     H 7020   9.456   1.416   6.900  0.7891  0.5262  0.4163
  776MOL0     H 7021   9.285   1.249   6.922 -0.7385 -1.7318 -0.4189
  776MOL0     H 7022   9.175   1.179   6.809  0.9479 -0.8013 -0.0661
  776MOL0     H 7023   9.094   1.402   6.841 -1.3899  3.2559 -1.3705
  776MOL0     H 7024   9.258   1.471   6.832  2.2452  1.0895 -3.3273
  776MOL0     H 7025   9.152   1.517   6.608 -0.9613  0.2915  4.4726
  776MOL0     H 7026   9.272   1.402   6.596 -0.2930 -3.7007 -1.0756
  776MOL0     H 7027   9.121   1.228   6.586  3.0426  2.1685  1.9343
  776MOL0     H 7028   8.976   1.320   6.631 -0.2528 -0.7136 -1.1737
  776MOL0     H 7029   9.127   1.403   6.385 -0.3083 -0.1490 -0.4176
  776MOL0     H 7030   8.976   1.453   6.453  1.9186  2.0155 -2.0486
  776MOL0     H 7031   8.943   1.288   6.255  1.1695  2.5165  0.2092
  776MOL0     H 7032   9.043   1.181   6.345 -0.7769 -0.0949  3.0413
  776MOL0     H 7033   8.761   1.261   6.421  1.3715  0.8115  3.1307
  776MOL0     H 7034   8.859   1.153   6.518 -0.0106 -0.5933 -0.1511
  776MOL0     H 7035   8.809   1.070   6.233 -1.3795 -0.1271  0.4974
  776MOL0     H 7036   8.862   0.975   6.385 -3.9301 -1.1793  5.6557
  776MOL0     H 7037   8.550   1.173   6.292  0.4877 -0.2136 -2.4169
  776MOL0     H 7038   8.264   1.063   6.269 -4.0290 -1.8947 -1.8756
  776MOL0     H 7039   8.265   0.897   6.220 -0.9320  1.1848 -1.4059
  776MOL0     H 7040   8.244   1.067   6.037 -0.6140  0.7407 -0.4382
  776MOL0     H 7041   8.376   1.151   6.109 -0.0234  0.1298 -1.8141
  776MOL0     H 7042   8.406   1.033   5.877 -0.9275  2.7244  1.4350
  776MOL0     H 7043   8.533   1.009   5.990 -0.0380 -1.0196  0.4566
  776MOL0     H 7044   8.430   0.789   6.066  1.5454  0.2470 -0.6195
  776MOL0     H 7045   8.319   0.789   5.941  1.7677 -3.0949 -0.1991
  776MOL0     H 7046   8.615   0.743   6.121 -2.8461 -0.5846 -0.3936
  776MOL0     H 7047   8.878   0.537   6.225 -0.5097 -0.1364 -1.8256
  776MOL0     H 7048   8.712   0.506   6.281  0.1118 -0.9941 -1.9737
  776MOL0     H 7049   8.772   0.669   6.251  1.3650  2.3407 -4.8707
  776MOL0     H 7050   8.836   0.036   5.896 -0.2721 -0.3039 -0.8763
  776MOL0     H 7051   8.993  -0.157   5.895  1.8060 -1.1190  0.1380
  776MOL0     H 7052   9.164  -0.296   6.016 -0.0402  0.7245 -0.1205
  776MOL0     H 7053   9.139  -0.287   5.837  0.0764  1.4226 -1.2364
  776MOL0     H 7054   9.374  -0.365   5.825  1.0357  0.0614  0.3135
  776MOL0     H 7055   9.410  -0.352   5.995  0.5423 -2.5708  0.4312
  776MOL0     H 7056   9.203  -0.508   6.030 -0.2854  2.3764  0.4582
  776MOL0     H 7057   9.362  -0.566   5.975 -0.5543 -1.6191 -2.1344
  776MOL0     H 7058   9.268  -0.563   5.738 -0.0179  1.5536  1.0206
  776MOL0     H 7059   9.108  -0.537   5.809  1.3547  3.2502 -3.2315
  776MOL0     H 7060   9.168  -0.784   5.759 -1.4514 -3.2657  0.6159
  776MOL0     H 7061   9.299  -0.765   5.885  0.0735  0.9765 -2.2212
  776MOL0     H 7062   9.002  -0.731   5.926 -0.0939 -2.0249 -2.4342
  776MOL0     H 7063   9.123  -0.742   6.058 -0.0366 -3.0705  0.9552
  776MOL0     H 7064   9.190  -0.969   5.942 -0.2080  0.5491  1.8879
  776MOL0     H 7065   9.058  -0.945   5.838  4.1912  2.2492 -0.9920
  776MOL0     H 7066   9.041  -0.987   6.143  0.6367 -2.3444 -0.1523
  776MOL0     H 7067   8.975  -1.084   6.009  0.3371  0.0512 -0.0697
  776MOL0     H 7068   9.320   0.101   5.949 -0.1912  1.3744 -1.1082
  776MOL0     H 7069   9.151   0.305   5.935  3.6281 -0.0779  1.6913
  776MOL0     H 7070   8.775   0.437   5.772 -2.8981  0.6328 -0.9382
  776MOL0     H 7071   8.641   0.630   5.706 -2.0410 -0.1413  0.2336
  776MOL0     H 7072   9.564   1.096   6.645 -2.3295  1.0787  1.2071
  776MOL0     H 7073   9.807   1.178   6.648  1.5738  2.3472  0.9635
  776MOL0     H 7074  10.140   1.242   6.770  1.2748 -0.0409  0.5767
  776MOL0     H 7075  10.371   1.221   6.784  2.1691  0.8113  0.5394
  776MOL0     H 7076  10.530   1.197   6.931 -1.4861 -0.0957 -3.2905
  776MOL0     H 7077  10.634   1.246   6.804 -1.7650 -0.6764 -1.5022
  776MOL0     H 7078  10.665   1.289   7.098  0.9287 -1.6643  1.2459
  776MOL0     H 7079  10.770   1.383   6.978 -3.3504  1.8504  0.5551
  776MOL0     H 7080  10.780   1.080   6.999 -2.0216  0.5678  0.5384
  776MOL0     H 7081  10.886   1.187   6.907  1.4512 -0.7797  0.2435
  776MOL0     H 7082  10.902   1.196   7.202 -0.7093  0.8989 -0.5065
  776MOL0     H 7083  11.018   1.237   7.074 -1.8523  3.9657  3.2979
  776MOL0     H 7084  11.050   0.830   7.206 -2.4067  1.5313  2.7675
  776MOL0     H 7085  10.402   1.614   6.961 -0.6614 -0.1582  2.4915
  776MOL0     H 7086  10.055   1.711   6.899 -1.5191  0.8996  0.8690
  776MOL0     H 7087  10.092   1.665   7.071  1.7296 -1.8086 -0.0372
  776MOL0     H 7088  10.199   1.764   6.971  2.9338 -1.6351 -2.8587
  777MOL0     O 7089   5.715   8.211   0.329  0.3596  0.3782  0.3026
  777MOL0     C 7090   5.685   8.266   0.225  0.4432  0.2522  0.3882
  777MOL0     O 7091   5.713   8.399   0.196  0.8234  1.1380  0.2625
  777MOL0     C 7092   5.822   8.449   0.256 -0.3195 -1.4047  0.1785
  777MOL0     C 7093   5.956   8.395   0.247 -0.5064 -0.1989  0.0655
  777MOL0     C 7094   6.065   8.468   0.307 -0.1141  0.6427 -0.2328
  777MOL0     C 7095   6.037   8.591   0.374  0.5013 -0.1057 -0.9263
  777MOL0     O 7096   6.151   8.665   0.401  0.7669 -1.0322 -0.3959
  777MOL0     C 7097   6.164   8.778   0.322  0.0691 -0.6517 -0.7384
  777MOL0     C 7098   6.295   8.756   0.240  0.2439  0.4841 -0.3661
  777MOL0     C 7099   6.354   8.868   0.161  0.0339 -1.0796  0.0747
  777MOL0     C 7100   6.505   8.850   0.118  0.0698 -0.1642  0.7516
  777MOL0     C 7101   6.541   8.922  -0.021 -0.7577 -0.5003 -0.0999
  777MOL0     C 7102   6.466   9.056  -0.050 -0.3218  1.2302 -0.1754
  777MOL0     C 7103   6.522   9.104  -0.184 -0.2398  0.3954  0.4596
  777MOL0     C 7104   6.502   9.250  -0.205  0.4561  0.4932  0.3556
  777MOL0     N 7105   6.485   9.288  -0.347  0.4818  0.4971  0.4953
  777MOL0     C 7106   6.505   9.424  -0.386  0.1604  0.2692  0.1844
  777MOL0     C 7107   6.469   9.429  -0.516  0.0321 -0.0703 -0.1017
  777MOL0     C 7108   6.471   9.554  -0.598  0.8194 -0.0337  0.5305
  777MOL0     C 7109   6.589   9.567  -0.694 -0.5788  0.8143  0.4729
  777MOL0     C 7110   6.610   9.713  -0.729 -0.4880  0.2492 -0.4186
  777MOL0     C 7111   6.725   9.720  -0.836 -0.1927 -0.4081  0.4497
  777MOL0     O 7112   6.759   9.863  -0.838  0.4304  0.1080  0.2604
  777MOL0     C 7113   6.887   9.913  -0.861 -0.2840  0.2032  0.2571
  777MOL0     C 7114   6.911  10.051  -0.833  0.1455 -0.2508 -0.5430
  777MOL0     C 7115   7.046  10.106  -0.845  0.2213 -0.6500 -0.0768
  777MOL0     C 7116   7.076  10.254  -0.817 -0.4877 -0.0431 -0.1652
  777MOL0     C 7117   7.151  10.020  -0.887  1.1627 -0.9946  0.5315
  777MOL0     C 7118   7.287  10.079  -0.927 -0.1897  0.8120  0.5401
  777MOL0     O 7119   7.329  10.180  -0.842 -0.1647  0.0053 -0.1285
  777MOL0     C 7120   7.453  10.237  -0.874  0.2030  0.1956 -0.7161
  777MOL0     C 7121   7.479  10.281  -1.001 -0.1150  0.3596 -0.1693
  777MOL0     C 7122   7.614  10.339  -1.033  0.5683  0.4709 -0.9704
  777MOL0     C 7123   7.703  10.357  -0.930  0.6769  0.1176 -0.5552
  777MOL0     O 7124   7.836  10.391  -0.967  0.1896  0.0156 -0.3253
  777MOL0     C 7125   7.920  10.301  -1.041 -0.1506  0.2900  0.9098
  777MOL0     C 7126   8.013  10.369  -1.143  0.3829 -0.0308  0.0061
  777MOL0     C 7127   8.122  10.450  -1.060  0.8922  0.0480  0.5849
  777MOL0     C 7128   8.224  10.353  -0.999 -0.0597  0.4879  0.1547
  777MOL0     C 7129   8.325  10.437  -0.921  0.3606  0.4527 -0.3371
  777MOL0     C 7130   8.454  10.371  -0.895  1.3615 -0.9086  0.4246
  777MOL0     C 7131   8.543  10.452  -0.807  0.3626  0.1476 -0.0903
  777MOL0     C 7132   8.653  10.360  -0.758 -0.3535  0.3795  0.3890
  777MOL0    Cl 7133   8.788  10.449  -0.681  0.2038 -0.3329 -0.1867
  777MOL0     C 7134   7.677  10.312  -0.799  0.3038 -0.6198  0.3594
  777MOL0     C 7135   7.547  10.256  -0.774  0.0711 -0.0807 -1.5680
  777MOL0     O 7136   7.352  10.007  -1.006  0.0119 -0.0457 -0.6437
  777MOL0     C 7137   7.121   9.889  -0.937  0.9777 -0.1623  0.8564
  777MOL0     C 7138   6.995   9.841  -0.919  0.0789  1.1570  0.7703
  777MOL0     N 7139   6.418   9.307  -0.553 -0.4606  0.1285  0.1273
  777MOL0     N 7140   6.429   9.223  -0.451  0.4258  0.7558  0.2683
  777MOL0     C 7141   5.907   8.643   0.379  0.4213 -0.4848  0.8779
  777MOL0     C 7142   5.803   8.575   0.322  0.1760  0.3809  0.2887
  777MOL0     C 7143   5.595   8.205   0.122 -0.8590  0.4617 -0.0275
  777MOL0     C 7144   5.484   8.274   0.085 -0.2145 -0.7062  1.0548
  777MOL0     C 7145   5.394   8.230  -0.015  0.0768 -0.0142  0.1948
  777MOL0     C 7146   5.418   8.102  -0.063 -0.1952  0.7721  0.0627
  777MOL0     O 7147   5.321   8.040  -0.127  1.0641  0.7223  0.1436
  777MOL0     C 7148   5.318   7.900  -0.155 -1.0954 -0.4242  0.0631
  777MOL0     C 7149   5.380   7.867  -0.296 -0.0381 -0.8770  0.9073
  777MOL0     C 7150   5.389   7.726  -0.339 -0.2700 -0.1508 -1.2824
  777MOL0     C 7151   5.422   7.716  -0.488 -0.1875  0.3125 -0.3845
  777MOL0     C 7152   5.313   7.758  -0.572 -0.0712  0.0161 -0.1886
  777MOL0     C 7153   5.218   7.800  -0.638  0.3568 -0.1764  0.1903
  777MOL0     C 7154   5.538   8.040  -0.032  0.9742  0.4690 -0.1847
  777MOL0     C 7155   5.622   8.084   0.064 -0.3182  0.8917 -0.5054
  777MOL0     C 7156   5.738   7.992   0.108 -0.6302  0.9559  0.5783
  777MOL0     H 7157   5.969   8.306   0.186  0.0619  0.2256 -0.4475
  777MOL0     H 7158   6.164   8.428   0.289  0.4382  1.7860  0.1391
  777MOL0     H 7159   6.172   8.867   0.386 -0.9010 -1.8076  1.0509
  777MOL0     H 7160   6.072   8.804   0.269 -0.3034 -2.6504 -1.1423
  777MOL0     H 7161   6.368   8.722   0.315 -0.6349  0.7712  0.6447
  777MOL0     H 7162   6.289   8.671   0.171  2.5187  0.5029 -0.6944
  777MOL0     H 7163   6.302   8.879   0.066  3.4417  0.0231 -1.8675
  777MOL0     H 7164   6.337   8.966   0.206 -1.2867  0.0372 -2.6808
  777MOL0     H 7165   6.560   8.878   0.208  0.4879  1.1530  0.1064
  777MOL0     H 7166   6.522   8.742   0.106  0.0315 -0.1291  0.3574
  777MOL0     H 7167   6.519   8.853  -0.103 -0.9974 -1.4305  0.7240
  777MOL0     H 7168   6.646   8.955  -0.021 -0.5632 -1.1113 -0.2613
  777MOL0     H 7169   6.363   9.032  -0.077  0.8520 -0.4885 -3.8213
  777MOL0     H 7170   6.483   9.131   0.028 -1.2993 -0.6393  1.9358
  777MOL0     H 7171   6.483   9.040  -0.264  4.4090 -2.3002  0.0039
  777MOL0     H 7172   6.629   9.084  -0.176 -0.1721  0.1172 -0.9258
  777MOL0     H 7173   6.416   9.286  -0.147  1.4416  2.3342  0.7308
  777MOL0     H 7174   6.590   9.305  -0.171 -0.1687  2.5516 -1.1506
  777MOL0     H 7175   6.532   9.510  -0.325 -0.1538  0.1166  0.5420
  777MOL0     H 7176   6.477   9.647  -0.541  2.6305  1.4255 -1.8553
  777MOL0     H 7177   6.380   9.554  -0.659 -0.1572 -0.1584  1.9481
  777MOL0     H 7178   6.683   9.525  -0.655 -0.1987 -2.3237 -3.2111
  777MOL0     H 7179   6.570   9.510  -0.785 -1.0170 -1.5692  1.9536
  777MOL0     H 7180   6.519   9.766  -0.759 -0.8736 -0.0944  0.1149
  777MOL0     H 7181   6.637   9.763  -0.636 -1.5804  1.1312 -0.5592
  777MOL0     H 7182   6.817   9.670  -0.803 -1.7805 -2.3562  2.2628
  777MOL0     H 7183   6.701   9.685  -0.937  2.8551  1.0495 -0.8961
  777MOL0     H 7184   6.818  10.100  -0.804 -1.7909 -3.4953 -0.8028
  777MOL0     H 7185   7.145  10.306  -0.884 -1.2255 -0.1938 -1.0739
  777MOL0     H 7186   7.112  10.254  -0.714  2.2115 -3.8212 -0.9186
  777MOL0     H 7187   6.984  10.310  -0.841  0.9725  1.3170 -3.2332
  777MOL0     H 7188   7.412  10.255  -1.082 -2.2585  1.7223  1.0618
  777MOL0     H 7189   7.627  10.370  -1.136  3.2608  1.5593 -0.3985
  777MOL0     H 7190   7.981  10.242  -0.973  2.3645  0.5880 -0.9468
  777MOL0     H 7191   7.858  10.237  -1.106 -0.6884  4.3407 -3.0979
  777MOL0     H 7192   8.052  10.296  -1.214  1.5561  1.1016 -0.5519
  777MOL0     H 7193   7.949  10.441  -1.194 -1.7396 -0.7266  1.5493
  777MOL0     H 7194   8.071  10.515  -0.989 -1.2379  0.3911 -1.1440
  777MOL0     H 7195   8.185  10.519  -1.116  4.6950 -2.8087  0.9454
  777MOL0     H 7196   8.267  10.294  -1.080 -0.9314 -1.5418  1.1037
  777MOL0     H 7197   8.183  10.280  -0.929 -1.2871  1.2124  0.2283
  777MOL0     H 7198   8.347  10.525  -0.982  1.5929 -0.5638 -1.4267
  777MOL0     H 7199   8.278  10.475  -0.829 -3.1006  0.0138 -1.7473
  777MOL0     H 7200   8.510  10.350  -0.987 -2.2330  0.4684 -2.3150
  777MOL0     H 7201   8.428  10.270  -0.860 -4.1583  1.3881  4.4478
  777MOL0     H 7202   8.486  10.482  -0.719  0.9913 -0.6000  0.5871
  777MOL0     H 7203   8.577  10.541  -0.860 -0.6496  2.4223  2.8346
  777MOL0     H 7204   8.685  10.304  -0.847 -1.2508 -1.0499  0.9439
  777MOL0     H 7205   8.610  10.294  -0.682 -2.8010 -0.1979 -1.3747
  777MOL0     H 7206   7.754  10.326  -0.724 -1.1069 -0.9023  1.9240
  777MOL0     H 7207   7.535  10.226  -0.670  1.4676 -0.3587 -1.4684
  777MOL0     H 7208   7.206   9.836  -0.978  0.0712  2.8811 -6.6125
  777MOL0     H 7209   6.972   9.740  -0.951  1.0652  1.6474 -1.6319
  777MOL0     H 7210   5.884   8.747   0.403 -3.0088 -0.3853 -2.0062
  777MOL0     H 7211   5.706   8.619   0.303 -1.1343 -1.1730  2.9291
  777MOL0     H 7212   5.453   8.362   0.139  2.0756 -0.0948  1.4684
  777MOL0     H 7213   5.299   8.281  -0.030 -1.8401 -3.1274  0.7019
  777MOL0     H 7214   5.368   7.851  -0.071 -2.1085 -0.9379  0.3921
  777MOL0     H 7215   5.212   7.871  -0.155 -0.6840 -1.9939 -0.4995
  777MOL0     H 7216   5.482   7.901  -0.310  0.3581 -1.9650  1.0527
  777MOL0     H 7217   5.301   7.920  -0.350  0.6456 -1.0198 -0.2714
  777MOL0     H 7218   5.459   7.671  -0.276  0.1129  0.3400 -1.2727
  777MOL0     H 7219   5.292   7.677  -0.330  0.3570 -0.9950  2.1283
  777MOL0     H 7220   5.448   7.610  -0.499  0.1415  0.3931 -0.3842
  777MOL0     H 7221   5.517   7.768  -0.503  0.1869 -0.3341 -0.2813
  777MOL0     H 7222   5.139   7.851  -0.688 -0.3617  1.0946  2.4534
  777MOL0     H 7223   5.554   7.948  -0.087  0.6257  0.3585 -0.1036
  777MOL0     H 7224   5.724   7.951   0.209  0.8805 -0.4076  0.2678
  777MOL0     H 7225   5.734   7.900   0.048 -2.5050  2.0845 -1.1504
  777MOL0     H 7226   5.835   8.040   0.095 -0.1315 -0.5676 -2.0277
  778MOL0     O 7227   0.624   1.132   3.770  0.5792 -0.0262 -0.5429
  778MOL0     C 7228   0.663   1.163   3.879  1.7031 -0.5832  0.0088
  778MOL0     O 7229   0.742   1.269   3.908  0.5057 -0.2509  0.1727
  778MOL0     C 7230   0.810   1.339   3.808  0.0677  0.9319 -0.0032
  778MOL0     C 7231   0.925   1.413   3.857  0.4069  0.2194 -0.4048
  778MOL0     C 7232   0.995   1.476   3.759 -0.4700 -0.0617 -0.5587
  778MOL0     C 7233   0.966   1.485   3.618  0.4178 -0.6088 -0.9267
  778MOL0     O 7234   1.031   1.552   3.525  0.5719 -0.2868  0.0201
  778MOL0     C 7235   1.175   1.574   3.544  0.0253  0.4655  0.5016
  778MOL0     C 7236   1.248   1.562   3.398  0.1354  0.9090 -0.4181
  778MOL0     C 7237   1.384   1.638   3.380  0.4171  0.5411  0.6691
  778MOL0     C 7238   1.441   1.630   3.237  0.4964 -0.1895  0.0124
  778MOL0     C 7239   1.551   1.723   3.212 -0.1173 -1.1102 -0.3527
  778MOL0     C 7240   1.523   1.868   3.203  0.3234  0.1123 -0.0199
  778MOL0     C 7241   1.387   1.916   3.142 -0.2367 -0.4429 -0.0957
  778MOL0     C 7242   1.386   1.903   2.994  0.5758 -0.2961  0.3435
  778MOL0     N 7243   1.256   1.931   2.947 -0.4846 -0.0752 -0.0930
  778MOL0     C 7244   1.220   2.062   2.925 -0.3206 -0.5676  0.2698
  778MOL0     C 7245   1.082   2.050   2.910 -0.0025 -0.0823  0.6250
  778MOL0     C 7246   0.992   2.168   2.897 -0.5892 -0.2039 -0.3332
  778MOL0     C 7247   0.931   2.222   3.030 -0.0543  0.1127 -1.1769
  778MOL0     C 7248   0.907   2.370   3.000  0.3519 -0.1376 -0.5286
  778MOL0     C 7249   0.827   2.445   3.108 -0.2088 -1.1075  0.0489
  778MOL0     O 7250   0.890   2.436   3.230 -0.3852 -0.7707  0.0669
  778MOL0     C 7251   0.844   2.531   3.327  0.8972 -0.1887 -0.4737
  778MOL0     C 7252   0.861   2.672   3.300  0.6332 -0.2335 -0.2793
  778MOL0     C 7253   0.853   2.772   3.396 -0.7034  0.3059 -0.3140
  778MOL0     C 7254   0.874   2.918   3.356 -0.3760  0.6094 -0.2040
  778MOL0     C 7255   0.821   2.727   3.531 -0.2438 -1.4486 -0.0158
  778MOL0     C 7256   0.794   2.820   3.642 -0.7658 -0.1560  0.7249
  778MOL0     O 7257   0.841   2.769   3.761  0.1636 -0.0227  1.3175
  778MOL0     C 7258   0.796   2.827   3.877  0.2120  0.5668 -0.3619
  778MOL0     C 7259   0.751   2.741   3.979 -0.0849 -0.3972 -0.3313
  778MOL0     C 7260   0.734   2.781   4.115 -0.4750  1.1060 -0.0365
  778MOL0     C 7261   0.761   2.914   4.151 -0.1464 -0.5366 -0.3009
  778MOL0     O 7262   0.736   2.964   4.281 -0.3451  0.4377 -0.5969
  778MOL0     C 7263   0.786   2.895   4.402  0.4429 -0.6619  0.4279
  778MOL0     C 7264   0.931   2.868   4.384  0.0985  0.1176 -0.0895
  778MOL0     C 7265   1.022   2.989   4.378 -0.7206 -0.5116 -0.0729
  778MOL0     C 7266   1.150   2.958   4.308  0.0647 -0.0618  0.3354
  778MOL0     C 7267   1.237   3.086   4.309 -0.8305  0.7065 -0.1323
  778MOL0     C 7268   1.367   3.084   4.219  0.1900  0.6899  0.6612
  778MOL0     C 7269   1.467   3.198   4.247  0.3125 -0.5051  0.2573
  778MOL0     C 7270   1.524   3.188   4.388  0.3100  0.5748 -0.6434
  778MOL0    Cl 7271   1.643   3.321   4.391  0.3486  0.0871 -0.4485
  778MOL0     C 7272   0.799   3.007   4.052  0.5408 -1.2541 -0.2661
  778MOL0     C 7273   0.823   2.955   3.919  0.5457 -0.0884  0.3711
  778MOL0     O 7274   0.727   2.921   3.637  1.1797  0.5292 -0.1991
  778MOL0     C 7275   0.811   2.594   3.566  0.0085  0.9132 -0.1083
  778MOL0     C 7276   0.821   2.495   3.462 -0.5711  0.3876  0.7081
  778MOL0     N 7277   1.040   1.917   2.925  0.0523  0.2656  0.0915
  778MOL0     N 7278   1.147   1.844   2.948 -0.7238  0.9304  0.5059
  778MOL0     C 7279   0.853   1.419   3.586 -0.0447  0.1172  0.5331
  778MOL0     C 7280   0.775   1.344   3.671  0.6445  0.6784  0.3589
  778MOL0     C 7281   0.614   1.080   3.994 -0.1613  0.2982  0.2353
  778MOL0     C 7282   0.691   1.089   4.106  0.9203 -0.0746 -0.5594
  778MOL0     C 7283   0.658   1.024   4.224  0.5168  0.5317  0.1504
  778MOL0     C 7284   0.536   0.933   4.231  0.7050 -0.5238 -0.2923
  778MOL0     O 7285   0.490   0.865   4.344  0.0204 -0.6292  0.1577
  778MOL0     C 7286   0.577   0.866   4.460  0.6985 -0.3003  0.4777
  778MOL0     C 7287   0.688   0.762   4.455  0.4329  0.4110 -0.0112
  778MOL0     C 7288   0.721   0.705   4.595 -0.0554 -0.1249 -0.7956
  778MOL0     C 7289   0.849   0.608   4.608  0.8320  0.7834  0.0250
  778MOL0     C 7290   0.965   0.674   4.548 -0.6305  0.1909  0.0948
  778MOL0     C 7291   1.066   0.722   4.489  0.6270 -0.5745 -0.0392
  778MOL0     C 7292   0.462   0.933   4.105 -0.6210 -0.4098 -0.3591
  778MOL0     C 7293   0.497   1.001   3.982  0.4807  0.1125 -0.1564
  778MOL0     C 7294   0.407   0.987   3.854 -0.4889 -0.2401 -0.5906
  778MOL0     H 7295   0.948   1.420   3.963  1.3929  1.0529 -0.6592
  778MOL0     H 7296   1.068   1.542   3.805  2.4952 -4.3557  1.6409
  778MOL0     H 7297   1.221   1.506   3.615 -0.6323 -1.6134 -0.9795
  778MOL0     H 7298   1.190   1.672   3.590 -1.9363  1.3226 -0.5237
  778MOL0     H 7299   1.263   1.456   3.378  2.7256  1.1886 -0.3596
  778MOL0     H 7300   1.182   1.589   3.315 -0.7380 -1.7197 -0.6690
  778MOL0     H 7301   1.348   1.739   3.405 -0.1124  0.7168 -0.7384
  778MOL0     H 7302   1.459   1.613   3.456 -0.7462  2.7980  2.7351
  778MOL0     H 7303   1.478   1.527   3.243 -1.1307 -0.7988 -0.0207
  778MOL0     H 7304   1.356   1.640   3.169  0.6770 -0.5397 -0.2686
  778MOL0     H 7305   1.597   1.690   3.118  0.1332  1.4267 -1.1822
  778MOL0     H 7306   1.630   1.711   3.286 -1.9944  2.2529  2.4808
  778MOL0     H 7307   1.524   1.895   3.309  3.8182  0.7501 -0.0968
  778MOL0     H 7308   1.606   1.914   3.149  0.3675  1.4668  1.1419
  778MOL0     H 7309   1.370   2.019   3.173  1.6426 -1.0698  3.6163
  778MOL0     H 7310   1.308   1.852   3.183 -0.0305 -1.2459 -0.9050
  778MOL0     H 7311   1.456   1.971   2.946 -0.8171  1.2507  0.4383
  778MOL0     H 7312   1.402   1.797   2.971  1.5799  0.4072 -2.5391
  778MOL0     H 7313   1.280   2.152   2.921  2.6459 -2.3031  2.3076
  778MOL0     H 7314   0.904   2.119   2.853 -1.0387 -2.2399  2.5907
  778MOL0     H 7315   1.039   2.245   2.835 -0.2838  0.0457  0.2066
  778MOL0     H 7316   0.858   2.156   3.078  0.5131  0.4269  0.1636
  778MOL0     H 7317   1.012   2.222   3.103 -0.8707  0.1497 -0.2488
  778MOL0     H 7318   1.004   2.418   2.981 -0.2002  0.9513 -0.6931
  778MOL0     H 7319   0.851   2.377   2.906 -0.9780 -4.4024 -0.2505
  778MOL0     H 7320   0.813   2.548   3.073  2.9482 -0.5475  0.0617
  778MOL0     H 7321   0.728   2.400   3.116 -0.4224 -0.8026 -0.7515
  778MOL0     H 7322   0.870   2.700   3.196  0.1791 -2.9303 -1.1281
  778MOL0     H 7323   0.963   2.920   3.292  0.3187 -2.8476  0.4463
  778MOL0     H 7324   0.895   2.973   3.449  1.1523 -2.9680  1.7721
  778MOL0     H 7325   0.783   2.969   3.323 -0.2341  1.4003  0.5739
  778MOL0     H 7326   0.737   2.637   3.950 -2.5649  0.0301 -0.9008
  778MOL0     H 7327   0.702   2.700   4.178  0.3754  1.1608  0.4735
  778MOL0     H 7328   0.755   2.952   4.490  1.4344 -0.7090  0.8175
  778MOL0     H 7329   0.726   2.803   4.402  2.3197 -1.9645 -1.3169
  778MOL0     H 7330   0.954   2.819   4.479  0.0012  0.4305  0.0977
  778MOL0     H 7331   0.942   2.801   4.298 -1.2159 -0.1851 -0.0491
  778MOL0     H 7332   1.027   3.047   4.470 -4.0690 -1.1366  0.6546
  778MOL0     H 7333   0.967   3.063   4.320  0.2808 -0.3264 -0.8122
  778MOL0     H 7334   1.139   2.932   4.203  4.3842 -2.6275  0.2705
  778MOL0     H 7335   1.198   2.874   4.360 -2.8675 -0.3574  2.8609
  778MOL0     H 7336   1.180   3.175   4.280  0.8986  0.6543 -4.5199
  778MOL0     H 7337   1.270   3.082   4.413  1.6713 -3.1050 -0.8689
  778MOL0     H 7338   1.324   3.086   4.118 -2.3535  1.2499  1.6882
  778MOL0     H 7339   1.416   2.987   4.235 -2.7402 -1.2374 -1.0188
  778MOL0     H 7340   1.427   3.298   4.234  1.1086 -0.1993  0.0906
  778MOL0     H 7341   1.554   3.181   4.182 -2.0221 -0.2433 -3.1753
  778MOL0     H 7342   1.568   3.090   4.407  1.7737  0.9116 -2.0695
  778MOL0     H 7343   1.453   3.214   4.468  1.7268 -0.4187  1.0305
  778MOL0     H 7344   0.810   3.111   4.083 -2.8821 -0.1474 -2.1858
  778MOL0     H 7345   0.879   3.032   3.866  0.2725  1.6745  2.4710
  778MOL0     H 7346   0.769   2.559   3.660 -1.1102  0.5225 -0.7331
  778MOL0     H 7347   0.819   2.388   3.480  0.4674 -0.1102 -1.7359
  778MOL0     H 7348   0.814   1.438   3.486 -3.2286 -0.4268  1.5337
  778MOL0     H 7349   0.688   1.296   3.629  1.2593  0.6590 -0.9799
  778MOL0     H 7350   0.775   1.158   4.106 -0.2635  1.3997 -0.9544
  778MOL0     H 7351   0.721   1.049   4.309  0.1462  2.2982 -0.0535
  778MOL0     H 7352   0.619   0.967   4.469 -3.5645  1.6817  0.5138
  778MOL0     H 7353   0.508   0.844   4.542 -1.9790  1.4953 -1.1348
  778MOL0     H 7354   0.774   0.806   4.405  1.9502 -1.2828  1.0018
  778MOL0     H 7355   0.653   0.685   4.386  3.8044  1.4165 -3.1246
  778MOL0     H 7356   0.737   0.790   4.662  0.0200 -2.5802  2.5584
  778MOL0     H 7357   0.635   0.663   4.649  0.5342 -1.3458 -0.7740
  778MOL0     H 7358   0.827   0.512   4.559  2.9245  0.5644 -0.5854
  778MOL0     H 7359   0.862   0.576   4.712 -2.6716 -2.3642 -0.2680
  778MOL0     H 7360   1.141   0.784   4.444  0.4897  0.9117  1.7158
  778MOL0     H 7361   0.380   0.862   4.107 -2.0913  1.1525 -1.5148
  778MOL0     H 7362   0.440   0.909   3.785 -0.9521 -1.1977  0.2392
  778MOL0     H 7363   0.313   0.959   3.903  0.6370 -0.6949  1.4501
  778MOL0     H 7364   0.408   1.082   3.799  2.0897 -1.5982 -3.1341
  779MOL0     O 7365   0.708   3.822   1.125 -0.5850 -1.0507  0.3822
  779MOL0     C 7366   0.779   3.751   1.048 -0.0323 -0.2714 -0.6350
  779MOL0     O 7367   0.791   3.764   0.908 -0.5921 -0.1958 -0.9075
  779MOL0     C 7368   0.684   3.813   0.845  0.1502  0.1548 -0.1160
  779MOL0     C 7369   0.549   3.801   0.892 -0.1563 -0.3099  0.1343
  779MOL0     C 7370   0.435   3.827   0.818 -0.3153  0.5542  0.4914
  779MOL0     C 7371   0.453   3.872   0.685  0.3457  0.0288  0.0362
  779MOL0     O 7372   0.336   3.926   0.619  0.0468 -0.0694  0.3365
  779MOL0     C 7373   0.323   3.891   0.480 -0.2163  0.1903 -0.3925
  779MOL0     C 7374   0.190   3.941   0.420  0.2244  0.9708 -0.2065
  779MOL0     C 7375   0.061   3.915   0.503 -0.0493  0.4056 -0.2144
  779MOL0     C 7376  -0.056   3.973   0.429  0.1170 -0.1444  0.9292
  779MOL0     C 7377  -0.181   3.950   0.507 -0.3309  0.2528 -0.7356
  779MOL0     C 7378  -0.302   4.008   0.441  0.8952 -0.2967  0.1329
  779MOL0     C 7379  -0.368   3.929   0.334 -0.4753 -0.1057 -1.3684
  779MOL0     C 7380  -0.476   4.000   0.258  0.1689  0.0359 -0.3345
  779MOL0     N 7381  -0.610   3.984   0.327 -0.4085 -0.3392  0.3532
  779MOL0     C 7382  -0.674   3.860   0.311 -0.7461  0.0570  0.0953
  779MOL0     C 7383  -0.761   3.858   0.412  0.5164 -0.0037  0.3420
  779MOL0     C 7384  -0.870   3.763   0.412  0.6428  0.5289  0.4445
  779MOL0     C 7385  -0.917   3.747   0.559  0.6110 -0.4325  0.8691
  779MOL0     C 7386  -0.809   3.685   0.660 -0.7491  0.4589  1.7030
  779MOL0     C 7387  -0.837   3.715   0.806 -0.0314  0.1821 -0.4472
  779MOL0     O 7388  -0.962   3.644   0.823  0.1886 -0.3174  0.7555
  779MOL0     C 7389  -1.044   3.679   0.925 -0.9801 -0.0752  0.7415
  779MOL0     C 7390  -0.996   3.672   1.054 -0.6312 -0.9171 -1.0838
  779MOL0     C 7391  -1.064   3.737   1.162  0.2566  0.7630 -0.9848
  779MOL0     C 7392  -1.003   3.777   1.287 -0.2901  1.0479  0.4496
  779MOL0     C 7393  -1.203   3.778   1.141 -0.6150 -0.9549 -0.7609
  779MOL0     C 7394  -1.302   3.823   1.240 -1.4197  0.6980  0.7448
  779MOL0     O 7395  -1.273   3.917   1.332 -0.5535 -0.6996 -0.6571
  779MOL0     C 7396  -1.367   3.958   1.425 -0.5911 -0.2062  0.2249
  779MOL0     C 7397  -1.345   3.968   1.568  0.4200  0.0655 -0.1981
  779MOL0     C 7398  -1.445   4.029   1.646 -0.1792  0.7536  0.6943
  779MOL0     C 7399  -1.572   4.058   1.597  0.3142 -0.5311 -0.1464
  779MOL0     O 7400  -1.667   4.097   1.694 -0.1936 -0.5314 -0.1100
  779MOL0     C 7401  -1.808   4.086   1.676 -1.1489 -0.3207  0.3223
  779MOL0     C 7402  -1.856   4.217   1.617 -0.4229  0.3896  0.1717
  779MOL0     C 7403  -1.881   4.327   1.717  0.3615 -0.5753 -0.8281
  779MOL0     C 7404  -1.999   4.419   1.678 -1.2553 -0.1937 -0.4494
  779MOL0     C 7405  -1.965   4.492   1.547  0.8068  0.9856 -0.8219
  779MOL0     C 7406  -2.073   4.571   1.476 -0.5296 -0.1734 -0.1069
  779MOL0     C 7407  -2.008   4.640   1.345  0.3844  0.3993 -0.3129
  779MOL0     C 7408  -1.977   4.785   1.385 -0.0529 -0.7087 -0.7025
  779MOL0    Cl 7409  -1.832   4.815   1.299  0.3936  0.3749  0.2590
  779MOL0     C 7410  -1.585   4.062   1.462  0.1356 -1.4343  0.1896
  779MOL0     C 7411  -1.493   4.008   1.375  0.0748  0.1745  0.1983
  779MOL0     O 7412  -1.400   3.754   1.242  0.2475 -0.1034  0.6425
  779MOL0     C 7413  -1.233   3.796   1.010  0.4096  0.0491  0.4445
  779MOL0     C 7414  -1.154   3.754   0.900  1.0167  0.8698  0.5245
  779MOL0     N 7415  -0.758   3.987   0.477  0.0395  0.2998 -0.1277
  779MOL0     N 7416  -0.670   4.061   0.427 -0.9553  0.0915  0.0654
  779MOL0     C 7417   0.584   3.909   0.646 -1.3855  0.1422  0.1370
  779MOL0     C 7418   0.694   3.864   0.715 -0.4281  0.7469  0.3126
  779MOL0     C 7419   0.880   3.659   1.119 -0.2294 -0.7008  0.0910
  779MOL0     C 7420   0.863   3.653   1.258 -0.0372  0.9581  0.4104
  779MOL0     C 7421   0.958   3.586   1.333  0.4589  0.1216 -0.2802
  779MOL0     C 7422   1.064   3.514   1.279  0.6155 -0.9922  0.9034
  779MOL0     O 7423   1.151   3.441   1.350 -0.3701  0.0870 -0.6566
  779MOL0     C 7424   1.265   3.511   1.422 -0.7946  0.5621 -0.1082
  779MOL0     C 7425   1.216   3.585   1.551  0.1857 -0.2757  0.0859
  779MOL0     C 7426   1.321   3.659   1.651  0.0629  0.3166  0.0834
  779MOL0     C 7427   1.246   3.677   1.782  0.2110 -0.3004 -0.5721
  779MOL0     C 7428   1.222   3.555   1.861  0.7116  1.0279  0.5720
  779MOL0     C 7429   1.214   3.443   1.903 -0.9559 -0.2944  1.1711
  779MOL0     C 7430   1.066   3.505   1.141 -0.4174 -0.0937 -1.2298
  779MOL0     C 7431   0.980   3.581   1.061 -0.2190  0.0442 -0.1519
  779MOL0     C 7432   0.995   3.556   0.914 -0.2137 -0.1813 -0.1028
  779MOL0     H 7433   0.522   3.767   0.991 -2.5129 -0.8127 -0.6312
  779MOL0     H 7434   0.336   3.800   0.855 -0.4703  0.5512  0.0801
  779MOL0     H 7435   0.327   3.782   0.464 -2.2289  0.0651 -0.3152
  779MOL0     H 7436   0.405   3.926   0.416 -0.7997  1.2625 -0.5700
  779MOL0     H 7437   0.207   4.045   0.391 -0.6563  1.6371  1.5084
  779MOL0     H 7438   0.193   3.874   0.334  0.2446 -0.4845  0.8887
  779MOL0     H 7439   0.054   3.806   0.514  2.6098  0.2721  1.1106
  779MOL0     H 7440   0.087   3.965   0.597 -1.7767  0.4374  0.2899
  779MOL0     H 7441  -0.024   4.076   0.414 -2.1264  0.2560 -2.1688
  779MOL0     H 7442  -0.077   3.924   0.333 -2.6064  2.3100  0.1218
  779MOL0     H 7443  -0.165   3.994   0.606 -1.5721 -0.6862 -0.0830
  779MOL0     H 7444  -0.204   3.843   0.517 -0.0605  0.3008  0.6342
  779MOL0     H 7445  -0.379   4.030   0.516  0.6103  1.2969 -0.5715
  779MOL0     H 7446  -0.270   4.101   0.393 -0.9139 -0.6354 -1.9534
  779MOL0     H 7447  -0.408   3.844   0.390  1.3853 -0.2869 -0.2201
  779MOL0     H 7448  -0.301   3.876   0.266  2.1300 -1.2250  1.7958
  779MOL0     H 7449  -0.455   4.107   0.245  1.0210  0.5085  3.4642
  779MOL0     H 7450  -0.476   3.953   0.160  1.9914 -0.3506 -0.1911
  779MOL0     H 7451  -0.643   3.777   0.249 -2.0777  0.9037 -1.8019
  779MOL0     H 7452  -0.841   3.663   0.380 -0.5603 -0.0802  1.1853
  779MOL0     H 7453  -0.963   3.798   0.367  1.1662  1.4011 -0.0030
  779MOL0     H 7454  -0.966   3.839   0.592 -0.0117  0.4649 -2.2557
  779MOL0     H 7455  -0.991   3.668   0.546  2.4812 -2.3772  1.4851
  779MOL0     H 7456  -0.794   3.578   0.644  1.0494  0.6855  1.6070
  779MOL0     H 7457  -0.721   3.743   0.631 -1.6722  1.8794  1.6520
  779MOL0     H 7458  -0.759   3.680   0.874 -1.2597 -3.1510 -0.5860
  779MOL0     H 7459  -0.858   3.822   0.811 -2.3747 -0.0943 -2.6271
  779MOL0     H 7460  -0.899   3.623   1.062  0.2989  0.9863 -0.0311
  779MOL0     H 7461  -1.030   3.876   1.324 -1.0496 -0.2847  3.8416
  779MOL0     H 7462  -0.895   3.759   1.288 -0.4576 -0.1754 -0.7959
  779MOL0     H 7463  -1.047   3.707   1.358  0.6521 -0.1344 -0.0918
  779MOL0     H 7464  -1.245   3.943   1.602 -0.5823 -0.7586  2.4478
  779MOL0     H 7465  -1.435   4.036   1.754 -3.4290 -2.3521  1.3941
  779MOL0     H 7466  -1.832   4.002   1.609 -1.7224 -1.5834  2.0373
  779MOL0     H 7467  -1.845   4.058   1.775 -0.0725  1.1528  1.1677
  779MOL0     H 7468  -1.786   4.245   1.538 -0.2551 -1.5163 -0.3899
  779MOL0     H 7469  -1.954   4.184   1.580  1.1814 -4.4929 -0.3450
  779MOL0     H 7470  -1.792   4.387   1.740  0.7629  0.1960 -3.9142
  779MOL0     H 7471  -1.926   4.294   1.811 -3.0951  2.4937 -1.1817
  779MOL0     H 7472  -2.015   4.489   1.760 -1.4400 -0.5313 -0.1966
  779MOL0     H 7473  -2.098   4.376   1.657 -0.9599 -0.1241 -2.1683
  779MOL0     H 7474  -1.889   4.562   1.582  2.1111 -1.9860  3.0072
  779MOL0     H 7475  -1.907   4.425   1.482  1.4303 -1.3116  1.8953
  779MOL0     H 7476  -2.113   4.643   1.549  1.2945  0.9293 -0.1233
  779MOL0     H 7477  -2.159   4.511   1.446 -1.7281  1.9899 -1.2158
  779MOL0     H 7478  -2.098   4.643   1.282  1.4931  1.3382 -1.9193
  779MOL0     H 7479  -1.931   4.586   1.290 -1.1966 -0.5209 -1.7418
  779MOL0     H 7480  -1.960   4.806   1.491 -0.4787  3.3826 -1.2879
  779MOL0     H 7481  -2.064   4.850   1.368  1.0950  1.0719 -0.0758
  779MOL0     H 7482  -1.681   4.082   1.415 -0.6905 -4.0887  0.5839
  779MOL0     H 7483  -1.511   4.007   1.268  3.0240  0.4947 -0.3731
  779MOL0     H 7484  -1.323   3.854   0.992 -0.4348 -1.7648 -1.5786
  779MOL0     H 7485  -1.194   3.759   0.799 -0.1906 -1.2699  0.8252
  779MOL0     H 7486   0.603   3.960   0.552 -1.6350  0.1819  0.1074
  779MOL0     H 7487   0.789   3.880   0.665 -0.4101 -1.0627 -0.2894
  779MOL0     H 7488   0.789   3.689   1.329  0.4816 -3.1381  3.4315
  779MOL0     H 7489   0.946   3.579   1.441  1.9642 -1.6624 -0.1796
  779MOL0     H 7490   1.344   3.442   1.453 -0.8544  0.1688 -0.7993
  779MOL0     H 7491   1.310   3.576   1.346 -4.2196 -0.5129 -3.3526
  779MOL0     H 7492   1.161   3.515   1.614  0.9307 -0.8049  0.1621
  779MOL0     H 7493   1.138   3.659   1.531 -0.0840 -0.5864 -0.0079
  779MOL0     H 7494   1.416   3.608   1.665  0.9963  1.2586 -2.3101
  779MOL0     H 7495   1.344   3.753   1.601 -0.3160 -0.4773 -1.6431
  779MOL0     H 7496   1.143   3.711   1.765 -0.2056 -0.8545  0.7009
  779MOL0     H 7497   1.298   3.759   1.832  0.6094 -0.1211 -1.2636
  779MOL0     H 7498   1.199   3.347   1.950 -0.6107  0.9332  4.0347
  779MOL0     H 7499   1.132   3.434   1.091 -2.2145 -2.4051 -0.4813
  779MOL0     H 7500   1.017   3.647   0.858  2.9441 -0.2583  0.8414
  779MOL0     H 7501   1.090   3.506   0.894  2.0309  3.0230  1.6432
  779MOL0     H 7502   0.905   3.512   0.869 -1.5526  0.1003  2.0924
  780MOL0     O 7503   0.369   9.266   9.944  0.7232 -0.4737  0.7362
  780MOL0     C 7504   0.261   9.230   9.895  0.2607 -0.0401 -0.5888
  780MOL0     O 7505   0.240   9.121   9.816 -0.4513 -1.2475 -1.0030
  780MOL0     C 7506   0.347   9.057   9.766 -0.1501  0.0605 -0.6323
  780MOL0     C 7507   0.362   9.059   9.631  0.1625  0.2152 -0.6118
  780MOL0     C 7508   0.473   9.001   9.578 -0.1890  1.2983  0.2996
  780MOL0     C 7509   0.550   8.910   9.654  0.3422  0.2162  0.0144
  780MOL0     O 7510   0.628   8.815   9.600  0.2391 -0.1764 -0.6161
  780MOL0     C 7511   0.583   8.742   9.490  0.1193  0.6781  0.8984
  780MOL0     C 7512   0.590   8.588   9.496 -0.0719  0.1325 -0.2518
  780MOL0     C 7513   0.739   8.521   9.488  0.5697  0.5361  1.1039
  780MOL0     C 7514   0.844   8.559   9.597  0.6775 -0.0144  0.6262
  780MOL0     C 7515   0.982   8.504   9.564 -0.3293 -0.0373  1.1426
  780MOL0     C 7516   1.094   8.575   9.638 -0.2958 -0.4054 -0.0065
  780MOL0     C 7517   1.202   8.477   9.659 -0.3797  0.0355 -0.2275
  780MOL0     C 7518   1.190   8.417   9.802  0.0273  0.3503 -0.2226
  780MOL0     N 7519   1.306   8.321   9.830  0.8885 -0.4013 -0.5892
  780MOL0     C 7520   1.440   8.352   9.842 -0.6415 -0.2762 -0.4681
  780MOL0     C 7521   1.507   8.233   9.827  0.8653 -0.0932 -0.7099
  780MOL0     C 7522   1.652   8.205   9.823 -0.1174 -1.1154 -0.6149
  780MOL0     C 7523   1.739   8.325   9.863 -0.9227  0.0073 -0.1279
  780MOL0     C 7524   1.900   8.288   9.865 -0.1603  0.3736  0.2028
  780MOL0     C 7525   1.950   8.247   9.726 -0.4669 -0.8025  0.0139
  780MOL0     O 7526   1.913   8.343   9.632 -0.3767 -0.1303 -0.3341
  780MOL0     C 7527   1.953   8.317   9.504 -0.3194  0.1703 -0.4778
  780MOL0     C 7528   1.909   8.203   9.442 -0.6233  0.5216 -0.2383
  780MOL0     C 7529   1.965   8.163   9.319 -0.0594  0.5113  0.5699
  780MOL0     C 7530   1.884   8.043   9.254 -0.3166  0.5727 -0.2247
  780MOL0     C 7531   2.065   8.240   9.249 -0.2924  0.1869  0.1601
  780MOL0     C 7532   2.101   8.213   9.118 -0.3521 -1.0846  0.2114
  780MOL0     O 7533   2.022   8.135   9.037  0.0184  0.0136  0.8757
  780MOL0     C 7534   2.072   8.113   8.913 -0.0189 -0.1644 -1.0475
  780MOL0     C 7535   1.999   8.132   8.797  0.0611 -0.4528 -0.4378
  780MOL0     C 7536   2.050   8.092   8.670 -0.0315 -0.1410  0.3027
  780MOL0     C 7537   2.176   8.034   8.664  0.6877  1.1845 -0.3243
  780MOL0     O 7538   2.232   7.987   8.546  0.3428 -0.4065 -0.5460
  780MOL0     C 7539   2.326   7.887   8.549 -0.1582  0.5651  0.0940
  780MOL0     C 7540   2.375   7.834   8.415 -0.4209 -1.1078  0.8593
  780MOL0     C 7541   2.487   7.736   8.418 -0.4790 -0.4476 -0.7280
  780MOL0     C 7542   2.433   7.592   8.452 -0.1968 -0.0479  0.2111
  780MOL0     C 7543   2.542   7.481   8.425  0.6781 -0.4282  0.1624
  780MOL0     C 7544   2.494   7.334   8.449 -0.1492  0.0986 -0.2206
  780MOL0     C 7545   2.616   7.241   8.457 -0.5393  0.1824  0.0562
  780MOL0     C 7546   2.562   7.101   8.512  0.2677 -0.1877  1.0336
  780MOL0    Cl 7547   2.702   6.998   8.477 -0.6894 -0.1691  0.3871
  780MOL0     C 7548   2.246   8.013   8.785  0.2153  0.8563  1.0094
  780MOL0     C 7549   2.191   8.052   8.906 -1.0943 -0.1098  0.1701
  780MOL0     O 7550   2.188   8.292   9.082 -0.1502 -0.0514 -0.5079
  780MOL0     C 7551   2.111   8.358   9.327 -0.0069 -0.0344  0.7604
  780MOL0     C 7552   2.048   8.400   9.442 -0.7878  0.7359 -0.4663
  780MOL0     N 7553   1.414   8.130   9.820 -0.2418  1.2857 -0.9391
  780MOL0     N 7554   1.295   8.186   9.826  0.5514 -1.1461  0.1642
  780MOL0     C 7555   0.539   8.914   9.795 -0.1895  0.0327 -1.0507
  780MOL0     C 7556   0.440   8.990   9.845  0.4620 -0.4836  0.0647
  780MOL0     C 7557   0.139   9.319   9.920 -1.8820 -0.6171  0.3029
  780MOL0     C 7558   0.019   9.251   9.902  0.6767  0.0882 -0.6606
  780MOL0     C 7559  -0.103   9.323   9.894  0.0437 -0.1827  1.3751
  780MOL0     C 7560  -0.110   9.462   9.914 -0.0666  0.5163  0.2404
  780MOL0     O 7561  -0.236   9.509   9.893  0.1737 -0.0715 -0.1095
  780MOL0     C 7562  -0.263   9.649   9.904 -0.4369 -0.5266 -0.0582
  780MOL0     C 7563  -0.200   9.740   9.788 -0.7428 -0.9229 -0.1108
  780MOL0     C 7564  -0.244   9.882   9.784 -0.1658  0.2317 -0.1374
  780MOL0     C 7565  -0.190   9.968   9.897 -0.2754 -0.8859  0.2463
  780MOL0     C 7566  -0.236  10.109   9.875  0.3469 -0.5109  0.4942
  780MOL0     C 7567  -0.267  10.221   9.842  0.4122  0.5474 -0.5800
  780MOL0     C 7568  -0.001   9.524   9.945 -0.0114  0.5064  0.0736
  780MOL0     C 7569   0.128   9.453   9.963  0.2221 -0.3762 -0.3629
  780MOL0     C 7570   0.245   9.534  10.003 -0.2727 -0.2670 -0.0700
  780MOL0     H 7571   0.300   9.131   9.580  0.0928 -0.5335 -1.6085
  780MOL0     H 7572   0.490   9.014   9.471 -0.9846 -1.3907 -0.2344
  780MOL0     H 7573   0.645   8.765   9.403  0.6508  2.4506  1.6949
  780MOL0     H 7574   0.481   8.764   9.457  0.3403 -0.7622 -0.9061
  780MOL0     H 7575   0.535   8.544   9.580  1.1070 -1.4124 -0.2332
  780MOL0     H 7576   0.542   8.545   9.408 -1.1832 -3.2865  1.8340
  780MOL0     H 7577   0.728   8.412   9.493  2.2998  0.1058 -2.0611
  780MOL0     H 7578   0.775   8.541   9.387  0.7675 -1.3455  0.7623
  780MOL0     H 7579   0.850   8.668   9.587  2.0834 -0.2630 -1.8077
  780MOL0     H 7580   0.815   8.524   9.697  0.8663 -0.2019  0.6145
  780MOL0     H 7581   1.000   8.504   9.457 -0.5137 -0.2520  1.1099
  780MOL0     H 7582   0.980   8.401   9.601  0.9946 -0.3833  0.2999
  780MOL0     H 7583   1.108   8.669   9.584 -1.0871  0.5052  1.3144
  780MOL0     H 7584   1.046   8.607   9.731 -0.9098  0.1918 -0.5271
  780MOL0     H 7585   1.300   8.523   9.645 -0.7046  1.3361  1.4901
  780MOL0     H 7586   1.200   8.402   9.579 -2.4501 -0.0536 -0.1438
  780MOL0     H 7587   1.194   8.493   9.880  0.3946  1.9016 -1.6959
  780MOL0     H 7588   1.098   8.359   9.811  1.4619 -1.6685  4.4328
  780MOL0     H 7589   1.495   8.443   9.864  1.2382 -1.8977  2.0394
  780MOL0     H 7590   1.681   8.193   9.719  1.0905 -0.3989 -0.3873
  780MOL0     H 7591   1.676   8.118   9.885 -0.0986  0.5930  1.9472
  780MOL0     H 7592   1.722   8.405   9.790 -0.6011  0.2017  0.0107
  780MOL0     H 7593   1.709   8.364   9.960  0.0927  2.5046 -0.7429
  780MOL0     H 7594   1.960   8.373   9.899 -0.9440  0.1248  2.3795
  780MOL0     H 7595   1.924   8.203   9.930  1.4327  0.7660  0.1714
  780MOL0     H 7596   2.059   8.232   9.731 -0.2052  1.0079  0.2802
  780MOL0     H 7597   1.902   8.156   9.688 -2.1157 -0.9207  2.1935
  780MOL0     H 7598   1.835   8.146   9.497 -1.0110  1.4819  0.2603
  780MOL0     H 7599   1.824   7.996   9.332 -0.9657 -0.1761 -1.1528
  780MOL0     H 7600   1.950   7.958   9.231 -0.9942 -0.2230  0.6689
  780MOL0     H 7601   1.815   8.057   9.171 -0.6589  1.6250  0.2321
  780MOL0     H 7602   1.895   8.162   8.804  0.9639  2.6287  1.9633
  780MOL0     H 7603   1.986   8.095   8.583  0.2803 -1.3989  0.0179
  780MOL0     H 7604   2.414   7.929   8.599  0.2214 -0.1265  0.0215
  780MOL0     H 7605   2.291   7.802   8.608  2.1072 -0.8718 -0.4891
  780MOL0     H 7606   2.289   7.781   8.373 -1.0819 -1.8221  2.9868
  780MOL0     H 7607   2.397   7.923   8.356 -2.3433 -0.5904  0.8518
  780MOL0     H 7608   2.556   7.763   8.498  1.9400 -1.0347 -2.5113
  780MOL0     H 7609   2.555   7.741   8.333  1.2565  0.7363  0.6694
  780MOL0     H 7610   2.363   7.571   8.370  1.3815  3.0702 -2.1583
  780MOL0     H 7611   2.391   7.600   8.552  1.0159  1.1982  0.6484
  780MOL0     H 7612   2.574   7.471   8.321  0.4831 -2.5634  0.2489
  780MOL0     H 7613   2.625   7.500   8.494 -1.6913  1.6697  2.6711
  780MOL0     H 7614   2.428   7.302   8.367 -1.4021  1.8187  0.0584
  780MOL0     H 7615   2.437   7.327   8.543  0.8264  2.7818  0.6599
  780MOL0     H 7616   2.704   7.271   8.514 -0.4943 -1.2101  0.7681
  780MOL0     H 7617   2.660   7.230   8.358  0.3110  0.0684  0.4349
  780MOL0     H 7618   2.476   7.054   8.463  0.5286 -1.7273  1.9981
  780MOL0     H 7619   2.544   7.111   8.619  0.1814  2.0760  0.8555
  780MOL0     H 7620   2.346   7.971   8.784 -0.1607 -0.0956  1.8254
  780MOL0     H 7621   2.252   8.036   8.995  0.1225 -1.1504 -0.8060
  780MOL0     H 7622   2.190   8.423   9.292  0.0709  0.0921  1.1637
  780MOL0     H 7623   2.094   8.491   9.480  1.6133  0.5163 -2.5849
  780MOL0     H 7624   0.597   8.853   9.863 -0.7719  2.6996  2.0767
  780MOL0     H 7625   0.429   8.997   9.953  1.0035  1.3601  0.0385
  780MOL0     H 7626   0.018   9.143   9.889 -0.8279  0.1409 -1.1181
  780MOL0     H 7627  -0.198   9.277   9.870  1.0103 -1.6106  0.0756
  780MOL0     H 7628  -0.372   9.653   9.900 -0.3805  0.4214 -1.2955
  780MOL0     H 7629  -0.230   9.687  10.001  0.8803  1.0095 -1.0388
  780MOL0     H 7630  -0.230   9.691   9.694 -0.2339  1.5055 -1.6235
  780MOL0     H 7631  -0.092   9.752   9.802 -1.1734  0.5687  2.4789
  780MOL0     H 7632  -0.211   9.922   9.687  0.5601 -0.2371 -0.0882
  780MOL0     H 7633  -0.353   9.887   9.793 -0.2302  3.2013 -1.3803
  780MOL0     H 7634  -0.081   9.968   9.890 -0.1784  3.2485 -3.2212
  780MOL0     H 7635  -0.221   9.948  10.000 -2.0092  1.2787  0.2299
  780MOL0     H 7636  -0.312  10.317   9.833 -0.3998  0.0622 -2.1481
  780MOL0     H 7637   0.002   9.632   9.960  1.3004  0.4959  0.0118
  780MOL0     H 7638   0.315   9.557   9.922  2.4877 -2.9630  1.3402
  780MOL0     H 7639   0.217   9.629  10.050 -0.6944 -0.3275 -0.2020
  780MOL0     H 7640   0.306   9.486  10.081 -0.2770  1.8029  1.2760
  781MOL0     O 7641   9.456   8.070   7.313  0.1252 -0.9152  0.3202
  781MOL0     C 7642   9.500   8.191   7.329 -0.0104  0.8335 -0.2183
  781MOL0     O 7643   9.435   8.293   7.372  0.1319 -0.0205  0.0827
  781MOL0     C 7644   9.296   8.293   7.371 -0.3905 -0.2989  0.1269
  781MOL0     C 7645   9.241   8.395   7.453 -0.4476 -0.6706 -0.5955
  781MOL0     C 7646   9.106   8.400   7.474 -0.3327  0.3247  0.3204
  781MOL0     C 7647   9.018   8.316   7.409  0.2774 -0.1756 -0.8396
  781MOL0     O 7648   8.885   8.325   7.420  0.0541 -0.2044 -0.0390
  781MOL0     C 7649   8.840   8.435   7.339 -0.5510 -0.1961  0.0395
  781MOL0     C 7650   8.687   8.476   7.373  0.0395  0.0998  0.2079
  781MOL0     C 7651   8.670   8.495   7.522  0.5043  0.3118  1.1472
  781MOL0     C 7652   8.520   8.491   7.552  0.0978  0.1533  0.0025
  781MOL0     C 7653   8.475   8.442   7.692  0.4317  0.2920 -1.7696
  781MOL0     C 7654   8.317   8.441   7.722 -0.0454  0.3167  0.1138
  781MOL0     C 7655   8.225   8.382   7.606 -0.3428  0.0740 -0.1211
  781MOL0     C 7656   8.280   8.253   7.547 -1.6157  0.0244 -0.2617
  781MOL0     N 7657   8.234   8.221   7.410 -0.2043  0.1162  0.7380
  781MOL0     C 7658   8.287   8.278   7.292  0.6929  0.5624 -0.5317
  781MOL0     C 7659   8.213   8.210   7.191  1.3383  0.3458 -0.6260
  781MOL0     C 7660   8.221   8.236   7.040 -0.5674 -0.4979  0.3318
  781MOL0     C 7661   8.187   8.113   6.957  0.7983 -0.5888 -0.4569
  781MOL0     C 7662   8.173   8.131   6.807 -1.2446  0.3699  0.5044
  781MOL0     C 7663   8.303   8.191   6.747  0.5679 -0.7051 -0.3649
  781MOL0     O 7664   8.319   8.333   6.780 -0.3931 -0.1651 -0.5239
  781MOL0     C 7665   8.404   8.414   6.709  0.0321  0.5075 -0.4473
  781MOL0     C 7666   8.501   8.378   6.613 -0.9161  0.2325  0.6128
  781MOL0     C 7667   8.570   8.480   6.549 -0.5817  0.4984  0.0906
  781MOL0     C 7668   8.666   8.434   6.441 -0.3071  0.2025 -0.3667
  781MOL0     C 7669   8.554   8.616   6.583 -0.0806  0.0923 -0.4682
  781MOL0     C 7670   8.620   8.724   6.507  0.1207 -0.5671  0.6612
  781MOL0     O 7671   8.734   8.766   6.558 -0.0116 -0.1773  0.6125
  781MOL0     C 7672   8.776   8.892   6.527 -0.7969 -0.1616  0.0943
  781MOL0     C 7673   8.904   8.926   6.570 -0.5692  1.3395 -0.0766
  781MOL0     C 7674   8.964   9.053   6.558  1.3295 -0.2528  0.9903
  781MOL0     C 7675   8.888   9.152   6.502  0.0272 -0.3721  0.2039
  781MOL0     O 7676   8.945   9.267   6.492  0.0496 -0.3848 -0.4736
  781MOL0     C 7677   8.982   9.305   6.365  0.6330 -1.5339  0.7458
  781MOL0     C 7678   9.088   9.413   6.386  0.3229  0.5731  0.2299
  781MOL0     C 7679   9.058   9.513   6.488  0.1677 -0.1471 -0.7353
  781MOL0     C 7680   9.180   9.606   6.514  0.1063 -0.3631 -0.1373
  781MOL0     C 7681   9.147   9.669   6.648  0.2968  0.3365  0.5393
  781MOL0     C 7682   9.256   9.746   6.717 -0.5104  0.4834 -0.9330
  781MOL0     C 7683   9.367   9.803   6.639 -1.1929  0.1268 -0.1232
  781MOL0     C 7684   9.467   9.900   6.720  0.4417 -0.0866  0.3271
  781MOL0    Cl 7685   9.406  10.065   6.745  0.5477  0.5134 -0.5686
  781MOL0     C 7686   8.755   9.123   6.463  0.7733  0.6997 -0.1195
  781MOL0     C 7687   8.699   9.001   6.480  0.1613 -0.1107 -0.0107
  781MOL0     O 7688   8.577   8.754   6.388  0.1388 -0.1632 -0.2441
  781MOL0     C 7689   8.448   8.649   6.676 -0.3725  1.4088  0.0485
  781MOL0     C 7690   8.388   8.544   6.745  0.5549 -0.5294 -0.2919
  781MOL0     N 7691   8.126   8.125   7.253 -0.2282 -0.1995  0.8320
  781MOL0     N 7692   8.134   8.131   7.381  0.7980  0.3179 -0.3911
  781MOL0     C 7693   9.063   8.211   7.332 -0.0941  0.3122  0.0379
  781MOL0     C 7694   9.202   8.209   7.314 -0.5887 -0.0618  1.0457
  781MOL0     C 7695   9.651   8.224   7.308 -0.1089 -0.3562  0.2154
  781MOL0     C 7696   9.691   8.360   7.289 -0.3611 -0.2318  0.2612
  781MOL0     C 7697   9.826   8.391   7.259  1.2161 -0.4537  0.9208
  781MOL0     C 7698   9.914   8.291   7.244 -0.9790 -0.8751  0.0554
  781MOL0     O 7699  10.046   8.310   7.218 -0.1581 -0.7131 -0.6633
  781MOL0     C 7700  10.125   8.379   7.311  0.4887 -0.1260  0.3413
  781MOL0     C 7701  10.197   8.282   7.407 -0.2932  0.8383  0.7300
  781MOL0     C 7702  10.279   8.168   7.348  0.3609  0.5584  0.1065
  781MOL0     C 7703  10.327   8.071   7.451  0.0490 -0.1125  0.1480
  781MOL0     C 7704  10.432   7.978   7.413 -0.4335 -0.5282  0.1290
  781MOL0     C 7705  10.518   7.898   7.386  1.1597  0.0861 -0.6084
  781MOL0     C 7706   9.884   8.159   7.284  0.2361 -0.0279  0.5070
  781MOL0     C 7707   9.754   8.125   7.299 -0.1129  0.5203 -0.6622
  781MOL0     C 7708   9.723   7.974   7.312 -0.1670  0.5479  0.3237
  781MOL0     H 7709   9.307   8.461   7.508 -0.6958  0.7760 -1.9584
  781MOL0     H 7710   9.068   8.482   7.534  1.0083  1.1238  0.1308
  781MOL0     H 7711   8.865   8.421   7.234  0.0057 -0.9872  0.2728
  781MOL0     H 7712   8.905   8.520   7.364 -0.6886  0.8409 -2.7540
  781MOL0     H 7713   8.656   8.564   7.316 -1.4720 -1.8230 -2.1484
  781MOL0     H 7714   8.625   8.392   7.339  0.7164 -0.4675  0.3563
  781MOL0     H 7715   8.716   8.410   7.574  0.8820 -0.0595  0.2326
  781MOL0     H 7716   8.717   8.587   7.557  0.5756  1.5802 -1.9631
  781MOL0     H 7717   8.487   8.593   7.530  2.0557  0.9962  0.7278
  781MOL0     H 7718   8.465   8.434   7.476 -0.1121  0.3576 -0.0002
  781MOL0     H 7719   8.535   8.503   7.760  1.8143 -0.5117 -2.2382
  781MOL0     H 7720   8.512   8.340   7.707 -0.1000  0.2991 -0.2254
  781MOL0     H 7721   8.293   8.386   7.814  2.4130  0.7320  1.0805
  781MOL0     H 7722   8.295   8.547   7.738 -1.3573 -0.0242  0.7009
  781MOL0     H 7723   8.219   8.454   7.523  2.0886 -1.2648 -1.5768
  781MOL0     H 7724   8.123   8.367   7.642  0.1742 -1.2450  0.8556
  781MOL0     H 7725   8.389   8.243   7.550 -1.3136  2.7793  2.4412
  781MOL0     H 7726   8.240   8.176   7.614  2.4487 -1.3897  0.8191
  781MOL0     H 7727   8.367   8.349   7.278  0.8572  0.4079 -0.3843
  781MOL0     H 7728   8.323   8.268   7.019 -0.9718  0.0380 -0.9297
  781MOL0     H 7729   8.145   8.308   7.009 -1.0334  0.5617  3.5772
  781MOL0     H 7730   8.255   8.029   6.974  1.8743  0.7300  2.5321
  781MOL0     H 7731   8.086   8.081   6.985  0.9838 -3.9276 -2.9745
  781MOL0     H 7732   8.143   8.032   6.773  0.4402  0.2645 -0.7959
  781MOL0     H 7733   8.099   8.205   6.774 -0.3410  0.0115 -2.6456
  781MOL0     H 7734   8.391   8.139   6.787  1.4124 -0.4536 -1.8186
  781MOL0     H 7735   8.293   8.183   6.639  1.5635 -1.8232 -0.3940
  781MOL0     H 7736   8.516   8.275   6.581 -0.8424  0.3517  0.2456
  781MOL0     H 7737   8.642   8.332   6.411 -1.3444  1.2237 -3.4414
  781MOL0     H 7738   8.769   8.441   6.478  0.5465 -1.3377 -2.2851
  781MOL0     H 7739   8.651   8.481   6.344  0.4181 -1.4349 -1.3015
  781MOL0     H 7740   8.968   8.848   6.609 -0.3909  0.8505 -1.2987
  781MOL0     H 7741   9.064   9.076   6.594  2.1361 -1.6608 -0.2082
  781MOL0     H 7742   9.019   9.227   6.299  1.3063 -2.0123  1.6690
  781MOL0     H 7743   8.895   9.353   6.318  0.0942 -2.5276  0.6907
  781MOL0     H 7744   9.183   9.362   6.402 -0.1368 -0.5626 -0.5129
  781MOL0     H 7745   9.097   9.470   6.293 -1.2681  1.9375  0.8597
  781MOL0     H 7746   9.033   9.460   6.581 -0.1571  0.5695 -0.4079
  781MOL0     H 7747   8.967   9.564   6.455  0.1235  0.1838 -0.1184
  781MOL0     H 7748   9.176   9.681   6.434  2.6717 -1.2870 -1.2456
  781MOL0     H 7749   9.278   9.558   6.513  1.9726  3.0197 -2.4119
  781MOL0     H 7750   9.078   9.750   6.622  1.3569  1.1137  0.0966
  781MOL0     H 7751   9.109   9.599   6.723  0.0124 -1.0056 -0.8054
  781MOL0     H 7752   9.304   9.692   6.799  0.4631 -0.6111 -2.1742
  781MOL0     H 7753   9.207   9.828   6.770 -2.4741 -1.3793  0.2917
  781MOL0     H 7754   9.319   9.855   6.556 -1.7609  1.6584  1.1012
  781MOL0     H 7755   9.430   9.721   6.604  1.7960  1.1662  2.3529
  781MOL0     H 7756   9.564   9.914   6.672  0.0147  1.5673 -0.1361
  781MOL0     H 7757   9.488   9.851   6.815 -1.4610 -0.4995  0.5645
  781MOL0     H 7758   8.696   9.204   6.420 -1.8105 -0.7604  0.4182
  781MOL0     H 7759   8.596   8.981   6.453  1.2244 -1.7514 -3.3834
  781MOL0     H 7760   8.416   8.749   6.702  0.5965  1.7124  0.1340
  781MOL0     H 7761   8.324   8.571   6.829  0.6618 -1.1516 -0.0090
  781MOL0     H 7762   8.985   8.151   7.285 -1.7770 -0.2208  3.2190
  781MOL0     H 7763   9.243   8.139   7.242  0.6128 -0.3623  1.9828
  781MOL0     H 7764   9.606   8.427   7.287  1.9622  2.9589 -0.0707
  781MOL0     H 7765   9.854   8.494   7.244  0.8786  0.0111  3.0636
  781MOL0     H 7766  10.187   8.443   7.248  0.5585 -0.2957  0.2358
  781MOL0     H 7767  10.088   8.466   7.367  1.7811 -0.4390  1.7431
  781MOL0     H 7768  10.122   8.247   7.478 -2.1312  0.7678 -1.1628
  781MOL0     H 7769  10.260   8.336   7.478 -1.8738 -0.5947  3.3996
  781MOL0     H 7770  10.222   8.115   7.271  0.2535  0.5786  0.1734
  781MOL0     H 7771  10.359   8.214   7.288 -0.1983  0.4142 -0.7786
  781MOL0     H 7772  10.242   8.009   7.481 -0.2172 -1.6269 -3.2995
  781MOL0     H 7773  10.368   8.129   7.534  0.2632  1.1092 -0.7986
  781MOL0     H 7774  10.598   7.828   7.377  0.1122 -2.3152  4.7060
  781MOL0     H 7775   9.969   8.092   7.291  1.3928  1.3872  0.3529
  781MOL0     H 7776   9.696   7.938   7.212  0.6972 -0.3534  0.3961
  781MOL0     H 7777   9.814   7.915   7.332  0.3433 -0.2142 -3.3775
  781MOL0     H 7778   9.647   7.948   7.386 -0.9604  0.8347 -0.3724
  782MOL0     O 7779   1.425   1.254   4.530  0.0603 -0.5444  0.3938
  782MOL0     C 7780   1.508   1.341   4.568  0.1442  0.0553 -0.0829
  782MOL0     O 7781   1.516   1.388   4.692 -0.8038 -0.7334  0.1408
  782MOL0     C 7782   1.408   1.374   4.772  0.4929  0.3291 -0.8334
  782MOL0     C 7783   1.414   1.348   4.911 -0.1561 -0.2692 -0.4885
  782MOL0     C 7784   1.302   1.331   4.992  0.9713  0.5055  0.2084
  782MOL0     C 7785   1.176   1.355   4.948 -0.9031 -0.3304  1.3681
  782MOL0     O 7786   1.069   1.362   5.022  0.5622  0.2223 -0.4220
  782MOL0     C 7787   1.043   1.253   5.106  0.6931 -0.4323  0.3252
  782MOL0     C 7788   0.889   1.262   5.152  0.1590 -0.0334  0.1199
  782MOL0     C 7789   0.855   1.134   5.230  0.3686  0.0792  0.5758
  782MOL0     C 7790   0.863   1.135   5.385 -0.5044  0.2784  0.5998
  782MOL0     C 7791   0.933   1.009   5.441 -0.1841 -0.8229  0.2923
  782MOL0     C 7792   0.834   0.888   5.443 -0.0326 -0.0781  0.0706
  782MOL0     C 7793   0.707   0.904   5.530 -0.1361  1.5993  0.3651
  782MOL0     C 7794   0.623   0.776   5.539  0.0303  0.4621  0.4045
  782MOL0     N 7795   0.558   0.754   5.669  0.3830  0.3296  0.4718
  782MOL0     C 7796   0.439   0.814   5.712 -0.4297 -0.3720 -0.0217
  782MOL0     C 7797   0.426   0.771   5.841  0.2232 -0.4164  0.0278
  782MOL0     C 7798   0.303   0.795   5.929 -0.2313  0.3996  0.2398
  782MOL0     C 7799   0.326   0.894   6.046 -0.5898 -0.2091  0.0762
  782MOL0     C 7800   0.404   0.844   6.158 -0.1642 -0.3515 -0.0137
  782MOL0     C 7801   0.416   0.951   6.272 -0.4294 -0.2014  1.1445
  782MOL0     O 7802   0.501   1.058   6.231 -0.5867 -0.1029 -0.5137
  782MOL0     C 7803   0.541   1.155   6.326  0.1024  1.3511  0.2031
  782MOL0     C 7804   0.611   1.253   6.273 -0.7760 -1.1946  0.1704
  782MOL0     C 7805   0.673   1.360   6.347  0.5166  0.5083  0.6607
  782MOL0     C 7806   0.749   1.462   6.257  0.6293  0.9428  0.5143
  782MOL0     C 7807   0.660   1.362   6.496  0.1963 -0.3865  0.5508
  782MOL0     C 7808   0.723   1.478   6.570  0.1550 -0.1499 -0.1104
  782MOL0     O 7809   0.720   1.457   6.712  0.1395 -0.4284 -0.1967
  782MOL0     C 7810   0.753   1.566   6.787 -0.2163  0.0931  0.7768
  782MOL0     C 7811   0.652   1.643   6.817  0.7555 -0.1111  0.8994
  782MOL0     C 7812   0.669   1.755   6.907 -0.2056 -0.3978 -0.6950
  782MOL0     C 7813   0.797   1.774   6.967  0.1912 -0.1140 -0.8400
  782MOL0     O 7814   0.803   1.885   7.045 -0.2319  0.3462  0.1790
  782MOL0     C 7815   0.865   1.861   7.173 -0.8306  0.1145  0.2380
  782MOL0     C 7816   0.821   1.737   7.255  0.5306 -0.2834  0.5941
  782MOL0     C 7817   0.907   1.718   7.380 -0.1036  0.3430 -0.2287
  782MOL0     C 7818   0.967   1.839   7.453  0.2088 -0.2690  0.0979
  782MOL0     C 7819   1.040   1.801   7.579 -0.2141 -1.2200  0.0246
  782MOL0     C 7820   1.132   1.924   7.629  0.6832  0.9837 -0.1179
  782MOL0     C 7821   1.179   1.928   7.774  0.5035  0.2988  0.0975
  782MOL0     C 7822   1.256   1.809   7.830 -0.5306 -0.2020  0.7648
  782MOL0    Cl 7823   1.155   1.701   7.913  0.1957  0.0732 -0.0862
  782MOL0     C 7824   0.908   1.692   6.926 -0.0268 -0.1820 -1.2563
  782MOL0     C 7825   0.887   1.587   6.839  0.1164 -0.2267  0.2235
  782MOL0     O 7826   0.761   1.579   6.508 -0.6683 -0.1612 -0.4360
  782MOL0     C 7827   0.578   1.254   6.547 -0.2722 -0.8769 -0.6395
  782MOL0     C 7828   0.525   1.150   6.470 -1.0083 -0.0165  0.5302
  782MOL0     N 7829   0.546   0.695   5.871  0.3293  0.5072  0.4671
  782MOL0     N 7830   0.613   0.676   5.761 -1.1928 -0.3658 -0.6188
  782MOL0     C 7831   1.162   1.385   4.812 -0.4215  0.1327 -0.0356
  782MOL0     C 7832   1.269   1.398   4.726 -1.0598 -0.0021  0.2046
  782MOL0     C 7833   1.599   1.403   4.466  0.7691  0.8054 -0.5167
  782MOL0     C 7834   1.565   1.377   4.329 -0.6537 -0.4556  0.2137
  782MOL0     C 7835   1.643   1.419   4.225 -0.1525  0.4273  0.6588
  782MOL0     C 7836   1.741   1.510   4.248  0.3895 -0.4925 -0.6610
  782MOL0     O 7837   1.812   1.549   4.139  0.1606  0.3936 -0.4075
  782MOL0     C 7838   1.854   1.689   4.121 -0.2109 -0.7173  0.1144
  782MOL0     C 7839   1.945   1.693   4.002  0.8525 -0.3822  0.7024
  782MOL0     C 7840   2.015   1.831   3.997 -0.0397  0.3240 -0.3184
  782MOL0     C 7841   2.060   1.853   3.850 -0.4704 -0.2655  0.3836
  782MOL0     C 7842   2.153   1.754   3.799  0.7191 -0.4176 -0.2531
  782MOL0     C 7843   2.253   1.693   3.754 -0.1959  0.2936  1.2917
  782MOL0     C 7844   1.767   1.549   4.379  0.0895  0.3874  0.9622
  782MOL0     C 7845   1.702   1.494   4.484  0.1553  0.1061  0.1726
  782MOL0     C 7846   1.747   1.543   4.629 -0.4491  0.5168 -0.4065
  782MOL0     H 7847   1.516   1.320   4.937 -0.3960 -2.2277 -1.4706
  782MOL0     H 7848   1.302   1.300   5.096 -1.6312  1.3595  0.5180
  782MOL0     H 7849   1.112   1.261   5.191 -0.3238 -0.4737  1.1714
  782MOL0     H 7850   1.058   1.164   5.045 -3.0448  0.8625 -2.8932
  782MOL0     H 7851   0.863   1.357   5.201  0.8869  0.0555  0.3478
  782MOL0     H 7852   0.831   1.263   5.059 -0.8617  0.1167  0.7530
  782MOL0     H 7853   0.750   1.122   5.205 -0.3724  1.6588  2.6283
  782MOL0     H 7854   0.907   1.049   5.186  3.3274  1.7135  0.6140
  782MOL0     H 7855   0.913   1.228   5.416  0.6065 -0.2741  0.5029
  782MOL0     H 7856   0.764   1.143   5.430 -1.2766  1.1683 -1.1354
  782MOL0     H 7857   0.962   1.026   5.545  0.5648 -1.8187  0.2556
  782MOL0     H 7858   1.020   0.979   5.382 -1.5082 -2.7273 -0.8294
  782MOL0     H 7859   0.792   0.859   5.347 -1.2856 -0.8820  0.8352
  782MOL0     H 7860   0.879   0.794   5.477 -1.1630 -0.3203  0.9631
  782MOL0     H 7861   0.643   0.987   5.501 -2.1205  0.6244  1.7150
  782MOL0     H 7862   0.749   0.919   5.630  1.9985 -0.6187 -0.1048
  782MOL0     H 7863   0.544   0.769   5.464  1.0067  0.4657 -0.6434
  782MOL0     H 7864   0.679   0.685   5.516 -3.2171 -2.2408  2.3477
  782MOL0     H 7865   0.379   0.880   5.651  0.0306  1.2337  1.1993
  782MOL0     H 7866   0.265   0.696   5.953  2.0648 -0.1193  1.9922
  782MOL0     H 7867   0.217   0.837   5.875 -0.5125  4.0476  3.1465
  782MOL0     H 7868   0.367   0.986   6.002 -0.2040 -0.7945 -0.8163
  782MOL0     H 7869   0.230   0.934   6.081 -1.2514 -2.5898  1.1847
  782MOL0     H 7870   0.364   0.749   6.193  1.9025 -2.9082 -3.8550
  782MOL0     H 7871   0.505   0.826   6.121 -0.7875  0.9275 -2.6511
  782MOL0     H 7872   0.316   0.990   6.293  0.9252  3.6186  1.1766
  782MOL0     H 7873   0.460   0.892   6.353  0.7333 -1.4390 -0.3230
  782MOL0     H 7874   0.626   1.254   6.166  0.5719 -3.4014  0.2609
  782MOL0     H 7875   0.841   1.486   6.312 -0.1521  0.8626  1.9162
  782MOL0     H 7876   0.692   1.555   6.258 -1.0877 -0.0737  2.0342
  782MOL0     H 7877   0.772   1.429   6.155 -1.7636  0.0460  0.2094
  782MOL0     H 7878   0.560   1.606   6.772  1.4745 -3.0880  1.6885
  782MOL0     H 7879   0.581   1.812   6.931  1.6417  2.8394 -1.0540
  782MOL0     H 7880   0.974   1.858   7.168 -0.8461  0.1260 -0.0709
  782MOL0     H 7881   0.840   1.951   7.231  0.8956  0.8121 -0.0362
  782MOL0     H 7882   0.715   1.760   7.271  0.1287 -0.0721 -1.9764
  782MOL0     H 7883   0.825   1.653   7.186  1.4162  1.5500 -1.7071
  782MOL0     H 7884   0.992   1.656   7.351  0.1672  0.1634  0.8869
  782MOL0     H 7885   0.849   1.657   7.450  0.4027  0.7146  0.5256
  782MOL0     H 7886   0.892   1.918   7.467 -2.4173 -2.6452  0.1536
  782MOL0     H 7887   1.038   1.892   7.389 -1.3276  1.0047 -0.6232
  782MOL0     H 7888   0.973   1.778   7.663  3.9906 -1.7071  3.6078
  782MOL0     H 7889   1.098   1.713   7.551 -1.8077 -2.0831 -0.6724
  782MOL0     H 7890   1.086   2.020   7.605 -1.8160 -0.2628 -0.7402
  782MOL0     H 7891   1.219   1.919   7.563  0.1605  2.4494 -0.9518
  782MOL0     H 7892   1.101   1.964   7.842  3.3113  2.3353  2.4946
  782MOL0     H 7893   1.256   2.005   7.773  2.9661 -2.0296 -0.6762
  782MOL0     H 7894   1.337   1.845   7.894 -0.1164  3.3023 -1.4241
  782MOL0     H 7895   1.299   1.756   7.744 -1.2275 -0.3366  0.4920
  782MOL0     H 7896   1.004   1.701   6.976 -0.6660 -3.9665  0.9884
  782MOL0     H 7897   0.967   1.533   6.789  0.0409  1.7089 -2.1988
  782MOL0     H 7898   0.558   1.254   6.654  1.0245 -0.2613 -0.3750
  782MOL0     H 7899   0.487   1.055   6.507  0.4962 -0.8888 -0.1070
  782MOL0     H 7900   1.062   1.410   4.779 -0.3706 -0.0535 -0.3354
  782MOL0     H 7901   1.252   1.403   4.619  2.2551  1.7643 -0.3624
  782MOL0     H 7902   1.478   1.320   4.297  1.2326 -2.9437 -0.8747
  782MOL0     H 7903   1.608   1.392   4.126 -2.9832  0.6608  1.5327
  782MOL0     H 7904   1.775   1.763   4.105 -0.3010 -1.2286 -2.2044
  782MOL0     H 7905   1.912   1.715   4.210 -0.1000  0.9523 -0.4229
  782MOL0     H 7906   1.886   1.687   3.910 -0.7782  2.5081  1.4214
  782MOL0     H 7907   2.016   1.611   4.015  0.8067 -0.2313  2.1158
  782MOL0     H 7908   1.955   1.919   4.024 -0.4036  0.7383 -2.2601
  782MOL0     H 7909   2.105   1.819   4.057 -1.1967 -3.1007  0.9312
  782MOL0     H 7910   2.103   1.950   3.823  1.0230 -0.5635  1.5420
  782MOL0     H 7911   1.967   1.853   3.793  0.5730 -3.2032 -1.5323
  782MOL0     H 7912   2.325   1.646   3.690 -3.0228 -0.7937 -1.3665
  782MOL0     H 7913   1.849   1.618   4.393 -0.3151  1.0617  0.0871
  782MOL0     H 7914   1.825   1.619   4.621 -0.2109  0.1104 -2.9952
  782MOL0     H 7915   1.663   1.591   4.680 -0.4326  0.7105 -0.5576
  782MOL0     H 7916   1.779   1.457   4.688 -0.8186  1.0573  0.6055
  783MOL0     O 7917   5.872   3.174   5.929  0.3256 -0.3701 -0.2724
  783MOL0     C 7918   5.781   3.222   5.994 -0.2395 -0.6395 -0.1994
  783MOL0     O 7919   5.670   3.297   5.943 -0.1230 -0.3337 -0.0179
  783MOL0     C 7920   5.653   3.351   5.815 -0.2804  0.1183 -0.2195
  783MOL0     C 7921   5.720   3.314   5.699  0.4697 -1.0691  0.5870
  783MOL0     C 7922   5.699   3.384   5.576  1.3444 -0.4704 -0.2611
  783MOL0     C 7923   5.616   3.498   5.568 -0.5793 -0.3271 -0.3162
  783MOL0     O 7924   5.583   3.578   5.456 -0.7375 -0.3585 -0.3933
  783MOL0     C 7925   5.610   3.521   5.323  0.5263 -0.1129  0.4722
  783MOL0     C 7926   5.516   3.399   5.273  0.5576  0.6802  0.0572
  783MOL0     C 7927   5.361   3.431   5.276 -0.0642 -0.5394 -0.1362
  783MOL0     C 7928   5.277   3.300   5.297  0.2995 -0.1829 -0.9963
  783MOL0     C 7929   5.130   3.324   5.292  0.2750 -0.3496 -0.5356
  783MOL0     C 7930   5.059   3.186   5.309  0.4179  0.3930 -0.3533
  783MOL0     C 7931   4.915   3.204   5.357 -0.2749 -0.4937 -0.3997
  783MOL0     C 7932   4.831   3.078   5.346  0.0330  0.0043  0.6456
  783MOL0     N 7933   4.713   3.095   5.425  0.2308  1.1435 -0.1459
  783MOL0     C 7934   4.718   3.108   5.564  0.5349  0.1276  0.1173
  783MOL0     C 7935   4.593   3.092   5.598  0.2044  0.4625 -0.1610
  783MOL0     C 7936   4.541   3.133   5.729 -0.3013 -1.0227 -0.3288
  783MOL0     C 7937   4.434   3.043   5.777 -0.5808  0.3926  0.4614
  783MOL0     C 7938   4.489   2.905   5.825  0.3490 -0.2253 -0.3359
  783MOL0     C 7939   4.386   2.808   5.862  0.0868 -0.2056  1.5524
  783MOL0     O 7940   4.452   2.690   5.902 -0.3971  0.9129  0.4409
  783MOL0     C 7941   4.478   2.678   6.029  0.0335  0.0765  0.0872
  783MOL0     C 7942   4.374   2.674   6.127  0.4948  0.5396  0.4308
  783MOL0     C 7943   4.401   2.665   6.267  0.0195  0.0874  0.0989
  783MOL0     C 7944   4.276   2.673   6.354  0.5418  0.8970  0.0327
  783MOL0     C 7945   4.542   2.635   6.305 -0.2022 -1.1826 -0.0611
  783MOL0     C 7946   4.588   2.621   6.449  0.2353 -0.1405 -0.5270
  783MOL0     O 7947   4.503   2.566   6.535 -0.0648  0.7029 -0.6711
  783MOL0     C 7948   4.544   2.579   6.671 -0.4466  0.4857  0.3437
  783MOL0     C 7949   4.520   2.697   6.737  0.2093 -0.7207 -0.9452
  783MOL0     C 7950   4.564   2.705   6.871  0.0617 -0.1239  0.0994
  783MOL0     C 7951   4.630   2.604   6.933 -0.4370  0.6881  0.7981
  783MOL0     O 7952   4.658   2.600   7.064  0.7881 -0.1646 -0.0007
  783MOL0     C 7953   4.611   2.697   7.158  0.4817 -0.2487 -0.9398
  783MOL0     C 7954   4.625   2.632   7.296  0.8452  0.1700 -0.1245
  783MOL0     C 7955   4.566   2.718   7.405 -0.1315 -0.3146  0.7304
  783MOL0     C 7956   4.587   2.652   7.537  0.1142 -1.0473  0.7828
  783MOL0     C 7957   4.506   2.525   7.552  0.8586 -0.2330  0.1407
  783MOL0     C 7958   4.476   2.504   7.699 -0.5792  0.3075 -0.1875
  783MOL0     C 7959   4.335   2.458   7.729  0.5644  0.7853  0.0912
  783MOL0     C 7960   4.326   2.394   7.859  0.4753  1.0517 -0.0314
  783MOL0    Cl 7961   4.163   2.323   7.860  0.3224  0.3513  0.6514
  783MOL0     C 7962   4.656   2.490   6.862 -0.0341 -0.7562 -0.0946
  783MOL0     C 7963   4.609   2.468   6.731 -0.5705 -0.4877 -0.1882
  783MOL0     O 7964   4.698   2.669   6.476  0.4294 -0.2870  0.4218
  783MOL0     C 7965   4.639   2.625   6.204 -0.4280 -0.6182 -0.1287
  783MOL0     C 7966   4.608   2.642   6.070 -0.0011  0.1264 -0.5043
  783MOL0     N 7967   4.519   3.066   5.491 -0.4867 -0.2594 -0.3392
  783MOL0     N 7968   4.593   3.064   5.386 -0.3905  0.6924 -0.1285
  783MOL0     C 7969   5.539   3.518   5.686 -0.1096 -0.7365  0.0811
  783MOL0     C 7970   5.560   3.453   5.801  0.5430 -0.1802 -0.5429
  783MOL0     C 7971   5.781   3.198   6.148 -0.6645 -0.6331 -0.3526
  783MOL0     C 7972   5.660   3.218   6.218 -0.4475  0.2328 -1.2663
  783MOL0     C 7973   5.650   3.185   6.349  0.6022  0.5404 -0.3968
  783MOL0     C 7974   5.766   3.150   6.430 -0.2524  0.1964  0.7810
  783MOL0     O 7975   5.747   3.149   6.565 -0.1996 -0.1146  0.1797
  783MOL0     C 7976   5.774   3.021   6.630 -0.2540 -0.0066  0.1744
  783MOL0     C 7977   5.840   3.052   6.763  0.0891  0.5786  1.0389
  783MOL0     C 7978   5.994   3.098   6.763 -0.0441  0.4268  0.8845
  783MOL0     C 7979   6.045   3.118   6.906  0.0713  0.1799 -0.4236
  783MOL0     C 7980   6.191   3.156   6.915  0.6346 -0.2257  0.2749
  783MOL0     C 7981   6.307   3.175   6.929  0.4067  0.1377 -0.5380
  783MOL0     C 7982   5.888   3.134   6.367  0.4342  0.3407 -0.0315
  783MOL0     C 7983   5.904   3.170   6.229 -0.6001  0.7996 -0.1421
  783MOL0     C 7984   6.039   3.147   6.169 -0.3382  0.1469  0.0437
  783MOL0     H 7985   5.797   3.237   5.693  1.8443  0.1642  1.6403
  783MOL0     H 7986   5.773   3.365   5.499  2.0973 -1.7136  0.7504
  783MOL0     H 7987   5.713   3.484   5.323  0.0689 -1.6718 -2.1624
  783MOL0     H 7988   5.606   3.605   5.254  1.7588 -1.0375 -0.7892
  783MOL0     H 7989   5.547   3.372   5.172  0.9839 -0.0959  0.3901
  783MOL0     H 7990   5.527   3.312   5.339 -1.8018 -0.4019 -0.8971
  783MOL0     H 7991   5.355   3.510   5.351  2.5969  1.9950 -2.3305
  783MOL0     H 7992   5.327   3.474   5.182 -0.1534 -0.1841  0.0570
  783MOL0     H 7993   5.315   3.234   5.218  0.5189 -0.9199 -0.2828
  783MOL0     H 7994   5.299   3.251   5.392 -0.7534 -0.8888 -1.1099
  783MOL0     H 7995   5.104   3.362   5.192  3.6595  1.8154 -0.7436
  783MOL0     H 7996   5.102   3.386   5.377  1.0058  0.2080 -0.6941
  783MOL0     H 7997   5.057   3.122   5.221 -2.9549 -1.0204  0.5892
  783MOL0     H 7998   5.104   3.126   5.389 -2.9599  0.7247  2.0071
  783MOL0     H 7999   4.877   3.276   5.283 -1.9119  1.4915  2.1730
  783MOL0     H 8000   4.915   3.257   5.453  1.8304 -1.3530  0.1232
  783MOL0     H 8001   4.804   3.056   5.242 -0.2117  0.3553  0.6329
  783MOL0     H 8002   4.900   3.000   5.380 -0.0909 -1.2682 -1.8038
  783MOL0     H 8003   4.793   3.134   5.638  3.1425 -3.6709 -0.8605
  783MOL0     H 8004   4.499   3.233   5.713  0.4613 -0.9242 -1.9425
  783MOL0     H 8005   4.625   3.136   5.799  0.4967 -2.6927 -1.1730
  783MOL0     H 8006   4.384   3.086   5.865  1.6839 -0.8059  2.4201
  783MOL0     H 8007   4.364   3.032   5.693 -0.6283  0.5954  0.4730
  783MOL0     H 8008   4.547   2.872   5.738 -0.7155  4.3157 -3.1162
  783MOL0     H 8009   4.558   2.917   5.910  0.2195 -1.6352 -0.0062
  783MOL0     H 8010   4.318   2.840   5.940 -3.9518 -1.5399 -1.0887
  783MOL0     H 8011   4.326   2.782   5.774 -0.9793  0.4633  2.0691
  783MOL0     H 8012   4.271   2.683   6.093  0.0685  0.6958  1.7086
  783MOL0     H 8013   4.188   2.661   6.291  2.6426  0.6602 -3.0764
  783MOL0     H 8014   4.295   2.763   6.414 -0.6240 -0.3746  2.4685
  783MOL0     H 8015   4.281   2.593   6.429  0.9027 -2.0354 -2.9077
  783MOL0     H 8016   4.486   2.780   6.676  1.9451  0.6200 -0.1848
  783MOL0     H 8017   4.550   2.799   6.924  0.0504  0.8245 -1.5137
  783MOL0     H 8018   4.675   2.784   7.175 -0.3764 -0.3642  4.3929
  783MOL0     H 8019   4.510   2.732   7.133 -0.0360 -0.4343  0.7823
  783MOL0     H 8020   4.568   2.538   7.292 -3.1533  2.3330  0.3033
  783MOL0     H 8021   4.731   2.614   7.315  0.8870  1.7175  1.2390
  783MOL0     H 8022   4.457   2.724   7.396 -0.0910  0.2553  0.6218
  783MOL0     H 8023   4.614   2.815   7.422  1.5583 -0.8225 -0.7612
  783MOL0     H 8024   4.536   2.726   7.599 -0.5743 -0.5506 -0.3363
  783MOL0     H 8025   4.694   2.650   7.561  0.5610 -1.6912 -1.0825
  783MOL0     H 8026   4.414   2.551   7.499  1.2311 -1.9288 -1.4120
  783MOL0     H 8027   4.555   2.441   7.503 -1.7266 -0.6555 -1.9664
  783MOL0     H 8028   4.478   2.602   7.747 -2.5589  0.6128 -0.6588
  783MOL0     H 8029   4.554   2.434   7.733  0.0704  0.3175 -1.6051
  783MOL0     H 8030   4.295   2.382   7.661  0.4254  0.0811  0.9475
  783MOL0     H 8031   4.267   2.543   7.721 -0.2003  0.2399  0.6933
  783MOL0     H 8032   4.354   2.466   7.937 -0.4125 -0.5777  1.8735
  783MOL0     H 8033   4.402   2.315   7.859  0.7813  1.3418  0.3539
  783MOL0     H 8034   4.710   2.410   6.913 -0.8765 -0.6589  0.9765
  783MOL0     H 8035   4.622   2.373   6.681  0.1300 -1.5992  1.9714
  783MOL0     H 8036   4.740   2.592   6.224  0.5351  1.6769 -0.9759
  783MOL0     H 8037   4.676   2.635   5.985  2.3917  2.7784  1.0052
  783MOL0     H 8038   5.457   3.588   5.683  1.5449  1.3692  1.3572
  783MOL0     H 8039   5.499   3.454   5.891  3.0712 -3.5549  1.4838
  783MOL0     H 8040   5.574   3.250   6.162 -0.6356  0.8899 -0.6138
  783MOL0     H 8041   5.558   3.202   6.404  0.6652  1.6850 -0.6293
  783MOL0     H 8042   5.676   2.974   6.643  0.3927 -2.4081 -2.5423
  783MOL0     H 8043   5.838   2.952   6.575  0.6553 -2.3068  3.7690
  783MOL0     H 8044   5.834   2.964   6.827 -0.4594 -0.8629 -0.9002
  783MOL0     H 8045   5.781   3.136   6.801  0.9608  0.1511  3.4796
  783MOL0     H 8046   6.055   3.028   6.705 -1.1622  1.8433 -2.1853
  783MOL0     H 8047   6.008   3.192   6.708  2.6923 -0.5877 -0.3224
  783MOL0     H 8048   6.039   3.029   6.968  1.7535 -0.8212 -1.6155
  783MOL0     H 8049   5.990   3.199   6.956 -1.3142 -2.8646  3.4379
  783MOL0     H 8050   6.410   3.199   6.946  0.0977  1.6826 -0.7245
  783MOL0     H 8051   5.980   3.100   6.413 -0.4344 -1.7314  0.2834
  783MOL0     H 8052   6.096   3.079   6.233  1.0060  0.6461 -0.5735
  783MOL0     H 8053   6.033   3.100   6.070 -0.0262 -0.0691  0.1237
  783MOL0     H 8054   6.091   3.242   6.154 -1.8731  0.4124 -5.5586
  784MOL0     O 8055  10.281   5.449   3.114 -0.0142  0.1126  0.2950
  784MOL0     C 8056  10.234   5.477   3.005  0.4351  0.0719 -0.3694
  784MOL0     O 8057  10.310   5.531   2.905  0.3322 -0.2183 -0.0468
  784MOL0     C 8058  10.440   5.557   2.913  0.6601 -0.9381 -0.0695
  784MOL0     C 8059  10.499   5.641   3.004  0.7567 -0.3897  0.5055
  784MOL0     C 8060  10.636   5.649   3.003 -0.3374  0.4937 -0.1111
  784MOL0     C 8061  10.723   5.575   2.925  0.7066 -0.2058  0.3326
  784MOL0     O 8062  10.860   5.603   2.922  0.3920  0.3944  0.1290
  784MOL0     C 8063  10.939   5.480   2.965 -0.7850 -0.8925  0.6776
  784MOL0     C 8064  10.975   5.486   3.116  0.3877  0.1007  0.4077
  784MOL0     C 8065  10.869   5.420   3.202  0.4281 -0.4210  0.1175
  784MOL0     C 8066  10.907   5.413   3.349  0.3464 -0.5968  0.6324
  784MOL0     C 8067  10.919   5.545   3.419  0.0115  0.6167  0.4961
  784MOL0     C 8068  10.955   5.542   3.565  0.2347  0.1714 -0.2712
  784MOL0     C 8069  10.982   5.696   3.604 -1.0099 -0.1439 -0.0903
  784MOL0     C 8070  11.049   5.725   3.747  0.5887 -0.4208  0.2429
  784MOL0     N 8071  11.060   5.867   3.759 -0.1694 -0.4368  0.4858
  784MOL0     C 8072  11.020   5.939   3.863  1.3972  0.3374 -0.9514
  784MOL0     C 8073  11.093   6.051   3.865  0.0210 -1.2122 -0.3769
  784MOL0     C 8074  11.071   6.155   3.969  0.0630 -0.1542  0.1561
  784MOL0     C 8075  11.182   6.163   4.068  0.6628 -0.1280  0.5934
  784MOL0     C 8076  11.174   6.268   4.179  0.8746  0.7476 -0.2504
  784MOL0     C 8077  11.193   6.405   4.133 -1.0726 -0.8539 -0.6292
  784MOL0     O 8078  11.240   6.495   4.231 -0.3180  0.1773  0.0276
  784MOL0     C 8079  11.143   6.585   4.262 -0.4184  0.7946 -0.2248
  784MOL0     C 8080  11.091   6.678   4.172 -0.1199 -1.4682 -0.7432
  784MOL0     C 8081  10.993   6.768   4.219  0.3190 -0.0720 -0.4133
  784MOL0     C 8082  10.941   6.881   4.134  0.2897 -0.7795  0.0088
  784MOL0     C 8083  10.960   6.765   4.354  0.0415 -0.1448  0.5150
  784MOL0     C 8084  10.860   6.864   4.423  0.3222 -0.4859  0.1698
  784MOL0     O 8085  10.799   6.822   4.537  0.0680  0.9081 -0.1030
  784MOL0     C 8086  10.747   6.901   4.638 -0.5553 -0.7394 -0.2365
  784MOL0     C 8087  10.703   7.033   4.630  0.2903  0.4900 -0.2210
  784MOL0     C 8088  10.672   7.105   4.750 -0.4466  0.8301  0.1665
  784MOL0     C 8089  10.676   7.047   4.876 -0.4033 -0.6485 -0.1745
  784MOL0     O 8090  10.642   7.129   4.977  0.1627  0.2773 -0.8842
  784MOL0     C 8091  10.745   7.198   5.047  0.4841 -0.2641  0.0807
  784MOL0     C 8092  10.700   7.346   5.049 -0.4732  0.1752  0.0505
  784MOL0     C 8093  10.792   7.428   5.138  0.3226  0.5282 -0.0458
  784MOL0     C 8094  10.763   7.572   5.136 -0.0186  0.7042  0.1368
  784MOL0     C 8095  10.879   7.652   5.186 -0.3596  0.6851 -0.9750
  784MOL0     C 8096  10.870   7.667   5.331  0.6235  0.8673 -1.0319
  784MOL0     C 8097  10.993   7.740   5.403  0.4520 -0.1107  0.1672
  784MOL0     C 8098  10.957   7.770   5.553  0.0247 -0.1454  0.6440
  784MOL0    Cl 8099  10.903   7.621   5.649  0.4612  0.1199 -0.1224
  784MOL0     C 8100  10.719   6.916   4.886  0.3094 -0.3919 -0.1059
  784MOL0     C 8101  10.748   6.846   4.770 -0.0605  0.3467  0.1446
  784MOL0     O 8102  10.871   6.979   4.396  0.0338 -0.8153  0.6768
  784MOL0     C 8103  11.013   6.660   4.436  0.2615  0.1665  0.0265
  784MOL0     C 8104  11.104   6.573   4.390  0.1000  0.0319  0.3273
  784MOL0     N 8105  11.179   6.062   3.754 -0.2352  0.3916 -0.0671
  784MOL0     N 8106  11.156   5.948   3.698  0.0538  0.3281  0.4172
  784MOL0     C 8107  10.660   5.486   2.831  0.0391  0.0945 -0.0744
  784MOL0     C 8108  10.522   5.482   2.823  0.5626  0.5600 -0.9964
  784MOL0     C 8109  10.098   5.443   2.983  0.6646  0.5053  0.1414
  784MOL0     C 8110  10.057   5.421   2.847 -0.1655 -0.4660  0.0489
  784MOL0     C 8111   9.928   5.390   2.807 -0.9705  1.2894 -0.2640
  784MOL0     C 8112   9.827   5.380   2.905 -0.5592 -0.6283  0.8255
  784MOL0     O 8113   9.706   5.361   2.852  0.6563  0.2606 -0.0567
  784MOL0     C 8114   9.581   5.406   2.897  0.7243  1.1269 -0.4254
  784MOL0     C 8115   9.552   5.549   2.870  0.1710 -0.1354 -0.7755
  784MOL0     C 8116   9.553   5.590   2.732 -0.4149  0.4084 -0.3498
  784MOL0     C 8117   9.528   5.731   2.697 -0.3327 -0.1708 -0.1697
  784MOL0     C 8118   9.608   5.814   2.781 -0.0249  0.6706  0.3049
  784MOL0     C 8119   9.681   5.890   2.847 -0.6279  0.2041  1.0709
  784MOL0     C 8120   9.852   5.400   3.043 -0.6418  0.1842 -0.7796
  784MOL0     C 8121   9.990   5.425   3.080 -0.5528 -0.2119  0.3127
  784MOL0     C 8122  10.014   5.450   3.229  0.0146  0.8242 -0.8979
  784MOL0     H 8123  10.441   5.681   3.086 -0.2676  2.4229 -1.4557
  784MOL0     H 8124  10.685   5.705   3.083 -3.1417 -0.3182  2.3782
  784MOL0     H 8125  11.034   5.473   2.911 -0.0226  0.8565  1.7060
  784MOL0     H 8126  10.899   5.381   2.938  1.7543 -1.0698 -3.1334
  784MOL0     H 8127  11.072   5.444   3.144  2.0006  2.7442 -0.8526
  784MOL0     H 8128  10.980   5.594   3.132  0.2268  0.3792 -1.2132
  784MOL0     H 8129  10.768   5.460   3.192 -0.7019 -3.0844 -0.0847
  784MOL0     H 8130  10.845   5.319   3.166 -2.0599  1.0952 -2.8975
  784MOL0     H 8131  10.847   5.350   3.416  2.3789 -1.4826  1.7091
  784MOL0     H 8132  11.005   5.365   3.355 -1.2472 -4.3759 -0.6873
  784MOL0     H 8133  10.824   5.596   3.398  2.1270  4.2737 -1.3033
  784MOL0     H 8134  10.992   5.611   3.370 -1.6630  1.6577 -0.6909
  784MOL0     H 8135  10.873   5.500   3.624 -0.9711  1.1520 -1.2158
  784MOL0     H 8136  11.040   5.474   3.577 -1.4239 -2.2339 -1.3184
  784MOL0     H 8137  10.882   5.737   3.621 -1.4189 -2.3915  4.4100
  784MOL0     H 8138  11.039   5.758   3.534  2.1351 -2.4771  0.1364
  784MOL0     H 8139  11.003   5.674   3.832  0.6268 -1.0515 -0.1082
  784MOL0     H 8140  11.152   5.686   3.747  1.1688  1.0563  0.4789
  784MOL0     H 8141  10.944   5.901   3.929 -0.9352 -0.5444 -3.9121
  784MOL0     H 8142  10.971   6.140   4.012  0.2564 -0.4680  0.4948
  784MOL0     H 8143  11.066   6.249   3.912 -0.2376 -2.5207 -4.1271
  784MOL0     H 8144  11.194   6.065   4.116  1.3567  0.0344  0.7636
  784MOL0     H 8145  11.273   6.187   4.013  0.1822  1.1770  0.3280
  784MOL0     H 8146  11.088   6.264   4.246  0.2757 -0.5521 -1.0511
  784MOL0     H 8147  11.250   6.248   4.256 -0.9277 -1.8973  1.0202
  784MOL0     H 8148  11.273   6.378   4.064 -0.3783 -2.0791  0.5812
  784MOL0     H 8149  11.101   6.441   4.086 -0.1057  2.8355  0.0456
  784MOL0     H 8150  11.125   6.694   4.070  2.7493 -1.1720  0.1560
  784MOL0     H 8151  11.002   6.971   4.128  1.9706 -1.9076 -0.7159
  784MOL0     H 8152  10.838   6.909   4.155  1.1129  2.5268  0.2285
  784MOL0     H 8153  10.931   6.851   4.029 -2.2211 -0.7016  0.1669
  784MOL0     H 8154  10.689   7.083   4.535  0.9224 -1.3521 -1.3369
  784MOL0     H 8155  10.640   7.208   4.735  0.2722  1.0224 -0.0809
  784MOL0     H 8156  10.743   7.163   5.151  0.4142  0.0369  0.1799
  784MOL0     H 8157  10.848   7.183   5.014 -0.1026 -2.2676 -1.0237
  784MOL0     H 8158  10.696   7.384   4.946 -2.2331 -2.5354 -0.9742
  784MOL0     H 8159  10.600   7.357   5.090 -1.5697 -0.0696 -2.4087
  784MOL0     H 8160  10.892   7.405   5.100 -0.7208 -1.8938 -1.4864
  784MOL0     H 8161  10.789   7.401   5.244 -2.0423  2.6637  0.5436
  784MOL0     H 8162  10.673   7.593   5.194 -0.5459 -0.4834 -0.2117
  784MOL0     H 8163  10.750   7.602   5.032  1.6019  1.0288 -0.0025
  784MOL0     H 8164  10.975   7.604   5.166 -0.9603  0.3046 -3.2018
  784MOL0     H 8165  10.889   7.749   5.136  1.8541  1.6708  1.1726
  784MOL0     H 8166  10.873   7.572   5.385 -0.8088  2.3099  1.8595
  784MOL0     H 8167  10.778   7.723   5.354 -0.5185 -1.2591 -0.1025
  784MOL0     H 8168  11.002   7.837   5.352  4.7353 -0.0690  0.6821
  784MOL0     H 8169  11.082   7.678   5.391  0.0915 -0.5294 -0.3919
  784MOL0     H 8170  10.871   7.837   5.563 -1.2219 -2.0257  4.2480
  784MOL0     H 8171  11.042   7.823   5.597  2.7819 -3.4500 -0.2513
  784MOL0     H 8172  10.726   6.876   4.987  0.3526  3.4058  1.5742
  784MOL0     H 8173  10.766   6.739   4.775 -0.6971  0.2906  1.4987
  784MOL0     H 8174  10.990   6.641   4.540 -0.7099  0.1595 -0.1854
  784MOL0     H 8175  11.162   6.506   4.452  4.5640  0.0915 -3.2699
  784MOL0     H 8176  10.724   5.434   2.760  2.4234  1.7777  0.7129
  784MOL0     H 8177  10.481   5.410   2.754  0.8455  0.4357 -1.0341
  784MOL0     H 8178  10.123   5.429   2.761 -0.4676  1.0570 -0.0744
  784MOL0     H 8179   9.918   5.374   2.700  1.6711 -1.7264 -0.2267
  784MOL0     H 8180   9.503   5.352   2.841  1.1421  1.5199 -1.4038
  784MOL0     H 8181   9.570   5.390   3.004  0.6179 -0.4003 -0.6460
  784MOL0     H 8182   9.623   5.599   2.938  1.7151 -3.9066  0.6900
  784MOL0     H 8183   9.448   5.565   2.900 -0.3010  0.5709 -2.6642
  784MOL0     H 8184   9.653   5.559   2.698 -0.5999 -1.0859  0.3901
  784MOL0     H 8185   9.473   5.530   2.688 -0.9873 -0.9554  2.3453
  784MOL0     H 8186   9.424   5.752   2.724 -0.7221 -2.9303  0.7801
  784MOL0     H 8187   9.545   5.756   2.592 -0.4233  2.1895  0.3302
  784MOL0     H 8188   9.765   5.931   2.899  1.4341 -0.0337 -1.8501
  784MOL0     H 8189   9.762   5.398   3.104 -3.3163 -0.1173 -4.3959
  784MOL0     H 8190  10.082   5.375   3.271 -0.8540  0.5912  0.1338
  784MOL0     H 8191  10.069   5.544   3.233  1.2922  0.0789 -0.3867
  784MOL0     H 8192   9.919   5.445   3.284  0.6830  0.4868  0.2591
  785MOL0     O 8193   8.634   3.914   3.374  0.5070 -0.0784 -0.0071
  785MOL0     C 8194   8.629   3.798   3.334  0.6575 -0.3993  0.8895
  785MOL0     O 8195   8.544   3.707   3.378  0.2920  0.4939 -0.9268
  785MOL0     C 8196   8.462   3.728   3.485  0.7522 -0.5993  0.2351
  785MOL0     C 8197   8.343   3.813   3.484 -0.2637  0.1407  0.1266
  785MOL0     C 8198   8.253   3.826   3.601  0.4823 -0.6026  0.9051
  785MOL0     C 8199   8.300   3.762   3.712  0.2740  0.0233 -0.0333
  785MOL0     O 8200   8.218   3.765   3.825  0.5106 -0.2936 -0.9479
  785MOL0     C 8201   8.254   3.866   3.917 -0.3612  0.4758  0.3586
  785MOL0     C 8202   8.154   3.976   3.903  1.2589  0.0662 -0.0162
  785MOL0     C 8203   8.191   4.108   3.952  0.5423 -0.4206  1.0424
  785MOL0     C 8204   8.298   4.175   3.866  0.1761 -0.0631  0.0317
  785MOL0     C 8205   8.324   4.317   3.930  1.1739  0.0149  0.5440
  785MOL0     C 8206   8.430   4.398   3.846 -0.6001 -0.5669 -0.5841
  785MOL0     C 8207   8.355   4.445   3.708 -0.6173  0.5558 -1.4862
  785MOL0     C 8208   8.315   4.599   3.706 -0.3878  0.4217 -0.7061
  785MOL0     N 8209   8.214   4.617   3.811  0.3568 -0.3241  0.0042
  785MOL0     C 8210   8.085   4.578   3.818 -0.5639  0.3705  0.1457
  785MOL0     C 8211   8.032   4.624   3.937  0.1176 -0.2074  0.4243
  785MOL0     C 8212   7.892   4.625   3.991 -0.4809  0.0122  0.1267
  785MOL0     C 8213   7.872   4.492   4.073  1.2411 -0.5776 -0.0406
  785MOL0     C 8214   7.773   4.494   4.188 -0.7718  0.0978 -0.0305
  785MOL0     C 8215   7.831   4.540   4.329  0.3272  0.1490  0.7052
  785MOL0     O 8216   7.972   4.505   4.336 -0.1402  0.3865  0.4064
  785MOL0     C 8217   8.037   4.573   4.436  1.2994  0.6896  0.5949
  785MOL0     C 8218   8.086   4.698   4.416  0.1602 -0.3321  0.0191
  785MOL0     C 8219   8.156   4.763   4.521 -0.9066  0.7003 -0.0390
  785MOL0     C 8220   8.192   4.901   4.482  0.4702 -0.8821 -0.1534
  785MOL0     C 8221   8.162   4.702   4.651 -0.3626 -0.6939  0.6220
  785MOL0     C 8222   8.196   4.776   4.778 -0.4410 -0.3574  0.7690
  785MOL0     O 8223   8.198   4.711   4.895  0.0731 -0.9815 -0.2224
  785MOL0     C 8224   8.266   4.772   4.997 -0.0981 -0.0619 -0.4191
  785MOL0     C 8225   8.210   4.857   5.090 -0.3351 -0.2850 -0.0328
  785MOL0     C 8226   8.284   4.942   5.169  0.6029 -0.4240 -0.1777
  785MOL0     C 8227   8.422   4.940   5.154 -0.9534 -0.6879 -0.3789
  785MOL0     O 8228   8.496   5.022   5.229  0.0700 -0.0364  0.5261
  785MOL0     C 8229   8.568   4.949   5.329 -0.1707 -0.9968 -1.0548
  785MOL0     C 8230   8.584   5.032   5.450 -0.4728  1.1745 -0.1127
  785MOL0     C 8231   8.447   5.090   5.499 -0.0254  0.0619  0.8376
  785MOL0     C 8232   8.335   4.992   5.519 -0.0278  0.1450  0.6980
  785MOL0     C 8233   8.223   5.047   5.594  0.0956 -0.4957 -0.0554
  785MOL0     C 8234   8.159   5.160   5.518 -0.1988 -0.0294  0.5933
  785MOL0     C 8235   8.016   5.214   5.540 -0.2925 -0.3584 -0.4744
  785MOL0     C 8236   8.006   5.307   5.660 -0.3926  0.2415 -0.0638
  785MOL0    Cl 8237   8.047   5.477   5.633  0.7302 -0.0927 -0.1799
  785MOL0     C 8238   8.490   4.848   5.060 -0.5317  0.3235  1.0612
  785MOL0     C 8239   8.409   4.770   4.983 -0.1519  0.1955 -0.3946
  785MOL0     O 8240   8.223   4.898   4.762  0.2744 -0.7369  0.5994
  785MOL0     C 8241   8.105   4.569   4.667 -0.1169 -0.0411  0.2418
  785MOL0     C 8242   8.055   4.505   4.560 -0.1200  0.8451  0.6318
  785MOL0     N 8243   8.134   4.698   3.999 -1.0859  0.9182 -0.4633
  785MOL0     N 8244   8.238   4.692   3.925 -0.1451  0.1103  0.4407
  785MOL0     C 8245   8.422   3.696   3.720 -0.1957 -0.1599  0.1684
  785MOL0     C 8246   8.504   3.677   3.603 -0.4485  0.4511  0.3521
  785MOL0     C 8247   8.705   3.766   3.212  0.7372 -0.2517 -0.0809
  785MOL0     C 8248   8.647   3.667   3.127  0.1834 -0.6053 -1.0611
  785MOL0     C 8249   8.719   3.608   3.021 -0.2820  0.2324 -0.3184
  785MOL0     C 8250   8.844   3.660   2.985 -0.3295 -0.8294 -1.3581
  785MOL0     O 8251   8.925   3.597   2.898  0.6443 -0.0569  0.5563
  785MOL0     C 8252   8.904   3.630   2.760 -0.0230 -0.0234  0.5528
  785MOL0     C 8253   9.033   3.628   2.688  0.3315  0.1697  0.5056
  785MOL0     C 8254   9.107   3.752   2.703  0.0108  0.7926 -1.0194
  785MOL0     C 8255   9.239   3.759   2.615  0.5526 -0.9326  0.3155
  785MOL0     C 8256   9.206   3.800   2.472 -0.8252  0.1208 -0.0044
  785MOL0     C 8257   9.173   3.841   2.366 -0.0066  0.7362 -0.2716
  785MOL0     C 8258   8.892   3.769   3.063  0.5041  0.4300  0.4525
  785MOL0     C 8259   8.829   3.823   3.183  0.0409 -0.0278  0.7652
  785MOL0     C 8260   8.906   3.933   3.265 -0.0333  0.5135 -0.0093
  785MOL0     H 8261   8.332   3.857   3.386  2.7613 -1.1144 -0.9191
  785MOL0     H 8262   8.154   3.870   3.599 -0.4135 -2.5487  0.1810
  785MOL0     H 8263   8.359   3.895   3.908  0.6565 -2.5882  1.1014
  785MOL0     H 8264   8.246   3.816   4.014  0.0744 -0.4550 -0.0660
  785MOL0     H 8265   8.150   3.989   3.795  2.3601 -1.1126 -0.2266
  785MOL0     H 8266   8.059   3.956   3.954  0.5047  0.7327 -1.1174
  785MOL0     H 8267   8.099   4.167   3.948  1.5342  1.1828  1.1695
  785MOL0     H 8268   8.218   4.109   4.058 -2.0681 -0.5270  1.7885
  785MOL0     H 8269   8.394   4.122   3.861 -0.2974 -0.8676 -2.0061
  785MOL0     H 8270   8.266   4.173   3.761  0.2722 -0.3503  0.0059
  785MOL0     H 8271   8.349   4.318   4.036 -1.8987 -3.0194  1.5038
  785MOL0     H 8272   8.228   4.367   3.918  0.2251 -1.6314  0.9132
  785MOL0     H 8273   8.461   4.491   3.896  1.1935  0.8680 -4.0360
  785MOL0     H 8274   8.522   4.343   3.823  0.0475 -0.8017  2.2131
  785MOL0     H 8275   8.268   4.382   3.686 -1.4418  0.8753  0.6166
  785MOL0     H 8276   8.419   4.430   3.620  0.5205  1.8023 -0.8959
  785MOL0     H 8277   8.404   4.661   3.722  0.0512 -0.5579  0.9761
  785MOL0     H 8278   8.271   4.622   3.609  0.4808 -0.1485 -1.2474
  785MOL0     H 8279   8.045   4.512   3.742  0.3807 -0.6932  0.5361
  785MOL0     H 8280   7.815   4.640   3.916 -0.4892  1.5414  0.4134
  785MOL0     H 8281   7.890   4.707   4.063 -0.5635  0.3177 -0.2216
  785MOL0     H 8282   7.835   4.410   4.011  1.6144 -1.5179  0.9590
  785MOL0     H 8283   7.968   4.454   4.109  0.2214 -0.8179  2.6766
  785MOL0     H 8284   7.673   4.527   4.157 -0.6157  0.1961 -0.4388
  785MOL0     H 8285   7.763   4.391   4.222  1.6819  1.1391  4.6897
  785MOL0     H 8286   7.823   4.649   4.333 -0.0742  0.3654 -2.7424
  785MOL0     H 8287   7.770   4.497   4.408  0.8515 -0.7997  0.6012
  785MOL0     H 8288   8.082   4.727   4.311  1.5468  1.9042  0.5157
  785MOL0     H 8289   8.133   4.976   4.536  0.8603 -0.7533  0.0974
  785MOL0     H 8290   8.186   4.906   4.373  0.4824  0.3173 -0.1063
  785MOL0     H 8291   8.296   4.916   4.511  1.3738 -3.8112 -1.5346
  785MOL0     H 8292   8.103   4.871   5.088 -0.1638  1.4919  1.3356
  785MOL0     H 8293   8.240   5.017   5.232 -0.0648 -2.0416  1.3549
  785MOL0     H 8294   8.517   4.859   5.365  0.9414 -1.2882 -0.1200
  785MOL0     H 8295   8.667   4.926   5.289  0.9095 -1.4895  1.6519
  785MOL0     H 8296   8.639   4.970   5.522 -1.1913  2.2652  1.4426
  785MOL0     H 8297   8.657   5.111   5.437  1.3442 -0.6937 -2.0559
  785MOL0     H 8298   8.411   5.163   5.425 -0.3125  0.3255  1.2338
  785MOL0     H 8299   8.469   5.145   5.591 -1.8725  1.4261  0.5388
  785MOL0     H 8300   8.371   4.900   5.567 -0.2378 -0.0895  0.4177
  785MOL0     H 8301   8.303   4.957   5.420  2.6256  0.7274 -0.4355
  785MOL0     H 8302   8.154   4.968   5.624 -0.4462 -0.2570 -0.6754
  785MOL0     H 8303   8.270   5.087   5.684 -1.5339  0.6211  0.3371
  785MOL0     H 8304   8.142   5.125   5.416  2.1056  1.0896 -0.2253
  785MOL0     H 8305   8.228   5.243   5.499 -0.3534 -0.1157 -0.3904
  785MOL0     H 8306   7.950   5.129   5.559  0.3790 -0.5515  1.0523
  785MOL0     H 8307   7.984   5.263   5.447  0.7495  0.6675 -0.3157
  785MOL0     H 8308   8.064   5.282   5.749 -1.1800  1.4878  0.8331
  785MOL0     H 8309   7.904   5.295   5.699 -0.0530 -2.7983  0.1107
  785MOL0     H 8310   8.597   4.849   5.040 -1.0931 -0.7984 -2.9140
  785MOL0     H 8311   8.454   4.707   4.907  1.7447  0.9497  0.0457
  785MOL0     H 8312   8.086   4.538   4.769 -1.3892  3.5742  1.2614
  785MOL0     H 8313   8.014   4.406   4.573 -0.5816  0.8632 -0.5810
  785MOL0     H 8314   8.449   3.660   3.819  1.3515  3.8955  1.3964
  785MOL0     H 8315   8.597   3.621   3.607 -0.5370 -0.2207 -3.3371
  785MOL0     H 8316   8.553   3.613   3.137 -1.0528  1.4192 -1.0220
  785MOL0     H 8317   8.673   3.522   2.974 -1.3953  1.1630 -0.9862
  785MOL0     H 8318   8.834   3.554   2.724  1.8198 -0.1714 -3.1423
  785MOL0     H 8319   8.849   3.721   2.736  3.2277  2.4570  1.7865
  785MOL0     H 8320   9.018   3.631   2.580 -0.8504  2.4039  0.6703
  785MOL0     H 8321   9.098   3.540   2.698  0.3288 -0.2841 -2.4721
  785MOL0     H 8322   9.041   3.834   2.675  1.0755  3.7143  3.8318
  785MOL0     H 8323   9.136   3.772   2.806 -2.1187  0.6923 -0.3530
  785MOL0     H 8324   9.296   3.666   2.610  0.8055 -0.8032  0.7723
  785MOL0     H 8325   9.301   3.839   2.658 -1.7853  0.5219  1.1872
  785MOL0     H 8326   9.138   3.852   2.265  1.0843 -1.9432 -1.0283
  785MOL0     H 8327   8.988   3.814   3.039  0.6766  0.5180  1.2781
  785MOL0     H 8328   9.013   3.928   3.245  0.6259  2.6340  2.3965
  785MOL0     H 8329   8.875   4.036   3.244  1.3402  1.1394  0.9361
  785MOL0     H 8330   8.883   3.912   3.370  0.7393 -2.7540 -0.3913
  786MOL0     O 8331   9.263   8.264   4.692 -0.5092  1.0914  0.1150
  786MOL0     C 8332   9.306   8.319   4.792 -0.3179 -0.7050 -0.5606
  786MOL0     O 8333   9.254   8.303   4.919  0.0994  0.4219  0.2184
  786MOL0     C 8334   9.134   8.236   4.920 -0.2352  0.0845 -0.0759
  786MOL0     C 8335   9.020   8.254   4.843 -0.6498  0.5351  0.0413
  786MOL0     C 8336   8.897   8.188   4.875  0.0175 -0.1689  0.8560
  786MOL0     C 8337   8.887   8.120   4.987  0.6819  0.1335 -0.5197
  786MOL0     O 8338   8.767   8.070   5.022  0.4786 -0.5667  0.4070
  786MOL0     C 8339   8.748   8.032   5.153  0.9676  1.0272 -1.3135
  786MOL0     C 8340   8.620   7.957   5.174 -0.0869  0.0774  0.0110
  786MOL0     C 8341   8.494   8.057   5.172 -0.0696  0.7726 -0.3804
  786MOL0     C 8342   8.362   7.992   5.228 -0.5016  0.1323  0.0770
  786MOL0     C 8343   8.259   8.096   5.221 -0.5409  0.2360 -0.8453
  786MOL0     C 8344   8.115   8.042   5.251 -0.8284 -0.1013  0.0993
  786MOL0     C 8345   8.014   8.158   5.286 -1.4866  0.9155  0.9865
  786MOL0     C 8346   7.879   8.104   5.317  1.0516  0.4379 -0.4749
  786MOL0     N 8347   7.772   8.200   5.307  0.4123 -0.2652  0.3663
  786MOL0     C 8348   7.666   8.218   5.392 -0.4300 -0.2368  0.4579
  786MOL0     C 8349   7.614   8.334   5.348 -0.5469  0.0145  0.4101
  786MOL0     C 8350   7.533   8.432   5.423  0.9154 -0.7568 -0.6953
  786MOL0     C 8351   7.427   8.506   5.336 -0.2951  0.8305 -1.3986
  786MOL0     C 8352   7.352   8.605   5.422 -0.5365  0.4123  0.4114
  786MOL0     C 8353   7.451   8.708   5.484 -0.0374 -0.0614  0.4978
  786MOL0     O 8354   7.500   8.671   5.617 -0.0439 -0.5373  0.2427
  786MOL0     C 8355   7.599   8.741   5.679  0.5580 -0.7884 -0.1557
  786MOL0     C 8356   7.651   8.871   5.639 -0.0566 -0.5298 -1.0341
  786MOL0     C 8357   7.756   8.938   5.694  0.4639  0.0211  0.2208
  786MOL0     C 8358   7.799   9.079   5.646  0.1911  1.0228  0.1449
  786MOL0     C 8359   7.817   8.873   5.808 -0.0207 -0.2937  0.2618
  786MOL0     C 8360   7.944   8.917   5.874 -0.9663 -0.4103 -0.7834
  786MOL0     O 8361   7.975   8.844   5.984  0.2146  0.1070 -0.1364
  786MOL0     C 8362   8.043   8.901   6.081  0.3783 -0.0955 -0.4040
  786MOL0     C 8363   8.003   9.029   6.143 -0.8393 -0.8596 -0.1872
  786MOL0     C 8364   8.075   9.069   6.257 -0.7759 -0.2430  0.4022
  786MOL0     C 8365   8.195   9.002   6.307  0.8227  0.7307  0.0910
  786MOL0     O 8366   8.281   9.042   6.410 -0.2974 -0.0137  0.2243
  786MOL0     C 8367   8.265   9.177   6.468  0.2391  0.3454 -0.3395
  786MOL0     C 8368   8.392   9.215   6.552  0.5827  0.1549 -0.7724
  786MOL0     C 8369   8.383   9.132   6.678  1.3961  0.6171  0.3191
  786MOL0     C 8370   8.496   9.157   6.780  0.4149  0.0491 -0.6632
  786MOL0     C 8371   8.461   9.081   6.916 -0.1879  0.1666  0.0729
  786MOL0     C 8372   8.542   9.112   7.042  0.7329  0.1729  0.6181
  786MOL0     C 8373   8.677   9.051   7.015  0.4417  0.2956  0.5737
  786MOL0     C 8374   8.766   9.142   7.083 -1.0098  0.1388 -0.5799
  786MOL0    Cl 8375   8.930   9.076   7.062  0.1587  0.4210  0.1356
  786MOL0     C 8376   8.226   8.883   6.247 -0.5009  0.4207  0.1592
  786MOL0     C 8377   8.145   8.829   6.146 -0.3178  1.0807 -0.3892
  786MOL0     O 8378   8.027   8.993   5.814 -0.5270 -0.2744 -0.6330
  786MOL0     C 8379   7.763   8.753   5.854 -1.3410 -0.0877  0.5232
  786MOL0     C 8380   7.661   8.684   5.788  0.1657 -0.3180  1.1788
  786MOL0     N 8381   7.667   8.365   5.230  0.1039  0.4432  0.5703
  786MOL0     N 8382   7.774   8.304   5.214  0.1266 -0.2309  0.2891
  786MOL0     C 8383   8.998   8.105   5.070 -0.1770 -0.6772  0.8408
  786MOL0     C 8384   9.111   8.173   5.036 -0.0641  0.1170  0.4354
  786MOL0     C 8385   9.425   8.416   4.781 -1.1162  0.4534  0.3670
  786MOL0     C 8386   9.476   8.461   4.907 -0.0921  0.0780  0.4136
  786MOL0     C 8387   9.586   8.555   4.901  1.2466  1.5966 -0.8185
  786MOL0     C 8388   9.641   8.603   4.778 -0.1999  0.2012  0.1731
  786MOL0     O 8389   9.746   8.690   4.787  0.6065 -0.1916  0.3828
  786MOL0     C 8390   9.795   8.758   4.673  0.6695  0.1640 -0.0299
  786MOL0     C 8391   9.822   8.910   4.706  0.4342  1.0805 -0.0470
  786MOL0     C 8392   9.884   8.941   4.847 -0.4050  0.8209 -0.8048
  786MOL0     C 8393  10.034   8.937   4.844  0.0726  0.0357 -0.0108
  786MOL0     C 8394  10.105   9.036   4.758  0.9723 -0.0565 -0.7387
  786MOL0     C 8395  10.152   9.125   4.691 -0.1355 -0.1007 -0.0880
  786MOL0     C 8396   9.583   8.543   4.668  0.0206  0.1281 -0.0651
  786MOL0     C 8397   9.486   8.444   4.661 -0.6914 -0.4355  0.5847
  786MOL0     C 8398   9.433   8.401   4.530  0.8863 -0.1848  0.6045
  786MOL0     H 8399   9.027   8.309   4.749 -0.7942  0.9359  0.2625
  786MOL0     H 8400   8.804   8.199   4.821  0.3227  2.5914  0.7312
  786MOL0     H 8401   8.743   8.120   5.217 -0.3812  1.4752 -1.9991
  786MOL0     H 8402   8.828   7.963   5.183  0.9297  1.1973 -0.8145
  786MOL0     H 8403   8.604   7.875   5.103  0.5303 -1.3318  1.4316
  786MOL0     H 8404   8.630   7.909   5.272 -0.4925 -1.7592 -0.7903
  786MOL0     H 8405   8.520   8.148   5.227  2.1407  0.5689 -0.9743
  786MOL0     H 8406   8.480   8.074   5.065  3.1438 -4.9440 -2.1151
  786MOL0     H 8407   8.331   7.911   5.163  0.5684 -3.2397  3.4299
  786MOL0     H 8408   8.387   7.949   5.325 -0.7274 -3.5363 -1.3658
  786MOL0     H 8409   8.269   8.150   5.127 -1.9095  0.3309 -0.9575
  786MOL0     H 8410   8.282   8.165   5.303  0.2166 -0.9685  0.0003
  786MOL0     H 8411   8.082   7.976   5.171 -0.7721  0.6464 -0.5555
  786MOL0     H 8412   8.124   7.981   5.342  0.0977 -2.1014 -1.2732
  786MOL0     H 8413   8.020   8.215   5.193  1.7492 -2.4078 -1.1422
  786MOL0     H 8414   8.053   8.214   5.371  3.0389  0.9548 -0.8457
  786MOL0     H 8415   7.863   8.015   5.255  1.9097 -0.9416  1.2046
  786MOL0     H 8416   7.892   8.059   5.416  2.2472 -0.7028 -1.1262
  786MOL0     H 8417   7.638   8.189   5.493  0.1834  1.2659  1.0964
  786MOL0     H 8418   7.606   8.501   5.467 -3.5265  2.8928  1.7504
  786MOL0     H 8419   7.485   8.377   5.504  0.3331  0.7124 -0.0150
  786MOL0     H 8420   7.489   8.551   5.257  2.8024  0.6590  0.7415
  786MOL0     H 8421   7.354   8.430   5.309 -0.0515  0.3504 -0.7408
  786MOL0     H 8422   7.290   8.669   5.359  2.5696  2.6168 -0.6767
  786MOL0     H 8423   7.293   8.573   5.508 -0.5008  2.0749  1.1007
  786MOL0     H 8424   7.537   8.730   5.420 -0.3005  0.8749  0.4469
  786MOL0     H 8425   7.404   8.806   5.474  1.2186  0.2948 -3.3573
  786MOL0     H 8426   7.613   8.926   5.554 -2.4264 -1.7781 -0.8697
  786MOL0     H 8427   7.893   9.078   5.591  0.5383  3.1830  0.6004
  786MOL0     H 8428   7.820   9.148   5.728 -1.4307  2.4020 -0.5386
  786MOL0     H 8429   7.725   9.122   5.579 -0.0961  2.8124  1.5395
  786MOL0     H 8430   7.933   9.099   6.098  1.3869  1.7583  0.1425
  786MOL0     H 8431   8.047   9.160   6.308 -1.2197 -0.0474 -0.1878
  786MOL0     H 8432   8.267   9.259   6.395 -4.0796 -1.0466 -2.3763
  786MOL0     H 8433   8.171   9.186   6.523 -1.0148 -2.4297 -1.7561
  786MOL0     H 8434   8.489   9.190   6.508  0.6600 -3.6569  1.1235
  786MOL0     H 8435   8.396   9.318   6.587  1.1959 -0.1261  0.0118
  786MOL0     H 8436   8.392   9.027   6.651 -2.5556  0.8540 -2.8137
  786MOL0     H 8437   8.280   9.151   6.709  1.1230  2.2639 -1.3831
  786MOL0     H 8438   8.487   9.265   6.796 -4.5753 -0.6249  4.3518
  786MOL0     H 8439   8.588   9.126   6.731  0.5540 -1.2640  0.3808
  786MOL0     H 8440   8.356   9.108   6.933 -0.4452 -1.1027  0.6297
  786MOL0     H 8441   8.470   8.975   6.889 -0.0788  0.3936 -0.8368
  786MOL0     H 8442   8.495   9.054   7.121 -2.8683 -0.7004 -1.9323
  786MOL0     H 8443   8.538   9.222   7.045 -0.1414  0.2396 -1.3681
  786MOL0     H 8444   8.706   9.053   6.909 -0.3650 -1.4308  0.2876
  786MOL0     H 8445   8.693   8.947   7.046  0.3396  0.6247  1.7829
  786MOL0     H 8446   8.738   9.147   7.189  0.7102 -0.9886 -0.0337
  786MOL0     H 8447   8.755   9.249   7.061 -2.3218  0.7454  2.4050
  786MOL0     H 8448   8.307   8.822   6.286 -1.5297 -2.4843 -1.8680
  786MOL0     H 8449   8.167   8.730   6.108 -1.2551  0.3582  0.9135
  786MOL0     H 8450   7.796   8.692   5.937  0.1342  1.6180  1.2568
  786MOL0     H 8451   7.640   8.578   5.798  1.1153 -0.5122  1.2131
  786MOL0     H 8452   9.007   8.024   5.142 -1.3182 -1.3252  0.2681
  786MOL0     H 8453   9.195   8.172   5.104  0.8596 -1.2612 -0.6600
  786MOL0     H 8454   9.438   8.438   5.005  3.4918  2.3741  2.5683
  786MOL0     H 8455   9.624   8.589   4.997 -0.2992  0.9150  0.0756
  786MOL0     H 8456   9.893   8.710   4.658  1.5971  1.2490  2.0932
  786MOL0     H 8457   9.726   8.736   4.591 -1.6404  1.1318  1.5638
  786MOL0     H 8458   9.724   8.958   4.716 -0.6159 -1.2262  1.4810
  786MOL0     H 8459   9.879   8.964   4.630  0.2520  1.4873  0.0969
  786MOL0     H 8460   9.860   9.045   4.869 -0.4796  0.4037  1.2893
  786MOL0     H 8461   9.850   8.866   4.919  3.0138 -0.8653 -0.7459
  786MOL0     H 8462  10.062   8.833   4.824  1.7498  0.3975  0.3026
  786MOL0     H 8463  10.075   8.956   4.943  2.4807 -2.4578 -0.4008
  786MOL0     H 8464  10.188   9.201   4.625 -0.1623 -1.6468 -2.0128
  786MOL0     H 8465   9.616   8.573   4.569  1.1023  1.9395  0.8017
  786MOL0     H 8466   9.443   8.292   4.517  0.8928  0.0659 -1.7879
  786MOL0     H 8467   9.330   8.435   4.522  0.1617 -2.4707 -0.6764
  786MOL0     H 8468   9.491   8.440   4.447 -0.8019 -1.9306 -1.5184
  787MOL0     O 8469  11.144   6.025   4.450 -0.1943  0.0500 -0.1458
  787MOL0     C 8470  11.029   6.012   4.418  0.7865  0.8095 -0.3490
  787MOL0     O 8471  10.930   6.072   4.482  0.4454 -0.3676  0.3949
  787MOL0     C 8472  10.937   6.171   4.572  0.1475 -0.0226 -0.2056
  787MOL0     C 8473  11.028   6.178   4.673  0.1737 -0.3543 -0.1134
  787MOL0     C 8474  11.034   6.294   4.752  0.2286  0.9906 -0.1886
  787MOL0     C 8475  10.968   6.412   4.718  0.2667  0.3622  0.2815
  787MOL0     O 8476  10.999   6.530   4.774  0.5623 -0.4625 -0.2743
  787MOL0     C 8477  11.036   6.531   4.912 -0.6256  0.0357  0.1736
  787MOL0     C 8478  11.077   6.674   4.944  0.1538 -0.6798 -0.9410
  787MOL0     C 8479  11.142   6.678   5.085 -1.0446 -0.1786  0.1194
  787MOL0     C 8480  11.034   6.667   5.199  0.1893  0.4503 -0.1769
  787MOL0     C 8481  11.085   6.710   5.332 -0.4002  0.9502 -0.8580
  787MOL0     C 8482  11.194   6.617   5.387  1.2193  0.5181 -0.4132
  787MOL0     C 8483  11.159   6.463   5.370  0.2452  0.2307 -0.5760
  787MOL0     C 8484  11.039   6.421   5.455 -0.1217 -0.0906 -1.0658
  787MOL0     N 8485  11.065   6.437   5.604  0.2597  0.2971  0.2609
  787MOL0     C 8486  11.047   6.552   5.675  0.0488 -0.1193  0.0367
  787MOL0     C 8487  11.087   6.525   5.798 -0.6399 -0.3510  0.0595
  787MOL0     C 8488  11.072   6.620   5.915 -1.2108  0.3759  0.4814
  787MOL0     C 8489  11.170   6.740   5.916 -1.6463  0.7511 -0.5778
  787MOL0     C 8490  11.162   6.826   6.037 -1.0426 -0.0297  0.9834
  787MOL0     C 8491  11.272   6.935   6.035  0.1872  0.6976 -0.0944
  787MOL0     O 8492  11.378   6.879   6.111  0.0685 -0.1194 -0.3052
  787MOL0     C 8493  11.514   6.917   6.118  0.0001 -0.7607  0.3803
  787MOL0     C 8494  11.562   7.014   6.034  0.0845 -0.3068 -0.3585
  787MOL0     C 8495  11.693   7.050   6.029  0.2508  0.4235  0.4553
  787MOL0     C 8496  11.728   7.161   5.933  0.3647 -0.7625 -0.4755
  787MOL0     C 8497  11.790   6.981   6.106  0.0951 -0.3763 -0.5767
  787MOL0     C 8498  11.931   7.013   6.114 -0.2764  1.6765  0.0884
  787MOL0     O 8499  11.992   7.055   5.995  0.1818  0.8884 -0.2152
  787MOL0     C 8500  12.110   7.131   5.995 -0.6147 -0.4045  0.0560
  787MOL0     C 8501  12.172   7.195   6.109  0.7933  0.9336  0.6318
  787MOL0     C 8502  12.271   7.291   6.106 -0.4898  0.1858  0.4275
  787MOL0     C 8503  12.329   7.316   5.985  0.9194 -0.2803 -0.1165
  787MOL0     O 8504  12.423   7.416   5.988 -0.1737  0.9069 -0.3700
  787MOL0     C 8505  12.498   7.428   5.874  0.1929  0.2329 -0.5059
  787MOL0     C 8506  12.635   7.453   5.925 -0.4662  0.1752 -0.0808
  787MOL0     C 8507  12.746   7.490   5.825 -0.0237 -0.1831  0.4490
  787MOL0     C 8508  12.780   7.632   5.835 -0.2552 -0.1724  0.1409
  787MOL0     C 8509  12.903   7.666   5.745 -0.1001  0.6948  1.1958
  787MOL0     C 8510  13.027   7.573   5.757  0.3743 -0.2408 -0.7862
  787MOL0     C 8511  13.153   7.620   5.676  0.7199  0.0811  0.0507
  787MOL0     C 8512  13.198   7.761   5.704 -1.3450 -0.2073  1.1563
  787MOL0    Cl 8513  13.332   7.804   5.604  0.0317  0.2328 -0.0225
  787MOL0     C 8514  12.285   7.243   5.864  0.3855 -0.8369 -0.7941
  787MOL0     C 8515  12.173   7.155   5.873 -0.2058  0.6683  0.2682
  787MOL0     O 8516  11.983   7.002   6.225 -0.7542 -0.1546 -0.1312
  787MOL0     C 8517  11.745   6.875   6.199 -0.6169 -1.2207  0.0799
  787MOL0     C 8518  11.604   6.859   6.208 -0.6698 -0.6080 -0.4016
  787MOL0     N 8519  11.134   6.393   5.798 -0.0177  0.0651  0.4385
  787MOL0     N 8520  11.113   6.337   5.682 -0.0797  0.6532 -0.6759
  787MOL0     C 8521  10.871   6.407   4.616  0.9839 -0.2578  0.1348
  787MOL0     C 8522  10.863   6.291   4.543  0.3418 -0.1603  0.3760
  787MOL0     C 8523  10.996   5.909   4.312 -0.8491  0.4103 -0.9075
  787MOL0     C 8524  11.104   5.825   4.272  0.2861 -0.1462 -0.7804
  787MOL0     C 8525  11.100   5.731   4.176  0.6792  0.6267 -0.9768
  787MOL0     C 8526  10.968   5.689   4.133 -0.1885 -0.2806 -0.3081
  787MOL0     O 8527  10.943   5.583   4.044  0.2609 -0.4140  0.2232
  787MOL0     C 8528  11.037   5.478   4.021 -0.6452  0.0236 -0.3692
  787MOL0     C 8529  10.964   5.344   4.030 -0.0163  0.1219  0.2550
  787MOL0     C 8530  10.912   5.310   3.891  0.8833  0.4913  1.0582
  787MOL0     C 8531  10.867   5.163   3.879 -0.5200 -0.3764  0.2704
  787MOL0     C 8532  10.776   5.133   3.764 -0.6181 -0.9191  0.2544
  787MOL0     C 8533  10.716   5.100   3.666  0.2172 -0.0928  0.1214
  787MOL0     C 8534  10.860   5.771   4.171 -0.0997 -0.5838 -0.3394
  787MOL0     C 8535  10.869   5.874   4.261  0.3746  0.6732  0.1371
  787MOL0     C 8536  10.744   5.949   4.295  0.1039 -0.1903  0.7005
  787MOL0     H 8537  11.096   6.096   4.694  1.5940  0.8552  0.1683
  787MOL0     H 8538  11.101   6.290   4.837  0.7132 -0.4416 -0.6110
  787MOL0     H 8539  11.115   6.461   4.941  1.0781  1.7064 -0.2487
  787MOL0     H 8540  10.953   6.513   4.982 -1.9714 -2.4603 -1.8671
  787MOL0     H 8541  11.153   6.704   4.872  0.8145 -0.9955 -0.3836
  787MOL0     H 8542  10.990   6.741   4.944 -0.5198 -1.5057  0.5657
  787MOL0     H 8543  11.216   6.599   5.096 -0.1380  0.9746  3.3288
  787MOL0     H 8544  11.192   6.775   5.086 -0.1954 -0.5793 -1.0432
  787MOL0     H 8545  10.950   6.733   5.173 -0.1259  0.9645  2.0126
  787MOL0     H 8546  10.982   6.571   5.203 -0.3037  0.7329  0.2274
  787MOL0     H 8547  11.012   6.741   5.407  0.6449 -0.4356  0.7864
  787MOL0     H 8548  11.137   6.802   5.304  3.5928 -0.6316  0.5851
  787MOL0     H 8549  11.292   6.634   5.343  0.2712  2.2676 -2.0055
  787MOL0     H 8550  11.218   6.633   5.493  0.2355  1.7744 -0.3611
  787MOL0     H 8551  11.243   6.402   5.407 -0.0680  0.8935  1.3373
  787MOL0     H 8552  11.137   6.435   5.267  0.2471 -0.2126 -0.4605
  787MOL0     H 8553  10.952   6.476   5.420 -0.1987  1.4023  1.2425
  787MOL0     H 8554  11.026   6.313   5.446  1.9250 -0.6867  1.8129
  787MOL0     H 8555  10.999   6.644   5.643 -2.3802 -1.6386 -1.0419
  787MOL0     H 8556  11.078   6.563   6.008 -2.8870  0.2797  0.5721
  787MOL0     H 8557  10.969   6.659   5.911 -1.8500 -0.9337  2.5362
  787MOL0     H 8558  11.271   6.700   5.902 -0.9246  1.9857  0.8428
  787MOL0     H 8559  11.148   6.796   5.825 -1.4658 -0.3577 -1.3345
  787MOL0     H 8560  11.066   6.878   6.031 -0.5066  0.8784 -0.3080
  787MOL0     H 8561  11.169   6.772   6.131 -2.6851 -3.2553 -0.5795
  787MOL0     H 8562  11.295   6.961   5.931  0.6356  0.2912 -0.1013
  787MOL0     H 8563  11.222   7.022   6.078  0.7939  1.1698 -0.3324
  787MOL0     H 8564  11.498   7.062   5.961 -2.2298 -3.3168 -0.5072
  787MOL0     H 8565  11.774   7.117   5.844  0.2636 -0.3970 -0.7105
  787MOL0     H 8566  11.806   7.227   5.973  0.3811 -0.2956 -1.2594
  787MOL0     H 8567  11.647   7.230   5.911  0.3046 -0.2251  1.3209
  787MOL0     H 8568  12.134   7.172   6.208 -0.7297 -3.2352 -0.7107
  787MOL0     H 8569  12.308   7.354   6.186  1.2691  0.1503 -0.3288
  787MOL0     H 8570  12.513   7.336   5.816 -1.4526 -0.4436  0.1061
  787MOL0     H 8571  12.469   7.513   5.811 -1.2664  1.1261  1.2621
  787MOL0     H 8572  12.624   7.538   5.993 -2.5045  1.6906 -2.1264
  787MOL0     H 8573  12.676   7.375   5.990  3.1230  2.6031  0.8892
  787MOL0     H 8574  12.706   7.471   5.725 -0.4480  1.5240  0.2678
  787MOL0     H 8575  12.844   7.448   5.853  1.4609  2.1438 -0.8901
  787MOL0     H 8576  12.800   7.663   5.938  1.9936  0.2473 -0.3591
  787MOL0     H 8577  12.702   7.703   5.804 -0.1774 -0.6530 -1.2268
  787MOL0     H 8578  12.864   7.650   5.644  1.6772 -3.2389  0.9450
  787MOL0     H 8579  12.936   7.770   5.755  3.9701 -0.4459  1.2141
  787MOL0     H 8580  12.987   7.482   5.712 -2.6262  0.6674 -0.1439
  787MOL0     H 8581  13.056   7.554   5.861  2.5824 -3.3515 -1.8138
  787MOL0     H 8582  13.155   7.624   5.567  0.5267 -0.1924  0.0373
  787MOL0     H 8583  13.230   7.546   5.699  0.4148 -1.0035 -2.1607
  787MOL0     H 8584  13.228   7.777   5.808  0.5216  3.5499  0.2014
  787MOL0     H 8585  13.122   7.835   5.677 -0.5460  0.7124  1.4045
  787MOL0     H 8586  12.330   7.262   5.767  0.7686 -2.0794 -0.8730
  787MOL0     H 8587  12.139   7.117   5.777 -0.3744 -0.5700  0.7996
  787MOL0     H 8588  11.814   6.810   6.251 -0.6438 -1.1146  0.2481
  787MOL0     H 8589  11.564   6.785   6.277  0.3049  0.5441  1.4527
  787MOL0     H 8590  10.812   6.494   4.591  0.1449  0.4396  3.8856
  787MOL0     H 8591  10.778   6.309   4.479  0.5431  0.3702  0.2513
  787MOL0     H 8592  11.199   5.844   4.320 -0.6777 -0.7443  1.4827
  787MOL0     H 8593  11.183   5.671   4.139 -0.1258 -0.7687 -0.6181
  787MOL0     H 8594  11.104   5.472   3.935 -1.5011  1.7307 -1.1992
  787MOL0     H 8595  11.108   5.462   4.103 -2.6270 -0.0012  1.4281
  787MOL0     H 8596  10.895   5.341   4.116  1.9184 -0.3885  1.8607
  787MOL0     H 8597  11.042   5.268   4.036  2.4529  2.2683 -2.0103
  787MOL0     H 8598  10.830   5.378   3.869  1.5431  1.2383  0.8450
  787MOL0     H 8599  10.985   5.321   3.810  0.8676 -0.5322  0.8825
  787MOL0     H 8600  10.813   5.134   3.970 -0.2983 -0.4457  0.3806
  787MOL0     H 8601  10.962   5.109   3.870 -0.7674 -0.8155  0.2647
  787MOL0     H 8602  10.671   5.055   3.580  3.8271 -1.9508 -1.0113
  787MOL0     H 8603  10.758   5.747   4.141 -1.2530  1.1445  1.9284
  787MOL0     H 8604  10.657   5.905   4.245 -0.1739  1.9264 -0.8612
  787MOL0     H 8605  10.738   5.958   4.404 -0.3373  0.1641  0.6501
  787MOL0     H 8606  10.764   6.053   4.268  0.4462 -0.9347 -2.2640
  788MOL0     O 8607   9.972   5.524   1.651 -0.1796 -1.1093  0.2589
  788MOL0     C 8608  10.083   5.501   1.607  0.3167 -0.5477 -0.2521
  788MOL0     O 8609  10.185   5.589   1.594  0.5970 -0.7696  0.6492
  788MOL0     C 8610  10.169   5.713   1.654  0.2825  0.3958  0.5033
  788MOL0     C 8611  10.072   5.811   1.633  0.6981  0.3057 -0.5815
  788MOL0     C 8612  10.072   5.930   1.711  0.6677 -0.6280  0.3868
  788MOL0     C 8613  10.161   5.954   1.814 -0.4758 -0.1976 -0.4708
  788MOL0     O 8614  10.160   6.058   1.908 -1.4918  0.7149  0.1738
  788MOL0     C 8615  10.089   6.175   1.875 -0.5617  1.1586 -0.0856
  788MOL0     C 8616  10.111   6.276   1.983 -0.2342 -0.3569  0.4322
  788MOL0     C 8617  10.230   6.362   1.960 -0.7238 -0.1468 -0.5016
  788MOL0     C 8618  10.214   6.473   1.856  0.3399  0.7354  0.1201
  788MOL0     C 8619  10.352   6.512   1.798 -0.4349  0.2287 -0.1244
  788MOL0     C 8620  10.345   6.632   1.706 -0.2544 -1.2436 -0.5864
  788MOL0     C 8621  10.320   6.768   1.777 -0.5955 -0.1481  0.0692
  788MOL0     C 8622  10.458   6.818   1.846 -0.6482 -0.3743  0.7440
  788MOL0     N 8623  10.440   6.952   1.897  0.2719  0.3508 -0.4969
  788MOL0     C 8624  10.458   7.063   1.820  0.4889 -0.6739  0.0908
  788MOL0     C 8625  10.443   7.163   1.906  0.4365 -0.0279 -0.0131
  788MOL0     C 8626  10.473   7.307   1.890 -0.8738  0.4760 -0.3642
  788MOL0     C 8627  10.382   7.360   1.784  1.1300 -0.1295  0.3805
  788MOL0     C 8628  10.231   7.367   1.825  0.2033 -0.6529  0.3006
  788MOL0     C 8629  10.136   7.397   1.710  0.3175  1.0931  0.2370
  788MOL0     O 8630  10.135   7.537   1.693  0.0392  0.1565 -0.4554
  788MOL0     C 8631  10.074   7.590   1.588 -0.7145  0.4722  0.9046
  788MOL0     C 8632   9.977   7.524   1.508 -0.7972 -0.1775  0.1674
  788MOL0     C 8633   9.920   7.594   1.399 -0.7275 -0.4441  0.3581
  788MOL0     C 8634   9.818   7.507   1.315  0.2500 -0.0499  0.4080
  788MOL0     C 8635   9.952   7.732   1.374 -0.4513  0.4590  0.2005
  788MOL0     C 8636   9.889   7.816   1.271  0.4398  0.0062 -0.1523
  788MOL0     O 8637   9.873   7.951   1.297 -0.3594  0.7831  0.4466
  788MOL0     C 8638   9.822   8.018   1.187  0.6911  1.4065  0.2974
  788MOL0     C 8639   9.916   8.053   1.094  0.1926 -1.0058 -0.0126
  788MOL0     C 8640   9.878   8.120   0.972 -0.7337 -1.3837  0.5221
  788MOL0     C 8641   9.745   8.140   0.947 -0.0920  0.3829  0.2450
  788MOL0     O 8642   9.730   8.212   0.822  0.6559  0.4891 -0.1382
  788MOL0     C 8643   9.602   8.222   0.773 -0.3298  0.0218 -0.1082
  788MOL0     C 8644   9.592   8.275   0.622 -0.2300  0.9092 -0.3262
  788MOL0     C 8645   9.680   8.399   0.597 -0.2550 -0.4148 -0.1918
  788MOL0     C 8646   9.679   8.423   0.451 -0.1770 -0.0788  0.3730
  788MOL0     C 8647   9.776   8.530   0.410 -0.2452 -0.0891  0.6704
  788MOL0     C 8648   9.715   8.668   0.419 -0.1287  0.1230  1.1511
  788MOL0     C 8649   9.797   8.781   0.344 -0.6047  0.0432  0.4876
  788MOL0     C 8650   9.949   8.796   0.390  0.6321  1.4309  0.2630
  788MOL0    Cl 8651   9.958   8.827   0.563  0.6267 -0.5270 -0.5571
  788MOL0     C 8652   9.655   8.109   1.044  0.6424  0.8694  1.5551
  788MOL0     C 8653   9.692   8.052   1.163  0.2494  0.0057  1.6987
  788MOL0     O 8654   9.880   7.760   1.157  0.3436 -0.4287 -0.8365
  788MOL0     C 8655  10.042   7.803   1.463  0.1800 -0.0722  0.1083
  788MOL0     C 8656  10.099   7.725   1.561  0.2129 -0.5277 -0.6623
  788MOL0     N 8657  10.410   7.115   2.032  0.2487  0.5111  0.1799
  788MOL0     N 8658  10.417   6.988   2.025  0.5246 -0.5803 -0.1084
  788MOL0     C 8659  10.266   5.864   1.822 -0.2603 -0.6406  0.2472
  788MOL0     C 8660  10.265   5.747   1.749  0.9573  0.2161  0.7216
  788MOL0     C 8661  10.102   5.358   1.569  1.1281  0.0914  0.3629
  788MOL0     C 8662   9.999   5.290   1.493  0.0607 -0.8805 -1.0608
  788MOL0     C 8663  10.019   5.159   1.450 -0.3941  0.3830 -0.7739
  788MOL0     C 8664  10.139   5.091   1.479  0.2449  0.1336 -0.5886
  788MOL0     O 8665  10.164   4.971   1.412 -0.6094  0.2469  0.5927
  788MOL0     C 8666  10.133   4.864   1.495 -0.3200  0.0405  0.6918
  788MOL0     C 8667  10.155   4.733   1.432  0.9297  0.2992 -0.2693
  788MOL0     C 8668  10.146   4.611   1.533  0.0350 -0.3998 -0.1007
  788MOL0     C 8669  10.004   4.566   1.569 -0.7751  0.1120 -0.6053
  788MOL0     C 8670   9.962   4.620   1.699 -0.4413 -0.4472 -0.5563
  788MOL0     C 8671   9.916   4.672   1.806  0.2632  0.7717  0.2167
  788MOL0     C 8672  10.240   5.155   1.551 -0.3439  0.0691 -0.1050
  788MOL0     C 8673  10.220   5.286   1.599 -0.0440 -0.0197 -0.9062
  788MOL0     C 8674  10.335   5.340   1.686  0.6462 -0.8793  0.3866
  788MOL0     H 8675   9.985   5.813   1.568 -2.8953  3.1782  3.6965
  788MOL0     H 8676   9.996   6.006   1.694  2.5907  1.5825  1.0590
  788MOL0     H 8677   9.980   6.165   1.868 -0.2505 -4.0827 -1.4604
  788MOL0     H 8678  10.130   6.205   1.778  0.4959 -2.9097 -1.1102
  788MOL0     H 8679  10.018   6.332   1.995 -1.3119 -2.2949  1.8063
  788MOL0     H 8680  10.121   6.220   2.077 -0.6805  2.3688  2.2111
  788MOL0     H 8681  10.249   6.412   2.056  0.3216  0.4628 -1.0075
  788MOL0     H 8682  10.317   6.300   1.937 -0.5827 -1.1983  2.3918
  788MOL0     H 8683  10.148   6.427   1.783  2.9971 -2.5426 -0.4693
  788MOL0     H 8684  10.168   6.563   1.896  0.5805  1.1060 -0.4331
  788MOL0     H 8685  10.410   6.431   1.752  1.1996  0.9324  0.6216
  788MOL0     H 8686  10.421   6.540   1.877  1.1157 -0.1475 -1.3003
  788MOL0     H 8687  10.431   6.649   1.642 -1.0339  1.6704 -0.9992
  788MOL0     H 8688  10.256   6.615   1.645 -1.5711  0.7553  0.6514
  788MOL0     H 8689  10.239   6.765   1.850  1.6342 -0.7838  2.6859
  788MOL0     H 8690  10.290   6.845   1.705 -2.8196 -0.7060  0.3247
  788MOL0     H 8691  10.495   6.764   1.934 -0.1587  3.9848  3.5037
  788MOL0     H 8692  10.549   6.825   1.787 -1.5366  0.1513 -0.6229
  788MOL0     H 8693  10.500   7.064   1.720  1.6197 -0.2665  0.5495
  788MOL0     H 8694  10.574   7.310   1.849 -0.5002 -2.7158  0.0356
  788MOL0     H 8695  10.466   7.370   1.980  0.7243 -0.5282  0.5194
  788MOL0     H 8696  10.417   7.460   1.758  1.7151 -0.8856 -2.0538
  788MOL0     H 8697  10.381   7.299   1.693 -1.6863  0.3406  0.0291
  788MOL0     H 8698  10.203   7.276   1.878  1.4799 -2.0394 -1.2826
  788MOL0     H 8699  10.221   7.445   1.902  0.9596 -0.5384  0.2903
  788MOL0     H 8700  10.155   7.341   1.617 -0.0068  0.6122  0.4565
  788MOL0     H 8701  10.035   7.368   1.743  0.2059  2.2991  1.0139
  788MOL0     H 8702   9.944   7.422   1.526  1.2802 -1.0351 -0.6048
  788MOL0     H 8703   9.837   7.400   1.324  1.4138 -0.0100 -1.1467
  788MOL0     H 8704   9.829   7.532   1.209  2.1997 -0.0529  0.5746
  788MOL0     H 8705   9.717   7.537   1.344 -0.5937  1.6053 -3.5047
  788MOL0     H 8706  10.021   8.033   1.112  0.8988  1.1593 -1.3991
  788MOL0     H 8707   9.944   8.151   0.892 -0.9307 -2.2076  0.0252
  788MOL0     H 8708   9.565   8.119   0.776  2.6516 -1.1641  4.4887
  788MOL0     H 8709   9.542   8.294   0.829 -1.3484 -1.3923  0.6829
  788MOL0     H 8710   9.614   8.191   0.556 -1.5934  0.3370 -0.0871
  788MOL0     H 8711   9.489   8.307   0.605 -1.1321 -2.4947 -2.1944
  788MOL0     H 8712   9.776   8.385   0.647 -0.6463 -1.4392  0.2930
  788MOL0     H 8713   9.634   8.480   0.655  0.0224 -2.9024  3.9039
  788MOL0     H 8714   9.578   8.443   0.414  0.6191  1.0496 -1.3537
  788MOL0     H 8715   9.723   8.334   0.405 -0.9640 -0.1428 -0.2784
  788MOL0     H 8716   9.877   8.512   0.449  1.4438  2.7545 -1.8924
  788MOL0     H 8717   9.793   8.518   0.302 -1.8998  1.9882  0.1067
  788MOL0     H 8718   9.706   8.699   0.524  2.0488  1.3361  1.0392
  788MOL0     H 8719   9.619   8.661   0.368  0.7528  0.8537 -0.6787
  788MOL0     H 8720   9.736   8.872   0.351 -2.4835 -1.2374  1.7228
  788MOL0     H 8721   9.799   8.765   0.236 -1.6798 -0.3659  0.5125
  788MOL0     H 8722   9.990   8.885   0.344  0.7962  0.8182 -0.8025
  788MOL0     H 8723  10.014   8.713   0.362  0.2503  1.1905  0.0818
  788MOL0     H 8724   9.550   8.132   1.037  0.4562 -0.3559 -0.4576
  788MOL0     H 8725   9.620   8.020   1.238 -2.9188 -1.4473 -1.6460
  788MOL0     H 8726  10.085   7.901   1.450 -3.4278  1.6134 -0.5425
  788MOL0     H 8727  10.161   7.786   1.626 -2.9486  3.4456 -0.9654
  788MOL0     H 8728  10.348   5.874   1.893  1.3718  0.6177 -1.6830
  788MOL0     H 8729  10.340   5.669   1.758 -1.2646 -2.1634 -0.1524
  788MOL0     H 8730   9.914   5.355   1.472 -0.7064  0.0507  3.7922
  788MOL0     H 8731   9.935   5.106   1.406  0.5319 -1.1960 -0.7298
  788MOL0     H 8732  10.200   4.855   1.581  1.9498 -5.2284 -1.1877
  788MOL0     H 8733  10.027   4.871   1.524 -1.8563 -2.6850 -3.3310
  788MOL0     H 8734  10.259   4.729   1.398  0.7980 -1.4789 -0.5486
  788MOL0     H 8735  10.093   4.722   1.343  1.8748  0.0446 -0.9112
  788MOL0     H 8736  10.190   4.533   1.470 -2.6245 -0.8464 -1.5372
  788MOL0     H 8737  10.209   4.618   1.623  0.8874  2.0313 -0.8372
  788MOL0     H 8738  10.000   4.458   1.587 -3.0496  0.0166 -1.4698
  788MOL0     H 8739   9.932   4.594   1.491 -2.2616 -0.3790  0.5408
  788MOL0     H 8740   9.871   4.718   1.892 -1.3547 -0.8265  0.2990
  788MOL0     H 8741  10.324   5.097   1.589 -0.9964 -0.4318  0.5928
  788MOL0     H 8742  10.391   5.420   1.639 -1.9667 -0.3979 -2.1658
  788MOL0     H 8743  10.294   5.380   1.779 -1.1216  0.8849 -1.0647
  788MOL0     H 8744  10.412   5.264   1.707  0.3094 -1.2911  0.1430
  789MOL0     O 8745   1.210   2.654   9.847 -0.0168  0.4173  0.1214
  789MOL0     C 8746   1.254   2.767   9.837 -0.0970 -0.5365  0.5744
  789MOL0     O 8747   1.165   2.885   9.860 -0.7199  0.8869  0.4189
  789MOL0     C 8748   1.037   2.866   9.905  0.5603 -0.1455  0.6542
  789MOL0     C 8749   0.996   2.950  10.011 -0.2555 -0.4253  0.0136
  789MOL0     C 8750   0.855   2.957  10.040 -0.0853  0.2592  0.0255
  789MOL0     C 8751   0.772   2.889   9.955  0.7998 -0.2088  0.4105
  789MOL0     O 8752   0.637   2.910   9.967  0.1493  0.1427 -0.7449
  789MOL0     C 8753   0.588   3.042   9.954 -0.6775  0.1046  0.7288
  789MOL0     C 8754   0.439   3.052   9.985  1.1508 -0.3343  0.7722
  789MOL0     C 8755   0.341   2.991   9.883  0.8238 -0.0191 -0.3063
  789MOL0     C 8756   0.197   2.967   9.933  0.1643 -0.0646  0.2056
  789MOL0     C 8757   0.133   3.085  10.001  0.1127  0.2528 -0.1223
  789MOL0     C 8758  -0.005   3.044  10.067 -0.3590  0.0941 -0.2161
  789MOL0     C 8759  -0.057   3.155  10.154 -0.2254  0.8269  0.1022
  789MOL0     C 8760  -0.193   3.143  10.239 -0.2983  0.2527 -0.1927
  789MOL0     N 8761  -0.179   3.042  10.348  0.9956  0.0764 -0.6105
  789MOL0     C 8762  -0.199   2.906  10.328  1.0291  0.4443 -0.1434
  789MOL0     C 8763  -0.176   2.848  10.450 -1.1014 -0.1751 -0.3345
  789MOL0     C 8764  -0.173   2.704  10.482 -0.4298  1.2688  0.5218
  789MOL0     C 8765  -0.315   2.647  10.459 -0.0249  0.7058 -0.0420
  789MOL0     C 8766  -0.381   2.593  10.593 -0.0142  0.6778 -0.2444
  789MOL0     C 8767  -0.514   2.524  10.575 -0.6325  0.1375  0.3703
  789MOL0     O 8768  -0.530   2.461  10.448 -0.1762 -1.1039  0.0684
  789MOL0     C 8769  -0.651   2.395  10.436  0.5415  0.6163 -0.3630
  789MOL0     C 8770  -0.767   2.425  10.510 -0.3255  0.8462  0.9707
  789MOL0     C 8771  -0.892   2.358  10.498 -0.1663 -0.4225 -0.2038
  789MOL0     C 8772  -0.995   2.403  10.601 -0.1996  0.8846 -0.0627
  789MOL0     C 8773  -0.910   2.260  10.401  0.1549  0.5796 -0.6534
  789MOL0     C 8774  -1.038   2.199  10.360  0.5064 -0.2598 -0.3011
  789MOL0     O 8775  -1.064   2.191  10.226 -0.4529  0.0601 -0.3115
  789MOL0     C 8776  -1.188   2.166  10.182 -0.3655  0.4318  1.5831
  789MOL0     C 8777  -1.309   2.185  10.254  0.3031 -0.7075 -0.4689
  789MOL0     C 8778  -1.434   2.187  10.188  0.1296  0.2357 -0.6734
  789MOL0     C 8779  -1.430   2.140  10.049 -0.0987 -0.0843  0.1090
  789MOL0     O 8780  -1.547   2.126   9.981  0.4710 -0.2859  0.3156
  789MOL0     C 8781  -1.673   2.136  10.059 -0.0326  0.2899 -0.8533
  789MOL0     C 8782  -1.782   2.042  10.000 -1.0345  0.4637 -0.0779
  789MOL0     C 8783  -1.853   1.959  10.107 -0.6305  0.5950 -0.9505
  789MOL0     C 8784  -1.982   1.902  10.052 -0.5185  0.3024  0.5775
  789MOL0     C 8785  -2.033   1.786  10.131 -0.5509 -0.0068 -0.8772
  789MOL0     C 8786  -2.183   1.746  10.106 -1.0751  0.5514  0.8882
  789MOL0     C 8787  -2.226   1.629  10.198  0.1598  0.2887 -0.0935
  789MOL0     C 8788  -2.284   1.515  10.115  1.0247  0.0695 -0.8905
  789MOL0    Cl 8789  -2.167   1.436  10.018 -0.4353 -0.4698  0.3533
  789MOL0     C 8790  -1.312   2.103   9.987  0.2742  0.2130 -0.4381
  789MOL0     C 8791  -1.191   2.118  10.053  0.9837 -0.8661 -0.1544
  789MOL0     O 8792  -1.105   2.138  10.451  0.2150  0.2651 -0.0784
  789MOL0     C 8793  -0.802   2.242  10.306 -0.3247 -0.3521 -0.6585
  789MOL0     C 8794  -0.678   2.309  10.334 -0.7215 -0.2132 -0.5923
  789MOL0     N 8795  -0.152   2.961  10.543 -0.0346 -0.0554 -1.0461
  789MOL0     N 8796  -0.149   3.069  10.479 -0.2977  0.4640  0.4516
  789MOL0     C 8797   0.819   2.794   9.860  0.2571  0.2850  0.0194
  789MOL0     C 8798   0.950   2.775   9.845 -0.5178 -0.5142 -0.0443
  789MOL0     C 8799   1.394   2.794   9.818 -0.0828 -0.1215  0.1497
  789MOL0     C 8800   1.438   2.919   9.755 -0.0033  0.1649 -0.0773
  789MOL0     C 8801   1.573   2.949   9.729  0.0371 -1.2969 -0.0437
  789MOL0     C 8802   1.671   2.858   9.759  0.2691  0.4249  0.5141
  789MOL0     O 8803   1.795   2.893   9.703  0.2357  0.0979 -0.2600
  789MOL0     C 8804   1.919   2.822   9.742  0.6528  1.0099  0.4894
  789MOL0     C 8805   1.993   2.911   9.839  0.0789 -0.8658 -0.3429
  789MOL0     C 8806   2.137   2.872   9.862  0.8615 -1.2166  0.6583
  789MOL0     C 8807   2.141   2.770   9.980 -0.1456 -0.1199  0.6836
  789MOL0     C 8808   2.285   2.745  10.011  0.3024  1.2519 -0.2662
  789MOL0     C 8809   2.396   2.709  10.045 -0.0839  0.7196 -0.0104
  789MOL0     C 8810   1.631   2.731   9.804  0.9521  0.3049  0.4055
  789MOL0     C 8811   1.496   2.702   9.838 -0.7923 -1.1815  0.2399
  789MOL0     C 8812   1.472   2.574   9.912  0.5004  1.0878  0.4064
  789MOL0     H 8813   1.061   3.014  10.070 -0.3892 -0.7649  0.5340
  789MOL0     H 8814   0.828   3.024  10.120  1.3208  0.4132  0.3886
  789MOL0     H 8815   0.610   3.087   9.857 -0.6352  1.8975  1.5311
  789MOL0     H 8816   0.640   3.105  10.027 -1.2093 -1.4380  2.5260
  789MOL0     H 8817   0.426   3.005  10.082 -1.4407 -0.5658  0.3790
  789MOL0     H 8818   0.416   3.158   9.996 -0.8656 -0.3389 -2.1323
  789MOL0     H 8819   0.319   3.062   9.803  0.8531  0.5402  0.1818
  789MOL0     H 8820   0.373   2.895   9.841 -1.4395 -1.8426  1.8365
  789MOL0     H 8821   0.130   2.960   9.847  0.0581  1.1004  0.1673
  789MOL0     H 8822   0.195   2.878   9.996 -6.0454 -0.5915 -0.1178
  789MOL0     H 8823   0.116   3.172   9.936 -2.1730 -2.1851 -3.1059
  789MOL0     H 8824   0.191   3.137  10.078  0.8963  0.8293 -1.0745
  789MOL0     H 8825  -0.066   3.017   9.980  0.9794 -0.8735 -0.8974
  789MOL0     H 8826   0.008   2.956  10.130  2.0221  0.0311 -0.6987
  789MOL0     H 8827  -0.074   3.242  10.090 -2.7932  0.0703 -0.3794
  789MOL0     H 8828   0.023   3.187  10.221  1.5554 -2.5629 -0.2083
  789MOL0     H 8829  -0.198   3.244  10.281  1.1183 -0.5721  2.2289
  789MOL0     H 8830  -0.285   3.112  10.188 -0.1360 -3.7960  1.5384
  789MOL0     H 8831  -0.195   2.859  10.230  1.9127  2.6990 -1.2549
  789MOL0     H 8832  -0.139   2.701  10.586  2.9330  6.8150  0.0044
  789MOL0     H 8833  -0.087   2.657  10.433 -0.0852  0.4176  1.8698
  789MOL0     H 8834  -0.382   2.729  10.432  0.8380  1.7848  1.0179
  789MOL0     H 8835  -0.312   2.567  10.384 -0.5153  1.9355 -1.4194
  789MOL0     H 8836  -0.319   2.519  10.645 -2.9902 -1.5206  0.4695
  789MOL0     H 8837  -0.396   2.676  10.664 -0.1861 -0.1698  0.7364
  789MOL0     H 8838  -0.531   2.451  10.654 -1.0754  0.1288  0.2681
  789MOL0     H 8839  -0.578   2.611  10.592 -1.1922 -0.3149  0.6127
  789MOL0     H 8840  -0.763   2.508  10.580  0.5445  2.1998 -0.6074
  789MOL0     H 8841  -1.069   2.471  10.557  1.1005  0.8835 -2.4508
  789MOL0     H 8842  -0.950   2.449  10.689  1.2266 -1.5764  0.5745
  789MOL0     H 8843  -1.047   2.314  10.637 -2.1244  1.0970 -2.0854
  789MOL0     H 8844  -1.305   2.210  10.359 -1.1142 -2.0854 -0.0323
  789MOL0     H 8845  -1.520   2.210  10.248 -0.7622 -0.1870 -1.7466
  789MOL0     H 8846  -1.673   2.108  10.165 -1.0439  1.7833 -0.4376
  789MOL0     H 8847  -1.712   2.238  10.050 -0.0302  0.3041 -0.7009
  789MOL0     H 8848  -1.858   2.102   9.950 -2.2321  1.3723  2.6489
  789MOL0     H 8849  -1.722   1.981   9.931 -1.1415  1.9311 -1.5325
  789MOL0     H 8850  -1.873   2.022  10.194 -1.8286 -0.8607 -0.1376
  789MOL0     H 8851  -1.791   1.881  10.153  1.0132  1.4999 -1.5685
  789MOL0     H 8852  -1.978   1.880   9.945  0.5699  1.5398  0.3320
  789MOL0     H 8853  -2.063   1.974  10.036  0.1199  0.8318 -0.4591
  789MOL0     H 8854  -1.971   1.703  10.097 -0.5216  0.7331 -2.7796
  789MOL0     H 8855  -2.016   1.804  10.237  3.0070  3.3797 -1.8152
  789MOL0     H 8856  -2.190   1.712  10.002 -0.9527  0.1636  1.0072
  789MOL0     H 8857  -2.253   1.830  10.110 -2.7082 -0.7199  0.1780
  789MOL0     H 8858  -2.300   1.664  10.271 -0.5970  0.7799 -1.0756
  789MOL0     H 8859  -2.145   1.589  10.259  1.0783  2.4048  0.1376
  789MOL0     H 8860  -2.358   1.550  10.043 -0.9965 -3.3398 -0.7018
  789MOL0     H 8861  -2.332   1.430  10.164 -0.1299  0.4654 -1.2977
  789MOL0     H 8862  -1.311   2.055   9.889  1.1228  1.5514 -1.1094
  789MOL0     H 8863  -1.103   2.094   9.994  0.9626 -1.3644  0.0162
  789MOL0     H 8864  -0.800   2.193  10.210  0.6280 -0.3031 -0.6713
  789MOL0     H 8865  -0.589   2.307  10.271  0.1949 -2.0984  0.6675
  789MOL0     H 8866   0.757   2.734   9.795  0.5963  0.7451 -0.7317
  789MOL0     H 8867   0.990   2.716   9.764  0.3117 -0.2954  0.1901
  789MOL0     H 8868   1.378   3.008   9.743  2.7964  2.6544  2.6321
  789MOL0     H 8869   1.599   3.044   9.684 -0.6326 -1.4113 -0.6879
  789MOL0     H 8870   1.898   2.721   9.778 -0.8671  2.0174  2.5978
  789MOL0     H 8871   1.964   2.811   9.643  0.4610 -0.3652  0.5401
  789MOL0     H 8872   1.942   2.913   9.936  1.6247  0.8270  0.4847
  789MOL0     H 8873   2.004   3.011   9.796 -1.1298  0.4670  2.1640
  789MOL0     H 8874   2.181   2.838   9.767  0.7169  2.7021 -1.0106
  789MOL0     H 8875   2.191   2.965   9.886  0.9542 -1.2483  0.5747
  789MOL0     H 8876   2.083   2.683   9.947  0.6387  0.4204 -2.3541
  789MOL0     H 8877   2.091   2.806  10.071 -1.2854  1.2145 -0.4271
  789MOL0     H 8878   2.492   2.666  10.063 -0.7848 -0.1670  1.9047
  789MOL0     H 8879   1.711   2.659   9.818 -0.2284 -0.5637  3.8557
  789MOL0     H 8880   1.400   2.598   9.990  0.5510  2.5750  0.0259
  789MOL0     H 8881   1.449   2.499   9.836  0.7486  0.9863  0.4321
  789MOL0     H 8882   1.561   2.540   9.964 -0.1379 -0.0821  0.7631
  790MOL0     O 8883   4.070   7.357   2.530 -0.1765 -0.3136 -0.2482
  790MOL0     C 8884   4.078   7.402   2.646 -0.5076  0.9267  0.0068
  790MOL0     O 8885   3.969   7.448   2.731  0.6451 -0.0885  0.5988
  790MOL0     C 8886   3.848   7.461   2.672  0.3320  0.2851  0.0214
  790MOL0     C 8887   3.779   7.339   2.641  0.0205  0.1156  0.2074
  790MOL0     C 8888   3.657   7.342   2.574 -0.3727  0.1432  0.1469
  790MOL0     C 8889   3.589   7.465   2.550  1.4402 -0.7293  0.6135
  790MOL0     O 8890   3.464   7.469   2.491  0.0448  0.3380 -0.1108
  790MOL0     C 8891   3.400   7.598   2.495 -0.4508 -0.0879  0.4385
  790MOL0     C 8892   3.258   7.583   2.454  0.2248  0.1020  0.8124
  790MOL0     C 8893   3.253   7.546   2.308  0.4469  0.2573 -0.2441
  790MOL0     C 8894   3.263   7.664   2.210 -0.2658 -0.1095 -0.1739
  790MOL0     C 8895   3.243   7.620   2.064  0.6364  0.7803 -0.7963
  790MOL0     C 8896   3.366   7.565   2.002  0.6876  0.2372 -0.3769
  790MOL0     C 8897   3.349   7.562   1.844 -0.9364 -0.2153  0.1687
  790MOL0     C 8898   3.462   7.469   1.787 -0.2346  0.1602 -0.2435
  790MOL0     N 8899   3.441   7.473   1.640  0.4134  0.0154 -0.5512
  790MOL0     C 8900   3.495   7.540   1.538 -0.0576 -0.3109 -0.1752
  790MOL0     C 8901   3.443   7.498   1.423 -0.6198 -0.5388 -0.4342
  790MOL0     C 8902   3.489   7.540   1.286 -0.1957  0.0794 -0.6184
  790MOL0     C 8903   3.433   7.468   1.169  0.4454  0.0828 -0.9028
  790MOL0     C 8904   3.314   7.543   1.098  0.2430  0.4203  0.1131
  790MOL0     C 8905   3.324   7.545   0.949 -0.0394 -0.9805  0.2404
  790MOL0     O 8906   3.325   7.417   0.898 -0.5516  0.4642 -0.2145
  790MOL0     C 8907   3.413   7.409   0.792  0.1794  0.1098 -0.2798
  790MOL0     C 8908   3.529   7.333   0.802  0.1408 -1.1223 -0.4479
  790MOL0     C 8909   3.621   7.333   0.703  0.7950  0.6224  0.5331
  790MOL0     C 8910   3.731   7.227   0.715 -0.1232 -0.2091  0.1451
  790MOL0     C 8911   3.605   7.419   0.585  0.5853 -0.7151 -0.3801
  790MOL0     C 8912   3.684   7.422   0.462  0.6227 -0.0424 -0.0674
  790MOL0     O 8913   3.769   7.316   0.457 -0.4987  0.1571 -0.4055
  790MOL0     C 8914   3.859   7.311   0.354  0.1743 -0.4620  0.6054
  790MOL0     C 8915   3.908   7.413   0.268  0.8393  1.5119 -0.2461
  790MOL0     C 8916   3.995   7.386   0.164 -0.1386 -0.5905 -0.6439
  790MOL0     C 8917   4.044   7.259   0.147  0.2402  0.0374  0.0499
  790MOL0     O 8918   4.129   7.245   0.033 -0.2042  0.4534 -0.4691
  790MOL0     C 8919   4.217   7.134   0.041 -0.2028 -0.3796  0.0217
  790MOL0     C 8920   4.368   7.163   0.003  0.6734 -0.8487  0.2842
  790MOL0     C 8921   4.388   7.227  -0.137  0.3977  0.0281  0.4871
  790MOL0     C 8922   4.531   7.290  -0.146 -0.0354 -0.5870 -0.5082
  790MOL0     C 8923   4.527   7.414  -0.244  0.0835 -0.0985 -0.9069
  790MOL0     C 8924   4.513   7.377  -0.389 -0.6553 -1.1524 -0.7700
  790MOL0     C 8925   4.520   7.495  -0.489 -0.7073 -0.3365 -0.0546
  790MOL0     C 8926   4.518   7.455  -0.639  0.7312 -0.5630 -0.5656
  790MOL0    Cl 8927   4.656   7.358  -0.669  0.0974 -0.4578 -0.7087
  790MOL0     C 8928   4.002   7.160   0.222  0.4894  0.3378 -0.7020
  790MOL0     C 8929   3.918   7.185   0.330  0.6681 -0.2623  0.3454
  790MOL0     O 8930   3.656   7.496   0.371  0.6253  0.5050 -0.6092
  790MOL0     C 8931   3.491   7.507   0.585 -0.0466  0.0318 -0.1819
  790MOL0     C 8932   3.396   7.502   0.683 -0.7002 -0.9611 -0.7130
  790MOL0     N 8933   3.353   7.397   1.456 -0.4967 -0.2224 -0.4473
  790MOL0     N 8934   3.349   7.380   1.585 -1.1025 -0.1541  0.2735
  790MOL0     C 8935   3.657   7.581   2.581  0.8788  0.0094 -0.3663
  790MOL0     C 8936   3.790   7.575   2.642 -1.0999 -0.5641  0.0175
  790MOL0     C 8937   4.222   7.409   2.706 -0.1105  0.2220  0.7124
  790MOL0     C 8938   4.223   7.451   2.837 -0.3103 -1.0592  0.2459
  790MOL0     C 8939   4.344   7.483   2.901 -0.0769  0.1441 -0.0494
  790MOL0     C 8940   4.462   7.474   2.838 -0.0326  0.8539 -0.4609
  790MOL0     O 8941   4.579   7.484   2.923  0.2581 -0.0175  0.8772
  790MOL0     C 8942   4.697   7.551   2.858 -0.2508  0.2570 -0.1758
  790MOL0     C 8943   4.713   7.700   2.909 -0.7781  0.9872  0.1249
  790MOL0     C 8944   4.727   7.708   3.063  0.4678  0.4417 -0.6597
  790MOL0     C 8945   4.864   7.690   3.119 -0.3618  0.7189 -0.3718
  790MOL0     C 8946   4.867   7.642   3.266 -0.7329  0.8362  0.7583
  790MOL0     C 8947   4.890   7.579   3.450 -0.1358  0.1026  0.4798
  790MOL0     C 8948   4.469   7.427   2.709  0.8235  0.0721 -0.1057
  790MOL0     C 8949   4.352   7.394   2.641 -0.5292 -0.0943 -0.7834
  790MOL0     C 8950   4.371   7.320   2.515  0.5499  1.2219 -0.2790
  790MOL0     H 8951   3.814   7.240   2.667 -1.5613 -0.0441  1.8416
  790MOL0     H 8952   3.601   7.255   2.541 -1.4757 -0.6105  3.6421
  790MOL0     H 8953   3.453   7.670   2.431 -0.5140 -0.1507  0.3163
  790MOL0     H 8954   3.390   7.622   2.601 -1.1857 -1.5657  0.7289
  790MOL0     H 8955   3.213   7.505   2.515 -3.9353 -1.0332 -3.2080
  790MOL0     H 8956   3.201   7.675   2.476 -1.7922  0.2671 -4.0071
  790MOL0     H 8957   3.321   7.464   2.284  0.7318  0.6976 -0.9818
  790MOL0     H 8958   3.157   7.498   2.287  0.7520 -0.4819  0.0331
  790MOL0     H 8959   3.180   7.731   2.230 -0.7842 -0.7799 -0.0280
  790MOL0     H 8960   3.362   7.709   2.223 -1.5677  2.4647  1.7411
  790MOL0     H 8961   3.215   7.715   2.017 -2.9017 -0.3542 -1.3086
  790MOL0     H 8962   3.153   7.558   2.055  0.2724  0.7009  2.1345
  790MOL0     H 8963   3.439   7.643   2.025 -1.2373  2.8433 -2.4784
  790MOL0     H 8964   3.403   7.468   2.039  0.7549  1.3349  2.7701
  790MOL0     H 8965   3.368   7.665   1.814  1.0668 -0.6889 -0.3307
  790MOL0     H 8966   3.254   7.513   1.821  0.9879 -2.7424 -3.2348
  790MOL0     H 8967   3.569   7.490   1.797  0.2642  0.1836 -4.1968
  790MOL0     H 8968   3.444   7.372   1.834 -1.8826  0.4801 -0.1463
  790MOL0     H 8969   3.579   7.606   1.557  0.8718 -0.8852 -2.0571
  790MOL0     H 8970   3.597   7.531   1.277 -0.4064 -1.0930 -2.4028
  790MOL0     H 8971   3.471   7.647   1.272  1.7660  0.6852  1.0054
  790MOL0     H 8972   3.510   7.452   1.093 -0.8293  1.8716 -2.6742
  790MOL0     H 8973   3.396   7.371   1.203 -1.8692  1.6106  1.3133
  790MOL0     H 8974   3.220   7.501   1.133 -0.5076  0.8671 -1.3020
  790MOL0     H 8975   3.318   7.650   1.123  1.4265  0.0448  1.7523
  790MOL0     H 8976   3.232   7.599   0.922 -0.1231 -0.2969  1.8056
  790MOL0     H 8977   3.414   7.597   0.914  1.1855 -1.2962  2.7059
  790MOL0     H 8978   3.550   7.282   0.895  0.9558 -1.2605 -0.7015
  790MOL0     H 8979   3.832   7.268   0.728 -0.5779  0.6284  1.2465
  790MOL0     H 8980   3.742   7.158   0.631  4.2004  2.7210 -2.0903
  790MOL0     H 8981   3.728   7.170   0.809  1.7794  1.8422  1.5673
  790MOL0     H 8982   3.886   7.516   0.290  0.1943  2.3043 -3.9543
  790MOL0     H 8983   4.047   7.462   0.107  2.4426 -0.5219  1.5871
  790MOL0     H 8984   4.211   7.087   0.139 -2.4055 -0.5283 -0.1170
  790MOL0     H 8985   4.182   7.056  -0.028 -4.2364 -0.3027  1.6797
  790MOL0     H 8986   4.391   7.238   0.079  1.0530 -0.7785  0.1012
  790MOL0     H 8987   4.432   7.076   0.019  1.5498 -0.4542 -0.9553
  790MOL0     H 8988   4.322   7.313  -0.150 -0.4337 -0.9338 -2.4133
  790MOL0     H 8989   4.381   7.152  -0.217  0.1333  1.8431 -1.2470
  790MOL0     H 8990   4.612   7.221  -0.174  0.5776  0.2035 -0.7251
  790MOL0     H 8991   4.564   7.327  -0.049  1.9089 -0.0664 -1.3197
  790MOL0     H 8992   4.457   7.493  -0.218  0.3582 -0.5260  1.2989
  790MOL0     H 8993   4.624   7.463  -0.233 -0.7667  1.3249  0.6282
  790MOL0     H 8994   4.417   7.330  -0.411 -1.7212 -0.4818  2.0186
  790MOL0     H 8995   4.579   7.290  -0.393  0.6340 -0.5371  2.8098
  790MOL0     H 8996   4.613   7.552  -0.474 -0.5531 -0.1393 -1.5778
  790MOL0     H 8997   4.435   7.562  -0.480 -1.4000 -1.1548 -0.3974
  790MOL0     H 8998   4.524   7.539  -0.710 -1.5723 -1.2660 -1.6868
  790MOL0     H 8999   4.424   7.406  -0.666 -1.4008  2.7898  0.0960
  790MOL0     H 9000   4.024   7.053   0.215  0.0278  0.1169  0.8164
  790MOL0     H 9001   3.890   7.098   0.389 -5.6915  1.1050  0.1303
  790MOL0     H 9002   3.472   7.590   0.517 -1.8069 -0.5017 -0.3865
  790MOL0     H 9003   3.310   7.567   0.682 -0.1279 -0.1901 -1.0258
  790MOL0     H 9004   3.612   7.675   2.551  0.8017  0.0663 -0.0766
  790MOL0     H 9005   3.834   7.674   2.654  0.9060 -1.5261  0.9464
  790MOL0     H 9006   4.136   7.472   2.898  1.6090  3.7596  1.8149
  790MOL0     H 9007   4.350   7.511   3.005  0.9242  1.8573 -0.5317
  790MOL0     H 9008   4.786   7.499   2.894 -0.0544  2.1016  2.2770
  790MOL0     H 9009   4.688   7.549   2.749 -0.6710  1.8566 -0.1929
  790MOL0     H 9010   4.633   7.766   2.874 -1.5747 -1.9716 -4.5461
  790MOL0     H 9011   4.796   7.750   2.857 -1.1492  1.5102  0.0287
  790MOL0     H 9012   4.694   7.809   3.086 -1.3448 -0.4774  1.0803
  790MOL0     H 9013   4.652   7.649   3.117  0.9305  2.8894  2.9927
  790MOL0     H 9014   4.921   7.783   3.106 -2.0756  1.8898  0.1004
  790MOL0     H 9015   4.926   7.616   3.067 -1.3102  1.1320 -2.2058
  790MOL0     H 9016   4.888   7.543   3.550 -0.2301 -1.8707 -0.1817
  790MOL0     H 9017   4.566   7.405   2.665  1.0510 -2.4715  1.4531
  790MOL0     H 9018   4.310   7.361   2.434 -3.3478 -1.1610  1.1587
  790MOL0     H 9019   4.476   7.323   2.483  0.4831 -0.6320 -0.7948
  790MOL0     H 9020   4.342   7.215   2.527  0.0546  1.4264  0.3621
  791MOL0     O 9021   9.731  11.427   8.787  0.4880 -0.8479  0.6181
  791MOL0     C 9022   9.647  11.354   8.747  0.7153  0.4478  0.4798
  791MOL0     O 9023   9.657  11.221   8.756  0.1047 -0.7856  0.3396
  791MOL0     C 9024   9.744  11.142   8.832 -0.1604 -0.9512  0.1750
  791MOL0     C 9025   9.851  11.188   8.913 -0.4934  0.5651 -0.2411
  791MOL0     C 9026   9.933  11.098   8.978 -0.6667  0.0292  0.0583
  791MOL0     C 9027   9.894  10.962   8.982  0.5703  0.8314  0.0532
  791MOL0     O 9028   9.942  10.873   9.072 -0.0189 -0.2667  0.6131
  791MOL0     C 9029   9.979  10.916   9.205 -0.1491 -0.6320  0.3663
  791MOL0     C 9030  10.020  10.793   9.290  0.2156  0.1871 -0.0785
  791MOL0     C 9031  10.164  10.756   9.283  0.7040 -0.0970  0.2290
  791MOL0     C 9032  10.188  10.677   9.161 -0.9406 -0.0364 -0.7100
  791MOL0     C 9033  10.331  10.626   9.148  0.0821 -0.1562  0.4401
  791MOL0     C 9034  10.427  10.742   9.182 -1.1289 -0.6742  0.9108
  791MOL0     C 9035  10.580  10.721   9.152  0.1118  0.3479 -0.0457
  791MOL0     C 9036  10.663  10.646   9.258  0.7662  0.3690  0.0980
  791MOL0     N 9037  10.661  10.716   9.392  0.4204 -0.9221 -0.9964
  791MOL0     C 9038  10.742  10.816   9.433 -0.6928 -0.2696 -0.3406
  791MOL0     C 9039  10.705  10.841   9.561  0.3399  0.4035  0.0229
  791MOL0     C 9040  10.776  10.940   9.646 -0.1882  0.2787 -0.3224
  791MOL0     C 9041  10.761  10.900   9.797  0.2092 -0.0281  0.2366
  791MOL0     C 9042  10.820  11.024   9.866 -1.4554 -0.5054 -0.3965
  791MOL0     C 9043  10.733  11.134   9.922  0.0781  0.7649  0.5080
  791MOL0     O 9044  10.817  11.238   9.979 -0.3043 -0.2668  0.8810
  791MOL0     C 9045  10.858  11.337   9.896 -0.7928  0.5118  0.5718
  791MOL0     C 9046  10.940  11.427   9.961  0.1003  0.1065 -0.0330
  791MOL0     C 9047  10.999  11.537   9.894 -0.2949 -0.7444 -0.9358
  791MOL0     C 9048  11.079  11.629   9.986 -0.3369 -0.0653 -0.1742
  791MOL0     C 9049  10.970  11.566   9.758  0.5247  0.0982  0.8835
  791MOL0     C 9050  11.018  11.676   9.674 -0.8538 -0.1702 -0.2287
  791MOL0     O 9051  10.957  11.696   9.550  0.3109  0.1846  0.2224
  791MOL0     C 9052  10.990  11.793   9.469 -0.5221 -1.3203  0.2620
  791MOL0     C 9053  10.897  11.848   9.380 -0.0686 -1.1338 -1.1582
  791MOL0     C 9054  10.926  11.951   9.295 -0.2148 -0.0364  0.1278
  791MOL0     C 9055  11.058  11.983   9.278  0.3832 -0.1796  0.0328
  791MOL0     O 9056  11.085  12.078   9.181  0.6178  0.4477 -0.0168
  791MOL0     C 9057  11.190  12.167   9.220  0.9141  0.3064 -0.4805
  791MOL0     C 9058  11.188  12.268   9.094  0.3504 -0.1201 -0.0516
  791MOL0     C 9059  11.098  12.386   9.116 -0.2426 -1.0420 -0.1321
  791MOL0     C 9060  11.094  12.468   8.987  0.9297 -0.5145  0.4819
  791MOL0     C 9061  10.988  12.590   8.993 -0.3661 -0.4098  0.0857
  791MOL0     C 9062  10.919  12.606   8.868 -0.2791 -0.7448  0.4641
  791MOL0     C 9063  10.815  12.718   8.855 -0.3825 -0.9795 -0.8335
  791MOL0     C 9064  10.863  12.854   8.908  0.0482  0.2549  0.6216
  791MOL0    Cl 9065  10.743  12.977   8.843 -0.2258  0.0152 -0.1629
  791MOL0     C 9066  11.156  11.920   9.348  0.4484 -0.6765  0.8805
  791MOL0     C 9067  11.123  11.834   9.457 -0.2430 -0.1119  0.4561
  791MOL0     O 9068  11.092  11.752   9.732  0.4838 -0.5655 -0.4544
  791MOL0     C 9069  10.877  11.476   9.690 -0.9210  1.2256 -0.1591
  791MOL0     C 9070  10.830  11.360   9.761 -1.0265  0.0533 -0.6574
  791MOL0     N 9071  10.595  10.762   9.587 -0.2942  0.2066 -0.1007
  791MOL0     N 9072  10.571  10.674   9.490 -0.2317  0.4663 -0.6594
  791MOL0     C 9073   9.803  10.910   8.887  0.4745 -0.4222 -0.5158
  791MOL0     C 9074   9.723  11.001   8.820  0.2534  0.1728  0.2522
  791MOL0     C 9075   9.521  11.421   8.699 -0.1795 -0.1954  0.4251
  791MOL0     C 9076   9.409  11.339   8.699  0.1338 -0.0129 -0.4691
  791MOL0     C 9077   9.281  11.383   8.657  0.3254 -0.2792  0.0160
  791MOL0     C 9078   9.264  11.519   8.620  0.4988 -1.0252  1.0125
  791MOL0     O 9079   9.131  11.569   8.623  0.1357 -0.2935  0.0340
  791MOL0     C 9080   9.102  11.716   8.639 -0.2669  0.2815  0.1973
  791MOL0     C 9081   8.950  11.752   8.624  0.6209  0.8980  0.5746
  791MOL0     C 9082   8.914  11.720   8.476 -0.7854 -0.1571 -0.2918
  791MOL0     C 9083   8.777  11.785   8.442 -0.2989 -0.2329  0.9292
  791MOL0     C 9084   8.736  11.744   8.303 -0.7998  0.8444  0.7358
  791MOL0     C 9085   8.744  11.714   8.186 -0.0279 -0.7007  0.0177
  791MOL0     C 9086   9.376  11.607   8.618 -0.3466  0.3581  0.4456
  791MOL0     C 9087   9.506  11.555   8.648  0.2746 -0.7353  0.3525
  791MOL0     C 9088   9.616  11.661   8.638 -0.4829 -0.2712 -0.2983
  791MOL0     H 9089   9.861  11.295   8.927  0.5182  0.2709  1.6339
  791MOL0     H 9090  10.008  11.133   9.049  0.5118 -0.3635 -0.9641
  791MOL0     H 9091   9.894  10.964   9.253  0.1717  1.5465 -1.1274
  791MOL0     H 9092  10.064  10.985   9.214  2.0055 -2.9083 -0.9870
  791MOL0     H 9093   9.991  10.818   9.393 -2.2040 -2.0432 -0.1328
  791MOL0     H 9094   9.960  10.706   9.265  1.3891 -1.2307  1.7968
  791MOL0     H 9095  10.216  10.851   9.296  0.2249  0.6273 -2.5253
  791MOL0     H 9096  10.185  10.700   9.374 -0.5163 -0.7247  0.1497
  791MOL0     H 9097  10.130  10.584   9.155  0.2033 -0.8764  0.6881
  791MOL0     H 9098  10.163  10.731   9.069 -1.3610  0.4097 -0.3414
  791MOL0     H 9099  10.353  10.579   9.052 -1.9594 -1.7657  0.6883
  791MOL0     H 9100  10.335  10.540   9.216 -1.8605 -0.6561  0.0029
  791MOL0     H 9101  10.393  10.822   9.116 -0.4588  0.0115  1.3897
  791MOL0     H 9102  10.419  10.772   9.287 -1.4712  0.3959  0.5931
  791MOL0     H 9103  10.631  10.817   9.135 -0.7453  0.7824 -0.2124
  791MOL0     H 9104  10.589  10.673   9.054  3.7650  0.9170 -0.1482
  791MOL0     H 9105  10.626  10.543   9.266  2.4728 -0.3107 -0.1741
  791MOL0     H 9106  10.762  10.641   9.212 -0.9710 -2.6139 -3.9579
  791MOL0     H 9107  10.810  10.857   9.359 -1.3922  2.1464  0.2797
  791MOL0     H 9108  10.722  11.034   9.630  0.8390  0.9984  0.3624
  791MOL0     H 9109  10.882  10.949   9.621 -0.3155  0.5517 -0.7740
  791MOL0     H 9110  10.656  10.890   9.828 -0.5531  2.1784 -1.3224
  791MOL0     H 9111  10.824  10.812   9.808 -0.0427  0.0323  3.0182
  791MOL0     H 9112  10.874  10.980   9.950 -0.4088 -0.0070 -0.7897
  791MOL0     H 9113  10.888  11.071   9.795 -0.8196 -2.4338 -1.1391
  791MOL0     H 9114  10.652  11.160   9.854  1.0081  1.8723 -0.2043
  791MOL0     H 9115  10.693  11.083  10.011 -3.9143 -2.9122 -2.9099
  791MOL0     H 9116  10.964  11.418  10.066 -1.2731  0.2812  0.3152
  791MOL0     H 9117  11.021  11.704  10.040 -0.4158 -0.3978  0.2075
  791MOL0     H 9118  11.164  11.674   9.933  0.8160 -2.9366 -0.9536
  791MOL0     H 9119  11.125  11.572  10.067 -0.5990  2.1645  1.6511
  791MOL0     H 9120  10.794  11.818   9.392 -1.4052  3.1054 -0.1084
  791MOL0     H 9121  10.846  11.992   9.233  2.2914  1.5120 -2.3643
  791MOL0     H 9122  11.173  12.218   9.315 -0.3273  2.6195 -1.8343
  791MOL0     H 9123  11.287  12.119   9.202  1.0035  0.0423  0.6633
  791MOL0     H 9124  11.287  12.312   9.094  0.4453 -0.3319  0.0247
  791MOL0     H 9125  11.161  12.223   8.997 -0.1357  3.4246 -1.7259
  791MOL0     H 9126  11.127  12.448   9.202  0.2616  0.8296 -1.5989
  791MOL0     H 9127  10.998  12.346   9.138 -0.0855 -2.0124 -1.1304
  791MOL0     H 9128  11.065  12.400   8.906 -0.8195  1.9104 -1.0545
  791MOL0     H 9129  11.194  12.513   8.976  0.7108  0.1260  1.0359
  791MOL0     H 9130  10.916  12.576   9.074 -0.8639  0.1809 -0.2448
  791MOL0     H 9131  11.039  12.683   9.017 -1.7274  0.2278  0.6609
  791MOL0     H 9132  10.870  12.513   8.837 -1.3576  0.6211 -2.2263
  791MOL0     H 9133  10.998  12.617   8.792  0.0122 -1.3427  0.6723
  791MOL0     H 9134  10.723  12.695   8.909  0.0139  0.6417  0.6208
  791MOL0     H 9135  10.802  12.724   8.747 -0.1835  1.0435 -0.7804
  791MOL0     H 9136  10.963  12.877   8.872 -0.7522  0.3349 -1.7201
  791MOL0     H 9137  10.855  12.864   9.017  2.2099  2.7144  0.6434
  791MOL0     H 9138  11.260  11.946   9.333  0.3748 -1.0038 -0.3035
  791MOL0     H 9139  11.201  11.786   9.516  0.8072 -0.2339 -0.9717
  791MOL0     H 9140  10.842  11.487   9.587 -3.1000  0.4129  0.4538
  791MOL0     H 9141  10.769  11.285   9.712  2.3899 -2.7793 -0.9701
  791MOL0     H 9142   9.778  10.804   8.890 -2.6272  0.2219  1.6676
  791MOL0     H 9143   9.649  10.962   8.751  0.7864 -2.8654  1.2499
  791MOL0     H 9144   9.417  11.239   8.739  1.5101  0.3306  0.1829
  791MOL0     H 9145   9.197  11.314   8.661  0.9458 -1.0979 -0.7417
  791MOL0     H 9146   9.144  11.758   8.730  0.3085  0.7869 -0.2931
  791MOL0     H 9147   9.157  11.772   8.562  2.1868 -3.6188 -1.1880
  791MOL0     H 9148   8.917  11.849   8.663  1.3581  1.4785 -0.2016
  791MOL0     H 9149   8.896  11.682   8.689  1.7061 -0.4475  0.0927
  791MOL0     H 9150   8.986  11.775   8.415 -0.6824  0.4471  0.3622
  791MOL0     H 9151   8.907  11.614   8.453 -2.3464  0.2681 -2.0583
  791MOL0     H 9152   8.791  11.893   8.436  3.2494 -0.6434 -0.2979
  791MOL0     H 9153   8.695  11.756   8.509  1.8869 -3.5961  2.4119
  791MOL0     H 9154   8.752  11.696   8.080 -2.0121  1.6311 -0.6077
  791MOL0     H 9155   9.367  11.711   8.588 -2.2538 -0.7970 -3.7428
  791MOL0     H 9156   9.698  11.619   8.579 -0.6855 -0.2156 -0.6255
  791MOL0     H 9157   9.579  11.756   8.597  1.9895  1.5341  1.3853
  791MOL0     H 9158   9.655  11.682   8.738 -1.6044 -0.3764  0.1804
  792MOL0     O 9159   5.489   4.272   5.121 -0.2122  0.5543  0.0136
  792MOL0     C 9160   5.506   4.154   5.152 -0.6526  0.4148  0.6383
  792MOL0     O 9161   5.406   4.071   5.213  0.5373  0.1128  0.6012
  792MOL0     C 9162   5.274   4.117   5.207 -0.7184  0.3671  0.2141
  792MOL0     C 9163   5.208   4.185   5.100 -0.7697 -0.1096 -0.8648
  792MOL0     C 9164   5.072   4.218   5.111 -0.0094  0.1731 -0.4619
  792MOL0     C 9165   5.002   4.200   5.228  0.3235  0.1154  0.4552
  792MOL0     O 9166   4.874   4.239   5.229 -0.3073  0.4864  0.0955
  792MOL0     C 9167   4.802   4.288   5.346 -1.6320 -0.3904  0.5366
  792MOL0     C 9168   4.840   4.435   5.382 -0.8665  0.4168  0.5160
  792MOL0     C 9169   4.770   4.485   5.507 -0.0207  0.1179 -0.7196
  792MOL0     C 9170   4.839   4.446   5.640  0.6015  1.1926 -0.5937
  792MOL0     C 9171   4.788   4.528   5.762  0.7351 -0.1217  0.9783
  792MOL0     C 9172   4.635   4.504   5.781 -0.2864  0.4061  0.7055
  792MOL0     C 9173   4.574   4.556   5.916  1.3506  0.3601 -0.2160
  792MOL0     C 9174   4.609   4.473   6.042  0.1910 -1.1098 -1.5625
  792MOL0     N 9175   4.687   4.556   6.134  0.8061  1.1263 -1.5530
  792MOL0     C 9176   4.643   4.665   6.204 -0.2345 -0.2918 -0.2343
  792MOL0     C 9177   4.757   4.700   6.266 -1.3166 -0.1014  0.9350
  792MOL0     C 9178   4.759   4.807   6.359  0.4109 -0.1625 -0.1792
  792MOL0     C 9179   4.850   4.922   6.311  0.6939  0.8387 -0.2850
  792MOL0     C 9180   4.799   4.995   6.186 -0.0984 -0.4754  0.7901
  792MOL0     C 9181   4.920   5.031   6.100 -0.3526  0.3175  0.1131
  792MOL0     O 9182   5.002   5.108   6.190 -0.3527 -0.2093 -0.7239
  792MOL0     C 9183   5.127   5.132   6.169  0.0782  0.4517 -0.2026
  792MOL0     C 9184   5.192   5.125   6.052 -0.6315 -0.0705  0.0626
  792MOL0     C 9185   5.330   5.169   6.039 -0.0950 -0.8929 -0.8280
  792MOL0     C 9186   5.401   5.165   5.902 -0.3531 -0.4026 -0.3043
  792MOL0     C 9187   5.398   5.220   6.155 -0.4636 -0.8972 -0.0610
  792MOL0     C 9188   5.540   5.254   6.160  0.0888 -0.4182 -0.4574
  792MOL0     O 9189   5.585   5.309   6.276 -0.1230 -0.4588 -0.4184
  792MOL0     C 9190   5.716   5.356   6.283  0.0786 -0.3430  0.2458
  792MOL0     C 9191   5.823   5.259   6.295 -0.7002 -0.4832 -0.3329
  792MOL0     C 9192   5.955   5.303   6.282 -0.4082  0.7254  0.6018
  792MOL0     C 9193   5.983   5.442   6.267 -0.3889 -0.1469 -0.6564
  792MOL0     O 9194   6.109   5.490   6.256 -0.4898  0.3987 -0.3430
  792MOL0     C 9195   6.221   5.454   6.336  1.0507  0.3012  0.3332
  792MOL0     C 9196   6.325   5.563   6.318 -0.5417 -0.4919 -0.5128
  792MOL0     C 9197   6.458   5.529   6.399  0.4089 -0.5082  0.3629
  792MOL0     C 9198   6.449   5.572   6.548  0.7921  0.2781  0.8216
  792MOL0     C 9199   6.568   5.534   6.631  0.5361  0.2814 -0.0058
  792MOL0     C 9200   6.586   5.381   6.663 -0.5848  0.2856 -0.3803
  792MOL0     C 9201   6.468   5.320   6.738 -0.3321 -0.1234  0.2277
  792MOL0     C 9202   6.458   5.366   6.883 -0.5797  0.2453 -0.3200
  792MOL0    Cl 9203   6.381   5.532   6.900 -0.6505  0.1053  0.4415
  792MOL0     C 9204   5.882   5.524   6.242  0.1947 -0.1163  0.4745
  792MOL0     C 9205   5.749   5.490   6.256 -0.2516 -0.1173  0.3779
  792MOL0     O 9206   5.612   5.232   6.068 -0.4487  0.3491  0.0383
  792MOL0     C 9207   5.319   5.244   6.268  0.5109  0.2899 -0.3939
  792MOL0     C 9208   5.187   5.196   6.272 -1.4981  0.4287 -0.2974
  792MOL0     N 9209   4.871   4.624   6.232 -0.1096 -0.3912 -0.2146
  792MOL0     N 9210   4.829   4.544   6.146  0.8662  1.0799 -0.8294
  792MOL0     C 9211   5.071   4.145   5.331  0.9089  0.3819  0.3070
  792MOL0     C 9212   5.203   4.102   5.323  0.2846  0.1380 -0.6019
  792MOL0     C 9213   5.632   4.096   5.168  0.3618  0.6411 -0.3336
  792MOL0     C 9214   5.659   4.038   5.298 -0.6371  0.4752  0.1959
  792MOL0     C 9215   5.769   3.955   5.299 -0.3098 -0.1289 -0.5942
  792MOL0     C 9216   5.853   3.924   5.193 -0.5313  0.0804 -0.2092
  792MOL0     O 9217   5.963   3.842   5.199  1.1431  0.8628 -0.8127
  792MOL0     C 9218   5.992   3.776   5.321  0.3480 -0.6140 -0.9045
  792MOL0     C 9219   6.138   3.718   5.309 -0.1283 -0.3091 -0.3727
  792MOL0     C 9220   6.203   3.693   5.452  0.3842  0.8851  0.8518
  792MOL0     C 9221   6.188   3.542   5.494 -0.0291 -0.5503 -0.0085
  792MOL0     C 9222   6.235   3.444   5.396  0.2103 -0.2011 -0.0127
  792MOL0     C 9223   6.269   3.364   5.307 -0.1870  0.5628  0.2868
  792MOL0     C 9224   5.826   3.978   5.067  0.5969 -0.7213 -0.8779
  792MOL0     C 9225   5.716   4.063   5.056 -0.1782 -0.1736 -0.9832
  792MOL0     C 9226   5.693   4.112   4.911  0.3767 -0.0861  0.1476
  792MOL0     H 9227   5.260   4.213   5.009  0.4318  2.0722  0.4019
  792MOL0     H 9228   5.026   4.262   5.023  2.4151  1.9930 -0.9109
  792MOL0     H 9229   4.817   4.230   5.437  1.6295 -0.3418  0.1599
  792MOL0     H 9230   4.698   4.295   5.312 -1.4123 -2.6765 -0.8747
  792MOL0     H 9231   4.948   4.450   5.392 -1.3532  3.1848  2.6162
  792MOL0     H 9232   4.807   4.498   5.299  1.5605  0.4596 -0.4964
  792MOL0     H 9233   4.774   4.594   5.512  1.0798  0.0711 -0.2809
  792MOL0     H 9234   4.664   4.458   5.511  0.1486 -0.4870  2.5283
  792MOL0     H 9235   4.823   4.339   5.654 -1.6460  0.9633 -3.7647
  792MOL0     H 9236   4.947   4.461   5.641  1.2698 -1.7318  4.3907
  792MOL0     H 9237   4.808   4.634   5.740 -0.1572 -0.3653 -1.3032
  792MOL0     H 9238   4.837   4.482   5.848  1.8601 -0.8555 -0.0206
  792MOL0     H 9239   4.582   4.553   5.699  1.2658 -0.1435 -0.6761
  792MOL0     H 9240   4.611   4.398   5.769 -2.6848  1.0290 -0.7147
  792MOL0     H 9241   4.465   4.562   5.920  1.4596  2.4643  0.5542
  792MOL0     H 9242   4.602   4.661   5.928 -0.7401  0.6969  2.4610
  792MOL0     H 9243   4.513   4.435   6.080 -0.7371  0.3506 -2.3838
  792MOL0     H 9244   4.667   4.384   6.016  4.1990  0.2641  1.6351
  792MOL0     H 9245   4.554   4.728   6.209 -0.6506 -0.8666 -0.3039
  792MOL0     H 9246   4.803   4.771   6.453 -0.0238 -1.9009 -0.6049
  792MOL0     H 9247   4.656   4.832   6.386  0.2113 -2.8604  2.1600
  792MOL0     H 9248   4.851   4.991   6.396 -2.2498  3.9921 -2.5445
  792MOL0     H 9249   4.949   4.879   6.295 -0.9532 -4.1999  1.2955
  792MOL0     H 9250   4.724   4.945   6.125 -1.9736 -0.1273  2.7255
  792MOL0     H 9251   4.755   5.091   6.215 -2.4995 -1.0420 -0.7177
  792MOL0     H 9252   4.971   4.936   6.080 -0.5890 -0.0793  1.2998
  792MOL0     H 9253   4.899   5.087   6.009  1.0271 -0.6146 -0.8150
  792MOL0     H 9254   5.150   5.080   5.963  0.1802 -3.0304  1.0284
  792MOL0     H 9255   5.449   5.262   5.882 -3.1553  1.3702  0.8814
  792MOL0     H 9256   5.333   5.136   5.821  0.8861 -0.0835 -1.5053
  792MOL0     H 9257   5.480   5.090   5.905  1.1873  1.1774  0.6014
  792MOL0     H 9258   5.784   5.158   6.285  0.7848 -0.8530 -3.8935
  792MOL0     H 9259   6.025   5.222   6.264 -1.5241  0.3679 -2.6455
  792MOL0     H 9260   6.201   5.430   6.441 -1.2905  2.4414  0.4564
  792MOL0     H 9261   6.262   5.358   6.302 -0.6521 -0.2802 -0.1561
  792MOL0     H 9262   6.344   5.569   6.210 -0.6282 -2.9339 -0.7285
  792MOL0     H 9263   6.278   5.653   6.357 -0.5247 -0.9419  0.5679
  792MOL0     H 9264   6.543   5.575   6.349  0.9686  0.2219  1.9278
  792MOL0     H 9265   6.470   5.420   6.397  5.6400 -0.2260  2.4432
  792MOL0     H 9266   6.357   5.535   6.592  0.9765  0.8246  1.7003
  792MOL0     H 9267   6.438   5.681   6.550  2.0771  0.4208  0.8776
  792MOL0     H 9268   6.656   5.574   6.579  0.2501 -0.1105 -0.8060
  792MOL0     H 9269   6.545   5.579   6.729  0.1034  0.7462 -0.3146
  792MOL0     H 9270   6.673   5.373   6.727  1.0025 -1.6274 -2.5897
  792MOL0     H 9271   6.603   5.328   6.569 -0.4872  0.9070 -0.7177
  792MOL0     H 9272   6.482   5.211   6.734 -0.6104 -0.1373 -2.8682
  792MOL0     H 9273   6.379   5.340   6.679  0.1137  1.3387  0.0079
  792MOL0     H 9274   6.555   5.366   6.934  0.1830  1.9436 -1.6712
  792MOL0     H 9275   6.384   5.299   6.928 -1.4035  1.2421 -0.1551
  792MOL0     H 9276   5.902   5.627   6.215 -2.2288 -0.9019 -5.9859
  792MOL0     H 9277   5.672   5.560   6.223  0.6624  0.7129 -0.0484
  792MOL0     H 9278   5.364   5.283   6.359 -1.2818 -3.0873  2.1730
  792MOL0     H 9279   5.131   5.190   6.364 -2.1854 -0.7364 -0.7676
  792MOL0     H 9280   5.023   4.126   5.426 -1.2675  0.0269 -0.7846
  792MOL0     H 9281   5.249   4.053   5.409 -0.5123  2.5813  1.3273
  792MOL0     H 9282   5.592   4.057   5.381  0.5427 -0.0652  1.3154
  792MOL0     H 9283   5.789   3.917   5.399 -1.5221  1.0720  0.1387
  792MOL0     H 9284   5.988   3.858   5.394 -1.7643  0.6108 -2.2847
  792MOL0     H 9285   5.926   3.693   5.345  0.2612 -0.1713  0.4719
  792MOL0     H 9286   6.198   3.789   5.252  1.6399 -0.3009  1.4059
  792MOL0     H 9287   6.114   3.629   5.251 -1.3015 -0.1296 -0.2083
  792MOL0     H 9288   6.310   3.707   5.434  0.4518 -0.4437  0.0121
  792MOL0     H 9289   6.177   3.764   5.530  3.8986  1.5094  1.6578
  792MOL0     H 9290   6.084   3.514   5.508 -0.0744 -0.1463  0.4563
  792MOL0     H 9291   6.230   3.532   5.594  1.2024  2.9287 -0.0495
  792MOL0     H 9292   6.305   3.311   5.222 -1.8299 -0.7348  0.3536
  792MOL0     H 9293   5.863   3.946   4.971 -1.8923  1.3266 -2.6557
  792MOL0     H 9294   5.786   4.110   4.853  0.5772 -3.4340  0.3792
  792MOL0     H 9295   5.614   4.056   4.860 -1.3965  1.8943  0.5537
  792MOL0     H 9296   5.646   4.210   4.922  1.1763  0.6152 -2.1842
  793MOL0     O 9297   7.340   6.159   5.596  0.2874 -0.1358 -0.1603
  793MOL0     C 9298   7.293   6.222   5.498  0.0984 -0.1356 -1.1968
  793MOL0     O 9299   7.332   6.347   5.458 -0.4017  0.1969 -0.3256
  793MOL0     C 9300   7.447   6.384   5.515 -0.3883 -0.5534  0.5791
  793MOL0     C 9301   7.458   6.462   5.618 -0.4663 -0.3150 -0.6180
  793MOL0     C 9302   7.584   6.505   5.668 -0.4971 -0.5112 -0.0614
  793MOL0     C 9303   7.705   6.471   5.609 -0.9980  1.1068  0.7479
  793MOL0     O 9304   7.818   6.542   5.645 -0.6352 -0.2391 -0.5399
  793MOL0     C 9305   7.848   6.531   5.789 -0.8565  0.0300 -0.3095
  793MOL0     C 9306   7.985   6.590   5.825  0.1274  0.4731 -0.2718
  793MOL0     C 9307   8.022   6.600   5.969 -0.2234 -0.1591 -1.1683
  793MOL0     C 9308   8.168   6.608   5.991 -0.5315 -0.8717  0.0327
  793MOL0     C 9309   8.222   6.601   6.135  0.1444 -0.0772  0.9997
  793MOL0     C 9310   8.244   6.741   6.180 -0.1233 -0.8457 -0.4521
  793MOL0     C 9311   8.325   6.742   6.312  0.2204 -0.7794 -0.4873
  793MOL0     C 9312   8.468   6.688   6.286 -1.4617 -0.2628 -0.1929
  793MOL0     N 9313   8.553   6.692   6.406 -0.3017 -0.0692  0.2905
  793MOL0     C 9314   8.567   6.581   6.490 -0.4974  0.0721  0.0625
  793MOL0     C 9315   8.638   6.621   6.592  0.3278  0.7860 -0.5903
  793MOL0     C 9316   8.674   6.548   6.716 -0.7718  0.6756  0.3288
  793MOL0     C 9317   8.591   6.575   6.846  0.5802  0.4894 -0.3814
  793MOL0     C 9318   8.534   6.446   6.905 -0.9448 -0.9860  0.9860
  793MOL0     C 9319   8.486   6.461   7.054 -0.7084  0.5970  0.2274
  793MOL0     O 9320   8.377   6.542   7.067  0.2958  0.1037  0.4803
  793MOL0     C 9321   8.254   6.518   7.024  0.1770 -0.5841  0.6534
  793MOL0     C 9322   8.167   6.621   7.007 -0.7299 -0.5545 -0.2915
  793MOL0     C 9323   8.033   6.595   6.974 -0.3054 -0.1667 -0.2202
  793MOL0     C 9324   7.946   6.711   6.955  0.0017 -0.9714  0.9274
  793MOL0     C 9325   7.982   6.466   6.958 -0.7838  0.1060 -0.1928
  793MOL0     C 9326   7.842   6.429   6.917  0.6580 -0.2429  0.4286
  793MOL0     O 9327   7.773   6.505   6.823  0.1006  0.1767  0.0674
  793MOL0     C 9328   7.638   6.482   6.798  0.9863  0.4764 -1.3485
  793MOL0     C 9329   7.548   6.499   6.909  0.3032 -0.1387  0.2199
  793MOL0     C 9330   7.413   6.490   6.872  1.1491 -0.5855 -0.3219
  793MOL0     C 9331   7.367   6.451   6.740  0.9850 -0.7460  0.4641
  793MOL0     O 9332   7.240   6.446   6.704 -0.4783 -0.3501  0.4437
  793MOL0     C 9333   7.140   6.474   6.807  0.1538  0.3572 -0.2462
  793MOL0     C 9334   7.007   6.493   6.737  0.7862  0.5860  0.4572
  793MOL0     C 9335   6.959   6.373   6.663 -0.4589  0.7589  0.0086
  793MOL0     C 9336   6.819   6.384   6.616 -0.4904 -0.5119  0.5631
  793MOL0     C 9337   6.785   6.269   6.530 -1.1439  0.5887 -0.0798
  793MOL0     C 9338   6.633   6.285   6.517 -0.0082  0.2561  0.6693
  793MOL0     C 9339   6.571   6.227   6.390 -0.3265  0.3384 -0.4848
  793MOL0     C 9340   6.605   6.306   6.263  0.5067  0.6093  0.0744
  793MOL0    Cl 9341   6.769   6.353   6.222 -0.1190 -0.3716 -0.0919
  793MOL0     C 9342   7.469   6.418   6.646  0.1154 -0.3339  0.6370
  793MOL0     C 9343   7.599   6.436   6.673 -0.2587 -1.1851 -0.2822
  793MOL0     O 9344   7.800   6.322   6.965  0.0363  0.9154  0.0487
  793MOL0     C 9345   8.075   6.359   6.982 -0.5792  0.5588 -0.7008
  793MOL0     C 9346   8.206   6.383   7.028 -0.3439  0.1630  0.0510
  793MOL0     N 9347   8.657   6.761   6.581 -0.6470 -0.3958  0.4539
  793MOL0     N 9348   8.609   6.798   6.471 -1.0521  0.0853  0.7235
  793MOL0     C 9349   7.698   6.400   5.496  0.4664  0.6772  0.3285
  793MOL0     C 9350   7.569   6.349   5.460 -0.9515 -0.6067 -0.3330
  793MOL0     C 9351   7.174   6.164   5.429 -0.8496 -0.6161 -0.2681
  793MOL0     C 9352   7.117   6.048   5.494 -1.3944 -0.2508  0.5675
  793MOL0     C 9353   7.011   5.977   5.430 -0.1204 -0.3157 -0.0604
  793MOL0     C 9354   6.953   6.012   5.307  0.1300  1.0932 -0.8645
  793MOL0     O 9355   6.861   5.941   5.236  0.6845  0.7907 -0.1442
  793MOL0     C 9356   6.743   5.895   5.317 -0.0632 -0.7860 -0.6420
  793MOL0     C 9357   6.647   5.816   5.238  0.2957  0.2178 -1.1986
  793MOL0     C 9358   6.504   5.820   5.294 -0.2338  0.4286  0.4676
  793MOL0     C 9359   6.494   5.763   5.435  0.7181 -0.4503 -0.2636
  793MOL0     C 9360   6.483   5.616   5.423  0.5090  1.5695 -1.2659
  793MOL0     C 9361   6.458   5.498   5.398  0.2549 -0.5128 -0.3595
  793MOL0     C 9362   7.010   6.131   5.243  0.0297  0.6659 -0.2877
  793MOL0     C 9363   7.116   6.207   5.304  0.0824  0.4508 -0.1939
  793MOL0     C 9364   7.156   6.328   5.238 -0.2561 -0.6016  0.8535
  793MOL0     H 9365   7.368   6.492   5.671  0.5884  0.4106  0.8299
  793MOL0     H 9366   7.585   6.571   5.754  1.2363 -2.0501  1.1590
  793MOL0     H 9367   7.848   6.424   5.813 -1.6887  0.4396  1.6390
  793MOL0     H 9368   7.783   6.581   5.861  0.8501  1.3806  0.3412
  793MOL0     H 9369   8.062   6.519   5.790 -0.2555  0.1217 -0.4113
  793MOL0     H 9370   7.998   6.681   5.766  1.6966 -0.5795 -1.6748
  793MOL0     H 9371   7.965   6.675   6.024  1.1347 -1.1685  1.8073
  793MOL0     H 9372   8.003   6.499   6.006  2.2135 -1.0711 -2.1732
  793MOL0     H 9373   8.211   6.523   5.937  3.6340  1.0774 -0.1385
  793MOL0     H 9374   8.187   6.698   5.932 -1.6150  0.1077  1.1216
  793MOL0     H 9375   8.317   6.549   6.125  0.2163  0.2877 -0.5081
  793MOL0     H 9376   8.148   6.549   6.196 -0.3772  2.1591  2.3692
  793MOL0     H 9377   8.307   6.791   6.105  0.0127 -2.2159 -1.2690
  793MOL0     H 9378   8.150   6.793   6.202  1.2322  0.1343  3.9455
  793MOL0     H 9379   8.280   6.690   6.397  3.3791 -2.1690  0.4828
  793MOL0     H 9380   8.334   6.844   6.349  2.0152 -1.2630  0.5506
  793MOL0     H 9381   8.472   6.582   6.261  3.2826 -0.4789  0.5967
  793MOL0     H 9382   8.523   6.749   6.214 -0.5228  0.8890  1.4400
  793MOL0     H 9383   8.528   6.483   6.464  0.3555 -0.4261  0.5883
  793MOL0     H 9384   8.779   6.566   6.740 -0.9834 -0.5576  2.3459
  793MOL0     H 9385   8.665   6.441   6.694 -1.0646  0.8716 -0.5793
  793MOL0     H 9386   8.655   6.619   6.924 -1.6104  0.7329  1.3587
  793MOL0     H 9387   8.516   6.652   6.824  0.4112  0.3231 -0.3877
  793MOL0     H 9388   8.464   6.401   6.834 -0.9011 -1.3300  1.1607
  793MOL0     H 9389   8.617   6.375   6.913 -0.3894 -0.4387  0.1971
  793MOL0     H 9390   8.464   6.365   7.101 -0.6381  1.2378  1.5966
  793MOL0     H 9391   8.576   6.499   7.103  0.5728 -2.3975  0.4733
  793MOL0     H 9392   8.215   6.717   6.992 -1.5769 -0.0268  0.3353
  793MOL0     H 9393   7.999   6.804   6.979 -0.7385 -0.3564  0.2322
  793MOL0     H 9394   7.863   6.701   7.026 -1.1762 -2.3481 -0.5759
  793MOL0     H 9395   7.911   6.726   6.853  1.0937 -0.5071  0.6046
  793MOL0     H 9396   7.602   6.520   7.001  0.7052 -0.6671  0.1011
  793MOL0     H 9397   7.347   6.501   6.958  0.7842  0.8912 -0.7479
  793MOL0     H 9398   7.143   6.401   6.888  0.1149 -0.2917 -0.8176
  793MOL0     H 9399   7.170   6.569   6.852  2.5690 -1.1803  1.5941
  793MOL0     H 9400   6.932   6.542   6.801 -1.5901 -0.6881 -1.2374
  793MOL0     H 9401   7.036   6.569   6.663  3.5949 -0.2230  0.6141
  793MOL0     H 9402   6.979   6.282   6.721  4.8075  1.1472 -0.6765
  793MOL0     H 9403   7.017   6.366   6.570 -2.1798  3.2295 -1.3923
  793MOL0     H 9404   6.816   6.476   6.557 -0.3488 -0.8630 -0.0120
  793MOL0     H 9405   6.762   6.388   6.709  0.5353  0.7631  1.1700
  793MOL0     H 9406   6.841   6.244   6.440  0.3928 -2.0928  1.4822
  793MOL0     H 9407   6.800   6.182   6.595 -2.1390  1.9899  2.1594
  793MOL0     H 9408   6.606   6.390   6.521  1.6225  1.0497 -3.7031
  793MOL0     H 9409   6.592   6.227   6.600 -1.8324  1.9906  1.0452
  793MOL0     H 9410   6.462   6.235   6.397 -0.4218  0.4737 -1.8485
  793MOL0     H 9411   6.603   6.123   6.375  2.1489  1.0518 -0.4579
  793MOL0     H 9412   6.535   6.389   6.251 -1.0183 -0.8316 -1.5597
  793MOL0     H 9413   6.581   6.234   6.185 -2.0236  0.8875  0.5236
  793MOL0     H 9414   7.438   6.394   6.544  0.0081 -0.5051  0.7103
  793MOL0     H 9415   7.678   6.424   6.600 -0.6144 -1.9186 -0.5558
  793MOL0     H 9416   8.053   6.254   6.961  1.9017 -0.1231 -0.2098
  793MOL0     H 9417   8.275   6.304   7.055 -1.2979 -0.2643  1.3433
  793MOL0     H 9418   7.788   6.363   5.448 -0.2224  2.6062 -2.7178
  793MOL0     H 9419   7.592   6.261   5.401  2.9621  1.1770 -1.8368
  793MOL0     H 9420   7.139   6.000   5.589  0.0994 -0.8220 -0.0295
  793MOL0     H 9421   6.984   5.896   5.496  2.9605 -0.8969  0.6102
  793MOL0     H 9422   6.769   5.836   5.406  1.8388  1.0872  0.1298
  793MOL0     H 9423   6.688   5.982   5.354 -2.4753 -3.1474  1.8321
  793MOL0     H 9424   6.688   5.715   5.242  0.9519  0.5078  0.4873
  793MOL0     H 9425   6.661   5.860   5.139  2.2190  2.2131 -0.1308
  793MOL0     H 9426   6.481   5.926   5.308  2.4529  1.4663 -1.9748
  793MOL0     H 9427   6.423   5.783   5.230 -3.4352  4.3404  1.8566
  793MOL0     H 9428   6.411   5.800   5.497 -1.2022 -1.2019 -2.2500
  793MOL0     H 9429   6.584   5.787   5.492 -1.2290  2.5019  1.8711
  793MOL0     H 9430   6.429   5.401   5.365 -2.8537 -1.0318  3.1770
  793MOL0     H 9431   6.967   6.160   5.148 -0.7106  1.3566  0.2469
  793MOL0     H 9432   7.263   6.347   5.244 -0.3710 -0.3093  4.8609
  793MOL0     H 9433   7.111   6.334   5.138 -1.2453  0.8547  1.3515
  793MOL0     H 9434   7.119   6.416   5.291  1.9297  0.9776 -0.0810
  794MOL0     O 9435   4.125   3.066   9.657  0.1017 -0.1976  0.1058
  794MOL0     C 9436   4.230   3.043   9.718  0.7653  0.1199 -0.2442
  794MOL0     O 9437   4.352   3.098   9.690  0.4548 -0.6680  0.7630
  794MOL0     C 9438   4.351   3.188   9.582 -0.5983  0.5761  0.9210
  794MOL0     C 9439   4.444   3.187   9.482  0.3346  1.0818  0.6375
  794MOL0     C 9440   4.450   3.280   9.372  0.0278  0.1948 -0.2450
  794MOL0     C 9441   4.332   3.365   9.363 -0.0419  0.2651  0.4355
  794MOL0     O 9442   4.316   3.448   9.258  0.7602 -0.1323 -0.1317
  794MOL0     C 9443   4.355   3.408   9.124 -0.2209 -0.1875  0.6746
  794MOL0     C 9444   4.334   3.520   9.014  0.0815 -0.1717 -0.8974
  794MOL0     C 9445   4.440   3.638   9.015  0.3917 -0.0256  0.1587
  794MOL0     C 9446   4.384   3.736   8.921 -0.8546 -0.8036 -0.1708
  794MOL0     C 9447   4.480   3.844   8.872 -0.4973 -0.5436 -0.7793
  794MOL0     C 9448   4.527   3.929   9.002  0.6497  0.4770  0.6344
  794MOL0     C 9449   4.629   4.042   8.969 -0.1917 -0.4999 -0.0284
  794MOL0     C 9450   4.595   4.122   8.842  0.0347  0.0583 -0.8253
  794MOL0     N 9451   4.674   4.238   8.839  0.3651  0.2713 -0.5027
  794MOL0     C 9452   4.800   4.237   8.778  0.5698  0.0653  0.0990
  794MOL0     C 9453   4.848   4.359   8.768  0.7870 -0.4783 -0.4261
  794MOL0     C 9454   4.988   4.397   8.720  0.0262 -0.3251  0.4172
  794MOL0     C 9455   4.991   4.545   8.684 -0.2730  0.3579 -0.9121
  794MOL0     C 9456   5.004   4.640   8.808  0.3583 -0.9000  1.4001
  794MOL0     C 9457   4.985   4.787   8.773  0.1636  0.6631  0.0870
  794MOL0     O 9458   5.029   4.869   8.876 -0.1001 -0.8806 -0.4973
  794MOL0     C 9459   4.950   4.879   8.989  0.6865  0.8941 -0.2866
  794MOL0     C 9460   4.822   4.819   9.020 -0.4726 -0.4607 -0.1547
  794MOL0     C 9461   4.776   4.798   9.147 -0.4188 -0.0225 -0.1936
  794MOL0     C 9462   4.662   4.696   9.163 -0.8852  0.0799 -0.4480
  794MOL0     C 9463   4.835   4.871   9.249 -0.3135 -1.2107 -0.7082
  794MOL0     C 9464   4.786   4.876   9.390 -0.9267  0.3290 -0.2153
  794MOL0     O 9465   4.877   4.899   9.488  0.4011 -0.0684 -0.7337
  794MOL0     C 9466   4.834   4.935   9.614 -0.6950 -0.3706  0.1997
  794MOL0     C 9467   4.782   5.067   9.638  0.4050  0.1951 -0.7183
  794MOL0     C 9468   4.756   5.100   9.775 -0.3669 -0.1250 -0.4677
  794MOL0     C 9469   4.773   5.007   9.881  0.1158 -0.6796 -0.4178
  794MOL0     O 9470   4.769   5.072  10.008 -0.1236  0.1827 -0.3468
  794MOL0     C 9471   4.890   5.117  10.074 -0.1538  0.1318 -0.1850
  794MOL0     C 9472   4.843   5.207  10.185 -0.0793 -0.1933 -0.1710
  794MOL0     C 9473   4.948   5.306  10.239 -0.6451  0.4050 -0.3655
  794MOL0     C 9474   4.893   5.394  10.351 -0.0966 -0.0568 -0.8260
  794MOL0     C 9475   4.871   5.329  10.487  0.3202  0.3153 -0.1158
  794MOL0     C 9476   5.000   5.268  10.548  0.7460  0.6344 -0.6371
  794MOL0     C 9477   5.001   5.231  10.698 -0.4147 -0.5790 -0.4230
  794MOL0     C 9478   4.932   5.103  10.739  0.3238 -0.2190 -0.4591
  794MOL0    Cl 9479   4.763   5.116  10.727  0.3550  0.1576  0.5301
  794MOL0     C 9480   4.833   4.882   9.853 -0.4990 -0.1337  0.2426
  794MOL0     C 9481   4.846   4.838   9.718 -0.1669 -0.5384  0.3881
  794MOL0     O 9482   4.670   4.834   9.417 -0.7275 -0.3909 -0.1059
  794MOL0     C 9483   4.951   4.954   9.220  0.9733  0.9389  0.0950
  794MOL0     C 9484   5.012   4.941   9.094 -0.0051 -0.2692 -0.3091
  794MOL0     N 9485   4.754   4.441   8.827 -0.7508 -0.5492  0.0350
  794MOL0     N 9486   4.646   4.374   8.861  0.1034  0.3703  0.1230
  794MOL0     C 9487   4.242   3.379   9.460 -0.6507 -0.3728 -0.5005
  794MOL0     C 9488   4.254   3.289   9.569 -0.0134  0.9463 -0.2338
  794MOL0     C 9489   4.234   2.921   9.786 -0.0642  1.1506  0.5716
  794MOL0     C 9490   4.331   2.830   9.738 -0.0491  1.5965 -0.1459
  794MOL0     C 9491   4.340   2.701   9.797  0.6689  0.4780  0.0402
  794MOL0     C 9492   4.256   2.652   9.894  0.3012 -0.7120 -0.6897
  794MOL0     O 9493   4.281   2.523   9.934  0.5794 -0.3937 -0.2696
  794MOL0     C 9494   4.179   2.454  10.005  0.0202  0.4737 -0.2914
  794MOL0     C 9495   4.168   2.300   9.974  0.0986 -0.3238 -0.2588
  794MOL0     C 9496   4.195   2.275   9.830 -0.2828  0.7564 -0.4166
  794MOL0     C 9497   4.172   2.131   9.790 -0.9978 -0.0736  0.1077
  794MOL0     C 9498   4.035   2.111   9.744 -0.3726 -0.5902 -0.6819
  794MOL0     C 9499   3.926   2.086   9.707  0.2417 -0.5130  0.1433
  794MOL0     C 9500   4.168   2.745   9.941  0.8572  0.6032 -0.0967
  794MOL0     C 9501   4.142   2.875   9.884  1.2012  1.2706  0.7115
  794MOL0     C 9502   4.023   2.954   9.949 -0.5605  0.0868 -0.8648
  794MOL0     H 9503   4.529   3.122   9.499 -0.5559 -0.3567 -0.1782
  794MOL0     H 9504   4.526   3.286   9.295 -3.3742  0.3913 -3.9114
  794MOL0     H 9505   4.281   3.336   9.088 -1.0534  1.4504 -1.0147
  794MOL0     H 9506   4.449   3.353   9.126 -1.5545 -2.6476  0.0738
  794MOL0     H 9507   4.332   3.465   8.920  2.1030 -2.3622  0.2427
  794MOL0     H 9508   4.237   3.572   9.018 -0.1766 -0.2471 -3.8859
  794MOL0     H 9509   4.461   3.681   9.114  2.8568  0.9361 -0.7053
  794MOL0     H 9510   4.535   3.599   8.979  0.9188  1.1726  0.2144
  794MOL0     H 9511   4.368   3.678   8.830 -2.9504 -0.3496 -0.1508
  794MOL0     H 9512   4.287   3.777   8.952 -0.6099  1.0769 -1.6846
  794MOL0     H 9513   4.430   3.911   8.802 -0.4533 -1.6509 -1.9020
  794MOL0     H 9514   4.576   3.811   8.831  0.9341  3.0701 -0.6976
  794MOL0     H 9515   4.439   3.959   9.059 -1.3069 -2.7130 -0.4413
  794MOL0     H 9516   4.572   3.866   9.079  0.6194 -0.5763 -0.1910
  794MOL0     H 9517   4.721   3.987   8.949 -1.6747 -3.3302  0.4767
  794MOL0     H 9518   4.639   4.099   9.062  1.8680 -1.6328  0.5056
  794MOL0     H 9519   4.598   4.053   8.757 -0.7117 -1.7621  0.5624
  794MOL0     H 9520   4.491   4.157   8.841  1.0578  4.0171  2.4939
  794MOL0     H 9521   4.835   4.138   8.753  1.3942 -0.4485  2.8721
  794MOL0     H 9522   5.007   4.334   8.633  1.0898 -0.0083  0.4115
  794MOL0     H 9523   5.069   4.376   8.790  1.4372 -1.7566 -1.5505
  794MOL0     H 9524   5.081   4.566   8.626  2.6178  0.3430  3.1730
  794MOL0     H 9525   4.901   4.581   8.632 -2.1977 -3.6281 -0.6511
  794MOL0     H 9526   4.938   4.613   8.891  0.0374 -0.6953  1.2119
  794MOL0     H 9527   5.103   4.624   8.852  0.5888 -0.3856  1.0787
  794MOL0     H 9528   5.043   4.813   8.684  0.2603 -1.6750 -0.5891
  794MOL0     H 9529   4.888   4.825   8.741  0.8089  0.7019 -1.9314
  794MOL0     H 9530   4.773   4.766   8.940  0.9409 -0.7319 -0.8846
  794MOL0     H 9531   4.656   4.633   9.074 -0.1208  0.6083 -0.8917
  794MOL0     H 9532   4.569   4.753   9.166  0.8706  3.2451 -1.1148
  794MOL0     H 9533   4.676   4.644   9.258 -3.2074 -2.1774 -1.2294
  794MOL0     H 9534   4.777   5.139   9.557  1.2413  1.2237  0.1234
  794MOL0     H 9535   4.720   5.201   9.792 -0.9565 -0.6724  1.9873
  794MOL0     H 9536   4.933   5.027  10.118 -0.3410 -0.6558 -1.5466
  794MOL0     H 9537   4.967   5.167  10.015  0.4811  1.9342  2.0362
  794MOL0     H 9538   4.759   5.267  10.149  2.4005  5.1015  1.7963
  794MOL0     H 9539   4.807   5.154  10.274 -0.7225  0.5372  0.0160
  794MOL0     H 9540   4.973   5.375  10.158 -2.0890 -1.0213 -2.1369
  794MOL0     H 9541   5.039   5.250  10.264 -1.0548 -0.3529 -0.5251
  794MOL0     H 9542   4.802   5.436  10.309  0.3063 -0.1322 -1.7936
  794MOL0     H 9543   4.957   5.481  10.373 -2.4678  1.4099  0.7401
  794MOL0     H 9544   4.830   5.399  10.561 -0.7299  0.2424 -0.6144
  794MOL0     H 9545   4.796   5.249  10.483  0.6686 -0.6887  5.5278
  794MOL0     H 9546   5.083   5.335  10.524 -0.3054  1.5387 -1.8988
  794MOL0     H 9547   5.009   5.176  10.490  0.8665 -1.2033  2.1213
  794MOL0     H 9548   4.964   5.310  10.763  2.7512  0.6625  0.0468
  794MOL0     H 9549   5.106   5.225  10.726 -0.1605  2.2642 -0.5157
  794MOL0     H 9550   4.959   5.076  10.841  2.4193  1.7740 -0.4051
  794MOL0     H 9551   4.947   5.019  10.670 -1.3422 -1.6904  0.8707
  794MOL0     H 9552   4.852   4.824   9.943 -1.9494 -2.0140 -0.5825
  794MOL0     H 9553   4.894   4.742   9.708 -1.2660 -1.0271 -0.3602
  794MOL0     H 9554   5.013   5.004   9.293  0.1031  0.6979  1.0164
  794MOL0     H 9555   5.111   4.972   9.061 -1.8712  2.7977 -3.7773
  794MOL0     H 9556   4.158   3.446   9.449  3.7298  5.9432 -0.7117
  794MOL0     H 9557   4.182   3.296   9.650  0.3003  3.4358 -0.0982
  794MOL0     H 9558   4.417   2.864   9.682  0.0972  0.8158 -0.4051
  794MOL0     H 9559   4.417   2.635   9.761  0.0794 -0.4425  0.4297
  794MOL0     H 9560   4.208   2.457  10.111 -0.3762  0.3722 -0.1746
  794MOL0     H 9561   4.078   2.494   9.994 -1.0307 -1.6496  0.8365
  794MOL0     H 9562   4.075   2.255  10.009 -1.2142  0.5281 -2.4249
  794MOL0     H 9563   4.247   2.248  10.029 -1.6236 -0.4386  2.2497
  794MOL0     H 9564   4.130   2.338   9.769 -0.6213 -0.6932 -1.6314
  794MOL0     H 9565   4.298   2.306   9.812  0.7752 -1.8699  0.5444
  794MOL0     H 9566   4.204   2.071   9.875 -0.7373  0.1921  0.2027
  794MOL0     H 9567   4.234   2.108   9.703  0.0342 -2.0727  1.3252
  794MOL0     H 9568   3.820   2.081   9.693 -0.2945 -0.8538  3.4145
  794MOL0     H 9569   4.110   2.715  10.028  2.7163 -1.6640  0.4535
  794MOL0     H 9570   4.036   3.055   9.907  4.8674  1.1824  2.4144
  794MOL0     H 9571   3.920   2.921   9.933 -0.5935 -0.4713  0.4175
  794MOL0     H 9572   4.053   2.951  10.054 -1.2445 -0.9999 -0.6836
  795MOL0     O 9573   9.411   2.595   4.276  0.4342  0.2880 -0.9378
  795MOL0     C 9574   9.305   2.650   4.233 -0.3381 -0.7100 -0.2759
  795MOL0     O 9575   9.209   2.709   4.314 -0.3855 -0.1829  0.1146
  795MOL0     C 9576   9.185   2.659   4.442 -0.8043  0.1482 -0.3809
  795MOL0     C 9577   9.166   2.522   4.457  0.0680  0.0671  0.5254
  795MOL0     C 9578   9.139   2.462   4.584  0.3540 -0.5416  0.8850
  795MOL0     C 9579   9.132   2.544   4.697  0.1786 -0.0724 -0.5638
  795MOL0     O 9580   9.107   2.484   4.819 -0.7516  0.2281  0.7420
  795MOL0     C 9581   8.974   2.521   4.872 -0.2926 -1.3728  0.3469
  795MOL0     C 9582   8.859   2.440   4.810  0.1559 -0.0988  0.2192
  795MOL0     C 9583   8.725   2.491   4.872  0.1852  0.6084  0.4166
  795MOL0     C 9584   8.701   2.462   5.029  0.3335 -0.2884  0.2103
  795MOL0     C 9585   8.555   2.427   5.065  0.7287 -1.3784  0.1613
  795MOL0     C 9586   8.462   2.547   5.089  0.0588  1.0400  1.1122
  795MOL0     C 9587   8.318   2.507   5.109  0.4259  0.2287 -0.6054
  795MOL0     C 9588   8.231   2.630   5.141  0.4743 -0.4813 -0.0167
  795MOL0     N 9589   8.089   2.588   5.171 -0.7142 -0.2004  0.8757
  795MOL0     C 9590   7.972   2.632   5.113 -0.0809  0.6339  0.4335
  795MOL0     C 9591   7.865   2.573   5.181 -0.3947  0.5720  0.8160
  795MOL0     C 9592   7.717   2.593   5.166 -0.8362  0.3210 -0.0296
  795MOL0     C 9593   7.676   2.711   5.248  0.2907 -0.2714  0.1347
  795MOL0     C 9594   7.527   2.752   5.221  0.1548  0.2482 -0.1871
  795MOL0     C 9595   7.510   2.837   5.090 -0.2782  0.0343 -0.4008
  795MOL0     O 9596   7.584   2.960   5.076  1.0717  0.4947 -0.8330
  795MOL0     C 9597   7.552   3.047   4.973 -0.4132 -0.2321 -0.4512
  795MOL0     C 9598   7.473   3.159   5.011 -0.1934  0.1677  0.2929
  795MOL0     C 9599   7.445   3.257   4.920  0.3549 -1.4004  0.4209
  795MOL0     C 9600   7.361   3.381   4.970  0.2262 -0.4210 -0.0007
  795MOL0     C 9601   7.515   3.257   4.788  0.6301  1.0321 -0.1176
  795MOL0     C 9602   7.524   3.373   4.692  0.0368 -0.0857 -0.8432
  795MOL0     O 9603   7.558   3.339   4.568  0.6118 -0.3988  0.3033
  795MOL0     C 9604   7.579   3.436   4.481 -0.1142 -0.4198  0.3649
  795MOL0     C 9605   7.482   3.518   4.419  0.3703  0.2066 -0.5794
  795MOL0     C 9606   7.518   3.617   4.324  0.1967  0.4939 -0.2065
  795MOL0     C 9607   7.655   3.643   4.293 -0.3185  1.0110 -0.9770
  795MOL0     O 9608   7.704   3.743   4.210 -0.2403 -0.1730  0.1256
  795MOL0     C 9609   7.602   3.812   4.155  0.3290  0.2307  0.3142
  795MOL0     C 9610   7.670   3.932   4.095 -0.4429  0.3245  1.3802
  795MOL0     C 9611   7.574   4.039   4.051  0.2651 -0.2154 -0.0730
  795MOL0     C 9612   7.509   4.121   4.161 -0.4960 -0.3526 -0.0538
  795MOL0     C 9613   7.451   4.260   4.106 -0.4232 -0.0318  0.7998
  795MOL0     C 9614   7.355   4.326   4.203 -0.0607  0.5710  0.1562
  795MOL0     C 9615   7.222   4.233   4.229 -0.6863  0.5305  0.4901
  795MOL0     C 9616   7.148   4.291   4.343  0.0883  0.3838 -1.0990
  795MOL0    Cl 9617   7.000   4.185   4.377  0.2708  0.0597  0.2492
  795MOL0     C 9618   7.748   3.566   4.360 -0.7914  0.3041 -0.2742
  795MOL0     C 9619   7.711   3.457   4.442 -0.5746 -0.0899  0.5031
  795MOL0     O 9620   7.494   3.488   4.723 -0.1629  0.7511 -0.4886
  795MOL0     C 9621   7.568   3.133   4.750  0.0673 -0.3086 -0.0000
  795MOL0     C 9622   7.587   3.023   4.846  0.6382  0.9559  0.0536
  795MOL0     N 9623   7.926   2.492   5.272  0.1005 -0.9393  0.5700
  795MOL0     N 9624   8.056   2.501   5.267  0.2943  0.0604 -0.2366
  795MOL0     C 9625   9.155   2.676   4.682  0.7900  0.0313  0.0581
  795MOL0     C 9626   9.169   2.736   4.551 -0.1554  1.1014 -0.3108
  795MOL0     C 9627   9.290   2.692   4.079  0.6207  0.3232 -0.6726
  795MOL0     C 9628   9.246   2.821   4.058 -0.1824  0.3400 -1.5150
  795MOL0     C 9629   9.264   2.879   3.927  0.0755  0.0469 -0.7375
  795MOL0     C 9630   9.322   2.807   3.828 -0.7989  0.6229 -0.0975
  795MOL0     O 9631   9.327   2.868   3.708  0.0356  0.6813 -0.7836
  795MOL0     C 9632   9.226   2.819   3.617 -0.0990  1.3789 -0.3120
  795MOL0     C 9633   9.291   2.779   3.485 -0.2546 -0.3860 -0.0978
  795MOL0     C 9634   9.222   2.663   3.396  0.5981 -0.1872  0.8076
  795MOL0     C 9635   9.243   2.521   3.443  0.0083 -0.2303  0.0426
  795MOL0     C 9636   9.153   2.424   3.374  0.0555 -0.2405 -0.1193
  795MOL0     C 9637   9.087   2.339   3.315 -1.4726  0.2265  0.1414
  795MOL0     C 9638   9.363   2.677   3.853 -1.2939 -0.9918  0.9483
  795MOL0     C 9639   9.349   2.613   3.974 -0.1798  0.0992 -0.1670
  795MOL0     C 9640   9.397   2.466   3.992 -0.4806  0.5747  0.0507
  795MOL0     H 9641   9.169   2.459   4.369 -2.9833 -1.9234  1.6491
  795MOL0     H 9642   9.130   2.354   4.583  0.8995 -0.6406 -1.8586
  795MOL0     H 9643   8.949   2.626   4.857 -0.2059 -1.5483 -1.1394
  795MOL0     H 9644   8.972   2.489   4.977  0.2986 -2.2615  0.0982
  795MOL0     H 9645   8.859   2.453   4.701  0.1287 -0.3983  0.1811
  795MOL0     H 9646   8.886   2.336   4.833 -0.4208 -0.5713 -1.1275
  795MOL0     H 9647   8.715   2.600   4.876  1.6026  0.8532 -1.5015
  795MOL0     H 9648   8.650   2.445   4.806  0.9018  0.2649 -0.1638
  795MOL0     H 9649   8.773   2.387   5.063  2.1915  2.0661  1.7903
  795MOL0     H 9650   8.730   2.551   5.084  2.6122 -0.9871  0.2514
  795MOL0     H 9651   8.553   2.386   5.167  0.9042 -0.2925  0.6156
  795MOL0     H 9652   8.507   2.349   5.006  0.0279 -0.7789 -0.0760
  795MOL0     H 9653   8.507   2.608   5.167 -0.9623  3.1738  0.1153
  795MOL0     H 9654   8.463   2.621   5.008  1.6677 -0.2474 -0.1120
  795MOL0     H 9655   8.305   2.442   5.196 -4.4221  2.6948  0.8347
  795MOL0     H 9656   8.287   2.460   5.016  1.3601  0.0103 -0.8226
  795MOL0     H 9657   8.251   2.674   5.239  0.1050  0.4403 -0.3426
  795MOL0     H 9658   8.235   2.698   5.055 -2.7389  0.2949  0.3176
  795MOL0     H 9659   7.956   2.712   5.041 -3.1427  0.4989  0.8372
  795MOL0     H 9660   7.674   2.494   5.188  3.0081 -1.1770  1.6252
  795MOL0     H 9661   7.697   2.614   5.061 -1.1199  1.1378  0.1829
  795MOL0     H 9662   7.689   2.689   5.354 -2.8346 -1.9651  0.2908
  795MOL0     H 9663   7.731   2.798   5.210 -1.0799  0.8291  0.5449
  795MOL0     H 9664   7.469   2.660   5.215  0.7516 -0.1647  0.3389
  795MOL0     H 9665   7.481   2.804   5.305 -2.4995 -1.3033 -0.5528
  795MOL0     H 9666   7.545   2.778   5.004  1.8895  4.5060 -2.9519
  795MOL0     H 9667   7.403   2.849   5.072 -0.3970  0.3794  0.4830
  795MOL0     H 9668   7.437   3.169   5.112 -1.0148 -2.1237  0.2683
  795MOL0     H 9669   7.416   3.469   5.003  0.0281 -0.9095  1.7261
  795MOL0     H 9670   7.316   3.358   5.068  1.4080  0.6580  0.8250
  795MOL0     H 9671   7.302   3.409   4.883  0.4981  0.3164  0.0437
  795MOL0     H 9672   7.381   3.485   4.442 -0.3280  1.7606 -1.2515
  795MOL0     H 9673   7.435   3.664   4.271  1.8468  1.1303 -2.3605
  795MOL0     H 9674   7.552   3.747   4.082  1.2863 -1.8346  1.4264
  795MOL0     H 9675   7.525   3.837   4.229 -1.4687 -0.5863 -1.1790
  795MOL0     H 9676   7.736   3.982   4.167 -0.4340  0.8657  0.9979
  795MOL0     H 9677   7.728   3.918   4.003 -0.5960  4.7225  0.3733
  795MOL0     H 9678   7.504   3.995   3.980  1.8351  0.0797 -1.8944
  795MOL0     H 9679   7.630   4.116   3.997 -1.4018 -0.0072 -1.5874
  795MOL0     H 9680   7.587   4.144   4.235 -0.0364 -0.3224 -0.5406
  795MOL0     H 9681   7.437   4.054   4.209 -1.8335 -0.8626 -2.5720
  795MOL0     H 9682   7.521   4.336   4.072 -1.5179  1.1349  1.0981
  795MOL0     H 9683   7.402   4.249   4.009  1.6508 -0.8873 -0.2240
  795MOL0     H 9684   7.325   4.418   4.153 -1.9665  0.2254  0.6086
  795MOL0     H 9685   7.409   4.362   4.291 -3.3084  2.4316  1.5517
  795MOL0     H 9686   7.242   4.126   4.234 -2.7448 -0.1624 -2.8294
  795MOL0     H 9687   7.149   4.260   4.152 -0.1144  0.3352 -0.1258
  795MOL0     H 9688   7.111   4.388   4.310 -1.3197 -0.4316 -2.0028
  795MOL0     H 9689   7.215   4.285   4.430  0.9757 -1.9193 -1.8470
  795MOL0     H 9690   7.850   3.566   4.323 -0.8158 -0.3949 -0.3464
  795MOL0     H 9691   7.792   3.398   4.483 -1.2039 -1.0380  0.4034
  795MOL0     H 9692   7.603   3.120   4.648  1.2377 -2.2913  0.6092
  795MOL0     H 9693   7.629   2.932   4.804  0.9773  0.7011  0.9260
  795MOL0     H 9694   9.143   2.735   4.772 -0.1344 -0.1214  0.0510
  795MOL0     H 9695   9.159   2.843   4.537 -3.7545  0.8015 -0.9546
  795MOL0     H 9696   9.192   2.885   4.127 -0.9105  1.1904 -2.8107
  795MOL0     H 9697   9.216   2.972   3.901  0.9227 -0.1863 -3.5692
  795MOL0     H 9698   9.175   2.728   3.651 -0.1495  1.1637 -0.9425
  795MOL0     H 9699   9.147   2.894   3.607 -3.8261 -2.1952 -0.3409
  795MOL0     H 9700   9.388   2.737   3.512 -2.4474 -3.5764  3.9156
  795MOL0     H 9701   9.301   2.867   3.420  0.7988 -0.6359 -0.2872
  795MOL0     H 9702   9.118   2.696   3.404  0.8033  0.1304  2.5110
  795MOL0     H 9703   9.267   2.672   3.296 -0.5952 -1.6645  0.0930
  795MOL0     H 9704   9.235   2.514   3.552  1.7635 -1.5912  0.1291
  795MOL0     H 9705   9.344   2.497   3.410 -1.3421 -2.3686 -2.8612
  795MOL0     H 9706   9.033   2.265   3.259  0.6877 -1.3326 -0.0044
  795MOL0     H 9707   9.398   2.629   3.761 -2.0562  2.5247 -1.3531
  795MOL0     H 9708   9.503   2.451   4.010  0.2372  0.9021 -3.3174
  795MOL0     H 9709   9.331   2.425   4.069 -0.0689 -2.2212 -0.9801
  795MOL0     H 9710   9.375   2.426   3.892 -2.1970  2.9244 -0.6322
  796MOL0     O 9711  11.173   7.329   5.291 -0.5832 -0.4536  0.0809
  796MOL0     C 9712  11.218   7.345   5.400  0.8263  0.8498  0.1561
  796MOL0     O 9713  11.163   7.304   5.515  0.2139  0.2373 -0.5162
  796MOL0     C 9714  11.063   7.203   5.522  0.1456 -0.2864  1.0381
  796MOL0     C 9715  10.937   7.226   5.465  0.1099  0.2976 -0.7266
  796MOL0     C 9716  10.848   7.122   5.463  0.3201 -0.0677 -0.0250
  796MOL0     C 9717  10.883   6.997   5.520 -0.2850 -0.3791 -0.1130
  796MOL0     O 9718  10.808   6.884   5.528 -0.1127  0.5597  0.1377
  796MOL0     C 9719  10.661   6.902   5.521 -0.4976  0.9162 -0.4855
  796MOL0     C 9720  10.594   6.763   5.546  0.6552 -0.6050 -1.2666
  796MOL0     C 9721  10.638   6.644   5.451 -0.7545 -0.3402 -0.4518
  796MOL0     C 9722  10.590   6.675   5.299  0.2654 -0.4973 -0.6147
  796MOL0     C 9723  10.635   6.565   5.193 -0.2870 -0.1465 -0.0628
  796MOL0     C 9724  10.576   6.587   5.055 -0.3008 -0.5121  0.5827
  796MOL0     C 9725  10.653   6.531   4.935 -0.2339 -0.6862 -0.0656
  796MOL0     C 9726  10.649   6.376   4.931  0.2816 -1.1575 -0.3167
  796MOL0     N 9727  10.698   6.312   5.055  0.6220 -0.3201  0.5599
  796MOL0     C 9728  10.630   6.218   5.134  0.4415  0.5215 -0.3738
  796MOL0     C 9729  10.734   6.179   5.218  0.8543  0.6855 -0.0791
  796MOL0     C 9730  10.737   6.064   5.322 -0.0961  0.5650 -0.4032
  796MOL0     C 9731  10.689   6.093   5.464  0.0158 -1.2606  0.3761
  796MOL0     C 9732  10.775   6.068   5.588  0.7684 -0.4706  1.6096
  796MOL0     C 9733  10.791   5.919   5.614  0.2891  0.8559 -0.3392
  796MOL0     O 9734  10.659   5.856   5.634 -1.0626 -0.9622  0.2797
  796MOL0     C 9735  10.665   5.728   5.672 -0.1087  0.5374 -0.4678
  796MOL0     C 9736  10.622   5.618   5.588 -0.1304  0.1804  0.5262
  796MOL0     C 9737  10.634   5.491   5.635 -0.0478 -0.3352  0.3544
  796MOL0     C 9738  10.598   5.379   5.535 -0.0660 -0.2457  1.2260
  796MOL0     C 9739  10.688   5.467   5.767  0.4166  0.0289  0.0094
  796MOL0     C 9740  10.700   5.331   5.832 -0.6115  0.2504 -0.7650
  796MOL0     O 9741  10.722   5.328   5.970 -0.4312  0.1588  0.4464
  796MOL0     C 9742  10.716   5.214   6.042 -0.3781  0.3208  1.4190
  796MOL0     C 9743  10.636   5.096   6.017 -0.8991 -0.5489  1.1848
  796MOL0     C 9744  10.659   4.983   6.093  0.4502 -0.3807 -0.1708
  796MOL0     C 9745  10.753   4.980   6.195  1.0550 -0.2132 -0.0491
  796MOL0     O 9746  10.770   4.878   6.277  0.7464 -0.2062  0.1113
  796MOL0     C 9747  10.849   4.778   6.217 -0.6545 -0.7473  0.1620
  796MOL0     C 9748  11.005   4.783   6.241  0.9277 -0.8923  0.6395
  796MOL0     C 9749  11.055   4.761   6.378 -1.1093 -0.7789 -1.1689
  796MOL0     C 9750  11.197   4.811   6.394 -0.0912 -0.4627  0.1809
  796MOL0     C 9751  11.298   4.726   6.313  0.0054 -0.3762 -0.0496
  796MOL0     C 9752  11.280   4.573   6.334  0.6422 -0.5041 -0.6657
  796MOL0     C 9753  11.395   4.501   6.275 -0.1513 -1.1405  0.1260
  796MOL0     C 9754  11.348   4.412   6.158 -0.8513 -0.4639  0.3370
  796MOL0    Cl 9755  11.274   4.528   6.035 -0.1198  0.1962 -0.0417
  796MOL0     C 9756  10.814   5.106   6.221 -0.2602 -0.3639  0.3117
  796MOL0     C 9757  10.797   5.213   6.148 -0.5091 -0.4793 -0.6049
  796MOL0     O 9758  10.684   5.231   5.760 -0.5335  0.0769 -0.4290
  796MOL0     C 9759  10.726   5.578   5.843  0.4546 -0.4508 -0.5829
  796MOL0     C 9760  10.722   5.710   5.793  0.5102  0.0357 -0.0630
  796MOL0     N 9761  10.843   6.264   5.208  0.9661 -0.1215  0.3114
  796MOL0     N 9762  10.820   6.343   5.115 -0.3344 -0.8606 -0.3435
  796MOL0     C 9763  11.010   6.980   5.570 -0.6276 -0.0531 -0.2751
  796MOL0     C 9764  11.102   7.080   5.565  0.0292  0.5003  1.0703
  796MOL0     C 9765  11.337   7.427   5.402 -0.1101  0.1243 -0.5734
  796MOL0     C 9766  11.346   7.539   5.314  0.2444  0.3251  0.3328
  796MOL0     C 9767  11.453   7.624   5.299 -0.0134  0.6120 -0.5124
  796MOL0     C 9768  11.557   7.610   5.393 -0.4238 -0.1700  0.3351
  796MOL0     O 9769  11.643   7.711   5.415  0.5895 -0.3545  0.5651
  796MOL0     C 9770  11.699   7.802   5.314 -0.2257 -0.3618  0.2544
  796MOL0     C 9771  11.838   7.840   5.372 -0.5616  0.0323  0.1682
  796MOL0     C 9772  11.829   7.902   5.514 -0.2545 -0.1511  0.0700
  796MOL0     C 9773  11.964   7.945   5.568 -0.4524  0.4500 -0.0107
  796MOL0     C 9774  12.026   8.037   5.481 -1.6611 -0.7762 -0.6681
  796MOL0     C 9775  12.096   8.106   5.412  0.4933  0.1879 -0.0677
  796MOL0     C 9776  11.545   7.513   5.500  0.6746 -0.7865  1.1973
  796MOL0     C 9777  11.441   7.418   5.501 -0.0504 -0.1354 -0.1077
  796MOL0     C 9778  11.439   7.303   5.594 -0.4690  1.3897  0.4675
  796MOL0     H 9779  10.915   7.329   5.440  0.7651  0.0091 -2.6537
  796MOL0     H 9780  10.750   7.144   5.422 -0.1029 -1.3540  0.2705
  796MOL0     H 9781  10.625   6.927   5.421  0.7129  1.1018 -0.8981
  796MOL0     H 9782  10.630   6.978   5.593  3.1839 -0.6177  3.1427
  796MOL0     H 9783  10.602   6.726   5.648 -2.4350  1.7397 -0.0306
  796MOL0     H 9784  10.487   6.782   5.538  0.6605 -0.1427 -0.3751
  796MOL0     H 9785  10.744   6.624   5.463 -0.4507  1.5293  0.4570
  796MOL0     H 9786  10.598   6.546   5.477  4.4721 -3.1232 -1.7239
  796MOL0     H 9787  10.481   6.686   5.296  0.2897  0.6206  0.9817
  796MOL0     H 9788  10.627   6.773   5.266  2.1727 -0.7285  0.6746
  796MOL0     H 9789  10.592   6.471   5.231 -4.1754  1.6346  0.3976
  796MOL0     H 9790  10.743   6.573   5.176  0.0021  0.4797  1.7607
  796MOL0     H 9791  10.481   6.534   5.051 -0.6811  0.1320  0.9305
  796MOL0     H 9792  10.557   6.693   5.036 -0.4804 -0.8695 -1.5060
  796MOL0     H 9793  10.754   6.569   4.918  0.3773 -1.8098  0.8925
  796MOL0     H 9794  10.599   6.569   4.848  1.3613 -1.7744 -1.6077
  796MOL0     H 9795  10.546   6.349   4.907 -0.8108  1.1537  1.3323
  796MOL0     H 9796  10.709   6.351   4.843 -0.9108  3.9818 -2.9909
  796MOL0     H 9797  10.527   6.185   5.127  0.9346 -1.1627 -0.2164
  796MOL0     H 9798  10.844   6.044   5.331 -0.7215 -2.1594  3.3105
  796MOL0     H 9799  10.697   5.973   5.277 -0.7451  0.8169 -0.3408
  796MOL0     H 9800  10.682   6.202   5.475  1.2288 -1.1522  0.2196
  796MOL0     H 9801  10.588   6.053   5.474 -0.3360 -0.3857  0.4015
  796MOL0     H 9802  10.869   6.122   5.579  2.5267 -3.4213  1.0017
  796MOL0     H 9803  10.709   6.113   5.663  1.0789  0.4945  1.3176
  796MOL0     H 9804  10.826   5.869   5.523 -3.6388 -4.4710  0.5675
  796MOL0     H 9805  10.856   5.896   5.699  1.2815 -1.6049 -1.6528
  796MOL0     H 9806  10.587   5.634   5.486  0.8677 -0.8966 -0.0132
  796MOL0     H 9807  10.688   5.321   5.518  1.3636  2.1962 -0.2154
  796MOL0     H 9808  10.571   5.418   5.436 -1.5056  0.8593  2.0093
  796MOL0     H 9809  10.510   5.322   5.567 -2.0697  1.8308 -0.1703
  796MOL0     H 9810  10.569   5.098   5.932  0.7121  1.7232 -0.1363
  796MOL0     H 9811  10.608   4.891   6.067  1.3162 -0.8912 -0.0941
  796MOL0     H 9812  10.822   4.679   6.255  1.3830 -0.9566  1.1871
  796MOL0     H 9813  10.828   4.769   6.110 -0.9457  2.0750 -0.0910
  796MOL0     H 9814  11.049   4.707   6.175 -2.2873 -0.8657 -1.7814
  796MOL0     H 9815  11.042   4.883   6.217 -0.1658 -0.0939  2.1302
  796MOL0     H 9816  11.049   4.656   6.405 -1.4266 -0.8293 -1.4309
  796MOL0     H 9817  10.988   4.819   6.441  0.4273  1.1411 -1.1826
  796MOL0     H 9818  11.229   4.805   6.499  1.6267  0.7573 -0.2215
  796MOL0     H 9819  11.199   4.917   6.367 -3.3385 -0.2195  0.5403
  796MOL0     H 9820  11.285   4.748   6.206 -0.6545  1.6494  0.4036
  796MOL0     H 9821  11.401   4.752   6.336 -0.1705 -0.1976  0.5527
  796MOL0     H 9822  11.188   4.536   6.286  1.6414 -2.0744 -1.4409
  796MOL0     H 9823  11.286   4.550   6.441  3.4552 -3.4575 -1.3253
  796MOL0     H 9824  11.443   4.443   6.355  1.2175  1.5583  1.4062
  796MOL0     H 9825  11.469   4.573   6.238  0.3795 -1.3082  0.8320
  796MOL0     H 9826  11.271   4.344   6.196 -2.1757 -0.3649 -1.9279
  796MOL0     H 9827  11.430   4.361   6.108  1.9627  2.9542  1.1239
  796MOL0     H 9828  10.885   5.112   6.303 -0.8919 -1.4046  0.9671
  796MOL0     H 9829  10.850   5.307   6.159 -0.7675 -0.0055 -2.7891
  796MOL0     H 9830  10.771   5.574   5.942 -2.9691  3.3805  1.4177
  796MOL0     H 9831  10.764   5.787   5.856  3.0160 -1.5639  0.3408
  796MOL0     H 9832  11.045   6.884   5.605 -1.5702  0.2435  1.5716
  796MOL0     H 9833  11.201   7.064   5.605  0.4335 -4.4789 -1.2482
  796MOL0     H 9834  11.268   7.561   5.243  0.9918 -0.2905 -0.7114
  796MOL0     H 9835  11.449   7.704   5.225  2.4259 -1.2222 -2.8001
  796MOL0     H 9836  11.705   7.763   5.212 -0.4260 -1.6273  0.7052
  796MOL0     H 9837  11.635   7.891   5.307 -2.1270 -1.5746  1.2814
  796MOL0     H 9838  11.887   7.914   5.309 -0.7746 -0.2693 -0.3585
  796MOL0     H 9839  11.898   7.748   5.378 -2.6044 -1.2661  2.4455
  796MOL0     H 9840  11.767   7.991   5.519 -0.3824 -0.2792  1.0546
  796MOL0     H 9841  11.783   7.823   5.576  0.2983 -1.9801 -1.7317
  796MOL0     H 9842  12.033   7.864   5.593 -0.8640 -0.1199 -0.6889
  796MOL0     H 9843  11.951   8.002   5.660  0.5791 -1.2066  1.2032
  796MOL0     H 9844  12.160   8.165   5.350  1.0990 -1.0855 -0.6975
  796MOL0     H 9845  11.623   7.508   5.575  1.3797 -2.4700  0.4141
  796MOL0     H 9846  11.362   7.314   5.671 -2.6081 -1.9221 -0.9777
  796MOL0     H 9847  11.394   7.211   5.558  0.5306  0.6194  1.1094
  796MOL0     H 9848  11.542   7.279   5.623 -1.5668 -3.1886  1.3778
  797MOL0     O 9849   4.843   5.873   2.167  0.6941  0.0737  0.3960
  797MOL0     C 9850   4.748   5.851   2.094  1.2567 -0.1891 -0.0687
  797MOL0     O 9851   4.751   5.861   1.949  0.5692 -0.1554 -0.5012
  797MOL0     C 9852   4.878   5.853   1.901  0.0957  0.6593 -0.5943
  797MOL0     C 9853   4.977   5.958   1.914  0.6446  0.6145  0.0234
  797MOL0     C 9854   5.094   5.959   1.835  0.6006 -0.7525 -0.2506
  797MOL0     C 9855   5.112   5.860   1.741  0.8051 -0.2426 -0.0198
  797MOL0     O 9856   5.211   5.853   1.637 -0.5592  0.7296  0.1473
  797MOL0     C 9857   5.301   5.962   1.613 -0.4831 -0.4207  0.0765
  797MOL0     C 9858   5.367   5.945   1.469  0.1411 -0.1917 -0.2959
  797MOL0     C 9859   5.478   6.047   1.449  0.1638 -0.5785 -0.1013
  797MOL0     C 9860   5.604   5.999   1.530 -0.0522 -0.8953  1.2629
  797MOL0     C 9861   5.718   6.097   1.506  0.0761  0.2176  0.4682
  797MOL0     C 9862   5.819   6.093   1.625  0.5130 -0.5395  0.0509
  797MOL0     C 9863   5.925   6.205   1.628 -0.3183  0.5812 -0.2011
  797MOL0     C 9864   6.013   6.192   1.748 -0.5790 -0.3746 -0.0435
  797MOL0     N 9865   6.097   6.075   1.721 -0.1949 -0.2613 -0.0654
  797MOL0     C 9866   6.122   5.978   1.813 -0.0482 -0.3171 -0.2841
  797MOL0     C 9867   6.225   5.911   1.766 -0.0818 -0.4002  0.3380
  797MOL0     C 9868   6.307   5.797   1.826  1.4490  1.1783 -0.6086
  797MOL0     C 9869   6.449   5.837   1.846 -0.1754 -0.0115 -0.3240
  797MOL0     C 9870   6.543   5.738   1.933 -0.2020  0.2337 -0.5217
  797MOL0     C 9871   6.687   5.783   1.961 -0.5153  0.3077  0.2459
  797MOL0     O 9872   6.776   5.669   2.002  0.4630  0.0489  0.4723
  797MOL0     C 9873   6.744   5.620   2.118  1.1466 -0.1962 -0.7055
  797MOL0     C 9874   6.803   5.500   2.143  0.4170  0.1653 -0.2806
  797MOL0     C 9875   6.787   5.439   2.265  0.7551  0.7474 -0.2499
  797MOL0     C 9876   6.894   5.328   2.296 -0.1383 -0.0823 -0.9120
  797MOL0     C 9877   6.700   5.492   2.371 -0.8660  0.0044  0.8711
  797MOL0     C 9878   6.696   5.423   2.502  0.2475 -0.3308  0.7437
  797MOL0     O 9879   6.665   5.492   2.615 -0.1180 -0.4110  0.4039
  797MOL0     C 9880   6.598   5.432   2.722 -0.0672  0.2894 -0.2165
  797MOL0     C 9881   6.489   5.337   2.711  0.1161  0.2779 -0.1706
  797MOL0     C 9882   6.431   5.283   2.825 -0.8708 -0.0886 -0.2570
  797MOL0     C 9883   6.471   5.330   2.953  0.2737 -0.4464 -0.3970
  797MOL0     O 9884   6.423   5.296   3.079 -0.1008  0.4623 -0.0158
  797MOL0     C 9885   6.375   5.166   3.084 -0.1664  0.6143  0.3775
  797MOL0     C 9886   6.473   5.042   3.077  0.8190  0.3816  0.0718
  797MOL0     C 9887   6.582   5.074   3.185 -0.2210 -0.8611  0.3425
  797MOL0     C 9888   6.712   5.005   3.143 -0.0522 -0.7622 -0.3379
  797MOL0     C 9889   6.835   5.014   3.234 -0.0296 -0.1651  0.4666
  797MOL0     C 9890   6.869   5.153   3.283  0.4193 -0.0717  0.1051
  797MOL0     C 9891   6.872   5.246   3.162  0.6390  0.9308 -0.5461
  797MOL0     C 9892   6.972   5.354   3.160  0.4542  1.1291  0.2763
  797MOL0    Cl 9893   6.950   5.450   2.999 -0.2920  0.0127 -0.1623
  797MOL0     C 9894   6.571   5.428   2.970 -0.0948 -0.4711  0.8992
  797MOL0     C 9895   6.638   5.469   2.851  0.3534 -0.2610 -0.8888
  797MOL0     O 9896   6.698   5.304   2.488 -0.1859 -0.1256 -0.7312
  797MOL0     C 9897   6.642   5.612   2.349 -0.0514 -0.6579  0.2877
  797MOL0     C 9898   6.663   5.681   2.229  0.6801 -0.3273 -0.1832
  797MOL0     N 9899   6.257   5.967   1.643 -0.2303 -0.0314  0.8631
  797MOL0     N 9900   6.184   6.070   1.621  0.5340  0.5787  0.0836
  797MOL0     C 9901   5.018   5.754   1.736 -0.2341 -0.0417  0.4592
  797MOL0     C 9902   4.903   5.754   1.807 -0.1426  0.5946 -1.1532
  797MOL0     C 9903   4.643   5.782   2.172 -0.0626  0.1317  0.4111
  797MOL0     C 9904   4.678   5.676   2.261  0.1080  0.4115 -0.3895
  797MOL0     C 9905   4.581   5.594   2.337 -0.6474 -0.8541 -0.0635
  797MOL0     C 9906   4.441   5.636   2.325  0.4046  0.0909  0.8458
  797MOL0     O 9907   4.334   5.588   2.388  0.4947 -0.3333  1.2946
  797MOL0     C 9908   4.340   5.500   2.496 -0.2392 -0.5190 -0.3315
  797MOL0     C 9909   4.206   5.493   2.570 -0.8379  0.1115 -0.0243
  797MOL0     C 9910   4.208   5.414   2.702  0.2889  0.9771  0.6934
  797MOL0     C 9911   4.081   5.422   2.781 -0.3057 -0.7496 -0.9166
  797MOL0     C 9912   3.964   5.365   2.715  0.6635  0.2036 -0.2630
  797MOL0     C 9913   3.856   5.327   2.677  0.3908 -0.3149 -0.7549
  797MOL0     C 9914   4.413   5.743   2.230 -0.8042  0.2588 -0.5415
  797MOL0     C 9915   4.507   5.810   2.156  0.2172 -0.4805  0.2749
  797MOL0     C 9916   4.460   5.911   2.050 -0.0548 -0.0168  0.0917
  797MOL0     H 9917   4.955   6.036   1.987 -1.9448  1.0234 -1.0569
  797MOL0     H 9918   5.174   6.032   1.847  2.5820 -2.6684 -1.2195
  797MOL0     H 9919   5.373   5.976   1.694 -1.3326  0.8242  0.6658
  797MOL0     H 9920   5.235   6.049   1.603  1.2289  0.6404 -4.2581
  797MOL0     H 9921   5.406   5.845   1.450  1.4735  0.6680 -2.5416
  797MOL0     H 9922   5.291   5.958   1.392 -0.2084 -2.3620 -0.3792
  797MOL0     H 9923   5.505   6.067   1.345  1.0012 -2.4145 -0.2666
  797MOL0     H 9924   5.446   6.139   1.501  2.5567  0.3231 -0.1078
  797MOL0     H 9925   5.587   5.995   1.638  0.3188  1.9611  1.4920
  797MOL0     H 9926   5.644   5.900   1.505  3.6516  0.6549  0.3069
  797MOL0     H 9927   5.673   6.194   1.484  1.9492  1.0294 -0.0196
  797MOL0     H 9928   5.780   6.075   1.418  1.8551 -2.2700  2.2131
  797MOL0     H 9929   5.772   6.099   1.724  2.2570  1.2549  0.8323
  797MOL0     H 9930   5.869   5.996   1.620 -1.8402 -1.8491  0.5273
  797MOL0     H 9931   5.879   6.305   1.629 -1.5641  0.0847  2.3610
  797MOL0     H 9932   5.992   6.192   1.543  0.2298 -0.5226  0.3858
  797MOL0     H 9933   6.073   6.283   1.753 -3.2846  1.5868 -0.7352
  797MOL0     H 9934   5.950   6.165   1.833 -2.2093 -1.8833 -1.6169
  797MOL0     H 9935   6.055   5.968   1.897 -2.8452  4.0974 -1.6284
  797MOL0     H 9936   6.285   5.709   1.765 -2.3481  1.8740 -0.4967
  797MOL0     H 9937   6.266   5.770   1.924 -0.6065 -0.8510 -1.9378
  797MOL0     H 9938   6.494   5.860   1.749 -1.1863 -1.6334 -1.2262
  797MOL0     H 9939   6.456   5.935   1.893 -2.0369  1.6516 -3.1852
  797MOL0     H 9940   6.473   5.734   2.017  0.4364 -3.0412  0.0019
  797MOL0     H 9941   6.542   5.636   1.892  2.7226 -0.3838  0.7104
  797MOL0     H 9942   6.734   5.830   1.873 -2.2774 -0.0826 -0.9509
  797MOL0     H 9943   6.692   5.870   2.027  0.3629 -0.4379  1.2054
  797MOL0     H 9944   6.893   5.477   2.088 -1.7993 -3.2429 -2.9083
  797MOL0     H 9945   6.945   5.367   2.385  1.0227  0.1515 -1.6590
  797MOL0     H 9946   6.971   5.320   2.219 -0.0736 -0.0106 -0.8548
  797MOL0     H 9947   6.834   5.237   2.307 -0.0955  0.1983  3.2799
  797MOL0     H 9948   6.457   5.304   2.613 -1.8607 -3.6900  1.5785
  797MOL0     H 9949   6.354   5.207   2.823 -3.8330  2.6376  0.9793
  797MOL0     H 9950   6.345   5.161   3.189  2.1811  3.6362  1.3009
  797MOL0     H 9951   6.289   5.162   3.015 -0.2387  1.8218  0.3780
  797MOL0     H 9952   6.425   4.949   3.106 -2.1011  1.3653 -1.2375
  797MOL0     H 9953   6.511   5.009   2.980  1.0569 -1.7381  0.8393
  797MOL0     H 9954   6.552   5.033   3.282  1.3288 -0.7516  0.9009
  797MOL0     H 9955   6.597   5.182   3.192 -4.4791  0.0970 -2.1626
  797MOL0     H 9956   6.730   5.049   3.044  1.5971  2.7693  1.3549
  797MOL0     H 9957   6.698   4.898   3.124 -0.9913 -0.8067  0.5526
  797MOL0     H 9958   6.832   4.938   3.312 -1.5623 -2.0177 -1.2882
  797MOL0     H 9959   6.925   5.000   3.175  1.8390  2.2304  2.5037
  797MOL0     H 9960   6.966   5.147   3.332  0.6256 -1.0299 -0.3912
  797MOL0     H 9961   6.794   5.199   3.348  1.0172 -1.3345  1.7453
  797MOL0     H 9962   6.773   5.291   3.150 -0.0092  0.1625  1.4772
  797MOL0     H 9963   6.881   5.184   3.072 -1.0694 -0.6244  0.2674
  797MOL0     H 9964   7.078   5.326   3.168  0.8956  2.3407 -0.8239
  797MOL0     H 9965   6.954   5.426   3.241  2.5465  2.1110 -0.0381
  797MOL0     H 9966   6.612   5.454   3.067 -0.5605 -0.7935  1.1857
  797MOL0     H 9967   6.719   5.541   2.854  1.3307 -1.2679 -2.0183
  797MOL0     H 9968   6.575   5.648   2.427  0.1328 -2.0368  1.1369
  797MOL0     H 9969   6.630   5.783   2.212 -2.1936 -1.4437 -1.8887
  797MOL0     H 9970   5.027   5.677   1.660 -1.5557  0.2051  0.0294
  797MOL0     H 9971   4.823   5.681   1.806  0.9145 -0.6925  1.3203
  797MOL0     H 9972   4.780   5.643   2.278  1.0138  3.4967  0.7855
  797MOL0     H 9973   4.600   5.519   2.413 -0.5393 -0.4532  0.3081
  797MOL0     H 9974   4.367   5.403   2.455 -2.3492 -0.2137 -2.6737
  797MOL0     H 9975   4.418   5.530   2.567  1.2435 -1.2867 -1.5757
  797MOL0     H 9976   4.135   5.443   2.504  0.6886 -3.1454  0.6090
  797MOL0     H 9977   4.166   5.594   2.587 -2.3030 -0.3814 -0.4568
  797MOL0     H 9978   4.221   5.308   2.675 -1.2362  1.3655 -1.9508
  797MOL0     H 9979   4.289   5.445   2.768 -0.2055  1.0632  1.2688
  797MOL0     H 9980   4.075   5.528   2.809  0.1616 -0.8876 -0.2699
  797MOL0     H 9981   4.097   5.371   2.876  3.0756  1.4755 -0.1199
  797MOL0     H 9982   3.760   5.285   2.653  1.0384 -1.1540 -2.0160
  797MOL0     H 9983   4.309   5.768   2.210 -1.6822 -2.1030  0.6475
  797MOL0     H 9984   4.353   5.898   2.031  0.0959 -1.9429  0.3733
  797MOL0     H 9985   4.481   6.013   2.084 -0.6450  1.0719 -2.5317
  797MOL0     H 9986   4.516   5.908   1.956  2.7244 -2.8287  1.6343
  798MOL0     O 9987   2.164  10.915   5.208 -0.4913 -0.1197  0.8702
  798MOL0     C 9988   2.222  10.817   5.152  1.5031  0.3748 -0.0284
  798MOL0     O 9989   2.314  10.820   5.047  0.1051 -0.4789 -0.4146
  798MOL0     C 9990   2.369  10.935   4.991 -0.3329  0.1964  0.0152
  798MOL0     C 9991   2.470  10.910   4.894  0.2548 -0.6480  0.4775
  798MOL0     C 9992   2.538  11.020   4.830  0.3807  1.0521 -0.9752
  798MOL0     C 9993   2.489  11.155   4.860 -0.3159  0.1300  0.0351
  798MOL0     O 9994   2.547  11.251   4.786  0.6291  0.4121  0.0366
  798MOL0     C 9995   2.664  11.315   4.849  0.6410 -0.8459 -0.3311
  798MOL0     C 9996   2.771  11.296   4.742 -0.1767 -0.0174 -0.1044
  798MOL0     C 9997   2.765  11.390   4.624 -0.1310  0.0541 -0.4230
  798MOL0     C 9998   2.797  11.534   4.670 -0.1076 -0.2872  0.8212
  798MOL0     C 9999   2.828  11.623   4.541 -0.2810  0.8564 -0.5894
  798MOL0     C10000   2.923  11.741   4.587  0.4211  0.5522 -0.0815
  798MOL0     C10001   2.961  11.835   4.469  0.9827  0.1490  0.4425
  798MOL0     C10002   2.992  11.770   4.334 -0.2361  0.2552  0.0386
  798MOL0     N10003   3.127  11.714   4.331 -0.5764  0.6507 -0.0886
  798MOL0     C10004   3.215  11.749   4.229  0.0721  0.4614  1.1869
  798MOL0     C10005   3.332  11.678   4.269  0.6309  1.0804 -0.5222
  798MOL0     C10006   3.467  11.675   4.212  0.4455 -0.3668  0.1213
  798MOL0     C10007   3.476  11.602   4.073  0.6496  0.3096  0.2166
  798MOL0     C10008   3.501  11.456   4.101 -0.9519  0.2601 -0.3941
  798MOL0     C10009   3.483  11.364   3.973  0.3832 -0.0665  0.7222
  798MOL0     O10010   3.348  11.363   3.944  0.1186 -0.0695  0.0972
  798MOL0     C10011   3.310  11.314   3.824  0.0798 -0.2793  1.1233
  798MOL0     C10012   3.212  11.381   3.757  0.7763  0.3500 -0.0303
  798MOL0     C10013   3.173  11.332   3.634 -0.6020  0.0498  0.8723
  798MOL0     C10014   3.049  11.386   3.569  0.2227 -0.3270  0.2678
  798MOL0     C10015   3.252  11.237   3.557 -0.1862  0.6580 -0.5256
  798MOL0     C10016   3.228  11.184   3.420 -0.1536 -0.3565 -0.5745
  798MOL0     O10017   3.142  11.242   3.339  0.0698  0.1946 -0.0045
  798MOL0     C10018   3.140  11.218   3.208 -0.9790 -0.6184  0.2159
  798MOL0     C10019   3.016  11.186   3.154 -0.4293 -1.0766  0.2967
  798MOL0     C10020   3.009  11.151   3.012 -0.5984  0.4563 -0.0615
  798MOL0     C10021   3.117  11.155   2.929 -0.4425 -0.0140 -0.1655
  798MOL0     O10022   3.118  11.153   2.790 -0.1813  0.2962 -0.2989
  798MOL0     C10023   3.064  11.280   2.739 -1.3816  0.1238 -0.4317
  798MOL0     C10024   2.917  11.299   2.748 -0.6645 -0.2200 -0.4660
  798MOL0     C10025   2.870  11.429   2.665  0.0594 -0.1479  1.0105
  798MOL0     C10026   2.969  11.558   2.664  0.5694 -0.3046 -0.1216
  798MOL0     C10027   2.976  11.627   2.809  1.0589 -0.3566  0.3161
  798MOL0     C10028   2.845  11.715   2.854 -0.4635  0.0844  0.4903
  798MOL0     C10029   2.745  11.626   2.930 -0.6290 -0.2601 -0.2279
  798MOL0     C10030   2.622  11.728   2.964  0.6963 -0.2301  0.1357
  798MOL0    Cl10031   2.490  11.725   2.838 -0.2326 -0.0552 -0.1126
  798MOL0     C10032   3.242  11.187   2.987  0.3857  0.5455  0.3872
  798MOL0     C10033   3.256  11.223   3.125 -0.5590  0.3039 -0.8013
  798MOL0     O10034   3.293  11.088   3.389  0.7987 -0.1755  0.2086
  798MOL0     C10035   3.359  11.180   3.627 -0.7887 -0.9238  0.9884
  798MOL0     C10036   3.396  11.214   3.756 -1.1816 -0.4104  0.0183
  798MOL0     N10037   3.298  11.614   4.390  0.3681 -0.3912  0.3558
  798MOL0     N10038   3.182  11.638   4.424 -0.7004  0.5019 -0.5156
  798MOL0     C10039   2.393  11.174   4.964 -0.9053 -0.3365 -0.2062
  798MOL0     C10040   2.345  11.068   5.036 -0.5286  0.1933 -0.2231
  798MOL0     C10041   2.199  10.674   5.207  1.0854 -0.1671 -0.0351
  798MOL0     C10042   2.279  10.567   5.153 -0.3177 -0.1473 -0.8552
  798MOL0     C10043   2.268  10.440   5.204 -1.2059 -0.5099 -0.6222
  798MOL0     C10044   2.174  10.405   5.296 -0.2449  1.2017 -1.5742
  798MOL0     O10045   2.187  10.273   5.348 -0.4028  0.0505 -0.2005
  798MOL0     C10046   2.183  10.263   5.486  1.1297 -0.7567 -1.1592
  798MOL0     C10047   2.274  10.145   5.538  0.7714  0.0627  0.9112
  798MOL0     C10048   2.193  10.011   5.538 -0.8536 -0.1630  0.4619
  798MOL0     C10049   2.109   9.982   5.655 -0.4755  0.7765  0.5021
  798MOL0     C10050   2.008   9.884   5.609 -0.3954  0.9419  0.1779
  798MOL0     C10051   1.920   9.822   5.551  0.0977  0.2398 -0.2636
  798MOL0     C10052   2.091  10.506   5.348 -0.7182  0.4829  0.2744
  798MOL0     C10053   2.107  10.637   5.314  0.4486 -0.0182  0.1618
  798MOL0     C10054   2.014  10.730   5.387 -0.3009 -0.4129 -0.4343
  798MOL0     H10055   2.489  10.808   4.864  1.7703  0.3546 -2.2279
  798MOL0     H10056   2.620  11.012   4.760 -0.5732  1.7129 -2.2126
  798MOL0     H10057   2.694  11.260   4.939 -1.0983  0.2176  0.9643
  798MOL0     H10058   2.640  11.419   4.874 -2.2566 -1.8358  1.5556
  798MOL0     H10059   2.868  11.305   4.791 -0.5876 -1.0439  0.9421
  798MOL0     H10060   2.770  11.194   4.704 -0.7583 -0.3267  0.7138
  798MOL0     H10061   2.832  11.362   4.542  0.6901  4.1671 -1.3607
  798MOL0     H10062   2.668  11.386   4.575 -1.0214  2.0158  1.0808
  798MOL0     H10063   2.713  11.570   4.730  0.7317 -1.2600  2.6361
  798MOL0     H10064   2.877  11.526   4.743  1.5634 -0.1951 -0.9283
  798MOL0     H10065   2.733  11.663   4.505  0.3492  2.9814  0.0038
  798MOL0     H10066   2.860  11.549   4.467 -2.8249 -1.1452  0.1701
  798MOL0     H10067   2.870  11.806   4.657 -2.6824 -0.7436 -1.0767
  798MOL0     H10068   3.020  11.717   4.631  0.0569  0.6464  0.7885
  798MOL0     H10069   3.052  11.880   4.510  0.9458 -2.2631  3.6998
  798MOL0     H10070   2.891  11.918   4.460  1.5680  0.4183 -2.1927
  798MOL0     H10071   2.915  11.695   4.313  2.6082 -2.9641  0.0943
  798MOL0     H10072   2.987  11.849   4.259 -0.9131  0.5330  0.3694
  798MOL0     H10073   3.214  11.826   4.153 -0.0385 -0.0453  0.6756
  798MOL0     H10074   3.542  11.645   4.285  1.1569  0.6370 -0.1662
  798MOL0     H10075   3.499  11.780   4.213  0.5091 -0.2561 -2.9575
  798MOL0     H10076   3.386  11.627   4.016 -1.4942  2.2444  4.0529
  798MOL0     H10077   3.551  11.645   4.006 -1.7730  3.0719 -0.9382
  798MOL0     H10078   3.586  11.433   4.166 -1.4932 -0.4011  0.0841
  798MOL0     H10079   3.417  11.431   4.166 -0.8787 -1.1065 -0.7911
  798MOL0     H10080   3.548  11.398   3.892  2.7177 -0.3241  2.3737
  798MOL0     H10081   3.514  11.261   3.995  0.9088  0.3327  1.9650
  798MOL0     H10082   3.161  11.460   3.811 -0.2830 -1.2377  1.3737
  798MOL0     H10083   3.069  11.458   3.489 -0.3510 -0.4369  0.0239
  798MOL0     H10084   2.998  11.459   3.634  1.2469 -0.2284  0.9906
  798MOL0     H10085   2.977  11.312   3.534  0.3335  0.3983 -1.5679
  798MOL0     H10086   2.919  11.193   3.201 -1.2143  0.0026 -1.3711
  798MOL0     H10087   2.909  11.127   2.977  0.0414 -0.3000 -1.4293
  798MOL0     H10088   3.117  11.360   2.791  1.9272 -1.8000 -0.5488
  798MOL0     H10089   3.095  11.288   2.635  0.7660 -2.1870 -0.1002
  798MOL0     H10090   2.862  11.209   2.721 -0.5228 -0.7598  0.9667
  798MOL0     H10091   2.901  11.329   2.852  3.2064 -0.1960  0.2456
  798MOL0     H10092   2.766  11.458   2.683 -0.2622 -1.3633  1.1810
  798MOL0     H10093   2.886  11.400   2.561  2.5576  0.0325  1.2795
  798MOL0     H10094   2.933  11.621   2.582 -1.3583 -0.3378  0.6373
  798MOL0     H10095   3.069  11.532   2.630 -0.7437 -4.7766 -1.2483
  798MOL0     H10096   2.986  11.539   2.873  1.2139 -0.1938  0.5176
  798MOL0     H10097   3.062  11.696   2.816 -0.1507  1.6231 -2.4651
  798MOL0     H10098   2.805  11.766   2.766 -1.9249  0.2769  1.2249
  798MOL0     H10099   2.875  11.793   2.925 -0.2972 -0.2133  0.7499
  798MOL0     H10100   2.793  11.584   3.019 -0.5708  0.5039  0.1050
  798MOL0     H10101   2.697  11.548   2.870 -3.8046  1.7220 -0.5466
  798MOL0     H10102   2.653  11.833   2.967 -1.7938  0.5872 -0.7222
  798MOL0     H10103   2.581  11.697   3.061  1.5402  2.3230  1.4031
  798MOL0     H10104   3.329  11.179   2.923  1.5983  0.0127  2.0319
  798MOL0     H10105   3.351  11.255   3.167 -0.4130  3.9546 -3.4522
  798MOL0     H10106   3.438  11.136   3.568  0.8325  2.6951  0.1599
  798MOL0     H10107   3.488  11.177   3.799  0.2002  2.8981  0.2029
  798MOL0     H10108   2.373  11.277   4.991 -8.1070 -1.3964  0.3909
  798MOL0     H10109   2.276  11.086   5.117  0.7778  1.5409  0.6599
  798MOL0     H10110   2.347  10.580   5.070 -0.2175  2.5530 -0.4339
  798MOL0     H10111   2.338  10.362   5.173 -0.5703 -0.4968  0.7238
  798MOL0     H10112   2.216  10.361   5.521 -2.9165  0.1247  0.7389
  798MOL0     H10113   2.080  10.267   5.522  1.8442 -0.0232  0.9535
  798MOL0     H10114   2.332  10.159   5.630  1.7041  2.8071  0.0288
  798MOL0     H10115   2.344  10.151   5.454 -0.7617  3.1751 -0.3208
  798MOL0     H10116   2.140  10.023   5.442 -0.4217  2.3950  0.4658
  798MOL0     H10117   2.257   9.923   5.525  0.2652  0.2707  2.6688
  798MOL0     H10118   2.039  10.065   5.673 -0.0834  1.6707 -1.7682
  798MOL0     H10119   2.159   9.936   5.740 -2.1594 -2.2857 -0.0255
  798MOL0     H10120   1.837   9.760   5.524 -1.3167  0.7265  2.6354
  798MOL0     H10121   2.025  10.475   5.429 -0.0344  2.5050  1.6919
  798MOL0     H10122   1.939  10.763   5.314 -0.0712 -0.5502 -0.7309
  798MOL0     H10123   1.959  10.680   5.468 -1.2093 -2.7254 -2.3494
  798MOL0     H10124   2.077  10.807   5.431  1.9777 -2.5524  0.2869
  799MOL0     O10125   3.481  10.938   5.111  0.6918 -0.0265  0.8451
  799MOL0     C10126   3.457  11.043   5.162  0.3965 -0.3287 -0.5716
  799MOL0     O10127   3.502  11.162   5.124  0.2455  0.2054 -1.0178
  799MOL0     C10128   3.561  11.185   5.001 -0.1474  0.3478  0.3312
  799MOL0     C10129   3.657  11.287   4.992  0.0288  0.8846  0.2001
  799MOL0     C10130   3.703  11.336   4.864 -0.2759 -0.0903 -1.0364
  799MOL0     C10131   3.668  11.273   4.753 -0.7103 -0.5357  1.2717
  799MOL0     O10132   3.705  11.332   4.625  0.7178  0.0702 -1.0538
  799MOL0     C10133   3.722  11.252   4.511 -0.2067  0.1522 -0.4477
  799MOL0     C10134   3.780  11.339   4.402 -0.8272  0.2763 -0.2639
  799MOL0     C10135   3.929  11.345   4.395  0.3131 -1.0202  0.8762
  799MOL0     C10136   3.964  11.399   4.255 -0.7524  0.2399  0.6164
  799MOL0     C10137   4.105  11.435   4.230  0.2013 -0.3201  0.1310
  799MOL0     C10138   4.155  11.569   4.292 -0.3156  0.2421  1.0041
  799MOL0     C10139   4.073  11.685   4.227  0.7335 -0.2258  0.4688
  799MOL0     C10140   4.126  11.822   4.272  0.1722 -0.7148  0.1015
  799MOL0     N10141   4.030  11.922   4.215  0.0957  0.7765  0.6418
  799MOL0     C10142   4.036  11.971   4.084  0.3449 -0.1726  0.0987
  799MOL0     C10143   3.917  12.046   4.075  0.4258 -0.4194  0.6907
  799MOL0     C10144   3.868  12.127   3.960 -0.3863 -0.5590 -0.4847
  799MOL0     C10145   3.991  12.190   3.894  1.2895  0.1205 -0.1445
  799MOL0     C10146   4.059  12.312   3.972 -0.2398 -0.3199 -1.3404
  799MOL0     C10147   4.115  12.419   3.867  0.5558  0.3026 -0.1619
  799MOL0     O10148   3.997  12.468   3.801  0.0707 -0.6857  0.0438
  799MOL0     C10149   4.033  12.545   3.692 -0.2079 -0.8979 -0.3711
  799MOL0     C10150   3.953  12.522   3.582 -1.1500  0.2700  0.6542
  799MOL0     C10151   3.988  12.568   3.454 -0.4969 -0.2827 -0.3378
  799MOL0     C10152   3.890  12.541   3.347  0.1385  0.0047  0.2886
  799MOL0     C10153   4.102  12.651   3.436 -0.6880  0.7709 -0.0488
  799MOL0     C10154   4.157  12.712   3.301 -0.0039  0.0060 -0.7700
  799MOL0     O10155   4.294  12.729   3.297 -0.0027 -0.1917 -0.3012
  799MOL0     C10156   4.346  12.782   3.180  1.4030 -0.6169 -0.2929
  799MOL0     C10157   4.374  12.695   3.074  0.3920  0.4388  0.5214
  799MOL0     C10158   4.392  12.737   2.947 -0.3769 -0.3210 -0.0029
  799MOL0     C10159   4.405  12.875   2.920 -0.0440  0.9288  0.5917
  799MOL0     O10160   4.423  12.918   2.789  0.1347  0.8359 -0.0183
  799MOL0     C10161   4.510  12.844   2.702 -0.2221  0.2626 -0.6107
  799MOL0     C10162   4.547  12.937   2.594 -0.0331 -0.5349 -0.3990
  799MOL0     C10163   4.643  13.037   2.634  0.5015  0.7582 -0.0525
  799MOL0     C10164   4.610  13.133   2.750 -1.4475  0.3436  0.0033
  799MOL0     C10165   4.710  13.253   2.769  1.3570 -0.3837  0.6615
  799MOL0     C10166   4.851  13.189   2.790 -0.1992 -0.6374  0.8186
  799MOL0     C10167   4.946  13.289   2.847  0.7110  0.1620  0.0178
  799MOL0     C10168   5.074  13.219   2.883  0.1768  0.5238  0.6614
  799MOL0    Cl10169   5.200  13.237   2.752  0.0646 -0.2871 -0.3194
  799MOL0     C10170   4.392  12.967   3.031  0.2139 -0.1592  0.3665
  799MOL0     C10171   4.364  12.920   3.165 -0.1612 -1.1633  0.3671
  799MOL0     O10172   4.077  12.754   3.217 -0.1050 -0.4661 -0.6488
  799MOL0     C10173   4.187  12.672   3.551 -0.3076 -0.0798 -0.5238
  799MOL0     C10174   4.157  12.618   3.678 -0.4007  0.0699 -0.6345
  799MOL0     N10175   3.838  12.016   4.182  1.1867  0.1910 -0.1754
  799MOL0     N10176   3.907  11.948   4.265  1.7644  0.6215  0.4409
  799MOL0     C10177   3.593  11.161   4.759  0.1451  0.6956  0.5554
  799MOL0     C10178   3.542  11.116   4.880  0.1819  1.0571  0.0430
  799MOL0     C10179   3.378  11.045   5.287  0.3817 -0.9116 -0.4458
  799MOL0     C10180   3.359  11.176   5.345 -0.2581 -0.0332 -0.6435
  799MOL0     C10181   3.305  11.197   5.474 -0.2437 -0.2386 -0.0023
  799MOL0     C10182   3.276  11.086   5.546  0.2665 -0.4218 -0.1566
  799MOL0     O10183   3.242  11.104   5.680 -1.0157 -0.0660  0.8309
  799MOL0     C10184   3.211  10.994   5.766 -0.8237 -0.3534 -0.3305
  799MOL0     C10185   3.219  11.034   5.916  0.1467  0.5519  0.4966
  799MOL0     C10186   3.138  10.925   5.990  0.8608 -0.4565  0.0777
  799MOL0     C10187   3.236  10.817   6.053 -0.1288 -0.3415  0.1278
  799MOL0     C10188   3.349  10.772   5.972 -0.4129 -0.6987 -0.3847
  799MOL0     C10189   3.440  10.729   5.913 -0.4389  0.4560  0.4965
  799MOL0     C10190   3.278  10.958   5.490  0.5506  0.2543 -0.2274
  799MOL0     C10191   3.327  10.938   5.360  0.4120 -0.3706  0.4575
  799MOL0     C10192   3.317  10.793   5.316 -0.0820  0.3878  1.3405
  799MOL0     H10193   3.687  11.338   5.083  2.0130  0.7031 -0.3007
  799MOL0     H10194   3.748  11.435   4.865  1.4602 -0.7394  2.6458
  799MOL0     H10195   3.622  11.221   4.476  0.0988  0.8763 -2.0254
  799MOL0     H10196   3.779  11.162   4.536  2.4426  1.6029 -0.9269
  799MOL0     H10197   3.743  11.293   4.309 -1.1581 -0.9279  0.4407
  799MOL0     H10198   3.743  11.441   4.394  1.2338  0.9351 -3.0562
  799MOL0     H10199   3.967  11.404   4.479 -1.5899 -0.3277  1.3128
  799MOL0     H10200   3.962  11.241   4.406  0.6813 -0.8248  1.7269
  799MOL0     H10201   3.943  11.328   4.174  1.3113  1.1854 -0.8484
  799MOL0     H10202   3.903  11.488   4.237  0.2162  0.6247 -1.0451
  799MOL0     H10203   4.117  11.444   4.122 -1.4912  0.6733 -0.0182
  799MOL0     H10204   4.171  11.360   4.274  1.3717  0.2290 -0.6314
  799MOL0     H10205   4.134  11.565   4.399  1.9754 -0.8656  1.4814
  799MOL0     H10206   4.260  11.577   4.259 -0.3541  1.6464  1.1685
  799MOL0     H10207   3.970  11.669   4.260  0.2383  0.7728 -0.5224
  799MOL0     H10208   4.098  11.680   4.121  2.2603  0.5439  0.7548
  799MOL0     H10209   4.109  11.817   4.380  1.3598 -3.4411  0.2356
  799MOL0     H10210   4.231  11.846   4.256 -0.5709  2.4149 -0.9707
  799MOL0     H10211   4.106  11.958   4.002 -2.0818 -2.1254 -1.8369
  799MOL0     H10212   3.791  12.197   3.996 -2.7280 -1.1334 -3.8256
  799MOL0     H10213   3.809  12.060   3.897 -0.3728 -1.0637  0.0287
  799MOL0     H10214   4.054  12.105   3.867  0.9469 -0.3977  0.6505
  799MOL0     H10215   3.960  12.225   3.794  0.4360 -0.7924 -0.2094
  799MOL0     H10216   3.983  12.367   4.028  1.8730  1.3852 -0.0011
  799MOL0     H10217   4.138  12.281   4.040  1.3496  2.5020 -1.7465
  799MOL0     H10218   4.168  12.501   3.915 -2.7017  3.4344 -1.3929
  799MOL0     H10219   4.181  12.363   3.800  0.0011  0.9018 -1.2557
  799MOL0     H10220   3.860  12.469   3.599 -0.6721 -1.0746 -0.7061
  799MOL0     H10221   3.833  12.634   3.336  3.3430  2.4664  2.4745
  799MOL0     H10222   3.817  12.460   3.358 -3.2400  1.6025 -5.7284
  799MOL0     H10223   3.943  12.519   3.254  1.2578 -2.1968  1.3792
  799MOL0     H10224   4.358  12.588   3.079  4.9684 -0.5901 -1.7764
  799MOL0     H10225   4.378  12.664   2.868 -1.1187 -0.0775 -0.1070
  799MOL0     H10226   4.594  12.804   2.760 -3.3399 -2.5388  2.4202
  799MOL0     H10227   4.462  12.759   2.654  0.0476 -1.4113  1.8625
  799MOL0     H10228   4.595  12.879   2.515  1.0757  0.5642 -0.5590
  799MOL0     H10229   4.465  12.990   2.544  1.7129  0.3387 -2.5020
  799MOL0     H10230   4.659  13.092   2.541 -1.3059 -1.5164 -1.8539
  799MOL0     H10231   4.735  12.984   2.662 -0.5799 -0.3702  1.4996
  799MOL0     H10232   4.624  13.066   2.835 -2.2353 -0.4681 -0.4953
  799MOL0     H10233   4.506  13.164   2.741 -1.7541 -1.0139 -1.6395
  799MOL0     H10234   4.716  13.319   2.682 -1.1705 -0.3231  0.4618
  799MOL0     H10235   4.682  13.307   2.860  0.0183 -0.1114  0.1052
  799MOL0     H10236   4.896  13.150   2.698  1.0913  2.3404  0.0708
  799MOL0     H10237   4.837  13.107   2.861 -0.3459  0.1198  1.6931
  799MOL0     H10238   4.903  13.333   2.938 -2.0754  2.1818 -2.0879
  799MOL0     H10239   4.957  13.366   2.771 -1.7435 -1.7721 -2.4894
  799MOL0     H10240   5.060  13.112   2.900  2.5570  0.3061  1.6523
  799MOL0     H10241   5.111  13.257   2.979  2.2373  0.9258 -0.2325
  799MOL0     H10242   4.397  13.074   3.014  1.3193 -0.0156  1.4549
  799MOL0     H10243   4.340  12.990   3.245 -4.9255  1.1666 -2.6708
  799MOL0     H10244   4.271  12.739   3.542 -2.4017  2.7312 -0.5235
  799MOL0     H10245   4.232  12.634   3.755 -3.1846  2.2654  1.8249
  799MOL0     H10246   3.550  11.113   4.672  1.2900  1.6060 -0.5568
  799MOL0     H10247   3.459  11.046   4.882  0.8105  0.2782 -0.4576
  799MOL0     H10248   3.387  11.264   5.288  0.8650  0.0359 -0.0063
  799MOL0     H10249   3.304  11.295   5.519 -0.0748 -1.3948  2.6908
  799MOL0     H10250   3.107  10.976   5.735  0.1117  0.0690 -4.2532
  799MOL0     H10251   3.269  10.904   5.747 -0.0993  0.4917 -2.4061
  799MOL0     H10252   3.157  11.125   5.922 -0.2366  0.5242 -1.8815
  799MOL0     H10253   3.320  11.047   5.954  0.8702 -0.8902 -0.8231
  799MOL0     H10254   3.058  10.971   6.050  0.2916  1.2819 -1.9022
  799MOL0     H10255   3.071  10.885   5.914  0.2438  0.5970  0.0406
  799MOL0     H10256   3.168  10.734   6.076 -1.5816  0.2557 -1.7674
  799MOL0     H10257   3.291  10.865   6.134 -1.6675 -1.9526  2.2385
  799MOL0     H10258   3.525  10.694   5.857  0.2601  3.0905 -0.2188
  799MOL0     H10259   3.230  10.880   5.548 -0.2323 -0.2899 -1.5655
  799MOL0     H10260   3.412  10.745   5.341  1.8919  2.2086 -1.9589
  799MOL0     H10261   3.228  10.743   5.357 -1.5661  0.2982 -1.7096
  799MOL0     H10262   3.299  10.782   5.209  2.0832 -1.0248  1.0557
  800MOL0     O10263   3.060   9.055   0.406 -0.9033 -0.1442  0.2154
  800MOL0     C10264   2.965   9.111   0.356 -0.9052  0.0320 -0.1454
  800MOL0     O10265   2.841   9.110   0.402  0.0417  0.0130  0.1306
  800MOL0     C10266   2.821   9.025   0.510  1.1210  0.5484 -0.2185
  800MOL0     C10267   2.850   9.074   0.641 -0.4598 -0.5598 -0.9616
  800MOL0     C10268   2.840   8.988   0.747  0.2388 -0.4372 -1.0418
  800MOL0     C10269   2.794   8.858   0.730  0.7867 -0.0552 -0.7581
  800MOL0     O10270   2.782   8.775   0.838 -0.4937 -0.0957  0.6319
  800MOL0     C10271   2.883   8.671   0.847  0.5230 -0.6069 -0.0524
  800MOL0     C10272   2.864   8.540   0.761  0.1271 -0.5004  0.2402
  800MOL0     C10273   2.982   8.448   0.775 -0.1621 -0.5095  0.3002
  800MOL0     C10274   2.992   8.358   0.655 -0.1764 -0.4576 -0.1109
  800MOL0     C10275   3.144   8.323   0.621  0.3013  0.1640  0.2719
  800MOL0     C10276   3.225   8.269   0.745  0.2968  0.0231 -0.3573
  800MOL0     C10277   3.298   8.381   0.826  1.5798  0.1466  0.3524
  800MOL0     C10278   3.408   8.308   0.908  0.6993  0.8187  0.0199
  800MOL0     N10279   3.474   8.399   0.999 -1.0581  0.7712  0.5352
  800MOL0     C10280   3.609   8.442   0.983  0.0356 -0.3889 -0.5910
  800MOL0     C10281   3.622   8.519   1.095  0.9328  0.7981  0.6472
  800MOL0     C10282   3.742   8.592   1.125 -0.4585 -0.2569  0.2505
  800MOL0     C10283   3.774   8.686   1.008  0.1476 -0.4050 -0.0011
  800MOL0     C10284   3.892   8.785   1.032 -0.1309 -0.2316 -0.4680
  800MOL0     C10285   4.028   8.707   1.025 -0.5101  1.2098  0.0801
  800MOL0     O10286   4.113   8.767   0.930  0.8073 -0.9304  0.3762
  800MOL0     C10287   4.243   8.713   0.930  1.3135  0.2402  0.8119
  800MOL0     C10288   4.336   8.798   0.871 -0.4811  0.7641  0.5385
  800MOL0     C10289   4.470   8.760   0.856 -0.4264 -0.2819  0.3523
  800MOL0     C10290   4.563   8.851   0.778 -0.1362  0.3932  0.4224
  800MOL0     C10291   4.512   8.631   0.904 -0.3285 -0.9061  0.5465
  800MOL0     C10292   4.654   8.577   0.905  0.3533 -0.1344  0.2407
  800MOL0     O10293   4.664   8.447   0.946 -0.3434  0.0212 -0.4447
  800MOL0     C10294   4.790   8.395   0.966 -0.1993  1.0828  0.9802
  800MOL0     C10295   4.843   8.379   1.096 -0.2698  0.0743  0.5601
  800MOL0     C10296   4.980   8.326   1.114  0.2681  0.4380 -0.0455
  800MOL0     C10297   5.054   8.278   1.001 -0.6863 -0.6914  0.7725
  800MOL0     O10298   5.182   8.225   1.003 -0.3582  0.8673  0.5168
  800MOL0     C10299   5.275   8.307   1.069  0.6256  0.2782  0.0688
  800MOL0     C10300   5.415   8.239   1.093  0.3336  0.0548 -0.5730
  800MOL0     C10301   5.512   8.345   1.136 -0.5428  0.3966  0.0377
  800MOL0     C10302   5.561   8.439   1.022  0.8439 -0.3243 -0.6944
  800MOL0     C10303   5.686   8.519   1.052 -0.3655  0.0031  0.6372
  800MOL0     C10304   5.797   8.426   1.111  0.5017  0.1621  0.2348
  800MOL0     C10305   5.936   8.494   1.106 -0.4554  0.1942 -0.2670
  800MOL0     C10306   6.054   8.418   1.158  0.6939  0.7974 -0.0232
  800MOL0    Cl10307   6.070   8.273   1.047 -0.3120  0.1349 -0.1449
  800MOL0     C10308   4.998   8.290   0.866 -0.2408 -0.2874 -0.1484
  800MOL0     C10309   4.872   8.349   0.852  0.5242  0.1725  0.1736
  800MOL0     O10310   4.748   8.654   0.881 -0.1649  0.6379 -1.1416
  800MOL0     C10311   4.417   8.550   0.954  0.4765  0.3044 -0.4102
  800MOL0     C10312   4.281   8.589   0.978 -0.6782 -0.4392 -0.4143
  800MOL0     N10313   3.503   8.523   1.172 -0.8014 -0.2258 -0.0222
  800MOL0     N10314   3.411   8.454   1.106  0.4650  0.4781  0.2069
  800MOL0     C10315   2.740   8.823   0.603  0.0854  0.6819  0.8983
  800MOL0     C10316   2.751   8.905   0.492  0.7610 -1.2791  0.6946
  800MOL0     C10317   3.009   9.207   0.248  0.3207 -0.1162 -0.1591
  800MOL0     C10318   2.958   9.342   0.253 -0.3831 -0.7048  0.5503
  800MOL0     C10319   2.982   9.435   0.156  0.2148 -0.3871  1.3905
  800MOL0     C10320   3.060   9.406   0.045 -0.9562 -1.1803 -0.4856
  800MOL0     O10321   3.067   9.510  -0.044 -0.4102  0.0618  0.0348
  800MOL0     C10322   3.131   9.498  -0.179 -0.8988  0.8010 -0.0220
  800MOL0     C10323   3.052   9.413  -0.280  0.1171  0.0845 -0.4162
  800MOL0     C10324   2.905   9.475  -0.308 -0.2110 -0.4238  0.0789
  800MOL0     C10325   2.867   9.457  -0.460 -0.4496 -0.0661 -1.0050
  800MOL0     C10326   2.754   9.556  -0.474 -0.4403 -1.0936  0.3649
  800MOL0     C10327   2.659   9.631  -0.491 -0.4597  1.0437 -0.0920
  800MOL0     C10328   3.129   9.278   0.040  0.4836 -0.1173  0.1523
  800MOL0     C10329   3.106   9.182   0.139 -0.5053  0.1317 -1.5775
  800MOL0     C10330   3.168   9.050   0.111  0.1805  0.6641  0.0187
  800MOL0     H10331   2.899   9.170   0.651  1.9766 -1.9056  1.4755
  800MOL0     H10332   2.864   9.021   0.847 -4.4245  0.3590  0.0780
  800MOL0     H10333   2.883   8.631   0.948 -0.0879 -1.9579 -0.5613
  800MOL0     H10334   2.982   8.715   0.833  1.0365 -1.6734  0.1088
  800MOL0     H10335   2.777   8.485   0.799  1.1166 -2.1264  0.2159
  800MOL0     H10336   2.843   8.571   0.658 -0.2868  2.8898  1.2202
  800MOL0     H10337   3.076   8.502   0.768  0.3438 -1.5248 -1.3749
  800MOL0     H10338   2.983   8.386   0.865 -1.3035  1.2202  1.5636
  800MOL0     H10339   2.940   8.263   0.668  1.7823 -2.0430 -2.8376
  800MOL0     H10340   2.947   8.400   0.565 -0.6711  1.6829  1.0453
  800MOL0     H10341   3.187   8.413   0.577 -3.8329  1.8169 -0.8447
  800MOL0     H10342   3.133   8.241   0.550 -0.3371 -0.7919  1.4350
  800MOL0     H10343   3.159   8.212   0.812  0.6005 -1.8693 -1.5725
  800MOL0     H10344   3.300   8.197   0.709  0.5810  1.2953 -2.4942
  800MOL0     H10345   3.221   8.423   0.891 -0.8651 -0.8846 -1.7483
  800MOL0     H10346   3.332   8.460   0.758  0.6405  0.2695  0.0188
  800MOL0     H10347   3.355   8.236   0.972  1.2733 -0.3896 -0.8179
  800MOL0     H10348   3.479   8.249   0.848  2.2287  3.2995 -0.7475
  800MOL0     H10349   3.682   8.414   0.908  1.1634 -1.7178  0.9545
  800MOL0     H10350   3.817   8.513   1.138 -1.2901 -0.7545  2.5397
  800MOL0     H10351   3.747   8.648   1.219 -2.3474 -1.4533  1.1360
  800MOL0     H10352   3.790   8.638   0.911  3.6383  0.5261 -0.0105
  800MOL0     H10353   3.691   8.757   1.001 -0.0718 -0.7468 -1.0794
  800MOL0     H10354   3.863   8.858   0.956 -2.5924  0.0160  0.5868
  800MOL0     H10355   3.887   8.833   1.130  1.8870 -1.4149  0.2685
  800MOL0     H10356   4.073   8.693   1.123 -1.3415 -3.1290  0.0068
  800MOL0     H10357   4.012   8.603   0.996  0.6427  0.2373  2.6482
  800MOL0     H10358   4.308   8.898   0.843 -1.1433 -0.3310 -3.3394
  800MOL0     H10359   4.654   8.880   0.831  0.8550 -0.2160 -0.8956
  800MOL0     H10360   4.510   8.940   0.743  1.0585  0.8110 -0.3559
  800MOL0     H10361   4.600   8.803   0.687 -3.2286 -1.8255  0.1759
  800MOL0     H10362   4.771   8.395   1.175  0.1486 -1.5055  1.2904
  800MOL0     H10363   5.017   8.322   1.216  0.2994 -1.7803 -0.0910
  800MOL0     H10364   5.294   8.390   1.000  2.7033 -0.7015 -0.6048
  800MOL0     H10365   5.238   8.334   1.168 -0.1076  1.5536 -0.5265
  800MOL0     H10366   5.408   8.176   1.182 -3.0071  2.5121  1.1453
  800MOL0     H10367   5.451   8.198   0.999  1.8216  3.7461 -1.7767
  800MOL0     H10368   5.596   8.292   1.182  0.3446  0.8422 -1.0256
  800MOL0     H10369   5.465   8.413   1.208 -1.0191  0.2117 -0.0966
  800MOL0     H10370   5.474   8.503   1.005 -0.5621 -2.0790 -0.3434
  800MOL0     H10371   5.576   8.373   0.936  0.0147  0.5194 -1.5139
  800MOL0     H10372   5.739   8.561   0.966  2.0596 -0.4225  1.8432
  800MOL0     H10373   5.675   8.599   1.125 -0.6792  2.3197 -1.7695
  800MOL0     H10374   5.818   8.343   1.043  0.8539 -1.1095  1.8497
  800MOL0     H10375   5.769   8.381   1.206  2.2130 -1.2639  0.1252
  800MOL0     H10376   5.923   8.575   1.178 -0.9867 -1.6544  1.8371
  800MOL0     H10377   5.966   8.530   1.007  0.3921  2.5716  0.7660
  800MOL0     H10378   6.033   8.387   1.261 -0.0509  1.5898  0.0744
  800MOL0     H10379   6.143   8.481   1.160  1.8091 -0.7200  0.5207
  800MOL0     H10380   5.056   8.260   0.779  4.0746  3.5194  1.0556
  800MOL0     H10381   4.838   8.359   0.750  0.4896  0.4250  0.2087
  800MOL0     H10382   4.445   8.449   0.981  0.8272  0.2665 -0.9033
  800MOL0     H10383   4.207   8.525   1.025 -1.9684 -1.5921 -3.7344
  800MOL0     H10384   2.682   8.731   0.608 -0.5760  1.0808  0.6742
  800MOL0     H10385   2.711   8.891   0.392 -0.2413 -0.6498  0.9973
  800MOL0     H10386   2.904   9.381   0.340 -0.8731  1.3516 -0.6154
  800MOL0     H10387   2.951   9.538   0.171  1.6448  0.2140  0.4154
  800MOL0     H10388   3.149   9.597  -0.222  0.4838 -0.1763 -1.7782
  800MOL0     H10389   3.225   9.442  -0.179 -0.7084  1.0335 -2.2720
  800MOL0     H10390   3.043   9.306  -0.256  3.1165  0.1602  1.5840
  800MOL0     H10391   3.108   9.419  -0.374 -0.6337 -1.5217 -1.0015
  800MOL0     H10392   2.835   9.413  -0.251  1.1400 -1.3909  0.7533
  800MOL0     H10393   2.889   9.579  -0.281 -3.0018 -0.8359  0.2946
  800MOL0     H10394   2.849   9.349  -0.472  2.4801 -1.5066  4.1763
  800MOL0     H10395   2.958   9.480  -0.516  3.2071  0.5304  4.4019
  800MOL0     H10396   2.567   9.687  -0.492 -0.5127  0.9694  0.3375
  800MOL0     H10397   3.188   9.262  -0.049 -1.2250  0.9418 -1.2295
  800MOL0     H10398   3.241   9.023   0.188  0.6080  0.6684 -0.3820
  800MOL0     H10399   3.096   8.968   0.120  1.2759 -0.3385 -0.1193
  800MOL0     H10400   3.210   9.050   0.010  2.9354 -0.4172  1.0685
  801MOL0     O10401   9.975   2.729   8.710  0.3517  0.4955 -0.3127
  801MOL0     C10402   9.989   2.800   8.610 -0.6967  0.5367 -0.3779
  801MOL0     O10403  10.103   2.814   8.525 -0.1578  0.9470  0.1252
  801MOL0     C10404  10.204   2.719   8.549  0.5213  0.5052 -0.0364
  801MOL0     C10405  10.211   2.605   8.467 -0.2301  0.8185 -0.2853
  801MOL0     C10406  10.336   2.545   8.464  0.5350 -0.6127  0.7285
  801MOL0     C10407  10.436   2.564   8.567  0.1030  0.4606 -0.7792
  801MOL0     O10408  10.549   2.481   8.588  0.4484 -0.8527 -0.1453
  801MOL0     C10409  10.527   2.340   8.608 -0.7719 -0.5208  0.3867
  801MOL0     C10410  10.571   2.280   8.470 -0.0954  0.4042 -0.0496
  801MOL0     C10411  10.565   2.131   8.476  0.0590  0.3382 -0.4287
  801MOL0     C10412  10.656   2.048   8.383 -1.1893  0.2659  0.5440
  801MOL0     C10413  10.644   1.897   8.350  0.6190 -1.1538  0.7610
  801MOL0     C10414  10.766   1.844   8.277  0.0762 -0.5222  0.4619
  801MOL0     C10415  10.761   1.690   8.287 -0.1919  0.4829 -0.4164
  801MOL0     C10416  10.855   1.627   8.187  0.0260  0.2566 -0.0283
  801MOL0     N10417  11.005   1.662   8.189  0.0068  0.4953  0.5663
  801MOL0     C10418  11.085   1.696   8.084  0.5677 -0.3908 -0.1024
  801MOL0     C10419  11.201   1.727   8.145  0.2208 -0.4066  0.5346
  801MOL0     C10420  11.331   1.744   8.083  0.0066 -0.0751  0.3245
  801MOL0     C10421  11.345   1.870   7.995 -0.0635  0.9767  0.1257
  801MOL0     C10422  11.477   1.864   7.916  0.2634  0.3625  1.4366
  801MOL0     C10423  11.498   1.993   7.827  1.0699 -0.1980  1.2372
  801MOL0     O10424  11.628   2.021   7.781  0.2979  0.6817  1.2275
  801MOL0     C10425  11.712   2.117   7.837  0.0931 -0.4862  0.1779
  801MOL0     C10426  11.834   2.146   7.769 -0.3010 -0.7434  0.4471
  801MOL0     C10427  11.929   2.245   7.823  0.8197  0.7968  0.1665
  801MOL0     C10428  12.061   2.240   7.761 -1.1524  0.4153 -0.0474
  801MOL0     C10429  11.890   2.319   7.942 -0.1697 -0.8972  0.0571
  801MOL0     C10430  11.976   2.421   8.011  0.3783 -0.5411  0.1578
  801MOL0     O10431  11.939   2.468   8.136  0.8489 -0.5367 -0.2361
  801MOL0     C10432  12.046   2.532   8.204 -0.4538 -0.6477  0.7793
  801MOL0     C10433  12.085   2.667   8.171 -0.0493  0.0792  1.1066
  801MOL0     C10434  12.192   2.738   8.235 -0.0185 -0.8851 -0.4108
  801MOL0     C10435  12.253   2.670   8.342 -0.0879  0.1173 -0.0023
  801MOL0     O10436  12.351   2.739   8.408 -0.2434  0.3891 -0.0112
  801MOL0     C10437  12.479   2.678   8.377  0.1816 -0.4616 -0.0889
  801MOL0     C10438  12.570   2.761   8.466  0.3957  0.4771 -0.1302
  801MOL0     C10439  12.622   2.882   8.391  0.9179  0.0214  0.5908
  801MOL0     C10440  12.736   2.949   8.465 -0.9635  0.1934  0.4859
  801MOL0     C10441  12.797   3.062   8.381 -0.5251 -1.4651  0.2131
  801MOL0     C10442  12.926   3.133   8.434 -0.8287  0.5757  0.1118
  801MOL0     C10443  12.978   3.236   8.337  0.4217 -0.5792  0.5778
  801MOL0     C10444  13.056   3.179   8.225 -0.5226  0.0339  0.7114
  801MOL0    Cl10445  13.162   3.051   8.285  0.3760  0.4567  0.4074
  801MOL0     C10446  12.224   2.543   8.370  0.0888  0.5214  0.0394
  801MOL0     C10447  12.115   2.468   8.313  0.2660 -0.0587 -0.5360
  801MOL0     O10448  12.081   2.444   7.956 -0.7227 -0.6087 -0.1665
  801MOL0     C10449  11.763   2.293   8.004  0.1992  0.9546  0.7757
  801MOL0     C10450  11.683   2.196   7.948 -0.6557 -0.1503 -0.4110
  801MOL0     N10451  11.182   1.727   8.282 -0.1493 -0.6906  0.1083
  801MOL0     N10452  11.067   1.696   8.307  0.2185  0.4551  0.0622
  801MOL0     C10453  10.415   2.671   8.657 -0.0615 -0.5769 -0.2248
  801MOL0     C10454  10.300   2.743   8.641 -0.1905 -1.1245 -0.0769
  801MOL0     C10455   9.871   2.885   8.582  0.2338 -0.0237  1.2169
  801MOL0     C10456   9.834   2.984   8.670 -0.6362  0.2303  0.3787
  801MOL0     C10457   9.744   3.089   8.631 -0.9558  0.9129  0.2654
  801MOL0     C10458   9.688   3.089   8.504 -0.6631 -0.4636  0.5631
  801MOL0     O10459   9.606   3.199   8.481 -0.3575 -0.8431 -0.1067
  801MOL0     C10460   9.566   3.226   8.344 -0.1489  0.7022 -0.2153
  801MOL0     C10461   9.444   3.146   8.302  0.2362 -0.1605  0.1444
  801MOL0     C10462   9.332   3.160   8.401  0.4180 -0.1532 -0.2797
  801MOL0     C10463   9.199   3.099   8.351  0.9756 -0.9693  0.6287
  801MOL0     C10464   9.129   3.182   8.249 -1.0323 -0.6803 -0.0102
  801MOL0     C10465   9.043   3.245   8.183 -0.6104  0.4020 -0.3513
  801MOL0     C10466   9.728   2.992   8.413 -0.1901 -0.3044  0.7303
  801MOL0     C10467   9.824   2.888   8.445 -0.2365 -0.5903 -0.0628
  801MOL0     C10468   9.873   2.798   8.339  0.0524  0.1744 -0.7242
  801MOL0     H10469  10.132   2.561   8.406 -0.6146  0.2273  0.6152
  801MOL0     H10470  10.354   2.462   8.396  3.9969  0.4568  0.1848
  801MOL0     H10471  10.424   2.323   8.639 -1.1434  3.5807  2.0205
  801MOL0     H10472  10.591   2.312   8.692  1.8982  1.3674 -0.8539
  801MOL0     H10473  10.496   2.318   8.400 -0.9639 -3.2097 -1.2931
  801MOL0     H10474  10.671   2.312   8.437  0.5034  0.3002  1.5664
  801MOL0     H10475  10.570   2.100   8.581 -2.3635  1.9141  0.2306
  801MOL0     H10476  10.468   2.090   8.446  1.5020 -1.9539 -2.3174
  801MOL0     H10477  10.657   2.097   8.285  1.0706  0.8823  0.8380
  801MOL0     H10478  10.757   2.064   8.422 -1.0010 -0.8002  0.5050
  801MOL0     H10479  10.557   1.888   8.284 -0.2590  2.6329  1.2072
  801MOL0     H10480  10.626   1.858   8.451 -0.7341  1.4947  1.6375
  801MOL0     H10481  10.764   1.883   8.174  0.0968  3.6270  1.8495
  801MOL0     H10482  10.854   1.892   8.320  0.0451 -0.6349  0.6505
  801MOL0     H10483  10.662   1.658   8.253  0.2871 -1.2873 -0.2375
  801MOL0     H10484  10.768   1.653   8.389 -4.9296  1.8296  0.6279
  801MOL0     H10485  10.852   1.518   8.195 -2.0672  0.1852 -1.0126
  801MOL0     H10486  10.818   1.656   8.088 -2.2122  2.7849  1.3956
  801MOL0     H10487  11.054   1.687   7.980 -2.3506  0.6193  0.5897
  801MOL0     H10488  11.356   1.658   8.020 -1.2668 -0.2255  0.0095
  801MOL0     H10489  11.414   1.760   8.152  1.3911 -0.5407 -1.1713
  801MOL0     H10490  11.261   1.877   7.925 -2.3839 -0.0435  2.6395
  801MOL0     H10491  11.352   1.950   8.069  0.8022 -1.0956  2.4109
  801MOL0     H10492  11.573   1.856   7.969  1.7646 -1.5080 -1.3176
  801MOL0     H10493  11.491   1.778   7.850  4.8546  1.8577  0.0920
  801MOL0     H10494  11.433   1.992   7.739  2.8674  0.6747 -0.1700
  801MOL0     H10495  11.468   2.081   7.885 -0.2139 -0.1962  0.6211
  801MOL0     H10496  11.851   2.100   7.672  1.3009  0.2069  0.2518
  801MOL0     H10497  12.077   2.157   7.692 -2.9493  0.8678 -1.1041
  801MOL0     H10498  12.139   2.240   7.837  1.7202  0.6148 -2.8098
  801MOL0     H10499  12.086   2.328   7.701  0.1970  0.0894  0.0010
  801MOL0     H10500  12.023   2.716   8.097  3.6611  1.1099 -1.6014
  801MOL0     H10501  12.216   2.838   8.201 -2.7941  0.0328  0.1076
  801MOL0     H10502  12.481   2.576   8.415  1.3431 -0.1105  0.8253
  801MOL0     H10503  12.510   2.690   8.273  1.5497  1.0777  0.4454
  801MOL0     H10504  12.523   2.796   8.559  2.8925  0.9336  1.0420
  801MOL0     H10505  12.655   2.699   8.495  0.7929  1.4589  0.8915
  801MOL0     H10506  12.543   2.956   8.377  0.5358 -0.6747 -1.2761
  801MOL0     H10507  12.657   2.864   8.289  1.7301  1.4451  0.5966
  801MOL0     H10508  12.807   2.868   8.485 -1.5321 -2.0025 -4.7827
  801MOL0     H10509  12.702   2.994   8.558  0.0657 -1.0950  1.5280
  801MOL0     H10510  12.806   3.014   8.283 -0.3800 -1.3869  0.1877
  801MOL0     H10511  12.712   3.128   8.366  0.3804 -1.1030 -6.3828
  801MOL0     H10512  12.999   3.061   8.473  0.5938  1.1866 -1.3444
  801MOL0     H10513  12.892   3.174   8.530  3.4332 -4.0692  4.1653
  801MOL0     H10514  13.030   3.312   8.397 -0.7781  1.8600 -1.3017
  801MOL0     H10515  12.891   3.285   8.292  0.2412 -0.3428  1.1843
  801MOL0     H10516  13.112   3.257   8.171  0.2081 -0.4025  0.8255
  801MOL0     H10517  12.990   3.141   8.147  0.4015  1.3618 -0.8017
  801MOL0     H10518  12.287   2.520   8.456 -0.9504 -1.2098  0.3909
  801MOL0     H10519  12.087   2.374   8.359 -0.9514  0.4198 -0.2522
  801MOL0     H10520  11.732   2.338   8.097  0.6236  1.2809  0.7590
  801MOL0     H10521  11.591   2.192   8.005  0.8481 -1.0623  2.1585
  801MOL0     H10522  10.494   2.696   8.727  1.5032 -2.0581 -1.3983
  801MOL0     H10523  10.289   2.829   8.705 -2.5284 -1.9183  0.6748
  801MOL0     H10524   9.882   2.984   8.767  0.8099 -0.4875 -0.3135
  801MOL0     H10525   9.729   3.167   8.704  0.4274  0.5858  0.9334
  801MOL0     H10526   9.537   3.331   8.334 -1.5962  0.3351 -0.0848
  801MOL0     H10527   9.651   3.198   8.281 -1.4135 -1.9996 -0.8842
  801MOL0     H10528   9.478   3.043   8.291 -0.1540 -0.4323  1.3628
  801MOL0     H10529   9.401   3.183   8.209 -1.4672  0.8401  1.2737
  801MOL0     H10530   9.366   3.114   8.494  1.7366  0.6378 -0.3367
  801MOL0     H10531   9.333   3.265   8.433 -0.8662 -1.0181  2.9484
  801MOL0     H10532   9.136   3.082   8.438 -0.1909  3.0486  0.7351
  801MOL0     H10533   9.213   3.000   8.306 -1.9781 -0.1814 -2.4659
  801MOL0     H10534   8.974   3.300   8.122 -0.7698  0.4447 -0.1340
  801MOL0     H10535   9.696   3.002   8.310  1.0914  0.1844  0.3580
  801MOL0     H10536   9.796   2.788   8.262 -0.2650 -1.6946 -0.2242
  801MOL0     H10537   9.958   2.850   8.293 -0.8719  0.7104 -1.8704
  801MOL0     H10538   9.904   2.701   8.379  2.8589  1.9430  1.7862
  802MOL0     O10539   1.862   9.084   1.783  0.4831  0.2791 -0.0022
  802MOL0     C10540   1.928   9.020   1.702 -0.1171  0.2792  0.7877
  802MOL0     O10541   1.874   8.934   1.615  0.1095  0.6520  0.0355
  802MOL0     C10542   1.745   8.884   1.623 -0.3737 -0.7428  0.0714
  802MOL0     C10543   1.684   8.853   1.738 -0.0637 -0.0601  0.1820
  802MOL0     C10544   1.554   8.802   1.732 -0.6017 -1.0526 -0.9854
  802MOL0     C10545   1.480   8.798   1.611 -0.2360 -0.0379  0.4716
  802MOL0     O10546   1.352   8.755   1.631 -0.0326 -0.4699 -0.0303
  802MOL0     C10547   1.301   8.653   1.541  0.1245 -0.2605  1.1663
  802MOL0     C10548   1.155   8.610   1.561  0.0076 -0.4385  0.1439
  802MOL0     C10549   1.057   8.735   1.541  0.1023  0.6424 -0.2081
  802MOL0     C10550   0.912   8.690   1.548 -0.8337 -0.1818 -0.2470
  802MOL0     C10551   0.876   8.588   1.434 -0.6508 -0.0245  0.9502
  802MOL0     C10552   0.727   8.572   1.421  0.0283  0.4297 -0.9393
  802MOL0     C10553   0.701   8.456   1.317 -0.9448 -0.6028 -0.4703
  802MOL0     C10554   0.555   8.433   1.290 -0.6398  0.7045 -0.0813
  802MOL0     N10555   0.490   8.356   1.399  0.7043  0.2916 -0.5858
  802MOL0     C10556   0.504   8.223   1.415  0.1953  0.4261 -0.8886
  802MOL0     C10557   0.425   8.190   1.525  0.5214 -0.3005  0.6575
  802MOL0     C10558   0.421   8.050   1.589 -0.6618  0.1246 -1.1448
  802MOL0     C10559   0.371   8.060   1.733 -0.1385 -0.2929  0.4527
  802MOL0     C10560   0.398   7.923   1.793 -0.6385  0.4951  0.6011
  802MOL0     C10561   0.393   7.920   1.944 -0.0901 -0.1102 -0.1247
  802MOL0     O10562   0.500   7.989   2.008 -0.0095  0.0635 -0.3422
  802MOL0     C10563   0.517   7.994   2.141  0.2741 -0.0311  0.0245
  802MOL0     C10564   0.643   8.029   2.178 -0.7379 -0.8652 -0.0240
  802MOL0     C10565   0.684   8.018   2.314 -0.5111 -1.4666 -0.6711
  802MOL0     C10566   0.833   8.053   2.343 -0.6212  0.2728 -0.6816
  802MOL0     C10567   0.587   7.974   2.417  0.8166 -0.1863 -0.0789
  802MOL0     C10568   0.619   7.969   2.562 -1.0387 -0.7571  0.2904
  802MOL0     O10569   0.513   7.931   2.646 -0.1145 -0.1852  0.8511
  802MOL0     C10570   0.496   7.976   2.775  1.3514  0.6600  0.0196
  802MOL0     C10571   0.585   8.021   2.880  0.1322  0.4822 -0.5721
  802MOL0     C10572   0.535   8.065   2.997  0.4415 -0.3665 -0.4291
  802MOL0     C10573   0.400   8.062   3.026 -0.4795  0.2986 -0.3195
  802MOL0     O10574   0.344   8.097   3.149 -0.9503  0.7353  0.1483
  802MOL0     C10575   0.409   8.202   3.225  0.6144 -0.3554  0.1619
  802MOL0     C10576   0.318   8.261   3.338  0.6427 -0.1024 -0.0465
  802MOL0     C10577   0.176   8.303   3.302  0.2894  0.4086 -0.0532
  802MOL0     C10578   0.113   8.392   3.412 -0.0927  0.4818  0.2758
  802MOL0     C10579   0.058   8.317   3.539 -0.0879 -0.8107  0.0733
  802MOL0     C10580  -0.041   8.209   3.518  0.4086 -0.4319  0.6176
  802MOL0     C10581  -0.176   8.273   3.472 -0.4665 -0.4038 -0.5645
  802MOL0     C10582  -0.298   8.174   3.461 -0.3324  0.1524 -0.9202
  802MOL0    Cl10583  -0.326   8.111   3.627  0.0174  0.2022 -0.7201
  802MOL0     C10584   0.316   8.009   2.929  0.1717  0.1815  0.4612
  802MOL0     C10585   0.363   7.957   2.812  0.6953  0.3820  0.2996
  802MOL0     O10586   0.736   7.983   2.596  0.0648  0.5575  0.6612
  802MOL0     C10587   0.455   7.943   2.369  0.1496  0.5716 -0.2240
  802MOL0     C10588   0.420   7.955   2.236 -0.0129 -1.3936 -0.7140
  802MOL0     N10589   0.348   8.302   1.559  0.7084 -0.5860  0.4454
  802MOL0     N10590   0.384   8.396   1.477 -0.3345 -0.5020 -1.0561
  802MOL0     C10591   1.542   8.825   1.490  0.0222 -0.0287  0.3120
  802MOL0     C10592   1.681   8.861   1.499  0.1493 -0.2668 -0.2629
  802MOL0     C10593   2.084   9.012   1.696 -0.9960  0.2300 -0.4329
  802MOL0     C10594   2.143   8.904   1.627 -0.0052 -0.8622  0.4970
  802MOL0     C10595   2.282   8.871   1.646 -0.5546  0.9234  0.9623
  802MOL0     C10596   2.356   8.933   1.751 -0.9384 -0.4207  0.3235
  802MOL0     O10597   2.479   8.879   1.786 -0.5928 -0.5045 -0.3859
  802MOL0     C10598   2.558   8.962   1.880  0.0774  0.0704 -0.4429
  802MOL0     C10599   2.689   8.882   1.915 -0.1484 -0.0126 -0.3176
  802MOL0     C10600   2.651   8.755   1.987  0.9104  0.0509  0.3692
  802MOL0     C10601   2.659   8.767   2.136  0.6635 -0.1258  0.8626
  802MOL0     C10602   2.607   8.633   2.176  1.0006  0.5965  0.0798
  802MOL0     C10603   2.549   8.525   2.194 -0.5585 -0.6827  0.0172
  802MOL0     C10604   2.298   9.050   1.802 -0.1221 -0.4843 -0.9994
  802MOL0     C10605   2.172   9.094   1.765 -0.0800  0.0656 -0.2771
  802MOL0     C10606   2.117   9.217   1.827  0.5392 -0.6428 -1.0356
  802MOL0     H10607   1.713   8.865   1.841 -3.0083 -1.0818  1.2302
  802MOL0     H10608   1.498   8.796   1.825  0.4285 -0.8425 -0.3274
  802MOL0     H10609   1.355   8.558   1.545 -0.3808 -0.5969  5.8094
  802MOL0     H10610   1.312   8.685   1.437 -1.0422 -3.0324  0.0811
  802MOL0     H10611   1.131   8.529   1.491 -1.6982 -0.3220  0.5499
  802MOL0     H10612   1.156   8.570   1.662  0.4101 -0.1097  0.2720
  802MOL0     H10613   1.063   8.805   1.625 -0.3770  1.3519 -0.7585
  802MOL0     H10614   1.082   8.793   1.453  3.1516 -0.3014 -0.0558
  802MOL0     H10615   0.895   8.656   1.650 -2.4807  0.1694 -0.3843
  802MOL0     H10616   0.847   8.777   1.536 -4.5598 -2.7412 -0.2138
  802MOL0     H10617   0.911   8.491   1.469  2.9326  0.8267  0.1671
  802MOL0     H10618   0.919   8.610   1.336  0.5939 -0.1898  1.4383
  802MOL0     H10619   0.684   8.541   1.517  0.6432  2.8468  0.1880
  802MOL0     H10620   0.676   8.663   1.390  0.2751  1.8515  2.3641
  802MOL0     H10621   0.751   8.362   1.343  0.9353  0.5566  0.2679
  802MOL0     H10622   0.749   8.498   1.229 -1.4354 -0.7967 -0.8390
  802MOL0     H10623   0.495   8.522   1.265 -1.1026  1.3001  2.7820
  802MOL0     H10624   0.553   8.365   1.205 -0.2856  0.1142  0.3805
  802MOL0     H10625   0.575   8.160   1.362 -1.0736  0.0191 -2.2006
  802MOL0     H10626   0.520   8.003   1.583  0.0077  0.7970  2.4930
  802MOL0     H10627   0.351   7.982   1.540 -3.5553  0.9063  1.5367
  802MOL0     H10628   0.428   8.138   1.783  2.9476 -1.4310 -0.9692
  802MOL0     H10629   0.265   8.082   1.745 -0.1970  0.4809 -1.1584
  802MOL0     H10630   0.331   7.843   1.758 -0.7337  0.3032  1.2197
  802MOL0     H10631   0.492   7.884   1.755 -1.6807 -0.1324 -1.5019
  802MOL0     H10632   0.300   7.962   1.982 -1.9538 -1.5186 -2.7755
  802MOL0     H10633   0.390   7.813   1.965 -2.4102 -0.0987 -0.1247
  802MOL0     H10634   0.706   8.076   2.103  0.9257 -0.1384  1.7352
  802MOL0     H10635   0.881   8.072   2.247  2.2306 -2.9040 -0.0769
  802MOL0     H10636   0.881   7.964   2.385  3.0884  1.8008 -1.3100
  802MOL0     H10637   0.839   8.136   2.414 -1.2887 -0.6619  0.5240
  802MOL0     H10638   0.688   8.039   2.850 -0.2939 -0.1151 -2.5621
  802MOL0     H10639   0.595   8.099   3.081 -1.3689 -1.7865  1.5806
  802MOL0     H10640   0.497   8.159   3.273  2.1174  3.4990  1.2917
  802MOL0     H10641   0.444   8.276   3.152 -2.5852  1.7040  0.5089
  802MOL0     H10642   0.318   8.187   3.419 -2.6837 -0.4440 -0.2145
  802MOL0     H10643   0.380   8.346   3.366  0.7999  0.0372 -0.7965
  802MOL0     H10644   0.108   8.218   3.297  0.3048  0.3373  0.7922
  802MOL0     H10645   0.192   8.350   3.205  1.2397  0.8263  0.2996
  802MOL0     H10646   0.036   8.459   3.374  0.3993  0.5903 -0.5460
  802MOL0     H10647   0.189   8.448   3.467 -0.7078  1.9385 -0.3025
  802MOL0     H10648   0.151   8.274   3.579 -0.3026  0.6832  2.2953
  802MOL0     H10649   0.029   8.383   3.620 -1.2819 -1.6665  0.3737
  802MOL0     H10650  -0.066   8.167   3.616 -0.5569 -1.0707  0.1165
  802MOL0     H10651  -0.007   8.136   3.443  0.7073  2.5391 -2.3570
  802MOL0     H10652  -0.149   8.304   3.371  0.9593 -0.4843 -0.2237
  802MOL0     H10653  -0.201   8.366   3.524 -0.0163 -2.2974  3.4319
  802MOL0     H10654  -0.263   8.091   3.399 -1.6197 -1.3291  0.2439
  802MOL0     H10655  -0.390   8.215   3.420 -0.0395  2.1739  0.2836
  802MOL0     H10656   0.217   7.995   2.971 -0.4758  0.8576 -0.7801
  802MOL0     H10657   0.304   7.912   2.732 -0.5796  3.2789 -0.5190
  802MOL0     H10658   0.381   7.911   2.442 -0.0360  1.2304 -0.1244
  802MOL0     H10659   0.317   7.935   2.208  0.1327 -1.8872 -0.9127
  802MOL0     H10660   1.484   8.822   1.398 -0.4095 -0.1372  0.5871
  802MOL0     H10661   1.733   8.900   1.413  0.0846  1.1691  0.3252
  802MOL0     H10662   2.098   8.844   1.548 -1.5308 -0.2587  0.8669
  802MOL0     H10663   2.341   8.795   1.596 -1.2474  0.1950  1.2176
  802MOL0     H10664   2.592   9.051   1.828 -0.1237  0.3205 -0.1491
  802MOL0     H10665   2.504   8.992   1.971 -0.0776  0.5462 -0.6891
  802MOL0     H10666   2.762   8.942   1.970 -1.5362  0.0437  1.5092
  802MOL0     H10667   2.739   8.859   1.820  0.7781 -0.3460  0.2303
  802MOL0     H10668   2.551   8.726   1.953  1.2925 -1.2329  0.3037
  802MOL0     H10669   2.728   8.683   1.959  1.7743  1.1063 -0.0432
  802MOL0     H10670   2.613   8.855   2.181 -0.8008 -1.0744  1.3026
  802MOL0     H10671   2.762   8.751   2.170  1.1574 -2.6638 -1.4379
  802MOL0     H10672   2.501   8.434   2.223  0.5640 -0.5957  2.3916
  802MOL0     H10673   2.367   9.103   1.867  0.3297 -2.8487  0.5803
  802MOL0     H10674   2.189   9.300   1.827  0.1833 -0.3176 -2.0075
  802MOL0     H10675   2.035   9.266   1.773 -2.0532 -0.2738  2.8199
  802MOL0     H10676   2.097   9.196   1.933  3.5825 -0.3550 -0.3183
  803MOL0     O10677   2.476   9.144   2.186 -0.4239  0.2323  0.1943
  803MOL0     C10678   2.541   9.224   2.129  0.5364 -0.5914  0.2719
  803MOL0     O10679   2.495   9.340   2.070 -0.7423 -0.0709 -0.4832
  803MOL0     C10680   2.367   9.395   2.081 -0.3548 -0.2319 -0.6381
  803MOL0     C10681   2.343   9.516   2.010  0.8229  0.5113  0.5810
  803MOL0     C10682   2.215   9.577   2.018  0.5855  0.1873  0.0475
  803MOL0     C10683   2.108   9.522   2.089 -0.7552 -0.4725 -0.0376
  803MOL0     O10684   1.990   9.590   2.089  0.3825  0.3487 -0.0776
  803MOL0     C10685   1.915   9.586   2.211  0.1461 -0.3565 -0.1334
  803MOL0     C10686   1.805   9.697   2.211 -0.6943  0.5835  0.1224
  803MOL0     C10687   1.866   9.838   2.226  0.8864  0.2227 -0.2358
  803MOL0     C10688   1.943   9.861   2.353  0.3831 -0.5156  0.3340
  803MOL0     C10689   1.981  10.005   2.391 -0.3805  0.2165  0.4920
  803MOL0     C10690   1.865  10.102   2.415  0.9469 -0.0260 -0.7444
  803MOL0     C10691   1.920  10.228   2.465  0.3531 -0.9881  0.1315
  803MOL0     C10692   1.807  10.323   2.513 -1.2652  1.5679  0.7988
  803MOL0     N10693   1.868  10.445   2.571  0.0111 -0.7899 -0.1551
  803MOL0     C10694   1.883  10.562   2.489 -0.1940 -0.0726 -0.4417
  803MOL0     C10695   1.940  10.653   2.580 -0.1188  0.1984  0.2946
  803MOL0     C10696   1.987  10.783   2.541  0.6201 -0.6134  0.1327
  803MOL0     C10697   2.094  10.796   2.435  0.1912 -0.9231  0.1878
  803MOL0     C10698   2.078  10.719   2.302 -0.0364 -0.2475  0.1480
  803MOL0     C10699   1.965  10.773   2.214  1.0558  0.4300  0.8569
  803MOL0     O10700   1.988  10.905   2.174 -1.2724 -0.1239 -0.1338
  803MOL0     C10701   1.908  10.968   2.081  0.4154 -0.1813  0.1758
  803MOL0     C10702   1.829  10.903   1.985  1.1475 -0.0763 -0.2955
  803MOL0     C10703   1.759  10.980   1.889 -0.5990 -0.5940 -0.0261
  803MOL0     C10704   1.690  10.903   1.790  0.2443  1.1113 -0.1713
  803MOL0     C10705   1.769  11.121   1.884 -0.4823  0.9884 -0.3860
  803MOL0     C10706   1.703  11.207   1.790 -0.3406 -0.5715  0.5198
  803MOL0     O10707   1.769  11.256   1.676 -0.5231  1.0538 -0.9883
  803MOL0     C10708   1.694  11.346   1.602  0.8372  1.1753  0.2895
  803MOL0     C10709   1.661  11.292   1.477 -0.1028 -0.2983  1.4195
  803MOL0     C10710   1.604  11.360   1.380  0.6380  0.6336  0.5618
  803MOL0     C10711   1.560  11.489   1.409  0.9089 -1.9148 -1.2388
  803MOL0     O10712   1.509  11.580   1.313 -0.0953 -0.4344 -0.1340
  803MOL0     C10713   1.364  11.558   1.315 -0.1681  0.3002  0.1522
  803MOL0     C10714   1.287  11.671   1.237 -1.4374 -0.4479  0.6942
  803MOL0     C10715   1.141  11.675   1.274 -0.8669 -0.0034 -0.0561
  803MOL0     C10716   1.061  11.772   1.183 -0.6074  0.2472  0.4883
  803MOL0     C10717   1.016  11.691   1.061 -0.0392 -0.6812 -0.1828
  803MOL0     C10718   0.893  11.610   1.096  0.4935 -0.0688  0.1934
  803MOL0     C10719   0.821  11.567   0.964 -0.6101  0.9238  0.5247
  803MOL0     C10720   0.694  11.489   0.993 -1.1558  0.4485 -1.2759
  803MOL0    Cl10721   0.564  11.600   1.043 -0.0983  0.0949  0.3623
  803MOL0     C10722   1.573  11.543   1.545  0.4266  0.0787  0.4109
  803MOL0     C10723   1.647  11.465   1.640 -0.3160 -0.7065  0.8571
  803MOL0     O10724   1.588  11.233   1.820  0.4120 -0.1069  0.6390
  803MOL0     C10725   1.852  11.187   1.976  0.1760 -0.2718  0.1934
  803MOL0     C10726   1.917  11.107   2.069 -0.1243 -0.5964  0.2421
  803MOL0     N10727   1.968  10.591   2.707  0.6221 -0.0068  0.1364
  803MOL0     N10728   1.923  10.470   2.695 -0.6073  0.4421 -0.2562
  803MOL0     C10729   2.126   9.397   2.152 -0.5609  0.0095  0.2564
  803MOL0     C10730   2.255   9.338   2.149 -0.0291 -0.4793 -0.3930
  803MOL0     C10731   2.693   9.200   2.124 -0.0362 -1.0551  0.1622
  803MOL0     C10732   2.747   9.106   2.210  0.3296 -0.8426 -0.3369
  803MOL0     C10733   2.887   9.099   2.232  0.2614  0.4205  0.3214
  803MOL0     C10734   2.975   9.170   2.148 -0.2280  0.5340 -1.3701
  803MOL0     O10735   3.114   9.154   2.162 -0.5382  0.2439 -0.6469
  803MOL0     C10736   3.175   9.053   2.254 -0.1526 -0.1651  0.3564
  803MOL0     C10737   3.163   8.911   2.201  0.6922 -0.0057 -0.3336
  803MOL0     C10738   3.142   8.900   2.051 -0.3099 -0.6657 -0.7983
  803MOL0     C10739   3.125   8.755   2.013  0.0056  0.0908  0.1253
  803MOL0     C10740   3.115   8.735   1.867 -0.1712  0.0258 -0.4194
  803MOL0     C10741   3.101   8.707   1.750  0.6669  0.2400  0.7257
  803MOL0     C10742   2.921   9.251   2.062 -0.5329  0.2831  1.0159
  803MOL0     C10743   2.783   9.265   2.043  0.6202 -0.2371  0.9316
  803MOL0     C10744   2.757   9.351   1.924 -0.1951 -0.4046 -0.4312
  803MOL0     H10745   2.420   9.579   1.967  0.3702  0.8353  0.2366
  803MOL0     H10746   2.188   9.669   1.967 -0.7684 -0.1005  0.2096
  803MOL0     H10747   1.989   9.607   2.289  1.3172  4.0362 -2.1075
  803MOL0     H10748   1.870   9.489   2.235  3.7248 -1.3472  3.9562
  803MOL0     H10749   1.758   9.681   2.113  0.6774 -0.9789 -0.3162
  803MOL0     H10750   1.733   9.691   2.294  1.6495 -0.5194  2.1836
  803MOL0     H10751   1.919   9.860   2.132  0.7596 -0.0875 -0.3815
  803MOL0     H10752   1.780   9.905   2.228 -1.8390 -2.9870  2.7928
  803MOL0     H10753   1.884   9.820   2.436  2.3850 -1.0586  1.5547
  803MOL0     H10754   2.035   9.803   2.346  1.9331  1.9856 -1.4303
  803MOL0     H10755   2.049  10.049   2.317  2.4932 -0.8617  2.3406
  803MOL0     H10756   2.040  10.006   2.483  2.3867 -2.4043 -1.0637
  803MOL0     H10757   1.810  10.118   2.322  0.2618  1.1388 -0.1581
  803MOL0     H10758   1.796  10.053   2.483  2.4706 -1.2851 -0.0206
  803MOL0     H10759   1.974  10.277   2.383 -2.2470 -0.0555 -1.1386
  803MOL0     H10760   1.983  10.205   2.551  0.4687  0.6169  0.5070
  803MOL0     H10761   1.742  10.349   2.430 -2.1042 -4.7941 -1.1192
  803MOL0     H10762   1.740  10.266   2.578 -1.0262  0.7826  0.3826
  803MOL0     H10763   1.863  10.575   2.383  0.8323 -0.3666 -0.6840
  803MOL0     H10764   2.035  10.825   2.630 -1.8640 -0.5221  1.5417
  803MOL0     H10765   1.897  10.840   2.515 -0.3117 -1.1243  2.0173
  803MOL0     H10766   2.089  10.900   2.403 -1.2754 -0.7781  0.8118
  803MOL0     H10767   2.192  10.783   2.481 -0.8482  1.2651  3.3429
  803MOL0     H10768   2.177  10.724   2.255  3.0414 -1.9657  5.4978
  803MOL0     H10769   2.070  10.618   2.343 -1.3319  0.3573  1.4656
  803MOL0     H10770   1.979  10.708   2.127  2.6295 -0.5470  1.7992
  803MOL0     H10771   1.865  10.750   2.251  1.7154 -1.9195  1.3163
  803MOL0     H10772   1.822  10.795   1.994 -0.3525  0.1609  2.0678
  803MOL0     H10773   1.626  10.831   1.843 -0.9901  0.1843 -2.7263
  803MOL0     H10774   1.756  10.843   1.728  0.6111 -3.7776  4.2105
  803MOL0     H10775   1.623  10.966   1.731 -1.0367  0.0005  0.0258
  803MOL0     H10776   1.693  11.191   1.454  2.2471  0.3394  1.5671
  803MOL0     H10777   1.598  11.314   1.282  1.3934 -1.4265  1.4158
  803MOL0     H10778   1.357  11.467   1.255 -2.9871  0.4494  0.1337
  803MOL0     H10779   1.321  11.541   1.415 -1.7548 -1.3113 -0.7564
  803MOL0     H10780   1.328  11.766   1.271  0.9619 -0.5282 -1.6270
  803MOL0     H10781   1.308  11.670   1.130 -3.1878  0.7262  0.3107
  803MOL0     H10782   1.127  11.719   1.374  2.3169  3.8906 -1.0448
  803MOL0     H10783   1.097  11.576   1.263 -2.8379  0.9799 -1.6997
  803MOL0     H10784   1.128  11.851   1.146 -1.0057 -0.1099 -1.0751
  803MOL0     H10785   0.968  11.806   1.229 -0.9888 -0.9287  0.6035
  803MOL0     H10786   1.004  11.765   0.982  0.8116 -2.3928 -1.9868
  803MOL0     H10787   1.094  11.631   1.014  0.6599  2.4468 -3.4787
  803MOL0     H10788   0.822  11.639   1.174 -0.1454 -0.9198 -0.0537
  803MOL0     H10789   0.939  11.523   1.143 -1.4736 -0.4935  1.4257
  803MOL0     H10790   0.890  11.510   0.901 -0.0805  2.0916  0.0224
  803MOL0     H10791   0.810  11.656   0.901  0.4107  3.1294  3.2174
  803MOL0     H10792   0.716  11.418   1.073  3.0752  2.1450 -0.6935
  803MOL0     H10793   0.667  11.438   0.900  0.9601  2.4131 -3.0690
  803MOL0     H10794   1.547  11.646   1.566 -0.0645 -0.0435  0.4155
  803MOL0     H10795   1.665  11.503   1.740 -3.5191  2.5204  0.4431
  803MOL0     H10796   1.868  11.292   1.957 -3.8336  0.8826  2.0925
  803MOL0     H10797   1.997  11.151   2.128 -0.1761 -0.1391 -0.0300
  803MOL0     H10798   2.043   9.352   2.205 -0.0740 -0.4076  0.6654
  803MOL0     H10799   2.268   9.253   2.215 -3.7870 -0.3623  0.7633
  803MOL0     H10800   2.700   9.043   2.285 -0.7111 -0.5913 -0.7739
  803MOL0     H10801   2.927   9.035   2.311 -1.4678 -2.8945 -1.3093
  803MOL0     H10802   3.277   9.091   2.265 -1.6714  3.8615  3.1026
  803MOL0     H10803   3.129   9.056   2.353 -0.8361  1.6606  0.0376
  803MOL0     H10804   3.082   8.858   2.251  1.1690  0.3779  0.8727
  803MOL0     H10805   3.259   8.866   2.229  1.5238  1.5462 -0.5727
  803MOL0     H10806   3.053   8.957   2.025  1.7930  2.2184 -2.1747
  803MOL0     H10807   3.240   8.936   2.020  1.2366 -4.1116 -0.4485
  803MOL0     H10808   3.039   8.707   2.061  1.2696 -1.2939  1.0775
  803MOL0     H10809   3.213   8.708   2.057  0.3916  1.3522  0.7232
  803MOL0     H10810   3.082   8.669   1.652 -1.0231  0.5842  0.8857
  803MOL0     H10811   2.991   9.303   1.996  0.3939  0.7507  2.3234
  803MOL0     H10812   2.720   9.290   1.841 -1.0047 -1.3505  0.6105
  803MOL0     H10813   2.698   9.439   1.953 -1.9313 -2.5695  3.2596
  803MOL0     H10814   2.849   9.388   1.876 -1.0023  1.6549 -0.4866
  804MOL0     O10815   0.708   0.536   0.159 -0.5058  0.4336 -0.1060
  804MOL0     C10816   0.624   0.624   0.142  1.0241  0.2371  0.2242
  804MOL0     O10817   0.575   0.672   0.019 -0.2293  0.0019  0.3847
  804MOL0     C10818   0.605   0.596  -0.091  0.0080  0.0112 -0.2997
  804MOL0     C10819   0.530   0.477  -0.125  0.3181  0.5203  0.5081
  804MOL0     C10820   0.559   0.408  -0.238 -0.4345  0.6466  0.1628
  804MOL0     C10821   0.676   0.449  -0.319  0.9388  0.5198 -0.1612
  804MOL0     O10822   0.724   0.387  -0.429 -0.0802  0.0893  0.1628
  804MOL0     C10823   0.643   0.283  -0.490 -0.1688 -0.5175 -0.9393
  804MOL0     C10824   0.635   0.148  -0.417  0.3610 -0.1143 -0.1224
  804MOL0     C10825   0.764   0.069  -0.440  0.1112 -0.0563 -0.4020
  804MOL0     C10826   0.734  -0.088  -0.406  0.0596  0.4892 -0.3513
  804MOL0     C10827   0.859  -0.176  -0.371  0.2878 -0.1986 -0.0554
  804MOL0     C10828   0.817  -0.324  -0.332  0.6251 -0.7570 -0.5594
  804MOL0     C10829   0.937  -0.426  -0.334 -0.2149 -0.2769 -0.3911
  804MOL0     C10830   1.063  -0.374  -0.253 -0.1565  1.3449 -0.3535
  804MOL0     N10831   1.175  -0.472  -0.263  0.3082  0.2749  0.2072
  804MOL0     C10832   1.239  -0.539  -0.153  0.2062  0.0697 -0.0063
  804MOL0     C10833   1.340  -0.612  -0.204 -0.2697 -0.1214 -0.2889
  804MOL0     C10834   1.434  -0.697  -0.114 -0.0323 -0.7867  0.0114
  804MOL0     C10835   1.573  -0.637  -0.110 -0.6559  0.6662 -0.5470
  804MOL0     C10836   1.574  -0.506  -0.028  0.0351 -0.0889 -1.2949
  804MOL0     C10837   1.707  -0.431  -0.054  0.4495 -0.1055  0.9702
  804MOL0     O10838   1.724  -0.408  -0.200 -0.4696  0.5845  0.1838
  804MOL0     C10839   1.667  -0.294  -0.237 -0.2755  0.0479 -0.3574
  804MOL0     C10840   1.702  -0.170  -0.191  0.8886  0.6015 -0.9600
  804MOL0     C10841   1.658  -0.048  -0.243  0.3283  0.5096  0.4837
  804MOL0     C10842   1.719   0.084  -0.198 -0.2170 -0.3033 -0.4580
  804MOL0     C10843   1.563  -0.048  -0.341  0.0578 -0.0652  0.3599
  804MOL0     C10844   1.490   0.072  -0.399 -0.6885  0.3446 -0.0044
  804MOL0     O10845   1.388   0.043  -0.488  0.3847  0.4916  0.2810
  804MOL0     C10846   1.318   0.133  -0.557  0.5309  0.6528 -0.4608
  804MOL0     C10847   1.367   0.239  -0.623  0.1597  0.2647 -0.2357
  804MOL0     C10848   1.279   0.334  -0.672  0.6843 -0.0481 -0.5184
  804MOL0     C10849   1.139   0.324  -0.684 -0.1214 -0.4215 -0.6406
  804MOL0     O10850   1.050   0.424  -0.740 -1.0390  0.2784  0.0601
  804MOL0     C10851   1.090   0.445  -0.877  0.1554 -0.7800  0.2693
  804MOL0     C10852   1.106   0.603  -0.905 -0.9632  0.2841  0.0914
  804MOL0     C10853   1.177   0.631  -1.041  0.1298  0.3383 -0.6458
  804MOL0     C10854   1.147   0.772  -1.086  0.0909  0.9554 -0.2600
  804MOL0     C10855   1.016   0.776  -1.155 -0.0371  0.3791  0.6982
  804MOL0     C10856   0.955   0.913  -1.180 -0.0648  0.4461  1.0660
  804MOL0     C10857   0.921   1.000  -1.055 -0.3779 -0.4195 -0.7809
  804MOL0     C10858   0.873   0.930  -0.924  0.3586 -0.2827 -0.6623
  804MOL0    Cl10859   0.780   1.054  -0.841 -0.6740  0.0851  0.3550
  804MOL0     C10860   1.100   0.200  -0.643 -0.7466  0.6462 -0.5227
  804MOL0     C10861   1.183   0.106  -0.567  0.4063 -0.6077 -0.5565
  804MOL0     O10862   1.530   0.181  -0.374  0.1789 -0.1315 -0.2433
  804MOL0     C10863   1.528  -0.173  -0.392 -0.2881 -0.1586 -0.4809
  804MOL0     C10864   1.577  -0.293  -0.346  0.3061 -0.5199  0.2400
  804MOL0     N10865   1.347  -0.586  -0.343 -0.1262 -0.5564  0.0430
  804MOL0     N10866   1.249  -0.504  -0.376  0.1509  0.6597  0.1622
  804MOL0     C10867   0.762   0.549  -0.280 -0.0283 -0.0088  0.0065
  804MOL0     C10868   0.724   0.624  -0.166  0.5124  0.2234 -0.4969
  804MOL0     C10869   0.562   0.679   0.267 -0.0820  0.4034 -0.5747
  804MOL0     C10870   0.544   0.825   0.283 -0.1681  0.4149 -0.7546
  804MOL0     C10871   0.478   0.874   0.397 -0.4548 -0.1535 -0.9798
  804MOL0     C10872   0.445   0.792   0.501  0.6248 -0.5559  0.2098
  804MOL0     O10873   0.386   0.848   0.611 -0.2621  0.6904  0.0117
  804MOL0     C10874   0.427   0.802   0.740 -0.6523 -0.3412 -0.0254
  804MOL0     C10875   0.321   0.759   0.841  0.4775  0.0879 -0.8809
  804MOL0     C10876   0.203   0.686   0.766  0.3886  0.4262  0.2783
  804MOL0     C10877   0.096   0.653   0.868 -0.0209 -0.2446 -1.2396
  804MOL0     C10878  -0.013   0.575   0.800  0.4423 -0.6817 -1.4618
  804MOL0     C10879  -0.107   0.503   0.770  0.3166  0.3720 -0.3098
  804MOL0     C10880   0.472   0.657   0.490 -1.0444  0.0113 -0.7001
  804MOL0     C10881   0.532   0.594   0.379  0.1287  0.4676  1.1655
  804MOL0     C10882   0.537   0.449   0.379  0.0370 -0.1121  0.5166
  804MOL0     H10883   0.445   0.444  -0.066 -0.4626  2.7497  0.7297
  804MOL0     H10884   0.495   0.327  -0.271 -0.8937  1.2962 -0.5785
  804MOL0     H10885   0.694   0.265  -0.585 -1.1158  1.4967 -1.9084
  804MOL0     H10886   0.545   0.331  -0.494 -1.0186 -2.2266 -4.3853
  804MOL0     H10887   0.617   0.160  -0.310  1.7862 -2.5314  0.4601
  804MOL0     H10888   0.552   0.087  -0.455 -0.2522  0.5398  0.1514
  804MOL0     H10889   0.802   0.071  -0.543  0.3660 -0.5667 -0.3207
  804MOL0     H10890   0.838   0.104  -0.367  1.6007  2.3619 -2.8626
  804MOL0     H10891   0.666  -0.092  -0.321  0.0710  0.2066 -0.3537
  804MOL0     H10892   0.696  -0.135  -0.497  2.1088 -0.3508 -0.8308
  804MOL0     H10893   0.896  -0.134  -0.277 -0.7479 -0.9990  0.7357
  804MOL0     H10894   0.931  -0.172  -0.454  2.2131 -5.4987  0.8975
  804MOL0     H10895   0.759  -0.318  -0.240 -1.2217  0.1171 -1.7262
  804MOL0     H10896   0.751  -0.355  -0.413  0.9985  0.6716 -1.4338
  804MOL0     H10897   0.964  -0.454  -0.436  1.4420 -2.6845  0.6095
  804MOL0     H10898   0.904  -0.521  -0.290  0.0007  0.2174  0.8993
  804MOL0     H10899   1.095  -0.277  -0.294 -0.5807  2.2662  1.4165
  804MOL0     H10900   1.035  -0.364  -0.148 -3.2582 -1.4403 -0.7463
  804MOL0     H10901   1.209  -0.536  -0.049  1.4319 -0.3458  0.3757
  804MOL0     H10902   1.444  -0.791  -0.170  0.2220 -0.4386 -0.5355
  804MOL0     H10903   1.385  -0.703  -0.017 -2.1532 -2.9322 -1.0805
  804MOL0     H10904   1.636  -0.709  -0.057 -0.8136 -1.2440 -2.7887
  804MOL0     H10905   1.603  -0.626  -0.215 -0.6376  0.4230 -0.5682
  804MOL0     H10906   1.483  -0.450  -0.049  0.6802  0.6107 -2.3245
  804MOL0     H10907   1.571  -0.528   0.079  2.8130 -2.5321 -1.5876
  804MOL0     H10908   1.711  -0.344   0.013 -0.7133  1.2166 -0.6158
  804MOL0     H10909   1.782  -0.506  -0.026  1.9089  0.8416 -0.2150
  804MOL0     H10910   1.774  -0.163  -0.110  0.5554 -2.2905 -0.2964
  804MOL0     H10911   1.769   0.148  -0.271  4.1068 -0.3991  2.1047
  804MOL0     H10912   1.797   0.055  -0.128 -1.4295 -1.3349  0.5073
  804MOL0     H10913   1.637   0.135  -0.146  1.2586  1.4133  0.2449
  804MOL0     H10914   1.472   0.260  -0.603  0.0133 -2.1769  4.8287
  804MOL0     H10915   1.314   0.433  -0.697  0.6039  0.7360  2.1231
  804MOL0     H10916   1.180   0.384  -0.895  0.3957 -2.1747  4.9203
  804MOL0     H10917   1.010   0.408  -0.942 -2.9719  2.8601  1.6589
  804MOL0     H10918   1.002   0.637  -0.902 -0.6158  1.5338 -0.9986
  804MOL0     H10919   1.163   0.651  -0.825  0.2306 -1.5135  0.3676
  804MOL0     H10920   1.136   0.575  -1.125 -2.9339  2.2867 -0.6365
  804MOL0     H10921   1.285   0.621  -1.024 -0.2548 -2.5694  0.7125
  804MOL0     H10922   1.232   0.808  -1.145  2.2169 -1.9258  0.8248
  804MOL0     H10923   1.143   0.839  -1.000 -0.8388 -1.5200  1.7433
  804MOL0     H10924   1.024   0.736  -1.257  0.7734  1.7535  0.1764
  804MOL0     H10925   0.935   0.716  -1.115 -2.3209  2.4918 -0.4704
  804MOL0     H10926   0.867   0.900  -1.244 -0.1104 -0.5652  1.3059
  804MOL0     H10927   1.023   0.978  -1.235 -0.8684  0.0026 -0.4930
  804MOL0     H10928   0.852   1.079  -1.089  2.4651  1.8113 -1.7500
  804MOL0     H10929   1.013   1.050  -1.024 -1.8812  1.1273  1.4650
  804MOL0     H10930   0.969   0.902  -0.880 -0.2517 -2.2697 -0.4849
  804MOL0     H10931   0.817   0.836  -0.932 -1.2402  0.4631  0.9159
  804MOL0     H10932   0.995   0.176  -0.629  0.2850 -3.3180  2.2532
  804MOL0     H10933   1.138   0.014  -0.531 -1.9058  0.9501  0.8237
  804MOL0     H10934   1.460  -0.190  -0.475 -0.0891 -1.7922 -0.3475
  804MOL0     H10935   1.549  -0.388  -0.391  1.8409 -1.7455  1.7286
  804MOL0     H10936   0.849   0.551  -0.345 -1.4005 -1.0415 -1.9298
  804MOL0     H10937   0.797   0.692  -0.123  0.6787 -0.4026  0.2296
  804MOL0     H10938   0.581   0.904   0.217  1.7154  2.5715  2.5671
  804MOL0     H10939   0.458   0.980   0.412 -0.1938  0.1025 -2.2998
  804MOL0     H10940   0.492   0.714   0.743 -3.0869 -2.2436  3.2813
  804MOL0     H10941   0.490   0.877   0.789  1.9705 -0.9721 -2.1750
  804MOL0     H10942   0.284   0.852   0.885  1.5688 -0.5493  1.4872
  804MOL0     H10943   0.370   0.701   0.920 -0.3771  1.9756  1.1219
  804MOL0     H10944   0.156   0.736   0.681  0.7067 -2.3340 -1.6495
  804MOL0     H10945   0.236   0.587   0.733  1.9988  1.2033 -0.5654
  804MOL0     H10946   0.042   0.739   0.908 -0.7657 -0.0144 -2.6350
  804MOL0     H10947   0.151   0.591   0.939  1.7193  1.7156 -0.8041
  804MOL0     H10948  -0.190   0.449   0.728 -0.5146 -1.2155  3.0189
  804MOL0     H10949   0.437   0.602   0.577 -3.2118  2.8054  0.3308
  804MOL0     H10950   0.638   0.415   0.357  0.7953  0.2344  3.1232
  804MOL0     H10951   0.514   0.417   0.481  1.3841 -3.6321 -0.1722
  804MOL0     H10952   0.460   0.401   0.318 -1.3907  1.7020  0.7965
  805MOL0     O10953   4.420   2.372   5.299 -0.0584 -0.5696  0.6256
  805MOL0     C10954   4.438   2.275   5.230  0.3982  0.2200 -0.8314
  805MOL0     O10955   4.365   2.233   5.127  0.0577 -0.5015  0.2728
  805MOL0     C10956   4.239   2.280   5.105  1.3441  0.1827 -0.4635
  805MOL0     C10957   4.135   2.293   5.204  0.7109  0.1877 -0.5341
  805MOL0     C10958   4.010   2.339   5.180 -0.3710  0.3149  0.6968
  805MOL0     C10959   3.972   2.374   5.045 -0.4759 -0.2663  0.4329
  805MOL0     O10960   3.843   2.428   5.010 -0.5473  0.4539 -0.2147
  805MOL0     C10961   3.801   2.530   5.097 -0.2120 -0.4640  0.5292
  805MOL0     C10962   3.856   2.679   5.067 -0.1689  0.7735 -0.4580
  805MOL0     C10963   3.998   2.712   5.136  0.1931  0.5512  0.4242
  805MOL0     C10964   4.091   2.794   5.039 -0.0915 -1.3677  1.2259
  805MOL0     C10965   4.137   2.702   4.920 -0.2186  0.5992  0.6552
  805MOL0     C10966   4.246   2.769   4.833 -0.3319 -0.3809 -0.2011
  805MOL0     C10967   4.346   2.667   4.776 -1.1467 -0.3372  0.7650
  805MOL0     C10968   4.269   2.560   4.698 -0.2708  0.2518 -0.1590
  805MOL0     N10969   4.368   2.470   4.637  0.3116  0.1753  0.4076
  805MOL0     C10970   4.431   2.492   4.522 -0.5199  0.3039  0.1947
  805MOL0     C10971   4.517   2.389   4.499 -0.3709 -0.2241  0.9890
  805MOL0     C10972   4.610   2.382   4.382  0.4699 -0.3052  0.4239
  805MOL0     C10973   4.560   2.286   4.270 -0.1987 -0.2781 -0.2600
  805MOL0     C10974   4.677   2.255   4.174 -0.2362  0.2424  0.9881
  805MOL0     C10975   4.637   2.180   4.041  0.1235  0.5123  0.2304
  805MOL0     O10976   4.753   2.206   3.952 -0.0900 -0.7110  0.1607
  805MOL0     C10977   4.789   2.153   3.828  0.4168  0.0611  1.5169
  805MOL0     C10978   4.866   2.222   3.742 -0.5032  1.0066 -0.6131
  805MOL0     C10979   4.880   2.184   3.610  0.0447  0.0076  0.9292
  805MOL0     C10980   4.944   2.288   3.525 -0.8545 -0.9836  0.1825
  805MOL0     C10981   4.832   2.062   3.558  0.5068  0.7900  0.3620
  805MOL0     C10982   4.845   2.027   3.407  0.0897 -0.2731 -0.2197
  805MOL0     O10983   4.908   2.113   3.324 -0.3912 -0.6622  0.3841
  805MOL0     C10984   4.934   2.102   3.190 -0.1707  0.8998 -0.4739
  805MOL0     C10985   4.880   2.005   3.103 -0.9843 -0.4921  0.7838
  805MOL0     C10986   4.938   1.991   2.971 -0.1506 -0.8545  0.4013
  805MOL0     C10987   5.046   2.070   2.924  0.2581 -0.1833  0.1369
  805MOL0     O10988   5.082   2.062   2.794 -0.6157  0.1154  0.4929
  805MOL0     C10989   5.217   2.056   2.756  0.3113  0.2805  0.4536
  805MOL0     C10990   5.216   2.066   2.609 -0.4373 -0.9722 -0.1998
  805MOL0     C10991   5.349   2.035   2.543 -0.5145 -0.1568  0.4948
  805MOL0     C10992   5.340   1.882   2.512 -0.1300 -0.7714 -0.7435
  805MOL0     C10993   5.467   1.842   2.441  0.0690  1.2091  0.0720
  805MOL0     C10994   5.534   1.734   2.524  0.0107  0.0766 -0.2178
  805MOL0     C10995   5.669   1.719   2.445  0.2049  0.0547  0.2413
  805MOL0     C10996   5.748   1.615   2.515 -0.7262 -0.2121 -0.5059
  805MOL0    Cl10997   5.669   1.456   2.470 -0.4958  0.6537 -0.2035
  805MOL0     C10998   5.095   2.175   3.011  0.2635  0.7579  1.1705
  805MOL0     C10999   5.033   2.181   3.139  0.3413 -0.9217 -1.2386
  805MOL0     O11000   4.789   1.924   3.374 -0.2059 -0.5012  0.3568
  805MOL0     C11001   4.772   1.985   3.662  0.8184 -0.5760 -0.0027
  805MOL0     C11002   4.738   2.039   3.793  0.9993 -0.6052 -0.1582
  805MOL0     N11003   4.515   2.313   4.609 -0.4470  0.2814 -0.2328
  805MOL0     N11004   4.425   2.352   4.696 -0.2357 -0.2393  0.4233
  805MOL0     C11005   4.066   2.363   4.944 -0.2257 -0.0514 -0.0708
  805MOL0     C11006   4.191   2.313   4.975  0.1545 -0.0519 -0.2009
  805MOL0     C11007   4.551   2.181   5.257 -1.0523  0.4464  1.2211
  805MOL0     C11008   4.544   2.045   5.211 -0.2544 -0.1460 -0.5359
  805MOL0     C11009   4.629   1.944   5.257  0.4086  0.4640  0.3823
  805MOL0     C11010   4.730   1.973   5.349  0.6438 -0.4709 -0.1488
  805MOL0     O11011   4.820   1.879   5.393 -0.1589 -0.2950 -0.2443
  805MOL0     C11012   4.826   1.744   5.344 -0.5334 -0.9073  0.8404
  805MOL0     C11013   4.962   1.675   5.380  0.6603 -0.4968  0.0738
  805MOL0     C11014   4.981   1.532   5.336  0.1362  1.5079 -0.1937
  805MOL0     C11015   4.996   1.510   5.183 -0.0925 -0.5288  0.5410
  805MOL0     C11016   4.866   1.528   5.109 -0.4387 -0.2571  0.3419
  805MOL0     C11017   4.756   1.525   5.054 -0.8678 -0.2248  0.8775
  805MOL0     C11018   4.752   2.110   5.379 -0.7826 -0.0870 -0.4195
  805MOL0     C11019   4.666   2.209   5.339 -0.9665 -0.9992  0.7455
  805MOL0     C11020   4.690   2.353   5.378  0.5669  0.3512 -0.0955
  805MOL0     H11021   4.147   2.261   5.307 -0.2035  0.5151 -0.3126
  805MOL0     H11022   3.936   2.325   5.258 -0.6560 -4.2321 -0.0849
  805MOL0     H11023   3.816   2.506   5.202  0.2636  4.3099  1.8119
  805MOL0     H11024   3.695   2.530   5.069 -0.4671 -0.9463  1.4561
  805MOL0     H11025   3.860   2.686   4.958  0.2190  2.0536 -0.3827
  805MOL0     H11026   3.780   2.754   5.094  1.9621  4.0326 -2.6966
  805MOL0     H11027   3.984   2.762   5.233  1.0415  2.3702 -0.3353
  805MOL0     H11028   4.042   2.618   5.168 -3.2203 -1.2484  0.3070
  805MOL0     H11029   4.043   2.885   5.002  0.3548 -2.8808 -3.7238
  805MOL0     H11030   4.178   2.847   5.078 -0.9147  1.8040 -0.9070
  805MOL0     H11031   4.048   2.692   4.857 -1.3772 -3.8982  2.5782
  805MOL0     H11032   4.177   2.606   4.954  2.1821  1.0543 -0.6475
  805MOL0     H11033   4.186   2.817   4.756 -0.7170 -2.6569 -1.4247
  805MOL0     H11034   4.302   2.844   4.889 -2.2600  2.1207 -1.4140
  805MOL0     H11035   4.414   2.625   4.851  0.2934 -0.0765 -0.3626
  805MOL0     H11036   4.404   2.717   4.698  0.5770 -0.1659  2.0978
  805MOL0     H11037   4.206   2.501   4.764  0.0390 -0.8567 -0.8301
  805MOL0     H11038   4.211   2.611   4.620  2.1269  0.8253 -1.6852
  805MOL0     H11039   4.418   2.584   4.465  3.5074  1.2899  0.5971
  805MOL0     H11040   4.703   2.337   4.418  1.5490  1.3942 -0.1299
  805MOL0     H11041   4.640   2.477   4.336 -2.3457  0.5151  0.0771
  805MOL0     H11042   4.511   2.197   4.311 -3.8002  1.2800 -0.7447
  805MOL0     H11043   4.486   2.335   4.206  1.8485  0.8559 -1.8910
  805MOL0     H11044   4.710   2.349   4.128 -3.3624 -0.1614 -2.6187
  805MOL0     H11045   4.767   2.212   4.218 -0.7635 -2.3557 -0.2594
  805MOL0     H11046   4.614   2.075   4.059  3.9413 -0.7795 -1.5357
  805MOL0     H11047   4.544   2.228   4.008  0.0974  1.1986  1.2390
  805MOL0     H11048   4.892   2.322   3.773 -1.6161  0.7021  1.4572
  805MOL0     H11049   5.041   2.273   3.477 -1.2151  2.9827 -2.2868
  805MOL0     H11050   4.971   2.378   3.581  1.7975 -1.6519  0.0967
  805MOL0     H11051   4.869   2.329   3.457 -1.6451  1.2836  2.2581
  805MOL0     H11052   4.796   1.940   3.126 -1.5067  0.6329  2.1468
  805MOL0     H11053   4.914   1.917   2.896  5.0269 -1.1397 -1.3851
  805MOL0     H11054   5.277   2.138   2.796 -0.6325  1.8369 -1.1910
  805MOL0     H11055   5.252   1.955   2.779 -1.4116 -0.4593 -0.0508
  805MOL0     H11056   5.161   1.975   2.583  0.9918 -1.2920 -2.4132
  805MOL0     H11057   5.170   2.157   2.570 -3.0264 -2.5042 -1.0049
  805MOL0     H11058   5.429   2.076   2.606 -0.6730  0.9864 -0.0344
  805MOL0     H11059   5.350   2.081   2.445  2.9339 -0.8931  0.0587
  805MOL0     H11060   5.255   1.851   2.451  1.9253 -0.8975 -3.8006
  805MOL0     H11061   5.338   1.827   2.607  2.0473  3.0559  1.7655
  805MOL0     H11062   5.453   1.788   2.347  1.7806 -0.7667  0.8878
  805MOL0     H11063   5.542   1.918   2.418  1.8336  0.2261  2.2096
  805MOL0     H11064   5.473   1.644   2.521 -0.7700  0.5210  1.3211
  805MOL0     H11065   5.544   1.762   2.629  1.5836  0.5390 -0.4625
  805MOL0     H11066   5.734   1.806   2.463  2.4661 -1.2988 -0.9582
  805MOL0     H11067   5.651   1.695   2.340 -1.2775 -0.7736  0.6512
  805MOL0     H11068   5.758   1.633   2.622 -1.1902  2.9541 -0.8995
  805MOL0     H11069   5.847   1.620   2.469 -0.3861 -0.0041  0.2429
  805MOL0     H11070   5.154   2.260   2.976  0.7974 -0.7478 -1.9399
  805MOL0     H11071   5.041   2.262   3.210 -3.0657 -3.3309  2.3404
  805MOL0     H11072   4.733   1.891   3.625 -0.1953 -0.1014 -0.1812
  805MOL0     H11073   4.667   1.989   3.859  1.6016  1.3080  2.0934
  805MOL0     H11074   4.034   2.394   4.845  3.1194  0.7706 -1.0334
  805MOL0     H11075   4.265   2.314   4.895  0.2647  3.1814 -0.1961
  805MOL0     H11076   4.456   2.007   5.160 -0.9828 -0.5740  0.9968
  805MOL0     H11077   4.605   1.843   5.223 -2.6669  0.5040  2.0568
  805MOL0     H11078   4.747   1.672   5.370  0.4435 -2.3280 -0.0083
  805MOL0     H11079   4.814   1.755   5.236  1.7539  4.3864  0.8245
  805MOL0     H11080   4.961   1.674   5.490 -0.5895  1.8076  0.1303
  805MOL0     H11081   5.045   1.726   5.331  1.6760 -0.3384  1.8677
  805MOL0     H11082   5.074   1.488   5.374  0.8187  1.4919 -1.7812
  805MOL0     H11083   4.895   1.477   5.375  0.5808  2.3019  2.0128
  805MOL0     H11084   5.041   1.411   5.170 -2.9364 -2.2433  2.6048
  805MOL0     H11085   5.074   1.575   5.142 -2.9427  1.6732 -1.8785
  805MOL0     H11086   4.662   1.526   5.002 -0.9026 -2.8515  0.7381
  805MOL0     H11087   4.837   2.136   5.441 -2.1056  1.9414  0.6497
  805MOL0     H11088   4.780   2.366   5.438 -1.2713  0.6893  2.7672
  805MOL0     H11089   4.702   2.419   5.292 -0.1088 -2.0041 -2.1068
  805MOL0     H11090   4.610   2.401   5.436 -0.7928 -1.9607  0.0475
  806MOL0     O11091   6.163   8.181   0.092  0.7556  0.0492 -0.2752
  806MOL0     C11092   6.206   8.154  -0.019 -0.4840  0.2250  0.1127
  806MOL0     O11093   6.193   8.233  -0.131  0.3979  0.1266  0.2793
  806MOL0     C11094   6.145   8.364  -0.115  0.1888  1.6370  0.1111
  806MOL0     C11095   6.247   8.457  -0.104  0.2201 -1.3545  0.0127
  806MOL0     C11096   6.221   8.593  -0.104 -0.0674 -0.5356  0.2676
  806MOL0     C11097   6.089   8.633  -0.095  1.0048  0.0365  0.3623
  806MOL0     O11098   6.077   8.770  -0.089 -0.4671 -0.6441  0.0282
  806MOL0     C11099   5.948   8.827  -0.069 -0.9958  0.0202  0.6058
  806MOL0     C11100   5.948   8.979  -0.070  0.3761 -0.0036 -0.2489
  806MOL0     C11101   5.988   9.032  -0.213 -0.7094  0.7377  0.5138
  806MOL0     C11102   6.012   9.183  -0.198  0.1214  0.1720 -0.5962
  806MOL0     C11103   6.049   9.253  -0.324  0.1200 -0.2162 -0.0429
  806MOL0     C11104   6.086   9.396  -0.314 -0.4393 -0.5297  0.8056
  806MOL0     C11105   6.083   9.469  -0.464 -0.4454 -0.6870 -0.4316
  806MOL0     C11106   6.077   9.618  -0.467 -0.1775 -0.1621 -0.3588
  806MOL0     N11107   6.199   9.695  -0.432  0.8243  0.3618 -0.0447
  806MOL0     C11108   6.270   9.700  -0.317  0.1676 -1.2686 -0.3196
  806MOL0     C11109   6.326   9.823  -0.309  0.1951  0.7798 -0.1044
  806MOL0     C11110   6.380   9.889  -0.183 -0.5492 -0.1517  0.0365
  806MOL0     C11111   6.521   9.934  -0.204  0.4526  0.2393 -0.7588
  806MOL0     C11112   6.611   9.816  -0.245  0.4005 -0.4333  0.3066
  806MOL0     C11113   6.639   9.716  -0.136 -0.0351 -0.3571 -1.1770
  806MOL0     O11114   6.746   9.644  -0.185 -1.0138 -0.8687 -0.6936
  806MOL0     C11115   6.777   9.518  -0.131 -0.3588  0.0184  0.0464
  806MOL0     C11116   6.820   9.422  -0.211 -0.2830  0.4302 -0.9929
  806MOL0     C11117   6.857   9.293  -0.167  0.0017 -0.1096 -0.2909
  806MOL0     C11118   6.905   9.191  -0.270 -0.8216  0.7958  0.2187
  806MOL0     C11119   6.837   9.262  -0.025 -0.1050 -0.6174 -0.2468
  806MOL0     C11120   6.860   9.133   0.053 -0.4812 -0.3678  0.2917
  806MOL0     O11121   6.795   9.115   0.178 -0.0832  0.6065  1.0526
  806MOL0     C11122   6.821   9.008   0.254 -0.3241 -0.5912  0.5833
  806MOL0     C11123   6.885   8.885   0.225 -1.2362  0.2363  0.7854
  806MOL0     C11124   6.899   8.791   0.325  0.1971 -0.0478  0.5816
  806MOL0     C11125   6.839   8.810   0.450  0.1253 -0.3431 -0.3008
  806MOL0     O11126   6.854   8.715   0.539  0.9716  0.2116  0.2719
  806MOL0     C11127   6.722   8.660   0.553  0.2803  0.4377 -0.5419
  806MOL0     C11128   6.694   8.594   0.680  0.3704  0.7840 -0.3100
  806MOL0     C11129   6.709   8.685   0.802  0.2079 -0.9688  0.1916
  806MOL0     C11130   6.793   8.641   0.917 -0.0939  0.4453 -0.2017
  806MOL0     C11131   6.834   8.745   1.025 -0.1524  0.4012  0.1335
  806MOL0     C11132   6.960   8.837   0.970 -0.2118  0.6262  0.5745
  806MOL0     C11133   7.083   8.753   0.954 -0.0840  0.3039  0.6763
  806MOL0     C11134   7.197   8.847   0.910  0.8284  0.0951 -1.3251
  806MOL0    Cl11135   7.358   8.775   0.871  0.3466 -0.2133  0.0503
  806MOL0     C11136   6.778   8.935   0.482 -0.1741  0.1533 -0.7688
  806MOL0     C11137   6.779   9.029   0.384 -1.1680 -0.2378  0.5843
  806MOL0     O11138   6.923   9.053  -0.010  0.2411  0.4629  0.0288
  806MOL0     C11139   6.787   9.361   0.055  0.0800 -0.5231 -0.5064
  806MOL0     C11140   6.754   9.491  -0.001 -0.1197 -0.0942 -0.1382
  806MOL0     N11141   6.308   9.882  -0.428 -0.2794 -1.3789 -0.4982
  806MOL0     N11142   6.238   9.799  -0.505  0.2300 -0.1843 -0.4157
  806MOL0     C11143   5.983   8.540  -0.084 -0.2193 -0.6883  0.3128
  806MOL0     C11144   6.007   8.405  -0.091 -0.2103  0.9554 -0.5033
  806MOL0     C11145   6.292   8.029  -0.024 -1.1040  0.2036  0.9232
  806MOL0     C11146   6.388   8.023  -0.132  0.2079 -0.1929  0.1363
  806MOL0     C11147   6.490   7.920  -0.126 -0.4336  0.2624 -0.4354
  806MOL0     C11148   6.502   7.822  -0.026 -0.5329  1.4257 -1.1281
  806MOL0     O11149   6.613   7.739  -0.026  0.4364 -0.7578  0.4261
  806MOL0     C11150   6.641   7.656   0.085  0.0332 -1.0011 -1.0727
  806MOL0     C11151   6.784   7.602   0.095 -0.4833 -0.5541 -0.2898
  806MOL0     C11152   6.896   7.707   0.074 -0.7108  0.0402  0.8698
  806MOL0     C11153   6.913   7.827   0.168  0.0298  0.3288 -0.8615
  806MOL0     C11154   6.911   7.790   0.306 -0.3874  0.6778 -0.2667
  806MOL0     C11155   6.903   7.769   0.425 -1.1214  0.3313 -0.0260
  806MOL0     C11156   6.394   7.821   0.067  0.7426 -0.5501  0.4495
  806MOL0     C11157   6.290   7.920   0.070  0.7869 -0.7265 -0.6874
  806MOL0     C11158   6.174   7.901   0.175  0.1646  0.2847  0.3525
  806MOL0     H11159   6.355   8.444  -0.115  0.9454  3.4634 -0.4394
  806MOL0     H11160   6.306   8.659  -0.118  0.9412 -1.3227  2.2410
  806MOL0     H11161   5.915   8.790   0.028  1.9287 -2.7153  0.7453
  806MOL0     H11162   5.882   8.785  -0.145  2.0355 -2.1759 -1.0582
  806MOL0     H11163   5.847   9.007  -0.038  0.2330 -0.0275 -0.6853
  806MOL0     H11164   6.013   9.012   0.012 -0.1336  1.2394 -0.3229
  806MOL0     H11165   6.074   8.978  -0.254 -0.8731  0.6174  0.3257
  806MOL0     H11166   5.913   9.012  -0.290  3.7564  1.4457 -4.6310
  806MOL0     H11167   5.923   9.227  -0.150 -1.2896 -1.3691 -1.7179
  806MOL0     H11168   6.099   9.208  -0.137  0.7177  2.2002 -2.1702
  806MOL0     H11169   5.967   9.247  -0.397 -0.5484 -2.5083  0.8097
  806MOL0     H11170   6.145   9.218  -0.362 -0.1644 -0.2613 -0.7474
  806MOL0     H11171   6.004   9.443  -0.259 -1.6704  2.8313 -3.4160
  806MOL0     H11172   6.181   9.406  -0.260  0.1933 -2.6821  0.2028
  806MOL0     H11173   5.995   9.438  -0.521 -0.0127  3.6244 -3.9077
  806MOL0     H11174   6.177   9.441  -0.513  0.4867 -1.4131  1.6279
  806MOL0     H11175   6.061   9.647  -0.572  2.1584 -0.8139 -0.9655
  806MOL0     H11176   5.995   9.649  -0.402  1.6698  1.6312  1.2615
  806MOL0     H11177   6.262   9.625  -0.239  0.3720  0.2212  1.1866
  806MOL0     H11178   6.377   9.823  -0.096  0.4407 -2.1781 -1.3757
  806MOL0     H11179   6.323   9.976  -0.149  1.4414  0.3075  2.5634
  806MOL0     H11180   6.528  10.009  -0.284  0.0893 -0.5484 -1.5429
  806MOL0     H11181   6.564   9.974  -0.111  1.1919 -1.9339 -0.1090
  806MOL0     H11182   6.560   9.758  -0.321 -0.6991 -0.1129  0.7712
  806MOL0     H11183   6.701   9.865  -0.284  0.6362 -1.1187 -0.0108
  806MOL0     H11184   6.664   9.776  -0.048 -0.2016 -2.0460  0.0928
  806MOL0     H11185   6.546   9.662  -0.119 -0.5353  0.8372  0.1148
  806MOL0     H11186   6.835   9.449  -0.315  2.5275  0.7190 -0.5965
  806MOL0     H11187   7.014   9.188  -0.270 -0.8390 -1.3613  1.2949
  806MOL0     H11188   6.874   9.218  -0.372 -2.1548 -1.9250 -0.1738
  806MOL0     H11189   6.855   9.095  -0.254 -3.9880  2.5817  2.2160
  806MOL0     H11190   6.929   8.865   0.128 -4.4275 -1.8148 -0.3835
  806MOL0     H11191   6.946   8.696   0.306  1.9146  0.4458  2.0067
  806MOL0     H11192   6.636   8.727   0.541 -0.9564 -0.3479  2.8910
  806MOL0     H11193   6.720   8.584   0.474  0.1021 -0.2256  0.0932
  806MOL0     H11194   6.600   8.539   0.669  1.8976 -1.9072 -0.5167
  806MOL0     H11195   6.774   8.522   0.697  2.9116  3.3568 -0.6908
  806MOL0     H11196   6.611   8.674   0.849  0.5477 -2.1909  0.6519
  806MOL0     H11197   6.740   8.788   0.779  1.1357 -1.1831  0.4377
  806MOL0     H11198   6.877   8.584   0.875 -1.1736 -1.4932  0.1395
  806MOL0     H11199   6.735   8.571   0.978  1.1571 -1.6167 -1.2704
  806MOL0     H11200   6.744   8.802   1.052 -1.6677 -2.7521  2.3758
  806MOL0     H11201   6.866   8.687   1.112 -1.2467 -0.6330 -0.1403
  806MOL0     H11202   6.979   8.924   1.033  1.6506 -0.3319  1.4298
  806MOL0     H11203   6.940   8.885   0.874 -0.7061 -2.0716 -0.7833
  806MOL0     H11204   7.069   8.691   0.865 -1.5386  1.9624 -0.2936
  806MOL0     H11205   7.122   8.698   1.040  3.3222  0.3878 -0.6209
  806MOL0     H11206   7.221   8.901   1.002  1.4884 -4.2387  1.3541
  806MOL0     H11207   7.159   8.909   0.829 -1.5690 -1.1049 -1.1991
  806MOL0     H11208   6.731   8.953   0.578 -0.8450  1.2088 -1.2684
  806MOL0     H11209   6.741   9.128   0.408 -3.0198 -0.8876  0.5342
  806MOL0     H11210   6.755   9.345   0.157 -0.6558 -0.5162 -0.7310
  806MOL0     H11211   6.721   9.568   0.068  2.1499 -0.7321  1.8061
  806MOL0     H11212   5.878   8.566  -0.073 -0.1966 -0.8440  0.9548
  806MOL0     H11213   5.934   8.325  -0.085  0.3867  0.4194 -0.1422
  806MOL0     H11214   6.373   8.082  -0.221  1.4429  2.9140  1.8453
  806MOL0     H11215   6.549   7.924  -0.217 -1.9054  2.6230 -1.3789
  806MOL0     H11216   6.626   7.715   0.176  0.4517 -4.0505  1.1199
  806MOL0     H11217   6.566   7.577   0.092  0.0497 -0.8941  0.7684
  806MOL0     H11218   6.804   7.516   0.030  2.2581  0.8445 -1.4223
  806MOL0     H11219   6.802   7.555   0.193 -0.6210  0.0918  0.0521
  806MOL0     H11220   6.988   7.649   0.083 -1.1865 -0.9463 -0.3112
  806MOL0     H11221   6.888   7.739  -0.030  1.5183 -1.2261  0.2373
  806MOL0     H11222   6.830   7.897   0.157 -2.8328 -2.5898  0.6120
  806MOL0     H11223   7.013   7.872   0.164  1.2974 -1.6563  3.0965
  806MOL0     H11224   6.889   7.764   0.531 -1.2643  0.6600 -0.0267
  806MOL0     H11225   6.393   7.740   0.139  1.9116 -0.5565  0.4874
  806MOL0     H11226   6.211   7.929   0.274 -1.0314 -1.8216  1.4470
  806MOL0     H11227   6.087   7.965   0.158  0.6452  1.0796  0.7852
  806MOL0     H11228   6.155   7.794   0.163  0.9949  0.3882 -3.0173
  807MOL0     O11229   1.432   4.290   1.658 -0.4549 -0.1161  0.0887
  807MOL0     C11230   1.346   4.281   1.577  0.6380 -0.3103  0.3324
  807MOL0     O11231   1.213   4.253   1.610 -0.6728  0.2384 -0.3139
  807MOL0     C11232   1.180   4.282   1.745  0.1550 -0.3567  0.1789
  807MOL0     C11233   1.222   4.197   1.851 -0.3887 -0.6076  0.1628
  807MOL0     C11234   1.217   4.238   1.986 -0.4809 -0.0705  0.0433
  807MOL0     C11235   1.161   4.363   2.012 -0.7818 -0.1598 -0.7242
  807MOL0     O11236   1.153   4.388   2.147  1.0095  0.2983 -1.4672
  807MOL0     C11237   1.126   4.523   2.190 -0.3979 -0.2204  0.5895
  807MOL0     C11238   1.135   4.520   2.348 -1.0576 -1.0525  0.1998
  807MOL0     C11239   1.022   4.451   2.417 -0.0370  0.8422  0.4780
  807MOL0     C11240   0.898   4.548   2.417 -0.6434 -0.2889 -0.1689
  807MOL0     C11241   0.802   4.504   2.521 -0.5029  0.2728  0.1048
  807MOL0     C11242   0.838   4.485   2.669 -0.2026 -0.5181 -0.5281
  807MOL0     C11243   0.923   4.608   2.714 -0.4398  0.9440  0.0371
  807MOL0     C11244   0.972   4.602   2.860 -0.9341 -0.3400  0.8366
  807MOL0     N11245   0.858   4.615   2.945 -0.5852  0.2932 -0.8594
  807MOL0     C11246   0.760   4.709   2.937 -0.5983  0.2368  0.2781
  807MOL0     C11247   0.672   4.690   3.041 -0.4751  1.1060 -0.3847
  807MOL0     C11248   0.551   4.778   3.074 -0.7091  0.2286 -0.9973
  807MOL0     C11249   0.417   4.751   3.001 -0.8187 -0.4504  0.3994
  807MOL0     C11250   0.382   4.602   2.994  0.5813 -0.9830  0.0955
  807MOL0     C11251   0.474   4.499   2.920 -0.4497 -0.3035  0.3252
  807MOL0     O11252   0.380   4.412   2.851 -0.2947  1.1122  0.3500
  807MOL0     C11253   0.419   4.283   2.800  0.9347 -0.3014 -0.7354
  807MOL0     C11254   0.327   4.190   2.756  0.1658  0.3150  0.2058
  807MOL0     C11255   0.372   4.069   2.702 -0.1554  0.0005  0.1678
  807MOL0     C11256   0.263   3.975   2.660  0.3088 -0.7272 -0.3113
  807MOL0     C11257   0.504   4.028   2.689  0.5442 -0.0763  0.6924
  807MOL0     C11258   0.558   3.904   2.631 -0.3135 -0.0524 -0.5698
  807MOL0     O11259   0.691   3.908   2.572 -0.3574  1.2051  0.2595
  807MOL0     C11260   0.748   3.797   2.512 -0.7141  0.0442  1.2394
  807MOL0     C11261   0.845   3.818   2.408 -0.4685  0.3795  0.3311
  807MOL0     C11262   0.887   3.705   2.333  0.4951 -0.0934 -0.5067
  807MOL0     C11263   0.858   3.570   2.368 -0.4890 -0.3382 -0.7255
  807MOL0     O11264   0.909   3.471   2.287  0.0826  0.7983 -0.4049
  807MOL0     C11265   0.887   3.498   2.142  0.4739  0.1609 -0.4041
  807MOL0     C11266   0.885   3.367   2.060  0.2125 -1.0741  0.7526
  807MOL0     C11267   0.845   3.393   1.914  0.2395 -0.2334 -0.7613
  807MOL0     C11268   0.700   3.435   1.875 -0.0754  0.6899 -0.1820
  807MOL0     C11269   0.694   3.421   1.720  0.6683  0.0102 -0.2473
  807MOL0     C11270   0.561   3.461   1.661 -0.6727  0.2200  0.0976
  807MOL0     C11271   0.558   3.601   1.596  0.2265 -0.0864 -1.1671
  807MOL0     C11272   0.425   3.637   1.534  0.5060  0.4747 -0.1973
  807MOL0    Cl11273   0.285   3.609   1.648 -0.4682  0.2898 -0.0907
  807MOL0     C11274   0.782   3.545   2.484 -0.2746 -0.4584 -0.3023
  807MOL0     C11275   0.728   3.659   2.555  0.4300 -0.0461  0.0501
  807MOL0     O11276   0.485   3.806   2.626 -0.7321  0.3326  0.1576
  807MOL0     C11277   0.595   4.110   2.749  0.5101 -0.7450  0.2507
  807MOL0     C11278   0.557   4.242   2.801  0.5645 -0.6510 -0.2065
  807MOL0     N11279   0.713   4.581   3.113 -0.3513 -0.4037  0.6275
  807MOL0     N11280   0.821   4.536   3.060 -0.0093 -0.2504  1.3414
  807MOL0     C11281   1.122   4.455   1.908 -0.0587 -0.2497 -0.5896
  807MOL0     C11282   1.135   4.412   1.780 -0.2857  0.3549  0.1766
  807MOL0     C11283   1.385   4.315   1.446 -0.1284  1.7304 -0.7280
  807MOL0     C11284   1.284   4.358   1.355 -0.4679 -0.1867  0.3700
  807MOL0     C11285   1.313   4.397   1.224  0.1439 -0.3932 -0.7518
  807MOL0     C11286   1.444   4.397   1.182 -0.2912 -0.1219  0.6237
  807MOL0     O11287   1.478   4.436   1.055 -0.0353  0.2704  0.7139
  807MOL0     C11288   1.374   4.416   0.951 -0.5708 -0.1299  0.3717
  807MOL0     C11289   1.437   4.388   0.808  0.1342 -0.0571 -0.1359
  807MOL0     C11290   1.318   4.376   0.708 -0.2103  0.1133 -0.7066
  807MOL0     C11291   1.355   4.362   0.557 -0.4156  0.1243 -0.0595
  807MOL0     C11292   1.454   4.254   0.547  0.3422  0.2633 -0.4343
  807MOL0     C11293   1.540   4.171   0.559 -0.3392  0.7638  0.4584
  807MOL0     C11294   1.550   4.343   1.263  0.2985 -0.1445  0.3765
  807MOL0     C11295   1.516   4.298   1.393 -1.0972 -0.0678 -0.9821
  807MOL0     C11296   1.634   4.235   1.460  0.4407  0.3194 -0.1489
  807MOL0     H11297   1.281   4.109   1.827  2.8534  1.4986 -0.1460
  807MOL0     H11298   1.244   4.173   2.069 -1.7759  0.5606  0.9888
  807MOL0     H11299   1.028   4.555   2.155  0.9455  2.9284 -0.6578
  807MOL0     H11300   1.207   4.587   2.153 -2.1026  2.3829  1.1040
  807MOL0     H11301   1.219   4.454   2.373 -0.7773 -0.9949 -0.5464
  807MOL0     H11302   1.155   4.616   2.396  1.8904 -1.4109 -0.1188
  807MOL0     H11303   0.995   4.363   2.358  2.7056  1.1814 -1.4774
  807MOL0     H11304   1.047   4.408   2.514  3.0804 -1.1868 -1.0739
  807MOL0     H11305   0.928   4.649   2.446  0.6557 -0.9062  0.7562
  807MOL0     H11306   0.850   4.543   2.319 -2.8415  2.8207  0.6015
  807MOL0     H11307   0.762   4.407   2.489  3.2136 -1.3025 -0.2772
  807MOL0     H11308   0.712   4.566   2.532 -0.2161  0.6028  0.6058
  807MOL0     H11309   0.743   4.479   2.723 -0.3146  3.3886 -0.0301
  807MOL0     H11310   0.906   4.400   2.683  2.7310  1.2887 -2.5489
  807MOL0     H11311   0.875   4.699   2.676  2.9059  2.2813 -1.3072
  807MOL0     H11312   1.018   4.600   2.661  0.0674 -1.2736  1.1793
  807MOL0     H11313   1.028   4.512   2.885 -0.9275 -0.0655  1.8416
  807MOL0     H11314   1.037   4.691   2.861  0.7111 -1.0665 -4.7688
  807MOL0     H11315   0.757   4.795   2.871  1.3193  1.5194  1.7505
  807MOL0     H11316   0.582   4.878   3.042  0.7723  0.8259  1.9771
  807MOL0     H11317   0.525   4.778   3.180  0.0595 -0.3372 -0.7904
  807MOL0     H11318   0.354   4.806   3.071  2.0329  3.7480  0.0471
  807MOL0     H11319   0.411   4.794   2.901  0.6119  0.5216  0.6961
  807MOL0     H11320   0.365   4.566   3.095 -1.0630  4.2371  2.0344
  807MOL0     H11321   0.277   4.597   2.961  0.3384 -1.4858  0.9364
  807MOL0     H11322   0.537   4.551   2.847  0.8043 -0.2752  1.3966
  807MOL0     H11323   0.542   4.454   2.993  2.5271  0.1478 -1.9692
  807MOL0     H11324   0.221   4.214   2.756  0.0152 -0.3136 -0.3369
  807MOL0     H11325   0.266   3.876   2.705 -0.4615  0.0208  1.4916
  807MOL0     H11326   0.245   3.960   2.553 -1.1113  0.0247 -0.2098
  807MOL0     H11327   0.171   4.015   2.705  1.6369 -0.9142  2.8470
  807MOL0     H11328   0.879   3.917   2.379 -0.6415 -0.0635 -1.4977
  807MOL0     H11329   0.965   3.724   2.260  0.5092  1.3822 -0.1356
  807MOL0     H11330   0.788   3.541   2.125  1.8102  2.8396 -1.9378
  807MOL0     H11331   0.968   3.568   2.119  1.8684 -1.0881  0.5173
  807MOL0     H11332   0.986   3.326   2.061  1.9408  2.6125 -1.5317
  807MOL0     H11333   0.814   3.294   2.099 -0.2206 -0.6786  0.7103
  807MOL0     H11334   0.885   3.306   1.860  0.5154 -0.8087  0.3348
  807MOL0     H11335   0.904   3.483   1.896 -1.3735  1.1876  0.6976
  807MOL0     H11336   0.681   3.540   1.897  2.1573  0.7843  1.7232
  807MOL0     H11337   0.628   3.362   1.914 -1.6512  1.3185 -1.7714
  807MOL0     H11338   0.769   3.478   1.665 -0.5591  1.6516 -0.3080
  807MOL0     H11339   0.715   3.315   1.700  1.6213  0.4119 -1.5537
  807MOL0     H11340   0.505   3.471   1.754  0.5455  1.3322  0.7529
  807MOL0     H11341   0.521   3.389   1.589 -1.9328 -0.1537  1.1281
  807MOL0     H11342   0.630   3.598   1.513  1.2824 -4.9746 -0.3871
  807MOL0     H11343   0.579   3.673   1.675 -1.9421 -0.4271 -0.2174
  807MOL0     H11344   0.396   3.584   1.443 -2.9360 -1.8308  1.9698
  807MOL0     H11345   0.428   3.743   1.508  2.1850  0.2223 -1.1539
  807MOL0     H11346   0.779   3.444   2.522  3.2065 -0.0939  1.2974
  807MOL0     H11347   0.658   3.635   2.635  0.3551 -0.7693 -0.2246
  807MOL0     H11348   0.699   4.080   2.749  0.0915 -2.3462  1.5138
  807MOL0     H11349   0.640   4.307   2.828  1.1205 -0.5452 -2.0278
  807MOL0     H11350   1.080   4.554   1.924  0.3071 -0.5474  3.3238
  807MOL0     H11351   1.107   4.473   1.695  0.2466 -0.4449 -0.5966
  807MOL0     H11352   1.180   4.353   1.385 -0.4449  2.3674  1.0640
  807MOL0     H11353   1.240   4.445   1.159  0.6123 -0.7479 -1.5500
  807MOL0     H11354   1.300   4.338   0.973 -1.6586  1.2111  1.6716
  807MOL0     H11355   1.323   4.512   0.939 -1.9092 -0.9141 -0.4774
  807MOL0     H11356   1.494   4.295   0.813  0.9441  0.4667  1.0245
  807MOL0     H11357   1.494   4.475   0.773 -0.1409  0.7456  1.3156
  807MOL0     H11358   1.245   4.296   0.727 -0.4162 -1.0163 -5.0926
  807MOL0     H11359   1.259   4.468   0.712 -0.3424  0.0514 -1.1267
  807MOL0     H11360   1.392   4.462   0.530  3.4551 -1.5411 -1.6391
  807MOL0     H11361   1.264   4.349   0.497 -1.0017  3.1535 -0.0076
  807MOL0     H11362   1.617   4.096   0.557 -2.1358 -1.1748 -2.0149
  807MOL0     H11363   1.655   4.342   1.234 -0.0298 -0.8698 -0.8763
  807MOL0     H11364   1.597   4.145   1.509 -2.9296  1.2223 -0.8151
  807MOL0     H11365   1.720   4.213   1.396  0.2029 -1.2584  0.0379
  807MOL0     H11366   1.675   4.304   1.535 -0.8212  0.2737  0.6087
  808MOL0     O11367   5.936   7.497   5.105 -0.0228 -0.2704 -0.2673
  808MOL0     C11368   6.032   7.451   5.157  0.1737 -1.1605  0.7440
  808MOL0     O11369   6.077   7.489   5.276 -0.1719  0.3212  0.1294
  808MOL0     C11370   6.035   7.597   5.359  1.0644  0.0049 -0.2981
  808MOL0     C11371   6.110   7.712   5.361 -0.2298  0.5134  0.2822
  808MOL0     C11372   6.072   7.823   5.426  0.7680 -0.0618 -0.3288
  808MOL0     C11373   5.966   7.824   5.510  1.2802  0.2131 -1.2208
  808MOL0     O11374   5.947   7.942   5.584  0.4597  0.1391 -0.3233
  808MOL0     C11375   6.046   8.042   5.613 -0.7006  0.1133  0.1539
  808MOL0     C11376   5.988   8.165   5.670 -0.0147  0.8103 -0.8656
  808MOL0     C11377   5.914   8.156   5.811 -0.1038 -0.2115 -0.4373
  808MOL0     C11378   5.874   8.289   5.864  0.0640  0.2968 -0.7059
  808MOL0     C11379   5.817   8.274   6.007  0.0941 -0.1921  0.3077
  808MOL0     C11380   5.803   8.422   6.072 -0.0501 -0.5261  0.3759
  808MOL0     C11381   5.727   8.403   6.199  0.0515 -0.4943 -0.4061
  808MOL0     C11382   5.580   8.419   6.181 -0.3361 -0.3162 -0.1339
  808MOL0     N11383   5.498   8.345   6.279  0.0836 -0.3389 -0.6516
  808MOL0     C11384   5.400   8.391   6.351 -0.5488 -1.5287  0.4853
  808MOL0     C11385   5.333   8.282   6.398  0.4953  0.4157  0.1934
  808MOL0     C11386   5.211   8.287   6.500  0.3733 -0.7342 -0.8962
  808MOL0     C11387   5.239   8.179   6.617  0.7270 -0.3680 -0.1154
  808MOL0     C11388   5.136   8.222   6.727  0.7178  0.0052 -0.5980
  808MOL0     C11389   5.157   8.130   6.851 -0.8012 -0.3618 -0.4904
  808MOL0     O11390   5.089   8.190   6.969  0.2321  0.5022  0.5881
  808MOL0     C11391   4.945   8.197   6.968 -0.4409  0.4306 -1.0876
  808MOL0     C11392   4.892   8.311   7.029 -0.0160 -0.0184 -0.0900
  808MOL0     C11393   4.752   8.331   7.041 -1.3911 -0.0236  0.2850
  808MOL0     C11394   4.700   8.463   7.092  0.4638 -0.6523 -0.7332
  808MOL0     C11395   4.661   8.234   6.989  0.7266 -0.8762  0.4493
  808MOL0     C11396   4.521   8.220   7.030  0.8212 -0.6088  0.3659
  808MOL0     O11397   4.463   8.110   7.001  0.0968 -0.2180  0.0404
  808MOL0     C11398   4.337   8.078   7.040 -0.0654 -0.2041 -1.1006
  808MOL0     C11399   4.297   8.071   7.171  0.2210 -0.0367  0.9151
  808MOL0     C11400   4.171   8.027   7.208  0.6765 -0.7397 -0.0436
  808MOL0     C11401   4.073   7.999   7.098  0.1223 -0.1042 -0.5076
  808MOL0     O11402   3.942   7.979   7.118  0.0557  0.2730 -0.6804
  808MOL0     C11403   3.879   8.088   7.172 -0.7559 -0.0353  0.3977
  808MOL0     C11404   3.727   8.051   7.170 -0.0496  1.2446 -0.0563
  808MOL0     C11405   3.647   8.179   7.199  0.1795  0.5766  0.5857
  808MOL0     C11406   3.673   8.230   7.344  0.9389  0.3738  0.5620
  808MOL0     C11407   3.571   8.344   7.357  0.2963  0.1564  0.0392
  808MOL0     C11408   3.570   8.432   7.479 -0.2130 -0.6371  1.0278
  808MOL0     C11409   3.611   8.353   7.606 -0.3040 -0.2533  0.8816
  808MOL0     C11410   3.553   8.432   7.724 -0.4811 -0.1345  0.5767
  808MOL0    Cl11411   3.637   8.373   7.876  0.0924 -0.0066  0.0352
  808MOL0     C11412   4.109   8.010   6.971 -0.3422  0.5420 -0.3977
  808MOL0     C11413   4.245   8.053   6.937 -0.2168  0.4982 -0.3279
  808MOL0     O11414   4.462   8.306   7.096 -0.4861  0.4212  0.1060
  808MOL0     C11415   4.720   8.129   6.921 -0.5887  0.0997 -0.5273
  808MOL0     C11416   4.861   8.112   6.904 -1.7387  0.3363  0.3262
  808MOL0     N11417   5.410   8.174   6.360 -0.1873  0.8440 -0.3894
  808MOL0     N11418   5.500   8.209   6.283 -0.1448 -1.1772  0.8445
  808MOL0     C11419   5.881   7.707   5.513  0.5365 -0.4077  0.6465
  808MOL0     C11420   5.914   7.595   5.432  0.5180  0.0803 -0.1200
  808MOL0     C11421   6.095   7.332   5.095 -0.5104  0.6172  0.7265
  808MOL0     C11422   6.147   7.230   5.177  0.0083  0.8418  0.2385
  808MOL0     C11423   6.195   7.113   5.118 -0.3139  0.1092  0.3495
  808MOL0     C11424   6.198   7.096   4.980 -0.0855 -0.5753  0.0941
  808MOL0     O11425   6.241   6.985   4.921  0.0908 -0.4270  0.2688
  808MOL0     C11426   6.171   6.870   4.977  0.4602 -0.1160  0.3031
  808MOL0     C11427   6.121   6.806   4.846  1.1108  0.6864 -0.5170
  808MOL0     C11428   6.050   6.674   4.848 -0.4403  0.4384  0.3045
  808MOL0     C11429   5.900   6.692   4.869 -0.9740  1.0014 -0.0787
  808MOL0     C11430   5.821   6.733   4.756  0.3485 -0.7732 -0.5479
  808MOL0     C11431   5.755   6.785   4.665  0.4692  0.3809  0.3309
  808MOL0     C11432   6.159   7.196   4.901 -0.0738 -0.4557  0.4777
  808MOL0     C11433   6.103   7.320   4.959 -0.2805  1.3752 -0.6375
  808MOL0     C11434   6.062   7.433   4.860  0.2014  0.5390  0.4664
  808MOL0     H11435   6.206   7.720   5.310 -0.8821  1.5685 -0.8141
  808MOL0     H11436   6.126   7.917   5.419  1.5486 -0.5844 -1.7800
  808MOL0     H11437   6.106   8.092   5.536 -1.7133  0.8146 -0.2067
  808MOL0     H11438   6.113   8.003   5.689 -0.2210  1.5564  0.5078
  808MOL0     H11439   6.071   8.236   5.677  0.3686  0.3695 -0.8953
  808MOL0     H11440   5.917   8.203   5.596 -0.5620  0.0232 -0.7504
  808MOL0     H11441   5.827   8.089   5.812 -2.4401  2.4377  3.5964
  808MOL0     H11442   5.982   8.100   5.876 -0.4602  0.1299  0.2455
  808MOL0     H11443   5.964   8.352   5.870  0.5323 -0.3931 -0.3054
  808MOL0     H11444   5.808   8.344   5.796  2.8130  3.1110 -1.3961
  808MOL0     H11445   5.885   8.208   6.062  0.7799 -0.6681 -1.0555
  808MOL0     H11446   5.722   8.222   5.991 -1.4191  2.8200 -1.2608
  808MOL0     H11447   5.903   8.466   6.080 -0.3906  0.9438 -2.2279
  808MOL0     H11448   5.750   8.495   6.011 -0.1853 -1.2203 -0.3562
  808MOL0     H11449   5.762   8.481   6.268 -0.1775 -1.0132  0.3103
  808MOL0     H11450   5.753   8.304   6.237  4.7399  0.6965  0.0469
  808MOL0     H11451   5.552   8.525   6.189  2.9434  1.1666 -4.3863
  808MOL0     H11452   5.557   8.389   6.078 -0.7910 -3.4468  0.7780
  808MOL0     H11453   5.369   8.494   6.361  0.5047 -1.2829  1.4437
  808MOL0     H11454   5.121   8.260   6.445  1.3809 -2.0506 -1.9707
  808MOL0     H11455   5.200   8.391   6.533  0.7696 -0.8121 -0.4961
  808MOL0     H11456   5.226   8.073   6.598 -1.5038 -0.3816  1.1310
  808MOL0     H11457   5.345   8.179   6.645  0.8245 -2.5344 -0.3778
  808MOL0     H11458   5.146   8.326   6.759 -1.7973  0.2813 -0.5572
  808MOL0     H11459   5.034   8.210   6.691 -0.1553  0.3741  1.6037
  808MOL0     H11460   5.112   8.031   6.839 -4.7136  0.8393  2.2444
  808MOL0     H11461   5.263   8.119   6.874 -0.7594  3.1854  1.7652
  808MOL0     H11462   4.961   8.388   7.063  1.1962 -0.3461 -1.6839
  808MOL0     H11463   4.771   8.546   7.099  2.5289 -2.2607 -1.2367
  808MOL0     H11464   4.653   8.460   7.191  0.9704  1.6298 -0.3541
  808MOL0     H11465   4.632   8.499   7.015 -3.0987 -3.1402  0.9560
  808MOL0     H11466   4.366   8.095   7.251 -3.8153  0.3298  4.7117
  808MOL0     H11467   4.123   8.019   7.305  1.4356  2.1244  0.6604
  808MOL0     H11468   3.909   8.084   7.277  0.2230 -0.0725  0.1276
  808MOL0     H11469   3.893   8.186   7.127 -2.1474  1.1540  2.4042
  808MOL0     H11470   3.697   8.025   7.068  3.0635 -2.0083 -0.3321
  808MOL0     H11471   3.704   7.968   7.236  0.7572  2.6217  2.0632
  808MOL0     H11472   3.542   8.152   7.190  1.0978 -3.3905 -0.2027
  808MOL0     H11473   3.663   8.254   7.120 -0.7406  0.4539  0.2781
  808MOL0     H11474   3.773   8.271   7.362  0.5970  1.2599  0.4922
  808MOL0     H11475   3.659   8.153   7.421 -4.6301 -1.0431 -1.4135
  808MOL0     H11476   3.584   8.406   7.268 -1.3833 -0.4391 -0.6620
  808MOL0     H11477   3.471   8.300   7.359  0.6816 -0.6908  1.3105
  808MOL0     H11478   3.467   8.465   7.494 -1.0061 -1.9025 -1.1967
  808MOL0     H11479   3.626   8.522   7.453 -2.4030  0.3749 -0.4584
  808MOL0     H11480   3.717   8.345   7.633 -0.7333  1.4320  3.3582
  808MOL0     H11481   3.564   8.255   7.595 -1.8001  0.5818 -0.6972
  808MOL0     H11482   3.445   8.423   7.719 -0.5500  0.3584  1.0383
  808MOL0     H11483   3.572   8.540   7.718 -0.4513 -0.2077 -1.1399
  808MOL0     H11484   4.032   8.025   6.897  2.1527  3.2025 -2.6971
  808MOL0     H11485   4.258   8.055   6.829 -1.5165 -1.5519 -0.5729
  808MOL0     H11486   4.654   8.053   6.881 -3.3010  1.8571  0.3674
  808MOL0     H11487   4.886   8.028   6.839 -1.9464  1.6887 -1.5587
  808MOL0     H11488   5.783   7.696   5.558 -0.1679 -2.0126 -1.1236
  808MOL0     H11489   5.859   7.502   5.423 -2.8338  1.6673  2.1854
  808MOL0     H11490   6.157   7.231   5.285  2.2945 -1.2101  0.1534
  808MOL0     H11491   6.241   7.041   5.185 -1.4335 -2.3420 -1.3859
  808MOL0     H11492   6.231   6.799   5.035  1.6864  1.4517  1.0308
  808MOL0     H11493   6.081   6.885   5.038 -0.7534 -3.4395 -0.4503
  808MOL0     H11494   6.200   6.798   4.770 -1.1777  1.1481 -3.1096
  808MOL0     H11495   6.042   6.874   4.812 -1.1105 -0.9751  1.0364
  808MOL0     H11496   6.063   6.609   4.761 -0.8623 -0.7136  1.0804
  808MOL0     H11497   6.092   6.618   4.932  0.2058 -3.1820 -2.2078
  808MOL0     H11498   5.892   6.756   4.958 -1.1918 -1.0111  1.4242
  808MOL0     H11499   5.850   6.600   4.901 -1.7080  1.5363  0.3460
  808MOL0     H11500   5.716   6.834   4.578  0.0075 -1.5089 -0.5863
  808MOL0     H11501   6.169   7.188   4.793  1.9421 -1.2341  0.6848
  808MOL0     H11502   6.116   7.421   4.766 -0.4525  0.2555  0.1168
  808MOL0     H11503   5.956   7.425   4.835  0.5913  2.7495 -2.4399
  808MOL0     H11504   6.070   7.538   4.891 -0.1501  1.5184 -2.4145
  809MOL0     O11505   6.740   1.441   2.563  0.9297  0.1903 -0.0476
  809MOL0     C11506   6.617   1.428   2.539 -0.4086 -0.7327  0.4024
  809MOL0     O11507   6.555   1.327   2.469  0.5320 -0.4791 -0.8875
  809MOL0     C11508   6.630   1.213   2.434 -0.2398  0.5005 -0.6244
  809MOL0     C11509   6.572   1.089   2.448 -0.1181  0.5151  0.0592
  809MOL0     C11510   6.633   0.969   2.412 -0.4678  0.1191 -0.6115
  809MOL0     C11511   6.769   0.965   2.368 -0.4262 -0.2147 -0.3045
  809MOL0     O11512   6.826   0.843   2.335  0.2719 -0.1656  0.2424
  809MOL0     C11513   6.953   0.805   2.379 -0.6377 -0.2359 -0.1898
  809MOL0     C11514   6.963   0.772   2.528  0.3002  0.2328 -0.1942
  809MOL0     C11515   6.941   0.621   2.563 -0.0282  0.0928 -0.6113
  809MOL0     C11516   6.956   0.618   2.718  0.7534  0.1114 -0.8802
  809MOL0     C11517   6.901   0.492   2.774  0.1877 -0.4378  0.2048
  809MOL0     C11518   6.922   0.468   2.923  0.2813 -0.1381  0.3413
  809MOL0     C11519   6.886   0.323   2.968  0.4351  0.5882 -0.1338
  809MOL0     C11520   6.836   0.313   3.110  0.5419 -1.4668  0.7946
  809MOL0     N11521   6.696   0.331   3.102  0.0216  0.1630  0.1527
  809MOL0     C11522   6.598   0.228   3.073  0.7045 -1.0059 -0.9670
  809MOL0     C11523   6.479   0.289   3.111 -1.7264 -0.5361  0.2966
  809MOL0     C11524   6.336   0.237   3.126  0.3321 -0.4074 -0.6464
  809MOL0     C11525   6.269   0.228   2.994 -0.3794 -0.2482 -0.0724
  809MOL0     C11526   6.119   0.186   3.007  0.1685 -0.1893 -0.6727
  809MOL0     C11527   6.082   0.054   3.064  0.4915 -0.6956 -0.1356
  809MOL0     O11528   5.936   0.046   3.095  0.0806 -0.0837 -0.3880
  809MOL0     C11529   5.886  -0.073   3.151 -1.1048  0.2410 -0.7817
  809MOL0     C11530   5.757  -0.080   3.179  0.7589  1.1167  0.1355
  809MOL0     C11531   5.685  -0.192   3.247 -0.0954  0.7372  0.3211
  809MOL0     C11532   5.538  -0.179   3.253  0.0601 -0.2089 -0.0389
  809MOL0     C11533   5.769  -0.297   3.295  0.1046 -0.2055  0.3787
  809MOL0     C11534   5.721  -0.422   3.365 -0.1010 -0.3855  0.2474
  809MOL0     O11535   5.805  -0.527   3.360  0.0243 -0.5093 -0.7059
  809MOL0     C11536   5.765  -0.643   3.416 -0.0464 -0.9728 -0.8432
  809MOL0     C11537   5.682  -0.727   3.349  0.5537 -1.3380  0.5400
  809MOL0     C11538   5.650  -0.853   3.400  0.2671 -0.3929  0.9012
  809MOL0     C11539   5.683  -0.897   3.534  0.1720 -0.3808 -0.3329
  809MOL0     O11540   5.631  -0.999   3.603  1.1527 -0.2234 -0.0450
  809MOL0     C11541   5.531  -1.087   3.552 -0.1375 -0.2221 -0.0643
  809MOL0     C11542   5.597  -1.229   3.528 -0.4400  0.4331  0.6435
  809MOL0     C11543   5.634  -1.250   3.380  0.1340  0.4246  0.3884
  809MOL0     C11544   5.693  -1.394   3.376 -0.9487  0.2248 -0.8876
  809MOL0     C11545   5.593  -1.508   3.389 -0.2312  0.5496 -0.4013
  809MOL0     C11546   5.671  -1.636   3.365 -0.5710  0.6193  1.1141
  809MOL0     C11547   5.589  -1.769   3.349  0.3718  0.5640  0.0781
  809MOL0     C11548   5.678  -1.884   3.394  0.0769  0.5985 -0.2808
  809MOL0    Cl11549   5.825  -1.910   3.290 -0.1445  0.1466 -0.1759
  809MOL0     C11550   5.763  -0.802   3.597 -0.7568 -0.2199 -0.2647
  809MOL0     C11551   5.805  -0.682   3.542  0.1710 -0.2555 -0.5437
  809MOL0     O11552   5.608  -0.429   3.406 -0.4156  0.1708  0.6893
  809MOL0     C11553   5.906  -0.280   3.277  0.1040 -0.1914 -0.0944
  809MOL0     C11554   5.965  -0.169   3.205  0.0609 -0.0511 -0.3050
  809MOL0     N11555   6.509   0.416   3.148 -1.5440 -0.1023  0.2305
  809MOL0     N11556   6.632   0.439   3.148  0.0405 -0.6503 -0.0398
  809MOL0     C11557   6.827   1.090   2.343  0.6478  0.2185 -0.7455
  809MOL0     C11558   6.758   1.210   2.377 -0.1049  0.6021  1.1261
  809MOL0     C11559   6.536   1.549   2.557 -0.1305  0.0471 -0.8159
  809MOL0     C11560   6.403   1.539   2.512  1.2691 -0.0966  0.1570
  809MOL0     C11561   6.322   1.651   2.516 -0.6337  0.4086  0.4049
  809MOL0     C11562   6.364   1.769   2.569  0.1950 -0.5824  1.0153
  809MOL0     O11563   6.292   1.885   2.562 -0.6503  0.5606 -0.0841
  809MOL0     C11564   6.157   1.887   2.588  0.3431  0.9369  0.5692
  809MOL0     C11565   6.070   1.906   2.462  0.4508  0.2034  0.5861
  809MOL0     C11566   6.121   2.025   2.386  0.8503  0.2767 -0.6915
  809MOL0     C11567   6.029   2.096   2.288 -0.9876  1.2160 -0.6397
  809MOL0     C11568   5.920   2.147   2.360 -0.1448 -0.5379 -0.9278
  809MOL0     C11569   5.815   2.183   2.408 -0.2242 -0.5371 -0.3521
  809MOL0     C11570   6.500   1.789   2.609  0.2377 -0.3136  0.1515
  809MOL0     C11571   6.580   1.676   2.619 -0.1064 -0.7612  0.2231
  809MOL0     C11572   6.712   1.714   2.675  0.4715 -0.4946 -0.7837
  809MOL0     H11573   6.480   1.083   2.505  1.1685 -1.4105  2.1114
  809MOL0     H11574   6.595   0.868   2.426 -0.4311 -0.0246 -1.4732
  809MOL0     H11575   7.033   0.875   2.350  0.8748 -1.9663 -0.3972
  809MOL0     H11576   6.988   0.717   2.324  2.8283  1.3369 -0.7830
  809MOL0     H11577   7.051   0.820   2.572  0.0438  2.4444 -1.9133
  809MOL0     H11578   6.878   0.824   2.574  0.7243 -0.6945  1.7726
  809MOL0     H11579   6.840   0.584   2.542 -0.9623  2.7285 -1.1749
  809MOL0     H11580   7.015   0.554   2.517 -0.6588  0.6753 -2.5927
  809MOL0     H11581   7.061   0.616   2.749 -0.3737  1.3036  3.7979
  809MOL0     H11582   6.912   0.705   2.767  0.4568 -1.0978  1.1347
  809MOL0     H11583   6.953   0.415   2.715 -1.1148 -2.2849  1.3892
  809MOL0     H11584   6.794   0.483   2.755  0.1408 -2.2866  1.1181
  809MOL0     H11585   7.019   0.493   2.966  1.0511 -4.0627  1.2989
  809MOL0     H11586   6.849   0.523   2.983 -2.0101 -2.0824 -0.5126
  809MOL0     H11587   6.979   0.274   2.940  0.5878 -0.2963  1.7846
  809MOL0     H11588   6.808   0.297   2.896  2.1989 -0.8507 -1.6034
  809MOL0     H11589   6.850   0.212   3.149 -2.0135 -1.0259  3.2202
  809MOL0     H11590   6.883   0.381   3.183  0.6158  0.7761 -1.2248
  809MOL0     H11591   6.619   0.125   3.046  0.8872 -1.3346  0.3329
  809MOL0     H11592   6.277   0.310   3.183 -2.1455 -1.5353 -1.6360
  809MOL0     H11593   6.349   0.139   3.172  0.5752 -0.5198 -0.9578
  809MOL0     H11594   6.280   0.328   2.951 -0.2567 -0.2485 -0.0418
  809MOL0     H11595   6.320   0.152   2.935  0.6068 -1.4216  2.1510
  809MOL0     H11596   6.075   0.272   3.058 -0.8480  1.0480 -3.4523
  809MOL0     H11597   6.085   0.190   2.904 -1.6829  1.3201 -0.0673
  809MOL0     H11598   6.107  -0.021   2.988 -1.1111 -3.1445  1.6095
  809MOL0     H11599   6.140   0.024   3.152 -1.4896 -3.0809  0.4605
  809MOL0     H11600   5.696   0.006   3.155 -3.5636 -0.8532  2.7375
  809MOL0     H11601   5.501  -0.282   3.264  3.1351 -1.4075  0.3282
  809MOL0     H11602   5.509  -0.139   3.156 -1.2790 -1.2897 -0.1126
  809MOL0     H11603   5.492  -0.116   3.329 -2.7152 -0.9524 -0.9981
  809MOL0     H11604   5.650  -0.693   3.251 -0.2552 -1.9268  0.5911
  809MOL0     H11605   5.613  -0.931   3.335  1.0532 -1.3486  1.5624
  809MOL0     H11606   5.464  -1.101   3.637  0.1908  1.7205  0.5456
  809MOL0     H11607   5.477  -1.043   3.467  1.8174 -1.3383 -1.9901
  809MOL0     H11608   5.689  -1.244   3.586 -1.3964 -0.0429  2.0823
  809MOL0     H11609   5.523  -1.307   3.545  2.1977 -2.0750  1.3203
  809MOL0     H11610   5.704  -1.172   3.347  0.6123 -0.3332 -0.4563
  809MOL0     H11611   5.551  -1.252   3.309  1.1229 -2.4035 -0.8282
  809MOL0     H11612   5.769  -1.405   3.453 -0.1087 -1.5761 -1.9128
  809MOL0     H11613   5.757  -1.396   3.287  2.2584 -0.5131  1.2701
  809MOL0     H11614   5.535  -1.527   3.479  3.7922 -1.3950  2.0369
  809MOL0     H11615   5.511  -1.491   3.318  1.1090 -1.4498 -2.5607
  809MOL0     H11616   5.741  -1.644   3.449  0.4250  0.1695  0.2595
  809MOL0     H11617   5.741  -1.633   3.282 -0.4382  1.1518  1.2413
  809MOL0     H11618   5.559  -1.781   3.245 -0.9305  1.2175  0.3621
  809MOL0     H11619   5.497  -1.781   3.407  0.6519 -3.7596 -0.0234
  809MOL0     H11620   5.613  -1.972   3.396  0.8705 -0.1284 -2.6157
  809MOL0     H11621   5.716  -1.864   3.494  1.3379  0.1675 -0.6470
  809MOL0     H11622   5.803  -0.822   3.696  4.5653 -2.3714 -2.4537
  809MOL0     H11623   5.879  -0.616   3.587 -0.4338 -1.0701  1.8166
  809MOL0     H11624   5.972  -0.357   3.316 -2.5188 -3.2545 -1.2211
  809MOL0     H11625   6.074  -0.166   3.201  0.1195  0.0030  0.8007
  809MOL0     H11626   6.924   1.102   2.294  0.4796  0.5347 -1.0103
  809MOL0     H11627   6.807   1.302   2.344  0.3814 -0.6773 -2.1598
  809MOL0     H11628   6.363   1.452   2.463  2.1768  0.4908 -1.7345
  809MOL0     H11629   6.227   1.656   2.464  0.2903 -0.6802 -1.4624
  809MOL0     H11630   6.118   1.798   2.638  0.0393  1.2932  0.9798
  809MOL0     H11631   6.123   1.952   2.669  0.4476  1.2806  0.3385
  809MOL0     H11632   5.968   1.918   2.499  0.3113 -0.8576  0.5892
  809MOL0     H11633   6.068   1.817   2.397 -0.7784  1.1167 -0.6922
  809MOL0     H11634   6.148   2.105   2.455  3.5564 -0.1737 -1.1171
  809MOL0     H11635   6.211   1.986   2.337  0.4745 -2.4449  0.5868
  809MOL0     H11636   5.998   2.029   2.208  1.9547 -2.7882  1.2387
  809MOL0     H11637   6.082   2.179   2.240 -0.5590  0.2778 -1.8508
  809MOL0     H11638   5.726   2.215   2.457  1.0583 -1.5427  2.8814
  809MOL0     H11639   6.514   1.884   2.659 -3.5074  1.2728 -1.4080
  809MOL0     H11640   6.764   1.628   2.719  2.6553  0.6158 -1.0355
  809MOL0     H11641   6.766   1.758   2.590 -3.0800 -2.3456 -4.3374
  809MOL0     H11642   6.704   1.795   2.748 -0.7794  0.5911 -2.0572
  810MOL0     O11643   5.216   7.232   8.709 -0.5130  0.5379  0.2039
  810MOL0     C11644   5.232   7.111   8.683 -1.0792 -0.2247 -0.6471
  810MOL0     O11645   5.350   7.031   8.710  0.7832 -0.3873 -0.3888
  810MOL0     C11646   5.450   7.107   8.772  0.3607  0.6689 -0.6582
  810MOL0     C11647   5.460   7.120   8.908 -0.2608 -1.4465  0.3375
  810MOL0     C11648   5.563   7.195   8.982 -0.6519  0.9980 -0.8878
  810MOL0     C11649   5.656   7.261   8.906 -0.0765  0.0070  0.8828
  810MOL0     O11650   5.763   7.332   8.959 -0.6822  1.0316 -0.1178
  810MOL0     C11651   5.729   7.427   9.063 -0.0138 -0.5447  0.5592
  810MOL0     C11652   5.850   7.504   9.120 -0.3847  0.4071  0.0218
  810MOL0     C11653   5.970   7.411   9.142  0.4689 -1.1597  0.4086
  810MOL0     C11654   6.091   7.474   9.209 -0.7701 -0.0149 -0.5444
  810MOL0     C11655   6.165   7.558   9.117 -0.7076 -0.3309 -0.3217
  810MOL0     C11656   6.308   7.590   9.165  0.4758  0.0613 -0.0347
  810MOL0     C11657   6.408   7.611   9.054 -0.3125 -0.0659  0.1470
  810MOL0     C11658   6.393   7.747   8.992 -0.3594  1.2432 -0.1100
  810MOL0     N11659   6.478   7.753   8.866  0.4728 -0.3961  0.0590
  810MOL0     C11660   6.611   7.743   8.853  0.1151  0.1770 -0.5908
  810MOL0     C11661   6.647   7.796   8.731 -0.0695  0.4426 -0.2499
  810MOL0     C11662   6.789   7.821   8.680  0.5418 -0.0732 -1.0138
  810MOL0     C11663   6.851   7.724   8.579  0.0507  0.4378  0.8773
  810MOL0     C11664   6.796   7.748   8.434 -0.2166  0.5961  0.3546
  810MOL0     C11665   6.874   7.659   8.352  0.5767  0.3579 -0.1658
  810MOL0     O11666   6.857   7.679   8.216 -0.1022  0.9766 -0.2564
  810MOL0     C11667   6.946   7.590   8.141 -0.8340  0.0493  0.1818
  810MOL0     C11668   6.957   7.634   8.009 -1.0861  0.6920 -0.4904
  810MOL0     C11669   7.055   7.581   7.919  0.2713 -0.9001 -0.1525
  810MOL0     C11670   7.064   7.641   7.781 -0.5364 -0.0790 -0.2382
  810MOL0     C11671   7.145   7.479   7.971 -0.9599 -1.0198  0.2224
  810MOL0     C11672   7.243   7.426   7.882  0.1587  0.2179  0.4492
  810MOL0     O11673   7.203   7.390   7.752 -0.3475 -0.2203  0.5432
  810MOL0     C11674   7.305   7.359   7.668 -0.1760  1.3488 -0.4584
  810MOL0     C11675   7.393   7.252   7.691  0.9570  0.3176  0.6871
  810MOL0     C11676   7.486   7.213   7.598 -0.0331 -0.0060  0.0636
  810MOL0     C11677   7.502   7.295   7.480  0.3515  0.3327  0.4590
  810MOL0     O11678   7.605   7.266   7.402  0.4713  0.5914  0.1173
  810MOL0     C11679   7.583   7.265   7.257  0.1719 -0.6187  0.4968
  810MOL0     C11680   7.708   7.213   7.176 -0.4817  0.1579 -1.2053
  810MOL0     C11681   7.824   7.313   7.198  0.7059 -0.3766 -1.2674
  810MOL0     C11682   7.928   7.308   7.079 -0.1050 -0.4144 -0.4096
  810MOL0     C11683   8.020   7.181   7.071  0.2517  0.4512 -0.0199
  810MOL0     C11684   8.163   7.224   7.023 -0.5758 -0.5171 -0.5133
  810MOL0     C11685   8.234   7.088   6.981 -0.1475  0.3809  0.1737
  810MOL0     C11686   8.226   7.058   6.833 -0.6971 -0.4039  0.6285
  810MOL0    Cl11687   8.064   7.024   6.755  0.2551 -0.4406  0.1848
  810MOL0     C11688   7.412   7.389   7.450  1.2639 -0.4543 -0.3808
  810MOL0     C11689   7.317   7.424   7.545  0.6722  0.5982  0.1878
  810MOL0     O11690   7.354   7.426   7.926 -0.1899  0.9492  0.1157
  810MOL0     C11691   7.121   7.425   8.102 -0.4954 -0.2413  0.3759
  810MOL0     C11692   7.034   7.489   8.190  0.3173 -0.5365 -0.4267
  810MOL0     N11693   6.524   7.834   8.666  1.0225 -0.7718 -0.1523
  810MOL0     N11694   6.429   7.805   8.755  0.6206 -0.4840  0.7689
  810MOL0     C11695   5.643   7.257   8.762  0.6193 -0.1965 -0.4223
  810MOL0     C11696   5.546   7.179   8.699  0.0347  0.4412  0.3970
  810MOL0     C11697   5.111   7.045   8.623 -0.5282  0.7994 -0.5820
  810MOL0     C11698   4.983   7.070   8.681 -0.6533 -0.3588 -0.5507
  810MOL0     C11699   4.858   7.015   8.635 -0.1145 -0.1166  0.2249
  810MOL0     C11700   4.878   6.912   8.529  0.5142 -1.1817  0.2132
  810MOL0     O11701   4.772   6.839   8.461 -0.9451  0.5916 -0.1609
  810MOL0     C11702   4.640   6.866   8.512 -0.1825 -0.2008 -0.6859
  810MOL0     C11703   4.546   6.772   8.439  0.8879 -0.1703  0.3775
  810MOL0     C11704   4.494   6.818   8.302 -0.1434 -0.6665  0.3161
  810MOL0     C11705   4.394   6.718   8.254  1.1936  0.2033  0.6129
  810MOL0     C11706   4.260   6.724   8.323 -0.4839 -0.9309  0.0620
  810MOL0     C11707   4.153   6.744   8.377 -0.3564  0.8432 -0.3534
  810MOL0     C11708   5.003   6.878   8.487  0.4997  0.1653 -0.7851
  810MOL0     C11709   5.115   6.953   8.514 -0.4571 -0.8315 -0.3638
  810MOL0     C11710   5.249   6.911   8.454  0.1415  0.0964 -0.6947
  810MOL0     H11711   5.387   7.062   8.964  0.2466 -0.9219  1.5833
  810MOL0     H11712   5.568   7.190   9.090  3.7171 -0.0362 -0.9657
  810MOL0     H11713   5.673   7.369   9.138 -1.6865  0.2237 -0.0371
  810MOL0     H11714   5.650   7.499   9.040 -0.7393 -1.5743 -0.2860
  810MOL0     H11715   5.885   7.595   9.070  1.9197  0.4498  1.5710
  810MOL0     H11716   5.801   7.537   9.212 -1.3794 -0.6413 -0.1106
  810MOL0     H11717   5.926   7.332   9.203  1.5418 -1.2893  1.0549
  810MOL0     H11718   6.008   7.381   9.044 -1.9103  0.7839 -1.2298
  810MOL0     H11719   6.054   7.536   9.291 -1.1545 -1.4373  0.3980
  810MOL0     H11720   6.149   7.389   9.245 -0.1477 -0.6777 -2.9549
  810MOL0     H11721   6.109   7.649   9.094 -0.4834  0.6121  2.4289
  810MOL0     H11722   6.182   7.496   9.029  1.1119 -4.0464  2.3627
  810MOL0     H11723   6.302   7.677   9.230 -0.5919  0.5335 -0.7328
  810MOL0     H11724   6.343   7.507   9.227  3.0800  0.5907 -0.6847
  810MOL0     H11725   6.406   7.525   8.986  1.4766 -1.2650  1.5057
  810MOL0     H11726   6.510   7.609   9.094  0.4682 -6.0293 -1.1562
  810MOL0     H11727   6.288   7.759   8.965 -0.6880 -3.7979 -2.1549
  810MOL0     H11728   6.435   7.820   9.061  0.5412 -0.6897  1.4862
  810MOL0     H11729   6.684   7.705   8.924  0.1117 -1.1364 -1.2635
  810MOL0     H11730   6.857   7.822   8.766  0.4156  2.4656 -0.8691
  810MOL0     H11731   6.789   7.925   8.647  0.7923  0.2148 -0.1512
  810MOL0     H11732   6.956   7.753   8.585 -0.0367  1.0736 -0.2203
  810MOL0     H11733   6.842   7.622   8.617 -1.1757  0.1582 -0.0847
  810MOL0     H11734   6.690   7.722   8.431 -0.7892  2.7918 -0.0622
  810MOL0     H11735   6.807   7.853   8.407  0.3998  0.6866  0.9151
  810MOL0     H11736   6.980   7.676   8.375  0.6365 -0.3204  0.0764
  810MOL0     H11737   6.842   7.562   8.391 -1.6893  1.2133  0.2142
  810MOL0     H11738   6.911   7.729   7.988  1.6726  1.5102 -3.6703
  810MOL0     H11739   7.170   7.654   7.758  0.4756 -1.9496  2.6944
  810MOL0     H11740   7.018   7.739   7.763 -1.2376 -0.5345 -0.9807
  810MOL0     H11741   7.015   7.567   7.717 -0.5327 -2.1053  1.9246
  810MOL0     H11742   7.399   7.186   7.777 -0.6216 -0.7546  0.0078
  810MOL0     H11743   7.556   7.133   7.619  1.6345  0.7936 -2.0714
  810MOL0     H11744   7.496   7.203   7.235 -0.3097 -0.0414  0.7533
  810MOL0     H11745   7.559   7.363   7.217 -0.5947 -0.3964  1.4635
  810MOL0     H11746   7.750   7.118   7.209  1.0594  1.6130  1.3388
  810MOL0     H11747   7.686   7.202   7.070 -2.6252 -0.4006 -0.7507
  810MOL0     H11748   7.867   7.295   7.297 -0.3910 -1.5923 -0.9719
  810MOL0     H11749   7.778   7.412   7.193  1.1037 -0.1863 -6.4983
  810MOL0     H11750   7.993   7.395   7.090  1.2120 -1.3157 -0.8375
  810MOL0     H11751   7.865   7.317   6.991  0.1047 -1.9680 -0.7495
  810MOL0     H11752   8.023   7.132   7.169  0.6357  0.0166 -0.2451
  810MOL0     H11753   7.969   7.115   7.000  0.8057 -0.9842  0.8588
  810MOL0     H11754   8.224   7.270   7.102 -3.5742  1.9762  0.5764
  810MOL0     H11755   8.165   7.294   6.939 -1.2976  0.6179  0.3740
  810MOL0     H11756   8.189   7.003   7.033  0.6029  0.7740  1.4971
  810MOL0     H11757   8.340   7.086   7.007  0.1580 -1.5344 -0.9697
  810MOL0     H11758   8.295   6.977   6.806  1.5462  0.8443  2.2125
  810MOL0     H11759   8.270   7.144   6.782 -0.8094  0.8237  2.5083
  810MOL0     H11760   7.402   7.423   7.347 -0.2918 -1.7326 -0.7005
  810MOL0     H11761   7.247   7.506   7.530 -2.0274 -1.9052 -2.1557
  810MOL0     H11762   7.177   7.343   8.146 -0.0167  0.6267  1.4406
  810MOL0     H11763   7.029   7.442   8.288 -1.1946 -0.6809 -0.5454
  810MOL0     H11764   5.719   7.310   8.706  2.2744  0.2040  2.0842
  810MOL0     H11765   5.534   7.172   8.591 -0.1500  0.8591  0.3872
  810MOL0     H11766   4.986   7.146   8.758  0.8234  1.4729 -2.3036
  810MOL0     H11767   4.757   7.042   8.663 -1.0103 -0.4260 -2.4080
  810MOL0     H11768   4.636   6.870   8.621  0.0476 -0.6476 -0.6584
  810MOL0     H11769   4.612   6.966   8.477  1.4182 -0.2305 -2.2377
  810MOL0     H11770   4.457   6.745   8.498  1.1553 -1.6967  0.0997
  810MOL0     H11771   4.597   6.676   8.430 -0.7851 -0.9543 -1.3680
  810MOL0     H11772   4.461   6.921   8.284 -1.8613 -1.6555 -2.9795
  810MOL0     H11773   4.580   6.794   8.238 -0.8459 -3.5681  0.3406
  810MOL0     H11774   4.431   6.615   8.257  1.0674 -0.0257 -2.6773
  810MOL0     H11775   4.376   6.738   8.148 -1.0813  0.0162  0.9090
  810MOL0     H11776   4.059   6.745   8.427  2.0689  1.1655  4.7955
  810MOL0     H11777   5.005   6.799   8.412 -3.4370 -1.3360  0.4255
  810MOL0     H11778   5.228   6.842   8.372 -0.7620 -1.0400  0.4431
  810MOL0     H11779   5.303   6.998   8.416  0.0175 -1.1058 -3.8797
  810MOL0     H11780   5.309   6.865   8.533 -0.0151  0.2033 -0.5121
  811MOL0     O11781   1.951   2.015   1.117  1.3681 -0.2448 -0.5211
  811MOL0     C11782   2.023   2.003   1.216  0.1919  0.7591 -0.8738
  811MOL0     O11783   2.152   1.984   1.220  0.4161 -0.1685  0.6174
  811MOL0     C11784   2.231   1.979   1.105 -0.7275 -0.3685 -0.2127
  811MOL0     C11785   2.351   1.919   1.112 -0.9106 -0.0112  0.3157
  811MOL0     C11786   2.454   1.921   1.018  0.2038 -0.7889  0.0316
  811MOL0     C11787   2.426   1.992   0.907 -0.1355 -0.2127 -0.5255
  811MOL0     O11788   2.532   1.987   0.814  0.2935  0.3216 -0.6719
  811MOL0     C11789   2.555   2.113   0.752 -0.2256 -0.9680  0.0182
  811MOL0     C11790   2.700   2.132   0.704  0.0316 -0.6557  0.5769
  811MOL0     C11791   2.802   2.132   0.817 -0.0224 -1.7649 -0.5477
  811MOL0     C11792   2.843   2.003   0.881 -0.8414 -0.1779  0.2396
  811MOL0     C11793   2.932   2.013   1.004  0.3901 -0.0413 -0.7097
  811MOL0     C11794   2.972   1.875   1.071  0.6600 -0.0081 -0.6307
  811MOL0     C11795   3.050   1.878   1.204 -1.1156 -0.0453  0.4073
  811MOL0     C11796   3.195   1.931   1.171 -0.9060  0.6772  0.2806
  811MOL0     N11797   3.296   1.877   1.271  0.4989  0.1109 -0.2931
  811MOL0     C11798   3.378   1.768   1.247 -0.6819 -0.2364 -0.3869
  811MOL0     C11799   3.442   1.739   1.366  1.0119  0.7420  0.2398
  811MOL0     C11800   3.557   1.643   1.383  0.2109 -0.6324  0.0831
  811MOL0     C11801   3.515   1.517   1.458  0.9078 -0.3746 -0.0697
  811MOL0     C11802   3.641   1.426   1.472 -0.5746  0.0975 -0.8738
  811MOL0     C11803   3.610   1.334   1.582  0.0521 -0.0644 -0.4459
  811MOL0     O11804   3.708   1.234   1.581  0.2306  0.7425  0.1810
  811MOL0     C11805   3.697   1.121   1.662 -0.8307  0.8275 -0.6691
  811MOL0     C11806   3.639   1.101   1.791 -0.0543  0.1035  0.1796
  811MOL0     C11807   3.632   0.975   1.853 -0.5262  0.4157  0.3194
  811MOL0     C11808   3.549   0.970   1.979 -0.2005  1.2710  0.3996
  811MOL0     C11809   3.684   0.860   1.786 -0.7540 -0.5841 -0.3994
  811MOL0     C11810   3.692   0.725   1.846  1.1851 -0.5837  0.8844
  811MOL0     O11811   3.590   0.695   1.934 -0.0745 -0.1444 -0.1582
  811MOL0     C11812   3.574   0.569   1.993 -0.1374  0.4352  0.0594
  811MOL0     C11813   3.680   0.478   2.037 -0.6844 -0.1869 -0.0373
  811MOL0     C11814   3.648   0.346   2.087  0.0572 -0.3904 -0.0172
  811MOL0     C11815   3.511   0.311   2.102  0.8621 -0.5400  0.0103
  811MOL0     O11816   3.476   0.196   2.159 -0.3059  0.6933 -0.0881
  811MOL0     C11817   3.465   0.089   2.059 -0.7391 -0.6130 -0.1724
  811MOL0     C11818   3.506  -0.052   2.106 -0.0216 -0.7376 -0.3940
  811MOL0     C11819   3.649  -0.045   2.162  0.0770 -1.6787 -0.7564
  811MOL0     C11820   3.675  -0.159   2.259 -0.3608 -0.2140 -0.2994
  811MOL0     C11821   3.806  -0.141   2.330  0.6849 -0.1026 -0.3470
  811MOL0     C11822   3.833  -0.249   2.431  1.1527 -0.4060  0.2645
  811MOL0     C11823   3.898  -0.388   2.378  0.6543  0.0381 -0.4194
  811MOL0     C11824   3.933  -0.476   2.494  0.2447  0.4744  0.5305
  811MOL0    Cl11825   4.067  -0.429   2.599 -0.1530  0.3538 -0.1747
  811MOL0     C11826   3.408   0.400   2.065  0.8470 -0.7132 -0.4453
  811MOL0     C11827   3.434   0.526   2.010  0.4562  0.7885  1.0622
  811MOL0     O11828   3.786   0.642   1.826  0.0148  0.2179  0.3902
  811MOL0     C11829   3.753   0.881   1.666  0.4818 -0.1811 -0.0899
  811MOL0     C11830   3.758   1.006   1.608 -0.1342 -0.5104 -0.4296
  811MOL0     N11831   3.395   1.817   1.469  0.2028 -0.1447  0.8970
  811MOL0     N11832   3.305   1.900   1.407  0.2985  0.6590  0.1302
  811MOL0     C11833   2.304   2.062   0.887 -0.0633  1.1641 -0.8152
  811MOL0     C11834   2.212   2.061   0.997  0.8044 -0.3993 -0.6565
  811MOL0     C11835   1.962   2.018   1.349 -0.6883  0.0007  1.1282
  811MOL0     C11836   1.832   2.071   1.351  0.5642 -1.2685  0.9635
  811MOL0     C11837   1.765   2.093   1.475 -0.4144 -0.4453 -1.3318
  811MOL0     C11838   1.817   2.048   1.598  0.0959  0.6799 -0.2609
  811MOL0     O11839   1.773   2.070   1.730  0.0625 -0.2987  0.4698
  811MOL0     C11840   1.640   2.140   1.752 -0.1985  0.6847 -0.3529
  811MOL0     C11841   1.634   2.156   1.901 -0.3917  0.1654  0.3096
  811MOL0     C11842   1.527   2.252   1.962 -0.2965 -0.1292  0.1610
  811MOL0     C11843   1.492   2.211   2.111  0.8031 -0.0249  0.2438
  811MOL0     C11844   1.608   2.239   2.196  0.2144  0.0886  0.2908
  811MOL0     C11845   1.705   2.270   2.266  0.1677 -1.1248  0.2957
  811MOL0     C11846   1.941   1.982   1.585  0.1019  0.5890 -0.3342
  811MOL0     C11847   2.019   1.967   1.467 -0.3233  0.1009  0.3917
  811MOL0     C11848   2.153   1.898   1.486  0.9147 -0.5716 -0.2804
  811MOL0     H11849   2.377   1.856   1.196 -0.6579 -0.8540 -0.3752
  811MOL0     H11850   2.547   1.865   1.025 -0.1448 -1.6565 -1.6400
  811MOL0     H11851   2.529   2.203   0.809  3.4874 -0.9384  1.9619
  811MOL0     H11852   2.502   2.113   0.656 -0.4438 -4.2624  0.0498
  811MOL0     H11853   2.713   2.047   0.636 -1.6039  0.7971 -1.6970
  811MOL0     H11854   2.718   2.218   0.638 -1.2508 -0.1700  0.8321
  811MOL0     H11855   2.887   2.188   0.775 -0.9807  0.9402  0.9186
  811MOL0     H11856   2.752   2.194   0.892  1.8545  1.7131 -1.9180
  811MOL0     H11857   2.755   1.942   0.904 -0.9518 -0.7343 -1.5335
  811MOL0     H11858   2.898   1.937   0.814  1.2609 -0.3316  1.9778
  811MOL0     H11859   2.868   2.067   1.075 -0.4389 -0.8160 -0.8529
  811MOL0     H11860   3.021   2.072   0.979  1.7292 -1.2761  0.9077
  811MOL0     H11861   2.872   1.835   1.088  0.5990  0.8129  1.1668
  811MOL0     H11862   3.026   1.811   1.000  1.5232 -2.1365  1.8097
  811MOL0     H11863   3.061   1.776   1.243 -0.4342  0.1526  0.7251
  811MOL0     H11864   3.001   1.949   1.271 -0.6736  2.0770 -1.4069
  811MOL0     H11865   3.221   1.905   1.068  0.2496 -1.6379  1.0845
  811MOL0     H11866   3.194   2.040   1.173 -1.7032  0.6668  0.7091
  811MOL0     H11867   3.389   1.708   1.158  1.7253  0.9107 -0.9461
  811MOL0     H11868   3.644   1.688   1.432  1.9369  1.4178 -4.2666
  811MOL0     H11869   3.591   1.618   1.282  2.8955  4.6096 -0.6744
  811MOL0     H11870   3.485   1.547   1.558  0.8171  1.0936 -0.5077
  811MOL0     H11871   3.434   1.460   1.411 -0.0335  1.1820 -0.4019
  811MOL0     H11872   3.663   1.368   1.381 -4.1071 -2.1711 -0.4944
  811MOL0     H11873   3.725   1.490   1.498 -0.6494  0.8718 -2.3890
  811MOL0     H11874   3.615   1.388   1.677 -0.0249 -4.1107  2.1167
  811MOL0     H11875   3.514   1.283   1.568 -0.3087  0.3628  0.3898
  811MOL0     H11876   3.594   1.188   1.839  1.4437  1.5757 -0.9537
  811MOL0     H11877   3.594   0.903   2.052 -1.3464  1.3802  1.2482
  811MOL0     H11878   3.443   0.951   1.958  0.2679 -1.1842  0.0441
  811MOL0     H11879   3.565   1.069   2.023  0.7867  0.1425  2.7352
  811MOL0     H11880   3.782   0.513   2.019 -0.5673 -1.3287 -1.7633
  811MOL0     H11881   3.721   0.276   2.127  0.1684 -1.4218 -1.9181
  811MOL0     H11882   3.362   0.077   2.023 -0.0452 -1.6928 -1.9329
  811MOL0     H11883   3.520   0.120   1.970 -1.0434 -1.7032 -0.7619
  811MOL0     H11884   3.439  -0.090   2.184 -0.0611 -1.3723 -0.7332
  811MOL0     H11885   3.497  -0.127   2.027 -0.2160 -3.2137  1.8691
  811MOL0     H11886   3.662   0.042   2.226 -0.8263 -0.9420 -1.5378
  811MOL0     H11887   3.715  -0.042   2.075  1.8619 -0.3642  0.5844
  811MOL0     H11888   3.684  -0.244   2.191 -3.1590  1.0278 -2.3951
  811MOL0     H11889   3.594  -0.185   2.327 -2.4781  1.2991 -2.1207
  811MOL0     H11890   3.887  -0.137   2.257  0.1407  1.3952 -0.8940
  811MOL0     H11891   3.801  -0.048   2.387 -1.8703 -1.6461  2.2380
  811MOL0     H11892   3.740  -0.278   2.481  0.1398  0.2174 -1.1699
  811MOL0     H11893   3.899  -0.210   2.508  0.8497  0.6008  0.0306
  811MOL0     H11894   3.986  -0.368   2.317  1.7191  0.0442  1.0669
  811MOL0     H11895   3.829  -0.434   2.306  0.5346 -0.6668  0.1339
  811MOL0     H11896   3.960  -0.575   2.457 -0.9707 -1.0194  3.2863
  811MOL0     H11897   3.845  -0.491   2.558  0.2665  0.1806  0.4910
  811MOL0     H11898   3.308   0.371   2.094  0.4196  0.7808 -0.3165
  811MOL0     H11899   3.345   0.579   1.978 -0.3748 -0.7582  0.7305
  811MOL0     H11900   3.795   0.798   1.609  2.0984  0.8390 -0.4474
  811MOL0     H11901   3.798   1.013   1.508  1.4380 -1.3423  0.1045
  811MOL0     H11902   2.286   2.112   0.792  1.1177  3.2317 -0.0123
  811MOL0     H11903   2.127   2.129   0.993  2.3741  1.5923 -2.1859
  811MOL0     H11904   1.790   2.107   1.258  3.4563  2.8501  0.9953
  811MOL0     H11905   1.678   2.157   1.484  0.9300  1.3317  0.0606
  811MOL0     H11906   1.626   2.233   1.697  0.1699  1.3654  0.6667
  811MOL0     H11907   1.549   2.086   1.724  0.3400 -1.4896  1.7222
  811MOL0     H11908   1.730   2.202   1.925  0.1225 -0.1244 -1.0856
  811MOL0     H11909   1.635   2.054   1.942  4.9962 -0.2733 -0.1549
  811MOL0     H11910   1.575   2.350   1.969 -1.8962  0.5943  1.2819
  811MOL0     H11911   1.444   2.258   1.891  0.4021  0.0517 -0.6673
  811MOL0     H11912   1.450   2.110   2.120 -1.4310  0.8276 -0.1016
  811MOL0     H11913   1.411   2.276   2.144  0.0226 -1.9223  2.3465
  811MOL0     H11914   1.800   2.287   2.311  0.7590 -0.1514 -1.2264
  811MOL0     H11915   1.977   1.936   1.677  2.0790 -0.1126 -1.3846
  811MOL0     H11916   2.165   1.814   1.417  0.2166 -2.2373  1.5341
  811MOL0     H11917   2.236   1.969   1.477  1.2138 -0.9039 -0.1930
  811MOL0     H11918   2.162   1.847   1.582  2.1608  3.5035  2.0129
  812MOL0     O11919   7.380   2.265   8.346  0.7978  0.2157 -0.7517
  812MOL0     C11920   7.494   2.236   8.378 -0.8806  0.4415 -0.3112
  812MOL0     O11921   7.566   2.311   8.469  0.6655 -0.0584  0.7062
  812MOL0     C11922   7.533   2.343   8.595  0.3976  0.3819  0.3745
  812MOL0     C11923   7.458   2.264   8.681  0.4156 -0.1828 -0.4055
  812MOL0     C11924   7.417   2.308   8.806  0.1279  0.1437  0.3446
  812MOL0     C11925   7.437   2.438   8.840 -0.0185 -0.0368 -0.0766
  812MOL0     O11926   7.421   2.477   8.971  0.1561 -0.7123 -0.0685
  812MOL0     C11927   7.372   2.608   9.005 -0.0843 -0.9516 -0.2542
  812MOL0     C11928   7.344   2.613   9.153 -0.5876  0.1726 -0.4985
  812MOL0     C11929   7.231   2.708   9.193 -0.3638  0.2765  0.7849
  812MOL0     C11930   7.281   2.858   9.199  0.0766 -1.0860  1.0863
  812MOL0     C11931   7.170   2.950   9.227 -0.2036  0.2009 -0.7471
  812MOL0     C11932   7.068   2.951   9.100 -1.0330  0.6165  0.4555
  812MOL0     C11933   6.997   3.078   9.090 -0.3390 -1.0724 -0.2036
  812MOL0     C11934   6.881   3.079   8.994 -0.0137 -0.3584 -0.3813
  812MOL0     N11935   6.761   3.163   9.036  0.4088 -1.0307 -0.0422
  812MOL0     C11936   6.636   3.135   9.019  0.1882  0.0147  1.6570
  812MOL0     C11937   6.568   3.250   9.044  0.0732  0.9358  0.2865
  812MOL0     C11938   6.422   3.272   9.017  0.1518 -0.1458 -0.1905
  812MOL0     C11939   6.383   3.249   8.877 -0.2826 -0.6384 -0.1540
  812MOL0     C11940   6.432   3.357   8.779 -0.0247  0.3572  0.0199
  812MOL0     C11941   6.361   3.491   8.788 -0.8834 -0.4471  0.2609
  812MOL0     O11942   6.321   3.527   8.656  0.4703 -0.2029  0.8483
  812MOL0     C11943   6.295   3.663   8.629  0.9433  0.2785 -0.8423
  812MOL0     C11944   6.167   3.709   8.633  0.5418 -0.3212  0.8273
  812MOL0     C11945   6.129   3.835   8.580  0.1830 -0.2367 -0.9534
  812MOL0     C11946   5.979   3.890   8.597  0.8659  0.5792 -0.5720
  812MOL0     C11947   6.232   3.923   8.545 -0.3859  0.2840 -0.8982
  812MOL0     C11948   6.214   4.062   8.511 -0.6824 -0.7061  0.1107
  812MOL0     O11949   6.288   4.106   8.404  0.2043  1.0166 -0.6272
  812MOL0     C11950   6.257   4.223   8.338  0.5736 -0.6710 -0.0243
  812MOL0     C11951   6.247   4.234   8.202 -0.3744  0.6708 -0.1578
  812MOL0     C11952   6.250   4.354   8.135  0.0807  0.0231  0.6614
  812MOL0     C11953   6.254   4.474   8.207  0.5731 -0.0219 -0.2818
  812MOL0     O11954   6.238   4.591   8.137 -0.1922 -0.2190 -0.3061
  812MOL0     C11955   6.213   4.714   8.213 -0.8495 -0.3844  0.2669
  812MOL0     C11956   6.187   4.824   8.122  0.4056 -0.4700  0.8300
  812MOL0     C11957   6.291   4.828   8.006 -0.4801 -0.1652 -0.9972
  812MOL0     C11958   6.432   4.862   8.051  0.4381  0.4386 -0.4095
  812MOL0     C11959   6.526   4.844   7.937 -0.1396  0.0432 -0.1845
  812MOL0     C11960   6.535   4.702   7.879 -0.1200 -0.4625 -0.5381
  812MOL0     C11961   6.673   4.681   7.797  0.0489 -0.3706 -0.2355
  812MOL0     C11962   6.689   4.527   7.803  0.2340 -0.5294  0.5448
  812MOL0    Cl11963   6.791   4.476   7.676  0.5268 -0.3249 -0.5586
  812MOL0     C11964   6.258   4.470   8.347  0.2078  0.3711 -0.3808
  812MOL0     C11965   6.273   4.343   8.403  0.2418 -0.7144 -0.4783
  812MOL0     O11966   6.170   4.131   8.599  1.0286  0.4876 -0.8726
  812MOL0     C11967   6.365   3.879   8.543 -0.3134  0.0405  0.1572
  812MOL0     C11968   6.395   3.745   8.581  0.0383 -1.0285  0.4277
  812MOL0     N11969   6.656   3.347   9.081 -1.0077 -0.5516 -0.6444
  812MOL0     N11970   6.771   3.292   9.090 -0.9206 -1.1980  0.7415
  812MOL0     C11971   7.505   2.528   8.761 -0.6714  0.2083 -0.2517
  812MOL0     C11972   7.559   2.474   8.638 -0.5026 -0.6415  0.1710
  812MOL0     C11973   7.571   2.135   8.311 -0.0657  0.8871  0.4633
  812MOL0     C11974   7.706   2.120   8.332  0.5377 -0.4719 -0.9346
  812MOL0     C11975   7.786   2.005   8.302  0.1380 -0.3940  0.6684
  812MOL0     C11976   7.733   1.907   8.228 -0.0549  0.2083  1.0805
  812MOL0     O11977   7.797   1.801   8.179 -0.4987 -0.2430 -0.2921
  812MOL0     C11978   7.938   1.801   8.210  0.0895 -0.0424 -1.2558
  812MOL0     C11979   7.996   1.683   8.145 -0.1399 -0.2223 -0.2664
  812MOL0     C11980   8.154   1.661   8.141  0.6641  0.7312  0.6254
  812MOL0     C11981   8.238   1.775   8.091 -0.2977 -0.5523  1.1379
  812MOL0     C11982   8.198   1.816   7.955 -0.6233  0.3748  0.3677
  812MOL0     C11983   8.182   1.854   7.841  0.1408 -0.0018 -0.4656
  812MOL0     C11984   7.600   1.925   8.180 -0.0716 -0.0298  0.4662
  812MOL0     C11985   7.516   2.031   8.229  0.3493  0.3482  0.3233
  812MOL0     C11986   7.369   2.016   8.209  0.0442 -0.4766 -0.2957
  812MOL0     H11987   7.428   2.163   8.654  1.4598  0.0044 -2.4533
  812MOL0     H11988   7.368   2.237   8.873 -0.5307 -2.6778 -2.8440
  812MOL0     H11989   7.280   2.612   8.945  0.5143 -3.2673 -1.4501
  812MOL0     H11990   7.442   2.689   8.987 -1.6468  0.9150  1.6242
  812MOL0     H11991   7.331   2.510   9.186 -0.5133  0.3678  0.1666
  812MOL0     H11992   7.431   2.647   9.210 -0.9210  1.0733 -0.4967
  812MOL0     H11993   7.154   2.682   9.120  3.2580 -2.6045 -2.4531
  812MOL0     H11994   7.193   2.673   9.289 -1.5335 -1.6183 -0.3134
  812MOL0     H11995   7.358   2.886   9.271 -0.3115  2.1960  0.3755
  812MOL0     H11996   7.328   2.872   9.101  0.0145  1.8592  1.3926
  812MOL0     H11997   7.212   3.051   9.228 -0.8718  0.4928 -0.9611
  812MOL0     H11998   7.131   2.929   9.327 -1.0305 -1.8466 -1.4482
  812MOL0     H11999   7.128   2.929   9.011 -3.7784 -2.5429 -0.8077
  812MOL0     H12000   6.992   2.873   9.099 -1.3064  0.8158 -2.3204
  812MOL0     H12001   7.066   3.158   9.063  0.5785 -2.4844 -2.1962
  812MOL0     H12002   6.957   3.101   9.190  0.3732  0.6312 -0.2703
  812MOL0     H12003   6.905   3.115   8.894  0.8506 -3.1807 -1.2694
  812MOL0     H12004   6.847   2.977   8.973  1.5111 -0.5529 -2.1921
  812MOL0     H12005   6.598   3.038   8.988  0.5979  0.4437 -0.3651
  812MOL0     H12006   6.400   3.375   9.047  1.6873  0.5333 -1.2797
  812MOL0     H12007   6.362   3.204   9.079 -2.1004 -0.5822 -2.6897
  812MOL0     H12008   6.430   3.155   8.849  2.9658  0.6343  0.5966
  812MOL0     H12009   6.273   3.246   8.877 -0.4703 -1.7430  4.5973
  812MOL0     H12010   6.541   3.369   8.778 -0.2701  4.3130 -3.1125
  812MOL0     H12011   6.411   3.313   8.681  1.9882  0.0016 -0.2947
  812MOL0     H12012   6.286   3.499   8.867  0.1529 -0.0226  1.2281
  812MOL0     H12013   6.432   3.562   8.830 -1.9683  1.1230 -0.4348
  812MOL0     H12014   6.076   3.651   8.640 -0.0446  0.3805 -0.5412
  812MOL0     H12015   5.959   3.984   8.545  2.5828 -0.5426 -3.5171
  812MOL0     H12016   5.951   3.895   8.703 -0.4684  0.2298 -0.8880
  812MOL0     H12017   5.916   3.817   8.545 -2.1080  1.0119  2.1207
  812MOL0     H12018   6.215   4.137   8.164 -1.2802  1.4016 -1.3490
  812MOL0     H12019   6.246   4.354   8.027 -1.3257  0.1521  0.6920
  812MOL0     H12020   6.128   4.715   8.282 -1.9255  0.4195 -1.0224
  812MOL0     H12021   6.301   4.741   8.274  1.1026 -2.7862 -1.2944
  812MOL0     H12022   6.088   4.816   8.077  0.5501 -1.2279  0.6450
  812MOL0     H12023   6.193   4.922   8.172 -1.3664  0.7174 -1.1270
  812MOL0     H12024   6.248   4.906   7.942 -1.7808  1.7875  2.0065
  812MOL0     H12025   6.283   4.731   7.955 -3.4844 -1.1989  1.1764
  812MOL0     H12026   6.473   4.797   8.130 -0.9185 -0.5936 -0.5294
  812MOL0     H12027   6.422   4.961   8.096  2.4898 -0.0825  1.4160
  812MOL0     H12028   6.506   4.921   7.862  1.3344  0.7609  0.1083
  812MOL0     H12029   6.622   4.871   7.983 -1.1674  1.8065  1.0584
  812MOL0     H12030   6.451   4.675   7.815 -0.0497 -0.4902 -0.6191
  812MOL0     H12031   6.528   4.630   7.961  2.8249  0.1322  0.3694
  812MOL0     H12032   6.743   4.738   7.858 -1.3166  1.2252 -0.1024
  812MOL0     H12033   6.664   4.731   7.700  0.0689 -0.2950 -0.1985
  812MOL0     H12034   6.597   4.469   7.791  0.5361 -1.3388  1.8760
  812MOL0     H12035   6.740   4.498   7.896  0.8642 -0.9253  0.0841
  812MOL0     H12036   6.269   4.555   8.415  1.4354 -2.8461  3.8944
  812MOL0     H12037   6.290   4.338   8.510  0.8267 -1.3118 -0.5849
  812MOL0     H12038   6.447   3.944   8.516 -0.3052 -1.1316 -3.1392
  812MOL0     H12039   6.495   3.702   8.574 -0.2595 -1.4393 -1.9955
  812MOL0     H12040   7.532   2.628   8.795  3.7074 -1.4527  1.9017
  812MOL0     H12041   7.611   2.533   8.564 -2.7533 -1.5939 -2.3123
  812MOL0     H12042   7.760   2.198   8.385 -2.1767 -0.3442  1.9588
  812MOL0     H12043   7.887   2.016   8.340 -0.4793 -1.6461  2.8307
  812MOL0     H12044   7.973   1.897   8.171  2.1880 -0.3204 -0.1764
  812MOL0     H12045   7.943   1.784   8.318 -0.1937 -0.6446 -1.3365
  812MOL0     H12046   7.956   1.680   8.043 -1.7834  2.3900  0.1888
  812MOL0     H12047   7.960   1.604   8.211  2.6117  0.2081  1.9768
  812MOL0     H12048   8.182   1.657   8.247 -0.6552 -2.6049  0.9428
  812MOL0     H12049   8.190   1.570   8.093  0.5541  0.7244  0.5571
  812MOL0     H12050   8.346   1.756   8.096  0.0448  0.3930 -1.2385
  812MOL0     H12051   8.237   1.859   8.161  1.8497  1.1327 -0.6872
  812MOL0     H12052   8.164   1.903   7.747 -2.8380 -1.3548 -0.7258
  812MOL0     H12053   7.538   1.857   8.121 -1.7731  1.8939 -0.0650
  812MOL0     H12054   7.321   1.981   8.301 -0.0601  0.1540 -0.1026
  812MOL0     H12055   7.320   2.104   8.165  0.7006  0.4750  0.7990
  812MOL0     H12056   7.339   1.938   8.139 -0.7029 -0.4409 -0.0348
  813MOL0     O12057   9.943  11.512   4.754 -0.5030  0.0701 -0.1014
  813MOL0     C12058   9.832  11.556   4.748 -0.2564 -0.7574  0.0567
  813MOL0     O12059   9.783  11.665   4.822  0.4176 -0.4972 -0.2885
  813MOL0     C12060   9.865  11.726   4.919  0.1413  0.9850 -0.2941
  813MOL0     C12061   9.989  11.764   4.892 -1.0845  0.0393 -0.2081
  813MOL0     C12062  10.062  11.830   4.996 -0.4816  0.0352  0.4904
  813MOL0     C12063  10.011  11.839   5.120 -0.4495 -0.4550 -0.7203
  813MOL0     O12064  10.092  11.883   5.226 -0.4451  0.3393  0.9780
  813MOL0     C12065  10.238  11.892   5.205 -0.2338  0.2984  0.1565
  813MOL0     C12066  10.305  11.910   5.341 -0.9220 -0.4151 -0.4112
  813MOL0     C12067  10.293  11.788   5.430 -0.8007  0.3598 -0.9574
  813MOL0     C12068  10.368  11.666   5.384 -0.3037  0.0539 -0.7334
  813MOL0     C12069  10.357  11.546   5.480 -0.5314 -0.6809  0.5860
  813MOL0     C12070  10.461  11.444   5.458 -0.1584  0.4728 -0.6493
  813MOL0     C12071  10.453  11.318   5.555 -0.0999  0.0735 -0.8152
  813MOL0     C12072  10.521  11.188   5.508 -0.8400 -0.0799 -0.8310
  813MOL0     N12073  10.651  11.176   5.578  0.0987 -0.5323  0.0302
  813MOL0     C12074  10.752  11.248   5.543 -0.3242  0.9798  1.3378
  813MOL0     C12075  10.850  11.202   5.613  0.1650  0.5106 -0.8403
  813MOL0     C12076  10.990  11.263   5.606 -0.6957  0.9098 -0.3528
  813MOL0     C12077  11.007  11.387   5.697 -0.2856  0.1658 -0.2871
  813MOL0     C12078  11.153  11.434   5.703 -0.0724  0.3379  0.4743
  813MOL0     C12079  11.188  11.502   5.566  0.1446  0.1436  0.7100
  813MOL0     O12080  11.321  11.566   5.587 -0.3725 -0.4971 -0.4656
  813MOL0     C12081  11.386  11.636   5.486 -1.0831 -0.2449  0.3909
  813MOL0     C12082  11.507  11.703   5.498 -0.3647  0.5851 -0.3782
  813MOL0     C12083  11.571  11.769   5.394 -0.1393 -0.4554  0.2368
  813MOL0     C12084  11.711  11.824   5.415  1.6106  0.6920 -1.0093
  813MOL0     C12085  11.507  11.787   5.272  0.5830 -0.2791  0.5655
  813MOL0     C12086  11.577  11.833   5.146 -0.1679  0.0067 -1.2222
  813MOL0     O12087  11.712  11.867   5.145 -0.2443 -0.0277  0.4283
  813MOL0     C12088  11.794  11.892   5.030  0.4594  0.4464 -1.6025
  813MOL0     C12089  11.741  11.890   4.899  0.5389 -0.4393 -0.3660
  813MOL0     C12090  11.823  11.926   4.795  0.2239  0.5902  0.6457
  813MOL0     C12091  11.962  11.958   4.816  0.5875 -0.7684  0.0804
  813MOL0     O12092  12.038  12.004   4.715 -0.4947 -0.8924  0.3142
  813MOL0     C12093  12.008  11.964   4.577 -0.2712 -0.1453  0.6913
  813MOL0     C12094  12.115  12.002   4.485  0.1503 -0.6772  0.6187
  813MOL0     C12095  12.138  11.906   4.364  0.3858 -0.4982 -1.0078
  813MOL0     C12096  12.197  11.980   4.246  0.0190  0.3185 -0.9481
  813MOL0     C12097  12.246  11.882   4.140  0.4028 -0.4109 -0.0529
  813MOL0     C12098  12.336  11.772   4.197  0.3647 -0.5937  0.3187
  813MOL0     C12099  12.453  11.814   4.281  0.5825  0.2383  0.1784
  813MOL0     C12100  12.555  11.895   4.196 -0.7356  0.7688  0.4887
  813MOL0    Cl12101  12.638  11.772   4.100  0.3720  0.2548 -0.2092
  813MOL0     C12102  12.004  11.939   4.943  0.1889 -0.8701 -0.8049
  813MOL0     C12103  11.932  11.907   5.056  0.5122  1.1683  0.7035
  813MOL0     O12104  11.499  11.869   5.064  0.9733  0.2534  0.3991
  813MOL0     C12105  11.373  11.728   5.259  0.4707 -0.1479  1.3336
  813MOL0     C12106  11.320  11.645   5.355  0.0829 -0.2168 -0.5538
  813MOL0     N12107  10.810  11.107   5.709  0.7067 -0.0167  1.5089
  813MOL0     N12108  10.680  11.100   5.688  0.0178 -0.2149 -0.4573
  813MOL0     C12109   9.886  11.788   5.146  0.7119 -0.3579 -0.3877
  813MOL0     C12110   9.807  11.732   5.045 -0.0751 -1.0095 -0.3105
  813MOL0     C12111   9.736  11.499   4.649  0.3550  0.3067  0.7879
  813MOL0     C12112   9.608  11.553   4.638  0.4859  0.4642  0.1149
  813MOL0     C12113   9.512  11.499   4.549 -0.0127 -0.4302 -0.0938
  813MOL0     C12114   9.544  11.386   4.466 -0.6869 -0.3948  0.7042
  813MOL0     O12115   9.447  11.313   4.400 -0.3248  0.7784 -0.3914
  813MOL0     C12116   9.314  11.346   4.430  0.0624  0.3451 -0.3123
  813MOL0     C12117   9.270  11.448   4.319 -0.6066  0.3083 -0.5913
  813MOL0     C12118   9.138  11.408   4.245 -0.0959 -0.3990  0.2020
  813MOL0     C12119   9.104  11.527   4.159  0.0097  0.4233  0.0259
  813MOL0     C12120   8.968  11.531   4.104 -0.7583 -1.1302  0.4845
  813MOL0     C12121   8.852  11.536   4.066 -0.2643 -0.6690 -0.5450
  813MOL0     C12122   9.680  11.344   4.458  1.0528 -0.6130 -0.0225
  813MOL0     C12123   9.774  11.392   4.550  0.0593  0.0287  0.4057
  813MOL0     C12124   9.914  11.334   4.551  0.0501 -0.6607  0.8138
  813MOL0     H12125  10.036  11.762   4.794  0.9613 -3.2109  0.6863
  813MOL0     H12126  10.158  11.865   4.960 -1.0584 -0.0473 -1.2229
  813MOL0     H12127  10.266  11.977   5.143 -0.6048  0.8043  0.6631
  813MOL0     H12128  10.274  11.802   5.155 -0.5714 -0.2497  0.8749
  813MOL0     H12129  10.411  11.934   5.340 -1.1956  1.9653  3.9390
  813MOL0     H12130  10.260  11.995   5.393  1.1030  0.6676 -0.3340
  813MOL0     H12131  10.341  11.808   5.526  4.4396  0.5341 -3.2585
  813MOL0     H12132  10.186  11.769   5.441 -0.5047 -0.7632  0.2351
  813MOL0     H12133  10.327  11.642   5.286 -0.3569 -0.3493 -0.6131
  813MOL0     H12134  10.474  11.677   5.359  0.3038 -3.3022  0.0010
  813MOL0     H12135  10.256  11.503   5.473 -0.5218 -0.7463  0.8578
  813MOL0     H12136  10.369  11.581   5.583 -1.0993  3.6469 -0.5970
  813MOL0     H12137  10.458  11.395   5.360  3.3011 -4.6916  1.4081
  813MOL0     H12138  10.553  11.501   5.475 -1.5827  2.3962  1.0446
  813MOL0     H12139  10.348  11.290   5.562 -0.1419 -0.6633 -3.3338
  813MOL0     H12140  10.487  11.346   5.655 -4.7375  0.7901  0.7700
  813MOL0     H12141  10.459  11.099   5.510 -2.4507  0.9953  0.7678
  813MOL0     H12142  10.544  11.201   5.401  0.6002 -0.2615 -0.5705
  813MOL0     H12143  10.751  11.325   5.466 -2.7104 -0.8095 -0.5696
  813MOL0     H12144  11.001  11.301   5.504  0.5613 -0.5742 -0.8200
  813MOL0     H12145  11.065  11.185   5.625 -3.0435 -1.0283  1.6898
  813MOL0     H12146  10.957  11.477   5.660  0.9183  1.3324  0.8253
  813MOL0     H12147  10.989  11.369   5.803 -0.9849  2.3357  0.0178
  813MOL0     H12148  11.164  11.514   5.777 -1.8902  2.3802 -1.3097
  813MOL0     H12149  11.222  11.356   5.736 -0.6441 -0.2534  0.2739
  813MOL0     H12150  11.183  11.430   5.484 -0.4621  1.1674 -0.1855
  813MOL0     H12151  11.114  11.579   5.539 -1.1193 -1.1285  0.4401
  813MOL0     H12152  11.539  11.710   5.601 -2.1084  2.1948  0.1231
  813MOL0     H12153  11.740  11.816   5.520 -1.4072  0.0087 -0.1367
  813MOL0     H12154  11.703  11.933   5.405  1.2819  0.7663 -0.0154
  813MOL0     H12155  11.787  11.779   5.351 -0.3535  0.8064 -3.6131
  813MOL0     H12156  11.635  11.894   4.875  0.5775  3.2263 -0.3523
  813MOL0     H12157  11.784  11.925   4.694 -0.1142 -1.0070  0.7639
  813MOL0     H12158  11.982  11.858   4.570 -1.3596 -0.0147  2.1420
  813MOL0     H12159  11.921  12.024   4.551 -0.3008  0.0421  1.2057
  813MOL0     H12160  12.088  12.101   4.445  2.9509  0.8802  2.2725
  813MOL0     H12161  12.209  12.020   4.538  1.5926 -0.6275 -1.7912
  813MOL0     H12162  12.046  11.853   4.338  0.7711 -1.3087 -0.7545
  813MOL0     H12163  12.204  11.832   4.411 -0.4536 -0.4504  0.3030
  813MOL0     H12164  12.279  12.040   4.285  0.5413 -1.7076  1.3708
  813MOL0     H12165  12.123  12.044   4.198 -0.3171  0.8417  0.2300
  813MOL0     H12166  12.154  11.830   4.113 -0.7604  2.0076 -0.9556
  813MOL0     H12167  12.294  11.935   4.058 -1.9418 -0.6171 -1.6482
  813MOL0     H12168  12.363  11.705   4.115 -1.2919 -0.9676  0.0543
  813MOL0     H12169  12.271  11.720   4.268 -0.1940  3.0942  2.7732
  813MOL0     H12170  12.506  11.727   4.318 -0.5340 -0.5814 -0.0901
  813MOL0     H12171  12.415  11.877   4.362  0.3060 -0.3220  0.4884
  813MOL0     H12172  12.610  11.953   4.271 -2.8123  1.9775  1.1649
  813MOL0     H12173  12.509  11.965   4.126 -0.8172  0.9968  0.7705
  813MOL0     H12174  12.106  11.974   4.953 -0.0199 -0.3205 -0.5320
  813MOL0     H12175  11.979  11.907   5.153  0.4783  0.4130  0.7250
  813MOL0     H12176  11.309  11.740   5.172  1.0240 -0.8632  0.8156
  813MOL0     H12177  11.225  11.595   5.339  0.3388 -1.0540  0.4570
  813MOL0     H12178   9.840  11.785   5.244 -0.5497 -0.5549 -0.9605
  813MOL0     H12179   9.706  11.697   5.066 -0.5959 -0.6120 -2.0088
  813MOL0     H12180   9.582  11.635   4.705 -0.4744 -0.0127  0.3496
  813MOL0     H12181   9.415  11.547   4.539 -0.8435 -2.1123 -0.4696
  813MOL0     H12182   9.253  11.255   4.428 -0.1191  0.4743 -2.0581
  813MOL0     H12183   9.303  11.376   4.535  2.0990  3.5417 -0.8670
  813MOL0     H12184   9.347  11.456   4.241  0.4153 -3.0588 -0.0605
  813MOL0     H12185   9.254  11.547   4.363  0.6347  0.1668  0.2490
  813MOL0     H12186   9.151  11.316   4.187  1.6094 -1.7016  2.5213
  813MOL0     H12187   9.053  11.380   4.309 -1.4051  4.9883  1.3156
  813MOL0     H12188   9.171  11.526   4.072 -0.4745 -0.8279 -0.3458
  813MOL0     H12189   9.116  11.624   4.209 -0.2780  1.3895 -1.6879
  813MOL0     H12190   8.751  11.517   4.037 -1.4372 -3.2487  4.0643
  813MOL0     H12191   9.703  11.265   4.387  3.2543  0.5799 -0.7161
  813MOL0     H12192   9.936  11.297   4.651  1.5924 -2.3288 -0.0680
  813MOL0     H12193   9.929  11.252   4.480 -0.2211  0.0099 -0.0345
  813MOL0     H12194   9.984  11.410   4.516 -1.7437  0.4377 -0.5385
  814MOL0     O12195   6.147   1.212   4.404  0.5553  0.2796 -0.0729
  814MOL0     C12196   6.052   1.288   4.418 -0.3330  0.1397  1.0942
  814MOL0     O12197   6.066   1.412   4.465 -0.1598  0.4158  0.5821
  814MOL0     C12198   6.171   1.499   4.450  0.3376 -0.2979  0.0461
  814MOL0     C12199   6.281   1.472   4.364 -0.4639 -0.1348  0.8884
  814MOL0     C12200   6.391   1.555   4.368  0.3580  0.2160 -0.1420
  814MOL0     C12201   6.385   1.691   4.419  0.0333 -0.1849  1.3307
  814MOL0     O12202   6.481   1.788   4.405 -0.0439  0.0161 -0.3764
  814MOL0     C12203   6.562   1.809   4.294  0.3743 -0.1786 -0.5619
  814MOL0     C12204   6.705   1.760   4.324  0.4463 -0.4572 -0.3183
  814MOL0     C12205   6.797   1.841   4.217  0.0207 -0.9129 -0.4637
  814MOL0     C12206   6.944   1.832   4.237 -0.3431  0.2310 -0.4730
  814MOL0     C12207   7.010   1.939   4.142  1.1214 -0.2843 -0.0612
  814MOL0     C12208   7.169   1.926   4.177 -0.6151  0.4383 -0.1293
  814MOL0     C12209   7.253   1.994   4.067 -0.4665 -0.3632  0.1020
  814MOL0     C12210   7.247   1.902   3.935  0.3511  0.1250  0.4595
  814MOL0     N12211   7.236   1.993   3.820 -0.8674  0.2348 -0.3295
  814MOL0     C12212   7.126   2.061   3.779  0.3973 -0.2330 -0.3607
  814MOL0     C12213   7.182   2.162   3.713 -0.1122  0.3101  0.0223
  814MOL0     C12214   7.092   2.269   3.651  0.0727 -0.0491  0.3620
  814MOL0     C12215   7.037   2.226   3.513  0.2146 -0.8342 -0.1078
  814MOL0     C12216   7.007   2.351   3.421 -1.0693  1.0733 -0.3743
  814MOL0     C12217   6.870   2.418   3.443 -0.7030  0.8390  0.2187
  814MOL0     O12218   6.856   2.486   3.567 -0.3579 -0.1757 -0.4596
  814MOL0     C12219   6.740   2.477   3.643  0.4015  0.0716  0.4457
  814MOL0     C12220   6.671   2.598   3.654  0.4752  0.0769 -0.8630
  814MOL0     C12221   6.541   2.597   3.713 -0.1203  0.4577  0.1222
  814MOL0     C12222   6.469   2.728   3.732 -0.2616 -0.1384 -0.2108
  814MOL0     C12223   6.476   2.471   3.746  0.1555 -0.8017 -0.5460
  814MOL0     C12224   6.324   2.445   3.774 -0.0153 -0.3965  0.6030
  814MOL0     O12225   6.291   2.320   3.805  0.3598 -0.3426  0.1113
  814MOL0     C12226   6.166   2.291   3.821 -0.4244  0.3310  0.3121
  814MOL0     C12227   6.079   2.345   3.912 -1.2419  0.5550 -0.7233
  814MOL0     C12228   5.951   2.304   3.932 -0.2524 -0.9184 -0.4893
  814MOL0     C12229   5.886   2.219   3.841  0.1826  0.0381 -0.0062
  814MOL0     O12230   5.749   2.187   3.853 -0.4863  0.2229  0.9837
  814MOL0     C12231   5.674   2.228   3.968 -0.4657 -0.3499 -0.4330
  814MOL0     C12232   5.554   2.146   3.984  0.2638 -0.1250  0.1218
  814MOL0     C12233   5.432   2.190   3.898  0.4112  0.6502  0.1030
  814MOL0     C12234   5.358   2.084   3.824  0.0073  1.1396  0.1834
  814MOL0     C12235   5.278   2.129   3.701 -0.1681 -0.8564 -0.5663
  814MOL0     C12236   5.208   2.010   3.630 -0.7523 -0.4995  0.1619
  814MOL0     C12237   5.309   1.924   3.544  0.0366 -0.3142 -0.0711
  814MOL0     C12238   5.253   1.808   3.474  0.4202  0.4140 -0.1488
  814MOL0    Cl12239   5.195   1.847   3.314 -0.3399 -0.3328  0.0862
  814MOL0     C12240   5.974   2.168   3.741 -0.7599 -0.4018  0.2048
  814MOL0     C12241   6.112   2.203   3.722  0.0354 -0.2738 -0.0521
  814MOL0     O12242   6.238   2.539   3.781  1.1702  0.4320 -0.7068
  814MOL0     C12243   6.556   2.356   3.744  0.0947  0.8235  0.5897
  814MOL0     C12244   6.689   2.359   3.697  0.5905  0.0539  1.1227
  814MOL0     N12245   7.319   2.161   3.724 -0.0431 -0.3837 -0.1746
  814MOL0     N12246   7.354   2.055   3.779  0.1932  0.8265  0.4250
  814MOL0     C12247   6.276   1.719   4.497 -0.4152 -1.2467  0.5762
  814MOL0     C12248   6.176   1.625   4.517  0.1017 -0.2516  0.4326
  814MOL0     C12249   5.917   1.240   4.375  0.2637 -0.2013  0.0521
  814MOL0     C12250   5.794   1.304   4.423  0.1606  0.3732 -0.8347
  814MOL0     C12251   5.671   1.252   4.405  0.0055  0.6819  0.4828
  814MOL0     C12252   5.660   1.154   4.314  0.5124  0.2212  0.3215
  814MOL0     O12253   5.550   1.094   4.278  0.0259  0.2601 -0.2481
  814MOL0     C12254   5.429   1.165   4.298 -0.6538 -0.9461 -0.1460
  814MOL0     C12255   5.315   1.099   4.232 -0.1182 -0.7503  0.3920
  814MOL0     C12256   5.325   1.104   4.088 -0.8796  0.1728  1.0192
  814MOL0     C12257   5.196   1.058   4.022  0.2773 -0.3983 -0.1143
  814MOL0     C12258   5.091   1.157   4.015  0.6841 -0.0187 -0.4388
  814MOL0     C12259   4.999   1.236   4.017  0.2262  0.3502  0.1314
  814MOL0     C12260   5.773   1.100   4.249 -0.0830  1.2017 -0.3980
  814MOL0     C12261   5.899   1.133   4.277 -0.7177 -0.1381 -0.2936
  814MOL0     C12262   6.019   1.069   4.203  0.4180 -0.5990  0.8051
  814MOL0     H12263   6.288   1.389   4.295  0.2965  0.0687  0.7023
  814MOL0     H12264   6.483   1.538   4.312  1.6215  0.8119  1.6542
  814MOL0     H12265   6.556   1.919   4.289 -1.8294 -0.2249 -0.2271
  814MOL0     H12266   6.510   1.764   4.209  0.4486  0.4265 -0.9335
  814MOL0     H12267   6.743   1.778   4.425 -0.6490  0.7939 -0.1040
  814MOL0     H12268   6.708   1.655   4.294  2.6190  0.0232 -2.0023
  814MOL0     H12269   6.767   1.819   4.114  0.0815  0.1837 -0.7345
  814MOL0     H12270   6.779   1.949   4.230  5.4319 -0.0423  2.8919
  814MOL0     H12271   6.969   1.865   4.338  0.1206 -1.6109  0.0419
  814MOL0     H12272   6.978   1.730   4.216 -1.3806 -0.7244  2.0807
  814MOL0     H12273   6.976   2.040   4.166  1.3971 -0.2710  0.2840
  814MOL0     H12274   6.991   1.919   4.036  0.2489  2.8466 -0.5742
  814MOL0     H12275   7.182   1.974   4.274 -0.6702 -2.2438  1.3232
  814MOL0     H12276   7.186   1.818   4.177  1.0449  0.6070  2.2140
  814MOL0     H12277   7.355   2.009   4.105 -0.5382  0.1326  0.1030
  814MOL0     H12278   7.196   2.086   4.048 -1.1463 -0.7255  0.3736
  814MOL0     H12279   7.325   1.828   3.916  0.6301  0.5916 -0.2599
  814MOL0     H12280   7.153   1.847   3.934  1.6858 -2.2797 -0.5173
  814MOL0     H12281   7.021   2.035   3.795 -0.1842  0.5320 -2.5278
  814MOL0     H12282   7.149   2.361   3.642  0.4977 -0.2129  1.2938
  814MOL0     H12283   7.006   2.296   3.713  1.1589  0.7942  1.5356
  814MOL0     H12284   7.112   2.170   3.457 -0.8999  0.3361 -2.9362
  814MOL0     H12285   6.949   2.161   3.523 -0.5183  0.1009 -0.3758
  814MOL0     H12286   7.089   2.423   3.430  1.8352 -1.8840 -1.1528
  814MOL0     H12287   6.998   2.305   3.323  0.5814  2.4662 -1.2259
  814MOL0     H12288   6.856   2.496   3.368  2.4651  2.6486  1.2978
  814MOL0     H12289   6.789   2.348   3.421  0.0753  0.2030 -0.6763
  814MOL0     H12290   6.722   2.689   3.623 -3.7689  3.3599  0.8885
  814MOL0     H12291   6.380   2.722   3.668 -1.1166  0.6923  0.8530
  814MOL0     H12292   6.523   2.820   3.709 -0.3003  1.1710  4.1305
  814MOL0     H12293   6.437   2.761   3.831  0.1196  0.6288 -0.3376
  814MOL0     H12294   6.134   2.407   3.983  2.3561  1.0201 -3.5814
  814MOL0     H12295   5.889   2.361   4.000 -1.8616 -0.6334 -2.1145
  814MOL0     H12296   5.732   2.210   4.058 -2.1451  2.3894  1.3464
  814MOL0     H12297   5.660   2.336   3.962  2.5117  0.0587 -1.4818
  814MOL0     H12298   5.572   2.042   3.956  1.5124 -0.0753  0.6580
  814MOL0     H12299   5.534   2.141   4.091 -0.0553  0.8029  0.1141
  814MOL0     H12300   5.459   2.277   3.837  3.2919  0.2487  0.6549
  814MOL0     H12301   5.362   2.239   3.965 -0.2311  2.6971 -1.9304
  814MOL0     H12302   5.301   2.029   3.899  1.1106 -2.7919 -1.5828
  814MOL0     H12303   5.429   2.009   3.790  0.2248  1.4827 -0.1315
  814MOL0     H12304   5.198   2.196   3.733  0.5227 -1.2593  2.3744
  814MOL0     H12305   5.351   2.179   3.637 -0.6409  0.6640  0.0333
  814MOL0     H12306   5.140   2.050   3.553 -2.5631 -2.2899  0.7278
  814MOL0     H12307   5.149   1.951   3.701 -3.1299  0.8632 -0.5772
  814MOL0     H12308   5.385   1.894   3.617  1.2112  5.3263  1.5469
  814MOL0     H12309   5.351   1.995   3.472  0.1716  1.4726  1.6649
  814MOL0     H12310   5.173   1.769   3.537 -0.0053  1.7217  0.1550
  814MOL0     H12311   5.328   1.729   3.470  1.3000  0.9748  2.7484
  814MOL0     H12312   5.926   2.105   3.667 -2.1941 -0.5764  1.2365
  814MOL0     H12313   6.182   2.169   3.646 -0.9622 -1.1697 -0.5929
  814MOL0     H12314   6.509   2.262   3.772 -1.2124  0.2016 -3.1173
  814MOL0     H12315   6.750   2.270   3.686 -1.9033 -1.6221 -0.0372
  814MOL0     H12316   6.272   1.808   4.557 -1.2228 -1.3444  0.6721
  814MOL0     H12317   6.103   1.653   4.593  1.8666 -0.2210  2.1957
  814MOL0     H12318   5.803   1.386   4.493  0.0006  2.5545 -3.2063
  814MOL0     H12319   5.584   1.297   4.451 -1.8451 -2.8115  0.7362
  814MOL0     H12320   5.414   1.206   4.398  0.5077  0.5961 -0.5634
  814MOL0     H12321   5.439   1.254   4.234 -3.9688 -1.8523 -2.1749
  814MOL0     H12322   5.219   1.141   4.265 -0.1285  0.4307 -1.0328
  814MOL0     H12323   5.323   0.997   4.271 -1.1291 -0.4997  1.3193
  814MOL0     H12324   5.368   1.196   4.049 -4.3911  2.0050  1.1000
  814MOL0     H12325   5.394   1.026   4.054  0.0961  1.6443 -0.5525
  814MOL0     H12326   5.171   0.957   4.054  4.8885 -2.0632 -1.0413
  814MOL0     H12327   5.223   1.046   3.916 -1.0561 -0.8683 -0.4223
  814MOL0     H12328   4.925   1.313   4.023  0.0059  0.1997 -0.6232
  814MOL0     H12329   5.752   1.008   4.195  2.9063 -2.0925  3.3578
  814MOL0     H12330   6.083   1.005   4.266  1.3629  0.0922  0.5760
  814MOL0     H12331   5.980   1.008   4.121 -2.9073  1.1279  0.9221
  814MOL0     H12332   6.076   1.148   4.153 -1.2528 -0.1265 -0.4345
  815MOL0     O12333   9.455   6.419   7.772 -0.1608  0.7994 -0.4320
  815MOL0     C12334   9.544   6.338   7.778 -0.0332  0.1641  0.5563
  815MOL0     O12335   9.554   6.247   7.879 -0.6980 -0.2661 -0.1308
  815MOL0     C12336   9.479   6.285   7.984 -0.0854 -0.3273 -1.0065
  815MOL0     C12337   9.491   6.408   8.064 -1.1115 -0.3019  0.1595
  815MOL0     C12338   9.398   6.441   8.167 -0.9010  1.7681 -0.7426
  815MOL0     C12339   9.304   6.350   8.204  0.5819  0.1768  0.1007
  815MOL0     O12340   9.226   6.381   8.311  0.2018  0.2274 -0.5238
  815MOL0     C12341   9.140   6.285   8.366  0.1989 -1.1234 -0.2123
  815MOL0     C12342   9.010   6.285   8.290  0.3466 -0.2838  0.5150
  815MOL0     C12343   8.914   6.189   8.342 -0.1424 -0.0835  0.0495
  815MOL0     C12344   8.939   6.057   8.274 -0.1665  0.0346 -0.4932
  815MOL0     C12345   8.862   5.950   8.353 -0.9182 -0.1778  0.3653
  815MOL0     C12346   8.717   5.938   8.305 -0.2429  0.9353 -0.2431
  815MOL0     C12347   8.658   5.800   8.355  0.0017 -1.5707 -0.1498
  815MOL0     C12348   8.614   5.788   8.501  0.2874  1.1237 -0.2183
  815MOL0     N12349   8.714   5.761   8.598  0.6726  0.6562 -0.2924
  815MOL0     C12350   8.827   5.690   8.584  0.1313  0.0152  0.4372
  815MOL0     C12351   8.894   5.699   8.695 -0.4791  0.3578  0.5407
  815MOL0     C12352   9.022   5.634   8.711 -0.9105 -0.0981  0.0183
  815MOL0     C12353   9.133   5.713   8.643 -0.0319  0.8033 -0.7762
  815MOL0     C12354   9.269   5.634   8.632 -0.4100  0.4988 -0.2070
  815MOL0     C12355   9.247   5.500   8.559 -0.2411  0.1098 -0.9359
  815MOL0     O12356   9.227   5.388   8.661 -0.4617 -0.2837  0.1882
  815MOL0     C12357   9.240   5.263   8.614 -0.0353 -0.3862 -0.8784
  815MOL0     C12358   9.265   5.233   8.475  0.4993  0.6928 -0.9200
  815MOL0     C12359   9.292   5.095   8.437 -0.0551 -1.3094  0.1070
  815MOL0     C12360   9.290   5.069   8.286  0.4913  0.3277 -0.3102
  815MOL0     C12361   9.300   4.990   8.534  0.8310 -0.3835  0.0868
  815MOL0     C12362   9.343   4.853   8.515 -0.5343 -0.2746 -0.7111
  815MOL0     O12363   9.291   4.757   8.598 -0.6011  0.2377 -0.7893
  815MOL0     C12364   9.325   4.621   8.595 -0.2442  0.1365 -0.1796
  815MOL0     C12365   9.333   4.540   8.488 -0.3754  0.4030  0.2742
  815MOL0     C12366   9.369   4.406   8.505  0.4824  0.7460 -0.5806
  815MOL0     C12367   9.390   4.342   8.628 -0.4596 -0.5803 -0.5962
  815MOL0     O12368   9.436   4.217   8.652  0.6709 -0.0125 -0.2540
  815MOL0     C12369   9.469   4.127   8.538  0.2510  0.3487  0.0673
  815MOL0     C12370   9.590   4.178   8.458  0.3723 -0.2566 -0.4143
  815MOL0     C12371   9.676   4.065   8.401 -0.5473 -0.3356 -0.5258
  815MOL0     C12372   9.701   4.051   8.255 -1.1849 -0.2922 -0.1017
  815MOL0     C12373   9.834   3.978   8.230  0.5520 -0.1592  0.5572
  815MOL0     C12374   9.869   3.951   8.084  0.2235 -0.1462 -0.2764
  815MOL0     C12375  10.020   3.914   8.062  0.1529 -0.3947 -0.4698
  815MOL0     C12376  10.050   3.765   8.085  0.4181 -0.1328  0.5047
  815MOL0    Cl12377   9.970   3.662   7.966  0.0165 -0.5639  0.1951
  815MOL0     C12378   9.368   4.418   8.733  1.4283 -0.8213 -0.5767
  815MOL0     C12379   9.335   4.558   8.727  0.1062 -0.0462  1.3307
  815MOL0     O12380   9.436   4.836   8.437  0.1785 -0.2812 -0.0094
  815MOL0     C12381   9.257   5.029   8.667  0.1210  0.5729  0.4861
  815MOL0     C12382   9.229   5.158   8.700 -0.5620 -0.2503  0.1605
  815MOL0     N12383   8.833   5.788   8.772 -0.2541 -0.7000  0.2466
  815MOL0     N12384   8.720   5.817   8.720 -0.2209 -0.2853  0.9085
  815MOL0     C12385   9.293   6.230   8.126  0.1495 -0.8073 -0.5905
  815MOL0     C12386   9.380   6.198   8.019 -0.8176 -0.0587 -0.5987
  815MOL0     C12387   9.644   6.343   7.666 -1.4503 -0.3451  1.5431
  815MOL0     C12388   9.722   6.225   7.653 -0.3031  0.5183 -0.0217
  815MOL0     C12389   9.798   6.195   7.542 -0.5074  0.4893 -0.0294
  815MOL0     C12390   9.795   6.282   7.434  0.3085 -0.9235  0.2795
  815MOL0     O12391   9.851   6.266   7.315 -0.5095 -0.1874 -0.1804
  815MOL0     C12392   9.860   6.135   7.261  0.5247  0.0753  0.4713
  815MOL0     C12393  10.002   6.111   7.212 -0.5973  0.0996  0.0135
  815MOL0     C12394  10.000   5.977   7.122 -0.7075 -1.3713  0.3196
  815MOL0     C12395  10.132   5.952   7.048  0.2223 -0.0677 -0.2333
  815MOL0     C12396  10.177   6.065   6.969 -0.5522  0.4764  0.8989
  815MOL0     C12397  10.218   6.129   6.871  0.6251 -0.8112  0.3016
  815MOL0     C12398   9.724   6.402   7.439 -0.5983 -0.5691 -0.0834
  815MOL0     C12399   9.655   6.436   7.555  0.3070  0.2782 -0.4629
  815MOL0     C12400   9.572   6.570   7.550 -0.1310  0.0501 -0.1477
  815MOL0     H12401   9.553   6.490   8.031 -1.4589 -0.1914 -0.2275
  815MOL0     H12402   9.415   6.527   8.232  1.6946  1.4231 -0.8732
  815MOL0     H12403   9.121   6.325   8.466  0.9390  1.0860 -0.8745
  815MOL0     H12404   9.185   6.186   8.379 -0.3342 -1.0510  3.0177
  815MOL0     H12405   8.965   6.383   8.306 -0.3888 -0.1208 -2.1452
  815MOL0     H12406   9.020   6.264   8.183 -0.2313 -2.0890  0.7791
  815MOL0     H12407   8.909   6.180   8.451 -2.6545 -1.5664 -0.1378
  815MOL0     H12408   8.813   6.220   8.313 -1.4592 -3.1655  1.0077
  815MOL0     H12409   8.929   6.059   8.166  3.7528 -0.2871 -1.0181
  815MOL0     H12410   9.043   6.030   8.293  0.6954  2.6274 -1.1282
  815MOL0     H12411   8.859   5.975   8.460  2.1001  4.0386 -0.2595
  815MOL0     H12412   8.902   5.849   8.347  4.6731  1.5979  1.7907
  815MOL0     H12413   8.649   6.014   8.343 -2.4022 -1.0394  0.0392
  815MOL0     H12414   8.729   5.942   8.196  0.0129 -3.1982 -0.5590
  815MOL0     H12415   8.715   5.711   8.328  0.0151 -1.8247  0.6989
  815MOL0     H12416   8.566   5.800   8.294  1.2007  0.7466 -2.1373
  815MOL0     H12417   8.559   5.882   8.514 -2.5958 -0.5314  0.5658
  815MOL0     H12418   8.552   5.698   8.501  1.6542  0.0288  3.3209
  815MOL0     H12419   8.854   5.635   8.494  0.1721 -0.2201  0.5946
  815MOL0     H12420   9.000   5.541   8.657  0.4441  0.8870 -2.4081
  815MOL0     H12421   9.043   5.617   8.816 -3.6055  0.2513  0.6872
  815MOL0     H12422   9.107   5.766   8.551  1.8577  1.2566 -1.0937
  815MOL0     H12423   9.144   5.787   8.722  3.2090 -0.1928 -0.1468
  815MOL0     H12424   9.332   5.693   8.565 -0.3689  0.6668 -0.0207
  815MOL0     H12425   9.310   5.617   8.732 -2.0183 -2.8479  0.0256
  815MOL0     H12426   9.154   5.511   8.502 -0.5180 -1.7549 -0.8910
  815MOL0     H12427   9.325   5.499   8.483 -0.7972  2.8963 -1.6654
  815MOL0     H12428   9.255   5.301   8.391 -1.1079  1.5902 -0.0582
  815MOL0     H12429   9.365   5.136   8.243  2.0418 -0.4926  1.0076
  815MOL0     H12430   9.190   5.104   8.257 -1.0254 -1.1786  2.6447
  815MOL0     H12431   9.328   4.971   8.256  2.3270  0.6644  0.7789
  815MOL0     H12432   9.318   4.583   8.389 -2.1791  2.3173  1.2916
  815MOL0     H12433   9.392   4.351   8.415  0.5946  0.1681 -0.2043
  815MOL0     H12434   9.490   4.031   8.586  1.9040  1.2457  1.2477
  815MOL0     H12435   9.388   4.112   8.466  0.4613  2.4289 -0.6827
  815MOL0     H12436   9.543   4.241   8.382 -1.0210  1.4979  1.7824
  815MOL0     H12437   9.652   4.237   8.527 -1.5227 -0.4992  1.5942
  815MOL0     H12438   9.638   3.969   8.437  1.3618 -0.7253  0.6208
  815MOL0     H12439   9.775   4.079   8.444 -0.5613  1.4041 -0.9876
  815MOL0     H12440   9.706   4.153   8.215  1.1607 -0.0260  0.7178
  815MOL0     H12441   9.634   3.980   8.206 -1.5786  1.6940 -2.6305
  815MOL0     H12442   9.915   4.036   8.275 -0.4648  0.2468  1.9685
  815MOL0     H12443   9.823   3.878   8.274 -1.3735 -0.4778 -0.5096
  815MOL0     H12444   9.861   4.047   8.031  0.8978  1.0897  1.7844
  815MOL0     H12445   9.793   3.881   8.046  0.0297 -1.1629  1.8617
  815MOL0     H12446  10.089   3.991   8.097 -1.9476  1.9765 -1.2107
  815MOL0     H12447  10.028   3.936   7.955  1.1086 -0.4829 -0.4185
  815MOL0     H12448  10.028   3.714   8.179 -0.3619 -2.0298 -0.6584
  815MOL0     H12449  10.157   3.750   8.066  0.4482  0.8414 -0.2182
  815MOL0     H12450   9.377   4.386   8.836 -1.8159  3.1105  1.1846
  815MOL0     H12451   9.321   4.629   8.808  4.4517  0.9995  1.4018
  815MOL0     H12452   9.241   4.950   8.740 -0.6021  0.2645  0.0092
  815MOL0     H12453   9.182   5.168   8.797 -0.2013 -1.8412  0.5256
  815MOL0     H12454   9.233   6.145   8.156 -0.3095  0.0858  1.1919
  815MOL0     H12455   9.386   6.101   7.969  3.3497 -0.3202  0.0364
  815MOL0     H12456   9.710   6.146   7.727  0.3992 -0.1829 -0.6328
  815MOL0     H12457   9.846   6.098   7.543  0.4973  0.8944 -2.2926
  815MOL0     H12458   9.834   6.051   7.326  3.4256 -0.7032  0.7936
  815MOL0     H12459   9.796   6.127   7.173  1.9749 -2.1809 -0.4588
  815MOL0     H12460  10.048   6.089   7.309 -0.0268  0.4321 -0.1791
  815MOL0     H12461  10.054   6.194   7.163 -1.5050  0.4860 -0.3263
  815MOL0     H12462   9.984   5.903   7.202 -1.5471  1.0574  2.5590
  815MOL0     H12463   9.913   5.979   7.057 -1.2728 -5.5511  0.6466
  815MOL0     H12464  10.121   5.864   6.983 -0.9509 -0.4612  0.4586
  815MOL0     H12465  10.216   5.930   7.113  0.6228 -1.4873 -1.1741
  815MOL0     H12466  10.240   6.195   6.789 -1.0903 -0.7404 -0.1512
  815MOL0     H12467   9.725   6.474   7.358 -1.7674 -0.6207 -0.1597
  815MOL0     H12468   9.621   6.644   7.486 -1.6543  1.2935  0.0407
  815MOL0     H12469   9.465   6.555   7.533 -0.5585  1.4725  1.0071
  815MOL0     H12470   9.596   6.622   7.644  1.8118 -0.0137 -0.5704
  816MOL0     O12471   2.016   4.581   1.991  1.1235 -0.3559 -0.3505
  816MOL0     C12472   2.001   4.568   2.114  0.1515 -0.9326 -0.2964
  816MOL0     O12473   1.935   4.465   2.183 -0.0316 -0.5520 -1.0127
  816MOL0     C12474   1.862   4.364   2.133 -0.6805 -0.4698  0.7044
  816MOL0     C12475   1.810   4.269   2.217 -0.9340 -0.0877  2.1500
  816MOL0     C12476   1.722   4.171   2.172 -1.2173  1.1657  0.7194
  816MOL0     C12477   1.677   4.152   2.043  0.0763  0.5565  0.3621
  816MOL0     O12478   1.588   4.048   2.014  0.1721 -0.8414  0.3545
  816MOL0     C12479   1.555   4.021   1.878  0.0206 -0.2620 -0.6846
  816MOL0     C12480   1.637   3.899   1.836  0.7829 -0.5464  0.4052
  816MOL0     C12481   1.634   3.775   1.924 -0.0732 -0.4960  0.2086
  816MOL0     C12482   1.703   3.649   1.863  0.0973  0.1356 -0.0669
  816MOL0     C12483   1.850   3.643   1.889  0.2487 -0.1958 -0.4019
  816MOL0     C12484   1.901   3.510   1.844  0.7935  0.4782  0.0220
  816MOL0     C12485   2.053   3.501   1.850 -0.1502  0.6013  0.2233
  816MOL0     C12486   2.106   3.537   1.994  0.3353  0.2596  0.8052
  816MOL0     N12487   2.070   3.422   2.082 -0.3588  0.9223 -0.6554
  816MOL0     C12488   2.125   3.294   2.086  0.4849  0.5026 -0.0046
  816MOL0     C12489   2.035   3.217   2.153  0.2742  0.3955  0.2315
  816MOL0     C12490   2.032   3.072   2.180 -0.1838 -0.5995 -0.4325
  816MOL0     C12491   2.030   3.003   2.050  0.1675  0.1517  0.7368
  816MOL0     C12492   1.889   3.022   1.990  0.6269 -0.5583 -0.3949
  816MOL0     C12493   1.879   2.960   1.858  1.0378  0.8831  0.8132
  816MOL0     O12494   1.965   3.034   1.769  0.9875  0.4131 -0.0119
  816MOL0     C12495   1.892   3.124   1.688 -0.8389 -0.1633 -0.1476
  816MOL0     C12496   1.772   3.192   1.718 -0.0890 -0.7475  0.7673
  816MOL0     C12497   1.717   3.278   1.630  0.5082 -0.2148 -1.2089
  816MOL0     C12498   1.583   3.337   1.678 -0.7789 -0.2373 -0.3494
  816MOL0     C12499   1.777   3.324   1.513  0.0216 -1.0133  1.3154
  816MOL0     C12500   1.722   3.432   1.420 -0.6897  0.4369  0.0934
  816MOL0     O12501   1.673   3.551   1.470 -0.3982  0.2326 -0.3087
  816MOL0     C12502   1.691   3.665   1.396 -1.6577  0.4728 -0.2697
  816MOL0     C12503   1.797   3.687   1.299  0.1818  0.7231  1.1289
  816MOL0     C12504   1.814   3.800   1.220 -0.3897  0.0915 -1.0755
  816MOL0     C12505   1.723   3.904   1.240 -0.2258 -0.6221 -0.6245
  816MOL0     O12506   1.729   4.019   1.165  0.3547 -0.2699  0.2938
  816MOL0     C12507   1.664   4.002   1.037  0.5341  0.0910 -0.0534
  816MOL0     C12508   1.716   4.106   0.933 -0.2669 -0.0760 -0.3492
  816MOL0     C12509   1.864   4.090   0.908 -0.5960 -0.3201 -0.0303
  816MOL0     C12510   1.903   3.963   0.829  0.0035 -0.1189 -0.5884
  816MOL0     C12511   2.049   3.914   0.825 -0.0086  0.2538  0.0932
  816MOL0     C12512   2.157   4.005   0.750  0.1010 -0.3511  0.0061
  816MOL0     C12513   2.288   3.939   0.743 -0.0910  0.2551  0.0207
  816MOL0     C12514   2.394   4.002   0.650 -0.1137  0.2781 -0.3681
  816MOL0    Cl12515   2.329   3.989   0.470 -0.5833 -0.3689  0.1330
  816MOL0     C12516   1.626   3.892   1.338 -0.0329  1.0533 -0.0385
  816MOL0     C12517   1.613   3.772   1.416 -0.5062  0.9304  0.1629
  816MOL0     O12518   1.732   3.413   1.298  0.6594  0.4485 -0.0429
  816MOL0     C12519   1.909   3.264   1.489  0.7546 -0.2421 -0.3299
  816MOL0     C12520   1.957   3.163   1.581 -0.2627  0.0733  0.2119
  816MOL0     N12521   1.924   3.293   2.189 -0.5020 -0.1416 -0.1892
  816MOL0     N12522   1.951   3.412   2.155  0.3019 -0.3363  0.1189
  816MOL0     C12523   1.719   4.252   1.952 -0.6555  0.5437  0.5454
  816MOL0     C12524   1.820   4.346   1.996  0.9713 -0.0243  1.3783
  816MOL0     C12525   2.074   4.667   2.201  0.6555 -0.2807 -0.0971
  816MOL0     C12526   2.108   4.620   2.328  1.3368  0.6438 -1.0058
  816MOL0     C12527   2.174   4.691   2.423 -0.8845  0.7093 -0.0543
  816MOL0     C12528   2.219   4.824   2.397  0.2104  0.5548  0.0719
  816MOL0     O12529   2.300   4.905   2.475 -0.3292  1.6098 -0.8302
  816MOL0     C12530   2.330   4.867   2.615  0.7388 -1.1663 -0.3100
  816MOL0     C12531   2.373   5.003   2.680 -0.0635 -0.4516  0.0315
  816MOL0     C12532   2.259   5.105   2.698 -0.0140 -0.0308  0.3721
  816MOL0     C12533   2.306   5.229   2.778  0.5217 -0.1978  0.6756
  816MOL0     C12534   2.390   5.207   2.902  0.5539  1.0400  0.5847
  816MOL0     C12535   2.446   5.188   3.010  0.2439 -0.1520  0.0974
  816MOL0     C12536   2.189   4.869   2.263  0.7888 -0.6743  1.0010
  816MOL0     C12537   2.117   4.797   2.166  0.3002 -0.3339  0.2251
  816MOL0     C12538   2.096   4.849   2.022 -1.0132  0.1984  0.0657
  816MOL0     H12539   1.844   4.272   2.320 -0.2019 -1.0000  1.9388
  816MOL0     H12540   1.684   4.095   2.240  1.2118 -2.5013 -1.6367
  816MOL0     H12541   1.575   4.095   1.799 -0.2813  1.0788  0.4454
  816MOL0     H12542   1.447   4.002   1.876  0.0215 -0.2325 -1.2104
  816MOL0     H12543   1.611   3.868   1.735 -0.3701 -2.1642  1.1563
  816MOL0     H12544   1.743   3.925   1.832  1.3977 -2.9252 -1.9988
  816MOL0     H12545   1.677   3.792   2.024 -2.2471 -0.3402  1.1628
  816MOL0     H12546   1.530   3.744   1.927 -0.2481  0.1550  1.4186
  816MOL0     H12547   1.666   3.556   1.908 -0.9613  0.3734 -0.4153
  816MOL0     H12548   1.682   3.635   1.757 -0.2135  0.8003 -0.0974
  816MOL0     H12549   1.876   3.644   1.995  1.9553 -0.2894 -0.7907
  816MOL0     H12550   1.891   3.725   1.830  0.0242 -1.0440 -1.7990
  816MOL0     H12551   1.871   3.428   1.909  2.6501  0.8949  1.4847
  816MOL0     H12552   1.882   3.481   1.740  3.2159 -2.7752  0.3058
  816MOL0     H12553   2.105   3.574   1.788  0.4315  0.5232  0.6058
  816MOL0     H12554   2.089   3.405   1.813 -0.4163 -0.2958  2.1537
  816MOL0     H12555   2.216   3.533   1.993  0.3047 -0.8649 -0.0696
  816MOL0     H12556   2.064   3.632   2.028  0.1010  0.6933 -0.6382
  816MOL0     H12557   2.206   3.258   2.024  1.7956  0.7309  1.5140
  816MOL0     H12558   1.943   3.038   2.234 -0.7554  0.6300 -0.5655
  816MOL0     H12559   2.116   3.032   2.238  1.8789 -0.3751 -3.0965
  816MOL0     H12560   2.103   3.037   1.977  3.1548 -1.0053  2.9451
  816MOL0     H12561   2.044   2.895   2.064 -0.9133 -0.4430 -2.1457
  816MOL0     H12562   1.806   2.987   2.053  1.3914 -2.3332 -0.3190
  816MOL0     H12563   1.860   3.127   1.979 -1.8194 -1.0174  0.8491
  816MOL0     H12564   1.917   2.858   1.867 -0.8686 -0.1245 -1.3744
  816MOL0     H12565   1.774   2.956   1.829  0.5479 -1.3499  2.5535
  816MOL0     H12566   1.723   3.168   1.812  1.5985 -1.6566  1.4577
  816MOL0     H12567   1.565   3.309   1.782  2.6319 -1.0921  0.1418
  816MOL0     H12568   1.508   3.289   1.614  1.2320 -2.8036 -0.9753
  816MOL0     H12569   1.591   3.445   1.668 -0.0173 -0.4881 -4.2113
  816MOL0     H12570   1.862   3.603   1.279  0.2337  0.3629  2.6944
  816MOL0     H12571   1.903   3.808   1.159  2.2903  0.5755  2.6297
  816MOL0     H12572   1.696   3.906   0.997  1.2378  0.4602 -0.3835
  816MOL0     H12573   1.557   4.020   1.051  0.9745  3.5933 -0.1430
  816MOL0     H12574   1.654   4.102   0.843  0.4615  0.8190 -0.9019
  816MOL0     H12575   1.695   4.204   0.976 -0.4321  0.7208 -2.1721
  816MOL0     H12576   1.919   4.089   1.003 -1.2776 -0.9063  0.3622
  816MOL0     H12577   1.908   4.176   0.855  0.9342 -1.3566 -0.5388
  816MOL0     H12578   1.867   3.986   0.728  1.4220  3.8050 -0.3615
  816MOL0     H12579   1.851   3.877   0.872 -0.2114  1.0418  1.6074
  816MOL0     H12580   2.090   3.903   0.926  1.9721  1.0998 -0.5545
  816MOL0     H12581   2.039   3.813   0.785 -0.8973  0.7111 -0.8675
  816MOL0     H12582   2.172   4.099   0.804  0.2127  0.6466 -1.7052
  816MOL0     H12583   2.124   4.012   0.646 -1.3535  2.1840  0.5578
  816MOL0     H12584   2.277   3.838   0.700  1.3742  0.6172 -1.2780
  816MOL0     H12585   2.339   3.920   0.838  1.6382  1.5986 -0.5961
  816MOL0     H12586   2.496   3.964   0.660 -0.3778  0.1127  2.1444
  816MOL0     H12587   2.418   4.103   0.683  2.1236 -0.4380  0.3605
  816MOL0     H12588   1.546   3.963   1.355 -1.7394 -1.1150  1.7824
  816MOL0     H12589   1.531   3.756   1.485 -0.2096  0.7497  0.4774
  816MOL0     H12590   1.967   3.304   1.407 -1.2032  0.8942 -1.2320
  816MOL0     H12591   2.062   3.137   1.581  0.3982  2.4181 -0.4910
  816MOL0     H12592   1.703   4.249   1.845  0.6613 -0.1097  0.3489
  816MOL0     H12593   1.866   4.404   1.917  0.5819 -2.3349 -0.6342
  816MOL0     H12594   2.086   4.514   2.343 -1.1284  0.6090 -3.9366
  816MOL0     H12595   2.182   4.639   2.518  1.5127  0.3495 -0.3731
  816MOL0     H12596   2.241   4.830   2.666 -0.5794  0.5577 -1.2392
  816MOL0     H12597   2.414   4.797   2.623  1.7874  0.0635 -0.2472
  816MOL0     H12598   2.453   5.046   2.619 -2.7801  1.6939 -2.3014
  816MOL0     H12599   2.413   4.971   2.777 -1.4478  0.3465  0.8918
  816MOL0     H12600   2.215   5.135   2.602  0.5693  0.3416  0.2161
  816MOL0     H12601   2.185   5.057   2.762  0.3018 -0.9061  0.1002
  816MOL0     H12602   2.209   5.266   2.813 -0.8177 -2.0713 -0.8289
  816MOL0     H12603   2.348   5.305   2.711  1.5288  0.2376  1.7565
  816MOL0     H12604   2.494   5.163   3.102 -2.3836 -0.4943  1.4697
  816MOL0     H12605   2.243   4.957   2.230  2.2654 -2.1016 -0.5367
  816MOL0     H12606   2.009   4.819   1.962 -1.5788  3.5531 -0.9843
  816MOL0     H12607   2.100   4.958   2.016  1.6536  0.1055 -2.4811
  816MOL0     H12608   2.181   4.823   1.958 -0.6462  4.1946 -1.3939
  817MOL0     O12609   6.666   0.038   5.117  0.4136  0.0239  0.7692
  817MOL0     C12610   6.616  -0.046   5.197 -0.9349 -0.1893 -0.7866
  817MOL0     O12611   6.625  -0.177   5.181 -0.2650 -0.2995 -0.2353
  817MOL0     C12612   6.613  -0.227   5.053  0.2477  0.2389  0.2493
  817MOL0     C12613   6.488  -0.214   4.990 -0.3091  0.5167 -0.2576
  817MOL0     C12614   6.471  -0.253   4.864 -0.2805 -0.7207 -0.5103
  817MOL0     C12615   6.567  -0.325   4.792  0.7069  0.9403  0.4227
  817MOL0     O12616   6.528  -0.356   4.661 -0.4742  1.0405 -0.0698
  817MOL0     C12617   6.582  -0.465   4.590 -0.6029  1.0190 -0.2222
  817MOL0     C12618   6.497  -0.590   4.622 -0.3581  0.4064  0.7093
  817MOL0     C12619   6.380  -0.616   4.534 -0.6814 -0.1370  0.4023
  817MOL0     C12620   6.301  -0.748   4.573 -0.7764 -0.2559  1.8072
  817MOL0     C12621   6.153  -0.729   4.543  0.2626 -0.9244 -0.5146
  817MOL0     C12622   6.101  -0.881   4.540  0.1462 -0.1337 -0.3779
  817MOL0     C12623   6.084  -0.953   4.675  0.1699  1.4326  0.4940
  817MOL0     C12624   5.940  -0.946   4.731  0.0355 -0.1598  1.5844
  817MOL0     N12625   5.912  -0.800   4.775  0.2431  0.4363  0.2377
  817MOL0     C12626   5.833  -0.708   4.717 -0.0923 -0.5533 -0.2442
  817MOL0     C12627   5.819  -0.610   4.809 -0.2067  0.9918  0.0408
  817MOL0     C12628   5.733  -0.499   4.775  0.3289  0.0736 -0.5907
  817MOL0     C12629   5.707  -0.406   4.893 -0.4301 -0.1918 -1.1769
  817MOL0     C12630   5.616  -0.482   4.992 -0.8741  0.1849  0.0547
  817MOL0     C12631   5.586  -0.397   5.122 -0.1273  0.0284 -1.0545
  817MOL0     O12632   5.703  -0.403   5.205  0.1335 -0.4790 -0.6771
  817MOL0     C12633   5.706  -0.372   5.339 -0.1338  0.4257 -0.8303
  817MOL0     C12634   5.589  -0.333   5.410  0.7105 -0.8087 -0.2361
  817MOL0     C12635   5.585  -0.298   5.554  0.9444 -0.0779  0.0217
  817MOL0     C12636   5.451  -0.273   5.616  0.1425  0.9844 -0.3742
  817MOL0     C12637   5.714  -0.284   5.619 -0.5014 -0.6097 -0.2555
  817MOL0     C12638   5.736  -0.210   5.745  0.8581 -0.0537 -0.6722
  817MOL0     O12639   5.844  -0.129   5.770 -0.5605  0.0348 -0.0925
  817MOL0     C12640   5.888  -0.116   5.901 -0.4785  0.0264 -0.5784
  817MOL0     C12641   5.940   0.012   5.929  0.2030  0.1129  0.3075
  817MOL0     C12642   5.990   0.046   6.057 -0.1398 -0.8597 -0.5909
  817MOL0     C12643   5.996  -0.045   6.156  0.1214  0.3289 -0.3117
  817MOL0     O12644   6.056   0.000   6.270  0.3848  0.1266 -0.1197
  817MOL0     C12645   6.135  -0.101   6.333  0.4811 -0.3816 -0.2251
  817MOL0     C12646   6.192  -0.048   6.460 -0.6681  0.2277  0.7200
  817MOL0     C12647   6.308  -0.138   6.519  0.3024  0.2495  0.5976
  817MOL0     C12648   6.351  -0.092   6.667  0.2338 -0.6847  0.1898
  817MOL0     C12649   6.406   0.050   6.659  0.7080 -0.9107 -0.4077
  817MOL0     C12650   6.479   0.070   6.799 -0.1099  0.0416 -0.0871
  817MOL0     C12651   6.508   0.216   6.816 -0.4105 -0.0217  0.1232
  817MOL0     C12652   6.580   0.276   6.696  0.8025 -0.5226  0.3332
  817MOL0    Cl12653   6.744   0.209   6.668  0.5137  0.0706  0.3793
  817MOL0     C12654   5.952  -0.182   6.129  0.2887  0.1388 -0.0430
  817MOL0     C12655   5.897  -0.211   6.006  0.2129  0.8984  0.9940
  817MOL0     O12656   5.655  -0.238   5.833 -0.4924 -0.7677  0.1379
  817MOL0     C12657   5.824  -0.334   5.545 -0.6501 -0.2652 -0.1974
  817MOL0     C12658   5.820  -0.372   5.415  0.5160  0.5416  0.5222
  817MOL0     N12659   5.890  -0.653   4.927  0.7331 -0.5624 -0.0696
  817MOL0     N12660   5.961  -0.755   4.892 -0.1970  0.7748 -0.5237
  817MOL0     C12661   6.688  -0.353   4.864  1.0403  0.0416  0.4022
  817MOL0     C12662   6.716  -0.288   4.989 -0.0761  0.2975  1.1081
  817MOL0     C12663   6.571   0.001   5.336  0.1631  0.6612 -0.3452
  817MOL0     C12664   6.537  -0.107   5.431 -0.1046  0.4691 -0.5898
  817MOL0     C12665   6.489  -0.076   5.558  0.4066  1.2574  0.7707
  817MOL0     C12666   6.495   0.046   5.611 -0.0257  0.0993  0.5605
  817MOL0     O12667   6.456   0.066   5.738  0.0460  0.5361 -0.2558
  817MOL0     C12668   6.431   0.193   5.784  0.0156 -0.9212  1.0518
  817MOL0     C12669   6.357   0.190   5.916  0.4992 -1.0625 -0.4579
  817MOL0     C12670   6.447   0.135   6.030 -1.0538 -0.3913 -0.0411
  817MOL0     C12671   6.370   0.107   6.162 -0.1298  0.2416  0.6609
  817MOL0     C12672   6.318   0.228   6.216  0.7911 -0.0219  0.8270
  817MOL0     C12673   6.245   0.322   6.232  0.4501 -0.1654  1.0242
  817MOL0     C12674   6.518   0.150   5.520 -0.0802 -0.4879  0.9930
  817MOL0     C12675   6.559   0.135   5.384  0.3564  0.9205 -0.3452
  817MOL0     C12676   6.592   0.253   5.294  0.7670 -0.1823  0.4900
  817MOL0     H12677   6.407  -0.156   5.033  0.2762  0.7788  0.5306
  817MOL0     H12678   6.382  -0.228   4.807  0.0283  2.0520  0.0975
  817MOL0     H12679   6.686  -0.462   4.624 -0.7186 -0.6209  0.3606
  817MOL0     H12680   6.578  -0.446   4.483  1.4142 -0.8452 -0.6884
  817MOL0     H12681   6.565  -0.676   4.618  1.7008  1.9772 -2.0306
  817MOL0     H12682   6.463  -0.586   4.725  2.3092  0.3915  1.6857
  817MOL0     H12683   6.319  -0.527   4.553 -1.0111  0.5052 -2.9253
  817MOL0     H12684   6.401  -0.618   4.426 -1.7021  3.0813  0.0509
  817MOL0     H12685   6.339  -0.825   4.505 -1.3891  2.0069 -1.3593
  817MOL0     H12686   6.316  -0.767   4.679  2.7105 -2.3429  1.0919
  817MOL0     H12687   6.146  -0.681   4.445  0.8701  2.8312  1.1495
  817MOL0     H12688   6.101  -0.662   4.611  2.3226  0.7980 -0.5437
  817MOL0     H12689   6.010  -0.883   4.479  0.4229  1.2686 -0.8880
  817MOL0     H12690   6.170  -0.938   4.478  3.3555  0.3429  2.4554
  817MOL0     H12691   6.156  -0.924   4.753 -0.9230  0.3986  1.9631
  817MOL0     H12692   6.107  -1.057   4.650  1.1778  2.2863 -2.5417
  817MOL0     H12693   5.861  -0.976   4.662  0.2559  2.5994 -0.0166
  817MOL0     H12694   5.925  -1.014   4.816 -0.3402  0.8673  2.3645
  817MOL0     H12695   5.776  -0.707   4.624  0.0612 -0.7662 -0.3402
  817MOL0     H12696   5.643  -0.541   4.730  0.6683  0.4513 -1.6401
  817MOL0     H12697   5.780  -0.426   4.708 -1.8655  2.3529  0.1741
  817MOL0     H12698   5.801  -0.375   4.939  0.0696 -1.3615 -1.3648
  817MOL0     H12699   5.651  -0.320   4.856  0.3468 -0.1625 -2.3057
  817MOL0     H12700   5.526  -0.513   4.937 -1.1851 -2.4368  1.8801
  817MOL0     H12701   5.677  -0.565   5.028  2.5324  2.9905  1.3068
  817MOL0     H12702   5.570  -0.294   5.089  0.8950  0.8684  0.8758
  817MOL0     H12703   5.500  -0.434   5.180  0.0284  1.5139  0.1888
  817MOL0     H12704   5.490  -0.345   5.368  1.2598 -0.2656 -1.7653
  817MOL0     H12705   5.450  -0.278   5.725  0.7725  2.6857 -0.2582
  817MOL0     H12706   5.392  -0.355   5.575  1.4728  0.5402 -1.5011
  817MOL0     H12707   5.412  -0.174   5.593 -0.3262  0.8412 -0.2078
  817MOL0     H12708   5.946   0.087   5.850  0.5228  1.4653  1.5568
  817MOL0     H12709   6.003   0.150   6.087 -0.7841 -0.6259 -1.0803
  817MOL0     H12710   6.083  -0.189   6.371  0.3478 -0.2739 -0.1593
  817MOL0     H12711   6.215  -0.135   6.267 -1.0818 -3.1577 -0.8305
  817MOL0     H12712   6.228   0.054   6.443  1.4819 -0.1211  2.6868
  817MOL0     H12713   6.117  -0.044   6.539  0.0293  0.9279  1.3662
  817MOL0     H12714   6.390  -0.121   6.449 -2.0841  0.7608 -2.2421
  817MOL0     H12715   6.288  -0.245   6.515  4.2276 -0.8175  3.2361
  817MOL0     H12716   6.435  -0.147   6.710 -0.0501  0.2172  1.9844
  817MOL0     H12717   6.262  -0.106   6.729  0.8160  0.0429  1.2287
  817MOL0     H12718   6.480   0.062   6.580  2.1497  2.3067  1.2233
  817MOL0     H12719   6.329   0.128   6.648  2.7569  1.2086 -0.5519
  817MOL0     H12720   6.564   0.003   6.814  1.7158  2.5009  1.2631
  817MOL0     H12721   6.418   0.054   6.888  1.0293  1.7407  1.0667
  817MOL0     H12722   6.578   0.216   6.900 -0.5256  0.0672  0.2205
  817MOL0     H12723   6.420   0.274   6.847 -1.6051 -1.9238  0.4699
  817MOL0     H12724   6.591   0.384   6.712 -0.2843 -0.6258  2.0031
  817MOL0     H12725   6.517   0.268   6.606 -0.4963  1.3831  0.9937
  817MOL0     H12726   5.942  -0.249   6.213 -1.0507  0.8998  0.4343
  817MOL0     H12727   5.868  -0.314   5.989  1.9732  0.8557 -2.8383
  817MOL0     H12728   5.919  -0.346   5.596  1.2232 -1.2087 -3.6110
  817MOL0     H12729   5.914  -0.384   5.363 -1.4977 -1.6013 -2.9820
  817MOL0     H12730   6.757  -0.428   4.826 -0.3403 -0.7051 -0.7090
  817MOL0     H12731   6.813  -0.313   5.032  0.0627 -0.1236  0.5636
  817MOL0     H12732   6.536  -0.212   5.403  1.5082 -0.3880  2.2238
  817MOL0     H12733   6.472  -0.162   5.622 -2.0808  2.3205  1.6889
  817MOL0     H12734   6.522   0.254   5.790 -1.4968  1.8812 -1.7617
  817MOL0     H12735   6.368   0.257   5.722  1.0212  0.7243  1.6838
  817MOL0     H12736   6.276   0.117   5.904 -0.5945  0.3825 -2.3632
  817MOL0     H12737   6.314   0.286   5.945  0.1641 -0.6487 -2.2250
  817MOL0     H12738   6.504   0.045   6.007  0.0562 -0.7635  3.4725
  817MOL0     H12739   6.521   0.211   6.055 -0.5100 -0.0396 -2.4708
  817MOL0     H12740   6.440   0.056   6.229  1.3816  0.2489 -0.8397
  817MOL0     H12741   6.305   0.020   6.148  2.2770 -1.4186 -0.8111
  817MOL0     H12742   6.191   0.413   6.250  2.5002  1.2441  0.2699
  817MOL0     H12743   6.498   0.252   5.553 -2.6553 -1.6852  3.5826
  817MOL0     H12744   6.570   0.347   5.346 -0.8218 -1.0604  1.4759
  817MOL0     H12745   6.701   0.250   5.295  0.8285  0.6190 -0.9994
  817MOL0     H12746   6.540   0.232   5.200 -0.9312  0.1309  1.3194
  818MOL0     O12747   6.160   5.382   8.397 -0.9576 -0.4629  0.5300
  818MOL0     C12748   6.123   5.415   8.505 -0.2625  0.2278 -0.1209
  818MOL0     O12749   6.046   5.333   8.585 -0.5713  0.1561 -0.1750
  818MOL0     C12750   6.004   5.217   8.550 -0.0821  0.7654 -0.3258
  818MOL0     C12751   6.069   5.116   8.612  0.3268  0.4029 -0.6455
  818MOL0     C12752   6.043   4.978   8.575  0.3986 -0.2323 -1.6338
  818MOL0     C12753   5.941   4.944   8.483 -0.0140  0.0329  0.1883
  818MOL0     O12754   5.908   4.814   8.441  0.8421 -0.3081 -0.8932
  818MOL0     C12755   5.947   4.699   8.528  0.1642  0.2792  0.5114
  818MOL0     C12756   5.863   4.575   8.500  0.0378  0.4336 -0.1118
  818MOL0     C12757   5.903   4.448   8.571  0.9468 -1.0124 -0.3348
  818MOL0     C12758   5.841   4.323   8.503 -0.4144  0.0060 -0.2930
  818MOL0     C12759   5.692   4.315   8.526  0.2931 -0.3092 -0.6715
  818MOL0     C12760   5.642   4.177   8.469 -0.4183  0.0959  0.6008
  818MOL0     C12761   5.617   4.086   8.589  0.2182 -0.3306 -0.0444
  818MOL0     C12762   5.466   4.100   8.619  0.3058  0.1456 -0.9653
  818MOL0     N12763   5.436   4.219   8.698  0.6989 -0.9109  0.2809
  818MOL0     C12764   5.455   4.220   8.835 -0.2463 -0.1536  0.3456
  818MOL0     C12765   5.416   4.346   8.870 -0.5415 -0.1378  0.5890
  818MOL0     C12766   5.448   4.412   8.997 -0.8403 -0.1538 -0.6020
  818MOL0     C12767   5.603   4.427   9.012 -0.0638  0.7267  0.1750
  818MOL0     C12768   5.663   4.534   8.920  0.1653 -0.3149 -0.1401
  818MOL0     C12769   5.614   4.676   8.927 -0.1683 -0.0670  1.0335
  818MOL0     O12770   5.683   4.770   8.840  0.0939  0.9496 -0.1648
  818MOL0     C12771   5.754   4.866   8.905 -0.1953 -0.4280 -0.1336
  818MOL0     C12772   5.773   4.981   8.822 -0.0687 -0.3980  0.4643
  818MOL0     C12773   5.821   5.096   8.888 -1.6899 -0.0768  0.3334
  818MOL0     C12774   5.818   5.227   8.815  0.8442  0.0353 -1.8219
  818MOL0     C12775   5.857   5.092   9.026  0.7443  0.1422 -0.8257
  818MOL0     C12776   5.918   5.205   9.098  0.1978 -0.9942 -0.5309
  818MOL0     O12777   5.987   5.300   9.016 -0.9165  0.0801 -0.0128
  818MOL0     C12778   6.037   5.418   9.075  0.6851  1.1843 -0.2359
  818MOL0     C12779   6.174   5.420   9.074  0.8713 -0.8557 -0.6892
  818MOL0     C12780   6.240   5.534   9.116 -0.5879 -0.7396 -0.4844
  818MOL0     C12781   6.179   5.631   9.194 -1.1745  0.4230 -0.0453
  818MOL0     O12782   6.255   5.740   9.237  0.1754  0.2345  0.0417
  818MOL0     C12783   6.202   5.819   9.345  1.0985 -0.2223 -1.3124
  818MOL0     C12784   6.293   5.937   9.399  0.1783 -0.1952 -0.2836
  818MOL0     C12785   6.444   5.893   9.417  0.5297 -0.7386  0.7920
  818MOL0     C12786   6.536   6.010   9.430  0.2178  0.5386 -0.1687
  818MOL0     C12787   6.680   5.984   9.471 -0.0517 -0.1818 -0.6743
  818MOL0     C12788   6.768   6.094   9.406 -0.0733  0.0172 -0.1991
  818MOL0     C12789   6.909   6.096   9.473  0.2906 -0.2837  0.9734
  818MOL0     C12790   6.986   6.229   9.431  0.3925  0.2225 -0.5991
  818MOL0    Cl12791   6.955   6.369   9.542 -0.2303  0.1633 -0.0333
  818MOL0     C12792   6.039   5.621   9.199  0.4904 -0.6483  0.0100
  818MOL0     C12793   5.970   5.522   9.130 -0.7744  0.1466  0.4179
  818MOL0     O12794   5.911   5.203   9.217  0.9439 -0.9749  0.4032
  818MOL0     C12795   5.849   4.973   9.091 -0.1981 -0.4281  0.6782
  818MOL0     C12796   5.787   4.862   9.039 -0.8849 -0.4835  0.4460
  818MOL0     N12797   5.361   4.411   8.760  0.3614  0.9949 -0.4315
  818MOL0     N12798   5.373   4.332   8.655  0.1811  0.0949  0.0606
  818MOL0     C12799   5.860   5.054   8.434  0.1810 -0.3337  0.3578
  818MOL0     C12800   5.901   5.185   8.463 -0.6341  0.7622 -0.2340
  818MOL0     C12801   6.168   5.545   8.565 -0.2951  0.3993  0.6014
  818MOL0     C12802   6.184   5.545   8.701 -0.5822 -0.6801 -0.3679
  818MOL0     C12803   6.226   5.663   8.763  0.3469  0.7801 -0.3510
  818MOL0     C12804   6.268   5.772   8.700 -0.3245  0.2812 -0.2935
  818MOL0     O12805   6.329   5.881   8.750  0.4953  0.5515 -0.0431
  818MOL0     C12806   6.314   5.916   8.888  0.6771 -0.7418  1.0401
  818MOL0     C12807   6.420   6.024   8.942  0.5823  0.0345 -0.1394
  818MOL0     C12808   6.558   5.954   8.935 -0.2055  0.0251  0.1210
  818MOL0     C12809   6.680   6.029   8.989  0.5839 -0.0659  0.5297
  818MOL0     C12810   6.666   6.166   8.927 -0.3639  0.0249  0.0277
  818MOL0     C12811   6.662   6.286   8.895  0.5793 -0.0864  0.0811
  818MOL0     C12812   6.257   5.773   8.557  0.5799  0.4885  0.2667
  818MOL0     C12813   6.205   5.663   8.486  0.5143 -0.0291  0.2775
  818MOL0     C12814   6.199   5.673   8.332  0.5987 -0.0162 -0.5215
  818MOL0     H12815   6.143   5.133   8.689 -0.1453  4.6669 -0.8650
  818MOL0     H12816   6.104   4.898   8.615  0.5965  2.3983  4.3855
  818MOL0     H12817   5.924   4.733   8.629  1.0276  3.2779 -0.2203
  818MOL0     H12818   6.052   4.674   8.510  0.3089  2.3962 -2.3280
  818MOL0     H12819   5.758   4.597   8.520  0.4691  1.8048  0.8397
  818MOL0     H12820   5.865   4.563   8.392 -0.4124  1.8324 -0.2854
  818MOL0     H12821   6.009   4.428   8.550  0.6952 -1.4351 -1.2391
  818MOL0     H12822   5.886   4.453   8.679 -1.0385  0.3686 -0.6641
  818MOL0     H12823   5.857   4.334   8.395 -1.7389 -0.0697 -0.5104
  818MOL0     H12824   5.889   4.238   8.553 -2.2528 -1.3045 -0.6659
  818MOL0     H12825   5.624   4.385   8.475 -2.1456 -2.8948 -1.1986
  818MOL0     H12826   5.666   4.321   8.632  0.5020 -3.4161 -0.3615
  818MOL0     H12827   5.553   4.187   8.406 -0.0592 -0.7686 -0.0645
  818MOL0     H12828   5.721   4.136   8.405  2.9286  1.4983  3.5350
  818MOL0     H12829   5.672   4.101   8.683  0.1471  0.5793 -0.1403
  818MOL0     H12830   5.632   3.982   8.559  2.5116  0.2585 -1.1862
  818MOL0     H12831   5.418   4.111   8.521  2.9232 -0.2866 -2.3649
  818MOL0     H12832   5.420   4.011   8.663 -1.0490  1.1701 -0.2107
  818MOL0     H12833   5.494   4.135   8.890  1.0772 -0.7516 -1.4202
  818MOL0     H12834   5.405   4.342   9.069  0.7378  0.4089  1.0023
  818MOL0     H12835   5.385   4.501   9.001  0.2205  0.6852 -1.7777
  818MOL0     H12836   5.633   4.457   9.112  0.6153  2.3328 -0.4781
  818MOL0     H12837   5.642   4.327   8.991 -1.6314  0.4537 -1.7544
  818MOL0     H12838   5.772   4.545   8.927  0.1380 -0.6151  0.8449
  818MOL0     H12839   5.638   4.510   8.816 -0.7699 -2.2057  0.4799
  818MOL0     H12840   5.516   4.658   8.882 -1.4572 -0.1723  3.6949
  818MOL0     H12841   5.600   4.700   9.033 -4.2461 -0.5851  0.7584
  818MOL0     H12842   5.725   4.986   8.725  2.0523 -3.9426 -0.9899
  818MOL0     H12843   5.766   5.295   8.883  1.3667 -0.1245 -1.2473
  818MOL0     H12844   5.767   5.218   8.719  0.2287  1.2585 -1.6327
  818MOL0     H12845   5.915   5.272   8.790 -0.0235  2.8250 -0.6301
  818MOL0     H12846   6.232   5.337   9.033  0.2188 -1.2250 -0.8844
  818MOL0     H12847   6.347   5.529   9.097 -0.1362  0.8083  1.3465
  818MOL0     H12848   6.106   5.868   9.328  1.9251  2.7002  1.3194
  818MOL0     H12849   6.190   5.745   9.425  0.2103 -0.2374 -1.4516
  818MOL0     H12850   6.289   6.020   9.327  1.0148 -1.0429 -1.3401
  818MOL0     H12851   6.250   5.963   9.496  0.5740 -2.8670  0.7127
  818MOL0     H12852   6.479   5.835   9.331  1.7285 -0.3873  1.0335
  818MOL0     H12853   6.450   5.822   9.500 -1.4039 -0.2983  1.3553
  818MOL0     H12854   6.504   6.078   9.510 -0.7800 -1.0435  0.8334
  818MOL0     H12855   6.535   6.069   9.338 -0.2786  1.2904  0.2989
  818MOL0     H12856   6.683   5.986   9.580 -1.5390  0.6452 -0.6289
  818MOL0     H12857   6.713   5.882   9.454  1.7313  0.0319  1.1192
  818MOL0     H12858   6.724   6.191   9.429 -0.1202 -0.3060  1.1780
  818MOL0     H12859   6.770   6.073   9.299 -1.7029  1.0544 -0.4704
  818MOL0     H12860   6.970   6.019   9.425  0.2124  0.8150 -1.0308
  818MOL0     H12861   6.895   6.079   9.580 -2.4471 -2.3497  0.4189
  818MOL0     H12862   6.951   6.266   9.334 -2.5799  1.2199  0.7332
  818MOL0     H12863   7.091   6.200   9.435 -0.2035 -2.4806 -2.2214
  818MOL0     H12864   5.987   5.704   9.247  0.9431  0.8433 -1.9202
  818MOL0     H12865   5.863   5.512   9.117 -0.4758 -1.8112 -0.9582
  818MOL0     H12866   5.879   4.963   9.195 -0.8794  0.4304  0.9724
  818MOL0     H12867   5.789   4.769   9.095  0.9022  0.2616  1.6850
  818MOL0     H12868   5.779   5.036   8.364  0.9392  0.2227 -0.6897
  818MOL0     H12869   5.855   5.264   8.403  0.1582  2.2943  1.1111
  818MOL0     H12870   6.151   5.463   8.764 -0.3094 -0.7007 -0.2549
  818MOL0     H12871   6.219   5.653   8.871  2.0063  3.5757  0.1150
  818MOL0     H12872   6.213   5.956   8.901  1.4405  2.2182 -1.1012
  818MOL0     H12873   6.316   5.830   8.956  0.4803 -0.1303  1.8250
  818MOL0     H12874   6.392   6.050   9.044 -0.7143 -3.6282  0.6128
  818MOL0     H12875   6.419   6.109   8.874 -1.2281  0.0360 -0.1578
  818MOL0     H12876   6.559   5.864   8.998  1.4438  0.3217  0.5565
  818MOL0     H12877   6.572   5.927   8.830  0.3479  0.9208 -0.0431
  818MOL0     H12878   6.772   5.982   8.955  0.7974  0.4646  0.3691
  818MOL0     H12879   6.678   6.045   9.097 -0.5802 -0.9366  0.6615
  818MOL0     H12880   6.656   6.386   8.857 -1.3998 -0.7103 -1.3932
  818MOL0     H12881   6.308   5.852   8.503  1.5781 -1.7233 -2.2437
  818MOL0     H12882   6.191   5.778   8.303  2.1524  0.0214 -0.8698
  818MOL0     H12883   6.284   5.622   8.287  2.7395  1.4102  1.6429
  818MOL0     H12884   6.111   5.623   8.291 -0.7664  1.7211  0.1641
  819MOL0     O12885   6.002   4.066   0.494 -0.3247 -0.3708  0.3466
  819MOL0     C12886   6.043   4.121   0.590 -0.1085  0.6515 -0.6390
  819MOL0     O12887   6.174   4.122   0.622  0.1072 -0.1937 -0.3338
  819MOL0     C12888   6.272   4.044   0.574  0.6022  0.5911 -0.3031
  819MOL0     C12889   6.250   3.899   0.537 -0.1458  0.1630 -0.4572
  819MOL0     C12890   6.361   3.823   0.497  0.4669  0.4897  0.6493
  819MOL0     C12891   6.490   3.875   0.503 -0.4835 -0.3027 -0.1925
  819MOL0     O12892   6.589   3.792   0.461 -0.3838  1.0984  0.1779
  819MOL0     C12893   6.729   3.818   0.494  0.2753  0.3602 -0.1097
  819MOL0     C12894   6.813   3.699   0.450 -0.3049 -0.5545  0.3769
  819MOL0     C12895   6.954   3.692   0.504  0.3939  0.4905 -0.0892
  819MOL0     C12896   7.047   3.770   0.409  0.2189  0.2770  1.4101
  819MOL0     C12897   7.199   3.754   0.431  0.2118 -0.3121  0.5938
  819MOL0     C12898   7.249   3.616   0.471  1.4203  0.2089  0.4666
  819MOL0     C12899   7.402   3.597   0.467 -0.1018  0.3400 -0.1265
  819MOL0     C12900   7.488   3.728   0.487 -0.6371  0.0265 -0.4736
  819MOL0     N12901   7.626   3.702   0.513 -0.6457 -0.3163  0.2834
  819MOL0     C12902   7.733   3.783   0.472  0.0326 -0.2482 -0.0267
  819MOL0     C12903   7.844   3.731   0.539  0.4513 -0.8981 -0.5648
  819MOL0     C12904   7.993   3.768   0.526 -0.3114 -0.3445  0.0480
  819MOL0     C12905   8.023   3.915   0.557  0.4455 -0.2858 -0.3303
  819MOL0     C12906   7.974   3.952   0.702  0.4009  0.0364 -0.7184
  819MOL0     C12907   7.983   4.098   0.722  0.3743 -0.0043  0.0724
  819MOL0     O12908   7.927   4.142   0.845  0.4598 -0.6584 -0.1015
  819MOL0     C12909   7.911   4.279   0.870  0.3748  0.3877  0.0475
  819MOL0     C12910   7.953   4.376   0.779  0.6159  0.4464 -0.2873
  819MOL0     C12911   7.953   4.510   0.809 -0.5411  0.2149  0.6805
  819MOL0     C12912   8.001   4.599   0.699  1.1770  0.1785  0.7636
  819MOL0     C12913   7.893   4.552   0.930 -0.1186 -0.0864  0.8317
  819MOL0     C12914   7.876   4.700   0.967 -0.2857  0.5171  0.1512
  819MOL0     O12915   7.777   4.724   1.051 -0.8451  0.1887  0.6539
  819MOL0     C12916   7.765   4.851   1.097 -0.2090 -0.4541  0.2101
  819MOL0     C12917   7.693   4.953   1.032 -0.3133  0.6477  0.4346
  819MOL0     C12918   7.666   5.076   1.093 -0.0949 -0.5433  0.3464
  819MOL0     C12919   7.712   5.111   1.216 -0.2147 -0.3750  0.2534
  819MOL0     O12920   7.688   5.238   1.269 -0.1160 -0.0456 -0.2334
  819MOL0     C12921   7.679   5.241   1.406  0.0332 -0.7276  0.6794
  819MOL0     C12922   7.624   5.374   1.454 -0.3278 -0.2529  0.4335
  819MOL0     C12923   7.568   5.353   1.599  0.6725 -0.3508 -0.2703
  819MOL0     C12924   7.473   5.468   1.646  0.7113 -1.0551 -0.0916
  819MOL0     C12925   7.393   5.412   1.774 -0.1112  0.4966  0.4766
  819MOL0     C12926   7.363   5.530   1.861  0.4497 -0.4848 -0.2480
  819MOL0     C12927   7.280   5.489   1.982  0.2179  0.4365 -0.3541
  819MOL0     C12928   7.260   5.591   2.087  0.4493 -0.3711 -0.2028
  819MOL0    Cl12929   7.193   5.500   2.211 -0.2730 -0.1975 -0.0454
  819MOL0     C12930   7.789   5.014   1.281 -0.5081  0.1236  0.1977
  819MOL0     C12931   7.816   4.892   1.216  0.4429 -0.1776 -0.5692
  819MOL0     O12932   7.959   4.775   0.931  0.5559  0.5484  0.5129
  819MOL0     C12933   7.843   4.452   1.025 -0.8561 -0.6210  0.3967
  819MOL0     C12934   7.859   4.320   0.995 -0.3408 -1.1069 -0.2845
  819MOL0     N12935   7.798   3.638   0.625  0.5953  0.1899 -0.0120
  819MOL0     N12936   7.675   3.618   0.608  0.2601  1.1449  0.2620
  819MOL0     C12937   6.516   4.004   0.555 -0.7239 -0.6891  0.4883
  819MOL0     C12938   6.408   4.088   0.582  0.4836  0.0838 -0.5932
  819MOL0     C12939   5.953   4.229   0.648  0.2053 -0.9134  0.6358
  819MOL0     C12940   5.879   4.203   0.751 -0.9223  0.6684 -0.0524
  819MOL0     C12941   5.781   4.291   0.796  0.4131  0.2189 -0.1615
  819MOL0     C12942   5.755   4.414   0.731  0.1048 -0.4347  0.2008
  819MOL0     O12943   5.668   4.510   0.772 -0.1769 -1.3821  0.0299
  819MOL0     C12944   5.712   4.589   0.888  0.5810  0.0045 -0.0583
  819MOL0     C12945   5.609   4.545   0.998 -0.3701  0.9721  0.9298
  819MOL0     C12946   5.457   4.580   0.965 -0.7824 -0.0494 -1.0217
  819MOL0     C12947   5.358   4.458   1.004  0.4068 -0.3891  0.4476
  819MOL0     C12948   5.370   4.341   0.918 -0.3888 -0.0743  0.7002
  819MOL0     C12949   5.381   4.255   0.836 -0.3375 -1.2818  0.1810
  819MOL0     C12950   5.842   4.440   0.621  0.0900  0.7183 -0.8991
  819MOL0     C12951   5.944   4.350   0.579  0.7564 -0.3192  0.5353
  819MOL0     C12952   6.051   4.391   0.480 -0.0536  0.0007  0.3937
  819MOL0     H12953   6.154   3.851   0.523  0.9624 -1.3830 -4.1469
  819MOL0     H12954   6.343   3.722   0.463  0.3040  0.2691  1.3762
  819MOL0     H12955   6.730   3.841   0.601 -0.0832  2.7313 -0.5681
  819MOL0     H12956   6.771   3.906   0.446  1.2911 -0.3063 -0.4879
  819MOL0     H12957   6.765   3.604   0.475 -0.9278 -0.5569 -0.7981
  819MOL0     H12958   6.824   3.705   0.342 -0.6202  1.9012  0.4216
  819MOL0     H12959   6.964   3.729   0.606 -1.9989  0.6194  0.1541
  819MOL0     H12960   6.978   3.585   0.497 -0.9619  0.2331 -1.6018
  819MOL0     H12961   7.028   3.732   0.308 -0.3728  0.1409  1.5685
  819MOL0     H12962   7.032   3.879   0.410  4.4613  1.0889 -0.1924
  819MOL0     H12963   7.227   3.835   0.499 -1.4881  4.0881 -3.3966
  819MOL0     H12964   7.251   3.780   0.338 -1.0655 -2.6269 -0.8700
  819MOL0     H12965   7.213   3.601   0.574 -0.3992  1.7558  0.1023
  819MOL0     H12966   7.202   3.549   0.399  3.6324 -1.4388  0.4565
  819MOL0     H12967   7.420   3.563   0.365  0.2844 -0.2992  0.1466
  819MOL0     H12968   7.433   3.520   0.539 -0.2734 -1.1163 -1.5531
  819MOL0     H12969   7.484   3.794   0.399 -1.3007  1.0481  0.3011
  819MOL0     H12970   7.438   3.789   0.563  1.5921  1.1371  0.1865
  819MOL0     H12971   7.743   3.863   0.400  0.7538 -0.0448  0.2900
  819MOL0     H12972   8.022   3.739   0.424 -1.1076 -2.2978  0.3200
  819MOL0     H12973   8.055   3.705   0.590  0.3108  0.9064  0.6982
  819MOL0     H12974   8.131   3.929   0.550  0.3809  2.6993  2.5007
  819MOL0     H12975   7.975   3.968   0.474 -0.6803 -1.8390 -0.7104
  819MOL0     H12976   7.868   3.925   0.712  0.5630 -0.4751 -0.3093
  819MOL0     H12977   8.029   3.898   0.780 -0.0580  1.2627  0.4813
  819MOL0     H12978   8.085   4.136   0.720 -0.0162  1.0604 -0.6674
  819MOL0     H12979   7.941   4.140   0.630  1.2370 -0.3428 -0.4824
  819MOL0     H12980   7.999   4.337   0.689  2.0110 -0.9509  0.9724
  819MOL0     H12981   7.925   4.677   0.689 -0.2056 -0.9912  1.7628
  819MOL0     H12982   8.023   4.548   0.605  2.7765 -0.8687  1.6663
  819MOL0     H12983   8.098   4.646   0.712 -0.3646  3.4464  1.4679
  819MOL0     H12984   7.652   4.935   0.934 -2.5941  0.3639  1.3686
  819MOL0     H12985   7.601   5.144   1.038  2.7453  1.0522 -1.2391
  819MOL0     H12986   7.623   5.152   1.438  2.6142 -2.9933 -0.5970
  819MOL0     H12987   7.776   5.232   1.457 -1.0483 -0.7494  2.8580
  819MOL0     H12988   7.697   5.456   1.456  0.5044 -0.9841  0.6608
  819MOL0     H12989   7.542   5.412   1.393 -0.0615 -1.8682 -1.0087
  819MOL0     H12990   7.661   5.343   1.656  0.6661 -1.9068 -0.4705
  819MOL0     H12991   7.513   5.259   1.606  0.9632 -0.7410 -2.5014
  819MOL0     H12992   7.398   5.489   1.570  0.4928  0.0219  0.4005
  819MOL0     H12993   7.527   5.559   1.674 -2.4690  0.9034  0.0850
  819MOL0     H12994   7.304   5.356   1.745  0.1224 -0.3202  1.3041
  819MOL0     H12995   7.461   5.345   1.827 -0.6665 -0.4704 -0.0137
  819MOL0     H12996   7.304   5.596   1.797  3.7128  1.6482 -1.3670
  819MOL0     H12997   7.458   5.580   1.881  0.3909  0.2984 -1.7555
  819MOL0     H12998   7.340   5.409   2.027 -0.1614 -0.5997 -1.6211
  819MOL0     H12999   7.181   5.448   1.960  1.2818 -1.7288 -1.4219
  819MOL0     H13000   7.182   5.660   2.052  0.2999 -1.6949 -2.7143
  819MOL0     H13001   7.354   5.641   2.112  0.5336  0.5208 -2.1118
  819MOL0     H13002   7.853   5.044   1.363  1.7732  0.9780 -1.7718
  819MOL0     H13003   7.879   4.825   1.274 -1.0462 -1.5784 -0.4836
  819MOL0     H13004   7.795   4.480   1.118 -2.6431 -2.0601 -0.0356
  819MOL0     H13005   7.829   4.233   1.052 -0.1048 -0.1399  1.3590
  819MOL0     H13006   6.614   4.036   0.587 -0.9103 -3.5206  4.8839
  819MOL0     H13007   6.425   4.187   0.621 -1.2708 -0.6738  2.4435
  819MOL0     H13008   5.906   4.105   0.789  0.9464  0.6738 -1.2769
  819MOL0     H13009   5.711   4.264   0.875 -2.8152  2.1218 -2.1341
  819MOL0     H13010   5.814   4.558   0.915  1.3516  3.8201  2.1870
  819MOL0     H13011   5.711   4.697   0.870  0.8648 -0.1828 -1.3055
  819MOL0     H13012   5.650   4.592   1.088  1.6785  1.0727  0.0072
  819MOL0     H13013   5.619   4.437   1.016 -2.9720  0.4769 -0.1830
  819MOL0     H13014   5.414   4.651   1.036 -4.4319 -2.5294 -0.4730
  819MOL0     H13015   5.457   4.607   0.859  0.9456  1.2612 -0.7240
  819MOL0     H13016   5.259   4.496   0.979 -0.4046 -2.8365 -0.3394
  819MOL0     H13017   5.364   4.452   1.113  2.2799 -1.3479  0.3493
  819MOL0     H13018   5.408   4.196   0.750  2.2257 -0.6619  0.4605
  819MOL0     H13019   5.833   4.543   0.587  1.1306  1.7228  1.5641
  819MOL0     H13020   6.033   4.342   0.384 -0.8001 -0.1589  0.6090
  819MOL0     H13021   6.061   4.498   0.462  2.4302 -0.2778 -0.2842
  819MOL0     H13022   6.155   4.360   0.494  0.6650  1.3749 -1.4957
  820MOL0     O13023   8.710   9.517  10.778  0.4591 -0.6363  0.6693
  820MOL0     C13024   8.674   9.507  10.886  0.5638  0.1046 -0.7216
  820MOL0     O13025   8.755   9.518  10.992 -0.5767  0.0389 -0.1999
  820MOL0     C13026   8.894   9.542  10.966 -0.6817  0.7159 -0.1124
  820MOL0     C13027   8.998   9.453  10.916  0.3246 -0.1125 -0.3237
  820MOL0     C13028   9.126   9.498  10.901  0.9309  0.3599 -0.0209
  820MOL0     C13029   9.163   9.628  10.927 -0.2368  0.2820  0.6372
  820MOL0     O13030   9.292   9.662  10.907 -0.0533  0.0185 -0.3664
  820MOL0     C13031   9.318   9.734  10.791 -1.1763 -0.4473  0.0404
  820MOL0     C13032   9.467   9.788  10.786 -1.0146 -0.2829  0.1683
  820MOL0     C13033   9.481   9.935  10.714  0.0188  0.0796  0.1770
  820MOL0     C13034   9.447  10.053  10.797  0.5682 -0.8837 -0.4222
  820MOL0     C13035   9.553  10.085  10.896 -0.4120  0.0136  0.3634
  820MOL0     C13036   9.523  10.207  10.978 -0.3574 -0.0496  0.3423
  820MOL0     C13037   9.639  10.260  11.066 -0.1168 -0.0086  0.5655
  820MOL0     C13038   9.590  10.385  11.140  0.2880 -0.3214  0.8016
  820MOL0     N13039   9.513  10.362  11.262 -0.7647  0.7554 -0.1611
  820MOL0     C13040   9.527  10.413  11.393 -0.2683  0.6849 -0.4828
  820MOL0     C13041   9.428  10.344  11.464  0.1550 -0.1930  1.1381
  820MOL0     C13042   9.396  10.376  11.601  0.5253  0.7521 -0.1058
  820MOL0     C13043   9.344  10.253  11.671  0.0319 -0.4009  0.3053
  820MOL0     C13044   9.340  10.273  11.831 -0.1456 -0.2093  0.5363
  820MOL0     C13045   9.275  10.143  11.885  0.0962 -0.4210 -0.3090
  820MOL0     O13046   9.239  10.183  12.023 -0.2271 -0.2239  0.1522
  820MOL0     C13047   9.339  10.180  12.122  0.6372 -0.1622  0.8379
  820MOL0     C13048   9.473  10.144  12.099  0.6280 -0.4446  0.2332
  820MOL0     C13049   9.578  10.183  12.184  1.2202  0.3228  0.4789
  820MOL0     C13050   9.712  10.147  12.136 -0.3752  0.2834  1.3078
  820MOL0     C13051   9.550  10.247  12.307 -0.8346  0.0425  0.2162
  820MOL0     C13052   9.651  10.300  12.412  1.3058 -0.1185 -0.0725
  820MOL0     O13053   9.597  10.387  12.495  0.8732 -0.1341  0.0337
  820MOL0     C13054   9.670  10.411  12.612  0.2619  1.0965 -0.0232
  820MOL0     C13055   9.702  10.542  12.642  0.8367 -0.3396 -0.1274
  820MOL0     C13056   9.768  10.583  12.758  0.9456  0.8360  0.4670
  820MOL0     C13057   9.817  10.474  12.841 -0.9995 -0.5021  0.1883
  820MOL0     O13058   9.891  10.492  12.955 -0.3631 -0.1920 -0.4362
  820MOL0     C13059   9.913  10.623  13.012  0.4660  0.2339  0.5564
  820MOL0     C13060   9.789  10.680  13.090 -1.0627 -0.1194  0.0648
  820MOL0     C13061   9.783  10.645  13.236 -0.6549 -0.2666 -0.3970
  820MOL0     C13062   9.857  10.741  13.325  1.1570  0.3740 -0.0852
  820MOL0     C13063   9.811  10.705  13.471 -1.0508  0.2512 -0.5972
  820MOL0     C13064   9.897  10.788  13.568  0.3455  0.1461 -0.1838
  820MOL0     C13065   9.857  10.749  13.705 -0.8448  0.5358 -0.3567
  820MOL0     C13066   9.850  10.862  13.813  0.2310 -0.5617 -0.3133
  820MOL0    Cl13067   9.752  10.802  13.957  0.1022  0.5153 -0.0390
  820MOL0     C13068   9.797  10.342  12.809 -0.4138  0.1919  0.0773
  820MOL0     C13069   9.720  10.312  12.698 -0.4111  0.1383  0.3662
  820MOL0     O13070   9.770  10.277  12.399  0.3121 -0.2931  0.4825
  820MOL0     C13071   9.422  10.282  12.324 -0.8337  0.6916  0.7339
  820MOL0     C13072   9.313  10.242  12.241 -0.3325 -0.4019  0.2716
  820MOL0     N13073   9.364  10.249  11.383  0.4082  0.0587  0.1786
  820MOL0     N13074   9.397  10.283  11.266  0.1781  0.2700  1.2933
  820MOL0     C13075   9.065   9.722  10.967  0.2017 -0.3689 -0.4831
  820MOL0     C13076   8.938   9.668  10.996 -0.2030  0.2506  1.3244
  820MOL0     C13077   8.523   9.476  10.903 -0.6636  0.2403  0.1899
  820MOL0     C13078   8.464   9.409  10.798 -0.1626 -0.1515 -0.5916
  820MOL0     C13079   8.329   9.383  10.789 -0.2095  0.7835 -0.1894
  820MOL0     C13080   8.252   9.409  10.906  0.3727  0.8328  0.2705
  820MOL0     O13081   8.123   9.375  10.887 -0.3375  0.6571 -0.2783
  820MOL0     C13082   8.028   9.423  10.976  0.1036  0.0293  0.0176
  820MOL0     C13083   7.891   9.342  10.958 -0.0852 -0.0167 -0.3952
  820MOL0     C13084   7.781   9.390  11.049  0.6543 -0.8166  0.4321
  820MOL0     C13085   7.645   9.331  11.008 -0.2718 -1.1114  0.4697
  820MOL0     C13086   7.588   9.362  10.878 -0.0895  0.3179 -0.1633
  820MOL0     C13087   7.523   9.386  10.773  0.7476  0.5014 -0.9592
  820MOL0     C13088   8.310   9.479  11.016  0.4763  0.2700  0.0489
  820MOL0     C13089   8.449   9.512  11.018 -0.6909 -0.2339  0.0222
  820MOL0     C13090   8.514   9.570  11.143 -0.7824  0.0041 -0.0522
  820MOL0     H13091   8.965   9.350  10.901 -0.8724  0.5116 -2.3375
  820MOL0     H13092   9.203   9.428  10.871  0.2736 -1.0714  1.5109
  820MOL0     H13093   9.246   9.816  10.784  0.1246  0.6402 -1.4844
  820MOL0     H13094   9.300   9.664  10.709 -5.2609 -3.3641  3.0668
  820MOL0     H13095   9.514   9.789  10.885  0.7796 -2.3785 -0.5794
  820MOL0     H13096   9.529   9.716  10.732 -1.8034  0.5014 -1.8557
  820MOL0     H13097   9.590   9.931  10.702  0.1307  0.5246  0.9087
  820MOL0     H13098   9.430   9.938  10.618 -3.5501  2.6652  1.9179
  820MOL0     H13099   9.433  10.144  10.737  0.2154 -0.9114 -0.3854
  820MOL0     H13100   9.350  10.036  10.846  0.5964 -0.1609 -0.1032
  820MOL0     H13101   9.648  10.097  10.843  0.0586 -1.5608  0.8040
  820MOL0     H13102   9.566  10.008  10.972 -0.3412 -0.7681 -0.4272
  820MOL0     H13103   9.499  10.294  10.916  2.9218  0.7480  0.0009
  820MOL0     H13104   9.438  10.192  11.044  1.1599  0.8373  2.6272
  820MOL0     H13105   9.718  10.279  10.993  2.3933  3.5924  3.7807
  820MOL0     H13106   9.677  10.184  11.135 -0.3878  0.2803  1.0353
  820MOL0     H13107   9.684  10.435  11.166  1.4840 -3.5083  3.3376
  820MOL0     H13108   9.531  10.453  11.078  2.5811  1.0444  0.0027
  820MOL0     H13109   9.603  10.479  11.436 -1.0508 -0.6445  3.3441
  820MOL0     H13110   9.317  10.450  11.614  2.2012  2.8389 -1.2486
  820MOL0     H13111   9.486  10.417  11.646  1.7770  0.1315 -1.9417
  820MOL0     H13112   9.244  10.235  11.633  1.2304 -1.0103 -2.8660
  820MOL0     H13113   9.412  10.171  11.644  0.2606 -1.1970  3.0095
  820MOL0     H13114   9.439  10.292  11.873 -0.0030  0.6743 -0.1622
  820MOL0     H13115   9.277  10.362  11.838  1.9881  1.2296  3.3679
  820MOL0     H13116   9.179  10.129  11.836  0.1647 -0.4758 -0.4275
  820MOL0     H13117   9.338  10.054  11.876 -2.3368 -2.2330 -0.2055
  820MOL0     H13118   9.481  10.105  11.997  0.4279 -0.1711  0.1147
  820MOL0     H13119   9.779  10.233  12.129  2.2379 -1.5355  2.3146
  820MOL0     H13120   9.712  10.088  12.044 -3.5578 -1.0754  2.0483
  820MOL0     H13121   9.763  10.100  12.221 -1.1366  2.8023  3.2917
  820MOL0     H13122   9.652  10.617  12.583  0.6903 -0.1907  0.1825
  820MOL0     H13123   9.774  10.691  12.762 -2.6167  1.2587 -1.5608
  820MOL0     H13124   9.992  10.618  13.088  0.4922  1.5077  0.6224
  820MOL0     H13125   9.940  10.690  12.930  0.7726 -0.5156  0.0285
  820MOL0     H13126   9.790  10.788  13.072 -1.0888  0.4553  3.0512
  820MOL0     H13127   9.688  10.654  13.055 -1.8593  1.4835  1.0445
  820MOL0     H13128   9.817  10.543  13.256  2.0672  0.7733  0.7787
  820MOL0     H13129   9.676  10.641  13.260 -0.2125 -0.9411  1.6178
  820MOL0     H13130   9.835  10.847  13.308 -2.0500  0.8055  4.7491
  820MOL0     H13131   9.962  10.713  13.331  0.8573 -0.5042  2.5342
  820MOL0     H13132   9.703  10.723  13.480 -0.8248  1.6321 -0.3270
  820MOL0     H13133   9.835  10.599  13.479  0.2406  0.3720 -2.3764
  820MOL0     H13134   9.880  10.895  13.548 -1.5494 -0.2885 -1.1212
  820MOL0     H13135  10.003  10.768  13.552 -0.0474 -1.6075 -0.7789
  820MOL0     H13136   9.926  10.673  13.742  2.1618  2.0371 -2.3980
  820MOL0     H13137   9.757  10.705  13.703 -0.2787 -1.0087  2.1004
  820MOL0     H13138   9.799  10.949  13.771  3.4876  1.4331 -0.4278
  820MOL0     H13139   9.947  10.893  13.852 -0.9743  0.4127  2.2093
  820MOL0     H13140   9.841  10.261  12.865  0.1857  0.4404 -0.0251
  820MOL0     H13141   9.697  10.210  12.667 -2.9973  0.4751  0.8962
  820MOL0     H13142   9.387  10.344  12.407 -0.7611  1.0371  0.5105
  820MOL0     H13143   9.209  10.271  12.257 -0.7318 -2.0228  0.8357
  820MOL0     H13144   9.075   9.828  10.989 -3.7792  0.5483 -2.2637
  820MOL0     H13145   8.871   9.739  11.043 -2.4686  0.0157 -1.3124
  820MOL0     H13146   8.526   9.386  10.712 -2.4891  1.3397 -2.8016
  820MOL0     H13147   8.303   9.316  10.707  3.5206  1.2256 -1.9421
  820MOL0     H13148   8.058   9.412  11.081 -4.0515 -1.8324  1.2165
  820MOL0     H13149   8.007   9.524  10.939 -0.2580 -0.6882 -1.8135
  820MOL0     H13150   7.906   9.235  10.969 -1.9401 -0.2773 -0.0844
  820MOL0     H13151   7.854   9.345  10.855 -2.3384 -0.3617  0.3406
  820MOL0     H13152   7.808   9.371  11.153 -0.4349 -1.2171  0.6505
  820MOL0     H13153   7.770   9.499  11.051 -0.0799 -0.8795  0.0773
  820MOL0     H13154   7.575   9.361  11.087  0.4980 -0.0734  0.7794
  820MOL0     H13155   7.658   9.222  11.006  1.7154 -0.8935 -0.7451
  820MOL0     H13156   7.456   9.378  10.690  2.6615 -0.3770 -2.4963
  820MOL0     H13157   8.249   9.513  11.098  1.6192  1.9242  0.2746
  820MOL0     H13158   8.443   9.576  11.225  0.7692  1.7710  1.2669
  820MOL0     H13159   8.592   9.502  11.178 -0.7566  0.1023  0.0814
  820MOL0     H13160   8.571   9.663  11.129 -1.3237  1.2078  4.2657
  821MOL0     O13161   2.106   7.657   8.791  0.4032  0.4078  0.0137
  821MOL0     C13162   2.200   7.582   8.795  0.0229 -0.2072 -0.5075
  821MOL0     O13163   2.315   7.598   8.870 -0.0971 -0.0486  0.8017
  821MOL0     C13164   2.322   7.693   8.964 -0.8561  0.2017 -0.0223
  821MOL0     C13165   2.426   7.784   8.973  0.2097 -0.2664  0.0169
  821MOL0     C13166   2.442   7.883   9.072 -0.1177  0.1731 -0.2114
  821MOL0     C13167   2.349   7.878   9.182  0.5963  0.9480 -1.0709
  821MOL0     O13168   2.351   7.970   9.281 -0.3197  0.2125 -0.2555
  821MOL0     C13169   2.468   8.043   9.300  0.1810  0.2457 -0.8573
  821MOL0     C13170   2.449   8.133   9.425  0.0690  0.6306  1.1105
  821MOL0     C13171   2.539   8.259   9.422  0.7609  0.5596 -0.2076
  821MOL0     C13172   2.492   8.352   9.533 -0.6564  0.2632  0.0095
  821MOL0     C13173   2.548   8.490   9.526  0.6247  0.3341 -0.8854
  821MOL0     C13174   2.488   8.583   9.427 -0.5061  1.1677 -0.1862
  821MOL0     C13175   2.353   8.630   9.464  0.8496 -0.9516  0.0265
  821MOL0     C13176   2.350   8.734   9.576 -0.1387  0.2007 -0.1354
  821MOL0     N13177   2.215   8.737   9.639  0.5223  0.7776 -1.1002
  821MOL0     C13178   2.105   8.810   9.590 -0.6212 -0.6304  0.3557
  821MOL0     C13179   2.013   8.786   9.686 -0.6028 -0.0616  0.0497
  821MOL0     C13180   1.879   8.858   9.684  0.7993 -0.2727 -0.2664
  821MOL0     C13181   1.767   8.792   9.597 -0.2246  0.0602 -0.5651
  821MOL0     C13182   1.774   8.800   9.447  0.0699  0.5901  0.6482
  821MOL0     C13183   1.757   8.936   9.375 -0.8674 -0.0452  0.5903
  821MOL0     O13184   1.746   8.940   9.228 -0.8421  0.3373 -0.5990
  821MOL0     C13185   1.640   8.879   9.164  0.5251  0.2290  0.7856
  821MOL0     C13186   1.525   8.849   9.229  0.3405  0.9757 -0.3401
  821MOL0     C13187   1.421   8.769   9.162 -0.9178 -0.4168  0.6084
  821MOL0     C13188   1.330   8.689   9.249 -0.6741  0.3413 -0.5951
  821MOL0     C13189   1.418   8.767   9.015  0.6113 -0.7432 -0.3799
  821MOL0     C13190   1.310   8.705   8.927 -0.6492  0.4672 -0.4693
  821MOL0     O13191   1.359   8.698   8.797 -0.4617  0.6795  0.2888
  821MOL0     C13192   1.290   8.628   8.709  0.2186  0.8997 -0.5666
  821MOL0     C13193   1.210   8.690   8.614  0.2572  0.7948 -0.0735
  821MOL0     C13194   1.126   8.610   8.528 -0.1737  0.0658 -0.4912
  821MOL0     C13195   1.132   8.470   8.524  0.4446 -0.7158  0.7452
  821MOL0     O13196   1.056   8.389   8.449  0.7151  0.2001 -0.0603
  821MOL0     C13197   0.957   8.436   8.357  0.6796 -0.0104 -0.6926
  821MOL0     C13198   0.921   8.342   8.243  0.0814  0.2187  0.3853
  821MOL0     C13199   0.778   8.358   8.202  0.1233 -0.4219  0.3678
  821MOL0     C13200   0.747   8.286   8.064 -0.3749 -0.1642 -1.0882
  821MOL0     C13201   0.605   8.291   8.024  0.4617 -0.4452  0.0709
  821MOL0     C13202   0.513   8.180   8.072 -0.1806  1.3342  0.3534
  821MOL0     C13203   0.503   8.061   7.979 -0.4284  0.0685  0.5631
  821MOL0     C13204   0.456   8.093   7.842 -0.4763 -0.7326  0.5924
  821MOL0    Cl13205   0.279   8.054   7.818 -0.0467  0.4148  0.4850
  821MOL0     C13206   1.212   8.420   8.615 -1.0059 -0.2041 -0.0120
  821MOL0     C13207   1.304   8.486   8.699 -0.3342 -0.1620 -0.2839
  821MOL0     O13208   1.196   8.679   8.966 -0.0585  0.6582  0.0882
  821MOL0     C13209   1.534   8.830   8.949 -0.0046 -0.6274 -1.0149
  821MOL0     C13210   1.639   8.874   9.027  0.3425  0.8324  0.3509
  821MOL0     N13211   2.070   8.694   9.781 -0.0624  0.1323  0.0461
  821MOL0     N13212   2.188   8.668   9.749  0.4019 -0.3567 -1.2873
  821MOL0     C13213   2.247   7.786   9.175 -0.6851  0.0538 -0.2285
  821MOL0     C13214   2.233   7.692   9.069 -0.0602  0.5733 -0.9091
  821MOL0     C13215   2.178   7.455   8.708 -0.2342  0.6460 -0.1320
  821MOL0     C13216   2.109   7.454   8.589  0.5057  0.0515 -1.1694
  821MOL0     C13217   2.067   7.337   8.529 -0.1306  0.8580 -0.1996
  821MOL0     C13218   2.109   7.211   8.567 -0.1513 -0.4535 -0.7970
  821MOL0     O13219   2.106   7.119   8.470 -0.0289 -0.4496  0.0416
  821MOL0     C13220   2.135   6.985   8.522  0.1151 -0.5568  0.1861
  821MOL0     C13221   2.028   6.935   8.614  0.6922  0.0655  0.2051
  821MOL0     C13222   1.887   6.931   8.547 -0.5623  0.2270  1.1861
  821MOL0     C13223   1.792   6.865   8.638 -0.0321  0.1967 -0.4580
  821MOL0     C13224   1.799   6.722   8.621  0.6311 -0.4359 -0.4896
  821MOL0     C13225   1.797   6.608   8.598  0.0250  0.6187 -0.0956
  821MOL0     C13226   2.198   7.213   8.680  0.5372  0.0510  0.2399
  821MOL0     C13227   2.217   7.329   8.757 -0.7540  0.7360 -1.4475
  821MOL0     C13228   2.281   7.302   8.890 -0.1970  0.4863 -0.9230
  821MOL0     H13229   2.492   7.789   8.887 -1.4966 -0.5409 -1.3581
  821MOL0     H13230   2.526   7.951   9.070  0.1566 -0.1374  0.6357
  821MOL0     H13231   2.468   8.107   9.211 -3.2187 -0.6504 -1.6604
  821MOL0     H13232   2.561   7.986   9.309  0.5533  1.1834  2.1045
  821MOL0     H13233   2.346   8.170   9.429 -0.6395 -0.5861 -2.3788
  821MOL0     H13234   2.473   8.077   9.515 -1.0206  3.0967  3.0478
  821MOL0     H13235   2.646   8.243   9.442  1.4102  0.3714 -3.2740
  821MOL0     H13236   2.533   8.317   9.329  1.9217  3.1101  1.1826
  821MOL0     H13237   2.382   8.354   9.536 -0.6417  2.1295  0.8188
  821MOL0     H13238   2.521   8.304   9.627  0.8753 -1.4254 -1.2543
  821MOL0     H13239   2.654   8.490   9.498 -0.0181  1.1318 -3.7330
  821MOL0     H13240   2.522   8.536   9.621 -1.6943 -0.9291 -0.8267
  821MOL0     H13241   2.555   8.669   9.417  0.4758  0.2602 -1.7022
  821MOL0     H13242   2.485   8.535   9.329  0.6858  0.3349  0.1661
  821MOL0     H13243   2.287   8.554   9.506 -0.8655 -1.1167 -2.6892
  821MOL0     H13244   2.293   8.668   9.381 -3.3857 -2.6729  1.9962
  821MOL0     H13245   2.431   8.709   9.645  0.8404  1.2762 -0.8622
  821MOL0     H13246   2.381   8.834   9.543  0.1425 -0.1349 -0.8822
  821MOL0     H13247   2.112   8.877   9.505 -0.4035  0.7818  1.4547
  821MOL0     H13248   1.896   8.955   9.636 -2.1545  0.2224 -0.4755
  821MOL0     H13249   1.850   8.873   9.789 -1.0509 -1.3418 -0.5901
  821MOL0     H13250   1.778   8.685   9.616  1.1223  0.1486 -0.7402
  821MOL0     H13251   1.668   8.818   9.636  0.1560  3.0845 -1.3470
  821MOL0     H13252   1.875   8.771   9.416 -0.5767 -3.8592  2.0529
  821MOL0     H13253   1.700   8.725   9.416  0.4500 -1.0475  3.3872
  821MOL0     H13254   1.667   8.985   9.411 -1.6652  0.9387 -2.4584
  821MOL0     H13255   1.846   8.983   9.418 -1.0920 -3.2494  5.2731
  821MOL0     H13256   1.523   8.878   9.333 -0.9108  1.5411 -0.5012
  821MOL0     H13257   1.359   8.584   9.259 -2.1356 -0.1511 -1.2269
  821MOL0     H13258   1.225   8.685   9.217 -0.7741 -0.9596 -0.1832
  821MOL0     H13259   1.325   8.727   9.351 -0.0520 -1.4596  0.1607
  821MOL0     H13260   1.223   8.795   8.635  1.9103  0.3759  1.1725
  821MOL0     H13261   1.069   8.666   8.455 -1.3580 -0.7079 -0.1750
  821MOL0     H13262   0.876   8.454   8.428 -1.1488  0.5415 -2.8238
  821MOL0     H13263   0.982   8.529   8.305 -1.0610  0.2244 -1.1519
  821MOL0     H13264   0.982   8.369   8.157 -1.9258  1.3974 -0.7649
  821MOL0     H13265   0.914   8.240   8.281 -1.7166 -0.1458 -0.7603
  821MOL0     H13266   0.746   8.462   8.200 -3.4463 -1.2849  2.4553
  821MOL0     H13267   0.717   8.308   8.279 -1.0245  0.3389 -0.0310
  821MOL0     H13268   0.795   8.189   8.080  3.6681  1.7555 -0.3941
  821MOL0     H13269   0.801   8.346   7.991 -0.6497  0.2943 -0.9193
  821MOL0     H13270   0.576   8.380   8.081 -0.2989 -0.2168 -0.6465
  821MOL0     H13271   0.592   8.321   7.919  3.0841  1.8948  0.2919
  821MOL0     H13272   0.415   8.221   8.100  0.0768  0.9656  1.9071
  821MOL0     H13273   0.548   8.144   8.169 -0.7997  0.8141  0.3920
  821MOL0     H13274   0.441   7.981   8.020 -0.2650  0.4127  1.5061
  821MOL0     H13275   0.600   8.011   7.985 -0.8765 -1.5701 -3.2609
  821MOL0     H13276   0.526   8.033   7.784 -0.5644 -0.8224  0.5790
  821MOL0     H13277   0.482   8.193   7.807  4.8460 -1.9906  0.0200
  821MOL0     H13278   1.233   8.314   8.623  2.2626  0.3934  0.3986
  821MOL0     H13279   1.385   8.434   8.750 -0.0801  0.5847  0.0908
  821MOL0     H13280   1.554   8.828   8.842  0.6314 -3.3268 -0.9365
  821MOL0     H13281   1.734   8.908   8.988  1.2852 -3.0849 -1.2488
  821MOL0     H13282   2.164   7.795   9.244 -1.3865 -4.9666 -0.0588
  821MOL0     H13283   2.139   7.640   9.058 -1.2826  2.0433  1.4788
  821MOL0     H13284   2.083   7.551   8.549  2.3182  0.1711 -2.1523
  821MOL0     H13285   2.007   7.338   8.439 -0.2283  0.4998 -0.1398
  821MOL0     H13286   2.134   6.921   8.433 -0.4832  0.5291 -0.6211
  821MOL0     H13287   2.237   6.973   8.559  0.0892  0.6769  0.7191
  821MOL0     H13288   2.010   7.000   8.700 -0.5733  3.0368 -2.0835
  821MOL0     H13289   2.057   6.836   8.650 -3.7889 -2.1467 -1.4266
  821MOL0     H13290   1.857   7.035   8.535  0.3096  0.3363 -0.3429
  821MOL0     H13291   1.880   6.882   8.450 -0.7685  2.1935  0.1583
  821MOL0     H13292   1.691   6.887   8.603  0.4696 -0.9158 -2.7368
  821MOL0     H13293   1.790   6.911   8.738 -3.8621 -0.3315 -0.1478
  821MOL0     H13294   1.803   6.501   8.598  1.1864  0.5486  3.4924
  821MOL0     H13295   2.231   7.115   8.710 -0.0493 -0.6954 -1.4258
  821MOL0     H13296   2.391   7.300   8.893 -0.0369 -3.2295  3.9999
  821MOL0     H13297   2.245   7.370   8.968  2.0649 -0.7109  1.3239
  821MOL0     H13298   2.265   7.196   8.915 -0.1319  0.2735 -1.7573
  822MOL0     O13299   5.969   8.859   0.664  0.1551 -0.1405 -0.0722
  822MOL0     C13300   5.944   8.749   0.713 -0.9719 -0.5800  0.1760
  822MOL0     O13301   6.010   8.699   0.823 -0.1436  0.3692 -0.4621
  822MOL0     C13302   6.125   8.752   0.874 -0.2513  0.3835 -0.9619
  822MOL0     C13303   6.231   8.789   0.787 -0.4004  1.1142 -0.3522
  822MOL0     C13304   6.349   8.845   0.845  1.9923 -0.3319  0.1839
  822MOL0     C13305   6.360   8.860   0.978 -0.0055 -0.0423 -0.7421
  822MOL0     O13306   6.474   8.904   1.037 -0.1507 -0.2430  0.5760
  822MOL0     C13307   6.500   9.042   1.047 -1.2919 -0.7728 -0.4954
  822MOL0     C13308   6.640   9.084   1.026  0.2857  0.3999  0.0223
  822MOL0     C13309   6.656   9.235   0.999  0.7753  0.0653  0.3047
  822MOL0     C13310   6.635   9.260   0.849  0.3548  0.6354  0.3258
  822MOL0     C13311   6.765   9.262   0.754 -0.3405  0.5353  0.1068
  822MOL0     C13312   6.867   9.163   0.798 -0.5585  0.3495  0.8707
  822MOL0     C13313   7.010   9.207   0.767 -0.5748 -0.7447  0.3720
  822MOL0     C13314   7.033   9.204   0.612  0.5162 -0.5960 -0.4634
  822MOL0     N13315   6.995   9.338   0.550 -0.0839 -0.2576  0.0205
  822MOL0     C13316   7.070   9.457   0.558  0.3971 -1.0602 -0.6734
  822MOL0     C13317   7.007   9.546   0.480  0.4976 -0.3500  0.7190
  822MOL0     C13318   7.047   9.692   0.464 -0.3421 -0.0601  0.1515
  822MOL0     C13319   7.005   9.771   0.581  0.3109 -0.0909  0.1132
  822MOL0     C13320   6.851   9.784   0.584  0.1577 -0.8059 -0.3837
  822MOL0     C13321   6.791   9.867   0.689  0.0681  0.3860  0.0660
  822MOL0     O13322   6.853   9.863   0.818  0.8305  0.6949  0.2558
  822MOL0     C13323   6.847   9.978   0.894  1.2399 -0.3377  0.0560
  822MOL0     C13324   6.752  10.083   0.874  0.0740  0.5882  0.4016
  822MOL0     C13325   6.738  10.195   0.950  0.9241  0.6424  0.0587
  822MOL0     C13326   6.636  10.294   0.906 -0.4265  0.5406  0.0763
  822MOL0     C13327   6.830  10.226   1.051 -0.1061 -0.2990 -0.1483
  822MOL0     C13328   6.846  10.354   1.121  0.1659  0.3625  0.7228
  822MOL0     O13329   6.853  10.349   1.253  0.1524  0.4707  0.1892
  822MOL0     C13330   6.889  10.456   1.323  0.3796  0.4444 -1.0044
  822MOL0     C13331   6.976  10.570   1.298  0.1464 -0.3217 -0.1370
  822MOL0     C13332   6.987  10.674   1.391 -0.5083  1.2105 -0.3748
  822MOL0     C13333   6.921  10.670   1.514 -0.4271 -0.1131  0.3344
  822MOL0     O13334   6.938  10.778   1.591 -0.4007  0.0011  0.0116
  822MOL0     C13335   7.031  10.748   1.689  0.5271 -0.2784 -0.3586
  822MOL0     C13336   6.962  10.764   1.823 -0.4100 -0.2550 -0.8437
  822MOL0     C13337   7.039  10.704   1.946 -0.5254 -0.0220 -0.0262
  822MOL0     C13338   7.182  10.741   1.979 -0.9101 -0.0910 -0.3193
  822MOL0     C13339   7.221  10.895   2.005 -0.0914  0.6885 -0.1478
  822MOL0     C13340   7.114  10.984   2.077 -0.7843  1.3019 -0.0451
  822MOL0     C13341   7.170  11.129   2.079 -0.6450 -1.7798  0.0134
  822MOL0     C13342   7.218  11.185   1.943 -0.1415  0.0671  0.2338
  822MOL0    Cl13343   7.239  11.367   1.954  0.0869 -0.3157 -0.3054
  822MOL0     C13344   6.830  10.566   1.540 -0.1480 -0.1257 -0.0008
  822MOL0     C13345   6.810  10.461   1.447 -0.5506  0.0673  0.2327
  822MOL0     O13346   6.840  10.456   1.055  0.7739 -0.5344  0.3440
  822MOL0     C13347   6.912  10.108   1.090  0.3986  0.4702 -0.1051
  822MOL0     C13348   6.919   9.990   1.009 -0.1852  0.0925 -0.1409
  822MOL0     N13349   6.887   9.489   0.436 -1.0082 -0.5424 -0.6302
  822MOL0     N13350   6.887   9.361   0.463  0.0622  0.1991 -0.1697
  822MOL0     C13351   6.259   8.816   1.066  0.2079  0.1832 -0.1810
  822MOL0     C13352   6.141   8.756   1.016  0.8438  0.6415  0.0148
  822MOL0     C13353   5.824   8.678   0.675 -0.2485 -0.1920  0.4176
  822MOL0     C13354   5.840   8.539   0.657 -0.6179  0.2428  0.9013
  822MOL0     C13355   5.721   8.457   0.650  0.2971  0.0981  0.9423
  822MOL0     C13356   5.596   8.518   0.645 -0.0572  0.2843  0.6237
  822MOL0     O13357   5.486   8.443   0.620  0.2314  0.2038  0.5837
  822MOL0     C13358   5.483   8.307   0.638  0.4554  0.0694  0.3797
  822MOL0     C13359   5.354   8.253   0.569  0.7028  0.6033  0.5091
  822MOL0     C13360   5.346   8.299   0.421 -0.8945  1.1423 -0.3325
  822MOL0     C13361   5.204   8.349   0.383  0.0943 -0.6101 -0.0360
  822MOL0     C13362   5.106   8.247   0.414  0.4914 -0.4721 -0.4999
  822MOL0     C13363   5.018   8.168   0.445 -0.8558 -0.0243 -0.1408
  822MOL0     C13364   5.581   8.653   0.663 -1.3458 -0.7422 -0.1857
  822MOL0     C13365   5.691   8.738   0.679 -0.5002 -0.0244  0.2626
  822MOL0     C13366   5.671   8.882   0.700 -0.7575  0.8790 -0.2845
  822MOL0     H13367   6.220   8.774   0.680  2.4496 -0.9911 -0.4558
  822MOL0     H13368   6.431   8.884   0.786  1.0640  0.1850 -0.7760
  822MOL0     H13369   6.486   9.071   1.152 -1.9556 -1.3916 -0.4070
  822MOL0     H13370   6.423   9.105   1.002 -2.2381 -0.6654  1.1953
  822MOL0     H13371   6.704   9.064   1.113  0.4572  2.5935  0.4587
  822MOL0     H13372   6.686   9.026   0.945  0.0558  2.5836 -1.7967
  822MOL0     H13373   6.573   9.292   1.043 -2.7045 -1.9613 -3.0202
  822MOL0     H13374   6.755   9.272   1.025  1.0705  1.2361 -2.2165
  822MOL0     H13375   6.572   9.175   0.820  1.8462 -0.5776  0.4869
  822MOL0     H13376   6.586   9.355   0.827  4.3859  2.2869 -2.5768
  822MOL0     H13377   6.808   9.362   0.759 -1.5112  1.0088  2.0281
  822MOL0     H13378   6.741   9.247   0.649  1.2885  0.4827 -0.2797
  822MOL0     H13379   6.858   9.154   0.907 -0.5139  0.6639  0.8997
  822MOL0     H13380   6.847   9.060   0.766  0.7019  0.5340 -0.6638
  822MOL0     H13381   7.074   9.137   0.821 -0.9161 -1.4835 -0.1765
  822MOL0     H13382   7.024   9.308   0.808  0.0276  1.4679 -4.5901
  822MOL0     H13383   7.140   9.186   0.594  1.4119  0.6497  2.9097
  822MOL0     H13384   6.979   9.121   0.566  0.5640 -1.3412  0.7838
  822MOL0     H13385   7.165   9.477   0.606  0.5294 -2.0732 -0.4865
  822MOL0     H13386   6.998   9.729   0.373  2.4775 -1.9635 -2.3542
  822MOL0     H13387   7.154   9.694   0.442 -0.8794  1.6569 -2.8916
  822MOL0     H13388   7.039   9.725   0.674  3.6458  2.8993  0.6159
  822MOL0     H13389   7.056   9.867   0.579 -1.8707  1.2876  3.1696
  822MOL0     H13390   6.824   9.833   0.490 -0.3561 -0.8589 -0.2669
  822MOL0     H13391   6.816   9.680   0.580 -0.1043 -0.7538  0.4692
  822MOL0     H13392   6.804   9.969   0.653  0.5534 -0.0546 -1.0751
  822MOL0     H13393   6.685   9.845   0.701  0.0232  1.5562  2.4025
  822MOL0     H13394   6.682  10.084   0.791 -1.1238  1.3391  1.3882
  822MOL0     H13395   6.572  10.254   0.827 -2.5425 -0.6833  2.2582
  822MOL0     H13396   6.679  10.389   0.872 -0.8245  0.8723  0.4852
  822MOL0     H13397   6.573  10.311   0.994  1.4277 -0.1467  1.6205
  822MOL0     H13398   7.040  10.553   1.212  0.4694 -3.9124  0.6736
  822MOL0     H13399   7.050  10.761   1.375  0.0423  0.4376 -2.7959
  822MOL0     H13400   7.081  10.652   1.671  1.1204  0.0964 -0.7651
  822MOL0     H13401   7.106  10.828   1.688 -1.0471  1.2564 -0.6493
  822MOL0     H13402   6.939  10.869   1.848  1.3018 -0.3435  1.4451
  822MOL0     H13403   6.867  10.711   1.814  0.0692 -1.1894 -0.4615
  822MOL0     H13404   7.035  10.595   1.943 -1.1772 -0.0170  0.4350
  822MOL0     H13405   6.975  10.731   2.031  2.1250  0.5459  1.9210
  822MOL0     H13406   7.250  10.694   1.908 -2.5344 -2.4625 -0.4326
  822MOL0     H13407   7.209  10.683   2.068 -2.0656  1.2379  0.9728
  822MOL0     H13408   7.310  10.912   2.066 -1.9430  1.0022  2.6660
  822MOL0     H13409   7.249  10.917   1.902  0.5440 -2.1856 -0.6946
  822MOL0     H13410   7.106  10.952   2.182 -0.0157 -1.4013 -0.7355
  822MOL0     H13411   7.021  10.972   2.020  0.8556  0.8903 -2.7911
  822MOL0     H13412   7.252  11.145   2.149 -0.4091  0.4152 -0.6933
  822MOL0     H13413   7.084  11.188   2.111 -0.5297 -2.3140  1.3684
  822MOL0     H13414   7.146  11.159   1.865 -0.7575  1.8113  0.1702
  822MOL0     H13415   7.314  11.142   1.913 -0.8441 -0.6398 -1.0870
  822MOL0     H13416   6.772  10.576   1.631  1.3438 -1.6230  1.1723
  822MOL0     H13417   6.733  10.388   1.466 -0.3755 -0.2636 -0.2979
  822MOL0     H13418   6.972  10.121   1.180  1.4232  0.3357 -0.7493
  822MOL0     H13419   6.980   9.904   1.036 -2.0219 -2.1800 -2.7250
  822MOL0     H13420   6.254   8.813   1.175 -2.3715 -2.1902 -0.2478
  822MOL0     H13421   6.062   8.724   1.083 -0.3687 -1.4125 -2.2279
  822MOL0     H13422   5.936   8.488   0.657 -1.1603 -0.7925  0.3769
  822MOL0     H13423   5.743   8.355   0.618  3.8812  1.7183 -2.6569
  822MOL0     H13424   5.569   8.262   0.587  0.5706 -0.4855  1.0458
  822MOL0     H13425   5.482   8.279   0.744 -3.5637 -2.0914 -0.0567
  822MOL0     H13426   5.273   8.294   0.631  0.2722  3.8504 -1.8925
  822MOL0     H13427   5.346   8.144   0.574  1.5116  0.5172  0.1028
  822MOL0     H13428   5.411   8.384   0.402  0.7143 -0.5263 -2.7444
  822MOL0     H13429   5.380   8.220   0.354  0.5512  2.5411 -1.3313
  822MOL0     H13430   5.194   8.362   0.275 -2.7112 -1.1535  0.0823
  822MOL0     H13431   5.174   8.434   0.444  0.8993 -1.6120  1.8524
  822MOL0     H13432   4.941   8.101   0.480  0.5570 -1.1818  0.9178
  822MOL0     H13433   5.491   8.712   0.656 -0.1560  1.4819  1.7652
  822MOL0     H13434   5.704   8.939   0.612 -0.2714 -1.0108 -1.3893
  822MOL0     H13435   5.563   8.896   0.701 -1.5513 -3.5708 -1.4680
  822MOL0     H13436   5.725   8.907   0.792 -0.3479  0.0934 -0.3053
  823MOL0     O13437   4.716   6.400  10.200 -0.7545 -0.2975  0.3459
  823MOL0     C13438   4.723   6.527  10.191  0.6031 -0.0551  0.0829
  823MOL0     O13439   4.618   6.617  10.173 -0.4856 -0.8705 -0.1308
  823MOL0     C13440   4.504   6.583  10.106  0.2443 -0.1024 -0.0662
  823MOL0     C13441   4.504   6.473  10.004  0.2839 -0.1054 -0.9375
  823MOL0     C13442   4.390   6.446   9.924 -0.6227 -0.5644 -0.8075
  823MOL0     C13443   4.280   6.531   9.936  0.6843  0.9538 -0.3413
  823MOL0     O13444   4.185   6.519   9.838  0.6609  0.7305 -0.5863
  823MOL0     C13445   4.089   6.417   9.874 -0.6463 -0.1739  0.0373
  823MOL0     C13446   3.958   6.449   9.808  0.3650 -0.2391  0.5683
  823MOL0     C13447   3.855   6.337   9.811 -0.6306  0.4657  0.6689
  823MOL0     C13448   3.704   6.383   9.838  0.0540  0.7540 -1.2224
  823MOL0     C13449   3.608   6.386   9.721  0.5266 -0.2258  0.0065
  823MOL0     C13450   3.470   6.406   9.781  0.3910  0.4098 -0.1831
  823MOL0     C13451   3.359   6.374   9.689 -0.8948 -0.0967  0.9702
  823MOL0     C13452   3.223   6.432   9.733 -0.2575 -0.4044 -0.0657
  823MOL0     N13453   3.223   6.583   9.726  0.1240  0.1095 -0.0792
  823MOL0     C13454   3.177   6.664   9.630  0.6252 -0.3545  0.3827
  823MOL0     C13455   3.185   6.792   9.676  0.3896 -0.7082  1.1734
  823MOL0     C13456   3.185   6.912   9.598  0.4286  0.0787  0.3130
  823MOL0     C13457   3.276   7.029   9.643 -0.5834  0.7600 -0.0939
  823MOL0     C13458   3.201   7.135   9.715 -0.7437  1.0541  0.5684
  823MOL0     C13459   3.302   7.209   9.810 -0.2078 -0.0966  1.0791
  823MOL0     O13460   3.252   7.330   9.858  1.0508  0.8393  0.3813
  823MOL0     C13461   3.189   7.339   9.978 -0.1419 -0.2120 -0.1275
  823MOL0     C13462   3.073   7.403   9.987  0.3949  0.5258  0.5321
  823MOL0     C13463   2.997   7.419  10.113 -1.0283 -0.7800 -0.9714
  823MOL0     C13464   2.878   7.504  10.117 -0.0514  0.4773  0.7118
  823MOL0     C13465   3.057   7.366  10.230 -0.5408 -0.8761  0.5004
  823MOL0     C13466   2.992   7.364  10.366 -0.0634 -0.0320 -0.0266
  823MOL0     O13467   2.947   7.479  10.409 -0.1291  0.8802  0.1578
  823MOL0     C13468   2.889   7.494  10.533  0.7007 -0.6817  0.6532
  823MOL0     C13469   2.947   7.456  10.649  0.4811 -0.3103 -0.3212
  823MOL0     C13470   2.892   7.495  10.767 -0.2354 -0.9731 -1.1041
  823MOL0     C13471   2.772   7.573  10.774  0.1124  0.2262 -0.5289
  823MOL0     O13472   2.733   7.644  10.884  0.7299  0.7430 -0.6265
  823MOL0     C13473   2.805   7.629  11.002 -0.7243 -0.0548 -0.6208
  823MOL0     C13474   2.739   7.729  11.112  0.3049  0.9113  0.5646
  823MOL0     C13475   2.800   7.865  11.113 -0.3850  0.6814  0.9178
  823MOL0     C13476   2.747   7.954  11.230 -0.6381 -1.5901 -0.9090
  823MOL0     C13477   2.832   8.081  11.222  0.0908 -0.7717  0.5632
  823MOL0     C13478   2.797   8.171  11.339  0.4513  0.8537 -0.5170
  823MOL0     C13479   2.865   8.311  11.321 -0.3796  0.0371 -0.1115
  823MOL0     C13480   3.001   8.323  11.396 -0.4896  0.4881 -0.2794
  823MOL0    Cl13481   3.130   8.208  11.345  0.3417 -0.5190  0.1153
  823MOL0     C13482   2.707   7.590  10.655  0.6741 -0.2608  0.7668
  823MOL0     C13483   2.760   7.555  10.528 -0.1135 -0.6630 -0.0491
  823MOL0     O13484   2.998   7.257  10.429  0.8530  0.5277 -0.2007
  823MOL0     C13485   3.176   7.291  10.215 -0.1078  0.8137  0.2610
  823MOL0     C13486   3.238   7.271  10.090 -1.0571  0.1894 -0.1717
  823MOL0     N13487   3.231   6.786   9.806 -0.4760 -0.3007 -0.3156
  823MOL0     N13488   3.235   6.659   9.836  0.0480 -1.2511 -0.5103
  823MOL0     C13489   4.277   6.639  10.032  0.1755 -0.6654  0.1661
  823MOL0     C13490   4.388   6.671  10.107 -0.3256  0.6588 -0.7767
  823MOL0     C13491   4.861   6.582  10.221 -0.4890 -0.1773  0.0837
  823MOL0     C13492   4.879   6.702  10.303 -0.0946  1.4231  0.4144
  823MOL0     C13493   5.008   6.746  10.335 -0.1762  0.3349  0.1382
  823MOL0     C13494   5.121   6.694  10.278  0.6838  0.7569  0.1571
  823MOL0     O13495   5.244   6.756  10.276 -0.7204  0.2646  0.1230
  823MOL0     C13496   5.286   6.807  10.400  0.3980  0.8224 -0.3821
  823MOL0     C13497   5.438   6.839  10.378  0.5764  0.1926 -0.0387
  823MOL0     C13498   5.476   6.913  10.254 -0.2978 -1.0598 -0.1673
  823MOL0     C13499   5.393   7.044  10.224  0.2783  0.2431  0.3241
  823MOL0     C13500   5.368   7.129  10.341  0.3116  0.5046 -0.2113
  823MOL0     C13501   5.356   7.210  10.437  0.1677  0.1992  0.7862
  823MOL0     C13502   5.102   6.583  10.196  0.0878 -0.2892  0.6888
  823MOL0     C13503   4.982   6.522  10.171  0.9709  0.6887  0.0286
  823MOL0     C13504   4.979   6.402  10.077 -0.1893 -1.8151 -0.3752
  823MOL0     H13505   4.594   6.422   9.973 -0.8830 -0.6561 -3.6914
  823MOL0     H13506   4.396   6.371   9.846 -1.7674 -1.7413  0.1852
  823MOL0     H13507   4.068   6.426   9.981  1.7320  2.6948  0.3766
  823MOL0     H13508   4.117   6.316   9.843 -0.2142 -0.1708  0.4005
  823MOL0     H13509   3.902   6.532   9.850  0.3915  2.1938 -3.5747
  823MOL0     H13510   3.968   6.478   9.703  0.6553  0.9191  0.9041
  823MOL0     H13511   3.871   6.282   9.718 -1.4049 -0.9325  1.3359
  823MOL0     H13512   3.881   6.267   9.891  1.9275  2.8580  2.1068
  823MOL0     H13513   3.670   6.306   9.907  0.8881 -1.3472 -3.0614
  823MOL0     H13514   3.703   6.479   9.891 -4.0870 -0.9285  2.3556
  823MOL0     H13515   3.613   6.295   9.662 -1.4366 -0.6792  0.4669
  823MOL0     H13516   3.625   6.474   9.659  1.4157 -0.6851 -0.4189
  823MOL0     H13517   3.462   6.339   9.867 -0.8556  2.4600  1.4084
  823MOL0     H13518   3.461   6.507   9.824 -0.2325  0.9215 -1.4572
  823MOL0     H13519   3.329   6.269   9.686 -2.4326  0.3249  0.5527
  823MOL0     H13520   3.382   6.419   9.592  1.3004 -1.0851  0.9949
  823MOL0     H13521   3.147   6.391   9.665  0.9678  0.9896 -2.4092
  823MOL0     H13522   3.196   6.400   9.834  1.7261  2.4398  1.4947
  823MOL0     H13523   3.148   6.637   9.528  2.3279 -1.0401  0.0395
  823MOL0     H13524   3.082   6.946   9.613 -0.1256  0.1367 -2.8195
  823MOL0     H13525   3.215   6.892   9.495 -1.9832 -1.3138 -0.2087
  823MOL0     H13526   3.356   6.992   9.707 -0.2936  0.7082 -0.4843
  823MOL0     H13527   3.334   7.066   9.558  1.9883 -2.2256  0.1760
  823MOL0     H13528   3.151   7.199   9.642  0.5152  3.5770  1.7779
  823MOL0     H13529   3.140   7.081   9.789 -0.8394 -1.2353 -1.1024
  823MOL0     H13530   3.355   7.151   9.887  2.4687 -0.1519 -0.6470
  823MOL0     H13531   3.395   7.227   9.755 -1.3605  0.3430 -0.8041
  823MOL0     H13532   3.019   7.436   9.899 -0.7113 -0.1610  0.9300
  823MOL0     H13533   2.824   7.495  10.022  0.4754  0.1594  0.4391
  823MOL0     H13534   2.921   7.605  10.110 -0.4402  0.5917 -0.1470
  823MOL0     H13535   2.808   7.501  10.201 -1.4971 -0.4642 -0.4880
  823MOL0     H13536   3.030   7.386  10.645 -0.0090 -0.8631 -1.1428
  823MOL0     H13537   2.943   7.463  10.858  3.6507  0.9121 -2.3673
  823MOL0     H13538   2.815   7.527  11.038  0.1150  0.4622  0.6896
  823MOL0     H13539   2.902   7.675  10.978  0.2479 -1.7558 -0.1100
  823MOL0     H13540   2.631   7.725  11.098  0.5483 -0.7780 -1.3244
  823MOL0     H13541   2.758   7.680  11.209 -1.9423 -0.1563  0.5281
  823MOL0     H13542   2.781   7.908  11.014 -0.6933 -3.6922 -1.1584
  823MOL0     H13543   2.905   7.843  11.135 -1.1216 -0.9326  3.2489
  823MOL0     H13544   2.752   7.912  11.331  2.6889  0.8351  0.0989
  823MOL0     H13545   2.639   7.972  11.219 -0.7298 -2.0646 -0.8433
  823MOL0     H13546   2.937   8.053  11.226 -0.3711 -2.4951  2.4925
  823MOL0     H13547   2.817   8.143  11.133  2.2041  1.8560  1.8847
  823MOL0     H13548   2.830   8.132  11.436 -2.6090 -0.2419  0.2053
  823MOL0     H13549   2.688   8.172  11.344  0.4163 -1.0859 -0.1536
  823MOL0     H13550   2.797   8.387  11.362  1.3234  0.7052  1.6406
  823MOL0     H13551   2.879   8.328  11.214 -1.3647 -0.8879 -0.4067
  823MOL0     H13552   2.982   8.310  11.503 -2.2132 -0.5924 -0.6836
  823MOL0     H13553   3.042   8.424  11.388 -1.1909  1.2194  3.6111
  823MOL0     H13554   2.617   7.649  10.655  0.9047  0.1150 -0.5004
  823MOL0     H13555   2.711   7.589  10.437 -1.3430 -1.6498  0.2126
  823MOL0     H13556   3.229   7.238  10.294 -1.8646  1.2002  1.7606
  823MOL0     H13557   3.336   7.225  10.099 -0.1800  1.8705 -0.7523
  823MOL0     H13558   4.192   6.706  10.042  1.4819  0.8927  1.4743
  823MOL0     H13559   4.400   6.759  10.169  2.0921 -1.4324  2.0211
  823MOL0     H13560   4.797   6.763  10.340 -2.9426 -3.1164  2.5525
  823MOL0     H13561   5.026   6.837  10.391 -2.7558  1.0456 -0.0629
  823MOL0     H13562   5.223   6.894  10.422  1.0828  0.3850  4.1338
  823MOL0     H13563   5.276   6.736  10.482 -1.3940  0.2974 -1.0083
  823MOL0     H13564   5.491   6.745  10.361  0.8897 -0.4233  3.5476
  823MOL0     H13565   5.471   6.889  10.469 -0.0133 -1.2170  0.9786
  823MOL0     H13566   5.575   6.955  10.271 -2.6314  3.7557  4.4452
  823MOL0     H13567   5.478   6.847  10.166 -0.8046  2.0783 -2.7434
  823MOL0     H13568   5.300   7.019  10.173  1.3200 -0.8334 -1.1395
  823MOL0     H13569   5.455   7.112  10.164 -0.3023  3.3927  3.0009
  823MOL0     H13570   5.343   7.277  10.519  0.6312 -0.5655  1.5095
  823MOL0     H13571   5.196   6.563  10.146 -0.7605 -0.9574 -0.6918
  823MOL0     H13572   5.082   6.372  10.054 -0.7746 -2.6568 -1.9669
  823MOL0     H13573   4.920   6.320  10.117  0.3102 -1.5512  0.9714
  823MOL0     H13574   4.925   6.429   9.986 -1.4838 -1.7615  0.3779
  824MOL0     O13575   9.283  10.972   2.983 -0.6284  0.5738  0.5637
  824MOL0     C13576   9.171  10.982   2.934  0.2983 -1.0256 -0.5511
  824MOL0     O13577   9.137  11.050   2.822 -0.0248 -0.7065  0.0204
  824MOL0     C13578   9.237  11.121   2.759 -0.0272 -0.1775  0.5533
  824MOL0     C13579   9.319  11.206   2.834  0.4843  0.0263  0.8234
  824MOL0     C13580   9.429  11.265   2.768 -0.4858  0.2590 -1.1529
  824MOL0     C13581   9.433  11.256   2.629  0.2072  0.3204  0.1163
  824MOL0     O13582   9.534  11.322   2.561 -0.3607 -0.5020 -0.1730
  824MOL0     C13583   9.655  11.262   2.578  0.8366  0.3021 -0.5477
  824MOL0     C13584   9.736  11.314   2.456  0.9558 -0.2821  0.2340
  824MOL0     C13585   9.889  11.332   2.492 -0.4455  0.2633 -0.2677
  824MOL0     C13586   9.967  11.339   2.355 -0.5823 -0.0020 -0.4825
  824MOL0     C13587  10.106  11.420   2.368 -0.5018  0.1962 -0.4957
  824MOL0     C13588  10.186  11.390   2.493 -0.2208  0.0338  0.4865
  824MOL0     C13589  10.320  11.462   2.506 -0.6201 -0.2218 -0.2063
  824MOL0     C13590  10.423  11.434   2.391 -0.1832 -0.3925  0.0004
  824MOL0     N13591  10.489  11.295   2.423  0.7651  0.0293  0.5394
  824MOL0     C13592  10.462  11.179   2.360 -0.3967 -0.3630 -0.2232
  824MOL0     C13593  10.543  11.090   2.417 -0.2333  0.3649 -1.1021
  824MOL0     C13594  10.555  10.941   2.381 -0.3244 -0.0603  0.6467
  824MOL0     C13595  10.705  10.899   2.391 -0.3710  0.2998 -0.1665
  824MOL0     C13596  10.738  10.776   2.314  0.1825 -0.4259  0.6396
  824MOL0     C13597  10.873  10.711   2.373  0.3581 -0.3239 -0.4621
  824MOL0     O13598  10.988  10.766   2.302 -0.3527 -0.1114  0.1631
  824MOL0     C13599  11.050  10.882   2.339 -0.6759  0.8819 -0.1731
  824MOL0     C13600  11.105  10.961   2.234  0.8135  0.3391  0.1129
  824MOL0     C13601  11.177  11.082   2.256 -0.5062  0.3919 -0.6321
  824MOL0     C13602  11.241  11.141   2.133 -0.2369 -0.2638 -0.0350
  824MOL0     C13603  11.193  11.139   2.384 -1.1791  0.1288 -0.0777
  824MOL0     C13604  11.268  11.261   2.434 -0.3819  0.7039  0.3439
  824MOL0     O13605  11.282  11.285   2.567  0.8675  0.3727  0.9475
  824MOL0     C13606  11.337  11.412   2.610 -0.6702  0.0445  0.6162
  824MOL0     C13607  11.278  11.539   2.601  0.9394 -0.0768  1.1826
  824MOL0     C13608  11.337  11.655   2.649 -0.2065  0.2512  0.0368
  824MOL0     C13609  11.465  11.655   2.720 -0.8027  0.3723  0.3331
  824MOL0     O13610  11.530  11.762   2.766 -0.3252  0.0110 -0.1834
  824MOL0     C13611  11.650  11.810   2.691  0.1129 -0.0736 -0.2791
  824MOL0     C13612  11.726  11.906   2.776 -0.6275  0.1788 -0.0269
  824MOL0     C13613  11.793  11.843   2.896  0.2438  0.3801 -0.6214
  824MOL0     C13614  11.926  11.897   2.952  0.5750  0.3362  0.5843
  824MOL0     C13615  11.904  12.032   3.027  0.7744 -0.3683  1.0565
  824MOL0     C13616  11.853  12.015   3.177  0.1685 -0.2017 -0.3672
  824MOL0     C13617  11.949  11.974   3.287  0.4161 -1.2972 -1.0036
  824MOL0     C13618  11.877  11.978   3.433  0.5739 -0.7787  0.1969
  824MOL0    Cl13619  11.930  11.851   3.545  0.3807  0.2607 -0.0292
  824MOL0     C13620  11.532  11.529   2.723  0.2390 -0.3489 -1.4535
  824MOL0     C13621  11.462  11.412   2.674 -0.3339  0.3201 -0.4644
  824MOL0     O13622  11.326  11.327   2.353  0.2716  0.0304 -0.5549
  824MOL0     C13623  11.141  11.059   2.489 -0.3909 -1.1138 -0.3327
  824MOL0     C13624  11.074  10.941   2.467  1.1525  0.2900 -0.5510
  824MOL0     N13625  10.612  11.149   2.522  1.4336  1.0625  0.2970
  824MOL0     N13626  10.586  11.276   2.519 -0.2882  0.6122 -0.3372
  824MOL0     C13627   9.347  11.182   2.553 -0.0591 -0.0204 -0.7994
  824MOL0     C13628   9.240  11.111   2.622 -0.3195  0.3381 -0.3366
  824MOL0     C13629   9.064  10.916   3.015  0.2084 -0.6875  0.7301
  824MOL0     C13630   8.950  10.880   2.942  0.5558  0.6829 -1.4866
  824MOL0     C13631   8.855  10.806   3.014  0.9869  0.5681 -0.4455
  824MOL0     C13632   8.869  10.773   3.144  0.1695  0.6885 -0.9249
  824MOL0     O13633   8.765  10.693   3.199  0.8053  0.7181 -0.6457
  824MOL0     C13634   8.736  10.681   3.340 -0.2521  0.2483 -0.0365
  824MOL0     C13635   8.650  10.801   3.392 -0.2807  0.4114  0.4420
  824MOL0     C13636   8.653  10.797   3.546 -0.6201 -0.0807  1.3746
  824MOL0     C13637   8.628  10.930   3.621  0.2299  0.3085 -0.5096
  824MOL0     C13638   8.508  11.003   3.571 -1.2734  0.4079 -0.3296
  824MOL0     C13639   8.417  11.065   3.522  0.0955 -0.6997  0.1518
  824MOL0     C13640   8.977  10.827   3.211  0.9148  0.2493 -0.1775
  824MOL0     C13641   9.084  10.886   3.147  0.7244  0.1937 -0.5565
  824MOL0     C13642   9.201  10.928   3.240  0.4022 -0.0761 -0.0820
  824MOL0     H13643   9.321  11.208   2.942 -0.8883  0.9654  0.8663
  824MOL0     H13644   9.504  11.335   2.803 -1.7476 -0.0909  2.6215
  824MOL0     H13645   9.637  11.154   2.578 -2.1289  0.5221  4.2069
  824MOL0     H13646   9.697  11.295   2.674  0.1046 -0.3823  0.0176
  824MOL0     H13647   9.712  11.233   2.386  0.6239 -3.4535  3.7129
  824MOL0     H13648   9.688  11.410   2.438  0.2878 -0.6909 -0.1976
  824MOL0     H13649   9.901  11.426   2.547  1.7453 -1.6757  2.9221
  824MOL0     H13650   9.928  11.246   2.547 -1.9749 -0.4484 -0.2466
  824MOL0     H13651   9.976  11.236   2.319 -1.8469  0.0631 -1.0054
  824MOL0     H13652   9.903  11.399   2.289 -2.1153  2.3342  2.8311
  824MOL0     H13653  10.083  11.527   2.368 -1.4345  0.0070 -1.0959
  824MOL0     H13654  10.155  11.402   2.272 -1.4829 -1.0415 -0.7912
  824MOL0     H13655  10.133  11.414   2.585  0.5803 -1.4090  1.3719
  824MOL0     H13656  10.199  11.281   2.491 -0.8572 -0.0754  1.8283
  824MOL0     H13657  10.352  11.431   2.606 -1.7840  1.5965  0.7667
  824MOL0     H13658  10.302  11.570   2.506  0.3437 -0.0503 -0.2408
  824MOL0     H13659  10.365  11.427   2.298 -1.9902 -1.0175  1.1257
  824MOL0     H13660  10.490  11.520   2.385 -0.9788  0.3027  1.0098
  824MOL0     H13661  10.406  11.157   2.269  1.1485 -2.8791 -0.6799
  824MOL0     H13662  10.521  10.909   2.282 -0.1657  1.3730  0.1077
  824MOL0     H13663  10.505  10.872   2.450  3.0352 -3.9546 -0.3938
  824MOL0     H13664  10.764  10.977   2.342  2.6273 -1.2633  0.7351
  824MOL0     H13665  10.734  10.893   2.496  0.3666 -1.3304 -0.4425
  824MOL0     H13666  10.653  10.710   2.333 -2.2511  2.4809  0.5415
  824MOL0     H13667  10.742  10.804   2.208  1.2787 -0.2977  0.7082
  824MOL0     H13668  10.872  10.738   2.479 -4.1097  0.2567 -0.4770
  824MOL0     H13669  10.872  10.603   2.355  0.6420 -1.4743  4.8075
  824MOL0     H13670  11.101  10.921   2.133 -1.0268  0.9186 -0.0937
  824MOL0     H13671  11.330  11.085   2.103 -0.7776 -1.7327  1.0068
  824MOL0     H13672  11.265  11.247   2.143  1.5937 -0.7111  0.7599
  824MOL0     H13673  11.161  11.134   2.059 -0.3219  4.3513 -0.6846
  824MOL0     H13674  11.182  11.541   2.550  1.4279 -1.0866  0.1748
  824MOL0     H13675  11.291  11.750   2.626 -2.8602 -0.5436  1.5737
  824MOL0     H13676  11.721  11.733   2.657  1.9552  1.5268 -0.1966
  824MOL0     H13677  11.614  11.861   2.601 -2.5542 -2.3697 -0.6692
  824MOL0     H13678  11.802  11.945   2.708 -0.6007 -0.5338 -0.4186
  824MOL0     H13679  11.668  11.996   2.799  0.3129  0.5665  0.8703
  824MOL0     H13680  11.812  11.737   2.875  1.5229  0.3113  0.6880
  824MOL0     H13681  11.718  11.845   2.976  0.4245 -1.4519 -0.3593
  824MOL0     H13682  11.998  11.912   2.872 -0.3141  3.1198  0.1949
  824MOL0     H13683  11.970  11.838   3.033  2.8722  1.3009  0.1151
  824MOL0     H13684  11.999  12.085   3.029  0.2550  0.6537  0.0175
  824MOL0     H13685  11.831  12.091   2.970  1.8029 -1.2773 -1.3247
  824MOL0     H13686  11.772  11.941   3.183 -1.0650  0.8899 -2.3333
  824MOL0     H13687  11.812  12.114   3.197 -0.2676  0.4482 -3.8841
  824MOL0     H13688  12.042  12.032   3.290  0.5377 -1.3514 -2.7634
  824MOL0     H13689  11.967  11.867   3.273 -1.4563 -2.0559  1.7075
  824MOL0     H13690  11.773  11.950   3.414  0.9421 -2.3141  0.3848
  824MOL0     H13691  11.891  12.078   3.475  0.8599 -0.5454 -0.4352
  824MOL0     H13692  11.631  11.514   2.765 -1.2394  0.4052  2.7876
  824MOL0     H13693  11.515  11.318   2.687 -1.1904 -0.5046 -2.5296
  824MOL0     H13694  11.172  11.085   2.589 -0.1410 -3.8448  0.3928
  824MOL0     H13695  11.040  10.877   2.547 -2.6494  1.6744 -0.8369
  824MOL0     H13696   9.357  11.174   2.445 -1.6655  2.1312 -1.1743
  824MOL0     H13697   9.178  11.044   2.563  2.5476 -1.2672 -1.7417
  824MOL0     H13698   8.931  10.901   2.837 -0.1810  0.8046 -1.3363
  824MOL0     H13699   8.760  10.775   2.973  1.7998  1.6917 -3.4192
  824MOL0     H13700   8.677  10.590   3.360 -1.4344  1.1070  0.5252
  824MOL0     H13701   8.836  10.663   3.381  1.2952  1.4437 -3.0231
  824MOL0     H13702   8.549  10.789   3.352  0.9979 -2.6108 -2.3580
  824MOL0     H13703   8.682  10.894   3.344  0.6680 -1.2729 -2.4823
  824MOL0     H13704   8.602  10.707   3.583 -0.1288 -0.5311  0.9808
  824MOL0     H13705   8.758  10.773   3.570 -0.9024 -1.3215  1.4271
  824MOL0     H13706   8.718  10.990   3.604  0.3039 -0.3082 -2.6644
  824MOL0     H13707   8.609  10.912   3.727 -0.6582 -0.1636 -0.7399
  824MOL0     H13708   8.338  11.121   3.476  1.4465  0.7297 -0.4788
  824MOL0     H13709   8.993  10.818   3.317  3.8955  1.4321 -0.4319
  824MOL0     H13710   9.247  11.026   3.223  0.1041 -0.2908 -2.5137
  824MOL0     H13711   9.175  10.907   3.344  0.7209  0.4720  0.1152
  824MOL0     H13712   9.281  10.857   3.218 -0.6229 -1.0275 -0.8112
  825MOL0     O13713   8.880   6.056   3.149  0.1299 -0.2101 -0.7750
  825MOL0     C13714   8.770   6.097   3.183  0.1117 -1.1762  0.0687
  825MOL0     O13715   8.694   6.042   3.292  0.6427 -0.5376 -0.6348
  825MOL0     C13716   8.742   5.923   3.349  0.1763 -0.3726  0.0391
  825MOL0     C13717   8.667   5.812   3.363  0.5342  0.0455  0.4783
  825MOL0     C13718   8.707   5.697   3.444  0.1908  0.6356  0.2569
  825MOL0     C13719   8.844   5.691   3.489  0.4508 -0.1554  0.0778
  825MOL0     O13720   8.881   5.586   3.565 -0.2470 -0.3505 -0.1203
  825MOL0     C13721   8.970   5.610   3.679 -0.3795 -0.4990  0.3968
  825MOL0     C13722   9.112   5.540   3.667  0.4522 -0.6324  1.0951
  825MOL0     C13723   9.104   5.418   3.571 -0.2686 -0.0605  0.2566
  825MOL0     C13724   9.050   5.284   3.641  0.6486  0.0516  0.2666
  825MOL0     C13725   9.035   5.174   3.546  0.8129 -0.5514 -0.1904
  825MOL0     C13726   9.154   5.096   3.505 -0.1746 -1.0741 -0.0213
  825MOL0     C13727   9.215   5.130   3.363  0.2590 -0.2984 -0.6777
  825MOL0     C13728   9.121   5.090   3.248  0.0853  0.0163 -1.2817
  825MOL0     N13729   9.164   5.136   3.114 -0.5665 -0.0652 -0.1727
  825MOL0     C13730   9.149   5.063   3.005  0.1752 -0.4466 -0.6947
  825MOL0     C13731   9.206   5.137   2.909 -0.3151 -0.2888  0.2636
  825MOL0     C13732   9.222   5.072   2.766  0.4784 -0.0552  0.2454
  825MOL0     C13733   9.363   5.016   2.748 -0.2969  0.3039  0.3358
  825MOL0     C13734   9.413   4.912   2.851  0.2779  0.0104 -0.6832
  825MOL0     C13735   9.564   4.918   2.883 -0.0479 -0.0018 -0.3657
  825MOL0     O13736   9.598   5.056   2.931  1.1017  0.1953 -0.4921
  825MOL0     C13737   9.677   5.060   3.045 -0.3487  0.2198 -0.5012
  825MOL0     C13738   9.814   5.075   3.033  1.1383  0.6482  0.7505
  825MOL0     C13739   9.893   5.080   3.145 -0.0668  0.6784 -0.8788
  825MOL0     C13740  10.045   5.079   3.123  0.0025  1.2297 -0.4471
  825MOL0     C13741   9.835   5.086   3.281 -0.5877 -0.7232  0.4012
  825MOL0     C13742   9.915   5.090   3.405  0.2708  0.5875  0.3730
  825MOL0     O13743   9.844   5.126   3.520  0.1075 -0.4284 -0.7144
  825MOL0     C13744   9.913   5.141   3.636 -0.2669  0.2050  0.3894
  825MOL0     C13745   9.983   5.258   3.659  1.2323  0.4004  0.0206
  825MOL0     C13746  10.054   5.286   3.777 -0.6502 -0.4818  0.1288
  825MOL0     C13747  10.058   5.183   3.874 -0.1893 -0.0993 -0.5355
  825MOL0     O13748  10.134   5.191   3.992  0.0130 -0.0739  0.0539
  825MOL0     C13749  10.233   5.294   4.001 -0.3924  0.0876  0.9091
  825MOL0     C13750  10.342   5.238   4.083  0.5045  0.9218 -0.3561
  825MOL0     C13751  10.298   5.242   4.228  0.0588 -0.0182 -0.2008
  825MOL0     C13752  10.368   5.138   4.314 -0.0170  0.7608  0.7096
  825MOL0     C13753  10.347   5.168   4.461 -0.2043 -0.5186 -0.3228
  825MOL0     C13754  10.193   5.145   4.505 -0.4502 -0.8362 -1.0135
  825MOL0     C13755  10.177   5.135   4.662  0.1288 -0.0498 -0.2412
  825MOL0     C13756  10.264   5.027   4.734 -0.2887 -0.6355 -0.4682
  825MOL0    Cl13757  10.247   5.023   4.906 -0.4211 -0.3844 -0.0841
  825MOL0     C13758   9.982   5.064   3.855 -0.3980 -0.5142 -0.4151
  825MOL0     C13759   9.909   5.045   3.741  0.5903  0.2022  0.0579
  825MOL0     O13760  10.036   5.051   3.408  0.2026  0.0516 -1.0231
  825MOL0     C13761   9.694   5.077   3.287  0.4463  0.8862 -0.8820
  825MOL0     C13762   9.619   5.063   3.171 -0.3094  1.1198  0.2919
  825MOL0     N13763   9.230   5.263   2.958 -0.2677  0.1651 -0.4166
  825MOL0     N13764   9.218   5.256   3.084  0.1012 -0.4106  0.0984
  825MOL0     C13765   8.921   5.804   3.467  0.2719  0.5312 -0.0182
  825MOL0     C13766   8.873   5.921   3.407 -0.6889 -0.5486 -0.9737
  825MOL0     C13767   8.721   6.214   3.107  0.2234  0.8130 -0.3008
  825MOL0     C13768   8.658   6.189   2.982 -0.4297 -0.8844 -1.2862
  825MOL0     C13769   8.582   6.284   2.929 -0.3984 -0.1619  0.5063
  825MOL0     C13770   8.569   6.414   2.979 -0.0508  0.2545 -0.6939
  825MOL0     O13771   8.498   6.519   2.930 -0.0168  0.5847  1.1357
  825MOL0     C13772   8.415   6.486   2.818  0.4359  0.1143  0.0663
  825MOL0     C13773   8.373   6.616   2.752 -0.3615 -0.6270 -1.5020
  825MOL0     C13774   8.296   6.689   2.858  0.4204  0.0802 -0.6838
  825MOL0     C13775   8.236   6.811   2.805  0.4948 -0.8830 -0.1433
  825MOL0     C13776   8.193   6.910   2.903 -0.2971  0.2279  0.4184
  825MOL0     C13777   8.159   6.968   3.003 -0.7931 -0.0823 -0.6155
  825MOL0     C13778   8.629   6.447   3.100 -0.1138  0.0373 -0.1424
  825MOL0     C13779   8.704   6.345   3.171  0.1753  0.0615  0.5044
  825MOL0     C13780   8.751   6.370   3.308 -0.2775  0.1924 -0.9418
  825MOL0     H13781   8.567   5.809   3.321  0.4596 -0.6253  0.7063
  825MOL0     H13782   8.639   5.615   3.462  2.4414 -1.1202  1.2343
  825MOL0     H13783   8.924   5.565   3.767 -0.4857 -1.7707 -0.2858
  825MOL0     H13784   8.994   5.714   3.702  1.5480 -0.2466 -2.2180
  825MOL0     H13785   9.183   5.612   3.625 -0.4442  0.0691  0.7413
  825MOL0     H13786   9.159   5.512   3.761  3.2252  1.9003  0.6448
  825MOL0     H13787   9.053   5.423   3.475  2.0036 -2.0318 -1.1749
  825MOL0     H13788   9.207   5.398   3.540  0.3567 -0.6729  2.5075
  825MOL0     H13789   9.110   5.245   3.724 -3.3855 -1.2097  2.8478
  825MOL0     H13790   8.947   5.299   3.671  0.7126 -0.2407  0.6416
  825MOL0     H13791   8.989   5.206   3.453  1.2245  0.0220 -0.2046
  825MOL0     H13792   8.949   5.117   3.582 -2.8201  2.7298 -2.8260
  825MOL0     H13793   9.236   5.113   3.576 -1.2034 -3.3091  1.8376
  825MOL0     H13794   9.125   4.991   3.506 -3.4048 -0.2650 -0.1146
  825MOL0     H13795   9.299   5.060   3.353 -0.8096 -1.5907 -0.8349
  825MOL0     H13796   9.249   5.234   3.351 -2.0588  0.6596  0.3718
  825MOL0     H13797   9.110   4.982   3.241  1.7214 -0.1767 -1.3826
  825MOL0     H13798   9.018   5.121   3.267  0.4075 -0.0581  0.8688
  825MOL0     H13799   9.109   4.962   2.999 -1.0527  0.0355 -1.1104
  825MOL0     H13800   9.207   5.151   2.693  1.3800  2.0492  2.2069
  825MOL0     H13801   9.144   4.995   2.759 -1.0644  1.5486 -0.8175
  825MOL0     H13802   9.360   4.971   2.649  0.5949  3.3811 -1.2163
  825MOL0     H13803   9.433   5.099   2.737 -1.8964  1.5680 -0.8069
  825MOL0     H13804   9.364   4.920   2.948  5.1128 -2.2661  2.3081
  825MOL0     H13805   9.386   4.816   2.805  1.1840 -0.2649 -0.6571
  825MOL0     H13806   9.583   4.848   2.965 -1.1388 -0.1132 -0.1947
  825MOL0     H13807   9.611   4.895   2.787  2.0005  0.0663  0.5487
  825MOL0     H13808   9.849   5.088   2.931  1.3292  2.6087  1.0418
  825MOL0     H13809  10.093   5.171   3.158  2.6387  0.4596 -1.7336
  825MOL0     H13810  10.074   5.059   3.019  0.3429 -0.8821  0.0197
  825MOL0     H13811  10.095   4.996   3.174  2.2537  3.9021  2.0597
  825MOL0     H13812  10.007   5.332   3.583  1.7976  1.9360  1.6220
  825MOL0     H13813  10.108   5.378   3.797 -2.5721  0.5936  0.5276
  825MOL0     H13814  10.283   5.306   3.904 -2.3477 -1.7600 -0.4178
  825MOL0     H13815  10.202   5.389   4.047  0.3765  1.7922 -1.8547
  825MOL0     H13816  10.355   5.134   4.050 -1.5609 -0.4626  2.6702
  825MOL0     H13817  10.442   5.278   4.066  2.0114 -3.0563 -2.1086
  825MOL0     H13818  10.191   5.222   4.238  0.3415 -1.6992 -0.3784
  825MOL0     H13819  10.312   5.341   4.273 -0.5908 -0.2789  0.6040
  825MOL0     H13820  10.474   5.139   4.286 -0.9927  2.1331 -3.6233
  825MOL0     H13821  10.318   5.044   4.290  0.8902  0.6691 -0.9262
  825MOL0     H13822  10.414   5.114   4.528  1.1078  2.1141  0.6484
  825MOL0     H13823  10.380   5.271   4.478  0.7676 -1.1836  2.2212
  825MOL0     H13824  10.152   5.056   4.458 -0.7190 -0.3868 -1.6418
  825MOL0     H13825  10.134   5.222   4.454  1.1069 -0.0477 -1.6827
  825MOL0     H13826  10.080   5.101   4.701  1.4332 -1.6040  1.9057
  825MOL0     H13827  10.180   5.229   4.718  2.0578  0.3925 -1.0192
  825MOL0     H13828  10.371   5.035   4.714  0.3344  0.3138  2.7545
  825MOL0     H13829  10.225   4.931   4.697 -0.6498 -1.5481  2.0988
  825MOL0     H13830   9.963   4.996   3.937 -2.5603  0.3390 -0.1376
  825MOL0     H13831   9.844   4.961   3.723  3.1966 -2.0281  0.3511
  825MOL0     H13832   9.638   5.067   3.379  1.4149  2.2028 -0.1096
  825MOL0     H13833   9.512   5.042   3.174  0.1286 -1.6575 -0.2817
  825MOL0     H13834   9.023   5.798   3.505  0.0524 -0.8339  0.3868
  825MOL0     H13835   8.942   6.005   3.409 -1.1835 -0.0780  2.5117
  825MOL0     H13836   8.655   6.085   2.950 -3.3536 -1.2963 -0.0132
  825MOL0     H13837   8.520   6.262   2.843  0.4466 -0.6147  0.0002
  825MOL0     H13838   8.466   6.437   2.734  1.5387 -2.7373  2.2459
  825MOL0     H13839   8.326   6.425   2.835  0.7719 -1.7226 -3.7111
  825MOL0     H13840   8.304   6.591   2.671  0.9135 -0.3629 -2.7118
  825MOL0     H13841   8.461   6.667   2.711  3.0770 -3.1081  1.9988
  825MOL0     H13842   8.227   6.633   2.923  1.0061 -2.7455 -2.3243
  825MOL0     H13843   8.367   6.721   2.934 -0.6158  1.1401 -0.1286
  825MOL0     H13844   8.145   6.798   2.745  1.2449  0.9462 -1.7634
  825MOL0     H13845   8.301   6.866   2.737 -3.4503  2.3987 -1.7221
  825MOL0     H13846   8.140   7.020   3.095  1.0962  0.7740 -0.6642
  825MOL0     H13847   8.591   6.541   3.138 -2.9161 -1.2349  0.5263
  825MOL0     H13848   8.826   6.297   3.339  1.3963  1.9363 -0.7207
  825MOL0     H13849   8.804   6.465   3.319  0.6018 -0.3001 -0.8704
  825MOL0     H13850   8.664   6.370   3.374 -0.2321 -1.5920 -0.8330
  826MOL0     O13851   2.371   0.621   8.942 -0.1563  0.2477  0.8300
  826MOL0     C13852   2.451   0.536   8.889  0.7026 -0.9461 -0.1583
  826MOL0     O13853   2.444   0.407   8.909 -1.0763  0.3659  0.0452
  826MOL0     C13854   2.391   0.342   9.010  0.1035  0.5255  0.3264
  826MOL0     C13855   2.391   0.200   9.005  0.1279 -0.7761 -0.3496
  826MOL0     C13856   2.352   0.121   9.116 -0.8689 -0.3831 -0.0940
  826MOL0     C13857   2.298   0.184   9.238  0.0598  0.8337  0.0895
  826MOL0     O13858   2.256   0.099   9.338 -0.7912 -0.1871 -0.0814
  826MOL0     C13859   2.110   0.083   9.339 -0.9225  0.6795  0.0726
  826MOL0     C13860   2.069  -0.066   9.311 -0.6060  1.3712  0.9564
  826MOL0     C13861   2.153  -0.173   9.402  0.7201 -0.0198  1.3067
  826MOL0     C13862   2.116  -0.316   9.363 -0.4285 -1.0176 -0.2926
  826MOL0     C13863   2.165  -0.371   9.231 -0.2049 -0.1664  0.9515
  826MOL0     C13864   2.095  -0.498   9.191 -0.3265  0.3790 -0.1133
  826MOL0     C13865   2.184  -0.589   9.094  0.1477  1.0523 -0.7989
  826MOL0     C13866   2.159  -0.561   8.945  0.0426 -0.4800  0.3514
  826MOL0     N13867   2.273  -0.607   8.854 -0.1981 -0.1942 -0.5178
  826MOL0     C13868   2.401  -0.556   8.840  0.4131 -0.5629  0.4566
  826MOL0     C13869   2.459  -0.620   8.733  0.5455 -0.1271  1.6891
  826MOL0     C13870   2.599  -0.603   8.674 -0.0686 -0.7457 -0.4228
  826MOL0     C13871   2.618  -0.485   8.563  0.2867  0.0820  0.5480
  826MOL0     C13872   2.537  -0.351   8.609 -0.5177  0.4921  0.9781
  826MOL0     C13873   2.470  -0.280   8.480 -0.5563 -0.6730  0.1319
  826MOL0     O13874   2.416  -0.156   8.529  0.0895  0.4953 -0.0158
  826MOL0     C13875   2.311  -0.154   8.622  0.2589 -0.0085  0.1037
  826MOL0     C13876   2.274  -0.036   8.692 -0.7652  0.7434  0.8051
  826MOL0     C13877   2.167  -0.023   8.783 -0.5517  0.4339  1.0703
  826MOL0     C13878   2.133   0.113   8.831  1.2412  0.5441 -0.0515
  826MOL0     C13879   2.083  -0.135   8.813 -0.3569  0.2120 -0.0419
  826MOL0     C13880   1.957  -0.128   8.900 -0.2522  0.7062  0.0393
  826MOL0     O13881   1.890  -0.015   8.895 -0.3499 -0.2452  0.5956
  826MOL0     C13882   1.793   0.014   8.991 -0.5245  0.5140 -0.0378
  826MOL0     C13883   1.681  -0.066   9.008 -0.5638 -0.0556  0.4745
  826MOL0     C13884   1.590  -0.046   9.104 -0.1360 -0.2003  0.4881
  826MOL0     C13885   1.599   0.064   9.197 -0.3204  0.6812 -0.6297
  826MOL0     O13886   1.507   0.075   9.303 -0.0907  0.2115  0.1966
  826MOL0     C13887   1.541  -0.005   9.419  0.0776 -0.0206 -0.3518
  826MOL0     C13888   1.552   0.079   9.554 -1.0361 -0.3692 -0.2099
  826MOL0     C13889   1.418   0.135   9.599  0.6865  0.7558 -0.6263
  826MOL0     C13890   1.436   0.256   9.692 -0.3214  0.0407 -0.3544
  826MOL0     C13891   1.497   0.210   9.828  0.1853 -0.4546 -0.8441
  826MOL0     C13892   1.471   0.315   9.935  0.1564  0.3125  0.5285
  826MOL0     C13893   1.601   0.396   9.935  0.1559 -0.3220 -0.0893
  826MOL0     C13894   1.579   0.520  10.020 -0.6313 -0.6250  0.8421
  826MOL0    Cl13895   1.465   0.640   9.954 -0.0113 -0.2384 -0.2846
  826MOL0     C13896   1.705   0.154   9.177 -0.0426 -0.5436 -0.2221
  826MOL0     C13897   1.803   0.127   9.085  0.5741  0.2182  0.8145
  826MOL0     O13898   1.917  -0.238   8.951  0.1966  0.5000  0.0620
  826MOL0     C13899   2.129  -0.253   8.750 -0.4187 -0.7832  0.2324
  826MOL0     C13900   2.234  -0.258   8.658 -0.4582  0.4470 -0.9391
  826MOL0     N13901   2.371  -0.720   8.691 -0.0455  0.0279  0.9777
  826MOL0     N13902   2.258  -0.707   8.755 -0.1167 -0.7338 -0.9126
  826MOL0     C13903   2.280   0.324   9.232 -0.8119  0.9857  0.2249
  826MOL0     C13904   2.334   0.397   9.125 -0.5216  0.2405 -0.1261
  826MOL0     C13905   2.547   0.586   8.779  0.0118 -0.2951  0.1699
  826MOL0     C13906   2.637   0.481   8.735  1.1187 -0.9187 -0.4539
  826MOL0     C13907   2.724   0.506   8.628 -0.7704 -0.4124  0.6873
  826MOL0     C13908   2.725   0.622   8.565  0.0966 -0.4884  1.0611
  826MOL0     O13909   2.821   0.644   8.470  1.6614  0.1220 -0.2149
  826MOL0     C13910   2.766   0.700   8.341 -0.8399  0.2377 -0.6704
  826MOL0     C13911   2.866   0.639   8.236  0.2642 -0.6174  0.2620
  826MOL0     C13912   2.826   0.690   8.091  0.4074 -0.0912  0.6123
  826MOL0     C13913   2.893   0.613   7.969 -0.0006 -0.7106 -0.3664
  826MOL0     C13914   3.045   0.600   7.992 -0.8687 -0.4567 -0.3895
  826MOL0     C13915   3.165   0.598   8.015  0.5489 -1.1839 -0.3353
  826MOL0     C13916   2.630   0.719   8.601  0.8285 -0.4233  0.3226
  826MOL0     C13917   2.545   0.708   8.714  0.1692 -1.0829  0.0528
  826MOL0     C13918   2.481   0.837   8.765 -0.4696  0.2325 -0.2812
  826MOL0     H13919   2.429   0.162   8.911 -1.8298 -2.8801 -0.3852
  826MOL0     H13920   2.357   0.012   9.115  0.4944 -0.3480  0.5963
  826MOL0     H13921   2.069   0.147   9.261 -1.4369  0.3453  0.0631
  826MOL0     H13922   2.081   0.124   9.436 -2.3710  3.7526 -1.5115
  826MOL0     H13923   1.960  -0.069   9.324 -0.9584 -1.5696 -1.4080
  826MOL0     H13924   2.081  -0.083   9.203 -3.2958  2.2652  0.4224
  826MOL0     H13925   2.260  -0.158   9.386  0.3661  1.1762 -0.1350
  826MOL0     H13926   2.138  -0.152   9.508 -1.7909 -1.0667  1.2198
  826MOL0     H13927   2.154  -0.383   9.441  1.1755  1.1345  0.9156
  826MOL0     H13928   2.007  -0.325   9.358 -0.3801 -0.9283 -3.1064
  826MOL0     H13929   2.275  -0.378   9.233 -0.2011 -1.5045 -1.0473
  826MOL0     H13930   2.138  -0.298   9.154  1.3515 -0.4035  0.1160
  826MOL0     H13931   2.076  -0.556   9.282  0.5665 -2.0661 -1.3782
  826MOL0     H13932   1.996  -0.469   9.154  1.1155  2.9480 -2.3373
  826MOL0     H13933   2.174  -0.696   9.116  1.2826  0.5207 -2.6210
  826MOL0     H13934   2.290  -0.571   9.113  0.6827 -0.7196 -1.8937
  826MOL0     H13935   2.068  -0.605   8.903 -0.5201  1.0261 -0.0427
  826MOL0     H13936   2.147  -0.453   8.944 -2.6481 -0.6807 -2.4688
  826MOL0     H13937   2.451  -0.494   8.914  2.6602 -0.8291 -0.7456
  826MOL0     H13938   2.649  -0.697   8.646  0.8170  0.0789 -1.7301
  826MOL0     H13939   2.655  -0.560   8.757 -4.3703  1.9530  1.4114
  826MOL0     H13940   2.726  -0.470   8.547 -0.0363  2.0745 -0.1467
  826MOL0     H13941   2.592  -0.517   8.462 -0.1768  1.4144  0.2171
  826MOL0     H13942   2.458  -0.366   8.683 -1.8969 -1.9165 -0.8538
  826MOL0     H13943   2.617  -0.290   8.651 -0.6333  0.9320  0.5695
  826MOL0     H13944   2.553  -0.263   8.410 -0.6438  5.5771  0.9222
  826MOL0     H13945   2.389  -0.331   8.427 -1.1390 -1.9926  2.1825
  826MOL0     H13946   2.322   0.060   8.674 -0.0113  0.8799  3.2696
  826MOL0     H13947   2.195   0.198   8.801  0.7837  1.6598  1.9710
  826MOL0     H13948   2.104   0.121   8.936 -1.1929  1.5958 -0.7376
  826MOL0     H13949   2.041   0.130   8.776  0.9797  0.7578  0.4442
  826MOL0     H13950   1.656  -0.153   8.947 -1.6073  1.2943 -1.1001
  826MOL0     H13951   1.508  -0.113   9.125 -0.4073  0.2403  0.8481
  826MOL0     H13952   1.462  -0.081   9.418  1.5530 -1.6353 -0.7635
  826MOL0     H13953   1.626  -0.074   9.415  1.8237  1.8261  2.0465
  826MOL0     H13954   1.591   0.025   9.641  0.0262  3.1268  1.7073
  826MOL0     H13955   1.625   0.160   9.543  4.6670 -4.6425  1.2593
  826MOL0     H13956   1.354   0.059   9.644 -0.2430 -0.1371 -3.2958
  826MOL0     H13957   1.365   0.173   9.512 -1.3027 -0.8411 -0.1840
  826MOL0     H13958   1.335   0.292   9.713  0.2784  0.9726  1.0612
  826MOL0     H13959   1.488   0.339   9.643 -2.8308  0.4054 -2.6417
  826MOL0     H13960   1.449   0.124   9.875  1.4473  0.5371  2.5396
  826MOL0     H13961   1.604   0.195   9.816  0.2664 -4.4149  2.5754
  826MOL0     H13962   1.466   0.258  10.028  2.1040  1.4866  1.4095
  826MOL0     H13963   1.375   0.366   9.924 -0.2608 -0.8289 -1.6518
  826MOL0     H13964   1.638   0.414   9.833 -1.9011  2.8626 -0.3874
  826MOL0     H13965   1.672   0.332   9.989  1.9743  1.4589 -0.2480
  826MOL0     H13966   1.675   0.572  10.010  0.6244 -2.7603  1.2842
  826MOL0     H13967   1.557   0.500  10.125  1.9747 -2.0281  1.1953
  826MOL0     H13968   1.734   0.233   9.245 -1.3717 -2.2644  2.5103
  826MOL0     H13969   1.890   0.192   9.081 -1.1833  2.6380 -0.9575
  826MOL0     H13970   2.085  -0.351   8.765  0.4130 -1.2928 -0.5587
  826MOL0     H13971   2.265  -0.355   8.622 -0.3042  0.3391 -0.5219
  826MOL0     H13972   2.239   0.381   9.315  1.6729  4.4690 -0.7277
  826MOL0     H13973   2.330   0.503   9.148  0.2917  0.0247  1.1470
  826MOL0     H13974   2.637   0.382   8.781  2.0554 -1.5772 -1.8242
  826MOL0     H13975   2.792   0.436   8.581 -0.1612  1.7887 -1.9272
  826MOL0     H13976   2.661   0.677   8.321 -0.6334 -0.1979 -1.2838
  826MOL0     H13977   2.782   0.806   8.360  4.6131 -0.8239  3.1387
  826MOL0     H13978   2.863   0.530   8.227  1.6725 -1.0122  3.1526
  826MOL0     H13979   2.969   0.670   8.254  0.3232 -1.5543  1.6874
  826MOL0     H13980   2.718   0.692   8.074  0.5093 -1.5069 -0.4086
  826MOL0     H13981   2.857   0.795   8.082 -0.9453  0.3705  1.0464
  826MOL0     H13982   2.859   0.639   7.869 -0.3364 -1.7274 -0.5305
  826MOL0     H13983   2.841   0.517   7.977 -0.7991 -0.1409  3.1141
  826MOL0     H13984   3.262   0.638   8.037 -0.4384 -0.5366  3.6377
  826MOL0     H13985   2.621   0.820   8.560 -2.7650 -1.1893 -1.1923
  826MOL0     H13986   2.400   0.868   8.697 -1.2837  0.0299  0.5722
  826MOL0     H13987   2.449   0.833   8.870 -2.3342 -2.2396 -0.8519
  826MOL0     H13988   2.565   0.907   8.765  0.3284 -0.5844 -3.6199
  827MOL0     O13989   5.884   4.067   7.202 -0.3551 -0.5789  1.1602
  827MOL0     C13990   5.857   4.074   7.320  0.4629  1.3116 -0.6140
  827MOL0     O13991   5.947   4.034   7.424 -0.3466 -0.0701 -0.2041
  827MOL0     C13992   6.079   4.007   7.413 -0.8871 -0.3471  0.1699
  827MOL0     C13993   6.164   4.010   7.297 -0.1795 -0.1408 -0.3336
  827MOL0     C13994   6.294   3.970   7.310 -0.3243 -0.7930  0.3402
  827MOL0     C13995   6.358   3.944   7.434  0.7685 -1.1910  0.2461
  827MOL0     O13996   6.489   3.884   7.440  0.9368 -0.5093  0.1076
  827MOL0     C13997   6.557   3.879   7.569 -0.3730 -0.1057  0.1563
  827MOL0     C13998   6.710   3.837   7.534  0.9527  0.7734  0.1789
  827MOL0     C13999   6.769   3.952   7.456 -0.4968  0.4268 -0.1593
  827MOL0     C14000   6.922   3.925   7.452 -0.1008  0.9436 -0.3776
  827MOL0     C14001   7.003   4.029   7.380 -0.2841  0.0144 -0.0097
  827MOL0     C14002   6.981   4.026   7.228 -0.5684 -0.1731  0.1784
  827MOL0     C14003   7.032   4.140   7.139 -0.8019  0.2661 -0.4649
  827MOL0     C14004   7.185   4.120   7.113 -0.5798  0.4453 -0.1594
  827MOL0     N14005   7.246   4.240   7.072 -0.1994 -0.6779  0.3202
  827MOL0     C14006   7.300   4.256   6.952 -0.6959  0.5417 -0.3317
  827MOL0     C14007   7.407   4.343   6.967  1.0850 -0.3448  0.4004
  827MOL0     C14008   7.503   4.387   6.858  0.4310  0.3294  0.0931
  827MOL0     C14009   7.433   4.447   6.729 -0.6436  1.0254 -0.1876
  827MOL0     C14010   7.414   4.597   6.738 -1.2092 -0.6377 -0.6744
  827MOL0     C14011   7.365   4.663   6.608  0.3137 -0.7561  0.1607
  827MOL0     O14012   7.465   4.635   6.504 -0.4633 -0.3176 -0.1082
  827MOL0     C14013   7.582   4.686   6.516 -1.0314 -0.9948 -0.0790
  827MOL0     C14014   7.622   4.798   6.581  0.4219 -0.1365 -0.6437
  827MOL0     C14015   7.758   4.821   6.597 -0.3071 -0.3028  1.0565
  827MOL0     C14016   7.798   4.925   6.695  0.7741 -0.5936  0.2474
  827MOL0     C14017   7.858   4.736   6.538 -0.1110 -0.1521 -0.5587
  827MOL0     C14018   7.995   4.756   6.562  0.2453  0.2552  0.9939
  827MOL0     O14019   8.055   4.802   6.453 -0.3364  0.1555  0.1056
  827MOL0     C14020   8.189   4.823   6.444 -1.1147 -0.1522  0.4750
  827MOL0     C14021   8.295   4.785   6.523 -1.1135  0.1292 -0.0675
  827MOL0     C14022   8.423   4.842   6.504  0.6883 -1.0697  0.3269
  827MOL0     C14023   8.441   4.949   6.410 -0.0696  0.0469  0.4945
  827MOL0     O14024   8.575   4.981   6.390  0.3345  0.6609 -0.2264
  827MOL0     C14025   8.607   5.103   6.341  0.4297  0.9535  0.3902
  827MOL0     C14026   8.584   5.224   6.435  0.7114 -0.2639 -0.5033
  827MOL0     C14027   8.610   5.352   6.365 -0.1425  0.3139 -0.4649
  827MOL0     C14028   8.532   5.383   6.231 -0.9269  1.1022 -0.5427
  827MOL0     C14029   8.555   5.529   6.183  0.1238 -0.9384 -0.6181
  827MOL0     C14030   8.489   5.569   6.058  0.4535 -0.2461  0.6181
  827MOL0     C14031   8.338   5.601   6.065  0.0812  0.9613 -0.2203
  827MOL0     C14032   8.274   5.633   5.931  0.4465  0.0869 -0.3400
  827MOL0    Cl14033   8.342   5.772   5.871 -0.6674 -0.3472  0.2033
  827MOL0     C14034   8.331   4.995   6.339  0.1135 -0.2188 -0.2458
  827MOL0     C14035   8.215   4.928   6.355 -0.7832 -0.4562  0.3025
  827MOL0     O14036   8.047   4.746   6.669  0.4869 -0.6872  0.2700
  827MOL0     C14037   7.815   4.628   6.458  0.1342  0.1266  0.2503
  827MOL0     C14038   7.676   4.603   6.450 -0.0990 -0.0629 -0.1831
  827MOL0     N14039   7.405   4.379   7.099 -0.4081 -0.7086  0.4166
  827MOL0     N14040   7.307   4.328   7.160  0.0763 -1.0785 -0.0218
  827MOL0     C14041   6.276   3.960   7.551  0.6405 -0.0338 -0.9236
  827MOL0     C14042   6.142   4.001   7.542  0.9714  0.2696 -0.1545
  827MOL0     C14043   5.723   4.125   7.374 -0.1200  0.0203 -0.9743
  827MOL0     C14044   5.693   4.121   7.510 -0.2758  0.6752 -0.7181
  827MOL0     C14045   5.570   4.175   7.561  0.6693  0.1654 -0.3465
  827MOL0     C14046   5.481   4.235   7.463 -0.0768  0.9819  0.7006
  827MOL0     O14047   5.346   4.269   7.487 -0.1536 -0.7735  0.8133
  827MOL0     C14048   5.240   4.184   7.439  0.5185 -0.5190  0.2053
  827MOL0     C14049   5.217   4.067   7.526 -0.2021 -0.2497 -0.4041
  827MOL0     C14050   5.159   4.096   7.666  0.0591  0.1884 -0.5763
  827MOL0     C14051   5.072   3.979   7.721 -0.8838 -1.2403 -0.2602
  827MOL0     C14052   5.154   3.860   7.719  0.0403 -0.2023 -1.1983
  827MOL0     C14053   5.219   3.758   7.698 -0.0214 -1.5946 -0.6842
  827MOL0     C14054   5.517   4.245   7.335 -0.6665 -0.6630  0.2353
  827MOL0     C14055   5.637   4.199   7.286  0.4104  0.4420 -0.2823
  827MOL0     C14056   5.651   4.204   7.130 -1.0709 -0.2050 -0.1300
  827MOL0     H14057   6.119   4.020   7.199 -0.8464  1.7226  0.1289
  827MOL0     H14058   6.343   3.963   7.214 -0.6415  0.8695  0.0268
  827MOL0     H14059   6.512   3.797   7.626 -0.6417 -0.6018 -0.7627
  827MOL0     H14060   6.542   3.973   7.625  0.0771  0.1509 -0.1519
  827MOL0     H14061   6.757   3.830   7.633  3.6128 -1.4960 -1.1100
  827MOL0     H14062   6.716   3.747   7.472  1.5182  0.9956 -0.0948
  827MOL0     H14063   6.722   3.981   7.362  0.0893 -2.8167 -1.5565
  827MOL0     H14064   6.758   4.046   7.511  0.3330  0.2726  0.2907
  827MOL0     H14065   6.946   3.928   7.559 -4.0473  2.4154  0.6499
  827MOL0     H14066   6.942   3.826   7.410 -1.3477  0.1918  0.7164
  827MOL0     H14067   7.103   3.990   7.402 -0.5421 -0.5018  0.2675
  827MOL0     H14068   6.978   4.121   7.434 -1.5157 -0.5497  0.4119
  827MOL0     H14069   7.014   3.929   7.190  0.2071  0.3934 -0.6485
  827MOL0     H14070   6.873   4.027   7.213 -0.4788  3.2692 -1.2452
  827MOL0     H14071   6.998   4.231   7.189 -0.5578 -1.1372  2.4369
  827MOL0     H14072   6.974   4.118   7.049 -2.6680 -0.8934  0.9648
  827MOL0     H14073   7.230   4.079   7.204  3.8282  2.5669 -1.1327
  827MOL0     H14074   7.202   4.038   7.042 -1.0998  1.0860 -1.0336
  827MOL0     H14075   7.285   4.198   6.862  5.1126 -2.6384  0.2958
  827MOL0     H14076   7.562   4.297   6.840 -0.8911 -0.1983 -1.9087
  827MOL0     H14077   7.580   4.460   6.883  1.6508  0.6463 -3.8676
  827MOL0     H14078   7.497   4.438   6.641 -3.8539  1.5777 -2.7519
  827MOL0     H14079   7.334   4.409   6.705  0.4937 -2.6694  0.3782
  827MOL0     H14080   7.335   4.619   6.811 -0.5085 -0.7821  0.1519
  827MOL0     H14081   7.510   4.639   6.769 -0.4892 -0.6018 -2.8440
  827MOL0     H14082   7.275   4.611   6.573  1.2591 -0.7645 -2.4304
  827MOL0     H14083   7.345   4.770   6.615  0.8452 -0.7099  1.2452
  827MOL0     H14084   7.549   4.868   6.620  1.1644  1.2873 -1.7070
  827MOL0     H14085   7.838   4.872   6.782  0.5049  1.9634  2.0489
  827MOL0     H14086   7.712   4.983   6.730 -0.0143 -0.5409 -1.6609
  827MOL0     H14087   7.877   4.992   6.660  2.3219 -0.2366  3.9702
  827MOL0     H14088   8.290   4.699   6.589  0.5145  0.2239  0.2253
  827MOL0     H14089   8.509   4.806   6.561 -0.1983 -1.0126  1.7516
  827MOL0     H14090   8.712   5.098   6.312 -0.3436 -0.0045 -2.5467
  827MOL0     H14091   8.544   5.110   6.252  0.7461  1.2567  0.1886
  827MOL0     H14092   8.486   5.215   6.482  0.8779 -0.5275 -0.1964
  827MOL0     H14093   8.653   5.217   6.520  2.1640 -1.7863 -1.7509
  827MOL0     H14094   8.716   5.352   6.338 -0.8277 -1.8944 -3.8905
  827MOL0     H14095   8.585   5.433   6.434 -0.0973 -0.4101  0.4224
  827MOL0     H14096   8.430   5.349   6.250 -0.7999  1.2197  0.3677
  827MOL0     H14097   8.577   5.322   6.151  0.9032 -2.0585  2.6276
  827MOL0     H14098   8.538   5.605   6.260  1.0589  0.3591 -1.6469
  827MOL0     H14099   8.658   5.534   6.146  0.3353  2.0603  0.1383
  827MOL0     H14100   8.503   5.502   5.972  2.1584 -1.1198  1.5312
  827MOL0     H14101   8.544   5.652   6.014 -1.0851  0.5350  0.0859
  827MOL0     H14102   8.329   5.696   6.117 -2.3097  1.2430 -1.0433
  827MOL0     H14103   8.286   5.512   6.103  0.7978 -0.2815 -1.9806
  827MOL0     H14104   8.167   5.657   5.939  0.2173 -1.3303  1.9478
  827MOL0     H14105   8.287   5.546   5.867  0.2337 -0.2071  0.0119
  827MOL0     H14106   8.347   5.076   6.269 -0.2184  0.3217  0.2876
  827MOL0     H14107   8.120   4.957   6.310 -0.4176 -1.3323 -1.0837
  827MOL0     H14108   7.889   4.559   6.419  1.0679  1.2360  0.0206
  827MOL0     H14109   7.650   4.508   6.405  0.9695 -1.0382  1.1694
  827MOL0     H14110   6.313   3.936   7.650 -2.5461  0.3637  0.4922
  827MOL0     H14111   6.086   4.010   7.635 -0.9589  0.4784 -1.3052
  827MOL0     H14112   5.756   4.072   7.583 -1.4974 -0.1948 -0.2029
  827MOL0     H14113   5.543   4.182   7.666  1.0593  0.7600 -0.2833
  827MOL0     H14114   5.144   4.235   7.426  1.1593  0.1339 -2.5200
  827MOL0     H14115   5.272   4.151   7.340 -0.8380 -2.9163  0.5009
  827MOL0     H14116   5.315   4.025   7.549 -0.6594 -2.2283 -1.7906
  827MOL0     H14117   5.167   3.996   7.458  1.0964 -1.6929  0.0916
  827MOL0     H14118   5.243   4.118   7.733  0.2362 -0.3718 -0.6063
  827MOL0     H14119   5.092   4.182   7.654 -2.6725 -1.8491 -0.9381
  827MOL0     H14120   4.992   3.979   7.647 -0.8757 -1.5332 -0.2708
  827MOL0     H14121   5.021   4.001   7.815 -1.1476 -1.4134 -0.3645
  827MOL0     H14122   5.272   3.667   7.677 -1.9103 -3.9560  3.5413
  827MOL0     H14123   5.439   4.282   7.268  0.1987 -0.9956 -0.9815
  827MOL0     H14124   5.641   4.100   7.095  0.7997 -0.1106 -1.1128
  827MOL0     H14125   5.570   4.264   7.088 -1.4257  0.1376  1.0328
  827MOL0     H14126   5.746   4.255   7.110 -0.2618 -1.7435 -0.4753
  828MOL0     O14127   2.745   7.475   2.381 -0.3997  0.4819  0.7026
  828MOL0     C14128   2.652   7.451   2.298 -0.3482 -0.1374  0.3078
  828MOL0     O14129   2.574   7.337   2.291 -0.1130 -0.6352 -0.1301
  828MOL0     C14130   2.595   7.248   2.394  0.3178 -1.0063 -0.6266
  828MOL0     C14131   2.610   7.276   2.534  0.0049  0.8352  0.2708
  828MOL0     C14132   2.607   7.165   2.627  0.4392  0.2601  0.3658
  828MOL0     C14133   2.604   7.031   2.579 -0.3147  1.5056 -0.6553
  828MOL0     O14134   2.597   6.922   2.658 -0.0008 -0.0778 -0.3802
  828MOL0     C14135   2.713   6.848   2.652 -0.0761  0.1755 -0.3798
  828MOL0     C14136   2.742   6.805   2.800  0.5619 -0.0743 -0.6779
  828MOL0     C14137   2.846   6.897   2.882  0.1730  1.0068  0.9664
  828MOL0     C14138   2.783   7.009   2.949 -1.3076  0.0366 -0.9016
  828MOL0     C14139   2.887   7.109   2.997  0.7146 -0.1206 -0.5407
  828MOL0     C14140   2.949   7.191   2.886  0.1316  0.2871  0.0698
  828MOL0     C14141   3.059   7.286   2.932  0.4881  0.6482 -0.5112
  828MOL0     C14142   3.107   7.385   2.824  0.4678  0.4548 -0.3794
  828MOL0     N14143   3.200   7.481   2.884 -0.0848 -0.9843  0.4077
  828MOL0     C14144   3.318   7.455   2.948  0.6882 -0.2822 -0.0432
  828MOL0     C14145   3.385   7.573   2.963 -0.0316  0.8828 -0.0646
  828MOL0     C14146   3.517   7.576   3.027 -0.5441  0.7016 -0.7542
  828MOL0     C14147   3.627   7.555   2.925  0.2481 -1.0171  1.2579
  828MOL0     C14148   3.771   7.594   2.979  0.9495 -0.1385  0.0765
  828MOL0     C14149   3.846   7.483   3.050 -0.1319  1.0422  0.0901
  828MOL0     O14150   3.916   7.546   3.159  0.4303  0.7919  0.8388
  828MOL0     C14151   3.992   7.478   3.256 -0.1582  0.2976  0.9195
  828MOL0     C14152   4.013   7.341   3.251  0.2774  0.2580 -0.3808
  828MOL0     C14153   4.090   7.276   3.351 -0.4846 -0.6633 -0.7973
  828MOL0     C14154   4.120   7.128   3.330  0.9284  0.0420 -0.1697
  828MOL0     C14155   4.147   7.352   3.464 -0.2826 -0.0059  0.6234
  828MOL0     C14156   4.225   7.292   3.568 -0.4157 -0.7912 -0.0854
  828MOL0     O14157   4.333   7.212   3.541 -0.2174 -0.4663  0.0151
  828MOL0     C14158   4.401   7.147   3.644 -0.1026  0.7678 -0.2763
  828MOL0     C14159   4.539   7.159   3.644 -0.1738  0.1411  0.5339
  828MOL0     C14160   4.622   7.099   3.736 -0.2580 -0.2304 -0.1028
  828MOL0     C14161   4.564   7.029   3.839 -0.3336 -0.5230  0.2481
  828MOL0     O14162   4.647   6.974   3.935 -0.2526  0.4095 -1.1263
  828MOL0     C14163   4.602   6.852   4.003 -0.2864  0.1042  0.8287
  828MOL0     C14164   4.568   6.740   3.898 -0.6207 -0.8944  0.9246
  828MOL0     C14165   4.693   6.668   3.851 -0.2321 -0.3166  0.6442
  828MOL0     C14166   4.784   6.609   3.970 -0.7712 -0.4873  0.0895
  828MOL0     C14167   4.862   6.487   3.905  0.7122 -0.3937 -0.0389
  828MOL0     C14168   4.966   6.421   3.996  0.1298  1.1896  0.9194
  828MOL0     C14169   4.948   6.410   4.139 -0.1536 -0.4521  0.0679
  828MOL0     C14170   5.046   6.308   4.194 -0.2802  0.1778 -0.5444
  828MOL0    Cl14171   5.072   6.341   4.372  0.7038 -0.2717  0.3393
  828MOL0     C14172   4.416   7.016   3.845  0.5524 -1.0315 -0.3940
  828MOL0     C14173   4.336   7.073   3.746  0.4731 -1.0389 -0.2078
  828MOL0     O14174   4.176   7.320   3.679  0.5909 -0.6660  0.1496
  828MOL0     C14175   4.128   7.487   3.459  0.6602  0.1481 -0.3683
  828MOL0     C14176   4.051   7.546   3.365  0.5184 -0.4885  0.4120
  828MOL0     N14177   3.306   7.673   2.898 -0.7222  0.1009  0.5830
  828MOL0     N14178   3.207   7.610   2.841  0.9019  0.4481 -0.6535
  828MOL0     C14179   2.595   7.015   2.441  0.4914 -0.4681  1.1496
  828MOL0     C14180   2.569   7.122   2.348  0.0105  0.0403 -0.8223
  828MOL0     C14181   2.618   7.571   2.213  0.5286 -0.5117  0.1967
  828MOL0     C14182   2.481   7.584   2.188  0.4592 -1.3458  1.0515
  828MOL0     C14183   2.442   7.691   2.094 -0.2727 -1.7202 -0.4489
  828MOL0     C14184   2.532   7.784   2.029  0.5273  0.3815  0.6279
  828MOL0     O14185   2.468   7.881   1.949 -0.8879  0.4556  0.1982
  828MOL0     C14186   2.532   7.989   1.891 -0.6620  0.2798 -0.2576
  828MOL0     C14187   2.436   8.104   1.920 -0.9372 -0.7183 -0.1757
  828MOL0     C14188   2.470   8.233   1.845 -0.0881  0.0719 -0.3591
  828MOL0     C14189   2.362   8.331   1.836 -0.6574  0.1030  0.7146
  828MOL0     C14190   2.257   8.271   1.756 -0.1778  0.5017  0.2586
  828MOL0     C14191   2.168   8.207   1.693 -0.5452  0.9238 -0.0617
  828MOL0     C14192   2.672   7.765   2.051  0.3691  0.3702 -0.5905
  828MOL0     C14193   2.718   7.661   2.150  0.4005 -0.3070  0.5669
  828MOL0     C14194   2.859   7.658   2.186 -0.8610  0.0410  0.3369
  828MOL0     H14195   2.618   7.373   2.582  1.2708  1.2883 -0.7944
  828MOL0     H14196   2.600   7.176   2.734 -1.4070  0.4735  0.2519
  828MOL0     H14197   2.802   6.898   2.614 -0.1934  0.0232 -0.8740
  828MOL0     H14198   2.687   6.758   2.595 -2.8558  0.1582  0.7651
  828MOL0     H14199   2.646   6.807   2.851  0.4275 -1.7832 -0.8112
  828MOL0     H14200   2.780   6.703   2.800  1.7610  0.3298  0.6812
  828MOL0     H14201   2.886   6.825   2.954 -2.1429 -0.2311  1.1028
  828MOL0     H14202   2.928   6.918   2.814  3.3187 -0.0225  4.1355
  828MOL0     H14203   2.721   7.056   2.871 -2.0295 -1.4970 -1.2797
  828MOL0     H14204   2.716   6.975   3.028 -0.4674 -0.1782 -0.2722
  828MOL0     H14205   2.954   7.059   3.068  0.1793 -0.1945 -0.0753
  828MOL0     H14206   2.830   7.176   3.062 -2.5467 -1.1614 -2.0864
  828MOL0     H14207   3.011   7.118   2.832  2.4274  3.3586 -1.7842
  828MOL0     H14208   2.879   7.246   2.823  0.8986 -2.0567 -3.0694
  828MOL0     H14209   3.144   7.230   2.971 -0.3029 -1.5308 -1.7587
  828MOL0     H14210   3.009   7.351   3.004  1.0208 -0.2848  0.7280
  828MOL0     H14211   3.163   7.331   2.747  2.3391  2.0581 -0.2326
  828MOL0     H14212   3.021   7.433   2.776 -0.5700  0.0146  1.0050
  828MOL0     H14213   3.344   7.355   2.983 -1.3043 -0.5397  0.8891
  828MOL0     H14214   3.519   7.508   3.113  0.2022  1.1670 -0.3988
  828MOL0     H14215   3.531   7.670   3.081 -2.6266 -1.7654  4.9168
  828MOL0     H14216   3.631   7.449   2.899  1.7590 -1.3508  2.7037
  828MOL0     H14217   3.600   7.624   2.844  2.0358 -0.6401  0.9528
  828MOL0     H14218   3.832   7.627   2.894  3.1304 -2.0264  0.8203
  828MOL0     H14219   3.764   7.676   3.052 -1.4575  0.7162 -1.0022
  828MOL0     H14220   3.786   7.397   3.080  0.5786 -0.0160 -1.3724
  828MOL0     H14221   3.922   7.444   2.982 -2.0460 -3.3348  0.1552
  828MOL0     H14222   3.967   7.289   3.168 -0.3476  1.2502 -0.6735
  828MOL0     H14223   4.027   7.081   3.297  0.0830  0.6748  1.2287
  828MOL0     H14224   4.136   7.078   3.426 -0.0767  3.0289  1.7010
  828MOL0     H14225   4.199   7.100   3.261  0.5984 -2.7777  0.4858
  828MOL0     H14226   4.583   7.217   3.563  0.1570 -0.8749 -0.0377
  828MOL0     H14227   4.729   7.114   3.723 -0.5835  0.1237 -3.1756
  828MOL0     H14228   4.676   6.820   4.077  0.0069  1.6211  1.2411
  828MOL0     H14229   4.510   6.874   4.057 -1.5092  0.3116 -1.2234
  828MOL0     H14230   4.499   6.679   3.957 -0.9665  0.6819  2.2330
  828MOL0     H14231   4.500   6.776   3.821  0.1446 -2.7793 -0.7262
  828MOL0     H14232   4.763   6.732   3.796 -1.6858  3.0936  2.4246
  828MOL0     H14233   4.663   6.593   3.777  2.4201 -0.1814 -0.7009
  828MOL0     H14234   4.719   6.589   4.056 -2.7108 -2.8116 -1.7917
  828MOL0     H14235   4.854   6.690   3.990 -0.9272  0.1775 -1.8447
  828MOL0     H14236   4.785   6.416   3.873 -0.7799  1.4749 -0.8193
  828MOL0     H14237   4.922   6.522   3.821  1.0915  3.5878  1.6695
  828MOL0     H14238   5.056   6.483   3.990  1.7169 -1.0665 -0.9186
  828MOL0     H14239   4.999   6.330   3.945  1.4690  2.8338 -1.3489
  828MOL0     H14240   4.848   6.370   4.160 -1.8533  2.4270 -1.9416
  828MOL0     H14241   4.968   6.502   4.195  3.5192 -1.6496  1.0312
  828MOL0     H14242   5.142   6.319   4.141 -0.7899 -0.8148 -1.7429
  828MOL0     H14243   5.006   6.207   4.182  0.9283 -0.2145 -1.4791
  828MOL0     H14244   4.377   6.954   3.924  1.8780  1.7225  2.6528
  828MOL0     H14245   4.229   7.060   3.745  0.2039  0.8982  0.4848
  828MOL0     H14246   4.184   7.549   3.529  0.7605  1.0620 -1.2409
  828MOL0     H14247   4.039   7.653   3.355  0.0320 -0.6682 -1.1631
  828MOL0     H14248   2.595   6.913   2.404 -1.1464  0.0069 -0.3294
  828MOL0     H14249   2.535   7.082   2.253  0.3152 -2.5150  0.0629
  828MOL0     H14250   2.404   7.516   2.224 -0.5713 -2.6606 -3.0215
  828MOL0     H14251   2.336   7.699   2.072  0.2640  1.5860 -2.5480
  828MOL0     H14252   2.635   8.011   1.922  0.2519 -0.2526 -2.6765
  828MOL0     H14253   2.554   7.975   1.785  0.0580 -1.0165  0.0406
  828MOL0     H14254   2.440   8.118   2.028  0.9416 -0.9853 -0.1604
  828MOL0     H14255   2.341   8.073   1.877 -0.5514  0.9490 -2.4571
  828MOL0     H14256   2.551   8.281   1.901 -0.6348 -1.5337  1.9454
  828MOL0     H14257   2.513   8.208   1.747  1.5825 -1.5808  0.7179
  828MOL0     H14258   2.401   8.425   1.798  0.4069 -0.1875  1.0648
  828MOL0     H14259   2.331   8.361   1.937  1.0486 -2.1685  2.0200
  828MOL0     H14260   2.112   8.149   1.623  2.4999 -0.0528 -1.9148
  828MOL0     H14261   2.730   7.834   1.991  1.5470 -0.9530 -1.0068
  828MOL0     H14262   2.876   7.553   2.214 -2.0807 -0.9064 -2.1198
  828MOL0     H14263   2.925   7.678   2.100 -0.9964  3.3201  0.8862
  828MOL0     H14264   2.881   7.735   2.260 -0.3695  2.1810 -1.8838
  829MOL0     O14265   2.748   3.541   6.366 -1.1854  0.7477  0.1597
  829MOL0     C14266   2.840   3.458   6.388 -0.2513 -0.7413  0.5410
  829MOL0     O14267   2.871   3.411   6.513  0.2887  0.2727 -0.6516
  829MOL0     C14268   2.773   3.403   6.615 -0.5018  0.6436  0.1155
  829MOL0     C14269   2.819   3.401   6.741 -0.6599  0.1547 -0.7307
  829MOL0     C14270   2.728   3.405   6.851 -0.3294  0.4083 -0.1188
  829MOL0     C14271   2.583   3.397   6.833 -0.2361  0.7271 -0.5308
  829MOL0     O14272   2.497   3.401   6.933 -0.4196  0.4621  0.1802
  829MOL0     C14273   2.540   3.424   7.069  0.1276 -0.3553  0.2385
  829MOL0     C14274   2.540   3.577   7.090 -0.4150  0.3538 -0.0869
  829MOL0     C14275   2.557   3.618   7.238  0.2619 -0.2291  0.1928
  829MOL0     C14276   2.581   3.769   7.237  0.1587  0.0818  0.1424
  829MOL0     C14277   2.600   3.811   7.384 -0.0359 -0.6513 -0.0261
  829MOL0     C14278   2.592   3.966   7.411 -0.4012  0.6018  0.8616
  829MOL0     C14279   2.608   4.004   7.564  0.4611  0.6568 -0.6038
  829MOL0     C14280   2.725   3.926   7.640 -0.7358  0.0891  0.5230
  829MOL0     N14281   2.755   3.963   7.784  0.0638  0.2470  0.0777
  829MOL0     C14282   2.726   4.078   7.857  0.6937  0.7465 -0.0764
  829MOL0     C14283   2.793   4.058   7.966 -0.2286 -0.1066 -0.7366
  829MOL0     C14284   2.783   4.135   8.107 -0.4803 -0.2996  1.0899
  829MOL0     C14285   2.708   4.060   8.213  0.9047 -0.1984 -0.9466
  829MOL0     C14286   2.628   4.130   8.315 -0.2219 -0.2825 -0.8164
  829MOL0     C14287   2.571   4.036   8.412  0.9350  0.7991 -0.4629
  829MOL0     O14288   2.488   3.937   8.346 -0.4965 -0.0444 -0.6733
  829MOL0     C14289   2.362   3.891   8.385  0.4524 -1.0187 -0.5829
  829MOL0     C14290   2.316   3.777   8.329  0.8789  0.1367 -0.3034
  829MOL0     C14291   2.190   3.724   8.364  0.0434  0.3908 -0.3421
  829MOL0     C14292   2.140   3.600   8.284  0.2333  0.0900 -0.1532
  829MOL0     C14293   2.120   3.777   8.476 -0.0418  0.4138 -0.2904
  829MOL0     C14294   2.007   3.716   8.544  0.3692 -0.4765  0.0927
  829MOL0     O14295   1.920   3.798   8.613 -0.8401 -0.5506  0.9892
  829MOL0     C14296   1.818   3.757   8.680 -0.3771 -0.3231 -0.9049
  829MOL0     C14297   1.838   3.675   8.794  0.7488 -0.0943 -0.6037
  829MOL0     C14298   1.728   3.659   8.888 -0.6643  0.8541 -0.4398
  829MOL0     C14299   1.613   3.725   8.870  0.4207 -0.0410 -1.0475
  829MOL0     O14300   1.509   3.720   8.962  0.1157 -0.6708  0.0254
  829MOL0     C14301   1.498   3.614   9.051  0.3957  0.6645 -0.2855
  829MOL0     C14302   1.363   3.613   9.122  0.2612  0.5722  1.3065
  829MOL0     C14303   1.347   3.732   9.222 -0.1916 -0.6406 -0.0886
  829MOL0     C14304   1.216   3.738   9.299 -0.6303  0.3409 -0.8437
  829MOL0     C14305   1.203   3.851   9.403  0.2604 -0.5839 -0.0402
  829MOL0     C14306   1.074   3.826   9.483 -0.8633  0.3628  0.1244
  829MOL0     C14307   1.031   3.953   9.555  0.2586 -0.1544 -0.9484
  829MOL0     C14308   1.083   3.950   9.697 -0.4738  0.4460 -0.3728
  829MOL0    Cl14309   0.982   3.839   9.791  0.2045  0.1416 -0.0386
  829MOL0     C14310   1.596   3.802   8.754  0.3775 -1.3755 -1.6283
  829MOL0     C14311   1.693   3.820   8.669  0.5146  1.1421  0.1461
  829MOL0     O14312   1.988   3.599   8.517  0.6641  0.3892 -0.0348
  829MOL0     C14313   2.164   3.896   8.524 -0.2940 -0.4598  0.5484
  829MOL0     C14314   2.283   3.949   8.481 -0.1743 -0.0935 -0.0841
  829MOL0     N14315   2.880   3.950   7.951 -0.1959 -0.7164 -0.1855
  829MOL0     N14316   2.840   3.892   7.847 -0.3112 -0.2752 -0.8426
  829MOL0     C14317   2.539   3.389   6.712  0.3312 -0.1006  1.1264
  829MOL0     C14318   2.635   3.394   6.600 -0.5500  0.0426 -0.5146
  829MOL0     C14319   2.918   3.412   6.275  0.2460 -0.1119  0.0653
  829MOL0     C14320   3.057   3.426   6.279 -1.1066 -0.1455 -0.5639
  829MOL0     C14321   3.129   3.388   6.164  0.8055 -0.2767 -0.4484
  829MOL0     C14322   3.062   3.338   6.048  0.3048 -0.5015 -0.3878
  829MOL0     O14323   3.141   3.342   5.945  0.4545 -0.3129 -0.4853
  829MOL0     C14324   3.095   3.301   5.819  0.1436 -1.0792  0.0937
  829MOL0     C14325   3.201   3.320   5.717 -0.1107 -0.6948  0.4708
  829MOL0     C14326   3.255   3.466   5.688  0.0352 -0.3458  0.4715
  829MOL0     C14327   3.140   3.558   5.619  0.4948  0.4740  0.3207
  829MOL0     C14328   3.186   3.698   5.609 -0.8262  0.9778  0.7727
  829MOL0     C14329   3.230   3.808   5.602 -0.2989 -0.0908 -0.3403
  829MOL0     C14330   2.920   3.319   6.053  0.6898 -0.1944 -0.1006
  829MOL0     C14331   2.848   3.363   6.159  0.3386  0.6864 -0.2638
  829MOL0     C14332   2.706   3.333   6.153  0.1755 -0.1539 -0.5800
  829MOL0     H14333   2.925   3.387   6.761 -0.5233  2.2583  0.3100
  829MOL0     H14334   2.781   3.415   6.945  1.2894  0.9396 -1.0344
  829MOL0     H14335   2.641   3.387   7.092  1.0495 -0.3387 -3.2060
  829MOL0     H14336   2.458   3.383   7.128 -0.6992  2.5002  1.2173
  829MOL0     H14337   2.618   3.623   7.029  0.1964 -2.9683 -1.9978
  829MOL0     H14338   2.451   3.612   7.037 -1.1571  0.8397  1.3933
  829MOL0     H14339   2.469   3.604   7.302 -2.1817  0.6557 -2.7463
  829MOL0     H14340   2.638   3.566   7.289 -0.9608  0.2754  2.8172
  829MOL0     H14341   2.675   3.796   7.188 -0.7889  1.5998 -0.9189
  829MOL0     H14342   2.499   3.816   7.181  0.0325  0.2204  0.4392
  829MOL0     H14343   2.689   3.762   7.426 -0.5487 -0.3747  1.4552
  829MOL0     H14344   2.525   3.760   7.445 -0.3939 -1.1917 -0.9072
  829MOL0     H14345   2.670   4.013   7.351 -2.5349  0.4306 -2.2988
  829MOL0     H14346   2.499   4.002   7.365 -0.2770  0.6910  0.6789
  829MOL0     H14347   2.512   3.970   7.605  0.3947  1.4786 -0.0629
  829MOL0     H14348   2.623   4.112   7.570 -0.3452  0.8243 -1.4096
  829MOL0     H14349   2.700   3.819   7.640  0.6972 -0.2717 -0.5963
  829MOL0     H14350   2.816   3.923   7.579 -1.7257 -0.1183 -0.9965
  829MOL0     H14351   2.650   4.150   7.828 -2.8269 -2.4016  0.6857
  829MOL0     H14352   2.744   4.232   8.075 -0.2255 -0.2436  0.9374
  829MOL0     H14353   2.885   4.147   8.145 -0.2400  1.5915 -0.0043
  829MOL0     H14354   2.642   4.000   8.149  1.1394  0.1183 -1.4961
  829MOL0     H14355   2.776   3.998   8.272  0.8204  0.9353  0.3867
  829MOL0     H14356   2.695   4.201   8.362  0.7959 -1.3407 -0.6244
  829MOL0     H14357   2.543   4.185   8.271 -1.1403 -0.3968  0.7546
  829MOL0     H14358   2.649   3.989   8.473  0.0357 -0.3857 -0.1862
  829MOL0     H14359   2.509   4.095   8.480 -0.9762 -0.4875 -1.0152
  829MOL0     H14360   2.383   3.731   8.257  1.3667 -1.2195  0.9828
  829MOL0     H14361   2.153   3.500   8.326  1.5035 -1.0829 -3.0844
  829MOL0     H14362   2.202   3.581   8.196  2.9354 -2.8182  2.1525
  829MOL0     H14363   2.035   3.615   8.256 -0.9137 -0.5094  3.2983
  829MOL0     H14364   1.936   3.630   8.803  0.5655 -0.9050 -2.2402
  829MOL0     H14365   1.740   3.596   8.975 -4.6435 -0.0232 -0.3046
  829MOL0     H14366   1.500   3.524   8.989 -2.4017  0.5874 -0.3521
  829MOL0     H14367   1.581   3.604   9.122 -0.7063 -2.9201  0.6765
  829MOL0     H14368   1.285   3.625   9.046  1.7996  1.1568 -0.2477
  829MOL0     H14369   1.357   3.514   9.169  0.9308  0.0321  0.2906
  829MOL0     H14370   1.354   3.831   9.178  3.5441 -0.5343  0.4094
  829MOL0     H14371   1.413   3.720   9.308  0.6999 -0.5256 -0.7443
  829MOL0     H14372   1.207   3.642   9.351 -0.2475  1.5842  1.6615
  829MOL0     H14373   1.134   3.755   9.229 -0.5549  4.0964 -0.1835
  829MOL0     H14374   1.297   3.845   9.460  1.2159 -0.9326 -1.6029
  829MOL0     H14375   1.199   3.950   9.357 -1.1362 -0.1852  0.8712
  829MOL0     H14376   1.086   3.744   9.554 -0.1272  1.2927  1.1128
  829MOL0     H14377   1.002   3.800   9.405  1.5347 -2.3142 -1.3825
  829MOL0     H14378   0.922   3.964   9.557  0.4792  3.6865  2.3348
  829MOL0     H14379   1.069   4.035   9.492 -0.9096  0.4238 -0.9206
  829MOL0     H14380   1.090   4.047   9.749 -1.2750 -0.6419  1.8900
  829MOL0     H14381   1.178   3.898   9.685 -0.6300  0.3800 -1.3959
  829MOL0     H14382   1.496   3.841   8.744 -0.2193 -1.7818  1.5064
  829MOL0     H14383   1.675   3.879   8.580  2.1074 -2.1832 -2.5822
  829MOL0     H14384   2.107   3.952   8.597  1.2826  1.1501  0.6055
  829MOL0     H14385   2.308   4.042   8.531  1.0462 -0.2198 -0.4216
  829MOL0     H14386   2.433   3.373   6.694  0.5932  0.6626 -1.6266
  829MOL0     H14387   2.602   3.368   6.500  4.1703 -0.4190 -2.2135
  829MOL0     H14388   3.118   3.465   6.359 -1.0698  0.0471 -0.6853
  829MOL0     H14389   3.236   3.406   6.156  0.5776  1.3074 -0.1667
  829MOL0     H14390   3.063   3.198   5.834 -4.2286  0.2419  1.2704
  829MOL0     H14391   3.002   3.350   5.791  1.1907  3.6185  3.4925
  829MOL0     H14392   3.164   3.287   5.620 -1.5523  1.0732  0.3805
  829MOL0     H14393   3.281   3.260   5.762 -0.1789  0.9037  2.9026
  829MOL0     H14394   3.289   3.514   5.780 -0.0605  1.7806 -0.5576
  829MOL0     H14395   3.343   3.441   5.628  1.1695 -6.5415  3.7990
  829MOL0     H14396   3.045   3.560   5.673 -1.5011  2.0097 -2.9617
  829MOL0     H14397   3.125   3.500   5.527 -0.0976 -1.4507  1.5544
  829MOL0     H14398   3.285   3.899   5.593  4.4721 -2.6935 -0.9324
  829MOL0     H14399   2.869   3.283   5.965 -1.3308  0.2257  0.8507
  829MOL0     H14400   2.668   3.307   6.252 -0.2416  2.3969  0.0013
  829MOL0     H14401   2.655   3.416   6.104 -1.8935 -0.9268  0.1873
  829MOL0     H14402   2.684   3.250   6.085 -2.4823  0.9915 -1.2439
  830MOL0     O14403   0.377   4.814  10.545  0.3788  0.4197  0.1155
  830MOL0     C14404   0.360   4.706  10.491 -0.8374  0.0375  0.5046
  830MOL0     O14405   0.458   4.628  10.435 -0.5657  1.2327  0.5864
  830MOL0     C14406   0.591   4.660  10.416  0.8047 -0.4099  0.4055
  830MOL0     C14407   0.669   4.564  10.362  0.3198 -0.3431  0.8267
  830MOL0     C14408   0.801   4.590  10.314 -0.5319 -0.3521 -0.4291
  830MOL0     C14409   0.861   4.714  10.345 -0.6685  0.5663  0.3023
  830MOL0     O14410   0.995   4.717  10.310  0.0426 -0.3758  0.1863
  830MOL0     C14411   1.033   4.837  10.262  0.1375 -0.5074 -0.4044
  830MOL0     C14412   1.087   4.799  10.117 -0.1439  0.5792  0.0938
  830MOL0     C14413   1.150   4.915  10.045 -0.0051  0.3931  0.1692
  830MOL0     C14414   1.064   5.012   9.962  0.2691  0.8325  0.5522
  830MOL0     C14415   1.140   5.135   9.913 -0.1689  0.0743  0.4749
  830MOL0     C14416   1.054   5.255   9.862 -0.1266  0.1597  0.9336
  830MOL0     C14417   1.156   5.380   9.858 -0.8537 -0.0641 -0.4360
  830MOL0     C14418   1.093   5.502   9.806 -1.2201  0.0401  0.2777
  830MOL0     N14419   1.074   5.501   9.665 -0.1613  0.5198  0.0120
  830MOL0     C14420   1.165   5.518   9.559 -0.3591  0.2681 -0.6928
  830MOL0     C14421   1.098   5.574   9.455  0.4815  0.3201 -0.3660
  830MOL0     C14422   1.131   5.628   9.318  0.4304  0.1955 -0.3601
  830MOL0     C14423   1.203   5.541   9.227 -0.4702 -0.4276  0.5922
  830MOL0     C14424   1.235   5.606   9.095 -0.6791 -0.0257  0.9669
  830MOL0     C14425   1.311   5.519   8.992  0.7263 -0.1697 -0.0328
  830MOL0     O14426   1.344   5.580   8.871  0.2384  0.1535 -0.0738
  830MOL0     C14427   1.243   5.620   8.785  0.3265 -0.0639  0.1390
  830MOL0     C14428   1.215   5.760   8.762  1.1705  0.3936 -0.4475
  830MOL0     C14429   1.101   5.795   8.679 -0.3043 -0.7045 -0.2899
  830MOL0     C14430   1.071   5.939   8.653 -0.5428  0.5154 -0.6347
  830MOL0     C14431   1.021   5.685   8.617  0.3702 -0.1266 -0.4158
  830MOL0     C14432   0.912   5.699   8.518  0.1184  0.3477  0.6464
  830MOL0     O14433   0.909   5.803   8.440  0.2048 -0.5167  0.7999
  830MOL0     C14434   0.792   5.831   8.369 -0.9814 -0.3360 -0.7688
  830MOL0     C14435   0.669   5.867   8.419 -0.1424  0.9631 -1.2623
  830MOL0     C14436   0.560   5.881   8.338  0.6222 -0.7474  0.1206
  830MOL0     C14437   0.571   5.879   8.199 -0.3789  0.5295  0.6308
  830MOL0     O14438   0.467   5.897   8.115 -0.0962 -0.4483 -0.2478
  830MOL0     C14439   0.470   5.876   7.975  0.1005 -0.2047  0.3892
  830MOL0     C14440   0.322   5.890   7.949 -0.8891 -0.5455 -0.0467
  830MOL0     C14441   0.287   5.877   7.801  0.1924 -0.4775 -0.3257
  830MOL0     C14442   0.141   5.834   7.763 -0.0745 -0.3053  0.0414
  830MOL0     C14443   0.101   5.807   7.616 -0.3267 -0.1250  0.8137
  830MOL0     C14444   0.050   5.941   7.554  0.7205 -0.4188  0.0690
  830MOL0     C14445   0.025   5.910   7.404 -0.2689 -1.1614 -1.0079
  830MOL0     C14446   0.005   6.031   7.313  0.3076 -0.9844 -0.2309
  830MOL0    Cl14447  -0.133   6.126   7.379  0.3710 -0.2277 -0.1615
  830MOL0     C14448   0.707   5.853   8.145 -0.5270 -0.1213  0.2817
  830MOL0     C14449   0.814   5.832   8.234 -0.2048  0.2728  0.2891
  830MOL0     O14450   0.820   5.611   8.524 -0.5279 -0.8921  0.4087
  830MOL0     C14451   1.064   5.549   8.647  1.5160  0.2295 -0.3302
  830MOL0     C14452   1.170   5.516   8.723  0.0101  0.4096  0.5329
  830MOL0     N14453   0.969   5.570   9.488  0.5485 -0.1345 -1.2065
  830MOL0     N14454   0.955   5.532   9.609 -0.3984 -0.4240 -0.3762
  830MOL0     C14455   0.778   4.807  10.413  0.4594 -1.0298  0.4585
  830MOL0     C14456   0.641   4.782  10.448 -0.1255 -0.8651 -0.1619
  830MOL0     C14457   0.235   4.645  10.487  1.3592 -0.4359 -0.0283
  830MOL0     C14458   0.195   4.601  10.357  0.4250  0.6253 -0.2821
  830MOL0     C14459   0.073   4.549  10.344  0.0478 -0.1049 -0.3586
  830MOL0     C14460  -0.027   4.551  10.444 -0.0152 -0.1035  0.2774
  830MOL0     O14461  -0.152   4.528  10.404 -0.8146  0.0412  0.0778
  830MOL0     C14462  -0.254   4.512  10.499  0.6959  0.4798 -0.5862
  830MOL0     C14463  -0.373   4.481  10.430 -0.4826 -0.1302 -0.2626
  830MOL0     C14464  -0.498   4.493  10.520 -0.5669 -0.0983 -0.4842
  830MOL0     C14465  -0.614   4.430  10.451  0.2452  0.0043 -0.5080
  830MOL0     C14466  -0.732   4.460  10.528  0.2188 -0.6645  1.1149
  830MOL0     C14467  -0.824   4.489  10.596  0.5489  1.2392 -0.2517
  830MOL0     C14468   0.011   4.616  10.570  0.2567  0.6801  0.4947
  830MOL0     C14469   0.147   4.651  10.590  0.1264  0.5996 -1.5643
  830MOL0     C14470   0.174   4.692  10.740 -0.3729  0.2129  0.5899
  830MOL0     H14471   0.628   4.464  10.368 -3.2185  1.0445  2.3018
  830MOL0     H14472   0.856   4.508  10.269 -2.1338 -1.4589 -0.4739
  830MOL0     H14473   1.116   4.875  10.323 -0.9090  0.0067  0.7492
  830MOL0     H14474   0.961   4.919  10.263  0.9210  0.3482  3.6362
  830MOL0     H14475   1.160   4.718  10.130  1.1241  1.7818  0.6780
  830MOL0     H14476   1.007   4.754  10.057 -0.3304 -1.6151  1.8592
  830MOL0     H14477   1.214   4.969  10.116  1.4574 -0.6388 -0.3120
  830MOL0     H14478   1.223   4.870   9.977 -2.1432 -0.0128 -1.9766
  830MOL0     H14479   1.035   4.949   9.877 -2.1750  1.4182  0.8912
  830MOL0     H14480   0.970   5.030  10.015 -0.1293 -1.6453  0.7870
  830MOL0     H14481   1.212   5.104   9.836 -0.6116  0.4379 -0.0975
  830MOL0     H14482   1.203   5.183   9.988  2.0607 -0.6803 -0.8040
  830MOL0     H14483   1.028   5.235   9.758  2.4999  3.0469 -0.4529
  830MOL0     H14484   0.968   5.271   9.928 -1.3437 -2.5316  0.1517
  830MOL0     H14485   1.239   5.351   9.793 -2.1433  0.5659 -2.4958
  830MOL0     H14486   1.203   5.396   9.955 -0.3071  1.6153 -0.9260
  830MOL0     H14487   0.994   5.517   9.850 -1.3812 -0.1508 -0.0126
  830MOL0     H14488   1.156   5.591   9.819  0.2387 -0.4226 -2.6158
  830MOL0     H14489   1.270   5.516   9.586 -0.4671  2.8442  0.2129
  830MOL0     H14490   1.178   5.726   9.321 -1.0038  1.0370 -2.6113
  830MOL0     H14491   1.032   5.633   9.271  0.2434  2.4790  0.1662
  830MOL0     H14492   1.302   5.513   9.265  0.3965  2.1879  0.4713
  830MOL0     H14493   1.145   5.451   9.203  1.5994 -1.3409 -1.3239
  830MOL0     H14494   1.147   5.640   9.040  0.4360 -0.7849 -1.4332
  830MOL0     H14495   1.298   5.693   9.115 -0.2286 -0.0750 -0.1559
  830MOL0     H14496   1.406   5.496   9.041  0.9802 -0.8999 -0.8311
  830MOL0     H14497   1.262   5.422   8.978 -1.8384  0.9332  0.6012
  830MOL0     H14498   1.261   5.843   8.814 -0.1377  1.1232 -0.4274
  830MOL0     H14499   1.054   5.967   8.549  0.7258  1.1244 -0.6983
  830MOL0     H14500   1.154   6.002   8.686 -0.8497  1.5467 -1.7439
  830MOL0     H14501   0.982   5.975   8.706  0.4115 -0.6143  1.9007
  830MOL0     H14502   0.658   5.843   8.525 -0.5449 -2.3965 -1.9364
  830MOL0     H14503   0.462   5.897   8.382 -0.1722 -0.9844 -1.4789
  830MOL0     H14504   0.521   5.949   7.912 -1.0988 -0.3400 -0.8071
  830MOL0     H14505   0.509   5.782   7.935 -1.2273 -0.7838  0.4005
  830MOL0     H14506   0.277   5.812   8.011 -3.6751  1.8653  1.2131
  830MOL0     H14507   0.302   5.988   7.992  2.6641 -0.4562  1.7557
  830MOL0     H14508   0.354   5.806   7.751  0.6749 -0.3349  0.1064
  830MOL0     H14509   0.311   5.978   7.767 -0.4967  0.6301  2.2258
  830MOL0     H14510   0.068   5.906   7.801 -2.6275 -3.1316  0.8170
  830MOL0     H14511   0.111   5.747   7.821  1.1288 -1.2725 -0.7392
  830MOL0     H14512   0.185   5.750   7.575 -0.2360  0.3319  0.3501
  830MOL0     H14513   0.021   5.733   7.618  0.5543 -1.1152  0.4151
  830MOL0     H14514   0.132   6.013   7.555  0.0239  0.6338 -3.7134
  830MOL0     H14515  -0.047   5.974   7.591 -0.1816 -2.3833 -0.3740
  830MOL0     H14516  -0.066   5.848   7.403 -2.1129  1.2249  2.1433
  830MOL0     H14517   0.109   5.853   7.364 -1.2112 -1.2187 -3.0860
  830MOL0     H14518  -0.011   6.011   7.207  0.2029 -2.6761  0.0712
  830MOL0     H14519   0.087   6.102   7.319 -1.5862  1.4751 -1.6850
  830MOL0     H14520   0.726   5.844   8.038  1.8792 -3.2429  0.8540
  830MOL0     H14521   0.917   5.813   8.206 -0.2342 -2.6309  1.7048
  830MOL0     H14522   0.999   5.469   8.613  0.5397 -0.8736  3.5695
  830MOL0     H14523   1.196   5.410   8.722 -1.1450  0.1109 -0.3546
  830MOL0     H14524   0.825   4.895  10.455  0.2615 -0.9127  0.4342
  830MOL0     H14525   0.586   4.867  10.489  0.0175 -0.4652 -0.7795
  830MOL0     H14526   0.266   4.605  10.275  1.7504  0.6017  0.8203
  830MOL0     H14527   0.042   4.517  10.245  3.1783  1.0001 -1.8333
  830MOL0     H14528  -0.230   4.436  10.574 -0.7627 -2.0395 -2.4839
  830MOL0     H14529  -0.266   4.607  10.552  0.9103 -0.0053  0.3529
  830MOL0     H14530  -0.356   4.379  10.397 -0.3735  0.6760 -2.8775
  830MOL0     H14531  -0.387   4.540  10.339 -1.2801  0.5342  0.2726
  830MOL0     H14532  -0.483   4.438  10.614 -2.4187  2.4890  1.4567
  830MOL0     H14533  -0.522   4.594  10.555 -0.8034 -0.9783  2.1587
  830MOL0     H14534  -0.593   4.323  10.441 -0.7527 -0.5247  2.2221
  830MOL0     H14535  -0.641   4.472  10.354  0.2501 -0.4685 -0.7176
  830MOL0     H14536  -0.909   4.508  10.660 -0.8565 -0.7497 -1.4181
  830MOL0     H14537  -0.062   4.619  10.650  2.7780 -2.3036  3.2364
  830MOL0     H14538   0.204   4.797  10.746  0.6261 -0.0959  1.1704
  830MOL0     H14539   0.089   4.681  10.808 -1.3996 -0.1813 -0.6987
  830MOL0     H14540   0.253   4.634  10.790 -0.4827  1.5455  2.4201
  831MOL0     O14541   8.674   9.689   8.099 -0.3008  0.7978  0.8105
  831MOL0     C14542   8.651   9.800   8.145 -0.9043 -0.4090  0.4981
  831MOL0     O14543   8.727   9.910   8.124  0.8792  0.1799 -0.0532
  831MOL0     C14544   8.844   9.886   8.064 -0.8719 -1.3936  1.0788
  831MOL0     C14545   8.844   9.861   7.926 -0.1566  0.0902 -0.4468
  831MOL0     C14546   8.959   9.823   7.854 -0.1107 -1.4621 -0.5202
  831MOL0     C14547   9.087   9.809   7.923  0.2868 -0.1951  0.3900
  831MOL0     O14548   9.204   9.789   7.854 -0.7864  0.0123  0.0313
  831MOL0     C14549   9.320   9.850   7.911 -0.5145  0.2382 -1.0155
  831MOL0     C14550   9.409   9.889   7.790  1.1454 -0.5020 -0.3254
  831MOL0     C14551   9.336   9.981   7.680 -0.4003  0.0269  0.5976
  831MOL0     C14552   9.276   9.901   7.557 -0.3078 -0.0224 -0.6683
  831MOL0     C14553   9.220   9.998   7.447 -0.9257 -1.1513 -0.1139
  831MOL0     C14554   9.319  10.035   7.339 -0.6134 -0.1620  0.5548
  831MOL0     C14555   9.274  10.092   7.206 -1.0163  0.6529 -0.9223
  831MOL0     C14556   9.225  10.242   7.220  0.7118  0.1753 -1.0625
  831MOL0     N14557   9.138  10.275   7.117 -0.4048  0.3057  0.2893
  831MOL0     C14558   9.164  10.278   6.986 -0.7165 -0.0998  0.8241
  831MOL0     C14559   9.051  10.319   6.917 -0.3720  0.1817  0.4099
  831MOL0     C14560   9.061  10.350   6.771  0.4593  0.2215  1.0100
  831MOL0     C14561   9.002  10.224   6.707  0.1934 -0.8975 -0.0254
  831MOL0     C14562   9.076  10.170   6.591 -1.2589  0.5337 -0.1480
  831MOL0     C14563   8.981  10.077   6.509 -0.0227  0.0496 -0.4222
  831MOL0     O14564   9.028  10.069   6.375  0.4415 -0.7594 -0.0851
  831MOL0     C14565   8.988   9.967   6.294  0.1594  0.0759  0.0888
  831MOL0     C14566   9.062   9.944   6.177 -0.4779  0.2882  0.0070
  831MOL0     C14567   9.026   9.836   6.092  0.2240  0.5983  0.4865
  831MOL0     C14568   9.117   9.817   5.975 -0.8152  0.6730  1.3675
  831MOL0     C14569   8.923   9.742   6.127 -0.3073  0.2517  0.7314
  831MOL0     C14570   8.883   9.617   6.046  0.0928 -0.5590  0.8978
  831MOL0     O14571   8.961   9.597   5.933  0.6016 -0.0988 -0.3886
  831MOL0     C14572   8.938   9.497   5.842 -0.7141 -0.2870 -0.0332
  831MOL0     C14573   8.881   9.371   5.867  0.7205 -0.2481 -1.0852
  831MOL0     C14574   8.864   9.281   5.764 -0.0467  0.6256  0.5857
  831MOL0     C14575   8.922   9.312   5.634  0.2535  0.9523  0.1255
  831MOL0     O14576   8.898   9.208   5.538 -0.1989  0.0276 -1.1863
  831MOL0     C14577   8.923   9.242   5.399 -0.9097 -0.2087 -0.6875
  831MOL0     C14578   8.875   9.130   5.308  0.5618 -0.0465 -0.8751
  831MOL0     C14579   8.719   9.125   5.298 -0.0723  0.5413  0.8030
  831MOL0     C14580   8.670   8.999   5.219  0.4729  0.2002 -0.8909
  831MOL0     C14581   8.679   9.021   5.071  0.2995  0.5161 -0.4817
  831MOL0     C14582   8.681   8.883   5.015 -0.6198  0.2248  1.1182
  831MOL0     C14583   8.685   8.892   4.865  0.2310  0.3863 -0.3255
  831MOL0     C14584   8.837   8.869   4.834 -0.0509 -0.0326  0.6255
  831MOL0    Cl14585   8.857   8.860   4.654  0.2030  0.1706  0.1436
  831MOL0     C14586   8.991   9.434   5.614  0.1967 -0.3397 -0.1666
  831MOL0     C14587   8.997   9.524   5.716 -0.3181 -1.0175  0.6531
  831MOL0     O14588   8.779   9.556   6.078  0.7907 -0.5037 -0.3399
  831MOL0     C14589   8.844   9.779   6.235  0.6154  0.3376 -0.4181
  831MOL0     C14590   8.885   9.877   6.322  0.5938 -0.0265  0.1974
  831MOL0     N14591   8.953  10.337   7.011 -0.2717  0.3249  0.2017
  831MOL0     N14592   9.002  10.303   7.126  0.4838 -0.4541 -0.5116
  831MOL0     C14593   9.079   9.828   8.056 -0.2128 -0.6657  0.0269
  831MOL0     C14594   8.965   9.862   8.120  0.1812  0.6861  0.5866
  831MOL0     C14595   8.528   9.820   8.225 -1.4173  0.6961 -0.5142
  831MOL0     C14596   8.449   9.936   8.227  1.2555  0.3371  0.6935
  831MOL0     C14597   8.343   9.962   8.312 -0.8891 -0.0272  0.6016
  831MOL0     C14598   8.306   9.868   8.399 -0.4550  0.1017 -0.1592
  831MOL0     O14599   8.197   9.868   8.486 -0.3116  0.0139 -1.2236
  831MOL0     C14600   8.094   9.961   8.465 -0.3380  0.0673 -0.0968
  831MOL0     C14601   7.977   9.917   8.553  0.1161 -0.6280  0.8078
  831MOL0     C14602   7.877  10.028   8.585 -0.1605 -0.7048 -0.5492
  831MOL0     C14603   7.785  10.071   8.470 -0.3642  0.4309 -0.4483
  831MOL0     C14604   7.753  10.213   8.497  0.9463 -0.0378 -0.7349
  831MOL0     C14605   7.735  10.324   8.523  0.2554 -0.0640 -0.8007
  831MOL0     C14606   8.379   9.754   8.423  0.2121  0.1272 -0.1422
  831MOL0     C14607   8.499   9.740   8.341  0.6634  0.5207  0.4348
  831MOL0     C14608   8.588   9.630   8.383 -0.1765 -0.5157 -0.0264
  831MOL0     H14609   8.754   9.853   7.866 -2.5298  1.6522  2.6236
  831MOL0     H14610   8.956   9.822   7.745  0.8293 -0.7614 -0.5626
  831MOL0     H14611   9.372   9.775   7.972 -2.6342 -0.0453  0.5582
  831MOL0     H14612   9.304   9.938   7.974  1.8814  0.9623 -1.2917
  831MOL0     H14613   9.496   9.944   7.828  0.3068 -1.0143  2.5982
  831MOL0     H14614   9.456   9.805   7.738  0.3468  1.0007 -3.8055
  831MOL0     H14615   9.268  10.053   7.727 -1.3658 -0.6107  0.2213
  831MOL0     H14616   9.415  10.045   7.642  2.1233 -1.8700  2.3300
  831MOL0     H14617   9.358   9.838   7.520 -0.0187  0.7504 -1.3626
  831MOL0     H14618   9.203   9.828   7.593  1.1615 -0.5589  1.4157
  831MOL0     H14619   9.184  10.093   7.489 -1.8416 -0.2552 -2.7051
  831MOL0     H14620   9.139   9.944   7.398 -0.7656  1.4542 -3.6427
  831MOL0     H14621   9.397  10.105   7.369 -1.0168  1.9550 -2.7996
  831MOL0     H14622   9.368   9.940   7.314 -2.2838 -0.6270 -1.2979
  831MOL0     H14623   9.208  10.022   7.154 -0.8510  0.0898 -0.3785
  831MOL0     H14624   9.363  10.086   7.143 -1.2675 -3.4203 -1.1590
  831MOL0     H14625   9.172  10.254   7.315 -0.5712  3.6838 -2.0599
  831MOL0     H14626   9.315  10.303   7.238 -0.2860  1.0767  1.2768
  831MOL0     H14627   9.261  10.264   6.939 -1.7409 -0.7120 -1.1963
  831MOL0     H14628   9.162  10.373   6.737  0.0939 -0.7209 -0.8509
  831MOL0     H14629   9.005  10.442   6.756 -0.2792 -0.0563  1.9591
  831MOL0     H14630   8.988  10.139   6.775  0.0685  1.0531  2.5212
  831MOL0     H14631   8.906  10.259   6.667  0.7205 -2.1007 -2.5434
  831MOL0     H14632   9.119  10.251   6.532 -1.1249  0.4872 -0.1145
  831MOL0     H14633   9.156  10.105   6.626  0.3352  2.5167  0.0615
  831MOL0     H14634   8.972   9.982   6.562 -4.3981  1.1654  1.3359
  831MOL0     H14635   8.877  10.110   6.501 -0.5428 -1.7007 -1.1718
  831MOL0     H14636   9.147  10.012   6.171  0.0467 -0.3360  0.2837
  831MOL0     H14637   9.074   9.802   5.875 -0.4489 -0.6984  1.4037
  831MOL0     H14638   9.188   9.737   5.995  0.4858  1.5172  0.3404
  831MOL0     H14639   9.171   9.912   5.969 -1.2248  0.8146 -0.8899
  831MOL0     H14640   8.854   9.344   5.968 -4.3508  1.2219 -1.7458
  831MOL0     H14641   8.821   9.183   5.783  1.5097 -0.6018 -1.8243
  831MOL0     H14642   8.874   9.339   5.383 -1.6432  0.1583  2.9178
  831MOL0     H14643   9.029   9.252   5.377 -1.1998 -1.0751 -2.6810
  831MOL0     H14644   8.906   9.154   5.205  2.2989 -0.4803 -0.4798
  831MOL0     H14645   8.916   9.034   5.340 -2.8413 -1.1878  0.4704
  831MOL0     H14646   8.671   9.213   5.254 -0.0821  0.1686  0.0504
  831MOL0     H14647   8.670   9.116   5.396  0.3633 -0.0368  0.9705
  831MOL0     H14648   8.567   8.973   5.246  0.2164 -1.7105 -3.3126
  831MOL0     H14649   8.732   8.916   5.255  1.7495  1.2101 -0.6827
  831MOL0     H14650   8.600   9.087   5.032 -0.0270 -0.6132 -1.8070
  831MOL0     H14651   8.770   9.074   5.044  1.1851 -0.7955 -0.1128
  831MOL0     H14652   8.593   8.823   5.038 -1.1831  0.9030  0.7564
  831MOL0     H14653   8.770   8.829   5.049 -0.6261 -2.8052 -2.9424
  831MOL0     H14654   8.656   8.992   4.834 -2.5316  0.0024  0.7720
  831MOL0     H14655   8.623   8.819   4.812 -1.0947  1.6969 -0.6286
  831MOL0     H14656   8.867   8.775   4.880 -0.1509  0.0796  0.9163
  831MOL0     H14657   8.888   8.964   4.853 -0.4672  0.8378 -2.1132
  831MOL0     H14658   9.048   9.433   5.521  0.4801  2.5670 -0.1153
  831MOL0     H14659   9.072   9.599   5.697  1.3953 -2.4749  1.3954
  831MOL0     H14660   8.753   9.728   6.265  1.1575  1.1524  3.0602
  831MOL0     H14661   8.819   9.890   6.407  1.5157 -2.1013  1.3185
  831MOL0     H14662   9.167   9.818   8.120  0.9020  0.3627 -1.2774
  831MOL0     H14663   8.968   9.881   8.227  0.9862  1.0484  0.5008
  831MOL0     H14664   8.471  10.008   8.148  0.4063 -0.6951 -0.5147
  831MOL0     H14665   8.307  10.063   8.293 -2.2938 -1.1848 -4.4102
  831MOL0     H14666   8.131  10.061   8.487 -1.4028  0.6672 -0.9665
  831MOL0     H14667   8.067   9.951   8.360  1.2495  1.6778 -0.7055
  831MOL0     H14668   8.017   9.878   8.647 -1.3831 -0.4335  1.5729
  831MOL0     H14669   7.938   9.835   8.492  3.1397 -0.2492 -1.8863
  831MOL0     H14670   7.812   9.995   8.666 -1.5408  1.9860 -0.4256
  831MOL0     H14671   7.939  10.110   8.620  0.7114 -1.0600 -1.2237
  831MOL0     H14672   7.691  10.015   8.476 -0.7169  1.1306  1.9022
  831MOL0     H14673   7.834  10.069   8.372  2.1992 -3.9061  0.6490
  831MOL0     H14674   7.731  10.431   8.535 -4.4504  0.0468 -1.5536
  831MOL0     H14675   8.343   9.700   8.509  0.5332  2.6535  1.7082
  831MOL0     H14676   8.553   9.533   8.348  0.3886 -0.7269 -0.0063
  831MOL0     H14677   8.687   9.652   8.343  0.5568  0.6060  2.1997
  831MOL0     H14678   8.590   9.619   8.492 -1.8847  0.2208  0.1237
  832MOL0     O14679   8.087  10.495   5.587  0.3863 -0.1270  0.1499
  832MOL0     C14680   8.117  10.614   5.616 -0.2059  0.1048  0.4072
  832MOL0     O14681   8.136  10.705   5.524  0.0612  0.1379  0.9643
  832MOL0     C14682   8.068  10.698   5.404 -0.9802 -0.2292  0.6571
  832MOL0     C14683   8.092  10.593   5.317 -0.4423  0.1182  0.4315
  832MOL0     C14684   8.013  10.590   5.197 -0.0624  0.5662 -0.1013
  832MOL0     C14685   7.913  10.683   5.167  1.3887 -0.5997 -0.4393
  832MOL0     O14686   7.837  10.671   5.056 -0.2619 -0.1238  0.6525
  832MOL0     C14687   7.696  10.645   5.092  0.0485 -0.5482 -0.5421
  832MOL0     C14688   7.610  10.735   4.996 -0.7151  0.3723  0.1252
  832MOL0     C14689   7.464  10.729   5.029  0.8771  0.6406 -0.2665
  832MOL0     C14690   7.371  10.813   4.943 -0.0957  0.2832 -0.1970
  832MOL0     C14691   7.218  10.775   4.954 -0.5521  0.7994  0.0199
  832MOL0     C14692   7.132  10.895   4.985 -0.6975 -0.3783 -0.7802
  832MOL0     C14693   6.985  10.864   4.979  1.0097  0.4308  0.6783
  832MOL0     C14694   6.903  10.994   4.980  0.6401 -0.4710  0.5165
  832MOL0     N14695   6.888  11.041   5.122  1.0514 -0.5939  0.7173
  832MOL0     C14696   6.769  11.064   5.183  0.2852 -0.0053 -0.1211
  832MOL0     C14697   6.798  11.127   5.301 -0.5180 -0.5324 -0.3938
  832MOL0     C14698   6.708  11.176   5.411 -0.7621 -1.2614  0.1029
  832MOL0     C14699   6.709  11.076   5.540 -0.6308  0.9343  0.4936
  832MOL0     C14700   6.646  11.150   5.661 -0.4403  0.1612  0.6876
  832MOL0     C14701   6.611  11.051   5.777 -0.2296  0.6662 -0.4748
  832MOL0     O14702   6.730  10.975   5.795  0.4020  0.3855 -0.3794
  832MOL0     C14703   6.805  11.000   5.905 -0.1220 -0.6727 -0.3852
  832MOL0     C14704   6.813  11.119   5.974  0.0367 -0.3565 -0.5701
  832MOL0     C14705   6.919  11.142   6.068 -0.5600  0.2185 -0.0328
  832MOL0     C14706   6.921  11.278   6.111  1.7579  0.4657  0.7065
  832MOL0     C14707   7.002  11.038   6.118  0.6040  0.3343  0.3699
  832MOL0     C14708   7.098  11.054   6.230 -0.5290 -0.1955  0.5628
  832MOL0     O14709   7.176  10.948   6.253 -1.0229  0.0428 -0.2632
  832MOL0     C14710   7.240  10.930   6.369 -0.3812 -0.1276 -0.3899
  832MOL0     C14711   7.302  11.040   6.438 -0.2031  0.4550 -0.7901
  832MOL0     C14712   7.371  11.018   6.554 -0.2595  0.6334 -1.1384
  832MOL0     C14713   7.371  10.891   6.602 -0.1650 -0.0500  0.6890
  832MOL0     O14714   7.442  10.867   6.712 -0.4705 -0.1364  0.2412
  832MOL0     C14715   7.572  10.815   6.682 -0.0507 -0.0635 -1.1602
  832MOL0     C14716   7.623  10.764   6.825  0.0467 -0.7089 -0.2508
  832MOL0     C14717   7.566  10.622   6.864  0.0725  0.1652 -0.3487
  832MOL0     C14718   7.494  10.619   6.997 -0.3478  0.2467 -0.6608
  832MOL0     C14719   7.436  10.495   7.036 -0.1748 -0.6240 -0.7490
  832MOL0     C14720   7.321  10.450   6.950 -0.1925 -0.1306  0.5003
  832MOL0     C14721   7.194  10.529   6.964 -0.4426 -1.1805 -0.6606
  832MOL0     C14722   7.074  10.473   6.898 -0.3886 -0.0786  0.0860
  832MOL0    Cl14723   7.092  10.423   6.729  0.1332  0.0310  0.0567
  832MOL0     C14724   7.302  10.782   6.542 -0.7201  0.3653  0.5855
  832MOL0     C14725   7.246  10.801   6.422 -0.0318 -0.4499 -0.1589
  832MOL0     O14726   7.086  11.153   6.299 -0.0742  0.7713 -0.3683
  832MOL0     C14727   6.994  10.920   6.039 -1.5224  0.2866 -0.5382
  832MOL0     C14728   6.913  10.909   5.934  0.1403  0.0133  1.0014
  832MOL0     N14729   6.934  11.145   5.308 -0.1177 -0.7400  0.5373
  832MOL0     N14730   6.979  11.084   5.205 -0.1042  0.3862 -0.6298
  832MOL0     C14731   7.896  10.783   5.269 -0.3972  0.2903 -0.1457
  832MOL0     C14732   7.965  10.786   5.386 -0.5086 -0.5123  1.0093
  832MOL0     C14733   8.136  10.668   5.753 -0.2003  0.5449 -1.0872
  832MOL0     C14734   8.112  10.804   5.776  1.0706  0.5333  0.6058
  832MOL0     C14735   8.100  10.868   5.900 -0.4192 -0.3946  0.2016
  832MOL0     C14736   8.107  10.792   6.013 -0.6634  1.4300 -0.1611
  832MOL0     O14737   8.083  10.844   6.143 -0.8558  1.0372  0.7709
  832MOL0     C14738   8.160  10.959   6.170  0.4195 -1.3194 -0.0889
  832MOL0     C14739   8.121  11.036   6.301 -0.1166  1.2788  0.6919
  832MOL0     C14740   7.967  11.064   6.301 -0.5506 -0.1135 -0.6506
  832MOL0     C14741   7.924  11.135   6.433 -0.8076 -0.7698 -0.1579
  832MOL0     C14742   7.921  11.038   6.537  0.6168  0.4368  0.0850
  832MOL0     C14743   7.917  10.956   6.624  0.6874  0.3921 -0.8428
  832MOL0     C14744   8.141  10.655   5.999 -0.2974  0.1308  0.1349
  832MOL0     C14745   8.156  10.589   5.869 -0.7123  1.5970 -0.3592
  832MOL0     C14746   8.169  10.430   5.859 -0.1294 -0.1021  0.2779
  832MOL0     H14747   8.165  10.512   5.311  0.2250  0.3842  3.4878
  832MOL0     H14748   7.999  10.497   5.142  0.2739  1.8006 -2.4376
  832MOL0     H14749   7.676  10.679   5.194  0.7483 -0.5548 -0.3988
  832MOL0     H14750   7.685  10.539   5.068 -1.1929 -1.1794  2.4010
  832MOL0     H14751   7.639  10.840   4.998 -0.3069  0.3103 -1.3419
  832MOL0     H14752   7.622  10.697   4.894  1.4252  4.0982 -1.1969
  832MOL0     H14753   7.450  10.621   5.019 -0.7618  1.0145 -3.2118
  832MOL0     H14754   7.443  10.757   5.133  1.0810  1.5464 -0.4634
  832MOL0     H14755   7.394  10.920   4.949 -0.7444  0.3939  0.5291
  832MOL0     H14756   7.407  10.776   4.847  1.4426  0.2333  0.3614
  832MOL0     H14757   7.197  10.702   5.033  4.1215  0.3568  1.1063
  832MOL0     H14758   7.177  10.736   4.860 -1.7540  1.1458  0.3877
  832MOL0     H14759   7.157  10.930   5.085 -0.1352  1.0582 -1.3961
  832MOL0     H14760   7.157  10.975   4.915 -1.4254  0.2926 -0.2884
  832MOL0     H14761   6.956  10.793   5.057  1.1045  1.6489  1.8614
  832MOL0     H14762   6.956  10.822   4.882 -0.3061  0.1310  1.1813
  832MOL0     H14763   6.950  11.065   4.911  0.5179  0.2926  1.2027
  832MOL0     H14764   6.804  10.961   4.949  1.4170 -1.0967 -1.4494
  832MOL0     H14765   6.673  11.046   5.136 -0.1895 -0.8479  1.1295
  832MOL0     H14766   6.608  11.208   5.379  0.0414  1.0300 -0.3365
  832MOL0     H14767   6.751  11.271   5.445 -1.8510 -0.0652 -1.6714
  832MOL0     H14768   6.649  10.988   5.516  2.7287 -1.0460 -1.3812
  832MOL0     H14769   6.814  11.057   5.567  0.3073  0.2362 -3.1305
  832MOL0     H14770   6.710  11.229   5.702 -1.9719  1.7844  0.0466
  832MOL0     H14771   6.562  11.205   5.617 -0.1046  0.5260  0.4998
  832MOL0     H14772   6.571  11.106   5.862 -1.2205  1.5727 -1.4914
  832MOL0     H14773   6.538  10.975   5.749  0.2720 -0.0561  0.1399
  832MOL0     H14774   6.743  11.199   5.954  0.0934  0.6062  2.5853
  832MOL0     H14775   7.018  11.322   6.139  1.8326  0.4688  0.4484
  832MOL0     H14776   6.854  11.288   6.197 -1.6427 -0.1796 -1.6850
  832MOL0     H14777   6.887  11.345   6.032  4.4841 -2.8023 -3.7027
  832MOL0     H14778   7.307  11.142   6.399  4.6777  0.1010 -1.7640
  832MOL0     H14779   7.423  11.103   6.597  1.8903 -0.3882 -1.5440
  832MOL0     H14780   7.563  10.732   6.610  1.7281 -1.7035  0.3955
  832MOL0     H14781   7.620  10.907   6.648 -2.9961  2.4642  0.9976
  832MOL0     H14782   7.732  10.771   6.829  0.2491 -2.5056 -1.3609
  832MOL0     H14783   7.593  10.834   6.904  4.3712  0.2046  0.8248
  832MOL0     H14784   7.649  10.550   6.871 -0.8949 -0.8235  1.6920
  832MOL0     H14785   7.496  10.597   6.783 -0.3211  2.1854 -0.6744
  832MOL0     H14786   7.424  10.704   6.998  2.8323  3.2135 -3.7619
  832MOL0     H14787   7.573  10.664   7.058  0.0972 -0.6137 -0.5889
  832MOL0     H14788   7.514  10.419   7.035 -1.3596 -1.9174  0.2554
  832MOL0     H14789   7.405  10.496   7.141  0.1132  2.6566 -0.5914
  832MOL0     H14790   7.292  10.352   6.989 -2.7023  0.2090 -0.3394
  832MOL0     H14791   7.370  10.437   6.853  1.1745 -0.4299  1.1956
  832MOL0     H14792   7.209  10.627   6.918 -0.5062 -1.3382 -1.0186
  832MOL0     H14793   7.184  10.548   7.071  1.7838 -2.4332 -0.1540
  832MOL0     H14794   6.983  10.533   6.903 -1.1883 -0.8671 -2.8534
  832MOL0     H14795   7.054  10.379   6.950  3.1807 -0.3753  1.1909
  832MOL0     H14796   7.303  10.685   6.590 -1.4318  1.3875  2.8055
  832MOL0     H14797   7.204  10.711   6.379 -0.0126  0.1297 -1.4121
  832MOL0     H14798   7.061  10.840   6.068  0.2007  2.0490  0.6224
  832MOL0     H14799   6.929  10.821   5.873  1.3735 -0.5437  2.0899
  832MOL0     H14800   7.817  10.854   5.246 -1.8931 -1.9678 -2.5433
  832MOL0     H14801   7.949  10.868   5.456 -0.6465 -0.3424  0.7799
  832MOL0     H14802   8.103  10.872   5.692  0.9706  1.2149  1.1601
  832MOL0     H14803   8.068  10.969   5.926 -0.1371 -1.0986  3.7525
  832MOL0     H14804   8.264  10.934   6.194  0.0935 -1.8636  0.8152
  832MOL0     H14805   8.142  11.040   6.099  2.1059  0.5414  1.5123
  832MOL0     H14806   8.183  11.125   6.319  1.7385  0.3531 -0.7627
  832MOL0     H14807   8.137  10.971   6.387 -1.6140 -0.3231 -0.1771
  832MOL0     H14808   7.939  11.126   6.215 -1.4719  0.8657  0.3345
  832MOL0     H14809   7.910  10.970   6.296  1.6913 -1.4904 -2.0112
  832MOL0     H14810   7.825  11.181   6.426 -0.1345  0.7781  0.1735
  832MOL0     H14811   8.001  11.210   6.452 -2.2194  1.1563 -1.7208
  832MOL0     H14812   7.922  10.875   6.694 -0.5723  1.3819  0.4677
  832MOL0     H14813   8.141  10.590   6.086 -3.3299  0.9744  0.8616
  832MOL0     H14814   8.075  10.374   5.861  0.6132 -1.6070 -2.2392
  832MOL0     H14815   8.219  10.395   5.768 -1.1217  1.3890 -0.8807
  832MOL0     H14816   8.239  10.406   5.940  1.2217  0.3646 -0.7095
  833MOL0     O14817   8.560   7.299   5.225  0.0733  0.1857  0.0650
  833MOL0     C14818   8.558   7.366   5.325 -0.2820  0.7801 -0.8547
  833MOL0     O14819   8.623   7.479   5.351 -0.1635 -0.1852  0.5357
  833MOL0     C14820   8.700   7.535   5.255 -1.0095  0.4442 -0.5857
  833MOL0     C14821   8.666   7.557   5.121  1.0121  0.2434 -0.3201
  833MOL0     C14822   8.746   7.636   5.041  0.4126 -0.1513  0.0434
  833MOL0     C14823   8.874   7.683   5.076 -0.1637 -0.1051 -0.0825
  833MOL0     O14824   8.971   7.744   4.997  0.2453 -0.0354 -0.3438
  833MOL0     C14825   8.947   7.790   4.868  0.4351  0.7196  0.2225
  833MOL0     C14826   9.072   7.820   4.785  0.2599  0.0186  0.8466
  833MOL0     C14827   9.062   7.948   4.696 -0.1813  0.1930 -1.2001
  833MOL0     C14828   9.048   7.913   4.548 -0.0740 -0.1577  0.3182
  833MOL0     C14829   9.150   7.833   4.478 -0.8768 -0.2421  0.4074
  833MOL0     C14830   9.138   7.847   4.326  0.5999  0.6804  0.1530
  833MOL0     C14831   9.229   7.743   4.247 -0.0715 -0.5766 -0.2260
  833MOL0     C14832   9.376   7.779   4.244 -0.2452 -0.6540 -0.8609
  833MOL0     N14833   9.469   7.667   4.201  0.7430 -0.8693 -0.1263
  833MOL0     C14834   9.486   7.556   4.282  0.3517  0.6406  0.2650
  833MOL0     C14835   9.548   7.468   4.197 -0.1346  0.4738  0.8659
  833MOL0     C14836   9.604   7.329   4.235 -1.2342 -0.0988  1.5856
  833MOL0     C14837   9.648   7.327   4.379 -0.0215  0.5323  0.0800
  833MOL0     C14838   9.531   7.297   4.473  0.5219  0.1052  0.6004
  833MOL0     C14839   9.566   7.322   4.616  0.4450 -0.0111 -0.5057
  833MOL0     O14840   9.680   7.255   4.661 -0.1933  0.9201  0.2897
  833MOL0     C14841   9.697   7.272   4.795 -0.5369 -0.9485  0.4483
  833MOL0     C14842   9.602   7.223   4.880 -0.1024 -1.3863 -0.3119
  833MOL0     C14843   9.611   7.253   5.018  0.7340  0.1940  0.2009
  833MOL0     C14844   9.500   7.211   5.116  0.9139  0.6018  0.1927
  833MOL0     C14845   9.714   7.320   5.073 -0.2979 -0.2838  0.3317
  833MOL0     C14846   9.734   7.354   5.212 -0.3706 -0.5924 -0.2950
  833MOL0     O14847   9.789   7.272   5.308 -0.0979  0.7270  0.2304
  833MOL0     C14848   9.820   7.139   5.282  0.7763  0.3324  0.2451
  833MOL0     C14849   9.892   7.091   5.165  0.3186 -0.5117  0.8373
  833MOL0     C14850   9.920   6.952   5.142 -0.4866 -0.3655 -0.3117
  833MOL0     C14851   9.880   6.862   5.239  0.6910  0.1949 -0.4156
  833MOL0     O14852   9.918   6.729   5.223  0.2496  0.6736  0.0203
  833MOL0     C14853   9.796   6.641   5.247  0.0819  0.3537 -0.4347
  833MOL0     C14854   9.813   6.502   5.192 -0.3195 -0.2949  0.1906
  833MOL0     C14855   9.725   6.417   5.278  0.3419 -0.7528  0.1032
  833MOL0     C14856   9.730   6.284   5.221 -0.4275  0.4689  0.6311
  833MOL0     C14857   9.680   6.171   5.305 -0.8790 -0.3595 -0.2661
  833MOL0     C14858   9.771   6.124   5.414  0.6333  0.3448  0.4287
  833MOL0     C14859   9.706   6.014   5.500  0.8205  0.5809 -0.1461
  833MOL0     C14860   9.793   5.965   5.621  0.8485 -0.1931 -0.1500
  833MOL0    Cl14861   9.791   5.790   5.654  0.4589  0.3561  0.1046
  833MOL0     C14862   9.810   6.903   5.351 -1.6843  0.5957 -1.0322
  833MOL0     C14863   9.779   7.037   5.363 -0.2519 -0.1935  0.2583
  833MOL0     O14864   9.699   7.469   5.231  0.4871  0.5377  0.0561
  833MOL0     C14865   9.812   7.362   4.986 -0.8079  0.4178 -0.5944
  833MOL0     C14866   9.814   7.328   4.851  0.5279 -0.3595  0.0190
  833MOL0     N14867   9.555   7.520   4.065 -0.1254 -0.1080 -1.0879
  833MOL0     N14868   9.509   7.638   4.071  0.2782  0.2941 -0.8116
  833MOL0     C14869   8.908   7.664   5.214 -0.0341  0.0646 -1.0237
  833MOL0     C14870   8.818   7.596   5.296 -1.0204  0.7135  0.3540
  833MOL0     C14871   8.473   7.316   5.429  0.8232 -0.4576 -0.0523
  833MOL0     C14872   8.507   7.353   5.564  0.9075  0.3564 -0.9508
  833MOL0     C14873   8.438   7.316   5.671  0.3933 -0.1503 -0.8091
  833MOL0     C14874   8.322   7.244   5.649  0.0852  0.1634  0.0796
  833MOL0     O14875   8.247   7.227   5.769  0.4076 -0.0490  0.3655
  833MOL0     C14876   8.144   7.126   5.772 -0.3699  0.3932 -0.2419
  833MOL0     C14877   8.107   7.113   5.916  0.7420  0.7545 -0.8405
  833MOL0     C14878   7.979   7.022   5.942 -0.5238 -0.2464  1.0468
  833MOL0     C14879   7.869   7.106   5.992 -0.0670  0.7626  0.4438
  833MOL0     C14880   7.739   7.028   6.000 -1.1571 -0.5695  0.1282
  833MOL0     C14881   7.642   6.961   6.006  0.0086 -0.4955  0.0618
  833MOL0     C14882   8.280   7.195   5.523 -0.2446  0.1383 -0.2323
  833MOL0     C14883   8.352   7.232   5.403  0.7108  0.3875 -1.0908
  833MOL0     C14884   8.295   7.211   5.265 -0.0795 -0.5641  0.2815
  833MOL0     H14885   8.584   7.506   5.072  1.4366 -1.4219  0.6108
  833MOL0     H14886   8.707   7.648   4.940  0.1018 -1.6574 -0.0400
  833MOL0     H14887   8.888   7.877   4.897  0.4773  0.8431 -0.0544
  833MOL0     H14888   8.887   7.723   4.805 -2.0307  4.3141 -1.6043
  833MOL0     H14889   9.154   7.839   4.855  1.4039  3.8166 -1.2281
  833MOL0     H14890   9.090   7.729   4.727  0.3055  0.7312 -0.2854
  833MOL0     H14891   8.981   8.011   4.733  2.5700  2.2326  1.9342
  833MOL0     H14892   9.148   8.014   4.711  0.7942 -0.9958 -1.3968
  833MOL0     H14893   8.953   7.860   4.551 -0.0370 -0.2300  3.2375
  833MOL0     H14894   9.040   8.011   4.500  1.0182 -0.4826 -0.5727
  833MOL0     H14895   9.134   7.729   4.506  2.9286 -1.0805  0.0275
  833MOL0     H14896   9.248   7.871   4.510 -1.3612  0.8356  0.6684
  833MOL0     H14897   9.033   7.831   4.301  1.5967 -2.6006 -2.6830
  833MOL0     H14898   9.179   7.946   4.303  3.7581 -0.6761 -0.5520
  833MOL0     H14899   9.187   7.729   4.146 -2.5679  0.6549  0.5476
  833MOL0     H14900   9.234   7.646   4.297  1.6072  1.0602  3.0762
  833MOL0     H14901   9.396   7.866   4.181  0.4633  0.1023  0.3580
  833MOL0     H14902   9.404   7.818   4.342  3.1047 -2.0082 -1.1274
  833MOL0     H14903   9.498   7.548   4.390  1.1994 -1.2694  0.0787
  833MOL0     H14904   9.683   7.289   4.171  1.5567  1.7968  3.5937
  833MOL0     H14905   9.525   7.255   4.223 -1.9762  1.0086 -0.9414
  833MOL0     H14906   9.716   7.241   4.386 -0.5990 -0.1082 -1.7036
  833MOL0     H14907   9.700   7.417   4.413 -1.2379  1.0177  0.6849
  833MOL0     H14908   9.446   7.362   4.452 -0.5025 -0.9857  1.3070
  833MOL0     H14909   9.505   7.192   4.463  0.8017  0.2790 -4.7320
  833MOL0     H14910   9.591   7.427   4.636  0.5496 -0.3046  1.0356
  833MOL0     H14911   9.476   7.289   4.667 -0.4276  1.9917 -0.6589
  833MOL0     H14912   9.515   7.176   4.834 -0.1613 -0.5124 -1.1232
  833MOL0     H14913   9.515   7.111   5.158 -1.7303  1.3203  3.2691
  833MOL0     H14914   9.399   7.224   5.076  1.3467  1.5411 -0.6245
  833MOL0     H14915   9.503   7.272   5.207 -0.5928 -1.1521  1.5289
  833MOL0     H14916   9.936   7.160   5.094 -1.6543  0.3160  0.3587
  833MOL0     H14917   9.959   6.918   5.047 -0.4119  0.2352 -0.4987
  833MOL0     H14918   9.792   6.632   5.356 -0.0848  1.9377 -0.2782
  833MOL0     H14919   9.702   6.690   5.218 -0.9050 -0.8823  0.5516
  833MOL0     H14920   9.790   6.492   5.086  3.5212  0.5431 -0.8630
  833MOL0     H14921   9.920   6.485   5.200 -0.0108  0.1165 -2.3085
  833MOL0     H14922   9.624   6.460   5.274  0.8021  0.2586 -3.1131
  833MOL0     H14923   9.758   6.426   5.382  1.4424  1.3013 -0.3741
  833MOL0     H14924   9.829   6.264   5.178 -1.0804 -0.2401 -0.6389
  833MOL0     H14925   9.663   6.291   5.134  0.4638  3.6120  0.0959
  833MOL0     H14926   9.585   6.186   5.356 -0.2688 -0.9826  1.1148
  833MOL0     H14927   9.675   6.084   5.238  1.7030  1.6161 -3.2862
  833MOL0     H14928   9.786   6.209   5.481 -2.4837  1.8681 -0.6039
  833MOL0     H14929   9.863   6.081   5.374  0.4034  0.9516 -0.8036
  833MOL0     H14930   9.676   5.927   5.441 -2.9488  1.3222  0.4595
  833MOL0     H14931   9.613   6.050   5.543  0.7560 -1.6060  1.7899
  833MOL0     H14932   9.761   6.008   5.716  0.4790  1.5975 -1.0390
  833MOL0     H14933   9.891   6.003   5.593  0.2353  3.6018  2.1518
  833MOL0     H14934   9.775   6.830   5.423 -0.3358  1.1997  0.3031
  833MOL0     H14935   9.700   7.057   5.435 -2.9498 -0.9818 -2.3150
  833MOL0     H14936   9.896   7.421   5.021 -1.8317  1.3457  0.3723
  833MOL0     H14937   9.898   7.365   4.793  1.8656 -1.3921  1.2488
  833MOL0     H14938   9.004   7.694   5.254 -1.1111  1.2930  0.7737
  833MOL0     H14939   8.842   7.588   5.402  2.4663  0.9390 -0.2984
  833MOL0     H14940   8.590   7.415   5.598  0.0926  0.1675  1.6073
  833MOL0     H14941   8.469   7.337   5.773  1.8803 -0.3927 -1.1904
  833MOL0     H14942   8.052   7.143   5.714 -0.7889  1.0968  0.6118
  833MOL0     H14943   8.186   7.034   5.730  0.9278  1.1128 -0.5694
  833MOL0     H14944   8.086   7.212   5.958  0.7178  0.5018 -0.2424
  833MOL0     H14945   8.196   7.093   5.976  1.0402  1.9125 -0.8784
  833MOL0     H14946   7.950   6.972   5.848 -2.0980  1.7203  0.4223
  833MOL0     H14947   8.013   6.936   6.000 -0.0937 -0.5286  0.3986
  833MOL0     H14948   7.864   7.191   5.924 -0.9004  1.1156  0.9317
  833MOL0     H14949   7.894   7.141   6.092  1.7243 -1.0993  0.7099
  833MOL0     H14950   7.550   6.905   5.997  0.5582 -1.1693 -1.8215
  833MOL0     H14951   8.191   7.136   5.507  4.0302 -6.5484 -3.8569
  833MOL0     H14952   8.319   7.288   5.192 -1.9215 -2.4413 -2.5065
  833MOL0     H14953   8.331   7.121   5.213 -0.1290  0.2526 -1.2101
  833MOL0     H14954   8.188   7.204   5.284 -0.1469  0.8858  0.5481
  834MOL0     O14955   5.250   1.919   0.352 -1.1275 -0.5454  0.0730
  834MOL0     C14956   5.254   1.957   0.235  1.0556  0.2201  0.5887
  834MOL0     O14957   5.214   2.075   0.179 -0.4865  0.2310 -0.8381
  834MOL0     C14958   5.144   2.172   0.248 -0.3804  0.3409  0.2079
  834MOL0     C14959   5.074   2.164   0.367  0.3852 -0.1519  0.6710
  834MOL0     C14960   5.016   2.278   0.422 -0.3236  0.6730 -0.7592
  834MOL0     C14961   5.005   2.404   0.354 -0.7161 -0.7245 -0.6483
  834MOL0     O14962   4.929   2.504   0.407  0.5201  0.2431  0.7969
  834MOL0     C14963   4.954   2.557   0.535 -0.1257  0.6407 -0.5161
  834MOL0     C14964   4.904   2.706   0.560  0.6947  0.0636 -0.5805
  834MOL0     C14965   5.004   2.808   0.524 -0.2498  0.1884 -0.6142
  834MOL0     C14966   4.965   2.950   0.562  0.3223 -0.2238 -0.7545
  834MOL0     C14967   4.889   3.021   0.450  0.3840 -0.1733  0.0796
  834MOL0     C14968   4.830   3.166   0.493 -0.1514  0.0483  0.2212
  834MOL0     C14969   4.746   3.185   0.610 -1.8470 -0.0514  0.6585
  834MOL0     C14970   4.631   3.097   0.605 -0.1747 -0.6959  0.1936
  834MOL0     N14971   4.554   3.113   0.731  0.4447  0.2612  0.2488
  834MOL0     C14972   4.574   3.048   0.848  0.7203  0.1373  0.1806
  834MOL0     C14973   4.466   3.070   0.926  0.1839  1.3508  0.8094
  834MOL0     C14974   4.431   3.019   1.064  0.5267 -0.3635  0.9744
  834MOL0     C14975   4.521   3.080   1.172  0.5145  0.6840 -0.0017
  834MOL0     C14976   4.631   2.973   1.203  0.3151 -0.1161  0.7190
  834MOL0     C14977   4.716   2.995   1.322 -0.4135 -0.2311 -0.9979
  834MOL0     O14978   4.636   3.056   1.431  0.2382 -0.2567  1.0783
  834MOL0     C14979   4.633   3.191   1.442  0.4375 -1.0135 -0.4138
  834MOL0     C14980   4.566   3.235   1.559 -0.5221  0.0450  0.2057
  834MOL0     C14981   4.583   3.365   1.596  0.4676 -0.6491 -0.8807
  834MOL0     C14982   4.513   3.431   1.717  0.1168  0.5683  0.5328
  834MOL0     C14983   4.653   3.454   1.509 -0.4046 -0.2717  0.2648
  834MOL0     C14984   4.665   3.600   1.530 -0.9423 -0.4051 -0.1413
  834MOL0     O14985   4.804   3.654   1.518 -0.2295 -0.3593  0.6073
  834MOL0     C14986   4.811   3.800   1.521  0.9658  0.3759 -0.2823
  834MOL0     C14987   4.781   3.873   1.635 -0.6925  0.2921  0.2072
  834MOL0     C14988   4.775   4.010   1.630  0.5386  0.2625  0.8697
  834MOL0     C14989   4.783   4.068   1.507 -0.0337  0.0898  0.1367
  834MOL0     O14990   4.764   4.210   1.527  0.3517  0.5506  0.2365
  834MOL0     C14991   4.769   4.294   1.418  0.4500  0.3536 -0.3953
  834MOL0     C14992   4.778   4.432   1.468  0.1327  1.7455 -0.5413
  834MOL0     C14993   4.796   4.529   1.349  0.2898 -0.7900 -0.3571
  834MOL0     C14994   4.839   4.662   1.401  0.4723  0.7051  0.1668
  834MOL0     C14995   4.874   4.758   1.274 -0.3029  0.5310 -0.0204
  834MOL0     C14996   4.991   4.691   1.191 -0.1104  0.1787 -1.6963
  834MOL0     C14997   5.041   4.798   1.090 -0.7784 -0.1380 -0.1007
  834MOL0     C14998   4.946   4.828   0.975 -0.4283 -0.0438 -0.0124
  834MOL0    Cl14999   4.892   4.673   0.897 -0.6012  0.0280 -0.2800
  834MOL0     C15000   4.828   3.999   1.392 -0.6657  0.5340  0.0309
  834MOL0     C15001   4.836   3.858   1.401 -0.5658 -0.6376 -0.9339
  834MOL0     O15002   4.570   3.667   1.549  0.0084 -0.1927  0.4267
  834MOL0     C15003   4.703   3.416   1.386  0.1183  0.0683 -0.1420
  834MOL0     C15004   4.698   3.282   1.347  0.5678  0.0268  0.6448
  834MOL0     N15005   4.381   3.157   0.857  0.0961  0.0199  0.2003
  834MOL0     N15006   4.439   3.195   0.742 -0.0517 -0.8805 -0.1833
  834MOL0     C15007   5.078   2.408   0.237  0.0155  0.5635 -0.2929
  834MOL0     C15008   5.151   2.300   0.181  0.1391  0.4099 -0.4112
  834MOL0     C15009   5.325   1.863   0.142  0.4767 -0.4537  0.1404
  834MOL0     C15010   5.427   1.786   0.181  1.2629  0.8623  0.2524
  834MOL0     C15011   5.494   1.691   0.100 -0.1964  0.3024  0.3370
  834MOL0     C15012   5.461   1.679  -0.035  1.4573  0.6005 -0.4846
  834MOL0     O15013   5.532   1.596  -0.120 -0.2218  0.2775 -0.6487
  834MOL0     C15014   5.509   1.588  -0.265  0.0280 -0.6798  0.0875
  834MOL0     C15015   5.585   1.478  -0.333  0.7858  0.3053 -0.1864
  834MOL0     C15016   5.736   1.470  -0.294  0.4187  0.1099  0.2734
  834MOL0     C15017   5.827   1.392  -0.392 -0.4951  0.4080  0.1618
  834MOL0     C15018   5.968   1.419  -0.371  0.3286 -0.1744  0.1679
  834MOL0     C15019   6.088   1.425  -0.338 -0.1528  0.0858  0.5887
  834MOL0     C15020   5.357   1.764  -0.082 -1.1290  0.2073 -0.3742
  834MOL0     C15021   5.281   1.848   0.007 -1.2953  0.2501  0.7480
  834MOL0     C15022   5.172   1.920  -0.061 -0.2492 -0.2833 -0.0108
  834MOL0     H15023   5.047   2.064   0.401 -1.3331 -0.5228 -1.5225
  834MOL0     H15024   4.968   2.263   0.518 -2.3292  4.5961 -0.9805
  834MOL0     H15025   5.061   2.547   0.554 -0.1010  1.3758 -0.2070
  834MOL0     H15026   4.897   2.502   0.611  1.2012 -1.5031 -0.9824
  834MOL0     H15027   4.807   2.725   0.513  0.3367 -0.1864  0.0477
  834MOL0     H15028   4.888   2.718   0.667  1.0308 -3.8811  0.0795
  834MOL0     H15029   5.099   2.780   0.571 -1.2845 -0.7012  1.0598
  834MOL0     H15030   5.015   2.799   0.415 -4.6609 -1.5191 -1.1400
  834MOL0     H15031   4.912   2.956   0.657  1.8327  2.2870  0.0428
  834MOL0     H15032   5.062   2.987   0.597  0.4470 -0.0996 -1.2148
  834MOL0     H15033   4.814   2.950   0.414  1.0160 -0.3334 -0.9523
  834MOL0     H15034   4.974   3.043   0.385  0.8161  1.9203  1.2778
  834MOL0     H15035   4.914   3.232   0.516 -1.4505  1.5997  0.7209
  834MOL0     H15036   4.777   3.208   0.407  2.4969  0.8848 -1.1047
  834MOL0     H15037   4.710   3.288   0.612 -1.2551  0.2376 -1.2386
  834MOL0     H15038   4.811   3.181   0.697 -1.9485  0.9233  0.7865
  834MOL0     H15039   4.571   3.133   0.521 -0.6560 -2.8376 -0.4356
  834MOL0     H15040   4.663   2.993   0.611  0.1950 -0.6487 -0.7641
  834MOL0     H15041   4.657   2.978   0.849 -0.3588 -1.5959 -4.3131
  834MOL0     H15042   4.441   2.910   1.066 -0.4684 -0.4541  2.9262
  834MOL0     H15043   4.325   3.022   1.090  0.9972 -2.1133  3.3611
  834MOL0     H15044   4.561   3.177   1.143  2.0648  0.5538  1.5460
  834MOL0     H15045   4.454   3.088   1.258  2.9305 -3.1140  2.5242
  834MOL0     H15046   4.578   2.879   1.215 -3.1288  1.5998  0.1790
  834MOL0     H15047   4.695   2.974   1.113 -0.5380  0.4419  0.0990
  834MOL0     H15048   4.760   2.902   1.359 -1.7570 -0.8254 -0.8516
  834MOL0     H15049   4.801   3.059   1.296 -0.0969  0.4419  1.5097
  834MOL0     H15050   4.531   3.160   1.630 -1.0239  1.4810  1.5561
  834MOL0     H15051   4.417   3.473   1.685 -0.4465 -1.8810 -1.3180
  834MOL0     H15052   4.574   3.515   1.750 -0.5851  1.6329 -0.7865
  834MOL0     H15053   4.505   3.356   1.796 -0.2121  0.2550  0.2066
  834MOL0     H15054   4.750   3.826   1.728  1.6829  0.9616  1.4143
  834MOL0     H15055   4.772   4.073   1.719  1.2020  0.5212  0.7082
  834MOL0     H15056   4.850   4.278   1.347 -0.1147  0.4087 -1.0740
  834MOL0     H15057   4.670   4.285   1.371 -0.3639  0.9513  1.1418
  834MOL0     H15058   4.686   4.449   1.526  1.8999  2.3812  2.2854
  834MOL0     H15059   4.866   4.436   1.533  0.7324  1.0691 -1.3012
  834MOL0     H15060   4.696   4.548   1.309  0.9950  4.6720 -0.2584
  834MOL0     H15061   4.853   4.490   1.264  1.0976 -0.7893  0.1729
  834MOL0     H15062   4.921   4.633   1.466 -0.4310 -3.3525 -0.2351
  834MOL0     H15063   4.762   4.710   1.462  1.5853  0.9177  1.4299
  834MOL0     H15064   4.788   4.779   1.209 -0.9043  0.2170  0.6598
  834MOL0     H15065   4.913   4.856   1.301  0.6632  0.7971 -2.1309
  834MOL0     H15066   4.963   4.601   1.136 -0.9480  0.0187 -1.0276
  834MOL0     H15067   5.067   4.665   1.265 -1.8797 -3.4823 -0.9264
  834MOL0     H15068   5.142   4.771   1.058 -0.5865  0.4248  0.0103
  834MOL0     H15069   5.056   4.897   1.136 -0.2543 -0.3088  0.1024
  834MOL0     H15070   5.001   4.894   0.907  0.8090  0.4537  1.4294
  834MOL0     H15071   4.865   4.892   1.012  0.7465  1.6552 -0.3007
  834MOL0     H15072   4.846   4.048   1.296 -1.7834  1.5365  0.3143
  834MOL0     H15073   4.841   3.796   1.312 -1.7876  0.2920 -1.6743
  834MOL0     H15074   4.769   3.481   1.330  0.0340  0.0913 -0.2139
  834MOL0     H15075   4.754   3.250   1.260  1.2442 -0.2763  1.1835
  834MOL0     H15076   5.081   2.500   0.179  0.0964 -1.6020 -4.0775
  834MOL0     H15077   5.197   2.310   0.083  1.1650  1.3959  0.1499
  834MOL0     H15078   5.458   1.793   0.285 -0.1059  0.0478  0.7340
  834MOL0     H15079   5.569   1.626   0.143  1.2163  0.9249 -1.0689
  834MOL0     H15080   5.403   1.572  -0.286  0.3028 -0.7206 -1.4010
  834MOL0     H15081   5.539   1.687  -0.301 -1.7683  1.5672  4.0214
  834MOL0     H15082   5.577   1.486  -0.442  0.6341  0.7288 -0.1439
  834MOL0     H15083   5.543   1.382  -0.302 -0.8560  1.0459 -0.0014
  834MOL0     H15084   5.774   1.570  -0.268 -1.4544  1.2737 -1.1487
  834MOL0     H15085   5.753   1.414  -0.202 -0.8609  1.0327  1.1160
  834MOL0     H15086   5.807   1.402  -0.499 -0.1313 -1.5359 -0.1210
  834MOL0     H15087   5.820   1.285  -0.369  2.0330 -0.3592 -2.1760
  834MOL0     H15088   6.186   1.434  -0.294 -0.2078  1.9381  0.4373
  834MOL0     H15089   5.330   1.758  -0.187  0.2499  0.3230 -0.7495
  834MOL0     H15090   5.144   1.891  -0.162 -4.3863  0.9942  0.5811
  834MOL0     H15091   5.076   1.910  -0.009  0.0278  0.5803  0.7098
  834MOL0     H15092   5.200   2.025  -0.075 -0.1489 -0.2825  0.1782
  835MOL0     O15093  10.117   8.457   7.722  0.0120  0.2064  0.8828
  835MOL0     C15094  10.096   8.564   7.678 -0.2654 -0.3980 -0.1157
  835MOL0     O15095   9.979   8.626   7.654  0.4020 -0.2109  0.0092
  835MOL0     C15096   9.865   8.579   7.697  0.0740 -0.8281 -0.6376
  835MOL0     C15097   9.797   8.675   7.772 -0.4182 -0.2768 -0.6235
  835MOL0     C15098   9.657   8.657   7.803 -0.6650  0.7552  1.2802
  835MOL0     C15099   9.591   8.549   7.750 -0.1411  1.0344 -0.0002
  835MOL0     O15100   9.456   8.523   7.750  0.1824 -0.6677  0.3263
  835MOL0     C15101   9.367   8.617   7.819 -0.2423 -0.9204  0.2856
  835MOL0     C15102   9.227   8.561   7.809  0.7218  0.2910 -0.6141
  835MOL0     C15103   9.132   8.647   7.892  0.1876 -0.5853 -0.1613
  835MOL0     C15104   8.994   8.577   7.909 -1.0562 -0.6996 -0.6193
  835MOL0     C15105   8.900   8.666   7.994  0.4124 -0.1507  0.9921
  835MOL0     C15106   8.848   8.795   7.933 -0.2498 -0.2565  0.4656
  835MOL0     C15107   8.712   8.763   7.863  0.1143  0.3980 -0.8511
  835MOL0     C15108   8.669   8.873   7.769 -0.1767 -0.2190  1.3492
  835MOL0     N15109   8.668   9.008   7.830 -0.6364  0.2286 -0.6629
  835MOL0     C15110   8.577   9.049   7.923 -0.4636 -0.7528 -0.5220
  835MOL0     C15111   8.610   9.181   7.935 -0.0693 -0.2346  0.4255
  835MOL0     C15112   8.534   9.287   8.013  0.1273 -0.3368 -0.6000
  835MOL0     C15113   8.405   9.339   7.935  0.3042  0.9206  0.5807
  835MOL0     C15114   8.296   9.409   8.026 -0.0944  0.0244 -0.2155
  835MOL0     C15115   8.353   9.495   8.135  0.5587 -0.1136 -0.0668
  835MOL0     O15116   8.247   9.573   8.209 -0.1752  0.3782  0.1794
  835MOL0     C15117   8.154   9.653   8.136 -0.2205  0.9195 -0.0396
  835MOL0     C15118   8.021   9.671   8.185 -0.6012 -0.3217  0.4152
  835MOL0     C15119   7.926   9.762   8.122 -0.5300 -0.4928 -0.2215
  835MOL0     C15120   7.796   9.781   8.191  0.2784 -0.2714 -0.4275
  835MOL0     C15121   7.971   9.827   8.006 -0.4354  0.1314  0.7556
  835MOL0     C15122   7.885   9.913   7.924 -0.2098 -0.1428  0.1709
  835MOL0     O15123   7.915   9.938   7.791 -0.7290 -0.0910 -0.2036
  835MOL0     C15124   7.887  10.063   7.745  1.2132 -0.3619 -0.0691
  835MOL0     C15125   7.764  10.082   7.689  0.7242  0.9310 -0.1854
  835MOL0     C15126   7.724  10.201   7.643  0.6085 -0.5458 -0.8109
  835MOL0     C15127   7.801  10.317   7.654 -0.2103  0.4630 -0.1415
  835MOL0     O15128   7.744  10.433   7.615 -0.4647  0.3374 -0.4477
  835MOL0     C15129   7.795  10.556   7.668 -0.2686  0.5413  0.4204
  835MOL0     C15130   7.687  10.675   7.665  0.9325  0.3728 -0.1860
  835MOL0     C15131   7.597  10.688   7.531  0.1849  0.9175 -0.4644
  835MOL0     C15132   7.569  10.833   7.500 -0.4578  0.6819  0.1397
  835MOL0     C15133   7.567  10.857   7.346  0.5882  0.3367  0.1784
  835MOL0     C15134   7.610  11.005   7.313  1.5165 -0.2290  0.9246
  835MOL0     C15135   7.577  11.018   7.167  0.6097 -0.9966  0.7686
  835MOL0     C15136   7.637  11.149   7.105 -0.4527  0.8153 -0.5449
  835MOL0    Cl15137   7.810  11.132   7.114 -0.0896  0.1786 -0.2127
  835MOL0     C15138   7.933  10.301   7.719  0.0740 -0.4654  1.3180
  835MOL0     C15139   7.970  10.173   7.762 -0.7609 -0.7919 -0.1168
  835MOL0     O15140   7.807   9.969   7.989 -0.2422 -0.0889 -0.2288
  835MOL0     C15141   8.105   9.787   7.957 -0.1723 -0.6660 -0.2676
  835MOL0     C15142   8.194   9.711   8.023  0.3687 -1.0821 -0.5130
  835MOL0     N15143   8.716   9.219   7.856  0.2856 -0.1728  0.5342
  835MOL0     N15144   8.753   9.108   7.798 -0.2549  0.0336  0.3060
  835MOL0     C15145   9.664   8.449   7.684  0.0622 -0.0510 -0.0597
  835MOL0     C15146   9.800   8.464   7.660  0.6312  0.2573  0.3489
  835MOL0     C15147  10.210   8.628   7.603 -0.5643 -0.4782 -0.6760
  835MOL0     C15148  10.181   8.728   7.499 -0.1950  1.2976 -0.0660
  835MOL0     C15149  10.279   8.790   7.424  0.6463  0.6408 -0.2080
  835MOL0     C15150  10.409   8.757   7.439 -0.6042  0.4433 -0.7418
  835MOL0     O15151  10.493   8.823   7.356 -0.1191 -0.4714  0.5294
  835MOL0     C15152  10.610   8.753   7.306 -0.6511 -0.8066 -0.6404
  835MOL0     C15153  10.607   8.772   7.159  1.0788 -0.0079  0.4764
  835MOL0     C15154  10.511   8.678   7.087 -0.3960  0.2509  0.1034
  835MOL0     C15155  10.552   8.527   7.104  0.1438 -0.2195  0.6883
  835MOL0     C15156  10.451   8.433   7.047  0.8703  0.1382  0.4478
  835MOL0     C15157  10.357   8.369   7.007  0.7744 -0.0667  0.5222
  835MOL0     C15158  10.446   8.666   7.533 -0.1125 -0.7510  0.1746
  835MOL0     C15159  10.348   8.603   7.620 -0.0920 -0.4192 -0.0236
  835MOL0     C15160  10.383   8.499   7.728 -0.4599  0.4422  0.9171
  835MOL0     H15161   9.866   8.757   7.795  1.1523 -0.9411 -2.6343
  835MOL0     H15162   9.613   8.735   7.864 -2.6930  0.8440 -0.2125
  835MOL0     H15163   9.355   8.713   7.767 -2.9023  0.9805  3.9768
  835MOL0     H15164   9.396   8.620   7.924  0.7745 -0.4485  0.0075
  835MOL0     H15165   9.202   8.548   7.703 -0.0493 -2.6082 -0.1866
  835MOL0     H15166   9.236   8.463   7.858  1.4674  0.1400 -1.0364
  835MOL0     H15167   9.193   8.668   7.981  1.3889 -0.0751 -1.0905
  835MOL0     H15168   9.115   8.742   7.840 -0.5223  2.4785  4.9368
  835MOL0     H15169   8.957   8.562   7.807 -0.8446 -2.7130 -0.4291
  835MOL0     H15170   8.980   8.487   7.969 -1.5749  0.9033  1.7979
  835MOL0     H15171   8.956   8.685   8.086 -1.0608  1.4864  1.6003
  835MOL0     H15172   8.815   8.604   8.024  0.5892 -1.1431 -0.4463
  835MOL0     H15173   8.827   8.862   8.017  0.5673  0.2955  0.2390
  835MOL0     H15174   8.923   8.845   7.870 -0.3151  1.2578  1.5535
  835MOL0     H15175   8.624   8.746   7.925  0.4266 -1.7496 -0.9109
  835MOL0     H15176   8.730   8.675   7.800 -1.1270 -3.4141  3.5693
  835MOL0     H15177   8.738   8.873   7.685  0.5832 -1.4088  1.9389
  835MOL0     H15178   8.565   8.855   7.738  0.5188 -2.6560  0.1543
  835MOL0     H15179   8.504   8.998   7.985  2.4274 -2.0363  2.0624
  835MOL0     H15180   8.598   9.375   8.014 -3.0437  2.1589 -0.9243
  835MOL0     H15181   8.512   9.251   8.114  1.5215 -1.3798 -0.6352
  835MOL0     H15182   8.420   9.410   7.853  3.4192  2.1777  2.0719
  835MOL0     H15183   8.354   9.251   7.894  2.4091 -0.2949  0.4279
  835MOL0     H15184   8.235   9.471   7.960  2.6017  1.1759 -1.7742
  835MOL0     H15185   8.248   9.326   8.079  1.7887 -0.9801 -0.0231
  835MOL0     H15186   8.418   9.443   8.207  2.2157  2.4812  0.4309
  835MOL0     H15187   8.422   9.564   8.087 -0.6373  1.1511 -0.0149
  835MOL0     H15188   7.989   9.627   8.279 -0.7738  3.0671  2.0966
  835MOL0     H15189   7.776   9.694   8.253  0.4851 -1.9510 -2.6185
  835MOL0     H15190   7.717   9.797   8.117  0.5310  4.9220  0.0007
  835MOL0     H15191   7.805   9.867   8.259  5.7657 -0.4533 -0.4795
  835MOL0     H15192   7.690  10.003   7.688  2.5121 -0.8927 -2.5693
  835MOL0     H15193   7.627  10.218   7.598 -0.0273 -2.3272 -0.2064
  835MOL0     H15194   7.836  10.541   7.769 -0.0851 -1.1973  0.1175
  835MOL0     H15195   7.880  10.590   7.609 -2.9059  1.8292 -2.9182
  835MOL0     H15196   7.624  10.666   7.754 -0.3475 -0.4811 -1.1336
  835MOL0     H15197   7.735  10.772   7.681  0.2786  0.9148 -1.3531
  835MOL0     H15198   7.504  10.631   7.533  0.8835 -0.4989 -3.2721
  835MOL0     H15199   7.652  10.636   7.452  2.3983  0.1693  1.4299
  835MOL0     H15200   7.653  10.892   7.537 -0.9909  0.8054  1.1583
  835MOL0     H15201   7.473  10.865   7.540 -1.1102 -2.0880  1.0553
  835MOL0     H15202   7.633  10.788   7.293  0.5194  0.4361 -0.0418
  835MOL0     H15203   7.467  10.838   7.306 -0.4165 -0.8971  3.0769
  835MOL0     H15204   7.716  11.029   7.330  0.8388  2.6352  1.7040
  835MOL0     H15205   7.556  11.070   7.382  1.0503 -2.3464  2.6626
  835MOL0     H15206   7.468  11.018   7.160  0.6393 -0.4965  0.1664
  835MOL0     H15207   7.613  10.930   7.112 -0.3711 -0.7637 -0.2855
  835MOL0     H15208   7.596  11.232   7.164 -1.0861 -0.2397  0.5257
  835MOL0     H15209   7.595  11.145   7.004 -0.0759 -1.3170 -0.6577
  835MOL0     H15210   7.999  10.386   7.729 -2.5680  2.0097 -0.6455
  835MOL0     H15211   8.072  10.156   7.796 -1.6889 -1.4400  2.5629
  835MOL0     H15212   8.132   9.831   7.861  3.3468 -0.5269  0.6769
  835MOL0     H15213   8.291   9.694   7.975  2.1419  4.5822  0.2316
  835MOL0     H15214   9.596   8.376   7.640  0.1106 -0.6696  0.8794
  835MOL0     H15215   9.861   8.392   7.607 -0.1016 -0.5393  0.5494
  835MOL0     H15216  10.078   8.764   7.498 -2.4498 -3.4427  5.3357
  835MOL0     H15217  10.239   8.867   7.359 -2.2032 -0.5552 -0.0396
  835MOL0     H15218  10.702   8.809   7.326 -1.6350  0.8177 -0.5012
  835MOL0     H15219  10.614   8.648   7.336 -1.9339 -0.5672  0.4764
  835MOL0     H15220  10.708   8.754   7.119  2.6848  3.3092  2.5715
  835MOL0     H15221  10.589   8.879   7.142 -2.0130 -0.1640  2.1752
  835MOL0     H15222  10.408   8.708   7.108 -1.6151 -2.7752 -0.9576
  835MOL0     H15223  10.517   8.703   6.980  1.5819 -0.6802 -0.0272
  835MOL0     H15224  10.552   8.504   7.211  2.6993 -1.1514  0.5603
  835MOL0     H15225  10.650   8.507   7.059 -0.6317 -2.8601 -0.0378
  835MOL0     H15226  10.265   8.320   6.983  1.5155  0.0943 -3.1560
  835MOL0     H15227  10.550   8.636   7.540 -0.8368 -3.4779  0.0425
  835MOL0     H15228  10.344   8.397   7.715  0.0171  0.4293 -0.6444
  835MOL0     H15229  10.491   8.484   7.722 -0.4778  0.5825  0.1468
  835MOL0     H15230  10.358   8.535   7.828 -0.8718  1.3689  0.4886
  836MOL0     O15231   9.267   0.576   7.349 -0.0341  0.6265 -0.2511
  836MOL0     C15232   9.231   0.521   7.248  0.2463  0.3663  0.5278
  836MOL0     O15233   9.094   0.504   7.216 -0.1653  0.2444 -0.6074
  836MOL0     C15234   8.993   0.591   7.255 -0.1825 -0.9904 -0.6440
  836MOL0     C15235   8.862   0.543   7.257  0.1184 -0.4750  0.5829
  836MOL0     C15236   8.755   0.635   7.292  0.3039  0.5176  0.3526
  836MOL0     C15237   8.770   0.764   7.328  1.0930  0.1359 -0.5151
  836MOL0     O15238   8.660   0.836   7.363  0.7850 -0.0160  0.2379
  836MOL0     C15239   8.665   0.974   7.343 -0.1966  0.0308  0.1018
  836MOL0     C15240   8.518   1.022   7.344 -0.2857  0.2120  0.8665
  836MOL0     C15241   8.495   1.147   7.264  0.5849  1.1950 -0.0084
  836MOL0     C15242   8.343   1.162   7.237  0.4829 -0.0649  0.8804
  836MOL0     C15243   8.313   1.292   7.174 -0.6760 -0.5913  0.3701
  836MOL0     C15244   8.159   1.321   7.155 -0.3934  0.4846 -0.0163
  836MOL0     C15245   8.085   1.346   7.292  0.3983 -0.4996 -0.5708
  836MOL0     C15246   7.945   1.417   7.262  0.6948  0.9243 -0.3793
  836MOL0     N15247   7.887   1.378   7.138 -0.1068  1.2012 -0.1586
  836MOL0     C15248   7.837   1.250   7.130 -0.1565 -0.1632 -0.1647
  836MOL0     C15249   7.730   1.263   7.049  0.5320 -0.3485 -0.3310
  836MOL0     C15250   7.644   1.154   7.008  0.5540  0.4014 -0.0674
  836MOL0     C15251   7.675   1.114   6.867 -0.5734  0.7575  0.6603
  836MOL0     C15252   7.811   1.043   6.825 -0.8095  1.2403  0.3259
  836MOL0     C15253   7.835   1.055   6.670  0.2771  0.2223  0.1071
  836MOL0     O15254   7.955   0.977   6.642  0.1542 -0.6487 -0.3786
  836MOL0     C15255   8.078   1.037   6.649 -1.0910 -0.6555 -0.4981
  836MOL0     C15256   8.118   1.166   6.694  1.0377 -0.1645  0.6637
  836MOL0     C15257   8.247   1.210   6.704  0.4958 -0.3542  0.5979
  836MOL0     C15258   8.260   1.359   6.749 -0.2808 -0.1983  0.5421
  836MOL0     C15259   8.354   1.130   6.667  0.3491 -0.5095 -0.2287
  836MOL0     C15260   8.489   1.172   6.674 -0.7295 -0.2731  1.0958
  836MOL0     O15261   8.571   1.066   6.678  0.7466 -0.2248 -0.3429
  836MOL0     C15262   8.680   1.046   6.759 -0.1087 -0.1390 -0.3724
  836MOL0     C15263   8.759   0.937   6.734 -0.0771 -0.3331 -0.2298
  836MOL0     C15264   8.870   0.916   6.816  0.8101  0.3962  0.0412
  836MOL0     C15265   8.923   1.011   6.902  0.2722 -0.9551  0.9531
  836MOL0     O15266   9.046   1.008   6.962 -0.3501 -0.5978 -0.9784
  836MOL0     C15267   9.130   0.899   6.916  0.4357  0.2763  0.5305
  836MOL0     C15268   9.256   0.915   7.011 -0.9117 -0.0560  0.2747
  836MOL0     C15269   9.370   0.813   6.969  0.8675 -0.4102 -0.2052
  836MOL0     C15270   9.501   0.853   7.021 -0.2412  0.1295 -0.6700
  836MOL0     C15271   9.598   0.736   7.008 -0.4352 -0.2971  0.2794
  836MOL0     C15272   9.672   0.713   6.871  0.0612 -0.3301  0.0330
  836MOL0     C15273   9.767   0.835   6.832 -0.2721  1.1176 -0.6172
  836MOL0     C15274   9.873   0.785   6.731 -0.2158 -0.2493  0.1518
  836MOL0    Cl15275   9.809   0.724   6.572 -0.2913 -0.1247 -0.3998
  836MOL0     C15276   8.838   1.116   6.935 -0.6055 -0.0851  0.8791
  836MOL0     C15277   8.707   1.129   6.869  0.7093 -1.2867  0.4502
  836MOL0     O15278   8.527   1.289   6.676 -0.2481 -0.6087 -0.2802
  836MOL0     C15279   8.322   1.007   6.623  0.7583  0.1634  0.3147
  836MOL0     C15280   8.186   0.959   6.613 -0.3014  1.0497 -0.2372
  836MOL0     N15281   7.722   1.400   7.010  0.3917 -0.7502 -0.3506
  836MOL0     N15282   7.822   1.462   7.058 -0.9585 -0.0563  0.5481
  836MOL0     C15283   8.901   0.810   7.315 -0.7850  0.0894 -0.6057
  836MOL0     C15284   9.015   0.728   7.285  0.9708 -0.1657  0.1312
  836MOL0     C15285   9.331   0.446   7.168  0.1822 -0.8615 -0.1171
  836MOL0     C15286   9.451   0.426   7.234 -0.5674  0.4264  0.2795
  836MOL0     C15287   9.559   0.358   7.167 -0.0421 -0.0240 -0.1931
  836MOL0     C15288   9.539   0.295   7.045 -0.9857  0.1957 -0.4242
  836MOL0     O15289   9.647   0.237   6.990  0.5910  0.5678 -0.4322
  836MOL0     C15290   9.607   0.131   6.886 -0.2043 -0.5206 -0.3615
  836MOL0     C15291   9.517   0.018   6.930  0.3862 -0.2021 -0.3120
  836MOL0     C15292   9.546  -0.102   6.844 -0.6002 -0.0866  0.0976
  836MOL0     C15293   9.534  -0.078   6.687 -0.1830  0.2147  0.7912
  836MOL0     C15294   9.662  -0.040   6.625 -0.5731 -0.2666  0.3144
  836MOL0     C15295   9.771  -0.005   6.583 -0.8895  1.0150  0.1066
  836MOL0     C15296   9.422   0.329   6.975 -0.5650  0.0213  0.0944
  836MOL0     C15297   9.318   0.403   7.033 -0.1261 -0.1376 -0.0395
  836MOL0     C15298   9.193   0.416   6.955 -0.5189 -0.7633 -0.8405
  836MOL0     H15299   8.837   0.445   7.219  1.0491 -1.3938  2.2439
  836MOL0     H15300   8.652   0.601   7.289 -0.7206  3.3540 -1.8383
  836MOL0     H15301   8.705   0.991   7.242 -4.0629  0.8250 -1.4858
  836MOL0     H15302   8.725   1.015   7.425 -3.9778 -1.9938  4.3011
  836MOL0     H15303   8.446   0.949   7.305 -0.7338  1.6327 -1.1514
  836MOL0     H15304   8.472   1.054   7.438  0.4351  1.6962  0.7504
  836MOL0     H15305   8.537   1.235   7.314  0.7660  0.2473  1.5871
  836MOL0     H15306   8.565   1.134   7.180  1.0906 -1.3334  0.7191
  836MOL0     H15307   8.318   1.075   7.175  0.9519 -1.3341  2.3912
  836MOL0     H15308   8.274   1.157   7.322 -2.9548 -1.7068 -1.7625
  836MOL0     H15309   8.352   1.273   7.074 -1.5075 -2.4458  0.3481
  836MOL0     H15310   8.360   1.374   7.229  1.7452 -0.6552 -1.4788
  836MOL0     H15311   8.153   1.411   7.093  0.2878 -0.0767 -0.9349
  836MOL0     H15312   8.113   1.232   7.111 -1.5957  1.5321 -0.9595
  836MOL0     H15313   8.146   1.414   7.352 -1.5931 -1.0200  2.2529
  836MOL0     H15314   8.067   1.254   7.348 -0.7484  1.0289  1.7092
  836MOL0     H15315   7.872   1.403   7.342  0.8691  0.1395 -0.3536
  836MOL0     H15316   7.953   1.526   7.254 -2.3649  1.2395 -0.6800
  836MOL0     H15317   7.878   1.163   7.180 -1.2247 -0.7750 -0.3253
  836MOL0     H15318   7.541   1.184   7.029  0.0727 -0.8519 -0.5162
  836MOL0     H15319   7.668   1.061   7.061  1.7508 -0.1312 -1.4776
  836MOL0     H15320   7.595   1.059   6.816 -0.6468 -0.3459  1.9114
  836MOL0     H15321   7.683   1.213   6.821  2.4095  0.2121 -0.2334
  836MOL0     H15322   7.902   1.081   6.872  0.8347 -0.8900 -0.9286
  836MOL0     H15323   7.790   0.936   6.838  2.3711  0.4018 -0.4751
  836MOL0     H15324   7.761   1.007   6.606  1.4373 -1.2820 -0.1829
  836MOL0     H15325   7.831   1.159   6.639  0.6346  0.6865  1.5388
  836MOL0     H15326   8.031   1.217   6.734 -0.7961 -0.0029 -3.1345
  836MOL0     H15327   8.330   1.370   6.832 -2.5599 -0.5671  2.6222
  836MOL0     H15328   8.166   1.407   6.777  0.5604  0.6386  1.9995
  836MOL0     H15329   8.284   1.420   6.661 -2.1141 -0.1173  0.0652
  836MOL0     H15330   8.739   0.879   6.645  2.0095  0.3690 -1.2241
  836MOL0     H15331   8.910   0.816   6.800 -1.7503 -0.4287 -1.9636
  836MOL0     H15332   9.082   0.802   6.926 -3.3774  2.1412  2.6811
  836MOL0     H15333   9.163   0.915   6.813  0.7677  0.5423  0.6767
  836MOL0     H15334   9.284   1.016   6.978  0.3622 -0.1022  1.1229
  836MOL0     H15335   9.235   0.904   7.117 -1.1290  0.5509  0.2993
  836MOL0     H15336   9.370   0.798   6.861 -1.4042 -1.4111 -0.1434
  836MOL0     H15337   9.343   0.717   7.015  1.3372  0.4154  1.9213
  836MOL0     H15338   9.490   0.882   7.126 -0.6253  0.4946 -0.8098
  836MOL0     H15339   9.541   0.937   6.963  1.7456  0.4037  0.9916
  836MOL0     H15340   9.676   0.747   7.084  0.0808 -1.3655 -0.0725
  836MOL0     H15341   9.538   0.647   7.031 -4.0028  1.6370 -0.8535
  836MOL0     H15342   9.605   0.695   6.786  1.0385  2.6397 -1.4728
  836MOL0     H15343   9.731   0.621   6.878 -2.2397 -2.0077 -1.0719
  836MOL0     H15344   9.812   0.890   6.914  0.7403 -0.8651  0.2127
  836MOL0     H15345   9.705   0.915   6.790 -1.2743  0.3744 -0.6169
  836MOL0     H15346   9.923   0.702   6.782  3.2975  0.9639 -1.0380
  836MOL0     H15347   9.946   0.863   6.708 -0.1633  1.5961  5.2791
  836MOL0     H15348   8.864   1.175   7.022 -1.2663 -1.5326  2.1042
  836MOL0     H15349   8.648   1.215   6.897  1.4867  0.2870 -2.3819
  836MOL0     H15350   8.396   0.939   6.583  3.3156  3.4446 -1.0341
  836MOL0     H15351   8.157   0.857   6.588 -0.7682  0.6290  1.8468
  836MOL0     H15352   8.934   0.906   7.354  2.8367 -0.9322 -0.7659
  836MOL0     H15353   9.116   0.769   7.290  0.3718  1.4193  0.0672
  836MOL0     H15354   9.482   0.476   7.325  0.3292  2.8496 -1.2428
  836MOL0     H15355   9.653   0.358   7.221 -0.5693  2.4351  0.8707
  836MOL0     H15356   9.567   0.176   6.795  0.7550 -0.3021 -0.6800
  836MOL0     H15357   9.699   0.089   6.845  1.1060  2.2022 -0.4046
  836MOL0     H15358   9.414   0.043   6.903  0.8589  0.5969 -1.4534
  836MOL0     H15359   9.533  -0.017   7.032  2.8056 -2.4408 -1.3475
  836MOL0     H15360   9.640  -0.147   6.875 -0.1244 -0.0273 -1.2094
  836MOL0     H15361   9.472  -0.177   6.874 -0.9855 -0.2457 -1.2038
  836MOL0     H15362   9.465   0.005   6.670 -1.6748 -0.9129  1.1867
  836MOL0     H15363   9.486  -0.164   6.640 -0.4744  1.3616 -1.0767
  836MOL0     H15364   9.863   0.037   6.547  0.5237  1.0482  3.4002
  836MOL0     H15365   9.414   0.306   6.869  1.8295 -1.3197  0.1435
  836MOL0     H15366   9.182   0.339   6.878 -2.4739 -3.6058  2.0367
  836MOL0     H15367   9.100   0.412   7.011 -0.5733 -0.5534 -0.9146
  836MOL0     H15368   9.199   0.514   6.906 -2.3605 -0.9898 -1.5770
  837MOL0     O15369   1.069  10.208   7.356  0.8488 -0.5401 -0.6408
  837MOL0     C15370   1.073  10.132   7.444 -0.4290 -0.8868 -0.2394
  837MOL0     O15371   1.027  10.160   7.573  0.6110 -0.8094  0.0295
  837MOL0     C15372   1.020  10.294   7.612  0.0306  0.2886  0.1331
  837MOL0     C15373   1.136  10.356   7.654  0.5834  0.1856  0.0786
  837MOL0     C15374   1.128  10.502   7.684  0.3043  0.5896 -0.4356
  837MOL0     C15375   1.001  10.572   7.672  0.0822  1.0878 -0.7622
  837MOL0     O15376   0.986  10.709   7.706 -0.4445  0.4758  0.0670
  837MOL0     C15377   1.105  10.789   7.710 -0.2433 -0.8439  0.4416
  837MOL0     C15378   1.158  10.833   7.845 -0.1820  0.0123 -0.0487
  837MOL0     C15379   1.307  10.892   7.851  0.3127  0.2611  0.3807
  837MOL0     C15380   1.416  10.774   7.842 -0.1373  0.1390 -0.5253
  837MOL0     C15381   1.547  10.816   7.899  0.5396 -0.3181 -0.6420
  837MOL0     C15382   1.585  10.958   7.868  0.6629 -0.2375  0.6586
  837MOL0     C15383   1.716  11.004   7.907 -1.4255 -0.4548  0.4331
  837MOL0     C15384   1.748  11.149   7.867 -0.3794 -0.6798 -0.6319
  837MOL0     N15385   1.671  11.251   7.950 -0.5400  0.9433  0.0631
  837MOL0     C15386   1.674  11.279   8.084  0.4175 -0.6920  0.2274
  837MOL0     C15387   1.582  11.378   8.097 -0.1185  0.5966 -0.0809
  837MOL0     C15388   1.546  11.436   8.241  0.4897  0.0178  0.4621
  837MOL0     C15389   1.616  11.561   8.257  0.3968  0.3238 -0.2978
  837MOL0     C15390   1.772  11.547   8.271 -0.3667 -1.0211  0.8144
  837MOL0     C15391   1.840  11.679   8.283 -0.1489  0.3170  0.2991
  837MOL0     O15392   1.958  11.700   8.359 -0.6314  0.1120  0.2231
  837MOL0     C15393   2.069  11.657   8.294 -0.3644 -0.5806  0.6859
  837MOL0     C15394   2.135  11.738   8.200  0.9155  0.0416  0.3860
  837MOL0     C15395   2.247  11.688   8.127 -0.4852  0.3572  0.2763
  837MOL0     C15396   2.332  11.793   8.050  0.4123  1.7581 -0.6106
  837MOL0     C15397   2.280  11.553   8.139  0.5669 -0.3999 -0.3417
  837MOL0     C15398   2.396  11.481   8.072  0.2189 -0.4972  0.1514
  837MOL0     O15399   2.464  11.388   8.142 -0.0407  0.3205  0.8846
  837MOL0     C15400   2.599  11.357   8.115 -0.1885  1.1709 -0.1403
  837MOL0     C15401   2.689  11.444   8.050  0.4179  0.0831 -0.7491
  837MOL0     C15402   2.817  11.387   8.023 -0.3734 -0.0381  0.5567
  837MOL0     C15403   2.848  11.254   8.044  0.0945  0.0440 -0.9400
  837MOL0     O15404   2.961  11.187   8.013 -0.3057  0.5448  0.4336
  837MOL0     C15405   3.001  11.204   7.877  0.3976  0.5697 -0.5868
  837MOL0     C15406   2.980  11.062   7.803 -0.0654 -0.1033 -0.8656
  837MOL0     C15407   2.990  11.063   7.647 -0.1784  0.1589 -0.3492
  837MOL0     C15408   2.916  10.962   7.562  1.0219 -0.1049 -0.6497
  837MOL0     C15409   2.923  11.010   7.409  0.5812  1.0526 -0.7872
  837MOL0     C15410   2.847  10.900   7.332  0.5693  0.7028  0.4802
  837MOL0     C15411   2.847  10.926   7.181 -0.5355 -0.3690 -0.3473
  837MOL0     C15412   2.813  10.808   7.094  0.1816 -0.6254  0.3342
  837MOL0    Cl15413   2.641  10.759   7.146  0.0553 -0.1886  0.0498
  837MOL0     C15414   2.754  11.172   8.108 -1.2826  0.2376  0.0390
  837MOL0     C15415   2.629  11.219   8.132  0.3188  0.0457 -0.3611
  837MOL0     O15416   2.420  11.516   7.956 -0.3760  0.3355 -0.4442
  837MOL0     C15417   2.207  11.477   8.234 -0.8360 -0.2098  0.5855
  837MOL0     C15418   2.112  11.526   8.319  0.5466  0.5798  0.0113
  837MOL0     N15419   1.513  11.400   7.977  0.0518 -0.2797 -0.2695
  837MOL0     N15420   1.562  11.325   7.894  0.5738 -0.2553 -0.2228
  837MOL0     C15421   0.889  10.495   7.633 -0.3620  0.2922  0.4444
  837MOL0     C15422   0.903  10.364   7.603  0.1213 -0.0127 -0.3000
  837MOL0     C15423   1.132  10.004   7.422 -0.5721 -0.0052 -0.1334
  837MOL0     C15424   1.213   9.959   7.528  0.3681 -0.9474 -0.2096
  837MOL0     C15425   1.272   9.835   7.525  0.6590  0.0760  0.2903
  837MOL0     C15426   1.256   9.755   7.419 -0.5492  0.5155  0.2341
  837MOL0     O15427   1.302   9.625   7.405 -0.2317  0.0308 -0.5434
  837MOL0     C15428   1.431   9.592   7.451  0.4922 -0.3959  0.2608
  837MOL0     C15429   1.540   9.659   7.364 -0.4898  0.6655  0.0137
  837MOL0     C15430   1.590   9.584   7.239 -0.0348  0.8205  1.0217
  837MOL0     C15431   1.736   9.545   7.226  0.1469 -0.2388 -0.1870
  837MOL0     C15432   1.753   9.496   7.090  0.9813 -0.4841 -0.5309
  837MOL0     C15433   1.764   9.437   6.988  0.2350 -0.0599 -0.2453
  837MOL0     C15434   1.181   9.798   7.310  0.5927  0.3542  0.8130
  837MOL0     C15435   1.116   9.918   7.308 -1.0326 -0.1012 -0.4306
  837MOL0     C15436   1.042   9.950   7.183  0.2071  0.8207 -0.2945
  837MOL0     H15437   1.233  10.315   7.625  1.6490  0.6580  2.7143
  837MOL0     H15438   1.223  10.547   7.708 -0.3878  0.7060  2.4833
  837MOL0     H15439   1.100  10.881   7.652 -1.0684  1.1527  3.4567
  837MOL0     H15440   1.181  10.751   7.641  1.3194  2.5521  0.1117
  837MOL0     H15441   1.087  10.906   7.883  0.1694  0.7901 -0.8633
  837MOL0     H15442   1.151  10.743   7.908  1.7594  0.4550  0.8786
  837MOL0     H15443   1.314  10.980   7.786 -2.6628  1.5200  1.5907
  837MOL0     H15444   1.307  10.924   7.955 -0.8404  0.5462  0.2978
  837MOL0     H15445   1.377  10.678   7.877  2.4532 -0.4443  0.9660
  837MOL0     H15446   1.437  10.758   7.735  4.2525  0.9611  0.0366
  837MOL0     H15447   1.627  10.759   7.852  0.9007  1.3859 -2.2315
  837MOL0     H15448   1.548  10.804   8.008  1.1334  2.7074 -0.2299
  837MOL0     H15449   1.573  10.967   7.759 -3.2388  0.9482  1.0458
  837MOL0     H15450   1.517  11.025   7.920  0.8161  0.4274  0.0270
  837MOL0     H15451   1.797  10.952   7.856 -2.3805 -2.1300  0.5625
  837MOL0     H15452   1.727  10.994   8.016  2.3216 -2.9427  0.0369
  837MOL0     H15453   1.855  11.169   7.879 -1.0287  2.8148  0.5050
  837MOL0     H15454   1.717  11.178   7.767 -1.8931  2.3017  0.5827
  837MOL0     H15455   1.726  11.231   8.167 -1.9336 -3.0218  0.4748
  837MOL0     H15456   1.576  11.360   8.313  0.2623 -0.2781  0.2470
  837MOL0     H15457   1.438  11.453   8.246  0.5469  1.7412 -2.1174
  837MOL0     H15458   1.605  11.619   8.165  1.1357  0.7578 -0.1176
  837MOL0     H15459   1.571  11.610   8.344 -1.8310  0.5516 -1.4885
  837MOL0     H15460   1.801  11.484   8.356 -1.8287  0.3800  2.4197
  837MOL0     H15461   1.814  11.496   8.184  1.5941  0.4439  0.8303
  837MOL0     H15462   1.848  11.708   8.178  3.9558 -0.6480  0.1876
  837MOL0     H15463   1.774  11.754   8.327 -1.1955 -0.0599 -0.5992
  837MOL0     H15464   2.101  11.840   8.190  0.7408  0.0346  0.8746
  837MOL0     H15465   2.294  11.800   7.948 -2.9715  0.4782  0.4276
  837MOL0     H15466   2.437  11.761   8.047 -0.2584 -0.5867 -0.7748
  837MOL0     H15467   2.325  11.893   8.093  2.0933  1.0118  1.6481
  837MOL0     H15468   2.674  11.548   8.024  1.0402 -0.0162 -1.5675
  837MOL0     H15469   2.900  11.444   7.984  0.4356 -1.6945 -0.2629
  837MOL0     H15470   2.953  11.281   7.815 -0.1977 -0.6887 -1.7298
  837MOL0     H15471   3.107  11.227   7.894 -0.6224  4.6326  1.6959
  837MOL0     H15472   3.043  10.988   7.853 -2.4471 -3.0294 -1.9482
  837MOL0     H15473   2.876  11.036   7.825 -0.2208 -2.0280 -3.4875
  837MOL0     H15474   3.097  11.057   7.625 -0.1240 -0.4594  0.0440
  837MOL0     H15475   2.961  11.166   7.624 -2.4862 -0.2019  0.6881
  837MOL0     H15476   2.808  10.955   7.575 -0.0802  2.3323 -5.9777
  837MOL0     H15477   2.965  10.866   7.581  1.3317  0.6333  3.2004
  837MOL0     H15478   2.866  11.100   7.386  0.3877  1.0511 -0.3199
  837MOL0     H15479   3.021  11.023   7.362 -0.2619  1.4023 -2.4882
  837MOL0     H15480   2.745  10.893   7.372  0.4255 -0.0919 -0.0247
  837MOL0     H15481   2.882  10.797   7.340  0.1136  0.4028 -1.0807
  837MOL0     H15482   2.950  10.952   7.155 -0.6613 -0.6627 -1.1609
  837MOL0     H15483   2.775  11.004   7.158 -1.8151 -1.7836 -1.3195
  837MOL0     H15484   2.888  10.735   7.126  0.0040 -0.1956  1.8015
  837MOL0     H15485   2.815  10.827   6.987 -0.1814 -0.3894  0.3672
  837MOL0     H15486   2.778  11.068   8.132  0.2335  0.7773  1.0021
  837MOL0     H15487   2.556  11.150   8.173  0.4460 -0.5272 -1.0839
  837MOL0     H15488   2.239  11.375   8.254  0.1139 -0.5511 -2.2456
  837MOL0     H15489   2.064  11.473   8.400  1.2840  0.8254  0.6257
  837MOL0     H15490   0.790  10.539   7.628 -0.0084  0.9425 -1.6791
  837MOL0     H15491   0.828  10.309   7.547 -2.4072  3.8613 -1.0650
  837MOL0     H15492   1.216  10.014   7.621 -2.2555 -3.8598  1.8394
  837MOL0     H15493   1.328   9.799   7.611 -0.5953 -1.7948  0.3901
  837MOL0     H15494   1.428   9.629   7.554  0.5514 -0.4028  0.2642
  837MOL0     H15495   1.440   9.483   7.441  1.2864 -0.2597 -0.6149
  837MOL0     H15496   1.624   9.691   7.428 -0.2840  1.6687 -0.7302
  837MOL0     H15497   1.519   9.757   7.320  1.1555  1.1159  0.1285
  837MOL0     H15498   1.527   9.496   7.225  2.7380 -1.3320  1.2187
  837MOL0     H15499   1.570   9.653   7.156  0.7418  1.6312  1.4945
  837MOL0     H15500   1.769   9.467   7.295  1.1674  0.8920  0.6390
  837MOL0     H15501   1.789   9.640   7.235  0.9522 -0.3963 -2.5347
  837MOL0     H15502   1.757   9.376   6.901 -1.3177 -0.5507  0.2033
  837MOL0     H15503   1.180   9.735   7.222 -0.1580  0.5576  0.6765
  837MOL0     H15504   1.113   9.990   7.110  1.2562  0.7321  0.6528
  837MOL0     H15505   0.999   9.856   7.146 -0.5044  1.4413 -1.0672
  837MOL0     H15506   0.957  10.014   7.206 -1.6541 -0.7492 -2.3912
  838MOL0     O15507   5.682   7.502   2.838  0.2865 -0.4179  0.4994
  838MOL0     C15508   5.628   7.611   2.840 -0.3509  0.4005  0.4646
  838MOL0     O15509   5.513   7.647   2.901 -1.0688  0.1717 -0.6091
  838MOL0     C15510   5.459   7.549   2.983 -1.0467 -0.2814  0.0877
  838MOL0     C15511   5.521   7.509   3.095 -0.1379  0.6467 -1.2965
  838MOL0     C15512   5.470   7.404   3.170  0.1320 -0.6312 -0.2006
  838MOL0     C15513   5.346   7.344   3.134 -0.3894  0.5828 -0.4581
  838MOL0     O15514   5.291   7.235   3.207 -0.1209 -0.8662  0.0619
  838MOL0     C15515   5.294   7.115   3.127 -0.1035  0.1390  0.8744
  838MOL0     C15516   5.284   6.988   3.221 -0.1325 -0.1281  0.7794
  838MOL0     C15517   5.299   6.854   3.141 -0.2142 -0.0144  0.2338
  838MOL0     C15518   5.350   6.735   3.232 -0.3179  0.4529  0.2551
  838MOL0     C15519   5.360   6.603   3.160  0.4152  0.1271 -0.3813
  838MOL0     C15520   5.427   6.493   3.243 -0.1168  1.5323  0.6799
  838MOL0     C15521   5.449   6.366   3.158 -0.0113 -0.2831 -0.0002
  838MOL0     C15522   5.544   6.270   3.233  0.2250 -0.7412  0.0259
  838MOL0     N15523   5.587   6.151   3.167  0.7033 -0.3062 -0.6295
  838MOL0     C15524   5.673   6.143   3.065 -0.8849  0.5769  0.3256
  838MOL0     C15525   5.659   6.022   3.015 -0.4864  0.1184 -0.1480
  838MOL0     C15526   5.743   5.951   2.902  0.1347  0.2669  0.2249
  838MOL0     C15527   5.813   5.826   2.943  0.3763  0.0918  0.6494
  838MOL0     C15528   5.741   5.708   2.862 -0.3344 -0.5656 -0.5293
  838MOL0     C15529   5.739   5.581   2.930 -0.5654  0.8891  0.0883
  838MOL0     O15530   5.675   5.581   3.050 -0.0728  0.1985  0.2563
  838MOL0     C15531   5.546   5.536   3.044  0.0506  0.6847  0.2793
  838MOL0     C15532   5.521   5.402   3.016  0.4233 -0.3149 -0.0155
  838MOL0     C15533   5.397   5.343   3.025  0.6964 -0.6984  0.1118
  838MOL0     C15534   5.375   5.191   2.985  0.0596 -0.2277 -0.0555
  838MOL0     C15535   5.297   5.423   3.087  1.5972  1.0407  0.3163
  838MOL0     C15536   5.161   5.373   3.135 -0.9700  0.4413 -0.2192
  838MOL0     O15537   5.129   5.431   3.258  0.1800  0.6358  0.1671
  838MOL0     C15538   5.009   5.379   3.301 -0.0824  0.1728 -0.3557
  838MOL0     C15539   4.892   5.417   3.245  0.3731  0.3009  0.7089
  838MOL0     C15540   4.767   5.363   3.275 -0.1248  0.9977 -0.0446
  838MOL0     C15541   4.769   5.268   3.389 -0.9370 -0.0834 -0.4559
  838MOL0     O15542   4.661   5.211   3.446  0.1882  0.2642  0.2683
  838MOL0     C15543   4.636   5.305   3.554 -0.7893 -0.0577 -0.6747
  838MOL0     C15544   4.494   5.284   3.606  0.1651 -0.1133 -0.2403
  838MOL0     C15545   4.469   5.368   3.724  0.4551  0.4953  0.2886
  838MOL0     C15546   4.420   5.274   3.839 -0.0988  0.3269  0.1117
  838MOL0     C15547   4.401   5.358   3.968 -0.3799 -0.2893  0.9707
  838MOL0     C15548   4.298   5.293   4.063  0.1569 -0.5824 -0.4970
  838MOL0     C15549   4.323   5.368   4.189 -0.1272  0.0828 -0.7334
  838MOL0     C15550   4.245   5.327   4.321 -0.5893 -0.5750  0.8053
  838MOL0    Cl15551   4.303   5.432   4.450 -0.1053 -0.0892 -0.5069
  838MOL0     C15552   4.888   5.243   3.454 -0.5422  1.1407  0.3537
  838MOL0     C15553   5.012   5.296   3.407  0.5306 -0.6171 -0.6047
  838MOL0     O15554   5.088   5.307   3.065  0.0374  0.6994  0.1282
  838MOL0     C15555   5.309   5.557   3.116  0.1283 -0.1096 -0.1530
  838MOL0     C15556   5.436   5.615   3.092 -0.6420 -0.1537  0.4846
  838MOL0     N15557   5.550   5.966   3.076 -0.2203  0.1298 -0.7701
  838MOL0     N15558   5.511   6.044   3.174 -0.2372 -0.3788  0.5086
  838MOL0     C15559   5.285   7.393   3.016  0.2912 -0.6080  0.4423
  838MOL0     C15560   5.338   7.497   2.942 -0.1803  0.3787  0.6988
  838MOL0     C15561   5.670   7.712   2.742  0.7546 -0.0381 -0.7762
  838MOL0     C15562   5.576   7.805   2.677 -0.8705  0.1456 -0.0679
  838MOL0     C15563   5.607   7.896   2.579  0.7227 -0.1060  0.3614
  838MOL0     C15564   5.741   7.917   2.556  0.2166  0.1163  0.6558
  838MOL0     O15565   5.802   8.000   2.466  0.0260 -0.2840 -0.7667
  838MOL0     C15566   5.751   8.127   2.431 -0.3106  0.1516  0.3100
  838MOL0     C15567   5.799   8.235   2.528  0.5839  0.3059 -0.0829
  838MOL0     C15568   5.778   8.373   2.458  0.5514 -0.5714 -0.6183
  838MOL0     C15569   5.846   8.485   2.543 -0.3186 -1.2158 -0.0923
  838MOL0     C15570   5.817   8.610   2.470 -0.7864 -1.3429  0.9627
  838MOL0     C15571   5.784   8.719   2.419  0.5685 -0.1069  0.1752
  838MOL0     C15572   5.844   7.847   2.621  0.0418  0.4013 -0.0922
  838MOL0     C15573   5.810   7.739   2.713 -0.9053 -0.1106  0.8855
  838MOL0     C15574   5.931   7.689   2.787  0.6630  0.0446 -0.2407
  838MOL0     H15575   5.618   7.554   3.110  0.0196  0.4190 -1.6256
  838MOL0     H15576   5.526   7.376   3.259  0.6987  0.9094 -0.0397
  838MOL0     H15577   5.382   7.114   3.062 -2.3816  1.0015 -2.4786
  838MOL0     H15578   5.206   7.107   3.063 -0.1318  0.0498  0.9240
  838MOL0     H15579   5.357   7.000   3.302 -1.1702  0.0152  1.7222
  838MOL0     H15580   5.191   6.992   3.279 -0.6972 -0.7647 -0.0579
  838MOL0     H15581   5.198   6.828   3.110  0.5000  0.4018 -2.7655
  838MOL0     H15582   5.362   6.866   3.052 -1.6249 -0.0868 -0.7978
  838MOL0     H15583   5.444   6.773   3.273 -2.0204  3.7251  1.5696
  838MOL0     H15584   5.284   6.726   3.319 -0.4187  0.5696  0.1914
  838MOL0     H15585   5.427   6.612   3.074  2.0828  0.1099  0.8724
  838MOL0     H15586   5.261   6.575   3.122  0.0187  1.4439 -0.3858
  838MOL0     H15587   5.527   6.527   3.270  0.5206 -0.4760  1.0430
  838MOL0     H15588   5.367   6.477   3.333 -1.4156  1.3432 -0.2025
  838MOL0     H15589   5.503   6.387   3.066 -0.1458 -0.2402 -0.0679
  838MOL0     H15590   5.359   6.307   3.136 -0.4014  0.8288 -1.4937
  838MOL0     H15591   5.631   6.323   3.274 -2.2090  4.7092 -0.8754
  838MOL0     H15592   5.488   6.256   3.325  0.9828  1.1077  0.8117
  838MOL0     H15593   5.740   6.217   3.023 -1.5201 -0.8363 -3.6584
  838MOL0     H15594   5.813   6.026   2.865  0.9536  0.0433  1.2637
  838MOL0     H15595   5.677   5.936   2.816 -1.2965 -1.8604  1.5774
  838MOL0     H15596   5.919   5.819   2.916  1.3031 -0.9994  4.0409
  838MOL0     H15597   5.814   5.814   3.052  2.4744  1.5553  0.8375
  838MOL0     H15598   5.635   5.734   2.859 -0.2590  0.4780  2.5781
  838MOL0     H15599   5.782   5.703   2.761  1.2543 -0.9162  0.0987
  838MOL0     H15600   5.698   5.516   2.853  2.0174  0.3300 -0.9340
  838MOL0     H15601   5.844   5.551   2.940 -0.7164  0.8960  2.4608
  838MOL0     H15602   5.613   5.344   3.008  0.6706  0.0432  0.2033
  838MOL0     H15603   5.353   5.184   2.878 -0.2562 -0.8029  0.0419
  838MOL0     H15604   5.302   5.131   3.040  2.4177 -1.5225  1.8816
  838MOL0     H15605   5.473   5.142   2.994 -0.0399 -1.2464 -3.2901
  838MOL0     H15606   4.896   5.491   3.166  0.0109 -0.3120  0.1187
  838MOL0     H15607   4.678   5.383   3.217  1.7541  0.5446 -3.3094
  838MOL0     H15608   4.707   5.291   3.636  0.4107  0.6455 -1.5568
  838MOL0     H15609   4.627   5.411   3.530  0.3585  0.2272  0.1013
  838MOL0     H15610   4.416   5.307   3.533  0.3915  0.6923 -0.2357
  838MOL0     H15611   4.479   5.177   3.624  0.7582 -0.7193 -2.9110
  838MOL0     H15612   4.383   5.429   3.699  0.1045 -0.6616 -1.4943
  838MOL0     H15613   4.554   5.430   3.754  0.7392 -0.0446  0.6246
  838MOL0     H15614   4.498   5.203   3.869  0.6318  1.5974  1.3483
  838MOL0     H15615   4.332   5.222   3.801  0.4393 -0.9112  0.4931
  838MOL0     H15616   4.500   5.368   4.015 -0.3869  2.2696  0.5856
  838MOL0     H15617   4.358   5.455   3.944 -2.6935 -1.5826 -0.4890
  838MOL0     H15618   4.324   5.189   4.086  1.5073 -0.6317 -2.0585
  838MOL0     H15619   4.197   5.319   4.031  1.0510  3.4159 -0.6091
  838MOL0     H15620   4.296   5.470   4.160 -1.8073 -0.2192 -0.3531
  838MOL0     H15621   4.429   5.355   4.213 -0.6010 -0.3128  1.2958
  838MOL0     H15622   4.275   5.223   4.341  0.6241 -0.7296 -1.4974
  838MOL0     H15623   4.140   5.330   4.292 -0.2864  0.9659 -0.2331
  838MOL0     H15624   4.894   5.191   3.549  0.6508  1.4836  0.4917
  838MOL0     H15625   5.103   5.280   3.463 -1.2427  0.2117  2.7979
  838MOL0     H15626   5.236   5.620   3.167 -1.9317 -3.8198  1.9182
  838MOL0     H15627   5.466   5.719   3.107  1.8328 -0.7073 -0.2101
  838MOL0     H15628   5.196   7.346   2.974 -0.2804 -2.3251  3.3230
  838MOL0     H15629   5.298   7.530   2.847 -2.3859 -0.0082  1.4435
  838MOL0     H15630   5.469   7.788   2.674 -0.8536  0.1497 -1.0794
  838MOL0     H15631   5.516   7.937   2.536  0.8773 -1.3153 -1.2095
  838MOL0     H15632   5.810   8.129   2.339  1.6763  2.6307  1.5134
  838MOL0     H15633   5.642   8.121   2.428 -0.3178 -0.7214  1.5140
  838MOL0     H15634   5.901   8.210   2.555  0.9482  0.4485 -1.2725
  838MOL0     H15635   5.730   8.237   2.614  0.2955  4.9154 -0.1376
  838MOL0     H15636   5.841   8.366   2.368  3.2259  0.6299  1.0183
  838MOL0     H15637   5.672   8.391   2.439  0.1577 -2.5913 -0.5375
  838MOL0     H15638   5.955   8.483   2.547 -0.1297 -0.2823 -2.7264
  838MOL0     H15639   5.801   8.485   2.643 -1.2553  2.7934 -0.3286
  838MOL0     H15640   5.747   8.807   2.372 -2.4906 -0.0807  2.3842
  838MOL0     H15641   5.949   7.865   2.603 -0.5346  1.7110 -2.5714
  838MOL0     H15642   6.011   7.762   2.775  1.5332 -0.8317  0.1555
  838MOL0     H15643   5.910   7.664   2.891 -0.0014 -0.2498 -0.4340
  838MOL0     H15644   5.974   7.604   2.733  2.6546  1.5121 -1.0709
  839MOL0     O15645   3.148   4.670  10.087  0.0024  0.1508  0.2020
  839MOL0     C15646   3.258   4.725  10.090 -0.5313  0.0852 -0.0279
  839MOL0     O15647   3.372   4.657  10.062  0.1385 -0.5942  0.3371
  839MOL0     C15648   3.383   4.526  10.010 -0.5202  0.4908 -0.6529
  839MOL0     C15649   3.281   4.461   9.933 -1.0830 -0.2017  0.2302
  839MOL0     C15650   3.277   4.330   9.905 -0.1566  1.2860 -0.4558
  839MOL0     C15651   3.373   4.239   9.967  0.2127  0.3326 -0.7174
  839MOL0     O15652   3.378   4.110   9.933  0.5210  0.5503  0.3596
  839MOL0     C15653   3.434   4.064   9.808 -0.4865  1.0473  0.4837
  839MOL0     C15654   3.433   3.905   9.827  0.6414  0.7160 -0.0418
  839MOL0     C15655   3.518   3.857   9.948 -0.1551  1.6844 -0.9720
  839MOL0     C15656   3.504   3.708   9.976  0.3471  0.2712  0.0487
  839MOL0     C15657   3.572   3.680  10.116 -0.1894 -0.5667  0.1403
  839MOL0     C15658   3.560   3.542  10.168  0.8754 -0.4045  0.1314
  839MOL0     C15659   3.617   3.524  10.305  0.5024 -0.0140 -0.1362
  839MOL0     C15660   3.579   3.391  10.359  0.5260 -0.3087  0.0071
  839MOL0     N15661   3.631   3.284  10.279  0.9069 -0.4048  0.2663
  839MOL0     C15662   3.577   3.236  10.160 -0.3252  0.0399 -0.1676
  839MOL0     C15663   3.662   3.141  10.129 -1.3134  0.2375 -0.4368
  839MOL0     C15664   3.646   3.036  10.018  0.0186  0.3838 -0.0906
  839MOL0     C15665   3.579   2.899  10.062  0.3148  0.5248  0.8049
  839MOL0     C15666   3.428   2.913  10.059 -0.0660  0.3388 -0.0628
  839MOL0     C15667   3.351   2.784  10.110 -0.3475 -0.0896 -0.4173
  839MOL0     O15668   3.392   2.663  10.040  0.9122 -0.3335  0.6932
  839MOL0     C15669   3.456   2.558  10.103  0.3107  0.6089  1.2779
  839MOL0     C15670   3.397   2.492  10.208  0.1801 -0.0150 -0.1729
  839MOL0     C15671   3.436   2.359  10.247 -0.1275  1.0219  0.2363
  839MOL0     C15672   3.359   2.275  10.336 -1.1039  0.0580 -1.0864
  839MOL0     C15673   3.550   2.305  10.171 -1.0361  0.2216 -0.2796
  839MOL0     C15674   3.621   2.185  10.217  0.6493  0.2841  0.5720
  839MOL0     O15675   3.704   2.135  10.122  0.0074 -0.3810  0.0486
  839MOL0     C15676   3.780   2.022  10.145 -0.4033 -0.2646 -0.7545
  839MOL0     C15677   3.718   1.905  10.190  0.3895  0.0808  0.3542
  839MOL0     C15678   3.779   1.784  10.192  0.1032 -0.5449  0.0408
  839MOL0     C15679   3.909   1.771  10.149 -0.8527 -1.2626 -0.1288
  839MOL0     O15680   3.983   1.653  10.153 -0.0616  0.3926  0.0863
  839MOL0     C15681   3.930   1.537  10.220  0.0980 -0.0211  0.3544
  839MOL0     C15682   4.042   1.430  10.221  0.4861 -0.3990 -0.1754
  839MOL0     C15683   3.984   1.289  10.219  0.1442 -0.2262  0.2869
  839MOL0     C15684   4.086   1.177  10.258  0.1702  0.2396  0.3062
  839MOL0     C15685   4.020   1.039  10.246  0.1672  0.1325 -0.8187
  839MOL0     C15686   4.117   0.924  10.233  0.5809  0.6760  0.5754
  839MOL0     C15687   4.043   0.800  10.187 -0.2539 -0.5688 -0.7050
  839MOL0     C15688   4.128   0.670  10.219  0.3239 -0.1065  0.6596
  839MOL0    Cl15689   4.230   0.667  10.077 -0.0138 -0.0143  0.5270
  839MOL0     C15690   3.983   1.889  10.121 -0.2972 -0.6965  0.0008
  839MOL0     C15691   3.917   2.004  10.104 -0.1356 -0.4282  0.1692
  839MOL0     O15692   3.619   2.153  10.335  0.3242  0.1221  0.2375
  839MOL0     C15693   3.613   2.385  10.074  0.2138 -0.0151  0.2558
  839MOL0     C15694   3.557   2.502  10.035 -0.7230 -0.2549  0.2119
  839MOL0     N15695   3.758   3.133  10.222 -0.1246 -0.4634 -0.3441
  839MOL0     N15696   3.748   3.218  10.317  0.5988  0.2634  0.4489
  839MOL0     C15697   3.471   4.300  10.049  0.8149  0.0843 -0.4074
  839MOL0     C15698   3.473   4.440  10.075  0.2172  0.0345 -0.0170
  839MOL0     C15699   3.273   4.864  10.125  0.6994 -0.1923 -0.9815
  839MOL0     C15700   3.161   4.915  10.195  0.3322  0.5273  0.2350
  839MOL0     C15701   3.161   5.050  10.237 -0.4532 -0.3074  0.0115
  839MOL0     C15702   3.271   5.129  10.218 -0.4553  0.5557 -0.6891
  839MOL0     O15703   3.280   5.257  10.255  0.1616 -0.0022 -0.1921
  839MOL0     C15704   3.183   5.310  10.345 -0.5386 -0.0475  0.0369
  839MOL0     C15705   3.200   5.461  10.377 -0.8371 -0.1322  0.5625
  839MOL0     C15706   3.121   5.506  10.497 -0.3848  0.0166  0.0101
  839MOL0     C15707   3.118   5.656  10.533 -0.6939 -1.1514 -0.1737
  839MOL0     C15708   3.043   5.761  10.447  0.1730  0.7937 -0.2438
  839MOL0     C15709   2.980   5.837  10.381 -0.0946  0.0235  0.4576
  839MOL0     C15710   3.376   5.080  10.148 -0.3484  0.0878  0.9652
  839MOL0     C15711   3.374   4.951  10.098  1.1543  0.6116 -0.8540
  839MOL0     C15712   3.490   4.911  10.011  0.1657  1.0877  0.2378
  839MOL0     H15713   3.214   4.528   9.879  0.7989 -0.2634 -2.3826
  839MOL0     H15714   3.200   4.287   9.842  0.5296 -0.5909 -0.1102
  839MOL0     H15715   3.538   4.097   9.807 -0.0631 -0.2436 -1.2697
  839MOL0     H15716   3.374   4.098   9.723 -1.1870 -2.1539 -0.4110
  839MOL0     H15717   3.330   3.881   9.854  1.5813  0.4665  4.0476
  839MOL0     H15718   3.471   3.854   9.738 -1.3800 -1.3029  0.1811
  839MOL0     H15719   3.625   3.875   9.933  1.0046 -2.5172  1.0618
  839MOL0     H15720   3.477   3.916  10.030 -1.6641  0.4276 -0.7798
  839MOL0     H15721   3.396   3.688   9.979 -0.0190  2.1414  2.3703
  839MOL0     H15722   3.554   3.656   9.894 -0.6141  1.1353 -1.1389
  839MOL0     H15723   3.524   3.753  10.182  0.3525  0.4639 -0.5770
  839MOL0     H15724   3.679   3.699  10.114  0.0940 -1.4813  2.6601
  839MOL0     H15725   3.460   3.504  10.147  1.1278 -0.1592 -1.7036
  839MOL0     H15726   3.624   3.480  10.103  0.9240 -0.6623  0.4221
  839MOL0     H15727   3.566   3.588  10.378  1.8316 -2.2276  2.9534
  839MOL0     H15728   3.723   3.547  10.313  0.9006 -2.1925  2.4479
  839MOL0     H15729   3.611   3.372  10.462  0.6361 -1.8187 -0.2776
  839MOL0     H15730   3.472   3.373  10.355  0.6771 -1.2719 -0.0216
  839MOL0     H15731   3.494   3.263  10.096  2.9467 -1.8062 -5.9512
  839MOL0     H15732   3.746   3.002   9.988 -0.2003  0.6627 -1.1970
  839MOL0     H15733   3.593   3.071   9.929  0.9413 -2.0329 -1.6754
  839MOL0     H15734   3.604   2.822   9.990 -2.3227 -2.3609  2.7165
  839MOL0     H15735   3.607   2.864  10.162 -2.2315 -1.1461  1.0221
  839MOL0     H15736   3.398   3.000  10.118  1.3342  0.3068  0.7333
  839MOL0     H15737   3.417   2.936   9.953  2.0966 -2.7003 -1.0778
  839MOL0     H15738   3.368   2.763  10.216  0.5952 -1.5879 -0.8365
  839MOL0     H15739   3.245   2.809  10.108 -0.1699  1.0178  1.4062
  839MOL0     H15740   3.305   2.529  10.253  0.7853 -0.4260  1.4552
  839MOL0     H15741   3.406   2.254  10.432 -2.1610 -2.4518 -1.0438
  839MOL0     H15742   3.331   2.181  10.288  0.0073 -0.8938  0.0636
  839MOL0     H15743   3.268   2.334  10.351  1.4704  4.2999 -0.6283
  839MOL0     H15744   3.615   1.918  10.222 -0.3590  3.0948 -2.7464
  839MOL0     H15745   3.736   1.691  10.227 -4.4388 -0.6485 -4.6939
  839MOL0     H15746   3.886   1.536  10.321  0.4086 -1.3057  0.4916
  839MOL0     H15747   3.842   1.501  10.166  0.0224 -0.9745  1.0889
  839MOL0     H15748   4.096   1.440  10.126  0.6105 -0.6648 -0.1331
  839MOL0     H15749   4.106   1.444  10.309 -0.4576 -1.2984  0.6768
  839MOL0     H15750   3.940   1.266  10.121  2.7129 -3.5618 -0.2876
  839MOL0     H15751   3.911   1.281  10.300  2.3846  2.6362  2.7892
  839MOL0     H15752   4.126   1.192  10.359  1.6313 -0.4175 -0.1477
  839MOL0     H15753   4.167   1.183  10.186  0.2529 -0.4306  0.3403
  839MOL0     H15754   3.960   1.030  10.337 -2.0495 -1.3140 -2.3002
  839MOL0     H15755   3.945   1.034  10.166  0.7762 -1.1183 -1.3513
  839MOL0     H15756   4.165   0.907  10.330  0.2196  1.2800  0.8655
  839MOL0     H15757   4.193   0.949  10.158 -0.3722 -2.3555 -1.5873
  839MOL0     H15758   4.019   0.813  10.081  2.1257  1.1498 -1.1154
  839MOL0     H15759   3.952   0.799  10.248 -0.7560 -1.2766 -1.4569
  839MOL0     H15760   4.065   0.581  10.227 -0.3110  0.1707 -0.7708
  839MOL0     H15761   4.195   0.682  10.305  1.7063  1.6594 -0.5800
  839MOL0     H15762   4.088   1.879  10.096 -0.3607  0.3586 -0.7681
  839MOL0     H15763   3.957   2.093  10.056  1.4486  0.0525  2.2527
  839MOL0     H15764   3.703   2.352  10.021  2.0913  1.3133  2.4389
  839MOL0     H15765   3.601   2.556   9.951  0.4237 -0.5678  0.5863
  839MOL0     H15766   3.548   4.249  10.105  0.8653  1.7243  1.1308
  839MOL0     H15767   3.550   4.471  10.145  1.7466 -0.7681 -1.2534
  839MOL0     H15768   3.081   4.849  10.228 -1.1594  2.2580  0.2547
  839MOL0     H15769   3.074   5.087  10.291 -1.6416 -2.2861 -0.4318
  839MOL0     H15770   3.084   5.299  10.299 -1.3135  0.0636  1.6167
  839MOL0     H15771   3.196   5.246  10.433  0.3222  0.7899  0.5371
  839MOL0     H15772   3.169   5.524  10.293 -0.0091  2.4824  2.0968
  839MOL0     H15773   3.304   5.468  10.410 -0.4305  0.5061 -0.7743
  839MOL0     H15774   3.018   5.470  10.493 -0.9140  0.6712  3.8614
  839MOL0     H15775   3.166   5.443  10.574  0.1699 -2.8020 -2.4225
  839MOL0     H15776   3.223   5.683  10.517 -1.1418  0.1122 -1.2652
  839MOL0     H15777   3.091   5.673  10.637 -1.1532  1.3570 -0.6298
  839MOL0     H15778   2.925   5.903  10.317  1.0040 -0.0923 -0.6403
  839MOL0     H15779   3.466   5.139  10.131  0.2741 -1.0587  0.1760
  839MOL0     H15780   3.552   4.837  10.063 -0.5577  0.2907 -0.0101
  839MOL0     H15781   3.454   4.867   9.917  2.9586 -1.5238  0.2570
  839MOL0     H15782   3.547   5.000   9.983  0.9704  0.7369  0.7319
  840MOL0     O15783   8.953   5.946   4.427  0.1027 -0.0058 -0.3416
  840MOL0     C15784   8.988   6.061   4.454  0.4827  0.0278 -0.6999
  840MOL0     O15785   9.020   6.103   4.584  0.8476 -0.6956 -0.2904
  840MOL0     C15786   8.984   6.035   4.706  0.2133 -0.3644  0.5968
  840MOL0     C15787   8.904   6.111   4.801  0.1331  0.2488  0.1733
  840MOL0     C15788   8.869   6.048   4.917  0.2113  0.3930 -0.5344
  840MOL0     C15789   8.887   5.909   4.938 -0.8256  0.2212  0.1129
  840MOL0     O15790   8.825   5.836   5.038  1.0388 -0.3911 -0.6490
  840MOL0     C15791   8.726   5.909   5.121  0.2175  1.1520 -0.9356
  840MOL0     C15792   8.666   5.821   5.238  0.0939  0.2227 -0.1839
  840MOL0     C15793   8.559   5.728   5.184  0.6799  0.1752  0.6267
  840MOL0     C15794   8.471   5.675   5.302 -0.4740 -0.1517  1.7644
  840MOL0     C15795   8.550   5.605   5.408 -0.0246 -0.1322 -0.1711
  840MOL0     C15796   8.468   5.504   5.491  0.1281 -0.3514 -0.3969
  840MOL0     C15797   8.521   5.477   5.641 -0.7798  0.4233  0.4651
  840MOL0     C15798   8.660   5.422   5.644 -0.0321  0.8566  0.3259
  840MOL0     N15799   8.713   5.401   5.777  0.1851  0.2125  0.2245
  840MOL0     C15800   8.758   5.287   5.838  0.0371  0.1243 -0.7359
  840MOL0     C15801   8.818   5.330   5.955 -0.3528 -0.2429 -0.4385
  840MOL0     C15802   8.861   5.243   6.075 -0.2695  0.6421  0.3004
  840MOL0     C15803   8.993   5.160   6.054  0.4121 -1.5010 -0.0092
  840MOL0     C15804   9.110   5.253   6.037 -0.8742  0.7483 -0.8948
  840MOL0     C15805   9.239   5.174   6.005 -0.3167 -0.2457 -0.5561
  840MOL0     O15806   9.331   5.281   5.964 -0.3210  0.4116 -0.2122
  840MOL0     C15807   9.405   5.351   6.054  0.7158 -0.0803  0.5828
  840MOL0     C15808   9.481   5.295   6.151 -0.8144  0.1169 -0.0144
  840MOL0     C15809   9.554   5.371   6.246  0.4526 -0.0104  1.3174
  840MOL0     C15810   9.628   5.295   6.349  0.4158 -0.6041  0.0314
  840MOL0     C15811   9.539   5.518   6.240 -0.1544 -0.4561  1.0181
  840MOL0     C15812   9.625   5.605   6.325 -0.1544 -0.4850  0.0309
  840MOL0     O15813   9.585   5.731   6.343 -0.3199  0.3818 -0.0973
  840MOL0     C15814   9.653   5.817   6.429 -0.1848 -0.7707 -0.0881
  840MOL0     C15815   9.774   5.878   6.403 -0.4631  0.2699 -0.3849
  840MOL0     C15816   9.834   5.961   6.497 -0.0966  0.4166 -0.3904
  840MOL0     C15817   9.766   5.991   6.621 -0.2001  0.6459 -0.3138
  840MOL0     O15818   9.820   6.069   6.723 -0.3014 -1.1117  0.2301
  840MOL0     C15819   9.910   6.173   6.680  1.3105 -0.7194 -0.8895
  840MOL0     C15820   9.924   6.283   6.777 -1.1431 -1.0449  0.6797
  840MOL0     C15821  10.005   6.397   6.706  0.0896 -0.8988  0.6865
  840MOL0     C15822  10.039   6.500   6.814 -0.6735  0.4319  0.2940
  840MOL0     C15823  10.043   6.642   6.752  0.8216 -0.9054  0.6230
  840MOL0     C15824  10.072   6.750   6.858  0.1438 -1.1069 -0.2855
  840MOL0     C15825  10.032   6.890   6.805 -1.3606  0.6773 -0.4219
  840MOL0     C15826  10.037   6.998   6.914  0.2783  0.6494 -1.3159
  840MOL0    Cl15827   9.985   7.161   6.859  0.0866  0.3738  0.7776
  840MOL0     C15828   9.637   5.940   6.637 -0.2911 -1.4029  0.1093
  840MOL0     C15829   9.583   5.856   6.541  0.2851 -0.9442 -0.3096
  840MOL0     O15830   9.737   5.563   6.358 -0.3677 -0.2182  0.4288
  840MOL0     C15831   9.448   5.576   6.153  1.0268  0.5517 -0.4884
  840MOL0     C15832   9.386   5.491   6.059  0.4817 -0.4837 -0.1264
  840MOL0     N15833   8.808   5.469   5.956  0.6434  0.1495 -0.0418
  840MOL0     N15834   8.736   5.513   5.860  0.5547  0.3721 -0.1809
  840MOL0     C15835   8.972   5.840   4.858 -1.2059 -0.8598 -0.5293
  840MOL0     C15836   9.028   5.903   4.741  0.6957 -0.9229  0.3988
  840MOL0     C15837   9.003   6.145   4.338  0.1769 -0.5338 -0.1702
  840MOL0     C15838   9.060   6.090   4.214 -1.0162 -0.6461 -0.7803
  840MOL0     C15839   9.078   6.177   4.105  0.8949  0.4952 -0.1487
  840MOL0     C15840   9.050   6.312   4.116  0.4863 -0.1631 -0.8257
  840MOL0     O15841   9.099   6.394   4.013 -0.5692  0.6505  1.1305
  840MOL0     C15842   9.214   6.480   4.032  0.3978  0.7327 -0.0264
  840MOL0     C15843   9.340   6.402   4.065  0.5430 -0.3283  0.1579
  840MOL0     C15844   9.384   6.303   3.947 -0.3151 -0.2424 -0.7211
  840MOL0     C15845   9.406   6.359   3.809 -0.3526 -0.1117 -1.4323
  840MOL0     C15846   9.525   6.450   3.819 -0.0278  1.1202 -0.0445
  840MOL0     C15847   9.616   6.534   3.812  0.4582  0.2003 -0.9364
  840MOL0     C15848   8.993   6.365   4.230 -0.0731  0.5962  0.4330
  840MOL0     C15849   8.954   6.280   4.341  0.2600 -0.0143 -0.9472
  840MOL0     C15850   8.886   6.346   4.461  0.1109 -0.3953 -0.0035
  840MOL0     H15851   8.885   6.217   4.788 -0.5490  0.3023  1.4342
  840MOL0     H15852   8.813   6.102   4.994 -1.2152 -2.3304  0.4564
  840MOL0     H15853   8.641   5.950   5.066  1.3970  5.5132  0.0735
  840MOL0     H15854   8.772   5.998   5.165 -0.0838  1.2941 -0.8992
  840MOL0     H15855   8.745   5.758   5.280 -0.8838 -0.2681  0.9644
  840MOL0     H15856   8.633   5.888   5.318  2.2756  0.2548  0.7597
  840MOL0     H15857   8.495   5.787   5.118 -0.3251  1.9373  3.0301
  840MOL0     H15858   8.616   5.645   5.140 -0.4336 -3.9432  5.8786
  840MOL0     H15859   8.413   5.751   5.356 -0.7732 -1.0559  2.7547
  840MOL0     H15860   8.402   5.601   5.261  1.0875 -1.3734  1.2528
  840MOL0     H15861   8.592   5.677   5.478  0.4057 -0.1570 -0.3985
  840MOL0     H15862   8.636   5.556   5.361  0.0174  0.1859 -0.4249
  840MOL0     H15863   8.366   5.543   5.499  1.3223  3.3099 -0.9061
  840MOL0     H15864   8.453   5.407   5.443 -4.1815 -0.1298  0.0893
  840MOL0     H15865   8.456   5.400   5.685  0.6165 -1.2946 -0.3193
  840MOL0     H15866   8.507   5.569   5.699 -3.1462 -0.5516  1.5577
  840MOL0     H15867   8.664   5.327   5.590 -0.9952  0.0879  1.5360
  840MOL0     H15868   8.714   5.492   5.580 -2.0515 -0.4888 -3.0853
  840MOL0     H15869   8.752   5.188   5.796 -1.3699 -0.7035  1.2380
  840MOL0     H15870   8.777   5.185   6.115 -2.4229  2.2412 -1.5739
  840MOL0     H15871   8.890   5.296   6.166 -0.5984 -4.0430  3.4270
  840MOL0     H15872   9.001   5.100   6.146 -6.5694 -1.9522  0.8359
  840MOL0     H15873   8.955   5.099   5.972 -2.9890 -0.7372  0.8638
  840MOL0     H15874   9.100   5.336   5.966  2.8821  2.5426  0.3819
  840MOL0     H15875   9.139   5.302   6.131  4.5967 -3.9129  0.4686
  840MOL0     H15876   9.279   5.117   6.090 -0.4936 -3.7555 -2.6150
  840MOL0     H15877   9.215   5.099   5.930 -1.4984 -0.2434 -0.1954
  840MOL0     H15878   9.484   5.187   6.160 -1.6427  0.1594  0.8806
  840MOL0     H15879   9.734   5.283   6.326  0.2556  2.5854 -3.2602
  840MOL0     H15880   9.586   5.194   6.359 -1.2652 -0.1367 -1.7150
  840MOL0     H15881   9.634   5.354   6.441  0.8158  0.2531 -0.5372
  840MOL0     H15882   9.842   5.843   6.326 -0.8411 -0.9835 -0.1676
  840MOL0     H15883   9.933   6.001   6.476  0.7032 -1.8769 -1.3500
  840MOL0     H15884  10.004   6.134   6.640  0.9413 -2.5029 -0.1267
  840MOL0     H15885   9.844   6.203   6.598  0.3745 -1.9270 -0.6043
  840MOL0     H15886   9.823   6.318   6.799 -1.2152 -2.6074  3.1827
  840MOL0     H15887   9.980   6.245   6.863  3.2719  1.2341 -0.8686
  840MOL0     H15888   9.961   6.455   6.624  3.4780  0.3676 -0.3867
  840MOL0     H15889  10.100   6.359   6.667  0.8592  1.8669 -0.3956
  840MOL0     H15890  10.138   6.493   6.861 -0.3653  2.1243 -0.0250
  840MOL0     H15891   9.961   6.495   6.891  0.8673 -1.1019  1.8463
  840MOL0     H15892  10.130   6.641   6.685  2.1385  0.0527  2.2337
  840MOL0     H15893   9.944   6.656   6.709 -0.0996  1.0721  3.1369
  840MOL0     H15894  10.171   6.756   6.904 -1.9195 -1.1644  4.8180
  840MOL0     H15895  10.010   6.730   6.946  1.3708  0.2388  0.9249
  840MOL0     H15896   9.930   6.892   6.764 -1.3952  1.3958 -0.3158
  840MOL0     H15897  10.091   6.914   6.717 -1.0801 -0.2755 -0.5010
  840MOL0     H15898  10.143   7.001   6.944 -0.4001  0.9751  1.2957
  840MOL0     H15899   9.973   6.975   7.000 -1.4813  3.3994 -1.7732
  840MOL0     H15900   9.583   5.968   6.727  1.3963 -2.4402  1.5029
  840MOL0     H15901   9.488   5.809   6.566 -0.4775  0.2942 -0.7648
  840MOL0     H15902   9.429   5.683   6.154  1.8031  0.7460  2.4687
  840MOL0     H15903   9.317   5.532   5.986 -2.4095 -1.2777  1.9847
  840MOL0     H15904   8.996   5.735   4.874  2.6814 -0.4413 -2.4192
  840MOL0     H15905   9.089   5.844   4.674 -0.3731 -1.7255  0.1043
  840MOL0     H15906   9.097   5.988   4.203  0.1319 -0.5261  1.3676
  840MOL0     H15907   9.140   6.148   4.021  1.7023 -0.2964  0.6982
  840MOL0     H15908   9.224   6.553   3.951  0.0315  1.6726  0.7647
  840MOL0     H15909   9.192   6.546   4.116 -0.9743 -0.3011  0.4521
  840MOL0     H15910   9.324   6.342   4.155 -0.1110 -1.8431 -0.9281
  840MOL0     H15911   9.418   6.477   4.081  0.2068 -0.4684  2.9708
  840MOL0     H15912   9.472   6.245   3.975  0.1002  0.7848  0.1759
  840MOL0     H15913   9.299   6.235   3.934  0.1571 -0.8969 -0.4505
  840MOL0     H15914   9.312   6.402   3.774 -1.6456 -0.9828  0.7763
  840MOL0     H15915   9.433   6.280   3.738  2.3967 -0.7334  0.1731
  840MOL0     H15916   9.699   6.600   3.805  0.6023  0.0258 -0.8817
  840MOL0     H15917   8.971   6.472   4.228 -0.9951  0.4169  0.5805
  840MOL0     H15918   8.782   6.315   4.472 -0.3179 -0.3486 -3.0888
  840MOL0     H15919   8.939   6.336   4.557 -0.3573 -1.1348  0.1925
  840MOL0     H15920   8.879   6.451   4.433 -0.1681 -1.3209 -3.9377
  841MOL0     O15921   9.096   3.374   3.592 -0.2544  0.5067  0.5811
  841MOL0     C15922   9.065   3.293   3.510 -0.0049  0.1688  0.2694
  841MOL0     O15923   9.136   3.210   3.436  0.3120 -0.2431  0.0921
  841MOL0     C15924   9.275   3.210   3.459  0.4451  0.5290  0.1899
  841MOL0     C15925   9.364   3.200   3.353 -1.0191  0.0068  0.4170
  841MOL0     C15926   9.507   3.187   3.375  0.6735 -0.5527 -0.2674
  841MOL0     C15927   9.558   3.182   3.503  0.1358 -0.0813  0.5259
  841MOL0     O15928   9.692   3.181   3.525  0.2588 -0.1302 -0.1533
  841MOL0     C15929   9.755   3.094   3.620 -0.3448 -0.5253  0.1293
  841MOL0     C15930   9.706   2.951   3.609 -0.2189 -0.3175  0.1289
  841MOL0     C15931   9.768   2.844   3.698 -0.2009  0.9503 -0.4972
  841MOL0     C15932   9.716   2.699   3.654  0.1348  0.6609 -0.1680
  841MOL0     C15933   9.800   2.589   3.731  0.2709 -0.0353  0.2806
  841MOL0     C15934   9.713   2.461   3.760 -0.3491 -0.7295 -0.1663
  841MOL0     C15935   9.802   2.339   3.785 -0.7638 -0.4295 -0.1498
  841MOL0     C15936   9.738   2.197   3.821  0.4544  0.1162  0.9996
  841MOL0     N15937   9.600   2.153   3.768  0.5725 -0.0399  0.7243
  841MOL0     C15938   9.554   2.177   3.640  1.0844  0.1427 -0.6142
  841MOL0     C15939   9.419   2.157   3.649 -0.0131 -0.8163 -0.3063
  841MOL0     C15940   9.313   2.156   3.540 -0.8800 -1.0800 -0.8639
  841MOL0     C15941   9.274   2.014   3.486 -0.2691  0.1788 -0.6217
  841MOL0     C15942   9.145   2.036   3.406 -0.0391 -0.1076  0.7305
  841MOL0     C15943   9.074   1.901   3.372 -0.4843  0.6842 -0.7022
  841MOL0     O15944   9.160   1.810   3.307  0.0583 -0.0807 -0.1035
  841MOL0     C15945   9.168   1.677   3.325  0.5195  0.3398 -0.6303
  841MOL0     C15946   9.056   1.595   3.344 -0.5368 -0.1220  1.0415
  841MOL0     C15947   9.063   1.455   3.340  0.5188 -0.5158  0.0599
  841MOL0     C15948   8.933   1.381   3.368  0.3522  0.2101  0.4602
  841MOL0     C15949   9.186   1.384   3.311 -0.1113 -0.5837  0.7262
  841MOL0     C15950   9.198   1.243   3.288  0.3350  1.0537  0.9185
  841MOL0     O15951   9.333   1.198   3.273  0.2247 -0.2528 -0.0980
  841MOL0     C15952   9.359   1.065   3.250 -1.1557 -0.3138 -0.3007
  841MOL0     C15953   9.301   0.957   3.316 -0.7231 -1.1223  0.0398
  841MOL0     C15954   9.342   0.829   3.282 -0.5169 -0.2939 -0.0300
  841MOL0     C15955   9.432   0.807   3.187  0.3560  0.5217 -1.0257
  841MOL0     O15956   9.457   0.679   3.157 -0.3660 -0.4296  0.0713
  841MOL0     C15957   9.581   0.637   3.101 -1.3640 -0.3631 -0.9125
  841MOL0     C15958   9.625   0.489   3.123  0.1042 -0.1322 -1.0217
  841MOL0     C15959   9.763   0.470   3.069  1.1393 -0.2081 -0.0496
  841MOL0     C15960   9.768   0.426   2.921 -0.6148  0.1507 -0.7543
  841MOL0     C15961   9.914   0.397   2.865  0.0693 -0.1189 -0.0125
  841MOL0     C15962   9.968   0.274   2.939 -1.4916 -1.8086 -0.1445
  841MOL0     C15963  10.097   0.223   2.883 -0.7950 -0.1299  0.1531
  841MOL0     C15964  10.157   0.110   2.968 -0.7421  0.6881 -0.2284
  841MOL0    Cl15965  10.063  -0.040   2.991 -0.3212 -0.1152  0.0779
  841MOL0     C15966   9.502   0.902   3.123 -0.3599 -0.8146 -0.1465
  841MOL0     C15967   9.464   1.034   3.147  0.6065  0.0596  0.0610
  841MOL0     O15968   9.099   1.172   3.287  1.6665 -0.4290  0.5904
  841MOL0     C15969   9.292   1.473   3.283  0.6376 -0.3200 -0.1257
  841MOL0     C15970   9.291   1.612   3.292 -0.3693  0.4061 -0.0951
  841MOL0     N15971   9.383   2.115   3.782  0.0475 -0.1445  0.4733
  841MOL0     N15972   9.493   2.117   3.848  0.4132  0.0340 -0.4718
  841MOL0     C15973   9.467   3.169   3.612  0.2263 -0.6054 -0.1140
  841MOL0     C15974   9.330   3.185   3.588 -0.0668  0.1322  0.4542
  841MOL0     C15975   8.915   3.286   3.516 -0.3079  0.3057  0.1331
  841MOL0     C15976   8.855   3.196   3.611  0.4048  0.0091  1.0790
  841MOL0     C15977   8.728   3.218   3.657  0.5294 -0.0170  0.0414
  841MOL0     C15978   8.643   3.317   3.582 -0.2519  0.2072 -0.3071
  841MOL0     O15979   8.518   3.347   3.618 -0.7132  0.1742  0.9522
  841MOL0     C15980   8.462   3.296   3.733 -0.5319 -0.5173 -0.5043
  841MOL0     C15981   8.515   3.375   3.860 -0.7385 -1.1676  1.3282
  841MOL0     C15982   8.419   3.389   3.970  0.2442  0.5174 -0.4221
  841MOL0     C15983   8.506   3.399   4.101  0.5534 -0.6260  0.9645
  841MOL0     C15984   8.537   3.541   4.136  0.4800 -0.5318 -0.4116
  841MOL0     C15985   8.546   3.656   4.178 -0.1482  0.2680  0.2738
  841MOL0     C15986   8.695   3.383   3.472 -0.4368 -0.1031 -0.8398
  841MOL0     C15987   8.832   3.383   3.444  0.5184  0.6535 -0.2615
  841MOL0     C15988   8.889   3.452   3.320 -0.7712  0.2405  0.2691
  841MOL0     H15989   9.317   3.218   3.257  0.3564  1.5799 -0.0215
  841MOL0     H15990   9.580   3.200   3.296 -0.2039 -2.2209 -1.4116
  841MOL0     H15991   9.726   3.141   3.714  4.3126  1.3916  0.8859
  841MOL0     H15992   9.864   3.105   3.625 -0.5500  1.8812  0.3131
  841MOL0     H15993   9.598   2.948   3.624 -0.0658  2.8584  3.0408
  841MOL0     H15994   9.733   2.931   3.504  2.7398 -1.4271  0.9976
  841MOL0     H15995   9.877   2.839   3.695 -0.0526  2.9398  0.2581
  841MOL0     H15996   9.740   2.851   3.804  2.5014 -3.1341  0.7183
  841MOL0     H15997   9.608   2.688   3.669  0.0112 -0.9173 -1.8056
  841MOL0     H15998   9.747   2.689   3.549 -1.6059 -0.0701 -0.6486
  841MOL0     H15999   9.843   2.628   3.824  2.3248 -3.5968  1.0186
  841MOL0     H16000   9.875   2.560   3.656 -0.6266 -1.2800 -0.1615
  841MOL0     H16001   9.661   2.488   3.853  0.5518  2.2567 -0.4101
  841MOL0     H16002   9.642   2.455   3.677  1.7834  3.4706 -2.6213
  841MOL0     H16003   9.868   2.364   3.868 -2.2825 -3.9436  2.3698
  841MOL0     H16004   9.869   2.328   3.699  2.1479  0.3363  1.8691
  841MOL0     H16005   9.805   2.114   3.797 -1.2035 -1.1973  0.7238
  841MOL0     H16006   9.723   2.195   3.929  0.0752 -0.7395  0.9473
  841MOL0     H16007   9.605   2.202   3.548  3.2254 -1.6825 -0.0088
  841MOL0     H16008   9.341   2.218   3.454  1.3334 -2.7629 -1.4608
  841MOL0     H16009   9.226   2.207   3.582  1.0734 -0.5665  2.9319
  841MOL0     H16010   9.365   1.973   3.441 -1.8526 -4.2186 -0.3030
  841MOL0     H16011   9.256   1.945   3.569  2.4412  0.7301  0.5482
  841MOL0     H16012   9.072   2.096   3.461 -0.4450 -1.0419  1.2554
  841MOL0     H16013   9.173   2.084   3.312  1.5430 -0.8908  0.7674
  841MOL0     H16014   9.027   1.854   3.459  0.0090  0.0757 -0.7560
  841MOL0     H16015   9.001   1.932   3.297  0.0203  3.1395 -0.2883
  841MOL0     H16016   8.959   1.638   3.369  0.0533  0.5179  2.2935
  841MOL0     H16017   8.952   1.299   3.438 -0.5742 -0.4859 -0.0747
  841MOL0     H16018   8.891   1.334   3.278 -1.9514  0.9687  1.0505
  841MOL0     H16019   8.858   1.443   3.417 -0.6669 -0.8325  0.2716
  841MOL0     H16020   9.230   0.981   3.394 -1.9003  0.4352 -1.4348
  841MOL0     H16021   9.308   0.739   3.333  1.5077  0.3741  2.7196
  841MOL0     H16022   9.575   0.651   2.993  1.3094 -0.5880 -1.1614
  841MOL0     H16023   9.652   0.714   3.134 -1.2074  0.6834 -3.4302
  841MOL0     H16024   9.624   0.452   3.226 -1.1126  0.8136 -0.6715
  841MOL0     H16025   9.550   0.438   3.063  1.5887  0.2884 -3.3452
  841MOL0     H16026   9.820   0.401   3.132  1.8565  2.6645  2.7462
  841MOL0     H16027   9.821   0.563   3.076  0.3158  0.4370 -1.3545
  841MOL0     H16028   9.739   0.513   2.863 -1.5586  0.2314 -0.1679
  841MOL0     H16029   9.700   0.344   2.896 -1.9684  0.2758  2.1339
  841MOL0     H16030   9.913   0.377   2.757  2.8634  1.7402 -0.4961
  841MOL0     H16031   9.980   0.480   2.890  0.2580 -1.1667  3.5964
  841MOL0     H16032   9.899   0.190   2.946 -0.0150 -2.9188  4.2942
  841MOL0     H16033   9.977   0.303   3.044 -0.3074 -0.0685 -0.6810
  841MOL0     H16034  10.164   0.310   2.879  1.7922 -2.0303 -0.7313
  841MOL0     H16035  10.082   0.187   2.781 -1.0410 -1.6675  0.7043
  841MOL0     H16036  10.174   0.140   3.072 -1.6909  0.4807 -0.0066
  841MOL0     H16037  10.256   0.080   2.933 -1.7325  2.2181 -5.1931
  841MOL0     H16038   9.584   0.881   3.056 -0.4672 -1.7962  0.0111
  841MOL0     H16039   9.515   1.110   3.089 -2.8798  1.6041 -1.2571
  841MOL0     H16040   9.381   1.417   3.254 -0.0305 -2.4702  1.6910
  841MOL0     H16041   9.379   1.672   3.274 -0.4159 -0.2479 -3.0218
  841MOL0     H16042   9.514   3.166   3.709 -1.4641  5.1518  1.2748
  841MOL0     H16043   9.258   3.172   3.669  0.7050  1.5031  1.3778
  841MOL0     H16044   8.921   3.129   3.665  0.6252  0.7797  1.7722
  841MOL0     H16045   8.703   3.154   3.740 -2.1524 -2.5136 -2.4471
  841MOL0     H16046   8.355   3.316   3.728 -0.1728  1.5104 -1.1198
  841MOL0     H16047   8.470   3.188   3.746  1.0395 -0.0998  3.7101
  841MOL0     H16048   8.552   3.475   3.835 -2.3889 -1.1658 -1.6021
  841MOL0     H16049   8.599   3.310   3.885  1.1824 -1.9831 -5.2729
  841MOL0     H16050   8.349   3.472   3.956 -2.1088 -1.1154  0.8246
  841MOL0     H16051   8.358   3.299   3.982 -1.2108  1.3509 -1.2944
  841MOL0     H16052   8.594   3.334   4.109  2.8010  2.1305  0.1079
  841MOL0     H16053   8.434   3.370   4.178  0.0134 -1.2339  0.2495
  841MOL0     H16054   8.565   3.753   4.218 -0.1809  0.1009  0.7014
  841MOL0     H16055   8.635   3.444   3.405 -0.6252 -0.2661 -0.8227
  841MOL0     H16056   8.835   3.545   3.302  0.2777  1.1286  1.5205
  841MOL0     H16057   8.988   3.494   3.339  0.2130 -1.2177 -1.3432
  841MOL0     H16058   8.892   3.389   3.230  0.4690 -1.3350  1.3560
  842MOL0     O16059   6.959   1.920  11.406  0.3302 -0.2661 -0.0804
  842MOL0     C16060   7.046   1.923  11.495 -1.2776  0.4616 -0.0228
  842MOL0     O16061   7.161   1.841  11.499  0.4364 -0.0493  0.0500
  842MOL0     C16062   7.200   1.767  11.392  0.6234 -0.1601 -1.0787
  842MOL0     C16063   7.270   1.652  11.417  1.7790  0.1189 -0.3262
  842MOL0     C16064   7.328   1.574  11.318  0.5099  0.1949 -0.3585
  842MOL0     C16065   7.298   1.617  11.187  0.6162 -1.2629 -0.9655
  842MOL0     O16066   7.339   1.539  11.087 -0.1421  0.2998  0.2577
  842MOL0     C16067   7.238   1.508  10.995 -0.5949  0.7215  0.1589
  842MOL0     C16068   7.254   1.379  10.919 -0.0609 -0.3950 -0.9622
  842MOL0     C16069   7.219   1.270  11.023 -0.2860 -0.1391  0.2457
  842MOL0     C16070   7.256   1.128  10.986 -0.2339  0.0489  0.1927
  842MOL0     C16071   7.221   1.034  11.098  0.4598  0.3379  0.6776
  842MOL0     C16072   7.331   1.008  11.190 -0.3329  0.7360  0.3260
  842MOL0     C16073   7.294   0.948  11.326  0.8867 -0.8722  0.3724
  842MOL0     C16074   7.240   1.059  11.420 -0.6731 -1.1741 -0.4267
  842MOL0     N16075   7.346   1.142  11.472  0.3787  0.3644 -0.3439
  842MOL0     C16076   7.445   1.112  11.556 -0.7908  0.1799 -0.1196
  842MOL0     C16077   7.498   1.226  11.608 -0.5912  0.4866 -0.0049
  842MOL0     C16078   7.586   1.228  11.735  0.3652 -0.5286  0.2955
  842MOL0     C16079   7.688   1.348  11.742 -0.2021  0.7485 -0.9014
  842MOL0     C16080   7.812   1.328  11.652  0.7064  0.6368  0.0736
  842MOL0     C16081   7.780   1.332  11.512  0.1357  0.7430 -0.3623
  842MOL0     O16082   7.908   1.332  11.449  0.3103  0.8079  0.1945
  842MOL0     C16083   7.905   1.323  11.313 -0.3163  0.0155  0.1275
  842MOL0     C16084   7.794   1.342  11.233 -0.4689 -0.1714 -0.8498
  842MOL0     C16085   7.802   1.321  11.094  0.2600  0.2105  0.7564
  842MOL0     C16086   7.668   1.323  11.019 -0.0106 -0.0024  0.0614
  842MOL0     C16087   7.934   1.314  11.028  0.3224 -1.3729 -0.7293
  842MOL0     C16088   7.955   1.327  10.885 -0.3722  0.4815 -0.2698
  842MOL0     O16089   8.086   1.326  10.833 -0.0754  1.3594  0.2154
  842MOL0     C16090   8.110   1.353  10.704 -0.4572  0.0797 -0.9514
  842MOL0     C16091   8.113   1.489  10.672 -0.2117 -0.2246 -0.3416
  842MOL0     C16092   8.125   1.527  10.539  0.0046 -0.6049  0.1392
  842MOL0     C16093   8.155   1.438  10.434  0.1506  0.7764 -0.2147
  842MOL0     O16094   8.171   1.479  10.299  0.6971  0.2150  0.5533
  842MOL0     C16095   8.213   1.387  10.199 -0.4089  0.6743 -0.7935
  842MOL0     C16096   8.196   1.466  10.072 -0.4696 -0.0762 -0.4857
  842MOL0     C16097   8.059   1.529  10.063 -0.0068  0.6666  0.5866
  842MOL0     C16098   7.994   1.533   9.930  0.0962  0.5475  0.0074
  842MOL0     C16099   7.900   1.652   9.933  0.3150  0.9002  0.2591
  842MOL0     C16100   7.821   1.691   9.804  0.9433  0.0551 -0.6627
  842MOL0     C16101   7.723   1.565   9.780 -0.5407 -0.1001 -0.5223
  842MOL0     C16102   7.630   1.562   9.661 -1.1970 -0.6026 -0.4255
  842MOL0    Cl16103   7.721   1.645   9.532  0.4264 -0.7487  0.2754
  842MOL0     C16104   8.161   1.302  10.472  1.3985  0.4316  0.3640
  842MOL0     C16105   8.138   1.261  10.603  0.1050 -0.5088 -0.2343
  842MOL0     O16106   7.860   1.353  10.814 -0.6056  0.9486  0.0654
  842MOL0     C16107   8.046   1.309  11.110 -0.0688  0.0722 -0.6914
  842MOL0     C16108   8.031   1.306  11.249 -0.1238 -0.8737  0.2821
  842MOL0     N16109   7.426   1.327  11.557 -0.8684  1.1164  0.3312
  842MOL0     N16110   7.343   1.279  11.471  0.4924 -0.2173 -0.0115
  842MOL0     C16111   7.239   1.738  11.159  1.0650  0.2475  0.8024
  842MOL0     C16112   7.184   1.817  11.258 -1.0055  0.7252 -0.4057
  842MOL0     C16113   7.026   2.019  11.608 -0.2792  0.2535 -0.1970
  842MOL0     C16114   6.904   2.082  11.626  0.5775 -0.2037 -1.1961
  842MOL0     C16115   6.882   2.176  11.733  1.1334  1.1213 -0.3305
  842MOL0     C16116   6.989   2.213  11.822  0.1105 -0.1406  0.8262
  842MOL0     O16117   6.956   2.300  11.920  0.2594 -0.1320  0.9189
  842MOL0     C16118   7.050   2.342  12.014  0.8949  0.1738 -0.3943
  842MOL0     C16119   7.030   2.257  12.145 -0.2086  0.4329 -0.6554
  842MOL0     C16120   7.167   2.242  12.222  0.2975 -0.3113 -0.5957
  842MOL0     C16121   7.153   2.201  12.372  0.4162  0.1027 -0.3108
  842MOL0     C16122   7.054   2.092  12.394  0.2468  0.2463  0.2338
  842MOL0     C16123   6.982   1.990  12.393  0.4708 -0.2840 -0.4770
  842MOL0     C16124   7.116   2.159  11.793 -1.1069 -1.4254  0.1502
  842MOL0     C16125   7.135   2.059  11.702 -0.3960  0.2868 -0.0250
  842MOL0     C16126   7.275   2.019  11.689 -0.7264  0.3489 -1.6163
  842MOL0     H16127   7.289   1.630  11.521  4.1003 -1.0585 -0.9292
  842MOL0     H16128   7.391   1.496  11.359  1.6623  2.3135  2.2468
  842MOL0     H16129   7.245   1.583  10.915  0.0944  0.4891 -0.0033
  842MOL0     H16130   7.136   1.525  11.028 -1.1556  0.4756 -1.3659
  842MOL0     H16131   7.186   1.367  10.835  2.0874  0.3755 -2.9157
  842MOL0     H16132   7.359   1.376  10.889 -0.0092 -1.6017 -0.6923
  842MOL0     H16133   7.278   1.288  11.114 -1.0749  0.0189  0.7322
  842MOL0     H16134   7.112   1.266  11.044 -0.4309  1.9363  0.0487
  842MOL0     H16135   7.210   1.103  10.890  1.1154  2.8876 -1.3267
  842MOL0     H16136   7.363   1.113  10.964 -0.2139  0.6667 -0.1573
  842MOL0     H16137   7.210   0.933  11.057  1.2720  0.5424 -0.0690
  842MOL0     H16138   7.134   1.074  11.152 -0.2011  0.9899 -0.8121
  842MOL0     H16139   7.399   0.937  11.143 -1.5603 -0.8997  0.9411
  842MOL0     H16140   7.390   1.097  11.214  0.3422 -0.2078  2.3832
  842MOL0     H16141   7.391   0.909  11.359  2.9272  0.2731 -3.6734
  842MOL0     H16142   7.229   0.862  11.313  0.3291 -0.8365  2.4893
  842MOL0     H16143   7.168   1.117  11.362 -0.2378  0.0421  0.2088
  842MOL0     H16144   7.192   1.022  11.511 -2.7104  2.3146  0.0979
  842MOL0     H16145   7.474   1.017  11.600 -1.7924  1.7887  4.5722
  842MOL0     H16146   7.636   1.131  11.734 -1.6716 -1.6579 -0.9469
  842MOL0     H16147   7.518   1.225  11.821  0.3282 -4.3176  0.3100
  842MOL0     H16148   7.636   1.440  11.717 -3.3970 -0.1147  1.9345
  842MOL0     H16149   7.717   1.351  11.847 -0.2604 -0.1959 -0.8463
  842MOL0     H16150   7.879   1.408  11.687 -0.9126  1.0204  2.5657
  842MOL0     H16151   7.863   1.235  11.679 -0.1063  0.7425  2.2033
  842MOL0     H16152   7.728   1.238  11.489 -0.8555  0.5851  2.2441
  842MOL0     H16153   7.707   1.410  11.487 -1.5884 -0.1031  1.7330
  842MOL0     H16154   7.702   1.380  11.275 -1.3519 -0.3783 -2.5374
  842MOL0     H16155   7.652   1.265  10.927  1.6352  0.2832 -0.4287
  842MOL0     H16156   7.648   1.425  10.985  0.7241 -0.2799 -1.2866
  842MOL0     H16157   7.592   1.282  11.087 -1.5796 -1.1313 -2.2499
  842MOL0     H16158   8.108   1.565  10.750  1.2991  1.8177 -2.1162
  842MOL0     H16159   8.127   1.635  10.528  1.2017 -0.5200  1.0548
  842MOL0     H16160   8.313   1.347  10.216 -0.6021 -0.9829 -3.1753
  842MOL0     H16161   8.140   1.306  10.205  2.1721 -1.8381 -1.4126
  842MOL0     H16162   8.276   1.533  10.038  3.0945 -3.7490 -0.1478
  842MOL0     H16163   8.186   1.385  10.000 -1.9800 -1.0204  0.7190
  842MOL0     H16164   8.077   1.630  10.102  4.6182  0.4621 -0.4149
  842MOL0     H16165   7.992   1.472  10.128 -0.2469  1.5342  1.1102
  842MOL0     H16166   7.944   1.440   9.902  0.0042  0.9825 -1.3379
  842MOL0     H16167   8.066   1.550   9.850 -1.9007  0.1657 -1.9530
  842MOL0     H16168   7.836   1.644  10.021 -0.0306  0.3427 -0.0360
  842MOL0     H16169   7.962   1.740   9.951 -0.3622  0.8640  3.2805
  842MOL0     H16170   7.887   1.690   9.717  2.2998  1.6995  0.2865
  842MOL0     H16171   7.763   1.783   9.810  1.3322  0.3307 -1.0790
  842MOL0     H16172   7.658   1.554   9.867 -1.3330 -1.0678 -1.2024
  842MOL0     H16173   7.781   1.473   9.775  2.7417  1.5638  2.8446
  842MOL0     H16174   7.534   1.611   9.679  0.5350  2.7280  0.6629
  842MOL0     H16175   7.613   1.457   9.637 -0.2127 -1.0992  0.9714
  842MOL0     H16176   8.186   1.214  10.414 -1.8811 -0.4621  0.0991
  842MOL0     H16177   8.151   1.155  10.621 -0.2430 -0.2925  1.4301
  842MOL0     H16178   8.147   1.306  11.071 -0.2970  2.0904 -1.5249
  842MOL0     H16179   8.122   1.316  11.307  1.4071 -0.7897 -1.9939
  842MOL0     H16180   7.243   1.761  11.053  2.8794 -4.6928 -0.4866
  842MOL0     H16181   7.147   1.916  11.233  2.5639  1.7875 -2.0551
  842MOL0     H16182   6.816   2.045  11.573 -0.1789 -0.8786  0.4722
  842MOL0     H16183   6.779   2.204  11.750  0.9331 -1.0278  2.9904
  842MOL0     H16184   7.147   2.350  11.963  0.2726  5.9680 -1.2933
  842MOL0     H16185   7.035   2.447  12.040  3.4354  0.0610  1.9916
  842MOL0     H16186   6.983   2.161  12.118  0.4083  0.2237 -1.0038
  842MOL0     H16187   6.969   2.309  12.219 -0.3154  0.5334 -0.8108
  842MOL0     H16188   7.229   2.169  12.169  0.8292  1.8607 -3.2397
  842MOL0     H16189   7.220   2.337  12.209 -1.9760  1.1711  0.3261
  842MOL0     H16190   7.133   2.283  12.442  0.1544  0.4739 -0.8131
  842MOL0     H16191   7.251   2.156  12.392  0.7210  0.1920 -1.5087
  842MOL0     H16192   6.903   1.918  12.383 -0.1775  0.5764 -1.8190
  842MOL0     H16193   7.207   2.189  11.843  0.4332 -2.5835 -1.8087
  842MOL0     H16194   7.333   2.028  11.782  0.9102  0.2785 -2.5956
  842MOL0     H16195   7.269   1.911  11.671 -4.0819  0.0249  0.4953
  842MOL0     H16196   7.322   2.085  11.616  1.7333  1.6259  0.9297
  843MOL0     O16197   6.505   6.913   3.654 -0.2340  0.7646  0.4223
  843MOL0     C16198   6.612   6.970   3.665 -0.7495 -1.0130  1.1318
  843MOL0     O16199   6.624   7.087   3.604  0.1741 -0.2278  0.7826
  843MOL0     C16200   6.601   7.095   3.467  0.1856  0.9493  0.0465
  843MOL0     C16201   6.590   6.994   3.375  0.1386  0.0843 -0.2767
  843MOL0     C16202   6.575   7.013   3.241 -0.4027 -0.6364  0.6628
  843MOL0     C16203   6.577   7.151   3.191  0.1851 -0.2748 -0.9298
  843MOL0     O16204   6.553   7.190   3.059 -0.0145  0.5854  0.0220
  843MOL0     C16205   6.429   7.137   3.008 -0.0585  0.2546  0.6112
  843MOL0     C16206   6.316   7.237   3.008  0.1488 -0.8301 -0.6174
  843MOL0     C16207   6.180   7.182   2.968  0.6563 -0.0129 -0.5142
  843MOL0     C16208   6.069   7.280   2.966 -0.3062 -0.1175  0.2942
  843MOL0     C16209   5.933   7.236   2.911 -0.2268  0.9326  0.4262
  843MOL0     C16210   5.876   7.110   2.956  0.6707  0.5180 -1.0196
  843MOL0     C16211   5.870   7.101   3.116  0.6557  0.7761  1.2070
  843MOL0     C16212   5.757   7.198   3.167 -0.1162  0.4537 -0.4727
  843MOL0     N16213   5.768   7.202   3.313  0.2123  0.3068 -0.0567
  843MOL0     C16214   5.738   7.094   3.395  0.0527 -0.0891  0.4506
  843MOL0     C16215   5.761   7.130   3.525  1.1933 -0.3724 -0.3574
  843MOL0     C16216   5.737   7.048   3.655  0.1501  0.1637 -0.2174
  843MOL0     C16217   5.649   6.923   3.625  0.6518 -0.6284 -0.6202
  843MOL0     C16218   5.507   6.956   3.578 -0.2240 -0.0047 -0.5439
  843MOL0     C16219   5.417   6.846   3.612 -0.2109 -0.4740 -0.2763
  843MOL0     O16220   5.467   6.723   3.555 -0.4233 -1.0061  0.1852
  843MOL0     C16221   5.439   6.607   3.626 -0.2603 -0.2587 -0.8923
  843MOL0     C16222   5.541   6.511   3.618  0.4080  0.4619 -0.8301
  843MOL0     C16223   5.530   6.405   3.711  0.2971  0.2838 -0.3761
  843MOL0     C16224   5.641   6.309   3.693 -0.7381  0.3680 -0.1845
  843MOL0     C16225   5.416   6.385   3.793 -0.1791  0.6572 -1.2235
  843MOL0     C16226   5.396   6.254   3.868  0.0797 -0.2515 -0.7698
  843MOL0     O16227   5.261   6.223   3.881 -0.2016  0.1303  0.1513
  843MOL0     C16228   5.233   6.106   3.933  0.6412 -0.8879  0.7755
  843MOL0     C16229   5.276   6.072   4.056 -0.0479  0.1578 -0.1475
  843MOL0     C16230   5.242   5.950   4.110 -0.6116 -0.0589  0.7404
  843MOL0     C16231   5.158   5.864   4.040  0.6902  0.4511 -0.1035
  843MOL0     O16232   5.108   5.748   4.107 -0.1150  0.1807 -0.3476
  843MOL0     C16233   5.132   5.621   4.042  0.4965 -0.8251  0.4572
  843MOL0     C16234   5.278   5.594   4.022 -0.3962 -0.3436 -0.1034
  843MOL0     C16235   5.350   5.579   4.166 -0.0908 -0.0349  1.1625
  843MOL0     C16236   5.317   5.445   4.232  0.1761 -0.3174 -0.1231
  843MOL0     C16237   5.435   5.373   4.301  0.4559  0.1392  0.0361
  843MOL0     C16238   5.515   5.296   4.201  0.0493  0.6337 -0.3574
  843MOL0     C16239   5.465   5.154   4.168 -0.2895 -0.5544  0.2382
  843MOL0     C16240   5.478   5.136   4.014  0.2572 -0.5237  1.0124
  843MOL0    Cl16241   5.344   5.223   3.942 -0.3770  0.0199 -0.0449
  843MOL0     C16242   5.124   5.896   3.909 -0.4964  0.7133 -0.8768
  843MOL0     C16243   5.169   6.011   3.854 -0.7020 -0.6772  0.3861
  843MOL0     O16244   5.486   6.183   3.908 -0.1850  0.5560  0.6331
  843MOL0     C16245   5.316   6.477   3.790  0.3911 -0.3925 -0.3351
  843MOL0     C16246   5.329   6.588   3.714 -0.2876 -1.0491  0.0206
  843MOL0     N16247   5.796   7.268   3.518  0.7769  0.1455  0.2150
  843MOL0     N16248   5.821   7.298   3.394  0.3877 -0.8307  0.2086
  843MOL0     C16249   6.591   7.253   3.286  0.1952  0.2367 -1.0966
  843MOL0     C16250   6.593   7.227   3.418  0.9939 -0.0413  0.2501
  843MOL0     C16251   6.725   6.932   3.750 -0.8776 -0.3537 -0.6420
  843MOL0     C16252   6.839   7.015   3.766  0.6524 -0.7979  0.1763
  843MOL0     C16253   6.945   6.976   3.855 -0.6346 -0.4976  0.5889
  843MOL0     C16254   6.940   6.853   3.924 -1.5308 -0.5441 -0.1286
  843MOL0     O16255   7.059   6.828   3.991 -0.6391 -0.3737  1.1834
  843MOL0     C16256   7.081   6.719   4.077 -0.1786 -0.3129 -0.1779
  843MOL0     C16257   6.993   6.723   4.210  0.2071 -0.0488 -0.6035
  843MOL0     C16258   6.980   6.582   4.265  0.2653 -0.0547 -0.5175
  843MOL0     C16259   7.110   6.504   4.315 -0.1121 -0.0548  0.3413
  843MOL0     C16260   7.068   6.401   4.413 -0.6657 -0.1498 -0.7254
  843MOL0     C16261   7.045   6.317   4.498 -0.4361  0.4115  0.4395
  843MOL0     C16262   6.835   6.777   3.909  1.0213 -0.6834 -0.1758
  843MOL0     C16263   6.722   6.810   3.822 -0.2552 -0.0509 -0.6488
  843MOL0     C16264   6.609   6.695   3.804 -0.1010 -0.9230  0.3734
  843MOL0     H16265   6.602   6.891   3.408  2.3209  0.2723 -0.3188
  843MOL0     H16266   6.554   6.934   3.170 -2.9820  3.1357 -3.2613
  843MOL0     H16267   6.408   7.041   3.055  2.7701 -1.4140 -1.2687
  843MOL0     H16268   6.442   7.105   2.904 -3.6644  0.4789 -0.0658
  843MOL0     H16269   6.298   7.275   3.109  1.8310  0.8231 -0.8876
  843MOL0     H16270   6.340   7.322   2.943 -2.0609 -0.1120 -0.5740
  843MOL0     H16271   6.184   7.134   2.869 -0.9823 -3.5489  0.9434
  843MOL0     H16272   6.156   7.097   3.032 -3.5723 -0.5469 -2.4643
  843MOL0     H16273   6.059   7.318   3.068 -0.0365  1.1290 -0.1193
  843MOL0     H16274   6.099   7.371   2.914  1.5003  0.9843  3.0430
  843MOL0     H16275   5.950   7.227   2.803  0.8318 -2.3208  0.7506
  843MOL0     H16276   5.858   7.314   2.920 -0.0770  0.9331  1.9327
  843MOL0     H16277   5.782   7.087   2.905  0.5639  0.3034 -0.7318
  843MOL0     H16278   5.923   7.016   2.924 -0.9253  0.2688 -2.8427
  843MOL0     H16279   5.969   7.120   3.156  0.3741 -0.6534  2.6548
  843MOL0     H16280   5.845   6.998   3.144 -2.2656  0.8484 -0.6605
  843MOL0     H16281   5.765   7.289   3.107  1.5521 -1.1043 -2.7935
  843MOL0     H16282   5.655   7.161   3.157  0.4725 -2.4385  2.3799
  843MOL0     H16283   5.709   6.993   3.369  1.6107 -0.0039 -1.8848
  843MOL0     H16284   5.691   7.115   3.728  0.1381 -0.2983  0.1990
  843MOL0     H16285   5.834   7.021   3.699  0.3211 -0.4250 -0.9350
  843MOL0     H16286   5.702   6.854   3.559  1.0045 -3.3761  2.2541
  843MOL0     H16287   5.645   6.865   3.718  1.1138  0.5624  0.1675
  843MOL0     H16288   5.485   7.045   3.638  0.4275  0.3011 -0.7493
  843MOL0     H16289   5.503   6.989   3.473  0.9270  2.7799  0.1778
  843MOL0     H16290   5.420   6.842   3.721 -2.4605 -0.5883 -0.1724
  843MOL0     H16291   5.312   6.862   3.587  0.2437 -1.9885 -3.7206
  843MOL0     H16292   5.628   6.531   3.557 -1.4440  0.9597 -3.4608
  843MOL0     H16293   5.726   6.332   3.757 -0.2284 -0.4161 -0.5640
  843MOL0     H16294   5.665   6.311   3.586 -1.1238  0.7831 -0.2631
  843MOL0     H16295   5.612   6.204   3.707 -0.5722 -0.4397 -4.5128
  843MOL0     H16296   5.342   6.146   4.101  0.2576 -0.1909 -0.0180
  843MOL0     H16297   5.277   5.928   4.210  1.2017 -0.1767  0.1223
  843MOL0     H16298   5.079   5.540   4.092 -0.0063 -3.0013 -3.1954
  843MOL0     H16299   5.089   5.616   3.941  0.7813  1.1634  0.1920
  843MOL0     H16300   5.275   5.499   3.968  0.1544  1.7925 -4.3114
  843MOL0     H16301   5.324   5.669   3.957  0.6427 -1.3069 -0.5240
  843MOL0     H16302   5.327   5.659   4.237 -1.7450  1.0656 -0.5420
  843MOL0     H16303   5.459   5.568   4.158 -0.1570 -1.8853  2.2539
  843MOL0     H16304   5.272   5.379   4.157  2.6755 -1.4817 -0.6898
  843MOL0     H16305   5.243   5.466   4.310 -0.6561 -3.1392 -0.0522
  843MOL0     H16306   5.503   5.445   4.347  1.5154  0.0992 -1.4143
  843MOL0     H16307   5.392   5.312   4.381 -0.1139  0.4350 -0.0419
  843MOL0     H16308   5.619   5.282   4.229 -0.4420 -3.5901  0.0123
  843MOL0     H16309   5.524   5.348   4.105 -1.6491  0.0159 -0.8948
  843MOL0     H16310   5.363   5.133   4.201 -0.4055 -0.3269  0.0235
  843MOL0     H16311   5.526   5.077   4.216 -1.4164 -1.8332 -0.2985
  843MOL0     H16312   5.462   5.029   3.996 -2.8701 -0.0785  0.4931
  843MOL0     H16313   5.574   5.179   3.983 -1.2010  0.5925 -2.4949
  843MOL0     H16314   5.059   5.833   3.849 -0.3062  0.2719 -0.6223
  843MOL0     H16315   5.140   6.028   3.751  2.2867  0.0061 -0.4429
  843MOL0     H16316   5.236   6.469   3.863  0.9562 -2.2214  0.1296
  843MOL0     H16317   5.252   6.665   3.713 -2.4268 -3.0381  1.4180
  843MOL0     H16318   6.597   7.358   3.258  0.8533  0.2344 -0.9836
  843MOL0     H16319   6.596   7.313   3.484  5.4688  0.4594 -0.2448
  843MOL0     H16320   6.853   7.112   3.718 -0.3823  0.2714  1.8894
  843MOL0     H16321   7.037   7.033   3.861 -0.9621  0.1654 -0.4504
  843MOL0     H16322   7.058   6.627   4.023  1.3426 -0.4874 -0.5762
  843MOL0     H16323   7.185   6.724   4.113  0.7460  3.2845 -2.8119
  843MOL0     H16324   6.889   6.754   4.191  1.1143  2.6732 -1.5577
  843MOL0     H16325   7.041   6.776   4.292 -4.9025 -0.4002  3.1119
  843MOL0     H16326   6.904   6.581   4.344  0.1417 -2.1105 -0.6175
  843MOL0     H16327   6.932   6.523   4.187  1.7514  0.4541 -1.8829
  843MOL0     H16328   7.166   6.584   4.364 -1.5973  1.2874 -0.0699
  843MOL0     H16329   7.175   6.464   4.236 -0.4832  0.2618 -0.1301
  843MOL0     H16330   7.026   6.250   4.579  2.3366 -1.0206  0.0205
  843MOL0     H16331   6.842   6.674   3.943 -0.5366 -0.7940 -0.1070
  843MOL0     H16332   6.507   6.733   3.818 -0.8199 -2.2774 -0.9800
  843MOL0     H16333   6.614   6.658   3.702 -1.7696 -2.6047  0.8507
  843MOL0     H16334   6.626   6.614   3.876  0.8365 -1.6078 -0.6005
  844MOL0     O16335   5.129   8.365   9.838 -0.2548  0.2900  0.5080
  844MOL0     C16336   5.173   8.256   9.875  0.9248  0.2155 -0.3767
  844MOL0     O16337   5.132   8.189   9.993 -0.1435 -0.5123 -0.6015
  844MOL0     C16338   5.047   8.253  10.076 -1.2210  0.2877 -0.0675
  844MOL0     C16339   5.050   8.385  10.120 -0.1381  0.8360 -0.6459
  844MOL0     C16340   4.944   8.432  10.205 -0.0703  0.2479  0.0398
  844MOL0     C16341   4.836   8.357  10.247 -0.6898  0.2376 -0.0767
  844MOL0     O16342   4.730   8.409  10.321 -0.2343  0.5187 -0.1097
  844MOL0     C16343   4.712   8.547  10.332 -0.5206  0.1706  0.2448
  844MOL0     C16344   4.601   8.565  10.436  0.3049  0.2844  0.2778
  844MOL0     C16345   4.587   8.711  10.457  0.2420  0.0491 -0.4661
  844MOL0     C16346   4.464   8.736  10.553  0.4663 -0.8650 -1.1563
  844MOL0     C16347   4.477   8.856  10.635  0.5785 -0.1886 -0.2651
  844MOL0     C16348   4.352   8.891  10.724  0.0519 -0.6839 -0.7622
  844MOL0     C16349   4.362   9.031  10.770  1.0613  0.0628 -0.9392
  844MOL0     C16350   4.492   9.063  10.852  1.0883 -0.2560  0.6708
  844MOL0     N16351   4.474   9.203  10.891  0.2168 -0.6440 -0.3948
  844MOL0     C16352   4.373   9.279  10.957 -0.4609 -0.2106  0.1139
  844MOL0     C16353   4.428   9.402  10.956  0.6433 -0.1112 -0.0310
  844MOL0     C16354   4.359   9.533  10.992  0.4400 -0.5606  0.3419
  844MOL0     C16355   4.222   9.546  10.925 -0.0712  0.2222 -0.3111
  844MOL0     C16356   4.250   9.618  10.789 -0.6696  0.8619 -1.1656
  844MOL0     C16357   4.322   9.526  10.695 -0.6869  0.5220  0.1935
  844MOL0     O16358   4.230   9.409  10.669 -0.7929 -0.2840  0.1484
  844MOL0     C16359   4.277   9.326  10.564 -0.0534  0.0684 -0.8089
  844MOL0     C16360   4.195   9.228  10.502 -0.8848  0.4327  0.4011
  844MOL0     C16361   4.249   9.125  10.420 -0.3391 -0.0285 -0.1019
  844MOL0     C16362   4.163   9.007  10.390  0.1865  0.3092  0.3346
  844MOL0     C16363   4.387   9.134  10.383  0.3730 -0.6303 -0.0020
  844MOL0     C16364   4.440   9.039  10.277 -0.1076 -1.2732  0.1154
  844MOL0     O16365   4.583   9.040  10.263  0.7500  0.3953  0.2019
  844MOL0     C16366   4.644   8.960  10.165  0.0956  0.2286 -0.2148
  844MOL0     C16367   4.762   9.015  10.125 -0.1297  0.7340 -0.1061
  844MOL0     C16368   4.826   8.957  10.017 -0.6930 -0.2643 -0.8498
  844MOL0     C16369   4.793   8.842   9.947  0.9564 -0.9610  0.3702
  844MOL0     O16370   4.865   8.798   9.839  0.1767 -1.1995  0.2091
  844MOL0     C16371   4.818   8.827   9.709 -0.4199  0.5805  0.5208
  844MOL0     C16372   4.857   8.708   9.618 -0.1759 -0.2760  0.2007
  844MOL0     C16373   4.991   8.702   9.552 -0.1016  0.7999 -0.2506
  844MOL0     C16374   5.027   8.559   9.497  0.1658  0.4082 -0.9226
  844MOL0     C16375   5.167   8.567   9.414 -0.1197  0.0524 -0.4037
  844MOL0     C16376   5.160   8.651   9.284  0.9144  0.5036  0.4779
  844MOL0     C16377   5.297   8.636   9.209  0.3331 -0.0408  0.0832
  844MOL0     C16378   5.291   8.688   9.063 -0.6321  0.4163  0.2932
  844MOL0    Cl16379   5.270   8.862   9.060  0.2233  0.4753 -0.5766
  844MOL0     C16380   4.675   8.789   9.988  0.6959  0.4237  0.4520
  844MOL0     C16381   4.594   8.846  10.088 -0.4406 -1.0139 -0.0623
  844MOL0     O16382   4.370   8.983  10.194 -0.0726 -0.0416  0.3897
  844MOL0     C16383   4.472   9.232  10.440  0.4295  0.2750 -0.4427
  844MOL0     C16384   4.421   9.317  10.535  0.3370 -0.2121 -0.8303
  844MOL0     N16385   4.554   9.388  10.927  0.3476 -1.4280  0.9518
  844MOL0     N16386   4.585   9.276  10.880  0.3104 -0.2360 -0.8991
  844MOL0     C16387   4.845   8.218  10.208  0.9952 -0.1848 -0.0892
  844MOL0     C16388   4.938   8.174  10.112 -1.0215  0.4343  0.0375
  844MOL0     C16389   5.282   8.185   9.805  0.3239 -0.3505  0.5204
  844MOL0     C16390   5.359   8.095   9.879 -0.2092 -0.1641 -0.0187
  844MOL0     C16391   5.455   8.019   9.815 -0.6496 -0.3116  0.3298
  844MOL0     C16392   5.487   8.039   9.682 -0.1925 -0.7127 -0.4384
  844MOL0     O16393   5.589   7.975   9.623  0.1912  0.1953  0.4890
  844MOL0     C16394   5.673   7.879   9.687 -0.4492 -0.1880  0.1932
  844MOL0     C16395   5.743   7.775   9.586 -0.5121  0.3832  0.1565
  844MOL0     C16396   5.834   7.665   9.652  0.5443 -0.2691  0.4977
  844MOL0     C16397   5.867   7.562   9.549  0.0313 -0.1145  0.2418
  844MOL0     C16398   5.750   7.480   9.505 -0.4418  0.2002 -0.1696
  844MOL0     C16399   5.665   7.403   9.470  0.6702  0.0964  1.1158
  844MOL0     C16400   5.411   8.131   9.611 -0.2490 -0.3083  0.2979
  844MOL0     C16401   5.305   8.207   9.663  0.5175  0.6018 -0.5629
  844MOL0     C16402   5.228   8.282   9.560  0.0313 -0.0377 -1.2220
  844MOL0     H16403   5.135   8.443  10.085  0.0635  0.5023 -0.7078
  844MOL0     H16404   4.945   8.535  10.238 -0.6739  0.9432 -1.9668
  844MOL0     H16405   4.687   8.590  10.234 -4.5594  0.3834  1.1851
  844MOL0     H16406   4.802   8.600  10.365 -0.4224  0.3920 -0.3656
  844MOL0     H16407   4.515   8.508  10.400  1.2683 -0.0548 -1.6272
  844MOL0     H16408   4.635   8.510  10.524  0.7277 -1.4222 -0.8979
  844MOL0     H16409   4.677   8.745  10.510  0.2027 -2.5413  1.4896
  844MOL0     H16410   4.558   8.776  10.374 -0.1807  3.3097  1.9982
  844MOL0     H16411   4.377   8.743  10.487  0.7194  1.7832 -1.3233
  844MOL0     H16412   4.453   8.652  10.621  0.1973  0.7444  0.8895
  844MOL0     H16413   4.485   8.946  10.572 -1.0258  1.2709  1.4877
  844MOL0     H16414   4.559   8.835  10.704 -2.0983 -4.8737  1.9512
  844MOL0     H16415   4.268   8.882  10.655  1.0499 -4.0481 -1.7317
  844MOL0     H16416   4.341   8.824  10.810 -1.1735  1.6200  0.9814
  844MOL0     H16417   4.270   9.036  10.830  2.2617 -3.5073  1.5448
  844MOL0     H16418   4.352   9.103  10.688  1.4791  2.0634  0.6857
  844MOL0     H16419   4.488   9.003  10.943 -1.6603 -0.2726  0.6234
  844MOL0     H16420   4.583   9.056  10.791 -0.3501  0.3942 -1.6946
  844MOL0     H16421   4.272   9.259  10.992 -0.4725  0.7453  0.6607
  844MOL0     H16422   4.425   9.614  10.960 -0.4891  1.3149  2.8562
  844MOL0     H16423   4.356   9.545  11.100  0.6774 -0.2191  0.3127
  844MOL0     H16424   4.179   9.446  10.910  1.5322 -0.6167  0.4706
  844MOL0     H16425   4.158   9.615  10.981  0.5895 -0.3123  1.1584
  844MOL0     H16426   4.153   9.636  10.741 -1.4671 -3.6530 -1.6423
  844MOL0     H16427   4.305   9.713  10.794  0.9927 -0.0826 -0.7727
  844MOL0     H16428   4.360   9.570  10.602  2.1406 -0.2935  0.8587
  844MOL0     H16429   4.418   9.497  10.739 -1.1591 -2.2405 -0.4118
  844MOL0     H16430   4.090   9.217  10.527 -0.1550 -1.6450  3.0950
  844MOL0     H16431   4.080   9.008  10.461 -1.1256  2.3984 -1.1230
  844MOL0     H16432   4.217   8.911  10.390  0.4902  0.3980  3.0391
  844MOL0     H16433   4.135   9.032  10.288  1.8088 -1.1827 -0.5232
  844MOL0     H16434   4.793   9.103  10.179 -0.0910 -0.5149  2.0405
  844MOL0     H16435   4.918   9.007   9.987 -0.1024 -1.5008 -1.1733
  844MOL0     H16436   4.710   8.819   9.718 -0.4215 -1.8371 -0.6674
  844MOL0     H16437   4.858   8.924   9.678  0.8790  0.4098  1.5829
  844MOL0     H16438   4.835   8.614   9.669 -4.3513  0.4701  0.0989
  844MOL0     H16439   4.790   8.716   9.532  0.6149 -2.9716 -0.7641
  844MOL0     H16440   5.072   8.728   9.621 -2.2372  2.8916  1.6344
  844MOL0     H16441   4.983   8.767   9.464 -2.1052 -0.5838 -1.1765
  844MOL0     H16442   4.942   8.527   9.435 -0.0914  1.1323 -0.9458
  844MOL0     H16443   5.021   8.491   9.582 -0.5694  3.1789  1.3716
  844MOL0     H16444   5.250   8.600   9.477 -0.1341 -0.4072 -0.1400
  844MOL0     H16445   5.186   8.463   9.386  0.5371 -0.1457  0.7086
  844MOL0     H16446   5.143   8.756   9.308 -1.4763  0.8151 -1.9789
  844MOL0     H16447   5.083   8.620   9.212  2.5518  2.9814 -2.6168
  844MOL0     H16448   5.326   8.533   9.227  0.3621  0.3793  2.7869
  844MOL0     H16449   5.363   8.697   9.271  0.7930 -0.6075  0.1553
  844MOL0     H16450   5.221   8.641   8.994 -1.5336  2.0404  0.0389
  844MOL0     H16451   5.385   8.667   9.010  0.3845 -2.1255  2.8591
  844MOL0     H16452   4.633   8.711   9.926 -1.0670  1.3952  0.3503
  844MOL0     H16453   4.504   8.790  10.113  1.3220 -2.9176  2.4818
  844MOL0     H16454   4.577   9.241  10.413  0.7441  2.8995  1.3295
  844MOL0     H16455   4.492   9.374  10.593  0.9185 -1.8392  0.1301
  844MOL0     H16456   4.761   8.150  10.220  0.0338  1.1457  1.1688
  844MOL0     H16457   4.930   8.067  10.097  2.2441 -0.0244  0.9426
  844MOL0     H16458   5.353   8.079   9.987 -2.8410  0.3806 -0.0263
  844MOL0     H16459   5.520   7.953   9.871  2.4863 -0.2846 -2.9355
  844MOL0     H16460   5.747   7.924   9.753  1.9443 -0.0681 -2.3952
  844MOL0     H16461   5.601   7.822   9.747 -1.4001  1.8716  1.1198
  844MOL0     H16462   5.808   7.822   9.512  0.4665 -1.9371 -0.5419
  844MOL0     H16463   5.660   7.741   9.523  0.0442 -1.1638  0.2212
  844MOL0     H16464   5.933   7.705   9.676  0.4671 -0.7445  1.6513
  844MOL0     H16465   5.768   7.616   9.724 -2.8621  2.3899 -0.4952
  844MOL0     H16466   5.943   7.492   9.584 -0.5108 -0.6011  0.4618
  844MOL0     H16467   5.909   7.611   9.461  6.2214 -0.8227  2.3595
  844MOL0     H16468   5.596   7.331   9.430  2.3657 -0.9932  0.0109
  844MOL0     H16469   5.447   8.152   9.511 -1.0999  1.5423  0.3398
  844MOL0     H16470   5.300   8.315   9.484  0.6815  1.1330 -0.1349
  844MOL0     H16471   5.138   8.231   9.524 -2.2847  3.7507 -1.3886
  844MOL0     H16472   5.193   8.371   9.613 -0.2491 -1.5827  1.3913
  845MOL0     O16473  10.669   7.832   4.945 -0.0798  0.4215  0.2005
  845MOL0     C16474  10.647   7.914   4.850  1.5477  0.3061 -0.0298
  845MOL0     O16475  10.730   8.019   4.820  0.3141 -0.0811  0.2719
  845MOL0     C16476  10.847   8.036   4.884 -0.2100 -0.1411  0.2331
  845MOL0     C16477  10.961   8.024   4.813 -0.1530  0.1894  0.5471
  845MOL0     C16478  11.080   8.022   4.881  0.1047  0.6524 -0.7980
  845MOL0     C16479  11.094   8.030   5.021 -0.1671  0.2230  0.4498
  845MOL0     O16480  11.227   8.045   5.066  0.0808  0.5842 -0.7982
  845MOL0     C16481  11.260   7.979   5.187 -0.0887  0.5254 -0.4572
  845MOL0     C16482  11.323   8.084   5.275  0.6365 -0.0644 -0.2460
  845MOL0     C16483  11.310   8.063   5.422  0.1255  0.2074  0.3581
  845MOL0     C16484  11.397   7.953   5.489  0.5477 -0.3839 -0.3565
  845MOL0     C16485  11.366   7.965   5.640 -0.2894  0.1057 -0.0408
  845MOL0     C16486  11.409   7.843   5.722  0.1775  0.0964 -0.1978
  845MOL0     C16487  11.336   7.710   5.683 -0.6243  0.3106 -0.3551
  845MOL0     C16488  11.381   7.606   5.801  0.4436 -0.7246 -0.7921
  845MOL0     N16489  11.280   7.516   5.842 -1.1490  0.4428 -0.1044
  845MOL0     C16490  11.153   7.498   5.804  0.4660 -0.4870 -0.5256
  845MOL0     C16491  11.103   7.403   5.884 -0.2008 -0.2222 -0.5587
  845MOL0     C16492  10.981   7.325   5.851  0.7897  1.0933 -0.1143
  845MOL0     C16493  10.850   7.395   5.910 -0.0230 -0.1648  1.1780
  845MOL0     C16494  10.708   7.330   5.852 -0.6594 -0.3616 -0.6359
  845MOL0     C16495  10.714   7.184   5.871 -0.4716 -0.4236 -0.7839
  845MOL0     O16496  10.732   7.159   6.013  0.2452  0.1709  0.3754
  845MOL0     C16497  10.747   7.033   6.056 -0.2368  0.2659 -0.5242
  845MOL0     C16498  10.721   6.923   5.978 -0.3129  0.3101 -0.9164
  845MOL0     C16499  10.743   6.791   6.023  0.5703 -0.5596  0.4949
  845MOL0     C16500  10.716   6.684   5.927 -0.6958 -0.2091 -0.0015
  845MOL0     C16501  10.781   6.779   6.157 -0.8998  0.4440  0.1320
  845MOL0     C16502  10.801   6.646   6.225  0.7381 -0.3606  1.0919
  845MOL0     O16503  10.743   6.635   6.351  0.6427  0.7268  0.2003
  845MOL0     C16504  10.765   6.522   6.431 -0.5546  0.0712 -0.2638
  845MOL0     C16505  10.858   6.416   6.413 -0.5961 -0.4140  0.5138
  845MOL0     C16506  10.869   6.310   6.495  0.1188  1.0185 -1.2890
  845MOL0     C16507  10.786   6.303   6.600  0.5051 -1.3294 -0.7176
  845MOL0     O16508  10.779   6.192   6.676 -1.0060  0.8522  0.3146
  845MOL0     C16509  10.848   6.203   6.805  0.6232  0.9331  0.1878
  845MOL0     C16510  10.834   6.058   6.855 -0.2818 -0.4408  0.8151
  845MOL0     C16511  10.705   6.016   6.925 -0.1955  0.6637  0.2212
  845MOL0     C16512  10.722   5.862   6.948  0.5645 -1.2294 -0.6867
  845MOL0     C16513  10.595   5.812   7.002  0.3184  0.1632 -0.4490
  845MOL0     C16514  10.576   5.661   7.021 -0.3211  0.5713 -0.6405
  845MOL0     C16515  10.430   5.645   7.071 -0.5142  0.3425  0.1462
  845MOL0     C16516  10.385   5.501   7.081 -0.3434  1.0336  0.0534
  845MOL0    Cl16517  10.485   5.426   7.205  0.0745 -0.1726 -0.0630
  845MOL0     C16518  10.700   6.411   6.629 -0.0412 -0.2262  0.1482
  845MOL0     C16519  10.687   6.515   6.545 -0.2854 -1.4091 -0.0635
  845MOL0     O16520  10.868   6.566   6.159  0.2186  0.3989 -0.2026
  845MOL0     C16521  10.798   6.894   6.237  0.4542 -0.2320 -0.1217
  845MOL0     C16522  10.780   7.022   6.185  0.1353  0.2943 -0.1926
  845MOL0     N16523  11.200   7.365   5.979  0.5543  0.1458  0.7010
  845MOL0     N16524  11.309   7.437   5.949  0.7576 -0.5244 -0.2718
  845MOL0     C16525  10.979   8.028   5.094  0.4236  0.2877 -0.5170
  845MOL0     C16526  10.856   8.032   5.026 -1.0179 -0.1004 -0.2395
  845MOL0     C16527  10.519   7.908   4.759  0.0352 -0.3243  0.3695
  845MOL0     C16528  10.503   8.008   4.666  0.3314 -0.0907 -0.0915
  845MOL0     C16529  10.400   8.004   4.571 -0.7564 -0.0301 -0.2403
  845MOL0     C16530  10.311   7.901   4.554 -0.1794  0.0924  1.0610
  845MOL0     O16531  10.224   7.905   4.448  1.0919 -0.2048  0.6024
  845MOL0     C16532  10.116   8.002   4.453 -0.0479 -1.3567  0.5657
  845MOL0     C16533  10.144   8.139   4.372 -0.5262 -0.1854  0.5617
  845MOL0     C16534  10.033   8.228   4.396  0.4174 -0.0042  0.8213
  845MOL0     C16535  10.031   8.353   4.305  0.4138  0.0797 -0.6171
  845MOL0     C16536  10.108   8.454   4.372 -0.3762  0.1292  0.3175
  845MOL0     C16537  10.180   8.525   4.434  0.4123 -0.7475  0.4977
  845MOL0     C16538  10.321   7.799   4.652 -0.4517  0.2622 -0.0254
  845MOL0     C16539  10.429   7.800   4.749 -0.2265 -0.4066  0.7823
  845MOL0     C16540  10.448   7.677   4.821 -0.0265  0.4399 -0.2488
  845MOL0     H16541  10.963   8.018   4.705  2.1687 -1.5535  0.6062
  845MOL0     H16542  11.179   8.022   4.835  0.5955 -1.1090  0.1647
  845MOL0     H16543  11.336   7.906   5.156  0.5935  1.0512 -0.0373
  845MOL0     H16544  11.189   7.917   5.242 -0.7986  1.3673 -0.3969
  845MOL0     H16545  11.430   8.101   5.257  0.6335  1.4031  0.8544
  845MOL0     H16546  11.275   8.180   5.252  0.3413 -0.0532  0.4038
  845MOL0     H16547  11.341   8.158   5.466  0.6694 -0.1716  0.7968
  845MOL0     H16548  11.206   8.035   5.440 -0.3347  1.7144  0.2116
  845MOL0     H16549  11.364   7.857   5.449  1.9647 -1.1118  0.1710
  845MOL0     H16550  11.503   7.955   5.462  0.6853  1.9412  0.1484
  845MOL0     H16551  11.257   7.970   5.651 -0.5041  0.6968 -1.9914
  845MOL0     H16552  11.408   8.060   5.676 -0.2844  0.3658 -0.7257
  845MOL0     H16553  11.518   7.832   5.718  0.1902  0.5203 -1.2611
  845MOL0     H16554  11.381   7.874   5.823  0.4713 -0.3029  0.0078
  845MOL0     H16555  11.365   7.674   5.583  2.9883  2.4059 -0.2548
  845MOL0     H16556  11.228   7.722   5.699 -0.5861  0.0948  0.0558
  845MOL0     H16557  11.472   7.556   5.768  0.9058 -0.0231 -0.5938
  845MOL0     H16558  11.399   7.673   5.886 -2.1375 -2.6524  1.4692
  845MOL0     H16559  11.102   7.540   5.718 -0.1513 -0.4264 -0.1328
  845MOL0     H16560  10.979   7.231   5.908 -0.0036  0.3753 -1.2754
  845MOL0     H16561  10.979   7.297   5.745  2.1131  1.4098 -0.2356
  845MOL0     H16562  10.857   7.382   6.019 -2.1461 -3.0524  1.0789
  845MOL0     H16563  10.845   7.497   5.872 -2.1054 -1.0356 -1.1429
  845MOL0     H16564  10.620   7.366   5.907  0.1850  1.3147 -0.3522
  845MOL0     H16565  10.700   7.351   5.745 -1.7527  0.3821 -0.4310
  845MOL0     H16566  10.638   7.122   5.822 -1.3600  0.6181 -0.7405
  845MOL0     H16567  10.803   7.143   5.822  0.7727 -1.2145  1.9259
  845MOL0     H16568  10.680   6.935   5.878 -2.8836 -1.0278 -0.1034
  845MOL0     H16569  10.741   6.722   5.827 -0.6837 -2.6292 -0.9835
  845MOL0     H16570  10.607   6.674   5.929 -1.1821  3.6322  0.9035
  845MOL0     H16571  10.774   6.593   5.941 -0.5245 -0.1100 -0.0584
  845MOL0     H16572  10.923   6.402   6.327  0.3174 -1.7891  1.3892
  845MOL0     H16573  10.940   6.233   6.467  1.4527  1.9180 -0.5292
  845MOL0     H16574  10.955   6.224   6.799  0.7139  0.6729  0.8658
  845MOL0     H16575  10.800   6.291   6.849 -0.6736  2.2944 -3.5538
  845MOL0     H16576  10.845   5.995   6.767  1.8318  2.2913 -1.0503
  845MOL0     H16577  10.924   6.047   6.917 -0.4473  1.0012  1.3623
  845MOL0     H16578  10.614   6.044   6.871 -1.2569 -1.0254  1.0571
  845MOL0     H16579  10.708   6.064   7.023  1.6649 -1.8503  1.5237
  845MOL0     H16580  10.798   5.853   7.027 -0.2632  1.5252  0.5525
  845MOL0     H16581  10.753   5.811   6.856 -2.5406 -1.9460 -1.4247
  845MOL0     H16582  10.565   5.859   7.096 -0.0519  2.5306 -1.6902
  845MOL0     H16583  10.522   5.852   6.931 -2.1673 -0.0391  1.8424
  845MOL0     H16584  10.644   5.604   7.085 -1.6712 -0.5656 -0.1759
  845MOL0     H16585  10.594   5.606   6.928 -3.9785 -1.6129 -0.2517
  845MOL0     H16586  10.364   5.702   7.004  0.5437  2.5409  0.8672
  845MOL0     H16587  10.411   5.689   7.169  0.5125 -0.8651  0.9172
  845MOL0     H16588  10.407   5.444   6.990  1.9358  2.1679 -0.1632
  845MOL0     H16589  10.277   5.504   7.101 -0.9551  3.1710 -2.9081
  845MOL0     H16590  10.631   6.407   6.713 -1.8155  2.3633 -1.0356
  845MOL0     H16591  10.619   6.594   6.575  2.4510  0.4658  1.7644
  845MOL0     H16592  10.834   6.869   6.336  0.0495 -5.3569 -1.0106
  845MOL0     H16593  10.793   7.109   6.247  0.0509 -1.2301  2.0739
  845MOL0     H16594  10.981   8.029   5.202  2.0661 -0.3821 -0.5210
  845MOL0     H16595  10.767   8.052   5.085  0.6929  0.4561  2.3505
  845MOL0     H16596  10.565   8.096   4.677 -1.0864  0.8563  0.6786
  845MOL0     H16597  10.399   8.089   4.503 -0.9051 -0.0382 -0.2475
  845MOL0     H16598  10.024   7.956   4.417 -3.0144  1.7078  3.4669
  845MOL0     H16599  10.113   8.019   4.561 -0.0473  1.1146  0.2416
  845MOL0     H16600  10.161   8.103   4.270 -0.9955 -1.0262  0.7672
  845MOL0     H16601  10.237   8.186   4.405 -1.2137  2.5248 -1.0822
  845MOL0     H16602   9.941   8.172   4.374  0.9222 -0.3964 -0.3751
  845MOL0     H16603  10.036   8.261   4.500  0.1823 -0.9561  1.1450
  845MOL0     H16604   9.931   8.395   4.297  0.9122  1.2130 -1.1166
  845MOL0     H16605  10.066   8.328   4.204  0.4069 -3.0942  0.0650
  845MOL0     H16606  10.236   8.610   4.468  0.1468  0.5715 -2.0770
  845MOL0     H16607  10.259   7.711   4.636  1.2307 -0.8156 -0.8670
  845MOL0     H16608  10.538   7.617   4.807  0.7605  1.2582  1.0863
  845MOL0     H16609  10.449   7.706   4.927 -0.9575 -1.4881  0.3307
  845MOL0     H16610  10.385   7.591   4.798  0.6259 -0.0133 -0.3557
  846MOL0     O16611   3.516   1.171   5.452  0.2130 -0.8251  0.2301
  846MOL0     C16612   3.417   1.119   5.412 -0.2752  0.0304  0.3658
  846MOL0     O16613   3.388   1.098   5.282 -0.9023 -0.0318 -0.2462
  846MOL0     C16614   3.484   1.116   5.188 -0.3127  0.1701  0.9005
  846MOL0     C16615   3.559   1.232   5.166  0.1193 -0.0277  0.2470
  846MOL0     C16616   3.644   1.256   5.063 -0.4235 -0.6409  0.3629
  846MOL0     C16617   3.657   1.160   4.969  0.7291 -0.1170  0.7124
  846MOL0     O16618   3.749   1.188   4.868 -0.0254  0.7886 -0.4637
  846MOL0     C16619   3.772   1.079   4.776  0.0831  0.2423 -0.0978
  846MOL0     C16620   3.878   1.121   4.679 -0.5013  0.0937 -0.1627
  846MOL0     C16621   3.830   1.244   4.604 -0.0280 -0.0684 -0.0294
  846MOL0     C16622   3.960   1.300   4.534 -0.0247 -0.6372  0.3546
  846MOL0     C16623   3.921   1.395   4.424  0.7436  0.4629 -0.6879
  846MOL0     C16624   3.878   1.530   4.480  0.1066  0.6542  0.5648
  846MOL0     C16625   3.805   1.608   4.373  0.9068 -0.7572 -0.8165
  846MOL0     C16626   3.829   1.761   4.399  0.0244 -0.2142 -0.1150
  846MOL0     N16627   3.731   1.832   4.311  0.2382 -0.6795 -0.8287
  846MOL0     C16628   3.617   1.887   4.360  0.3188  0.1079 -0.1240
  846MOL0     C16629   3.558   1.949   4.249 -1.2273  0.0065  0.7917
  846MOL0     C16630   3.424   2.028   4.255 -0.2623  0.3442  0.0480
  846MOL0     C16631   3.298   1.936   4.276  0.0151 -0.1390 -0.0709
  846MOL0     C16632   3.251   1.871   4.146 -0.1260 -0.2232  0.0274
  846MOL0     C16633   3.213   1.955   4.023 -0.1584 -0.2022 -0.3430
  846MOL0     O16634   3.329   1.979   3.942 -0.0217 -1.5251  0.4324
  846MOL0     C16635   3.328   2.082   3.843  0.5714 -0.4116  0.1587
  846MOL0     C16636   3.416   2.072   3.737  0.2727 -0.1252 -0.1708
  846MOL0     C16637   3.416   2.167   3.629  0.5879  1.8150 -0.5684
  846MOL0     C16638   3.511   2.127   3.519  0.7122  0.8392  0.8612
  846MOL0     C16639   3.358   2.291   3.650  1.2609 -0.9005 -0.1856
  846MOL0     C16640   3.379   2.416   3.572 -0.0118 -0.4803  0.1841
  846MOL0     O16641   3.314   2.534   3.609  0.0204 -0.6598  0.0021
  846MOL0     C16642   3.356   2.645   3.539 -0.0411 -0.2192 -0.3732
  846MOL0     C16643   3.429   2.757   3.587  0.8311 -0.1548 -0.0860
  846MOL0     C16644   3.435   2.881   3.511 -0.3787 -0.6490 -0.0020
  846MOL0     C16645   3.371   2.896   3.387 -0.5963  0.3514 -0.0978
  846MOL0     O16646   3.380   3.012   3.322 -0.2955 -0.6134 -0.2990
  846MOL0     C16647   3.453   3.000   3.198  0.7613 -0.1986  0.5061
  846MOL0     C16648   3.587   3.066   3.206  0.5653 -0.1789 -0.0392
  846MOL0     C16649   3.576   3.213   3.270 -0.6576  1.3508 -0.2556
  846MOL0     C16650   3.714   3.259   3.295 -0.3366 -0.6779 -0.0374
  846MOL0     C16651   3.703   3.405   3.329 -0.5813 -0.2275 -0.9899
  846MOL0     C16652   3.832   3.476   3.300  0.6857  0.4577 -0.3306
  846MOL0     C16653   3.834   3.621   3.341  0.6077 -0.6988 -0.5314
  846MOL0     C16654   3.822   3.652   3.486  1.0489  0.7110  0.2506
  846MOL0    Cl16655   3.854   3.824   3.511 -0.3739 -0.2036 -0.4607
  846MOL0     C16656   3.297   2.785   3.345 -0.3498  0.1082  0.5037
  846MOL0     C16657   3.287   2.659   3.415  0.4427 -0.8157  0.0408
  846MOL0     O16658   3.455   2.408   3.474 -0.1778 -0.0468 -0.8329
  846MOL0     C16659   3.276   2.300   3.771  0.5815 -0.9316  0.4439
  846MOL0     C16660   3.250   2.198   3.853 -0.8088 -0.1509 -0.4800
  846MOL0     N16661   3.656   1.950   4.137  0.4284  0.5579  0.5819
  846MOL0     N16662   3.757   1.874   4.183  0.6796  0.5897  0.7926
  846MOL0     C16663   3.581   1.041   4.986  0.4401  0.2113  0.4440
  846MOL0     C16664   3.491   1.020   5.088  0.5154  0.4199 -0.3664
  846MOL0     C16665   3.305   1.082   5.504 -0.9493  0.1823 -1.1426
  846MOL0     C16666   3.215   0.988   5.455 -0.5791 -0.6955 -0.3035
  846MOL0     C16667   3.119   0.929   5.532 -0.9819  0.2378  0.3243
  846MOL0     C16668   3.103   0.973   5.667 -0.7846 -0.4233 -0.1026
  846MOL0     O16669   3.008   0.924   5.749 -0.4030  0.1637  0.5985
  846MOL0     C16670   3.045   0.886   5.878 -0.1663  0.6345  0.0767
  846MOL0     C16671   2.954   0.777   5.949 -0.0606 -0.4394  0.9052
  846MOL0     C16672   3.035   0.715   6.069  1.0807  0.7718  0.8762
  846MOL0     C16673   2.943   0.636   6.159 -0.5115  0.9146 -0.5010
  846MOL0     C16674   2.816   0.576   6.113  1.4305 -0.9720 -1.1757
  846MOL0     C16675   2.707   0.537   6.077  0.3531 -0.5613  0.5110
  846MOL0     C16676   3.195   1.064   5.718  0.4905 -0.2280 -0.7419
  846MOL0     C16677   3.296   1.122   5.641 -0.2390 -0.4764  0.4675
  846MOL0     C16678   3.385   1.215   5.708 -0.1965 -0.2059  0.1626
  846MOL0     H16679   3.533   1.320   5.223 -0.2439 -0.9674  1.5923
  846MOL0     H16680   3.707   1.343   5.078  0.2736 -1.4165  2.3139
  846MOL0     H16681   3.681   1.051   4.722  0.2108 -2.2604  0.8447
  846MOL0     H16682   3.808   0.992   4.832 -2.7042 -0.1567  1.2489
  846MOL0     H16683   3.971   1.144   4.732  0.2035 -1.1691 -0.8310
  846MOL0     H16684   3.887   1.034   4.615  1.3492  2.3196 -3.2104
  846MOL0     H16685   3.755   1.207   4.533  0.2600  2.3474 -1.7077
  846MOL0     H16686   3.789   1.318   4.673  1.3217 -1.2190  2.1116
  846MOL0     H16687   4.027   1.348   4.605  1.2173 -0.2284 -1.0564
  846MOL0     H16688   3.997   1.206   4.492 -1.9578  0.3687 -4.2018
  846MOL0     H16689   3.833   1.355   4.372  1.3023  0.0842 -1.3627
  846MOL0     H16690   3.993   1.411   4.343 -1.1764  2.8709 -2.0714
  846MOL0     H16691   3.814   1.513   4.567  1.2534 -0.2694  1.2510
  846MOL0     H16692   3.961   1.597   4.505  1.2119 -0.5343  0.2325
  846MOL0     H16693   3.699   1.585   4.356  1.2437 -3.3260  0.0729
  846MOL0     H16694   3.845   1.579   4.275 -0.9125 -0.7372 -1.6173
  846MOL0     H16695   3.805   1.774   4.505 -0.2694  2.3745 -0.4268
  846MOL0     H16696   3.927   1.806   4.378 -0.3958  0.5655 -0.4328
  846MOL0     H16697   3.583   1.889   4.464 -0.9834 -0.8905 -0.4973
  846MOL0     H16698   3.419   2.098   4.171 -0.1673 -2.2706 -2.2708
  846MOL0     H16699   3.429   2.089   4.346 -3.8485  0.2012  0.5034
  846MOL0     H16700   3.332   1.859   4.345 -0.5393 -0.5790 -0.2782
  846MOL0     H16701   3.219   1.998   4.320 -0.3559 -1.7142  1.6271
  846MOL0     H16702   3.338   1.807   4.123 -0.1902 -0.8276  1.3938
  846MOL0     H16703   3.167   1.808   4.176 -0.9463  0.3728 -0.9591
  846MOL0     H16704   3.135   1.898   3.972  0.7103 -2.4139  0.6754
  846MOL0     H16705   3.181   2.053   4.060  1.0528  0.1845 -0.2734
  846MOL0     H16706   3.471   1.978   3.733 -0.6941 -0.7317  0.4893
  846MOL0     H16707   3.601   2.189   3.519  1.5558 -0.2174  3.8490
  846MOL0     H16708   3.456   2.116   3.425 -0.8524 -5.6257  2.0196
  846MOL0     H16709   3.554   2.029   3.540 -1.4304 -1.1256 -2.8038
  846MOL0     H16710   3.499   2.730   3.665  0.6170 -1.0246 -0.1802
  846MOL0     H16711   3.498   2.965   3.535 -2.1791  0.5344  0.7739
  846MOL0     H16712   3.455   2.894   3.173 -2.5066 -0.0490 -0.9524
  846MOL0     H16713   3.395   3.041   3.115  0.5282 -4.2615 -1.5662
  846MOL0     H16714   3.649   2.995   3.261  1.1221 -1.2199 -1.9037
  846MOL0     H16715   3.639   3.071   3.110  0.7377 -0.0984  0.0587
  846MOL0     H16716   3.532   3.197   3.369  2.0571 -0.4964  0.7771
  846MOL0     H16717   3.523   3.286   3.208 -0.4733  2.2575  0.6427
  846MOL0     H16718   3.776   3.248   3.206  1.8351 -2.5838  1.5846
  846MOL0     H16719   3.756   3.198   3.376 -2.7517 -0.3407  1.5796
  846MOL0     H16720   3.614   3.453   3.287 -0.6736  0.4905 -0.0117
  846MOL0     H16721   3.683   3.405   3.437 -1.7545 -2.5193 -1.1272
  846MOL0     H16722   3.834   3.474   3.190 -0.3116 -0.4486 -0.3512
  846MOL0     H16723   3.924   3.426   3.332  1.0274  0.0440 -1.8421
  846MOL0     H16724   3.744   3.674   3.308  0.7729 -0.0354  0.0378
  846MOL0     H16725   3.925   3.669   3.303  1.3094 -1.7160 -0.1619
  846MOL0     H16726   3.875   3.580   3.549  0.8506 -1.7594 -2.2244
  846MOL0     H16727   3.724   3.626   3.527  0.3382  0.0384 -1.7668
  846MOL0     H16728   3.255   2.788   3.245  0.6387  3.3338  0.0867
  846MOL0     H16729   3.216   2.585   3.380  2.0048 -1.3080 -2.3359
  846MOL0     H16730   3.215   2.389   3.782  0.3445 -0.5808 -2.6986
  846MOL0     H16731   3.180   2.219   3.933 -1.6940  3.8595 -2.0481
  846MOL0     H16732   3.579   0.962   4.911  1.6830 -1.4335  2.0465
  846MOL0     H16733   3.426   0.933   5.090 -0.2869  1.0096 -0.4179
  846MOL0     H16734   3.217   0.941   5.358  0.5276  1.7964 -1.5634
  846MOL0     H16735   3.060   0.848   5.490  0.3180  1.0043 -3.2843
  846MOL0     H16736   3.138   0.828   5.883 -1.1462 -0.8582  2.9773
  846MOL0     H16737   3.046   0.976   5.939 -1.0822  1.5047 -1.1459
  846MOL0     H16738   2.926   0.699   5.877  1.2727 -0.1177 -0.0025
  846MOL0     H16739   2.861   0.828   5.975  0.0707  0.6338 -0.5809
  846MOL0     H16740   3.099   0.634   6.031  0.5737 -1.6275  4.6147
  846MOL0     H16741   3.095   0.786   6.127 -0.4536  1.0732  2.1560
  846MOL0     H16742   2.905   0.702   6.238  0.6966 -0.5375  1.3873
  846MOL0     H16743   2.999   0.559   6.213 -0.5655  1.0776 -0.2067
  846MOL0     H16744   2.618   0.496   6.034 -0.6292  1.2503  0.7058
  846MOL0     H16745   3.180   1.095   5.821 -3.5944 -3.3298 -0.1254
  846MOL0     H16746   3.349   1.250   5.805  2.2864 -1.1590  1.4991
  846MOL0     H16747   3.477   1.158   5.719 -1.5410 -2.2243  1.9209
  846MOL0     H16748   3.410   1.299   5.642  0.7366 -0.5770  0.0413
  847MOL0     O16749   7.551   5.186   4.134  0.4349  0.5733 -0.0044
  847MOL0     C16750   7.654   5.127   4.114  0.7388  0.2516 -0.0783
  847MOL0     O16751   7.690   5.019   4.180  0.1192  0.1401 -0.2005
  847MOL0     C16752   7.592   4.950   4.251  0.2646  0.3621  0.1659
  847MOL0     C16753   7.456   4.922   4.207 -0.5530 -0.0459 -0.2395
  847MOL0     C16754   7.378   4.865   4.299  0.1143  0.3292 -0.1295
  847MOL0     C16755   7.413   4.830   4.433  0.0330 -0.3890 -0.8693
  847MOL0     O16756   7.325   4.786   4.525  0.7736  0.3928  0.0941
  847MOL0     C16757   7.318   4.642   4.539 -0.0483 -0.3885 -0.0031
  847MOL0     C16758   7.219   4.610   4.645 -0.6016 -0.0140 -0.8378
  847MOL0     C16759   7.080   4.656   4.619  0.0919  0.1792 -0.0016
  847MOL0     C16760   7.016   4.587   4.503  0.2801 -0.2114  0.2241
  847MOL0     C16761   6.869   4.613   4.521 -0.4017 -0.4601  0.6394
  847MOL0     C16762   6.806   4.573   4.391  0.4539  0.6079 -0.2236
  847MOL0     C16763   6.660   4.593   4.396 -0.0733  0.0539  0.2248
  847MOL0     C16764   6.588   4.507   4.506 -0.1760  0.3799  0.2257
  847MOL0     N16765   6.439   4.494   4.494  0.1023  0.2959  0.4684
  847MOL0     C16766   6.361   4.379   4.493 -0.2668 -0.3641 -0.0770
  847MOL0     C16767   6.239   4.417   4.455 -0.3750 -0.0583  0.4261
  847MOL0     C16768   6.123   4.319   4.440  0.2195  0.2235 -0.4316
  847MOL0     C16769   6.154   4.170   4.427  0.6462  1.2054  0.3886
  847MOL0     C16770   6.025   4.097   4.388  0.0455 -0.1270  0.7706
  847MOL0     C16771   6.055   3.952   4.341 -0.1588 -1.7590  0.2015
  847MOL0     O16772   5.936   3.875   4.362 -0.7042 -0.1961 -0.6185
  847MOL0     C16773   5.938   3.749   4.314  0.1906  0.1782  0.5608
  847MOL0     C16774   5.858   3.662   4.389 -0.7701  0.4562  0.5259
  847MOL0     C16775   5.836   3.530   4.346  0.9522  0.0100  0.9120
  847MOL0     C16776   5.764   3.440   4.437 -0.1268  0.0725  0.0476
  847MOL0     C16777   5.883   3.480   4.228  0.1239 -0.0584 -0.0701
  847MOL0     C16778   5.865   3.344   4.173  0.6283 -0.3482 -0.7229
  847MOL0     O16779   5.851   3.325   4.038  0.3405  0.1869 -1.0575
  847MOL0     C16780   5.769   3.220   3.992 -0.3207 -0.3024 -0.6551
  847MOL0     C16781   5.770   3.192   3.853  0.3855 -0.0566  0.2101
  847MOL0     C16782   5.692   3.093   3.800  0.5133  0.0684  0.1414
  847MOL0     C16783   5.593   3.027   3.871  0.5102 -0.0494 -0.0023
  847MOL0     O16784   5.492   2.945   3.822  0.2373  0.3050 -0.5384
  847MOL0     C16785   5.393   3.022   3.756 -0.3923  0.3972  0.1485
  847MOL0     C16786   5.260   3.044   3.835  0.2347 -0.8202  0.5892
  847MOL0     C16787   5.197   2.915   3.885 -0.5903  0.1609  0.7815
  847MOL0     C16788   5.076   2.936   3.979  0.5863 -0.0689  0.0562
  847MOL0     C16789   5.125   2.965   4.120 -0.3393 -0.0698 -0.8057
  847MOL0     C16790   5.011   2.978   4.237  0.8035 -0.2450  1.1357
  847MOL0     C16791   4.933   2.851   4.269  0.4307  1.2216 -0.2027
  847MOL0     C16792   4.857   2.867   4.399  0.2297 -0.1025  0.5002
  847MOL0    Cl16793   4.775   2.704   4.430 -0.0091  0.1966 -0.1685
  847MOL0     C16794   5.581   3.061   4.004  0.8174  0.7845 -0.4032
  847MOL0     C16795   5.661   3.148   4.066 -0.9677 -0.9779  0.5341
  847MOL0     O16796   5.890   3.258   4.255  0.1720 -0.1301 -0.5250
  847MOL0     C16797   5.946   3.572   4.147 -0.1697 -0.0501  0.2129
  847MOL0     C16798   5.973   3.710   4.192 -0.3042 -0.7212  1.4538
  847MOL0     N16799   6.234   4.552   4.452  0.1812 -0.4843 -0.1159
  847MOL0     N16800   6.357   4.596   4.468  0.5343 -0.3372 -0.2955
  847MOL0     C16801   7.548   4.842   4.466  0.5482  0.0975  0.9507
  847MOL0     C16802   7.644   4.893   4.375  0.5240 -0.9155  0.4798
  847MOL0     C16803   7.765   5.201   4.037  0.2657  0.7669  0.5267
  847MOL0     C16804   7.733   5.330   3.994 -0.0424  0.6231  0.2908
  847MOL0     C16805   7.821   5.414   3.925  0.8429 -0.0705 -0.2928
  847MOL0     C16806   7.944   5.367   3.886 -0.5870 -0.4450  0.5467
  847MOL0     O16807   8.025   5.450   3.811  0.3870 -0.5368  0.5531
  847MOL0     C16808   7.995   5.428   3.670 -0.0624  0.4944 -0.0067
  847MOL0     C16809   7.888   5.521   3.616  0.9259 -0.9314 -0.2744
  847MOL0     C16810   7.908   5.672   3.609  0.2238  1.0619  0.6365
  847MOL0     C16811   7.802   5.722   3.511 -0.1950  0.0588 -1.2957
  847MOL0     C16812   7.822   5.865   3.487  0.0428 -0.6078 -0.2270
  847MOL0     C16813   7.844   5.976   3.446  0.8060 -1.1037  0.2890
  847MOL0     C16814   7.988   5.242   3.939  0.9439 -0.1597  0.8164
  847MOL0     C16815   7.896   5.157   4.016  0.0889 -0.3256 -0.9587
  847MOL0     C16816   7.950   5.027   4.063 -0.0733  0.4502  0.5691
  847MOL0     H16817   7.406   4.963   4.119  0.2872  5.0689  1.3564
  847MOL0     H16818   7.275   4.858   4.266  0.7693 -2.5183 -1.9910
  847MOL0     H16819   7.414   4.605   4.575  1.4262  4.1004  1.4416
  847MOL0     H16820   7.294   4.596   4.443 -1.4628  0.8270 -0.2572
  847MOL0     H16821   7.223   4.504   4.670  0.4679 -0.0193 -0.9988
  847MOL0     H16822   7.233   4.657   4.743 -2.7638 -1.9589  0.5150
  847MOL0     H16823   7.015   4.636   4.704 -1.0566  2.0357 -0.3952
  847MOL0     H16824   7.074   4.765   4.610  1.6885  0.6181  2.9540
  847MOL0     H16825   7.047   4.635   4.410 -0.6231  2.8765  1.4061
  847MOL0     H16826   7.041   4.480   4.507  0.7826 -0.0926  4.4724
  847MOL0     H16827   6.859   4.718   4.551 -0.8802  0.0640 -1.1981
  847MOL0     H16828   6.819   4.563   4.605 -0.7499 -3.9932 -1.4677
  847MOL0     H16829   6.845   4.636   4.312  5.1514 -0.8333  0.6329
  847MOL0     H16830   6.837   4.468   4.383  1.2263  0.8337 -0.2057
  847MOL0     H16831   6.626   4.567   4.296 -1.9686 -1.6094  1.2308
  847MOL0     H16832   6.643   4.698   4.420 -0.8767  0.6242 -2.4956
  847MOL0     H16833   6.630   4.406   4.500 -1.5758 -0.1609 -1.0981
  847MOL0     H16834   6.591   4.538   4.611 -1.5268  0.4686  0.2569
  847MOL0     H16835   6.382   4.274   4.510 -0.1686 -1.1546 -4.0169
  847MOL0     H16836   6.097   4.346   4.338  3.0383 -2.6367 -2.0863
  847MOL0     H16837   6.033   4.349   4.495  0.7729  0.8891  0.1205
  847MOL0     H16838   6.229   4.161   4.348  0.5934 -0.8974  0.5067
  847MOL0     H16839   6.190   4.120   4.518 -0.3859  1.5226  0.9848
  847MOL0     H16840   5.964   4.100   4.479 -0.2406 -0.3398  0.5875
  847MOL0     H16841   5.970   4.149   4.309  1.3736  1.5467  0.8876
  847MOL0     H16842   6.085   3.958   4.236 -1.4242  2.0715 -0.0988
  847MOL0     H16843   6.146   3.922   4.394  2.3470  3.7760 -0.2845
  847MOL0     H16844   5.822   3.699   4.484 -0.3337  0.3886  0.7211
  847MOL0     H16845   5.682   3.390   4.385 -0.8480  1.9113 -0.6751
  847MOL0     H16846   5.721   3.491   4.523 -1.0143 -2.7388  1.4076
  847MOL0     H16847   5.835   3.365   4.474  1.6010  1.1521 -0.9611
  847MOL0     H16848   5.830   3.246   3.779  3.4463 -1.2249  1.6576
  847MOL0     H16849   5.673   3.077   3.694 -1.3342  5.6508 -0.7171
  847MOL0     H16850   5.438   3.115   3.720 -0.4723 -0.3460 -2.0083
  847MOL0     H16851   5.380   2.959   3.668 -0.4453  0.3985  0.1552
  847MOL0     H16852   5.280   3.116   3.915  3.5337  0.6974 -1.3891
  847MOL0     H16853   5.193   3.093   3.765  0.7154 -1.3918 -0.2982
  847MOL0     H16854   5.268   2.847   3.934  0.3172  0.2279 -0.3984
  847MOL0     H16855   5.153   2.862   3.801  0.3811 -0.7917  0.8459
  847MOL0     H16856   5.020   2.842   3.978 -0.0850  0.3290 -0.0487
  847MOL0     H16857   5.021   3.023   3.942  2.2102  0.9433 -0.0438
  847MOL0     H16858   5.195   2.893   4.163  1.9697  1.9613 -0.9550
  847MOL0     H16859   5.181   3.058   4.111  1.1572 -0.7217  0.9655
  847MOL0     H16860   4.938   3.052   4.202  0.7699 -0.4537  0.7544
  847MOL0     H16861   5.059   3.023   4.325  2.2415  2.6682 -0.9502
  847MOL0     H16862   5.003   2.770   4.291 -2.8115 -1.2511  1.9095
  847MOL0     H16863   4.871   2.819   4.185 -1.1444  1.7777  0.7227
  847MOL0     H16864   4.771   2.934   4.394  2.4545  2.9595 -4.3132
  847MOL0     H16865   4.931   2.884   4.478  0.7193  0.7835 -0.1322
  847MOL0     H16866   5.502   3.014   4.061 -0.7634  2.2988 -1.2335
  847MOL0     H16867   5.651   3.168   4.172  0.3878  1.4672  0.2699
  847MOL0     H16868   5.968   3.553   4.043 -0.3061 -1.2722  0.3967
  847MOL0     H16869   6.028   3.764   4.115  0.6265 -0.9703  1.9347
  847MOL0     H16870   7.585   4.824   4.567 -3.3312 -0.0411  2.5392
  847MOL0     H16871   7.751   4.909   4.385  0.9523 -2.3365 -1.1584
  847MOL0     H16872   7.636   5.373   4.021  0.4865  0.5289  2.5712
  847MOL0     H16873   7.781   5.510   3.893  0.3873  0.8522  2.7314
  847MOL0     H16874   8.080   5.443   3.603 -2.0514 -0.7943 -3.0380
  847MOL0     H16875   7.961   5.326   3.650 -1.3899  1.2751 -2.0664
  847MOL0     H16876   7.803   5.493   3.679  1.5375  1.2641  1.6254
  847MOL0     H16877   7.864   5.478   3.518  2.8721 -0.4209 -1.0120
  847MOL0     H16878   7.884   5.706   3.710 -0.4421  1.0272  0.4932
  847MOL0     H16879   8.004   5.718   3.585  1.1567 -0.9975  0.3000
  847MOL0     H16880   7.706   5.708   3.561 -0.9880 -1.8216 -3.1807
  847MOL0     H16881   7.802   5.678   3.411 -2.2179  5.1823 -3.9305
  847MOL0     H16882   7.867   6.078   3.420  3.2629 -1.5724  0.4279
  847MOL0     H16883   8.089   5.212   3.915  1.0268 -0.0996  1.0980
  847MOL0     H16884   8.055   5.014   4.034  1.1667  1.1627  4.2157
  847MOL0     H16885   7.937   5.011   4.170  2.1786  0.6173  0.9218
  847MOL0     H16886   7.897   4.942   4.019  0.3136  0.1778  0.6199
  848MOL0     O16887   4.944   3.064   1.080 -0.2599 -0.1154  0.0825
  848MOL0     C16888   5.038   3.068   1.007 -0.3912 -0.6162 -0.0661
  848MOL0     O16889   5.138   2.972   1.003 -0.1561 -0.5394 -1.1285
  848MOL0     C16890   5.113   2.845   1.053 -0.2998 -0.1910  0.3671
  848MOL0     C16891   5.134   2.743   0.961  0.7540  0.6798  0.1342
  848MOL0     C16892   5.098   2.607   0.976  0.0525 -0.3242 -0.0386
  848MOL0     C16893   5.064   2.566   1.100 -0.4782 -0.1024 -0.1468
  848MOL0     O16894   5.027   2.434   1.108  1.1207 -0.8068  0.9718
  848MOL0     C16895   5.124   2.345   1.166 -0.0162 -0.5254  0.3687
  848MOL0     C16896   5.100   2.205   1.117  0.0121 -0.2818 -0.3094
  848MOL0     C16897   5.185   2.100   1.194 -0.3573 -0.9482  0.4434
  848MOL0     C16898   5.204   1.982   1.112 -0.8340  0.8370 -0.3078
  848MOL0     C16899   5.271   1.863   1.174  0.7242  0.0236 -0.2768
  848MOL0     C16900   5.367   1.877   1.303  1.2950 -0.4081  0.5080
  848MOL0     C16901   5.380   1.739   1.380  0.3577  0.5198  0.0219
  848MOL0     C16902   5.495   1.745   1.489 -0.1756  0.3956 -0.4702
  848MOL0     N16903   5.623   1.756   1.422 -0.9819 -0.6074 -0.3469
  848MOL0     C16904   5.656   1.671   1.320 -0.6977 -0.8333  0.1343
  848MOL0     C16905   5.781   1.713   1.293 -0.3173 -1.1029  0.8014
  848MOL0     C16906   5.883   1.638   1.196  1.5655  0.1523 -1.3963
  848MOL0     C16907   5.860   1.655   1.042  0.0400 -0.1559 -0.1941
  848MOL0     C16908   5.766   1.551   0.997 -0.0802  0.8404  0.2002
  848MOL0     C16909   5.752   1.551   0.839 -0.0968  0.3690  0.3427
  848MOL0     O16910   5.693   1.677   0.806  0.1856 -0.3117 -0.3444
  848MOL0     C16911   5.704   1.741   0.684 -0.1166  0.7990 -0.1823
  848MOL0     C16912   5.774   1.681   0.579 -0.3444 -0.3098 -0.1876
  848MOL0     C16913   5.773   1.738   0.452 -0.7846 -0.6418  0.3322
  848MOL0     C16914   5.847   1.658   0.343  0.6063 -0.5606 -0.1852
  848MOL0     C16915   5.705   1.859   0.426  1.3927 -0.2151 -0.4515
  848MOL0     C16916   5.701   1.942   0.296 -0.3110  0.2427 -1.3300
  848MOL0     O16917   5.621   2.046   0.280  0.1525  0.3908  0.5281
  848MOL0     C16918   5.622   2.130   0.170 -0.3411  0.1314  0.4811
  848MOL0     C16919   5.707   2.137   0.057  0.1538 -0.6550  0.9163
  848MOL0     C16920   5.693   2.246  -0.036 -0.0663 -0.4376  0.4135
  848MOL0     C16921   5.612   2.349   0.002 -0.0349 -0.3263  0.5891
  848MOL0     O16922   5.606   2.465  -0.082 -0.3282  1.1436 -0.5610
  848MOL0     C16923   5.496   2.440  -0.177 -0.8052 -0.8395 -1.0318
  848MOL0     C16924   5.540   2.457  -0.319  0.3477  0.7646  0.7343
  848MOL0     C16925   5.425   2.462  -0.421  0.6467  1.2064 -0.6498
  848MOL0     C16926   5.356   2.591  -0.451 -0.5983  0.3885  0.9705
  848MOL0     C16927   5.315   2.614  -0.592  0.2446 -0.2408  0.2968
  848MOL0     C16928   5.184   2.537  -0.618 -0.6941 -0.2537 -0.6965
  848MOL0     C16929   5.142   2.585  -0.757 -0.6155  0.4361 -0.0908
  848MOL0     C16930   5.019   2.513  -0.803  0.8955 -0.3135 -0.8119
  848MOL0    Cl16931   5.045   2.350  -0.829  0.4692  0.6626  0.1388
  848MOL0     C16932   5.532   2.349   0.111  0.2253 -0.4930  0.2436
  848MOL0     C16933   5.537   2.239   0.193  0.6391  0.7514 -0.2568
  848MOL0     O16934   5.772   1.896   0.213  0.3339 -0.3041 -0.0757
  848MOL0     C16935   5.621   1.909   0.525  0.6887  0.0335 -0.0081
  848MOL0     C16936   5.626   1.857   0.657 -0.1551  0.6806 -0.3112
  848MOL0     N16937   5.809   1.828   1.371 -0.9812  0.4302 -0.0320
  848MOL0     N16938   5.708   1.860   1.441 -0.1257  1.0288 -0.5118
  848MOL0     C16939   5.048   2.666   1.203 -0.1256  0.3248 -0.2250
  848MOL0     C16940   5.075   2.802   1.183  1.0179 -1.2152  0.5998
  848MOL0     C16941   5.046   3.185   0.922 -0.1381  0.2312  0.1293
  848MOL0     C16942   5.151   3.184   0.831 -0.0513  0.1009 -0.6388
  848MOL0     C16943   5.155   3.275   0.733 -1.2860 -0.2455 -0.8640
  848MOL0     C16944   5.060   3.384   0.727  0.4727 -0.0968 -0.2013
  848MOL0     O16945   5.088   3.476   0.634 -0.0551  0.7446  0.1640
  848MOL0     C16946   4.991   3.581   0.615 -0.5141  0.2302  0.0999
  848MOL0     C16947   5.032   3.680   0.517 -0.0445 -0.4547 -0.0335
  848MOL0     C16948   5.103   3.799   0.581  0.1300 -0.2900 -0.8828
  848MOL0     C16949   5.201   3.876   0.490 -0.3892  0.4454 -0.6951
  848MOL0     C16950   5.128   3.911   0.374  0.9982  0.7662 -0.1680
  848MOL0     C16951   5.055   3.942   0.277  0.9857  0.2376  0.0727
  848MOL0     C16952   4.967   3.402   0.829  0.8420  0.8421  0.3139
  848MOL0     C16953   4.957   3.305   0.929 -0.2530  1.2262  1.2973
  848MOL0     C16954   4.856   3.334   1.036 -0.4575 -0.1562  0.5277
  848MOL0     H16955   5.159   2.769   0.859 -0.7513 -3.4600 -1.5034
  848MOL0     H16956   5.105   2.539   0.892  1.5185  2.1353 -2.0610
  848MOL0     H16957   5.116   2.347   1.275  0.0557 -2.4292  0.4266
  848MOL0     H16958   5.227   2.375   1.146  1.1837 -4.2392  0.3491
  848MOL0     H16959   4.995   2.176   1.109  0.1699 -0.4383 -2.0356
  848MOL0     H16960   5.146   2.209   1.018  1.8448 -0.8688  0.4696
  848MOL0     H16961   5.288   2.135   1.202 -1.0142  1.1242  0.2099
  848MOL0     H16962   5.152   2.082   1.297  0.0740  0.9797  0.9415
  848MOL0     H16963   5.104   1.951   1.080 -0.9017 -1.2158  1.5947
  848MOL0     H16964   5.260   2.012   1.023 -0.2116  0.8335  0.0789
  848MOL0     H16965   5.325   1.804   1.099 -3.7186 -4.3311 -0.5045
  848MOL0     H16966   5.193   1.796   1.208  1.3492 -0.8835 -0.5852
  848MOL0     H16967   5.464   1.916   1.270  0.4852  1.6531  0.4078
  848MOL0     H16968   5.332   1.952   1.374 -2.5575  0.6092 -2.1331
  848MOL0     H16969   5.393   1.646   1.324 -1.8804 -0.6083  1.2391
  848MOL0     H16970   5.293   1.727   1.446  1.5627 -3.3791  1.1594
  848MOL0     H16971   5.471   1.838   1.542  0.4042 -0.7766  1.9394
  848MOL0     H16972   5.496   1.659   1.556  0.0710 -1.7464 -3.0398
  848MOL0     H16973   5.602   1.582   1.287 -1.8633  0.3034 -1.2047
  848MOL0     H16974   5.882   1.531   1.221 -0.4403  0.3492 -0.4574
  848MOL0     H16975   5.983   1.674   1.219  1.3387 -0.7074  1.1958
  848MOL0     H16976   5.844   1.761   1.020  1.1306 -0.4134 -2.5224
  848MOL0     H16977   5.960   1.633   1.003  1.1286 -2.5110  3.4294
  848MOL0     H16978   5.798   1.451   1.030  0.4444  1.1119  0.5331
  848MOL0     H16979   5.668   1.579   1.036 -1.2809  0.8631 -2.5952
  848MOL0     H16980   5.855   1.538   0.807 -0.0556 -0.9514  0.9244
  848MOL0     H16981   5.698   1.466   0.796 -0.8511  0.5628  0.8714
  848MOL0     H16982   5.827   1.586   0.591  3.7994  2.0702  3.6231
  848MOL0     H16983   5.791   1.641   0.250  0.9754  2.9263 -1.2141
  848MOL0     H16984   5.886   1.564   0.380  0.7868 -0.1344  0.7276
  848MOL0     H16985   5.935   1.715   0.313  0.6948 -0.1665  0.8156
  848MOL0     H16986   5.767   2.047   0.050 -0.9221 -1.6438  3.2408
  848MOL0     H16987   5.759   2.253  -0.123 -2.1487 -3.0379 -1.5401
  848MOL0     H16988   5.444   2.345  -0.166 -2.1619  0.0043  0.2788
  848MOL0     H16989   5.428   2.525  -0.165  0.6311 -0.0700  2.8983
  848MOL0     H16990   5.607   2.541  -0.339  2.4398 -0.6958  1.2831
  848MOL0     H16991   5.596   2.363  -0.327 -1.5859 -0.4924  1.2131
  848MOL0     H16992   5.349   2.385  -0.405  1.4534  0.7452  1.1715
  848MOL0     H16993   5.471   2.418  -0.511  0.4972 -2.1266  0.7690
  848MOL0     H16994   5.429   2.668  -0.423  1.1029 -1.3926  1.6162
  848MOL0     H16995   5.271   2.599  -0.382 -2.1178 -2.2728 -0.4026
  848MOL0     H16996   5.299   2.722  -0.601 -1.0078 -0.2564  1.8516
  848MOL0     H16997   5.390   2.580  -0.663  0.0547  2.6894 -1.4742
  848MOL0     H16998   5.112   2.562  -0.539 -1.5979  0.8001 -1.8233
  848MOL0     H16999   5.193   2.428  -0.616  0.6967 -0.1610 -0.4703
  848MOL0     H17000   5.224   2.557  -0.824  1.8817  1.2289  2.4482
  848MOL0     H17001   5.136   2.694  -0.757  1.1552  0.5678 -0.0100
  848MOL0     H17002   4.985   2.566  -0.893 -3.1327 -0.5392  0.4019
  848MOL0     H17003   4.947   2.524  -0.722  0.4009  1.5713 -1.4385
  848MOL0     H17004   5.471   2.431   0.149 -1.8502 -1.3546 -1.0645
  848MOL0     H17005   5.470   2.239   0.278 -1.2851  0.3524 -1.6993
  848MOL0     H17006   5.562   1.999   0.516 -1.8394 -1.6368 -1.7618
  848MOL0     H17007   5.569   1.895   0.740 -0.0071  0.1928  0.0162
  848MOL0     H17008   5.010   2.643   1.301  0.4029  2.5991  0.5776
  848MOL0     H17009   5.055   2.887   1.248 -0.6644 -1.3478  0.2954
  848MOL0     H17010   5.222   3.102   0.828 -2.3992 -2.0771 -2.5901
  848MOL0     H17011   5.236   3.276   0.661 -0.5520 -0.4352 -0.0593
  848MOL0     H17012   4.888   3.550   0.594 -0.3775 -0.7460  0.7871
  848MOL0     H17013   4.977   3.638   0.707 -2.6324 -0.7781  0.4647
  848MOL0     H17014   4.941   3.718   0.469 -1.4613 -2.2035  1.0888
  848MOL0     H17015   5.088   3.621   0.445 -0.9614  1.3990 -2.3777
  848MOL0     H17016   5.024   3.866   0.617  0.8227  0.6789 -1.1338
  848MOL0     H17017   5.156   3.775   0.673 -1.2737 -2.1243 -0.4754
  848MOL0     H17018   5.285   3.812   0.461 -2.5644 -3.1613  0.3666
  848MOL0     H17019   5.240   3.960   0.548  2.0694 -1.0520 -0.0008
  848MOL0     H17020   5.016   3.973   0.182  4.4851 -2.5502 -2.5889
  848MOL0     H17021   4.912   3.494   0.842 -0.5793 -0.2467  2.5469
  848MOL0     H17022   4.818   3.436   1.041  1.3070  0.4802  2.5429
  848MOL0     H17023   4.781   3.255   1.035 -0.0068 -0.6110 -1.8289
  848MOL0     H17024   4.911   3.320   1.130 -0.9142 -0.8916  0.6954
  849MOL0     O17025   2.696   8.316   1.207 -0.0298  0.1688 -1.1900
  849MOL0     C17026   2.600   8.237   1.205 -0.7736  0.5318  0.1395
  849MOL0     O17027   2.604   8.115   1.267 -0.3310 -0.6432 -0.1315
  849MOL0     C17028   2.666   8.098   1.391 -0.1225 -0.1402 -0.1297
  849MOL0     C17029   2.742   7.983   1.407  0.4586  0.5856  0.3704
  849MOL0     C17030   2.798   7.951   1.533 -0.0841 -0.5202 -1.0763
  849MOL0     C17031   2.804   8.048   1.638 -0.7386  0.1774  0.2618
  849MOL0     O17032   2.862   8.028   1.763  0.2302  0.0549 -0.1279
  849MOL0     C17033   2.946   7.909   1.772 -0.3957  0.1131  0.4863
  849MOL0     C17034   3.041   7.917   1.895 -0.3781  0.0379 -0.0804
  849MOL0     C17035   3.168   7.986   1.859  0.1185  1.2543  0.3776
  849MOL0     C17036   3.209   8.070   1.978  0.5331 -0.7436  0.6190
  849MOL0     C17037   3.353   8.125   1.968 -0.7878 -0.5199  0.0013
  849MOL0     C17038   3.403   8.242   2.049  0.3510  0.9153 -0.6686
  849MOL0     C17039   3.508   8.323   1.973  0.0141 -0.0141 -0.2825
  849MOL0     C17040   3.609   8.409   2.048 -0.2968  0.1760  0.5600
  849MOL0     N17041   3.547   8.490   2.151  0.1414 -0.3657 -0.6587
  849MOL0     C17042   3.576   8.475   2.290  1.2984  0.1711 -0.4872
  849MOL0     C17043   3.511   8.585   2.336  0.0827 -0.6925 -1.3940
  849MOL0     C17044   3.515   8.624   2.482  0.9326  0.9134  0.3861
  849MOL0     C17045   3.638   8.719   2.512  0.2164  0.6277 -0.0315
  849MOL0     C17046   3.644   8.737   2.665 -0.2340  0.3175 -0.5756
  849MOL0     C17047   3.542   8.840   2.709 -0.5892 -0.9240  0.3913
  849MOL0     O17048   3.569   8.971   2.636  0.2628 -0.2303  0.5828
  849MOL0     C17049   3.462   9.048   2.589  0.0754  0.9466 -0.2011
  849MOL0     C17050   3.481   9.149   2.491  0.0523 -0.2906 -0.6912
  849MOL0     C17051   3.384   9.255   2.462  0.4809  0.4732 -1.4250
  849MOL0     C17052   3.427   9.365   2.376  0.0300 -0.3754 -0.4366
  849MOL0     C17053   3.263   9.249   2.531 -0.7574  0.0938  0.6185
  849MOL0     C17054   3.145   9.336   2.503  0.0171 -0.8722  0.3318
  849MOL0     O17055   3.027   9.287   2.540 -0.6643 -0.2693 -0.3700
  849MOL0     C17056   2.915   9.344   2.493 -0.4602 -0.5337 -0.4177
  849MOL0     C17057   2.807   9.331   2.580 -0.5609  0.1622  0.3791
  849MOL0     C17058   2.692   9.410   2.573 -0.4208 -0.2842 -0.1235
  849MOL0     C17059   2.657   9.477   2.458  0.5385  0.8247  0.5675
  849MOL0     O17060   2.531   9.535   2.459 -0.5658 -0.5040  0.0713
  849MOL0     C17061   2.523   9.643   2.363 -0.0772  0.1451  0.2280
  849MOL0     C17062   2.430   9.740   2.422 -0.2196 -0.3314  0.4030
  849MOL0     C17063   2.402   9.858   2.322 -0.0249 -0.6146 -0.2078
  849MOL0     C17064   2.512   9.962   2.326  0.7375 -1.2864 -0.2563
  849MOL0     C17065   2.470  10.085   2.239 -0.2667 -0.4494  0.4337
  849MOL0     C17066   2.445  10.049   2.086  0.7302 -1.0263 -0.0293
  849MOL0     C17067   2.570  10.012   2.008 -0.8824  0.4595 -0.5048
  849MOL0     C17068   2.525   9.944   1.876  0.3167 -1.4108  0.6469
  849MOL0    Cl17069   2.654   9.837   1.810 -0.1181  0.3534 -0.4640
  849MOL0     C17070   2.760   9.477   2.357  0.4342  0.1660 -0.2531
  849MOL0     C17071   2.883   9.421   2.381 -0.3286 -0.5174  0.2834
  849MOL0     O17072   3.154   9.449   2.453 -0.4926  0.5741 -0.6027
  849MOL0     C17073   3.244   9.140   2.617 -0.3961  1.8333  0.9212
  849MOL0     C17074   3.337   9.040   2.645  0.4391  0.8105 -0.5861
  849MOL0     N17075   3.461   8.673   2.238  1.1969  0.1010 -0.0739
  849MOL0     N17076   3.483   8.612   2.124  0.8392  0.8611 -0.5076
  849MOL0     C17077   2.754   8.179   1.609  0.0761 -0.4133 -0.0321
  849MOL0     C17078   2.676   8.200   1.491  0.3774 -0.1140  0.3582
  849MOL0     C17079   2.475   8.293   1.142  0.4452 -0.2412  0.0041
  849MOL0     C17080   2.486   8.403   1.046 -0.7797 -0.1628 -0.0504
  849MOL0     C17081   2.379   8.475   0.992  0.5382 -0.2314  0.0446
  849MOL0     C17082   2.251   8.433   1.035  0.1347  0.4223  0.1288
  849MOL0     O17083   2.134   8.503   1.005 -0.0321  0.3119  0.2723
  849MOL0     C17084   2.139   8.637   0.964  0.1188  0.6009 -0.1303
  849MOL0     C17085   2.126   8.740   1.081 -0.3125 -0.4185 -0.3962
  849MOL0     C17086   2.189   8.706   1.218  0.7052 -0.5899  0.9248
  849MOL0     C17087   2.103   8.608   1.303 -0.3454 -0.7215 -0.6945
  849MOL0     C17088   2.186   8.582   1.426 -0.1008 -0.0834  0.1238
  849MOL0     C17089   2.265   8.559   1.518  0.1796  0.7672  0.1956
  849MOL0     C17090   2.231   8.322   1.116  0.7632  0.5997 -0.5818
  849MOL0     C17091   2.340   8.250   1.160  0.2995 -0.5097  0.1393
  849MOL0     C17092   2.307   8.133   1.244  0.3699  0.4370  0.2609
  849MOL0     H17093   2.749   7.901   1.336 -0.9176 -1.7420  2.7421
  849MOL0     H17094   2.837   7.850   1.532 -2.0567 -1.3393 -2.1030
  849MOL0     H17095   3.007   7.890   1.683 -2.7050 -1.2593 -0.9101
  849MOL0     H17096   2.883   7.822   1.789  0.1961 -0.0836  1.8338
  849MOL0     H17097   2.986   7.966   1.976 -4.6042 -2.1338 -1.2962
  849MOL0     H17098   3.060   7.815   1.930  2.9141 -0.1013 -1.9034
  849MOL0     H17099   3.243   7.914   1.827 -2.4049 -1.2534 -0.2754
  849MOL0     H17100   3.150   8.047   1.769 -0.6975 -1.6603 -1.5867
  849MOL0     H17101   3.137   8.152   1.986  1.0876 -0.1875 -0.0482
  849MOL0     H17102   3.191   8.009   2.068 -1.0048 -3.1328 -1.1903
  849MOL0     H17103   3.361   8.166   1.867  1.9716  0.6865  0.6119
  849MOL0     H17104   3.426   8.043   1.972  0.2881  0.4496  1.0974
  849MOL0     H17105   3.316   8.297   2.084  1.2056  1.4246  0.7383
  849MOL0     H17106   3.449   8.194   2.136 -3.1284 -3.0191 -0.6858
  849MOL0     H17107   3.456   8.390   1.905  0.0944  0.6645  0.3105
  849MOL0     H17108   3.568   8.252   1.916 -0.8375 -0.0781 -1.1331
  849MOL0     H17109   3.676   8.333   2.090 -0.9449 -1.7687 -1.7343
  849MOL0     H17110   3.675   8.461   1.977  0.6153 -0.8247  0.6513
  849MOL0     H17111   3.630   8.402   2.349 -1.5710 -1.9549 -0.2830
  849MOL0     H17112   3.524   8.528   2.534  0.8859  0.0137 -1.1926
  849MOL0     H17113   3.418   8.670   2.502  0.5618  1.5623 -2.3936
  849MOL0     H17114   3.735   8.672   2.492 -0.7141 -3.0927  2.9779
  849MOL0     H17115   3.626   8.806   2.447 -2.6151 -0.2283 -0.7979
  849MOL0     H17116   3.645   8.647   2.728 -1.8776  0.8902  0.3169
  849MOL0     H17117   3.746   8.775   2.673  0.7966 -1.4700 -3.3149
  849MOL0     H17118   3.441   8.797   2.704 -1.1559  0.1339  1.9296
  849MOL0     H17119   3.568   8.853   2.815  3.8967 -2.2598 -0.3356
  849MOL0     H17120   3.573   9.148   2.434  0.0085 -2.2170 -0.8132
  849MOL0     H17121   3.358   9.364   2.291 -1.8477  0.5310  0.9987
  849MOL0     H17122   3.528   9.349   2.336  0.4145  2.5484 -0.8100
  849MOL0     H17123   3.415   9.457   2.433  0.7429 -2.9205  4.3338
  849MOL0     H17124   2.817   9.265   2.666 -1.6772 -3.9938 -2.3891
  849MOL0     H17125   2.613   9.419   2.647 -3.1350  0.2999 -2.8894
  849MOL0     H17126   2.618   9.694   2.344  0.0813 -1.0237 -2.7049
  849MOL0     H17127   2.487   9.590   2.274  0.2013 -0.2495  0.3445
  849MOL0     H17128   2.334   9.691   2.437 -0.4909  0.4114  1.1980
  849MOL0     H17129   2.471   9.790   2.510  2.9445  1.5679 -1.8921
  849MOL0     H17130   2.309   9.908   2.352 -0.3608 -0.3963 -1.5646
  849MOL0     H17131   2.383   9.818   2.222  0.6036  1.2754 -1.1386
  849MOL0     H17132   2.611   9.928   2.295  0.8563  0.0035 -1.3989
  849MOL0     H17133   2.531  10.002   2.426 -0.3129  0.3212 -0.6525
  849MOL0     H17134   2.372  10.123   2.269 -1.1924 -1.4980 -1.1215
  849MOL0     H17135   2.540  10.168   2.252 -3.2957  2.3256  0.2193
  849MOL0     H17136   2.408  10.142   2.043 -1.9229 -1.4298  1.1595
  849MOL0     H17137   2.367   9.973   2.079  1.2087 -1.6365  0.9948
  849MOL0     H17138   2.635   9.950   2.070  0.3687  1.1372 -1.1002
  849MOL0     H17139   2.630  10.103   2.001  0.3170 -0.3701 -1.5745
  849MOL0     H17140   2.500  10.025   1.807  1.1544 -2.2528 -0.6972
  849MOL0     H17141   2.439   9.880   1.900 -1.0268  0.7363  1.8581
  849MOL0     H17142   2.744   9.530   2.264 -0.9583  0.4253  0.1112
  849MOL0     H17143   2.959   9.446   2.309 -1.5837 -2.8100 -1.9635
  849MOL0     H17144   3.147   9.122   2.664 -2.1917  1.2167 -2.6356
  849MOL0     H17145   3.307   8.961   2.712  0.9364 -0.0863 -1.3827
  849MOL0     H17146   2.779   8.262   1.674  1.1726 -0.7713  0.0229
  849MOL0     H17147   2.632   8.299   1.484  0.5866  0.3266  3.7652
  849MOL0     H17148   2.583   8.443   1.022 -2.0249  3.4273  0.2635
  849MOL0     H17149   2.399   8.557   0.923 -1.4544  0.0896 -0.2214
  849MOL0     H17150   2.224   8.659   0.900 -2.0701 -2.0441 -4.4092
  849MOL0     H17151   2.047   8.648   0.906  1.1447  0.1810 -1.8830
  849MOL0     H17152   2.019   8.762   1.093  0.1196  0.9162  1.3194
  849MOL0     H17153   2.167   8.834   1.042 -0.0485 -1.0727 -1.7474
  849MOL0     H17154   2.293   8.674   1.203  0.2006 -2.5468  1.4209
  849MOL0     H17155   2.208   8.791   1.284  1.3453 -1.6179  2.1043
  849MOL0     H17156   2.080   8.517   1.246 -0.5440 -0.1953 -1.4751
  849MOL0     H17157   2.015   8.667   1.331  1.4794  1.4715  0.7627
  849MOL0     H17158   2.336   8.531   1.593  0.4515 -0.4301 -0.4654
  849MOL0     H17159   2.131   8.282   1.130  0.7602  0.1723 -1.7201
  849MOL0     H17160   2.341   8.156   1.345  0.8562  1.2158 -0.0753
  849MOL0     H17161   2.199   8.116   1.248 -0.2594  3.8545  1.3943
  849MOL0     H17162   2.360   8.041   1.218  1.3189 -0.0240  3.3854
  850MOL0     O17163   1.480   2.016   3.591  0.1481 -0.2082  0.1593
  850MOL0     C17164   1.511   1.912   3.640 -0.5347  0.6878  0.1889
  850MOL0     O17165   1.631   1.844   3.611  0.8741  0.7784  0.4336
  850MOL0     C17166   1.737   1.915   3.553 -0.7837  0.0525 -0.6386
  850MOL0     C17167   1.772   2.055   3.566 -0.2344 -0.2304 -0.3904
  850MOL0     C17168   1.902   2.110   3.519  0.9494  0.5636 -0.0622
  850MOL0     C17169   1.989   2.018   3.455 -0.4589 -0.3953 -0.2209
  850MOL0     O17170   2.117   2.060   3.422  0.1082 -0.0541 -0.4475
  850MOL0     C17171   2.216   1.966   3.364  0.4177  0.6050 -0.6243
  850MOL0     C17172   2.352   2.037   3.341  1.0399  0.4790 -0.3065
  850MOL0     C17173   2.466   1.924   3.342 -0.4228  0.3864  0.6549
  850MOL0     C17174   2.598   1.997   3.361 -1.2266  0.8162 -0.4354
  850MOL0     C17175   2.714   1.901   3.409 -1.0229 -0.6052  1.4089
  850MOL0     C17176   2.679   1.809   3.519 -0.6027  0.9044 -0.8314
  850MOL0     C17177   2.799   1.729   3.586  1.2225 -0.2652 -0.0568
  850MOL0     C17178   2.757   1.623   3.693 -1.1246 -0.7762  0.7056
  850MOL0     N17179   2.758   1.690   3.828  0.1665 -0.6457  0.4775
  850MOL0     C17180   2.651   1.737   3.900  0.4264  0.3177 -0.7209
  850MOL0     C17181   2.712   1.781   4.015 -0.4629  1.3631 -1.1945
  850MOL0     C17182   2.644   1.833   4.144 -0.5279  0.5982 -0.1845
  850MOL0     C17183   2.648   1.984   4.143 -0.1501  0.2905 -0.1362
  850MOL0     C17184   2.788   2.036   4.189  0.8612 -0.6763 -0.3393
  850MOL0     C17185   2.873   2.075   4.073 -0.5854 -0.4013 -0.2794
  850MOL0     O17186   2.807   2.188   4.017  0.6722  0.2600  0.0155
  850MOL0     C17187   2.824   2.224   3.884 -1.2046  0.2692  0.7033
  850MOL0     C17188   2.914   2.159   3.790 -0.1497  0.5552 -0.9471
  850MOL0     C17189   2.934   2.210   3.658  0.3217  0.7558  0.8804
  850MOL0     C17190   3.031   2.126   3.561 -0.2451 -0.0562 -0.6214
  850MOL0     C17191   2.867   2.333   3.616 -0.5811  0.0579  0.3097
  850MOL0     C17192   2.877   2.406   3.477  0.4345  0.1510  1.1245
  850MOL0     O17193   2.774   2.500   3.440 -0.2942 -0.5825  0.4946
  850MOL0     C17194   2.805   2.569   3.323 -0.2961 -0.1539 -0.9458
  850MOL0     C17195   2.726   2.548   3.212  0.0073 -0.6956 -0.0672
  850MOL0     C17196   2.749   2.623   3.102 -0.3744  0.3609  0.1605
  850MOL0     C17197   2.859   2.715   3.091 -0.2881 -0.0908 -0.5406
  850MOL0     O17198   2.901   2.795   2.986  0.8220  0.4781 -0.1301
  850MOL0     C17199   2.803   2.850   2.900 -0.4083 -1.1802  1.6952
  850MOL0     C17200   2.819   2.793   2.760 -0.4175 -0.1848  0.6612
  850MOL0     C17201   2.828   2.642   2.758 -0.4185  0.3999 -0.1366
  850MOL0     C17202   2.870   2.584   2.617  0.1741  0.1782 -0.2476
  850MOL0     C17203   2.878   2.428   2.602  0.0138  0.3575  0.2228
  850MOL0     C17204   3.025   2.381   2.579 -0.3141 -0.4500  0.6205
  850MOL0     C17205   3.033   2.233   2.564  0.5481  0.2266 -0.4433
  850MOL0     C17206   3.186   2.201   2.598  0.8376 -0.7641  0.5906
  850MOL0    Cl17207   3.214   2.031   2.584  0.2903  0.1766  0.4521
  850MOL0     C17208   2.934   2.735   3.204  0.3565 -0.5550  0.2118
  850MOL0     C17209   2.908   2.668   3.325  1.1802 -0.5557 -0.6531
  850MOL0     O17210   2.972   2.370   3.408  0.9509 -0.0940 -0.5572
  850MOL0     C17211   2.783   2.389   3.706 -0.9389 -0.2272 -0.3823
  850MOL0     C17212   2.761   2.333   3.835  0.7551 -0.8481 -0.4288
  850MOL0     N17213   2.845   1.761   4.005  0.2839  0.2332 -0.8085
  850MOL0     N17214   2.874   1.707   3.896 -0.4428  0.1156  0.3174
  850MOL0     C17215   1.947   1.886   3.437 -0.4281 -0.5369 -0.4387
  850MOL0     C17216   1.823   1.833   3.487 -0.0480  0.9726  0.2557
  850MOL0     C17217   1.405   1.858   3.726  0.4005 -0.3776 -0.1292
  850MOL0     C17218   1.272   1.888   3.719 -0.3255 -0.6917  0.3944
  850MOL0     C17219   1.176   1.853   3.813  0.7383 -0.1713  0.2265
  850MOL0     C17220   1.208   1.763   3.916 -0.2365 -0.1294  0.3847
  850MOL0     O17221   1.111   1.710   3.998 -0.6488 -0.2790  0.1690
  850MOL0     C17222   1.139   1.636   4.113  0.1500  0.1348  0.6818
  850MOL0     C17223   1.223   1.719   4.219 -0.0511 -0.1838  0.6098
  850MOL0     C17224   1.298   1.632   4.313 -0.8977 -0.1657 -0.2978
  850MOL0     C17225   1.403   1.713   4.402 -0.1288  0.4872  0.0192
  850MOL0     C17226   1.499   1.789   4.327  0.6570  0.2909 -0.1634
  850MOL0     C17227   1.554   1.852   4.245 -0.5356 -0.4821 -0.1050
  850MOL0     C17228   1.345   1.725   3.924 -0.5010  0.0996  0.1010
  850MOL0     C17229   1.442   1.779   3.836  1.0006  0.0503  0.1216
  850MOL0     C17230   1.590   1.740   3.865  0.3789 -0.4760 -0.4416
  850MOL0     H17231   1.708   2.127   3.616 -1.1233 -0.3581 -1.3113
  850MOL0     H17232   1.944   2.207   3.541  2.6938  0.2933 -1.9657
  850MOL0     H17233   2.184   1.907   3.278 -1.5804  0.6703  0.0097
  850MOL0     H17234   2.242   1.896   3.444 -1.6267  1.2014  0.6507
  850MOL0     H17235   2.349   2.099   3.251  1.5961 -1.0859 -1.4604
  850MOL0     H17236   2.384   2.107   3.419  0.0718  1.3492 -0.6659
  850MOL0     H17237   2.448   1.861   3.429 -1.0070 -0.8236 -0.3104
  850MOL0     H17238   2.472   1.874   3.244 -1.3182  5.3624 -2.2754
  850MOL0     H17239   2.616   2.024   3.256  0.4701  1.2258 -0.0748
  850MOL0     H17240   2.595   2.092   3.415 -5.5028  0.4348  0.3282
  850MOL0     H17241   2.794   1.971   3.434  0.0692 -0.6701 -1.4262
  850MOL0     H17242   2.742   1.837   3.324 -1.1601  3.3274 -1.8996
  850MOL0     H17243   2.613   1.858   3.590 -0.7981  2.0927 -1.7848
  850MOL0     H17244   2.621   1.724   3.481  1.9469 -1.2632 -0.1398
  850MOL0     H17245   2.869   1.803   3.626  0.9616  1.2024 -2.1314
  850MOL0     H17246   2.847   1.674   3.505  3.3101 -0.0198  0.9455
  850MOL0     H17247   2.658   1.587   3.666 -1.8019  1.8974 -0.7735
  850MOL0     H17248   2.830   1.542   3.693  2.6543  2.3251  1.2089
  850MOL0     H17249   2.548   1.719   3.869  0.4275 -1.5846  0.1878
  850MOL0     H17250   2.700   1.794   4.229  0.7417 -0.7575 -1.5747
  850MOL0     H17251   2.542   1.793   4.153 -0.7568  0.9376 -1.1008
  850MOL0     H17252   2.614   2.024   4.048 -1.5635 -1.3997 -0.3982
  850MOL0     H17253   2.575   2.030   4.211 -0.8654  0.2081 -0.8288
  850MOL0     H17254   2.757   2.123   4.248  0.0113 -0.9764 -0.3334
  850MOL0     H17255   2.848   1.969   4.251  0.2300 -2.7178 -1.8575
  850MOL0     H17256   2.970   2.110   4.110 -0.3574 -2.0941  0.8237
  850MOL0     H17257   2.887   1.997   3.998  2.5917 -1.2975  1.0763
  850MOL0     H17258   2.972   2.077   3.831 -1.3214  1.0181  1.8546
  850MOL0     H17259   2.979   2.078   3.478 -0.5627 -1.0317  0.1118
  850MOL0     H17260   3.085   2.051   3.621 -0.2728  0.1162 -0.3780
  850MOL0     H17261   3.111   2.188   3.519  0.2683  0.4167  0.9788
  850MOL0     H17262   2.636   2.487   3.209  2.1818 -4.1469 -2.2474
  850MOL0     H17263   2.681   2.612   3.018  0.6329 -2.7435 -0.3727
  850MOL0     H17264   2.701   2.842   2.938 -0.9720 -0.8844  0.2990
  850MOL0     H17265   2.822   2.957   2.887  0.7013 -1.2560  2.5014
  850MOL0     H17266   2.728   2.825   2.710  0.0207 -0.0351 -0.0551
  850MOL0     H17267   2.906   2.839   2.713  0.8690 -0.6217  2.4746
  850MOL0     H17268   2.732   2.598   2.785 -0.2474  0.0098 -0.1616
  850MOL0     H17269   2.905   2.614   2.830  0.2427 -0.8105 -1.2664
  850MOL0     H17270   2.965   2.630   2.588  1.4429  0.9457  4.3265
  850MOL0     H17271   2.791   2.616   2.549 -0.4772 -2.2781 -0.7440
  850MOL0     H17272   2.837   2.391   2.696  0.7344  0.6877  0.6801
  850MOL0     H17273   2.829   2.384   2.515  0.2401 -0.7207  0.6333
  850MOL0     H17274   3.079   2.416   2.668  1.2198 -0.4352 -0.2886
  850MOL0     H17275   3.065   2.430   2.490 -2.8357  2.3781  0.9067
  850MOL0     H17276   2.995   2.202   2.467 -0.0094 -0.5776  0.0188
  850MOL0     H17277   2.960   2.191   2.634 -2.3961  3.2933 -1.3931
  850MOL0     H17278   3.205   2.219   2.704  4.6293 -1.9504  0.2790
  850MOL0     H17279   3.245   2.258   2.525 -4.3300  0.4150 -3.2509
  850MOL0     H17280   3.012   2.811   3.204 -1.0921  1.0139  1.6958
  850MOL0     H17281   2.960   2.680   3.420  1.8316 -1.6193 -0.8715
  850MOL0     H17282   2.733   2.484   3.688  0.4640  1.0875  2.2254
  850MOL0     H17283   2.705   2.403   3.897  1.1664  0.9528 -1.9838
  850MOL0     H17284   2.022   1.816   3.402  1.7957 -0.1217  2.9299
  850MOL0     H17285   1.814   1.725   3.497 -0.5768  0.7482 -2.0902
  850MOL0     H17286   1.231   1.951   3.640 -0.0924  2.6952  2.7693
  850MOL0     H17287   1.072   1.877   3.795  0.6555 -1.1729 -0.7038
  850MOL0     H17288   1.052   1.596   4.166  1.4340 -0.6670  2.2698
  850MOL0     H17289   1.194   1.550   4.073 -0.6955 -0.3748  0.6036
  850MOL0     H17290   1.151   1.780   4.274  1.0536 -0.1620  2.0839
  850MOL0     H17291   1.278   1.794   4.160 -0.1816  0.4009  1.2223
  850MOL0     H17292   1.228   1.588   4.384 -1.6350  2.4505  0.7161
  850MOL0     H17293   1.364   1.557   4.269  0.9590  1.7028 -0.8465
  850MOL0     H17294   1.443   1.644   4.476 -3.1394 -3.1749 -1.4569
  850MOL0     H17295   1.335   1.779   4.458 -0.4612  1.2648 -1.2485
  850MOL0     H17296   1.609   1.905   4.170 -0.9049 -0.8697 -0.6572
  850MOL0     H17297   1.383   1.665   4.006 -0.2778  1.4212  0.9915
  850MOL0     H17298   1.625   1.653   3.809  1.8841 -0.6636  0.7138
  850MOL0     H17299   1.662   1.820   3.845  1.4175 -0.7805  1.7768
  850MOL0     H17300   1.584   1.716   3.972 -2.2851  0.4392 -0.3215
  851MOL0     O17301   9.642  11.244  11.086 -0.3319 -0.4360  0.0567
  851MOL0     C17302   9.535  11.269  11.148  0.3383  0.5772  0.5481
  851MOL0     O17303   9.428  11.186  11.145  0.5829 -0.5548  0.0583
  851MOL0     C17304   9.414  11.105  11.044 -0.5708  0.0814  0.2902
  851MOL0     C17305   9.394  11.144  10.914  0.4845 -0.8041  0.1070
  851MOL0     C17306   9.353  11.051  10.817  0.5217 -0.9436 -0.9968
  851MOL0     C17307   9.329  10.919  10.851  0.9980  0.0284  0.1171
  851MOL0     O17308   9.276  10.847  10.743 -1.1978  0.6908 -0.5056
  851MOL0     C17309   9.236  10.716  10.760  0.0943  0.5755 -0.5097
  851MOL0     C17310   9.361  10.623  10.787  0.7925 -0.8744  0.2721
  851MOL0     C17311   9.397  10.555  10.662 -0.3046  0.3894 -0.2540
  851MOL0     C17312   9.447  10.637  10.545 -0.8436 -0.6746 -0.7240
  851MOL0     C17313   9.542  10.557  10.468  0.4315 -0.0823  0.6049
  851MOL0     C17314   9.561  10.611  10.338  1.0745 -0.3303  1.1125
  851MOL0     C17315   9.678  10.534  10.272 -1.1061  0.4555  0.8519
  851MOL0     C17316   9.722  10.615  10.158 -0.7840  0.6150  0.7809
  851MOL0     N17317   9.842  10.558  10.093  1.0414  0.0042  0.4885
  851MOL0     C17318   9.875  10.420  10.085  0.5881 -0.2332  0.3578
  851MOL0     C17319  10.007  10.415  10.060  0.3665  0.0286 -0.2057
  851MOL0     C17320  10.081  10.286  10.043  0.7071  0.3138 -0.2511
  851MOL0     C17321  10.190  10.261  10.143  0.5681  0.2089 -0.7125
  851MOL0     C17322  10.241  10.120  10.140 -0.1706 -0.0587  0.2139
  851MOL0     C17323  10.155  10.023  10.224  0.2975 -0.7306  0.4912
  851MOL0     O17324  10.195  10.032  10.356 -0.3125 -1.0774  0.3286
  851MOL0     C17325  10.294   9.943  10.394  0.2224  0.9718  1.0996
  851MOL0     C17326  10.397   9.883  10.323 -0.1188  0.5817 -1.2409
  851MOL0     C17327  10.489   9.797  10.383 -0.4619  0.7620  0.7091
  851MOL0     C17328  10.582   9.727  10.286  0.0370 -1.0625  0.1577
  851MOL0     C17329  10.491   9.783  10.529 -0.4448  0.6656  0.5383
  851MOL0     C17330  10.602   9.730  10.611  0.2044 -0.2651  0.1147
  851MOL0     O17331  10.699   9.655  10.546  0.5022 -0.6320  0.3771
  851MOL0     C17332  10.779   9.570  10.604  0.1717  0.9294  0.6820
  851MOL0     C17333  10.900   9.544  10.543 -0.1327  0.9865 -0.8852
  851MOL0     C17334  10.995   9.450  10.587 -0.6796 -0.2629  0.5080
  851MOL0     C17335  10.962   9.386  10.703 -0.2755 -0.3494 -0.3284
  851MOL0     O17336  11.072   9.317  10.753 -0.0537  0.3989  1.2447
  851MOL0     C17337  11.103   9.310  10.893  0.2424 -0.0890  1.4387
  851MOL0     C17338  11.222   9.232  10.939  0.1865 -0.3996  0.0694
  851MOL0     C17339  11.198   9.073  10.936 -0.1618 -0.5748  0.6837
  851MOL0     C17340  11.318   9.002  10.893 -1.4565 -0.5905  0.0374
  851MOL0     C17341  11.292   8.849  10.891 -0.4204 -0.9799  0.2031
  851MOL0     C17342  11.322   8.777  10.765  0.1318  0.1956  0.4453
  851MOL0     C17343  11.217   8.818  10.651 -1.1822  1.0979  0.1183
  851MOL0     C17344  11.298   8.794  10.519 -0.7156 -0.5885  0.4668
  851MOL0    Cl17345  11.416   8.929  10.505 -0.3879  0.2207 -0.3632
  851MOL0     C17346  10.839   9.405  10.767 -0.7645  0.0178  0.2473
  851MOL0     C17347  10.741   9.492  10.712  0.3363 -0.0488 -0.6340
  851MOL0     O17348  10.612   9.750  10.732  0.4519  0.3449  0.8217
  851MOL0     C17349  10.381   9.841  10.598 -0.3475 -0.0727  0.2158
  851MOL0     C17350  10.287   9.919  10.530  1.0526  0.1505  0.7370
  851MOL0     N17351  10.054  10.545  10.047 -0.4394 -0.3596  0.0666
  851MOL0     N17352   9.959  10.627  10.062 -0.0762  0.2448 -1.0365
  851MOL0     C17353   9.356  10.886  10.988  0.2200  0.8801  0.4917
  851MOL0     C17354   9.404  10.973  11.076 -0.0659 -0.1251  0.6867
  851MOL0     C17355   9.519  11.387  11.239  0.9012  0.4472  0.3879
  851MOL0     C17356   9.639  11.456  11.272  0.3625  1.3257 -0.2200
  851MOL0     C17357   9.629  11.550  11.374 -0.3230 -0.2220  0.3549
  851MOL0     C17358   9.512  11.595  11.432 -0.0170  0.2993  0.7762
  851MOL0     O17359   9.522  11.690  11.521  0.2405  0.0344  0.4055
  851MOL0     C17360   9.413  11.766  11.568 -0.3720  0.8501 -0.5944
  851MOL0     C17361   9.356  11.692  11.688  0.7523  0.6891  0.1914
  851MOL0     C17362   9.290  11.798  11.783 -0.2820 -0.1680 -0.6819
  851MOL0     C17363   9.377  11.902  11.849  1.1688  0.5824 -0.7349
  851MOL0     C17364   9.293  12.007  11.911 -0.4170 -0.5559  0.8186
  851MOL0     C17365   9.232  12.079  11.987  0.2603  0.1734  0.5968
  851MOL0     C17366   9.389  11.533  11.384  0.7239 -0.0573 -0.5497
  851MOL0     C17367   9.395  11.427  11.297 -1.1951 -0.6964  0.9196
  851MOL0     C17368   9.256  11.382  11.251 -0.9401  0.2413  0.3619
  851MOL0     H17369   9.412  11.250  10.896  6.8992 -1.6825 -0.9634
  851MOL0     H17370   9.318  11.083  10.719  1.8429  1.1116 -0.8647
  851MOL0     H17371   9.194  10.677  10.667 -0.9042  0.1114  0.1202
  851MOL0     H17372   9.159  10.698  10.835  2.7774 -4.0434  1.6294
  851MOL0     H17373   9.444  10.685  10.821 -0.3224  0.5483  0.4831
  851MOL0     H17374   9.341  10.541  10.856  1.4614 -2.1169 -0.9558
  851MOL0     H17375   9.475  10.486  10.693  0.4369  2.1897  2.1878
  851MOL0     H17376   9.314  10.495  10.623 -2.5316  1.7607  2.0439
  851MOL0     H17377   9.371  10.675  10.478 -1.1879 -0.7452 -0.3780
  851MOL0     H17378   9.500  10.727  10.576 -0.9539 -1.6287  2.7567
  851MOL0     H17379   9.506  10.454  10.457 -0.9960  0.6459 -2.5371
  851MOL0     H17380   9.640  10.557  10.517  0.1956 -1.5357  1.1259
  851MOL0     H17381   9.470  10.608  10.277  3.0793  0.4303 -2.1841
  851MOL0     H17382   9.594  10.715  10.350  1.4932 -0.7030  3.8098
  851MOL0     H17383   9.640  10.435  10.244  1.6714 -1.4090  3.0922
  851MOL0     H17384   9.765  10.532  10.338 -0.9225  0.5288  0.6128
  851MOL0     H17385   9.648  10.628  10.078 -2.5002 -3.1375  1.5261
  851MOL0     H17386   9.753  10.713  10.194 -1.3742  1.1304 -0.0566
  851MOL0     H17387   9.789  10.354  10.094 -0.4032  1.2036  2.3646
  851MOL0     H17388  10.125  10.299   9.943 -0.0103  4.5059 -0.1982
  851MOL0     H17389  10.016  10.199  10.025  0.6361 -0.0889  1.7442
  851MOL0     H17390  10.278  10.325  10.127 -0.1136  1.4033  0.1268
  851MOL0     H17391  10.164  10.292  10.245  4.8248 -1.4976  1.1204
  851MOL0     H17392  10.240  10.084  10.036  4.8804 -3.9038  1.0645
  851MOL0     H17393  10.346  10.115  10.169 -0.0348  1.6267  0.1091
  851MOL0     H17394  10.049  10.051  10.222  1.0436  2.4363 -0.4237
  851MOL0     H17395  10.149   9.926  10.175  0.2657 -1.8657  2.6088
  851MOL0     H17396  10.392   9.903  10.217 -0.2372 -0.3588 -1.4215
  851MOL0     H17397  10.558   9.742  10.181  1.7365 -2.6811 -0.5098
  851MOL0     H17398  10.593   9.619  10.300  2.0736 -0.9899 -0.6209
  851MOL0     H17399  10.680   9.773  10.298  1.5172 -4.1220  0.7898
  851MOL0     H17400  10.939   9.609  10.464  1.6446  0.8682 -0.1604
  851MOL0     H17401  11.090   9.428  10.539 -1.2976  0.4446 -1.0949
  851MOL0     H17402  11.118   9.415  10.920  0.3105  0.2577  0.1142
  851MOL0     H17403  11.018   9.267  10.948 -0.7342  1.4560  1.1972
  851MOL0     H17404  11.299   9.252  10.864  0.8155 -0.5723  0.6581
  851MOL0     H17405  11.257   9.275  11.034 -1.3285 -0.9783  0.9361
  851MOL0     H17406  11.120   9.059  10.860  1.3452  1.3450 -1.3500
  851MOL0     H17407  11.155   9.044  11.032 -1.6386  1.1187  0.5968
  851MOL0     H17408  11.403   9.027  10.958 -0.4324  1.5051 -1.9417
  851MOL0     H17409  11.348   9.051  10.799  4.6996  2.4757  2.9684
  851MOL0     H17410  11.355   8.814  10.974  0.1296  1.8569  1.0927
  851MOL0     H17411  11.192   8.831  10.931 -1.3331  3.9401  0.7096
  851MOL0     H17412  11.318   8.668  10.777  2.3057  0.2251  2.0652
  851MOL0     H17413  11.424   8.806  10.739 -0.6020  0.3804 -2.7201
  851MOL0     H17414  11.196   8.925  10.658 -2.7451  0.8025  0.2688
  851MOL0     H17415  11.121   8.765  10.652 -0.0160 -1.1397 -0.7703
  851MOL0     H17416  11.234   8.820  10.434  0.0106  3.9943  1.0334
  851MOL0     H17417  11.349   8.697  10.520 -1.2656 -0.8946 -0.3965
  851MOL0     H17418  10.810   9.344  10.853 -1.5162 -5.3308 -3.2949
  851MOL0     H17419  10.646   9.494  10.763 -0.7654  0.7983 -2.6075
  851MOL0     H17420  10.368   9.826  10.705 -0.5562 -0.2939  0.1614
  851MOL0     H17421  10.206   9.965  10.587 -0.5483  0.4973 -1.6711
  851MOL0     H17422   9.337  10.783  11.016  1.2114 -0.7485 -3.9750
  851MOL0     H17423   9.434  10.961  11.179  1.5732  3.9034  0.8716
  851MOL0     H17424   9.740  11.423  11.253  0.1740 -1.6528  2.9778
  851MOL0     H17425   9.724  11.595  11.400  2.2550 -4.2256 -1.2257
  851MOL0     H17426   9.453  11.866  11.590  0.7614  0.4051 -0.5729
  851MOL0     H17427   9.336  11.783  11.493 -3.0137 -0.5914  1.5925
  851MOL0     H17428   9.435  11.641  11.744 -1.0180 -0.5644  1.7037
  851MOL0     H17429   9.285  11.616  11.654 -0.0231  2.1344 -1.5910
  851MOL0     H17430   9.216  11.845  11.717 -0.4641  1.9658  0.9312
  851MOL0     H17431   9.242  11.750  11.869 -2.1643 -1.3856 -2.3075
  851MOL0     H17432   9.455  11.949  11.788 -0.6661  2.4841 -1.7334
  851MOL0     H17433   9.418  11.838  11.928 -1.4334 -1.7195 -1.0733
  851MOL0     H17434   9.159  12.129  12.049 -0.7614 -0.3089 -0.1783
  851MOL0     H17435   9.295  11.570  11.425  0.9625 -0.2273  0.1720
  851MOL0     H17436   9.272  11.353  11.147  3.2441 -2.8222  1.5979
  851MOL0     H17437   9.227  11.301  11.318  0.0970  1.2787  2.1368
  851MOL0     H17438   9.187  11.467  11.254 -1.4827 -0.2256  1.4609
  852MOL0     O17439   7.873   4.212   4.543  0.0368  0.1279 -0.3108
  852MOL0     C17440   7.837   4.116   4.476 -0.1201 -0.5537 -0.1894
  852MOL0     O17441   7.923   4.048   4.387  0.3856  0.1074  0.0479
  852MOL0     C17442   8.053   4.086   4.374  0.9810  0.4867 -0.6399
  852MOL0     C17443   8.155   3.997   4.386  0.8139 -0.3327  0.5587
  852MOL0     C17444   8.288   4.040   4.356  0.5631 -0.3150  0.4412
  852MOL0     C17445   8.328   4.171   4.318  0.8289  0.2508 -0.1629
  852MOL0     O17446   8.445   4.205   4.265 -0.2247 -0.4802  0.4679
  852MOL0     C17447   8.537   4.101   4.232 -1.1361  0.5783 -0.0824
  852MOL0     C17448   8.650   4.155   4.150  0.1855 -0.2625  0.4908
  852MOL0     C17449   8.742   4.247   4.229 -0.0418 -0.2633  0.3415
  852MOL0     C17450   8.808   4.341   4.131 -0.0758  0.1409 -0.5738
  852MOL0     C17451   8.916   4.434   4.195  0.5534  0.1600 -1.6650
  852MOL0     C17452   8.855   4.527   4.302 -0.1302  0.8939  0.2666
  852MOL0     C17453   8.948   4.655   4.320 -0.3734 -0.3714 -0.1889
  852MOL0     C17454   8.864   4.755   4.400 -0.9843 -0.5970 -1.0744
  852MOL0     N17455   8.956   4.861   4.460  0.2624 -0.5968  0.0403
  852MOL0     C17456   9.053   4.932   4.387 -0.1160  0.2941 -0.7250
  852MOL0     C17457   9.100   5.031   4.466 -0.9114  0.4298  0.5333
  852MOL0     C17458   9.171   5.149   4.400 -0.4781  0.4157  0.1615
  852MOL0     C17459   9.323   5.135   4.415  0.3679  0.2406  0.2596
  852MOL0     C17460   9.411   5.253   4.358  0.3440 -0.0194  0.1571
  852MOL0     C17461   9.442   5.250   4.208  0.1876 -0.1083 -0.4403
  852MOL0     O17462   9.319   5.264   4.130 -1.0606  0.0056  0.0689
  852MOL0     C17463   9.300   5.387   4.088 -0.7329 -0.2847  0.6398
  852MOL0     C17464   9.185   5.457   4.125 -0.1662  0.6230  0.4818
  852MOL0     C17465   9.144   5.585   4.088  0.2663  0.2694  0.5553
  852MOL0     C17466   9.019   5.656   4.148 -0.5594 -0.9657 -0.4157
  852MOL0     C17467   9.231   5.650   3.994  0.6314 -0.8718 -0.6990
  852MOL0     C17468   9.197   5.779   3.940  0.1716 -0.1222  0.5444
  852MOL0     O17469   9.277   5.806   3.836  0.0543  0.0861 -0.3804
  852MOL0     C17470   9.260   5.899   3.738  0.3797 -0.0933  0.6812
  852MOL0     C17471   9.342   5.881   3.626 -0.1312 -0.3088 -0.7756
  852MOL0     C17472   9.341   5.969   3.517 -0.6504 -0.0289 -0.5291
  852MOL0     C17473   9.262   6.083   3.520  0.0850 -0.5541  0.3034
  852MOL0     O17474   9.269   6.166   3.409 -0.6693  0.1856 -1.0236
  852MOL0     C17475   9.164   6.259   3.393  0.8950  0.1427  0.2007
  852MOL0     C17476   9.194   6.328   3.260 -0.1290 -0.4225  0.0283
  852MOL0     C17477   9.134   6.255   3.135  0.5063 -0.6409 -0.0046
  852MOL0     C17478   9.027   6.355   3.058  0.2610 -0.2115 -0.2705
  852MOL0     C17479   9.090   6.462   2.969  0.2060 -0.2191  0.0125
  852MOL0     C17480   8.981   6.512   2.871 -0.0140 -0.5359 -0.3569
  852MOL0     C17481   9.048   6.609   2.775 -0.3166  0.2240  1.7421
  852MOL0     C17482   8.943   6.659   2.671  0.4693  0.6004  0.4206
  852MOL0    Cl17483   8.814   6.747   2.767 -0.2545  0.6155  0.5351
  852MOL0     C17484   9.165   6.096   3.627  0.2035  0.6536  0.1034
  852MOL0     C17485   9.166   6.004   3.725 -0.6143  0.2751 -0.3482
  852MOL0     O17486   9.115   5.853   3.979  0.2102 -0.1518  0.5570
  852MOL0     C17487   9.344   5.585   3.954 -0.6777 -0.1951 -1.3414
  852MOL0     C17488   9.379   5.459   3.997  0.0186  0.2707 -0.5822
  852MOL0     N17489   9.043   5.008   4.592  0.3935  0.0160 -0.8187
  852MOL0     N17490   8.965   4.909   4.589  0.1963 -0.3484  1.4082
  852MOL0     C17491   8.217   4.251   4.301  0.0570 -0.5558 -0.1418
  852MOL0     C17492   8.082   4.211   4.329  0.1459 -0.6232 -0.2670
  852MOL0     C17493   7.700   4.061   4.483 -0.0581  0.8684 -0.8628
  852MOL0     C17494   7.680   3.924   4.515 -0.7831 -0.1932 -0.8346
  852MOL0     C17495   7.555   3.875   4.549 -1.5668  0.3034  0.2901
  852MOL0     C17496   7.454   3.960   4.562  1.7586  0.4072 -0.2234
  852MOL0     O17497   7.326   3.914   4.599  0.4016  0.3084 -0.0581
  852MOL0     C17498   7.308   3.794   4.681  0.3665  0.1722  0.2495
  852MOL0     C17499   7.389   3.816   4.821  0.0970  0.3066  0.7104
  852MOL0     C17500   7.327   3.917   4.913  0.1580 -0.6585 -0.6507
  852MOL0     C17501   7.207   3.856   4.981  0.5106 -0.6288  0.0547
  852MOL0     C17502   7.141   3.941   5.081  0.7469 -1.0762  0.7737
  852MOL0     C17503   7.083   4.003   5.170  0.8088  0.8647  0.2736
  852MOL0     C17504   7.473   4.097   4.533  0.8900 -0.5560  0.2245
  852MOL0     C17505   7.590   4.151   4.497 -1.2694  0.6901 -0.0465
  852MOL0     C17506   7.604   4.303   4.468 -0.2004 -0.2981 -0.4540
  852MOL0     H17507   8.136   3.896   4.422  1.2986 -0.4282  0.5513
  852MOL0     H17508   8.358   3.957   4.364  0.7032 -0.1573  0.8594
  852MOL0     H17509   8.499   4.017   4.173  0.4177  1.0821 -1.9101
  852MOL0     H17510   8.571   4.067   4.331  2.8102 -0.3159 -1.5514
  852MOL0     H17511   8.711   4.069   4.124 -0.6105 -0.1063 -2.2175
  852MOL0     H17512   8.614   4.188   4.052  2.2564  0.4214 -0.0808
  852MOL0     H17513   8.686   4.320   4.289  1.7308  1.5300 -0.0752
  852MOL0     H17514   8.815   4.195   4.291 -0.9763  0.3892  2.0562
  852MOL0     H17515   8.863   4.274   4.064  1.8430 -1.7654  2.6638
  852MOL0     H17516   8.731   4.395   4.074  0.7105  2.4588  0.4310
  852MOL0     H17517   8.957   4.501   4.119  2.2652  0.2178 -0.7296
  852MOL0     H17518   9.000   4.377   4.236  0.5148 -0.1718 -2.0391
  852MOL0     H17519   8.765   4.559   4.249  0.1611  0.1972 -0.6841
  852MOL0     H17520   8.822   4.476   4.393  1.3716 -1.8039 -0.5652
  852MOL0     H17521   8.963   4.703   4.224  1.2080 -0.1911  0.1183
  852MOL0     H17522   9.047   4.637   4.363 -0.3832  5.2223  3.1595
  852MOL0     H17523   8.782   4.800   4.344 -0.9362  1.2488  0.2584
  852MOL0     H17524   8.818   4.701   4.483 -2.4192 -2.5775 -3.0454
  852MOL0     H17525   9.072   4.920   4.281 -1.6790  0.3790 -1.0352
  852MOL0     H17526   9.140   5.240   4.453  3.6180  1.1603  1.6730
  852MOL0     H17527   9.131   5.156   4.298  0.4263  1.8253 -0.1365
  852MOL0     H17528   9.350   5.113   4.519 -2.1161  0.5084  1.0245
  852MOL0     H17529   9.358   5.049   4.357  0.1885  1.4804 -1.7790
  852MOL0     H17530   9.365   5.350   4.379  0.8155  0.1474  0.4547
  852MOL0     H17531   9.508   5.268   4.407  0.8381 -0.4152 -0.6697
  852MOL0     H17532   9.518   5.327   4.190  0.9417 -0.1071  2.2640
  852MOL0     H17533   9.482   5.151   4.183  3.6857  1.1183 -0.2632
  852MOL0     H17534   9.122   5.415   4.203 -1.0542  0.2546 -0.4101
  852MOL0     H17535   9.056   5.741   4.207  2.4488 -0.7038 -2.4409
  852MOL0     H17536   8.960   5.591   4.213 -1.4106 -0.3323 -0.5445
  852MOL0     H17537   8.954   5.700   4.072 -0.6028  2.6332  1.4365
  852MOL0     H17538   9.419   5.805   3.630 -1.0866 -1.3877 -2.0839
  852MOL0     H17539   9.405   5.954   3.431  1.2057  0.7910  0.6319
  852MOL0     H17540   9.068   6.208   3.380  1.3334 -0.5515 -0.3979
  852MOL0     H17541   9.158   6.336   3.470 -1.0790  0.6202 -0.3886
  852MOL0     H17542   9.160   6.432   3.270 -1.1928 -0.5784 -1.6613
  852MOL0     H17543   9.303   6.332   3.258 -0.1657  0.3333 -0.8791
  852MOL0     H17544   9.083   6.161   3.160 -1.4974  0.0670 -1.2712
  852MOL0     H17545   9.212   6.227   3.063 -1.1915 -0.8967 -1.8071
  852MOL0     H17546   8.967   6.413   3.129 -0.3203  0.5892 -1.4062
  852MOL0     H17547   8.967   6.293   2.991 -1.4247 -1.6106  2.3424
  852MOL0     H17548   9.132   6.542   3.030 -4.1543  1.0727  1.7265
  852MOL0     H17549   9.168   6.413   2.911 -0.5843 -1.0473 -0.3805
  852MOL0     H17550   8.908   6.569   2.929 -2.3693 -4.4233  0.8640
  852MOL0     H17551   8.931   6.435   2.812 -2.8724  2.0645 -1.6435
  852MOL0     H17552   9.121   6.544   2.726 -0.1132  0.1105  2.1922
  852MOL0     H17553   9.108   6.692   2.813  1.6504  0.3611 -1.2720
  852MOL0     H17554   8.895   6.574   2.622  1.3871 -1.5390  2.9560
  852MOL0     H17555   9.002   6.703   2.590  0.0276 -1.5968 -1.2043
  852MOL0     H17556   9.094   6.178   3.634 -0.2954  0.3423 -1.0359
  852MOL0     H17557   9.095   6.027   3.803 -1.9596 -0.7708 -1.2148
  852MOL0     H17558   9.417   5.620   3.881  0.3182 -1.0388 -0.7778
  852MOL0     H17559   9.472   5.414   3.963  0.1843 -2.3474  2.7451
  852MOL0     H17560   8.225   4.353   4.267 -1.6594 -0.4150 -0.1683
  852MOL0     H17561   7.996   4.276   4.320 -1.2502 -2.2570  0.7117
  852MOL0     H17562   7.752   3.843   4.504 -1.7000 -0.8560 -2.3464
  852MOL0     H17563   7.530   3.770   4.560  0.8721 -0.1655  2.5888
  852MOL0     H17564   7.201   3.790   4.703  0.1646  2.1450 -0.1966
  852MOL0     H17565   7.340   3.700   4.635 -0.4509 -0.0926  0.2029
  852MOL0     H17566   7.494   3.831   4.793 -0.1257  1.4698  0.4573
  852MOL0     H17567   7.376   3.719   4.870 -2.8417 -0.3647 -1.1531
  852MOL0     H17568   7.403   3.939   4.989  1.2524  2.3947 -2.4287
  852MOL0     H17569   7.303   4.010   4.860 -1.8229 -1.3469 -1.0512
  852MOL0     H17570   7.255   3.774   5.034  0.8955  0.0273  0.7465
  852MOL0     H17571   7.125   3.812   4.923  1.8498 -3.3340  0.0601
  852MOL0     H17572   7.017   4.051   5.240 -1.3764 -3.0411  1.2135
  852MOL0     H17573   7.382   4.155   4.544  1.1974  0.0726 -0.3958
  852MOL0     H17574   7.674   4.344   4.543 -1.5895 -1.1495  1.3876
  852MOL0     H17575   7.639   4.305   4.365  1.2322  0.5476  0.0096
  852MOL0     H17576   7.514   4.363   4.485  1.2556  1.9802 -0.3353
  853MOL0     O17577   2.431   7.504   5.215  0.4039 -0.6631  0.1102
  853MOL0     C17578   2.336   7.425   5.240  0.3250  0.2491 -0.8717
  853MOL0     O17579   2.333   7.341   5.345  0.5015  0.2135 -0.0158
  853MOL0     C17580   2.427   7.343   5.442  1.1180  0.7256  0.5370
  853MOL0     C17581   2.551   7.304   5.399 -0.1003 -0.3498 -0.2827
  853MOL0     C17582   2.644   7.291   5.504 -0.4805 -0.6478  0.0612
  853MOL0     C17583   2.614   7.317   5.640  1.0337  0.8351  0.2553
  853MOL0     O17584   2.714   7.309   5.740  0.2604 -0.3176  0.4963
  853MOL0     C17585   2.696   7.204   5.837 -0.7458  0.1151  0.6899
  853MOL0     C17586   2.777   7.239   5.950 -0.1558 -0.1904  0.2043
  853MOL0     C17587   2.715   7.192   6.086 -0.1000 -0.5779  0.6571
  853MOL0     C17588   2.797   7.227   6.207  0.1433  0.7199  0.4451
  853MOL0     C17589   2.929   7.141   6.221 -0.1186 -0.0820  0.7817
  853MOL0     C17590   2.996   7.163   6.361  0.0566  0.3702  0.2218
  853MOL0     C17591   3.131   7.099   6.376 -0.7854  0.5021  0.5209
  853MOL0     C17592   3.151   7.010   6.505 -0.5630 -0.6641  0.8986
  853MOL0     N17593   3.034   6.923   6.529 -0.0555 -0.6383 -0.4094
  853MOL0     C17594   3.030   6.792   6.478 -0.3997  0.4426  0.4633
  853MOL0     C17595   2.906   6.742   6.508  0.8174  0.1749  0.7609
  853MOL0     C17596   2.846   6.604   6.450  0.2441 -1.1058  0.6616
  853MOL0     C17597   2.718   6.653   6.360 -0.0454 -0.4118  0.7175
  853MOL0     C17598   2.764   6.740   6.242  0.1176 -0.1008 -0.0557
  853MOL0     C17599   2.633   6.787   6.182 -0.0453  0.1891  1.6531
  853MOL0     O17600   2.660   6.808   6.042  0.1955  0.1493  0.0661
  853MOL0     C17601   2.551   6.850   5.963 -0.5384 -0.1108 -0.9073
  853MOL0     C17602   2.419   6.888   6.005 -0.2576  0.5386  0.4978
  853MOL0     C17603   2.319   6.935   5.916 -0.7544 -0.4729 -0.0720
  853MOL0     C17604   2.184   6.952   5.968  0.2696  0.2308 -1.4058
  853MOL0     C17605   2.356   6.948   5.781 -0.1129  0.0197 -0.0214
  853MOL0     C17606   2.261   6.982   5.675 -0.6037 -0.6884 -0.8404
  853MOL0     O17607   2.271   6.905   5.574  0.4498  0.4439 -0.2783
  853MOL0     C17608   2.175   6.900   5.471 -0.1655  0.1529 -0.8135
  853MOL0     C17609   2.035   6.894   5.491  0.2647 -0.1874 -0.4692
  853MOL0     C17610   1.945   6.895   5.385  0.0173 -1.1871 -0.9187
  853MOL0     C17611   1.995   6.908   5.254  0.6735 -0.0398  1.6370
  853MOL0     O17612   1.906   6.947   5.150 -0.1577 -0.0607  0.0707
  853MOL0     C17613   1.960   7.017   5.035 -0.2132 -0.1596 -0.4575
  853MOL0     C17614   1.837   7.065   4.954  1.3066  0.2398  0.3128
  853MOL0     C17615   1.875   7.122   4.820  0.1360  0.9558 -0.2895
  853MOL0     C17616   1.901   7.015   4.722 -0.6145 -0.7625  0.7193
  853MOL0     C17617   1.918   7.098   4.591 -0.1744 -0.2133  0.2659
  853MOL0     C17618   1.928   6.984   4.482  0.1852  0.8824 -0.4782
  853MOL0     C17619   1.932   7.038   4.343  0.0721 -0.6029 -0.2597
  853MOL0     C17620   1.919   6.945   4.232  0.4062  1.2876  0.5798
  853MOL0    Cl17621   2.017   6.797   4.264 -0.1406 -0.6270 -0.1666
  853MOL0     C17622   2.134   6.919   5.234 -0.0674 -0.0192  0.2227
  853MOL0     C17623   2.224   6.915   5.338 -0.1386  1.4459 -0.0038
  853MOL0     O17624   2.175   7.067   5.694 -0.2919 -0.1441  0.1878
  853MOL0     C17625   2.486   6.923   5.737 -1.1753  0.9413 -0.0173
  853MOL0     C17626   2.575   6.860   5.832 -0.7396 -0.1048  0.0650
  853MOL0     N17627   2.841   6.843   6.576 -0.9475  1.3176  0.1050
  853MOL0     N17628   2.922   6.941   6.611 -0.8270 -0.0949 -0.0843
  853MOL0     C17629   2.475   7.337   5.671  1.0173 -0.6266  0.2392
  853MOL0     C17630   2.385   7.346   5.568 -0.7875  0.0552  0.0888
  853MOL0     C17631   2.209   7.448   5.165 -0.6217  0.4987 -0.1596
  853MOL0     C17632   2.212   7.540   5.058 -0.1630 -0.5072 -0.2566
  853MOL0     C17633   2.095   7.573   4.983  0.7369 -1.1811  0.1585
  853MOL0     C17634   1.973   7.517   5.015 -0.2284  0.1700  0.0328
  853MOL0     O17635   1.853   7.530   4.949 -0.0340  1.1908 -0.5453
  853MOL0     C17636   1.830   7.616   4.841 -0.7733 -0.2451  1.0091
  853MOL0     C17637   1.875   7.547   4.707  0.4720 -0.2858  0.0766
  853MOL0     C17638   1.855   7.642   4.592  0.1632 -0.5963  0.2454
  853MOL0     C17639   1.909   7.581   4.455  1.1663  0.7300  0.2414
  853MOL0     C17640   1.809   7.488   4.399  0.6471 -0.1118  0.5575
  853MOL0     C17641   1.732   7.398   4.363 -0.2428 -0.0269 -0.3278
  853MOL0     C17642   1.978   7.423   5.125  0.3502 -0.3332  0.7716
  853MOL0     C17643   2.096   7.375   5.182  0.7615 -0.3732  0.7746
  853MOL0     C17644   2.087   7.255   5.266 -0.4874 -0.9578 -0.0206
  853MOL0     H17645   2.580   7.302   5.295  1.9134 -0.4310  0.2349
  853MOL0     H17646   2.745   7.260   5.481 -0.6351 -0.0695 -1.5459
  853MOL0     H17647   2.727   7.107   5.795  2.1785  0.5614  1.5828
  853MOL0     H17648   2.592   7.188   5.866 -0.5986 -3.3865 -0.2826
  853MOL0     H17649   2.864   7.174   5.940 -1.4117 -1.7690 -1.2743
  853MOL0     H17650   2.810   7.343   5.958  0.3451 -0.0969 -2.2976
  853MOL0     H17651   2.622   7.251   6.093 -0.0131  0.5307 -4.0083
  853MOL0     H17652   2.682   7.090   6.068 -3.4953  0.5354 -0.3521
  853MOL0     H17653   2.818   7.333   6.193 -0.7239  1.1663  2.2476
  853MOL0     H17654   2.734   7.215   6.296 -0.2677 -0.6782 -0.0101
  853MOL0     H17655   2.998   7.171   6.142 -1.1467  0.0322 -0.1029
  853MOL0     H17656   2.908   7.037   6.197  0.3270 -0.6347  2.6163
  853MOL0     H17657   3.008   7.271   6.373 -2.4721  0.4789  2.7580
  853MOL0     H17658   2.917   7.130   6.428 -1.6151 -2.2176 -2.7550
  853MOL0     H17659   3.215   7.170   6.374 -0.4561  0.1018 -0.4842
  853MOL0     H17660   3.133   7.028   6.293 -2.4443 -0.3648  1.1751
  853MOL0     H17661   3.236   6.941   6.497 -2.2996 -2.7556 -0.9695
  853MOL0     H17662   3.157   7.076   6.592 -1.5917 -0.4892  0.8443
  853MOL0     H17663   3.097   6.745   6.407  1.6520  0.5026  2.2705
  853MOL0     H17664   2.813   6.545   6.536 -3.1797 -0.9815 -0.4249
  853MOL0     H17665   2.919   6.554   6.387  1.4662 -0.5836  1.6214
  853MOL0     H17666   2.678   6.561   6.316 -1.2186  0.7981 -0.8429
  853MOL0     H17667   2.645   6.713   6.415 -0.9360 -1.9479  1.2893
  853MOL0     H17668   2.825   6.824   6.278 -1.2361  1.9180 -2.1676
  853MOL0     H17669   2.820   6.683   6.167  2.4688  2.4457 -0.4268
  853MOL0     H17670   2.553   6.713   6.189  0.2110 -0.3743 -0.6925
  853MOL0     H17671   2.610   6.885   6.224 -1.1074  1.6763 -1.9891
  853MOL0     H17672   2.390   6.891   6.109 -0.4355  3.7224  0.4638
  853MOL0     H17673   2.184   6.959   6.077 -2.4335  3.2009 -1.4489
  853MOL0     H17674   2.115   6.872   5.936  0.1011  0.2615 -1.1274
  853MOL0     H17675   2.142   7.049   5.942  1.5852  1.0955 -0.4029
  853MOL0     H17676   1.988   6.896   5.589 -0.4068 -1.5640 -0.7536
  853MOL0     H17677   1.841   6.916   5.404  0.4529  1.0592 -0.7340
  853MOL0     H17678   2.034   7.096   5.053 -1.5910  0.7116  1.9108
  853MOL0     H17679   2.005   6.937   4.975  0.5218 -1.6410  1.9120
  853MOL0     H17680   1.766   6.984   4.935  0.9646  1.1929 -3.2412
  853MOL0     H17681   1.799   7.155   5.003  0.0014  0.2518 -0.6769
  853MOL0     H17682   1.966   7.182   4.830  0.5146  0.6229 -1.5166
  853MOL0     H17683   1.799   7.198   4.798 -0.8871  0.0574  0.0398
  853MOL0     H17684   1.821   6.940   4.718 -0.7488 -0.5862 -0.0448
  853MOL0     H17685   1.993   6.959   4.742 -0.5369 -1.8396 -2.1739
  853MOL0     H17686   1.830   7.160   4.575 -0.3924 -0.5558  0.1148
  853MOL0     H17687   2.010   7.154   4.573 -1.1535  2.0044  1.7711
  853MOL0     H17688   1.837   6.922   4.484 -0.7929  2.2463 -1.1759
  853MOL0     H17689   2.017   6.925   4.501  0.0568  0.9616  0.4094
  853MOL0     H17690   2.021   7.098   4.325 -1.1153  1.6953  1.0107
  853MOL0     H17691   1.848   7.108   4.340  0.4452 -0.1192  0.3101
  853MOL0     H17692   1.947   6.987   4.135 -4.7325 -0.7897 -2.2202
  853MOL0     H17693   1.812   6.924   4.227  0.9443 -1.6690 -1.3502
  853MOL0     H17694   2.175   6.923   5.134 -1.3832 -0.4288 -0.3477
  853MOL0     H17695   2.332   6.916   5.328  0.0512  0.5790  1.6919
  853MOL0     H17696   2.519   6.938   5.635  0.3721 -2.7778 -0.2216
  853MOL0     H17697   2.663   6.816   5.785 -0.7599  0.2670 -0.3231
  853MOL0     H17698   2.442   7.347   5.773 -2.5962  2.8320 -0.9954
  853MOL0     H17699   2.279   7.360   5.587 -0.7516  1.0740 -0.4007
  853MOL0     H17700   2.298   7.597   5.026 -1.7497  1.9973 -0.3230
  853MOL0     H17701   2.099   7.650   4.907  1.2227  1.3334  2.5586
  853MOL0     H17702   1.726   7.648   4.827 -0.9917 -1.4296 -0.3170
  853MOL0     H17703   1.884   7.710   4.844  0.5371 -0.8181 -1.9134
  853MOL0     H17704   1.812   7.460   4.688 -1.3955  1.0467 -0.1646
  853MOL0     H17705   1.980   7.519   4.711 -0.2349 -3.0977  0.8966
  853MOL0     H17706   1.748   7.664   4.585  0.7700  3.0426  0.7191
  853MOL0     H17707   1.911   7.734   4.610  1.4316 -1.1295 -0.7521
  853MOL0     H17708   2.002   7.528   4.475  1.0834  0.9020  1.1036
  853MOL0     H17709   1.928   7.666   4.388 -1.4362  0.3928 -1.0526
  853MOL0     H17710   1.674   7.321   4.317  1.9829 -1.2778 -1.1992
  853MOL0     H17711   1.882   7.379   5.151  1.1847  0.2934  6.0325
  853MOL0     H17712   2.168   7.183   5.248 -0.6578 -0.7396 -1.8245
  853MOL0     H17713   2.082   7.283   5.372  1.2866  0.0096 -0.1506
  853MOL0     H17714   1.990   7.205   5.258 -0.6037 -0.3904 -4.0468
  854MOL0     O17715   0.626   4.878   0.069  0.2791  0.0486 -0.1869
  854MOL0     C17716   0.687   4.779   0.113 -0.5274 -0.1139  0.0471
  854MOL0     O17717   0.811   4.744   0.064  0.4676  0.5131 -0.0520
  854MOL0     C17718   0.846   4.798  -0.043 -0.3117  0.3182 -0.4644
  854MOL0     C17719   0.915   4.920  -0.047  0.6018  0.2278  0.1695
  854MOL0     C17720   0.975   4.976  -0.169  0.0276 -0.1698  0.3724
  854MOL0     C17721   0.951   4.906  -0.291  0.5373  0.8497 -0.0496
  854MOL0     O17722   0.975   4.964  -0.411  0.7074  1.1690  0.2841
  854MOL0     C17723   0.949   5.106  -0.424  0.6798 -0.1851 -0.1559
  854MOL0     C17724   0.899   5.145  -0.563 -0.9340 -0.4636  0.1242
  854MOL0     C17725   0.980   5.089  -0.684  0.9887  0.4769 -0.1039
  854MOL0     C17726   0.926   5.145  -0.813 -0.3726  0.1060 -0.2010
  854MOL0     C17727   0.983   5.083  -0.942 -0.1978 -0.1162 -0.5391
  854MOL0     C17728   1.114   5.148  -0.972  0.0249  0.2633  0.2464
  854MOL0     C17729   1.170   5.063  -1.085 -0.9203 -0.4627 -0.7522
  854MOL0     C17730   1.323   5.079  -1.098  0.7961  0.2482  0.1789
  854MOL0     N17731   1.364   5.224  -1.113 -1.1383  0.4768 -0.0375
  854MOL0     C17732   1.432   5.306  -1.031 -0.3379 -0.4338  0.3151
  854MOL0     C17733   1.440   5.425  -1.107  0.6115  0.7309 -0.8846
  854MOL0     C17734   1.479   5.567  -1.059  0.8150 -0.9828  0.7794
  854MOL0     C17735   1.368   5.661  -1.026  0.1667 -0.3803 -0.1746
  854MOL0     C17736   1.341   5.768  -1.126 -0.3301  0.2651  0.3683
  854MOL0     C17737   1.386   5.903  -1.075 -0.2892 -0.4609  1.1839
  854MOL0     O17738   1.525   5.911  -1.086  0.0576 -0.1238 -0.4616
  854MOL0     C17739   1.594   5.974  -0.987 -0.5130 -0.0956 -0.0706
  854MOL0     C17740   1.652   6.100  -1.018  0.1771  0.9738  0.1343
  854MOL0     C17741   1.719   6.178  -0.927 -0.2608 -0.2750 -1.3133
  854MOL0     C17742   1.738   6.326  -0.970  0.9233 -0.1757 -0.4773
  854MOL0     C17743   1.751   6.115  -0.796  0.5565 -0.9966  1.1924
  854MOL0     C17744   1.819   6.198  -0.685  0.8907  0.0995  0.8681
  854MOL0     O17745   1.801   6.160  -0.556  0.2946 -0.2495 -0.4558
  854MOL0     C17746   1.866   6.217  -0.458 -0.0716 -1.3385 -0.1574
  854MOL0     C17747   1.787   6.270  -0.351  0.8287 -0.3865  0.9234
  854MOL0     C17748   1.845   6.329  -0.239  0.3947 -0.7781 -1.0428
  854MOL0     C17749   1.983   6.342  -0.231  0.3129 -0.1175  0.9627
  854MOL0     O17750   2.020   6.400  -0.115  0.1329  0.6105  0.1244
  854MOL0     C17751   2.153   6.381  -0.067  0.8563 -0.5474  0.4822
  854MOL0     C17752   2.167   6.423   0.083 -0.6015 -0.9526  0.4587
  854MOL0     C17753   2.292   6.355   0.139  0.8424 -0.7817  0.2472
  854MOL0     C17754   2.323   6.372   0.290 -0.1676 -0.7781  0.6509
  854MOL0     C17755   2.441   6.293   0.333  1.0884 -0.5041  0.3595
  854MOL0     C17756   2.459   6.296   0.498 -0.7276  0.1345  0.4455
  854MOL0     C17757   2.332   6.302   0.581 -0.5975  0.1059  0.4408
  854MOL0     C17758   2.365   6.289   0.725  0.6434  0.5806  0.1973
  854MOL0    Cl17759   2.411   6.111   0.782 -0.1205 -0.6417  0.5142
  854MOL0     C17760   2.068   6.279  -0.328  0.1062  0.9705 -0.4439
  854MOL0     C17761   2.010   6.222  -0.446  0.1136  0.4265  0.6552
  854MOL0     O17762   1.901   6.287  -0.716  0.0842  0.2727  0.9505
  854MOL0     C17763   1.706   5.988  -0.764  0.1407  0.2757  0.5260
  854MOL0     C17764   1.629   5.914  -0.853  0.1228 -0.0790 -0.7938
  854MOL0     N17765   1.392   5.398  -1.235  0.5817 -0.4071 -0.1656
  854MOL0     N17766   1.353   5.279  -1.239 -0.6390  0.1063  0.1918
  854MOL0     C17767   0.885   4.784  -0.283 -0.1898 -0.0707  0.0397
  854MOL0     C17768   0.838   4.727  -0.164 -0.8428  0.4334 -0.3074
  854MOL0     C17769   0.620   4.701   0.222 -1.1581 -0.7449  0.0829
  854MOL0     C17770   0.689   4.588   0.271  0.8895  0.0382  0.1380
  854MOL0     C17771   0.633   4.507   0.368  0.4829 -0.8076 -0.1249
  854MOL0     C17772   0.508   4.540   0.421  0.2319 -0.3399  0.1188
  854MOL0     O17773   0.440   4.465   0.511  0.2031  0.8210  0.8483
  854MOL0     C17774   0.507   4.456   0.636 -1.0765 -0.5734  0.7872
  854MOL0     C17775   0.504   4.310   0.680  1.0078 -0.0011  0.8110
  854MOL0     C17776   0.576   4.295   0.808 -0.2633 -0.1788  0.2824
  854MOL0     C17777   0.518   4.177   0.910 -0.8943  0.2085  0.6786
  854MOL0     C17778   0.529   4.192   1.049  0.1395  0.3999 -0.7529
  854MOL0     C17779   0.538   4.179   1.164 -0.7183  0.6274  0.0693
  854MOL0     C17780   0.439   4.643   0.366  0.7528  0.3325 -0.0087
  854MOL0     C17781   0.485   4.725   0.272 -0.8358 -0.2329  0.3043
  854MOL0     C17782   0.381   4.828   0.221  0.3057  1.4265 -0.6976
  854MOL0     H17783   0.931   4.972   0.047  1.4037 -0.1948  0.2718
  854MOL0     H17784   1.031   5.069  -0.166 -0.6522  0.2401  0.4847
  854MOL0     H17785   1.031   5.173  -0.396 -0.2272  1.0629 -0.3998
  854MOL0     H17786   0.867   5.131  -0.356  1.3680 -2.3403  1.5731
  854MOL0     H17787   0.798   5.103  -0.574 -1.3197  0.1889  1.1369
  854MOL0     H17788   0.893   5.251  -0.589  0.2162 -0.6443 -1.0058
  854MOL0     H17789   1.088   5.101  -0.674  1.1684  0.3824 -1.6746
  854MOL0     H17790   0.973   4.980  -0.678  1.2392  0.5081  1.2505
  854MOL0     H17791   0.819   5.122  -0.806 -0.4455  0.5213  0.1211
  854MOL0     H17792   0.931   5.254  -0.823  2.8020 -0.1250 -2.4478
  854MOL0     H17793   0.913   5.106  -1.023 -0.8204 -2.1339 -0.6125
  854MOL0     H17794   0.992   4.976  -0.924  0.0076  0.5359  4.6689
  854MOL0     H17795   1.083   5.247  -1.007  0.1385  0.0005 -0.6265
  854MOL0     H17796   1.174   5.166  -0.883  0.5257  3.6003 -0.6188
  854MOL0     H17797   1.120   5.082  -1.180  1.4555  1.3198 -1.7411
  854MOL0     H17798   1.154   4.960  -1.052  2.5749 -2.1530 -3.6549
  854MOL0     H17799   1.366   5.049  -1.002 -1.2970 -0.2765  1.0100
  854MOL0     H17800   1.359   5.019  -1.181  2.6438 -0.4453  1.4109
  854MOL0     H17801   1.444   5.302  -0.924 -0.7921 -0.5304  0.3640
  854MOL0     H17802   1.546   5.622  -1.125 -1.0868  2.2863  1.3384
  854MOL0     H17803   1.529   5.546  -0.964  0.1874 -1.3990  1.0289
  854MOL0     H17804   1.279   5.599  -1.018 -0.2752  0.1861 -0.5425
  854MOL0     H17805   1.391   5.697  -0.925 -0.0422 -3.5250  1.1042
  854MOL0     H17806   1.388   5.751  -1.223  2.8415 -1.8926  2.1167
  854MOL0     H17807   1.234   5.778  -1.148 -0.8723  1.2925  3.0711
  854MOL0     H17808   1.344   5.979  -1.142 -0.5397  0.9925  2.9098
  854MOL0     H17809   1.357   5.915  -0.970 -3.6804  0.9688  0.2075
  854MOL0     H17810   1.642   6.143  -1.117  0.6041  2.9755  0.9159
  854MOL0     H17811   1.728   6.389  -0.882  0.4979  1.8200 -1.8863
  854MOL0     H17812   1.671   6.372  -1.043 -2.2022 -1.8121  1.1708
  854MOL0     H17813   1.843   6.338  -0.998  1.3144 -0.6384  0.7510
  854MOL0     H17814   1.679   6.267  -0.362  0.5407  5.2648 -1.6620
  854MOL0     H17815   1.783   6.379  -0.166  1.8807  0.2314 -0.4225
  854MOL0     H17816   2.174   6.273  -0.071  2.8129 -0.1610 -0.4558
  854MOL0     H17817   2.231   6.427  -0.127  0.9471 -2.3390 -0.8755
  854MOL0     H17818   2.171   6.532   0.086  1.0256 -0.9096 -1.2521
  854MOL0     H17819   2.087   6.389   0.149  1.2084 -1.4887  2.4844
  854MOL0     H17820   2.387   6.376   0.087 -0.0572 -0.5663 -1.3718
  854MOL0     H17821   2.273   6.249   0.119 -1.7026 -0.6905  1.7406
  854MOL0     H17822   2.232   6.347   0.347  0.7482 -1.5947  1.8103
  854MOL0     H17823   2.343   6.479   0.297  3.6980 -1.4252  1.8896
  854MOL0     H17824   2.431   6.191   0.293  2.5566 -0.3526 -0.4739
  854MOL0     H17825   2.529   6.335   0.283  0.2781  2.3434  1.1315
  854MOL0     H17826   2.528   6.373   0.534 -0.1069 -1.0938  2.0206
  854MOL0     H17827   2.511   6.203   0.523  0.2180 -0.3008 -2.7126
  854MOL0     H17828   2.265   6.221   0.551  1.1848 -1.1776 -0.2476
  854MOL0     H17829   2.289   6.402   0.568 -1.7382  0.0310  3.0146
  854MOL0     H17830   2.274   6.316   0.778 -2.1088 -2.7307 -2.3931
  854MOL0     H17831   2.442   6.364   0.747  0.2396  0.9072  0.5203
  854MOL0     H17832   2.174   6.287  -0.306  0.6225 -1.0401 -1.8954
  854MOL0     H17833   2.077   6.167  -0.512  0.8561 -0.0652  1.7886
  854MOL0     H17834   1.724   5.937  -0.670  2.0287 -1.1673 -0.5540
  854MOL0     H17835   1.596   5.811  -0.846  1.7450 -0.6017 -0.4410
  854MOL0     H17836   0.869   4.739  -0.380  1.9670  0.2028 -0.4816
  854MOL0     H17837   0.812   4.623  -0.171 -0.6752  0.4449 -1.2170
  854MOL0     H17838   0.784   4.572   0.222  0.5084 -1.7185 -0.0891
  854MOL0     H17839   0.684   4.419   0.406  1.5123 -0.2382 -0.1257
  854MOL0     H17840   0.612   4.483   0.623 -0.7991 -1.0341  1.9786
  854MOL0     H17841   0.471   4.532   0.705 -0.8022 -0.0431  0.3547
  854MOL0     H17842   0.537   4.241   0.601  1.6306  1.2466 -0.0444
  854MOL0     H17843   0.398   4.292   0.702  0.4903  1.1071 -0.6376
  854MOL0     H17844   0.682   4.296   0.783 -0.4957  1.6653 -0.7896
  854MOL0     H17845   0.568   4.379   0.877  3.8423 -0.1957  1.0285
  854MOL0     H17846   0.559   4.081   0.878  1.8487  1.3351  0.5320
  854MOL0     H17847   0.410   4.169   0.893 -1.1254 -1.4515  2.5132
  854MOL0     H17848   0.533   4.169   1.270 -0.8465 -4.6606 -0.1429
  854MOL0     H17849   0.340   4.668   0.403 -0.1202  0.3156 -2.1975
  854MOL0     H17850   0.373   4.820   0.112  0.8967 -2.1796 -0.5872
  854MOL0     H17851   0.284   4.824   0.270  0.0742 -1.8483 -1.2441
  854MOL0     H17852   0.426   4.927   0.236  0.7770  0.9680  1.2968
  855MOL0     O17853   2.427  11.319  11.252 -0.7120 -1.1125 -0.2098
  855MOL0     C17854   2.444  11.412  11.181 -0.1197  0.1620 -0.0633
  855MOL0     O17855   2.497  11.534  11.202 -0.3596 -0.4795  0.4724
  855MOL0     C17856   2.534  11.578  11.326  0.2249  0.1822 -1.2036
  855MOL0     C17857   2.459  11.576  11.437  0.6087 -0.2510 -0.0699
  855MOL0     C17858   2.504  11.643  11.552  0.0530  0.7271 -0.3725
  855MOL0     C17859   2.630  11.697  11.561 -0.0497  0.1229 -0.0750
  855MOL0     O17860   2.661  11.767  11.680  0.6328  0.8620  1.0180
  855MOL0     C17861   2.794  11.743  11.726 -0.5994 -0.6864  1.1603
  855MOL0     C17862   2.811  11.767  11.874 -0.0078  0.3372 -0.0526
  855MOL0     C17863   2.717  11.874  11.931  0.0839  0.7605 -0.3328
  855MOL0     C17864   2.731  11.888  12.077 -0.8054 -0.3010 -0.1795
  855MOL0     C17865   2.634  12.000  12.129 -0.3079 -0.2600 -0.7827
  855MOL0     C17866   2.493  12.011  12.080 -0.3900 -0.4315  0.3035
  855MOL0     C17867   2.390  12.062  12.186  0.1162 -0.5961 -0.7097
  855MOL0     C17868   2.244  12.093  12.149 -1.0553  0.1504  0.1553
  855MOL0     N17869   2.185  11.972  12.093  0.1368  0.9673  0.6025
  855MOL0     C17870   2.173  11.954  11.956  0.8746 -0.9560 -0.1092
  855MOL0     C17871   2.121  11.828  11.948  0.1743 -0.0811 -0.3272
  855MOL0     C17872   2.065  11.768  11.818 -0.0184  0.1071 -0.0595
  855MOL0     C17873   2.124  11.627  11.781 -0.1253 -0.0685 -0.2298
  855MOL0     C17874   2.086  11.604  11.642 -0.0101  0.0045 -0.8149
  855MOL0     C17875   2.109  11.468  11.608 -0.3395  0.5948  0.3972
  855MOL0     O17876   2.003  11.383  11.669  0.6260 -0.4584 -0.5601
  855MOL0     C17877   2.023  11.250  11.678  0.2766  0.8998  0.1553
  855MOL0     C17878   1.966  11.185  11.787  0.6370  0.5318 -0.0870
  855MOL0     C17879   1.957  11.044  11.809 -0.6899 -0.2632  0.4890
  855MOL0     C17880   1.858  10.991  11.907 -0.4481 -1.1030 -0.5450
  855MOL0     C17881   2.041  10.968  11.720 -0.2210  0.2736  0.4855
  855MOL0     C17882   2.045  10.825  11.725  0.6197 -0.4726  0.2575
  855MOL0     O17883   2.133  10.764  11.641  0.2484  0.1808  0.4288
  855MOL0     C17884   2.149  10.623  11.671 -0.6472 -1.0828 -0.0902
  855MOL0     C17885   2.062  10.533  11.606  0.3313  0.1176 -0.3320
  855MOL0     C17886   2.089  10.392  11.612  0.1690  0.0473 -0.3350
  855MOL0     C17887   2.193  10.352  11.692 -0.3001 -0.6458 -0.3071
  855MOL0     O17888   2.210  10.213  11.688  0.0664  0.6174 -0.0651
  855MOL0     C17889   2.335  10.148  11.729 -0.6748  0.1100  0.7242
  855MOL0     C17890   2.322   9.993  11.737  0.1715  0.0948  0.7972
  855MOL0     C17891   2.442   9.906  11.774 -0.4153  0.2159  0.0435
  855MOL0     C17892   2.499   9.832  11.649  0.0478 -0.2149 -0.6475
  855MOL0     C17893   2.568   9.935  11.555  0.3617 -0.4843  0.9807
  855MOL0     C17894   2.635   9.870  11.430 -0.2416  0.2141 -0.6161
  855MOL0     C17895   2.711   9.968  11.347  0.4586 -0.6904 -0.8213
  855MOL0     C17896   2.654  10.119  11.347 -0.5840 -0.2335 -0.0643
  855MOL0    Cl17897   2.773  10.222  11.253 -0.5166 -0.1706  0.0809
  855MOL0     C17898   2.273  10.436  11.767 -0.4170 -0.2279 -1.1950
  855MOL0     C17899   2.254  10.573  11.752  0.3591  0.2794 -0.0567
  855MOL0     O17900   1.976  10.756  11.806 -0.2860 -0.0738  0.0834
  855MOL0     C17901   2.125  11.038  11.615 -0.5579  0.8689 -0.0033
  855MOL0     C17902   2.100  11.172  11.593  0.2811  1.0062  0.7769
  855MOL0     N17903   2.096  11.784  12.079 -0.5638 -0.0605 -0.6296
  855MOL0     N17904   2.140  11.870  12.164  0.0726  0.4000  0.0821
  855MOL0     C17905   2.709  11.706  11.442  0.0799 -0.1945  0.1443
  855MOL0     C17906   2.651  11.654  11.330 -0.1936  0.6926 -0.3736
  855MOL0     C17907   2.397  11.396  11.039  0.0014 -0.7847  0.1482
  855MOL0     C17908   2.347  11.508  10.970 -0.3266 -1.3694 -0.1208
  855MOL0     C17909   2.282  11.497  10.847 -0.0398 -0.2932  0.8338
  855MOL0     C17910   2.286  11.374  10.772 -0.3388  0.8713  0.1848
  855MOL0     O17911   2.231  11.361  10.649  0.0824 -0.1250 -0.4955
  855MOL0     C17912   2.216  11.473  10.562  0.3151  0.2721  1.2262
  855MOL0     C17913   2.154  11.406  10.430  1.5460 -0.3868  0.3573
  855MOL0     C17914   2.234  11.289  10.368  0.5601  0.1497 -0.0142
  855MOL0     C17915   2.159  11.154  10.392 -0.7912 -0.0710  0.3016
  855MOL0     C17916   2.200  11.051  10.296  0.0197  0.8901 -0.0652
  855MOL0     C17917   2.239  10.964  10.218 -0.2103 -0.0850  0.3223
  855MOL0     C17918   2.346  11.265  10.838  0.7050  1.2298  0.0824
  855MOL0     C17919   2.415  11.275  10.965  0.4290  0.3159 -0.2268
  855MOL0     C17920   2.467  11.145  11.031  0.2935 -0.2562  0.3976
  855MOL0     H17921   2.366  11.522  11.439 -0.1250  0.9463  1.7767
  855MOL0     H17922   2.451  11.621  11.644  0.8052  0.4775  0.0071
  855MOL0     H17923   2.848  11.822  11.673 -0.5765  0.8587  3.3619
  855MOL0     H17924   2.835  11.645  11.701  1.5605  0.5269 -0.4255
  855MOL0     H17925   2.798  11.680  11.939 -1.1384 -0.8408 -1.7815
  855MOL0     H17926   2.915  11.800  11.887  0.8511 -1.8906 -0.8449
  855MOL0     H17927   2.739  11.965  11.874  0.3169  1.7700  1.3024
  855MOL0     H17928   2.613  11.852  11.904  0.1665  1.9274 -1.7603
  855MOL0     H17929   2.727  11.794  12.132 -1.2626  1.9474  4.0746
  855MOL0     H17930   2.833  11.923  12.092 -1.2911  1.2219 -0.1660
  855MOL0     H17931   2.699  12.086  12.108  0.1673  0.6856  3.5552
  855MOL0     H17932   2.635  11.995  12.238  2.2886 -1.5534 -0.7891
  855MOL0     H17933   2.492  12.077  11.993  0.0782 -1.7102 -0.7140
  855MOL0     H17934   2.453  11.913  12.055 -0.4604 -0.9306  2.2441
  855MOL0     H17935   2.423  12.160  12.223  1.3612  0.1559 -3.5403
  855MOL0     H17936   2.386  11.987  12.266  1.5979 -2.6160 -2.4221
  855MOL0     H17937   2.187  12.128  12.236 -0.4629 -1.1878  1.1133
  855MOL0     H17938   2.247  12.173  12.074  2.9800  0.9667  0.9891
  855MOL0     H17939   2.186  12.015  11.867 -4.5512 -0.7616 -1.0840
  855MOL0     H17940   2.075  11.838  11.734 -2.0501 -0.6038 -0.9388
  855MOL0     H17941   1.957  11.749  11.821 -0.0919  0.6013  1.1973
  855MOL0     H17942   2.231  11.619  11.802 -0.2255 -1.0429 -0.0455
  855MOL0     H17943   2.086  11.552  11.851  3.4707 -2.8961 -1.0077
  855MOL0     H17944   1.979  11.619  11.625 -0.2201 -0.0461  0.3410
  855MOL0     H17945   2.145  11.677  11.587  0.0195  0.8725  0.3301
  855MOL0     H17946   2.117  11.472  11.499  0.4005 -0.0770  0.4197
  855MOL0     H17947   2.207  11.440  11.649  0.8669  2.9055 -0.7235
  855MOL0     H17948   1.918  11.244  11.865  0.8288  0.2084  0.2767
  855MOL0     H17949   1.899  10.910  11.967 -0.4640 -1.4361 -0.9845
  855MOL0     H17950   1.768  10.962  11.854 -1.0941 -3.1291  1.4806
  855MOL0     H17951   1.824  11.064  11.982 -2.3508 -2.0233 -0.4586
  855MOL0     H17952   1.990  10.568  11.533  0.3434  2.5757  0.7353
  855MOL0     H17953   2.031  10.311  11.569 -0.4576  0.9491 -1.2107
  855MOL0     H17954   2.424  10.171  11.670  0.3641  0.4071  2.3324
  855MOL0     H17955   2.359  10.179  11.831  1.8632 -1.3545  0.6330
  855MOL0     H17956   2.238   9.976  11.806 -0.5325 -2.3496 -0.5522
  855MOL0     H17957   2.287   9.971  11.636  0.0156  1.9338  0.4204
  855MOL0     H17958   2.422   9.843  11.862 -0.1422  0.4307  0.2583
  855MOL0     H17959   2.520   9.977  11.802  1.0059 -1.3738  0.2832
  855MOL0     H17960   2.429   9.769  11.594  0.2799 -0.4313 -0.6991
  855MOL0     H17961   2.575   9.764  11.689 -0.7745 -0.5063  0.4630
  855MOL0     H17962   2.487   9.999  11.519 -1.5127 -3.3343 -0.1726
  855MOL0     H17963   2.651   9.978  11.613  1.0956 -1.9612  1.0624
  855MOL0     H17964   2.554   9.819  11.378 -0.7241  1.5122 -1.1557
  855MOL0     H17965   2.710   9.802  11.473 -1.3778 -0.1102  0.9549
  855MOL0     H17966   2.714   9.939  11.242  3.8404  0.4961 -1.1944
  855MOL0     H17967   2.811   9.988  11.387 -1.2679  1.6982  2.9584
  855MOL0     H17968   2.650  10.147  11.453 -1.4335 -2.2567  0.4829
  855MOL0     H17969   2.556  10.132  11.300 -0.0124  4.2670 -0.4397
  855MOL0     H17970   2.365  10.419  11.823 -0.2141  3.9118  0.0150
  855MOL0     H17971   2.311  10.657  11.790 -2.9396  3.3210 -1.2396
  855MOL0     H17972   2.186  10.983  11.544 -1.9998 -1.4951  0.5121
  855MOL0     H17973   2.134  11.208  11.496 -1.9258  1.4606  0.1153
  855MOL0     H17974   2.800  11.763  11.424  0.9882 -2.0162 -1.3917
  855MOL0     H17975   2.712  11.665  11.241  0.5302  1.1036  0.1538
  855MOL0     H17976   2.332  11.609  11.009  1.2608 -0.9945 -0.4077
  855MOL0     H17977   2.228  11.580  10.803 -1.5334 -1.8548 -0.4018
  855MOL0     H17978   2.150  11.554  10.595  0.5824  1.9840 -2.0243
  855MOL0     H17979   2.317  11.512  10.542  0.1061  0.8441  1.2643
  855MOL0     H17980   2.132  11.484  10.357 -0.8981  0.0807  1.5118
  855MOL0     H17981   2.053  11.373  10.454  2.2560 -2.2588  0.9337
  855MOL0     H17982   2.254  11.312  10.263  2.0068 -3.1439 -0.6030
  855MOL0     H17983   2.325  11.274  10.427  0.4385  1.3339  0.4840
  855MOL0     H17984   2.052  11.174  10.377 -0.1740  3.5411 -0.3170
  855MOL0     H17985   2.168  11.109  10.491 -0.3210 -2.2582 -0.6654
  855MOL0     H17986   2.269  10.892  10.144 -0.6910  0.6950 -0.6505
  855MOL0     H17987   2.340  11.171  10.784 -2.0150 -0.4702  3.0391
  855MOL0     H17988   2.548  11.152  11.104  2.5588  0.3942 -2.0277
  855MOL0     H17989   2.383  11.086  11.066 -2.0331  2.0211 -0.9657
  855MOL0     H17990   2.516  11.092  10.948  1.1650  0.7531  0.2405
  856MOL0     O17991   5.272   1.781   8.649 -0.0437  0.1523 -0.1254
  856MOL0     C17992   5.209   1.676   8.691 -0.8633 -0.9498 -0.5287
  856MOL0     O17993   5.238   1.554   8.661 -0.3507  0.1051  1.6992
  856MOL0     C17994   5.326   1.533   8.557  0.2011  0.4431  0.0060
  856MOL0     C17995   5.468   1.527   8.584  0.4754  0.0116 -0.1340
  856MOL0     C17996   5.557   1.493   8.482 -0.8573 -0.1648  0.3064
  856MOL0     C17997   5.516   1.447   8.361 -0.1989  0.2652 -0.0479
  856MOL0     O17998   5.624   1.403   8.284  0.0032  0.0681 -0.0245
  856MOL0     C17999   5.590   1.330   8.164 -0.2275  0.4432  0.7467
  856MOL0     C18000   5.721   1.305   8.085  0.1782 -0.4976  0.7921
  856MOL0     C18001   5.679   1.231   7.947 -0.6210 -0.6120  0.1062
  856MOL0     C18002   5.818   1.191   7.878  0.7533 -0.8645 -1.0737
  856MOL0     C18003   5.890   1.078   7.940 -0.2888 -0.9493  0.8457
  856MOL0     C18004   5.950   0.982   7.843  0.0130 -0.0900  0.2079
  856MOL0     C18005   6.080   1.034   7.763 -0.3987  0.3266 -0.2581
  856MOL0     C18006   6.204   1.061   7.852 -0.3828  0.2962 -0.2320
  856MOL0     N18007   6.338   1.040   7.794  0.0249 -0.4187  0.3326
  856MOL0     C18008   6.409   0.920   7.767  0.5426  0.1764 -0.0254
  856MOL0     C18009   6.505   0.971   7.686  0.6416 -0.0782 -0.3518
  856MOL0     C18010   6.598   0.866   7.626 -0.0655  0.3739 -0.2955
  856MOL0     C18011   6.528   0.811   7.506  0.0594  0.1109  0.7506
  856MOL0     C18012   6.618   0.695   7.450 -0.5495  0.9866 -0.3145
  856MOL0     C18013   6.634   0.572   7.533  0.2494 -1.3601  0.3817
  856MOL0     O18014   6.513   0.512   7.554  0.4830  0.0079  0.3526
  856MOL0     C18015   6.467   0.408   7.474  0.4727 -0.3297  0.7864
  856MOL0     C18016   6.344   0.358   7.508  1.2739 -0.6013  0.5889
  856MOL0     C18017   6.276   0.275   7.422  1.4229  0.0289  0.9578
  856MOL0     C18018   6.125   0.254   7.462  0.3024 -0.3662  1.2163
  856MOL0     C18019   6.337   0.216   7.310  0.3676  0.2120  0.1067
  856MOL0     C18020   6.274   0.102   7.220  0.7965  0.8866 -0.4118
  856MOL0     O18021   6.190   0.004   7.268 -0.4330 -0.1100  0.4485
  856MOL0     C18022   6.156  -0.115   7.196  0.3203 -0.1468  0.7249
  856MOL0     C18023   6.092  -0.210   7.278 -0.4453 -0.1601  0.8994
  856MOL0     C18024   6.060  -0.335   7.228 -0.5699 -0.3395 -0.0001
  856MOL0     C18025   6.074  -0.366   7.086  0.4407  0.6315 -0.1902
  856MOL0     O18026   6.058  -0.492   7.029  0.6317 -0.5990 -0.2750
  856MOL0     C18027   6.026  -0.600   7.111 -0.1693  0.6130  0.0087
  856MOL0     C18028   6.014  -0.724   7.026  0.6991  0.1277  0.4447
  856MOL0     C18029   6.008  -0.849   7.114  1.2909 -0.5253 -0.4209
  856MOL0     C18030   5.862  -0.901   7.155  0.1929 -0.9414 -0.7042
  856MOL0     C18031   5.861  -1.027   7.242 -0.1425 -0.2121 -0.1209
  856MOL0     C18032   5.939  -1.155   7.187  0.0514  0.1753 -0.1804
  856MOL0     C18033   5.873  -1.209   7.056  0.7173  0.0103  0.3023
  856MOL0     C18034   5.912  -1.358   7.048  0.4442  0.3243 -0.1897
  856MOL0    Cl18035   5.854  -1.416   6.892 -0.2499 -0.2551  0.3344
  856MOL0     C18036   6.132  -0.265   7.007  0.4482  0.1965  1.4031
  856MOL0     C18037   6.164  -0.133   7.064  0.2856  0.5733  0.7006
  856MOL0     O18038   6.304   0.116   7.104  0.2341 -0.3399 -0.1951
  856MOL0     C18039   6.468   0.258   7.278 -0.4301 -0.0208 -0.4364
  856MOL0     C18040   6.530   0.353   7.364 -0.5500 -0.1123  0.3335
  856MOL0     N18041   6.493   1.106   7.660  0.6747 -0.6790  0.1036
  856MOL0     N18042   6.398   1.148   7.725  0.2958 -0.5983  0.2527
  856MOL0     C18043   5.374   1.443   8.338  0.6194  0.9905 -0.8704
  856MOL0     C18044   5.277   1.487   8.438 -0.1245 -0.4832  0.9957
  856MOL0     C18045   5.103   1.699   8.792  0.8486  0.4573  0.8836
  856MOL0     C18046   5.096   1.819   8.854 -1.1753 -0.2048 -0.3562
  856MOL0     C18047   4.998   1.845   8.950  0.2747  0.1610 -0.0941
  856MOL0     C18048   4.899   1.753   8.979 -0.3389 -0.9547  0.7947
  856MOL0     O18049   4.799   1.767   9.063 -0.2515  0.2288  0.4862
  856MOL0     C18050   4.745   1.899   9.101 -0.3205  0.3149 -0.2074
  856MOL0     C18051   4.604   1.875   9.141  0.0497 -0.7409 -0.0106
  856MOL0     C18052   4.520   1.833   9.022  0.1017  0.4455 -0.3198
  856MOL0     C18053   4.376   1.874   9.036  0.7802  1.2994  0.2647
  856MOL0     C18054   4.295   1.783   9.134 -0.3913  0.8390 -0.1418
  856MOL0     C18055   4.221   1.714   9.208 -0.4961 -0.3677  0.3240
  856MOL0     C18056   4.911   1.632   8.922 -0.2734  0.0378 -0.5164
  856MOL0     C18057   5.001   1.603   8.826  0.0395  0.9045  0.1398
  856MOL0     C18058   4.979   1.477   8.749  0.0184  0.6248  0.4296
  856MOL0     H18059   5.502   1.569   8.678 -1.9511  4.0094 -0.8140
  856MOL0     H18060   5.660   1.500   8.515 -1.5474  0.0562  2.5747
  856MOL0     H18061   5.518   1.383   8.101 -1.1400 -0.5054  0.9758
  856MOL0     H18062   5.559   1.227   8.182 -3.0147  0.4742 -2.6490
  856MOL0     H18063   5.776   1.393   8.050 -0.9375 -1.0433 -2.7460
  856MOL0     H18064   5.797   1.259   8.148  4.4465  3.3557 -1.0084
  856MOL0     H18065   5.622   1.140   7.965  0.8314 -1.8290 -1.2281
  856MOL0     H18066   5.619   1.293   7.879  1.2834 -0.1353 -1.2306
  856MOL0     H18067   5.801   1.174   7.771 -1.5946  4.0951 -1.7761
  856MOL0     H18068   5.876   1.282   7.860  1.4251 -1.4098 -1.7443
  856MOL0     H18069   5.828   1.025   8.013  0.9900 -1.7162  1.4257
  856MOL0     H18070   5.982   1.108   7.991  2.4702 -2.7941 -2.6384
  856MOL0     H18071   5.976   0.890   7.897  1.6133  2.6402  4.6542
  856MOL0     H18072   5.884   0.971   7.757 -1.2535 -1.0815  1.2588
  856MOL0     H18073   6.047   1.130   7.722  0.0250  1.1956  1.3577
  856MOL0     H18074   6.110   0.958   7.690 -0.0680  0.6840 -0.4923
  856MOL0     H18075   6.185   1.160   7.896 -1.9645 -1.1216  2.5059
  856MOL0     H18076   6.200   0.982   7.927  1.1612 -1.4779 -1.9239
  856MOL0     H18077   6.386   0.815   7.776  1.2081 -0.0091 -0.4774
  856MOL0     H18078   6.625   0.787   7.697 -1.9487 -3.9018 -3.9280
  856MOL0     H18079   6.690   0.919   7.599  2.1770 -2.9826  0.2435
  856MOL0     H18080   6.425   0.775   7.515  0.2076 -1.2004 -1.7218
  856MOL0     H18081   6.524   0.891   7.432 -1.9692  1.0316  1.7824
  856MOL0     H18082   6.578   0.662   7.354 -2.8725 -2.1853  1.5708
  856MOL0     H18083   6.716   0.737   7.423  0.1456  1.2732  2.3407
  856MOL0     H18084   6.715   0.512   7.488  0.1244 -2.2094  1.2558
  856MOL0     H18085   6.673   0.610   7.628 -2.5791 -1.2472  1.5894
  856MOL0     H18086   6.293   0.396   7.595  2.1321  1.7803  0.1126
  856MOL0     H18087   6.066   0.224   7.375  0.3352  1.3047  0.5724
  856MOL0     H18088   6.084   0.349   7.496  3.6745  2.5247 -1.8871
  856MOL0     H18089   6.128   0.176   7.538  0.2370  0.2508  1.8581
  856MOL0     H18090   6.081  -0.185   7.383  1.3555  0.9775  0.8542
  856MOL0     H18091   6.025  -0.407   7.302  1.6795 -0.1687  1.3274
  856MOL0     H18092   6.097  -0.611   7.194 -1.2177  0.3037  0.8786
  856MOL0     H18093   5.932  -0.571   7.158  0.7043 -1.1765  3.1888
  856MOL0     H18094   5.939  -0.699   6.951  0.3973 -2.3255 -0.1470
  856MOL0     H18095   6.108  -0.744   6.973  0.8325 -0.3651  0.8555
  856MOL0     H18096   6.057  -0.822   7.208 -1.6054  0.7538  0.8458
  856MOL0     H18097   6.060  -0.934   7.067 -1.4545 -2.5374 -0.0628
  856MOL0     H18098   5.819  -0.938   7.062 -1.1251 -0.5450 -0.2774
  856MOL0     H18099   5.796  -0.823   7.193  4.3350  2.2177  0.7060
  856MOL0     H18100   5.897  -1.005   7.343  0.5569 -2.4411  0.1676
  856MOL0     H18101   5.754  -1.052   7.242  0.1047 -1.4111  1.2892
  856MOL0     H18102   5.930  -1.235   7.262 -0.2930  1.0052  0.6757
  856MOL0     H18103   6.043  -1.130   7.166 -0.0442  0.9824  0.2876
  856MOL0     H18104   5.907  -1.154   6.968 -0.7139 -1.5483 -1.2952
  856MOL0     H18105   5.764  -1.202   7.060  0.8281  1.6447  1.6522
  856MOL0     H18106   5.859  -1.422   7.119 -3.9659 -0.8086 -4.0398
  856MOL0     H18107   6.019  -1.376   7.063  0.3190  0.3864  0.8279
  856MOL0     H18108   6.149  -0.294   6.904  1.9368 -1.3525  2.0367
  856MOL0     H18109   6.203  -0.065   6.990 -3.3213  1.7285 -0.3719
  856MOL0     H18110   6.526   0.222   7.193 -0.4075  0.4462 -0.6182
  856MOL0     H18111   6.624   0.394   7.329 -0.8545  0.5027  0.2187
  856MOL0     H18112   5.333   1.412   8.242  1.0100  0.8920 -1.0068
  856MOL0     H18113   5.172   1.480   8.412  0.3789  2.1345 -2.3613
  856MOL0     H18114   5.171   1.892   8.824  0.7652 -3.0310 -2.9994
  856MOL0     H18115   4.983   1.945   8.990 -2.8747 -0.5032  0.6311
  856MOL0     H18116   4.792   1.940   9.191  0.3206 -0.3841 -0.2103
  856MOL0     H18117   4.743   1.978   9.025 -0.1470 -1.3660 -2.0292
  856MOL0     H18118   4.563   1.960   9.196  2.3314  0.6944 -0.4023
  856MOL0     H18119   4.596   1.800   9.220  1.1471  1.2803  2.1451
  856MOL0     H18120   4.573   1.870   8.934  3.3050 -0.7259  0.9928
  856MOL0     H18121   4.515   1.725   9.007 -4.3525  0.5155 -0.6998
  856MOL0     H18122   4.329   1.873   8.937 -1.0970 -0.2907  1.0916
  856MOL0     H18123   4.355   1.977   9.069 -1.6112  1.3824 -1.3125
  856MOL0     H18124   4.161   1.635   9.250  1.1664 -2.4712 -1.0025
  856MOL0     H18125   4.852   1.545   8.946  1.6046 -1.8323 -2.3053
  856MOL0     H18126   4.886   1.426   8.775  0.4302 -2.3188 -3.0655
  856MOL0     H18127   4.969   1.501   8.643 -0.4318 -0.2134  0.2753
  856MOL0     H18128   5.065   1.410   8.755 -0.7452 -0.3271  1.1426
  857MOL0     O18129   8.932  10.724   2.592 -0.8060 -0.6217 -0.0336
  857MOL0     C18130   8.937  10.787   2.482 -0.7100 -0.2387 -0.1178
  857MOL0     O18131   8.913  10.915   2.474  0.3746 -0.9485  0.6096
  857MOL0     C18132   8.846  10.968   2.580 -0.5357  0.1774  0.0011
  857MOL0     C18133   8.876  11.106   2.607  0.4093  0.0350 -0.1957
  857MOL0     C18134   8.803  11.176   2.707 -0.8906 -0.5575  0.7833
  857MOL0     C18135   8.683  11.126   2.757  0.2164  0.3693 -0.5670
  857MOL0     O18136   8.596  11.208   2.828 -0.1887  0.7877 -0.4345
  857MOL0     C18137   8.473  11.151   2.879 -0.4571 -0.5368 -0.5982
  857MOL0     C18138   8.502  11.072   3.008  0.4674  0.2522  0.2910
  857MOL0     C18139   8.381  11.004   3.055 -0.7614  1.4512 -0.3242
  857MOL0     C18140   8.350  10.868   2.990 -0.9891 -0.4578  0.1105
  857MOL0     C18141   8.202  10.831   3.003 -0.0218  0.1841 -0.2706
  857MOL0     C18142   8.169  10.803   3.153  0.5698 -0.5461 -0.3216
  857MOL0     C18143   8.016  10.780   3.177 -0.6814 -0.7711 -0.4573
  857MOL0     C18144   7.942  10.923   3.190 -0.2628 -0.2875  0.8018
  857MOL0     N18145   7.799  10.926   3.137  0.1200 -0.6137 -0.1523
  857MOL0     C18146   7.702  10.835   3.171 -1.1979 -0.5044  0.1997
  857MOL0     C18147   7.598  10.857   3.089  0.0316  0.2321  0.1411
  857MOL0     C18148   7.474  10.771   3.094 -0.4658 -0.1088  1.0474
  857MOL0     C18149   7.380  10.813   2.980 -0.5957  0.1085 -0.2851
  857MOL0     C18150   7.238  10.792   3.029 -0.4454  0.0459 -0.1583
  857MOL0     C18151   7.147  10.878   2.941  0.9998  0.0209 -1.0446
  857MOL0     O18152   7.009  10.864   2.982  0.1614  0.1768 -0.1756
  857MOL0     C18153   6.932  10.908   3.093  0.1944 -0.7108 -0.2542
  857MOL0     C18154   6.794  10.896   3.094  0.2597 -0.4234 -1.5382
  857MOL0     C18155   6.705  10.932   3.196  0.7171 -0.5379  0.6991
  857MOL0     C18156   6.558  10.908   3.190  0.0761  0.2917  0.1900
  857MOL0     C18157   6.768  10.992   3.316 -0.9229 -0.1864 -0.2873
  857MOL0     C18158   6.691  11.045   3.431 -0.0768 -0.1729 -0.0134
  857MOL0     O18159   6.765  11.073   3.541 -0.2824 -0.5042  0.1978
  857MOL0     C18160   6.707  11.144   3.631 -0.7370  0.3709 -0.8626
  857MOL0     C18161   6.616  11.115   3.727 -0.0110  0.3591  0.6670
  857MOL0     C18162   6.568  11.202   3.812 -0.6769 -0.4377  0.3597
  857MOL0     C18163   6.615  11.339   3.819  0.0927 -0.2488 -0.4495
  857MOL0     O18164   6.537  11.418   3.897  0.1752  0.8604 -0.7860
  857MOL0     C18165   6.612  11.505   3.983  0.4779  0.1858  0.9332
  857MOL0     C18166   6.540  11.611   4.057  1.3184  0.6907 -0.1538
  857MOL0     C18167   6.429  11.683   3.967 -0.1535 -0.0694 -0.4354
  857MOL0     C18168   6.402  11.821   4.020 -0.5691 -0.5884 -0.7828
  857MOL0     C18169   6.435  11.917   3.910 -0.8527  0.0020  0.0727
  857MOL0     C18170   6.453  12.057   3.957 -1.0010 -0.4843  0.9035
  857MOL0     C18171   6.310  12.096   4.030 -0.7139  0.4304  0.1046
  857MOL0     C18172   6.284  12.237   4.022  0.1524  0.1101 -0.2778
  857MOL0    Cl18173   6.369  12.327   4.159  0.1117 -0.5439  0.0348
  857MOL0     C18174   6.724  11.365   3.730  0.4846  0.1568 -0.1905
  857MOL0     C18175   6.772  11.268   3.645  0.0900  1.0567 -0.3547
  857MOL0     O18176   6.566  11.068   3.422  0.1208  0.6791 -0.4945
  857MOL0     C18177   6.911  11.001   3.320 -0.7678  0.0773 -0.4538
  857MOL0     C18178   6.986  10.964   3.216  0.1753  0.0375  0.5196
  857MOL0     N18179   7.643  10.951   2.996 -0.0720  0.7914 -0.3660
  857MOL0     N18180   7.752  11.000   3.031  0.1794 -0.3745  0.0881
  857MOL0     C18181   8.657  10.990   2.724  0.6854  0.1017 -0.0638
  857MOL0     C18182   8.738  10.905   2.640  1.6606 -1.1270 -0.1266
  857MOL0     C18183   8.964  10.715   2.356  0.2151 -0.5714 -0.2167
  857MOL0     C18184   8.986  10.790   2.238 -0.2637  0.0091  0.2962
  857MOL0     C18185   9.031  10.742   2.119 -0.1586  1.0354 -0.1040
  857MOL0     C18186   9.040  10.599   2.108  0.0026  0.3936  0.1797
  857MOL0     O18187   9.085  10.535   1.991  0.6012  0.3564  0.5037
  857MOL0     C18188   9.202  10.582   1.933  0.2952 -0.1946  0.6856
  857MOL0     C18189   9.245  10.505   1.810 -0.6029 -0.3352  0.1461
  857MOL0     C18190   9.216  10.355   1.838 -0.0341  0.1668  0.0182
  857MOL0     C18191   9.251  10.277   1.719 -1.2961 -0.5459 -0.2081
  857MOL0     C18192   9.174  10.303   1.607 -0.1566  0.1502 -0.1887
  857MOL0     C18193   9.120  10.309   1.504  0.5298 -0.4718 -0.4034
  857MOL0     C18194   9.008  10.513   2.221 -0.9527 -0.0120 -0.0350
  857MOL0     C18195   8.967  10.572   2.346 -0.5667  0.6270 -0.0641
  857MOL0     C18196   8.948  10.478   2.457 -0.1945  0.5470 -0.2010
  857MOL0     H18197   8.966  11.139   2.556  0.4680  0.1285 -0.0315
  857MOL0     H18198   8.843  11.275   2.724  0.4434 -0.9802  0.1931
  857MOL0     H18199   8.423  11.083   2.809 -1.2301  2.0090 -2.6824
  857MOL0     H18200   8.415  11.241   2.901  0.5591  0.3087 -1.2859
  857MOL0     H18201   8.583  10.998   3.001 -1.8181 -2.2699 -2.8099
  857MOL0     H18202   8.529  11.144   3.086  0.6635  1.1675 -0.5861
  857MOL0     H18203   8.394  10.988   3.162  1.6931 -0.9780 -0.8508
  857MOL0     H18204   8.292  11.066   3.061 -1.3292  0.5920  5.3212
  857MOL0     H18205   8.370  10.879   2.883 -3.1841  1.3223 -0.1764
  857MOL0     H18206   8.415  10.786   3.022 -2.0607 -0.7954  1.4980
  857MOL0     H18207   8.191  10.745   2.935  0.9373  1.5767 -2.2856
  857MOL0     H18208   8.136  10.914   2.976 -3.0308 -2.0652 -0.3425
  857MOL0     H18209   8.221  10.711   3.182 -0.3951 -1.5797 -1.7577
  857MOL0     H18210   8.205  10.880   3.222 -0.6602 -1.7305  1.7404
  857MOL0     H18211   7.990  10.736   3.274 -0.9186  1.0713  0.3615
  857MOL0     H18212   7.968  10.735   3.090 -1.3883 -2.5111  0.7690
  857MOL0     H18213   7.943  10.960   3.293  3.2464  5.1661 -0.7357
  857MOL0     H18214   7.991  11.008   3.140 -0.7925  0.0687  0.8835
  857MOL0     H18215   7.711  10.764   3.253  0.9327  0.8978  1.2737
  857MOL0     H18216   7.431  10.784   3.194  1.4214  0.1985  1.8559
  857MOL0     H18217   7.506  10.668   3.076 -0.3197  0.1777 -0.4581
  857MOL0     H18218   7.398  10.919   2.959  1.1479 -0.2325 -0.6965
  857MOL0     H18219   7.402  10.750   2.893  2.5103  0.0910  0.4107
  857MOL0     H18220   7.205  10.688   3.028 -2.7361  0.7309  0.3177
  857MOL0     H18221   7.233  10.819   3.135  0.8204  0.9075 -0.2957
  857MOL0     H18222   7.182  10.980   2.957  1.2200 -0.3275  0.9510
  857MOL0     H18223   7.156  10.856   2.834 -4.6137  2.1772 -2.2673
  857MOL0     H18224   6.751  10.834   3.016 -1.0841 -0.0948 -1.0670
  857MOL0     H18225   6.540  10.849   3.280 -0.7004  0.8275  0.3953
  857MOL0     H18226   6.525  10.869   3.093  0.0902  2.3131 -0.6664
  857MOL0     H18227   6.500  11.000   3.199  0.2388  0.5233 -0.9099
  857MOL0     H18228   6.573  11.015   3.731  1.2408 -0.3465 -1.7894
  857MOL0     H18229   6.495  11.164   3.883 -3.9769 -1.7495 -3.3664
  857MOL0     H18230   6.671  11.444   4.053  4.3423 -2.4770 -3.9769
  857MOL0     H18231   6.697  11.549   3.929  0.6526 -0.2584  0.8379
  857MOL0     H18232   6.487  11.559   4.138  4.5224 -2.4255  0.2364
  857MOL0     H18233   6.614  11.668   4.113  0.3816  1.0905  0.7043
  857MOL0     H18234   6.336  11.626   3.973  0.8583 -1.5859  3.0317
  857MOL0     H18235   6.458  11.670   3.862  2.9921 -0.5894  0.3690
  857MOL0     H18236   6.458  11.856   4.107 -1.7055  1.5057 -0.8251
  857MOL0     H18237   6.296  11.823   4.048  0.4853 -2.8288  4.5764
  857MOL0     H18238   6.532  11.885   3.868 -0.6304 -0.5152  0.9572
  857MOL0     H18239   6.355  11.917   3.836  2.2526  1.0596 -3.6652
  857MOL0     H18240   6.497  12.123   3.883  1.8953 -1.8811  1.2333
  857MOL0     H18241   6.525  12.054   4.040 -1.0224 -2.8694  0.9086
  857MOL0     H18242   6.320  12.066   4.135  2.7514  2.0612  0.3854
  857MOL0     H18243   6.223  12.058   3.975 -1.1008  2.9480 -1.1988
  857MOL0     H18244   6.177  12.257   4.018  0.0749 -0.4878 -1.2917
  857MOL0     H18245   6.311  12.270   3.922 -1.3946  0.5576 -0.5750
  857MOL0     H18246   6.763  11.466   3.734 -0.2627  0.6397 -2.9712
  857MOL0     H18247   6.849  11.283   3.570 -0.8052 -0.0829 -1.5505
  857MOL0     H18248   6.965  11.050   3.400 -2.2100  2.0401 -0.6065
  857MOL0     H18249   7.093  10.972   3.234  1.0711 -1.8406 -3.0539
  857MOL0     H18250   8.569  10.931   2.751 -1.3184  2.8466 -0.2158
  857MOL0     H18251   8.692  10.811   2.610  1.2584 -1.0752  0.3155
  857MOL0     H18252   8.997  10.898   2.237  5.6789 -0.2671  0.3952
  857MOL0     H18253   9.057  10.808   2.037  2.1824  1.4995  0.9111
  857MOL0     H18254   9.170  10.683   1.906  0.6247  0.0161  1.0661
  857MOL0     H18255   9.278  10.596   2.011  1.0988  0.2441 -0.1597
  857MOL0     H18256   9.352  10.507   1.788 -0.6456  0.1369 -0.0315
  857MOL0     H18257   9.187  10.537   1.722 -1.3022 -1.7288  0.0677
  857MOL0     H18258   9.255  10.319   1.934 -0.7654  0.1788  0.3241
  857MOL0     H18259   9.109  10.334   1.846  0.1271  0.0358  2.6388
  857MOL0     H18260   9.241  10.171   1.744 -1.3649  0.0691  2.6805
  857MOL0     H18261   9.353  10.284   1.680 -1.2654 -0.1875 -0.0694
  857MOL0     H18262   9.072  10.331   1.411 -1.5742 -1.8363  0.3000
  857MOL0     H18263   9.017  10.406   2.205  1.7358  0.2355 -0.5874
  857MOL0     H18264   8.859  10.492   2.519 -0.3071 -0.9184  0.0004
  857MOL0     H18265   8.937  10.378   2.415 -0.3936  2.1505 -4.3873
  857MOL0     H18266   9.035  10.454   2.518  0.2953  0.0192 -1.0927
  858MOL0     O18267   0.979   2.435   0.803  0.6923  0.0945  0.2382
  858MOL0     C18268   0.918   2.329   0.810 -0.7322  0.2229 -0.0475
  858MOL0     O18269   0.986   2.197   0.814  0.6044  0.2389  0.2148
  858MOL0     C18270   1.122   2.186   0.835  0.3342 -0.5461 -1.0600
  858MOL0     C18271   1.217   2.283   0.879  0.4829 -0.2880  0.2566
  858MOL0     C18272   1.344   2.245   0.902 -0.3555  0.5512 -0.6493
  858MOL0     C18273   1.389   2.108   0.887 -0.0827 -1.2990  0.4857
  858MOL0     O18274   1.522   2.076   0.914 -0.7848 -0.1440  0.3842
  858MOL0     C18275   1.583   1.957   0.865 -0.0623 -0.3426  0.4065
  858MOL0     C18276   1.627   1.969   0.714 -0.8025  0.2122  0.5303
  858MOL0     C18277   1.696   2.100   0.664 -0.1042  0.0956 -0.4333
  858MOL0     C18278   1.785   2.168   0.764 -0.6664  0.6163 -0.2383
  858MOL0     C18279   1.855   2.306   0.717  0.4064 -0.1691  1.3035
  858MOL0     C18280   1.968   2.286   0.613  0.2905  0.7158 -0.3548
  858MOL0     C18281   2.003   2.417   0.546  0.1662 -1.0444 -0.4336
  858MOL0     C18282   2.127   2.483   0.599  0.2457 -0.9288  0.1964
  858MOL0     N18283   2.249   2.429   0.543  0.1678  0.4618 -0.4698
  858MOL0     C18284   2.305   2.464   0.424  0.6923  0.2986 -0.1704
  858MOL0     C18285   2.405   2.382   0.406  0.2420  0.7685  0.0637
  858MOL0     C18286   2.493   2.362   0.288 -0.4090 -0.7915  0.5223
  858MOL0     C18287   2.592   2.482   0.260 -1.2300  0.2410  0.0371
  858MOL0     C18288   2.513   2.578   0.168  0.1134  0.0498  0.4317
  858MOL0     C18289   2.597   2.698   0.119 -0.8825 -0.0146 -0.0766
  858MOL0     O18290   2.678   2.638   0.011 -0.6218 -0.2633  0.2184
  858MOL0     C18291   2.784   2.714  -0.047  0.1800 -1.7363 -0.3682
  858MOL0     C18292   2.845   2.656  -0.160  0.4145  0.4419 -0.0495
  858MOL0     C18293   2.951   2.726  -0.236  0.3888  0.9707 -0.2229
  858MOL0     C18294   3.026   2.641  -0.336 -0.0181  0.2946 -0.0822
  858MOL0     C18295   2.990   2.862  -0.198  0.4326  0.0311  0.0161
  858MOL0     C18296   3.120   2.934  -0.240 -0.4122 -0.2490 -0.8676
  858MOL0     O18297   3.147   3.040  -0.160  0.5776  0.5196 -0.1770
  858MOL0     C18298   3.254   3.117  -0.190  0.5627 -0.6772  1.1441
  858MOL0     C18299   3.381   3.095  -0.123  0.0733  0.2717  0.1900
  858MOL0     C18300   3.498   3.167  -0.153  0.0836  0.1056 -0.3813
  858MOL0     C18301   3.483   3.282  -0.233  0.5646  0.7222  0.5023
  858MOL0     O18302   3.589   3.366  -0.256  0.0305 -1.1622  0.1519
  858MOL0     C18303   3.675   3.405  -0.150  0.1585 -0.8734 -0.7038
  858MOL0     C18304   3.759   3.516  -0.215  0.3859 -0.9822 -0.0850
  858MOL0     C18305   3.862   3.470  -0.312  0.1219  0.7885 -0.2296
  858MOL0     C18306   3.965   3.367  -0.247  0.2867  0.2616  0.8921
  858MOL0     C18307   4.066   3.339  -0.358  0.4560  0.4345 -0.3745
  858MOL0     C18308   4.185   3.259  -0.313  0.5024 -0.0618 -0.2524
  858MOL0     C18309   4.133   3.120  -0.278 -0.7159 -0.2373  0.0268
  858MOL0     C18310   4.122   3.027  -0.413  0.1067  0.1182 -0.1184
  858MOL0    Cl18311   4.278   2.942  -0.453  0.1662  0.2726  0.4125
  858MOL0     C18312   3.357   3.310  -0.306 -0.1793  0.5293  0.3425
  858MOL0     C18313   3.248   3.222  -0.283  0.1791 -0.2774  0.6785
  858MOL0     O18314   3.192   2.904  -0.339  0.0021  0.2432 -0.4018
  858MOL0     C18315   2.903   2.923  -0.103 -0.0307 -0.2835 -0.6219
  858MOL0     C18316   2.810   2.852  -0.021  0.3302 -0.2960 -0.4953
  858MOL0     N18317   2.422   2.309   0.517  0.6894  0.6185  0.7251
  858MOL0     N18318   2.330   2.338   0.601 -0.4500  0.3639 -0.4293
  858MOL0     C18319   1.296   2.017   0.832  1.5995  0.2222 -0.8082
  858MOL0     C18320   1.160   2.050   0.810  1.0572  0.4075  0.7521
  858MOL0     C18321   0.768   2.322   0.796  0.4355 -0.8560  0.1703
  858MOL0     C18322   0.709   2.196   0.781 -1.2706  0.0523  0.0344
  858MOL0     C18323   0.574   2.175   0.758 -0.4900  1.0574  0.0433
  858MOL0     C18324   0.491   2.285   0.740 -0.8027 -0.4693  1.0199
  858MOL0     O18325   0.353   2.268   0.718 -0.9333 -0.0908  0.8409
  858MOL0     C18326   0.282   2.384   0.657  0.2242  0.4025 -0.3216
  858MOL0     C18327   0.140   2.357   0.610 -0.1343 -0.4063 -0.2413
  858MOL0     C18328   0.122   2.243   0.515 -0.2665 -0.1949  0.7757
  858MOL0     C18329  -0.028   2.223   0.476  0.1715  0.0445 -0.6363
  858MOL0     C18330  -0.043   2.132   0.361  0.5284  0.8159  0.0925
  858MOL0     C18331  -0.062   2.065   0.262 -0.3343 -0.7426  0.4435
  858MOL0     C18332   0.545   2.407   0.741 -0.8753 -0.5028  0.6330
  858MOL0     C18333   0.683   2.427   0.771 -0.1100 -0.1523  0.5423
  858MOL0     C18334   0.737   2.570   0.747 -0.5295 -0.7810 -1.0214
  858MOL0     H18335   1.191   2.388   0.892  3.7552  0.9657 -1.9423
  858MOL0     H18336   1.416   2.322   0.928 -0.5472  0.5351 -0.0558
  858MOL0     H18337   1.524   1.869   0.894  2.5960 -1.3687  3.3573
  858MOL0     H18338   1.679   1.962   0.916  0.4567  3.7108 -0.6134
  858MOL0     H18339   1.707   1.898   0.693  1.8236  2.6712  1.5939
  858MOL0     H18340   1.536   1.948   0.656 -0.9253  0.6241  0.5680
  858MOL0     H18341   1.759   2.069   0.581 -0.1332 -1.4883  0.1081
  858MOL0     H18342   1.626   2.170   0.616  1.8149  1.2112 -1.7350
  858MOL0     H18343   1.722   2.189   0.851 -1.6881 -0.8929 -0.5721
  858MOL0     H18344   1.876   2.110   0.786  1.3148  3.7838  0.5872
  858MOL0     H18345   1.897   2.368   0.796  1.2130  0.3244  0.5180
  858MOL0     H18346   1.776   2.363   0.668  1.1977 -1.3280 -1.5520
  858MOL0     H18347   2.053   2.255   0.675  0.0705 -1.4612 -1.0369
  858MOL0     H18348   1.951   2.193   0.557 -1.3466 -0.9261  2.5766
  858MOL0     H18349   1.927   2.495   0.552  1.9542  0.6999  1.0571
  858MOL0     H18350   2.019   2.401   0.439 -1.8657 -1.5530 -0.6866
  858MOL0     H18351   2.120   2.591   0.580  0.5068 -0.0995  4.0523
  858MOL0     H18352   2.127   2.473   0.708 -0.3885 -2.8226  0.0486
  858MOL0     H18353   2.258   2.529   0.350 -3.5945 -3.5079 -1.2815
  858MOL0     H18354   2.436   2.342   0.197 -1.2182  3.7302 -0.1995
  858MOL0     H18355   2.553   2.272   0.305 -0.5077 -1.6791 -3.0236
  858MOL0     H18356   2.632   2.528   0.350  1.3506 -1.8254  0.0631
  858MOL0     H18357   2.681   2.444   0.209 -1.9071 -1.8547  0.3272
  858MOL0     H18358   2.462   2.520   0.090 -1.2113  0.9719  0.5705
  858MOL0     H18359   2.430   2.607   0.233 -1.0567 -1.1700 -0.4432
  858MOL0     H18360   2.535   2.777   0.075 -2.0566 -1.0806 -0.4018
  858MOL0     H18361   2.661   2.733   0.200  1.0142 -0.0135 -1.4915
  858MOL0     H18362   2.833   2.554  -0.192 -0.5928  1.6092 -3.8251
  858MOL0     H18363   3.126   2.621  -0.296 -0.6933  0.1630  1.6197
  858MOL0     H18364   3.032   2.697  -0.430  0.6777 -1.5697 -1.1939
  858MOL0     H18365   2.993   2.540  -0.361  2.4139  0.0189 -2.6777
  858MOL0     H18366   3.378   3.003  -0.066 -0.2963 -1.0747 -1.8917
  858MOL0     H18367   3.592   3.141  -0.105 -0.0492 -1.1677 -0.7730
  858MOL0     H18368   3.623   3.463  -0.073 -1.0720 -1.3555 -1.1547
  858MOL0     H18369   3.738   3.329  -0.103  2.3982  0.2231 -1.7584
  858MOL0     H18370   3.695   3.585  -0.271  3.8462  0.5245 -2.6042
  858MOL0     H18371   3.804   3.579  -0.138 -3.0740 -0.1569  1.4253
  858MOL0     H18372   3.911   3.560  -0.350  0.2691  0.5008 -0.7389
  858MOL0     H18373   3.816   3.420  -0.398  1.6155 -1.2197  0.0524
  858MOL0     H18374   3.904   3.281  -0.219 -2.0569  1.2802 -0.7575
  858MOL0     H18375   4.013   3.405  -0.156  0.2549  0.6757  0.7421
  858MOL0     H18376   4.011   3.292  -0.440 -1.9150 -0.2068  1.4549
  858MOL0     H18377   4.093   3.439  -0.392 -3.2005  1.3904 -0.8826
  858MOL0     H18378   4.226   3.301  -0.221 -2.0624  0.6248  0.6840
  858MOL0     H18379   4.273   3.259  -0.376  0.2365  1.7225 -0.6703
  858MOL0     H18380   4.046   3.142  -0.215  1.0179  2.2435  1.7554
  858MOL0     H18381   4.206   3.066  -0.217 -0.1412 -0.9171 -1.2364
  858MOL0     H18382   4.079   3.083  -0.496 -3.4327 -0.6601  0.9886
  858MOL0     H18383   4.064   2.939  -0.381  2.9028 -2.4317 -1.5232
  858MOL0     H18384   3.362   3.393  -0.376  3.4439  1.8023  1.8559
  858MOL0     H18385   3.157   3.240  -0.339 -0.0723 -0.0208  1.1628
  858MOL0     H18386   2.924   3.024  -0.070 -0.1638 -1.4947  3.8131
  858MOL0     H18387   2.753   2.904   0.055  1.4102 -1.3819  1.1204
  858MOL0     H18388   1.316   1.914   0.805  0.4002 -0.3299  0.3001
  858MOL0     H18389   1.098   1.970   0.772  0.3101 -0.3257  3.3358
  858MOL0     H18390   0.767   2.107   0.804  1.4903  1.1868 -2.0151
  858MOL0     H18391   0.522   2.080   0.768 -0.1471  0.1735 -4.6508
  858MOL0     H18392   0.282   2.474   0.718  0.6920  0.6618 -0.6990
  858MOL0     H18393   0.341   2.420   0.572 -1.3373 -0.0191 -1.6530
  858MOL0     H18394   0.092   2.445   0.566 -2.7428 -1.9837 -0.7824
  858MOL0     H18395   0.079   2.348   0.701 -2.5435  0.5938 -1.6741
  858MOL0     H18396   0.177   2.242   0.420 -1.6386 -1.7105 -0.0589
  858MOL0     H18397   0.154   2.156   0.572  1.1748 -0.8541 -0.9409
  858MOL0     H18398  -0.068   2.320   0.444  0.3958  0.6228  0.7528
  858MOL0     H18399  -0.093   2.205   0.562 -2.1416  3.2510 -1.5126
  858MOL0     H18400  -0.072   2.020   0.165  0.5784  1.4573 -0.7373
  858MOL0     H18401   0.484   2.497   0.732 -0.9275 -0.6654 -0.8982
  858MOL0     H18402   0.785   2.578   0.845 -2.8032 -0.5738  0.1423
  858MOL0     H18403   0.794   2.568   0.655 -0.3605  0.1241 -0.9491
  858MOL0     H18404   0.654   2.641   0.742 -2.0773 -2.5696 -2.0316
  859MOL0     O18405   5.319  11.197   4.369 -0.3086 -0.4222 -0.0816
  859MOL0     C18406   5.440  11.203   4.387  0.1497  0.4170 -0.5769
  859MOL0     O18407   5.514  11.305   4.440  0.2481 -0.4787  0.6457
  859MOL0     C18408   5.460  11.411   4.509  0.3501  0.2569 -0.7245
  859MOL0     C18409   5.525  11.464   4.621 -0.5757 -0.2876 -0.0941
  859MOL0     C18410   5.470  11.569   4.692  1.5080 -0.8767  0.6900
  859MOL0     C18411   5.355  11.630   4.652  0.2206 -0.5031 -0.5059
  859MOL0     O18412   5.316  11.738   4.724 -0.0022 -0.3116 -0.4022
  859MOL0     C18413   5.277  11.697   4.857 -0.2226 -0.2758 -0.0217
  859MOL0     C18414   5.218  11.810   4.938 -0.6921 -0.5228  0.4633
  859MOL0     C18415   5.209  11.764   5.078  0.2149  0.6434 -0.1905
  859MOL0     C18416   5.143  11.875   5.161 -0.6120 -0.5484  0.0987
  859MOL0     C18417   5.136  11.873   5.312  0.5076  0.1596 -0.1364
  859MOL0     C18418   5.267  11.887   5.384 -0.1286 -0.4076  0.2013
  859MOL0     C18419   5.262  11.882   5.541 -0.4593  0.4583  0.5907
  859MOL0     C18420   5.205  12.017   5.594 -0.3453  0.6513  1.7871
  859MOL0     N18421   5.299  12.125   5.567 -0.4565 -0.9326  0.1610
  859MOL0     C18422   5.432  12.134   5.613 -0.0049 -0.2637  0.4434
  859MOL0     C18423   5.488  12.232   5.544 -0.3403  0.9040  0.4072
  859MOL0     C18424   5.623  12.283   5.561 -0.9897 -0.3333  0.2554
  859MOL0     C18425   5.713  12.210   5.469  0.0317  0.2208 -1.0812
  859MOL0     C18426   5.693  12.261   5.327  0.3012  0.1842 -0.9535
  859MOL0     C18427   5.796  12.193   5.235 -0.0132 -0.2379  0.1953
  859MOL0     O18428   5.911  12.274   5.240  0.6557 -0.6810 -0.3542
  859MOL0     C18429   6.019  12.219   5.172 -0.9136  1.2117 -1.0297
  859MOL0     C18430   6.004  12.125   5.075  0.2658 -0.6161  0.0603
  859MOL0     C18431   6.117  12.064   5.024  0.3541 -0.4704  0.3569
  859MOL0     C18432   6.089  11.961   4.923  0.6925  1.3550  0.1874
  859MOL0     C18433   6.253  12.093   5.074 -0.9940 -0.3744  0.8162
  859MOL0     C18434   6.372  12.023   5.024 -0.6105  1.1275  0.4523
  859MOL0     O18435   6.482  12.110   5.023 -0.5414 -0.5863 -1.3519
  859MOL0     C18436   6.606  12.093   4.953  0.2462 -0.1227 -0.7877
  859MOL0     C18437   6.706  12.193   4.979 -0.2335 -1.9315  0.2625
  859MOL0     C18438   6.822  12.196   4.900 -1.2713  0.2207  0.5664
  859MOL0     C18439   6.855  12.086   4.811  0.4096 -0.2577  0.0437
  859MOL0     O18440   6.981  12.089   4.739  0.0713 -0.1960  0.1103
  859MOL0     C18441   7.043  11.980   4.680 -0.7737  0.3265 -0.8173
  859MOL0     C18442   7.001  11.934   4.542 -0.2271 -0.0907 -0.0824
  859MOL0     C18443   6.973  12.041   4.447  0.1987  0.9199  0.5492
  859MOL0     C18444   6.934  11.992   4.304 -0.3952  0.8406  0.8461
  859MOL0     C18445   6.880  12.108   4.212 -0.5965  1.1022 -0.2990
  859MOL0     C18446   6.847  12.037   4.080 -0.6739 -0.0049  0.0162
  859MOL0     C18447   6.849  12.152   3.963 -0.4059  0.3151 -0.1108
  859MOL0     C18448   6.822  12.094   3.820 -0.6640 -0.0437 -0.0533
  859MOL0    Cl18449   6.964  12.003   3.757  0.6584 -0.5229 -0.3162
  859MOL0     C18450   6.766  11.981   4.797  0.4275 -0.4427 -0.1939
  859MOL0     C18451   6.643  11.982   4.870  0.1010 -0.7418  0.4879
  859MOL0     O18452   6.370  11.906   4.985  0.2304  0.7310 -0.0929
  859MOL0     C18453   6.264  12.191   5.170  0.5379  0.7681 -0.0793
  859MOL0     C18454   6.149  12.255   5.221 -0.2118 -0.7559 -0.0209
  859MOL0     N18455   5.397  12.281   5.449 -0.2108 -0.5958  0.5444
  859MOL0     N18456   5.285  12.222   5.466 -0.3968  0.3447 -0.5403
  859MOL0     C18457   5.293  11.587   4.539 -0.0745  0.1648 -0.2909
  859MOL0     C18458   5.344  11.475   4.465  0.0385  0.6568 -0.6860
  859MOL0     C18459   5.512  11.070   4.371  0.0856 -0.7446 -0.3105
  859MOL0     C18460   5.441  10.951   4.370 -0.5974 -0.3823 -0.3998
  859MOL0     C18461   5.501  10.830   4.361 -0.4509  0.6047 -0.9672
  859MOL0     C18462   5.642  10.824   4.379 -0.1174  1.1218  0.9622
  859MOL0     O18463   5.718  10.711   4.396 -0.3319  0.2154  0.6232
  859MOL0     C18464   5.669  10.590   4.334 -0.7457 -0.2152  0.9056
  859MOL0     C18465   5.780  10.478   4.338  0.1485  0.6539 -0.4291
  859MOL0     C18466   5.890  10.514   4.238  0.7100  0.8982  0.6281
  859MOL0     C18467   6.027  10.457   4.273  1.2901 -0.6455  0.0288
  859MOL0     C18468   6.038  10.312   4.257  0.2785 -0.5363  0.9078
  859MOL0     C18469   6.061  10.193   4.250  0.0089 -0.0899  0.4885
  859MOL0     C18470   5.713  10.940   4.371  0.7444 -0.3689 -0.5719
  859MOL0     C18471   5.657  11.059   4.371 -0.0411  0.0366  0.5982
  859MOL0     C18472   5.759  11.179   4.377 -0.0556  0.3497 -0.2971
  859MOL0     H18473   5.624  11.428   4.645  0.3238  1.1628 -1.4510
  859MOL0     H18474   5.531  11.617   4.767  0.5784  0.4388  0.6583
  859MOL0     H18475   5.362  11.670   4.920  0.0603  0.6223 -0.0087
  859MOL0     H18476   5.210  11.611   4.853  0.8768 -1.1328 -2.9964
  859MOL0     H18477   5.261  11.907   4.910 -2.8048  0.3478 -0.0295
  859MOL0     H18478   5.114  11.816   4.904 -0.4096 -0.9019 -0.5094
  859MOL0     H18479   5.155  11.669   5.084  1.0333  0.1434 -0.4856
  859MOL0     H18480   5.310  11.754   5.120  0.3766  1.4021 -0.3770
  859MOL0     H18481   5.177  11.976   5.137 -0.1974 -1.0005 -1.3156
  859MOL0     H18482   5.042  11.875   5.120 -1.3488 -0.1539  1.8548
  859MOL0     H18483   5.092  11.778   5.344 -1.7237  1.6733  1.6796
  859MOL0     H18484   5.063  11.951   5.336 -0.8968 -1.3971  0.8787
  859MOL0     H18485   5.335  11.808   5.350  0.4651  0.0177  0.3792
  859MOL0     H18486   5.316  11.978   5.350  4.3142 -2.6895 -0.3153
  859MOL0     H18487   5.364  11.876   5.580 -1.3395  1.3824  3.2867
  859MOL0     H18488   5.202  11.801   5.584  0.5814  1.3600  4.1209
  859MOL0     H18489   5.108  12.027   5.546 -0.7022 -1.0274  2.0918
  859MOL0     H18490   5.192  12.011   5.703  1.4114  0.7076  2.0381
  859MOL0     H18491   5.479  12.060   5.675  1.3525 -0.5981 -0.9238
  859MOL0     H18492   5.652  12.269   5.666 -0.3375  4.9538  1.0227
  859MOL0     H18493   5.617  12.392   5.556  3.2266  0.0985  0.8348
  859MOL0     H18494   5.805  12.257   5.504  0.6644 -1.2894 -0.6314
  859MOL0     H18495   5.718  12.102   5.487 -1.2626 -0.2740 -3.3647
  859MOL0     H18496   5.593  12.240   5.287  0.0651  1.2221 -0.9312
  859MOL0     H18497   5.705  12.370   5.322 -3.6195  1.0005  2.4010
  859MOL0     H18498   5.813  12.088   5.260 -2.4572 -1.1817 -1.6833
  859MOL0     H18499   5.760  12.197   5.132 -1.7932  1.9398  0.8277
  859MOL0     H18500   5.905  12.092   5.045 -0.2965  2.3096 -1.6751
  859MOL0     H18501   6.178  11.954   4.859  2.2571 -0.2714  2.3611
  859MOL0     H18502   6.012  11.991   4.852 -1.6934 -2.8216  0.6861
  859MOL0     H18503   6.063  11.859   4.953 -4.2362  1.6112 -2.2528
  859MOL0     H18504   6.667  12.276   5.036 -1.6696 -2.0317 -0.5222
  859MOL0     H18505   6.895  12.274   4.922  1.2455 -2.0941  1.0461
  859MOL0     H18506   7.147  12.014   4.674  0.5751 -3.3740 -0.6844
  859MOL0     H18507   7.040  11.899   4.752 -0.2826  1.2740  0.3108
  859MOL0     H18508   7.079  11.871   4.499 -0.0982  0.6342 -0.9352
  859MOL0     H18509   6.915  11.867   4.550 -0.2592 -0.3430 -2.0298
  859MOL0     H18510   7.049  12.120   4.438 -0.9738  1.8942 -1.6662
  859MOL0     H18511   6.892  12.090   4.502 -0.5439 -0.4038  0.6770
  859MOL0     H18512   6.862  11.909   4.302 -1.5108  1.7729 -1.3871
  859MOL0     H18513   7.022  11.944   4.262 -0.7089 -0.3408  1.4845
  859MOL0     H18514   6.797  12.154   4.267  0.4094  1.8837  0.6084
  859MOL0     H18515   6.967  12.174   4.208  1.0931 -0.9265  1.0173
  859MOL0     H18516   6.756  11.978   4.096  1.1207 -2.4020  2.0718
  859MOL0     H18517   6.918  11.959   4.054 -1.1743 -0.3621 -0.2949
  859MOL0     H18518   6.931  12.224   3.976 -1.2166  1.7930 -2.5658
  859MOL0     H18519   6.765  12.215   3.992  0.6215  0.3461  3.1821
  859MOL0     H18520   6.800  12.183   3.760 -1.9266 -0.3535 -0.0629
  859MOL0     H18521   6.729  12.036   3.818 -0.2449 -0.7940  1.0955
  859MOL0     H18522   6.785  11.898   4.730  0.0603  0.0950 -0.9767
  859MOL0     H18523   6.568  11.908   4.845  1.1004 -1.6248  0.0134
  859MOL0     H18524   6.359  12.225   5.211  1.4741  0.7218 -2.0927
  859MOL0     H18525   6.164  12.328   5.300 -0.5388 -1.8238  1.0580
  859MOL0     H18526   5.217  11.641   4.483  2.1699 -0.0295 -3.8878
  859MOL0     H18527   5.301  11.450   4.369  1.6589 -0.5579 -1.1404
  859MOL0     H18528   5.332  10.949   4.370 -0.6223  0.3986  0.0833
  859MOL0     H18529   5.446  10.737   4.348  0.0632 -0.1881  1.8752
  859MOL0     H18530   5.595  10.538   4.395  0.0972 -3.6153 -0.7109
  859MOL0     H18531   5.624  10.606   4.235  0.4375 -0.6000  0.2738
  859MOL0     H18532   5.749  10.373   4.337 -0.0158  0.7070 -1.2418
  859MOL0     H18533   5.824  10.491   4.438 -0.7044 -1.1908  0.2286
  859MOL0     H18534   5.854  10.481   4.140  0.3144  0.3503  0.9508
  859MOL0     H18535   5.909  10.622   4.234 -1.1147  1.2197 -0.6566
  859MOL0     H18536   6.046  10.488   4.376  0.0995  0.3705 -0.0449
  859MOL0     H18537   6.096  10.514   4.210  2.0132 -1.9486 -0.4092
  859MOL0     H18538   6.084  10.089   4.242  2.1090  0.3680 -0.0324
  859MOL0     H18539   5.820  10.930   4.355  0.1742 -2.3870 -4.1768
  859MOL0     H18540   5.850  11.135   4.336  0.4292  2.6423 -1.7986
  859MOL0     H18541   5.726  11.256   4.307 -0.2325  1.4682  0.9779
  859MOL0     H18542   5.764  11.212   4.481 -3.8944  2.4907 -0.5996
  860MOL0     O18543  10.910   0.823   4.536  1.1912  1.3611  0.0391
  860MOL0     C18544  11.026   0.774   4.536 -0.4835 -0.2151 -0.2212
  860MOL0     O18545  11.105   0.762   4.643  0.1551 -0.3510  0.4871
  860MOL0     C18546  11.049   0.766   4.764 -0.3738  0.1258 -0.0478
  860MOL0     C18547  10.942   0.678   4.796 -0.0837 -0.3064  0.2267
  860MOL0     C18548  10.885   0.660   4.919 -0.1456 -0.4804  0.6426
  860MOL0     C18549  10.940   0.736   5.024 -0.9426 -0.8493  0.6180
  860MOL0     O18550  10.900   0.739   5.155  0.2428  0.2913 -0.9814
  860MOL0     C18551  10.794   0.659   5.206  0.3564  0.6251 -0.5562
  860MOL0     C18552  10.661   0.714   5.153 -0.3514  0.0933  0.2653
  860MOL0     C18553  10.609   0.830   5.231 -0.0410  0.5678 -0.8519
  860MOL0     C18554  10.480   0.882   5.174 -0.3474 -0.4442 -0.1610
  860MOL0     C18555  10.406   0.993   5.254 -0.1311  0.1887  0.1688
  860MOL0     C18556  10.509   1.093   5.301 -0.1359 -0.0465  0.3813
  860MOL0     C18557  10.453   1.219   5.376  0.9574  0.1108 -0.5208
  860MOL0     C18558  10.559   1.309   5.439  0.0825 -0.1910 -0.1977
  860MOL0     N18559  10.636   1.240   5.544  0.6393 -0.2485  0.1608
  860MOL0     C18560  10.752   1.173   5.523 -0.0531 -0.5831 -0.8546
  860MOL0     C18561  10.788   1.120   5.642 -1.1010  0.3811 -0.0688
  860MOL0     C18562  10.913   1.039   5.682 -0.4711  0.6144 -0.5138
  860MOL0     C18563  10.972   1.070   5.825 -0.4077 -0.6789  0.2857
  860MOL0     C18564  11.070   0.958   5.879  0.6192  0.3706  0.1890
  860MOL0     C18565  11.182   0.915   5.778  0.6221 -0.0425 -0.5973
  860MOL0     O18566  11.252   1.029   5.720 -1.5313 -0.3636  0.5304
  860MOL0     C18567  11.346   1.095   5.801 -0.0827  0.6338 -0.1400
  860MOL0     C18568  11.405   1.210   5.748  0.0637  0.8341 -1.1771
  860MOL0     C18569  11.509   1.279   5.813  1.5909 -0.2777  0.7447
  860MOL0     C18570  11.554   1.401   5.732 -1.1248  1.0020  0.1676
  860MOL0     C18571  11.559   1.230   5.930 -1.8907 -0.5561 -0.0969
  860MOL0     C18572  11.663   1.308   6.015  0.2575  0.6898 -0.3684
  860MOL0     O18573  11.675   1.263   6.151 -0.3133 -0.6919 -0.7717
  860MOL0     C18574  11.734   1.360   6.230 -0.5316 -0.2004 -0.2566
  860MOL0     C18575  11.866   1.343   6.275  0.4366 -0.1714 -0.0859
  860MOL0     C18576  11.925   1.441   6.347 -0.1678  0.7073 -0.5516
  860MOL0     C18577  11.857   1.556   6.385 -0.5681  0.4313 -0.2668
  860MOL0     O18578  11.915   1.642   6.475 -0.6699  0.0120 -0.1788
  860MOL0     C18579  12.047   1.681   6.451 -0.8595 -0.6881  0.4623
  860MOL0     C18580  12.079   1.822   6.521  0.2764  0.3796  0.8369
  860MOL0     C18581  12.204   1.878   6.455 -0.6160 -0.0038 -0.2267
  860MOL0     C18582  12.258   1.996   6.543  0.2533  0.2020  1.0558
  860MOL0     C18583  12.159   2.105   6.579 -0.1625 -0.0306  0.2116
  860MOL0     C18584  12.198   2.248   6.593 -1.9416 -0.4867 -0.8875
  860MOL0     C18585  12.278   2.275   6.725  0.5063 -0.7533 -0.5085
  860MOL0     C18586  12.321   2.418   6.728  0.5764 -0.8265  0.7370
  860MOL0    Cl18587  12.413   2.453   6.880  0.1627 -0.0951  0.2226
  860MOL0     C18588  11.726   1.562   6.347  0.7483 -0.6428 -0.3443
  860MOL0     C18589  11.663   1.469   6.272  0.0255 -0.0463 -0.1814
  860MOL0     O18590  11.736   1.400   5.964 -0.0183 -0.1828  0.2308
  860MOL0     C18591  11.500   1.114   5.986  0.1950 -0.3884 -0.3465
  860MOL0     C18592  11.393   1.048   5.922 -0.6170  0.2291 -0.0557
  860MOL0     N18593  10.687   1.168   5.725  0.3097 -0.1526 -0.0346
  860MOL0     N18594  10.592   1.232   5.669  0.3069 -0.5873 -0.2911
  860MOL0     C18595  11.049   0.827   5.002 -0.3487  0.3940 -0.3038
  860MOL0     C18596  11.106   0.833   4.872  1.4467 -0.6150  0.7441
  860MOL0     C18597  11.085   0.743   4.409  0.7880 -0.2764  0.2318
  860MOL0     C18598  11.217   0.764   4.386  0.1433 -0.5951  0.5458
  860MOL0     C18599  11.284   0.757   4.267  0.7725  0.9439 -0.3182
  860MOL0     C18600  11.217   0.696   4.155 -0.2354  0.6115 -0.2251
  860MOL0     O18601  11.277   0.667   4.042  0.3763  0.4278 -0.8354
  860MOL0     C18602  11.391   0.732   4.010  0.0516 -0.3896  0.1806
  860MOL0     C18603  11.352   0.866   3.947  1.0749 -0.0979  0.8393
  860MOL0     C18604  11.221   0.853   3.856  0.1766  0.1301  0.2649
  860MOL0     C18605  11.187   0.994   3.787 -0.0082 -0.0505 -1.2615
  860MOL0     C18606  11.083   0.975   3.689 -0.8667 -0.2279 -0.0730
  860MOL0     C18607  11.003   0.947   3.595  0.4351 -0.3435  0.3577
  860MOL0     C18608  11.084   0.655   4.173 -0.2825 -0.1338  0.9993
  860MOL0     C18609  11.024   0.673   4.298 -0.6386  0.6011 -0.5085
  860MOL0     C18610  10.878   0.640   4.314 -0.2442 -0.1619  0.3183
  860MOL0     H18611  10.908   0.620   4.711  2.1483 -2.6659  0.8195
  860MOL0     H18612  10.817   0.576   4.929  1.7627 -3.0115 -4.3856
  860MOL0     H18613  10.789   0.667   5.315 -1.7532 -1.5497 -0.4247
  860MOL0     H18614  10.797   0.554   5.175 -1.0098  0.5726 -0.5550
  860MOL0     H18615  10.675   0.741   5.048  1.5091 -0.8866  0.2237
  860MOL0     H18616  10.586   0.634   5.150 -0.9938  0.6762  0.5552
  860MOL0     H18617  10.597   0.807   5.337 -2.5345 -3.9347 -1.8434
  860MOL0     H18618  10.694   0.897   5.219  0.1044  0.4749 -0.3380
  860MOL0     H18619  10.503   0.921   5.074  1.3577  0.8397  0.6963
  860MOL0     H18620  10.417   0.794   5.157  1.4738 -2.0732  1.1143
  860MOL0     H18621  10.345   0.945   5.331  0.7288 -4.2233 -1.5435
  860MOL0     H18622  10.322   1.039   5.202 -0.5468  0.0111  0.6763
  860MOL0     H18623  10.554   1.035   5.382 -1.6773  0.2004  1.4768
  860MOL0     H18624  10.580   1.122   5.224 -0.1138  2.2036  1.1790
  860MOL0     H18625  10.387   1.183   5.455 -0.3214  0.3084 -1.4616
  860MOL0     H18626  10.389   1.274   5.307  1.9179 -1.4590 -2.8261
  860MOL0     H18627  10.643   1.336   5.374  0.9807 -0.3778  0.8579
  860MOL0     H18628  10.517   1.403   5.475 -0.2011 -0.7333  0.9408
  860MOL0     H18629  10.801   1.158   5.427 -0.1388  1.9931 -1.3595
  860MOL0     H18630  10.983   1.059   5.600 -0.4702  0.7553 -0.4798
  860MOL0     H18631  10.877   0.936   5.683 -0.6435  0.6120  2.1552
  860MOL0     H18632  11.027   1.165   5.819  2.5417 -2.3755 -3.3186
  860MOL0     H18633  10.881   1.085   5.885  0.2026  3.7078  0.4352
  860MOL0     H18634  11.118   0.992   5.971  0.5561 -0.0529  0.3808
  860MOL0     H18635  11.006   0.877   5.917 -0.5483  1.7502  1.2930
  860MOL0     H18636  11.253   0.843   5.820  0.9312  0.9738  0.7048
  860MOL0     H18637  11.119   0.865   5.705 -0.2545 -0.3612  0.3642
  860MOL0     H18638  11.347   1.229   5.658 -1.0070 -4.0792 -1.7933
  860MOL0     H18639  11.558   1.486   5.801 -3.1924 -0.5726  2.4347
  860MOL0     H18640  11.499   1.431   5.642 -0.5148 -2.0157 -1.3170
  860MOL0     H18641  11.657   1.385   5.701 -1.9590  1.6735 -3.4181
  860MOL0     H18642  11.900   1.241   6.254 -3.0444 -1.4085 -0.3549
  860MOL0     H18643  12.023   1.412   6.383 -0.3629  2.3675  1.4729
  860MOL0     H18644  12.106   1.603   6.500 -0.4127 -1.5462 -1.3516
  860MOL0     H18645  12.071   1.673   6.345 -0.1540  1.3265  0.4290
  860MOL0     H18646  11.991   1.886   6.510 -1.3308 -1.8130  0.0368
  860MOL0     H18647  12.086   1.818   6.630  1.6687  0.8098  0.7769
  860MOL0     H18648  12.182   1.905   6.352 -3.2483  1.3199  0.5847
  860MOL0     H18649  12.289   1.810   6.460 -1.1229 -0.7506 -1.5340
  860MOL0     H18650  12.350   2.037   6.500  0.3137  0.0795  1.0664
  860MOL0     H18651  12.290   1.956   6.640  2.5697 -0.9213 -0.0916
  860MOL0     H18652  12.095   2.103   6.490 -1.5866  1.0264  1.1535
  860MOL0     H18653  12.099   2.073   6.665  0.0467  1.6318  1.0200
  860MOL0     H18654  12.114   2.316   6.576 -2.7166 -1.3320 -0.5411
  860MOL0     H18655  12.266   2.271   6.511 -1.0325  2.6818  0.6172
  860MOL0     H18656  12.366   2.210   6.736  2.0529  1.4779  1.1392
  860MOL0     H18657  12.215   2.262   6.813 -0.3645 -1.4224 -1.2226
  860MOL0     H18658  12.234   2.484   6.719  0.7502 -0.7735 -0.8399
  860MOL0     H18659  12.380   2.438   6.639 -1.3430  1.5114 -0.1232
  860MOL0     H18660  11.662   1.643   6.381  1.0382 -1.0123  1.1500
  860MOL0     H18661  11.563   1.491   6.239 -0.4603  0.7136  1.6239
  860MOL0     H18662  11.547   1.083   6.079 -2.4461 -0.1061  1.1661
  860MOL0     H18663  11.374   0.954   5.972  1.3977  0.1808  0.6927
  860MOL0     H18664  11.108   0.864   5.085 -0.0142 -2.5658  0.8827
  860MOL0     H18665  11.193   0.894   4.850 -0.7305  3.1065  1.5880
  860MOL0     H18666  11.272   0.798   4.474 -1.5693 -1.5236  2.0477
  860MOL0     H18667  11.386   0.794   4.267  1.1318  0.0634  1.0053
  860MOL0     H18668  11.466   0.742   4.089 -1.9960 -1.6339  2.4357
  860MOL0     H18669  11.441   0.671   3.934  2.0309 -0.0152  1.1094
  860MOL0     H18670  11.434   0.907   3.887 -0.6894 -1.9727 -3.2890
  860MOL0     H18671  11.331   0.931   4.033  2.1261  0.1767  0.8989
  860MOL0     H18672  11.228   0.769   3.787  0.4582  0.3569  0.0093
  860MOL0     H18673  11.129   0.825   3.908  0.2504  0.7835  0.7601
  860MOL0     H18674  11.279   1.039   3.750  0.5622  3.5604  3.5174
  860MOL0     H18675  11.137   1.053   3.864 -0.7686 -1.0442 -0.9606
  860MOL0     H18676  10.922   0.943   3.524 -0.2477 -1.3292  1.1594
  860MOL0     H18677  11.028   0.604   4.096  0.8880  0.2235 -0.1125
  860MOL0     H18678  10.847   0.563   4.242 -0.7320  1.1928 -0.9695
  860MOL0     H18679  10.849   0.598   4.411  0.7759  0.2924  0.8329
  860MOL0     H18680  10.820   0.732   4.300  1.1415  0.6642 -0.1886
  861MOL0     O18681   1.237   7.245  10.783  0.1043 -0.0287 -0.3409
  861MOL0     C18682   1.282   7.184  10.873  0.4450 -0.2155 -0.8693
  861MOL0     O18683   1.381   7.106  10.853 -0.3414 -0.2249 -0.6758
  861MOL0     C18684   1.440   7.081  10.733  0.6733  0.5664 -1.3770
  861MOL0     C18685   1.579   7.044  10.742 -0.0826 -0.2494  0.3629
  861MOL0     C18686   1.659   7.011  10.631  0.6662  0.4281  0.2267
  861MOL0     C18687   1.597   7.011  10.511 -0.0679  0.0332  0.4147
  861MOL0     O18688   1.677   6.976  10.403 -0.5295  1.0514 -0.6041
  861MOL0     C18689   1.618   6.971  10.276  0.7069 -0.1121  0.1378
  861MOL0     C18690   1.706   6.886  10.188  0.1026 -0.3038  0.1579
  861MOL0     C18691   1.848   6.949  10.157 -0.0540  1.2711 -0.0594
  861MOL0     C18692   1.831   7.073  10.075  0.4750 -0.6464 -0.2523
  861MOL0     C18693   1.827   7.041   9.926 -0.4942 -0.1306 -0.3814
  861MOL0     C18694   1.808   7.179   9.862  0.2049 -0.0014  0.8362
  861MOL0     C18695   1.658   7.212   9.855  0.6904 -0.0905  0.3644
  861MOL0     C18696   1.636   7.345   9.786 -0.4211  1.2390 -0.2536
  861MOL0     N18697   1.638   7.455   9.886 -0.6431  0.0003  0.2706
  861MOL0     C18698   1.550   7.481   9.986 -0.6358 -0.0078  0.2689
  861MOL0     C18699   1.593   7.589  10.059 -0.0216  0.0154  0.2043
  861MOL0     C18700   1.523   7.647  10.180  0.1902  0.5033  0.5333
  861MOL0     C18701   1.586   7.776  10.244 -0.1875  0.3676  0.2446
  861MOL0     C18702   1.562   7.898  10.149 -0.1681 -0.2141 -0.8648
  861MOL0     C18703   1.644   8.019  10.209  0.2347  0.0151 -0.1191
  861MOL0     O18704   1.580   8.070  10.331  0.0741  0.0784  0.0074
  861MOL0     C18705   1.479   8.171  10.307  0.2778  0.7515  0.7260
  861MOL0     C18706   1.435   8.232  10.416  0.5377 -0.1783 -0.7007
  861MOL0     C18707   1.330   8.328  10.419  0.3964  0.5832  0.3658
  861MOL0     C18708   1.289   8.391  10.556 -0.1975  0.0804 -0.0683
  861MOL0     C18709   1.257   8.356  10.294 -0.4556 -0.2132 -0.8709
  861MOL0     C18710   1.132   8.439  10.283  0.0517 -0.7017  0.2902
  861MOL0     O18711   1.100   8.466  10.159  0.7625  0.2361 -0.0727
  861MOL0     C18712   0.967   8.509  10.138  0.6669  0.3295  0.4455
  861MOL0     C18713   0.916   8.629  10.193  0.8546  0.1309  0.6503
  861MOL0     C18714   0.776   8.659  10.185 -0.7153 -0.7734 -0.4902
  861MOL0     C18715   0.690   8.572  10.124  0.1596 -0.5476 -0.0683
  861MOL0     O18716   0.559   8.602  10.115  0.1839  0.7117  0.4890
  861MOL0     C18717   0.509   8.740  10.128 -0.4991  0.9565  0.7888
  861MOL0     C18718   0.361   8.724  10.110  0.6490  0.1532 -0.9009
  861MOL0     C18719   0.301   8.838  10.203 -0.7160 -0.1361 -0.4479
  861MOL0     C18720   0.147   8.842  10.160  0.1605  0.2882 -0.3399
  861MOL0     C18721   0.068   8.940  10.236  0.5518  0.1490  0.3316
  861MOL0     C18722   0.129   9.081  10.248 -0.5587  0.5249 -0.3862
  861MOL0     C18723   0.013   9.168  10.287 -0.0995 -0.0287 -0.0689
  861MOL0     C18724   0.036   9.319  10.285 -0.2704  0.6989 -0.1762
  861MOL0    Cl18725   0.153   9.355  10.408 -0.4321  0.3418  0.3400
  861MOL0     C18726   0.742   8.467  10.053 -0.2169  0.6883 -0.3593
  861MOL0     C18727   0.877   8.432  10.064  1.3505 -0.4056  0.7751
  861MOL0     O18728   1.072   8.472  10.382  0.3860 -1.2015 -0.3749
  861MOL0     C18729   1.311   8.294  10.182 -0.6335 -0.7078  0.1439
  861MOL0     C18730   1.418   8.208  10.186 -0.3743 -0.2529  0.7525
  861MOL0     N18731   1.704   7.638   9.981 -0.0584 -0.5529  0.5846
  861MOL0     N18732   1.732   7.560   9.884  1.2439  0.1829 -0.1207
  861MOL0     C18733   1.460   7.058  10.503 -0.4174  0.5112 -1.5932
  861MOL0     C18734   1.382   7.085  10.611 -0.1379  0.3497 -0.3776
  861MOL0     C18735   1.210   7.183  10.998 -0.2768 -0.0515  1.3883
  861MOL0     C18736   1.184   7.055  11.051 -0.2080 -0.0185  0.1807
  861MOL0     C18737   1.086   7.040  11.154 -1.2043  0.2232 -0.2930
  861MOL0     C18738   1.035   7.150  11.222 -0.2105  0.3402  0.4446
  861MOL0     O18739   0.932   7.127  11.319  0.3875 -0.9556 -0.7630
  861MOL0     C18740   0.863   7.246  11.368 -0.4363 -0.5619  0.2186
  861MOL0     C18741   0.749   7.194  11.452  1.2955 -0.0756 -0.0790
  861MOL0     C18742   0.621   7.152  11.364 -0.2779 -0.3319  0.3700
  861MOL0     C18743   0.615   7.000  11.329 -0.1387  0.4178 -0.1499
  861MOL0     C18744   0.565   6.926  11.438 -0.4232  0.8500  0.0966
  861MOL0     C18745   0.514   6.849  11.517  0.8995 -0.7275  0.2108
  861MOL0     C18746   1.067   7.276  11.163  0.0599 -0.5541 -0.0184
  861MOL0     C18747   1.152   7.294  11.060  0.2529 -0.9026 -0.4715
  861MOL0     C18748   1.191   7.432  11.015 -0.1554  0.2361 -0.7827
  861MOL0     H18749   1.627   7.030  10.838  3.1150 -1.0615 -1.2320
  861MOL0     H18750   1.761   6.979  10.650 -0.2391 -2.3271  0.8526
  861MOL0     H18751   1.587   7.071  10.244 -1.0352 -0.2034  1.4012
  861MOL0     H18752   1.518   6.931  10.297 -0.2804  3.3608  3.0852
  861MOL0     H18753   1.731   6.786  10.224 -1.0248  0.3733  3.0906
  861MOL0     H18754   1.652   6.869  10.095  0.2538  4.4340 -1.0803
  861MOL0     H18755   1.893   6.973  10.254 -0.4439 -5.1317  2.1517
  861MOL0     H18756   1.908   6.879  10.099  1.6443  2.5323  0.0888
  861MOL0     H18757   1.734   7.123  10.088 -0.2733 -1.5730 -1.8876
  861MOL0     H18758   1.908   7.147  10.097  0.9279 -0.8697 -1.0617
  861MOL0     H18759   1.759   6.957   9.906 -0.3832 -0.4140  0.4144
  861MOL0     H18760   1.927   7.008   9.895  0.2791  0.4380  1.3477
  861MOL0     H18761   1.869   7.260   9.902 -0.9648  2.2478 -1.6235
  861MOL0     H18762   1.843   7.173   9.758 -3.5255  1.6780 -0.7082
  861MOL0     H18763   1.616   7.233   9.953 -0.9268  2.1455 -0.7091
  861MOL0     H18764   1.609   7.126   9.809 -1.7616 -0.5099  3.4569
  861MOL0     H18765   1.708   7.355   9.704  2.1886  2.3441  2.0498
  861MOL0     H18766   1.537   7.338   9.739  0.0982 -1.3094 -1.1687
  861MOL0     H18767   1.461   7.422  10.007  0.4789 -1.8898 -0.1307
  861MOL0     H18768   1.485   7.572  10.250 -1.7286 -0.3467 -1.2947
  861MOL0     H18769   1.434   7.692  10.134 -0.0468  0.7047  1.1813
  861MOL0     H18770   1.538   7.795  10.340  2.8516 -0.4331  2.0427
  861MOL0     H18771   1.693   7.764  10.261 -0.1270  1.0364  0.3634
  861MOL0     H18772   1.599   7.883  10.048  1.0045  0.8037 -0.6134
  861MOL0     H18773   1.455   7.918  10.138  0.0974  1.3332 -0.9089
  861MOL0     H18774   1.741   7.976  10.234  1.3109  0.6497 -2.7906
  861MOL0     H18775   1.673   8.096  10.136  0.3565 -1.6640 -1.9238
  861MOL0     H18776   1.477   8.202  10.511  0.3367 -2.3862 -1.2536
  861MOL0     H18777   1.367   8.385  10.632 -0.0193  0.1916 -0.2381
  861MOL0     H18778   1.197   8.349  10.597  0.5815  2.8237  5.2507
  861MOL0     H18779   1.264   8.497  10.545  0.6931  0.1547 -1.9550
  861MOL0     H18780   0.995   8.682  10.244  1.6641 -0.3883 -0.0456
  861MOL0     H18781   0.745   8.746  10.241  0.4600 -1.7918  1.8741
  861MOL0     H18782   0.528   8.760  10.234 -0.1541  1.3107  0.6640
  861MOL0     H18783   0.568   8.804  10.063 -0.0414  0.7949  1.0433
  861MOL0     H18784   0.335   8.739  10.005 -1.7123  1.5418 -0.1828
  861MOL0     H18785   0.319   8.627  10.135  0.1880  0.6299  0.2480
  861MOL0     H18786   0.354   8.932  10.180 -0.4973 -0.1198  0.0975
  861MOL0     H18787   0.323   8.819  10.309 -1.9215  0.8150  0.0013
  861MOL0     H18788   0.101   8.747  10.190  0.4573  0.2892  0.1285
  861MOL0     H18789   0.133   8.866  10.055  1.1403 -3.7201 -1.5686
  861MOL0     H18790  -0.028   8.942  10.183 -1.9446 -0.7289  4.4072
  861MOL0     H18791   0.043   8.900  10.335  2.8580 -0.9524  0.5437
  861MOL0     H18792   0.175   9.106  10.153  0.5391 -1.4960 -0.4468
  861MOL0     H18793   0.208   9.084  10.324  0.0093 -0.8151 -0.8863
  861MOL0     H18794  -0.033   9.142  10.382  2.1062 -2.8002  0.3788
  861MOL0     H18795  -0.060   9.161  10.206  0.7847  0.3364 -0.9174
  861MOL0     H18796  -0.058   9.374  10.294  0.1804  1.5100 -0.3463
  861MOL0     H18797   0.076   9.350  10.188  0.2865  1.9491  0.4376
  861MOL0     H18798   0.672   8.415   9.988 -0.6205  1.7816 -0.8226
  861MOL0     H18799   0.912   8.341  10.016 -2.6726 -3.0193  2.2923
  861MOL0     H18800   1.276   8.309  10.080  1.7316  0.4913 -0.5573
  861MOL0     H18801   1.437   8.166  10.088  2.3522  3.5465 -0.5706
  861MOL0     H18802   1.419   7.084  10.406 -3.9811  2.0456  0.1438
  861MOL0     H18803   1.276   7.099  10.593 -0.5869  0.5659  2.0876
  861MOL0     H18804   1.243   6.971  11.015  1.4269  1.1113  0.0716
  861MOL0     H18805   1.076   6.944  11.204  1.9171 -0.7845 -1.3441
  861MOL0     H18806   0.918   7.325  11.420  0.1319  1.0680 -2.6295
  861MOL0     H18807   0.821   7.302  11.283 -1.0943 -0.9748  0.2634
  861MOL0     H18808   0.726   7.279  11.517  2.2467 -1.5774  2.3479
  861MOL0     H18809   0.776   7.111  11.518  1.0565  1.1809  1.6657
  861MOL0     H18810   0.531   7.177  11.422 -0.5945  0.8054 -0.5776
  861MOL0     H18811   0.610   7.206  11.270  0.3878 -0.8427 -0.0147
  861MOL0     H18812   0.714   6.961  11.301 -0.2416 -1.4206  1.7538
  861MOL0     H18813   0.542   6.978  11.250 -0.7167 -0.0273  0.5013
  861MOL0     H18814   0.466   6.775  11.578 -1.7665 -1.1029 -2.1432
  861MOL0     H18815   1.031   7.372  11.199  1.0425  0.1660 -0.8964
  861MOL0     H18816   1.179   7.498  11.102 -1.7500 -0.9566 -0.0418
  861MOL0     H18817   1.293   7.442  10.978  0.4532 -0.7310  0.5829
  861MOL0     H18818   1.117   7.463  10.939 -1.5115 -1.5498 -0.2462
  862MOL0     O18819   0.271   9.454   8.490  0.6368 -0.0743  0.7763
  862MOL0     C18820   0.174   9.425   8.416  0.2401 -0.1709 -0.2013
  862MOL0     O18821   0.061   9.354   8.464 -0.2647  0.5044 -0.2686
  862MOL0     C18822   0.069   9.307   8.595  0.2440 -0.2806  0.5453
  862MOL0     C18823  -0.049   9.330   8.674 -0.5287  0.4169 -0.1753
  862MOL0     C18824  -0.054   9.283   8.809 -0.8443 -0.6114  0.2817
  862MOL0     C18825   0.052   9.223   8.872 -0.1420  0.6137 -0.6125
  862MOL0     O18826   0.038   9.168   8.994 -0.0560 -0.4406 -1.0296
  862MOL0     C18827   0.097   9.045   9.022 -0.8609 -0.1799 -0.0336
  862MOL0     C18828   0.043   8.993   9.149 -0.3687  1.3179 -0.3507
  862MOL0     C18829   0.031   9.112   9.251 -0.2579  0.1644 -0.1286
  862MOL0     C18830  -0.063   9.059   9.369  0.7040 -0.3715 -0.7219
  862MOL0     C18831  -0.066   9.159   9.480  0.1736 -0.5410  0.2199
  862MOL0     C18832  -0.139   9.295   9.449 -1.2300  0.5234 -0.7747
  862MOL0     C18833  -0.099   9.424   9.524  0.9277  0.7883 -0.9586
  862MOL0     C18834   0.040   9.479   9.489  0.3423  0.7265 -0.6389
  862MOL0     N18835   0.046   9.565   9.375 -0.8760 -0.0606 -0.2751
  862MOL0     C18836  -0.059   9.618   9.306  0.2458  0.0271  0.1127
  862MOL0     C18837   0.003   9.698   9.219 -0.0810  0.4114  0.5201
  862MOL0     C18838  -0.082   9.770   9.115  0.5200 -0.3322  0.0621
  862MOL0     C18839  -0.169   9.679   9.019 -0.3907  0.0449  0.1238
  862MOL0     C18840  -0.314   9.718   8.971 -0.3531  0.3141  0.4569
  862MOL0     C18841  -0.373   9.624   8.861  0.0821  1.2712  0.1396
  862MOL0     O18842  -0.284   9.599   8.746  0.0543 -1.0630  0.8836
  862MOL0     C18843  -0.270   9.700   8.656  0.4642 -0.0344  0.9901
  862MOL0     C18844  -0.331   9.824   8.661 -0.6127 -0.2170  0.3102
  862MOL0     C18845  -0.320   9.921   8.556  0.0653 -0.2249 -0.2798
  862MOL0     C18846  -0.404  10.053   8.573  0.2576 -0.4654 -0.4515
  862MOL0     C18847  -0.235   9.897   8.450  0.4045  0.2660  0.0137
  862MOL0     C18848  -0.222   9.993   8.345 -0.3563  0.6022  0.2683
  862MOL0     O18849  -0.173  10.119   8.374 -0.0389 -0.7116 -0.3601
  862MOL0     C18850  -0.190  10.226   8.278  0.4146  0.1938 -0.9031
  862MOL0     C18851  -0.301  10.306   8.290  0.1816 -0.4100  0.4013
  862MOL0     C18852  -0.340  10.404   8.200 -0.1985 -0.1040  0.9985
  862MOL0     C18853  -0.251  10.442   8.100 -0.4362 -0.4702 -0.0777
  862MOL0     O18854  -0.291  10.552   8.022 -0.3012 -1.1370  0.3962
  862MOL0     C18855  -0.178  10.637   7.974 -0.1925  0.0001  0.1362
  862MOL0     C18856  -0.225  10.763   7.901 -1.1129  0.1852  0.4747
  862MOL0     C18857  -0.281  10.864   8.000  0.5648  0.5354  0.0732
  862MOL0     C18858  -0.180  10.971   8.035  0.0833  0.0591 -1.2102
  862MOL0     C18859  -0.228  11.112   7.993 -0.4888 -0.2643  1.3706
  862MOL0     C18860  -0.248  11.127   7.838  0.1219 -0.7270 -0.4344
  862MOL0     C18861  -0.316  11.270   7.811 -0.7095  0.3353 -0.5984
  862MOL0     C18862  -0.223  11.380   7.860  0.5023  0.0183 -0.0266
  862MOL0    Cl18863  -0.299  11.536   7.843  0.5477  0.0663 -0.0428
  862MOL0     C18864  -0.127  10.369   8.088 -0.8963  0.2027  0.3412
  862MOL0     C18865  -0.098  10.266   8.178 -0.8889  0.1501  0.5064
  862MOL0     O18866  -0.242   9.952   8.235 -0.2504  0.1442  0.2846
  862MOL0     C18867  -0.190   9.771   8.432 -0.1718  0.5091  0.0504
  862MOL0     C18868  -0.205   9.675   8.530  0.5208  0.1658  0.9163
  862MOL0     N18869   0.140   9.707   9.247 -1.2637 -0.0517 -0.5353
  862MOL0     N18870   0.170   9.623   9.338  1.2728 -1.5969  0.2326
  862MOL0     C18871   0.167   9.205   8.792 -0.1843  0.5966 -0.1581
  862MOL0     C18872   0.192   9.250   8.660 -0.1162  0.2242 -0.1621
  862MOL0     C18873   0.172   9.458   8.276 -0.6241 -1.0192 -0.0745
  862MOL0     C18874   0.125   9.366   8.191  0.6622  0.6199 -0.1417
  862MOL0     C18875   0.126   9.395   8.057  0.4827 -0.0347 -0.2419
  862MOL0     C18876   0.190   9.514   8.002  0.7587  0.7252 -0.0831
  862MOL0     O18877   0.195   9.559   7.877  0.5149  0.8802 -0.0585
  862MOL0     C18878   0.147   9.479   7.768 -0.4640 -0.6535  0.7382
  862MOL0     C18879   0.238   9.363   7.727  0.5421  0.1688  1.0881
  862MOL0     C18880   0.367   9.416   7.675  1.0055 -0.0354 -0.0901
  862MOL0     C18881   0.481   9.447   7.772 -0.0957 -0.4591  0.2995
  862MOL0     C18882   0.611   9.431   7.713  0.0952 -0.6618  0.0759
  862MOL0     C18883   0.714   9.392   7.653 -0.0996  0.0242 -0.4437
  862MOL0     C18884   0.247   9.594   8.097 -0.0315 -0.4426 -0.0733
  862MOL0     C18885   0.225   9.577   8.232  0.2374 -0.0952  0.8081
  862MOL0     C18886   0.264   9.693   8.323  1.1047  0.0484  0.1904
  862MOL0     H18887  -0.127   9.397   8.641 -0.2258  1.1410  0.5420
  862MOL0     H18888  -0.146   9.293   8.866 -0.2391  0.1061  1.1736
  862MOL0     H18889   0.206   9.048   9.034 -0.6922 -0.1642 -1.4338
  862MOL0     H18890   0.081   8.971   8.943 -2.1402  2.3731 -2.3230
  862MOL0     H18891  -0.054   8.945   9.134  1.3520 -2.4600 -0.5604
  862MOL0     H18892   0.108   8.915   9.191 -2.7174 -1.8636 -2.2468
  862MOL0     H18893   0.127   9.132   9.299  1.7523 -4.4268 -1.6107
  862MOL0     H18894  -0.012   9.204   9.210  0.2071 -0.6967 -2.7086
  862MOL0     H18895  -0.166   9.040   9.338  0.5241 -4.1341  1.5751
  862MOL0     H18896  -0.012   8.969   9.404  0.1430 -1.1428 -1.8468
  862MOL0     H18897   0.033   9.187   9.518  1.0992 -2.0277 -0.9661
  862MOL0     H18898  -0.105   9.107   9.569 -3.9140  1.7376 -0.0221
  862MOL0     H18899  -0.131   9.311   9.341 -0.9216 -2.3945 -1.2699
  862MOL0     H18900  -0.246   9.285   9.469 -0.9248  2.4115  2.3310
  862MOL0     H18901  -0.115   9.405   9.630  1.2550 -2.0242 -1.3390
  862MOL0     H18902  -0.173   9.498   9.490  1.9177  1.1123 -2.4890
  862MOL0     H18903   0.086   9.526   9.576  1.1337 -3.3240  1.3951
  862MOL0     H18904   0.104   9.392   9.467 -3.3455 -2.7247  1.0018
  862MOL0     H18905  -0.162   9.582   9.307 -0.0095  0.6815  1.9966
  862MOL0     H18906  -0.013   9.826   9.051  1.5494 -2.6929 -1.0512
  862MOL0     H18907  -0.146   9.834   9.177  1.4355  2.0976 -1.3725
  862MOL0     H18908  -0.103   9.646   8.938 -0.2402  0.6133  0.0077
  862MOL0     H18909  -0.192   9.599   9.090  0.8960  0.6848  1.3205
  862MOL0     H18910  -0.381   9.712   9.057 -2.2785  2.1819 -0.8132
  862MOL0     H18911  -0.334   9.823   8.951 -1.0810 -0.1387 -1.3999
  862MOL0     H18912  -0.389   9.521   8.894  0.0831  0.9473 -0.8478
  862MOL0     H18913  -0.470   9.663   8.829  1.0576  2.5838 -1.3677
  862MOL0     H18914  -0.369   9.859   8.757  2.3870  2.7117  0.6367
  862MOL0     H18915  -0.502  10.053   8.525 -0.4960 -0.5734  1.0173
  862MOL0     H18916  -0.352  10.143   8.539 -1.5200  1.5133  1.6824
  862MOL0     H18917  -0.419  10.074   8.679 -0.1622 -0.3573 -0.5309
  862MOL0     H18918  -0.376  10.288   8.366  0.4554 -0.2021  0.7214
  862MOL0     H18919  -0.435  10.454   8.212 -1.5131 -1.9608 -0.8934
  862MOL0     H18920  -0.108  10.669   8.051 -0.0314  2.0992 -0.8246
  862MOL0     H18921  -0.135  10.573   7.897 -2.0841  0.1646 -1.1259
  862MOL0     H18922  -0.138  10.810   7.855 -0.9267  0.3466  0.9867
  862MOL0     H18923  -0.294  10.730   7.823 -2.7663 -2.9832  3.0618
  862MOL0     H18924  -0.307  10.819   8.096  2.5140  3.5456  2.1994
  862MOL0     H18925  -0.371  10.916   7.966  2.2669  3.2714 -0.5795
  862MOL0     H18926  -0.079  10.948   8.000  0.7013 -0.8183  1.0144
  862MOL0     H18927  -0.163  10.975   8.143  1.0156  1.0788 -1.3855
  862MOL0     H18928  -0.321  11.139   8.044 -1.9262 -3.3743  0.6050
  862MOL0     H18929  -0.142  11.175   8.019 -0.8634  0.1919  1.5259
  862MOL0     H18930  -0.316  11.053   7.795  0.1985 -0.1728 -1.5545
  862MOL0     H18931  -0.148  11.119   7.793  1.2084  2.6685  1.0681
  862MOL0     H18932  -0.410  11.273   7.867  0.8591 -0.0333  2.2685
  862MOL0     H18933  -0.332  11.285   7.704  1.0726  2.5226 -0.6259
  862MOL0     H18934  -0.129  11.369   7.806  1.8425  0.1779  2.2032
  862MOL0     H18935  -0.204  11.355   7.964  0.9657 -1.3691 -0.4245
  862MOL0     H18936  -0.073  10.404   8.001 -1.8071  2.5148  0.6315
  862MOL0     H18937   0.001  10.221   8.178 -0.6182  0.7211  1.4190
  862MOL0     H18938  -0.157   9.747   8.331 -3.5521  4.1908 -2.2366
  862MOL0     H18939  -0.180   9.572   8.505  0.6104  0.0910  1.3019
  862MOL0     H18940   0.246   9.148   8.841 -0.5754 -1.6052 -1.9033
  862MOL0     H18941   0.286   9.232   8.610  1.1181 -0.5133  2.2780
  862MOL0     H18942   0.085   9.273   8.231  1.6117 -0.0660 -0.7720
  862MOL0     H18943   0.075   9.326   7.991  0.1352 -0.9471  0.9466
  862MOL0     H18944   0.049   9.443   7.802 -0.8017 -1.6371 -1.0888
  862MOL0     H18945   0.136   9.540   7.678 -1.5408 -2.1168 -0.1803
  862MOL0     H18946   0.194   9.317   7.637  2.2430  0.9371 -0.2009
  862MOL0     H18947   0.246   9.285   7.802 -3.2583 -1.4113  0.0782
  862MOL0     H18948   0.408   9.338   7.610  0.0218 -1.3966  0.8651
  862MOL0     H18949   0.352   9.508   7.618  1.7797 -1.5606 -2.9527
  862MOL0     H18950   0.464   9.380   7.857 -0.4859 -4.0260 -2.3935
  862MOL0     H18951   0.487   9.553   7.801  1.7509 -0.6740  0.8273
  862MOL0     H18952   0.805   9.342   7.628 -1.3536 -1.2565 -2.6959
  862MOL0     H18953   0.289   9.686   8.057  0.0724 -0.2395  0.4877
  862MOL0     H18954   0.370   9.695   8.353  0.2963  0.4048  3.4911
  862MOL0     H18955   0.247   9.793   8.282 -0.2570  1.2471  3.3601
  862MOL0     H18956   0.199   9.694   8.411 -2.2479  3.3008 -2.0137
  863MOL0     O18957   7.237   4.303   1.063  0.9137  0.4627  0.1658
  863MOL0     C18958   7.333   4.378   1.081  0.4868 -0.0854 -0.3983
  863MOL0     O18959   7.438   4.354   1.165 -0.4363 -0.3730  0.3869
  863MOL0     C18960   7.422   4.268   1.278  0.3604 -0.3992 -0.0736
  863MOL0     C18961   7.537   4.182   1.293 -0.1003 -0.3886 -0.3784
  863MOL0     C18962   7.540   4.093   1.408 -0.1891  0.8836 -0.3414
  863MOL0     C18963   7.429   4.090   1.498 -0.3140  0.1798 -0.2497
  863MOL0     O18964   7.423   4.019   1.623  0.3592  0.9257  0.7844
  863MOL0     C18965   7.372   3.878   1.616  0.5851  0.4551  0.2559
  863MOL0     C18966   7.290   3.834   1.730  0.6473 -0.9018 -0.1594
  863MOL0     C18967   7.187   3.936   1.768  1.1812  0.0850 -0.6160
  863MOL0     C18968   7.084   3.905   1.872 -0.4312  0.4231  1.0735
  863MOL0     C18969   7.007   4.018   1.926  0.6409 -1.1041 -0.2746
  863MOL0     C18970   6.916   3.982   2.051  0.0108  0.2753  0.2082
  863MOL0     C18971   6.997   3.938   2.165 -0.7488 -0.4586  0.5332
  863MOL0     C18972   6.906   3.926   2.294 -0.1168 -0.0061 -0.7128
  863MOL0     N18973   6.978   3.902   2.420  0.0738 -0.0057 -0.6658
  863MOL0     C18974   6.938   3.811   2.521 -0.4513 -0.5922  1.2053
  863MOL0     C18975   7.044   3.816   2.611  0.3482  0.4162  0.0036
  863MOL0     C18976   7.057   3.733   2.738  0.5621 -0.3657  0.1132
  863MOL0     C18977   6.985   3.800   2.860 -0.3545  0.5979  0.8688
  863MOL0     C18978   6.835   3.799   2.838 -0.6559 -0.6812  0.3776
  863MOL0     C18979   6.758   3.807   2.972  0.3543  0.1901  0.9977
  863MOL0     O18980   6.794   3.686   3.040 -0.4510  0.1033 -0.3764
  863MOL0     C18981   6.714   3.581   3.043  0.6527  0.1282 -0.1467
  863MOL0     C18982   6.741   3.495   3.149 -0.0914 -0.1455  0.9990
  863MOL0     C18983   6.665   3.377   3.149 -0.5834 -0.0207  0.5449
  863MOL0     C18984   6.721   3.268   3.246  0.0637  0.3568  0.7408
  863MOL0     C18985   6.556   3.357   3.058  0.4675 -0.2061  0.9368
  863MOL0     C18986   6.483   3.229   3.066 -1.1640 -0.2555  0.3622
  863MOL0     O18987   6.440   3.190   3.188 -1.0144  0.7071 -0.2176
  863MOL0     C18988   6.420   3.054   3.206  0.5515  0.1072 -0.6769
  863MOL0     C18989   6.491   2.987   3.309 -0.6140 -0.8710  0.1115
  863MOL0     C18990   6.487   2.852   3.326  0.3217 -1.0928 -0.0745
  863MOL0     C18991   6.398   2.770   3.248  0.8147  0.2052 -0.1895
  863MOL0     O18992   6.366   2.635   3.258 -0.8848 -0.2327  0.5591
  863MOL0     C18993   6.461   2.543   3.326  0.2942  0.0431  0.0798
  863MOL0     C18994   6.422   2.399   3.282  0.3921  0.1030 -0.4074
  863MOL0     C18995   6.470   2.308   3.385 -0.7774 -0.1254 -0.6577
  863MOL0     C18996   6.467   2.161   3.333  0.3115 -0.0849 -0.1610
  863MOL0     C18997   6.593   2.093   3.367  0.4355  0.2089 -0.6147
  863MOL0     C18998   6.601   1.951   3.323  0.4016  0.2550 -0.3314
  863MOL0     C18999   6.679   1.870   3.422  0.5564 -0.1089 -0.5565
  863MOL0     C19000   6.615   1.843   3.557  0.3353 -0.4744 -0.0601
  863MOL0    Cl19001   6.732   1.739   3.644 -0.3672  0.2091  0.0920
  863MOL0     C19002   6.314   2.841   3.157 -0.1406 -0.3241  1.3804
  863MOL0     C19003   6.323   2.983   3.134 -0.1868 -0.8795 -0.5004
  863MOL0     O19004   6.471   3.168   2.961 -0.0746 -0.1602  0.0752
  863MOL0     C19005   6.525   3.455   2.961 -0.0249 -0.4685  0.3513
  863MOL0     C19006   6.604   3.568   2.954 -0.1766  0.0849 -0.6186
  863MOL0     N19007   7.149   3.898   2.564  0.6097 -0.5316  0.1212
  863MOL0     N19008   7.107   3.939   2.452  0.7500  0.6409 -0.7471
  863MOL0     C19009   7.321   4.167   1.470  0.4348  0.0669  0.2786
  863MOL0     C19010   7.312   4.260   1.366 -0.5605 -0.4347  0.9138
  863MOL0     C19011   7.344   4.512   1.004 -0.3165 -0.3903  1.0528
  863MOL0     C19012   7.470   4.567   0.982 -0.6516 -0.3223 -0.4292
  863MOL0     C19013   7.482   4.700   0.934  0.2006 -0.3781 -0.1643
  863MOL0     C19014   7.374   4.787   0.912 -1.2021  0.6888 -0.2579
  863MOL0     O19015   7.417   4.910   0.880 -0.1122 -0.0251 -0.0451
  863MOL0     C19016   7.318   4.999   0.814 -0.4707 -0.0813  0.0928
  863MOL0     C19017   7.291   4.937   0.671  0.2538  0.8728  0.2073
  863MOL0     C19018   7.203   5.034   0.574 -0.2934  0.1137  0.3238
  863MOL0     C19019   7.197   4.992   0.423  0.0000  0.4726  0.8338
  863MOL0     C19020   7.186   5.110   0.341 -0.3183 -0.1511  0.1421
  863MOL0     C19021   7.184   5.203   0.265 -0.5686  0.4561 -0.2379
  863MOL0     C19022   7.250   4.731   0.943 -0.2224 -0.0415  0.5848
  863MOL0     C19023   7.236   4.599   0.988  0.3686 -0.0374 -0.4391
  863MOL0     C19024   7.090   4.567   1.019 -0.3835  0.4311 -0.0565
  863MOL0     H19025   7.623   4.192   1.228  2.1682  2.3891  2.8018
  863MOL0     H19026   7.621   4.026   1.434 -2.1033 -0.9100  1.4647
  863MOL0     H19027   7.457   3.810   1.603  0.9286  0.7968  0.6697
  863MOL0     H19028   7.316   3.869   1.522  2.2843 -1.3319 -0.6543
  863MOL0     H19029   7.257   3.730   1.720 -2.0178 -0.0133 -1.5060
  863MOL0     H19030   7.353   3.830   1.819 -2.2536 -0.7285  2.0489
  863MOL0     H19031   7.229   4.030   1.804 -4.0698  1.7109  2.4065
  863MOL0     H19032   7.126   3.967   1.683 -1.0615 -2.0942  0.0535
  863MOL0     H19033   7.013   3.834   1.830  0.4911 -0.4347  0.9290
  863MOL0     H19034   7.138   3.849   1.949  2.6742 -1.3363 -2.0671
  863MOL0     H19035   6.940   4.052   1.847 -0.1746  3.5539  2.0799
  863MOL0     H19036   7.076   4.099   1.952 -0.5450  0.3812 -1.5702
  863MOL0     H19037   6.858   4.074   2.064  0.7670  1.0175 -1.3054
  863MOL0     H19038   6.848   3.900   2.025 -0.0884 -0.0531  1.4617
  863MOL0     H19039   7.085   4.002   2.180  0.1044 -1.7550  1.2064
  863MOL0     H19040   7.042   3.840   2.145 -1.2462 -0.2438 -1.9547
  863MOL0     H19041   6.840   4.008   2.323  0.3459 -0.1114  0.7168
  863MOL0     H19042   6.844   3.839   2.270  0.7741  0.3196 -4.9817
  863MOL0     H19043   6.846   3.753   2.518 -1.5040  1.0797 -0.7318
  863MOL0     H19044   7.161   3.719   2.770 -0.6474  1.1277  5.7203
  863MOL0     H19045   7.003   3.640   2.716  0.4664 -0.0802 -0.9103
  863MOL0     H19046   7.006   3.736   2.946  1.6139  0.3996  0.2961
  863MOL0     H19047   7.016   3.904   2.869  3.5564 -0.4262  0.9229
  863MOL0     H19048   6.806   3.883   2.774  0.2330 -1.5060 -1.1491
  863MOL0     H19049   6.812   3.707   2.784  0.0490  0.8372 -2.7014
  863MOL0     H19050   6.798   3.888   3.034  1.1696 -0.0979  0.8671
  863MOL0     H19051   6.654   3.834   2.955 -0.6481 -3.2441  0.9663
  863MOL0     H19052   6.806   3.515   3.234  0.1742  2.1304  0.3174
  863MOL0     H19053   6.798   3.299   3.317  0.7874  1.2183 -0.3842
  863MOL0     H19054   6.765   3.187   3.188 -1.0079  0.6688 -0.5697
  863MOL0     H19055   6.637   3.228   3.303 -1.0902  0.7178 -0.6227
  863MOL0     H19056   6.566   3.044   3.363 -1.7211 -1.1243  1.9898
  863MOL0     H19057   6.553   2.793   3.389  0.7818 -0.6710 -0.1520
  863MOL0     H19058   6.565   2.572   3.305 -0.3623  2.4440 -0.1522
  863MOL0     H19059   6.448   2.557   3.433 -1.6375  3.3889 -0.4560
  863MOL0     H19060   6.313   2.389   3.288  0.3006  0.5178 -1.2292
  863MOL0     H19061   6.458   2.382   3.181 -1.1555 -2.3714 -0.6323
  863MOL0     H19062   6.411   2.311   3.477  1.8383 -1.8534  1.2352
  863MOL0     H19063   6.576   2.323   3.408 -0.8794 -1.1702  0.6069
  863MOL0     H19064   6.455   2.176   3.226 -1.0749  0.2462  0.0278
  863MOL0     H19065   6.386   2.100   3.374 -0.1573 -0.2654 -1.3206
  863MOL0     H19066   6.669   2.151   3.315 -0.7387  3.1213  0.7100
  863MOL0     H19067   6.624   2.096   3.472 -4.2215  1.9500  0.9659
  863MOL0     H19068   6.649   1.934   3.226 -0.7034  1.3461 -1.0965
  863MOL0     H19069   6.502   1.905   3.309  0.6304 -0.3960  0.1380
  863MOL0     H19070   6.775   1.917   3.442  1.6407 -0.8618 -3.4903
  863MOL0     H19071   6.694   1.767   3.388  1.1740 -0.4847  0.7616
  863MOL0     H19072   6.514   1.803   3.543  0.5891 -1.3772  0.6043
  863MOL0     H19073   6.600   1.928   3.625 -1.7295 -2.7074  2.4694
  863MOL0     H19074   6.235   2.785   3.109 -0.0693  3.6910 -4.5935
  863MOL0     H19075   6.278   3.036   3.050  0.9793  1.7212  0.3931
  863MOL0     H19076   6.458   3.431   2.879  2.2837 -0.4726 -1.6319
  863MOL0     H19077   6.588   3.630   2.867 -0.1949 -0.2267 -0.8392
  863MOL0     H19078   7.247   4.170   1.549 -1.6630 -0.0507 -1.5822
  863MOL0     H19079   7.222   4.318   1.346  0.4220 -0.1686 -3.7313
  863MOL0     H19080   7.560   4.507   0.994 -0.1666  0.1097 -1.7272
  863MOL0     H19081   7.582   4.723   0.899  0.2196  1.9460  1.2406
  863MOL0     H19082   7.230   5.005   0.878  0.9373 -0.0134  2.1363
  863MOL0     H19083   7.350   5.102   0.797  1.9786 -0.1305  3.3051
  863MOL0     H19084   7.254   4.835   0.666 -0.0791  0.9959  0.1384
  863MOL0     H19085   7.388   4.931   0.621  0.6942  2.1597  0.8367
  863MOL0     H19086   7.104   5.044   0.619  0.1686  1.2156  1.1251
  863MOL0     H19087   7.250   5.131   0.592  4.9016 -1.7044 -1.5622
  863MOL0     H19088   7.109   4.931   0.399 -0.0975  1.1400 -0.6186
  863MOL0     H19089   7.289   4.937   0.401  0.8784  2.3689 -0.5318
  863MOL0     H19090   7.167   5.294   0.211 -1.9755  1.6725  2.0882
  863MOL0     H19091   7.161   4.789   0.927  1.6090  2.5290 -1.0390
  863MOL0     H19092   7.040   4.513   0.939  0.3640  1.4336 -1.2436
  863MOL0     H19093   7.078   4.505   1.108  0.1990 -1.9944 -1.6002
  863MOL0     H19094   7.042   4.663   1.042  1.7283  1.0355  2.1860
  864MOL0     O19095   6.335   6.359   2.206  0.3751 -0.1205  0.1697
  864MOL0     C19096   6.314   6.248   2.165  0.3234 -0.0799  0.2993
  864MOL0     O19097   6.364   6.197   2.051 -0.2007  0.0974 -0.4031
  864MOL0     C19098   6.477   6.251   2.006 -0.4028  0.3302  0.4951
  864MOL0     C19099   6.593   6.279   2.086 -1.1850 -0.4033  0.2351
  864MOL0     C19100   6.708   6.330   2.016 -0.2622 -0.2593 -0.7575
  864MOL0     C19101   6.716   6.340   1.880 -0.2764  0.0310  0.8262
  864MOL0     O19102   6.837   6.402   1.834 -0.3104  0.0994  0.6465
  864MOL0     C19103   6.824   6.512   1.737 -0.0549  0.2132  0.0141
  864MOL0     C19104   6.736   6.629   1.788 -0.4276 -1.1337 -0.1022
  864MOL0     C19105   6.787   6.694   1.920 -0.0346  0.1977  0.0618
  864MOL0     C19106   6.701   6.805   1.977 -0.0917  0.7975  0.7297
  864MOL0     C19107   6.548   6.779   1.990 -0.6587 -0.1723 -1.1112
  864MOL0     C19108   6.501   6.677   2.079  0.9313 -0.0239  0.7402
  864MOL0     C19109   6.354   6.658   2.078  0.6036 -0.1964 -0.2140
  864MOL0     C19110   6.287   6.584   1.965 -0.3674 -0.7101 -0.2619
  864MOL0     N19111   6.134   6.578   1.981 -0.1372 -0.0913  0.8791
  864MOL0     C19112   6.068   6.602   2.103 -0.3924  0.1591 -0.9867
  864MOL0     C19113   5.938   6.613   2.075  0.2557 -0.6019 -0.3064
  864MOL0     C19114   5.837   6.644   2.185  0.8969  0.0419 -0.5094
  864MOL0     C19115   5.694   6.691   2.138  0.2592  0.9483 -0.1420
  864MOL0     C19116   5.570   6.620   2.199  0.0335 -0.5155 -0.6251
  864MOL0     C19117   5.435   6.664   2.166  0.5700 -0.8382  0.0424
  864MOL0     O19118   5.344   6.631   2.280  0.7346  0.2536  0.6126
  864MOL0     C19119   5.213   6.634   2.238 -0.3703  0.0269 -0.7128
  864MOL0     C19120   5.154   6.676   2.117 -0.1019 -0.9601  0.3726
  864MOL0     C19121   5.015   6.694   2.095 -0.6597 -0.3336 -0.4149
  864MOL0     C19122   4.956   6.757   1.971  0.8256 -0.1787 -0.7296
  864MOL0     C19123   4.932   6.656   2.207 -0.1715 -0.4585  0.4613
  864MOL0     C19124   4.784   6.681   2.213 -0.0542 -0.1166  0.5488
  864MOL0     O19125   4.737   6.799   2.156 -0.7997  0.6069 -0.1785
  864MOL0     C19126   4.611   6.838   2.190 -0.9249 -0.0798  0.1880
  864MOL0     C19127   4.581   6.921   2.297  0.4102  0.3459 -0.0025
  864MOL0     C19128   4.454   6.971   2.312  0.4492  0.8544 -0.2780
  864MOL0     C19129   4.349   6.928   2.225  0.0337  0.8863 -0.7967
  864MOL0     O19130   4.213   6.953   2.254 -0.5752 -0.7815  0.0685
  864MOL0     C19131   4.176   7.014   2.381 -0.7819  0.3291  0.1777
  864MOL0     C19132   4.019   7.005   2.389  0.6041 -0.3195  0.2804
  864MOL0     C19133   3.951   7.076   2.264  0.9033 -0.4715  0.1583
  864MOL0     C19134   3.812   7.033   2.249 -0.7299  0.0383  0.5298
  864MOL0     C19135   3.744   7.130   2.143  0.1075  0.6729 -0.1360
  864MOL0     C19136   3.591   7.113   2.160  0.0277 -0.1353  0.1315
  864MOL0     C19137   3.510   7.191   2.054  0.1408  0.0193 -0.5424
  864MOL0     C19138   3.358   7.166   2.086 -1.0807 -1.0808  0.7351
  864MOL0    Cl19139   3.314   6.999   2.078 -0.6132  0.5528  0.1967
  864MOL0     C19140   4.385   6.838   2.121 -0.5324 -0.8970 -0.6976
  864MOL0     C19141   4.513   6.796   2.099 -0.7136  0.0239  0.2240
  864MOL0     O19142   4.719   6.605   2.284 -0.3629 -0.4387  0.5329
  864MOL0     C19143   4.996   6.614   2.333 -0.0634  0.1645  0.4003
  864MOL0     C19144   5.130   6.600   2.342 -0.7193  0.7981  0.1494
  864MOL0     N19145   5.915   6.615   1.939 -0.7033 -0.6860 -0.9807
  864MOL0     N19146   6.033   6.579   1.890 -0.3153  0.4650 -0.7541
  864MOL0     C19147   6.605   6.299   1.809 -0.3474  0.8936 -0.8895
  864MOL0     C19148   6.486   6.251   1.873 -0.1051 -1.0697  0.0669
  864MOL0     C19149   6.215   6.163   2.237  0.1053 -0.5955  0.5836
  864MOL0     C19150   6.092   6.217   2.264  0.3329 -0.2418 -0.8632
  864MOL0     C19151   5.985   6.133   2.301  0.1126 -0.6857 -0.4622
  864MOL0     C19152   6.010   5.995   2.314  0.3980 -0.6498  0.3682
  864MOL0     O19153   5.918   5.900   2.353  1.1190 -0.1531 -0.2775
  864MOL0     C19154   5.785   5.940   2.381  0.5330  0.9319  1.2019
  864MOL0     C19155   5.699   5.838   2.457  0.2267  0.0092  0.2930
  864MOL0     C19156   5.767   5.695   2.453 -0.5056  0.2109 -0.0600
  864MOL0     C19157   5.660   5.593   2.484  0.3065  0.6436 -0.3668
  864MOL0     C19158   5.718   5.455   2.524  0.7930  0.5477  0.7437
  864MOL0     C19159   5.739   5.337   2.535 -0.1283  0.3021 -0.6946
  864MOL0     C19160   6.141   5.948   2.300 -0.7932 -0.3850 -0.1245
  864MOL0     C19161   6.245   6.030   2.258 -0.0175  0.3021 -0.5319
  864MOL0     C19162   6.388   5.974   2.238  0.0682  0.4599 -1.6901
  864MOL0     H19163   6.610   6.268   2.192  1.2135 -3.9001 -0.3248
  864MOL0     H19164   6.789   6.368   2.079 -0.0069 -1.7654 -0.1123
  864MOL0     H19165   6.787   6.471   1.642  0.1106  2.7765 -1.2337
  864MOL0     H19166   6.927   6.545   1.723 -0.3218  0.8882 -0.3655
  864MOL0     H19167   6.730   6.711   1.716 -2.7251  0.9018  2.2094
  864MOL0     H19168   6.635   6.593   1.809 -0.8016  0.7728  1.7190
  864MOL0     H19169   6.792   6.619   2.000 -0.1468  0.8578  0.6981
  864MOL0     H19170   6.890   6.732   1.920  0.6750 -1.5782  1.6222
  864MOL0     H19171   6.739   6.832   2.076  1.1458 -3.8423  1.7472
  864MOL0     H19172   6.713   6.886   1.904 -0.4661 -0.9582 -1.3913
  864MOL0     H19173   6.505   6.760   1.891 -0.2049 -3.7009 -0.7408
  864MOL0     H19174   6.497   6.872   2.017 -0.0282  0.1355 -0.9574
  864MOL0     H19175   6.540   6.578   2.055 -2.9010 -1.4935 -0.1828
  864MOL0     H19176   6.524   6.716   2.179 -0.2319  2.2699  0.1752
  864MOL0     H19177   6.313   6.758   2.094  0.9744 -0.4800  3.2828
  864MOL0     H19178   6.324   6.608   2.170  1.5003  0.5390  0.5019
  864MOL0     H19179   6.316   6.633   1.871 -0.6090  1.6238  0.7897
  864MOL0     H19180   6.331   6.484   1.969 -0.8049 -0.9162 -0.5865
  864MOL0     H19181   6.111   6.586   2.202  1.0355  2.3069 -1.1986
  864MOL0     H19182   5.884   6.725   2.241 -0.5866  1.3798 -1.1372
  864MOL0     H19183   5.830   6.554   2.247  1.9506  1.4221  1.7117
  864MOL0     H19184   5.691   6.795   2.171  0.8497  0.1000  2.9274
  864MOL0     H19185   5.682   6.677   2.030  2.4361  0.6040 -0.3959
  864MOL0     H19186   5.593   6.514   2.187  0.1558 -0.5035 -0.5038
  864MOL0     H19187   5.583   6.647   2.304  0.9641  4.1935 -1.7566
  864MOL0     H19188   5.439   6.772   2.148  3.5868 -0.8586  0.0143
  864MOL0     H19189   5.388   6.620   2.078 -0.3146 -3.7454  1.8270
  864MOL0     H19190   5.219   6.716   2.040  1.9616 -3.6680  0.5608
  864MOL0     H19191   4.854   6.724   1.949  0.5404 -0.0745  0.3641
  864MOL0     H19192   5.024   6.729   1.890  1.0577 -1.3164 -0.1671
  864MOL0     H19193   4.959   6.865   1.982 -1.1558 -0.1050 -0.6219
  864MOL0     H19194   4.664   6.950   2.360  1.0539 -3.4943  1.1519
  864MOL0     H19195   4.428   7.049   2.382  1.5529  3.1028 -2.2196
  864MOL0     H19196   4.230   6.973   2.467  0.6800 -0.0895 -0.9167
  864MOL0     H19197   4.198   7.121   2.377  1.1457 -0.0699 -3.5752
  864MOL0     H19198   3.970   6.911   2.414 -2.3958  2.1279  5.0435
  864MOL0     H19199   3.993   7.063   2.478 -0.6259  1.1939 -1.0163
  864MOL0     H19200   4.011   7.065   2.172  4.7495  1.2086  2.2205
  864MOL0     H19201   3.933   7.182   2.283 -1.9293 -1.1071  1.5264
  864MOL0     H19202   3.754   7.032   2.341 -0.6778 -1.1214  0.5627
  864MOL0     H19203   3.821   6.930   2.215  2.6381 -0.8648  3.5932
  864MOL0     H19204   3.765   7.236   2.159 -1.1370  0.9462 -0.2027
  864MOL0     H19205   3.774   7.101   2.042  1.9580  1.5795  0.1220
  864MOL0     H19206   3.563   7.164   2.252  1.7526 -0.3592  0.8290
  864MOL0     H19207   3.565   7.007   2.171 -2.0064  0.0372 -2.1315
  864MOL0     H19208   3.528   7.136   1.961  3.0868 -0.6831  0.3221
  864MOL0     H19209   3.531   7.298   2.044  1.7754 -0.4226 -2.4774
  864MOL0     H19210   3.297   7.215   2.009  1.2274  1.0373  0.1167
  864MOL0     H19211   3.336   7.211   2.183  4.2729 -0.4522  1.9743
  864MOL0     H19212   4.299   6.806   2.064 -1.4029  1.4179 -0.7737
  864MOL0     H19213   4.536   6.721   2.024  2.0594  0.3882  0.5969
  864MOL0     H19214   4.938   6.596   2.423  0.0847  0.0209  0.4671
  864MOL0     H19215   5.158   6.566   2.441 -0.6734 -1.5000 -0.5785
  864MOL0     H19216   6.614   6.293   1.701  0.3472 -0.7458 -0.7687
  864MOL0     H19217   6.397   6.228   1.815 -2.0158 -0.2632  2.4915
  864MOL0     H19218   6.082   6.320   2.232 -0.4659 -0.4487 -1.3182
  864MOL0     H19219   5.893   6.185   2.325  2.3089  2.6517  1.6614
  864MOL0     H19220   5.780   6.027   2.447  0.2256  0.4938  1.7622
  864MOL0     H19221   5.728   5.957   2.289  0.0764 -2.7684  0.6678
  864MOL0     H19222   5.602   5.832   2.406  0.2881 -0.3489  0.2212
  864MOL0     H19223   5.687   5.876   2.559 -4.8714  0.3304 -0.1714
  864MOL0     H19224   5.810   5.675   2.355 -2.6330 -1.3426 -0.7481
  864MOL0     H19225   5.839   5.693   2.535 -0.7418 -0.8856  0.1338
  864MOL0     H19226   5.594   5.597   2.397  1.7399  1.7429 -1.4648
  864MOL0     H19227   5.599   5.619   2.571  0.2238 -1.3961  0.2380
  864MOL0     H19228   5.754   5.231   2.545 -0.9197  0.2712  0.3096
  864MOL0     H19229   6.144   5.842   2.323  1.2700 -0.2434  0.4640
  864MOL0     H19230   6.425   5.965   2.341 -1.2441  3.0735 -0.8835
  864MOL0     H19231   6.381   5.878   2.187  0.7404  1.5099 -3.8793
  864MOL0     H19232   6.455   6.045   2.189  1.2959  0.0817 -0.6127
  865MOL0     O19233   3.298   5.589   8.128 -0.7588  0.5952  0.2040
  865MOL0     C19234   3.302   5.705   8.117 -0.0082 -1.7016  0.0005
  865MOL0     O19235   3.366   5.793   8.209 -0.3362  0.2887 -0.2872
  865MOL0     C19236   3.429   5.758   8.331  0.1671 -0.2671  0.2330
  865MOL0     C19237   3.520   5.846   8.395 -0.0778 -0.4617  1.2281
  865MOL0     C19238   3.597   5.799   8.500 -0.7614  0.2577  1.2048
  865MOL0     C19239   3.584   5.669   8.549  0.2286  0.3479 -0.4147
  865MOL0     O19240   3.682   5.626   8.636 -0.5808 -0.3025  0.2256
  865MOL0     C19241   3.663   5.503   8.702 -1.1230  0.2026  1.2138
  865MOL0     C19242   3.795   5.454   8.774 -0.5654 -0.1765 -1.1714
  865MOL0     C19243   3.772   5.329   8.864  0.8980 -0.7517 -0.3821
  865MOL0     C19244   3.770   5.192   8.801  0.5297  0.6569  0.1413
  865MOL0     C19245   3.633   5.120   8.822  0.4245  0.0260 -0.2031
  865MOL0     C19246   3.617   4.989   8.748 -0.8776 -0.3317  0.1866
  865MOL0     C19247   3.652   5.000   8.605 -0.0679 -0.3799  0.2531
  865MOL0     C19248   3.593   4.900   8.500  0.3319  0.5321 -0.3458
  865MOL0     N19249   3.648   4.764   8.541  1.5704  0.2416 -0.1215
  865MOL0     C19250   3.769   4.708   8.527 -0.5413 -0.8057  0.5565
  865MOL0     C19251   3.758   4.583   8.584 -0.3485 -0.7384  0.1183
  865MOL0     C19252   3.872   4.481   8.593  0.0597  0.1991 -0.0255
  865MOL0     C19253   3.836   4.358   8.505  0.5409 -1.0296 -0.0112
  865MOL0     C19254   3.914   4.365   8.363 -0.9316  1.1149 -0.4847
  865MOL0     C19255   3.876   4.478   8.267 -0.2799 -0.1738 -0.5411
  865MOL0     O19256   3.947   4.602   8.277 -0.7974  0.1252  0.6008
  865MOL0     C19257   4.067   4.622   8.207  0.1307  0.7143 -0.7757
  865MOL0     C19258   4.105   4.750   8.197 -0.3354 -0.7553  0.8762
  865MOL0     C19259   4.214   4.786   8.121  0.6074 -0.3377  0.3644
  865MOL0     C19260   4.254   4.931   8.137  0.3757 -0.0356  0.1324
  865MOL0     C19261   4.297   4.687   8.059  1.3618  1.0039 -0.4552
  865MOL0     C19262   4.414   4.723   7.967  0.4165  0.4133 -0.5467
  865MOL0     O19263   4.519   4.643   7.964 -0.0385  0.3624 -0.1451
  865MOL0     C19264   4.636   4.695   7.917 -0.7483 -0.3817  0.6258
  865MOL0     C19265   4.740   4.767   7.988 -0.0415 -0.2794  0.4561
  865MOL0     C19266   4.867   4.791   7.924 -0.7724 -0.2967 -0.2952
  865MOL0     C19267   4.882   4.791   7.785  0.1526  0.2535 -1.5394
  865MOL0     O19268   4.995   4.843   7.722 -0.4482  0.1006 -0.2598
  865MOL0     C19269   4.985   4.887   7.586 -0.3811  0.5723 -0.7662
  865MOL0     C19270   5.132   4.935   7.536 -0.5049  0.1498  0.2180
  865MOL0     C19271   5.178   5.051   7.621 -0.8749 -1.0099 -0.0211
  865MOL0     C19272   5.314   5.105   7.576 -0.2942 -0.3574 -0.5177
  865MOL0     C19273   5.320   5.242   7.628  0.3910  0.0724  0.2542
  865MOL0     C19274   5.290   5.330   7.507 -0.2884 -0.3503 -0.0864
  865MOL0     C19275   5.276   5.471   7.553 -0.2290 -0.5620 -0.4448
  865MOL0     C19276   5.403   5.551   7.577  0.4991  0.8206  0.4196
  865MOL0    Cl19277   5.352   5.724   7.591  0.0717  0.5082 -0.3632
  865MOL0     C19278   4.779   4.730   7.714 -0.7661  0.2801 -0.6546
  865MOL0     C19279   4.665   4.684   7.786  0.8063  0.5140 -0.1955
  865MOL0     O19280   4.404   4.827   7.902 -0.5778 -0.9566 -0.0063
  865MOL0     C19281   4.248   4.554   8.071 -0.6873 -0.0705  0.0182
  865MOL0     C19282   4.130   4.516   8.142  0.1875 -0.5987  0.5177
  865MOL0     N19283   3.630   4.576   8.617 -0.0371 -0.0142 -0.2712
  865MOL0     N19284   3.560   4.670   8.580  1.1721  0.4367  0.0055
  865MOL0     C19285   3.477   5.587   8.499  0.5921 -0.2304  0.2244
  865MOL0     C19286   3.405   5.633   8.388  0.3296  0.2992 -0.3327
  865MOL0     C19287   3.243   5.769   7.995  0.7979  0.6786 -0.9028
  865MOL0     C19288   3.249   5.912   7.979 -0.3295  0.3245  0.4539
  865MOL0     C19289   3.180   5.978   7.881  0.7678  0.7122 -0.0425
  865MOL0     C19290   3.106   5.905   7.786  0.0418 -0.0754  0.0103
  865MOL0     O19291   3.056   5.965   7.670 -0.1907 -0.5939 -0.5755
  865MOL0     C19292   3.062   6.105   7.647 -0.1541 -0.1773 -0.0685
  865MOL0     C19293   2.948   6.147   7.555 -0.3146 -1.1234 -0.5791
  865MOL0     C19294   2.955   6.077   7.424  0.5311 -0.1082  0.2030
  865MOL0     C19295   2.827   6.120   7.351  0.1059 -0.1680 -0.7399
  865MOL0     C19296   2.818   6.034   7.234 -0.3020  0.8273  0.4974
  865MOL0     C19297   2.809   5.961   7.136 -0.4165 -0.2132  0.0185
  865MOL0     C19298   3.101   5.767   7.802  1.1764 -0.7350  0.3187
  865MOL0     C19299   3.162   5.698   7.901 -0.0588  0.1182  0.0116
  865MOL0     C19300   3.138   5.549   7.899 -1.3486  0.4238 -0.3225
  865MOL0     H19301   3.534   5.937   8.338 -2.3681 -0.5772  0.3895
  865MOL0     H19302   3.669   5.868   8.543  0.4242 -0.4279  0.3626
  865MOL0     H19303   3.633   5.430   8.626  0.7764  3.9214 -3.6543
  865MOL0     H19304   3.586   5.517   8.778 -0.8648 -2.2438  2.0198
  865MOL0     H19305   3.887   5.431   8.719  0.8462  0.2680  0.8595
  865MOL0     H19306   3.833   5.538   8.834  0.5153  0.6793 -2.9576
  865MOL0     H19307   3.836   5.327   8.952 -1.4283 -0.8524  1.3865
  865MOL0     H19308   3.677   5.356   8.909  1.6618  1.3192  0.0772
  865MOL0     H19309   3.802   5.192   8.696  0.2838  0.7372  0.0641
  865MOL0     H19310   3.831   5.123   8.858  1.6029 -1.4785 -3.2672
  865MOL0     H19311   3.547   5.182   8.793 -0.5328 -1.3184 -0.3256
  865MOL0     H19312   3.613   5.097   8.927  2.1398  0.8910  0.3577
  865MOL0     H19313   3.686   4.919   8.796 -0.4758 -0.1456 -0.1146
  865MOL0     H19314   3.515   4.955   8.767 -1.4856  1.2823  0.0374
  865MOL0     H19315   3.760   4.999   8.589  0.1690  0.2053  1.6668
  865MOL0     H19316   3.606   5.096   8.578 -0.7263 -0.2963  1.6103
  865MOL0     H19317   3.484   4.905   8.508  0.2191  4.1015 -2.0094
  865MOL0     H19318   3.613   4.913   8.393  0.8244 -0.4508 -0.3777
  865MOL0     H19319   3.863   4.758   8.504 -2.3858  2.2358 -0.9566
  865MOL0     H19320   3.891   4.456   8.698  0.0793  0.1269 -0.0460
  865MOL0     H19321   3.959   4.522   8.541 -1.4727  1.0470 -2.0691
  865MOL0     H19322   3.866   4.268   8.561  0.1119 -1.6213 -0.7181
  865MOL0     H19323   3.731   4.356   8.474  2.0924 -0.8838 -6.6138
  865MOL0     H19324   4.022   4.357   8.378 -1.1909  1.3136  2.0970
  865MOL0     H19325   3.894   4.277   8.302 -0.1019  1.9976 -2.1046
  865MOL0     H19326   3.879   4.461   8.159  2.1129  2.0762 -0.9298
  865MOL0     H19327   3.773   4.508   8.291  1.0345  4.4403  0.3031
  865MOL0     H19328   4.045   4.831   8.237 -2.6713  0.1657 -3.7843
  865MOL0     H19329   4.289   4.983   8.047 -3.3065  3.0752  0.2512
  865MOL0     H19330   4.328   4.941   8.217 -1.0718 -2.5591  1.9258
  865MOL0     H19331   4.173   4.999   8.167  1.2003  1.6470 -1.2433
  865MOL0     H19332   4.740   4.777   8.096  1.9275  0.2838  0.4368
  865MOL0     H19333   4.930   4.842   7.996 -2.7110 -1.5387  2.4690
  865MOL0     H19334   4.966   4.796   7.527 -2.9992 -1.0058  2.2308
  865MOL0     H19335   4.900   4.953   7.569 -0.0480  1.3359  0.3954
  865MOL0     H19336   5.200   4.850   7.530 -2.5062 -1.5520  0.3868
  865MOL0     H19337   5.117   4.987   7.440 -0.3563  2.9862  1.6339
  865MOL0     H19338   5.191   5.044   7.729  2.4701 -1.1143 -0.3326
  865MOL0     H19339   5.106   5.131   7.601  2.1190  1.6255 -1.1461
  865MOL0     H19340   5.330   5.089   7.469  0.4463 -2.6940 -0.1278
  865MOL0     H19341   5.387   5.046   7.634 -0.5341  0.6889  0.9022
  865MOL0     H19342   5.245   5.258   7.707  1.4095  1.7373  0.9328
  865MOL0     H19343   5.415   5.281   7.665  1.3271 -0.7065 -1.2331
  865MOL0     H19344   5.197   5.306   7.455 -0.7028  1.5177 -0.2926
  865MOL0     H19345   5.378   5.322   7.444 -2.7798  3.6620 -4.8116
  865MOL0     H19346   5.211   5.459   7.640 -2.1729  1.6041 -1.4894
  865MOL0     H19347   5.209   5.517   7.479  1.4354 -0.0918 -1.7452
  865MOL0     H19348   5.453   5.558   7.480 -0.9868  1.0435 -0.3562
  865MOL0     H19349   5.469   5.507   7.653  4.1986 -2.7891 -4.2761
  865MOL0     H19350   4.787   4.712   7.607 -1.2174 -3.8715 -0.1920
  865MOL0     H19351   4.587   4.642   7.723  2.2099  0.6877 -2.1659
  865MOL0     H19352   4.305   4.478   8.019  0.0840  1.6150 -1.7769
  865MOL0     H19353   4.096   4.414   8.159 -0.1780 -0.4348  0.7784
  865MOL0     H19354   3.449   5.493   8.544 -0.7260 -0.1404 -0.3671
  865MOL0     H19355   3.318   5.570   8.371  0.7012 -0.2779 -0.1395
  865MOL0     H19356   3.310   5.967   8.049  2.3907  1.5590 -2.5969
  865MOL0     H19357   3.192   6.085   7.883  4.9414  0.4152  0.9578
  865MOL0     H19358   3.066   6.160   7.742 -0.2155 -1.7493  0.8702
  865MOL0     H19359   3.160   6.117   7.601 -0.4850 -3.9533 -2.1707
  865MOL0     H19360   2.943   6.253   7.528 -0.2755 -1.1261 -0.5968
  865MOL0     H19361   2.854   6.130   7.607 -0.0924  0.6906  0.5275
  865MOL0     H19362   3.037   6.120   7.365 -0.3389  4.4395  1.8937
  865MOL0     H19363   2.950   5.968   7.434 -0.6816 -0.0688  0.0853
  865MOL0     H19364   2.820   6.227   7.327  2.1097  0.3246  0.6306
  865MOL0     H19365   2.753   6.095   7.427  0.7365 -1.9418 -0.6773
  865MOL0     H19366   2.797   5.895   7.053  1.6709 -0.3950 -0.1841
  865MOL0     H19367   3.044   5.719   7.723  0.6837  1.4126 -0.6849
  865MOL0     H19368   3.229   5.505   7.856 -0.8264  0.9505  0.2260
  865MOL0     H19369   3.102   5.520   7.998 -0.3096 -1.6717 -0.4834
  865MOL0     H19370   3.061   5.510   7.832 -1.0499 -0.8214  0.0309
  866MOL0     O19371   3.255   2.082  11.529 -0.0883 -0.0949 -0.9310
  866MOL0     C19372   3.258   2.167  11.448  1.1306  0.2937 -0.8972
  866MOL0     O19373   3.150   2.256  11.420 -0.4226  0.2844  0.0372
  866MOL0     C19374   3.029   2.222  11.460  0.9087  0.5346 -0.7261
  866MOL0     C19375   2.959   2.313  11.547  0.0245  0.3418 -0.7809
  866MOL0     C19376   2.824   2.292  11.580  0.5843 -0.6376  0.5508
  866MOL0     C19377   2.754   2.191  11.514 -0.8459 -0.3683  0.3723
  866MOL0     O19378   2.622   2.181  11.532 -0.0574  0.0134  0.7429
  866MOL0     C19379   2.538   2.127  11.441 -0.0216 -0.0140 -0.0466
  866MOL0     C19380   2.386   2.127  11.475  0.5430 -0.2648 -0.6167
  866MOL0     C19381   2.369   2.029  11.585  0.2828 -0.3615  0.3967
  866MOL0     C19382   2.230   2.054  11.653 -0.1090  0.4115 -0.3646
  866MOL0     C19383   2.192   1.928  11.741 -0.5682 -0.2961  0.1715
  866MOL0     C19384   2.285   1.909  11.863  0.1612  0.6724  0.4369
  866MOL0     C19385   2.284   2.028  11.958 -1.3461  0.4995 -0.3468
  866MOL0     C19386   2.146   2.063  12.010  0.2262  0.0878  0.1414
  866MOL0     N19387   2.060   1.959  12.063  0.0447 -0.3481  0.1935
  866MOL0     C19388   2.064   1.900  12.192  0.7414 -0.4006  0.6770
  866MOL0     C19389   1.961   1.814  12.200  0.5328  0.8953  0.6805
  866MOL0     C19390   1.935   1.713  12.309  0.5557  0.2342 -0.2228
  866MOL0     C19391   1.963   1.776  12.442  0.2599  0.5013 -0.2198
  866MOL0     C19392   1.905   1.698  12.559  0.1525  0.9668 -0.5821
  866MOL0     C19393   2.010   1.663  12.662 -0.0519 -1.3400  0.0381
  866MOL0     O19394   1.962   1.557  12.754  0.7188  0.0831  0.5745
  866MOL0     C19395   1.970   1.590  12.885  0.1969  0.7201  0.0160
  866MOL0     C19396   2.073   1.530  12.947 -0.3986  0.7284  0.2552
  866MOL0     C19397   2.089   1.534  13.081 -0.3106  0.9808  0.6523
  866MOL0     C19398   2.220   1.473  13.139  1.2180  0.2246  0.2006
  866MOL0     C19399   1.994   1.608  13.153  0.5173 -0.2298 -0.0495
  866MOL0     C19400   1.991   1.640  13.295  0.0196  0.0160 -0.1870
  866MOL0     O19401   1.883   1.691  13.362 -0.6364  0.2687  0.3645
  866MOL0     C19402   1.872   1.707  13.497  0.6957 -0.4866  0.8507
  866MOL0     C19403   1.970   1.688  13.597 -1.0102  0.3946 -0.8489
  866MOL0     C19404   1.943   1.723  13.742  0.0278 -0.2898  0.4733
  866MOL0     C19405   1.814   1.780  13.777 -0.5082 -0.9503  0.4029
  866MOL0     O19406   1.771   1.813  13.899  0.5128 -0.1683 -1.1569
  866MOL0     C19407   1.865   1.856  13.986  0.5678  0.5878 -0.6437
  866MOL0     C19408   1.787   1.937  14.099  0.0560 -0.8131 -0.9489
  866MOL0     C19409   1.695   1.847  14.181  0.7488 -1.2150 -0.8884
  866MOL0     C19410   1.617   1.911  14.300  0.4440 -0.5962  0.2537
  866MOL0     C19411   1.492   2.001  14.256 -0.5527 -0.5865  0.8042
  866MOL0     C19412   1.380   1.934  14.169 -0.0552 -0.5253 -0.3477
  866MOL0     C19413   1.264   2.031  14.139  0.5712  0.0152  0.4437
  866MOL0     C19414   1.311   2.167  14.097  0.0134 -0.8776 -0.5775
  866MOL0    Cl19415   1.207   2.230  13.954 -0.1924  0.0846  0.2583
  866MOL0     C19416   1.722   1.803  13.676  0.2894 -0.3231 -0.9870
  866MOL0     C19417   1.760   1.776  13.543 -0.5722 -0.0678  0.4481
  866MOL0     O19418   2.102   1.616  13.348 -0.5695  0.1158 -0.2122
  866MOL0     C19419   1.880   1.666  13.085 -0.4643  0.9245  0.2126
  866MOL0     C19420   1.869   1.644  12.948  1.0217  0.1638 -0.4401
  866MOL0     N19421   1.893   1.828  12.077  0.0502 -0.7136  0.6417
  866MOL0     N19422   1.944   1.923  12.001 -0.0425 -0.5136  0.1306
  866MOL0     C19423   2.817   2.113  11.407 -0.6131 -0.0158  0.7203
  866MOL0     C19424   2.952   2.136  11.382 -0.3528 -1.4535 -0.5134
  866MOL0     C19425   3.389   2.198  11.377  0.4579 -0.0766  1.0535
  866MOL0     C19426   3.404   2.329  11.319 -0.4384  0.6522 -0.0291
  866MOL0     C19427   3.521   2.376  11.274 -0.3790 -1.2210 -0.1769
  866MOL0     C19428   3.627   2.292  11.257 -0.5538 -0.8309 -0.0009
  866MOL0     O19429   3.752   2.340  11.215  1.0827  0.4538  0.0931
  866MOL0     C19430   3.780   2.477  11.173  0.3959  0.1271 -1.0193
  866MOL0     C19431   3.924   2.471  11.110 -0.8099 -0.2354 -0.9517
  866MOL0     C19432   3.969   2.590  11.031  1.9856 -0.7726  0.2509
  866MOL0     C19433   4.116   2.581  10.999  0.2586 -0.7308 -0.3045
  866MOL0     C19434   4.151   2.466  10.911 -0.3189 -0.2409  0.7486
  866MOL0     C19435   4.169   2.377  10.828  0.8309 -0.6299 -0.2450
  866MOL0     C19436   3.616   2.166  11.298  0.0634  0.8129 -0.1646
  866MOL0     C19437   3.502   2.107  11.363 -0.3453  0.2671 -0.2833
  866MOL0     C19438   3.503   1.971  11.416  0.5371 -0.2607 -0.4885
  866MOL0     H19439   3.017   2.399  11.580 -1.3517  0.2290  2.1767
  866MOL0     H19440   2.772   2.359  11.648 -0.9147  0.5385 -1.6459
  866MOL0     H19441   2.568   2.026  11.409 -0.5159  0.2257 -1.3094
  866MOL0     H19442   2.545   2.182  11.347 -2.5321 -4.9737 -3.6258
  866MOL0     H19443   2.352   2.230  11.489 -0.3970 -0.6966  0.3694
  866MOL0     H19444   2.331   2.104  11.383  3.2702  1.0894 -2.7364
  866MOL0     H19445   2.375   1.927  11.544  0.1826 -0.5723  0.8904
  866MOL0     H19446   2.441   2.048  11.666  1.0619 -0.2211 -0.3103
  866MOL0     H19447   2.235   2.143  11.716 -1.2988 -1.0621  1.9248
  866MOL0     H19448   2.158   2.071  11.573  2.8540  2.4102 -2.8388
  866MOL0     H19449   2.208   1.830  11.696 -1.7302 -1.6919  2.6050
  866MOL0     H19450   2.087   1.924  11.772 -1.2687  0.9999 -1.8330
  866MOL0     H19451   2.254   1.814  11.907  0.1857 -0.5399 -1.9640
  866MOL0     H19452   2.387   1.897  11.825 -0.0159  0.2473  0.0889
  866MOL0     H19453   2.335   2.115  11.916  1.5591 -0.1203  1.5894
  866MOL0     H19454   2.340   2.007  12.049 -2.3464  2.9480  0.9265
  866MOL0     H19455   2.156   2.137  12.090  0.7377 -1.4458  1.5461
  866MOL0     H19456   2.099   2.101  11.918  1.0255  0.3549 -0.1631
  866MOL0     H19457   2.149   1.910  12.259  2.2184  1.4719 -1.3379
  866MOL0     H19458   2.014   1.638  12.303  4.0438  3.6863 -1.9018
  866MOL0     H19459   1.840   1.661  12.293 -0.3105  1.3983  0.9320
  866MOL0     H19460   2.070   1.793  12.456  0.3196  2.5906 -2.4276
  866MOL0     H19461   1.922   1.878  12.446 -2.7667 -0.6569  1.2786
  866MOL0     H19462   1.825   1.743  12.618  0.6772 -2.0302  2.7578
  866MOL0     H19463   1.863   1.603  12.525  1.3840  0.0697  0.3298
  866MOL0     H19464   2.090   1.613  12.607 -1.1178 -1.0104 -1.9221
  866MOL0     H19465   2.046   1.758  12.701  0.7944 -2.3666  1.8947
  866MOL0     H19466   2.162   1.494  12.895 -0.4954 -0.8503  1.1082
  866MOL0     H19467   2.289   1.553  13.166  1.9505  0.3007 -1.7339
  866MOL0     H19468   2.262   1.402  13.067 -0.0342  3.6182 -4.3190
  866MOL0     H19469   2.200   1.431  13.238 -1.4314  1.1184  0.1343
  866MOL0     H19470   2.060   1.628  13.587 -0.4949  0.2243  3.1466
  866MOL0     H19471   2.013   1.693  13.819  0.3710 -1.8943 -0.4237
  866MOL0     H19472   1.917   1.772  14.034  0.3093  0.5940 -0.3478
  866MOL0     H19473   1.935   1.921  13.933 -1.7395  2.3427 -1.6815
  866MOL0     H19474   1.857   1.966  14.179  0.0994 -2.5927 -0.2979
  866MOL0     H19475   1.732   2.009  14.039 -1.9769 -3.6110 -2.6485
  866MOL0     H19476   1.753   1.769  14.230 -0.5979  0.3505  3.7963
  866MOL0     H19477   1.628   1.793  14.114 -0.0159 -2.2837  0.6556
  866MOL0     H19478   1.685   1.978  14.353  1.3608  1.4529 -3.1513
  866MOL0     H19479   1.587   1.833  14.369  1.1450 -0.6172  0.5461
  866MOL0     H19480   1.444   2.027  14.351  1.1084  0.1661  1.4718
  866MOL0     H19481   1.536   2.090  14.211 -2.0637 -0.9225 -1.5517
  866MOL0     H19482   1.352   1.845  14.226 -0.3404  0.3614  0.9422
  866MOL0     H19483   1.417   1.902  14.071 -2.7135  1.7705 -2.2798
  866MOL0     H19484   1.180   2.021  14.208 -1.2438 -1.4442 -1.8340
  866MOL0     H19485   1.205   1.981  14.062 -1.8057  1.0347  1.4900
  866MOL0     H19486   1.413   2.173  14.057 -0.6917  1.4652 -2.2136
  866MOL0     H19487   1.291   2.240  14.176 -4.4849 -1.0388 -1.3249
  866MOL0     H19488   1.621   1.841  13.687  1.2898  2.1906  0.2259
  866MOL0     H19489   1.689   1.810  13.469 -0.7219  0.9440  1.0355
  866MOL0     H19490   1.799   1.718  13.135 -0.1967  3.3714 -1.7524
  866MOL0     H19491   1.783   1.660  12.885 -1.4364 -3.9670  1.4101
  866MOL0     H19492   2.764   2.052  11.335  1.7685  0.2744 -1.4272
  866MOL0     H19493   3.004   2.093  11.297  0.5982  2.6387 -2.2334
  866MOL0     H19494   3.321   2.395  11.341  0.8463  1.4146  2.9944
  866MOL0     H19495   3.524   2.483  11.255 -2.2629 -0.7009  2.1135
  866MOL0     H19496   3.713   2.511  11.093 -2.0566  2.0789  1.6666
  866MOL0     H19497   3.780   2.555  11.250 -2.8298 -0.1232 -0.6455
  866MOL0     H19498   3.923   2.402  11.026 -0.5627  0.6539 -1.7021
  866MOL0     H19499   4.000   2.434  11.179  0.4147  3.0156 -0.3561
  866MOL0     H19500   3.914   2.597  10.937  2.8528 -1.3527 -0.3088
  866MOL0     H19501   3.951   2.677  11.096  1.2996 -0.1048 -0.8006
  866MOL0     H19502   4.172   2.579  11.093  0.2717 -0.0595 -0.2895
  866MOL0     H19503   4.167   2.666  10.951 -0.1349 -0.3437 -0.0487
  866MOL0     H19504   4.198   2.299  10.761  1.1524  2.7033 -4.4206
  866MOL0     H19505   3.703   2.101  11.298  0.0257  0.6501  2.3747
  866MOL0     H19506   3.458   1.964  11.515 -0.6159  2.7476 -0.6751
  866MOL0     H19507   3.443   1.909  11.348  0.1124  0.4556 -0.7769
  866MOL0     H19508   3.609   1.942  11.421 -0.1607 -2.9490  0.2863
  867MOL0     O19509   0.638   7.828  11.295  0.4377 -0.4981 -0.1400
  867MOL0     C19510   0.535   7.888  11.313  0.0085 -0.3568 -0.1247
  867MOL0     O19511   0.410   7.858  11.272 -0.7639  0.6001  0.1891
  867MOL0     C19512   0.404   7.760  11.187  1.1553 -0.0420  0.2250
  867MOL0     C19513   0.473   7.770  11.068  0.1317 -0.9094 -0.0550
  867MOL0     C19514   0.466   7.679  10.978 -0.2938  0.7102 -0.2742
  867MOL0     C19515   0.391   7.561  10.982 -0.4016 -0.6886  0.1021
  867MOL0     O19516   0.377   7.478  10.872 -0.0282 -0.1630  0.3029
  867MOL0     C19517   0.318   7.344  10.887 -0.4420  0.5482 -0.4112
  867MOL0     C19518   0.279   7.293  10.750  0.4510  0.9037 -0.0101
  867MOL0     C19519   0.217   7.143  10.767  0.3135  0.9523  0.3867
  867MOL0     C19520   0.216   7.057  10.640 -0.3525 -0.5634  0.1639
  867MOL0     C19521   0.153   6.919  10.666  0.2342 -0.2901 -0.1283
  867MOL0     C19522  -0.002   6.936  10.699  0.7172 -0.5677  0.4564
  867MOL0     C19523  -0.091   6.816  10.675  0.0648  0.8345  0.8039
  867MOL0     C19524  -0.027   6.691  10.763  0.4389  0.5895 -0.3637
  867MOL0     N19525  -0.087   6.560  10.720 -0.0804 -0.1366  0.4778
  867MOL0     C19526  -0.027   6.456  10.649 -0.6694 -0.1267 -0.1011
  867MOL0     C19527  -0.128   6.361  10.638 -0.7072  0.1486  0.1368
  867MOL0     C19528  -0.102   6.225  10.572 -0.5080 -0.7323 -0.0039
  867MOL0     C19529  -0.233   6.154  10.539 -0.8444 -0.3553 -1.2995
  867MOL0     C19530  -0.198   6.029  10.446 -1.0008  0.2560 -0.5386
  867MOL0     C19531  -0.307   5.950  10.410  0.7162 -1.1145 -0.4075
  867MOL0     O19532  -0.395   6.035  10.335 -0.2791 -0.0086 -0.1749
  867MOL0     C19533  -0.516   5.993  10.304  0.2461 -1.4636  0.1367
  867MOL0     C19534  -0.567   5.865  10.320  0.2273  1.0848  0.0527
  867MOL0     C19535  -0.699   5.834  10.268 -0.2131 -0.0087  0.0920
  867MOL0     C19536  -0.756   5.689  10.292  0.4624  0.1856  0.1151
  867MOL0     C19537  -0.785   5.938  10.228  0.0170 -0.7360  0.5077
  867MOL0     C19538  -0.933   5.924  10.204  0.8741  0.6798 -0.4495
  867MOL0     O19539  -0.981   6.015  10.118  0.0759 -0.2885  0.2351
  867MOL0     C19540  -1.101   6.002  10.063 -0.7487  0.5251  0.0362
  867MOL0     C19541  -1.183   6.110  10.052  0.3890 -0.0314  1.1678
  867MOL0     C19542  -1.298   6.108   9.964 -0.1582  0.1817 -0.2472
  867MOL0     C19543  -1.339   5.987   9.902 -0.0251 -0.6975  0.8577
  867MOL0     O19544  -1.442   5.970   9.806  0.4652  0.6283  0.5346
  867MOL0     C19545  -1.495   6.089   9.752  0.1145 -0.9815  0.9047
  867MOL0     C19546  -1.606   6.032   9.665 -0.0947 -0.2590  0.5628
  867MOL0     C19547  -1.574   5.928   9.566 -0.5100  0.2686  0.2111
  867MOL0     C19548  -1.696   5.912   9.476  0.0542  1.0310  0.3066
  867MOL0     C19549  -1.677   5.993   9.345  0.1964 -0.1430  0.8537
  867MOL0     C19550  -1.782   5.935   9.243  0.2670 -0.4601  0.3111
  867MOL0     C19551  -1.765   5.993   9.103  0.9834 -0.5175  0.0946
  867MOL0     C19552  -1.760   6.156   9.105  0.3014  0.4364  0.0778
  867MOL0    Cl19553  -1.766   6.209   8.930 -0.4552 -0.2598 -0.1967
  867MOL0     C19554  -1.257   5.879   9.914 -0.9438  0.3465 -0.0052
  867MOL0     C19555  -1.136   5.888   9.990  0.2046  0.5716  0.0448
  867MOL0     O19556  -1.009   5.857  10.272  0.6458  0.4049 -0.2615
  867MOL0     C19557  -0.724   6.065  10.208  0.2617  0.0061  0.9031
  867MOL0     C19558  -0.594   6.092  10.248  0.2903 -0.4267  0.1135
  867MOL0     N19559  -0.247   6.419  10.686  0.5516 -0.1753  0.0827
  867MOL0     N19560  -0.215   6.528  10.738  0.1344  0.1941 -0.4842
  867MOL0     C19561   0.321   7.535  11.102 -0.0943  0.1976 -0.2392
  867MOL0     C19562   0.326   7.640  11.207  0.4212  0.4845  0.2467
  867MOL0     C19563   0.545   7.983  11.424  0.5963 -0.5032 -0.2127
  867MOL0     C19564   0.454   7.969  11.530 -1.3114 -0.9930  0.7634
  867MOL0     C19565   0.475   8.057  11.646  0.4272  0.6242 -0.4523
  867MOL0     C19566   0.585   8.136  11.656  0.7640  0.2781 -0.1261
  867MOL0     O19567   0.629   8.198  11.769  0.4014  0.8804 -0.6954
  867MOL0     C19568   0.559   8.173  11.899 -0.5952 -0.6634  0.7485
  867MOL0     C19569   0.468   8.279  11.957  0.2352  0.3363  0.0101
  867MOL0     C19570   0.375   8.344  11.858 -0.1148 -1.0444  0.5996
  867MOL0     C19571   0.231   8.292  11.855 -0.5959  0.1986 -0.0326
  867MOL0     C19572   0.158   8.355  11.745  0.7806 -0.8416 -0.1199
  867MOL0     C19573   0.095   8.422  11.664 -0.6068 -0.1158  0.0688
  867MOL0     C19574   0.662   8.157  11.539 -1.7029  0.0154 -0.3736
  867MOL0     C19575   0.645   8.077  11.433  0.6158 -1.2596  0.2513
  867MOL0     C19576   0.732   8.109  11.312  0.7729  0.8677  0.4753
  867MOL0     H19577   0.542   7.854  11.057 -1.8666  0.9911  1.0156
  867MOL0     H19578   0.518   7.688  10.883 -0.3103 -0.6187 -0.4346
  867MOL0     H19579   0.223   7.352  10.940  0.0217 -2.3655  1.0662
  867MOL0     H19580   0.390   7.273  10.929 -0.2184  0.3097 -1.1716
  867MOL0     H19581   0.191   7.339  10.705 -2.4576  0.4222  4.4963
  867MOL0     H19582   0.371   7.292  10.691 -1.6792 -2.0889 -3.6994
  867MOL0     H19583   0.288   7.095  10.834  0.1360 -3.0508 -1.9842
  867MOL0     H19584   0.126   7.134  10.828  2.1201  0.2496  3.1446
  867MOL0     H19585   0.159   7.106  10.560  0.1449 -0.3737 -0.0795
  867MOL0     H19586   0.315   7.048  10.594  0.2043  1.9383  0.6783
  867MOL0     H19587   0.204   6.875  10.751  0.8430  1.8780  0.6957
  867MOL0     H19588   0.170   6.853  10.581  1.1241 -1.4803  0.9488
  867MOL0     H19589  -0.022   6.983  10.796 -2.9771 -2.0663  0.5858
  867MOL0     H19590  -0.044   7.014  10.636 -2.1049 -0.3940  2.3654
  867MOL0     H19591  -0.106   6.796  10.568  2.8156 -0.6477  0.5818
  867MOL0     H19592  -0.190   6.838  10.716 -0.3968 -0.2809  0.3525
  867MOL0     H19593   0.081   6.685  10.747  0.9549 -3.4786  2.7564
  867MOL0     H19594  -0.025   6.702  10.872 -0.2041 -0.1825 -0.2594
  867MOL0     H19595   0.079   6.440  10.633 -0.6062 -1.1616  1.1864
  867MOL0     H19596  -0.046   6.155  10.635  1.8722  0.9454 -0.0903
  867MOL0     H19597  -0.036   6.255  10.490  1.6308  0.2303  1.9338
  867MOL0     H19598  -0.281   6.117  10.630  4.1177 -0.9493  1.4330
  867MOL0     H19599  -0.304   6.222  10.490 -2.1666  1.9401  3.1778
  867MOL0     H19600  -0.150   6.074  10.359 -2.3870  2.7673 -0.1089
  867MOL0     H19601  -0.130   5.971  10.509 -0.6632 -0.8188 -1.8284
  867MOL0     H19602  -0.272   5.864  10.352  1.9810 -2.7753  2.5707
  867MOL0     H19603  -0.345   5.911  10.505 -0.9165 -1.4947 -1.1703
  867MOL0     H19604  -0.507   5.788  10.367 -2.2800 -0.8926  0.2237
  867MOL0     H19605  -0.802   5.693  10.391 -2.1452 -1.1232 -0.9452
  867MOL0     H19606  -0.674   5.618  10.282 -0.8544 -1.1599 -1.8829
  867MOL0     H19607  -0.831   5.663  10.217  0.5463 -1.9716  0.7086
  867MOL0     H19608  -1.165   6.205  10.099 -2.5426  1.6803 -0.7926
  867MOL0     H19609  -1.361   6.196   9.963 -2.1454 -1.1743 -0.6811
  867MOL0     H19610  -1.538   6.162   9.821  1.2515  2.7461 -1.9560
  867MOL0     H19611  -1.424   6.135   9.683 -0.8439 -2.0995 -0.9413
  867MOL0     H19612  -1.684   5.998   9.733  0.0067  0.9567  1.3128
  867MOL0     H19613  -1.637   6.122   9.612  0.5773 -0.4820 -0.2410
  867MOL0     H19614  -1.554   5.826   9.598 -1.0631  0.2815  0.6170
  867MOL0     H19615  -1.481   5.957   9.516  1.8805 -1.8219  3.1050
  867MOL0     H19616  -1.790   5.948   9.517 -1.5938 -0.7941 -1.5860
  867MOL0     H19617  -1.702   5.805   9.450  3.9124  1.2807 -2.5594
  867MOL0     H19618  -1.690   6.100   9.366  2.5929 -0.0548  2.3588
  867MOL0     H19619  -1.573   5.985   9.311  0.5419 -1.6056  2.1584
  867MOL0     H19620  -1.885   5.944   9.277  0.5123 -0.3614  1.0546
  867MOL0     H19621  -1.769   5.827   9.237 -1.4675 -0.9150  2.9569
  867MOL0     H19622  -1.856   5.964   9.049  1.2333 -0.9431 -0.1013
  867MOL0     H19623  -1.675   5.954   9.056 -0.8481 -3.1598 -1.5293
  867MOL0     H19624  -1.669   6.195   9.151  1.4421 -0.7450 -1.1104
  867MOL0     H19625  -1.845   6.200   9.159 -0.3385 -0.4572 -0.1747
  867MOL0     H19626  -1.283   5.785   9.867  1.9276 -0.3727 -0.3576
  867MOL0     H19627  -1.075   5.798   9.991 -2.7150 -1.5224  0.7838
  867MOL0     H19628  -0.783   6.137  10.152 -0.8773 -1.1681  0.5206
  867MOL0     H19629  -0.546   6.187  10.225 -0.8481  0.0985 -0.1526
  867MOL0     H19630   0.258   7.448  11.117  1.1460 -0.7007 -0.0532
  867MOL0     H19631   0.288   7.609  11.303 -0.9788 -4.8174 -1.6798
  867MOL0     H19632   0.370   7.900  11.527 -0.2377 -2.2898 -1.0730
  867MOL0     H19633   0.405   8.046  11.729 -0.6334 -1.8966 -1.5760
  867MOL0     H19634   0.506   8.077  11.904  2.1801 -2.3481  0.1891
  867MOL0     H19635   0.650   8.159  11.958  1.1946  1.1472 -1.4153
  867MOL0     H19636   0.532   8.352  12.009 -0.3025  0.8290 -0.0126
  867MOL0     H19637   0.412   8.241  12.043  1.3216 -1.2220  0.0588
  867MOL0     H19638   0.366   8.445  11.899 -1.2932  0.1675 -2.3146
  867MOL0     H19639   0.413   8.346  11.755  2.4439 -2.2535  1.4291
  867MOL0     H19640   0.174   8.319  11.944 -0.3865  1.5665 -0.2892
  867MOL0     H19641   0.238   8.183  11.848  3.1815  0.1831  1.8489
  867MOL0     H19642   0.040   8.466  11.584 -0.1739 -2.5856 -1.7008
  867MOL0     H19643   0.741   8.231  11.537 -1.7672  0.0909 -2.9757
  867MOL0     H19644   0.795   8.023  11.290 -3.0890 -1.8514 -1.1317
  867MOL0     H19645   0.658   8.103  11.232  1.6840 -3.0277 -0.2831
  867MOL0     H19646   0.780   8.207  11.314 -0.0124  1.2684  2.3070
  868MOL0     O19647   8.666  10.994   7.507 -0.4202 -0.4278  0.5749
  868MOL0     C19648   8.703  10.962   7.616  0.1353 -0.2171  0.0816
  868MOL0     O19649   8.739  11.053   7.711 -1.1211 -0.0813 -0.1159
  868MOL0     C19650   8.731  11.193   7.684  0.9894  0.6203  0.0761
  868MOL0     C19651   8.841  11.268   7.689 -0.9457 -1.5063  0.9284
  868MOL0     C19652   8.837  11.401   7.636 -0.0531  0.7443 -0.2622
  868MOL0     C19653   8.712  11.459   7.600  0.9033  0.7038 -0.4414
  868MOL0     O19654   8.730  11.587   7.551  0.0636  0.0403  0.8191
  868MOL0     C19655   8.764  11.692   7.644  0.4112  0.3645 -1.3309
  868MOL0     C19656   8.736  11.814   7.564 -0.1367  0.0084  0.5486
  868MOL0     C19657   8.781  11.948   7.640  0.9662 -0.0677  0.2641
  868MOL0     C19658   8.672  12.059   7.620 -0.0150 -0.3269  0.6055
  868MOL0     C19659   8.699  12.180   7.720  0.1918 -0.4361  0.1964
  868MOL0     C19660   8.801  12.287   7.662 -0.0942  0.1329  0.1071
  868MOL0     C19661   8.813  12.401   7.767  0.5529  0.3787 -0.1762
  868MOL0     C19662   8.936  12.487   7.744 -0.3756  0.5791  0.0244
  868MOL0     N19663   9.063  12.435   7.803  0.1753  0.5531 -0.4610
  868MOL0     C19664   9.171  12.358   7.756  0.4044  0.0412 -0.4754
  868MOL0     C19665   9.242  12.324   7.864 -0.5372  0.6806 -0.2126
  868MOL0     C19666   9.351  12.223   7.860  0.2440 -0.5710 -0.1528
  868MOL0     C19667   9.491  12.281   7.817  0.4791 -0.2379 -0.8443
  868MOL0     C19668   9.599  12.182   7.849  0.2800 -0.1497 -0.1925
  868MOL0     C19669   9.594  12.041   7.783 -0.4509  0.3692  0.0754
  868MOL0     O19670   9.580  12.055   7.644  0.0890 -0.3372  0.4079
  868MOL0     C19671   9.525  11.940   7.582  0.0737 -1.0548 -0.7381
  868MOL0     C19672   9.390  11.928   7.575  1.0824 -0.3714 -0.9309
  868MOL0     C19673   9.316  11.829   7.514 -0.7899  0.1882 -0.2831
  868MOL0     C19674   9.164  11.834   7.505 -0.4069  0.5938 -0.3888
  868MOL0     C19675   9.393  11.719   7.462  0.0150 -0.4297 -0.8709
  868MOL0     C19676   9.322  11.607   7.395 -0.2324  2.0764 -0.7023
  868MOL0     O19677   9.399  11.546   7.298  0.6809  0.5433 -0.4873
  868MOL0     C19678   9.315  11.487   7.205 -0.0887  0.2587  0.1820
  868MOL0     C19679   9.204  11.555   7.138 -0.5850 -0.1098  0.3916
  868MOL0     C19680   9.156  11.493   7.022  0.2025  0.4930  0.0592
  868MOL0     C19681   9.210  11.370   6.979 -0.2067 -0.4910  0.0864
  868MOL0     O19682   9.169  11.308   6.871 -0.5362 -0.5215  0.1996
  868MOL0     C19683   9.027  11.269   6.861 -0.1727 -0.3227 -0.0495
  868MOL0     C19684   9.008  11.125   6.911  0.2468 -0.8123  0.9054
  868MOL0     C19685   8.887  11.048   6.843 -0.2558 -0.4355  0.1688
  868MOL0     C19686   8.856  10.911   6.930  0.6951  0.1941  0.0718
  868MOL0     C19687   8.739  10.843   6.860 -1.1132 -0.2640 -0.5920
  868MOL0     C19688   8.779  10.700   6.805  0.0329 -0.8248  0.2897
  868MOL0     C19689   8.650  10.630   6.745  0.3269 -0.7500 -0.8527
  868MOL0     C19690   8.691  10.501   6.674  0.8222  0.2640 -0.0743
  868MOL0    Cl19691   8.756  10.527   6.512  0.6299 -0.2136 -0.0934
  868MOL0     C19692   9.310  11.306   7.048  0.8505  0.2639 -0.9741
  868MOL0     C19693   9.365  11.366   7.154 -0.2149  0.4462  0.0183
  868MOL0     O19694   9.216  11.560   7.435 -0.7468 -1.7210  0.1918
  868MOL0     C19695   9.532  11.725   7.479  0.5264 -0.2927  0.2214
  868MOL0     C19696   9.598  11.829   7.539 -0.2306 -0.3494  0.0814
  868MOL0     N19697   9.179  12.377   7.977 -0.4569  0.3318  0.1212
  868MOL0     N19698   9.072  12.438   7.938 -0.2520 -0.2050 -0.3737
  868MOL0     C19699   8.597  11.388   7.612 -0.2263  0.0952 -0.0406
  868MOL0     C19700   8.610  11.251   7.644 -0.5153  0.6885 -0.2104
  868MOL0     C19701   8.706  10.822   7.655  0.1329  0.3265 -0.8228
  868MOL0     C19702   8.744  10.783   7.789  0.4247 -0.1839 -0.0373
  868MOL0     C19703   8.742  10.653   7.828 -0.8770 -0.2065  1.2102
  868MOL0     C19704   8.703  10.554   7.739 -0.1900 -0.3990  0.2778
  868MOL0     O19705   8.713  10.422   7.779  0.6485 -0.1872 -0.3129
  868MOL0     C19706   8.605  10.394   7.873  0.5531 -0.8378  0.0407
  868MOL0     C19707   8.473  10.356   7.805  0.5497 -0.7779  0.3968
  868MOL0     C19708   8.357  10.329   7.900 -0.1909  0.2510  0.1373
  868MOL0     C19709   8.383  10.207   7.981  0.1555  0.1527  0.6035
  868MOL0     C19710   8.260  10.173   8.039 -0.4986 -0.0291  0.1311
  868MOL0     C19711   8.160  10.124   8.090  0.9274  0.4163 -0.2909
  868MOL0     C19712   8.667  10.591   7.609  0.3761 -0.0469  0.2020
  868MOL0     C19713   8.664  10.725   7.562 -0.2649  0.7375 -0.1413
  868MOL0     C19714   8.621  10.736   7.413 -0.5526 -0.3362 -0.4380
  868MOL0     H19715   8.930  11.219   7.726 -0.0026 -0.5969 -0.0717
  868MOL0     H19716   8.933  11.452   7.631  1.3745 -1.3237  2.7040
  868MOL0     H19717   8.870  11.701   7.669  1.0960 -0.4181 -3.7514
  868MOL0     H19718   8.698  11.691   7.732 -0.3562 -1.2955 -1.8857
  868MOL0     H19719   8.800  11.794   7.478 -1.5243  1.4085 -0.8750
  868MOL0     H19720   8.634  11.814   7.524 -0.8513  0.2602  2.3001
  868MOL0     H19721   8.792  11.933   7.747  0.8612 -1.5022  0.0917
  868MOL0     H19722   8.879  11.979   7.601  1.1733 -0.4361  0.4913
  868MOL0     H19723   8.657  12.098   7.519 -1.4085  2.1125  1.6554
  868MOL0     H19724   8.575  12.013   7.638 -1.0869 -0.6849 -4.5822
  868MOL0     H19725   8.744  12.139   7.812 -2.5190  1.5307  2.5796
  868MOL0     H19726   8.605  12.234   7.732  0.2497 -0.1076 -0.7298
  868MOL0     H19727   8.896  12.242   7.634 -0.6598 -0.3411 -1.1299
  868MOL0     H19728   8.764  12.324   7.566  0.1702 -1.4503 -0.6332
  868MOL0     H19729   8.819  12.350   7.864 -2.8300  1.6442  0.8593
  868MOL0     H19730   8.724  12.465   7.771  2.5951  3.4374 -0.3618
  868MOL0     H19731   8.948  12.507   7.637  0.1333  0.6065  0.0836
  868MOL0     H19732   8.916  12.581   7.796  1.3760  0.3837  1.1342
  868MOL0     H19733   9.191  12.325   7.655 -0.1913  2.2411 -1.3628
  868MOL0     H19734   9.325  12.133   7.804  1.6530 -0.2672 -1.3644
  868MOL0     H19735   9.362  12.186   7.963  0.6837  1.2070  0.4783
  868MOL0     H19736   9.493  12.310   7.711 -0.0808  1.4483 -0.4334
  868MOL0     H19737   9.506  12.375   7.871 -2.0344 -0.0905 -0.2993
  868MOL0     H19738   9.697  12.217   7.814  0.7628 -2.0866 -0.9657
  868MOL0     H19739   9.614  12.167   7.957  1.2358 -0.3501 -0.3401
  868MOL0     H19740   9.686  11.987   7.811 -0.4402  0.5990  0.5011
  868MOL0     H19741   9.509  11.976   7.808 -0.6554 -0.4819 -2.5841
  868MOL0     H19742   9.337  12.011   7.620 -1.1570 -4.0591  4.3527
  868MOL0     H19743   9.103  11.785   7.581 -0.3987 -1.8231 -1.8214
  868MOL0     H19744   9.144  11.804   7.402  3.8089 -0.7540 -1.0458
  868MOL0     H19745   9.146  11.941   7.516  0.6253  0.5063  4.0487
  868MOL0     H19746   9.183  11.655   7.174  0.1720 -0.9790  3.6276
  868MOL0     H19747   9.074  11.541   6.969  0.7729  0.8311 -0.5275
  868MOL0     H19748   8.946  11.329   6.903 -0.0898  0.7800 -1.4033
  868MOL0     H19749   9.016  11.260   6.753  2.7378  1.4954 -0.6180
  868MOL0     H19750   9.102  11.071   6.897  2.5173  2.5323  1.9141
  868MOL0     H19751   8.990  11.119   7.019 -0.2414 -1.7776  0.7776
  868MOL0     H19752   8.905  11.031   6.736  2.3049 -0.8904  0.6315
  868MOL0     H19753   8.799  11.112   6.859 -0.6404 -0.8677 -0.1762
  868MOL0     H19754   8.838  10.940   7.034  3.3445  1.6806  0.1940
  868MOL0     H19755   8.941  10.843   6.921 -0.2527 -0.7359 -4.9895
  868MOL0     H19756   8.663  10.836   6.939 -0.3755 -2.0501  0.0291
  868MOL0     H19757   8.694  10.908   6.785  0.0811  0.7260 -0.4771
  868MOL0     H19758   8.827  10.645   6.887  0.1853  1.2737  1.6943
  868MOL0     H19759   8.848  10.719   6.723 -2.4295  2.1764 -1.2753
  868MOL0     H19760   8.597  10.697   6.677 -3.5818 -0.6344  1.9393
  868MOL0     H19761   8.584  10.607   6.830  2.0680  1.4629  1.2688
  868MOL0     H19762   8.600  10.444   6.652 -0.0343  0.4979  2.4481
  868MOL0     H19763   8.756  10.440   6.737 -1.5184 -0.6525  1.6150
  868MOL0     H19764   9.349  11.212   7.010  0.7246 -0.2101  0.0537
  868MOL0     H19765   9.453  11.328   7.205 -0.7894  0.0368  0.7272
  868MOL0     H19766   9.581  11.634   7.445 -1.0585 -1.1060 -0.0175
  868MOL0     H19767   9.706  11.827   7.539 -0.0614  2.1597 -2.2722
  868MOL0     H19768   8.506  11.443   7.587 -0.6179 -0.7493 -0.5282
  868MOL0     H19769   8.518  11.193   7.643  0.4070 -0.8136  0.0243
  868MOL0     H19770   8.783  10.860   7.855  0.5399 -1.2193  1.1216
  868MOL0     H19771   8.775  10.621   7.926  3.6663  0.1460  0.0216
  868MOL0     H19772   8.639  10.309   7.933  1.8625  1.1134  2.2019
  868MOL0     H19773   8.600  10.480   7.940 -2.4363  1.3768 -2.7098
  868MOL0     H19774   8.485  10.275   7.732  0.2749  0.1576 -0.7294
  868MOL0     H19775   8.449  10.447   7.749  2.4040 -0.3786  0.1639
  868MOL0     H19776   8.344  10.412   7.970  3.3163 -1.6546  3.4305
  868MOL0     H19777   8.268  10.312   7.839  0.6076 -3.4375 -0.2304
  868MOL0     H19778   8.459  10.229   8.057  0.5402 -0.1351  0.3069
  868MOL0     H19779   8.404  10.116   7.924  0.2033  1.2410 -1.2017
  868MOL0     H19780   8.079  10.073   8.139  1.9216  1.7998  3.0092
  868MOL0     H19781   8.636  10.512   7.541  0.2360 -0.0030  0.2131
  868MOL0     H19782   8.598  10.637   7.373  3.6647 -2.0411  0.8466
  868MOL0     H19783   8.527  10.792   7.413 -1.5258 -1.9012 -1.5361
  868MOL0     H19784   8.689  10.794   7.350  0.4065 -1.0534 -0.0799
  869MOL0     O19785   8.337   1.347   1.028  0.7833 -0.5647  0.5776
  869MOL0     C19786   8.451   1.382   1.070  0.3297 -0.3066  0.4487
  869MOL0     O19787   8.475   1.413   1.201  0.0365  0.0912  0.2873
  869MOL0     C19788   8.366   1.432   1.284  0.5121 -0.2106  0.7357
  869MOL0     C19789   8.357   1.558   1.352  0.5024  0.0286 -0.4841
  869MOL0     C19790   8.254   1.573   1.448 -0.1462  0.4740 -0.7784
  869MOL0     C19791   8.196   1.458   1.511  0.6546  0.5959  0.6506
  869MOL0     O19792   8.126   1.487   1.625  0.3208  0.5415  0.2784
  869MOL0     C19793   8.189   1.413   1.730 -0.3642  0.2045  0.4702
  869MOL0     C19794   8.125   1.446   1.871  0.3621  0.2284  0.2775
  869MOL0     C19795   8.194   1.374   1.977  0.5821  0.4106  0.6731
  869MOL0     C19796   8.121   1.384   2.114  0.0948  0.0706  0.3119
  869MOL0     C19797   8.185   1.317   2.237 -0.7118 -0.3869  0.4922
  869MOL0     C19798   8.089   1.285   2.361 -0.8826  0.6415 -1.1316
  869MOL0     C19799   8.150   1.205   2.488  0.3180  0.5195  0.5615
  869MOL0     C19800   8.236   1.300   2.580 -0.4522 -0.6664 -0.4284
  869MOL0     N19801   8.161   1.383   2.674  0.3630 -0.3715 -0.4915
  869MOL0     C19802   8.125   1.339   2.800 -0.0152  0.0627 -0.5365
  869MOL0     C19803   8.061   1.437   2.846  0.1192  0.4363 -0.2262
  869MOL0     C19804   7.994   1.441   2.981  0.1460  1.1342 -0.3951
  869MOL0     C19805   7.848   1.471   2.972 -0.3837  1.1135  0.4848
  869MOL0     C19806   7.759   1.343   2.937 -0.0571 -0.1182 -0.8904
  869MOL0     C19807   7.624   1.386   2.878  0.4066  1.2215 -1.2333
  869MOL0     O19808   7.643   1.456   2.750 -0.1753 -0.4878  0.4207
  869MOL0     C19809   7.556   1.553   2.715 -0.4229 -1.2117  0.0583
  869MOL0     C19810   7.587   1.640   2.614  0.3897 -0.3742  0.3469
  869MOL0     C19811   7.503   1.734   2.559 -0.0949  0.2852 -0.9323
  869MOL0     C19812   7.565   1.824   2.457 -0.7985  0.1443  0.5391
  869MOL0     C19813   7.381   1.768   2.633 -0.1688  0.1412  0.0636
  869MOL0     C19814   7.296   1.897   2.613  0.7528 -0.2742  0.0844
  869MOL0     O19815   7.193   1.906   2.704  0.6675  0.1674  0.2872
  869MOL0     C19816   7.098   2.001   2.674  0.2352 -0.0061 -0.2882
  869MOL0     C19817   6.978   1.970   2.603 -1.1233  0.5476 -0.1621
  869MOL0     C19818   6.883   2.067   2.583 -0.0265  0.6193  0.7481
  869MOL0     C19819   6.896   2.195   2.629 -0.4018  0.3438  0.4151
  869MOL0     O19820   6.790   2.272   2.606 -0.1340 -0.4023 -1.1163
  869MOL0     C19821   6.760   2.368   2.707 -0.0898 -0.7005 -0.0543
  869MOL0     C19822   6.649   2.455   2.653 -0.1930  1.0956  0.4480
  869MOL0     C19823   6.681   2.526   2.516  1.2033  0.4281 -0.3727
  869MOL0     C19824   6.562   2.620   2.484 -1.0869 -0.3388 -0.5655
  869MOL0     C19825   6.628   2.764   2.485 -0.0855 -0.3840  0.6697
  869MOL0     C19826   6.717   2.814   2.374  0.1858  0.8962  0.3680
  869MOL0     C19827   6.746   2.964   2.392 -0.1043 -0.6859  0.3130
  869MOL0     C19828   6.822   3.028   2.281  0.2186 -0.0785  0.2599
  869MOL0    Cl19829   6.967   2.937   2.234 -0.0918 -0.1034 -0.0590
  869MOL0     C19830   7.013   2.239   2.686  0.3098  0.7329 -1.1334
  869MOL0     C19831   7.107   2.133   2.721 -0.1184 -0.1159 -0.6207
  869MOL0     O19832   7.325   1.985   2.526  0.9103  0.4522 -0.5882
  869MOL0     C19833   7.348   1.679   2.735  1.3532  0.1910  0.5561
  869MOL0     C19834   7.427   1.564   2.772  1.7686 -0.7863 -0.8770
  869MOL0     N19835   8.053   1.541   2.758  0.9067  0.8004  1.3437
  869MOL0     N19836   8.106   1.502   2.653 -1.0113  0.2805 -0.1177
  869MOL0     C19837   8.217   1.334   1.449  0.2649 -0.5025  0.9353
  869MOL0     C19838   8.297   1.320   1.333 -0.3227 -0.6678 -0.7802
  869MOL0     C19839   8.565   1.370   0.982 -0.1717  0.4397 -0.4449
  869MOL0     C19840   8.698   1.361   1.039  0.3582 -0.1215 -0.6656
  869MOL0     C19841   8.816   1.363   0.961  0.3878 -0.6399  1.0450
  869MOL0     C19842   8.817   1.376   0.818  0.7171  0.1569 -0.1644
  869MOL0     O19843   8.928   1.365   0.733 -0.2045  0.0488  0.4148
  869MOL0     C19844   9.054   1.373   0.793 -0.1549  0.6340 -0.2935
  869MOL0     C19845   9.167   1.394   0.686  0.3967 -1.0350 -0.1226
  869MOL0     C19846   9.186   1.263   0.615  0.8431  0.5164  0.8766
  869MOL0     C19847   9.179   1.274   0.467  0.2727 -1.2183 -0.4598
  869MOL0     C19848   9.244   1.164   0.400 -0.6597 -0.6509  1.0427
  869MOL0     C19849   9.305   1.086   0.334 -0.4771  0.5809 -0.7396
  869MOL0     C19850   8.687   1.390   0.762 -0.1496 -1.3275 -0.3119
  869MOL0     C19851   8.567   1.368   0.837  0.5865 -0.2099  0.1152
  869MOL0     C19852   8.438   1.375   0.755  0.0621  0.2174  0.0946
  869MOL0     H19853   8.393   1.657   1.328 -1.2085  0.6307 -0.7017
  869MOL0     H19854   8.226   1.666   1.498  0.1971  0.2611 -0.1823
  869MOL0     H19855   8.298   1.426   1.732 -0.3950  0.3640  1.6358
  869MOL0     H19856   8.179   1.305   1.724 -1.9839  0.1846  2.5276
  869MOL0     H19857   8.135   1.554   1.887 -0.5992  1.0054 -3.3576
  869MOL0     H19858   8.019   1.421   1.861  0.5677 -0.0220 -1.9087
  869MOL0     H19859   8.204   1.275   1.933 -0.6501  0.4093  0.3667
  869MOL0     H19860   8.298   1.406   1.989  0.8572 -0.6806  1.2688
  869MOL0     H19861   8.108   1.490   2.138  0.3643  0.2490 -0.3102
  869MOL0     H19862   8.025   1.331   2.116 -0.4141  0.9607  2.1601
  869MOL0     H19863   8.281   1.358   2.268 -0.9492 -1.5348  2.9734
  869MOL0     H19864   8.209   1.218   2.198  0.3032 -0.0956  0.3665
  869MOL0     H19865   8.044   1.377   2.398  0.4880  1.0057 -0.3341
  869MOL0     H19866   7.996   1.236   2.330 -1.2097  1.4024 -1.3862
  869MOL0     H19867   8.209   1.127   2.439  0.0233  1.5294 -1.5143
  869MOL0     H19868   8.061   1.167   2.538 -1.3050  0.6403 -2.0280
  869MOL0     H19869   8.311   1.243   2.635 -0.1579 -0.2974 -0.4419
  869MOL0     H19870   8.283   1.367   2.508 -0.4224 -0.5571 -0.3080
  869MOL0     H19871   8.154   1.244   2.843  0.6375  0.3833 -0.2360
  869MOL0     H19872   8.041   1.515   3.047 -1.0596  2.4281 -0.9470
  869MOL0     H19873   8.008   1.338   3.016 -2.1617  1.1982  0.9445
  869MOL0     H19874   7.808   1.521   3.061 -3.4495 -2.9387  1.7358
  869MOL0     H19875   7.834   1.537   2.886  1.9368 -3.0965 -3.5555
  869MOL0     H19876   7.817   1.278   2.871  0.0578 -1.9254  0.8970
  869MOL0     H19877   7.748   1.277   3.023  3.8835  0.4000  0.1951
  869MOL0     H19878   7.568   1.298   2.847  1.6200  0.7456 -2.1813
  869MOL0     H19879   7.575   1.439   2.960 -1.4709 -0.4593 -1.2102
  869MOL0     H19880   7.687   1.627   2.573  0.1427  0.3736 -0.5203
  869MOL0     H19881   7.560   1.929   2.487 -2.7418 -0.0555  1.0781
  869MOL0     H19882   7.523   1.805   2.358 -1.4339 -2.8597  1.2867
  869MOL0     H19883   7.670   1.803   2.435 -1.3489 -0.5036 -1.7763
  869MOL0     H19884   6.974   1.865   2.575 -0.3553  0.7175 -0.9616
  869MOL0     H19885   6.795   2.041   2.524 -0.6716 -4.2954  3.3000
  869MOL0     H19886   6.742   2.315   2.802  4.1107  2.3594  2.7983
  869MOL0     H19887   6.849   2.431   2.712  1.4886 -2.8328  0.4846
  869MOL0     H19888   6.559   2.393   2.648  1.3218 -1.1192 -1.4501
  869MOL0     H19889   6.634   2.541   2.718  0.3296  1.1114  0.5506
  869MOL0     H19890   6.684   2.447   2.439  1.6175 -2.1921  2.1593
  869MOL0     H19891   6.771   2.583   2.537 -1.2089  3.2048  3.5610
  869MOL0     H19892   6.485   2.623   2.562  1.8278  4.4604  2.6387
  869MOL0     H19893   6.521   2.596   2.386  1.0106  1.3037 -1.9142
  869MOL0     H19894   6.545   2.835   2.481 -0.2155 -0.5446  0.5269
  869MOL0     H19895   6.673   2.775   2.585  0.5987  1.3768  0.2074
  869MOL0     H19896   6.679   2.792   2.274  5.3322 -1.5251 -1.4197
  869MOL0     H19897   6.807   2.751   2.374 -0.7918 -0.5560 -0.5991
  869MOL0     H19898   6.803   2.972   2.485 -1.4979 -0.2612  1.1525
  869MOL0     H19899   6.647   3.010   2.397 -0.1706 -0.8054  0.0709
  869MOL0     H19900   6.841   3.134   2.297 -2.6632  0.7646 -1.2105
  869MOL0     H19901   6.751   3.020   2.198  1.4390 -1.1179 -0.7338
  869MOL0     H19902   7.020   2.343   2.716 -1.2978  0.2092  1.4196
  869MOL0     H19903   7.198   2.153   2.777 -1.7870  2.5171  1.4312
  869MOL0     H19904   7.258   1.696   2.792  1.5010  0.8627  0.5981
  869MOL0     H19905   7.397   1.494   2.849  0.0389 -0.1267 -0.9069
  869MOL0     H19906   8.178   1.244   1.494 -2.0948 -0.0912 -0.1381
  869MOL0     H19907   8.307   1.222   1.287 -1.3011  0.3040 -3.2726
  869MOL0     H19908   8.727   1.342   1.142 -2.5501  0.6701  0.4047
  869MOL0     H19909   8.916   1.347   1.001  1.3384  1.3282 -0.3763
  869MOL0     H19910   9.052   1.450   0.871  3.9096 -0.1173  0.8112
  869MOL0     H19911   9.091   1.283   0.844 -0.5425  1.9090  2.4178
  869MOL0     H19912   9.255   1.424   0.743  2.0902 -0.8630 -2.6986
  869MOL0     H19913   9.154   1.483   0.624 -1.5770  0.2462  1.9478
  869MOL0     H19914   9.275   1.204   0.638  0.8227 -0.0912 -0.4962
  869MOL0     H19915   9.107   1.191   0.638  1.7934 -0.8426  0.0445
  869MOL0     H19916   9.242   1.361   0.446  0.2380 -1.2927 -0.8857
  869MOL0     H19917   9.080   1.308   0.436  0.7350  0.3107 -0.3331
  869MOL0     H19918   9.355   1.007   0.281  1.5389 -0.9172  3.0157
  869MOL0     H19919   8.686   1.413   0.656  1.3829  2.5806  0.3477
  869MOL0     H19920   8.360   1.441   0.795  1.4344  1.3199  1.0629
  869MOL0     H19921   8.459   1.421   0.658  0.5007  1.5033  0.7721
  869MOL0     H19922   8.391   1.276   0.750 -0.4516  0.3860  1.2313
  870MOL0     O19923   9.787   9.872   9.864  0.1754 -0.2268  0.0159
  870MOL0     C19924   9.903   9.899   9.833 -0.5956  0.5034  0.2179
  870MOL0     O19925  10.019   9.839   9.877 -0.1621 -0.3358 -0.3956
  870MOL0     C19926  10.037   9.770   9.990  0.1124  0.4641  0.9194
  870MOL0     C19927   9.944   9.767  10.099  0.3527 -0.0827  0.0077
  870MOL0     C19928   9.973   9.695  10.213  0.0952  0.6700 -0.3224
  870MOL0     C19929  10.098   9.629  10.222  0.9199  0.2029 -0.1711
  870MOL0     O19930  10.120   9.549  10.338  0.0423 -0.4793  0.5358
  870MOL0     C19931  10.250   9.550  10.394 -0.0591 -0.4148  0.5321
  870MOL0     C19932  10.256   9.410  10.464  0.1756 -0.8360  1.4455
  870MOL0     C19933  10.391   9.387  10.535 -0.2346  0.6332  0.7134
  870MOL0     C19934  10.396   9.258  10.624 -0.0865  0.7231  1.5106
  870MOL0     C19935  10.393   9.131  10.532 -0.3420  0.5640  0.0901
  870MOL0     C19936  10.376   8.997  10.612 -0.2676  0.6829  0.0493
  870MOL0     C19937  10.484   8.969  10.722 -0.0383 -0.2651  0.0818
  870MOL0     C19938  10.621   8.956  10.657  0.2719  0.7618 -0.3886
  870MOL0     N19939  10.723   8.913  10.759  0.2939 -0.2961  0.4103
  870MOL0     C19940  10.728   8.789  10.799  0.2479 -0.4625 -0.4227
  870MOL0     C19941  10.831   8.786  10.883 -0.2150 -1.0393 -1.5100
  870MOL0     C19942  10.915   8.685  10.961  0.5148  0.2425  0.0933
  870MOL0     C19943  10.814   8.598  11.048  0.8070  0.0723  0.1895
  870MOL0     C19944  10.753   8.483  10.973 -0.5962  0.6135  0.5587
  870MOL0     C19945  10.670   8.386  11.054  0.1906  0.5588 -0.3410
  870MOL0     O19946  10.537   8.431  11.081 -0.2536  0.0408 -0.2312
  870MOL0     C19947  10.425   8.415  11.005  0.2288 -0.1372 -0.3182
  870MOL0     C19948  10.334   8.511  11.029 -0.2980  0.3562  0.5284
  870MOL0     C19949  10.214   8.516  10.964  0.5470  0.9828  0.4543
  870MOL0     C19950  10.113   8.630  10.988  0.6854  0.3078  0.9327
  870MOL0     C19951  10.194   8.411  10.862  0.4997 -0.4091 -0.5967
  870MOL0     C19952  10.073   8.413  10.776  0.6848 -0.6831  0.2405
  870MOL0     O19953   9.954   8.440  10.834  0.4179 -0.1321  0.2125
  870MOL0     C19954   9.847   8.413  10.740 -0.0929  0.8060  0.3856
  870MOL0     C19955   9.793   8.282  10.726 -0.7438 -0.3180 -0.5266
  870MOL0     C19956   9.693   8.254  10.633  0.1706 -0.2745  0.3867
  870MOL0     C19957   9.643   8.355  10.548  0.4048 -0.1095  0.6780
  870MOL0     O19958   9.538   8.354  10.463  0.1817  0.1693  0.2922
  870MOL0     C19959   9.477   8.224  10.440 -0.2876 -0.9810 -1.8546
  870MOL0     C19960   9.352   8.238  10.367  0.1396  0.3187 -0.3248
  870MOL0     C19961   9.381   8.306  10.233 -0.6935 -0.7642 -0.3092
  870MOL0     C19962   9.267   8.276  10.137 -0.6054 -0.6429 -0.1216
  870MOL0     C19963   9.292   8.363  10.008 -0.5304  0.0943  0.3308
  870MOL0     C19964   9.229   8.506  10.001 -0.5086 -0.3220 -0.0424
  870MOL0     C19965   9.073   8.500  10.010  0.6736 -0.8748 -0.2897
  870MOL0     C19966   9.015   8.639  10.026  0.5181 -0.5968 -1.2158
  870MOL0    Cl19967   9.069   8.740   9.895 -0.3078  0.0376 -0.1429
  870MOL0     C19968   9.689   8.479  10.563 -0.0645 -0.8140  0.9023
  870MOL0     C19969   9.796   8.513  10.658 -0.6544  0.3706  0.2064
  870MOL0     O19970  10.094   8.400  10.658  0.0172  0.6266 -0.0588
  870MOL0     C19971  10.293   8.313  10.839 -0.6694  0.2159  0.2117
  870MOL0     C19972  10.404   8.315  10.916 -0.5365 -0.0974  0.2164
  870MOL0     N19973  10.881   8.917  10.897 -0.2217 -0.4464 -0.5535
  870MOL0     N19974  10.816   8.992  10.817  0.2168  0.0667 -0.4985
  870MOL0     C19975  10.196   9.651  10.126  0.1035 -0.2857 -0.5858
  870MOL0     C19976  10.168   9.720  10.010  0.2992  0.1418  0.7745
  870MOL0     C19977   9.920   9.983   9.705 -0.3052  0.3485 -0.0043
  870MOL0     C19978  10.013   9.942   9.618  0.6569 -0.2697  0.3735
  870MOL0     C19979  10.037  10.015   9.501  0.0522 -0.7059  1.1607
  870MOL0     C19980   9.969  10.140   9.482 -0.2956  0.7904  1.1094
  870MOL0     O19981   9.989  10.200   9.359 -0.1134 -0.2657 -0.4589
  870MOL0     C19982  10.115  10.260   9.326 -0.2515  0.5113 -0.2223
  870MOL0     C19983  10.161  10.259   9.181 -0.6311  0.1079 -0.2272
  870MOL0     C19984  10.139  10.131   9.095 -0.1830  0.0922 -1.2207
  870MOL0     C19985  10.182  10.147   8.951  0.1786 -0.2948 -0.3282
  870MOL0     C19986  10.114  10.036   8.879 -0.6667  0.2295 -0.3131
  870MOL0     C19987  10.080   9.935   8.817  0.2423  0.1232  0.6661
  870MOL0     C19988   9.873  10.181   9.574  0.2942  1.3202  0.1651
  870MOL0     C19989   9.849  10.106   9.687  0.2612  0.2665  0.1285
  870MOL0     C19990   9.738  10.151   9.789 -0.4270  0.5461  0.5165
  870MOL0     H19991   9.849   9.820  10.097  1.1776  1.5830  1.9665
  870MOL0     H19992   9.898   9.690  10.291  2.0429  0.6552  1.6628
  870MOL0     H19993  10.246   9.630  10.469  1.9020 -2.0247  2.4840
  870MOL0     H19994  10.327   9.549  10.316 -0.6377 -0.7110 -0.0456
  870MOL0     H19995  10.167   9.405  10.528 -1.5322 -2.3552 -0.8926
  870MOL0     H19996  10.242   9.333  10.388 -0.0889 -0.1292  0.7745
  870MOL0     H19997  10.472   9.387  10.461 -1.0481 -0.7542 -0.2162
  870MOL0     H19998  10.412   9.471  10.602  3.2740  0.6540 -0.2038
  870MOL0     H19999  10.486   9.258  10.685  2.1496  1.7895 -1.5635
  870MOL0     H20000  10.299   9.254  10.675 -1.2954  0.3911 -0.6497
  870MOL0     H20001  10.494   9.119  10.493 -0.1105 -2.0160  1.3067
  870MOL0     H20002  10.330   9.134  10.443 -1.4602 -1.9101  0.7195
  870MOL0     H20003  10.276   9.003  10.657 -0.7250 -2.2707 -0.3789
  870MOL0     H20004  10.370   8.914  10.541  1.0659  1.3599 -0.8819
  870MOL0     H20005  10.455   8.871  10.760  2.1264 -1.3264 -0.8541
  870MOL0     H20006  10.484   9.052  10.794 -2.9784  0.0580 -0.1403
  870MOL0     H20007  10.618   8.896  10.565 -1.7119  1.0694 -0.5764
  870MOL0     H20008  10.660   9.052  10.620  2.4940 -1.1589 -3.4953
  870MOL0     H20009  10.683   8.700  10.758  0.8297 -0.5728 -0.8226
  870MOL0     H20010  10.984   8.730  11.032 -0.2053 -0.4027  1.2407
  870MOL0     H20011  10.974   8.627  10.889  0.6471 -0.9331  1.1072
  870MOL0     H20012  10.858   8.559  11.140 -1.9250 -0.5351  1.3516
  870MOL0     H20013  10.730   8.665  11.069 -1.1310 -1.4434 -2.2063
  870MOL0     H20014  10.714   8.503  10.873  0.3892 -2.7340 -0.6454
  870MOL0     H20015  10.845   8.424  10.966 -2.6831 -3.2141  1.8829
  870MOL0     H20016  10.679   8.291  11.000  0.3370  0.3669  0.0151
  870MOL0     H20017  10.705   8.363  11.155  1.7655  2.5028 -0.4010
  870MOL0     H20018  10.364   8.576  11.111  1.1990  1.3240 -0.7231
  870MOL0     H20019  10.094   8.672  10.888  0.5298 -1.6901  0.0901
  870MOL0     H20020  10.155   8.712  11.047  3.5229 -0.5133  0.2058
  870MOL0     H20021  10.021   8.587  11.029  1.1489 -0.9504  0.6717
  870MOL0     H20022   9.832   8.203  10.789 -1.3909 -1.9545 -2.1060
  870MOL0     H20023   9.668   8.148  10.634 -2.5913  0.3021  2.0004
  870MOL0     H20024   9.541   8.156  10.383  1.3061 -1.7447  0.6983
  870MOL0     H20025   9.459   8.175  10.536 -1.8091 -0.5257 -1.8820
  870MOL0     H20026   9.314   8.138  10.344  3.0071 -0.6096 -1.4668
  870MOL0     H20027   9.268   8.287  10.417  0.3140 -1.0282  1.3509
  870MOL0     H20028   9.481   8.279  10.196  1.6653  4.9383  0.8459
  870MOL0     H20029   9.385   8.412  10.261 -1.4319  0.1189 -3.1984
  870MOL0     H20030   9.170   8.287  10.184  0.0622 -2.5546  1.8920
  870MOL0     H20031   9.276   8.169  10.113  2.0210 -0.0415 -2.4400
  870MOL0     H20032   9.398   8.377   9.984 -0.4896  1.4576  1.2215
  870MOL0     H20033   9.249   8.303   9.927 -1.1376  0.4032  0.4237
  870MOL0     H20034   9.257   8.552   9.906 -0.7765 -0.7816 -0.3485
  870MOL0     H20035   9.283   8.566  10.075  2.8759 -0.7984 -1.9400
  870MOL0     H20036   9.037   8.445  10.097 -3.3555  3.3291  1.1307
  870MOL0     H20037   9.023   8.457   9.923 -0.0294 -0.2501 -0.2073
  870MOL0     H20038   9.047   8.671  10.125 -1.4259 -1.2977 -0.3038
  870MOL0     H20039   8.906   8.631  10.023  0.2981 -0.3290  2.1968
  870MOL0     H20040   9.646   8.543  10.487  0.1677  0.1045  1.5201
  870MOL0     H20041   9.837   8.613  10.665 -1.8545  1.1089 -2.3005
  870MOL0     H20042  10.277   8.243  10.758 -0.8168  1.2546 -0.6862
  870MOL0     H20043  10.474   8.233  10.908  1.1640  1.2014  1.0215
  870MOL0     H20044  10.297   9.611  10.134  0.3111  0.6149  2.9213
  870MOL0     H20045  10.228   9.725   9.921 -0.4134  0.6230  0.3023
  870MOL0     H20046  10.073   9.854   9.638  0.7548 -0.3869 -0.4004
  870MOL0     H20047  10.114   9.980   9.433  2.1276 -2.2061  4.0798
  870MOL0     H20048  10.104  10.361   9.367 -1.8147  1.3248 -2.4771
  870MOL0     H20049  10.187  10.209   9.391 -2.6484 -0.2641  1.9885
  870MOL0     H20050  10.267  10.284   9.192 -0.8935  0.8973  0.6384
  870MOL0     H20051  10.104  10.339   9.133 -2.3253 -0.5656  0.5734
  870MOL0     H20052  10.185  10.047   9.148  3.3680  2.6196  0.0352
  870MOL0     H20053  10.030  10.128   9.104 -0.0828  1.7489  2.1901
  870MOL0     H20054  10.288  10.153   8.925 -0.2687  2.0033 -1.9217
  870MOL0     H20055  10.142  10.244   8.918  0.0516 -0.4658 -0.6824
  870MOL0     H20056  10.072   9.836   8.775  2.2681  1.1974 -2.6422
  870MOL0     H20057   9.829  10.278   9.553 -2.3716  0.4245  1.1784
  870MOL0     H20058   9.762  10.126   9.893 -2.5143 -4.3530  0.0893
  870MOL0     H20059   9.709  10.256   9.784 -1.7439  0.2709  1.6098
  870MOL0     H20060   9.660  10.077   9.767  1.9691 -1.8678 -0.3292
  871MOL0     O20061   4.457  11.532  10.933 -0.0529  0.2353  0.4510
  871MOL0     C20062   4.413  11.418  10.907 -0.4271 -0.6488 -0.1890
  871MOL0     O20063   4.349  11.340  10.994  0.7555 -0.3207 -0.0223
  871MOL0     C20064   4.279  11.387  11.102  0.8691  0.2616  0.1664
  871MOL0     C20065   4.279  11.304  11.215 -0.5180 -0.4407  1.6585
  871MOL0     C20066   4.190  11.341  11.321 -0.5244  0.1992  0.3212
  871MOL0     C20067   4.121  11.463  11.319  0.6172  0.3363  0.8819
  871MOL0     O20068   4.050  11.483  11.435 -0.2877 -0.3606  0.1105
  871MOL0     C20069   3.986  11.617  11.460  0.3990  0.5267  0.3502
  871MOL0     C20070   4.068  11.742  11.489  0.4873  0.6689  0.1540
  871MOL0     C20071   4.108  11.761  11.635  0.0739  0.4062 -0.2016
  871MOL0     C20072   4.193  11.888  11.652 -0.0948  0.1154 -0.1171
  871MOL0     C20073   4.244  11.899  11.791  0.1419  0.2120 -0.6538
  871MOL0     C20074   4.293  12.043  11.819 -0.5431  0.6480 -0.3113
  871MOL0     C20075   4.367  12.057  11.949 -0.6769 -1.1753 -0.7622
  871MOL0     C20076   4.462  12.183  11.933 -0.7643  0.2086 -0.6295
  871MOL0     N20077   4.557  12.200  12.045 -0.3317 -0.0378 -0.7306
  871MOL0     C20078   4.656  12.113  12.076  0.4964  0.3678 -0.2306
  871MOL0     C20079   4.726  12.173  12.176 -0.0559 -0.1925 -0.2306
  871MOL0     C20080   4.851  12.124  12.243  0.7147  0.0425  0.3812
  871MOL0     C20081   4.844  12.126  12.403  0.7529  0.0390  0.7516
  871MOL0     C20082   4.968  12.130  12.478  0.4040 -0.1533 -0.1203
  871MOL0     C20083   4.941  12.153  12.635  0.4975  0.3313 -1.0163
  871MOL0     O20084   5.067  12.174  12.695 -0.6758  0.1845 -0.3621
  871MOL0     C20085   5.146  12.064  12.734 -0.3428  0.6812  0.7499
  871MOL0     C20086   5.272  12.093  12.798  0.6701 -0.1871  0.5201
  871MOL0     C20087   5.346  11.995  12.856 -0.2043  0.9772  1.1354
  871MOL0     C20088   5.475  12.030  12.926  0.0954 -0.5458 -0.4866
  871MOL0     C20089   5.315  11.860  12.850  0.0845 -0.1076  0.2523
  871MOL0     C20090   5.379  11.755  12.933  1.3073 -0.0599 -0.1073
  871MOL0     O20091   5.512  11.730  12.930  0.5586  0.7925 -0.5815
  871MOL0     C20092   5.575  11.630  13.013 -0.6392  0.3204 -0.2740
  871MOL0     C20093   5.566  11.636  13.150 -0.0401 -0.4919 -0.9672
  871MOL0     C20094   5.637  11.559  13.245  0.3243 -0.4410  0.0419
  871MOL0     C20095   5.705  11.454  13.193 -0.9403  0.4163  0.6604
  871MOL0     O20096   5.764  11.355  13.258 -0.0141  0.5611 -0.1399
  871MOL0     C20097   5.785  11.378  13.399 -0.3330  0.1281  0.0423
  871MOL0     C20098   5.873  11.271  13.470  0.0163  0.0191 -0.2850
  871MOL0     C20099   5.847  11.122  13.444 -0.6264  0.4553  0.7536
  871MOL0     C20100   5.983  11.049  13.446 -0.5045  0.0043  0.7525
  871MOL0     C20101   5.969  10.905  13.395  0.5630  0.4222 -0.2618
  871MOL0     C20102   6.103  10.827  13.422  0.8768  0.2769  0.5829
  871MOL0     C20103   6.116  10.704  13.343 -0.2564 -0.6289  0.5221
  871MOL0     C20104   6.187  10.586  13.404 -0.0299  0.1111  0.0141
  871MOL0    Cl20105   6.195  10.467  13.271  0.6854  0.4676 -0.0759
  871MOL0     C20106   5.725  11.443  13.049  0.2251  0.3730 -0.2190
  871MOL0     C20107   5.666  11.539  12.968  0.5802 -0.7174  0.3832
  871MOL0     O20108   5.291  11.686  12.987 -0.2510 -0.1980  0.6565
  871MOL0     C20109   5.202  11.822  12.774  0.6619  0.0341  0.0405
  871MOL0     C20110   5.112  11.923  12.725 -0.0592  0.2141 -0.3585
  871MOL0     N20111   4.666  12.291  12.206  0.4486  0.0196  0.2181
  871MOL0     N20112   4.571  12.310  12.125 -0.4727 -0.7125 -0.2627
  871MOL0     C20113   4.130  11.540  11.205  0.0765  0.3106 -0.1150
  871MOL0     C20114   4.210  11.507  11.094  0.4923  0.3587 -0.3588
  871MOL0     C20115   4.434  11.365  10.774  0.9212 -0.3651  0.3150
  871MOL0     C20116   4.435  11.460  10.662  0.4366  0.0542 -0.9676
  871MOL0     C20117   4.438  11.413  10.532 -1.3978  0.5428  0.3914
  871MOL0     C20118   4.470  11.279  10.499  0.3367  0.4147  0.9378
  871MOL0     O20119   4.489  11.248  10.372  0.0311  0.3637  0.2367
  871MOL0     C20120   4.549  11.117  10.345 -0.0990 -0.4163  0.1183
  871MOL0     C20121   4.448  11.002  10.364 -0.4549 -0.1366 -0.5596
  871MOL0     C20122   4.357  10.983  10.240  0.3023  0.8143 -0.4755
  871MOL0     C20123   4.429  10.974  10.103  0.3678 -0.3715  0.7618
  871MOL0     C20124   4.551  10.894  10.102 -0.0291 -0.0681  0.1767
  871MOL0     C20125   4.625  10.800  10.103 -0.0997  0.1604 -0.3717
  871MOL0     C20126   4.499  11.196  10.611  0.1887 -0.1400  0.2176
  871MOL0     C20127   4.467  11.230  10.747 -0.8350 -0.4380 -0.7042
  871MOL0     C20128   4.505  11.126  10.846  1.2682  0.1194  0.4231
  871MOL0     H20129   4.335  11.212  11.211 -0.4752 -0.5064  3.1596
  871MOL0     H20130   4.181  11.286  11.414 -1.0257 -0.3987 -0.0625
  871MOL0     H20131   3.934  11.618  11.556  1.0457  0.9541  0.6998
  871MOL0     H20132   3.909  11.634  11.384  1.5215  1.2260 -0.6592
  871MOL0     H20133   4.167  11.741  11.442 -0.5458  2.5948 -2.2373
  871MOL0     H20134   4.016  11.833  11.459  1.8397  1.3664 -0.1451
  871MOL0     H20135   4.030  11.756  11.712  2.2548 -3.8064  2.1164
  871MOL0     H20136   4.175  11.676  11.652 -2.9440 -2.2500 -0.6156
  871MOL0     H20137   4.286  11.889  11.596 -0.1100  2.8424 -0.2219
  871MOL0     H20138   4.128  11.973  11.632  1.8688  1.7027 -0.0276
  871MOL0     H20139   4.326  11.828  11.804  0.1436  0.3925  0.4414
  871MOL0     H20140   4.160  11.877  11.857  2.2627 -1.7731  1.5806
  871MOL0     H20141   4.338  12.078  11.726 -0.8400 -0.8789 -1.0532
  871MOL0     H20142   4.200  12.101  11.820  0.5255  2.4434 -1.2803
  871MOL0     H20143   4.426  11.965  11.959  0.7717 -0.1597  0.4514
  871MOL0     H20144   4.301  12.071  12.034 -2.8587 -1.7021 -2.2846
  871MOL0     H20145   4.529  12.157  11.851  0.5647  3.4060 -0.6894
  871MOL0     H20146   4.410  12.276  11.906  1.8228  2.1200  0.5098
  871MOL0     H20147   4.674  12.020  12.023 -2.1811 -0.2473 -0.2141
  871MOL0     H20148   4.933  12.177  12.193  0.3245 -0.3105 -0.6493
  871MOL0     H20149   4.864  12.020  12.213 -1.0346 -0.8640  2.4978
  871MOL0     H20150   4.785  12.217  12.422  2.7852  1.2860  1.3295
  871MOL0     H20151   4.789  12.039  12.441 -0.2356  0.5999  0.6613
  871MOL0     H20152   5.029  12.041  12.462 -2.0920 -1.4451 -3.7777
  871MOL0     H20153   5.026  12.217  12.443  0.0400  1.4793  2.9487
  871MOL0     H20154   4.890  12.249  12.650  1.7525  1.5928 -3.8802
  871MOL0     H20155   4.893  12.068  12.684  2.5123 -0.3436 -0.0793
  871MOL0     H20156   5.297  12.199  12.802  0.2161 -0.1000  1.3757
  871MOL0     H20157   5.566  11.987  12.884  0.9212 -0.8800  1.5671
  871MOL0     H20158   5.463  12.003  13.031  0.3750  1.1437  0.0067
  871MOL0     H20159   5.480  12.139  12.933  0.2940 -0.4560 -1.7785
  871MOL0     H20160   5.507  11.716  13.194  1.5649 -0.1869  0.7542
  871MOL0     H20161   5.624  11.579  13.351  2.3357  1.4464 -0.0075
  871MOL0     H20162   5.817  11.479  13.427 -1.4826  0.3447  0.6241
  871MOL0     H20163   5.684  11.379  13.442 -0.3178  3.3066  0.2380
  871MOL0     H20164   5.973  11.304  13.437  1.6134 -0.5734  3.4182
  871MOL0     H20165   5.873  11.298  13.576  3.3501  2.2839 -0.6992
  871MOL0     H20166   5.794  11.105  13.349 -0.8552  0.0561  0.9497
  871MOL0     H20167   5.801  11.080  13.534  0.1190  2.9743  2.3934
  871MOL0     H20168   6.035  11.037  13.542  1.5257 -1.1237 -0.4179
  871MOL0     H20169   6.051  11.108  13.384  0.1389 -0.1385  1.3041
  871MOL0     H20170   5.890  10.845  13.440  1.6000 -0.1477  0.8592
  871MOL0     H20171   5.947  10.908  13.288 -0.0617 -3.4193 -0.3953
  871MOL0     H20172   6.116  10.807  13.529  1.9486  1.3703  0.6833
  871MOL0     H20173   6.184  10.892  13.386  0.4208  1.1928  1.1880
  871MOL0     H20174   6.163  10.739  13.250  4.0314  0.2161  2.7641
  871MOL0     H20175   6.017  10.671  13.313 -0.2868  0.9785 -1.4093
  871MOL0     H20176   6.129  10.545  13.487  1.2459  2.1099  1.9728
  871MOL0     H20177   6.285  10.612  13.443 -0.8176  1.7916  0.9830
  871MOL0     H20178   5.778  11.362  13.001  0.4396  1.0942 -1.2373
  871MOL0     H20179   5.694  11.553  12.864  2.8239  2.3673  1.2473
  871MOL0     H20180   5.186  11.715  12.761  0.2148  0.1662 -0.5675
  871MOL0     H20181   5.019  11.898  12.676  0.1754  1.5152 -1.5215
  871MOL0     H20182   4.073  11.631  11.187  2.1938  1.6856 -0.1379
  871MOL0     H20183   4.195  11.561  11.001  0.5582 -1.8399 -1.7093
  871MOL0     H20184   4.419  11.565  10.684 -1.6623 -0.7789  2.1874
  871MOL0     H20185   4.436  11.498  10.464  0.7805  0.3447  0.0136
  871MOL0     H20186   4.578  11.118  10.239  0.0749  0.0665  0.1673
  871MOL0     H20187   4.635  11.097  10.410 -1.1639  1.9452  2.4320
  871MOL0     H20188   4.386  11.021  10.452  1.7576 -0.5031  1.1583
  871MOL0     H20189   4.506  10.913  10.388 -2.9641 -1.3798  1.4345
  871MOL0     H20190   4.308  10.886  10.251  0.4823  0.9461  2.0971
  871MOL0     H20191   4.280  11.061  10.249  0.3471  0.7270  1.0021
  871MOL0     H20192   4.453  11.073  10.063 -0.2121 -1.0048 -1.2754
  871MOL0     H20193   4.365  10.925  10.029  0.4110 -0.6338  0.8970
  871MOL0     H20194   4.694  10.720  10.117 -1.1839 -0.2853  3.5015
  871MOL0     H20195   4.552  11.102  10.601  1.7066  0.8085 -1.3312
  871MOL0     H20196   4.602  11.085  10.818  0.7661  0.1949 -1.5693
  871MOL0     H20197   4.502  11.166  10.948 -0.9790  1.9609 -0.2756
  871MOL0     H20198   4.432  11.045  10.837  0.8759  0.6629 -1.7141
  872MOL0     O20199   3.168   2.693   9.315 -0.2295  0.1306  0.0743
  872MOL0     C20200   3.264   2.650   9.251 -0.1197  0.2292  0.0020
  872MOL0     O20201   3.381   2.729   9.228  0.1699  0.3060  0.3583
  872MOL0     C20202   3.390   2.848   9.291 -0.4335 -0.2533  0.3124
  872MOL0     C20203   3.512   2.870   9.341  0.1783 -0.2166  0.0084
  872MOL0     C20204   3.541   2.987   9.419  0.2440 -0.6500  0.1384
  872MOL0     C20205   3.444   3.079   9.457 -0.0731 -0.4333  0.5173
  872MOL0     O20206   3.474   3.174   9.552 -0.2078 -0.9374 -0.0708
  872MOL0     C20207   3.373   3.222   9.652 -0.3364  0.2708  0.3731
  872MOL0     C20208   3.429   3.332   9.741  0.3250  0.2371  0.4021
  872MOL0     C20209   3.555   3.395   9.694 -1.1677  1.0763  0.2255
  872MOL0     C20210   3.685   3.319   9.727  0.0760 -0.1218 -0.2099
  872MOL0     C20211   3.821   3.400   9.718 -0.6263  0.2031  0.3786
  872MOL0     C20212   3.841   3.512   9.816  0.4070  0.3684  0.6392
  872MOL0     C20213   3.986   3.556   9.827 -0.1063  0.1365  0.2208
  872MOL0     C20214   3.999   3.682   9.919 -0.5413  0.5976  0.8965
  872MOL0     N20215   4.005   3.661  10.063 -0.2549 -0.1567  0.0466
  872MOL0     C20216   3.976   3.538  10.122  0.1928 -0.3902  0.4455
  872MOL0     C20217   4.042   3.542  10.247  0.5353  0.0567  0.1849
  872MOL0     C20218   4.030   3.431  10.349 -0.3365  0.4306  0.5331
  872MOL0     C20219   4.077   3.293  10.302 -0.0435  0.2440 -0.0548
  872MOL0     C20220   4.077   3.196  10.429 -0.4311  0.0716 -0.1950
  872MOL0     C20221   4.153   3.062  10.397  0.3043 -0.0038 -1.4070
  872MOL0     O20222   4.272   3.080  10.312  0.0293 -0.6175 -0.4764
  872MOL0     C20223   4.333   2.969  10.260 -0.2656 -0.3518  0.3639
  872MOL0     C20224   4.400   2.989  10.135 -1.5989  0.3631  0.1671
  872MOL0     C20225   4.473   2.887  10.080  0.2350 -0.8505 -0.3895
  872MOL0     C20226   4.569   2.917   9.966 -0.2337  0.8511 -0.6939
  872MOL0     C20227   4.470   2.757  10.141  0.6564  0.1199 -0.8079
  872MOL0     C20228   4.537   2.637  10.091 -0.6569  0.4769 -0.0086
  872MOL0     O20229   4.545   2.525  10.172 -0.8534  0.6629  0.2049
  872MOL0     C20230   4.562   2.390  10.125 -1.4314 -0.3734  0.1289
  872MOL0     C20231   4.618   2.298  10.214  0.1383  0.1920 -0.6300
  872MOL0     C20232   4.657   2.165  10.180  0.1534  0.2385 -0.9028
  872MOL0     C20233   4.653   2.131  10.040 -0.8796 -0.2303  0.2406
  872MOL0     O20234   4.720   2.019   9.991  0.0134  0.4072  0.3303
  872MOL0     C20235   4.703   1.896  10.063  1.3216 -0.0115 -0.0862
  872MOL0     C20236   4.662   1.792   9.963  0.2354 -0.3915  0.5762
  872MOL0     C20237   4.539   1.826   9.889 -0.0738 -0.3197 -0.0508
  872MOL0     C20238   4.512   1.712   9.791  0.5411 -0.7495  1.8083
  872MOL0     C20239   4.373   1.730   9.736 -0.3144  0.3697 -0.5116
  872MOL0     C20240   4.326   1.619   9.640  0.7023 -0.2530  0.0784
  872MOL0     C20241   4.178   1.642   9.586 -0.2463  0.3133  0.3420
  872MOL0     C20242   4.148   1.775   9.530 -0.5131 -0.6492 -0.6213
  872MOL0    Cl20243   3.993   1.759   9.464 -0.4814 -0.1962  0.1866
  872MOL0     C20244   4.597   2.225   9.947 -0.2320  0.7318  0.0066
  872MOL0     C20245   4.550   2.350   9.992  0.2822  0.6322  0.0508
  872MOL0     O20246   4.574   2.641   9.975 -0.5649 -0.7549  0.2672
  872MOL0     C20247   4.392   2.740  10.260 -0.6126 -0.2770  0.9346
  872MOL0     C20248   4.328   2.849  10.318  0.4626 -0.1485  0.5148
  872MOL0     N20249   4.090   3.673  10.251  0.6720  0.0881 -0.0182
  872MOL0     N20250   4.077   3.736  10.144 -0.8149 -0.4917 -0.5030
  872MOL0     C20251   3.323   3.060   9.395  0.0653 -0.4802 -0.4894
  872MOL0     C20252   3.294   2.948   9.314  0.3571 -0.2216 -0.3558
  872MOL0     C20253   3.253   2.508   9.202  0.3948 -0.6161  0.3306
  872MOL0     C20254   3.374   2.436   9.208 -0.8962  0.7064  0.4191
  872MOL0     C20255   3.390   2.309   9.151 -0.3877  0.2639 -0.5753
  872MOL0     C20256   3.280   2.263   9.072 -0.3337  0.0666 -0.4321
  872MOL0     O20257   3.308   2.147   9.014  0.4031 -0.2566  0.4495
  872MOL0     C20258   3.201   2.052   8.982 -0.7977 -0.4870 -0.1007
  872MOL0     C20259   3.150   1.977   9.114 -0.2746 -0.0787  0.0011
  872MOL0     C20260   3.063   1.868   9.079 -1.1189  0.2811 -0.7726
  872MOL0     C20261   3.057   1.781   9.208  0.0384 -0.2986 -0.0594
  872MOL0     C20262   2.954   1.676   9.199  0.1807  0.0974 -0.1479
  872MOL0     C20263   2.856   1.595   9.192 -0.3209  0.5252 -0.2911
  872MOL0     C20264   3.154   2.331   9.087 -0.2922  0.3443  0.2420
  872MOL0     C20265   3.138   2.450   9.148  1.1291  0.4950  0.5601
  872MOL0     C20266   2.994   2.514   9.150  0.2209 -0.7384 -0.2880
  872MOL0     H20267   3.594   2.801   9.321  0.7866 -0.7449  3.5778
  872MOL0     H20268   3.637   3.001   9.468 -0.4107  0.1002  1.2580
  872MOL0     H20269   3.348   3.137   9.717 -1.6005  1.0048  0.8797
  872MOL0     H20270   3.299   3.271   9.588 -0.3315 -0.6102 -0.3356
  872MOL0     H20271   3.349   3.406   9.750  1.3508  1.5317 -0.7767
  872MOL0     H20272   3.429   3.288   9.842 -0.1526 -1.1331 -0.1651
  872MOL0     H20273   3.566   3.403   9.585 -0.1791  2.9181  0.4221
  872MOL0     H20274   3.575   3.495   9.733 -0.3255  0.5762  1.1137
  872MOL0     H20275   3.671   3.274   9.825  0.7036  1.5548  0.6885
  872MOL0     H20276   3.694   3.230   9.664  0.3207  1.1892 -2.1252
  872MOL0     H20277   3.830   3.440   9.617  2.0138  0.1510  0.5080
  872MOL0     H20278   3.896   3.326   9.749 -0.6010  0.2346  0.3910
  872MOL0     H20279   3.784   3.601   9.788 -0.4663  0.2887  2.0750
  872MOL0     H20280   3.799   3.483   9.913  0.7325 -1.5178  0.2616
  872MOL0     H20281   4.030   3.579   9.729  0.8158 -0.8998  0.3763
  872MOL0     H20282   4.046   3.476   9.871  1.1079 -0.5513 -2.4576
  872MOL0     H20283   4.076   3.742   9.869 -0.2889 -0.2376  0.2508
  872MOL0     H20284   3.912   3.748   9.913  0.2564  1.6191 -3.4260
  872MOL0     H20285   3.908   3.459  10.091  1.6633 -0.7234 -2.1917
  872MOL0     H20286   3.932   3.425  10.398 -0.2283 -2.4737  0.5714
  872MOL0     H20287   4.104   3.455  10.426  0.6442 -3.1778  0.9083
  872MOL0     H20288   4.007   3.257  10.226  1.4713 -3.7155  0.2060
  872MOL0     H20289   4.181   3.296  10.269  0.6614 -2.3969  1.6171
  872MOL0     H20290   4.125   3.245  10.514 -0.7558 -1.0727  0.6829
  872MOL0     H20291   3.976   3.177  10.466 -0.3787  0.5165  0.1819
  872MOL0     H20292   4.183   3.017  10.491 -2.0754  0.9052 -0.1298
  872MOL0     H20293   4.076   2.996  10.357 -1.3802 -0.3304  2.0231
  872MOL0     H20294   4.405   3.092  10.102  1.9348  0.5547  0.8506
  872MOL0     H20295   4.668   2.874   9.983 -0.2157  1.4586  0.8695
  872MOL0     H20296   4.574   3.023   9.936 -0.4849  0.0662 -3.8785
  872MOL0     H20297   4.536   2.862   9.878 -0.5492  0.7515 -0.5142
  872MOL0     H20298   4.630   2.334  10.316  0.8916  3.7595 -1.8648
  872MOL0     H20299   4.707   2.102  10.253  2.4443  0.9397 -1.7653
  872MOL0     H20300   4.806   1.867  10.087  0.4469 -1.1248  2.6594
  872MOL0     H20301   4.637   1.900  10.150 -0.6555 -4.2206 -1.1525
  872MOL0     H20302   4.736   1.773   9.884  0.5510  2.5731  0.0321
  872MOL0     H20303   4.629   1.703  10.017 -0.1425 -0.9753 -0.5791
  872MOL0     H20304   4.556   1.921   9.839  0.0102 -0.3560 -0.0912
  872MOL0     H20305   4.456   1.846   9.958 -1.4079  1.4319 -2.0379
  872MOL0     H20306   4.505   1.615   9.841  2.3807 -3.1859 -2.1362
  872MOL0     H20307   4.584   1.700   9.710 -3.1318 -0.6590 -1.7878
  872MOL0     H20308   4.305   1.725   9.821  1.8634 -0.6547  1.2777
  872MOL0     H20309   4.365   1.825   9.682  0.9376  0.0040 -1.3947
  872MOL0     H20310   4.321   1.518   9.682  1.0428 -0.6219 -0.7357
  872MOL0     H20311   4.393   1.612   9.554  0.2567  1.7659 -0.4665
  872MOL0     H20312   4.112   1.623   9.672 -0.5880 -1.6282 -0.2996
  872MOL0     H20313   4.165   1.578   9.499 -2.5830  0.0420  0.8241
  872MOL0     H20314   4.230   1.799   9.462 -0.7281 -0.6758 -0.8918
  872MOL0     H20315   4.157   1.857   9.602  4.2242 -2.3666  1.1048
  872MOL0     H20316   4.589   2.206   9.840 -1.4652 -2.3457  0.5437
  872MOL0     H20317   4.513   2.418   9.916  0.9800 -1.4088 -2.2466
  872MOL0     H20318   4.395   2.647  10.316 -0.4942 -2.2463 -2.1564
  872MOL0     H20319   4.280   2.829  10.414  1.1572 -4.2135  0.1994
  872MOL0     H20320   3.244   3.131   9.421  2.1702  2.0813 -0.6202
  872MOL0     H20321   3.193   2.944   9.274  1.0945  0.6451 -2.4314
  872MOL0     H20322   3.455   2.478   9.266 -1.1644 -0.3455  1.6103
  872MOL0     H20323   3.483   2.253   9.155 -1.6557 -2.0258 -1.1598
  872MOL0     H20324   3.127   2.117   8.933  1.7751  1.9078 -1.0819
  872MOL0     H20325   3.240   1.981   8.908  0.2390 -1.1621  1.0692
  872MOL0     H20326   3.093   2.045   9.177 -1.7157 -0.8244 -0.4545
  872MOL0     H20327   3.235   1.934   9.167  1.7554 -1.0742 -3.6583
  872MOL0     H20328   2.966   1.907   9.049 -2.1154 -1.6465 -0.1933
  872MOL0     H20329   3.092   1.798   8.999 -0.7325  1.3560 -1.5927
  872MOL0     H20330   3.049   1.839   9.300  2.9924 -0.0515  0.1569
  872MOL0     H20331   3.155   1.733   9.219  0.9281  1.3030 -0.7070
  872MOL0     H20332   2.786   1.515   9.180 -1.9354  1.7880  0.2504
  872MOL0     H20333   3.066   2.301   9.031 -0.6013  1.9349 -0.1542
  872MOL0     H20334   2.975   2.600   9.087 -1.7740 -0.8473  0.1062
  872MOL0     H20335   2.923   2.461   9.086 -1.5308  1.7237 -0.4930
  872MOL0     H20336   2.958   2.525   9.253  2.2190 -1.7913  0.5988
  873MOL0     O20337   7.568   5.066   3.185 -0.3335 -0.3995 -0.3835
  873MOL0     C20338   7.632   5.140   3.110 -0.4082 -1.1691 -0.3708
  873MOL0     O20339   7.639   5.277   3.134 -0.9824 -0.4831  0.1913
  873MOL0     C20340   7.580   5.334   3.242 -0.2791 -0.3965  0.1513
  873MOL0     C20341   7.470   5.426   3.225 -0.2556 -0.1628 -0.1027
  873MOL0     C20342   7.401   5.478   3.333 -0.8990  0.4627 -0.0658
  873MOL0     C20343   7.434   5.451   3.463 -1.3113  1.3932 -0.0565
  873MOL0     O20344   7.357   5.504   3.567  1.0884  0.0002  0.7567
  873MOL0     C20345   7.407   5.502   3.701 -0.4931 -0.1404  0.4522
  873MOL0     C20346   7.295   5.537   3.793  0.1882 -1.2700  0.5340
  873MOL0     C20347   7.339   5.556   3.942  0.4669 -0.4613  0.8329
  873MOL0     C20348   7.224   5.532   4.042 -0.3589 -0.4820  0.0329
  873MOL0     C20349   7.268   5.525   4.184 -1.1649  0.3601 -0.9715
  873MOL0     C20350   7.217   5.389   4.236  0.4264  0.6548  0.0535
  873MOL0     C20351   7.225   5.371   4.386  0.4602 -0.7226 -0.1551
  873MOL0     C20352   7.370   5.383   4.446 -0.2915  0.4871  0.6278
  873MOL0     N20353   7.366   5.399   4.592 -0.1315 -0.3796  0.3541
  873MOL0     C20354   7.273   5.466   4.662  0.6090  0.6426 -0.2407
  873MOL0     C20355   7.313   5.456   4.786 -0.5369  1.2272 -0.1613
  873MOL0     C20356   7.249   5.516   4.905 -2.0154  0.2184  0.5609
  873MOL0     C20357   7.204   5.424   5.017 -0.1804 -0.6382  0.1967
  873MOL0     C20358   7.229   5.502   5.153  0.0683  0.1030  0.6731
  873MOL0     C20359   7.178   5.655   5.148 -0.3254  0.2593 -0.0307
  873MOL0     O20360   7.161   5.701   5.284  0.9562  0.4644 -0.6108
  873MOL0     C20361   7.272   5.713   5.365 -0.6629  1.0728  0.3648
  873MOL0     C20362   7.300   5.620   5.470 -0.1303  0.0571 -0.0141
  873MOL0     C20363   7.410   5.639   5.556 -0.3954 -0.1074 -0.0072
  873MOL0     C20364   7.425   5.539   5.672 -0.7919 -0.0607  0.0700
  873MOL0     C20365   7.487   5.761   5.550 -0.1759  0.0459 -0.5377
  873MOL0     C20366   7.595   5.802   5.646 -0.4090  0.3095 -0.5179
  873MOL0     O20367   7.580   5.916   5.702 -0.1678  0.3680 -0.0273
  873MOL0     C20368   7.659   5.960   5.801 -0.2103  0.8984 -0.8805
  873MOL0     C20369   7.701   5.880   5.907 -0.7094 -0.9495  0.9670
  873MOL0     C20370   7.780   5.938   6.007 -0.0196 -1.3324 -0.2775
  873MOL0     C20371   7.814   6.079   5.995  0.6005  0.1962  0.7289
  873MOL0     O20372   7.904   6.130   6.093  0.3046 -0.0424  0.1275
  873MOL0     C20373   7.856   6.220   6.196 -0.1226  1.2254  0.3070
  873MOL0     C20374   7.971   6.279   6.284  0.7027 -0.9557  0.8383
  873MOL0     C20375   7.923   6.409   6.344  0.6566  0.0698 -0.4018
  873MOL0     C20376   8.004   6.487   6.454 -0.3062 -0.0491  0.6726
  873MOL0     C20377   7.937   6.622   6.503  0.7218  0.2379 -0.7034
  873MOL0     C20378   7.848   6.675   6.393 -1.2040 -0.1530  0.3036
  873MOL0     C20379   7.808   6.817   6.429 -0.2626  0.3923 -1.2432
  873MOL0     C20380   7.673   6.856   6.380  0.2416  0.5661 -0.1202
  873MOL0    Cl20381   7.633   6.997   6.478 -0.2659 -0.6535 -0.0041
  873MOL0     C20382   7.764   6.155   5.891 -0.0190  1.0133 -0.1314
  873MOL0     C20383   7.682   6.095   5.799 -0.0449 -0.1697  0.3644
  873MOL0     O20384   7.686   5.723   5.669  0.1336 -0.2256  0.3692
  873MOL0     C20385   7.437   5.865   5.467 -0.2936  0.5499  0.4291
  873MOL0     C20386   7.336   5.831   5.375  0.1433  0.1796  0.3169
  873MOL0     N20387   7.416   5.367   4.791 -0.3116 -0.0431 -0.2783
  873MOL0     N20388   7.450   5.334   4.673  0.0562  0.0537  0.0712
  873MOL0     C20389   7.549   5.365   3.488  0.3276 -0.5555 -0.1400
  873MOL0     C20390   7.624   5.319   3.382  0.2082  0.1534 -0.4718
  873MOL0     C20391   7.681   5.087   2.980  0.2709 -1.3232  0.2360
  873MOL0     C20392   7.684   4.954   2.961  1.0554  0.3260 -0.6327
  873MOL0     C20393   7.731   4.897   2.845  0.0151 -0.6258 -0.2974
  873MOL0     C20394   7.767   4.974   2.728  0.6711  0.1218 -0.4519
  873MOL0     O20395   7.799   4.903   2.617  0.2948 -0.6048  0.0818
  873MOL0     C20396   7.829   4.971   2.493  0.5023  0.7383  0.0401
  873MOL0     C20397   7.701   5.030   2.428  0.0446 -0.2780 -0.2053
  873MOL0     C20398   7.741   5.129   2.316  0.3320  0.1811  0.8340
  873MOL0     C20399   7.636   5.239   2.280  0.3796 -0.1189 -0.0805
  873MOL0     C20400   7.634   5.348   2.372  0.3438  0.1490  0.0307
  873MOL0     C20401   7.620   5.437   2.446 -0.8809 -0.5098  1.0935
  873MOL0     C20402   7.754   5.111   2.741 -0.6366  0.4827 -1.3690
  873MOL0     C20403   7.721   5.174   2.871 -0.8174 -0.6538  0.0186
  873MOL0     C20404   7.728   5.335   2.886  0.7163  0.1232 -0.7541
  873MOL0     H20405   7.447   5.447   3.121  4.7576 -0.5964 -1.5628
  873MOL0     H20406   7.312   5.537   3.315 -0.8165  1.6358  2.9581
  873MOL0     H20407   7.485   5.573   3.726 -1.2695  0.5023  1.0962
  873MOL0     H20408   7.444   5.403   3.732  5.3319  1.8885  1.1984
  873MOL0     H20409   7.247   5.628   3.755  0.0535 -2.0113 -1.1329
  873MOL0     H20410   7.217   5.461   3.800 -0.3696 -1.1768 -2.7732
  873MOL0     H20411   7.424   5.489   3.959  0.1657 -1.2861 -0.7717
  873MOL0     H20412   7.388   5.653   3.946  0.2879 -0.3583  0.5260
  873MOL0     H20413   7.149   5.612   4.044 -2.2521 -2.1969  1.2894
  873MOL0     H20414   7.183   5.436   4.008 -0.0187  0.0811 -2.1457
  873MOL0     H20415   7.223   5.606   4.240 -2.4440 -2.6831  2.8403
  873MOL0     H20416   7.378   5.528   4.184 -1.1258  1.1361 -3.2202
  873MOL0     H20417   7.114   5.377   4.201  1.7431 -4.3510 -3.0884
  873MOL0     H20418   7.280   5.309   4.197  0.7268  0.2633  1.2883
  873MOL0     H20419   7.180   5.286   4.439  2.7173 -1.0339  1.4073
  873MOL0     H20420   7.183   5.463   4.426  1.5605  0.2574 -1.1670
  873MOL0     H20421   7.425   5.289   4.438 -0.6047  0.4253 -1.9174
  873MOL0     H20422   7.437   5.454   4.397 -2.1006  0.1586 -2.6333
  873MOL0     H20423   7.195   5.520   4.610  1.3575  1.1847 -0.8229
  873MOL0     H20424   7.161   5.557   4.855 -0.5501 -0.9770 -3.3852
  873MOL0     H20425   7.319   5.597   4.929  0.5587 -1.1295 -1.6876
  873MOL0     H20426   7.098   5.430   4.990 -0.4238  2.3693  1.3568
  873MOL0     H20427   7.259   5.330   5.014  0.5819 -0.2506  1.3449
  873MOL0     H20428   7.187   5.446   5.237 -5.8303  1.9108 -0.6124
  873MOL0     H20429   7.337   5.511   5.168 -0.2893  2.0119  2.4752
  873MOL0     H20430   7.244   5.712   5.083  1.8447 -2.9005 -0.8167
  873MOL0     H20431   7.078   5.655   5.102 -0.1139 -2.5738 -0.6506
  873MOL0     H20432   7.243   5.528   5.466 -2.8338  1.5466 -4.7049
  873MOL0     H20433   7.331   5.542   5.728 -1.2212  3.0413 -0.6470
  873MOL0     H20434   7.504   5.560   5.746  0.3329 -1.5120 -0.6622
  873MOL0     H20435   7.428   5.439   5.627 -3.7560 -0.0996 -0.2201
  873MOL0     H20436   7.679   5.774   5.906  0.7089 -1.3400 -3.0669
  873MOL0     H20437   7.814   5.880   6.092 -5.6482 -1.4866  2.3651
  873MOL0     H20438   7.794   6.301   6.156  0.4856  0.8785 -1.4210
  873MOL0     H20439   7.792   6.167   6.266  0.6552  1.9900  1.6402
  873MOL0     H20440   7.995   6.214   6.369  1.6236  0.3640  1.6313
  873MOL0     H20441   8.050   6.302   6.212 -2.5536  1.8216 -2.1556
  873MOL0     H20442   7.822   6.390   6.381  1.1129 -1.1826  0.2633
  873MOL0     H20443   7.909   6.470   6.255 -0.2587  1.6981  0.8039
  873MOL0     H20444   8.105   6.507   6.414 -0.1719  1.1260  1.5599
  873MOL0     H20445   8.005   6.426   6.544 -0.9551  1.5783  1.8168
  873MOL0     H20446   7.872   6.609   6.590  0.3949  3.2594 -0.3850
  873MOL0     H20447   8.020   6.685   6.537  1.4457 -1.6359  1.2641
  873MOL0     H20448   7.759   6.612   6.396 -1.3349  0.0092 -0.0743
  873MOL0     H20449   7.893   6.666   6.293  0.4790 -1.7596  1.1422
  873MOL0     H20450   7.884   6.890   6.402  0.6784  0.2724  0.8364
  873MOL0     H20451   7.785   6.819   6.536 -0.2587  0.6539 -1.2475
  873MOL0     H20452   7.602   6.772   6.385 -0.5046  1.2466  2.2072
  873MOL0     H20453   7.678   6.894   6.278 -0.4323  0.9886 -0.0056
  873MOL0     H20454   7.790   6.260   5.882  0.4185  0.9507  0.3106
  873MOL0     H20455   7.647   6.165   5.724  3.3100  0.0835 -1.1523
  873MOL0     H20456   7.471   5.968   5.470 -1.8091  1.1429 -1.1340
  873MOL0     H20457   7.295   5.905   5.307  2.8561  1.1329 -0.4057
  873MOL0     H20458   7.564   5.347   3.594 -3.5683  0.5855  0.7745
  873MOL0     H20459   7.706   5.258   3.419  1.2709  3.0065  2.2453
  873MOL0     H20460   7.644   4.892   3.041 -0.3970  0.6911 -1.0441
  873MOL0     H20461   7.744   4.791   2.831 -0.7380 -0.7018 -0.4980
  873MOL0     H20462   7.917   5.036   2.494  0.2309  1.1059  0.0112
  873MOL0     H20463   7.855   4.882   2.435 -2.5082 -0.2053 -0.0155
  873MOL0     H20464   7.642   5.089   2.498 -0.1342  2.3490 -2.4004
  873MOL0     H20465   7.642   4.951   2.381  3.3554 -1.7654 -2.3029
  873MOL0     H20466   7.834   5.185   2.334 -0.1718  1.7085 -0.9949
  873MOL0     H20467   7.755   5.073   2.223 -0.8458  0.6553  0.3564
  873MOL0     H20468   7.539   5.190   2.294 -0.2517  1.6015  2.2268
  873MOL0     H20469   7.653   5.275   2.179  3.9652  0.2449  0.5016
  873MOL0     H20470   7.626   5.534   2.491  0.0190 -0.3062  0.5740
  873MOL0     H20471   7.793   5.175   2.662  0.3592  0.7090 -0.7152
  873MOL0     H20472   7.623   5.362   2.880  0.2060 -0.8228  2.2710
  873MOL0     H20473   7.796   5.370   2.964  2.9608  1.0928 -3.0024
  873MOL0     H20474   7.772   5.371   2.792 -1.5244  2.1388 -1.1411
  874MOL0     O20475   0.605   6.237   1.680 -0.2220  0.1824 -0.4289
  874MOL0     C20476   0.546   6.319   1.755  0.5695 -0.0935 -0.0524
  874MOL0     O20477   0.603   6.432   1.804 -0.3270  0.3418 -0.3395
  874MOL0     C20478   0.743   6.453   1.805 -0.1909  0.4556 -0.8557
  874MOL0     C20479   0.785   6.545   1.896  1.2670  0.2078 -0.1441
  874MOL0     C20480   0.913   6.590   1.901  0.1901 -0.3074 -0.1774
  874MOL0     C20481   1.008   6.556   1.812 -0.0016 -1.1207 -0.0614
  874MOL0     O20482   1.123   6.633   1.832 -0.4858  0.0648  0.3267
  874MOL0     C20483   1.180   6.658   1.704  0.5355  0.9504 -1.1810
  874MOL0     C20484   1.280   6.767   1.701  0.4629  0.4519 -0.4544
  874MOL0     C20485   1.416   6.706   1.749  0.3050  0.0144 -0.1130
  874MOL0     C20486   1.536   6.806   1.748  0.8003  0.5553  0.1353
  874MOL0     C20487   1.656   6.745   1.822 -0.3318 -0.1836  0.3291
  874MOL0     C20488   1.772   6.838   1.842  0.4063  0.2281 -0.2917
  874MOL0     C20489   1.889   6.762   1.908 -0.0710 -0.2028 -0.9403
  874MOL0     C20490   1.991   6.864   1.945  0.1639  0.5816 -1.1603
  874MOL0     N20491   2.104   6.797   2.014  0.4546 -1.3412 -0.4869
  874MOL0     C20492   2.193   6.709   1.958  0.3016 -0.2325  0.6174
  874MOL0     C20493   2.292   6.691   2.050  1.8126 -0.2929  0.4560
  874MOL0     C20494   2.412   6.596   2.050 -1.0297  0.3028 -0.6423
  874MOL0     C20495   2.483   6.604   1.920 -0.2901  0.5774 -0.8031
  874MOL0     C20496   2.615   6.529   1.939  0.4896 -0.4901 -0.9996
  874MOL0     C20497   2.697   6.542   1.810 -0.8012 -0.1355  0.3253
  874MOL0     O20498   2.644   6.468   1.689 -0.6087 -0.5057  0.0425
  874MOL0     C20499   2.638   6.329   1.724 -0.2517  0.0805  0.3089
  874MOL0     C20500   2.740   6.249   1.765 -0.4881 -0.4658 -0.5510
  874MOL0     C20501   2.718   6.114   1.776 -1.1781 -0.0025 -0.4638
  874MOL0     C20502   2.844   6.032   1.802  0.4618  0.4114 -0.5930
  874MOL0     C20503   2.604   6.046   1.732 -0.1115 -0.1732 -0.0719
  874MOL0     C20504   2.586   5.899   1.730 -1.0157  0.9196  0.1526
  874MOL0     O20505   2.643   5.819   1.828  0.1492  0.4937  0.1292
  874MOL0     C20506   2.594   5.690   1.826  0.3466 -0.6022  0.5877
  874MOL0     C20507   2.640   5.609   1.724  0.3627  1.1392 -0.1658
  874MOL0     C20508   2.601   5.477   1.719 -0.6857  0.4559  0.0333
  874MOL0     C20509   2.513   5.423   1.810  1.4196 -0.2704  0.6514
  874MOL0     O20510   2.464   5.296   1.775  0.2225  0.5392  0.2018
  874MOL0     C20511   2.500   5.184   1.861 -0.3937  0.6318  0.4533
  874MOL0     C20512   2.419   5.059   1.839 -0.0002  0.0535  1.1629
  874MOL0     C20513   2.447   5.003   1.702 -0.5756 -0.5970 -0.8544
  874MOL0     C20514   2.373   4.874   1.682 -0.7318  0.5142 -0.0810
  874MOL0     C20515   2.407   4.825   1.540  0.7734 -0.6191  0.9537
  874MOL0     C20516   2.521   4.733   1.524  0.5775  0.3459 -0.7068
  874MOL0     C20517   2.481   4.598   1.582  0.3639 -0.2852 -0.5766
  874MOL0     C20518   2.561   4.557   1.706  0.2889 -1.0360  0.1862
  874MOL0    Cl20519   2.487   4.408   1.788  0.2268  0.1214 -0.1244
  874MOL0     C20520   2.471   5.503   1.911 -0.6075  0.1855 -1.0397
  874MOL0     C20521   2.509   5.640   1.927 -0.1705  0.0003  0.3971
  874MOL0     O20522   2.518   5.857   1.639  0.0860 -0.6794 -0.7309
  874MOL0     C20523   2.497   6.129   1.697  0.6063  0.8022  0.8035
  874MOL0     C20524   2.519   6.265   1.688 -0.5234  0.0925  0.0516
  874MOL0     N20525   2.254   6.762   2.156 -0.4378  0.0187 -0.3586
  874MOL0     N20526   2.146   6.828   2.137 -0.2385  0.1051 -0.2509
  874MOL0     C20527   0.978   6.447   1.727  0.5253  1.3375 -0.1896
  874MOL0     C20528   0.848   6.388   1.728 -0.0642 -0.2830  0.2436
  874MOL0     C20529   0.400   6.303   1.790 -0.9079  0.3473  0.4627
  874MOL0     C20530   0.334   6.406   1.846  0.0253 -0.8767  0.2979
  874MOL0     C20531   0.195   6.400   1.871  0.6567 -0.2104  0.3901
  874MOL0     C20532   0.129   6.280   1.856 -0.7536  0.5741  1.0391
  874MOL0     O20533  -0.009   6.277   1.890 -0.4262 -2.0095  0.0750
  874MOL0     C20534  -0.052   6.160   1.952 -0.6026  0.1208  0.6620
  874MOL0     C20535  -0.061   6.139   2.112 -0.5074  0.4100 -0.6626
  874MOL0     C20536  -0.107   5.999   2.136 -0.9225 -0.1138  0.0272
  874MOL0     C20537  -0.138   5.978   2.283  0.1030 -0.2850  0.1490
  874MOL0     C20538  -0.274   6.032   2.305  0.6289 -0.8596  0.1022
  874MOL0     C20539  -0.377   6.084   2.348 -1.2319  0.0155  0.4703
  874MOL0     C20540   0.197   6.170   1.798 -0.1216 -0.0967 -0.3352
  874MOL0     C20541   0.329   6.177   1.764  0.7195 -1.0889 -0.1848
  874MOL0     C20542   0.391   6.065   1.689  0.0679  0.9267 -0.3224
  874MOL0     H20543   0.702   6.576   1.959 -0.9640 -1.5387 -2.0483
  874MOL0     H20544   0.940   6.670   1.968  0.9649  0.9399 -1.8857
  874MOL0     H20545   1.099   6.686   1.635 -0.0985  1.6986 -0.1558
  874MOL0     H20546   1.213   6.565   1.656 -1.0567  0.7594 -1.9707
  874MOL0     H20547   1.290   6.807   1.600 -0.9238 -1.5747 -1.4782
  874MOL0     H20548   1.248   6.842   1.774 -0.9501  1.5485 -2.1514
  874MOL0     H20549   1.399   6.657   1.846 -0.9821  2.0409  0.7514
  874MOL0     H20550   1.427   6.626   1.675 -1.0037 -2.4215  2.1372
  874MOL0     H20551   1.563   6.827   1.644 -1.3214 -0.2900 -0.6383
  874MOL0     H20552   1.497   6.899   1.788 -0.0220 -0.2638  1.3038
  874MOL0     H20553   1.701   6.661   1.768 -1.0730 -1.5548  1.7695
  874MOL0     H20554   1.625   6.699   1.915  0.0753 -0.8578  0.1364
  874MOL0     H20555   1.808   6.887   1.752 -0.2672  0.9525 -0.1710
  874MOL0     H20556   1.730   6.917   1.905  1.0837  1.2180 -1.0536
  874MOL0     H20557   1.942   6.688   1.847 -1.3214 -1.8328 -0.1608
  874MOL0     H20558   1.847   6.715   1.998  1.9377  0.5349  0.4620
  874MOL0     H20559   2.043   6.910   1.860  2.1473 -1.2347 -1.0110
  874MOL0     H20560   1.943   6.936   2.012 -1.5842 -0.9457 -0.6824
  874MOL0     H20561   2.176   6.674   1.857  1.5708 -0.4829  0.4839
  874MOL0     H20562   2.383   6.493   2.072 -0.1737  0.0103 -0.8669
  874MOL0     H20563   2.480   6.641   2.123  0.5148  0.5192 -2.1433
  874MOL0     H20564   2.414   6.567   1.843 -1.9815  0.9470  0.4546
  874MOL0     H20565   2.507   6.706   1.886 -0.6092  0.0847 -2.6362
  874MOL0     H20566   2.669   6.570   2.025 -2.7117  1.9853  0.0412
  874MOL0     H20567   2.595   6.423   1.960 -1.9977  0.4854  2.3434
  874MOL0     H20568   2.710   6.647   1.779  0.0518 -0.4292 -0.3395
  874MOL0     H20569   2.795   6.500   1.834  0.6999  2.7975 -0.1972
  874MOL0     H20570   2.842   6.284   1.772  0.1712 -2.3168 -0.6124
  874MOL0     H20571   2.935   6.094   1.806  1.5871 -1.2489  1.6876
  874MOL0     H20572   2.874   5.960   1.725  2.3047 -0.9207  1.2450
  874MOL0     H20573   2.831   5.961   1.884 -0.8777  1.8939  0.5483
  874MOL0     H20574   2.718   5.648   1.659  2.7491 -0.0442  1.8095
  874MOL0     H20575   2.645   5.414   1.642 -0.4379 -0.8558  1.1949
  874MOL0     H20576   2.607   5.169   1.847 -1.2184 -4.2766 -3.1282
  874MOL0     H20577   2.495   5.218   1.965 -0.1431  1.2402  0.2654
  874MOL0     H20578   2.438   4.987   1.919  0.3628 -1.0781  0.0957
  874MOL0     H20579   2.314   5.090   1.840 -0.5756 -1.5088  4.4960
  874MOL0     H20580   2.556   5.002   1.692 -0.5763  0.5170 -1.0454
  874MOL0     H20581   2.402   5.083   1.643 -2.0878 -0.3613  0.5526
  874MOL0     H20582   2.265   4.873   1.697 -0.8497 -1.6412 -0.7337
  874MOL0     H20583   2.415   4.799   1.749  0.5428  2.1116  1.0207
  874MOL0     H20584   2.331   4.772   1.482  2.6047 -2.6744  0.3022
  874MOL0     H20585   2.437   4.912   1.481  3.3360 -3.6696 -2.7653
  874MOL0     H20586   2.617   4.769   1.562 -0.1005  2.4840 -0.9325
  874MOL0     H20587   2.530   4.711   1.417  0.7148 -1.5008 -0.3612
  874MOL0     H20588   2.493   4.523   1.503 -3.1522  0.6106 -2.1465
  874MOL0     H20589   2.376   4.596   1.613  0.0431 -0.6351 -1.6353
  874MOL0     H20590   2.566   4.645   1.771  1.7399 -1.5437  0.8155
  874MOL0     H20591   2.664   4.529   1.685  0.2997 -0.8630  0.0138
  874MOL0     H20592   2.388   5.472   1.974 -1.1094 -0.0675 -1.8159
  874MOL0     H20593   2.459   5.698   2.004 -1.6169 -1.4888  0.6274
  874MOL0     H20594   2.406   6.077   1.669  0.1247  1.9599  0.1367
  874MOL0     H20595   2.439   6.329   1.651 -0.0672 -0.1096 -1.3637
  874MOL0     H20596   1.061   6.401   1.673  1.9669  0.1430  2.8041
  874MOL0     H20597   0.841   6.320   1.644  0.5144  0.6648 -0.5937
  874MOL0     H20598   0.393   6.490   1.881 -0.4336 -0.1479 -0.6198
  874MOL0     H20599   0.138   6.475   1.926  3.1294  2.1671 -0.0496
  874MOL0     H20600  -0.157   6.150   1.920 -0.3353 -0.7462  0.0141
  874MOL0     H20601   0.002   6.073   1.913 -0.6741 -1.0292  2.9866
  874MOL0     H20602  -0.127   6.217   2.151  0.1262  2.0258 -2.6171
  874MOL0     H20603   0.039   6.145   2.158 -0.6666 -2.8921  0.3261
  874MOL0     H20604  -0.189   5.973   2.068  0.8645 -1.6452 -1.6673
  874MOL0     H20605  -0.022   5.941   2.100 -0.6016 -0.7084  1.6597
  874MOL0     H20606  -0.063   6.017   2.352 -0.7321  1.4294  0.1326
  874MOL0     H20607  -0.131   5.869   2.288  0.2137 -0.2782  0.1474
  874MOL0     H20608  -0.467   6.113   2.398 -1.3700  1.3563 -0.5110
  874MOL0     H20609   0.137   6.085   1.769 -0.5529  0.0953 -0.0176
  874MOL0     H20610   0.449   6.010   1.763 -0.7516  1.7928  1.0026
  874MOL0     H20611   0.311   5.996   1.660 -0.8262  1.7676  0.0525
  874MOL0     H20612   0.441   6.091   1.595  0.5685  0.4806 -0.1829
  875MOL0     O20613   1.234   6.928   4.876 -0.3015  0.5964 -0.2814
  875MOL0     C20614   1.210   6.808   4.904  0.2836 -0.4759 -0.3038
  875MOL0     O20615   1.237   6.750   5.024 -0.7622 -0.4496  0.1083
  875MOL0     C20616   1.293   6.827   5.124  0.2836  0.0637  0.8824
  875MOL0     C20617   1.418   6.880   5.110 -0.9659  0.8423  0.1746
  875MOL0     C20618   1.470   6.953   5.210  0.0358 -0.1934  0.2793
  875MOL0     C20619   1.400   6.963   5.329  0.7041  1.2975  0.2780
  875MOL0     O20620   1.429   7.030   5.440  0.3727 -0.0407  0.8366
  875MOL0     C20621   1.538   7.110   5.445 -0.5053 -0.2544 -0.0775
  875MOL0     C20622   1.526   7.193   5.573 -0.4828 -0.4013  0.5221
  875MOL0     C20623   1.531   7.116   5.709  0.4993 -0.1970  0.3831
  875MOL0     C20624   1.665   7.053   5.745 -0.4640  0.4009  0.8537
  875MOL0     C20625   1.656   6.968   5.873 -0.8786 -0.2465 -0.1465
  875MOL0     C20626   1.790   6.892   5.901  0.6962 -1.2764 -0.2179
  875MOL0     C20627   1.811   6.837   6.042  0.0669 -0.7499  0.2549
  875MOL0     C20628   1.695   6.750   6.104 -0.7036 -0.3678  0.4982
  875MOL0     N20629   1.734   6.654   6.213 -0.1468 -0.3845  1.2784
  875MOL0     C20630   1.779   6.690   6.334  1.4296  1.1721 -0.2176
  875MOL0     C20631   1.810   6.573   6.400  0.8042  0.1300 -0.1901
  875MOL0     C20632   1.852   6.551   6.545 -0.5537  0.2650  0.0303
  875MOL0     C20633   1.995   6.507   6.565 -1.4159 -0.6370  0.4155
  875MOL0     C20634   2.029   6.374   6.504  0.3442 -0.1650  0.0498
  875MOL0     C20635   1.949   6.258   6.559  0.1665 -0.3066  0.1673
  875MOL0     O20636   1.972   6.154   6.461  0.6511 -0.0268 -0.0891
  875MOL0     C20637   1.956   6.022   6.502  0.2914 -1.1242  0.1261
  875MOL0     C20638   1.974   5.936   6.400 -0.9624  0.7455  0.1696
  875MOL0     C20639   1.980   5.795   6.417  0.1114 -0.4721 -0.0158
  875MOL0     C20640   2.008   5.713   6.294  0.6534 -0.6400  0.4950
  875MOL0     C20641   1.956   5.743   6.546  0.6202  0.6960  0.1610
  875MOL0     C20642   1.947   5.599   6.580 -0.2612 -1.0288  1.0014
  875MOL0     O20643   1.961   5.595   6.708 -0.0419 -0.7338 -0.0675
  875MOL0     C20644   1.885   5.501   6.752  0.7344 -0.0737 -0.5497
  875MOL0     C20645   1.943   5.379   6.786  0.0708 -1.1656 -0.4360
  875MOL0     C20646   1.861   5.267   6.824 -0.8052  0.2306 -0.5250
  875MOL0     C20647   1.725   5.280   6.846  0.0268 -0.9880 -0.6449
  875MOL0     O20648   1.646   5.177   6.890  0.1085 -1.5897  0.5129
  875MOL0     C20649   1.688   5.066   6.959 -1.1484 -0.0447  0.2535
  875MOL0     C20650   1.557   5.022   7.025  0.4651 -0.1987 -0.5568
  875MOL0     C20651   1.516   5.093   7.149  0.1115 -0.5899  1.5864
  875MOL0     C20652   1.382   5.042   7.191 -0.0574  0.7907 -0.0859
  875MOL0     C20653   1.364   5.078   7.330  0.7078  0.7992 -0.1552
  875MOL0     C20654   1.231   5.001   7.376  0.2893 -0.8521  0.6136
  875MOL0     C20655   1.203   5.011   7.533 -0.0210  0.0965  0.6194
  875MOL0     C20656   1.067   4.951   7.562  0.7430 -1.0311 -0.7149
  875MOL0    Cl20657   1.092   4.768   7.539 -0.3972 -0.0621 -0.0977
  875MOL0     C20658   1.664   5.405   6.832 -0.6289 -0.0612 -0.0135
  875MOL0     C20659   1.748   5.515   6.783  0.1450  0.8976 -0.0048
  875MOL0     O20660   1.931   5.502   6.504  0.6009  0.0572 -0.2882
  875MOL0     C20661   1.929   5.839   6.647  0.4321 -0.2822 -0.0485
  875MOL0     C20662   1.931   5.975   6.625  1.1814 -0.0989 -1.1342
  875MOL0     N20663   1.786   6.469   6.310  0.1504 -0.6197 -0.9671
  875MOL0     N20664   1.730   6.514   6.203 -0.2917  0.3193  0.7116
  875MOL0     C20665   1.276   6.903   5.346  0.5958  1.3498  0.5955
  875MOL0     C20666   1.202   6.847   5.236  0.1009  0.3363 -0.4063
  875MOL0     C20667   1.153   6.729   4.795  1.5909  0.3745 -0.4128
  875MOL0     C20668   1.215   6.731   4.671 -0.3132 -0.2223  0.9264
  875MOL0     C20669   1.177   6.635   4.571 -0.5987  0.5738 -0.6180
  875MOL0     C20670   1.072   6.548   4.598  0.1535 -0.1411 -0.2223
  875MOL0     O20671   1.045   6.433   4.522  0.3170 -0.1390 -0.5968
  875MOL0     C20672   1.082   6.436   4.387  0.3441 -0.1490  1.2020
  875MOL0     C20673   0.999   6.336   4.312 -0.6483 -0.0103  0.5189
  875MOL0     C20674   1.044   6.330   4.171 -0.6446 -0.0207 -0.0887
  875MOL0     C20675   0.980   6.212   4.097 -0.4408 -0.3139  0.7775
  875MOL0     C20676   1.012   6.217   3.960 -0.4048  0.5037  0.2907
  875MOL0     C20677   1.040   6.246   3.850 -0.1224 -0.0935  0.0782
  875MOL0     C20678   1.004   6.549   4.713 -0.4504 -0.0140 -0.3834
  875MOL0     C20679   1.041   6.647   4.809  0.0839  0.7727  0.2529
  875MOL0     C20680   0.963   6.651   4.937 -0.1459  0.2581  0.9998
  875MOL0     H20681   1.478   6.870   5.021 -0.4411 -0.9709  0.7023
  875MOL0     H20682   1.568   6.993   5.185 -1.5427  4.4716  0.5090
  875MOL0     H20683   1.545   7.176   5.357  0.7862 -0.5850 -0.2505
  875MOL0     H20684   1.636   7.061   5.438  0.3170  1.4343 -1.4508
  875MOL0     H20685   1.616   7.254   5.564  1.5872 -3.2848  0.3372
  875MOL0     H20686   1.435   7.255   5.569 -0.0609  0.5169  3.2515
  875MOL0     H20687   1.500   7.188   5.785  0.8016 -0.1050  0.4198
  875MOL0     H20688   1.461   7.033   5.696  2.0080 -1.4057 -0.3794
  875MOL0     H20689   1.708   6.991   5.665  0.4323  1.5861  0.3823
  875MOL0     H20690   1.732   7.140   5.750  0.9512 -0.4655 -1.3970
  875MOL0     H20691   1.570   6.900   5.869  1.5242 -3.4848 -1.0260
  875MOL0     H20692   1.646   7.031   5.962  1.3377 -0.5682  0.3866
  875MOL0     H20693   1.791   6.817   5.822  2.7199 -1.5318  0.0071
  875MOL0     H20694   1.866   6.967   5.878 -0.6177 -0.0776 -0.8279
  875MOL0     H20695   1.826   6.923   6.107  1.2213 -1.3269  0.7956
  875MOL0     H20696   1.910   6.791   6.032 -1.6219 -4.4262 -1.5170
  875MOL0     H20697   1.615   6.817   6.137 -0.8729  0.0252 -0.6542
  875MOL0     H20698   1.662   6.683   6.024  1.6510 -2.1610  0.9280
  875MOL0     H20699   1.789   6.794   6.364 -1.9697  2.2811 -2.3688
  875MOL0     H20700   1.778   6.483   6.588 -2.6701  0.9249 -2.2914
  875MOL0     H20701   1.840   6.642   6.604  0.1999 -0.1090  0.7813
  875MOL0     H20702   2.063   6.575   6.512 -1.1539 -0.9641  0.3253
  875MOL0     H20703   2.033   6.512   6.667  0.1959  0.3945 -0.1943
  875MOL0     H20704   2.010   6.373   6.397  2.8736 -1.5289 -0.4526
  875MOL0     H20705   2.137   6.366   6.521  0.4673  1.5018  0.2608
  875MOL0     H20706   1.987   6.237   6.659  2.1913  0.4756 -0.3856
  875MOL0     H20707   1.841   6.277   6.563  0.0519 -1.0402  0.6693
  875MOL0     H20708   1.996   5.996   6.312  2.9979  1.6946  1.6181
  875MOL0     H20709   1.975   5.609   6.296 -0.6154 -0.3158 -1.1286
  875MOL0     H20710   2.117   5.714   6.285  0.9890 -0.9008  3.4879
  875MOL0     H20711   1.969   5.767   6.207  0.7466  1.7987  1.8807
  875MOL0     H20712   2.050   5.361   6.774  0.4693  0.6449  0.0339
  875MOL0     H20713   1.910   5.171   6.836  1.9446  1.6660  0.8450
  875MOL0     H20714   1.723   4.995   6.883 -3.8441 -0.3393 -0.8260
  875MOL0     H20715   1.767   5.082   7.033 -1.4340 -3.4403  1.4465
  875MOL0     H20716   1.478   5.032   6.949 -1.4932  1.0058  1.5022
  875MOL0     H20717   1.554   4.914   7.042 -0.3291 -0.8637 -4.0702
  875MOL0     H20718   1.500   5.196   7.117 -3.3433 -2.1970 -2.8724
  875MOL0     H20719   1.591   5.076   7.227  0.6052 -1.5100  0.9345
  875MOL0     H20720   1.399   4.934   7.178  1.2016  0.9169  0.3331
  875MOL0     H20721   1.311   5.086   7.122 -0.4213 -0.4625 -0.5430
  875MOL0     H20722   1.450   5.050   7.392  1.9474  1.7446 -1.3920
  875MOL0     H20723   1.361   5.187   7.343  2.1059  1.0793 -1.7865
  875MOL0     H20724   1.242   4.897   7.344 -0.6597 -0.7049 -0.2483
  875MOL0     H20725   1.145   5.053   7.332  2.8534  2.7576 -0.6496
  875MOL0     H20726   1.195   5.117   7.559 -1.3647  1.0706 -3.0914
  875MOL0     H20727   1.276   4.957   7.595  0.5767  0.8764  0.6208
  875MOL0     H20728   0.983   4.985   7.500  0.8998 -0.5251 -0.6534
  875MOL0     H20729   1.033   4.967   7.665  1.2498  3.0695 -1.0425
  875MOL0     H20730   1.558   5.414   6.851 -0.2525  2.0024  1.4818
  875MOL0     H20731   1.705   5.608   6.749 -0.3898  0.3442 -0.8888
  875MOL0     H20732   1.899   5.816   6.748 -0.5767  0.5180 -0.1415
  875MOL0     H20733   1.895   6.038   6.706  0.4132 -1.3953 -0.4388
  875MOL0     H20734   1.238   6.918   5.447 -0.0837  3.0808  0.1372
  875MOL0     H20735   1.103   6.807   5.252  0.6711 -0.9724  0.0504
  875MOL0     H20736   1.302   6.789   4.642  0.3181 -2.2921 -1.7257
  875MOL0     H20737   1.250   6.616   4.493 -1.2400 -1.3725 -0.8097
  875MOL0     H20738   1.068   6.537   4.349  2.3180 -0.5610 -0.8450
  875MOL0     H20739   1.190   6.414   4.385  0.4254 -0.3868  4.0027
  875MOL0     H20740   0.894   6.364   4.325 -0.5195  0.1344  1.2872
  875MOL0     H20741   1.030   6.244   4.362  2.8553 -0.6684 -2.4207
  875MOL0     H20742   1.013   6.425   4.126 -0.1216  0.5339  0.7045
  875MOL0     H20743   1.153   6.330   4.166 -0.5159  0.8075  2.0552
  875MOL0     H20744   0.871   6.213   4.108 -0.8139 -2.5703 -1.7430
  875MOL0     H20745   1.024   6.121   4.137  1.9599  0.1329 -0.6883
  875MOL0     H20746   1.066   6.262   3.747 -3.4753 -2.6508 -1.3500
  875MOL0     H20747   0.926   6.475   4.726 -0.1058 -0.0944  1.5232
  875MOL0     H20748   0.995   6.733   5.001  0.2590  0.1549  0.9316
  875MOL0     H20749   0.857   6.672   4.920  0.2770  1.9227  0.1955
  875MOL0     H20750   0.966   6.556   4.990  3.4968 -2.5450 -3.3943
  876MOL0     O20751   8.013   2.752   1.299 -0.1152  0.1392  0.2099
  876MOL0     C20752   8.135   2.776   1.306  1.1305 -0.3773  0.4439
  876MOL0     O20753   8.195   2.879   1.247 -0.1247  0.0060 -0.9555
  876MOL0     C20754   8.133   2.949   1.151  0.7234  0.0370 -0.0541
  876MOL0     C20755   8.028   2.903   1.059 -0.2215 -0.3198 -1.2321
  876MOL0     C20756   7.969   2.995   0.974  0.0608 -0.0941 -0.9919
  876MOL0     C20757   8.004   3.125   0.970  0.3946 -0.1610  0.4903
  876MOL0     O20758   7.935   3.214   0.889  0.2767  1.1859 -0.2200
  876MOL0     C20759   8.014   3.296   0.795 -0.2855  0.3125 -0.8211
  876MOL0     C20760   7.946   3.290   0.657  0.8691 -0.0606  0.3395
  876MOL0     C20761   8.023   3.362   0.556  0.4299  0.1735  0.8774
  876MOL0     C20762   7.944   3.387   0.419 -0.5711  0.0351 -0.8388
  876MOL0     C20763   8.045   3.436   0.315 -0.2167 -0.2370 -1.3152
  876MOL0     C20764   7.971   3.491   0.187  0.6194 -0.2165  0.5535
  876MOL0     C20765   8.069   3.551   0.090 -0.2663  0.0015  0.0441
  876MOL0     C20766   8.101   3.447  -0.016 -0.0392 -0.0305  0.2157
  876MOL0     N20767   8.185   3.503  -0.120 -0.7832 -1.0152 -0.2406
  876MOL0     C20768   8.178   3.466  -0.251  0.3162 -0.4584 -0.4490
  876MOL0     C20769   8.278   3.545  -0.309  0.6420 -0.5027 -0.1842
  876MOL0     C20770   8.321   3.535  -0.456  0.7523 -0.7392 -0.8463
  876MOL0     C20771   8.210   3.590  -0.547 -0.3793  0.0608  0.0143
  876MOL0     C20772   8.230   3.748  -0.593  0.2614  0.0406 -0.8616
  876MOL0     C20773   8.136   3.777  -0.707  0.7096 -0.4795  0.7258
  876MOL0     O20774   8.006   3.738  -0.670 -0.3872 -0.8217  0.2594
  876MOL0     C20775   7.921   3.696  -0.767  0.1927 -0.2173 -0.6022
  876MOL0     C20776   7.803   3.646  -0.714 -0.8790 -0.2565 -0.8457
  876MOL0     C20777   7.706   3.581  -0.792  0.5411  0.3656  0.5567
  876MOL0     C20778   7.573   3.548  -0.728  0.5451  0.6454  0.3244
  876MOL0     C20779   7.723   3.588  -0.937 -0.0718 -0.7655  0.4803
  876MOL0     C20780   7.620   3.536  -1.023 -0.2595 -0.1712  0.1272
  876MOL0     O20781   7.492   3.600  -1.010 -0.1611  0.4388  0.9540
  876MOL0     C20782   7.412   3.606  -1.123 -0.2456 -0.0241  0.4388
  876MOL0     C20783   7.339   3.495  -1.179  0.7377  0.4559  0.2426
  876MOL0     C20784   7.254   3.504  -1.292 -0.1978  0.6597 -0.3999
  876MOL0     C20785   7.246   3.617  -1.376  1.7156  0.7202 -0.4790
  876MOL0     O20786   7.172   3.647  -1.485 -0.0044 -0.4705 -0.4965
  876MOL0     C20787   7.064   3.575  -1.530 -0.5995 -0.2983  0.0680
  876MOL0     C20788   7.007   3.668  -1.638 -0.4003  0.4890 -0.0580
  876MOL0     C20789   6.900   3.584  -1.706 -0.4766 -1.0911  0.9157
  876MOL0     C20790   6.843   3.663  -1.823  0.5824  1.3225 -0.0194
  876MOL0     C20791   6.729   3.577  -1.886 -0.2623 -0.2439  0.3478
  876MOL0     C20792   6.592   3.578  -1.806 -0.7724 -0.0216  1.7071
  876MOL0     C20793   6.535   3.713  -1.769 -0.6674 -0.6811 -0.0106
  876MOL0     C20794   6.492   3.806  -1.881  0.0931 -0.8631  0.7229
  876MOL0    Cl20795   6.401   3.954  -1.817  0.0681 -0.0518  0.4361
  876MOL0     C20796   7.322   3.723  -1.326 -0.5257 -0.8342 -0.7093
  876MOL0     C20797   7.404   3.722  -1.211 -0.2700  1.3569 -0.0027
  876MOL0     O20798   7.658   3.468  -1.116  0.5960  0.3873  0.5434
  876MOL0     C20799   7.843   3.639  -0.994 -0.6077  0.2194 -0.8005
  876MOL0     C20800   7.941   3.701  -0.909  0.3471  0.0500 -0.9311
  876MOL0     N20801   8.328   3.621  -0.208  0.3248 -0.4107 -0.1502
  876MOL0     N20802   8.279   3.597  -0.097  0.9235  0.0618 -0.3279
  876MOL0     C20803   8.106   3.170   1.051 -0.7433 -0.1081  0.2296
  876MOL0     C20804   8.169   3.082   1.132 -1.0505  0.5043  0.0191
  876MOL0     C20805   8.220   2.691   1.400 -0.2828 -0.0604 -0.0775
  876MOL0     C20806   8.340   2.754   1.452 -0.3640 -0.8501  0.1543
  876MOL0     C20807   8.405   2.690   1.554  1.2601 -0.2482  0.1361
  876MOL0     C20808   8.368   2.565   1.601 -0.0722 -0.4156 -0.2356
  876MOL0     O20809   8.431   2.498   1.703  0.4185  0.2634 -0.2613
  876MOL0     C20810   8.540   2.553   1.765 -0.9244 -0.0521  0.2020
  876MOL0     C20811   8.591   2.427   1.844 -0.4716 -1.4096 -0.5110
  876MOL0     C20812   8.725   2.466   1.919  0.4281  0.2353 -0.2008
  876MOL0     C20813   8.838   2.473   1.816  0.2955  1.6277 -0.0619
  876MOL0     C20814   8.963   2.463   1.895  0.0946 -0.1018 -0.2004
  876MOL0     C20815   9.062   2.466   1.947  0.7910  0.1262  0.4566
  876MOL0     C20816   8.267   2.491   1.534 -0.6043 -0.4953  0.7177
  876MOL0     C20817   8.188   2.566   1.446  0.3060 -0.2349 -0.4281
  876MOL0     C20818   8.061   2.495   1.389  0.6583  0.3806  0.8628
  876MOL0     H20819   7.987   2.803   1.070  0.7996 -0.4547  2.4300
  876MOL0     H20820   7.884   2.960   0.915 -0.9395 -1.1537  0.9869
  876MOL0     H20821   8.120   3.270   0.803  0.2129  2.8648  3.6054
  876MOL0     H20822   8.004   3.396   0.837  3.8028  0.8954 -0.7730
  876MOL0     H20823   7.924   3.194   0.609  1.2801  1.3548 -2.9499
  876MOL0     H20824   7.848   3.337   0.658  0.9541  0.2116 -1.3292
  876MOL0     H20825   8.053   3.459   0.596 -0.5039 -0.4350  3.1776
  876MOL0     H20826   8.117   3.315   0.525  0.6708 -0.4466  2.4775
  876MOL0     H20827   7.882   3.303   0.389 -1.7001  0.4318  0.2506
  876MOL0     H20828   7.859   3.453   0.441 -0.2974 -0.0913  0.7798
  876MOL0     H20829   8.115   3.355   0.295  0.5893  0.2328 -0.4732
  876MOL0     H20830   8.096   3.516   0.369 -1.6602  0.6387 -1.1792
  876MOL0     H20831   7.914   3.408   0.143  0.0091  1.5924 -2.3541
  876MOL0     H20832   7.904   3.569   0.225  1.2966  1.0404 -0.7085
  876MOL0     H20833   8.158   3.591   0.139  0.6875 -3.8410  1.7539
  876MOL0     H20834   8.021   3.627   0.026 -0.6246 -2.1099 -2.3639
  876MOL0     H20835   8.150   3.358   0.022  1.1244  0.4140 -0.2120
  876MOL0     H20836   8.006   3.421  -0.066 -2.4930  1.4106  3.7221
  876MOL0     H20837   8.131   3.376  -0.289  0.5946 -0.8313  0.0870
  876MOL0     H20838   8.336   3.428  -0.476 -0.3955 -1.1803  0.5421
  876MOL0     H20839   8.413   3.590  -0.478  0.7737 -0.4956 -0.1682
  876MOL0     H20840   8.185   3.527  -0.633 -1.7997 -2.7588  2.3161
  876MOL0     H20841   8.120   3.588  -0.485 -0.5273 -2.8082 -0.1683
  876MOL0     H20842   8.213   3.813  -0.506 -0.9256 -2.8590  1.2637
  876MOL0     H20843   8.334   3.760  -0.625  1.4273 -3.2662  1.1751
  876MOL0     H20844   8.131   3.882  -0.737  1.5883 -0.4309  0.7457
  876MOL0     H20845   8.168   3.714  -0.790 -0.0918 -0.2742  0.2506
  876MOL0     H20846   7.800   3.656  -0.606  0.1145 -3.1382 -0.4878
  876MOL0     H20847   7.546   3.448  -0.764  2.8290 -2.1327  5.2729
  876MOL0     H20848   7.501   3.627  -0.752  0.9708  0.2628 -2.5826
  876MOL0     H20849   7.587   3.548  -0.620 -0.7026  0.1561  0.5028
  876MOL0     H20850   7.345   3.400  -1.125 -0.9411  1.9513  3.3740
  876MOL0     H20851   7.195   3.416  -1.318  0.3495 -0.6233  2.2993
  876MOL0     H20852   7.104   3.486  -1.580  1.2823  0.6680 -0.2041
  876MOL0     H20853   7.005   3.553  -1.440  2.2087 -1.6405  1.7273
  876MOL0     H20854   6.969   3.753  -1.582  3.9804  1.6717  1.4963
  876MOL0     H20855   7.091   3.698  -1.702 -2.2720  0.4161 -2.7252
  876MOL0     H20856   6.816   3.562  -1.640 -0.3516 -2.6373  0.5914
  876MOL0     H20857   6.937   3.494  -1.756  0.8674 -0.2652  0.3632
  876MOL0     H20858   6.920   3.694  -1.895  2.6651  0.2692  1.6522
  876MOL0     H20859   6.793   3.755  -1.791  2.2959  1.7029  1.7057
  876MOL0     H20860   6.704   3.615  -1.985 -3.6474 -2.8898  0.0246
  876MOL0     H20861   6.770   3.477  -1.902 -0.8364 -0.4109 -0.0801
  876MOL0     H20862   6.624   3.524  -1.716  3.0869 -0.0050  0.5456
  876MOL0     H20863   6.519   3.533  -1.873  0.4463  0.0334  0.3056
  876MOL0     H20864   6.600   3.764  -1.697 -0.4248 -1.7146  0.5268
  876MOL0     H20865   6.453   3.704  -1.697 -2.7785  1.6621 -1.9315
  876MOL0     H20866   6.421   3.761  -1.950 -1.6442  1.1216  1.1116
  876MOL0     H20867   6.574   3.832  -1.949  1.7433 -1.4643  2.3990
  876MOL0     H20868   7.321   3.820  -1.374  2.6263  0.3898  1.4193
  876MOL0     H20869   7.477   3.801  -1.198 -1.3549  2.0722  2.3094
  876MOL0     H20870   7.855   3.636  -1.102  0.1501 -0.7177 -0.6942
  876MOL0     H20871   8.028   3.738  -0.962  0.2017  1.1723 -0.4112
  876MOL0     H20872   8.136   3.273   1.039  0.5889 -0.3565  1.1786
  876MOL0     H20873   8.269   3.100   1.170  0.3430 -1.1801 -2.5017
  876MOL0     H20874   8.352   2.861   1.447  1.9712 -0.8433  3.0914
  876MOL0     H20875   8.491   2.750   1.585 -1.3103  1.0258  6.4633
  876MOL0     H20876   8.617   2.579   1.693 -1.8045 -1.9294 -1.5162
  876MOL0     H20877   8.501   2.632   1.831 -1.3276 -1.2696  1.4826
  876MOL0     H20878   8.602   2.343   1.773 -0.9108 -2.0108  0.1168
  876MOL0     H20879   8.524   2.389   1.922 -0.8634 -1.7980 -1.0234
  876MOL0     H20880   8.716   2.556   1.981 -1.5666  0.5035 -0.7971
  876MOL0     H20881   8.748   2.386   1.991  0.6861  0.4342 -0.0656
  876MOL0     H20882   8.828   2.561   1.751 -0.5893  0.8386 -1.0188
  876MOL0     H20883   8.833   2.385   1.751 -0.0785 -0.0896  2.1821
  876MOL0     H20884   9.156   2.479   1.997  0.2856  1.9374  1.0226
  876MOL0     H20885   8.252   2.388   1.566  2.7141 -0.8232  1.6229
  876MOL0     H20886   8.062   2.501   1.280 -2.1572 -2.4181  0.5382
  876MOL0     H20887   8.062   2.387   1.408  1.3338  0.3527  0.6964
  876MOL0     H20888   7.961   2.533   1.412 -1.2613 -0.4560 -4.6334
  877MOL0     O20889  10.756   7.744   9.592 -0.2796  0.0650  0.8569
  877MOL0     C20890  10.766   7.786   9.708  0.8413 -0.2719 -0.2066
  877MOL0     O20891  10.681   7.885   9.755  0.0890 -0.1589 -0.4938
  877MOL0     C20892  10.580   7.926   9.679  0.2722 -0.3373  0.8755
  877MOL0     C20893  10.566   8.049   9.604  0.1053  0.2881  0.1626
  877MOL0     C20894  10.461   8.083   9.527  0.7210  0.7063 -0.6012
  877MOL0     C20895  10.354   7.980   9.513 -0.4996 -1.0366 -0.2402
  877MOL0     O20896  10.243   8.007   9.427  0.3465  0.4985 -0.4226
  877MOL0     C20897  10.115   7.971   9.486  0.1193 -0.8971  0.1767
  877MOL0     C20898  10.012   8.048   9.407 -1.1061 -0.2632 -0.1752
  877MOL0     C20899   9.865   7.997   9.431  0.4123 -0.9027  0.2680
  877MOL0     C20900   9.766   8.067   9.328 -1.9176  0.7626  1.0422
  877MOL0     C20901   9.627   8.091   9.375  0.2135 -0.7026  1.2392
  877MOL0     C20902   9.557   7.958   9.421  0.3631  0.0792 -0.6554
  877MOL0     C20903   9.405   7.981   9.446  0.5138 -0.0274  0.3189
  877MOL0     C20904   9.371   8.093   9.556 -0.1884  0.1977  0.7564
  877MOL0     N20905   9.448   8.064   9.676 -0.2263  0.5123 -0.9704
  877MOL0     C20906   9.400   7.989   9.776 -0.7146 -0.8034  0.8735
  877MOL0     C20907   9.476   8.014   9.880  0.6469  0.3894 -0.1845
  877MOL0     C20908   9.470   7.954  10.021  0.5173  0.1169  0.6611
  877MOL0     C20909   9.592   7.873  10.060 -0.1973  0.2647  0.7951
  877MOL0     C20910   9.689   7.964  10.137 -0.7925 -0.6031  0.1866
  877MOL0     C20911   9.812   7.884  10.179  0.1544 -0.8314  0.7742
  877MOL0     O20912   9.772   7.763  10.250  0.0008  0.5631 -0.7116
  877MOL0     C20913   9.818   7.750  10.376 -0.2934 -0.1199 -0.6141
  877MOL0     C20914   9.735   7.692  10.466  0.9261 -0.4945 -0.2506
  877MOL0     C20915   9.762   7.702  10.607  0.5607 -0.1325  0.1585
  877MOL0     C20916   9.663   7.632  10.703 -0.2361 -0.4906 -0.6294
  877MOL0     C20917   9.874   7.771  10.658 -0.3190  0.3235 -0.1532
  877MOL0     C20918   9.920   7.782  10.794 -0.1620  0.4223 -0.4155
  877MOL0     O20919  10.048   7.803  10.821 -0.8733 -0.5266 -0.6206
  877MOL0     C20920  10.085   7.859  10.947  0.2789  0.5730 -0.7173
  877MOL0     C20921  10.167   7.794  11.036  0.0691 -0.3160  0.0516
  877MOL0     C20922  10.228   7.861  11.157  0.5330  0.3776 -0.0965
  877MOL0     C20923  10.199   7.999  11.175 -0.3114 -0.1155  0.3485
  877MOL0     O20924  10.253   8.053  11.293  1.3453  0.6288  0.6653
  877MOL0     C20925  10.291   8.196  11.282  0.0665  0.2134  0.1919
  877MOL0     C20926  10.344   8.253  11.415 -0.6731  0.2414  0.9280
  877MOL0     C20927  10.321   8.153  11.530 -1.1443  0.5604 -1.2263
  877MOL0     C20928  10.417   8.189  11.654  0.4466 -0.1397 -0.5561
  877MOL0     C20929  10.349   8.148  11.794  0.1200 -0.4021  0.6100
  877MOL0     C20930  10.447   8.142  11.908  0.3693 -0.5120 -0.2034
  877MOL0     C20931  10.483   8.285  11.966  0.1060  0.4029  0.1035
  877MOL0     C20932  10.552   8.286  12.108  0.7240 -0.2758 -0.2782
  877MOL0    Cl20933  10.544   8.437  12.179  0.3787 -0.4032 -0.7072
  877MOL0     C20934  10.113   8.066  11.087  0.3616  0.7771  1.2916
  877MOL0     C20935  10.050   7.993  10.978 -0.0089  0.3875  0.1046
  877MOL0     O20936   9.828   7.766  10.879 -0.8140 -0.5863 -0.4962
  877MOL0     C20937   9.963   7.825  10.562 -0.7601 -0.0281 -0.7535
  877MOL0     C20938   9.937   7.801  10.428 -0.0219 -0.1865 -0.6897
  877MOL0     N20939   9.565   8.109   9.849  0.0973 -0.8745  0.7184
  877MOL0     N20940   9.548   8.142   9.729  0.3978 -0.5917  0.0999
  877MOL0     C20941  10.371   7.850   9.567  0.2787 -0.0528 -0.3487
  877MOL0     C20942  10.482   7.823   9.650 -0.6990 -0.4154  0.3842
  877MOL0     C20943  10.881   7.748   9.802 -0.1044  0.0342  0.9807
  877MOL0     C20944  10.891   7.816   9.921 -0.4389 -0.6328  0.6915
  877MOL0     C20945  10.996   7.813  10.015  0.0413 -0.0150 -1.1604
  877MOL0     C20946  11.092   7.717  10.003  1.0347  1.3981  1.2196
  877MOL0     O20947  11.180   7.669  10.099 -0.0137  0.1189 -0.0334
  877MOL0     C20948  11.228   7.779  10.177 -0.4206 -0.1291 -0.2367
  877MOL0     C20949  11.296   7.720  10.300 -0.0197 -0.0310  0.0256
  877MOL0     C20950  11.214   7.669  10.417 -0.1908  0.6501  0.2253
  877MOL0     C20951  11.112   7.767  10.469 -0.5783 -0.7415  0.9142
  877MOL0     C20952  11.184   7.880  10.521  0.0295 -0.4503 -0.1555
  877MOL0     C20953  11.244   7.986  10.534  0.2109 -0.7912 -0.7890
  877MOL0     C20954  11.082   7.645   9.882  0.0083 -0.6377 -0.4320
  877MOL0     C20955  10.988   7.653   9.779 -0.2903  0.5542 -0.7331
  877MOL0     C20956  11.005   7.576   9.660 -0.4644  0.4814  0.2496
  877MOL0     H20957  10.641   8.123   9.632  0.2051  0.5007 -0.6541
  877MOL0     H20958  10.454   8.172   9.465  1.8740  0.5991 -0.9082
  877MOL0     H20959  10.109   8.004   9.590  4.5603  0.7405  0.1374
  877MOL0     H20960  10.100   7.864   9.502  0.0569 -0.5112  3.1786
  877MOL0     H20961  10.011   8.153   9.438 -0.9293  0.4368 -2.3729
  877MOL0     H20962  10.041   8.039   9.302  2.2637 -4.4419  0.8097
  877MOL0     H20963   9.861   7.888   9.425 -4.1803 -0.9257 -0.6225
  877MOL0     H20964   9.838   8.017   9.535  0.5058 -1.3595  0.3820
  877MOL0     H20965   9.809   8.165   9.305  0.1649 -0.3648 -0.1169
  877MOL0     H20966   9.773   8.015   9.232 -2.0669  0.9165  0.9479
  877MOL0     H20967   9.582   8.141   9.289  4.7763  0.9718 -0.4955
  877MOL0     H20968   9.633   8.168   9.453  1.2694  0.7413 -0.2018
  877MOL0     H20969   9.571   7.887   9.339 -0.2555  0.4241 -1.0646
  877MOL0     H20970   9.595   7.918   9.515  0.3121 -0.8585 -1.0286
  877MOL0     H20971   9.346   7.890   9.456 -0.4284  0.3423 -1.4464
  877MOL0     H20972   9.362   8.013   9.351  2.4590  1.1059 -0.2278
  877MOL0     H20973   9.396   8.194   9.522 -4.1146  1.8658  2.1895
  877MOL0     H20974   9.265   8.081   9.582 -0.7446  2.3082 -0.2476
  877MOL0     H20975   9.332   7.906   9.761 -2.6240  0.4311  2.2974
  877MOL0     H20976   9.390   7.882  10.039 -0.1181  1.0127  1.5799
  877MOL0     H20977   9.452   8.029  10.098 -0.3369 -1.4390  2.0407
  877MOL0     H20978   9.555   7.797  10.130  1.3942  0.3615  1.7991
  877MOL0     H20979   9.645   7.827   9.976  0.0292  1.3780  0.3150
  877MOL0     H20980   9.726   8.048  10.077  3.2321 -2.8388 -0.8799
  877MOL0     H20981   9.644   8.005  10.227 -0.6572  0.0789 -0.0498
  877MOL0     H20982   9.862   7.853  10.087 -2.1215  2.4925 -1.8334
  877MOL0     H20983   9.877   7.952  10.235 -0.3074  1.4322 -1.2842
  877MOL0     H20984   9.640   7.647  10.440  0.5957  0.0681 -0.0360
  877MOL0     H20985   9.581   7.586  10.648 -0.6391 -3.8046  2.3784
  877MOL0     H20986   9.605   7.706  10.758 -2.9596 -2.4749 -0.6061
  877MOL0     H20987   9.722   7.557  10.757  1.7644 -0.5800 -2.7967
  877MOL0     H20988  10.186   7.687  11.029  1.7163  0.0638 -2.6152
  877MOL0     H20989  10.289   7.794  11.216 -1.0080 -1.1502 -0.1532
  877MOL0     H20990  10.374   8.201  11.210  1.8045 -1.9537  1.8880
  877MOL0     H20991  10.221   8.273  11.248  1.3689  1.1342 -0.4962
  877MOL0     H20992  10.440   8.301  11.394  0.6531 -3.1638 -1.7303
  877MOL0     H20993  10.280   8.340  11.433 -2.8634 -0.0355 -3.7759
  877MOL0     H20994  10.342   8.049  11.507 -1.4708  0.4547 -1.0498
  877MOL0     H20995  10.214   8.154  11.553 -1.0434  3.6517 -0.4238
  877MOL0     H20996  10.450   8.293  11.659  0.7085 -0.2794  0.7971
  877MOL0     H20997  10.511   8.134  11.654 -0.4754 -1.8740  1.8130
  877MOL0     H20998  10.263   8.209  11.823  0.8340  0.8239  0.1801
  877MOL0     H20999  10.295   8.053  11.781  0.0419 -0.7439  3.0450
  877MOL0     H21000  10.540   8.092  11.877  0.4578  1.1026 -2.8049
  877MOL0     H21001  10.411   8.070  11.982  0.1429 -0.3535 -0.1607
  877MOL0     H21002  10.385   8.332  11.980 -0.3510 -1.1173  2.6819
  877MOL0     H21003  10.544   8.350  11.902  0.8547 -0.1431  0.2515
  877MOL0     H21004  10.654   8.246  12.108 -0.4437 -3.8317  2.5801
  877MOL0     H21005  10.489   8.221  12.170  1.8376 -2.5339 -1.3935
  877MOL0     H21006  10.078   8.168  11.099  2.0344  2.0448 -3.0755
  877MOL0     H21007   9.978   8.041  10.913 -0.6072  0.9216  1.1291
  877MOL0     H21008  10.056   7.873  10.591 -0.3437 -1.2828  0.0702
  877MOL0     H21009  10.007   7.852  10.362  0.5881 -0.1946 -0.0647
  877MOL0     H21010  10.299   7.770   9.553 -0.5235 -0.0125  2.8201
  877MOL0     H21011  10.504   7.723   9.686  3.1600  0.0610 -0.1960
  877MOL0     H21012  10.826   7.901   9.941  2.0996  1.8828 -0.7972
  877MOL0     H21013  10.992   7.868  10.109  2.2575 -1.7203  0.0252
  877MOL0     H21014  11.294   7.852  10.129  0.8224  0.2837  1.9668
  877MOL0     H21015  11.145   7.841  10.213  1.0978  2.3888 -0.8365
  877MOL0     H21016  11.362   7.801  10.332  0.0164  1.3193 -3.0997
  877MOL0     H21017  11.358   7.635  10.269 -0.3119  0.3430 -1.7043
  877MOL0     H21018  11.163   7.580  10.378  2.2227 -0.1936 -1.2139
  877MOL0     H21019  11.282   7.640  10.498  1.7552 -0.1749 -1.6193
  877MOL0     H21020  11.050   7.714  10.542  0.4062 -3.9625 -0.3998
  877MOL0     H21021  11.039   7.786  10.389  2.2406  1.7001 -1.3037
  877MOL0     H21022  11.294   8.081  10.538 -0.1995 -0.6071  0.4661
  877MOL0     H21023  11.168   7.584   9.855  0.9398  0.9753 -1.2483
  877MOL0     H21024  11.055   7.644   9.590 -0.8322  1.0880  0.5750
  877MOL0     H21025  11.075   7.493   9.670 -0.9938  0.3282  3.5570
  877MOL0     H21026  10.909   7.538   9.622  0.4857 -2.1066  0.1895
  878MOL0     O21027   8.231  11.497   9.209 -0.2197 -0.2116 -1.1664
  878MOL0     C21028   8.235  11.443   9.320 -0.2480 -0.2938 -0.2825
  878MOL0     O21029   8.338  11.453   9.406 -0.0232  0.6129 -0.3166
  878MOL0     C21030   8.461  11.503   9.358 -0.7786  0.7843 -1.1157
  878MOL0     C21031   8.528  11.609   9.426 -0.4518 -0.2801  0.3332
  878MOL0     C21032   8.657  11.658   9.388 -0.3525  0.4197 -0.2253
  878MOL0     C21033   8.720  11.609   9.273 -0.7304  0.1521  0.0552
  878MOL0     O21034   8.828  11.673   9.228  0.0929  0.4030  0.3364
  878MOL0     C21035   8.822  11.718   9.087  0.1447  0.8792 -0.2255
  878MOL0     C21036   8.920  11.837   9.085 -0.0327  0.4135 -0.2642
  878MOL0     C21037   9.062  11.789   9.115  1.2453 -0.2268  0.2827
  878MOL0     C21038   9.153  11.902   9.082 -0.6721  0.4172 -0.6233
  878MOL0     C21039   9.224  11.884   8.953 -0.2808 -0.0821  0.0476
  878MOL0     C21040   9.324  11.991   8.925 -0.7372 -0.7091  0.3763
  878MOL0     C21041   9.271  12.132   8.877 -0.2719 -0.0046 -0.0179
  878MOL0     C21042   9.389  12.241   8.864  1.0007 -0.2278 -0.3750
  878MOL0     N21043   9.324  12.371   8.871  0.1992  0.0942  0.2688
  878MOL0     C21044   9.296  12.437   8.749  0.1681 -0.0465  0.0731
  878MOL0     C21045   9.257  12.563   8.796  0.4804  0.0028  0.1517
  878MOL0     C21046   9.228  12.684   8.704 -1.1578 -0.0879  0.0188
  878MOL0     C21047   9.322  12.800   8.748  0.2233  0.7836  0.2546
  878MOL0     C21048   9.287  12.931   8.658 -0.6154  1.0246  0.3236
  878MOL0     C21049   9.400  13.036   8.684 -1.0594 -0.4285 -0.2903
  878MOL0     O21050   9.524  12.986   8.629 -0.1404 -0.0314  0.5321
  878MOL0     C21051   9.540  12.975   8.493 -0.6744  0.5855  0.4595
  878MOL0     C21052   9.663  12.914   8.443 -0.1964  0.4026 -0.1989
  878MOL0     C21053   9.692  12.913   8.309 -0.1602 -0.2249  0.9665
  878MOL0     C21054   9.833  12.858   8.275  0.9500 -0.1208 -0.0723
  878MOL0     C21055   9.601  12.960   8.213 -0.5589 -0.2580  0.6366
  878MOL0     C21056   9.630  12.949   8.071 -0.2850 -1.4904 -0.5850
  878MOL0     O21057   9.520  12.926   7.997 -1.0579 -0.4884 -0.2881
  878MOL0     C21058   9.522  12.847   7.893 -0.0253 -0.1967  1.1462
  878MOL0     C21059   9.395  12.837   7.823  0.8083  0.4739  0.4903
  878MOL0     C21060   9.378  12.768   7.709 -0.6527  0.7719 -0.0054
  878MOL0     C21061   9.484  12.689   7.655 -0.2892  0.2562  0.6110
  878MOL0     O21062   9.463  12.622   7.535 -0.1443 -0.2257  0.3477
  878MOL0     C21063   9.573  12.570   7.453 -0.8228 -1.1696 -1.0021
  878MOL0     C21064   9.603  12.660   7.334  0.0215  0.7161 -0.7715
  878MOL0     C21065   9.727  12.625   7.256 -0.0871  0.9895  0.0809
  878MOL0     C21066   9.829  12.740   7.281 -0.2292 -0.8393  0.1585
  878MOL0     C21067   9.987  12.720   7.229 -0.1574 -0.0459  0.8681
  878MOL0     C21068  10.066  12.854   7.258  0.5114  0.8057 -0.4256
  878MOL0     C21069  10.202  12.873   7.184  0.6971 -0.4149 -0.4530
  878MOL0     C21070  10.259  13.002   7.241 -0.2268 -0.0237 -0.1474
  878MOL0    Cl21071  10.235  13.028   7.416 -0.4257 -0.0628  0.3890
  878MOL0     C21072   9.601  12.688   7.729  0.7099  0.3464  0.7419
  878MOL0     C21073   9.626  12.763   7.845 -0.4348 -0.2476  1.1944
  878MOL0     O21074   9.745  12.949   8.037 -0.0737 -0.1325 -0.6129
  878MOL0     C21075   9.484  13.018   8.261 -0.8601  0.0234  0.0524
  878MOL0     C21076   9.456  13.025   8.398 -0.0692 -0.1188 -0.2214
  878MOL0     N21077   9.263  12.571   8.930 -0.3788 -0.7546  0.8148
  878MOL0     N21078   9.300  12.460   8.974 -0.3024 -0.0443 -0.7088
  878MOL0     C21079   8.669  11.489   9.207  0.1367  0.8495 -0.7839
  878MOL0     C21080   8.538  11.443   9.247  0.0454  0.6001  0.0720
  878MOL0     C21081   8.119  11.356   9.350 -0.4739 -0.6316  0.3596
  878MOL0     C21082   7.991  11.404   9.337  0.0612  0.8368 -0.2206
  878MOL0     C21083   7.888  11.311   9.363  0.6818  0.7212  0.3435
  878MOL0     C21084   7.905  11.180   9.403  0.7607  0.1375  0.4168
  878MOL0     O21085   7.797  11.097   9.440 -0.2207 -0.0826  0.1322
  878MOL0     C21086   7.681  11.101   9.356 -0.0602  0.6057  0.1635
  878MOL0     C21087   7.650  10.954   9.325  0.0165  0.1258  0.1962
  878MOL0     C21088   7.560  10.886   9.432  0.4936 -0.5126  0.1484
  878MOL0     C21089   7.581  10.737   9.456 -0.4602  0.1726  0.2170
  878MOL0     C21090   7.523  10.665   9.345 -0.3456 -0.4346 -0.6548
  878MOL0     C21091   7.460  10.617   9.251 -0.4862 -0.6002 -0.1461
  878MOL0     C21092   8.038  11.137   9.428  2.0926 -0.4276  0.3120
  878MOL0     C21093   8.143  11.224   9.385 -0.2448 -0.4712  0.0373
  878MOL0     C21094   8.272  11.161   9.368  0.1371  0.4990 -1.0461
  878MOL0     H21095   8.470  11.657   9.503 -0.7686  4.3026 -2.3540
  878MOL0     H21096   8.687  11.747   9.443 -0.3627  0.9230 -1.0250
  878MOL0     H21097   8.718  11.746   9.067 -0.5852 -3.0966 -3.4369
  878MOL0     H21098   8.855  11.642   9.016 -0.2415  1.8907 -1.5460
  878MOL0     H21099   8.929  11.888   8.989 -1.0978  2.2142  0.5512
  878MOL0     H21100   8.895  11.915   9.158 -0.7674  2.7236 -2.8266
  878MOL0     H21101   9.072  11.766   9.221 -2.3414  3.3353  1.6497
  878MOL0     H21102   9.087  11.702   9.054 -0.4964 -0.3590 -0.3021
  878MOL0     H21103   9.096  11.995   9.093  2.5068  2.4829 -0.1426
  878MOL0     H21104   9.230  11.914   9.159  0.5749  1.2802 -1.9523
  878MOL0     H21105   9.148  11.893   8.875  0.8475  1.8358 -0.8888
  878MOL0     H21106   9.272  11.786   8.946 -0.4721 -0.0274 -3.5449
  878MOL0     H21107   9.388  12.014   9.011  0.9389  0.9133 -1.2197
  878MOL0     H21108   9.398  11.956   8.852 -0.1068  2.1543 -0.4990
  878MOL0     H21109   9.189  12.157   8.944 -1.5393 -3.3593 -0.0744
  878MOL0     H21110   9.226  12.120   8.778 -0.5199  1.1948 -0.0546
  878MOL0     H21111   9.470  12.222   8.936  0.1049 -4.4050 -0.2397
  878MOL0     H21112   9.433  12.239   8.764 -0.8599 -0.1934 -1.2254
  878MOL0     H21113   9.313  12.387   8.655 -0.1908  1.2535 -0.7007
  878MOL0     H21114   9.124  12.714   8.722 -0.6631  1.5096  0.3518
  878MOL0     H21115   9.240  12.656   8.599 -3.2900 -0.5236 -0.1541
  878MOL0     H21116   9.300  12.814   8.855 -2.9819 -0.4664 -0.1580
  878MOL0     H21117   9.430  12.784   8.741 -0.0743 -1.8678  0.6930
  878MOL0     H21118   9.290  12.896   8.554  1.0260 -0.3650  0.7814
  878MOL0     H21119   9.186  12.974   8.660 -1.0934 -0.0902  1.6332
  878MOL0     H21120   9.373  13.125   8.626  0.5656 -1.4190 -2.7464
  878MOL0     H21121   9.416  13.066   8.788  0.3949  1.9555 -1.1188
  878MOL0     H21122   9.728  12.871   8.518 -0.7523 -0.4797 -0.1971
  878MOL0     H21123   9.891  12.943   8.237 -0.9876  2.2452  1.9190
  878MOL0     H21124   9.829  12.785   8.194  1.0311  0.7111 -0.8452
  878MOL0     H21125   9.892  12.825   8.361  1.5248  2.0953  0.4574
  878MOL0     H21126   9.311  12.898   7.853  0.2515 -0.7662  1.5265
  878MOL0     H21127   9.286  12.765   7.650 -1.5663 -0.3568  1.3955
  878MOL0     H21128   9.665  12.567   7.511 -1.8267  3.3765  1.2551
  878MOL0     H21129   9.549  12.469   7.419 -0.2760 -1.1139 -1.5643
  878MOL0     H21130   9.516  12.660   7.267  2.6312  0.8310 -4.4507
  878MOL0     H21131   9.596  12.764   7.364  0.5070  1.8336 -4.0808
  878MOL0     H21132   9.709  12.610   7.149  4.3757 -0.9228 -0.6134
  878MOL0     H21133   9.759  12.528   7.297  0.6975  1.0559 -0.3559
  878MOL0     H21134   9.822  12.771   7.386 -1.1713 -0.8648  0.1052
  878MOL0     H21135   9.793  12.829   7.229  1.0069  0.6768  1.8008
  878MOL0     H21136  10.028  12.642   7.294 -0.5989 -1.1503 -0.1450
  878MOL0     H21137   9.991  12.699   7.122  1.4307  2.2996  0.3954
  878MOL0     H21138  10.077  12.837   7.365  1.2551  0.3175 -0.5693
  878MOL0     H21139   9.999  12.938   7.239 -1.3085 -0.0726  1.7222
  878MOL0     H21140  10.204  12.871   7.075  3.8102  1.5817 -0.5491
  878MOL0     H21141  10.260  12.786   7.216 -0.9724 -1.5370 -0.3596
  878MOL0     H21142  10.218  13.092   7.194  1.0313  0.8373  0.3383
  878MOL0     H21143  10.367  13.009   7.229 -0.1862  3.3518  1.0008
  878MOL0     H21144   9.677  12.622   7.687 -3.1483 -2.7877 -2.0750
  878MOL0     H21145   9.723  12.767   7.893 -1.4387 -1.3128  3.4247
  878MOL0     H21146   9.419  13.074   8.194 -1.8033  4.3016  4.0200
  878MOL0     H21147   9.365  13.069   8.437  0.1566  0.3700 -0.2390
  878MOL0     H21148   8.710  11.454   9.113  1.4604 -0.9013  0.3860
  878MOL0     H21149   8.496  11.353   9.202  0.5296 -1.3087  3.1620
  878MOL0     H21150   7.972  11.505   9.302  1.2565  0.2669 -2.7341
  878MOL0     H21151   7.785  11.345   9.356  0.8431  1.1112 -0.1313
  878MOL0     H21152   7.591  11.149   9.395 -0.0391  0.0133  0.9704
  878MOL0     H21153   7.726  11.148   9.268  0.8563  1.0513  0.8507
  878MOL0     H21154   7.739  10.891   9.325  0.1595  0.1447  3.5792
  878MOL0     H21155   7.595  10.961   9.231 -1.5845 -1.0647  0.9814
  878MOL0     H21156   7.573  10.932   9.531  0.4974 -1.6631  0.6952
  878MOL0     H21157   7.457  10.916   9.408 -0.2543 -1.5633  1.7856
  878MOL0     H21158   7.536  10.709   9.551  1.0866 -2.4651  0.2646
  878MOL0     H21159   7.687  10.715   9.469 -0.3980 -1.2054 -2.0710
  878MOL0     H21160   7.401  10.555   9.187 -2.3754 -3.9216  4.3023
  878MOL0     H21161   8.052  11.038   9.471 -3.7132 -0.7934  2.2483
  878MOL0     H21162   8.329  11.160   9.461 -0.7974  4.2558 -0.2691
  878MOL0     H21163   8.257  11.056   9.339 -1.1943  0.2328  0.4513
  878MOL0     H21164   8.317  11.224   9.291  1.2337  3.0146  1.4783
  879MOL0     O21165   5.422   9.730   3.981 -0.2803 -0.2324  0.9267
  879MOL0     C21166   5.338   9.726   4.066 -1.0209 -0.4880 -0.6602
  879MOL0     O21167   5.264   9.620   4.082 -0.1315 -0.3396  0.4320
  879MOL0     C21168   5.289   9.507   4.009 -0.3441 -0.0673  0.2561
  879MOL0     C21169   5.181   9.453   3.933 -0.2208 -0.7150 -0.6592
  879MOL0     C21170   5.199   9.334   3.861  0.7274  0.0779 -0.1232
  879MOL0     C21171   5.318   9.253   3.870  0.1969 -0.9824 -0.2781
  879MOL0     O21172   5.316   9.123   3.823  0.2405  0.1377 -0.1511
  879MOL0     C21173   5.439   9.057   3.813 -0.3980 -0.1574 -0.5269
  879MOL0     C21174   5.422   8.917   3.753 -0.1060  0.9366  0.3452
  879MOL0     C21175   5.565   8.849   3.753  0.4880 -0.6509 -0.0538
  879MOL0     C21176   5.550   8.728   3.656 -0.2068  0.1239 -0.4992
  879MOL0     C21177   5.694   8.668   3.644  0.3917 -0.1044  0.2342
  879MOL0     C21178   5.667   8.526   3.615  0.0490 -0.5653  0.3643
  879MOL0     C21179   5.794   8.435   3.577  0.1170  0.5734 -0.1151
  879MOL0     C21180   5.825   8.447   3.425  0.6187  0.8478 -0.1306
  879MOL0     N21181   5.946   8.375   3.377  0.0738 -0.7210 -0.5661
  879MOL0     C21182   6.059   8.444   3.322  0.1755  0.0207 -0.7229
  879MOL0     C21183   6.146   8.351   3.287  0.7394  0.0327  0.5239
  879MOL0     C21184   6.287   8.357   3.225  0.0030 -0.5610 -0.1451
  879MOL0     C21185   6.402   8.316   3.317  0.2041 -0.2112  0.2766
  879MOL0     C21186   6.537   8.316   3.248 -0.3273 -0.6533  0.0458
  879MOL0     C21187   6.653   8.240   3.309  0.3350 -0.7557  0.0261
  879MOL0     O21188   6.777   8.263   3.225  0.8250  0.5395  0.1121
  879MOL0     C21189   6.883   8.219   3.298  0.0543  0.1946  0.6246
  879MOL0     C21190   6.921   8.083   3.305  0.5472  0.8784  0.4230
  879MOL0     C21191   7.035   8.036   3.375  0.1489  0.9380 -0.0563
  879MOL0     C21192   7.055   7.886   3.396 -0.3767  0.2232  0.1383
  879MOL0     C21193   7.103   8.127   3.452 -0.3988 -0.5573 -0.3937
  879MOL0     C21194   7.227   8.088   3.522 -0.0011  0.3439 -0.6977
  879MOL0     O21195   7.246   8.145   3.646  0.2459  0.5749 -0.6215
  879MOL0     C21196   7.357   8.108   3.713  1.0577 -0.9660 -0.6595
  879MOL0     C21197   7.368   7.995   3.787 -0.0255  0.0057  0.4044
  879MOL0     C21198   7.447   7.988   3.906  0.2219 -0.0213  0.2764
  879MOL0     C21199   7.531   8.092   3.934  1.0127 -0.1744  0.4825
  879MOL0     O21200   7.632   8.088   4.029  0.5256  0.2097  0.2144
  879MOL0     C21201   7.603   7.991   4.137  0.1053 -0.0559 -0.3969
  879MOL0     C21202   7.710   7.990   4.246 -0.3015  0.0387 -0.3121
  879MOL0     C21203   7.684   7.857   4.326 -0.5491 -0.2124  0.9881
  879MOL0     C21204   7.772   7.821   4.450 -0.0532 -0.2522  0.5950
  879MOL0     C21205   7.728   7.882   4.584  0.3319  0.4699 -0.3532
  879MOL0     C21206   7.839   7.866   4.690 -0.6862 -0.1917 -0.4162
  879MOL0     C21207   7.802   7.951   4.806  0.0535  0.1925 -0.0004
  879MOL0     C21208   7.905   7.962   4.918 -0.5228  0.5830 -0.6992
  879MOL0    Cl21209   7.945   7.791   4.975  0.0923 -0.3150 -0.3585
  879MOL0     C21210   7.529   8.208   3.857 -0.5201 -0.9075  0.4747
  879MOL0     C21211   7.438   8.220   3.748 -0.8759  0.8690 -0.8492
  879MOL0     O21212   7.304   8.025   3.462 -0.4697  1.0750 -0.8812
  879MOL0     C21213   7.068   8.264   3.446 -0.2124 -0.1393  1.5101
  879MOL0     C21214   6.970   8.301   3.360  0.7259  0.2647 -0.1254
  879MOL0     N21215   6.074   8.227   3.312  0.0120  0.9871 -0.8175
  879MOL0     N21216   5.963   8.250   3.381 -1.1256  0.6722 -0.1600
  879MOL0     C21217   5.422   9.311   3.945 -0.9657  0.2380 -0.4782
  879MOL0     C21218   5.416   9.438   3.999 -0.3045 -0.5138 -0.4200
  879MOL0     C21219   5.308   9.849   4.132 -0.4709  0.2143 -0.1665
  879MOL0     C21220   5.279   9.965   4.047  0.9165  0.4817  0.3479
  879MOL0     C21221   5.222  10.076   4.104 -0.5238 -0.6770 -0.4087
  879MOL0     C21222   5.213  10.088   4.247 -0.9327  0.1541  0.0553
  879MOL0     O21223   5.169  10.198   4.308  0.3421  0.4772 -0.6583
  879MOL0     C21224   5.168  10.326   4.243  0.3850 -0.6803 -0.4211
  879MOL0     C21225   5.153  10.453   4.329  0.2431  0.4304  0.6488
  879MOL0     C21226   5.023  10.472   4.406  0.9184  0.1747  0.0350
  879MOL0     C21227   5.044  10.558   4.531 -0.0779  0.2607  0.8262
  879MOL0     C21228   4.907  10.593   4.584 -0.8237  0.3275  0.4849
  879MOL0     C21229   4.807  10.623   4.648  0.7806 -0.2108 -0.2656
  879MOL0     C21230   5.258   9.973   4.324 -0.8603 -0.8371 -0.2335
  879MOL0     C21231   5.301   9.850   4.277 -0.5780  0.1235  0.1883
  879MOL0     C21232   5.330   9.733   4.364  0.0981  0.7470 -0.9146
  879MOL0     H21233   5.085   9.504   3.934  0.9195  1.6051 -1.7315
  879MOL0     H21234   5.126   9.290   3.793  2.7456 -2.0895 -1.0374
  879MOL0     H21235   5.476   9.040   3.914 -1.2839 -2.6954 -0.5680
  879MOL0     H21236   5.511   9.119   3.759  0.4723 -0.5160  0.1999
  879MOL0     H21237   5.353   8.860   3.815 -1.4852  0.4182 -1.5574
  879MOL0     H21238   5.385   8.932   3.651 -0.8183  2.3117  0.7833
  879MOL0     H21239   5.642   8.922   3.726  0.4407  1.0824  3.8488
  879MOL0     H21240   5.586   8.807   3.852  3.1792  3.4275  1.3674
  879MOL0     H21241   5.489   8.659   3.715 -0.0932  1.1089  0.8241
  879MOL0     H21242   5.499   8.758   3.564  2.0955 -2.0394 -2.6203
  879MOL0     H21243   5.760   8.675   3.731 -0.5000 -2.8438  1.2386
  879MOL0     H21244   5.738   8.720   3.558 -0.8791  0.2252 -0.2381
  879MOL0     H21245   5.625   8.483   3.707  1.1227 -2.1235  0.1655
  879MOL0     H21246   5.585   8.519   3.544 -0.9340  0.0528  1.3979
  879MOL0     H21247   5.787   8.333   3.617  0.9465  0.8502  0.7737
  879MOL0     H21248   5.875   8.482   3.634 -0.0727 -0.5218  1.1289
  879MOL0     H21249   5.748   8.385   3.380  2.4627 -2.2432  0.6671
  879MOL0     H21250   5.832   8.549   3.385  1.5416  1.4817  1.5176
  879MOL0     H21251   6.065   8.553   3.321  1.3279  0.0660  1.7442
  879MOL0     H21252   6.305   8.461   3.195  3.5249 -0.9286  0.3164
  879MOL0     H21253   6.295   8.307   3.128  0.7785 -0.5939 -0.0725
  879MOL0     H21254   6.407   8.391   3.397 -0.5801 -0.7168  0.8131
  879MOL0     H21255   6.370   8.220   3.358  0.5414 -1.1373 -1.5742
  879MOL0     H21256   6.526   8.281   3.145  0.7742  1.0290 -0.6937
  879MOL0     H21257   6.570   8.419   3.231 -1.0400 -0.4671 -0.2761
  879MOL0     H21258   6.650   8.288   3.407 -2.0787 -0.2124 -0.2519
  879MOL0     H21259   6.625   8.135   3.323  1.7381 -1.0978  0.3568
  879MOL0     H21260   6.861   7.999   3.273  2.0831 -1.5266  3.3122
  879MOL0     H21261   7.080   7.870   3.501 -2.1523 -0.3618  0.5090
  879MOL0     H21262   7.126   7.843   3.324 -1.4058 -2.0201  0.3673
  879MOL0     H21263   6.957   7.839   3.381 -0.6378  0.7826  0.0989
  879MOL0     H21264   7.282   7.932   3.767 -0.3277  0.8032 -0.8906
  879MOL0     H21265   7.447   7.895   3.962  1.0911 -1.6688 -2.2698
  879MOL0     H21266   7.504   8.014   4.177  0.9692  3.3078  0.1309
  879MOL0     H21267   7.601   7.891   4.092 -0.9301 -0.4567  0.5209
  879MOL0     H21268   7.816   7.985   4.218  0.0443  0.8452  0.7954
  879MOL0     H21269   7.697   8.077   4.311  1.5881  0.0251  0.1510
  879MOL0     H21270   7.704   7.775   4.256 -2.8319  0.5955 -0.7166
  879MOL0     H21271   7.579   7.848   4.358 -0.4507  1.1867  1.8038
  879MOL0     H21272   7.877   7.837   4.427  0.0323 -1.9606 -0.3615
  879MOL0     H21273   7.759   7.712   4.454  1.9065 -0.5818 -0.7487
  879MOL0     H21274   7.704   7.986   4.560 -1.2090 -0.7029 -5.1589
  879MOL0     H21275   7.628   7.843   4.606  0.0614  0.2096 -1.9041
  879MOL0     H21276   7.928   7.917   4.652 -0.8427 -1.7805 -3.1775
  879MOL0     H21277   7.871   7.764   4.711  0.2647  0.5033  1.7847
  879MOL0     H21278   7.702   7.917   4.832 -0.2417  0.3241 -0.9110
  879MOL0     H21279   7.795   8.059   4.787  0.7917  0.4487  1.0848
  879MOL0     H21280   7.884   8.033   5.000  6.4027  1.1462  1.1984
  879MOL0     H21281   7.994   7.990   4.860  0.6989 -3.7931 -1.2648
  879MOL0     H21282   7.617   8.269   3.875  1.8058 -3.6392 -0.8240
  879MOL0     H21283   7.438   8.308   3.685 -0.6871  2.0066  0.6733
  879MOL0     H21284   7.121   8.342   3.500  1.2096 -1.4308  2.0298
  879MOL0     H21285   6.947   8.405   3.339  0.0970  0.4144  1.2021
  879MOL0     H21286   5.510   9.248   3.957 -4.2362 -4.3587  3.4256
  879MOL0     H21287   5.502   9.475   4.054  0.0546 -1.4623 -0.3174
  879MOL0     H21288   5.277   9.961   3.939  0.6727 -4.2087  0.3562
  879MOL0     H21289   5.192  10.148   4.028 -0.9004  0.4379  0.7609
  879MOL0     H21290   5.250  10.333   4.171 -0.3712 -0.8755 -1.3312
  879MOL0     H21291   5.075  10.329   4.185 -0.9592  0.0745  1.6515
  879MOL0     H21292   5.172  10.538   4.263 -1.1930 -1.4766 -2.4507
  879MOL0     H21293   5.235  10.438   4.401 -2.5975 -4.3673  3.4795
  879MOL0     H21294   4.956  10.518   4.332 -0.6524  1.9564  2.4217
  879MOL0     H21295   4.985  10.380   4.450  0.0220  0.3986 -0.2528
  879MOL0     H21296   5.096  10.650   4.505 -0.3691  0.3402  0.5060
  879MOL0     H21297   5.109  10.512   4.606  2.3890  0.2031 -1.2341
  879MOL0     H21298   4.712  10.650   4.688 -0.8841  0.2958 -4.1244
  879MOL0     H21299   5.248   9.978   4.432  2.0757  0.0457  0.0918
  879MOL0     H21300   5.263   9.653   4.330 -0.6459  2.4393 -3.8423
  879MOL0     H21301   5.432   9.701   4.341 -0.3939 -1.7298 -0.0247
  879MOL0     H21302   5.312   9.755   4.469 -0.4244 -0.4405 -0.7321
  880MOL0     O21303   1.448   7.744   1.736 -0.7161  0.6859 -0.1966
  880MOL0     C21304   1.426   7.622   1.769  0.2434  0.1076  0.0194
  880MOL0     O21305   1.394   7.585   1.891 -0.6177 -0.7880 -0.5736
  880MOL0     C21306   1.357   7.670   1.984  0.3179 -0.4970 -0.2933
  880MOL0     C21307   1.464   7.718   2.079 -0.1256 -0.7262  0.6363
  880MOL0     C21308   1.430   7.821   2.174  0.1616 -0.5278  0.5466
  880MOL0     C21309   1.291   7.860   2.183  0.0355  0.2127 -0.7455
  880MOL0     O21310   1.251   7.957   2.276  0.2319  0.0034  0.1384
  880MOL0     C21311   1.352   8.056   2.303 -0.2509 -0.5746  0.0402
  880MOL0     C21312   1.281   8.171   2.372  0.2337 -0.3184  0.7887
  880MOL0     C21313   1.200   8.136   2.492 -0.6752  0.0691 -0.1691
  880MOL0     C21314   1.140   8.270   2.546  0.6044 -0.2329 -0.0171
  880MOL0     C21315   1.103   8.244   2.692 -0.7159  0.0376 -0.1349
  880MOL0     C21316   1.139   8.358   2.791 -0.5591  0.7262  0.0003
  880MOL0     C21317   1.072   8.494   2.741 -0.9220 -0.5700 -0.4072
  880MOL0     C21318   1.086   8.613   2.837 -0.1942  0.0393 -0.3369
  880MOL0     N21319   1.001   8.715   2.776  0.6928  0.0279  1.1830
  880MOL0     C21320   1.036   8.798   2.679 -0.3567  0.0792  0.6824
  880MOL0     C21321   0.926   8.880   2.650 -0.8995 -0.1878 -0.1552
  880MOL0     C21322   0.922   9.007   2.558  0.5104 -0.0255  1.1598
  880MOL0     C21323   0.818   9.118   2.612  0.1688 -0.2652  0.6526
  880MOL0     C21324   0.835   9.258   2.543 -0.2727  1.0874  0.0819
  880MOL0     C21325   0.719   9.357   2.577 -0.0088 -0.5339  0.6710
  880MOL0     O21326   0.740   9.393   2.714  0.1240 -0.2281  0.5006
  880MOL0     C21327   0.652   9.488   2.767  0.7100 -0.2646 -0.2472
  880MOL0     C21328   0.680   9.537   2.886  0.4300 -0.2323 -0.7543
  880MOL0     C21329   0.601   9.632   2.963 -0.4789  0.1358  0.1743
  880MOL0     C21330   0.649   9.671   3.099 -0.6226  0.6708  1.3652
  880MOL0     C21331   0.483   9.679   2.898  0.5494  0.0419 -0.2622
  880MOL0     C21332   0.409   9.789   2.951  0.3146  1.0176  0.7342
  880MOL0     O21333   0.290   9.814   2.896 -0.8302 -0.2085 -0.0194
  880MOL0     C21334   0.220   9.909   2.968 -0.2298 -0.0110  0.2196
  880MOL0     C21335   0.132   9.878   3.071  0.0157  0.0032 -0.2541
  880MOL0     C21336   0.071   9.981   3.135  0.0040 -0.3339  0.2427
  880MOL0     C21337   0.095  10.115   3.103 -0.5574  0.0726 -0.3626
  880MOL0     O21338   0.048  10.221   3.173 -0.5833 -0.4879 -0.3295
  880MOL0     C21339  -0.070  10.281   3.114  0.2439  0.7178  0.3398
  880MOL0     C21340  -0.179  10.305   3.219  0.1380  0.0359 -0.4761
  880MOL0     C21341  -0.243  10.163   3.255 -0.2828 -0.6545 -0.7619
  880MOL0     C21342  -0.370  10.167   3.343 -0.4748 -0.5337  0.1425
  880MOL0     C21343  -0.422  10.022   3.330  0.7997  0.1157  0.5054
  880MOL0     C21344  -0.555  10.024   3.406  0.6073  0.0328 -0.1545
  880MOL0     C21345  -0.606   9.886   3.418 -0.0082 -0.7165 -1.0529
  880MOL0     C21346  -0.756   9.879   3.430 -0.5703  0.3567 -0.5672
  880MOL0    Cl21347  -0.831   9.988   3.557 -0.0939 -0.3361 -0.5203
  880MOL0     C21348   0.184  10.145   3.000  0.0295  0.8557  1.0045
  880MOL0     C21349   0.249  10.037   2.941  0.3775 -0.7647 -0.9103
  880MOL0     O21350   0.464   9.862   3.030  0.6872  1.0502 -0.2915
  880MOL0     C21351   0.460   9.634   2.768 -1.0616 -0.5395  0.3217
  880MOL0     C21352   0.540   9.544   2.702  0.0424 -0.4552 -0.2776
  880MOL0     N21353   0.834   8.844   2.741 -0.1847 -0.2642  0.0886
  880MOL0     N21354   0.874   8.744   2.811 -0.0740 -0.0084  0.5915
  880MOL0     C21355   1.195   7.819   2.100  0.1561  0.7009 -0.4389
  880MOL0     C21356   1.227   7.715   2.005  0.3189  0.4089  0.1792
  880MOL0     C21357   1.433   7.526   1.655 -0.6735  0.4832 -0.0411
  880MOL0     C21358   1.316   7.462   1.612  0.2409  0.3526 -0.0373
  880MOL0     C21359   1.305   7.348   1.525 -0.3079  0.4612  0.5888
  880MOL0     C21360   1.434   7.298   1.475 -0.1846 -1.2022  0.0681
  880MOL0     O21361   1.429   7.206   1.377 -0.2285  0.6339  0.2102
  880MOL0     C21362   1.555   7.143   1.340  0.2284  0.4479 -0.0707
  880MOL0     C21363   1.523   7.029   1.241  0.0041 -0.1882 -0.4989
  880MOL0     C21364   1.486   6.898   1.317  0.8391 -0.1937 -0.0245
  880MOL0     C21365   1.485   6.773   1.225 -0.3201  0.2661 -0.9014
  880MOL0     C21366   1.482   6.646   1.304 -0.1730 -0.0629 -0.5018
  880MOL0     C21367   1.483   6.541   1.371  0.5792  0.5457  0.4184
  880MOL0     C21368   1.551   7.364   1.526 -0.3353 -0.1743 -0.4399
  880MOL0     C21369   1.556   7.470   1.616 -0.3279 -0.2469  0.5302
  880MOL0     C21370   1.690   7.515   1.668 -0.4270 -0.0638 -0.5091
  880MOL0     H21371   1.568   7.694   2.062 -0.2700 -0.0721 -1.4725
  880MOL0     H21372   1.509   7.877   2.224  2.9145 -2.8192 -0.9425
  880MOL0     H21373   1.388   8.100   2.210 -3.9149 -0.4823 -1.4959
  880MOL0     H21374   1.428   8.009   2.366  0.0404 -0.1417  0.0139
  880MOL0     H21375   1.357   8.245   2.400  1.5252 -1.8921  1.6336
  880MOL0     H21376   1.222   8.221   2.295  1.0957 -0.3289  0.0947
  880MOL0     H21377   1.125   8.058   2.472 -0.4331 -0.3662  0.5988
  880MOL0     H21378   1.277   8.084   2.549 -2.0758 -2.4112 -0.3847
  880MOL0     H21379   1.215   8.349   2.540  0.0065  0.3087 -0.5849
  880MOL0     H21380   1.053   8.311   2.494 -0.1628 -1.6856  0.0674
  880MOL0     H21381   1.149   8.149   2.720  1.4679  0.4413 -2.0238
  880MOL0     H21382   0.996   8.220   2.698 -0.5993 -1.0847 -1.8373
  880MOL0     H21383   1.100   8.334   2.890 -1.6633  0.1266 -0.5574
  880MOL0     H21384   1.246   8.373   2.806 -0.3531 -1.7554  1.5642
  880MOL0     H21385   0.965   8.470   2.733 -1.2523  0.9672 -0.8015
  880MOL0     H21386   1.110   8.526   2.644 -1.1017  0.7642 -0.0562
  880MOL0     H21387   1.044   8.584   2.934  1.7864  0.8898  0.8497
  880MOL0     H21388   1.191   8.638   2.855  0.6026 -3.0689 -0.0617
  880MOL0     H21389   1.138   8.795   2.640 -1.0017  0.0440 -1.1076
  880MOL0     H21390   0.905   8.965   2.458 -0.5518 -0.3644  1.4696
  880MOL0     H21391   1.021   9.053   2.553  1.8634 -2.8553 -1.2305
  880MOL0     H21392   0.714   9.084   2.599  0.3815 -0.2475 -1.4582
  880MOL0     H21393   0.851   9.134   2.715  1.9588  1.7190 -0.1615
  880MOL0     H21394   0.933   9.304   2.558  2.6136 -4.1596 -0.4440
  880MOL0     H21395   0.830   9.242   2.435 -1.1874 -0.4619  0.3252
  880MOL0     H21396   0.729   9.448   2.515 -1.0310 -1.5763 -1.1105
  880MOL0     H21397   0.627   9.300   2.569  0.8791 -2.3795  2.7280
  880MOL0     H21398   0.771   9.503   2.935  1.0113  1.9070 -0.2662
  880MOL0     H21399   0.685   9.772   3.116  1.7614  0.1602 -0.2319
  880MOL0     H21400   0.732   9.605   3.128 -2.4359 -1.0049  3.0925
  880MOL0     H21401   0.566   9.654   3.169 -0.8316 -0.6329  0.8292
  880MOL0     H21402   0.117   9.770   3.079 -0.6967  0.1308  0.1753
  880MOL0     H21403  -0.006   9.951   3.205  0.0499  1.1669  0.9650
  880MOL0     H21404  -0.047  10.385   3.090 -0.1761  1.5605  3.1891
  880MOL0     H21405  -0.108  10.233   3.023 -1.2635  0.1519  1.2242
  880MOL0     H21406  -0.144  10.346   3.313  2.5094  0.1629 -1.3473
  880MOL0     H21407  -0.248  10.381   3.182 -1.3948  0.1096  2.3024
  880MOL0     H21408  -0.162  10.097   3.288  0.2186 -0.2133 -1.0823
  880MOL0     H21409  -0.271  10.126   3.156  1.3148  1.1212 -1.9605
  880MOL0     H21410  -0.447  10.242   3.321 -1.8324 -0.4738  4.2932
  880MOL0     H21411  -0.333  10.205   3.438 -0.1020  1.4492 -0.7461
  880MOL0     H21412  -0.436   9.990   3.226  1.7388 -3.3942  1.3225
  880MOL0     H21413  -0.351   9.947   3.366  2.5618 -1.4528 -5.1818
  880MOL0     H21414  -0.620  10.083   3.341  0.5443 -5.1483 -5.7401
  880MOL0     H21415  -0.547  10.065   3.507  0.1694 -1.5673  0.5643
  880MOL0     H21416  -0.555   9.844   3.505  0.9009  1.3779 -0.5266
  880MOL0     H21417  -0.565   9.831   3.333  3.0558  1.2675 -1.0024
  880MOL0     H21418  -0.788   9.777   3.452 -1.9787  0.1654 -3.0798
  880MOL0     H21419  -0.802   9.902   3.333  0.1721  1.0890 -0.7539
  880MOL0     H21420   0.202  10.251   2.984 -1.0714  0.6979 -1.9361
  880MOL0     H21421   0.322  10.057   2.863  1.2916 -1.9586 -0.3912
  880MOL0     H21422   0.379   9.673   2.706 -1.9118 -1.6898  0.6751
  880MOL0     H21423   0.528   9.538   2.595  0.1001  0.9727 -0.3808
  880MOL0     H21424   1.098   7.864   2.116  1.1895  2.8097  0.2547
  880MOL0     H21425   1.144   7.670   1.951 -0.2814 -0.8804  2.0592
  880MOL0     H21426   1.215   7.479   1.647  1.1030 -0.8021  3.3434
  880MOL0     H21427   1.211   7.298   1.509  1.2048 -1.3806 -4.2471
  880MOL0     H21428   1.614   7.209   1.276  2.0707 -0.4989  0.6031
  880MOL0     H21429   1.613   7.102   1.423  2.0743  1.4554 -0.7981
  880MOL0     H21430   1.618   7.011   1.191  0.1777 -2.2782  0.4956
  880MOL0     H21431   1.457   7.058   1.160 -0.3117 -2.8987 -1.2955
  880MOL0     H21432   1.556   6.887   1.401  0.7481  4.4296  0.8838
  880MOL0     H21433   1.391   6.907   1.370  0.9878 -0.8826  0.3726
  880MOL0     H21434   1.580   6.780   1.171  0.2550 -1.7696 -0.2662
  880MOL0     H21435   1.411   6.773   1.145 -1.7666  1.6062  0.3767
  880MOL0     H21436   1.498   6.455   1.434  0.2630 -0.0856 -0.3457
  880MOL0     H21437   1.646   7.325   1.491 -1.2222 -2.5562 -0.3830
  880MOL0     H21438   1.705   7.617   1.632 -0.2944 -0.2061 -0.8559
  880MOL0     H21439   1.688   7.520   1.777  2.9516  0.3593 -0.3753
  880MOL0     H21440   1.778   7.461   1.634  0.7523  3.1931 -3.2157
  881MOL0     O21441   1.032   0.606   5.393  0.4423 -0.2943  0.2778
  881MOL0     C21442   1.077   0.578   5.287  0.0892  0.8792  1.3848
  881MOL0     O21443   1.201   0.621   5.237 -0.2311  0.2323 -0.1068
  881MOL0     C21444   1.269   0.731   5.292  0.3565  0.5343  0.5609
  881MOL0     C21445   1.349   0.817   5.211 -0.6045 -0.8405  0.9402
  881MOL0     C21446   1.424   0.931   5.261  0.1152  0.3050  0.9552
  881MOL0     C21447   1.433   0.944   5.406 -0.4527  0.4297  0.2162
  881MOL0     O21448   1.515   1.044   5.451  0.1891 -0.3401  0.5238
  881MOL0     C21449   1.518   1.091   5.580  0.5361 -0.5526  0.0389
  881MOL0     C21450   1.396   1.182   5.636 -0.4091  0.0400  0.7946
  881MOL0     C21451   1.307   1.263   5.534 -0.9919  0.4060 -0.3971
  881MOL0     C21452   1.394   1.370   5.457 -0.7172 -0.2532  0.0990
  881MOL0     C21453   1.282   1.457   5.393 -0.4287 -0.5327 -0.2321
  881MOL0     C21454   1.347   1.560   5.314  0.2977 -0.1199 -0.3473
  881MOL0     C21455   1.252   1.681   5.284 -0.0085  0.3967 -0.6946
  881MOL0     C21456   1.136   1.634   5.203 -1.3300  0.3301 -0.2032
  881MOL0     N21457   1.045   1.746   5.172  0.0081  0.2225 -0.1392
  881MOL0     C21458   1.079   1.843   5.079  0.6810 -0.9719 -0.6632
  881MOL0     C21459   0.977   1.936   5.081  0.1997  1.3340 -0.6164
  881MOL0     C21460   0.949   2.067   5.001 -0.5193  0.9900  0.2495
  881MOL0     C21461   0.865   2.178   5.066 -0.6131  0.3701  0.6735
  881MOL0     C21462   0.947   2.245   5.169  0.3361  0.0999 -0.7276
  881MOL0     C21463   0.866   2.335   5.256 -1.1015  0.1012  0.3476
  881MOL0     O21464   0.952   2.419   5.338  0.3410 -0.1303  0.4744
  881MOL0     C21465   1.011   2.529   5.285  0.8503  0.0798 -0.1108
  881MOL0     C21466   0.979   2.586   5.162  1.1402 -0.6332 -0.3693
  881MOL0     C21467   1.037   2.704   5.125 -0.6825  0.1771 -0.6683
  881MOL0     C21468   1.012   2.753   4.993 -0.0584 -0.4823  0.5344
  881MOL0     C21469   1.101   2.780   5.225  0.2095 -0.1425  0.3819
  881MOL0     C21470   1.161   2.915   5.189  0.2488  0.2931 -0.1760
  881MOL0     O21471   1.281   2.943   5.250 -0.5373  1.3816 -0.4794
  881MOL0     C21472   1.339   3.064   5.242  0.2243 -0.2922  0.9029
  881MOL0     C21473   1.283   3.170   5.301  0.4442 -1.2720  0.9257
  881MOL0     C21474   1.354   3.291   5.320  0.0451 -0.2586  0.2129
  881MOL0     C21475   1.488   3.311   5.285 -0.7201 -0.4297  0.9456
  881MOL0     O21476   1.537   3.436   5.285 -0.1678  0.6424  0.8445
  881MOL0     C21477   1.636   3.483   5.192  0.9239 -0.9754  1.2867
  881MOL0     C21478   1.656   3.636   5.213  0.0011  0.6322  0.5974
  881MOL0     C21479   1.776   3.655   5.301 -0.1319  0.5802 -0.5210
  881MOL0     C21480   1.835   3.798   5.287  0.9111  0.5265 -0.4193
  881MOL0     C21481   1.953   3.823   5.193  1.1032  1.1826 -0.5361
  881MOL0     C21482   2.024   3.957   5.220 -0.0248  0.3128 -0.7826
  881MOL0     C21483   2.134   3.963   5.113  0.1255  0.0415 -0.0778
  881MOL0     C21484   2.120   4.084   5.020  0.8907  0.0587  0.0320
  881MOL0    Cl21485   1.948   4.096   4.955  0.3697  0.1711  0.2135
  881MOL0     C21486   1.541   3.198   5.217  0.1272  0.0911 -0.7828
  881MOL0     C21487   1.469   3.081   5.208  0.3925  0.4311 -0.0774
  881MOL0     O21488   1.089   3.004   5.136 -1.3410  0.6325  0.3397
  881MOL0     C21489   1.123   2.720   5.348  0.0477 -0.1150  0.0539
  881MOL0     C21490   1.078   2.593   5.381  0.8341  0.4449  0.2751
  881MOL0     N21491   0.881   1.885   5.166 -0.6234  1.3909  0.4464
  881MOL0     N21492   0.926   1.788   5.228 -0.1053  0.1789  0.3533
  881MOL0     C21493   1.350   0.864   5.483 -1.0386  0.4670  0.2366
  881MOL0     C21494   1.266   0.763   5.430 -0.4445  0.8652  0.3952
  881MOL0     C21495   1.000   0.498   5.190 -0.0211 -0.5159  0.0250
  881MOL0     C21496   1.044   0.478   5.052 -1.0306  0.2446 -0.7449
  881MOL0     C21497   0.981   0.390   4.965  0.0085 -0.5539 -0.8669
  881MOL0     C21498   0.869   0.327   5.004  1.0592 -0.1743  1.4215
  881MOL0     O21499   0.790   0.241   4.926  0.9184  0.0403 -0.1625
  881MOL0     C21500   0.831   0.231   4.790  0.1007 -0.0984  0.1943
  881MOL0     C21501   0.954   0.140   4.768  0.0373 -0.7283 -0.1202
  881MOL0     C21502   1.024   0.160   4.636  0.5894 -0.1104  0.8998
  881MOL0     C21503   1.123   0.045   4.610 -0.3818 -0.0990  0.5896
  881MOL0     C21504   1.195   0.062   4.488  0.3266  0.3154  0.5424
  881MOL0     C21505   1.257   0.072   4.382  0.0980 -1.3461 -0.7868
  881MOL0     C21506   0.823   0.333   5.135 -0.1384  0.2935 -1.4822
  881MOL0     C21507   0.884   0.419   5.223 -0.0666  0.8558 -0.0429
  881MOL0     C21508   0.827   0.404   5.362  0.5299  0.4178 -0.6032
  881MOL0     H21509   1.361   0.792   5.106 -0.5272  0.7608  0.5538
  881MOL0     H21510   1.475   1.007   5.203 -2.3253  1.5593  0.3441
  881MOL0     H21511   1.607   1.155   5.581  1.0208 -1.0214 -2.8657
  881MOL0     H21512   1.535   1.002   5.641  3.3907 -3.5936 -4.5704
  881MOL0     H21513   1.332   1.102   5.674  0.2403 -2.0724 -2.2138
  881MOL0     H21514   1.431   1.254   5.711 -0.8794  1.1085  0.0143
  881MOL0     H21515   1.264   1.185   5.471  2.0267 -3.0955  1.4562
  881MOL0     H21516   1.233   1.314   5.596  0.2234 -0.0724  1.5599
  881MOL0     H21517   1.464   1.418   5.526  2.3013 -1.5413 -1.8475
  881MOL0     H21518   1.453   1.328   5.375 -0.2308  1.9043 -0.7316
  881MOL0     H21519   1.225   1.505   5.473  0.0683 -1.7502  0.8969
  881MOL0     H21520   1.220   1.391   5.333 -3.7972  1.2829  1.0172
  881MOL0     H21521   1.442   1.593   5.358 -0.4736 -1.6014  2.7800
  881MOL0     H21522   1.373   1.507   5.222  1.1118 -1.7032  0.7327
  881MOL0     H21523   1.319   1.746   5.227 -0.3581  0.4905 -1.0003
  881MOL0     H21524   1.210   1.725   5.374 -5.8937 -1.9851 -1.8022
  881MOL0     H21525   1.175   1.589   5.111  4.4515  1.8803  1.0451
  881MOL0     H21526   1.075   1.568   5.265  1.1596 -1.8852  0.0924
  881MOL0     H21527   1.168   1.836   5.016  2.1937 -1.1503  1.3695
  881MOL0     H21528   0.897   2.029   4.912  1.7175  0.3205 -0.8656
  881MOL0     H21529   1.045   2.098   4.958  2.2161 -1.5930  3.9291
  881MOL0     H21530   0.827   2.248   4.990 -1.1483 -0.2288  0.3737
  881MOL0     H21531   0.768   2.142   5.103 -2.3014 -0.7053 -4.0474
  881MOL0     H21532   0.992   2.174   5.238 -1.7247 -0.3351  0.2382
  881MOL0     H21533   1.027   2.310   5.130  1.0010  1.2081  2.2234
  881MOL0     H21534   0.798   2.402   5.202  1.9856  3.2352  0.0240
  881MOL0     H21535   0.810   2.263   5.318 -1.9448  2.2962  2.2747
  881MOL0     H21536   0.906   2.535   5.100  0.6989 -0.5486  0.0763
  881MOL0     H21537   0.919   2.811   4.994  0.1620 -0.1318  2.0310
  881MOL0     H21538   1.015   2.679   4.912  0.5850 -2.2866  2.1335
  881MOL0     H21539   1.088   2.817   4.948 -0.2285 -0.7043 -0.0956
  881MOL0     H21540   1.177   3.164   5.319 -0.4536  3.0862 -1.4875
  881MOL0     H21541   1.310   3.376   5.372 -1.0690  2.9904 -5.3028
  881MOL0     H21542   1.729   3.425   5.189  2.2900  0.9849  2.9731
  881MOL0     H21543   1.591   3.470   5.093 -0.5526  0.4502  1.7332
  881MOL0     H21544   1.664   3.680   5.113 -0.2970 -3.6532 -1.5699
  881MOL0     H21545   1.564   3.672   5.260  0.5395  2.3776  0.3821
  881MOL0     H21546   1.853   3.580   5.278  2.0058  2.7917 -1.1285
  881MOL0     H21547   1.750   3.635   5.405 -1.5856 -3.6192 -1.4965
  881MOL0     H21548   1.860   3.823   5.391 -0.8292 -1.2039  0.4888
  881MOL0     H21549   1.747   3.858   5.259 -2.4878 -2.3539  2.9423
  881MOL0     H21550   2.014   3.737   5.224 -1.4339 -0.2586  0.7702
  881MOL0     H21551   1.919   3.813   5.090  3.1101 -2.8357 -1.0234
  881MOL0     H21552   2.074   3.956   5.318 -4.0491  0.2477  1.4741
  881MOL0     H21553   1.952   4.038   5.210 -0.5150  0.3275  1.8904
  881MOL0     H21554   2.147   3.867   5.062  1.0841  0.4459 -0.6166
  881MOL0     H21555   2.233   3.965   5.159  0.4721 -0.3167 -0.7913
  881MOL0     H21556   2.199   4.079   4.945  2.2801  0.4836  1.3964
  881MOL0     H21557   2.134   4.173   5.083 -0.3715  0.4839 -0.2770
  881MOL0     H21558   1.634   3.197   5.161 -0.4186 -0.4779 -1.7167
  881MOL0     H21559   1.522   2.994   5.169  3.8122  2.4745 -0.4340
  881MOL0     H21560   1.201   2.753   5.416  0.2715 -0.0334 -0.2455
  881MOL0     H21561   1.112   2.547   5.474  1.1835 -0.5906 -0.3540
  881MOL0     H21562   1.350   0.890   5.589 -0.5350  0.5157  0.2287
  881MOL0     H21563   1.210   0.699   5.498  0.2119  1.4066  1.4709
  881MOL0     H21564   1.137   0.527   5.026 -0.6980  0.7139  1.1751
  881MOL0     H21565   1.030   0.379   4.869  0.1250  1.2770 -1.0498
  881MOL0     H21566   0.739   0.201   4.739 -1.5288  3.2329  0.8432
  881MOL0     H21567   0.855   0.326   4.741  2.0626 -0.8264 -0.3346
  881MOL0     H21568   0.910   0.041   4.783  0.0469 -0.3213  3.4851
  881MOL0     H21569   1.041   0.152   4.834  2.3612 -2.1314 -2.6924
  881MOL0     H21570   0.950   0.145   4.557  2.0608 -0.6461 -0.4248
  881MOL0     H21571   1.060   0.261   4.614  1.7094 -1.0954 -2.4720
  881MOL0     H21572   1.071  -0.050   4.612  1.9609 -1.4467  2.2464
  881MOL0     H21573   1.207   0.056   4.679  1.3427  1.4396 -1.5669
  881MOL0     H21574   1.323   0.076   4.297 -2.6603  0.9684 -3.0262
  881MOL0     H21575   0.733   0.280   5.165  0.7940  0.3257  1.6789
  881MOL0     H21576   0.725   0.364   5.366  0.3136  1.0554  1.6281
  881MOL0     H21577   0.887   0.333   5.420 -0.5434  0.8185  1.0614
  881MOL0     H21578   0.814   0.502   5.409 -0.8940 -1.1940  2.7339
  882MOL0     O21579   7.276   7.022   6.697  0.1273 -0.9937 -0.3434
  882MOL0     C21580   7.248   7.065   6.585 -0.0709 -0.4666  0.1740
  882MOL0     O21581   7.208   7.193   6.567  0.3499  0.2930  0.4266
  882MOL0     C21582   7.178   7.281   6.668 -1.5297 -0.4517  0.5898
  882MOL0     C21583   7.082   7.373   6.650  0.3071 -0.0968  0.2139
  882MOL0     C21584   7.036   7.448   6.756  0.2932  0.1026 -0.5423
  882MOL0     C21585   7.104   7.441   6.888 -0.6381  0.7517  0.5886
  882MOL0     O21586   7.082   7.513   7.004 -0.4509  0.0988  0.3429
  882MOL0     C21587   6.979   7.616   6.989 -0.5783 -0.4499 -0.1171
  882MOL0     C21588   6.956   7.692   7.120  0.4337 -0.2461 -0.0417
  882MOL0     C21589   7.094   7.729   7.193  0.3594 -0.1967 -0.2158
  882MOL0     C21590   7.094   7.846   7.288 -0.3545 -0.0308  0.3708
  882MOL0     C21591   6.994   7.828   7.407  0.1823 -0.1641 -0.4173
  882MOL0     C21592   6.951   7.973   7.462 -0.2326  0.4390  0.2191
  882MOL0     C21593   6.866   7.967   7.584  0.0271 -0.5461  0.0190
  882MOL0     C21594   6.840   8.112   7.641  0.4753 -0.0185  0.1357
  882MOL0     N21595   6.753   8.109   7.760 -0.0370  0.0124  0.7382
  882MOL0     C21596   6.766   8.022   7.866  0.1993 -0.0543 -0.5114
  882MOL0     C21597   6.649   8.034   7.937 -0.3540 -0.2626 -0.2174
  882MOL0     C21598   6.609   7.978   8.064 -0.6740  0.2565  0.1653
  882MOL0     C21599   6.593   7.821   8.058  0.1284 -0.4000 -0.0077
  882MOL0     C21600   6.489   7.760   7.957 -0.4773 -0.6113 -0.3502
  882MOL0     C21601   6.441   7.619   7.989  0.8357  1.7478 -0.0862
  882MOL0     O21602   6.553   7.529   7.979  0.8484 -0.4466  0.4613
  882MOL0     C21603   6.596   7.486   7.857  0.1943 -0.5433  0.0165
  882MOL0     C21604   6.562   7.531   7.725 -0.5423  0.3038 -0.3783
  882MOL0     C21605   6.640   7.509   7.613  0.2357 -0.1206  0.1489
  882MOL0     C21606   6.601   7.595   7.491  0.2235 -0.4397  0.2126
  882MOL0     C21607   6.759   7.423   7.631  0.7399  0.8291  0.0068
  882MOL0     C21608   6.851   7.387   7.529 -1.1934 -1.3200  0.3562
  882MOL0     O21609   6.937   7.280   7.558  0.2960 -0.5193 -0.3297
  882MOL0     C21610   7.027   7.221   7.471  0.2402 -0.0326  0.1902
  882MOL0     C21611   7.053   7.245   7.340 -0.4815  1.3953 -0.0973
  882MOL0     C21612   7.150   7.174   7.266  0.0604 -0.0519  0.9897
  882MOL0     C21613   7.230   7.074   7.322  0.5140 -0.0226  0.4040
  882MOL0     O21614   7.323   7.014   7.239  0.1665  0.3054 -0.6407
  882MOL0     C21615   7.401   6.926   7.317  0.1084  0.0597 -0.1007
  882MOL0     C21616   7.487   6.839   7.225 -0.5665  0.0778  0.2785
  882MOL0     C21617   7.562   6.734   7.316 -0.1383 -0.3255  0.9209
  882MOL0     C21618   7.673   6.793   7.401  0.0882  0.2850 -0.1931
  882MOL0     C21619   7.784   6.699   7.456 -0.5545  0.9978 -0.4808
  882MOL0     C21620   7.869   6.605   7.355  0.4139  0.4608  0.0659
  882MOL0     C21621   7.949   6.503   7.435 -0.2405  0.4849 -1.0362
  882MOL0     C21622   7.863   6.392   7.500  0.3471  0.3017  0.7823
  882MOL0    Cl21623   7.801   6.280   7.376  0.3466  0.3458 -0.1690
  882MOL0     C21624   7.200   7.045   7.458  0.0042 -0.2873 -0.5434
  882MOL0     C21625   7.097   7.116   7.526 -0.1539  0.2806  0.0960
  882MOL0     O21626   6.849   7.451   7.415 -0.0115 -0.5315 -0.0422
  882MOL0     C21627   6.773   7.371   7.760  0.1253 -0.5711  0.1924
  882MOL0     C21628   6.700   7.402   7.869  0.1351 -0.7050  0.7507
  882MOL0     N21629   6.570   8.123   7.877  0.9165  0.3111 -0.2107
  882MOL0     N21630   6.631   8.170   7.774 -0.0967 -0.6285 -0.9805
  882MOL0     C21631   7.213   7.358   6.900 -0.4418 -0.9985  0.3921
  882MOL0     C21632   7.252   7.275   6.794  0.5822 -0.4737  0.4554
  882MOL0     C21633   7.273   6.988   6.464  0.4062 -0.1553 -0.9710
  882MOL0     C21634   7.257   7.045   6.328 -1.0671 -0.2072  0.0432
  882MOL0     C21635   7.293   6.979   6.208 -0.3755  0.2841  0.4623
  882MOL0     C21636   7.318   6.844   6.204 -0.0403 -0.0361 -0.0072
  882MOL0     O21637   7.319   6.777   6.085  0.3268  0.2496 -0.2676
  882MOL0     C21638   7.207   6.690   6.062 -0.5734 -0.4313 -0.0448
  882MOL0     C21639   7.220   6.622   5.925  0.4574  0.7923 -0.3535
  882MOL0     C21640   7.105   6.521   5.930  0.5352 -0.6826 -0.2531
  882MOL0     C21641   7.101   6.427   5.804 -1.0404 -0.1165 -0.0877
  882MOL0     C21642   7.092   6.499   5.681  0.1312 -0.1942  0.5696
  882MOL0     C21643   7.087   6.551   5.574 -0.4901  0.0104 -0.5912
  882MOL0     C21644   7.304   6.778   6.334 -0.7695 -0.2642  0.6508
  882MOL0     C21645   7.291   6.846   6.457  1.2153  0.4809 -0.9892
  882MOL0     C21646   7.283   6.748   6.573 -0.3634 -0.6631  0.4552
  882MOL0     H21647   7.030   7.371   6.554  4.1924 -0.1243 -2.0947
  882MOL0     H21648   6.943   7.503   6.749 -0.3882 -1.0209 -0.5137
  882MOL0     H21649   6.885   7.579   6.947 -0.6001  0.1645 -0.6397
  882MOL0     H21650   7.019   7.693   6.921  0.9097 -0.9085  0.1979
  882MOL0     H21651   6.922   7.792   7.092  0.8546  0.0015  0.3220
  882MOL0     H21652   6.888   7.636   7.185 -1.9019  2.6585  0.2096
  882MOL0     H21653   7.115   7.646   7.261  0.8615 -1.0029 -1.3205
  882MOL0     H21654   7.172   7.742   7.117 -0.9138  1.7980 -1.2538
  882MOL0     H21655   7.197   7.859   7.322 -0.0367 -2.4888  0.5238
  882MOL0     H21656   7.056   7.933   7.233 -0.6954 -0.4470 -0.0564
  882MOL0     H21657   7.050   7.776   7.485  2.1060  2.1078 -0.1819
  882MOL0     H21658   6.910   7.761   7.388  1.9664 -2.9143  0.7341
  882MOL0     H21659   7.042   8.028   7.487  1.3420 -0.8745 -2.1515
  882MOL0     H21660   6.897   8.034   7.389 -0.9991 -1.0650 -0.5288
  882MOL0     H21661   6.924   7.916   7.661 -0.1529 -0.1399  0.4252
  882MOL0     H21662   6.778   7.909   7.555  1.0728 -2.0952 -0.1758
  882MOL0     H21663   6.937   8.154   7.668 -0.4156  1.0922  1.7403
  882MOL0     H21664   6.800   8.176   7.562 -0.9859 -3.2344 -1.9412
  882MOL0     H21665   6.843   7.949   7.891  0.6544  1.3077  2.5835
  882MOL0     H21666   6.510   8.018   8.089 -0.7010  0.3358 -0.0700
  882MOL0     H21667   6.673   8.013   8.146  1.3115  0.3370 -1.3718
  882MOL0     H21668   6.688   7.774   8.031  0.0287 -2.0439  2.2454
  882MOL0     H21669   6.558   7.782   8.154 -4.5997 -2.7188 -2.3262
  882MOL0     H21670   6.403   7.827   7.957  0.4930  0.8856  3.0049
  882MOL0     H21671   6.537   7.764   7.858  1.9184  0.8697  0.7628
  882MOL0     H21672   6.408   7.607   8.093 -1.6187  0.9482 -0.8965
  882MOL0     H21673   6.360   7.587   7.924  1.4719 -0.5124  0.1280
  882MOL0     H21674   6.480   7.602   7.715 -2.5057 -1.1808  3.3231
  882MOL0     H21675   6.495   7.622   7.488  0.5215  0.6881 -0.6299
  882MOL0     H21676   6.621   7.535   7.401  0.7353 -1.6549  1.1112
  882MOL0     H21677   6.670   7.679   7.486 -1.7726  1.2230 -2.4578
  882MOL0     H21678   7.003   7.325   7.286  1.2882  2.0102 -0.9112
  882MOL0     H21679   7.173   7.190   7.161 -0.7290 -2.1832  0.4454
  882MOL0     H21680   7.457   6.980   7.394  1.7697  0.3376 -1.4318
  882MOL0     H21681   7.331   6.857   7.363 -1.6983  1.3179 -0.8362
  882MOL0     H21682   7.436   6.792   7.140  0.7779 -0.5506 -0.2112
  882MOL0     H21683   7.561   6.904   7.178 -2.3750  1.5318 -0.7119
  882MOL0     H21684   7.616   6.660   7.255  4.8175  2.4224  1.4104
  882MOL0     H21685   7.486   6.690   7.381 -2.4853  1.5543 -0.4017
  882MOL0     H21686   7.625   6.854   7.478 -1.6591  2.1291 -2.6117
  882MOL0     H21687   7.723   6.867   7.339  1.3073  0.2243  0.6855
  882MOL0     H21688   7.852   6.761   7.515 -2.7041  0.9887  2.2058
  882MOL0     H21689   7.731   6.654   7.540 -2.0537  1.8501 -0.9381
  882MOL0     H21690   7.937   6.672   7.301 -1.5945  0.9240 -2.0704
  882MOL0     H21691   7.805   6.553   7.283 -0.2275  0.5469  0.5619
  882MOL0     H21692   7.993   6.552   7.522 -0.6221  0.7928 -1.0153
  882MOL0     H21693   8.030   6.461   7.374 -0.3638 -2.2712  0.5691
  882MOL0     H21694   7.783   6.425   7.568 -1.0287  0.9397 -1.0497
  882MOL0     H21695   7.932   6.329   7.557 -3.3830 -2.4023  2.7827
  882MOL0     H21696   7.249   6.978   7.527 -2.4174 -0.9972  0.5803
  882MOL0     H21697   7.079   7.102   7.632  2.6092  0.3378  0.6654
  882MOL0     H21698   6.863   7.314   7.779  0.5153 -0.3441 -0.8949
  882MOL0     H21699   6.720   7.371   7.971  1.9384 -2.1050  0.0396
  882MOL0     H21700   7.259   7.363   6.998  0.4284  1.9775 -0.0767
  882MOL0     H21701   7.344   7.218   6.804  1.9185  1.7823  1.7405
  882MOL0     H21702   7.245   7.152   6.320  0.0019  0.3132  3.6754
  882MOL0     H21703   7.279   7.045   6.123  3.0119  1.8497  0.9423
  882MOL0     H21704   7.195   6.613   6.139 -2.7218 -0.2074 -0.1054
  882MOL0     H21705   7.116   6.750   6.060 -0.6687 -0.5600  0.3290
  882MOL0     H21706   7.310   6.560   5.927  0.0854  0.2598  0.2915
  882MOL0     H21707   7.225   6.695   5.843  1.1977 -0.6519 -1.6639
  882MOL0     H21708   7.083   6.457   6.016 -0.9859 -0.4116 -0.4079
  882MOL0     H21709   7.010   6.575   5.923 -1.4978 -3.8794  0.7088
  882MOL0     H21710   7.023   6.351   5.811 -1.9608  0.6768 -1.2894
  882MOL0     H21711   7.188   6.362   5.797 -1.8501 -1.4136  1.3193
  882MOL0     H21712   7.084   6.603   5.480 -2.0116  0.0063 -0.5645
  882MOL0     H21713   7.323   6.671   6.345  2.1762 -0.0288 -1.1454
  882MOL0     H21714   7.356   6.669   6.555 -0.3325  0.0934 -4.1605
  882MOL0     H21715   7.310   6.793   6.669  1.0971  1.3544 -0.8165
  882MOL0     H21716   7.183   6.707   6.586 -1.2883  0.2351 -2.8326
  883MOL0     O21717   3.674   1.812   6.522 -0.2634  0.5912  0.0584
  883MOL0     C21718   3.781   1.786   6.575  1.0556  0.5935 -0.3895
  883MOL0     O21719   3.800   1.742   6.697 -0.3245  0.1490  0.4892
  883MOL0     C21720   3.696   1.678   6.751 -0.0981  0.8155  0.3899
  883MOL0     C21721   3.634   1.736   6.860 -0.0190  0.0598  0.2756
  883MOL0     C21722   3.518   1.681   6.905  0.0364  0.5214 -0.2970
  883MOL0     C21723   3.466   1.551   6.870 -0.4711 -0.4858  1.3178
  883MOL0     O21724   3.350   1.515   6.923 -0.5121 -0.3802  0.7309
  883MOL0     C21725   3.279   1.422   6.844 -0.4850  0.6958 -0.1779
  883MOL0     C21726   3.138   1.395   6.912 -0.8995  0.3854 -0.9178
  883MOL0     C21727   3.047   1.507   6.917  0.4910 -0.8003  0.6183
  883MOL0     C21728   2.954   1.535   6.802 -0.3573  0.4051 -0.2026
  883MOL0     C21729   2.885   1.673   6.800 -0.0640 -0.3898  0.2795
  883MOL0     C21730   2.776   1.667   6.681 -0.8433 -0.5706 -1.0308
  883MOL0     C21731   2.768   1.808   6.625 -0.8026  0.4672 -0.2156
  883MOL0     C21732   2.889   1.870   6.547  0.2693 -0.6692 -0.9507
  883MOL0     N21733   2.855   1.988   6.470  0.7474  0.3502 -0.0713
  883MOL0     C21734   2.725   2.055   6.464  0.6462 -0.1296 -1.8846
  883MOL0     C21735   2.756   2.158   6.388 -1.0190 -0.4166 -0.1098
  883MOL0     C21736   2.669   2.263   6.327 -0.7930 -0.0853  0.0049
  883MOL0     C21737   2.687   2.398   6.409  0.4414 -0.9367 -1.1946
  883MOL0     C21738   2.581   2.505   6.391 -0.1056 -0.2118  0.2935
  883MOL0     C21739   2.644   2.647   6.392 -0.8325  0.3687 -0.4095
  883MOL0     O21740   2.717   2.681   6.522  0.3091  0.2930  0.4308
  883MOL0     C21741   2.650   2.655   6.642 -0.2232 -0.3467 -0.8501
  883MOL0     C21742   2.521   2.711   6.647  0.3158  0.3537  0.3215
  883MOL0     C21743   2.434   2.697   6.761  0.4191 -0.1458  0.8751
  883MOL0     C21744   2.282   2.745   6.751 -0.4495  0.1319  0.7043
  883MOL0     C21745   2.482   2.624   6.870  0.1913  0.0159 -0.3221
  883MOL0     C21746   2.419   2.596   6.998 -0.0493 -0.2802 -0.2735
  883MOL0     O21747   2.466   2.492   7.067 -0.2986 -0.2067 -0.2779
  883MOL0     C21748   2.409   2.476   7.185 -0.1585  0.4381  0.1750
  883MOL0     C21749   2.308   2.387   7.205 -0.5935 -0.0924 -0.4845
  883MOL0     C21750   2.242   2.376   7.329  0.0173 -0.1995  0.4553
  883MOL0     C21751   2.295   2.450   7.440  0.5700  0.7846  0.3554
  883MOL0     O21752   2.237   2.440   7.560 -0.2686  0.2277  0.0583
  883MOL0     C21753   2.252   2.555   7.644 -0.1468  1.0547  0.8066
  883MOL0     C21754   2.152   2.676   7.605 -0.4996  0.5542  0.7402
  883MOL0     C21755   2.004   2.652   7.621 -0.4462 -0.8043 -0.7045
  883MOL0     C21756   1.907   2.764   7.619 -0.8433 -0.2036  0.6713
  883MOL0     C21757   1.942   2.861   7.726  0.1428 -0.5536 -1.1594
  883MOL0     C21758   1.863   2.994   7.702 -0.6383 -0.4373 -1.1565
  883MOL0     C21759   1.719   3.002   7.752  0.8778  0.9347  0.7313
  883MOL0     C21760   1.693   2.949   7.889  0.0089  0.3883 -1.0774
  883MOL0    Cl21761   1.654   2.770   7.879 -0.1172  0.0668 -0.0856
  883MOL0     C21762   2.416   2.511   7.425 -0.1207  0.5499  0.1723
  883MOL0     C21763   2.465   2.536   7.295 -0.2981  0.2314 -0.5862
  883MOL0     O21764   2.334   2.675   7.040 -0.2917 -0.2608  0.4229
  883MOL0     C21765   2.622   2.575   6.866  0.3263  0.1229 -0.2052
  883MOL0     C21766   2.704   2.596   6.757 -0.8015 -0.5833  0.6565
  883MOL0     N21767   2.892   2.166   6.347  0.3933 -0.1629 -1.3672
  883MOL0     N21768   2.951   2.064   6.396  0.6428  0.1213 -0.4426
  883MOL0     C21769   3.539   1.483   6.771  0.3841 -0.7289 -0.0592
  883MOL0     C21770   3.647   1.550   6.705 -0.3597  0.0280 -0.9214
  883MOL0     C21771   3.897   1.788   6.477  0.2129  0.1694 -0.4749
  883MOL0     C21772   3.912   1.906   6.396 -0.3942  0.8457  1.3872
  883MOL0     C21773   4.013   1.914   6.309 -0.6828  0.3319  0.3785
  883MOL0     C21774   4.113   1.815   6.295  0.4202 -0.8860  0.3822
  883MOL0     O21775   4.210   1.826   6.199 -0.5694 -0.4874 -0.1414
  883MOL0     C21776   4.283   1.945   6.180 -0.4733 -0.6607 -0.1909
  883MOL0     C21777   4.425   1.912   6.112  0.1413  0.1667 -1.3290
  883MOL0     C21778   4.493   1.771   6.147  0.2070 -0.7678  0.1098
  883MOL0     C21779   4.490   1.680   6.022  0.2634 -0.5438 -0.6354
  883MOL0     C21780   4.476   1.545   6.068  0.6358 -0.7568 -0.4022
  883MOL0     C21781   4.462   1.428   6.092 -0.0308  0.5036 -0.2538
  883MOL0     C21782   4.095   1.704   6.367  1.1454 -0.4599 -0.2128
  883MOL0     C21783   3.998   1.688   6.469  0.7064  0.5140  1.1878
  883MOL0     C21784   3.992   1.555   6.549  0.4242  0.4161  0.2084
  883MOL0     H21785   3.658   1.838   6.891  1.8100  0.1757 -1.3141
  883MOL0     H21786   3.469   1.732   6.987  1.6465 -0.4879  1.3445
  883MOL0     H21787   3.332   1.328   6.862 -1.7147 -0.5453 -2.5801
  883MOL0     H21788   3.275   1.440   6.736 -1.1398  0.0919 -0.2658
  883MOL0     H21789   3.082   1.307   6.881  0.5263 -0.0961 -2.2450
  883MOL0     H21790   3.173   1.381   7.015 -0.8474 -0.3628 -1.0305
  883MOL0     H21791   2.986   1.498   7.007  1.4033  0.3632  1.3798
  883MOL0     H21792   3.108   1.595   6.936  4.4754 -1.9779 -4.3393
  883MOL0     H21793   3.017   1.522   6.714 -0.0414 -3.2764  0.4234
  883MOL0     H21794   2.877   1.457   6.801  4.1641 -4.6903 -0.9435
  883MOL0     H21795   2.960   1.750   6.781  0.5748 -1.2592 -0.8980
  883MOL0     H21796   2.847   1.699   6.899 -1.7919  0.6758 -0.6220
  883MOL0     H21797   2.823   1.604   6.606  1.5615  0.4625 -0.4834
  883MOL0     H21798   2.680   1.631   6.721 -0.3007 -0.8920  0.0122
  883MOL0     H21799   2.747   1.876   6.709 -2.2480 -3.4184  2.8757
  883MOL0     H21800   2.677   1.800   6.565 -0.8205  0.4486 -0.1865
  883MOL0     H21801   2.961   1.911   6.619 -0.1518  0.8570 -1.3633
  883MOL0     H21802   2.933   1.800   6.476  1.0266 -0.6473 -0.5194
  883MOL0     H21803   2.627   2.022   6.497  0.3086 -0.4537 -3.1422
  883MOL0     H21804   2.566   2.230   6.337 -1.4765  0.6239 -3.4129
  883MOL0     H21805   2.676   2.283   6.219  1.3624 -2.3323 -0.3631
  883MOL0     H21806   2.689   2.365   6.513  0.7196 -2.9153 -1.7831
  883MOL0     H21807   2.791   2.426   6.386  0.4113  0.0919 -0.1643
  883MOL0     H21808   2.538   2.498   6.290 -1.7905  0.1986  0.9442
  883MOL0     H21809   2.495   2.494   6.458 -1.3628  2.4850 -0.7159
  883MOL0     H21810   2.710   2.642   6.304  1.1054 -1.1327  1.0493
  883MOL0     H21811   2.571   2.725   6.368 -0.4563  1.4392  1.7070
  883MOL0     H21812   2.493   2.777   6.565 -1.1410  0.2036  0.6768
  883MOL0     H21813   2.268   2.826   6.678  0.2176  0.6347  1.1236
  883MOL0     H21814   2.244   2.794   6.841 -2.2724  0.7202 -0.3292
  883MOL0     H21815   2.221   2.655   6.737 -0.4410 -0.2397  2.7670
  883MOL0     H21816   2.259   2.331   7.126  1.0604  0.1637 -1.7255
  883MOL0     H21817   2.150   2.318   7.340 -1.8371  2.8465  2.8163
  883MOL0     H21818   2.226   2.531   7.747 -1.9082  1.0085  0.3893
  883MOL0     H21819   2.354   2.593   7.644 -0.2581  1.3958  2.0656
  883MOL0     H21820   2.192   2.762   7.660  2.3057  0.6755 -1.2452
  883MOL0     H21821   2.163   2.696   7.498 -2.9161  0.5618  0.4440
  883MOL0     H21822   2.010   2.612   7.723  0.4611 -5.8521 -2.4373
  883MOL0     H21823   1.952   2.583   7.554 -0.4129  0.8816 -2.5367
  883MOL0     H21824   1.807   2.726   7.643 -0.9053  1.2455  3.0808
  883MOL0     H21825   1.923   2.817   7.525  4.5281 -3.9764 -1.0124
  883MOL0     H21826   1.929   2.820   7.826  2.8181  0.3480 -0.3545
  883MOL0     H21827   2.045   2.896   7.721 -0.4743  1.2716 -2.3466
  883MOL0     H21828   1.855   3.014   7.595 -1.0133  0.4431 -0.9791
  883MOL0     H21829   1.902   3.077   7.762 -1.9310 -0.1786 -0.6155
  883MOL0     H21830   1.647   2.948   7.690 -0.0932  4.7554 -1.7883
  883MOL0     H21831   1.683   3.104   7.738 -2.6935 -0.5716 -3.1068
  883MOL0     H21832   1.620   2.999   7.953  0.5851  0.7635 -0.7129
  883MOL0     H21833   1.784   2.958   7.948 -1.2921 -1.9061  1.5206
  883MOL0     H21834   2.482   2.519   7.511 -0.4444 -0.2546  0.5013
  883MOL0     H21835   2.563   2.584   7.291 -0.0195  0.0569  1.9780
  883MOL0     H21836   2.676   2.531   6.949  2.3607 -1.3151 -2.1673
  883MOL0     H21837   2.804   2.558   6.738 -0.6217  0.5894 -0.8879
  883MOL0     H21838   3.513   1.386   6.730 -1.3991 -0.0381 -0.6699
  883MOL0     H21839   3.698   1.499   6.624 -0.2336 -0.0713 -0.7815
  883MOL0     H21840   3.828   1.974   6.389 -1.5252 -0.6152 -0.5151
  883MOL0     H21841   4.023   1.998   6.241  3.9479 -0.2738 -0.0338
  883MOL0     H21842   4.224   2.010   6.115 -0.4281  1.0780  1.4220
  883MOL0     H21843   4.301   2.007   6.268  1.9900  0.0224 -1.0932
  883MOL0     H21844   4.496   1.985   6.151 -2.0482  0.7770  1.9529
  883MOL0     H21845   4.405   1.917   6.004  2.0265 -1.2240 -1.7947
  883MOL0     H21846   4.595   1.791   6.181 -0.3543  0.3843  1.2125
  883MOL0     H21847   4.454   1.736   6.243  2.7273 -1.8989  0.8092
  883MOL0     H21848   4.588   1.693   5.976  1.3254 -1.3867  1.2459
  883MOL0     H21849   4.403   1.701   5.960 -1.3661 -2.5713  0.8019
  883MOL0     H21850   4.453   1.321   6.091  1.0474  0.2906 -4.2041
  883MOL0     H21851   4.169   1.625   6.353  0.4841 -0.8238 -1.9949
  883MOL0     H21852   4.001   1.570   6.657 -1.0643 -1.5198  0.6726
  883MOL0     H21853   3.900   1.501   6.525  0.5919  0.8008 -1.3614
  883MOL0     H21854   4.073   1.491   6.514  0.5454  2.4818 -3.7787
  884MOL0     O21855   1.885  11.092   8.283 -0.0792 -0.2771  0.5524
  884MOL0     C21856   1.996  11.107   8.334 -0.7738 -0.7204 -0.8001
  884MOL0     O21857   2.024  11.181   8.444 -0.6479 -0.1355 -0.2295
  884MOL0     C21858   1.929  11.185   8.541  0.6810  0.4823  0.1522
  884MOL0     C21859   1.850  11.295   8.576  0.5242 -0.9022 -0.6222
  884MOL0     C21860   1.743  11.298   8.664 -0.8536  0.4995 -0.4671
  884MOL0     C21861   1.706  11.173   8.713 -1.4025  0.2291 -0.0142
  884MOL0     O21862   1.593  11.173   8.803 -0.2660  0.8172  0.5533
  884MOL0     C21863   1.573  11.072   8.897 -0.4209  0.9199 -0.0472
  884MOL0     C21864   1.662  11.087   9.018 -0.0181  0.5614  0.5097
  884MOL0     C21865   1.654  11.225   9.078  1.2595 -1.0395 -1.1682
  884MOL0     C21866   1.610  11.222   9.233  0.2406  0.2072  0.5156
  884MOL0     C21867   1.733  11.183   9.315 -1.1382 -0.0114 -0.3954
  884MOL0     C21868   1.728  11.207   9.466  0.5462 -0.3642 -0.6585
  884MOL0     C21869   1.600  11.150   9.536  0.2457 -1.0181  0.8932
  884MOL0     C21870   1.549  11.229   9.665 -0.0683  0.5950  0.2049
  884MOL0     N21871   1.401  11.267   9.668 -1.4556  0.7132  0.3799
  884MOL0     C21872   1.296  11.180   9.690 -0.1428  0.3504  0.4630
  884MOL0     C21873   1.199  11.273   9.704 -0.4874 -0.5980  0.6148
  884MOL0     C21874   1.064  11.237   9.745  0.7576 -0.3510 -0.3198
  884MOL0     C21875   1.019  11.115   9.659  0.6636  0.5388  0.3349
  884MOL0     C21876   0.868  11.077   9.661  0.0744 -0.2484 -0.4283
  884MOL0     C21877   0.823  10.986   9.531  0.0439 -0.1316 -0.2225
  884MOL0     O21878   0.863  10.849   9.549 -0.7449 -0.5731  0.3830
  884MOL0     C21879   0.835  10.780   9.671 -0.0166  0.4092 -0.0685
  884MOL0     C21880   0.702  10.762   9.704  0.0730  1.2056 -0.4137
  884MOL0     C21881   0.663  10.692   9.817 -0.0768  0.6368 -0.5379
  884MOL0     C21882   0.512  10.694   9.831 -0.1734  0.1566  0.4270
  884MOL0     C21883   0.753  10.629   9.894 -0.6343 -0.0271 -1.1948
  884MOL0     C21884   0.733  10.553  10.022  0.0098  1.0479 -0.0402
  884MOL0     O21885   0.844  10.488  10.077  0.1842 -0.0374 -1.0837
  884MOL0     C21886   0.836  10.397  10.183 -0.3399 -0.4862 -1.1902
  884MOL0     C21887   0.722  10.324  10.211 -0.3268 -0.3884 -0.6892
  884MOL0     C21888   0.717  10.224  10.312  0.5301 -0.3668 -0.7261
  884MOL0     C21889   0.827  10.218  10.400 -0.1785  0.0871  1.2915
  884MOL0     O21890   0.821  10.122  10.488  0.2349 -0.3390  0.0706
  884MOL0     C21891   0.924  10.103  10.587  0.6599 -0.1858 -0.1276
  884MOL0     C21892   0.879   9.981  10.672 -0.0204 -0.4360 -0.1246
  884MOL0     C21893   0.748   9.995  10.744  0.3701 -0.2036 -0.2364
  884MOL0     C21894   0.758  10.103  10.848 -0.7954  0.0699  0.0374
  884MOL0     C21895   0.643  10.090  10.944 -0.8740  0.2565 -0.7214
  884MOL0     C21896   0.669   9.996  11.063 -0.5324  0.5980 -0.0318
  884MOL0     C21897   0.555  10.004  11.169  0.3239  0.3527 -0.3421
  884MOL0     C21898   0.411  10.030  11.113 -0.3202 -0.2753  0.6983
  884MOL0    Cl21899   0.352   9.885  11.022  0.2460  0.1920  0.2174
  884MOL0     C21900   0.946  10.284  10.375  0.7121 -0.7936 -0.0155
  884MOL0     C21901   0.949  10.370  10.268  1.1492 -0.5582  0.3526
  884MOL0     O21902   0.619  10.544  10.063 -0.0979  0.7242 -0.3774
  884MOL0     C21903   0.890  10.648   9.862  0.3829 -0.1935 -0.7708
  884MOL0     C21904   0.935  10.721   9.751 -0.4506 -0.6787 -0.2298
  884MOL0     N21905   1.247  11.402   9.685 -0.2506 -1.0028 -0.2750
  884MOL0     N21906   1.375  11.397   9.664  0.4046  0.0223  0.5297
  884MOL0     C21907   1.788  11.057   8.688 -0.1838  1.3352 -1.0494
  884MOL0     C21908   1.907  11.063   8.618  0.8944 -0.2490  1.5840
  884MOL0     C21909   2.105  11.083   8.247  0.3101  1.7401 -0.2699
  884MOL0     C21910   2.090  11.139   8.119  0.4410  0.0692 -0.4837
  884MOL0     C21911   2.205  11.144   8.035  0.5721 -0.1402 -0.5470
  884MOL0     C21912   2.321  11.068   8.057 -0.2380  0.5175  0.9545
  884MOL0     O21913   2.427  11.049   7.971  0.3751 -0.1768 -0.1629
  884MOL0     C21914   2.417  11.104   7.839 -0.1510 -0.8135 -0.2173
  884MOL0     C21915   2.539  11.078   7.763  0.5365  0.2666 -0.5298
  884MOL0     C21916   2.562  11.161   7.648 -0.0528  0.1187  0.5374
  884MOL0     C21917   2.632  11.285   7.691  0.4460  0.1117  1.2839
  884MOL0     C21918   2.702  11.361   7.587  0.1978 -0.5537 -0.0054
  884MOL0     C21919   2.779  11.409   7.506  0.2498  0.4288  0.1683
  884MOL0     C21920   2.317  10.995   8.171 -0.0910  0.2251 -0.6840
  884MOL0     C21921   2.218  10.998   8.266  0.2455 -0.8486 -0.5270
  884MOL0     C21922   2.246  10.927   8.401  0.5885 -0.5296  0.4448
  884MOL0     H21923   1.870  11.393   8.535 -1.3351  0.5165  1.6031
  884MOL0     H21924   1.691  11.388   8.695 -1.1789 -0.6577  2.6792
  884MOL0     H21925   1.571  10.967   8.867  1.5973  1.5673 -2.7918
  884MOL0     H21926   1.472  11.098   8.931 -0.2175  2.2795 -0.3986
  884MOL0     H21927   1.635  11.010   9.091  0.7392 -1.2398 -1.0499
  884MOL0     H21928   1.763  11.062   8.987 -0.7522 -0.7855 -0.9553
  884MOL0     H21929   1.747  11.282   9.071 -0.4517  2.0820 -0.0931
  884MOL0     H21930   1.583  11.278   9.015  1.0498  0.1586  0.0434
  884MOL0     H21931   1.564  11.315   9.265 -0.9064 -1.4848  4.3816
  884MOL0     H21932   1.531  11.148   9.247 -0.8042  1.1195 -0.3607
  884MOL0     H21933   1.818  11.247   9.292 -0.9386  0.4735  1.4810
  884MOL0     H21934   1.764  11.081   9.291  1.4372  0.0553  2.0968
  884MOL0     H21935   1.820  11.174   9.516  0.7325  1.9616  0.6792
  884MOL0     H21936   1.714  11.314   9.476 -2.4991 -0.7829  0.4831
  884MOL0     H21937   1.590  11.043   9.554 -2.4339 -0.9620  0.0840
  884MOL0     H21938   1.516  11.163   9.468 -3.1719 -2.1570  4.5376
  884MOL0     H21939   1.575  11.158   9.744  1.4182 -0.8731 -1.5246
  884MOL0     H21940   1.614  11.317   9.677 -1.7591  2.0779 -0.9869
  884MOL0     H21941   1.301  11.073   9.707  3.6102  0.0853 -1.2513
  884MOL0     H21942   0.999  11.321   9.722  2.0192  0.2139 -1.9436
  884MOL0     H21943   1.059  11.223   9.854 -0.0554  0.6771 -0.2130
  884MOL0     H21944   1.036  11.149   9.556 -0.0329  0.3022  0.1320
  884MOL0     H21945   1.076  11.027   9.688  0.2380  1.1136  3.1803
  884MOL0     H21946   0.845  11.018   9.751  1.1980  0.5795  0.4289
  884MOL0     H21947   0.801  11.163   9.673 -2.0699 -1.9928  1.2104
  884MOL0     H21948   0.714  10.971   9.528  0.1286 -0.8191 -3.5943
  884MOL0     H21949   0.851  11.033   9.437  2.9354  1.3369  1.2421
  884MOL0     H21950   0.628  10.805   9.638  0.7523  1.4144 -1.0570
  884MOL0     H21951   0.464  10.786   9.799 -1.4817 -0.3665  0.8270
  884MOL0     H21952   0.470  10.683   9.931 -1.5646  0.9631 -0.0464
  884MOL0     H21953   0.464  10.619   9.768 -1.4410  0.9782  0.3841
  884MOL0     H21954   0.629  10.327  10.155 -1.0154 -3.7871  0.0161
  884MOL0     H21955   0.627  10.165  10.325 -1.1294  1.4811 -2.9035
  884MOL0     H21956   1.022  10.083  10.543 -0.5603 -1.8082 -2.3754
  884MOL0     H21957   0.936  10.192  10.649 -3.6717  1.6676 -1.5234
  884MOL0     H21958   0.871   9.888  10.614 -2.5599 -0.2830 -0.1058
  884MOL0     H21959   0.960   9.984  10.745  0.1319  0.5620 -0.3193
  884MOL0     H21960   0.733   9.903  10.801  0.4713  0.0317  0.1706
  884MOL0     H21961   0.665  10.006  10.673  1.3512 -1.0919 -1.5481
  884MOL0     H21962   0.761  10.198  10.793 -2.3208  0.5145  0.6758
  884MOL0     H21963   0.850  10.103  10.907 -0.5132  1.5964 -0.3467
  884MOL0     H21964   0.632  10.193  10.980 -1.3693 -0.7071  2.1720
  884MOL0     H21965   0.545  10.069  10.902 -2.1651  0.7252  1.8686
  884MOL0     H21966   0.757  10.028  11.119 -2.7444  2.5325  2.6346
  884MOL0     H21967   0.676   9.893  11.027 -2.1713  1.2058 -2.2846
  884MOL0     H21968   0.586  10.090  11.228  2.0566 -0.3164 -0.2269
  884MOL0     H21969   0.540   9.909  11.221 -0.1002  1.2024  1.1317
  884MOL0     H21970   0.413  10.126  11.061 -2.1385 -0.7312 -0.3083
  884MOL0     H21971   0.337  10.052  11.191  1.1168  0.3166  1.9499
  884MOL0     H21972   1.037  10.271  10.434  0.3548 -2.1587  0.2572
  884MOL0     H21973   1.043  10.422  10.251  1.3770 -1.2650 -0.6557
  884MOL0     H21974   0.974  10.608   9.919  0.1152 -0.4823 -0.5729
  884MOL0     H21975   1.042  10.730   9.736 -0.0225  1.0721  2.9547
  884MOL0     H21976   1.772  10.965   8.743  1.9107  1.2329 -0.5204
  884MOL0     H21977   1.967  10.973   8.622 -1.2397 -1.8596 -0.1995
  884MOL0     H21978   1.993  11.179   8.090 -0.8361 -1.3047  1.6708
  884MOL0     H21979   2.201  11.202   7.943  2.8622 -2.2689 -2.1027
  884MOL0     H21980   2.339  11.051   7.785 -0.9210 -2.3735  2.2314
  884MOL0     H21981   2.413  11.212   7.853 -2.6453 -0.9836  0.9676
  884MOL0     H21982   2.531  10.970   7.749  2.9730 -0.0725  0.2243
  884MOL0     H21983   2.631  11.069   7.821  1.2193  0.5858 -1.5337
  884MOL0     H21984   2.619  11.095   7.582  0.3049  0.3471  0.6144
  884MOL0     H21985   2.468  11.182   7.596 -2.0404 -0.5290  3.5546
  884MOL0     H21986   2.709  11.262   7.765  1.3704 -1.0094  0.0113
  884MOL0     H21987   2.560  11.350   7.741 -2.5423 -2.2240  0.3152
  884MOL0     H21988   2.838  11.442   7.423 -2.6483 -1.7578 -3.0625
  884MOL0     H21989   2.401  10.928   8.191 -0.6738 -0.1620  0.5724
  884MOL0     H21990   2.158  10.869   8.432 -2.2799  3.6357  1.0197
  884MOL0     H21991   2.341  10.873   8.398  1.0730  0.3385 -1.2353
  884MOL0     H21992   2.251  11.014   8.466  0.5402  0.9140 -1.4003
  885MOL0     O21993   8.299   9.012   1.342  0.8340  0.7992  0.6470
  885MOL0     C21994   8.189   9.069   1.321  0.3654  0.4948 -0.7020
  885MOL0     O21995   8.154   9.194   1.364 -0.2968 -0.0369  0.5219
  885MOL0     C21996   8.249   9.292   1.372  0.3275  0.0719  0.4429
  885MOL0     C21997   8.288   9.360   1.259  0.3450 -0.0420 -0.0037
  885MOL0     C21998   8.384   9.462   1.267 -0.2684 -1.0729  0.0088
  885MOL0     C21999   8.427   9.514   1.387  0.3728  0.5537 -1.2430
  885MOL0     O22000   8.513   9.614   1.393  0.3783 -0.2707 -0.2121
  885MOL0     C22001   8.604   9.623   1.496  0.0450  0.2488  0.1199
  885MOL0     C22002   8.725   9.689   1.434 -0.3156  0.7002  0.8115
  885MOL0     C22003   8.834   9.735   1.543  1.1827  0.7125 -0.3741
  885MOL0     C22004   8.770   9.830   1.650  0.2345 -0.4721 -0.3490
  885MOL0     C22005   8.877   9.907   1.730  0.3247  0.5351  0.1283
  885MOL0     C22006   8.793  10.015   1.811  0.4915  0.9920  0.9948
  885MOL0     C22007   8.870  10.082   1.920 -0.9442 -0.3797  0.4884
  885MOL0     C22008   8.889   9.986   2.037  0.3606  0.2916  0.3587
  885MOL0     N22009   8.950  10.050   2.158  0.5471 -0.0028 -0.3057
  885MOL0     C22010   9.088  10.087   2.183  0.1728 -0.0392  0.1471
  885MOL0     C22011   9.089  10.139   2.307  0.1537  0.5734  0.5945
  885MOL0     C22012   9.208  10.187   2.377  0.0257  0.2489  0.1201
  885MOL0     C22013   9.323  10.082   2.388 -0.4009 -0.5274  0.3101
  885MOL0     C22014   9.416  10.081   2.513  1.0692 -0.0631 -0.4396
  885MOL0     C22015   9.480  10.217   2.566  0.6947 -0.6273  0.2970
  885MOL0     O22016   9.581  10.180   2.654  0.3916  0.5242 -0.0135
  885MOL0     C22017   9.685  10.269   2.689  0.3185  0.9528  0.9297
  885MOL0     C22018   9.698  10.402   2.640  0.6109  0.7604  0.0442
  885MOL0     C22019   9.803  10.492   2.674 -1.0098 -0.2875 -0.1157
  885MOL0     C22020   9.811  10.630   2.603  0.1488  0.2395 -0.0500
  885MOL0     C22021   9.906  10.456   2.765  0.5787  0.3323  0.3773
  885MOL0     C22022  10.011  10.540   2.822 -0.5626 -0.5852  0.0843
  885MOL0     O22023  10.059  10.506   2.949 -0.1706 -0.1649  0.0434
  885MOL0     C22024  10.139  10.602   3.015 -0.2517 -0.1171 -0.7424
  885MOL0     C22025  10.079  10.705   3.085 -0.0443  0.1590 -0.3125
  885MOL0     C22026  10.159  10.806   3.134 -0.3763 -0.3688  0.0241
  885MOL0     C22027  10.299  10.803   3.140  0.3438  0.8658  0.0879
  885MOL0     O22028  10.385  10.888   3.201 -0.3119  0.0601  0.0667
  885MOL0     C22029  10.344  10.985   3.302  0.2504  0.7383  1.0516
  885MOL0     C22030  10.285  11.107   3.234  0.2005  0.6468 -0.0773
  885MOL0     C22031  10.266  11.214   3.337  0.1264 -1.5162 -0.9964
  885MOL0     C22032  10.408  11.275   3.370 -0.0363  0.2118  0.0114
  885MOL0     C22033  10.406  11.402   3.452 -0.2472  0.2481  0.1706
  885MOL0     C22034  10.530  11.433   3.539 -1.2833  0.1857  0.0409
  885MOL0     C22035  10.659  11.440   3.452 -0.3077  0.2824 -0.1425
  885MOL0     C22036  10.787  11.421   3.542 -0.5638 -0.7151  0.0500
  885MOL0    Cl22037  10.806  11.570   3.643 -0.7136 -0.2418 -0.0878
  885MOL0     C22038  10.351  10.692   3.075  0.6121 -1.0564 -0.4096
  885MOL0     C22039  10.282  10.599   3.008  0.0479 -0.2085 -0.3575
  885MOL0     O22040  10.062  10.630   2.756 -0.0379  0.3523 -0.3124
  885MOL0     C22041   9.892  10.322   2.817  0.4824 -0.0753 -0.3567
  885MOL0     C22042   9.784  10.233   2.781 -0.8854 -0.0151 -0.6678
  885MOL0     N22043   8.956  10.141   2.352  0.2362  0.4964  0.9084
  885MOL0     N22044   8.879  10.078   2.272  0.0919 -0.0805  1.0539
  885MOL0     C22045   8.370   9.458   1.508  0.6580 -0.4878 -0.6140
  885MOL0     C22046   8.285   9.344   1.494 -0.1185 -0.5666 -1.0635
  885MOL0     C22047   8.087   8.995   1.238  0.2905 -0.6058 -0.4554
  885MOL0     C22048   7.956   9.043   1.238 -0.1731 -0.5007 -0.1375
  885MOL0     C22049   7.855   8.985   1.170 -0.3959  0.2328  0.5189
  885MOL0     C22050   7.881   8.882   1.089  0.2662  0.5390  0.1163
  885MOL0     O22051   7.792   8.827   0.994 -0.3331 -0.1607 -0.7798
  885MOL0     C22052   7.650   8.858   1.009 -0.6926 -0.5438 -0.0472
  885MOL0     C22053   7.618   8.985   0.925  0.6387 -0.4469  0.1715
  885MOL0     C22054   7.700   9.004   0.798  0.9065 -1.3770 -0.5088
  885MOL0     C22055   7.667   9.125   0.702  0.0690  0.2161 -0.1963
  885MOL0     C22056   7.761   9.136   0.588 -0.7845  0.9721 -0.5069
  885MOL0     C22057   7.833   9.122   0.501 -0.3134 -1.6228  0.4632
  885MOL0     C22058   8.014   8.827   1.084 -0.5630 -0.1606 -0.6649
  885MOL0     C22059   8.118   8.886   1.148  0.2309 -0.2579  0.6677
  885MOL0     C22060   8.242   8.814   1.133  0.5939 -0.6181 -0.1360
  885MOL0     H22061   8.246   9.338   1.161  0.6833  2.6711 -0.8651
  885MOL0     H22062   8.410   9.513   1.175 -3.9897 -2.9825 -2.3473
  885MOL0     H22063   8.645   9.528   1.534  0.8260  0.4956 -0.0826
  885MOL0     H22064   8.565   9.694   1.570  1.1062  1.2285 -0.2285
  885MOL0     H22065   8.775   9.625   1.361 -1.4129 -1.1945  1.6168
  885MOL0     H22066   8.692   9.777   1.379  1.1818  1.4540  1.0815
  885MOL0     H22067   8.896   9.655   1.584  0.3980 -0.8010 -2.0233
  885MOL0     H22068   8.913   9.784   1.485 -0.3533  2.0625 -1.4214
  885MOL0     H22069   8.715   9.904   1.590  0.0263 -1.5441 -1.5368
  885MOL0     H22070   8.717   9.774   1.727  1.9785 -2.3398 -0.4174
  885MOL0     H22071   8.944   9.957   1.660 -2.4446  0.5363 -2.7429
  885MOL0     H22072   8.940   9.843   1.793  0.3697 -1.4767 -1.8295
  885MOL0     H22073   8.765  10.089   1.735 -0.7866  0.0227  0.5021
  885MOL0     H22074   8.702   9.969   1.850 -2.0997  0.0611 -4.9597
  885MOL0     H22075   8.827  10.179   1.951  0.2406  0.5354 -0.6309
  885MOL0     H22076   8.967  10.117   1.885 -0.6467  0.4645  2.0297
  885MOL0     H22077   8.791   9.950   2.068  0.3716  1.5645  1.9745
  885MOL0     H22078   8.945   9.895   2.014  0.7153 -0.1044  2.6257
  885MOL0     H22079   9.181  10.064   2.132  0.7911  0.4834  1.0069
  885MOL0     H22080   9.173  10.204   2.479 -1.1353  0.7948 -0.3581
  885MOL0     H22081   9.239  10.284   2.338 -1.0675  1.5395  2.2894
  885MOL0     H22082   9.283   9.980   2.380  1.8567 -1.3733 -1.4208
  885MOL0     H22083   9.393  10.104   2.307  0.3996  0.6581  1.2957
  885MOL0     H22084   9.351  10.057   2.598  1.4971  0.4628  0.0479
  885MOL0     H22085   9.489  10.002   2.500  2.7263  0.8896  2.3384
  885MOL0     H22086   9.536  10.263   2.484  0.7418  1.3506  1.3683
  885MOL0     H22087   9.402  10.286   2.602  1.8492  0.8216  0.1198
  885MOL0     H22088   9.622  10.435   2.570 -0.4469  0.6614  1.1184
  885MOL0     H22089   9.883  10.627   2.521  0.7951 -1.2045  0.5498
  885MOL0     H22090   9.847  10.708   2.671  0.1330  1.0188 -0.9047
  885MOL0     H22091   9.709  10.651   2.567 -0.2876 -0.1462  0.9368
  885MOL0     H22092   9.972  10.695   3.072  0.2679 -1.2370 -2.3425
  885MOL0     H22093  10.115  10.892   3.183  3.4072  1.1344  1.2102
  885MOL0     H22094  10.280  10.920   3.361  2.2290 -1.2198  1.1564
  885MOL0     H22095  10.434  11.003   3.363  1.2898 -0.9890  0.1191
  885MOL0     H22096  10.346  11.147   3.153 -0.2370  4.8832  1.3991
  885MOL0     H22097  10.184  11.097   3.193 -1.2711 -1.7858  3.6068
  885MOL0     H22098  10.223  11.176   3.430 -1.0003 -2.0111 -1.6893
  885MOL0     H22099  10.204  11.288   3.285 -0.3905 -1.3310 -0.1322
  885MOL0     H22100  10.455  11.295   3.273 -0.6135  4.3185  0.4179
  885MOL0     H22101  10.471  11.203   3.424  4.0672  3.5184  0.0935
  885MOL0     H22102  10.377  11.480   3.380 -0.3969 -1.5987 -1.8838
  885MOL0     H22103  10.319  11.387   3.516 -0.9399 -0.2828 -0.8670
  885MOL0     H22104  10.539  11.337   3.590  0.4008 -0.2348 -0.9700
  885MOL0     H22105  10.517  11.518   3.608  1.8011 -0.9739  2.2494
  885MOL0     H22106  10.686  11.537   3.409  3.9816 -1.5497 -2.1418
  885MOL0     H22107  10.655  11.384   3.359  0.2300  1.4155 -0.8788
  885MOL0     H22108  10.887  11.415   3.497 -0.1347  1.6522  0.5426
  885MOL0     H22109  10.765  11.343   3.615  3.4081  0.0440  2.3547
  885MOL0     H22110  10.460  10.695   3.072  0.7360 -0.7627  2.4491
  885MOL0     H22111  10.343  10.530   2.951  0.8117  1.5567 -1.7538
  885MOL0     H22112   9.960  10.303   2.900 -1.0529  1.4276  1.3104
  885MOL0     H22113   9.780  10.136   2.828  1.0742  1.3282  2.6212
  885MOL0     H22114   8.384   9.500   1.607 -0.6523  0.9697 -1.0081
  885MOL0     H22115   8.237   9.296   1.578  1.0638 -2.4079 -1.3961
  885MOL0     H22116   7.931   9.128   1.300  0.7072 -1.3468  1.4268
  885MOL0     H22117   7.753   9.018   1.184 -1.6176 -0.9829 -3.7894
  885MOL0     H22118   7.599   8.778   0.956 -0.4938  0.2118 -1.4384
  885MOL0     H22119   7.619   8.853   1.113 -0.6386  0.2441  0.0120
  885MOL0     H22120   7.636   9.075   0.985 -3.9458 -0.4305  1.9029
  885MOL0     H22121   7.511   8.983   0.900  0.8885 -1.4389 -0.8873
  885MOL0     H22122   7.803   9.021   0.830  0.8399 -2.4449  0.3171
  885MOL0     H22123   7.703   8.911   0.741  0.4161 -0.1455 -2.6793
  885MOL0     H22124   7.692   9.204   0.774 -1.2642  0.1713  0.3411
  885MOL0     H22125   7.563   9.114   0.668 -0.0041 -0.9510  0.3728
  885MOL0     H22126   7.914   9.119   0.431 -0.3301  0.7603  0.2604
  885MOL0     H22127   8.020   8.735   1.028  0.7012 -0.0661 -0.7086
  885MOL0     H22128   8.272   8.785   1.235 -3.1134  1.1672  1.6676
  885MOL0     H22129   8.225   8.725   1.072 -0.9009 -1.8508  1.9214
  885MOL0     H22130   8.327   8.873   1.096 -0.1008  1.3003  1.1830
  886MOL0     O22131   0.069   5.140   3.703 -0.0968  0.0880 -0.5706
  886MOL0     C22132   0.161   5.162   3.794  1.1943 -0.1437 -0.8124
  886MOL0     O22133   0.265   5.245   3.776 -0.6933  0.3782  0.4799
  886MOL0     C22134   0.257   5.336   3.672 -0.4370  0.9095 -0.2880
  886MOL0     C22135   0.175   5.452   3.678 -0.2095  1.6498 -0.3552
  886MOL0     C22136   0.153   5.532   3.564  0.6037 -0.5907 -0.1546
  886MOL0     C22137   0.219   5.514   3.446  0.7115  0.3051  1.7797
  886MOL0     O22138   0.166   5.596   3.340 -0.6489 -0.8932 -0.8124
  886MOL0     C22139   0.272   5.652   3.254  1.5852  0.9826 -0.5885
  886MOL0     C22140   0.225   5.664   3.100  0.9938  0.5281  0.1508
  886MOL0     C22141   0.340   5.705   3.008 -0.4389  0.3063 -0.0536
  886MOL0     C22142   0.343   5.647   2.867 -0.2845 -0.4896 -0.1416
  886MOL0     C22143   0.456   5.711   2.783  0.4485 -1.9403 -0.2703
  886MOL0     C22144   0.440   5.857   2.758 -0.0818  0.1045 -0.4439
  886MOL0     C22145   0.477   5.898   2.613  1.0740  0.4295 -0.9212
  886MOL0     C22146   0.376   5.890   2.500  0.2965  0.4229  0.5213
  886MOL0     N22147   0.259   5.968   2.522  0.1863 -1.0275 -0.5429
  886MOL0     C22148   0.151   5.945   2.613 -0.1251 -0.2798  0.3158
  886MOL0     C22149   0.067   6.052   2.597 -0.2968  1.0931  0.5388
  886MOL0     C22150  -0.065   6.071   2.675  0.3034 -0.6194  0.3369
  886MOL0     C22151  -0.108   6.217   2.693 -0.6073 -0.6780 -0.0683
  886MOL0     C22152  -0.142   6.288   2.559  0.3273 -0.4270  0.4430
  886MOL0     C22153  -0.151   6.448   2.565  0.4408  0.5501 -0.4570
  886MOL0     O22154  -0.268   6.489   2.640  0.6328 -0.9780  0.1529
  886MOL0     C22155  -0.265   6.611   2.712  0.1320  0.4359  0.0830
  886MOL0     C22156  -0.328   6.721   2.669 -1.1834  0.1669  0.4656
  886MOL0     C22157  -0.329   6.849   2.723  0.6283 -0.2420  0.6905
  886MOL0     C22158  -0.386   6.961   2.630  0.9044 -1.1438  0.0397
  886MOL0     C22159  -0.279   6.854   2.852 -0.4577 -0.3919  0.5004
  886MOL0     C22160  -0.295   6.982   2.934 -0.2658 -0.7396 -0.8178
  886MOL0     O22161  -0.193   7.008   3.029  0.3053 -0.1034  0.1298
  886MOL0     C22162  -0.183   7.134   3.092  0.1000  0.3200  0.2284
  886MOL0     C22163  -0.134   7.142   3.223 -0.7312 -0.9614  0.1003
  886MOL0     C22164  -0.121   7.264   3.292 -0.2922  0.7355  0.3429
  886MOL0     C22165  -0.149   7.381   3.223 -0.1196 -0.4189  0.6378
  886MOL0     O22166  -0.146   7.510   3.280  0.1793  0.3893 -0.0875
  886MOL0     C22167  -0.246   7.524   3.382 -0.9256  0.4966 -0.6973
  886MOL0     C22168  -0.252   7.666   3.413  0.8023 -0.2070 -0.2732
  886MOL0     C22169  -0.234   7.698   3.566 -0.1539 -0.3101 -0.7955
  886MOL0     C22170  -0.338   7.619   3.663  0.5068  0.2195  0.6037
  886MOL0     C22171  -0.337   7.664   3.812 -0.9440  0.5466  0.1435
  886MOL0     C22172  -0.375   7.820   3.840 -0.1298  0.2474  0.2986
  886MOL0     C22173  -0.352   7.854   3.986  0.0380  0.2273  0.5716
  886MOL0     C22174  -0.418   7.756   4.083 -0.1651  0.2222 -0.4863
  886MOL0    Cl22175  -0.409   7.817   4.248  0.3797  0.1142  0.0580
  886MOL0     C22176  -0.217   7.370   3.098 -0.3857  0.0694  0.6152
  886MOL0     C22177  -0.238   7.251   3.031  0.6907  0.4504  0.0429
  886MOL0     O22178  -0.409   7.033   2.933 -0.6932 -0.9648  0.5106
  886MOL0     C22179  -0.204   6.744   2.910 -0.0312 -0.7286  0.2697
  886MOL0     C22180  -0.196   6.618   2.837 -1.3144 -0.3979  0.0809
  886MOL0     N22181   0.128   6.123   2.498 -0.2322  0.1020 -0.0055
  886MOL0     N22182   0.246   6.084   2.466 -1.3342  0.2903  0.5822
  886MOL0     C22183   0.313   5.417   3.439  1.4504  0.4500  0.1129
  886MOL0     C22184   0.328   5.325   3.543  0.4429  0.0172 -0.4871
  886MOL0     C22185   0.153   5.082   3.921 -0.4757 -0.7703 -0.6336
  886MOL0     C22186   0.035   5.102   3.993 -0.0619 -0.3981 -0.2897
  886MOL0     C22187   0.018   5.027   4.108 -0.6108 -0.1571 -0.0542
  886MOL0     C22188   0.109   4.923   4.150 -0.0808 -0.4893  0.0023
  886MOL0     O22189   0.081   4.850   4.261 -0.9213  0.2396  0.6894
  886MOL0     C22190   0.127   4.710   4.269 -0.1973 -0.1433  0.3273
  886MOL0     C22191   0.255   4.708   4.358 -0.7898 -0.6805  0.0448
  886MOL0     C22192   0.234   4.704   4.513  0.6395  0.1680  0.8906
  886MOL0     C22193   0.361   4.732   4.582  0.9964  0.2574  0.0435
  886MOL0     C22194   0.340   4.720   4.728 -0.0656 -0.7599 -0.9690
  886MOL0     C22195   0.311   4.701   4.847 -0.0445 -1.1294  0.0133
  886MOL0     C22196   0.227   4.901   4.066 -0.1974 -0.0771 -1.0119
  886MOL0     C22197   0.251   4.983   3.957 -0.5815 -0.0635  0.0490
  886MOL0     C22198   0.373   4.969   3.868 -0.2382  0.4586  1.0938
  886MOL0     H22199   0.129   5.470   3.775  0.0904 -2.7529  0.7815
  886MOL0     H22200   0.087   5.618   3.571  1.4993  0.1688 -0.7198
  886MOL0     H22201   0.358   5.585   3.267  0.2474 -0.8786 -0.8097
  886MOL0     H22202   0.290   5.757   3.278 -0.2332  1.7181 -2.1995
  886MOL0     H22203   0.203   5.560   3.075  3.5540 -0.5548  1.8851
  886MOL0     H22204   0.145   5.738   3.090  0.5419  0.3407  1.9478
  886MOL0     H22205   0.348   5.814   3.013 -1.4517  0.3813  0.0472
  886MOL0     H22206   0.437   5.673   3.049 -2.1369 -3.1724  1.6759
  886MOL0     H22207   0.352   5.538   2.875 -1.5449 -0.5232  1.4497
  886MOL0     H22208   0.243   5.662   2.824 -1.0064  2.4784  2.2141
  886MOL0     H22209   0.443   5.666   2.685 -2.9787  0.9728 -1.3852
  886MOL0     H22210   0.555   5.699   2.827  2.6006  4.5487 -2.1106
  886MOL0     H22211   0.337   5.875   2.790 -0.1705 -1.9824  0.6460
  886MOL0     H22212   0.495   5.912   2.834  0.3561 -1.4867  0.4343
  886MOL0     H22213   0.566   5.842   2.583  1.8261  1.4466 -0.6785
  886MOL0     H22214   0.519   5.999   2.624  0.4067  0.5460  0.8239
  886MOL0     H22215   0.421   5.919   2.405  4.6486 -2.1086  1.4912
  886MOL0     H22216   0.351   5.784   2.485 -1.3518  1.0367 -1.3711
  886MOL0     H22217   0.139   5.856   2.675  2.7817  0.3651  1.9610
  886MOL0     H22218  -0.054   6.021   2.771 -1.6462 -6.7732 -2.1959
  886MOL0     H22219  -0.148   6.021   2.625 -0.2687 -1.9647  2.5074
  886MOL0     H22220  -0.194   6.219   2.761 -2.3625 -0.2253 -2.1821
  886MOL0     H22221  -0.032   6.278   2.742 -1.8336  1.1916 -0.3969
  886MOL0     H22222  -0.078   6.259   2.475 -0.5014 -0.0430 -0.3307
  886MOL0     H22223  -0.244   6.252   2.546  0.9694 -1.6097 -1.8956
  886MOL0     H22224  -0.057   6.490   2.602  0.3853 -1.0937  1.7496
  886MOL0     H22225  -0.153   6.485   2.462  1.9980 -1.3323 -1.2209
  886MOL0     H22226  -0.353   6.706   2.565  1.1056  0.1069 -0.1389
  886MOL0     H22227  -0.325   7.051   2.617 -2.3748  1.7305  2.7178
  886MOL0     H22228  -0.480   6.995   2.673  0.6192 -0.2438 -1.2287
  886MOL0     H22229  -0.408   6.915   2.533 -3.0997 -3.0785  1.6273
  886MOL0     H22230  -0.119   7.046   3.272 -1.4794 -1.6985 -1.0606
  886MOL0     H22231  -0.083   7.262   3.394  0.5469 -0.2727  0.0295
  886MOL0     H22232  -0.347   7.491   3.360 -2.4940  4.7588 -0.8160
  886MOL0     H22233  -0.210   7.468   3.470 -0.1099  1.6400 -0.2644
  886MOL0     H22234  -0.173   7.718   3.359 -1.0197  2.3417 -0.6412
  886MOL0     H22235  -0.347   7.713   3.388  1.0967  1.5776  1.6316
  886MOL0     H22236  -0.243   7.806   3.576  2.3601  0.0431 -1.8339
  886MOL0     H22237  -0.133   7.676   3.600  0.3216  0.3677 -1.7407
  886MOL0     H22238  -0.322   7.512   3.653  0.5233  0.3347 -0.8029
  886MOL0     H22239  -0.437   7.639   3.620  0.3056  1.7632  1.6964
  886MOL0     H22240  -0.404   7.585   3.848  0.2492 -3.1556 -4.6789
  886MOL0     H22241  -0.236   7.642   3.847 -1.3716  0.0343  1.0946
  886MOL0     H22242  -0.476   7.838   3.802 -0.2811  1.7236  1.3263
  886MOL0     H22243  -0.307   7.887   3.788 -0.0812  1.9125  2.3856
  886MOL0     H22244  -0.391   7.955   4.001 -0.9615  0.2878 -1.9547
  886MOL0     H22245  -0.245   7.852   4.009 -0.2044  0.2285  1.8006
  886MOL0     H22246  -0.364   7.661   4.076  2.4695  1.5191  0.6435
  886MOL0     H22247  -0.520   7.733   4.052 -0.3880  0.0644  0.3424
  886MOL0     H22248  -0.250   7.463   3.053 -1.1184  0.1336  1.2507
  886MOL0     H22249  -0.295   7.236   2.940  0.8096  0.9437 -0.1122
  886MOL0     H22250  -0.169   6.753   3.012 -3.4031 -0.2052  1.5274
  886MOL0     H22251  -0.144   6.533   2.879 -1.1278  0.6579  2.0958
  886MOL0     H22252   0.356   5.399   3.341 -0.0129 -0.2972 -0.4182
  886MOL0     H22253   0.389   5.236   3.544 -1.3129 -1.2473  1.1183
  886MOL0     H22254  -0.035   5.181   3.968 -0.1320 -0.3044  0.2110
  886MOL0     H22255  -0.052   5.066   4.181 -0.7133 -1.1733  0.4027
  886MOL0     H22256   0.044   4.656   4.314 -2.8477  1.4128 -2.3902
  886MOL0     H22257   0.149   4.667   4.171 -0.1580  0.8207 -0.0974
  886MOL0     H22258   0.319   4.796   4.347 -0.8878 -0.5027  0.8362
  886MOL0     H22259   0.323   4.624   4.338  2.5388  0.6514  4.2200
  886MOL0     H22260   0.159   4.781   4.529 -0.5515 -0.6961 -0.2749
  886MOL0     H22261   0.197   4.610   4.555  0.8806  0.6766  2.2957
  886MOL0     H22262   0.409   4.828   4.560  1.1737  1.1968  3.7837
  886MOL0     H22263   0.443   4.670   4.545  2.4097  2.1273 -0.1155
  886MOL0     H22264   0.261   4.698   4.942  2.4964  0.2124  1.4842
  886MOL0     H22265   0.305   4.831   4.095 -0.3051 -0.0567 -0.6712
  886MOL0     H22266   0.367   4.867   3.830 -0.2513  0.6873  0.4670
  886MOL0     H22267   0.368   5.023   3.773 -1.8274  1.4590  1.7092
  886MOL0     H22268   0.469   4.997   3.914 -0.5948  1.2864  1.3587
  887MOL0     O22269   3.942   1.711   5.886 -0.9635 -0.1415  0.3647
  887MOL0     C22270   3.877   1.735   5.980  0.2177 -0.2893  0.2763
  887MOL0     O22271   3.794   1.850   5.993  0.0534  0.7760  0.2906
  887MOL0     C22272   3.846   1.969   5.941 -0.1975  0.3566 -0.6350
  887MOL0     C22273   3.981   2.004   5.925  0.2928  0.6271 -0.8966
  887MOL0     C22274   4.013   2.137   5.885  0.5411  0.4176 -0.6908
  887MOL0     C22275   3.919   2.237   5.856 -0.9749 -0.0100 -0.2694
  887MOL0     O22276   3.961   2.364   5.828 -0.2897 -0.0205  1.1710
  887MOL0     C22277   4.017   2.394   5.703  0.1961  0.3262 -0.1103
  887MOL0     C22278   4.147   2.467   5.735  0.7122  0.5456 -0.1731
  887MOL0     C22279   4.221   2.497   5.605 -0.0455 -0.0783 -0.4653
  887MOL0     C22280   4.150   2.613   5.535 -0.3194 -1.2930  0.3088
  887MOL0     C22281   4.214   2.655   5.399  0.5248  0.0225 -0.2748
  887MOL0     C22282   4.351   2.730   5.427  0.3005  0.5259  0.1729
  887MOL0     C22283   4.409   2.774   5.290  0.6005  0.2810 -0.3257
  887MOL0     C22284   4.555   2.711   5.278 -1.0836 -0.0726  0.7432
  887MOL0     N22285   4.612   2.751   5.149  0.2610  0.0957 -0.9094
  887MOL0     C22286   4.629   2.654   5.056  0.4401 -1.2199 -0.3843
  887MOL0     C22287   4.703   2.712   4.964  1.1350 -0.0338 -0.5755
  887MOL0     C22288   4.751   2.640   4.846 -0.1296 -0.5754  1.0775
  887MOL0     C22289   4.887   2.577   4.882 -0.5206 -0.7392  0.0308
  887MOL0     C22290   4.946   2.518   4.764 -1.0543  0.9149 -0.3229
  887MOL0     C22291   5.058   2.424   4.803 -0.3127  0.0759  0.2724
  887MOL0     O22292   5.149   2.394   4.695  0.1475 -0.7111 -0.4105
  887MOL0     C22293   5.105   2.328   4.585 -0.3303 -0.1321 -0.0347
  887MOL0     C22294   5.081   2.399   4.472  0.6108 -0.4197  0.8012
  887MOL0     C22295   5.058   2.333   4.350  0.0975  0.1257  0.2192
  887MOL0     C22296   5.021   2.413   4.221  0.1302  0.6889  0.2773
  887MOL0     C22297   5.073   2.190   4.350  0.1377 -0.3915  0.2929
  887MOL0     C22298   5.071   2.103   4.231 -0.7043  0.5930 -0.7346
  887MOL0     O22299   5.040   1.970   4.257 -0.0814  0.2198  0.0022
  887MOL0     C22300   5.033   1.881   4.150  0.0826 -0.1845  0.7413
  887MOL0     C22301   4.988   1.902   4.015  0.1337 -0.2789  0.0449
  887MOL0     C22302   4.979   1.804   3.914  0.6260  0.1722 -0.2573
  887MOL0     C22303   5.001   1.668   3.950  0.0054 -0.7020  0.2890
  887MOL0     O22304   4.972   1.556   3.877 -0.1018 -0.3141 -0.1126
  887MOL0     C22305   4.860   1.572   3.790 -0.0096  0.8762 -0.0317
  887MOL0     C22306   4.876   1.460   3.678  0.5180 -0.6218 -0.5529
  887MOL0     C22307   4.788   1.481   3.559 -0.2568 -0.1283  0.1419
  887MOL0     C22308   4.838   1.436   3.415  0.1960  0.2547 -0.0070
  887MOL0     C22309   4.744   1.500   3.300  0.4054 -0.1396 -0.5345
  887MOL0     C22310   4.819   1.507   3.171 -0.3684  0.5342  0.5156
  887MOL0     C22311   4.868   1.369   3.125 -0.3845 -0.1473 -0.0903
  887MOL0     C22312   4.765   1.252   3.118  0.4620  0.6807 -0.4273
  887MOL0    Cl22313   4.827   1.105   3.025 -0.2432  0.2459 -0.0307
  887MOL0     C22314   5.061   1.646   4.075 -0.6934 -1.3496  0.3022
  887MOL0     C22315   5.073   1.748   4.168 -0.7865 -0.7146  0.0635
  887MOL0     O22316   5.098   2.155   4.121  0.4517 -0.0299 -0.3599
  887MOL0     C22317   5.092   2.124   4.473  0.7269  0.0478 -0.5494
  887MOL0     C22318   5.081   2.194   4.598  0.8733  0.7780  0.4706
  887MOL0     N22319   4.731   2.844   4.993 -0.1849  1.5574 -0.6503
  887MOL0     N22320   4.665   2.863   5.102  1.0138 -0.0847  0.2886
  887MOL0     C22321   3.789   2.208   5.883  0.2283  0.0267  0.2121
  887MOL0     C22322   3.750   2.073   5.917  0.1274 -0.5673 -0.8113
  887MOL0     C22323   3.856   1.632   6.083  0.9668  0.2999 -0.2061
  887MOL0     C22324   3.730   1.634   6.168 -1.2587 -0.4074 -0.2668
  887MOL0     C22325   3.698   1.539   6.265 -0.3808  0.6972  0.5095
  887MOL0     C22326   3.786   1.433   6.284 -0.4831  0.1026 -0.2716
  887MOL0     O22327   3.758   1.340   6.383 -0.8248 -0.4271 -0.1215
  887MOL0     C22328   3.855   1.251   6.432  0.0805 -0.3965  0.1712
  887MOL0     C22329   3.793   1.194   6.555  0.5468 -1.0118  0.1509
  887MOL0     C22330   3.906   1.125   6.644  0.4245  0.5315  0.6448
  887MOL0     C22331   3.854   1.005   6.734  0.0588 -0.2586  1.3836
  887MOL0     C22332   3.720   1.030   6.781  0.5790  1.0257 -0.2386
  887MOL0     C22333   3.609   1.044   6.818 -0.2070 -0.1496 -0.1784
  887MOL0     C22334   3.907   1.421   6.206  1.1287  0.1511  0.2619
  887MOL0     C22335   3.938   1.522   6.112 -0.5004  0.3426 -0.2616
  887MOL0     C22336   4.078   1.508   6.055  0.4419 -1.0499  0.2974
  887MOL0     H22337   4.061   1.935   5.950  1.5238  0.2026 -5.1232
  887MOL0     H22338   4.119   2.157   5.876  0.7359 -0.4656 -0.4684
  887MOL0     H22339   3.947   2.449   5.640 -0.7778  0.7942  1.3293
  887MOL0     H22340   4.038   2.298   5.654  1.0471 -0.0582  0.9617
  887MOL0     H22341   4.128   2.562   5.787  2.0721 -0.5565  2.5516
  887MOL0     H22342   4.194   2.404   5.812 -2.8682 -0.5481  1.3273
  887MOL0     H22343   4.319   2.529   5.642 -0.8987  0.3679  1.5286
  887MOL0     H22344   4.243   2.411   5.541  0.1101  1.8858 -3.2367
  887MOL0     H22345   4.048   2.585   5.509 -1.7144  2.6261  1.0149
  887MOL0     H22346   4.157   2.693   5.609 -0.6484 -1.2180  0.2588
  887MOL0     H22347   4.144   2.729   5.357  2.3112  1.8613 -0.1567
  887MOL0     H22348   4.218   2.570   5.330 -0.0227  0.1658 -0.4918
  887MOL0     H22349   4.341   2.822   5.486  0.8857  0.8517 -0.2335
  887MOL0     H22350   4.416   2.654   5.471 -0.8524 -2.9183 -3.4978
  887MOL0     H22351   4.409   2.883   5.281 -0.4617  0.1252 -3.3307
  887MOL0     H22352   4.360   2.738   5.199 -2.1201  0.9739  0.7612
  887MOL0     H22353   4.623   2.745   5.357  2.4310 -2.4176 -1.0638
  887MOL0     H22354   4.536   2.604   5.285  0.2982 -0.3164  1.0853
  887MOL0     H22355   4.587   2.555   5.067 -1.2225 -0.6103 -0.9842
  887MOL0     H22356   4.778   2.711   4.768 -0.0496 -1.2527  0.4836
  887MOL0     H22357   4.683   2.561   4.813 -0.7748  0.3287  0.1767
  887MOL0     H22358   4.963   2.650   4.913  1.2081 -1.5955 -1.9933
  887MOL0     H22359   4.872   2.508   4.966 -2.0639  4.1455  4.3596
  887MOL0     H22360   4.870   2.458   4.714 -1.9431  1.5474  0.2561
  887MOL0     H22361   4.992   2.589   4.694  4.7483 -0.4217  1.5049
  887MOL0     H22362   5.114   2.482   4.877  0.6191  1.2134 -1.2582
  887MOL0     H22363   5.006   2.338   4.845  2.0845 -2.5374 -1.7314
  887MOL0     H22364   5.094   2.507   4.471 -0.7284 -0.2437  1.1353
  887MOL0     H22365   4.960   2.347   4.158  1.6902 -0.4363 -0.0888
  887MOL0     H22366   5.113   2.438   4.167  1.1108 -0.0899  1.5511
  887MOL0     H22367   4.964   2.504   4.243 -0.6877  0.3238 -0.2635
  887MOL0     H22368   4.948   1.997   3.980 -2.6706 -1.9435 -1.6685
  887MOL0     H22369   4.961   1.821   3.808  2.3274 -0.4762 -0.6964
  887MOL0     H22370   4.765   1.556   3.843 -1.2010  0.1655 -2.2489
  887MOL0     H22371   4.855   1.666   3.735  1.3284  0.9068 -0.1333
  887MOL0     H22372   4.980   1.466   3.645  0.4457  2.1165 -0.5067
  887MOL0     H22373   4.849   1.365   3.725  3.0217 -0.7209  0.8585
  887MOL0     H22374   4.772   1.589   3.553 -2.6115 -0.4858 -2.4572
  887MOL0     H22375   4.689   1.436   3.575  0.9283 -2.9958 -0.0114
  887MOL0     H22376   4.843   1.327   3.409  0.5554  0.2475  0.3871
  887MOL0     H22377   4.939   1.475   3.403  1.1522 -1.8924  0.6262
  887MOL0     H22378   4.657   1.438   3.277 -0.0289  0.2658 -0.0469
  887MOL0     H22379   4.700   1.596   3.332  1.7409  0.0037  0.9966
  887MOL0     H22380   4.916   1.553   3.193 -1.1361  2.4574  0.0539
  887MOL0     H22381   4.765   1.558   3.091  1.7089  0.2913 -1.1169
  887MOL0     H22382   4.945   1.343   3.199  1.4476 -1.7628 -2.4031
  887MOL0     H22383   4.908   1.378   3.024  0.7188  0.0326  0.3468
  887MOL0     H22384   4.683   1.296   3.061 -1.2719 -1.3704  0.3611
  887MOL0     H22385   4.737   1.211   3.215 -1.9135  3.3757  0.1427
  887MOL0     H22386   5.070   1.547   4.118  2.5696 -0.6176  1.6565
  887MOL0     H22387   5.116   1.722   4.264  0.0251 -0.1199 -0.1294
  887MOL0     H22388   5.096   2.016   4.484 -2.3009 -0.0364  0.7485
  887MOL0     H22389   5.085   2.139   4.691 -2.7055  1.2711  1.0442
  887MOL0     H22390   3.704   2.272   5.867  0.7041  0.3984 -0.8979
  887MOL0     H22391   3.645   2.045   5.926 -0.5470  2.1348  0.7025
  887MOL0     H22392   3.655   1.702   6.129  0.1255 -0.2297 -2.8397
  887MOL0     H22393   3.606   1.552   6.322  0.0330  5.4187  0.4552
  887MOL0     H22394   3.876   1.173   6.359  0.1243  0.1449 -0.4066
  887MOL0     H22395   3.948   1.301   6.461 -0.3923  1.9659 -1.9943
  887MOL0     H22396   3.711   1.128   6.524 -0.3725  0.7002 -1.2285
  887MOL0     H22397   3.742   1.276   6.606  1.5027 -1.1561  1.4012
  887MOL0     H22398   3.993   1.091   6.587 -1.4559 -1.7779 -1.0628
  887MOL0     H22399   3.937   1.210   6.705  3.3293  0.1094 -0.1074
  887MOL0     H22400   3.915   0.984   6.822  0.3513 -1.8711  0.8234
  887MOL0     H22401   3.864   0.922   6.664 -0.0606  1.7136 -1.1413
  887MOL0     H22402   3.511   1.054   6.861  1.2889 -1.3478  4.0244
  887MOL0     H22403   3.962   1.328   6.194 -1.0672 -0.8825 -3.6215
  887MOL0     H22404   4.070   1.517   5.946  0.3112 -3.3443  0.0576
  887MOL0     H22405   4.138   1.590   6.096  0.7563 -0.6117 -0.9940
  887MOL0     H22406   4.122   1.410   6.075 -2.1978 -1.8472  2.8294
  888MOL0     O22407   6.082   7.980   9.699 -0.1550 -0.3964  0.0717
  888MOL0     C22408   6.165   7.902   9.721 -0.5266 -0.0613  0.5663
  888MOL0     O22409   6.205   7.860   9.843  0.0244  0.5053 -0.0589
  888MOL0     C22410   6.130   7.857   9.954 -0.8646  0.2421  0.1110
  888MOL0     C22411   5.990   7.856   9.950  0.8376 -0.0405  0.0533
  888MOL0     C22412   5.918   7.833  10.073 -0.6523 -0.3618  1.0320
  888MOL0     C22413   5.985   7.809  10.190  0.8754  0.0752 -0.3191
  888MOL0     O22414   5.898   7.796  10.292  0.6818  0.3292 -0.0447
  888MOL0     C22415   5.919   7.694  10.392 -0.4775  0.1824  0.2487
  888MOL0     C22416   5.799   7.617  10.442  0.1361 -0.6266  0.1491
  888MOL0     C22417   5.725   7.709  10.541  0.4172 -0.5063 -0.3093
  888MOL0     C22418   5.587   7.653  10.599 -1.2497 -1.0052  0.9546
  888MOL0     C22419   5.601   7.518  10.668  0.0490  0.4973  0.6732
  888MOL0     C22420   5.464   7.475  10.715 -0.1413 -0.3990  0.2465
  888MOL0     C22421   5.485   7.356  10.795  0.5922 -0.0350 -0.6631
  888MOL0     C22422   5.349   7.275  10.815 -0.0694 -0.5130  0.4777
  888MOL0     N22423   5.273   7.332  10.927  0.2744 -0.4275  1.0656
  888MOL0     C22424   5.139   7.302  10.933 -0.1653  0.3436  0.2054
  888MOL0     C22425   5.107   7.319  11.063 -0.3853 -0.6242 -0.0167
  888MOL0     C22426   4.973   7.290  11.126 -0.4525  0.4207 -0.2582
  888MOL0     C22427   4.920   7.400  11.215 -0.0671  0.5187  0.5857
  888MOL0     C22428   4.997   7.430  11.349  0.5550  0.0537  0.8105
  888MOL0     C22429   4.998   7.579  11.384  0.6385 -0.7420 -0.0614
  888MOL0     O22430   4.868   7.630  11.417 -0.0778  0.6049 -0.9560
  888MOL0     C22431   4.806   7.598  11.538 -0.1385 -0.2328  0.4498
  888MOL0     C22432   4.865   7.514  11.635 -0.2321 -1.1022  0.0351
  888MOL0     C22433   4.807   7.485  11.762 -0.0530 -0.6198 -0.1901
  888MOL0     C22434   4.876   7.378  11.843 -0.1399 -0.6686 -0.0627
  888MOL0     C22435   4.677   7.540  11.799  0.3496  1.3649  0.3286
  888MOL0     C22436   4.585   7.485  11.892 -0.9147  0.1329  0.2085
  888MOL0     O22437   4.612   7.362  11.935 -0.1591 -0.6654 -0.5426
  888MOL0     C22438   4.515   7.286  12.013 -0.0515 -1.0925 -0.6587
  888MOL0     C22439   4.559   7.186  12.103 -1.0533 -0.8657  0.0170
  888MOL0     C22440   4.474   7.114  12.183  0.0606 -1.0577  1.1028
  888MOL0     C22441   4.340   7.146  12.180 -0.2429  0.8162 -0.5382
  888MOL0     O22442   4.265   7.058  12.255 -0.9063 -0.1221 -0.8428
  888MOL0     C22443   4.132   7.032  12.192 -0.2199 -0.8664 -0.0410
  888MOL0     C22444   4.064   6.901  12.245 -0.4541  0.2458 -0.9446
  888MOL0     C22445   4.042   6.906  12.395  0.6893  0.5987  0.5609
  888MOL0     C22446   4.156   6.850  12.482 -0.0073 -0.1661 -0.2451
  888MOL0     C22447   4.160   6.692  12.483  0.5448  0.3750  0.8488
  888MOL0     C22448   4.273   6.636  12.571 -0.4311 -0.1567  0.3515
  888MOL0     C22449   4.404   6.695  12.531  0.5225 -0.0451 -0.7136
  888MOL0     C22450   4.444   6.678  12.381  0.3046 -0.0962 -0.7204
  888MOL0    Cl22451   4.594   6.763  12.376 -0.8066  0.1463  0.0685
  888MOL0     C22452   4.288   7.243  12.093 -0.0439 -0.8830 -0.3281
  888MOL0     C22453   4.372   7.310  12.010 -0.0940  0.4997  0.0272
  888MOL0     O22454   4.494   7.561  11.932 -0.2724 -0.5575  0.7603
  888MOL0     C22455   4.617   7.622  11.693  0.6195  0.1225 -0.3821
  888MOL0     C22456   4.684   7.655  11.566  0.2213 -0.2294 -0.4215
  888MOL0     N22457   5.216   7.378  11.126 -0.4068  1.0011 -0.2124
  888MOL0     N22458   5.317   7.389  11.043  0.9044 -0.0752  0.5302
  888MOL0     C22459   6.129   7.807  10.195  0.7762 -0.2935 -0.6397
  888MOL0     C22460   6.201   7.835  10.071 -0.7739  0.8531  0.8376
  888MOL0     C22461   6.255   7.869   9.598  0.4685  0.2461 -0.4112
  888MOL0     C22462   6.368   7.800   9.641 -0.0058 -0.0481 -0.2949
  888MOL0     C22463   6.471   7.765   9.553  0.2624  0.2343  1.0097
  888MOL0     C22464   6.466   7.806   9.411  1.5038  0.6658 -1.4180
  888MOL0     O22465   6.570   7.782   9.321 -0.4581 -0.2205 -0.7141
  888MOL0     C22466   6.708   7.805   9.356 -0.4735 -1.6062  0.1467
  888MOL0     C22467   6.756   7.942   9.290 -0.0756 -0.0746 -0.1092
  888MOL0     C22468   6.784   7.914   9.137  0.1367 -0.0681 -0.7616
  888MOL0     C22469   6.780   8.047   9.056 -0.3226  0.1258  0.0796
  888MOL0     C22470   6.885   8.141   9.087 -0.0566 -1.6989  0.4560
  888MOL0     C22471   6.961   8.239   9.096 -0.5769  1.0518 -0.7846
  888MOL0     C22472   6.347   7.867   9.367  0.3242  0.4121 -0.7496
  888MOL0     C22473   6.244   7.895   9.461  0.1156 -0.2397  0.4361
  888MOL0     C22474   6.128   7.971   9.401  0.5395  0.5654  1.2765
  888MOL0     H22475   5.928   7.869   9.862 -1.1148 -1.5269  1.1293
  888MOL0     H22476   5.810   7.846  10.076 -0.8145 -1.4745  3.6777
  888MOL0     H22477   5.966   7.743  10.478 -0.1429  2.7267 -1.2624
  888MOL0     H22478   5.990   7.620  10.353 -0.5437 -0.5374  1.4466
  888MOL0     H22479   5.742   7.601  10.350 -0.8943 -1.0108  0.8408
  888MOL0     H22480   5.822   7.515  10.475  0.0463 -0.6924  0.0079
  888MOL0     H22481   5.793   7.728  10.625 -2.2220  4.2017  1.1559
  888MOL0     H22482   5.702   7.806  10.498 -0.1178  1.0452  3.1166
  888MOL0     H22483   5.549   7.724  10.672 -0.6171  1.5603 -1.0615
  888MOL0     H22484   5.518   7.645  10.515 -0.3538 -0.7633  0.1712
  888MOL0     H22485   5.679   7.513  10.745  1.6768  2.7836 -0.6978
  888MOL0     H22486   5.643   7.455  10.589 -0.5719  3.4730 -2.2439
  888MOL0     H22487   5.432   7.563  10.772 -0.9976  1.0210 -2.2792
  888MOL0     H22488   5.390   7.464  10.635 -1.5878 -1.5056  1.6782
  888MOL0     H22489   5.527   7.382  10.892  0.9416  1.6202 -1.2256
  888MOL0     H22490   5.552   7.285  10.745  1.1342  0.0364 -0.0511
  888MOL0     H22491   5.293   7.265  10.722 -2.3757  4.0772  1.0604
  888MOL0     H22492   5.367   7.174  10.853 -0.7874 -1.1307 -0.7955
  888MOL0     H22493   5.067   7.271  10.858 -2.9729  1.1002  2.4066
  888MOL0     H22494   4.968   7.197  11.183 -1.9853 -0.9008 -2.3766
  888MOL0     H22495   4.906   7.282  11.040  1.4189 -1.9157 -1.6029
  888MOL0     H22496   4.923   7.493  11.156 -2.3293  2.2737  2.9835
  888MOL0     H22497   4.816   7.379  11.240 -0.9783  0.0122 -3.0664
  888MOL0     H22498   4.948   7.369  11.426  0.1585  1.0036  1.3402
  888MOL0     H22499   5.099   7.394  11.333  0.3838  1.0297 -3.9592
  888MOL0     H22500   5.076   7.600  11.458  0.8103  1.1307 -0.7240
  888MOL0     H22501   5.021   7.660  11.314  0.1338 -0.2020  0.3823
  888MOL0     H22502   4.958   7.461  11.616  0.7053 -0.3083  2.0042
  888MOL0     H22503   4.828   7.283  11.819  0.6409 -1.4507  1.3536
  888MOL0     H22504   4.858   7.395  11.949 -2.0153  1.1972 -0.6002
  888MOL0     H22505   4.983   7.373  11.822  0.0978  0.4010  0.7825
  888MOL0     H22506   4.667   7.179  12.109 -1.0549 -0.2020  1.2873
  888MOL0     H22507   4.521   7.032  12.235 -0.8081 -3.2235 -1.3112
  888MOL0     H22508   4.063   7.115  12.208 -2.4771 -2.7532  0.5618
  888MOL0     H22509   4.146   7.021  12.084  4.1131  0.6040  0.1822
  888MOL0     H22510   3.976   6.883  12.182 -0.0772 -1.6987 -0.9586
  888MOL0     H22511   4.138   6.824  12.224 -1.5383 -1.4453  1.0270
  888MOL0     H22512   3.941   6.876  12.423 -0.4686  1.9566 -1.8752
  888MOL0     H22513   4.050   7.008  12.435  3.8883 -0.2282  2.4049
  888MOL0     H22514   4.137   6.869  12.587  2.2647  0.0329  0.1850
  888MOL0     H22515   4.245   6.911  12.467 -1.1091  1.3605 -0.8183
  888MOL0     H22516   4.065   6.648  12.514  0.7921  1.2614  3.0684
  888MOL0     H22517   4.179   6.661  12.380  0.3594  1.8641  0.3563
  888MOL0     H22518   4.278   6.530  12.545  0.3166 -0.4940  1.7579
  888MOL0     H22519   4.260   6.648  12.679  1.2495  0.2756  0.5315
  888MOL0     H22520   4.480   6.640  12.588  1.3183  1.9437  0.2425
  888MOL0     H22521   4.416   6.801  12.555 -2.3144  1.2515 -4.1841
  888MOL0     H22522   4.379   6.733  12.312 -0.8040  0.3977  0.6650
  888MOL0     H22523   4.442   6.572  12.356 -0.8894 -0.0316 -0.9874
  888MOL0     H22524   4.185   7.276  12.104  1.4173  3.4428  2.3774
  888MOL0     H22525   4.331   7.380  11.938 -0.5311 -0.6500 -0.8805
  888MOL0     H22526   4.519   7.667  11.705  1.6536  3.6689 -3.3981
  888MOL0     H22527   4.627   7.723  11.503 -0.8522 -2.7461 -2.3640
  888MOL0     H22528   6.184   7.782  10.285  3.1134  0.4705 -1.7832
  888MOL0     H22529   6.309   7.825  10.069 -0.5256  0.8915  4.9530
  888MOL0     H22530   6.368   7.760   9.742  1.1791  2.5989  0.8660
  888MOL0     H22531   6.551   7.697   9.583 -1.3940 -2.7511 -0.8192
  888MOL0     H22532   6.724   7.819   9.464 -0.6963  1.6742 -0.1434
  888MOL0     H22533   6.767   7.723   9.314 -1.7282 -1.7828 -1.3660
  888MOL0     H22534   6.857   7.953   9.330 -0.6698 -3.3055  2.6435
  888MOL0     H22535   6.688   8.027   9.304 -0.2210  0.1787 -2.0137
  888MOL0     H22536   6.884   7.871   9.131 -0.4662 -1.7050  0.1757
  888MOL0     H22537   6.716   7.841   9.092  0.6639  0.0563 -1.7866
  888MOL0     H22538   6.684   8.094   9.081 -0.1099  1.0228 -0.7007
  888MOL0     H22539   6.770   8.020   8.951 -0.5383  3.9356 -1.0213
  888MOL0     H22540   7.031   8.319   9.114  1.6830 -1.5645  4.1862
  888MOL0     H22541   6.338   7.883   9.260 -0.7424  0.5655 -0.6498
  888MOL0     H22542   6.154   7.989   9.297  2.4035 -0.0827  1.6032
  888MOL0     H22543   6.039   7.908   9.406  1.3540 -0.5830  1.5845
  888MOL0     H22544   6.114   8.066   9.455 -2.4463  2.2403 -2.0286
  889MOL0     O22545   3.425  10.395   4.435  0.4297 -0.4119  0.7217
  889MOL0     C22546   3.505  10.316   4.460 -0.2774  0.8500  0.0758
  889MOL0     O22547   3.599  10.276   4.370  0.6244 -0.0220 -0.2658
  889MOL0     C22548   3.625  10.345   4.254 -1.1009  0.4393  0.1252
  889MOL0     C22549   3.522  10.373   4.161  0.5896 -0.3542 -0.5153
  889MOL0     C22550   3.548  10.438   4.039 -1.1353  0.5902 -0.1382
  889MOL0     C22551   3.680  10.478   4.007 -0.2658  0.3804 -0.0028
  889MOL0     O22552   3.697  10.553   3.891 -0.3102  0.3331 -0.3774
  889MOL0     C22553   3.819  10.629   3.885 -0.2494 -0.4029 -0.0897
  889MOL0     C22554   3.804  10.720   3.759  0.0916 -0.8187  0.0958
  889MOL0     C22555   3.681  10.801   3.763  0.8887  0.1824 -0.2833
  889MOL0     C22556   3.683  10.888   3.642 -0.9029 -0.5657  0.1944
  889MOL0     C22557   3.622  10.813   3.519  0.3263 -0.5135  0.4793
  889MOL0     C22558   3.464  10.797   3.518 -0.1852  0.6700 -0.4700
  889MOL0     C22559   3.410  10.702   3.418  0.0747  0.1342  0.0525
  889MOL0     C22560   3.259  10.745   3.390 -0.0395 -0.0329 -0.1033
  889MOL0     N22561   3.207  10.706   3.258 -0.6441 -0.1394  0.5152
  889MOL0     C22562   3.176  10.784   3.147 -0.1367 -0.0106 -0.3689
  889MOL0     C22563   3.129  10.706   3.055  0.8492 -0.1835 -0.2034
  889MOL0     C22564   3.068  10.752   2.934  0.3313  1.0935  0.5529
  889MOL0     C22565   3.053  10.632   2.829 -0.6005  0.4040 -0.0278
  889MOL0     C22566   3.069  10.703   2.685  0.5978  0.2172  0.0802
  889MOL0     C22567   2.942  10.791   2.667 -0.2143  0.4044 -0.4686
  889MOL0     O22568   2.816  10.715   2.653 -0.2755 -0.0196 -0.2334
  889MOL0     C22569   2.772  10.684   2.526  0.9811 -0.1733  0.6269
  889MOL0     C22570   2.669  10.746   2.474  0.8738  0.2157  0.6430
  889MOL0     C22571   2.620  10.718   2.343  0.2121  0.0039 -0.8614
  889MOL0     C22572   2.500  10.801   2.290  0.2883  0.3308  0.3384
  889MOL0     C22573   2.679  10.607   2.278 -0.3418  0.3953 -0.1225
  889MOL0     C22574   2.642  10.565   2.137  0.4254  0.4418 -0.5862
  889MOL0     O22575   2.631  10.427   2.107  0.9974 -0.9885  0.6950
  889MOL0     C22576   2.601  10.391   1.979  0.0701  0.3826  0.4950
  889MOL0     C22577   2.469  10.391   1.934 -0.0830 -0.6144  1.1572
  889MOL0     C22578   2.436  10.362   1.803  0.9802 -0.1962  0.4512
  889MOL0     C22579   2.534  10.322   1.710 -0.1327  1.2412 -0.6689
  889MOL0     O22580   2.499  10.295   1.582  0.1720 -0.0071  1.1240
  889MOL0     C22581   2.592  10.253   1.478  0.3401  0.0711 -0.9827
  889MOL0     C22582   2.622  10.096   1.505  1.2862  1.0825  0.8657
  889MOL0     C22583   2.492  10.000   1.478 -0.6743 -0.2449  0.1803
  889MOL0     C22584   2.537   9.852   1.506  0.1859  0.1598  0.7302
  889MOL0     C22585   2.407   9.775   1.542  0.0465  0.4314  0.0901
  889MOL0     C22586   2.405   9.626   1.513  0.2473  0.3676 -0.3630
  889MOL0     C22587   2.522   9.551   1.569 -1.0902 -0.1075  0.6341
  889MOL0     C22588   2.562   9.443   1.471 -0.6474  0.2149  0.2644
  889MOL0    Cl22589   2.427   9.325   1.460 -0.0875  0.0008 -0.1483
  889MOL0     C22590   2.668  10.316   1.748  0.2049  0.2457  0.7832
  889MOL0     C22591   2.703  10.353   1.880 -0.4876  0.5490  0.6560
  889MOL0     O22592   2.612  10.654   2.061 -0.2387 -0.8135  0.1542
  889MOL0     C22593   2.793  10.545   2.336 -0.2667  0.3442 -0.1035
  889MOL0     C22594   2.830  10.575   2.462 -0.5048 -0.8500 -0.3644
  889MOL0     N22595   3.134  10.572   3.103 -0.5422 -0.5107  0.5789
  889MOL0     N22596   3.174  10.579   3.229  0.4264  0.4029  0.5565
  889MOL0     C22597   3.780  10.422   4.089 -0.9607  0.1826 -0.4916
  889MOL0     C22598   3.762  10.359   4.212  0.7103 -0.0245 -0.6282
  889MOL0     C22599   3.503  10.241   4.591 -0.1789 -0.5044  0.1556
  889MOL0     C22600   3.625  10.190   4.637 -0.1118  0.8202  0.5218
  889MOL0     C22601   3.645  10.143   4.763 -0.5610  0.7475  0.3638
  889MOL0     C22602   3.533  10.135   4.849 -0.3235  0.0130 -0.6663
  889MOL0     O22603   3.548  10.083   4.980  0.5839  0.1434 -0.3767
  889MOL0     C22604   3.668  10.012   5.016 -0.2203  1.0729  0.7238
  889MOL0     C22605   3.635   9.939   5.144 -0.0447  0.5281  1.5561
  889MOL0     C22606   3.623  10.028   5.266 -0.2900  0.1601  0.1723
  889MOL0     C22607   3.740  10.032   5.365 -1.3898 -0.4410 -0.0025
  889MOL0     C22608   3.853  10.112   5.308  0.5855 -0.4594  0.3192
  889MOL0     C22609   3.951  10.174   5.265 -0.0866  0.0221  0.4634
  889MOL0     C22610   3.410  10.188   4.804 -0.1585  0.2364 -0.0146
  889MOL0     C22611   3.395  10.249   4.681 -1.2306 -1.3381  0.1557
  889MOL0     C22612   3.265  10.327   4.670  0.2329  0.1732 -0.4599
  889MOL0     H22613   3.418  10.364   4.190  0.6267  3.9188  1.9106
  889MOL0     H22614   3.464  10.463   3.975 -1.3495 -2.9720 -1.4953
  889MOL0     H22615   3.907  10.565   3.875 -0.8313 -1.1506 -0.6271
  889MOL0     H22616   3.822  10.703   3.966  0.2374  2.7312 -2.7712
  889MOL0     H22617   3.894  10.782   3.757 -0.3784  0.0695  2.4158
  889MOL0     H22618   3.815  10.652   3.675  2.6607  1.5150 -1.6118
  889MOL0     H22619   3.588  10.744   3.770 -0.5620  2.5509  0.8857
  889MOL0     H22620   3.679  10.872   3.846 -3.6796 -0.2022  0.2191
  889MOL0     H22621   3.625  10.979   3.659 -1.0236 -1.1591  3.7029
  889MOL0     H22622   3.787  10.911   3.616 -0.1137 -3.0286  0.8439
  889MOL0     H22623   3.661  10.711   3.510 -3.5981 -1.9780 -2.2209
  889MOL0     H22624   3.645  10.867   3.427 -1.7122 -2.3816 -1.2160
  889MOL0     H22625   3.430  10.757   3.614 -0.6796 -0.7782 -1.2152
  889MOL0     H22626   3.425  10.898   3.504 -2.1615 -0.1464 -1.2109
  889MOL0     H22627   3.421  10.594   3.430  1.1398  0.2826  0.5274
  889MOL0     H22628   3.472  10.712   3.329 -1.2354  1.0086 -0.7960
  889MOL0     H22629   3.196  10.693   3.463 -1.2600  0.7512 -0.5717
  889MOL0     H22630   3.251  10.853   3.408 -4.4405 -0.5109  2.0264
  889MOL0     H22631   3.173  10.892   3.140 -1.5627  0.1025  1.3767
  889MOL0     H22632   3.121  10.837   2.890  0.5299  0.9855  0.5838
  889MOL0     H22633   2.966  10.791   2.945  0.5255  1.6910  0.2871
  889MOL0     H22634   3.138  10.565   2.848 -0.4051  0.3565 -0.9982
  889MOL0     H22635   2.966  10.567   2.839  0.0615 -0.4628  0.2734
  889MOL0     H22636   3.163  10.757   2.692  4.4067 -5.6066  1.0462
  889MOL0     H22637   3.094  10.636   2.602 -0.9270  2.3033 -2.2157
  889MOL0     H22638   2.933  10.849   2.760 -1.7725 -2.4077  1.2973
  889MOL0     H22639   2.944  10.848   2.574 -0.7005 -2.6176 -2.5063
  889MOL0     H22640   2.618  10.819   2.537 -0.8240  1.9588 -2.4813
  889MOL0     H22641   2.554  10.873   2.227 -0.5064 -0.0835 -0.8552
  889MOL0     H22642   2.441  10.862   2.359  0.5225  2.4801 -1.2346
  889MOL0     H22643   2.434  10.754   2.217  1.5279  4.9754 -4.4189
  889MOL0     H22644   2.398  10.413   2.013  1.8826  2.5057  2.2224
  889MOL0     H22645   2.331  10.360   1.773  0.8772 -0.0344  0.8042
  889MOL0     H22646   2.541  10.265   1.382  1.6439  0.5150 -1.6552
  889MOL0     H22647   2.685  10.311   1.474  1.9729 -2.2063  0.8113
  889MOL0     H22648   2.687  10.080   1.418  0.8123  6.5320 -0.8947
  889MOL0     H22649   2.667  10.071   1.601  3.1221  2.3322  0.3858
  889MOL0     H22650   2.449  10.016   1.379 -0.2330  1.8737  0.2749
  889MOL0     H22651   2.411  10.029   1.546 -1.4944 -1.0595 -0.4155
  889MOL0     H22652   2.622   9.843   1.574 -0.9765 -0.1695  2.1832
  889MOL0     H22653   2.575   9.803   1.416 -0.7805  1.2487 -0.2973
  889MOL0     H22654   2.409   9.796   1.649  0.5483  1.2003 -0.0676
  889MOL0     H22655   2.316   9.814   1.495 -0.4321 -0.2634  0.4121
  889MOL0     H22656   2.406   9.614   1.404 -0.2372 -1.3128 -0.2121
  889MOL0     H22657   2.313   9.583   1.554 -0.3533  1.2922 -0.7096
  889MOL0     H22658   2.505   9.517   1.671 -0.9923 -0.3301  0.5769
  889MOL0     H22659   2.615   9.609   1.569 -2.0295  1.5166 -1.3756
  889MOL0     H22660   2.645   9.378   1.502 -2.8785 -2.9413 -0.0005
  889MOL0     H22661   2.593   9.478   1.372 -0.1645 -3.0683 -0.8692
  889MOL0     H22662   2.737  10.274   1.675 -1.3448 -1.1533  0.0663
  889MOL0     H22663   2.810  10.366   1.894 -0.7131  2.4400  0.8569
  889MOL0     H22664   2.845  10.465   2.284 -3.4297 -1.2869 -1.0064
  889MOL0     H22665   2.917  10.530   2.509  0.5237  0.5938 -0.8132
  889MOL0     H22666   3.884  10.424   4.060 -0.3038  0.9860  1.7215
  889MOL0     H22667   3.847  10.322   4.269 -0.0090 -1.1294 -0.2379
  889MOL0     H22668   3.715  10.197   4.578  0.8348  1.4122  1.9821
  889MOL0     H22669   3.742  10.112   4.799 -2.1864 -1.1841  3.4987
  889MOL0     H22670   3.688   9.939   4.937 -0.8895  0.8238  0.7810
  889MOL0     H22671   3.761  10.068   5.034  1.0739 -0.4273 -0.9532
  889MOL0     H22672   3.715   9.865   5.156  1.7523  1.5883 -2.1322
  889MOL0     H22673   3.547   9.878   5.118  0.1393  0.4117  1.1913
  889MOL0     H22674   3.572  10.120   5.239 -1.0112 -0.6962 -1.4961
  889MOL0     H22675   3.542   9.984   5.326 -0.7463  0.4194 -0.2439
  889MOL0     H22676   3.773   9.930   5.385  0.0431  0.1166  0.6291
  889MOL0     H22677   3.712  10.075   5.462  1.5019 -2.3168  1.8466
  889MOL0     H22678   4.026  10.231   5.216 -0.8930 -0.1564 -1.0632
  889MOL0     H22679   3.331  10.186   4.879 -0.4184 -0.1610 -0.2933
  889MOL0     H22680   3.208  10.334   4.764 -1.9962  0.3236 -1.7434
  889MOL0     H22681   3.281  10.430   4.635  2.0647  0.3023  0.6285
  889MOL0     H22682   3.200  10.268   4.605 -1.7593 -0.3572  1.8806
  890MOL0     O22683   7.001   7.014   6.135 -0.3452 -0.1445 -0.2061
  890MOL0     C22684   6.921   6.923   6.171  0.1012 -0.4451  0.7401
  890MOL0     O22685   6.864   6.830   6.094 -0.4470  0.1600  0.0450
  890MOL0     C22686   6.865   6.839   5.964  1.2479  0.4383 -0.8522
  890MOL0     C22687   6.909   6.943   5.879 -0.9401  0.1879 -0.4146
  890MOL0     C22688   6.893   6.926   5.745  0.5346 -1.0820  0.6390
  890MOL0     C22689   6.829   6.820   5.682  0.1322  0.1586  0.5410
  890MOL0     O22690   6.809   6.834   5.542 -0.2953 -0.0467  0.4398
  890MOL0     C22691   6.752   6.722   5.484  0.0383 -0.5539  0.0210
  890MOL0     C22692   6.748   6.756   5.328 -0.4483  0.5320  1.0732
  890MOL0     C22693   6.883   6.731   5.264  1.6538 -0.5483 -0.9019
  890MOL0     C22694   6.885   6.773   5.118  0.3247 -0.1330  0.3968
  890MOL0     C22695   7.014   6.787   5.043 -0.4016  0.0654 -0.1911
  890MOL0     C22696   7.096   6.646   5.048 -0.8119 -0.0000  0.8589
  890MOL0     C22697   7.195   6.638   4.932 -0.4504 -0.7969 -0.5898
  890MOL0     C22698   7.134   6.590   4.802  0.4106  0.1508  0.0734
  890MOL0     N22699   7.123   6.449   4.806 -0.1463 -0.1074 -0.8788
  890MOL0     C22700   7.227   6.365   4.826 -0.0646 -0.1567  0.4836
  890MOL0     C22701   7.177   6.253   4.872 -0.3457 -0.1488  0.7894
  890MOL0     C22702   7.251   6.125   4.912  0.0009  0.0701  0.1233
  890MOL0     C22703   7.201   6.002   4.824  0.9544 -0.4604  0.2085
  890MOL0     C22704   7.074   5.938   4.879  1.0920 -0.3829 -0.9355
  890MOL0     C22705   7.040   5.809   4.802 -0.6363 -1.0323 -0.5832
  890MOL0     O22706   6.976   5.715   4.884 -0.9701  0.6456  0.0154
  890MOL0     C22707   6.836   5.719   4.902 -0.1645  0.0732  0.2731
  890MOL0     C22708   6.791   5.598   4.968  0.9054  0.0354  1.4428
  890MOL0     C22709   6.655   5.579   4.985  1.2970 -0.3917 -0.4472
  890MOL0     C22710   6.601   5.449   5.043  0.6477  0.3616  0.3945
  890MOL0     C22711   6.560   5.682   4.944 -0.0306  0.2422  0.3038
  890MOL0     C22712   6.413   5.662   4.952 -0.3400  1.0766  0.0469
  890MOL0     O22713   6.356   5.547   5.023 -0.3137 -0.2090 -0.4516
  890MOL0     C22714   6.228   5.551   5.049 -0.7190 -0.8885  0.4674
  890MOL0     C22715   6.139   5.545   4.944  0.9869  0.6379  0.1571
  890MOL0     C22716   5.997   5.558   4.966 -0.1689 -0.4752  0.3304
  890MOL0     C22717   5.945   5.587   5.087  0.8568 -0.2741 -0.4136
  890MOL0     O22718   5.810   5.608   5.123  0.4746 -0.0817  0.0669
  890MOL0     C22719   5.714   5.563   5.024 -0.1893  0.6120  0.4261
  890MOL0     C22720   5.571   5.531   5.071 -0.4595 -0.1439 -0.1773
  890MOL0     C22721   5.470   5.501   4.963 -0.2837 -0.4616 -0.5498
  890MOL0     C22722   5.348   5.591   4.978 -0.4449  0.1498 -0.7503
  890MOL0     C22723   5.251   5.563   4.864 -0.0617 -0.2216  0.5237
  890MOL0     C22724   5.217   5.695   4.801  1.0595  0.2585  0.0733
  890MOL0     C22725   5.118   5.698   4.682  0.1957  0.3640  0.6210
  890MOL0     C22726   5.202   5.718   4.545 -0.0438  0.9241 -0.1144
  890MOL0    Cl22727   5.334   5.608   4.515 -0.0486 -0.0856 -0.5013
  890MOL0     C22728   6.028   5.601   5.198  0.1963 -0.2142 -0.1376
  890MOL0     C22729   6.172   5.577   5.180  0.4011  1.1718 -0.0058
  890MOL0     O22730   6.342   5.750   4.905  0.4158 -0.8620  0.0640
  890MOL0     C22731   6.604   5.796   4.882 -0.3864 -0.2100  0.8836
  890MOL0     C22732   6.745   5.819   4.856  0.6124 -0.5586 -0.7575
  890MOL0     N22733   7.036   6.263   4.868  0.8600  0.0480 -0.9033
  890MOL0     N22734   7.008   6.381   4.834 -0.1561  0.0501  0.5396
  890MOL0     C22735   6.785   6.718   5.762 -0.3625  0.3124  0.0985
  890MOL0     C22736   6.799   6.728   5.904 -0.2458 -0.5319  0.6686
  890MOL0     C22737   6.872   6.927   6.317  0.2126 -0.4739  0.6741
  890MOL0     C22738   6.884   7.050   6.388 -0.0756 -0.3472 -0.0930
  890MOL0     C22739   6.857   7.058   6.521 -0.1436 -0.2507 -0.5837
  890MOL0     C22740   6.824   6.944   6.595 -0.7721 -0.2188 -0.2226
  890MOL0     O22741   6.816   6.952   6.736  0.3029  0.8069  0.5349
  890MOL0     C22742   6.806   6.833   6.824  0.2950  0.5037  0.2718
  890MOL0     C22743   6.882   6.859   6.951 -0.5247 -1.3156 -0.3591
  890MOL0     C22744   7.033   6.834   6.938 -0.5400  0.0984 -0.9385
  890MOL0     C22745   7.123   6.871   7.052 -0.2722  0.9861 -0.6330
  890MOL0     C22746   7.090   6.766   7.155 -0.6852 -1.3730 -0.8735
  890MOL0     C22747   7.089   6.684   7.239 -0.1146  0.7439  0.7152
  890MOL0     C22748   6.824   6.818   6.533  0.0887 -0.2815 -0.7245
  890MOL0     C22749   6.844   6.808   6.387  0.0940  0.8262 -0.8155
  890MOL0     C22750   6.861   6.676   6.327  0.6395 -0.6053  0.3610
  890MOL0     H22751   6.965   7.029   5.913 -2.9764  1.0926  0.8697
  890MOL0     H22752   6.922   6.995   5.666  0.5231 -1.7034  0.0804
  890MOL0     H22753   6.648   6.712   5.517  0.5691  1.4590  2.6244
  890MOL0     H22754   6.812   6.634   5.510 -1.3901 -0.9212  2.3900
  890MOL0     H22755   6.684   6.682   5.278 -0.8679  1.5041  0.1286
  890MOL0     H22756   6.698   6.851   5.309 -0.3665  0.9492  2.7961
  890MOL0     H22757   6.956   6.781   5.329 -0.6433  0.8854  0.7485
  890MOL0     H22758   6.911   6.625   5.261  3.1133 -0.1970 -0.2877
  890MOL0     H22759   6.828   6.699   5.062 -3.5591  2.1244  0.9535
  890MOL0     H22760   6.835   6.870   5.120  0.9739  0.2167  0.1011
  890MOL0     H22761   7.064   6.878   5.079  0.7106 -0.0050 -1.4616
  890MOL0     H22762   6.985   6.811   4.940 -0.8147  4.6229  0.7579
  890MOL0     H22763   7.152   6.629   5.141  1.1378  1.9936  0.1354
  890MOL0     H22764   7.015   6.573   5.039 -2.3136  1.8704 -2.6237
  890MOL0     H22765   7.275   6.569   4.959 -2.1121 -2.7177 -0.3721
  890MOL0     H22766   7.230   6.740   4.914  1.6349 -1.1672  0.9731
  890MOL0     H22767   7.033   6.631   4.797 -0.6958 -2.3620  0.0149
  890MOL0     H22768   7.193   6.625   4.718  1.7966 -1.1269  0.4651
  890MOL0     H22769   7.333   6.390   4.834 -0.5549  2.2974 -0.0219
  890MOL0     H22770   7.250   6.104   5.020  0.1009  0.4940  0.2071
  890MOL0     H22771   7.357   6.150   4.901  0.7444 -0.6885  4.0709
  890MOL0     H22772   7.192   6.030   4.718  1.5141 -2.1024 -0.3086
  890MOL0     H22773   7.289   5.938   4.817  0.3450 -1.2187 -0.7448
  890MOL0     H22774   7.102   5.908   4.981  1.4481 -1.9892 -1.4732
  890MOL0     H22775   6.982   5.996   4.871 -0.9224 -3.5003 -2.3116
  890MOL0     H22776   6.984   5.820   4.709 -1.8549  2.7594  0.4103
  890MOL0     H22777   7.140   5.768   4.789  0.6807  0.8059  2.4492
  890MOL0     H22778   6.865   5.523   4.994  2.2139 -1.3732 -4.7609
  890MOL0     H22779   6.694   5.395   5.065  0.4771 -0.5166 -0.9203
  890MOL0     H22780   6.530   5.400   4.975 -0.6329  0.3951  1.6522
  890MOL0     H22781   6.548   5.468   5.137  4.1228  0.5905  2.4610
  890MOL0     H22782   6.173   5.516   4.845 -1.7178 -0.7741 -0.4339
  890MOL0     H22783   5.918   5.538   4.894 -3.8473  2.6564  3.0719
  890MOL0     H22784   5.697   5.654   4.965 -3.9158 -1.4227 -2.0788
  890MOL0     H22785   5.749   5.479   4.964 -0.4398 -0.5332  1.8483
  890MOL0     H22786   5.570   5.442   5.136 -2.8053  0.7274  1.1163
  890MOL0     H22787   5.516   5.611   5.122 -3.3545 -1.2949 -1.2817
  890MOL0     H22788   5.441   5.396   4.976  2.9716 -1.2443  1.7379
  890MOL0     H22789   5.511   5.513   4.862 -1.1458 -0.3857 -0.9001
  890MOL0     H22790   5.395   5.689   4.967  1.8003 -0.8021 -0.2044
  890MOL0     H22791   5.297   5.587   5.074  2.4028  2.0733  1.0189
  890MOL0     H22792   5.291   5.487   4.796 -1.1305  1.3469 -1.9976
  890MOL0     H22793   5.152   5.534   4.901 -0.5226  1.2897  0.5119
  890MOL0     H22794   5.313   5.729   4.763  0.7493 -1.1633 -2.1720
  890MOL0     H22795   5.176   5.759   4.880 -0.7908  1.4231 -1.7423
  890MOL0     H22796   5.046   5.780   4.692 -0.4413  0.1857 -1.8769
  890MOL0     H22797   5.058   5.606   4.681  1.8896 -0.7857  0.8575
  890MOL0     H22798   5.250   5.816   4.554  0.8884  0.4023  0.7780
  890MOL0     H22799   5.127   5.717   4.466  0.8347 -0.2225 -0.9506
  890MOL0     H22800   5.994   5.631   5.296 -0.3508  1.3102 -0.7544
  890MOL0     H22801   6.245   5.579   5.260  0.5944 -1.3926 -0.0409
  890MOL0     H22802   6.536   5.855   4.820  0.1247  0.3611  0.8499
  890MOL0     H22803   6.776   5.908   4.801 -0.1828 -0.8103 -1.6326
  890MOL0     H22804   6.723   6.638   5.722 -1.6979  1.1347  0.4340
  890MOL0     H22805   6.752   6.657   5.971  1.3297 -0.9732  1.3573
  890MOL0     H22806   6.899   7.138   6.327  3.1339 -0.0335  0.9448
  890MOL0     H22807   6.875   7.149   6.578  2.5115 -0.8820 -0.2437
  890MOL0     H22808   6.701   6.813   6.848 -0.6468  2.7675 -1.5656
  890MOL0     H22809   6.846   6.735   6.799 -1.0916 -0.8433  2.8955
  890MOL0     H22810   6.840   6.799   7.033  0.2887 -3.4939 -1.4429
  890MOL0     H22811   6.863   6.965   6.969  0.4503 -1.2239  0.1928
  890MOL0     H22812   7.054   6.731   6.908 -1.2635 -0.0257 -1.0442
  890MOL0     H22813   7.073   6.897   6.858 -1.2584  2.8706  0.7295
  890MOL0     H22814   7.102   6.972   7.089 -3.7715  1.2890 -2.9390
  890MOL0     H22815   7.227   6.861   7.021  0.1695  1.8127  0.5186
  890MOL0     H22816   7.097   6.628   7.330 -1.3688 -2.3125 -0.9213
  890MOL0     H22817   6.813   6.719   6.575 -0.2677  0.1128  0.1530
  890MOL0     H22818   6.845   6.595   6.398 -0.3028 -1.3566 -0.6782
  890MOL0     H22819   6.783   6.647   6.256 -1.5817  0.5842  2.1783
  890MOL0     H22820   6.962   6.665   6.287  0.7717  2.0906 -0.2493
  891MOL0     O22821  10.254   4.693  11.225 -0.6062  0.4961 -0.3545
  891MOL0     C22822  10.332   4.658  11.134  0.9400 -0.1484  0.0687
  891MOL0     O22823  10.406   4.550  11.121 -0.5161 -0.3674  0.0341
  891MOL0     C22824  10.386   4.444  11.200 -0.1142 -0.6299  0.1743
  891MOL0     C22825  10.385   4.457  11.333  0.8671  0.3070  0.4604
  891MOL0     C22826  10.368   4.345  11.425 -0.9131  0.7255  1.4595
  891MOL0     C22827  10.349   4.221  11.370  0.0298  0.9387  0.6947
  891MOL0     O22828  10.317   4.123  11.462 -0.0778  0.8767 -0.5653
  891MOL0     C22829  10.248   4.014  11.413 -0.2392 -0.3867  0.3801
  891MOL0     C22830  10.208   3.930  11.544  0.1465  0.6433  0.0054
  891MOL0     C22831  10.130   4.009  11.651 -0.0618 -0.3821 -0.3918
  891MOL0     C22832   9.990   4.065  11.612  0.0483  0.6785 -0.5068
  891MOL0     C22833   9.896   3.948  11.597 -0.2655 -0.4765  0.9200
  891MOL0     C22834   9.755   3.998  11.574  0.4149  0.6785  0.0052
  891MOL0     C22835   9.656   3.888  11.526 -0.8022  0.9208  0.4490
  891MOL0     C22836   9.506   3.922  11.555  0.0958  0.1275  0.4227
  891MOL0     N22837   9.464   3.920  11.696  1.0033  0.4383 -0.5749
  891MOL0     C22838   9.422   3.805  11.763 -0.2631 -1.0900  0.2749
  891MOL0     C22839   9.366   3.856  11.879 -1.0361  0.2386 -0.2503
  891MOL0     C22840   9.294   3.762  11.969  0.4682 -0.7625  0.4438
  891MOL0     C22841   9.140   3.787  11.967 -0.4642 -0.3348 -0.6241
  891MOL0     C22842   9.076   3.709  11.848 -0.5436 -0.8377  0.1456
  891MOL0     C22843   8.923   3.716  11.856 -0.8793  0.0331 -0.5659
  891MOL0     O22844   8.843   3.599  11.802 -0.1066 -0.2360 -0.5018
  891MOL0     C22845   8.880   3.579  11.679  0.1152  0.7867  0.8194
  891MOL0     C22846   8.826   3.634  11.561  0.3306  0.4669  0.1141
  891MOL0     C22847   8.867   3.606  11.425  0.2597  0.7691 -0.3106
  891MOL0     C22848   8.787   3.666  11.316  0.5330  0.8990  0.4461
  891MOL0     C22849   8.975   3.516  11.405  0.3597  0.8594 -0.2714
  891MOL0     C22850   9.037   3.479  11.274  0.1850  1.1752  0.0850
  891MOL0     O22851   9.082   3.346  11.260  0.0084 -0.4805 -0.3225
  891MOL0     C22852   9.142   3.291  11.154  0.8776 -1.1125 -0.5721
  891MOL0     C22853   9.193   3.166  11.174 -0.6498 -0.1929  0.8931
  891MOL0     C22854   9.257   3.098  11.069  0.4771 -0.2720  0.0286
  891MOL0     C22855   9.279   3.151  10.939 -0.1573  0.2060  0.3836
  891MOL0     O22856   9.339   3.086  10.832 -0.3455 -0.2751  0.6002
  891MOL0     C22857   9.418   2.964  10.848 -0.7947  0.2736  0.0194
  891MOL0     C22858   9.451   2.923  10.705 -1.0368 -0.2789 -0.0013
  891MOL0     C22859   9.467   2.777  10.695 -0.1737 -0.2299 -0.3398
  891MOL0     C22860   9.509   2.731  10.553  0.2332 -0.1755 -0.5074
  891MOL0     C22861   9.655   2.693  10.536 -0.1536 -1.2729 -1.0384
  891MOL0     C22862   9.656   2.581  10.431  0.4278 -0.7505  0.0506
  891MOL0     C22863   9.793   2.528  10.381  1.1097 -0.5842 -0.1013
  891MOL0     C22864   9.773   2.441  10.252  1.1586 -0.6451  0.3542
  891MOL0    Cl22865   9.648   2.310  10.289 -0.1980  0.0028  0.2097
  891MOL0     C22866   9.215   3.272  10.910  0.3737 -1.0891 -0.2956
  891MOL0     C22867   9.161   3.347  11.025 -0.3145  0.3459  1.6116
  891MOL0     O22868   9.040   3.568  11.197  0.1721  0.0411  0.1388
  891MOL0     C22869   9.023   3.447  11.522 -0.6577  0.5895 -0.3588
  891MOL0     C22870   8.986   3.483  11.652  0.2198 -0.5034  0.5434
  891MOL0     N22871   9.369   3.999  11.872 -0.3649 -0.4028 -0.5155
  891MOL0     N22872   9.437   4.035  11.764 -0.0564  0.8491 -1.1266
  891MOL0     C22873  10.361   4.206  11.229 -0.1254 -0.4043  0.1906
  891MOL0     C22874  10.376   4.319  11.143  0.2007  0.4523 -0.0278
  891MOL0     C22875  10.353   4.758  11.022 -0.2557  1.0576 -0.2972
  891MOL0     C22876  10.473   4.741  10.956 -0.5084 -0.1579  0.5866
  891MOL0     C22877  10.511   4.820  10.847  0.4901 -0.3178  0.3799
  891MOL0     C22878  10.422   4.922  10.805 -1.1968  0.1783 -0.5712
  891MOL0     O22879  10.454   5.009  10.707 -0.4398  1.2312  0.0013
  891MOL0     C22880  10.558   4.990  10.613  0.1513 -0.8154 -0.0453
  891MOL0     C22881  10.659   5.108  10.633  0.3429 -0.2119 -0.0458
  891MOL0     C22882  10.745   5.122  10.509 -0.0771 -0.0019 -0.4089
  891MOL0     C22883  10.843   5.236  10.521 -0.4492  0.4085  0.0413
  891MOL0     C22884  10.946   5.223  10.416 -0.2205  0.6824  0.4731
  891MOL0     C22885  11.012   5.192  10.321  0.3062  0.1562  1.2177
  891MOL0     C22886  10.298   4.935  10.873 -0.2816  0.2660 -0.3888
  891MOL0     C22887  10.265   4.866  10.982  1.0450 -0.4818  0.3239
  891MOL0     C22888  10.128   4.895  11.044 -0.6789  0.3605  0.4439
  891MOL0     H22889  10.402   4.556  11.376 -4.5126  1.3968  0.7237
  891MOL0     H22890  10.370   4.359  11.533 -0.9272  1.7310  1.3377
  891MOL0     H22891  10.313   3.957  11.345 -0.1791 -0.1629  0.2480
  891MOL0     H22892  10.154   4.043  11.366 -0.5122 -0.6245  0.7767
  891MOL0     H22893  10.132   3.856  11.519 -0.7814  2.0307 -1.4293
  891MOL0     H22894  10.297   3.887  11.593 -0.1941 -0.3849 -0.2700
  891MOL0     H22895  10.117   3.948  11.740 -1.2290 -1.3194 -1.1781
  891MOL0     H22896  10.189   4.090  11.695 -0.4162 -0.2949 -0.0738
  891MOL0     H22897   9.950   4.126  11.693 -3.5769 -1.3223 -0.5871
  891MOL0     H22898  10.001   4.129  11.524  0.0886  1.2725 -0.0776
  891MOL0     H22899   9.901   3.891  11.690  2.9844  0.5168  1.4546
  891MOL0     H22900   9.922   3.888  11.509  0.1807 -0.8053  1.2754
  891MOL0     H22901   9.722   4.042  11.669  0.2617 -1.4699  1.0091
  891MOL0     H22902   9.759   4.082  11.504  2.8968 -0.7214 -1.6937
  891MOL0     H22903   9.693   3.791  11.561 -1.5769  0.4244 -0.0599
  891MOL0     H22904   9.665   3.886  11.417  1.4381 -0.5383  0.5927
  891MOL0     H22905   9.466   4.016  11.515 -1.6560 -0.5238  0.5409
  891MOL0     H22906   9.434   3.855  11.507  1.7645 -1.4737  0.0597
  891MOL0     H22907   9.430   3.700  11.736  1.4138 -0.9888  0.2758
  891MOL0     H22908   9.329   3.781  12.071  0.2651 -2.8709  0.9561
  891MOL0     H22909   9.341   3.667  11.943  0.2926 -1.0162  1.0456
  891MOL0     H22910   9.106   3.769  12.069  1.1376 -1.1893 -0.2092
  891MOL0     H22911   9.133   3.896  11.957  1.5488 -0.1386 -0.2620
  891MOL0     H22912   9.108   3.753  11.754  0.8408 -1.1860  0.4238
  891MOL0     H22913   9.103   3.605  11.870  0.3241 -0.4333  1.0542
  891MOL0     H22914   8.905   3.728  11.963  1.9816  1.3640 -0.1459
  891MOL0     H22915   8.888   3.806  11.804 -1.1089  1.1310  1.3987
  891MOL0     H22916   8.749   3.709  11.570  0.5921  0.6560  0.8550
  891MOL0     H22917   8.803   3.772  11.299  2.2810  0.1020 -4.2605
  891MOL0     H22918   8.680   3.646  11.323  0.4792  0.4841 -1.1992
  891MOL0     H22919   8.809   3.623  11.218  1.1006 -2.5359  1.8991
  891MOL0     H22920   9.199   3.108  11.266 -0.2239 -2.9155 -0.7383
  891MOL0     H22921   9.294   2.999  11.095 -1.3464 -0.2519  3.2563
  891MOL0     H22922   9.511   3.003  10.891  0.1674 -2.4770  0.6172
  891MOL0     H22923   9.385   2.882  10.912 -1.0730 -0.6011 -1.2166
  891MOL0     H22924   9.362   2.951  10.648 -2.2595 -0.9126  1.5160
  891MOL0     H22925   9.542   2.976  10.675 -1.6264 -0.5510 -2.4979
  891MOL0     H22926   9.377   2.725  10.729 -0.0228 -0.4652 -0.2994
  891MOL0     H22927   9.546   2.755  10.768 -0.0215  2.0818  0.3006
  891MOL0     H22928   9.484   2.803  10.474 -0.7502 -0.0287 -0.0784
  891MOL0     H22929   9.449   2.642  10.534  1.5377 -1.5574  1.4664
  891MOL0     H22930   9.719   2.775  10.502  0.1069 -1.0741 -0.0818
  891MOL0     H22931   9.702   2.656  10.627 -0.5356 -1.8190 -1.0608
  891MOL0     H22932   9.601   2.602  10.339 -1.8526 -2.7284  0.8762
  891MOL0     H22933   9.609   2.493  10.474  1.3968 -0.0699  2.6738
  891MOL0     H22934   9.842   2.461  10.452  1.1405  0.2840  0.7077
  891MOL0     H22935   9.865   2.609  10.361 -0.3546  0.4037 -1.6878
  891MOL0     H22936   9.869   2.399  10.222  0.8411 -1.8691  0.9741
  891MOL0     H22937   9.722   2.488  10.168 -0.0964 -1.1438  0.8058
  891MOL0     H22938   9.210   3.329  10.818  0.5132  0.6564  0.7330
  891MOL0     H22939   9.118   3.446  11.010  1.1400  0.8178  0.3193
  891MOL0     H22940   9.105   3.376  11.509 -0.1129  1.2485 -0.5676
  891MOL0     H22941   9.023   3.445  11.747 -0.7178 -3.0819 -0.0417
  891MOL0     H22942  10.384   4.105  11.197  2.9528 -0.3873  1.9455
  891MOL0     H22943  10.383   4.309  11.035  1.3654  0.9020 -0.0057
  891MOL0     H22944  10.543   4.662  10.980 -1.4040 -0.6618  1.6472
  891MOL0     H22945  10.605   4.799  10.796 -1.6576 -3.0980 -2.8519
  891MOL0     H22946  10.596   4.887  10.607 -0.4246 -0.9614 -1.7906
  891MOL0     H22947  10.509   5.017  10.519 -2.6477  0.6901  1.6942
  891MOL0     H22948  10.723   5.088  10.720 -1.5540 -1.4102  1.1313
  891MOL0     H22949  10.606   5.199  10.663  0.8679  0.7798 -1.9569
  891MOL0     H22950  10.804   5.030  10.502 -2.0185 -1.6619  2.7516
  891MOL0     H22951  10.681   5.136  10.421  2.3899  1.9358 -2.0463
  891MOL0     H22952  10.896   5.215  10.614  3.3322  0.9102 -1.8082
  891MOL0     H22953  10.812   5.341  10.528  1.6249  0.9498  3.0637
  891MOL0     H22954  11.056   5.166  10.227  0.3897  2.0471  0.6920
  891MOL0     H22955  10.233   5.016  10.840 -0.7259 -1.5865 -4.7660
  891MOL0     H22956  10.075   4.970  10.985  2.0047  0.2666 -2.3375
  891MOL0     H22957  10.080   4.797  11.048  3.0888 -1.7441 -0.2485
  891MOL0     H22958  10.146   4.936  11.144  3.2434  0.4212 -0.1097
  892MOL0     O22959   9.577   0.527  10.256 -0.2977 -0.1017  0.0717
  892MOL0     C22960   9.494   0.479  10.185 -0.1937 -0.2236 -0.5579
  892MOL0     O22961   9.438   0.551  10.072 -0.3766  0.1590 -0.1264
  892MOL0     C22962   9.492   0.668  10.040 -0.0057 -0.3261 -1.5747
  892MOL0     C22963   9.455   0.774  10.130 -0.1125  0.1773 -0.4486
  892MOL0     C22964   9.496   0.906  10.104 -0.6569  0.1569 -0.4967
  892MOL0     C22965   9.569   0.933   9.987  0.0159  0.3631 -0.5969
  892MOL0     O22966   9.607   1.057   9.929 -0.4523 -0.0015 -0.7143
  892MOL0     C22967   9.681   1.141  10.024  0.7400  0.2184  0.5925
  892MOL0     C22968   9.787   1.208   9.937  0.3315  0.1785 -0.8637
  892MOL0     C22969   9.851   1.324  10.018  0.2346  0.4575 -0.7128
  892MOL0     C22970   9.932   1.407   9.927  0.4901 -0.1110 -0.3335
  892MOL0     C22971   9.939   1.558   9.972 -0.2004  1.0195 -0.5152
  892MOL0     C22972  10.055   1.626   9.901 -0.5324  0.0901 -0.3401
  892MOL0     C22973  10.189   1.612   9.967  0.2091 -0.4176  0.4982
  892MOL0     C22974  10.286   1.741   9.944  0.5516  0.6545  0.1865
  892MOL0     N22975  10.426   1.709   9.970 -0.7578  0.0025 -1.4609
  892MOL0     C22976  10.494   1.733  10.087  0.4646 -0.9459  0.0099
  892MOL0     C22977  10.614   1.663  10.086  0.9423  0.2543  0.2890
  892MOL0     C22978  10.715   1.674  10.185 -1.0400 -0.9998 -0.2994
  892MOL0     C22979  10.760   1.528  10.231  1.4784  0.4062  0.5208
  892MOL0     C22980  10.880   1.517  10.321  0.8948 -0.0461 -0.3135
  892MOL0     C22981  10.911   1.368  10.347  0.2836 -0.1776 -0.3199
  892MOL0     O22982  11.016   1.348  10.441  0.6843 -0.4294  0.5342
  892MOL0     C22983  11.152   1.345  10.397  0.9334  0.3535 -0.9311
  892MOL0     C22984  11.253   1.315  10.493  0.0302  0.0734 -0.2192
  892MOL0     C22985  11.395   1.325  10.458  0.2750 -1.0467  0.1956
  892MOL0     C22986  11.503   1.280  10.562  0.4419 -0.1283 -0.0123
  892MOL0     C22987  11.436   1.364  10.329 -0.3644  0.2783  1.4602
  892MOL0     C22988  11.567   1.405  10.282 -0.2384 -0.5018 -1.2689
  892MOL0     O22989  11.579   1.526  10.217  0.5345  0.0985  0.2508
  892MOL0     C22990  11.655   1.525  10.098  0.5154 -0.4495  0.4034
  892MOL0     C22991  11.670   1.419  10.008 -0.3598  0.0916  1.0946
  892MOL0     C22992  11.762   1.429   9.906 -0.2876  0.0716  0.4189
  892MOL0     C22993  11.841   1.541   9.879  0.2991  0.0236  0.2589
  892MOL0     O22994  11.920   1.530   9.766 -0.1169 -0.3646  0.1371
  892MOL0     C22995  12.044   1.609   9.785  0.0557  0.2493 -1.2859
  892MOL0     C22996  12.152   1.566   9.688 -0.0945 -1.1570  0.4442
  892MOL0     C22997  12.124   1.634   9.554 -0.4392  0.1610  0.1419
  892MOL0     C22998  12.242   1.614   9.461 -0.4745 -0.1249  0.1858
  892MOL0     C22999  12.246   1.720   9.350 -0.8188 -0.9774  1.0996
  892MOL0     C23000  12.355   1.687   9.237  0.4240  0.4407  0.2229
  892MOL0     C23001  12.379   1.795   9.129  0.8840 -0.1356  0.0997
  892MOL0     C23002  12.485   1.743   9.021  0.3217 -0.1348  0.9265
  892MOL0    Cl23003  12.406   1.684   8.876 -0.0035  0.2969 -0.1210
  892MOL0     C23004  11.819   1.649   9.960  0.3580  0.4754  0.5570
  892MOL0     C23005  11.722   1.646  10.065 -0.8358  0.3640  0.2996
  892MOL0     O23006  11.655   1.323  10.290 -0.6172 -0.3583 -0.0035
  892MOL0     C23007  11.330   1.394  10.235 -0.6041  0.2095 -0.9137
  892MOL0     C23008  11.193   1.389  10.277 -0.5366  0.1636  0.2683
  892MOL0     N23009  10.620   1.594   9.967  1.2338 -0.5703  0.3893
  892MOL0     N23010  10.512   1.623   9.903  1.2862  0.6318  0.1803
  892MOL0     C23011   9.595   0.833   9.901  0.6996 -0.2375  0.5729
  892MOL0     C23012   9.558   0.705   9.923  0.2517 -0.4414 -0.2978
  892MOL0     C23013   9.445   0.345  10.209  0.1805 -0.6247 -0.0559
  892MOL0     C23014   9.324   0.312  10.140 -0.1091 -0.4718  0.1061
  892MOL0     C23015   9.267   0.184  10.158  0.4302 -0.0229 -0.5356
  892MOL0     C23016   9.326   0.087  10.237  0.8428  0.3097 -0.7789
  892MOL0     O23017   9.270  -0.041  10.255  0.8618  0.0831  0.4012
  892MOL0     C23018   9.132  -0.056  10.287  0.3419 -0.8620  0.5341
  892MOL0     C23019   9.103  -0.197  10.324  0.1283 -0.1957  0.4756
  892MOL0     C23020   8.962  -0.215  10.382 -0.2893  0.3417  0.1783
  892MOL0     C23021   8.863  -0.247  10.273 -0.2622 -0.0925  0.6071
  892MOL0     C23022   8.729  -0.242  10.322 -0.0021  0.0658  0.8012
  892MOL0     C23023   8.614  -0.264  10.360  0.2215  0.2046 -0.3858
  892MOL0     C23024   9.448   0.116  10.289 -0.2893 -0.0779  0.0583
  892MOL0     C23025   9.506   0.240  10.285 -0.8593 -0.4324  0.8527
  892MOL0     C23026   9.640   0.271  10.352 -0.9798  1.1119 -0.2760
  892MOL0     H23027   9.377   0.755  10.203 -0.9628 -1.8114 -1.7957
  892MOL0     H23028   9.475   0.990  10.169  1.6494 -0.1393  0.7156
  892MOL0     H23029   9.739   1.088  10.100  0.8524  3.0890  2.6709
  892MOL0     H23030   9.608   1.209  10.068 -1.5049  0.0350 -2.4931
  892MOL0     H23031   9.860   1.132   9.908  0.0719 -0.3184 -0.2356
  892MOL0     H23032   9.731   1.255   9.855  2.6948  4.1028 -0.4949
  892MOL0     H23033   9.775   1.383  10.069  0.4896 -0.5086  0.8431
  892MOL0     H23034   9.911   1.280  10.098 -1.9196 -3.6976 -1.1186
  892MOL0     H23035  10.028   1.356   9.914 -0.0937 -1.1438 -0.7158
  892MOL0     H23036   9.879   1.400   9.831 -1.7184  0.9527  0.7415
  892MOL0     H23037   9.950   1.561  10.081  0.3094  1.8788 -0.5777
  892MOL0     H23038   9.848   1.612   9.946 -1.6706 -1.1972 -0.2274
  892MOL0     H23039  10.057   1.602   9.794  3.7422  0.2910 -0.4554
  892MOL0     H23040  10.022   1.730   9.908  1.1742  0.5232  2.5017
  892MOL0     H23041  10.234   1.522   9.924 -3.1820 -0.9980 -2.2411
  892MOL0     H23042  10.169   1.610  10.075 -3.3012  2.4307  0.0791
  892MOL0     H23043  10.286   1.766   9.837 -3.3169 -0.7088 -0.2932
  892MOL0     H23044  10.258   1.825  10.008  1.0161 -0.2839  1.6624
  892MOL0     H23045  10.449   1.799  10.160 -3.5194 -2.6476 -0.6363
  892MOL0     H23046  10.682   1.732  10.271  4.7258  1.2644  0.8420
  892MOL0     H23047  10.796   1.742  10.158 -2.2051  0.6513  0.2334
  892MOL0     H23048  10.686   1.477  10.294 -0.7271 -0.6562 -2.6531
  892MOL0     H23049  10.783   1.462  10.147  2.4518  0.2078  0.9321
  892MOL0     H23050  10.969   1.545  10.263 -0.0828 -2.1957 -3.0349
  892MOL0     H23051  10.869   1.570  10.416 -1.4417  0.0908 -0.6081
  892MOL0     H23052  10.822   1.325  10.393 -0.3223  3.7794  2.6615
  892MOL0     H23053  10.919   1.308  10.256 -2.0478  0.5186 -1.0510
  892MOL0     H23054  11.231   1.281  10.593 -0.7308  0.5281 -0.2250
  892MOL0     H23055  11.584   1.354  10.563 -0.2006  0.5727  0.9483
  892MOL0     H23056  11.547   1.189  10.520 -0.8882 -1.4738  1.3643
  892MOL0     H23057  11.472   1.263  10.665  1.6098  0.8027  0.5257
  892MOL0     H23058  11.625   1.321  10.021  1.5369 -1.7142 -3.8076
  892MOL0     H23059  11.788   1.346   9.842  1.8291  1.0273 -0.0704
  892MOL0     H23060  12.023   1.716   9.773  2.5410  1.0670  0.8067
  892MOL0     H23061  12.069   1.594   9.891 -1.9479  1.5876 -0.5521
  892MOL0     H23062  12.249   1.606   9.719  1.4632  0.3185 -5.1476
  892MOL0     H23063  12.156   1.457   9.679 -3.2001 -1.4121  0.9656
  892MOL0     H23064  12.115   1.743   9.567 -0.7856  0.2387 -0.6564
  892MOL0     H23065  12.044   1.584   9.499 -1.5251  2.7152 -0.7872
  892MOL0     H23066  12.249   1.518   9.409  0.4317 -1.6312  2.9197
  892MOL0     H23067  12.327   1.636   9.525 -0.0780  0.9520 -0.6795
  892MOL0     H23068  12.153   1.721   9.293 -0.1940 -1.4445  0.0515
  892MOL0     H23069  12.272   1.820   9.386  1.6832 -0.5122 -1.5730
  892MOL0     H23070  12.328   1.594   9.186 -5.1254  2.4548 -1.3133
  892MOL0     H23071  12.453   1.666   9.279  1.2702 -2.3837 -2.7174
  892MOL0     H23072  12.422   1.890   9.163  0.8011  0.6827 -1.9280
  892MOL0     H23073  12.284   1.816   9.079 -0.3166 -0.2600  2.2173
  892MOL0     H23074  12.547   1.659   9.055  2.4346  0.7836 -0.4221
  892MOL0     H23075  12.555   1.821   8.991 -0.9539  0.4344 -0.7568
  892MOL0     H23076  11.853   1.750   9.940 -2.0804  1.0749 -0.8914
  892MOL0     H23077  11.711   1.719  10.145  1.9374  0.1841  0.9389
  892MOL0     H23078  11.337   1.423  10.130 -2.2346  0.9122 -0.8519
  892MOL0     H23079  11.121   1.418  10.201 -0.6012  1.3475  0.7570
  892MOL0     H23080   9.657   0.865   9.818  1.5361 -3.2192 -0.0718
  892MOL0     H23081   9.587   0.635   9.845 -2.2647  0.1169 -1.8373
  892MOL0     H23082   9.276   0.391  10.084  0.4631  0.1271  0.4465
  892MOL0     H23083   9.173   0.159  10.111  1.5542 -0.8231 -2.4577
  892MOL0     H23084   9.123   0.002  10.379  2.4221  1.9790 -0.9266
  892MOL0     H23085   9.057  -0.024  10.214 -0.4340 -1.7583  0.9139
  892MOL0     H23086   9.172  -0.209  10.409 -1.1103  2.2933  1.9556
  892MOL0     H23087   9.131  -0.265  10.244  1.1749 -2.3072  2.5139
  892MOL0     H23088   8.961  -0.291  10.460  1.9127 -2.2928 -2.1617
  892MOL0     H23089   8.929  -0.118  10.421 -1.5139  0.6400 -1.4821
  892MOL0     H23090   8.869  -0.350  10.237 -2.5414 -0.0304 -0.1103
  892MOL0     H23091   8.865  -0.185  10.183  0.1855 -1.8333 -0.6493
  892MOL0     H23092   8.519  -0.271  10.408  1.1518  3.0217  2.2141
  892MOL0     H23093   9.512   0.044  10.338 -0.0135 -0.7378 -1.2382
  892MOL0     H23094   9.725   0.289  10.285 -0.9215  1.8409 -0.0056
  892MOL0     H23095   9.614   0.347  10.426  0.2774  0.0879  1.2807
  892MOL0     H23096   9.681   0.189  10.412 -0.6859 -1.3800 -3.5957
  893MOL0     O23097   3.922   6.723   3.298 -0.2831  0.3003 -1.3616
  893MOL0     C23098   3.840   6.764   3.225  0.9655  0.3238  0.3649
  893MOL0     O23099   3.818   6.718   3.102 -0.2682 -0.7714  0.2396
  893MOL0     C23100   3.868   6.602   3.054 -0.0906  0.1513 -0.0679
  893MOL0     C23101   3.800   6.554   2.945  0.8996 -0.0222 -0.2094
  893MOL0     C23102   3.841   6.445   2.872 -0.1881 -0.0632 -0.3221
  893MOL0     C23103   3.962   6.381   2.918 -0.1940 -0.5707  0.7726
  893MOL0     O23104   4.015   6.264   2.872 -0.1278  1.4722 -0.1432
  893MOL0     C23105   3.935   6.201   2.769 -0.6807  0.1108  0.3889
  893MOL0     C23106   3.996   6.077   2.726  0.2486 -0.2613  0.5537
  893MOL0     C23107   4.121   6.091   2.640  0.4188 -0.3811  0.0169
  893MOL0     C23108   4.201   5.964   2.657 -0.1253 -0.4018 -0.5704
  893MOL0     C23109   4.328   5.970   2.573  0.2828  0.4146 -0.4520
  893MOL0     C23110   4.448   5.893   2.638  1.0381  0.1461 -0.0974
  893MOL0     C23111   4.572   5.930   2.565 -1.1805 -0.0078 -0.3170
  893MOL0     C23112   4.699   5.857   2.626  1.1784  0.2848  0.0614
  893MOL0     N23113   4.699   5.707   2.636  0.4350  0.4905 -0.3340
  893MOL0     C23114   4.786   5.619   2.571  0.4969 -0.9837  0.2706
  893MOL0     C23115   4.767   5.504   2.643  0.5363  0.1137 -0.0341
  893MOL0     C23116   4.848   5.380   2.622  0.2433 -0.0154  0.1919
  893MOL0     C23117   4.866   5.294   2.757 -0.7008 -0.4896  0.6731
  893MOL0     C23118   4.983   5.183   2.729 -0.1617  0.7586  0.0768
  893MOL0     C23119   4.985   5.080   2.842  0.4857  0.1394  0.5660
  893MOL0     O23120   4.974   4.948   2.780  0.1816  0.1790 -0.3878
  893MOL0     C23121   5.088   4.898   2.712  0.4794 -0.6472 -0.4491
  893MOL0     C23122   5.216   4.914   2.768 -0.9511 -0.3537  0.6828
  893MOL0     C23123   5.337   4.875   2.710  0.1642 -0.5904  0.2284
  893MOL0     C23124   5.462   4.904   2.778  1.0113 -0.2499  0.0090
  893MOL0     C23125   5.318   4.805   2.579 -0.3371  0.3775 -0.6003
  893MOL0     C23126   5.439   4.779   2.512 -0.3487  0.1348 -0.6243
  893MOL0     O23127   5.543   4.874   2.515  0.2633  0.1823  0.0842
  893MOL0     C23128   5.659   4.853   2.448 -0.3290 -0.1534 -1.2069
  893MOL0     C23129   5.740   4.736   2.455  0.3098 -0.5984 -0.2868
  893MOL0     C23130   5.857   4.715   2.383  0.3233 -0.4434 -0.0378
  893MOL0     C23131   5.904   4.814   2.310  0.0290 -0.4189 -0.3247
  893MOL0     O23132   6.028   4.805   2.251  0.2113  0.6607 -0.1406
  893MOL0     C23133   6.049   4.844   2.122  0.1311  0.0675  0.2033
  893MOL0     C23134   5.954   4.779   2.029  0.1239  0.0952 -0.7821
  893MOL0     C23135   5.985   4.804   1.880 -0.3899 -0.5451  0.3092
  893MOL0     C23136   6.111   4.732   1.833  0.1063  0.3755 -0.0537
  893MOL0     C23137   6.100   4.733   1.687 -0.6115  0.6038  0.4460
  893MOL0     C23138   6.228   4.666   1.627  0.1923  0.4053  0.2459
  893MOL0     C23139   6.259   4.682   1.475 -0.1932 -0.1117 -0.0213
  893MOL0     C23140   6.278   4.542   1.402 -1.1491 -0.5274 -0.1017
  893MOL0    Cl23141   6.421   4.454   1.472 -0.2054  0.1172  0.2170
  893MOL0     C23142   5.847   4.931   2.304  0.9264  0.6036  0.3881
  893MOL0     C23143   5.726   4.955   2.372  0.5462 -0.3575  0.2782
  893MOL0     O23144   5.444   4.684   2.432  0.7827 -0.1856 -0.1760
  893MOL0     C23145   5.185   4.767   2.530 -0.4546 -0.3877  0.3845
  893MOL0     C23146   5.080   4.812   2.603  0.6749  0.9889 -0.3776
  893MOL0     N23147   4.660   5.516   2.726  1.0960  0.1050  0.4493
  893MOL0     N23148   4.621   5.637   2.732  0.0963 -0.9523  0.9298
  893MOL0     C23149   4.029   6.432   3.027 -0.2017 -0.0037 -0.8617
  893MOL0     C23150   3.990   6.546   3.086 -0.1356 -0.1052  0.0657
  893MOL0     C23151   3.769   6.892   3.270  0.2738  0.5679  0.7676
  893MOL0     C23152   3.723   6.976   3.168  0.2459  0.9687 -0.6634
  893MOL0     C23153   3.654   7.096   3.200 -0.2456  0.6240  0.2480
  893MOL0     C23154   3.620   7.127   3.330  0.2823  0.1178 -0.1933
  893MOL0     O23155   3.539   7.247   3.347  0.3618 -0.2872 -0.0850
  893MOL0     C23156   3.508   7.293   3.480 -0.5124 -0.2963  0.0066
  893MOL0     C23157   3.645   7.347   3.546 -1.0426  0.2973 -0.4866
  893MOL0     C23158   3.698   7.471   3.470 -0.7206  0.4056  0.7004
  893MOL0     C23159   3.621   7.596   3.484  0.8089 -0.2865  0.0453
  893MOL0     C23160   3.695   7.707   3.428  0.3884 -0.1642 -0.3368
  893MOL0     C23161   3.740   7.812   3.381 -0.3162  1.4421 -0.5966
  893MOL0     C23162   3.668   7.039   3.430 -0.0310 -0.4481 -0.1767
  893MOL0     C23163   3.746   6.922   3.405  1.2868 -0.2201  0.9776
  893MOL0     C23164   3.790   6.835   3.513  0.1794  0.8382 -0.1636
  893MOL0     H23165   3.709   6.611   2.929  1.1339  2.5785  5.3530
  893MOL0     H23166   3.784   6.412   2.786  0.4285 -1.7493 -0.1194
  893MOL0     H23167   3.921   6.272   2.687  0.4227 -0.5359 -0.3695
  893MOL0     H23168   3.842   6.170   2.819 -1.2113 -0.6344 -1.0172
  893MOL0     H23169   4.010   6.033   2.826 -0.3960 -0.2299  0.6626
  893MOL0     H23170   3.918   6.012   2.685 -0.1003  0.9777 -0.8152
  893MOL0     H23171   4.093   6.088   2.534  4.7274 -0.3012 -1.3513
  893MOL0     H23172   4.171   6.187   2.655 -0.6035  0.4349 -1.4554
  893MOL0     H23173   4.220   5.944   2.763  1.9980 -0.6944 -0.9520
  893MOL0     H23174   4.156   5.873   2.616 -0.3967 -0.2109 -0.6985
  893MOL0     H23175   4.364   6.074   2.567  0.9993  0.1633 -0.5899
  893MOL0     H23176   4.309   5.930   2.473  2.7626 -0.1618 -0.7574
  893MOL0     H23177   4.453   5.923   2.743  2.6327  0.8672 -0.3517
  893MOL0     H23178   4.434   5.785   2.628  3.1660 -0.2204  0.3717
  893MOL0     H23179   4.602   6.034   2.579  2.3447 -0.8660 -0.3870
  893MOL0     H23180   4.563   5.918   2.457  0.0664 -1.8904 -0.2758
  893MOL0     H23181   4.785   5.874   2.559 -1.9918 -3.4335 -5.8542
  893MOL0     H23182   4.713   5.898   2.726  0.2330 -2.8474  1.5854
  893MOL0     H23183   4.856   5.631   2.488 -2.5865 -3.1796 -2.9376
  893MOL0     H23184   4.948   5.412   2.591 -0.3605  0.4429 -1.3618
  893MOL0     H23185   4.818   5.326   2.532  2.6130  1.7275 -1.7734
  893MOL0     H23186   4.911   5.363   2.830  1.1884 -0.2991 -0.5945
  893MOL0     H23187   4.763   5.268   2.784 -0.3603 -0.5091  2.0160
  893MOL0     H23188   4.962   5.128   2.636 -1.0625 -1.5016  1.5204
  893MOL0     H23189   5.083   5.226   2.718  0.0067  0.1470 -0.9407
  893MOL0     H23190   5.077   5.088   2.900  1.5565 -0.3003 -1.0155
  893MOL0     H23191   4.908   5.107   2.915  0.3798  1.6599 -0.0612
  893MOL0     H23192   5.235   4.961   2.864 -0.5837 -0.7896  0.8285
  893MOL0     H23193   5.443   4.914   2.885  0.6107 -0.9247  0.0034
  893MOL0     H23194   5.513   4.991   2.734  0.6148 -0.5838 -1.1293
  893MOL0     H23195   5.536   4.824   2.769  1.8153  0.6333 -1.8677
  893MOL0     H23196   5.688   4.656   2.507 -2.6300  0.8514 -0.7877
  893MOL0     H23197   5.901   4.616   2.391  0.4977 -0.5041 -1.4896
  893MOL0     H23198   6.031   4.951   2.114 -1.9035  0.2428  4.3246
  893MOL0     H23199   6.153   4.820   2.098  0.1320  1.6901 -1.5965
  893MOL0     H23200   5.964   4.670   2.035  0.0477  0.0101 -1.9817
  893MOL0     H23201   5.851   4.811   2.042  0.9003  4.1434 -2.9080
  893MOL0     H23202   5.985   4.910   1.852 -5.2487 -1.1045 -3.1089
  893MOL0     H23203   5.899   4.767   1.824  0.6148 -1.9198 -0.3636
  893MOL0     H23204   6.117   4.638   1.889 -1.9357 -0.8892 -1.7687
  893MOL0     H23205   6.204   4.783   1.858  0.7585 -0.8694  0.1617
  893MOL0     H23206   6.008   4.685   1.652 -1.1849  2.1488 -0.2997
  893MOL0     H23207   6.091   4.839   1.662 -3.3130 -0.0647 -2.0759
  893MOL0     H23208   6.239   4.560   1.653  1.4558  0.6716  0.8973
  893MOL0     H23209   6.308   4.723   1.675 -2.3007  2.8997  1.7376
  893MOL0     H23210   6.354   4.731   1.450 -2.3328  3.1548 -2.7188
  893MOL0     H23211   6.179   4.737   1.425  0.7338  0.3757 -1.0238
  893MOL0     H23212   6.283   4.541   1.293 -3.4478 -0.8744 -0.2482
  893MOL0     H23213   6.193   4.479   1.429 -0.8011 -0.6100  0.8651
  893MOL0     H23214   5.884   5.013   2.243 -2.2853  0.5769 -1.8763
  893MOL0     H23215   5.668   5.046   2.364  1.0259  0.0712  1.4013
  893MOL0     H23216   5.183   4.722   2.432  1.7564  0.2699 -0.0202
  893MOL0     H23217   4.984   4.805   2.554  1.0852  2.5512 -1.4900
  893MOL0     H23218   4.121   6.385   3.060 -0.5876  1.1275  2.2115
  893MOL0     H23219   4.060   6.594   3.154  0.3302 -0.2427 -0.3095
  893MOL0     H23220   3.731   6.948   3.063  0.7463  1.2013 -0.6941
  893MOL0     H23221   3.615   7.157   3.120  0.4454 -2.8677 -3.0505
  893MOL0     H23222   3.427   7.366   3.492 -2.4631 -2.4967  1.0434
  893MOL0     H23223   3.476   7.200   3.528  2.4662 -1.8260 -0.7191
  893MOL0     H23224   3.725   7.272   3.550  0.1922  1.5363 -1.2238
  893MOL0     H23225   3.621   7.365   3.652 -4.4166 -3.0729 -0.4930
  893MOL0     H23226   3.802   7.500   3.489  0.2244 -2.4015  0.3047
  893MOL0     H23227   3.703   7.460   3.362 -4.3376  0.2381  0.4230
  893MOL0     H23228   3.602   7.624   3.588 -0.6182 -1.5765  0.1656
  893MOL0     H23229   3.524   7.575   3.439  0.3300  1.6074  0.0944
  893MOL0     H23230   3.784   7.907   3.355  1.4112  0.3719 -1.8319
  893MOL0     H23231   3.677   7.062   3.535  4.2021  1.3688 -0.7478
  893MOL0     H23232   3.754   6.855   3.614  2.0431  0.8268  0.5395
  893MOL0     H23233   3.750   6.735   3.494 -0.2597  1.4470 -2.8537
  893MOL0     H23234   3.898   6.833   3.527  0.2940 -2.3153 -0.7549
  894MOL0     O23235   8.758  10.428   8.371 -0.3404  0.7663 -0.1119
  894MOL0     C23236   8.879  10.419   8.353 -0.0722  0.7073  0.4593
  894MOL0     O23237   8.955  10.313   8.389 -0.6740 -0.1081  1.1251
  894MOL0     C23238   8.908  10.217   8.473 -0.0339 -0.5000  0.8983
  894MOL0     C23239   8.978  10.182   8.582 -0.9874  0.1148 -1.0023
  894MOL0     C23240   8.931  10.090   8.673  0.5559 -0.2658 -0.7310
  894MOL0     C23241   8.802  10.036   8.659 -0.5178 -0.1028 -0.3700
  894MOL0     O23242   8.765   9.943   8.753 -0.4169  0.5190 -0.7660
  894MOL0     C23243   8.662   9.969   8.846 -0.5442  0.3168  0.7183
  894MOL0     C23244   8.530   9.967   8.781 -0.0063 -0.2230  0.4784
  894MOL0     C23245   8.480   9.828   8.730 -0.1535 -0.6529 -0.3489
  894MOL0     C23246   8.474   9.734   8.845  0.8326  0.4856 -0.1543
  894MOL0     C23247   8.428   9.592   8.798 -0.5139 -0.1706  0.5318
  894MOL0     C23248   8.436   9.485   8.911  0.1662 -0.5112  0.3444
  894MOL0     C23249   8.581   9.462   8.957 -0.0412  0.3023  0.5364
  894MOL0     C23250   8.590   9.447   9.106  0.7049  0.9353 -0.4327
  894MOL0     N23251   8.736   9.440   9.132 -0.3378  0.6567 -0.1115
  894MOL0     C23252   8.789   9.528   9.227  0.2648  0.0122 -0.2280
  894MOL0     C23253   8.924   9.483   9.215  0.7674  1.1469  0.0358
  894MOL0     C23254   9.032   9.556   9.292 -1.4118  0.0713 -0.5282
  894MOL0     C23255   9.086   9.668   9.191  0.2065 -0.0418  0.9011
  894MOL0     C23256   9.185   9.617   9.079  0.6139  0.0320 -0.0150
  894MOL0     C23257   9.322   9.695   9.093  0.2993 -0.3997 -0.4952
  894MOL0     O23258   9.293   9.834   9.074 -0.1159  0.1072 -0.1979
  894MOL0     C23259   9.303   9.879   8.941  0.6999 -0.3782 -0.4818
  894MOL0     C23260   9.288  10.018   8.936  0.1102 -0.3895  0.3961
  894MOL0     C23261   9.307  10.092   8.810  0.2921  0.5319  0.7868
  894MOL0     C23262   9.276  10.245   8.831  0.1581  0.0077 -0.3223
  894MOL0     C23263   9.331  10.015   8.694 -0.1433  1.2935  0.5067
  894MOL0     C23264   9.360  10.082   8.562  0.1383 -0.2827 -0.2486
  894MOL0     O23265   9.355  10.010   8.449 -0.1478 -0.3830 -0.9158
  894MOL0     C23266   9.306  10.065   8.333  0.2867 -0.6695  0.2746
  894MOL0     C23267   9.168  10.091   8.292  0.2546  0.2740  0.1333
  894MOL0     C23268   9.138  10.160   8.177  0.8124  0.8573  0.4133
  894MOL0     C23269   9.236  10.203   8.092  0.1003  0.6600  0.0808
  894MOL0     O23270   9.190  10.251   7.976 -0.8469  0.1553  0.2255
  894MOL0     C23271   9.229  10.377   7.920 -0.5245  0.0748 -0.4677
  894MOL0     C23272   9.157  10.395   7.791  0.0924  0.1148  0.4102
  894MOL0     C23273   9.157  10.534   7.728  0.5957 -0.9205 -0.6667
  894MOL0     C23274   9.122  10.537   7.579  0.4028  1.0074 -0.8772
  894MOL0     C23275   9.124  10.680   7.519  0.0622  0.1081  0.3849
  894MOL0     C23276   9.022  10.705   7.405  0.1780  0.0950 -0.2081
  894MOL0     C23277   9.032  10.616   7.281  0.4826  0.3373  0.2102
  894MOL0     C23278   9.168  10.610   7.218 -0.5002  0.8694  0.6898
  894MOL0    Cl23279   9.231  10.755   7.122 -0.1918 -0.6595  0.2162
  894MOL0     C23280   9.375  10.189   8.127  0.2507 -0.4297 -0.8496
  894MOL0     C23281   9.404  10.125   8.253  0.0074  0.0220 -0.4246
  894MOL0     O23282   9.373  10.206   8.564 -0.6451  0.4699  0.3490
  894MOL0     C23283   9.317   9.873   8.700  0.2591 -0.8951 -0.2437
  894MOL0     C23284   9.300   9.813   8.825 -0.4132  0.3031  0.5276
  894MOL0     N23285   8.940   9.374   9.137  0.0352 -0.4223 -0.0655
  894MOL0     N23286   8.822   9.350   9.090 -0.5472  0.7537 -0.2545
  894MOL0     C23287   8.733  10.057   8.537 -0.7707 -0.1794  0.2665
  894MOL0     C23288   8.779  10.146   8.448 -0.1448 -0.0183  0.4401
  894MOL0     C23289   8.947  10.525   8.284 -0.4623  0.0033  0.6867
  894MOL0     C23290   9.082  10.525   8.262 -1.0400  0.0785  0.4585
  894MOL0     C23291   9.146  10.627   8.190  0.9255  1.0009  1.0593
  894MOL0     C23292   9.072  10.726   8.120  1.0126  0.3371 -0.0859
  894MOL0     O23293   9.128  10.801   8.020 -0.4211 -0.1048  0.0928
  894MOL0     C23294   9.120  10.941   8.038  0.0435  1.0791  0.1798
  894MOL0     C23295   9.159  11.004   7.902  0.1543  0.5665 -0.9117
  894MOL0     C23296   9.307  10.976   7.859  0.5470 -0.1407 -0.2003
  894MOL0     C23297   9.348  10.832   7.828 -0.1985  0.3546 -0.4402
  894MOL0     C23298   9.460  10.824   7.721  0.6156 -0.0618  0.7928
  894MOL0     C23299   9.551  10.852   7.649 -0.0730 -0.6973 -0.5539
  894MOL0     C23300   8.938  10.731   8.142  0.8222 -0.3123 -0.5402
  894MOL0     C23301   8.871  10.634   8.220  0.5100 -0.0872 -0.8886
  894MOL0     C23302   8.721  10.661   8.235  0.5702  0.8753 -0.3816
  894MOL0     H23303   9.078  10.222   8.599 -1.6415  1.5217 -0.2771
  894MOL0     H23304   8.971  10.064   8.770 -3.5274 -0.5861  1.0515
  894MOL0     H23305   8.684  10.070   8.880  2.9345 -0.6218  1.6569
  894MOL0     H23306   8.672   9.897   8.928  2.2644 -0.9062 -0.5728
  894MOL0     H23307   8.461  10.010   8.854  2.9178  1.6013  2.3731
  894MOL0     H23308   8.534  10.036   8.697  0.6311  0.2720  0.9069
  894MOL0     H23309   8.379   9.841   8.689 -0.3517 -1.1381 -0.0221
  894MOL0     H23310   8.555   9.801   8.656  1.0501  2.0045 -0.2209
  894MOL0     H23311   8.566   9.724   8.904  0.2298  0.6357  0.8435
  894MOL0     H23312   8.392   9.771   8.908 -1.2898 -0.2353 -2.3678
  894MOL0     H23313   8.500   9.561   8.722  0.6432  1.7326  0.7902
  894MOL0     H23314   8.323   9.594   8.768 -0.5619 -0.6866  0.6544
  894MOL0     H23315   8.377   9.516   8.998  0.7421 -0.1502  0.6079
  894MOL0     H23316   8.382   9.400   8.868  0.5022  0.6107 -2.5218
  894MOL0     H23317   8.654   9.533   8.918  1.3594 -1.8030 -0.8670
  894MOL0     H23318   8.596   9.359   8.921 -0.5034  0.9651 -1.7433
  894MOL0     H23319   8.564   9.541   9.155  0.4282  1.5804 -1.7849
  894MOL0     H23320   8.543   9.356   9.145 -1.0927  2.6321  1.6311
  894MOL0     H23321   8.747   9.608   9.286  1.2537 -0.2508  0.8631
  894MOL0     H23322   9.122   9.496   9.311 -2.9161 -1.1877  4.0741
  894MOL0     H23323   9.012   9.603   9.389  1.1111  0.8089 -0.3018
  894MOL0     H23324   9.008   9.723   9.138 -0.2546  1.0711  2.6670
  894MOL0     H23325   9.132   9.751   9.245 -2.5932  1.0434  1.7974
  894MOL0     H23326   9.192   9.508   9.079 -0.7200 -0.1035 -1.8880
  894MOL0     H23327   9.153   9.642   8.977 -2.4055  1.3870  1.1515
  894MOL0     H23328   9.357   9.691   9.197 -0.4843  0.3861 -0.1817
  894MOL0     H23329   9.405   9.665   9.028  2.0728  1.5218  0.7599
  894MOL0     H23330   9.277  10.074   9.029  2.3371 -1.0568  1.1333
  894MOL0     H23331   9.315  10.318   8.759 -0.2977 -1.0769 -1.7390
  894MOL0     H23332   9.332  10.272   8.920 -0.4531  0.0752  0.0427
  894MOL0     H23333   9.168  10.256   8.829  0.2392  0.8101 -0.8903
  894MOL0     H23334   9.084  10.061   8.354  2.1484 -0.7112  2.3493
  894MOL0     H23335   9.031  10.173   8.162  1.1091  1.1968 -1.6638
  894MOL0     H23336   9.194  10.454   7.990 -2.5087 -0.6547 -0.6193
  894MOL0     H23337   9.336  10.398   7.908 -0.2199 -0.1542  1.5421
  894MOL0     H23338   9.192  10.322   7.718 -2.7838 -0.2040 -0.7923
  894MOL0     H23339   9.050  10.377   7.805 -0.1549 -1.1919 -2.5133
  894MOL0     H23340   9.249  10.590   7.747 -1.1510  2.2351 -0.7453
  894MOL0     H23341   9.080  10.598   7.773 -0.5260  0.1773 -3.8551
  894MOL0     H23342   9.021  10.499   7.563  0.0309  1.3386  0.4925
  894MOL0     H23343   9.195  10.474   7.528 -0.1156  1.5803 -2.3665
  894MOL0     H23344   9.119  10.750   7.603  0.5063 -0.5643  0.9830
  894MOL0     H23345   9.223  10.685   7.474 -0.9734 -1.2197 -2.2110
  894MOL0     H23346   9.043  10.807   7.371  0.2062  0.6408  1.3732
  894MOL0     H23347   8.920  10.700   7.446  0.8769  0.1324  1.6139
  894MOL0     H23348   8.954  10.617   7.203  1.4754  3.0420 -0.8791
  894MOL0     H23349   9.016  10.516   7.321 -1.4527  1.8018  3.5247
  894MOL0     H23350   9.157  10.524   7.153  2.4412 -0.7738  2.1587
  894MOL0     H23351   9.240  10.581   7.295 -0.0025  2.0691  0.7126
  894MOL0     H23352   9.454  10.214   8.057  0.6229 -2.2345 -1.1232
  894MOL0     H23353   9.507  10.125   8.287 -0.8078 -0.3282  2.3122
  894MOL0     H23354   9.323   9.804   8.616  0.3284 -2.8952  1.3198
  894MOL0     H23355   9.309   9.705   8.819  0.2879  0.4094 -0.6223
  894MOL0     H23356   8.649   9.993   8.510  0.4677 -0.6681 -2.9777
  894MOL0     H23357   8.725  10.175   8.358  0.5623 -0.2531 -0.0744
  894MOL0     H23358   9.140  10.443   8.304 -1.4007 -0.8898 -0.8679
  894MOL0     H23359   9.250  10.620   8.159  0.5433 -2.2860  0.0838
  894MOL0     H23360   9.019  10.968   8.069 -0.9225 -2.3808  0.5329
  894MOL0     H23361   9.184  10.975   8.120 -1.7632  3.0969  0.8362
  894MOL0     H23362   9.144  11.112   7.914  0.8088  0.3936  3.0602
  894MOL0     H23363   9.086  10.973   7.827 -1.3380  0.1479  0.6510
  894MOL0     H23364   9.322  11.038   7.771  0.6081 -0.4361 -0.3998
  894MOL0     H23365   9.375  11.018   7.934 -0.2996  0.1786  0.4066
  894MOL0     H23366   9.263  10.768   7.801  1.8472 -3.8517  2.1545
  894MOL0     H23367   9.391  10.811   7.926  0.1479  1.1938 -0.4091
  894MOL0     H23368   9.629  10.890   7.587  0.3057  0.3828  0.5476
  894MOL0     H23369   8.866  10.791   8.088 -1.7288 -1.3473  1.5142
  894MOL0     H23370   8.691  10.651   8.339  1.6562 -1.3422 -0.2160
  894MOL0     H23371   8.693  10.759   8.194 -2.2770 -0.5126 -2.0678
  894MOL0     H23372   8.671  10.582   8.179 -0.4370  2.0121 -1.1276
  895MOL0     O23373   4.333  11.089   6.475  0.6024 -0.6113 -0.6025
  895MOL0     C23374   4.390  11.176   6.403 -0.2885 -0.1658 -0.5142
  895MOL0     O23375   4.339  11.217   6.283 -0.5860  0.2149  0.3252
  895MOL0     C23376   4.354  11.125   6.182 -0.4264  0.5962 -0.2417
  895MOL0     C23377   4.288  11.141   6.060  0.5556  0.4464 -0.0110
  895MOL0     C23378   4.288  11.034   5.960 -0.1076 -0.5646 -0.3700
  895MOL0     C23379   4.363  10.917   5.971  1.0332 -0.4261 -0.3989
  895MOL0     O23380   4.348  10.838   5.858 -0.3814  0.5158 -0.4888
  895MOL0     C23381   4.446  10.735   5.844  0.7009 -0.7995 -0.3803
  895MOL0     C23382   4.401  10.638   5.728  0.4218  0.4170 -0.3417
  895MOL0     C23383   4.255  10.603   5.713  0.3065 -0.3259  1.2845
  895MOL0     C23384   4.187  10.715   5.632  0.8742  0.9675 -0.0533
  895MOL0     C23385   4.037  10.753   5.668  0.8204  0.9848 -0.1689
  895MOL0     C23386   3.949  10.631   5.652  0.3874  0.4905  0.6540
  895MOL0     C23387   3.955  10.558   5.516 -0.0418  0.0465  0.6476
  895MOL0     C23388   3.896  10.656   5.412  0.5600 -0.8324  0.2221
  895MOL0     N23389   3.885  10.582   5.288 -0.3354  0.1132  0.4471
  895MOL0     C23390   3.766  10.597   5.226 -0.2000 -0.0422 -0.0961
  895MOL0     C23391   3.767  10.515   5.117  0.3172  0.5492  1.1466
  895MOL0     C23392   3.646  10.474   5.039 -1.2680 -0.7279  1.0491
  895MOL0     C23393   3.618  10.586   4.933 -0.4145 -0.1953 -1.2042
  895MOL0     C23394   3.535  10.538   4.816 -0.5401  1.1140  0.6050
  895MOL0     C23395   3.518  10.646   4.710  0.6788 -0.3716 -0.7661
  895MOL0     O23396   3.382  10.647   4.671  0.1630  0.2680 -0.9498
  895MOL0     C23397   3.281  10.707   4.747 -0.5732  0.1409 -0.0453
  895MOL0     C23398   3.153  10.686   4.713 -0.6843 -0.2520  0.1893
  895MOL0     C23399   3.039  10.730   4.787  0.0966  0.3042 -0.5119
  895MOL0     C23400   2.904  10.682   4.728 -0.9817  0.4974  0.6801
  895MOL0     C23401   3.061  10.810   4.903  0.1182 -0.1721  0.0264
  895MOL0     C23402   2.956  10.873   4.980 -0.4079  0.0410 -0.1504
  895MOL0     O23403   2.993  10.929   5.102  0.5689 -0.1603  0.3160
  895MOL0     C23404   2.903  10.986   5.189 -0.2166 -0.2210  0.1591
  895MOL0     C23405   2.957  10.993   5.321  0.4396 -1.1209  0.0335
  895MOL0     C23406   2.877  11.050   5.425 -0.1665  0.5613  0.9388
  895MOL0     C23407   2.750  11.097   5.394  0.5466 -0.3124 -0.4060
  895MOL0     O23408   2.677  11.147   5.502  0.1277  0.2043 -0.1138
  895MOL0     C23409   2.572  11.058   5.545  0.4876 -0.4283 -0.1261
  895MOL0     C23410   2.520  11.109   5.672 -0.0679 -0.6662 -0.2830
  895MOL0     C23411   2.378  11.034   5.699 -0.6043  0.0490  0.2721
  895MOL0     C23412   2.347  11.060   5.843  0.4156 -0.2491 -1.1235
  895MOL0     C23413   2.221  10.983   5.866  0.0163 -0.6959 -0.0090
  895MOL0     C23414   2.159  11.008   6.011 -0.3645 -0.3015 -0.6221
  895MOL0     C23415   2.232  10.924   6.114  0.4932 -0.2794 -0.7554
  895MOL0     C23416   2.159  10.889   6.242  0.3174 -0.5411  0.0642
  895MOL0    Cl23417   2.115  11.059   6.320  0.0311 -0.8454 -0.0966
  895MOL0     C23418   2.701  11.096   5.267  1.5184  0.3527 -0.0790
  895MOL0     C23419   2.774  11.035   5.162  0.4315  1.2011  0.2105
  895MOL0     O23420   2.851  10.892   4.926 -0.1083  0.3432  0.4986
  895MOL0     C23421   3.199  10.829   4.935 -0.2249  0.3283 -1.3246
  895MOL0     C23422   3.302  10.775   4.863 -0.5900  0.7214 -0.3906
  895MOL0     N23423   3.892  10.461   5.100 -0.0248 -0.0848  0.3631
  895MOL0     N23424   3.964  10.505   5.202 -0.4727 -0.7322  0.4641
  895MOL0     C23425   4.442  10.913   6.082  0.1078 -0.8482  0.3217
  895MOL0     C23426   4.433  11.009   6.185 -0.5958 -0.1352  0.0251
  895MOL0     C23427   4.519  11.231   6.416 -0.9119 -0.5889 -0.0722
  895MOL0     C23428   4.546  11.361   6.366 -0.4869 -0.5517  0.0312
  895MOL0     C23429   4.671  11.425   6.367 -0.3096 -1.0899 -0.0825
  895MOL0     C23430   4.774  11.366   6.424 -0.2736 -0.1754 -0.1119
  895MOL0     O23431   4.888  11.436   6.448  1.0372  0.8398  0.0173
  895MOL0     C23432   4.895  11.570   6.407 -0.2138  0.3086 -0.3358
  895MOL0     C23433   5.025  11.619   6.488  0.2077  0.2958 -0.7607
  895MOL0     C23434   5.105  11.738   6.426 -0.6359  0.0391 -0.5124
  895MOL0     C23435   5.235  11.682   6.373 -0.0125  0.6823  0.8079
  895MOL0     C23436   5.328  11.649   6.478 -0.5131 -1.0328  0.8162
  895MOL0     C23437   5.408  11.656   6.564  0.3173 -1.0360  0.3596
  895MOL0     C23438   4.753  11.243   6.484 -0.7291  0.9389  0.7750
  895MOL0     C23439   4.632  11.169   6.477 -0.0048 -0.5524  0.0710
  895MOL0     C23440   4.618  11.039   6.570  0.6913 -0.1175  0.5092
  895MOL0     H23441   4.228  11.229   6.041  0.4799 -0.0535 -2.3277
  895MOL0     H23442   4.222  11.060   5.878 -1.8441  0.7740  1.3601
  895MOL0     H23443   4.456  10.679   5.938  2.3338  1.4623  0.8988
  895MOL0     H23444   4.542  10.773   5.809 -0.4484  0.4528 -2.3897
  895MOL0     H23445   4.441  10.673   5.633 -0.3703  1.4116 -0.3302
  895MOL0     H23446   4.459  10.547   5.747 -1.2498 -0.8140 -0.8418
  895MOL0     H23447   4.240  10.501   5.674 -3.0010  0.0942  1.1454
  895MOL0     H23448   4.200  10.590   5.807 -1.8895 -0.4858  0.0477
  895MOL0     H23449   4.239  10.809   5.652  1.5209  0.5984  0.0203
  895MOL0     H23450   4.195  10.691   5.526  0.5462 -2.6643  0.6084
  895MOL0     H23451   3.995  10.831   5.603 -2.4608  1.8621  2.7527
  895MOL0     H23452   4.024  10.794   5.768 -3.7120 -1.7168  0.6093
  895MOL0     H23453   3.963  10.561   5.734 -2.9621 -1.7323 -0.4936
  895MOL0     H23454   3.844  10.656   5.665  0.1681 -0.7690  1.4280
  895MOL0     H23455   3.908  10.459   5.523  2.9747 -1.4165  2.0844
  895MOL0     H23456   4.055  10.534   5.478 -1.9487 -1.8712 -3.8847
  895MOL0     H23457   3.804  10.701   5.449  2.0430  2.5771  0.1473
  895MOL0     H23458   3.961  10.744   5.404 -2.4074  1.4351 -0.9927
  895MOL0     H23459   3.684  10.649   5.275  2.0297  1.3836  2.4336
  895MOL0     H23460   3.555  10.452   5.095 -1.1344 -2.4539  0.6393
  895MOL0     H23461   3.667  10.379   4.989  3.7047  2.1990 -3.6014
  895MOL0     H23462   3.565  10.668   4.981  2.9165  0.4818  1.6755
  895MOL0     H23463   3.708  10.633   4.893 -0.1993 -0.9452 -1.6373
  895MOL0     H23464   3.596  10.465   4.762  1.4452  4.3050 -1.8254
  895MOL0     H23465   3.446  10.484   4.851  0.1324  0.5279  1.4735
  895MOL0     H23466   3.543  10.743   4.754  1.1081 -0.4955 -0.7306
  895MOL0     H23467   3.589  10.625   4.630 -0.5117 -2.5578 -1.3343
  895MOL0     H23468   3.137  10.623   4.626 -0.7881 -1.9702  1.4016
  895MOL0     H23469   2.926  10.577   4.704 -1.4634  0.0687  2.0480
  895MOL0     H23470   2.881  10.726   4.631  2.7455 -2.0069 -1.6396
  895MOL0     H23471   2.823  10.693   4.800  1.1202 -0.4078  3.3448
  895MOL0     H23472   3.060  10.961   5.330  1.7936  2.0694 -2.1816
  895MOL0     H23473   2.907  11.060   5.529  0.2131  0.7726  0.8098
  895MOL0     H23474   2.488  11.057   5.475 -1.2579 -0.7222  1.8304
  895MOL0     H23475   2.600  10.952   5.538  1.7971  0.0189 -2.4298
  895MOL0     H23476   2.579  11.090   5.762 -0.9508  0.2948  0.5331
  895MOL0     H23477   2.504  11.217   5.662  3.2141 -0.0436  0.2341
  895MOL0     H23478   2.398  10.928   5.684 -4.4699 -1.2996  3.0309
  895MOL0     H23479   2.300  11.062   5.628 -1.2781 -4.0803 -0.8567
  895MOL0     H23480   2.325  11.162   5.875 -3.7878 -1.8509  2.0145
  895MOL0     H23481   2.425  11.017   5.905 -0.1605  0.8170  0.3956
  895MOL0     H23482   2.152  11.019   5.790  1.6379 -1.6145 -2.0085
  895MOL0     H23483   2.236  10.880   5.833 -1.5460 -0.4609 -1.5926
  895MOL0     H23484   2.054  10.978   6.015  0.1570 -2.0475  2.3916
  895MOL0     H23485   2.162  11.113   6.043 -3.9204 -0.6830  1.4763
  895MOL0     H23486   2.319  10.985   6.143  0.8986 -0.9156 -0.6034
  895MOL0     H23487   2.271  10.828   6.079  1.6244 -0.9170  1.9822
  895MOL0     H23488   2.214  10.819   6.306  2.7263 -0.1269 -1.4129
  895MOL0     H23489   2.062  10.845   6.215  1.4379 -2.0307 -1.7815
  895MOL0     H23490   2.609  11.148   5.244  0.5959 -2.2101 -2.9719
  895MOL0     H23491   2.733  11.019   5.063 -2.6667 -2.3346  1.8243
  895MOL0     H23492   3.231  10.883   5.023  1.2236 -0.0725 -1.5744
  895MOL0     H23493   3.396  10.786   4.915  0.2836 -0.9975 -1.4892
  895MOL0     H23494   4.502  10.823   6.085  3.5625  1.1817 -1.2757
  895MOL0     H23495   4.486  10.991   6.278 -2.2449 -0.4710  0.9514
  895MOL0     H23496   4.479  11.423   6.308  0.1798  0.2883  0.1283
  895MOL0     H23497   4.666  11.521   6.318  0.6920 -2.1114 -2.3748
  895MOL0     H23498   4.912  11.583   6.300 -2.4669 -0.2430 -0.8163
  895MOL0     H23499   4.809  11.635   6.428  1.1626  1.2524  3.0520
  895MOL0     H23500   5.088  11.531   6.501 -0.5771 -0.0907  0.6983
  895MOL0     H23501   4.989  11.656   6.585  0.1249 -1.6127 -0.0126
  895MOL0     H23502   5.048  11.790   6.348 -1.4119  0.7671  0.5143
  895MOL0     H23503   5.137  11.812   6.500  0.5506  1.5273 -2.3932
  895MOL0     H23504   5.280  11.748   6.298 -0.1083  1.4074  1.3700
  895MOL0     H23505   5.226  11.587   6.321 -1.1073  3.1770 -4.1551
  895MOL0     H23506   5.482  11.674   6.640  0.0641 -2.4391  0.9621
  895MOL0     H23507   4.840  11.208   6.538  1.4510 -0.4811 -3.2700
  895MOL0     H23508   4.604  11.066   6.675 -1.8760 -1.3385  0.5743
  895MOL0     H23509   4.535  10.971   6.550 -0.4741  0.5640  2.6809
  895MOL0     H23510   4.714  10.987   6.571  2.0113  2.1867 -0.1899
  896MOL0     O23511  11.141   2.276   7.699  0.2697  0.0849 -0.2776
  896MOL0     C23512  11.138   2.255   7.578  0.5063 -0.2667  0.4079
  896MOL0     O23513  11.029   2.275   7.496 -0.1876  0.0306  0.0173
  896MOL0     C23514  10.916   2.338   7.545  0.2861 -0.1183  0.6992
  896MOL0     C23515  10.791   2.302   7.496  0.8325 -0.4353  0.0489
  896MOL0     C23516  10.676   2.381   7.525 -1.8680  0.1734 -0.0653
  896MOL0     C23517  10.692   2.498   7.598  0.4312 -0.1820 -0.1777
  896MOL0     O23518  10.584   2.581   7.638  0.5937  0.2399 -0.3106
  896MOL0     C23519  10.460   2.510   7.678 -0.4471  0.2813 -0.0016
  896MOL0     C23520  10.358   2.600   7.753 -0.4879 -1.0012  0.4387
  896MOL0     C23521  10.431   2.698   7.848 -0.0058  1.0609  0.5085
  896MOL0     C23522  10.351   2.726   7.967  0.1387 -0.0327  0.4622
  896MOL0     C23523  10.414   2.816   8.077 -0.3300 -0.6435 -0.5582
  896MOL0     C23524  10.316   2.815   8.203 -0.1365  0.3760  0.6799
  896MOL0     C23525  10.218   2.942   8.209 -1.8649  0.1764  0.4896
  896MOL0     C23526  10.127   2.956   8.091  0.3415 -0.2178  0.3859
  896MOL0     N23527  10.011   3.042   8.126 -0.7292 -0.2940 -0.8743
  896MOL0     C23528  10.009   3.179   8.131  0.2786 -0.7051  0.1688
  896MOL0     C23529   9.877   3.215   8.098  0.5843 -0.6145  0.0378
  896MOL0     C23530   9.820   3.354   8.059 -0.3382  0.1902 -0.9681
  896MOL0     C23531   9.702   3.345   7.962 -0.4359  0.1429 -0.5443
  896MOL0     C23532   9.648   3.478   7.920 -0.3052  0.0346  0.0963
  896MOL0     C23533   9.582   3.541   8.040 -0.2161  1.0203 -1.2298
  896MOL0     O23534   9.490   3.636   7.998  0.7503  0.8824  1.4590
  896MOL0     C23535   9.427   3.703   8.094  1.0132  0.4162 -0.6076
  896MOL0     C23536   9.295   3.752   8.062  0.0886  0.8440  0.4595
  896MOL0     C23537   9.216   3.821   8.157  0.2208  0.2239 -1.0041
  896MOL0     C23538   9.070   3.858   8.114 -0.1609  0.3758  0.2554
  896MOL0     C23539   9.269   3.858   8.283  0.4481  0.7374  0.4246
  896MOL0     C23540   9.186   3.927   8.385 -0.5793  0.3688  0.7834
  896MOL0     O23541   9.223   3.908   8.522  0.1288  0.0160  0.5136
  896MOL0     C23542   9.152   3.944   8.627  1.2592 -0.6052  0.7477
  896MOL0     C23543   9.017   3.906   8.623  0.0788 -0.2996  0.3219
  896MOL0     C23544   8.950   3.924   8.744 -0.0423 -0.8299 -0.1856
  896MOL0     C23545   9.009   3.983   8.868 -0.9178  0.9481  0.5576
  896MOL0     O23546   8.950   3.994   8.983  0.0852  0.2069 -0.1103
  896MOL0     C23547   8.815   4.015   8.959  0.3177  0.1347  0.1418
  896MOL0     C23548   8.773   4.122   9.060  0.4349  0.0145 -0.6406
  896MOL0     C23549   8.618   4.140   9.060 -0.3630 -0.6863 -0.0652
  896MOL0     C23550   8.564   4.252   9.164 -0.8669  0.3967  0.1270
  896MOL0     C23551   8.422   4.233   9.209 -0.6574  0.3342 -0.1881
  896MOL0     C23552   8.335   4.228   9.071  0.2563 -0.0076 -0.8840
  896MOL0     C23553   8.177   4.208   9.096  0.3696 -0.0429  0.4549
  896MOL0     C23554   8.097   4.206   8.975 -0.3534 -0.1858  0.7684
  896MOL0    Cl23555   7.925   4.179   9.027 -0.3683 -0.2373 -0.2130
  896MOL0     C23556   9.139   4.015   8.861  0.0328  0.2130 -0.7639
  896MOL0     C23557   9.212   3.995   8.741 -0.9093  0.2554  0.1861
  896MOL0     O23558   9.126   4.027   8.350  0.0414 -0.1152 -0.4327
  896MOL0     C23559   9.398   3.806   8.318 -0.7782  0.4447  0.8158
  896MOL0     C23560   9.477   3.741   8.223  0.4309  0.7311  0.0024
  896MOL0     N23561   9.807   3.096   8.093 -0.3044  0.4742  0.2051
  896MOL0     N23562   9.882   2.992   8.109  0.0032 -0.3116 -0.6364
  896MOL0     C23563  10.819   2.545   7.639  0.1829 -0.5397  0.2238
  896MOL0     C23564  10.930   2.460   7.608  0.1298  0.0183 -0.1228
  896MOL0     C23565  11.275   2.208   7.525  0.3639  1.0386  0.2015
  896MOL0     C23566  11.394   2.268   7.574  0.3335 -0.1696 -0.0723
  896MOL0     C23567  11.521   2.227   7.523 -0.0068 -1.0919 -0.7911
  896MOL0     C23568  11.530   2.130   7.433 -1.3083  0.8487  0.7555
  896MOL0     O23569  11.667   2.097   7.405  0.4843 -0.0375 -0.0592
  896MOL0     C23570  11.684   1.971   7.333  0.3482  0.1015 -0.1213
  896MOL0     C23571  11.630   1.846   7.395  0.4346  0.4598 -0.5925
  896MOL0     C23572  11.705   1.796   7.516  0.3412 -0.0179 -0.3296
  896MOL0     C23573  11.686   1.647   7.555 -0.5822 -0.3758  0.0482
  896MOL0     C23574  11.728   1.642   7.684  0.8878 -0.2144 -0.2923
  896MOL0     C23575  11.779   1.633   7.795  0.0797  0.0261  0.3536
  896MOL0     C23576  11.415   2.105   7.357  0.4156 -0.8436 -0.1008
  896MOL0     C23577  11.291   2.132   7.408  0.1593  0.4517 -0.1717
  896MOL0     C23578  11.171   2.073   7.331  0.5182 -0.1672 -0.2406
  896MOL0     H23579  10.776   2.214   7.434  0.4201 -0.1165 -0.3068
  896MOL0     H23580  10.581   2.341   7.489 -1.3178 -1.9036  0.6587
  896MOL0     H23581  10.502   2.426   7.736  0.2393 -1.3598 -2.6923
  896MOL0     H23582  10.410   2.478   7.586 -1.2885 -0.6087  0.7479
  896MOL0     H23583  10.306   2.661   7.680 -0.5477 -0.8801  0.5825
  896MOL0     H23584  10.281   2.542   7.805 -1.9155 -1.9954 -2.5533
  896MOL0     H23585  10.528   2.653   7.870  0.7323  1.3929 -1.8288
  896MOL0     H23586  10.455   2.789   7.792  2.1195  0.0807 -0.3013
  896MOL0     H23587  10.262   2.777   7.930  1.0336  1.8844  0.8018
  896MOL0     H23588  10.321   2.630   8.010 -1.2484  0.4221  0.5507
  896MOL0     H23589  10.435   2.919   8.048 -1.3046  0.1810  1.4944
  896MOL0     H23590  10.504   2.769   8.119 -0.3882 -0.5756 -0.3596
  896MOL0     H23591  10.253   2.725   8.202 -0.3980  0.4587 -2.7256
  896MOL0     H23592  10.369   2.818   8.298 -1.6674 -0.4263  1.6066
  896MOL0     H23593  10.280   3.032   8.206 -0.9339 -0.4598  0.2877
  896MOL0     H23594  10.163   2.943   8.304  0.3692 -2.1264  1.9176
  896MOL0     H23595  10.183   3.010   8.014  4.8240 -0.4695  3.1008
  896MOL0     H23596  10.082   2.862   8.058  1.3272 -0.4252 -0.4225
  896MOL0     H23597  10.096   3.239   8.156 -0.5477  0.5559  0.1348
  896MOL0     H23598   9.908   3.415   8.033  0.4294 -1.0267 -1.2882
  896MOL0     H23599   9.778   3.399   8.150  1.4578 -2.7056  1.5026
  896MOL0     H23600   9.726   3.279   7.878  0.2398 -1.6705  1.0034
  896MOL0     H23601   9.614   3.296   8.005 -0.2641  0.9315  0.7630
  896MOL0     H23602   9.736   3.534   7.887  0.1365 -0.8675 -0.2863
  896MOL0     H23603   9.574   3.463   7.842  1.4234 -2.0881 -1.2652
  896MOL0     H23604   9.517   3.468   8.090 -1.0703  2.2202 -0.5444
  896MOL0     H23605   9.660   3.568   8.111 -0.0100 -1.9439 -0.1597
  896MOL0     H23606   9.262   3.727   7.961 -1.2928  1.4342  0.7516
  896MOL0     H23607   9.078   3.963   8.086 -1.9527  0.8972  1.5175
  896MOL0     H23608   8.993   3.856   8.192  1.7301  1.0259  2.2733
  896MOL0     H23609   9.037   3.805   8.024  0.5823 -0.3778  0.4143
  896MOL0     H23610   8.962   3.865   8.539 -1.7399  2.6291 -0.0697
  896MOL0     H23611   8.847   3.889   8.739  0.2498 -1.8054  0.3541
  896MOL0     H23612   8.787   4.060   8.863 -0.0905 -0.5049 -0.0444
  896MOL0     H23613   8.753   3.926   8.959  0.3864 -0.0151 -2.7186
  896MOL0     H23614   8.806   4.088   9.158  1.7123 -1.3997 -1.5142
  896MOL0     H23615   8.828   4.215   9.042  1.5747 -0.4804  0.1802
  896MOL0     H23616   8.576   4.043   9.087 -1.4500  0.2269  1.7237
  896MOL0     H23617   8.592   4.170   8.959  0.8533  0.1606 -0.1579
  896MOL0     H23618   8.555   4.339   9.099  0.6609  1.1620  0.8951
  896MOL0     H23619   8.631   4.287   9.243 -0.2982 -0.9052  0.2626
  896MOL0     H23620   8.407   4.137   9.260  0.8315 -1.0873 -2.2505
  896MOL0     H23621   8.398   4.323   9.267 -0.3489  0.1784  0.1821
  896MOL0     H23622   8.377   4.144   9.015  3.1110  1.2833 -0.9048
  896MOL0     H23623   8.347   4.318   9.010 -1.1493  2.2145  1.8341
  896MOL0     H23624   8.131   4.284   9.160  1.9842  0.9219  0.5327
  896MOL0     H23625   8.172   4.107   9.136 -0.8052 -0.7292 -1.2946
  896MOL0     H23626   8.128   4.123   8.912 -3.5050  0.3741 -1.8208
  896MOL0     H23627   8.103   4.303   8.923  0.2324  0.6956  2.4060
  896MOL0     H23628   9.193   4.049   8.949 -1.1929 -0.9154  0.4695
  896MOL0     H23629   9.320   4.011   8.733 -0.3963 -2.5703  0.6178
  896MOL0     H23630   9.437   3.827   8.417 -2.8398  0.3285  1.7069
  896MOL0     H23631   9.582   3.720   8.243  0.9701  2.2287 -1.0391
  896MOL0     H23632  10.823   2.643   7.685  1.8573  0.0999 -1.1758
  896MOL0     H23633  11.022   2.500   7.649 -1.5812  2.1116  1.9955
  896MOL0     H23634  11.407   2.342   7.652  1.9340  1.5462 -1.8555
  896MOL0     H23635  11.617   2.264   7.556 -1.1548  0.3284  1.2159
  896MOL0     H23636  11.641   1.986   7.234 -2.3781 -1.0854  0.7680
  896MOL0     H23637  11.793   1.966   7.329  0.5674  2.5050  0.7038
  896MOL0     H23638  11.653   1.768   7.322 -1.1538 -0.5331 -0.0725
  896MOL0     H23639  11.523   1.851   7.415  0.0362 -0.4354 -2.2725
  896MOL0     H23640  11.814   1.803   7.509  0.5610 -2.6230 -0.6415
  896MOL0     H23641  11.669   1.867   7.591 -1.4397  1.2299 -2.2257
  896MOL0     H23642  11.747   1.575   7.500 -1.7582 -1.7395  0.4568
  896MOL0     H23643  11.582   1.611   7.550 -0.0574 -2.0217  0.4825
  896MOL0     H23644  11.825   1.640   7.892  0.1169 -2.2656  0.5565
  896MOL0     H23645  11.407   2.063   7.257 -0.2213 -2.9935  0.8113
  896MOL0     H23646  11.125   2.154   7.274 -0.1564 -0.0528  0.4596
  896MOL0     H23647  11.206   1.994   7.264  0.1835 -1.6966  1.3073
  896MOL0     H23648  11.105   2.027   7.406 -1.5217  0.9545 -1.2614
  897MOL0     O23649   0.032   9.653   2.272 -0.7227  0.3959 -0.3612
  897MOL0     C23650   0.061   9.695   2.383  0.3003  0.2862 -0.2577
  897MOL0     O23651   0.180   9.672   2.449  0.6365 -0.1109  1.2167
  897MOL0     C23652   0.277   9.610   2.380  0.4514 -0.2930  0.9314
  897MOL0     C23653   0.262   9.473   2.342 -0.0617 -0.0736 -1.1264
  897MOL0     C23654   0.355   9.416   2.263 -0.2301  1.6114 -1.4177
  897MOL0     C23655   0.475   9.483   2.230  0.5459 -0.2134  0.1306
  897MOL0     O23656   0.563   9.417   2.157 -0.0936  0.3900 -0.5278
  897MOL0     C23657   0.595   9.466   2.026  0.0670  0.0231  0.0123
  897MOL0     C23658   0.659   9.364   1.927  0.1858  0.6132  0.9353
  897MOL0     C23659   0.651   9.423   1.784  0.2225 -0.8840 -0.1696
  897MOL0     C23660   0.661   9.317   1.672  0.4312 -0.3666 -0.8316
  897MOL0     C23661   0.680   9.383   1.541  0.5611 -0.3491  0.4547
  897MOL0     C23662   0.559   9.465   1.493 -1.0613 -0.2944 -0.1122
  897MOL0     C23663   0.597   9.486   1.341 -0.0846 -0.0244  0.5774
  897MOL0     C23664   0.497   9.586   1.279 -0.6887 -0.6931  0.1966
  897MOL0     N23665   0.506   9.589   1.133  0.2483 -0.4338  0.1245
  897MOL0     C23666   0.414   9.657   1.050 -0.5852  0.3488 -0.6368
  897MOL0     C23667   0.468   9.634   0.927 -0.4667 -0.1140  0.1139
  897MOL0     C23668   0.437   9.707   0.797  0.7405 -0.4084 -0.1073
  897MOL0     C23669   0.521   9.834   0.766 -1.0910 -0.2003  0.1752
  897MOL0     C23670   0.535   9.932   0.887  0.5180 -0.2133  0.3714
  897MOL0     C23671   0.627  10.054   0.866  0.0921  0.0006 -0.1812
  897MOL0     O23672   0.664  10.111   0.997 -0.3536 -0.1693 -0.3743
  897MOL0     C23673   0.725  10.232   1.003 -0.3397 -0.0162  0.3475
  897MOL0     C23674   0.821  10.277   0.904  0.0705 -0.4332 -0.7030
  897MOL0     C23675   0.892  10.391   0.920  0.2831 -0.0075  0.2875
  897MOL0     C23676   1.000  10.431   0.822 -1.2664  0.4347  1.3430
  897MOL0     C23677   0.868  10.473   1.029 -0.2377 -0.4465 -0.2986
  897MOL0     C23678   0.910  10.617   1.034 -0.2782 -1.3906 -0.0527
  897MOL0     O23679   0.922  10.659   1.163  0.7831 -0.1546 -0.2083
  897MOL0     C23680   0.939  10.793   1.191 -0.0526  0.5365 -0.1589
  897MOL0     C23681   1.026  10.828   1.297  0.4093 -0.0630 -0.3233
  897MOL0     C23682   1.036  10.963   1.333 -0.3927 -0.3520  0.1315
  897MOL0     C23683   0.971  11.064   1.260 -0.1572 -0.1060 -1.6078
  897MOL0     O23684   1.001  11.199   1.270  0.4636  0.3207 -0.2424
  897MOL0     C23685   1.118  11.246   1.343  0.1854 -0.0664  0.3048
  897MOL0     C23686   1.091  11.244   1.496 -0.4365 -0.9545  0.8394
  897MOL0     C23687   1.115  11.379   1.571  0.4639 -0.3959 -0.1171
  897MOL0     C23688   1.200  11.375   1.704  0.5842 -0.3643  0.6937
  897MOL0     C23689   1.236  11.514   1.751 -0.1890 -0.6494  0.5610
  897MOL0     C23690   1.118  11.602   1.797  0.3606  0.4174 -0.3876
  897MOL0     C23691   1.162  11.743   1.842  0.4777 -0.1332  0.0629
  897MOL0     C23692   1.051  11.819   1.911 -0.6653 -0.7047 -0.9289
  897MOL0    Cl23693   1.028  11.748   2.072 -0.0154  0.2622 -0.3514
  897MOL0     C23694   0.890  11.030   1.152  0.5128  0.1422 -0.5431
  897MOL0     C23695   0.866  10.900   1.119 -0.7856  1.3420 -0.8961
  897MOL0     O23696   0.916  10.690   0.930 -0.6430  0.1991 -0.3919
  897MOL0     C23697   0.770  10.426   1.130 -0.2876  0.6446 -0.2213
  897MOL0     C23698   0.705  10.306   1.119  0.5257 -0.2016 -0.7171
  897MOL0     N23699   0.578   9.557   0.941 -0.0958 -0.9712  0.0309
  897MOL0     N23700   0.587   9.521   1.066 -0.0692  1.2000  0.3228
  897MOL0     C23701   0.492   9.615   2.276 -0.9435  0.9537 -0.3997
  897MOL0     C23702   0.396   9.681   2.349 -0.3437  0.3481  0.5820
  897MOL0     C23703  -0.040   9.776   2.463  0.8339  0.7162 -0.0718
  897MOL0     C23704  -0.000   9.819   2.590  0.0063  0.8803 -0.1116
  897MOL0     C23705  -0.082   9.875   2.673 -1.1113 -0.1404  0.3628
  897MOL0     C23706  -0.208   9.920   2.631 -0.6790  0.2560 -0.7498
  897MOL0     O23707  -0.258   9.991   2.735 -0.1377 -0.7955 -0.3730
  897MOL0     C23708  -0.371  10.064   2.722 -0.2955  0.8381  0.0476
  897MOL0     C23709  -0.386  10.163   2.830 -1.0500  0.3471  0.0783
  897MOL0     C23710  -0.525  10.219   2.853 -0.6666  0.2287 -0.4610
  897MOL0     C23711  -0.603  10.274   2.725  0.5699  0.1587 -1.0045
  897MOL0     C23712  -0.540  10.393   2.668  0.0351  0.4963 -0.3283
  897MOL0     C23713  -0.500  10.493   2.612  0.1080 -0.0533  0.0273
  897MOL0     C23714  -0.256   9.885   2.506 -0.6986  1.0764 -0.3000
  897MOL0     C23715  -0.170   9.809   2.421  0.1911 -0.7105  0.1292
  897MOL0     C23716  -0.229   9.763   2.293  0.0484  0.2350 -0.2508
  897MOL0     H23717   0.179   9.415   2.379  1.0156 -0.1346  1.3840
  897MOL0     H23718   0.335   9.311   2.244 -4.4986  1.7819  0.8287
  897MOL0     H23719   0.668   9.545   2.045 -0.2851  0.3862 -0.1387
  897MOL0     H23720   0.501   9.510   1.994 -0.3618 -0.6976  0.2482
  897MOL0     H23721   0.762   9.330   1.942  0.0097 -1.2687 -1.4723
  897MOL0     H23722   0.620   9.263   1.917 -1.5488  1.3270  0.1395
  897MOL0     H23723   0.557   9.479   1.777 -1.3244 -3.3088  0.0353
  897MOL0     H23724   0.733   9.495   1.783 -1.6834  1.4752  1.3396
  897MOL0     H23725   0.752   9.263   1.698  0.5286  0.9854  1.9647
  897MOL0     H23726   0.579   9.245   1.664  0.9026 -0.9122 -0.8172
  897MOL0     H23727   0.711   9.301   1.475  1.8785 -0.0808  0.7111
  897MOL0     H23728   0.767   9.450   1.541 -0.6886  1.3206  0.7480
  897MOL0     H23729   0.469   9.404   1.507  0.4004 -2.7916 -0.8795
  897MOL0     H23730   0.543   9.561   1.544 -0.4424  0.1408 -0.7237
  897MOL0     H23731   0.572   9.393   1.289 -4.3456  2.1426 -1.7508
  897MOL0     H23732   0.700   9.520   1.328 -0.1387 -0.7440 -2.5139
  897MOL0     H23733   0.396   9.551   1.301 -1.8614  0.6006 -2.6207
  897MOL0     H23734   0.504   9.688   1.320  1.2906 -0.7245  0.0284
  897MOL0     H23735   0.343   9.733   1.080  2.6080  2.4550  2.5023
  897MOL0     H23736   0.332   9.739   0.798  0.1797 -2.1584  1.1315
  897MOL0     H23737   0.446   9.640   0.711  0.7628  3.2353 -3.2255
  897MOL0     H23738   0.623   9.811   0.736 -1.1361  0.9614 -0.9751
  897MOL0     H23739   0.475   9.892   0.685  0.6176  0.0311 -0.6768
  897MOL0     H23740   0.439   9.976   0.917  0.7051 -0.3952  1.2476
  897MOL0     H23741   0.579   9.876   0.970  2.8730  0.7928 -0.1296
  897MOL0     H23742   0.719  10.021   0.817 -0.5530  0.0829 -1.5010
  897MOL0     H23743   0.579  10.131   0.804 -0.2806  0.6511  0.8756
  897MOL0     H23744   0.845  10.209   0.822  2.0698 -0.0621 -0.4849
  897MOL0     H23745   0.959  10.505   0.753 -1.9937 -0.4851  0.7687
  897MOL0     H23746   1.028  10.341   0.766 -0.6116  0.2333  1.9662
  897MOL0     H23747   1.094  10.460   0.871 -0.0722 -1.8073  0.5278
  897MOL0     H23748   1.077  10.755   1.361  2.0384 -0.4696 -1.9972
  897MOL0     H23749   1.090  10.992   1.423  1.7130  3.0490 -1.9842
  897MOL0     H23750   1.203  11.186   1.312 -0.1362 -1.2426  1.5809
  897MOL0     H23751   1.141  11.348   1.309 -2.3177  0.2499 -0.6609
  897MOL0     H23752   0.993  11.201   1.518 -0.7242 -2.0935 -2.1300
  897MOL0     H23753   1.169  11.183   1.543  0.2194  0.2186  1.3008
  897MOL0     H23754   1.017  11.428   1.580 -0.0015 -1.4371  0.7267
  897MOL0     H23755   1.162  11.452   1.505  0.5542  0.2369  0.6336
  897MOL0     H23756   1.294  11.322   1.686  1.5907  0.8369  2.1362
  897MOL0     H23757   1.151  11.315   1.782  1.3807 -0.0205  1.4779
  897MOL0     H23758   1.305  11.520   1.836 -0.3562  0.8766  0.6258
  897MOL0     H23759   1.285  11.560   1.665  0.2843 -1.1785  0.5427
  897MOL0     H23760   1.059  11.544   1.869 -0.5754  1.4963 -0.2672
  897MOL0     H23761   1.053  11.608   1.709 -0.3391 -0.9479  0.0035
  897MOL0     H23762   1.184  11.788   1.745  2.0889 -1.3111 -0.1626
  897MOL0     H23763   1.257  11.735   1.894  1.5862  0.5540 -1.7517
  897MOL0     H23764   0.958  11.817   1.853 -1.8481 -0.7438  0.8843
  897MOL0     H23765   1.085  11.921   1.934  0.6594 -1.9017  3.4393
  897MOL0     H23766   0.843  11.113   1.100  0.5692  0.3216 -0.3066
  897MOL0     H23767   0.812  10.870   1.029 -0.5725 -1.3615 -0.2135
  897MOL0     H23768   0.748  10.488   1.216 -0.7137 -0.3641  0.4054
  897MOL0     H23769   0.632  10.269   1.190 -0.4219  3.8710  0.7549
  897MOL0     H23770   0.586   9.664   2.254  0.0694  0.1107  1.7842
  897MOL0     H23771   0.402   9.789   2.358 -2.9638  0.5443  0.8623
  897MOL0     H23772   0.094   9.793   2.638 -1.7606  2.6054  4.9362
  897MOL0     H23773  -0.025   9.904   2.761 -1.2939 -0.2432  0.5144
  897MOL0     H23774  -0.362  10.122   2.630  3.0347  0.7960  0.2050
  897MOL0     H23775  -0.460  10.001   2.710  0.3034  0.3421 -2.2154
  897MOL0     H23776  -0.311  10.242   2.820 -0.0246 -0.4657  1.1113
  897MOL0     H23777  -0.359  10.095   2.911  0.2305 -1.2140 -1.5907
  897MOL0     H23778  -0.589  10.147   2.905 -2.8935  2.6958  0.4475
  897MOL0     H23779  -0.512  10.301   2.925  2.0852  0.4733 -1.1200
  897MOL0     H23780  -0.698  10.301   2.772  1.8856  0.6669  1.5645
  897MOL0     H23781  -0.630  10.198   2.651  2.0152 -1.2903 -0.1055
  897MOL0     H23782  -0.453  10.571   2.555  0.2983 -0.2491 -0.0890
  897MOL0     H23783  -0.348   9.922   2.462 -0.6393  1.0483 -0.4485
  897MOL0     H23784  -0.205   9.829   2.209 -1.5049 -0.8116 -1.5778
  897MOL0     H23785  -0.198   9.664   2.259  2.7225  0.3534  1.5599
  897MOL0     H23786  -0.337   9.765   2.304  0.2463 -0.3228  2.3898
  898MOL0     O23787   4.947   4.140   7.187  0.0839 -0.9917  0.1355
  898MOL0     C23788   4.842   4.117   7.131 -0.9015  0.1861  0.7640
  898MOL0     O23789   4.736   4.053   7.173 -0.0186  0.3097  0.0734
  898MOL0     C23790   4.725   4.021   7.301  0.1113  0.7368  0.8317
  898MOL0     C23791   4.600   4.035   7.354 -0.5873 -0.1734  0.9964
  898MOL0     C23792   4.582   3.991   7.484 -0.5159 -0.6291  0.8635
  898MOL0     C23793   4.676   3.922   7.557 -0.0966  0.7163  0.7720
  898MOL0     O23794   4.657   3.867   7.683 -0.1242 -0.6346  0.0269
  898MOL0     C23795   4.531   3.814   7.715  1.2197  0.7667 -0.7188
  898MOL0     C23796   4.449   3.911   7.797 -0.2267  0.0458 -0.4948
  898MOL0     C23797   4.322   3.837   7.850 -0.3499  0.4416 -0.3378
  898MOL0     C23798   4.223   3.852   7.732 -0.5967 -0.7241 -0.5956
  898MOL0     C23799   4.122   3.751   7.730  1.6606  1.4652 -0.0300
  898MOL0     C23800   4.026   3.760   7.852 -0.2953  0.4005 -0.9617
  898MOL0     C23801   3.928   3.643   7.833  0.3078  0.1413 -0.1326
  898MOL0     C23802   3.794   3.694   7.783  0.5838  0.2437 -0.1938
  898MOL0     N23803   3.795   3.705   7.631 -0.8089  0.0630 -0.3739
  898MOL0     C23804   3.734   3.809   7.567 -0.2884 -0.3400 -0.5954
  898MOL0     C23805   3.714   3.756   7.441  0.3807 -0.1026 -0.1942
  898MOL0     C23806   3.647   3.843   7.343 -0.8951 -0.4811 -0.1566
  898MOL0     C23807   3.737   3.845   7.210  0.1281 -0.8681 -0.2308
  898MOL0     C23808   3.721   3.734   7.099 -0.2704  0.2753  0.4841
  898MOL0     C23809   3.796   3.771   6.971 -0.5007 -0.3485  0.3660
  898MOL0     O23810   3.782   3.898   6.912  0.9126  0.7092  0.9994
  898MOL0     C23811   3.858   3.943   6.806  0.4175  1.0019 -0.3231
  898MOL0     C23812   3.859   4.073   6.767 -0.6761  0.1393  0.2090
  898MOL0     C23813   3.932   4.126   6.660  0.1426 -0.1910  0.6491
  898MOL0     C23814   3.936   4.277   6.642  0.3806 -0.6384 -1.1999
  898MOL0     C23815   4.002   4.035   6.579 -0.0198  0.0729 -1.0612
  898MOL0     C23816   4.071   4.069   6.449  0.3117 -0.3489  0.8605
  898MOL0     O23817   4.127   3.968   6.388 -0.3022  0.3055  0.1483
  898MOL0     C23818   4.159   3.961   6.256  0.2777 -0.4379 -0.4305
  898MOL0     C23819   4.065   3.978   6.154 -0.4529  0.3057  0.4855
  898MOL0     C23820   4.093   3.957   6.019 -0.2659 -1.0326 -0.8644
  898MOL0     C23821   4.228   3.922   5.983  0.5099  1.2699 -0.5192
  898MOL0     O23822   4.272   3.882   5.858 -0.8459 -0.7156  0.8110
  898MOL0     C23823   4.181   3.820   5.763 -0.3614 -0.1702 -0.7031
  898MOL0     C23824   4.170   3.926   5.651  1.1862  0.3274 -0.1168
  898MOL0     C23825   4.047   3.917   5.570 -0.2548 -1.1877  0.6850
  898MOL0     C23826   4.071   4.039   5.476 -1.3744  0.1361 -0.2434
  898MOL0     C23827   3.961   4.042   5.370  0.1303  0.2485  0.0206
  898MOL0     C23828   4.006   4.162   5.284 -0.5237  0.3521 -0.5124
  898MOL0     C23829   3.894   4.208   5.178 -0.5911 -0.3300  0.2301
  898MOL0     C23830   3.952   4.288   5.060  0.6179  0.6312 -0.0109
  898MOL0    Cl23831   3.959   4.181   4.926  0.0793  0.5595 -0.1428
  898MOL0     C23832   4.318   3.915   6.084 -0.1787  0.1026 -0.2150
  898MOL0     C23833   4.288   3.930   6.220 -0.0357  0.2489  0.9080
  898MOL0     O23834   4.053   4.180   6.398  0.0014  0.4522 -0.0479
  898MOL0     C23835   4.003   3.896   6.618  0.2097 -0.6418 -0.8080
  898MOL0     C23836   3.942   3.856   6.736  0.6061  0.3774  0.2166
  898MOL0     N23837   3.781   3.633   7.430 -0.2313 -0.2565  0.8361
  898MOL0     N23838   3.831   3.604   7.545  1.2315  0.8113 -1.1569
  898MOL0     C23839   4.797   3.899   7.502 -0.4852  0.2101 -0.1297
  898MOL0     C23840   4.822   3.944   7.377  0.2033  0.1212  1.1517
  898MOL0     C23841   4.827   4.168   6.988 -0.2578  0.2411  1.6789
  898MOL0     C23842   4.692   4.177   6.941  0.0159  0.4373 -0.0166
  898MOL0     C23843   4.669   4.220   6.808  0.4731 -0.1649  0.2888
  898MOL0     C23844   4.784   4.254   6.723  0.4946  0.3421  0.7137
  898MOL0     O23845   4.756   4.314   6.602  0.3490 -0.1152 -0.3319
  898MOL0     C23846   4.849   4.375   6.509 -0.8017 -0.8033 -0.7149
  898MOL0     C23847   4.899   4.518   6.545  1.0785 -0.0373 -0.9005
  898MOL0     C23848   5.031   4.529   6.628  0.4581 -0.0372  0.3339
  898MOL0     C23849   5.068   4.674   6.663 -0.2096 -0.3287 -1.1586
  898MOL0     C23850   5.014   4.718   6.788  0.0294  0.7287 -0.4822
  898MOL0     C23851   4.971   4.770   6.892 -0.2773 -0.2893 -1.4363
  898MOL0     C23852   4.916   4.223   6.769  0.3471  0.8946  0.1383
  898MOL0     C23853   4.938   4.189   6.902  1.1796 -0.0637  0.4276
  898MOL0     C23854   5.079   4.182   6.946  0.1903 -1.2349 -0.7386
  898MOL0     H23855   4.517   4.073   7.297 -0.9279 -3.2675 -0.8166
  898MOL0     H23856   4.494   4.027   7.537  0.5383  0.9650  1.5968
  898MOL0     H23857   4.561   3.737   7.787  0.2051 -0.7197 -1.8322
  898MOL0     H23858   4.474   3.764   7.636  0.4770  1.4864 -0.6506
  898MOL0     H23859   4.508   3.918   7.889 -1.6254 -0.6966  0.5008
  898MOL0     H23860   4.426   4.009   7.754 -0.7680 -0.1120 -0.5681
  898MOL0     H23861   4.339   3.732   7.874 -1.3496  0.5779  1.1300
  898MOL0     H23862   4.297   3.886   7.945  2.3138  1.1140  0.1132
  898MOL0     H23863   4.176   3.949   7.748 -0.0857 -0.3718 -1.1730
  898MOL0     H23864   4.251   3.854   7.626 -7.0711  1.4523 -2.8023
  898MOL0     H23865   4.170   3.653   7.741  0.2015  0.5736 -1.1858
  898MOL0     H23866   4.072   3.743   7.633  1.7270 -0.5752  0.0427
  898MOL0     H23867   4.084   3.757   7.946 -0.8601  2.3477 -0.5087
  898MOL0     H23868   3.966   3.851   7.847 -0.9379  0.2982  2.3090
  898MOL0     H23869   3.922   3.595   7.932 -0.3604  0.5409  0.0304
  898MOL0     H23870   3.961   3.559   7.772 -0.4590 -0.4258  0.2058
  898MOL0     H23871   3.716   3.618   7.792  1.7884 -1.0628 -0.3897
  898MOL0     H23872   3.762   3.782   7.840 -0.0478 -1.4857  2.2801
  898MOL0     H23873   3.711   3.900   7.620  3.5145 -0.8278  2.3586
  898MOL0     H23874   3.633   3.945   7.381  1.9766 -1.4831  4.4096
  898MOL0     H23875   3.549   3.800   7.321 -0.9279  0.5088 -2.1991
  898MOL0     H23876   3.725   3.947   7.172 -0.7036 -1.1882 -0.8700
  898MOL0     H23877   3.840   3.834   7.245  0.0281 -2.1803 -0.2975
  898MOL0     H23878   3.760   3.639   7.137 -1.2999 -0.1914  0.3942
  898MOL0     H23879   3.616   3.726   7.072 -0.3980  3.3934 -0.2895
  898MOL0     H23880   3.904   3.762   6.992 -0.3488  2.5357  1.2667
  898MOL0     H23881   3.769   3.701   6.891 -0.4211 -0.1954  0.2061
  898MOL0     H23882   3.802   4.147   6.821 -0.9752  0.5732 -0.6828
  898MOL0     H23883   3.862   4.308   6.567 -0.5801  2.1486  0.7085
  898MOL0     H23884   4.029   4.315   6.600  1.4493  1.0558  2.3359
  898MOL0     H23885   3.912   4.323   6.739  1.6248 -3.7887  0.7456
  898MOL0     H23886   3.963   3.995   6.188 -0.9910 -0.9208 -0.4092
  898MOL0     H23887   4.016   3.949   5.943 -0.5881 -0.2389 -0.6263
  898MOL0     H23888   4.233   3.741   5.709 -0.2365  1.6295 -3.4400
  898MOL0     H23889   4.083   3.788   5.801 -0.6271  0.8771 -0.4549
  898MOL0     H23890   4.171   4.018   5.709 -1.4824  0.7307 -0.5831
  898MOL0     H23891   4.256   3.918   5.583 -1.7377  1.6871 -4.4348
  898MOL0     H23892   3.966   3.932   5.641  0.5854  1.4056  1.1815
  898MOL0     H23893   4.049   3.828   5.506  0.3978 -1.5462  1.1922
  898MOL0     H23894   4.164   4.023   5.421 -0.5895 -0.8850  1.3290
  898MOL0     H23895   4.088   4.140   5.516 -1.7387  0.7517 -1.5856
  898MOL0     H23896   3.973   3.955   5.305  0.1843  0.3560 -0.1161
  898MOL0     H23897   3.861   4.044   5.415 -1.1815 -1.2350 -2.5660
  898MOL0     H23898   4.101   4.152   5.231 -1.3395 -0.1583 -1.9666
  898MOL0     H23899   4.019   4.247   5.351  0.3973  0.4837 -0.8430
  898MOL0     H23900   3.824   4.271   5.234  1.4592  1.0783  1.3560
  898MOL0     H23901   3.838   4.123   5.138  1.6212 -1.3947 -0.7567
  898MOL0     H23902   4.042   4.337   5.099  0.9531 -1.1362  1.6201
  898MOL0     H23903   3.880   4.368   5.043 -1.4789 -0.6323  2.3761
  898MOL0     H23904   4.422   3.899   6.055  1.0663  3.4831  1.7770
  898MOL0     H23905   4.365   3.923   6.296  0.5651  0.8675  0.3672
  898MOL0     H23906   4.055   3.828   6.550 -1.6201  0.2668 -3.2795
  898MOL0     H23907   3.967   3.751   6.749 -1.1995 -0.6332 -3.2500
  898MOL0     H23908   4.878   3.852   7.557 -0.5438  2.0206  1.5869
  898MOL0     H23909   4.919   3.927   7.330 -1.3324  0.6409 -2.5035
  898MOL0     H23910   4.623   4.145   7.018  3.9389  1.7013  4.4980
  898MOL0     H23911   4.564   4.232   6.784  0.3000  0.7181  1.3935
  898MOL0     H23912   4.928   4.300   6.504 -0.0998 -0.0920 -0.3217
  898MOL0     H23913   4.806   4.369   6.408  0.3552 -1.5172 -1.1924
  898MOL0     H23914   4.810   4.561   6.592 -0.5272 -1.3472 -2.5985
  898MOL0     H23915   4.919   4.558   6.445  2.7647  3.0982  0.5487
  898MOL0     H23916   5.039   4.463   6.715  2.4111 -1.6402 -0.9715
  898MOL0     H23917   5.111   4.496   6.562  1.5858  1.2688  1.0008
  898MOL0     H23918   5.024   4.737   6.586 -2.4904  0.8491  0.9687
  898MOL0     H23919   5.174   4.702   6.655 -0.3337  0.8792  0.6898
  898MOL0     H23920   4.919   4.814   6.974 -0.4805 -0.0699 -1.6819
  898MOL0     H23921   5.001   4.231   6.703 -0.0908 -1.1590 -0.7399
  898MOL0     H23922   5.101   4.104   7.019 -0.2364  1.8285  3.0014
  898MOL0     H23923   5.154   4.171   6.867  0.1081 -2.8428 -0.6086
  898MOL0     H23924   5.102   4.282   6.984  0.0769 -1.7947  0.8558
  899MOL0     O23925  11.260   2.324  11.035  0.1326  0.5445  0.6860
  899MOL0     C23926  11.370   2.314  11.091 -0.7779  0.6572  0.4005
  899MOL0     O23927  11.414   2.222  11.191  0.3051 -0.1740  0.4667
  899MOL0     C23928  11.315   2.141  11.252  0.2251  0.6691  0.5101
  899MOL0     C23929  11.313   2.120  11.392 -0.0488 -0.5628 -0.0074
  899MOL0     C23930  11.221   2.033  11.444 -0.9877  0.0072 -1.2813
  899MOL0     C23931  11.137   1.948  11.368 -0.4267  1.0390  0.6292
  899MOL0     O23932  11.056   1.840  11.401 -0.0281 -1.2799 -0.8116
  899MOL0     C23933  11.051   1.802  11.543  0.4247 -0.1297  0.2611
  899MOL0     C23934  10.937   1.691  11.564 -0.7288  0.3914  0.0097
  899MOL0     C23935  11.004   1.556  11.582 -0.1387 -0.6997 -2.2882
  899MOL0     C23936  10.901   1.437  11.586  0.2039 -0.2406 -0.3191
  899MOL0     C23937  10.994   1.325  11.609  0.3620  0.1227  0.0432
  899MOL0     C23938  10.918   1.205  11.623 -0.6679 -0.7958 -0.4489
  899MOL0     C23939  10.843   1.187  11.753 -0.2182  0.3302 -0.9334
  899MOL0     C23940  10.808   1.048  11.805  0.4438 -0.4152 -0.3292
  899MOL0     N23941  10.712   0.975  11.717 -0.4459 -0.2443  0.4140
  899MOL0     C23942  10.748   0.857  11.641 -0.1489 -0.7816 -0.9728
  899MOL0     C23943  10.659   0.859  11.540 -0.8900  0.6941 -0.4824
  899MOL0     C23944  10.639   0.762  11.433  0.4666  0.2258 -0.3391
  899MOL0     C23945  10.614   0.616  11.476 -0.1027  0.1435  0.6187
  899MOL0     C23946  10.740   0.539  11.497 -0.4248  0.0511 -1.3284
  899MOL0     C23947  10.709   0.398  11.557  0.1416 -1.6928  0.1311
  899MOL0     O23948  10.827   0.329  11.559 -0.3565  0.4204 -0.6280
  899MOL0     C23949  10.829   0.205  11.627 -0.1916 -0.3774  1.1037
  899MOL0     C23950  10.948   0.158  11.668  0.2241 -0.3780  0.3606
  899MOL0     C23951  10.959   0.024  11.719 -0.2101 -0.3057  0.4729
  899MOL0     C23952  11.098  -0.020  11.747 -0.0228 -0.0198 -0.7482
  899MOL0     C23953  10.846  -0.063  11.715 -0.0251  0.2805 -0.4114
  899MOL0     C23954  10.828  -0.204  11.760  0.6891 -0.8207 -0.3935
  899MOL0     O23955  10.702  -0.247  11.805  0.9137  0.1896  0.2768
  899MOL0     C23956  10.689  -0.384  11.826 -0.3798 -0.3197 -0.0796
  899MOL0     C23957  10.741  -0.483  11.755  0.9302  0.0155 -0.0821
  899MOL0     C23958  10.704  -0.617  11.772 -0.1942  0.4991  0.1469
  899MOL0     C23959  10.616  -0.655  11.870  0.4490 -0.7813 -0.2731
  899MOL0     O23960  10.572  -0.783  11.886  0.2803 -0.4428  0.0879
  899MOL0     C23961  10.543  -0.840  12.009 -0.4913  0.4390 -0.2962
  899MOL0     C23962  10.537  -0.990  12.014 -0.4475 -0.4658  0.7252
  899MOL0     C23963  10.417  -1.050  11.938 -0.6794  0.2616  0.9276
  899MOL0     C23964  10.280  -0.985  11.961 -0.5046 -0.0487  0.0172
  899MOL0     C23965  10.198  -1.057  12.059  0.1162 -0.1310 -0.6772
  899MOL0     C23966  10.075  -0.976  12.105  0.0272  0.5539  0.7801
  899MOL0     C23967   9.985  -1.056  12.184  0.4500 -0.1244  0.0426
  899MOL0     C23968   9.859  -0.977  12.231 -0.4278  0.6541 -0.0180
  899MOL0    Cl23969   9.757  -0.923  12.090  0.0944 -0.2407 -0.2822
  899MOL0     C23970  10.552  -0.555  11.934  0.9230 -0.0640 -0.3594
  899MOL0     C23971  10.590  -0.421  11.916 -0.3407 -0.1600 -1.7173
  899MOL0     O23972  10.926  -0.273  11.742  0.8422 -0.1570  0.4908
  899MOL0     C23973  10.724  -0.002  11.686 -0.2031  0.0678  0.7949
  899MOL0     C23974  10.719   0.120  11.639 -0.7099 -0.6140  0.2090
  899MOL0     N23975  10.573   0.959  11.552  0.4533  0.1617  0.1010
  899MOL0     N23976  10.605   1.025  11.658 -1.0459 -0.0490 -0.7141
  899MOL0     C23977  11.139   1.975  11.236 -0.0282  0.2055 -0.3021
  899MOL0     C23978  11.227   2.064  11.178 -0.2278  1.0511  0.1489
  899MOL0     C23979  11.471   2.412  11.056 -0.3361 -1.0436 -1.2024
  899MOL0     C23980  11.472   2.476  10.938 -0.7637  0.2805 -0.0700
  899MOL0     C23981  11.562   2.574  10.894 -0.6668 -0.0090  0.8210
  899MOL0     C23982  11.649   2.628  10.984 -0.0133  0.4672  0.7318
  899MOL0     O23983  11.744   2.721  10.947 -0.3704  0.0257  0.0293
  899MOL0     C23984  11.743   2.788  10.825 -1.0012 -0.0132 -1.1560
  899MOL0     C23985  11.627   2.890  10.806  0.9951  0.6706 -0.3817
  899MOL0     C23986  11.577   2.968  10.931  0.1222 -0.8442 -0.0160
  899MOL0     C23987  11.463   3.053  10.895 -0.2050 -0.5200 -0.4096
  899MOL0     C23988  11.397   3.113  11.012  0.0023 -0.5136 -0.8702
  899MOL0     C23989  11.342   3.160  11.109  0.2020 -0.8568  1.1967
  899MOL0     C23990  11.638   2.580  11.117  0.5127 -0.2831 -0.3879
  899MOL0     C23991  11.554   2.471  11.153 -0.7305 -0.2831 -0.2291
  899MOL0     C23992  11.557   2.427  11.297 -0.2470  0.7307 -0.2210
  899MOL0     H23993  11.368   2.191  11.452  0.2356  1.9477 -2.9430
  899MOL0     H23994  11.215   2.027  11.552  3.2609 -1.5447 -0.9433
  899MOL0     H23995  11.032   1.891  11.604  2.7774 -0.9144  2.2762
  899MOL0     H23996  11.153   1.770  11.566  1.7264  3.7580  0.7032
  899MOL0     H23997  10.867   1.713  11.645  1.6052  3.1605  1.4566
  899MOL0     H23998  10.881   1.695  11.470 -3.3822 -0.5915  1.4414
  899MOL0     H23999  11.077   1.555  11.501 -0.5013  0.7604 -2.6637
  899MOL0     H24000  11.051   1.555  11.680  0.2127 -2.3961 -2.4443
  899MOL0     H24001  10.829   1.450  11.668 -1.0685 -1.1899 -1.2445
  899MOL0     H24002  10.850   1.424  11.490  3.8109  3.6489 -3.1492
  899MOL0     H24003  11.055   1.339  11.699 -0.5852  1.8208  0.4747
  899MOL0     H24004  11.054   1.329  11.518 -1.9093  3.5383 -1.5439
  899MOL0     H24005  10.853   1.188  11.536 -1.8851 -4.6091  1.0228
  899MOL0     H24006  10.980   1.115  11.619 -3.0407 -2.6176  0.9179
  899MOL0     H24007  10.748   1.239  11.736 -0.7313 -0.2221  0.1531
  899MOL0     H24008  10.897   1.241  11.831 -1.5549  0.2008  0.1265
  899MOL0     H24009  10.904   0.996  11.815  1.5168  1.3254 -1.1736
  899MOL0     H24010  10.769   1.053  11.907  0.8984 -4.2182  0.1827
  899MOL0     H24011  10.821   0.782  11.667 -3.2374 -3.5969  0.4105
  899MOL0     H24012  10.727   0.767  11.368  2.0738 -1.4727  1.5351
  899MOL0     H24013  10.545   0.787  11.384 -1.0635  1.8515  3.0182
  899MOL0     H24014  10.539   0.602  11.555 -1.5899 -0.0905 -0.7916
  899MOL0     H24015  10.569   0.568  11.389  1.0033  1.3875 -0.7008
  899MOL0     H24016  10.801   0.534  11.406  0.5602 -0.0606 -0.6749
  899MOL0     H24017  10.799   0.584  11.578 -0.3688 -3.7206  0.9698
  899MOL0     H24018  10.659   0.412  11.653  0.4671 -0.6180  0.1581
  899MOL0     H24019  10.636   0.354  11.488 -1.5248  0.5042  0.4134
  899MOL0     H24020  11.037   0.215  11.646 -0.3256 -0.0413 -1.0900
  899MOL0     H24021  11.143  -0.070  11.661 -0.3219  0.7349 -1.3547
  899MOL0     H24022  11.102  -0.093  11.829  0.2177  0.5768 -0.2209
  899MOL0     H24023  11.163   0.062  11.778  1.3205 -1.7840  1.4678
  899MOL0     H24024  10.808  -0.475  11.670 -1.3191 -2.1676 -2.2455
  899MOL0     H24025  10.748  -0.688  11.702 -1.3310  1.3631 -1.5177
  899MOL0     H24026  10.626  -0.814  12.075  0.1284 -1.0518 -0.4541
  899MOL0     H24027  10.456  -0.806  12.067 -0.9051  0.0301 -0.6628
  899MOL0     H24028  10.629  -1.037  11.979 -1.2117 -0.3934 -1.5477
  899MOL0     H24029  10.528  -1.018  12.120 -2.2946  0.1261  0.7610
  899MOL0     H24030  10.418  -1.157  11.961 -1.2278 -0.2012 -0.9918
  899MOL0     H24031  10.448  -1.040  11.834 -4.6552  1.1807 -0.3294
  899MOL0     H24032  10.220  -0.973  11.871  0.1768  0.7048 -0.3511
  899MOL0     H24033  10.289  -0.879  11.988  0.3173  0.1815 -1.1212
  899MOL0     H24034  10.183  -1.165  12.048 -0.3343 -0.2668  0.9973
  899MOL0     H24035  10.272  -1.058  12.140  2.0556 -1.3495 -2.3715
  899MOL0     H24036  10.021  -0.926  12.024 -2.6039 -1.3942  1.1818
  899MOL0     H24037  10.123  -0.901  12.169 -0.7232  0.3439  1.6129
  899MOL0     H24038  10.037  -1.102  12.268 -1.1663 -3.4746 -0.5916
  899MOL0     H24039   9.960  -1.136  12.113  2.2498 -0.9430  0.2810
  899MOL0     H24040   9.903  -0.903  12.299 -0.0313 -0.8205  1.3829
  899MOL0     H24041   9.800  -1.040  12.297 -1.8060 -0.0372 -1.8190
  899MOL0     H24042  10.490  -0.580  12.019  0.2605 -0.8313 -1.0524
  899MOL0     H24043  10.533  -0.346  11.970 -0.3931  0.2916 -2.3832
  899MOL0     H24044  10.630  -0.058  11.689  0.5287 -1.2617  0.1581
  899MOL0     H24045  10.626   0.159  11.599 -1.6722 -1.0740  1.8760
  899MOL0     H24046  11.074   1.908  11.182  0.3903  0.6971 -1.4583
  899MOL0     H24047  11.231   2.089  11.073 -2.8371  1.7170  0.1348
  899MOL0     H24048  11.390   2.448  10.874 -1.4225  0.0329  0.8641
  899MOL0     H24049  11.567   2.577  10.785  1.6333  0.2435  0.8869
  899MOL0     H24050  11.837   2.841  10.840  0.1007 -1.6801 -1.8484
  899MOL0     H24051  11.757   2.721  10.740  0.6681 -0.0569 -0.8709
  899MOL0     H24052  11.537   2.836  10.775 -0.3291  2.5015  0.0249
  899MOL0     H24053  11.658   2.973  10.742  0.0642  3.1078  2.0892
  899MOL0     H24054  11.544   2.901  11.010  0.7370  1.9577  2.8420
  899MOL0     H24055  11.668   3.014  10.971  1.4493 -1.2574 -2.3325
  899MOL0     H24056  11.385   3.003  10.837  1.0619 -3.1039 -0.0074
  899MOL0     H24057  11.499   3.136  10.834 -1.4232  0.1701 -0.2393
  899MOL0     H24058  11.283   3.209  11.184  3.3308  1.0484  2.6415
  899MOL0     H24059  11.695   2.631  11.194  0.8868  1.2207 -1.6112
  899MOL0     H24060  11.459   2.428  11.345 -0.0499  2.0651  0.2002
  899MOL0     H24061  11.606   2.329  11.302 -0.9186  0.3664 -0.5890
  899MOL0     H24062  11.612   2.493  11.365 -1.6817  2.6442 -0.8506
  900MOL0     O24063   1.952   1.881   4.531 -0.3032  0.9939  0.6304
  900MOL0     C24064   2.054   1.866   4.462  0.4732  0.4819  0.4182
  900MOL0     O24065   2.158   1.780   4.489 -0.1072 -0.3030  0.6007
  900MOL0     C24066   2.153   1.700   4.601 -0.3649  0.4066 -0.5141
  900MOL0     C24067   2.094   1.581   4.580  0.3685  0.5256 -1.0422
  900MOL0     C24068   2.083   1.492   4.691 -0.0214  0.1578  0.1950
  900MOL0     C24069   2.129   1.529   4.822 -0.3441 -0.4165 -0.1864
  900MOL0     O24070   2.117   1.444   4.934 -0.2224 -0.0481 -0.4078
  900MOL0     C24071   2.009   1.342   4.929  0.6334  0.2389 -0.5914
  900MOL0     C24072   1.958   1.305   5.067  0.0726  0.4223  0.5966
  900MOL0     C24073   1.924   1.413   5.170 -1.1137  0.7339  0.2012
  900MOL0     C24074   1.785   1.433   5.199 -0.0462 -0.8141 -0.6903
  900MOL0     C24075   1.756   1.505   5.334  0.2361  0.2988 -0.8076
  900MOL0     C24076   1.810   1.650   5.354  0.3454  0.6535 -0.0888
  900MOL0     C24077   1.781   1.719   5.486  0.5773 -1.0231 -0.2475
  900MOL0     C24078   1.758   1.870   5.494  0.1753 -0.1753  0.9103
  900MOL0     N24079   1.635   1.910   5.435  0.1567 -0.0907  0.4780
  900MOL0     C24080   1.604   1.951   5.305  0.7551 -0.7960 -1.4969
  900MOL0     C24081   1.481   2.007   5.317 -0.3701 -0.0093  0.1545
  900MOL0     C24082   1.403   2.074   5.218  0.5965  0.5124  0.9000
  900MOL0     C24083   1.431   2.222   5.240 -0.0653  0.3124 -0.0557
  900MOL0     C24084   1.344   2.310   5.142  0.0668  0.4572  0.1603
  900MOL0     C24085   1.370   2.444   5.172  0.5522 -0.7428  0.7083
  900MOL0     O24086   1.502   2.463   5.111 -0.4154  0.2060 -0.4494
  900MOL0     C24087   1.586   2.564   5.153  1.3503 -0.4242 -0.3625
  900MOL0     C24088   1.722   2.562   5.126 -0.6247  0.2049 -0.7113
  900MOL0     C24089   1.804   2.663   5.182 -0.1572  0.1318  0.9259
  900MOL0     C24090   1.948   2.660   5.146  0.5259  0.2718 -0.6250
  900MOL0     C24091   1.758   2.772   5.263 -0.0708 -0.4627 -0.0360
  900MOL0     C24092   1.847   2.873   5.326  0.5400  1.2656 -0.2844
  900MOL0     O24093   1.779   2.987   5.367 -0.2041  0.4556  0.1456
  900MOL0     C24094   1.846   3.085   5.425  0.1164  0.0395 -0.5121
  900MOL0     C24095   1.796   3.140   5.538  0.3280 -0.2361 -0.5116
  900MOL0     C24096   1.840   3.255   5.585  0.4653 -0.3803  0.0661
  900MOL0     C24097   1.943   3.327   5.522 -0.6097  0.4757  1.1863
  900MOL0     O24098   1.984   3.443   5.584  0.0710  0.4312  0.2920
  900MOL0     C24099   2.074   3.529   5.507 -0.1214  0.7656 -1.4465
  900MOL0     C24100   2.097   3.661   5.581  0.1454 -0.0841  1.0765
  900MOL0     C24101   2.197   3.738   5.500  0.2019 -0.0472  0.2922
  900MOL0     C24102   2.338   3.699   5.529  0.5963  0.2560 -0.4914
  900MOL0     C24103   2.444   3.792   5.484 -0.2936 -0.1358 -0.4685
  900MOL0     C24104   2.580   3.729   5.506  0.8813 -0.9519  1.0777
  900MOL0     C24105   2.686   3.821   5.436 -0.4717  0.7258 -0.8063
  900MOL0     C24106   2.829   3.765   5.442  0.6270  0.9423  0.3694
  900MOL0    Cl24107   2.954   3.872   5.375  0.1196  0.7259 -0.4734
  900MOL0     C24108   1.991   3.276   5.398  1.1334 -0.4499  0.0596
  900MOL0     C24109   1.942   3.153   5.354 -0.3223  0.8715  0.0497
  900MOL0     O24110   1.965   2.856   5.345  0.5095  0.0945 -0.0018
  900MOL0     C24111   1.623   2.764   5.296 -0.1049 -0.4968 -0.5564
  900MOL0     C24112   1.541   2.663   5.248  0.5670 -0.2813  1.4090
  900MOL0     N24113   1.431   1.989   5.440  0.0350 -0.3308  0.2682
  900MOL0     N24114   1.527   1.938   5.513  0.9929 -0.3305  0.3414
  900MOL0     C24115   2.186   1.655   4.847  0.4928 -0.4502  1.2601
  900MOL0     C24116   2.196   1.740   4.731 -0.8473 -0.6668  0.3472
  900MOL0     C24117   2.089   1.963   4.351  0.3643  0.5568  0.4211
  900MOL0     C24118   2.221   1.962   4.298 -1.0154 -0.6003  0.3653
  900MOL0     C24119   2.259   2.045   4.187  0.0816  0.7720  0.3885
  900MOL0     C24120   2.161   2.125   4.126  0.4998  1.8777  0.1581
  900MOL0     O24121   2.187   2.197   4.013  0.1745 -0.2699  0.1165
  900MOL0     C24122   2.289   2.138   3.929  0.4004 -0.3803  0.2355
  900MOL0     C24123   2.312   2.232   3.816 -0.7877 -0.3089  0.3565
  900MOL0     C24124   2.197   2.231   3.719  0.1932 -0.2820 -0.4917
  900MOL0     C24125   2.194   2.384   3.645 -0.3116 -0.3580  0.6577
  900MOL0     C24126   2.318   2.437   3.585 -1.6214 -0.2929  0.7790
  900MOL0     C24127   2.421   2.481   3.549 -0.0004 -0.2839  0.4264
  900MOL0     C24128   2.030   2.124   4.176 -0.4510  0.3887  0.1198
  900MOL0     C24129   1.995   2.055   4.293 -0.2463 -0.5819 -0.9383
  900MOL0     C24130   1.857   2.084   4.335  0.3673  0.5577 -0.3863
  900MOL0     H24131   2.050   1.560   4.483  1.9364 -0.6422 -1.5354
  900MOL0     H24132   2.040   1.393   4.682 -1.2681  0.6726  0.3619
  900MOL0     H24133   2.055   1.253   4.886  2.7684  0.1199  1.6863
  900MOL0     H24134   1.920   1.373   4.874  0.1609  1.2259  0.6883
  900MOL0     H24135   1.880   1.230   5.054  0.2255 -0.3481  3.5119
  900MOL0     H24136   2.047   1.249   5.098  0.3818  0.5958  0.0382
  900MOL0     H24137   1.966   1.381   5.266 -2.4600  1.9882  1.2518
  900MOL0     H24138   1.963   1.509   5.134  0.2690  0.0349 -0.2343
  900MOL0     H24139   1.748   1.491   5.114  0.6013 -2.0650 -1.8621
  900MOL0     H24140   1.734   1.337   5.200 -0.4150 -0.7417 -4.0968
  900MOL0     H24141   1.792   1.447   5.419 -0.1126  1.6589  0.2967
  900MOL0     H24142   1.651   1.497   5.364 -0.0186 -3.1453 -2.1323
  900MOL0     H24143   1.916   1.660   5.330  0.8491  3.9773  2.6750
  900MOL0     H24144   1.765   1.712   5.276 -1.8696  0.0232  0.6158
  900MOL0     H24145   1.858   1.699   5.562  0.8492  0.9230  0.0400
  900MOL0     H24146   1.694   1.666   5.526 -0.6706 -1.3781 -3.1708
  900MOL0     H24147   1.758   1.900   5.599 -1.3225 -0.8635  1.1270
  900MOL0     H24148   1.848   1.912   5.447 -0.2551 -2.5011 -2.3540
  900MOL0     H24149   1.668   1.966   5.219  1.7030  1.5505 -0.4593
  900MOL0     H24150   1.299   2.042   5.209  0.9321 -0.3559  0.0456
  900MOL0     H24151   1.433   2.045   5.117 -0.1469 -4.0825  1.7708
  900MOL0     H24152   1.401   2.253   5.340 -1.8425 -0.2366 -0.3908
  900MOL0     H24153   1.537   2.238   5.218  0.2995  0.9493  1.9104
  900MOL0     H24154   1.369   2.283   5.038 -2.8380 -1.1738 -0.2296
  900MOL0     H24155   1.240   2.282   5.159  0.2751 -2.5150 -2.4598
  900MOL0     H24156   1.297   2.507   5.121 -1.6722 -1.6254  2.6070
  900MOL0     H24157   1.369   2.459   5.281  2.8442  0.6857  0.6025
  900MOL0     H24158   1.780   2.491   5.068 -0.0631  0.6241 -0.6656
  900MOL0     H24159   1.977   2.571   5.090 -2.0630 -1.0148 -0.0492
  900MOL0     H24160   2.005   2.656   5.239  2.0018  0.7825 -1.4569
  900MOL0     H24161   1.973   2.750   5.089 -1.8014  0.8794 -0.7842
  900MOL0     H24162   1.710   3.096   5.588  0.6239  1.3229  1.5172
  900MOL0     H24163   1.790   3.312   5.664  1.1538  1.4822 -0.7887
  900MOL0     H24164   2.172   3.481   5.502  0.7973  1.8734  2.5011
  900MOL0     H24165   2.026   3.554   5.412 -2.2570 -1.3128 -1.0169
  900MOL0     H24166   2.001   3.714   5.578 -0.2004 -0.5881 -3.7316
  900MOL0     H24167   2.145   3.652   5.679 -0.0347  0.3734  1.2117
  900MOL0     H24168   2.194   3.845   5.523  0.5442 -0.0261  0.2499
  900MOL0     H24169   2.187   3.723   5.392  0.5762 -2.4029  0.5316
  900MOL0     H24170   2.346   3.601   5.480 -2.7757 -1.3142  1.7843
  900MOL0     H24171   2.360   3.677   5.633 -4.0655 -1.3102  0.3929
  900MOL0     H24172   2.425   3.815   5.379 -1.5666 -0.6847 -0.3796
  900MOL0     H24173   2.435   3.879   5.550 -3.6025 -1.0060  0.4124
  900MOL0     H24174   2.564   3.628   5.467 -0.9233 -1.0070  1.8469
  900MOL0     H24175   2.616   3.711   5.608  0.0002 -1.5971  1.2859
  900MOL0     H24176   2.680   3.923   5.477  3.6081  0.7867  0.0336
  900MOL0     H24177   2.657   3.814   5.331 -4.6359 -0.3308  0.1954
  900MOL0     H24178   2.836   3.664   5.400  0.5838  1.5142 -1.0502
  900MOL0     H24179   2.858   3.760   5.548  0.2403 -1.2168  0.4206
  900MOL0     H24180   2.053   3.327   5.325  1.6583 -1.4477 -0.2072
  900MOL0     H24181   1.968   3.110   5.258 -1.1051 -2.7847  1.3267
  900MOL0     H24182   1.593   2.842   5.365 -1.9797  1.7850 -3.7222
  900MOL0     H24183   1.433   2.665   5.262  0.1020  3.7365 -1.2391
  900MOL0     H24184   2.199   1.686   4.950 -1.8625  2.0715  0.9194
  900MOL0     H24185   2.228   1.840   4.756  3.7242 -1.1529 -2.4656
  900MOL0     H24186   2.305   1.905   4.336  0.1095  1.6152  1.4129
  900MOL0     H24187   2.359   2.038   4.144 -0.7438  2.1909 -1.9718
  900MOL0     H24188   2.384   2.123   3.983 -1.3852 -0.5187  3.6129
  900MOL0     H24189   2.265   2.037   3.896  0.7540  0.1874 -1.9370
  900MOL0     H24190   2.410   2.209   3.773 -0.9724  1.0289 -0.8757
  900MOL0     H24191   2.326   2.332   3.860 -1.4178 -2.0158  4.9854
  900MOL0     H24192   2.211   2.152   3.645  0.4369  0.0964 -0.8585
  900MOL0     H24193   2.102   2.206   3.768  1.7758 -2.0610  1.8494
  900MOL0     H24194   2.139   2.454   3.710 -3.2002  0.0987 -2.0238
  900MOL0     H24195   2.134   2.369   3.554  3.5502 -0.6478 -2.0517
  900MOL0     H24196   2.517   2.509   3.511 -0.4010  0.3032 -0.1748
  900MOL0     H24197   1.965   2.202   4.137 -0.0658 -0.0677 -1.4667
  900MOL0     H24198   1.837   2.104   4.441  0.5992  0.7573 -0.3793
  900MOL0     H24199   1.804   2.161   4.278 -1.3401 -2.1791 -2.8138
  900MOL0     H24200   1.811   1.988   4.309  1.7243 -0.7098  1.5815
  901MOL0     O24201   9.521   8.700   3.813 -0.0555 -0.3161  0.7497
  901MOL0     C24202   9.513   8.591   3.873  0.4730 -0.0023 -0.6893
  901MOL0     O24203   9.614   8.498   3.871 -0.8162 -0.6535 -0.1460
  901MOL0     C24204   9.731   8.540   3.807 -0.2642  0.9135  0.1411
  901MOL0     C24205   9.749   8.599   3.683  1.1672  0.0430 -0.0558
  901MOL0     C24206   9.879   8.638   3.646  0.0579 -0.3663  0.1003
  901MOL0     C24207   9.990   8.623   3.720  0.1599  0.6598  0.3772
  901MOL0     O24208  10.110   8.686   3.699  0.1681  0.5806  0.5078
  901MOL0     C24209  10.139   8.745   3.566  0.7773  0.5680 -1.0729
  901MOL0     C24210  10.291   8.754   3.574 -0.0057 -0.8939  0.3770
  901MOL0     C24211  10.342   8.861   3.466 -0.5749 -0.1390 -0.7539
  901MOL0     C24212  10.482   8.909   3.504 -0.3411  0.3716 -0.0091
  901MOL0     C24213  10.497   9.056   3.466 -0.2391  0.2092  0.4536
  901MOL0     C24214  10.497   9.090   3.317 -0.5352  0.1783 -0.1645
  901MOL0     C24215  10.493   9.243   3.279  0.0649 -0.1259 -0.1746
  901MOL0     C24216  10.350   9.276   3.251  0.6380  0.4153  1.1127
  901MOL0     N24217  10.338   9.411   3.189  0.5043  0.3098 -1.0524
  901MOL0     C24218  10.302   9.530   3.242  0.6385  0.8845 -0.5536
  901MOL0     C24219  10.296   9.616   3.144 -0.3399 -0.6296  0.3641
  901MOL0     C24220  10.238   9.757   3.135  0.7993 -0.4110  0.6872
  901MOL0     C24221  10.326   9.875   3.156 -0.2146 -0.7467 -0.4817
  901MOL0     C24222  10.354   9.901   3.303  0.0157 -0.5979  0.1397
  901MOL0     C24223  10.442  10.021   3.325  0.4575  1.0581 -0.7296
  901MOL0     O24224  10.346  10.133   3.318  0.0847  0.3098  0.6563
  901MOL0     C24225  10.394  10.251   3.364  0.1206 -0.3688 -0.4593
  901MOL0     C24226  10.522  10.276   3.420 -0.3384  0.2546  0.2082
  901MOL0     C24227  10.565  10.411   3.442 -0.2601  0.3555 -0.4148
  901MOL0     C24228  10.694  10.440   3.519 -0.2139  0.4088  0.2322
  901MOL0     C24229  10.480  10.519   3.407 -0.4091 -0.0402 -1.5906
  901MOL0     C24230  10.514  10.660   3.447 -0.3889  0.0063 -0.5507
  901MOL0     O24231  10.424  10.735   3.511  0.0557  0.9303  0.5375
  901MOL0     C24232  10.462  10.834   3.599 -0.5059 -1.4020 -0.3600
  901MOL0     C24233  10.352  10.903   3.650  0.3136 -0.6744  0.0836
  901MOL0     C24234  10.365  11.015   3.738  0.7808  0.3501  0.7429
  901MOL0     C24235  10.489  11.058   3.784 -0.0932 -0.4753 -0.1598
  901MOL0     O24236  10.492  11.170   3.869  0.1551  0.1938 -0.4555
  901MOL0     C24237  10.623  11.218   3.906 -0.4071 -1.0635  0.0539
  901MOL0     C24238  10.610  11.357   3.980 -0.3986 -0.3622  0.1893
  901MOL0     C24239  10.662  11.341   4.120 -0.2564 -0.1955 -0.7404
  901MOL0     C24240  10.816  11.359   4.120 -0.0747  0.3095 -0.8368
  901MOL0     C24241  10.852  11.514   4.102  0.1463  0.8412 -0.3945
  901MOL0     C24242  11.009  11.518   4.081  0.7281 -0.7162  0.6571
  901MOL0     C24243  11.085  11.557   4.205 -0.3116 -0.3944 -0.7768
  901MOL0     C24244  11.112  11.446   4.307  0.0530 -0.0481 -0.3181
  901MOL0    Cl24245  11.226  11.323   4.247  0.0322 -0.2323 -0.1181
  901MOL0     C24246  10.597  10.992   3.727 -0.5903  0.8876 -1.3519
  901MOL0     C24247  10.586  10.879   3.641 -0.5786  0.0749  1.0040
  901MOL0     O24248  10.616  10.694   3.389 -0.8562 -0.3367  0.1626
  901MOL0     C24249  10.349  10.492   3.368 -0.2232 -0.0258  0.7736
  901MOL0     C24250  10.313  10.359   3.339  0.1746  0.0586  0.1721
  901MOL0     N24251  10.328   9.540   3.032 -0.0132  0.2487  0.0432
  901MOL0     N24252  10.348   9.425   3.065  0.1332 -0.2406 -0.1859
  901MOL0     C24253   9.979   8.547   3.841  1.5093 -0.6265  0.4364
  901MOL0     C24254   9.847   8.504   3.881 -0.1109  0.0354  0.6415
  901MOL0     C24255   9.394   8.558   3.955  0.7751 -0.5566 -0.9743
  901MOL0     C24256   9.417   8.462   4.054  0.0408  0.1931 -0.3420
  901MOL0     C24257   9.314   8.426   4.143 -0.9128 -0.5132  0.9989
  901MOL0     C24258   9.191   8.485   4.140 -0.7077  0.0080  0.0696
  901MOL0     O24259   9.098   8.433   4.231 -0.0919 -0.0392  0.4767
  901MOL0     C24260   8.967   8.492   4.240 -0.3723 -0.7737  0.8325
  901MOL0     C24261   8.887   8.406   4.336 -0.5761  0.0655 -0.5641
  901MOL0     C24262   8.918   8.453   4.479  1.0558  0.4883  0.4469
  901MOL0     C24263   9.065   8.491   4.514 -0.4617 -0.0914  0.1287
  901MOL0     C24264   9.087   8.568   4.645 -0.9426  0.5126 -0.7004
  901MOL0     C24265   9.093   8.628   4.744 -0.3286 -0.8026 -0.0478
  901MOL0     C24266   9.168   8.576   4.035 -0.7826 -0.5144 -0.1243
  901MOL0     C24267   9.261   8.608   3.933 -0.3183  0.1490  0.8215
  901MOL0     C24268   9.222   8.687   3.811  0.0332 -0.2604  0.2594
  901MOL0     H24269   9.670   8.637   3.618  1.9106 -2.0852 -2.3535
  901MOL0     H24270   9.890   8.691   3.551 -0.8306  1.0803  0.7836
  901MOL0     H24271  10.090   8.843   3.556  1.5138  1.3889  2.1596
  901MOL0     H24272  10.106   8.688   3.478 -0.8974  2.9892 -2.1254
  901MOL0     H24273  10.309   8.788   3.677 -1.0681  1.0627 -0.0402
  901MOL0     H24274  10.337   8.660   3.543 -0.6764 -0.6167 -1.6290
  901MOL0     H24275  10.323   8.825   3.364  0.5905  1.1100 -1.4490
  901MOL0     H24276  10.272   8.944   3.482 -0.2282 -0.4654  3.3720
  901MOL0     H24277  10.501   8.897   3.611  2.3714 -1.2340 -0.5634
  901MOL0     H24278  10.554   8.858   3.438 -4.1793 -0.0298 -4.4048
  901MOL0     H24279  10.588   9.096   3.511 -0.5859  2.3896 -0.6636
  901MOL0     H24280  10.413   9.105   3.516 -0.3237 -0.4299  0.9532
  901MOL0     H24281  10.596   9.058   3.284 -0.5574 -0.2414  0.1655
  901MOL0     H24282  10.428   9.034   3.253 -0.5210  0.8509 -0.7854
  901MOL0     H24283  10.567   9.255   3.199  0.5931 -3.6887 -0.4067
  901MOL0     H24284  10.518   9.305   3.366 -1.3507 -0.8582  0.7895
  901MOL0     H24285  10.309   9.202   3.183 -0.9368 -2.5511  4.8891
  901MOL0     H24286  10.287   9.269   3.341  1.6001 -2.0974  1.6545
  901MOL0     H24287  10.267   9.556   3.342 -1.1602  0.3842 -1.0219
  901MOL0     H24288  10.158   9.767   3.208  0.9958  1.5522  0.6823
  901MOL0     H24289  10.200   9.758   3.032 -0.8377 -0.9549  1.2690
  901MOL0     H24290  10.423   9.857   3.109 -0.1037 -1.2555 -0.0652
  901MOL0     H24291  10.287   9.967   3.112 -0.2307  0.2959  1.5992
  901MOL0     H24292  10.262   9.910   3.363  0.6496 -2.0532  1.3981
  901MOL0     H24293  10.399   9.806   3.335 -1.7135 -0.6898  2.5824
  901MOL0     H24294  10.477  10.002   3.427 -0.1297 -0.4431 -0.7927
  901MOL0     H24295  10.517  10.044   3.247  0.2635  1.6939 -0.7374
  901MOL0     H24296  10.588  10.196   3.450  0.3310 -0.3433 -2.5675
  901MOL0     H24297  10.680  10.509   3.602  1.0631 -0.5320  1.2736
  901MOL0     H24298  10.765  10.468   3.441 -0.2421 -4.3091 -1.8597
  901MOL0     H24299  10.738  10.347   3.556 -1.1472 -0.2285 -0.2003
  901MOL0     H24300  10.254  10.862   3.630  1.1377 -2.6636 -0.0450
  901MOL0     H24301  10.286  11.079   3.777  2.3045  2.7285  0.1501
  901MOL0     H24302  10.692  11.153   3.960 -0.9573  1.0633  3.6415
  901MOL0     H24303  10.674  11.232   3.810 -0.7043 -1.1688 -0.1230
  901MOL0     H24304  10.670  11.434   3.930  1.3974 -0.5590  1.9171
  901MOL0     H24305  10.508  11.396   3.977  0.7148  3.0788  1.9348
  901MOL0     H24306  10.632  11.243   4.159  1.0431  0.8298  3.3443
  901MOL0     H24307  10.603  11.405   4.186 -1.0753  0.0075 -1.6417
  901MOL0     H24308  10.858  11.309   4.031  0.0622 -0.8158 -0.1576
  901MOL0     H24309  10.852  11.318   4.215  3.0010  0.3852 -1.8441
  901MOL0     H24310  10.812  11.551   4.007  1.4973 -1.7552 -2.0730
  901MOL0     H24311  10.827  11.576   4.189 -0.1775  1.5070 -0.9493
  901MOL0     H24312  11.020  11.605   4.015  2.4509 -0.7794  0.8162
  901MOL0     H24313  11.052  11.431   4.030 -2.8201 -2.3280  0.1682
  901MOL0     H24314  11.031  11.636   4.258  1.3835 -0.2656  0.8627
  901MOL0     H24315  11.182  11.597   4.173 -0.5259  1.5236  0.8206
  901MOL0     H24316  11.022  11.387   4.329  1.0261 -1.0114  1.2240
  901MOL0     H24317  11.141  11.493   4.401  2.2316 -0.5874 -0.6632
  901MOL0     H24318  10.696  11.033   3.746 -1.4808  2.1886  0.9269
  901MOL0     H24319  10.677  10.844   3.595 -0.7148  3.0065 -1.8088
  901MOL0     H24320  10.276  10.569   3.345 -0.8878 -0.4779  1.3207
  901MOL0     H24321  10.208  10.340   3.317 -0.3941  1.7832  1.2340
  901MOL0     H24322  10.073   8.533   3.893  2.5876  0.5402 -1.1243
  901MOL0     H24323   9.838   8.466   3.983 -1.1642 -0.4187  0.3947
  901MOL0     H24324   9.510   8.407   4.068 -1.2669 -3.3525 -3.8297
  901MOL0     H24325   9.328   8.355   4.223 -1.2774  0.2118  1.7242
  901MOL0     H24326   8.964   8.597   4.268  2.1703 -0.6334  0.8689
  901MOL0     H24327   8.914   8.474   4.146 -0.9469  0.8728  0.8218
  901MOL0     H24328   8.911   8.300   4.321 -0.8133  0.1505 -1.5778
  901MOL0     H24329   8.780   8.409   4.318 -0.5623  2.6549 -0.5631
  901MOL0     H24330   8.857   8.544   4.487  1.5651  0.8849 -0.1141
  901MOL0     H24331   8.877   8.380   4.549 -0.6848  1.9759  1.0398
  901MOL0     H24332   9.112   8.540   4.429  0.4265  0.6216  1.0036
  901MOL0     H24333   9.100   8.389   4.532 -0.3868 -0.4136 -1.6760
  901MOL0     H24334   9.091   8.702   4.822 -5.0752 -0.1451 -0.4784
  901MOL0     H24335   9.066   8.612   4.032 -0.3130  0.8565 -0.2956
  901MOL0     H24336   9.281   8.777   3.790 -0.9325  0.5399  0.8203
  901MOL0     H24337   9.231   8.619   3.727  0.2268  2.3153 -1.9471
  901MOL0     H24338   9.118   8.719   3.819  0.6396  1.5405  2.0146
  902MOL0     O24339  10.042   3.211   7.282 -0.0182 -0.7028 -0.0929
  902MOL0     C24340  10.086   3.219   7.165  0.0845  0.3545  0.9472
  902MOL0     O24341  10.208   3.183   7.116 -0.5823 -0.2004  0.6388
  902MOL0     C24342  10.292   3.113   7.201  0.2816  0.6051 -0.0585
  902MOL0     C24343  10.324   3.161   7.325 -1.0718  0.3079  0.2851
  902MOL0     C24344  10.387   3.076   7.411  1.0253  0.5417 -0.8829
  902MOL0     C24345  10.433   2.945   7.379  0.4212  0.3389  0.8552
  902MOL0     O24346  10.500   2.864   7.468 -0.5195  0.6580 -0.1110
  902MOL0     C24347  10.649   2.863   7.470  1.2042  0.6291  0.0150
  902MOL0     C24348  10.685   2.917   7.617 -0.9262 -0.8996 -0.2546
  902MOL0     C24349  10.845   2.924   7.647  0.0367 -1.6688  0.9607
  902MOL0     C24350  10.884   2.948   7.790  0.5797  0.1031 -0.7723
  902MOL0     C24351  11.036   2.979   7.807  0.8247 -0.0185 -0.3922
  902MOL0     C24352  11.064   3.112   7.729  0.0700  0.4016  0.9476
  902MOL0     C24353  11.204   3.156   7.762  0.4856 -0.6894 -0.8560
  902MOL0     C24354  11.315   3.068   7.696  0.6485  0.0966 -0.6764
  902MOL0     N24355  11.387   3.123   7.587 -0.2926  0.1671  0.4339
  902MOL0     C24356  11.522   3.110   7.563 -0.2488 -0.0168 -0.3125
  902MOL0     C24357  11.536   3.148   7.430 -0.0114  0.2535 -1.2000
  902MOL0     C24358  11.661   3.174   7.340  0.7717 -0.1122 -0.7974
  902MOL0     C24359  11.778   3.253   7.412  0.7765  0.3279 -0.7346
  902MOL0     C24360  11.892   3.303   7.320 -0.2599  0.2904  1.0050
  902MOL0     C24361  11.990   3.385   7.400 -0.1495 -0.3015  0.2059
  902MOL0     O24362  12.025   3.330   7.524 -0.0423 -0.4563  0.3849
  902MOL0     C24363  12.150   3.361   7.558  0.2591 -0.3897  0.2895
  902MOL0     C24364  12.242   3.269   7.599  0.6502 -0.7389 -0.5131
  902MOL0     C24365  12.372   3.300   7.639 -0.2928 -0.3794 -0.7266
  902MOL0     C24366  12.449   3.173   7.656 -0.0730 -0.4625 -0.2098
  902MOL0     C24367  12.420   3.435   7.638 -0.2873 -0.1353  0.1820
  902MOL0     C24368  12.555   3.465   7.686 -0.3566 -0.2937  0.3861
  902MOL0     O24369  12.627   3.552   7.605  1.0138  1.0134 -1.1063
  902MOL0     C24370  12.733   3.622   7.669  0.7114  0.8578  0.0251
  902MOL0     C24371  12.857   3.579   7.649 -0.2894  0.9372 -0.1719
  902MOL0     C24372  12.968   3.650   7.710  0.2349  0.5527  0.6323
  902MOL0     C24373  12.948   3.753   7.796  0.2973 -0.6635 -0.5207
  902MOL0     O24374  13.064   3.806   7.860 -0.5935 -0.3102 -0.8446
  902MOL0     C24375  13.059   3.916   7.954 -0.4176 -0.1210 -0.0382
  902MOL0     C24376  13.058   4.055   7.886  0.2841  0.3041  0.4206
  902MOL0     C24377  13.055   4.180   7.984 -0.4094 -0.5064 -0.4398
  902MOL0     C24378  13.148   4.160   8.099  0.5605  0.4351 -0.7597
  902MOL0     C24379  13.176   4.274   8.197 -0.6420  0.5986 -0.0243
  902MOL0     C24380  13.260   4.203   8.306 -0.8976 -1.2096  0.2209
  902MOL0     C24381  13.351   4.305   8.376 -0.9732  0.1238  0.2916
  902MOL0     C24382  13.406   4.263   8.507  0.2042 -0.8224  0.2545
  902MOL0    Cl24383  13.479   4.099   8.492  0.1676  0.0346 -0.5011
  902MOL0     C24384  12.819   3.790   7.825  0.5720 -0.3811  1.1078
  902MOL0     C24385  12.713   3.725   7.754  0.5144 -0.8337 -0.4756
  902MOL0     O24386  12.604   3.420   7.791  0.3551 -0.3631  0.3783
  902MOL0     C24387  12.324   3.531   7.599  0.9303  0.9227 -0.3743
  902MOL0     C24388  12.190   3.504   7.571  0.7248  0.1894 -0.6837
  902MOL0     N24389  11.404   3.187   7.391 -0.2545 -0.5921  0.1354
  902MOL0     N24390  11.319   3.174   7.482 -0.7475  0.5938  0.2757
  902MOL0     C24391  10.390   2.894   7.258  0.3776  0.3967 -0.1581
  902MOL0     C24392  10.319   2.972   7.166  0.7104 -0.4446  0.1778
  902MOL0     C24393   9.991   3.286   7.056 -0.3428 -0.0700  0.2135
  902MOL0     C24394   9.881   3.359   7.107  0.1932 -1.9159 -0.0637
  902MOL0     C24395   9.794   3.426   7.018 -0.6212  0.6584 -0.4249
  902MOL0     C24396   9.816   3.430   6.881 -0.0517  0.7764 -0.5137
  902MOL0     O24397   9.740   3.500   6.801  0.2561  0.7143  0.4146
  902MOL0     C24398   9.796   3.564   6.685 -0.6237  0.5695  0.2801
  902MOL0     C24399   9.682   3.656   6.627  0.4542 -0.4334 -0.7337
  902MOL0     C24400   9.588   3.577   6.543 -0.2773  0.6449  0.2795
  902MOL0     C24401   9.506   3.665   6.449  0.8478 -0.3451 -0.3911
  902MOL0     C24402   9.441   3.787   6.506 -0.5527  1.1511 -0.6714
  902MOL0     C24403   9.408   3.874   6.581  0.9804  0.0291 -0.5441
  902MOL0     C24404   9.921   3.349   6.840 -0.3858 -0.8766 -0.2783
  902MOL0     C24405  10.014   3.282   6.912 -0.1541  0.1157  0.6493
  902MOL0     C24406  10.109   3.190   6.840  0.0482  0.5912 -0.6610
  902MOL0     H24407  10.305   3.261   7.362  0.9929  1.5837 -1.8190
  902MOL0     H24408  10.409   3.108   7.512 -0.6829 -0.9192 -0.0016
  902MOL0     H24409  10.684   2.933   7.393  1.3788 -0.4159 -0.8772
  902MOL0     H24410  10.690   2.764   7.447  2.5646  1.4465 -1.2496
  902MOL0     H24411  10.658   3.023   7.617  2.7497  0.2798 -3.8663
  902MOL0     H24412  10.645   2.861   7.702 -1.1184 -1.4275 -0.6871
  902MOL0     H24413  10.902   2.837   7.613  0.7531 -0.7650 -0.1969
  902MOL0     H24414  10.871   3.014   7.591 -1.5310 -0.7383  1.6447
  902MOL0     H24415  10.827   3.030   7.835  1.3135  0.4873 -0.5277
  902MOL0     H24416  10.857   2.858   7.846 -0.5082  1.9143  1.8334
  902MOL0     H24417  11.097   2.903   7.758  1.7825  0.3809  0.1630
  902MOL0     H24418  11.061   2.977   7.913  3.1175  0.9641 -0.8522
  902MOL0     H24419  11.056   3.103   7.620  0.6296 -0.1343  0.9484
  902MOL0     H24420  10.998   3.185   7.777 -2.0934 -1.2893  0.6874
  902MOL0     H24421  11.223   3.152   7.870  0.2918  1.5357 -0.6990
  902MOL0     H24422  11.216   3.264   7.747  0.8761 -0.3242  1.6407
  902MOL0     H24423  11.380   3.027   7.774 -1.8884 -1.7879  0.6004
  902MOL0     H24424  11.261   2.985   7.650 -2.1054 -0.9784  3.8901
  902MOL0     H24425  11.606   3.084   7.626  1.2070  1.8380 -1.3833
  902MOL0     H24426  11.628   3.229   7.252 -0.7785  1.3986  0.6403
  902MOL0     H24427  11.694   3.073   7.314 -2.0333 -3.0220  4.9795
  902MOL0     H24428  11.743   3.338   7.472  1.0239 -1.9070  2.8363
  902MOL0     H24429  11.811   3.189   7.494 -0.3594  0.9638  0.2643
  902MOL0     H24430  11.941   3.214   7.279 -1.9090  0.7903 -2.3661
  902MOL0     H24431  11.857   3.362   7.235 -0.3326  0.0034  0.8332
  902MOL0     H24432  12.079   3.401   7.338 -0.0632  1.5706  0.7652
  902MOL0     H24433  11.936   3.479   7.411  1.3472  0.9705 -2.4188
  902MOL0     H24434  12.211   3.167   7.580 -0.3977 -0.3439 -0.9744
  902MOL0     H24435  12.556   3.196   7.665  0.0091 -1.6027  2.5053
  902MOL0     H24436  12.435   3.102   7.574 -0.0918 -0.2284 -0.4111
  902MOL0     H24437  12.414   3.122   7.746  1.7640 -2.0778 -0.3400
  902MOL0     H24438  12.874   3.499   7.578  1.2079  1.7643 -0.8027
  902MOL0     H24439  13.065   3.610   7.681 -1.0792 -0.8502 -2.2404
  902MOL0     H24440  12.982   3.914   8.032  0.4924 -1.0638  0.8863
  902MOL0     H24441  13.149   3.904   8.015 -0.1668 -2.0057 -0.6989
  902MOL0     H24442  13.145   4.066   7.820  0.4781  0.7779  0.7503
  902MOL0     H24443  12.976   4.078   7.817  0.3457  0.1001  0.2777
  902MOL0     H24444  12.952   4.193   8.019  0.3224 -2.2509  2.8011
  902MOL0     H24445  13.085   4.269   7.928  0.4679 -0.6371 -0.1835
  902MOL0     H24446  13.236   4.118   8.049  0.6599  0.1991 -0.3878
  902MOL0     H24447  13.122   4.067   8.151 -0.6579  1.7124  1.0129
  902MOL0     H24448  13.243   4.349   8.154  0.5882  1.9646  3.8606
  902MOL0     H24449  13.085   4.330   8.222 -1.4627  0.1311 -1.8270
  902MOL0     H24450  13.334   4.129   8.275  0.7978 -0.7221  2.7971
  902MOL0     H24451  13.190   4.158   8.378 -1.2809 -2.1406 -0.6930
  902MOL0     H24452  13.304   4.404   8.382 -0.8086  0.3489 -1.6459
  902MOL0     H24453  13.429   4.322   8.302  1.4064  1.0905  2.8451
  902MOL0     H24454  13.323   4.267   8.578  1.9663  3.5469  2.3962
  902MOL0     H24455  13.478   4.337   8.542 -2.1765  2.4790 -1.2945
  902MOL0     H24456  12.785   3.867   7.894  3.5058 -0.0097  2.2807
  902MOL0     H24457  12.615   3.770   7.766  0.8220  0.0079 -1.0680
  902MOL0     H24458  12.354   3.635   7.605  1.9009  0.5856  4.4427
  902MOL0     H24459  12.122   3.578   7.530  2.2059  0.7818 -2.1814
  902MOL0     H24460  10.419   2.790   7.249  0.2433  0.1958  1.4237
  902MOL0     H24461  10.277   2.936   7.073  2.2240  0.5169 -0.9304
  902MOL0     H24462   9.869   3.365   7.215 -0.0806 -0.2836 -0.1515
  902MOL0     H24463   9.699   3.464   7.054 -0.7144  1.7014 -1.6585
  902MOL0     H24464   9.877   3.633   6.708 -1.5117  1.3652  1.0910
  902MOL0     H24465   9.820   3.485   6.613 -2.1613  0.6751 -0.3770
  902MOL0     H24466   9.722   3.734   6.562  1.2547 -0.9446 -0.8731
  902MOL0     H24467   9.621   3.709   6.700  0.6136  1.9754 -2.2517
  902MOL0     H24468   9.641   3.501   6.484 -2.9569 -2.2466  1.3421
  902MOL0     H24469   9.521   3.518   6.606 -0.3622 -0.1611 -0.5399
  902MOL0     H24470   9.444   3.584   6.409  1.2776 -0.1683 -1.4672
  902MOL0     H24471   9.560   3.694   6.358 -1.5251  0.0812 -1.7484
  902MOL0     H24472   9.396   3.936   6.668  1.0293  1.3090 -1.4314
  902MOL0     H24473   9.917   3.336   6.732 -0.1416 -4.4156  0.0176
  902MOL0     H24474  10.072   3.156   6.744 -0.8173  0.2928 -0.2294
  902MOL0     H24475  10.205   3.243   6.834  0.7512 -0.5845 -0.1885
  902MOL0     H24476  10.122   3.101   6.902  2.3883  0.7785 -0.7700
  903MOL0     O24477   9.631   0.085   3.394  0.3182  0.2565 -0.2328
  903MOL0     C24478   9.665   0.063   3.281 -0.4376 -0.0486 -0.8261
  903MOL0     O24479   9.790   0.068   3.229 -1.0214 -0.5768  0.2780
  903MOL0     C24480   9.888   0.098   3.318 -1.2996  0.4520 -0.5242
  903MOL0     C24481   9.886   0.226   3.378  0.6498  0.7717  0.1317
  903MOL0     C24482   9.992   0.267   3.459 -0.0724  0.6622  0.1009
  903MOL0     C24483  10.105   0.186   3.501  0.2141  0.7262  0.1673
  903MOL0     O24484  10.199   0.233   3.596 -0.3762  0.1184 -0.3926
  903MOL0     C24485  10.261   0.141   3.689 -0.1735 -0.3417 -0.4261
  903MOL0     C24486  10.388   0.209   3.763  0.3791  0.5917  0.1866
  903MOL0     C24487  10.497   0.235   3.657 -0.3202 -0.1588  0.0988
  903MOL0     C24488  10.625   0.270   3.731  0.6284 -0.5079  0.2509
  903MOL0     C24489  10.736   0.291   3.627 -0.1907  0.1390 -0.1082
  903MOL0     C24490  10.872   0.304   3.688 -1.1995  0.4010 -0.0081
  903MOL0     C24491  10.985   0.309   3.586 -0.5070  0.0488  0.2422
  903MOL0     C24492  11.127   0.291   3.658  0.3684 -0.3836 -0.6969
  903MOL0     N24493  11.245   0.302   3.574  0.0688  0.0107 -0.7776
  903MOL0     C24494  11.292   0.205   3.492 -0.5442  0.2490  1.1792
  903MOL0     C24495  11.411   0.245   3.440 -0.7960 -0.0764 -0.5285
  903MOL0     C24496  11.487   0.174   3.332  0.5450 -0.0978  1.1330
  903MOL0     C24497  11.554   0.043   3.372 -0.2787  0.3538 -0.5749
  903MOL0     C24498  11.615  -0.042   3.260  0.2734  0.5230 -0.0384
  903MOL0     C24499  11.700  -0.161   3.319  1.3373  0.6735  0.3492
  903MOL0     O24500  11.819  -0.126   3.382 -0.2448 -0.6202 -0.5254
  903MOL0     C24501  11.912  -0.079   3.294 -0.2981  0.2365  0.4313
  903MOL0     C24502  11.927  -0.088   3.159  0.0556  0.4758  0.4970
  903MOL0     C24503  12.036  -0.043   3.084  0.8125  0.8028  0.3667
  903MOL0     C24504  12.022  -0.054   2.932 -0.1496 -0.4526  0.0568
  903MOL0     C24505  12.150   0.016   3.151 -1.0322  0.3763  1.0306
  903MOL0     C24506  12.267   0.071   3.077  0.0353  0.0244 -1.1983
  903MOL0     O24507  12.394   0.055   3.138  0.5497  0.0847  0.0044
  903MOL0     C24508  12.490   0.117   3.067  0.0907  0.2139 -0.4123
  903MOL0     C24509  12.567   0.223   3.130 -0.1914 -0.3800 -0.5508
  903MOL0     C24510  12.673   0.293   3.075 -0.2753  0.6109  0.5327
  903MOL0     C24511  12.702   0.264   2.940 -0.2354 -0.1069 -0.6934
  903MOL0     O24512  12.818   0.326   2.891  0.5167  0.2316  0.1758
  903MOL0     C24513  12.846   0.464   2.922 -0.2410 -0.0031  1.2933
  903MOL0     C24514  12.939   0.497   2.802 -0.1819  0.6169 -0.8156
  903MOL0     C24515  12.854   0.532   2.677  0.6852  1.1478 -0.3864
  903MOL0     C24516  12.844   0.680   2.664 -0.2285  0.1196  0.3645
  903MOL0     C24517  12.768   0.722   2.543  0.0582 -0.0291 -0.6109
  903MOL0     C24518  12.734   0.873   2.558 -0.4760 -0.3650 -0.2398
  903MOL0     C24519  12.668   0.940   2.433  0.6562 -0.3637  0.0521
  903MOL0     C24520  12.533   0.869   2.416  0.2519  0.5231 -0.6535
  903MOL0    Cl24521  12.423   0.969   2.314  0.0190 -0.4639 -0.1379
  903MOL0     C24522  12.649   0.153   2.881 -0.5078  0.8128  0.4905
  903MOL0     C24523  12.535   0.079   2.939  0.7286 -1.0676 -0.3162
  903MOL0     O24524  12.245   0.133   2.972 -0.1825 -0.2455  0.2096
  903MOL0     C24525  12.132   0.020   3.286 -0.0043  0.0716  0.8636
  903MOL0     C24526  12.024  -0.026   3.361 -0.1389  0.5524  0.0398
  903MOL0     N24527  11.442   0.376   3.491 -0.6581 -0.2310 -0.9556
  903MOL0     N24528  11.333   0.408   3.567 -0.6603  0.4401  0.5144
  903MOL0     C24529  10.107   0.055   3.442  0.7473  0.4545 -0.2362
  903MOL0     C24530  10.005   0.020   3.355 -0.3585 -0.8151  0.0961
  903MOL0     C24531   9.550   0.016   3.194 -0.5088  0.0571  0.2709
  903MOL0     C24532   9.413   0.001   3.248 -0.3648 -1.1246 -0.0285
  903MOL0     C24533   9.310  -0.045   3.176  1.1061  1.2011 -0.0331
  903MOL0     C24534   9.328  -0.094   3.050  0.4806  0.3335  0.3232
  903MOL0     O24535   9.242  -0.163   2.971  0.8986 -0.7683 -0.9589
  903MOL0     C24536   9.104  -0.161   3.014 -1.3800  0.5141  1.0312
  903MOL0     C24537   9.064  -0.285   3.101  0.0177 -0.1252 -0.3190
  903MOL0     C24538   8.908  -0.293   3.116  0.2378  0.8634 -0.6270
  903MOL0     C24539   8.844  -0.427   3.171 -0.6753 -0.1641 -0.6559
  903MOL0     C24540   8.892  -0.473   3.308  0.5728  0.4065 -0.0292
  903MOL0     C24541   8.913  -0.523   3.422 -0.0713  0.0790  0.6182
  903MOL0     C24542   9.461  -0.084   2.994 -0.5323 -0.5062  0.0378
  903MOL0     C24543   9.568  -0.023   3.051 -0.3647  0.6526 -0.5918
  903MOL0     C24544   9.686  -0.019   2.959  0.2179  0.6121 -0.4211
  903MOL0     H24545   9.802   0.289   3.350 -1.0850 -1.8483 -0.9623
  903MOL0     H24546   9.992   0.370   3.494 -0.9367  0.8714 -0.4705
  903MOL0     H24547  10.290   0.047   3.640 -2.6904 -1.1921 -0.4090
  903MOL0     H24548  10.174   0.125   3.753 -0.3560  0.7766 -0.3772
  903MOL0     H24549  10.369   0.304   3.814  1.1267 -0.0693  1.7605
  903MOL0     H24550  10.420   0.135   3.836 -2.9860  1.1185  2.4540
  903MOL0     H24551  10.526   0.148   3.598  1.6643 -0.5337  1.5265
  903MOL0     H24552  10.455   0.314   3.594  2.1054 -1.2620 -3.1604
  903MOL0     H24553  10.618   0.360   3.794 -0.9683 -0.2480 -0.2394
  903MOL0     H24554  10.653   0.189   3.799 -1.8537 -2.3245 -0.7141
  903MOL0     H24555  10.711   0.385   3.576  1.0190 -0.9470 -2.8913
  903MOL0     H24556  10.731   0.216   3.548  0.7158 -0.1972  0.1293
  903MOL0     H24557  10.884   0.393   3.751  0.0055  2.6128 -3.0826
  903MOL0     H24558  10.888   0.216   3.751  0.9425  1.4496  1.0367
  903MOL0     H24559  10.981   0.402   3.528  1.9814  1.3679  1.9907
  903MOL0     H24560  10.956   0.232   3.514 -1.3764  0.3198  0.2956
  903MOL0     H24561  11.147   0.357   3.743  0.7072 -0.6764 -0.5485
  903MOL0     H24562  11.130   0.187   3.692 -2.4723 -2.2878 -5.2878
  903MOL0     H24563  11.240   0.116   3.459  0.0948  0.8298 -1.6147
  903MOL0     H24564  11.562   0.243   3.291  1.3259 -1.0352  0.9488
  903MOL0     H24565  11.421   0.156   3.247  2.3061  0.9503 -0.5312
  903MOL0     H24566  11.637   0.055   3.442  0.1573 -3.7404 -0.1757
  903MOL0     H24567  11.480  -0.013   3.428  0.3417  1.0519  1.0088
  903MOL0     H24568  11.530  -0.074   3.198 -1.2377  0.8070  1.7923
  903MOL0     H24569  11.671   0.031   3.202  0.7304 -0.6555 -1.1466
  903MOL0     H24570  11.640  -0.223   3.387  0.9468  0.7593  0.0825
  903MOL0     H24571  11.712  -0.223   3.230 -0.7127  1.1290 -0.2922
  903MOL0     H24572  11.844  -0.120   3.098 -0.5551 -0.5058  1.7951
  903MOL0     H24573  12.110  -0.109   2.897  0.0083 -1.6090  2.1266
  903MOL0     H24574  12.017   0.047   2.890 -1.2127 -0.6647 -0.3503
  903MOL0     H24575  11.937  -0.114   2.899 -0.5565  0.0959  0.0982
  903MOL0     H24576  12.540   0.253   3.231  0.8982 -2.1461  0.3262
  903MOL0     H24577  12.729   0.372   3.122 -0.7016  0.3131  1.5622
  903MOL0     H24578  12.768   0.541   2.916  2.1065  2.4038 -0.5423
  903MOL0     H24579  12.888   0.470   3.023 -0.1458  0.4558  1.2323
  903MOL0     H24580  12.980   0.591   2.840  1.3266  1.0419 -3.2363
  903MOL0     H24581  13.022   0.428   2.785 -0.4023  0.7952 -2.8759
  903MOL0     H24582  12.752   0.493   2.666  0.7306  0.0581  2.2422
  903MOL0     H24583  12.903   0.495   2.586 -2.7178 -1.3184 -1.4455
  903MOL0     H24584  12.945   0.723   2.658 -0.7216  1.1687 -1.1277
  903MOL0     H24585  12.803   0.718   2.757 -0.8181 -1.2657  0.6975
  903MOL0     H24586  12.833   0.707   2.456  0.3069  0.3028 -0.4870
  903MOL0     H24587  12.678   0.663   2.526  1.2634 -1.5466 -2.0481
  903MOL0     H24588  12.835   0.908   2.581 -0.1968 -2.2329  1.8205
  903MOL0     H24589  12.679   0.897   2.650 -0.2524  1.3963 -0.5468
  903MOL0     H24590  12.727   0.912   2.346 -0.7844 -1.5081 -0.5938
  903MOL0     H24591  12.661   1.049   2.440 -0.6234 -0.4798  0.9935
  903MOL0     H24592  12.484   0.849   2.511  0.1899  1.1633 -0.5510
  903MOL0     H24593  12.559   0.781   2.356  0.9389  0.7084 -0.6466
  903MOL0     H24594  12.689   0.118   2.787 -0.3685 -2.5049  1.6711
  903MOL0     H24595  12.500  -0.016   2.899 -2.5478 -0.0400 -0.2108
  903MOL0     H24596  12.210   0.066   3.346  1.5756 -0.9362 -0.3498
  903MOL0     H24597  12.013  -0.018   3.468  2.7080  2.5412  0.3020
  903MOL0     H24598  10.187  -0.012   3.473 -0.3745 -0.8680 -0.0527
  903MOL0     H24599   9.999  -0.085   3.326  0.8223 -1.2223  1.2337
  903MOL0     H24600   9.389   0.028   3.350  0.9402  3.0117 -0.6089
  903MOL0     H24601   9.209  -0.050   3.216 -0.2668  0.1260 -3.2936
  903MOL0     H24602   9.080  -0.063   3.055 -2.6031 -0.1066  1.8613
  903MOL0     H24603   9.048  -0.169   2.920 -0.1204  3.1838 -0.0605
  903MOL0     H24604   9.114  -0.290   3.199  0.7724  1.7056 -0.5819
  903MOL0     H24605   9.101  -0.378   3.057 -0.8965 -0.0582 -1.2583
  903MOL0     H24606   8.878  -0.210   3.180  2.1485 -2.1943  4.8560
  903MOL0     H24607   8.866  -0.269   3.018  0.4961 -1.1043 -1.2691
  903MOL0     H24608   8.878  -0.498   3.095  1.8092 -1.3199  1.3539
  903MOL0     H24609   8.736  -0.441   3.172 -0.5479 -1.3326  0.9295
  903MOL0     H24610   8.938  -0.567   3.516 -1.2524 -2.3002 -0.0806
  903MOL0     H24611   9.465  -0.132   2.897  1.5438 -0.1031 -0.1399
  903MOL0     H24612   9.698   0.077   2.908  2.6772 -0.4796 -2.1013
  903MOL0     H24613   9.776  -0.036   3.020 -1.2656 -0.3559  1.6068
  903MOL0     H24614   9.681  -0.107   2.893 -0.5836 -0.6862  1.2808
  904MOL0     O24615   5.839  11.125  10.395 -0.1080 -0.4806  0.1296
  904MOL0     C24616   5.778  11.222  10.451 -0.3426  0.6146 -0.5430
  904MOL0     O24617   5.759  11.348  10.391 -0.4111  0.2936 -0.1665
  904MOL0     C24618   5.765  11.363  10.256  0.6033 -0.2791  0.4846
  904MOL0     C24619   5.857  11.449  10.193 -0.2113 -0.0693  1.2350
  904MOL0     C24620   5.846  11.458  10.053  0.4942 -0.1385  0.3032
  904MOL0     C24621   5.755  11.383   9.978 -0.4522 -0.0589  0.2654
  904MOL0     O24622   5.758  11.395   9.837 -0.4732  0.2026  0.1882
  904MOL0     C24623   5.681  11.304   9.750  0.7885  0.2359  0.6783
  904MOL0     C24624   5.763  11.238   9.637 -0.0645 -0.5729 -0.8508
  904MOL0     C24625   5.671  11.145   9.561 -0.1068 -0.9614  0.2281
  904MOL0     C24626   5.755  11.083   9.454 -1.2137  0.0761  1.0376
  904MOL0     C24627   5.770  10.932   9.471 -0.7728  0.1956  0.2840
  904MOL0     C24628   5.863  10.878   9.581  0.4242 -0.2328  0.0970
  904MOL0     C24629   5.864  10.727   9.598 -0.2390 -0.3029  0.6384
  904MOL0     C24630   5.907  10.651   9.469  0.4688  0.3411  0.1866
  904MOL0     N24631   6.046  10.689   9.430  0.0684 -0.3359 -0.4103
  904MOL0     C24632   6.063  10.751   9.317 -1.1746 -0.6768 -0.7557
  904MOL0     C24633   6.203  10.756   9.308  0.0750 -0.4385  0.1333
  904MOL0     C24634   6.295  10.813   9.190  0.0667 -0.3513 -0.8845
  904MOL0     C24635   6.301  10.967   9.231 -0.1316  0.9021 -1.0722
  904MOL0     C24636   6.177  11.051   9.229 -0.0659  1.4826  0.4057
  904MOL0     C24637   6.111  11.043   9.087 -0.0587 -0.4442 -0.0012
  904MOL0     O24638   6.202  11.112   9.002  0.5966 -0.5662  0.0067
  904MOL0     C24639   6.167  11.125   8.868  0.1908  0.0197  0.0487
  904MOL0     C24640   6.247  11.216   8.794 -0.6027 -0.0576  0.5065
  904MOL0     C24641   6.219  11.236   8.651 -0.2107  0.2672  0.0554
  904MOL0     C24642   6.296  11.332   8.574 -0.2252 -0.1897 -0.1089
  904MOL0     C24643   6.114  11.170   8.588 -0.4494  0.6381  0.6782
  904MOL0     C24644   6.082  11.188   8.451 -0.0909  0.1416  1.1687
  904MOL0     O24645   6.052  11.072   8.374 -0.4687 -0.1907 -0.7586
  904MOL0     C24646   5.987  11.085   8.257 -0.2577  0.5480 -0.7386
  904MOL0     C24647   6.057  11.029   8.153  0.8622 -1.1298  1.6053
  904MOL0     C24648   6.011  11.044   8.020 -0.0981  0.2554  0.2129
  904MOL0     C24649   5.898  11.112   7.990 -0.2191 -0.4441 -0.3834
  904MOL0     O24650   5.859  11.124   7.859  0.0161 -0.9424  0.8582
  904MOL0     C24651   5.718  11.169   7.835  0.2486 -0.6819 -0.0834
  904MOL0     C24652   5.714  11.213   7.692 -0.0462 -0.1803 -0.2425
  904MOL0     C24653   5.785  11.351   7.679 -0.1966  0.9783 -0.1831
  904MOL0     C24654   5.771  11.397   7.532 -0.1286 -0.0168  0.0906
  904MOL0     C24655   5.817  11.542   7.514  0.6990  0.7408 -0.3549
  904MOL0     C24656   5.747  11.645   7.599 -0.8895  0.4666  0.6045
  904MOL0     C24657   5.832  11.776   7.585  0.8374  0.8681 -0.2368
  904MOL0     C24658   5.816  11.870   7.698  0.1614 -0.0970 -0.1501
  904MOL0    Cl24659   5.634  11.908   7.683  0.4297  0.2874  0.6836
  904MOL0     C24660   5.836  11.184   8.102  0.8638 -0.6944 -0.3944
  904MOL0     C24661   5.875  11.165   8.237  0.6117  0.4259 -0.1056
  904MOL0     O24662   6.076  11.304   8.410 -0.0836  0.9735  0.1092
  904MOL0     C24663   6.047  11.075   8.665  0.4723  0.1261  0.2985
  904MOL0     C24664   6.069  11.064   8.809 -0.9721  1.0086  0.9917
  904MOL0     N24665   6.253  10.670   9.400 -0.3440  0.7634 -0.6571
  904MOL0     N24666   6.157  10.638   9.483  0.3637 -1.3474 -0.6123
  904MOL0     C24667   5.665  11.302  10.048  1.8577 -0.5027  0.2627
  904MOL0     C24668   5.663  11.289  10.186 -0.5181  1.3107  0.3273
  904MOL0     C24669   5.753  11.215  10.595  0.4561 -0.0495 -1.0638
  904MOL0     C24670   5.639  11.293  10.635  0.2743 -0.0406 -0.9021
  904MOL0     C24671   5.599  11.303  10.763  0.3683 -0.1289 -0.2659
  904MOL0     C24672   5.664  11.229  10.854 -1.3412 -0.1444 -0.1637
  904MOL0     O24673   5.647  11.232  10.991 -0.7308  0.0491  0.2679
  904MOL0     C24674   5.561  11.312  11.057  0.6835 -0.3374  0.0857
  904MOL0     C24675   5.543  11.248  11.200 -1.2330 -0.6232 -0.0799
  904MOL0     C24676   5.655  11.167  11.268  0.7470  0.6356 -0.2378
  904MOL0     C24677   5.592  11.109  11.403 -1.2821  0.6821 -0.0333
  904MOL0     C24678   5.695  11.012  11.448  0.5089 -0.6761  0.1931
  904MOL0     C24679   5.787  10.944  11.481 -0.3904  0.2375 -0.1538
  904MOL0     C24680   5.778  11.149  10.819  0.3915  0.2660 -0.1431
  904MOL0     C24681   5.825  11.149  10.689  0.6989  0.2877 -0.1083
  904MOL0     C24682   5.945  11.059  10.644  0.8748  0.6558  0.5740
  904MOL0     H24683   5.931  11.507  10.246  0.4378  0.4942 -0.2437
  904MOL0     H24684   5.911  11.530  10.005  1.0620  0.8730  2.4907
  904MOL0     H24685   5.592  11.350   9.706  0.2468 -2.1185 -0.9135
  904MOL0     H24686   5.641  11.216   9.803 -0.2662 -0.9076 -1.8637
  904MOL0     H24687   5.808  11.314   9.572 -0.6857  1.1900  0.6959
  904MOL0     H24688   5.843  11.185   9.691 -1.5007  0.3388  2.4085
  904MOL0     H24689   5.646  11.072   9.638  1.6276  1.1047  2.9650
  904MOL0     H24690   5.580  11.190   9.521 -0.4471 -0.4358  1.5207
  904MOL0     H24691   5.712  11.101   9.355 -1.0899 -0.2283  0.9262
  904MOL0     H24692   5.855  11.128   9.453 -1.3179  0.3702 -0.7993
  904MOL0     H24693   5.806  10.885   9.379  1.7982  1.3269  0.6055
  904MOL0     H24694   5.676  10.885   9.502  0.6958 -1.9702  1.8507
  904MOL0     H24695   5.963  10.922   9.571  0.4436  0.0533  1.4545
  904MOL0     H24696   5.823  10.915   9.676 -1.5890 -5.5313  1.6364
  904MOL0     H24697   5.762  10.701   9.629 -0.1006  0.7745  2.0739
  904MOL0     H24698   5.932  10.694   9.677 -0.4520 -0.9094  0.5795
  904MOL0     H24699   5.903  10.542   9.479 -3.8444  0.4543  1.5325
  904MOL0     H24700   5.827  10.692   9.407  0.3690  3.9921  2.4210
  904MOL0     H24701   6.001  10.806   9.247  3.5318  1.0982 -3.9370
  904MOL0     H24702   6.236  10.789   9.102 -2.5883 -1.2592  1.0228
  904MOL0     H24703   6.380  10.745   9.197  0.3754  0.1525  3.2714
  904MOL0     H24704   6.325  10.970   9.337  0.1680 -0.8649 -1.0505
  904MOL0     H24705   6.381  11.020   9.178  3.3705 -3.6206 -0.9688
  904MOL0     H24706   6.097  11.036   9.302 -0.8277  4.3908  0.3309
  904MOL0     H24707   6.224  11.148   9.247  5.0094 -0.5054 -0.4485
  904MOL0     H24708   6.087  10.940   9.059  2.7156 -1.3346  0.5741
  904MOL0     H24709   6.017  11.099   9.090  0.6764  1.0055 -2.2235
  904MOL0     H24710   6.332  11.267   8.838 -0.5904 -0.0760  0.5042
  904MOL0     H24711   6.387  11.357   8.631  0.9241 -0.5350 -1.7232
  904MOL0     H24712   6.234  11.417   8.544 -2.3565 -2.3284 -2.1448
  904MOL0     H24713   6.338  11.288   8.484  1.8631  2.7554 -0.6996
  904MOL0     H24714   6.158  10.992   8.171  2.1370 -0.4329 -2.7335
  904MOL0     H24715   6.079  11.009   7.942  1.6865  0.2987  1.6775
  904MOL0     H24716   5.646  11.087   7.849  1.8129 -1.5980  4.1514
  904MOL0     H24717   5.680  11.249   7.899 -1.1424  0.2328 -1.9575
  904MOL0     H24718   5.769  11.141   7.629  1.1485 -0.0766  0.6572
  904MOL0     H24719   5.610  11.217   7.658 -0.0783  0.7533 -0.0512
  904MOL0     H24720   5.890  11.356   7.709 -0.0545 -0.7609 -0.2436
  904MOL0     H24721   5.729  11.425   7.736 -1.3667  1.4057 -1.8165
  904MOL0     H24722   5.667  11.390   7.497 -0.8166 -3.6319  2.2664
  904MOL0     H24723   5.832  11.328   7.474 -0.5141 -0.4227  0.1537
  904MOL0     H24724   5.920  11.531   7.550  0.9505 -5.9065 -1.8439
  904MOL0     H24725   5.819  11.570   7.408  1.2026  0.0637 -0.5364
  904MOL0     H24726   5.750  11.615   7.704 -2.0825 -0.8141  0.2986
  904MOL0     H24727   5.646  11.667   7.565 -0.8501  3.4549  2.0840
  904MOL0     H24728   5.804  11.824   7.491 -5.1612 -1.8867 -0.2951
  904MOL0     H24729   5.939  11.751   7.582  0.7499  0.4970 -0.3390
  904MOL0     H24730   5.861  11.967   7.678 -1.2708  0.1505 -2.4993
  904MOL0     H24731   5.839  11.842   7.802  0.1728  2.1392  0.5081
  904MOL0     H24732   5.765  11.264   8.082 -0.4483 -1.3996  1.1738
  904MOL0     H24733   5.815  11.227   8.303 -2.1502 -4.3578  2.4034
  904MOL0     H24734   5.974  11.017   8.608  1.9488  1.0333 -2.7368
  904MOL0     H24735   6.007  10.996   8.866  1.5201 -3.6624 -1.2696
  904MOL0     H24736   5.595  11.243   9.990  0.9925  1.5532 -0.8700
  904MOL0     H24737   5.596  11.222  10.240  0.1191 -0.1113 -0.5909
  904MOL0     H24738   5.585  11.350  10.560  1.1318  1.5653 -0.3337
  904MOL0     H24739   5.509  11.363  10.771 -0.2296 -0.8840 -1.2496
  904MOL0     H24740   5.615  11.407  11.059 -1.4179  0.9465  3.0068
  904MOL0     H24741   5.464  11.336  11.012 -0.5367 -0.2615  2.5760
  904MOL0     H24742   5.451  11.189  11.203 -1.3648 -0.3934  0.4852
  904MOL0     H24743   5.528  11.334  11.267 -2.4881 -1.1038  0.2875
  904MOL0     H24744   5.685  11.085  11.203  0.1670 -0.9569  1.4283
  904MOL0     H24745   5.740  11.231  11.293  0.5649  0.0036  2.3720
  904MOL0     H24746   5.492  11.066  11.392 -0.0837 -2.4525  0.0771
  904MOL0     H24747   5.582  11.185  11.481  1.7840  0.3219  0.8679
  904MOL0     H24748   5.868  10.884  11.515 -1.8228 -0.2727  2.6694
  904MOL0     H24749   5.820  11.078  10.890 -2.8491 -0.0326  1.6607
  904MOL0     H24750   5.995  11.018  10.732  0.6129  0.1787  0.5063
  904MOL0     H24751   5.909  10.970  10.592 -1.3930  0.3539  2.4917
  904MOL0     H24752   6.015  11.114  10.581 -1.2121  0.7258 -1.8644
  905MOL0     O24753  10.137   7.131  11.306  0.2243 -1.0108 -0.1336
  905MOL0     C24754  10.181   7.212  11.227  0.0615  0.6694 -0.2502
  905MOL0     O24755  10.149   7.214  11.097 -1.0813  0.5786  0.8756
  905MOL0     C24756  10.077   7.107  11.053  0.3809  0.6046  0.2054
  905MOL0     C24757   9.944   7.080  11.096  1.1412  0.1830 -0.0669
  905MOL0     C24758   9.898   6.955  11.053  0.2047  0.3807  0.7798
  905MOL0     C24759   9.958   6.877  10.949 -0.1042 -0.2190  0.1922
  905MOL0     O24760   9.892   6.767  10.909  0.0279 -0.1218  0.3412
  905MOL0     C24761   9.944   6.696  10.802  0.8538  0.1533  0.1386
  905MOL0     C24762   9.839   6.614  10.731  0.5762  0.2323  0.4513
  905MOL0     C24763   9.872   6.542  10.596 -0.3057 -0.7738 -0.6901
  905MOL0     C24764   9.957   6.427  10.604 -0.5301 -0.4382 -0.1180
  905MOL0     C24765  10.012   6.403  10.460 -0.6876 -0.5656  0.8252
  905MOL0     C24766   9.919   6.318  10.376 -0.5523  1.0887 -0.4950
  905MOL0     C24767   9.990   6.235  10.258 -0.3607 -0.6248 -0.4474
  905MOL0     C24768   9.890   6.151  10.190  0.2713  0.8553 -0.1269
  905MOL0     N24769   9.797   6.235  10.116 -0.0946  0.0648 -0.3982
  905MOL0     C24770   9.836   6.299   9.992  0.2653  0.5031 -0.5985
  905MOL0     C24771   9.716   6.340   9.940  0.8854 -0.2657 -0.0161
  905MOL0     C24772   9.691   6.408   9.807  1.1730  0.4114  0.3397
  905MOL0     C24773   9.694   6.307   9.686  1.2613 -0.3570  0.4719
  905MOL0     C24774   9.621   6.361   9.564 -0.3617 -0.1046  0.1252
  905MOL0     C24775   9.660   6.298   9.431 -0.5065  0.5318 -0.2719
  905MOL0     O24776   9.605   6.386   9.323 -0.3853 -0.0228 -0.5568
  905MOL0     C24777   9.693   6.472   9.265 -0.2983  1.1907 -1.1046
  905MOL0     C24778   9.684   6.474   9.123 -0.2369 -0.5357 -0.2892
  905MOL0     C24779   9.787   6.522   9.043 -0.3603  0.1668 -0.4254
  905MOL0     C24780   9.764   6.527   8.900  0.5279  0.4464  1.2299
  905MOL0     C24781   9.909   6.576   9.102  0.1130 -0.8128 -0.4117
  905MOL0     C24782  10.035   6.623   9.032  0.4794  0.8180  0.5503
  905MOL0     O24783  10.132   6.650   9.120 -0.2623  0.9053  0.2955
  905MOL0     C24784  10.265   6.673   9.082  0.9060 -0.3925  0.7079
  905MOL0     C24785  10.318   6.800   9.085  0.1516  0.0889  1.3413
  905MOL0     C24786  10.455   6.818   9.055  0.0131  0.0873  0.1892
  905MOL0     C24787  10.540   6.713   9.030  0.5177 -0.5556  0.0412
  905MOL0     O24788  10.678   6.742   9.017 -0.3019  0.9398  0.2169
  905MOL0     C24789  10.783   6.644   9.061 -0.1002  0.4728 -0.9849
  905MOL0     C24790  10.819   6.682   9.207 -1.2222  1.2202  0.5614
  905MOL0     C24791  10.939   6.588   9.242 -0.5822  0.6911  0.6534
  905MOL0     C24792  10.930   6.582   9.400 -0.1414  0.1109 -1.2813
  905MOL0     C24793  11.055   6.521   9.446  0.0970 -0.1438 -0.6631
  905MOL0     C24794  11.090   6.554   9.592  0.8962 -1.0242  1.2395
  905MOL0     C24795  10.993   6.484   9.694 -1.0204  0.3385 -0.0744
  905MOL0     C24796  11.052   6.469   9.831 -0.4138 -0.8518 -0.2275
  905MOL0    Cl24797  10.976   6.327   9.904  0.4922  0.3312 -0.2787
  905MOL0     C24798  10.489   6.587   9.032 -0.0465 -0.1550  0.2815
  905MOL0     C24799  10.355   6.567   9.055 -0.7844 -0.7872  0.8452
  905MOL0     O24800  10.040   6.642   8.909 -0.0453 -0.0132  0.2165
  905MOL0     C24801   9.906   6.584   9.243  0.4438  0.6879 -0.4663
  905MOL0     C24802   9.803   6.529   9.322 -0.0070  0.4152  0.6680
  905MOL0     N24803   9.614   6.306  10.024 -0.4977  0.1641 -0.9365
  905MOL0     N24804   9.660   6.231  10.117  1.0857  0.0157 -0.3566
  905MOL0     C24805  10.072   6.931  10.891 -0.3508  0.6303  0.0142
  905MOL0     C24806  10.131   7.032  10.947 -0.3578 -1.0314  0.5663
  905MOL0     C24807  10.250   7.328  11.289 -0.0031 -0.0133 -0.2964
  905MOL0     C24808  10.233   7.344  11.430  0.6962  1.0088 -0.3950
  905MOL0     C24809  10.272   7.462  11.491  0.2694  0.1031  0.1209
  905MOL0     C24810  10.355   7.554  11.431  0.4146 -0.5469 -0.3325
  905MOL0     O24811  10.413   7.665  11.489  0.3812  0.3125 -0.6131
  905MOL0     C24812  10.359   7.708  11.614 -0.5802  0.0861 -1.2798
  905MOL0     C24813  10.482   7.786  11.672  0.0246  0.2812 -0.3632
  905MOL0     C24814  10.622   7.711  11.658 -0.2341  1.4929 -0.4648
  905MOL0     C24815  10.719   7.795  11.746  0.7496 -0.1378  0.8003
  905MOL0     C24816  10.830   7.715  11.793  0.2875  1.1127  0.2086
  905MOL0     C24817  10.930   7.665  11.842  0.8811  0.6998 -0.8300
  905MOL0     C24818  10.392   7.534  11.301  0.3922  0.7350  0.0102
  905MOL0     C24819  10.343   7.419  11.230 -0.7324 -0.0238  0.0830
  905MOL0     C24820  10.369   7.415  11.082 -0.4650 -0.3380  1.4866
  905MOL0     H24821   9.910   7.143  11.177 -0.2262  2.7142 -2.4528
  905MOL0     H24822   9.796   6.924  11.074  0.5050 -0.4668  1.0383
  905MOL0     H24823  10.019   6.621  10.829 -3.6846 -5.3797 -0.6761
  905MOL0     H24824   9.987   6.766  10.730  0.6331 -1.0877 -1.2670
  905MOL0     H24825   9.811   6.533  10.799 -0.2469 -0.4277 -0.6478
  905MOL0     H24826   9.752   6.679  10.714  0.2964 -1.0068 -3.9594
  905MOL0     H24827   9.780   6.510  10.548  0.2306 -0.0326 -2.2912
  905MOL0     H24828   9.909   6.628  10.539 -2.0806 -0.2359 -1.1085
  905MOL0     H24829  10.049   6.445  10.660 -1.3652 -3.8581  2.7294
  905MOL0     H24830   9.898   6.346  10.648 -0.4508  1.1893  3.2515
  905MOL0     H24831  10.115   6.365  10.465 -0.8663 -1.7980 -2.4863
  905MOL0     H24832  10.037   6.494  10.406  0.1973  2.1766  5.3265
  905MOL0     H24833   9.872   6.249  10.446  1.4384 -0.5625 -0.6734
  905MOL0     H24834   9.834   6.377  10.341 -2.6588 -0.4132  1.7828
  905MOL0     H24835  10.074   6.173  10.290  0.5368  1.0687  0.6449
  905MOL0     H24836  10.036   6.299  10.182  0.2607 -0.5569 -0.0143
  905MOL0     H24837   9.930   6.077  10.119 -1.6914 -0.2924 -0.1090
  905MOL0     H24838   9.841   6.087  10.264  1.0257  1.7528  1.1899
  905MOL0     H24839   9.936   6.300   9.949  1.2905 -1.3827  1.4893
  905MOL0     H24840   9.764   6.488   9.793  2.8513 -0.7809  1.6669
  905MOL0     H24841   9.591   6.451   9.804  1.9008  2.1081 -1.5038
  905MOL0     H24842   9.799   6.280   9.667  0.6954 -1.9841 -0.5542
  905MOL0     H24843   9.645   6.213   9.711  0.9251  0.3235  2.5427
  905MOL0     H24844   9.513   6.348   9.562 -1.2207  4.9844 -0.5781
  905MOL0     H24845   9.631   6.469   9.546  1.8497 -0.5993 -2.1652
  905MOL0     H24846   9.768   6.289   9.411 -0.8629  0.5088 -2.4018
  905MOL0     H24847   9.615   6.205   9.396 -1.5351  0.5939  0.8166
  905MOL0     H24848   9.601   6.428   9.070 -2.6822  1.4596  1.5469
  905MOL0     H24849   9.666   6.496   8.865  0.8642  2.3077 -1.7327
  905MOL0     H24850   9.842   6.477   8.842 -2.1714 -2.2366 -0.3322
  905MOL0     H24851   9.775   6.632   8.870  1.2096 -0.0706 -0.4171
  905MOL0     H24852  10.263   6.892   9.102  1.2027  1.3673 -1.6076
  905MOL0     H24853  10.494   6.920   9.059  2.5402 -0.8557  1.5705
  905MOL0     H24854  10.738   6.544   9.068  0.8907  0.1261  1.3651
  905MOL0     H24855  10.875   6.630   9.004  2.0187 -2.9716  2.7115
  905MOL0     H24856  10.857   6.785   9.211 -0.4648  0.9349  0.9748
  905MOL0     H24857  10.739   6.664   9.280  0.3302 -0.6423  1.8962
  905MOL0     H24858  11.024   6.649   9.209 -1.1649  0.0341 -2.3581
  905MOL0     H24859  10.921   6.487   9.204  1.7836  0.4819 -0.0632
  905MOL0     H24860  10.845   6.518   9.428  1.6259 -1.8255 -0.0360
  905MOL0     H24861  10.911   6.679   9.445 -0.4576 -0.3025 -0.5066
  905MOL0     H24862  11.050   6.413   9.433  1.0477 -0.3030  0.1805
  905MOL0     H24863  11.135   6.555   9.379  0.2334 -0.3908 -0.6253
  905MOL0     H24864  11.084   6.661   9.617 -1.1731 -0.7443 -0.2182
  905MOL0     H24865  11.197   6.532   9.599  1.8426  1.4189 -2.3548
  905MOL0     H24866  10.957   6.392   9.647 -0.8860 -0.0905  0.6591
  905MOL0     H24867  10.904   6.547   9.702 -0.4810  1.0845  0.1293
  905MOL0     H24868  11.049   6.560   9.892  3.3991 -0.5401 -0.2365
  905MOL0     H24869  11.157   6.442   9.815 -0.8329 -1.0380 -3.0427
  905MOL0     H24870  10.554   6.502   9.021  0.5752  0.0791  1.9002
  905MOL0     H24871  10.315   6.467   9.060 -1.7970 -0.4334  0.1749
  905MOL0     H24872  10.001   6.617   9.283  0.1002  2.0263 -0.7005
  905MOL0     H24873   9.817   6.530   9.430  2.6063 -1.7070  0.4364
  905MOL0     H24874  10.137   6.876  10.823 -0.5061  0.4268  0.0284
  905MOL0     H24875  10.222   7.071  10.903 -0.6748 -0.4357  0.4180
  905MOL0     H24876  10.154   7.285  11.474  1.2256 -0.0677 -0.8523
  905MOL0     H24877  10.234   7.470  11.592 -2.3945  0.7995 -0.8336
  905MOL0     H24878  10.277   7.777  11.592 -0.2358  0.5034 -1.2758
  905MOL0     H24879  10.333   7.636  11.692 -0.6998  0.3021 -1.1175
  905MOL0     H24880  10.458   7.807  11.776 -0.7342  0.7613 -0.6252
  905MOL0     H24881  10.499   7.879  11.617 -2.3540  2.1732  1.8457
  905MOL0     H24882  10.618   7.608  11.693 -0.3497 -0.1707 -4.7986
  905MOL0     H24883  10.657   7.701  11.555  0.1119 -2.2117 -0.1250
  905MOL0     H24884  10.675   7.855  11.826  0.1625  1.2583 -0.5132
  905MOL0     H24885  10.762   7.868  11.677 -0.0804 -0.2014  0.1906
  905MOL0     H24886  11.029   7.631  11.866  0.8363  1.7480  1.0963
  905MOL0     H24887  10.454   7.607  11.250 -2.1735  2.7234 -0.4248
  905MOL0     H24888  10.280   7.439  11.023  0.3191  3.8355  1.6875
  905MOL0     H24889  10.443   7.485  11.044 -3.3520  0.9171 -2.5106
  905MOL0     H24890  10.398   7.313  11.055  3.9815  0.1315  3.5805
  906MOL0     O24891   9.021   3.381   1.749  0.0528 -0.2095  0.1209
  906MOL0     C24892   9.087   3.306   1.676 -0.7076  0.5988  0.3378
  906MOL0     O24893   9.074   3.301   1.533 -0.2149 -0.3374  0.0033
  906MOL0     C24894   8.957   3.340   1.480  0.1337 -0.2814  0.3366
  906MOL0     C24895   8.829   3.351   1.539  0.8029 -0.5045 -1.6213
  906MOL0     C24896   8.711   3.388   1.469  0.1956  0.6895  0.7206
  906MOL0     C24897   8.714   3.404   1.330 -0.0800  0.4005 -0.4366
  906MOL0     O24898   8.589   3.429   1.277 -0.1672 -0.1779 -0.4992
  906MOL0     C24899   8.561   3.364   1.152 -0.7099 -0.3380  0.2588
  906MOL0     C24900   8.590   3.472   1.037 -0.0465  0.1504  0.8932
  906MOL0     C24901   8.465   3.507   0.958  0.7464  0.3198  0.5279
  906MOL0     C24902   8.365   3.610   1.024  0.3742 -0.1433  0.0936
  906MOL0     C24903   8.232   3.604   0.953 -0.5271 -0.4550  0.6257
  906MOL0     C24904   8.140   3.723   1.006 -0.3505  0.3043 -0.4843
  906MOL0     C24905   7.995   3.701   0.986 -0.1191 -0.1085 -0.5142
  906MOL0     C24906   7.908   3.813   1.035 -0.2612  0.2002 -0.0323
  906MOL0     N24907   7.911   3.831   1.182 -0.7264  0.1838  0.2550
  906MOL0     C24908   7.893   3.733   1.268  0.0673  0.1208 -0.1204
  906MOL0     C24909   7.915   3.791   1.392 -0.3576  0.7326  0.2855
  906MOL0     C24910   7.891   3.709   1.518  0.0411 -0.6498 -0.2447
  906MOL0     C24911   7.803   3.794   1.621 -0.0774  0.4825 -0.1479
  906MOL0     C24912   7.883   3.883   1.721 -0.2964 -0.3738 -0.5000
  906MOL0     C24913   7.795   3.963   1.809  0.1777 -0.6907  0.5908
  906MOL0     O24914   7.871   4.035   1.905  0.4267  0.5867  0.3098
  906MOL0     C24915   7.806   4.041   2.029 -0.2889  0.3189 -0.3032
  906MOL0     C24916   7.673   4.054   2.050  0.2191  0.2116 -0.0470
  906MOL0     C24917   7.612   4.063   2.176 -0.8702  0.4317  0.4873
  906MOL0     C24918   7.465   4.043   2.171 -0.0274 -0.5113 -0.2269
  906MOL0     C24919   7.686   4.084   2.283  1.0549 -0.5275 -0.9315
  906MOL0     C24920   7.619   4.103   2.417  0.9351  0.7805 -0.2629
  906MOL0     O24921   7.490   4.153   2.423  0.0806 -0.6924 -0.0870
  906MOL0     C24922   7.462   4.217   2.541 -0.3559 -0.3295 -0.3412
  906MOL0     C24923   7.328   4.205   2.580  0.5735  0.3508  0.3586
  906MOL0     C24924   7.289   4.265   2.696 -0.5129 -0.4983 -0.5380
  906MOL0     C24925   7.381   4.353   2.770  0.2405 -0.4174  0.0759
  906MOL0     O24926   7.357   4.400   2.886  0.9268 -0.2743 -1.3679
  906MOL0     C24927   7.225   4.460   2.905 -0.9087 -0.6333  0.7021
  906MOL0     C24928   7.140   4.372   2.998  0.4524 -0.1288 -0.3300
  906MOL0     C24929   6.995   4.411   2.997 -1.2279  0.8512  0.1167
  906MOL0     C24930   6.917   4.323   3.099 -0.3261 -0.6593  0.1539
  906MOL0     C24931   6.761   4.363   3.109 -0.5602  0.6073  0.2320
  906MOL0     C24932   6.678   4.270   3.022 -0.1089  0.6921  2.0656
  906MOL0     C24933   6.707   4.275   2.863 -1.0853 -0.4064 -0.5853
  906MOL0     C24934   6.592   4.222   2.783  1.0967  0.4558  0.5095
  906MOL0    Cl24935   6.534   4.060   2.826  0.3493 -0.3927  0.1228
  906MOL0     C24936   7.507   4.359   2.728 -0.1241  0.5226  0.9438
  906MOL0     C24937   7.543   4.297   2.607  0.0459 -1.6285 -0.0334
  906MOL0     O24938   7.686   4.069   2.514  0.0414 -0.4176 -0.6663
  906MOL0     C24939   7.829   4.066   2.269 -0.5249 -0.6277  0.6107
  906MOL0     C24940   7.891   4.050   2.145  0.2835  0.5712  0.2831
  906MOL0     N24941   7.945   3.929   1.378 -0.3118 -0.7233  0.2326
  906MOL0     N24942   7.943   3.953   1.254  0.2939  0.3659 -1.0711
  906MOL0     C24943   8.840   3.398   1.269 -0.2341 -0.1127 -0.0330
  906MOL0     C24944   8.959   3.376   1.345  0.2872 -0.1786  0.5624
  906MOL0     C24945   9.177   3.206   1.736 -0.6101 -0.9544  0.9898
  906MOL0     C24946   9.246   3.119   1.653  0.9236  0.1644  0.0149
  906MOL0     C24947   9.343   3.015   1.687 -0.5928  0.0005  0.4110
  906MOL0     C24948   9.376   3.012   1.817  0.8980  0.4946 -0.7267
  906MOL0     O24949   9.445   2.902   1.855  0.5467  0.2120 -0.0612
  906MOL0     C24950   9.394   2.831   1.967 -0.1742 -0.7269 -0.2806
  906MOL0     C24951   9.407   2.672   1.952 -0.6683 -0.4586 -0.5658
  906MOL0     C24952   9.549   2.620   1.977 -0.5881 -0.6678 -0.0864
  906MOL0     C24953   9.651   2.637   1.869 -0.3341 -0.3739  0.2215
  906MOL0     C24954   9.591   2.578   1.749  0.3716 -0.0030  0.7707
  906MOL0     C24955   9.547   2.541   1.639  0.3340  1.3582 -0.7437
  906MOL0     C24956   9.312   3.095   1.913  0.7923 -0.1132 -1.0828
  906MOL0     C24957   9.224   3.198   1.873 -0.5673  0.4692  0.1759
  906MOL0     C24958   9.170   3.299   1.972  0.4334 -0.5808  0.7485
  906MOL0     H24959   8.812   3.328   1.643  0.1924 -0.0398 -1.6128
  906MOL0     H24960   8.614   3.379   1.517 -0.9055 -0.2071 -1.5216
  906MOL0     H24961   8.458   3.328   1.142 -0.3861 -1.1641 -0.1957
  906MOL0     H24962   8.623   3.275   1.141 -1.4229 -0.9312  0.9603
  906MOL0     H24963   8.625   3.565   1.082 -1.2114  1.0357  0.0439
  906MOL0     H24964   8.676   3.441   0.977 -0.7035 -1.1967  0.5906
  906MOL0     H24965   8.504   3.553   0.868 -1.6136 -0.6750 -1.0983
  906MOL0     H24966   8.422   3.411   0.929  1.8286  0.5998 -2.2980
  906MOL0     H24967   8.364   3.593   1.132  1.4389  3.3395  0.7781
  906MOL0     H24968   8.406   3.710   1.007 -0.7175  0.5517  1.3824
  906MOL0     H24969   8.185   3.508   0.977  1.8166 -1.4960  1.3391
  906MOL0     H24970   8.248   3.625   0.847 -3.9996 -2.5719 -0.4627
  906MOL0     H24971   8.157   3.730   1.114 -0.5186 -4.8348  0.1234
  906MOL0     H24972   8.161   3.822   0.965 -0.1747  1.1649  1.5733
  906MOL0     H24973   7.966   3.618   1.051 -2.4747  1.5068  0.6421
  906MOL0     H24974   7.964   3.682   0.883  0.0399  1.5900 -0.8939
  906MOL0     H24975   7.938   3.906   0.987  0.5083 -2.0196 -4.3420
  906MOL0     H24976   7.801   3.810   1.012 -0.0986  0.6739 -0.8736
  906MOL0     H24977   7.871   3.628   1.248  1.2448 -0.3477  0.9071
  906MOL0     H24978   7.989   3.701   1.566 -0.1925  0.9097  0.5686
  906MOL0     H24979   7.846   3.610   1.509  1.6120 -1.2705 -1.9301
  906MOL0     H24980   7.739   3.856   1.558  0.8326  0.3974 -1.1740
  906MOL0     H24981   7.739   3.726   1.679  2.0036  0.1034  1.8714
  906MOL0     H24982   7.948   3.812   1.773  1.0701 -1.3878 -3.3575
  906MOL0     H24983   7.943   3.955   1.664 -1.6652  0.2767 -1.1463
  906MOL0     H24984   7.749   4.042   1.750 -2.0931 -2.8575 -0.7642
  906MOL0     H24985   7.717   3.901   1.855 -0.4868  0.2867  0.7942
  906MOL0     H24986   7.609   4.066   1.964 -2.3541  3.0253  2.0431
  906MOL0     H24987   7.444   3.982   2.083  2.5420  0.2943 -1.4965
  906MOL0     H24988   7.422   4.144   2.167  0.6068 -0.2435 -0.4705
  906MOL0     H24989   7.437   3.989   2.262 -0.7372 -0.0077 -0.1410
  906MOL0     H24990   7.258   4.153   2.516  3.0853  0.0588 -2.3145
  906MOL0     H24991   7.188   4.237   2.724  0.4431 -1.9365  1.8239
  906MOL0     H24992   7.245   4.563   2.938 -0.2299  0.2759 -2.2277
  906MOL0     H24993   7.178   4.478   2.807  0.1853  3.6363  0.7395
  906MOL0     H24994   7.161   4.271   2.961  0.1436 -1.0051  1.7199
  906MOL0     H24995   7.176   4.371   3.101 -3.7169 -0.6826  1.3344
  906MOL0     H24996   6.960   4.397   2.894 -3.5113  0.2176  0.9169
  906MOL0     H24997   6.978   4.518   3.014 -2.4590  0.6645  0.1758
  906MOL0     H24998   6.976   4.332   3.191  2.4664 -1.3980 -1.4389
  906MOL0     H24999   6.926   4.218   3.070  1.7813 -0.7877  1.0653
  906MOL0     H25000   6.716   4.331   3.203 -0.0533 -4.6220 -1.0085
  906MOL0     H25001   6.743   4.469   3.088  0.9565  0.9942  0.7021
  906MOL0     H25002   6.574   4.303   3.027 -0.5346 -0.5502  1.6666
  906MOL0     H25003   6.680   4.166   3.054 -2.9341 -0.4630 -0.9534
  906MOL0     H25004   6.790   4.205   2.853 -1.5676 -1.0570 -0.1355
  906MOL0     H25005   6.730   4.377   2.830 -0.4776  0.0209  1.0680
  906MOL0     H25006   6.612   4.211   2.676  0.2883 -0.4291  0.4457
  906MOL0     H25007   6.513   4.297   2.778  1.1612  0.4775 -0.4277
  906MOL0     H25008   7.578   4.409   2.791  0.7966 -1.3597  1.4859
  906MOL0     H25009   7.647   4.316   2.585 -0.0940  1.0217  1.2169
  906MOL0     H25010   7.893   4.072   2.357  1.3079  1.2595 -0.7485
  906MOL0     H25011   7.998   4.047   2.132  0.4980  0.3799  1.8735
  906MOL0     H25012   8.854   3.403   1.161  2.0894 -1.5557  0.1417
  906MOL0     H25013   9.057   3.369   1.297 -0.2620 -0.9061 -0.4960
  906MOL0     H25014   9.216   3.109   1.549  1.5432 -0.5799 -0.1086
  906MOL0     H25015   9.381   2.947   1.612  3.1297  0.0417  2.0652
  906MOL0     H25016   9.450   2.866   2.054 -2.3315 -2.1485  1.8057
  906MOL0     H25017   9.288   2.847   1.992  0.4710  1.6145  1.2077
  906MOL0     H25018   9.360   2.653   1.855 -0.8101 -1.5992 -0.2857
  906MOL0     H25019   9.346   2.618   2.025 -0.2373 -2.5668 -1.6582
  906MOL0     H25020   9.582   2.664   2.072  2.1468 -0.8948 -0.8607
  906MOL0     H25021   9.537   2.512   1.992  1.3433 -1.1556 -1.6374
  906MOL0     H25022   9.743   2.586   1.896  0.1275  0.6076  0.5575
  906MOL0     H25023   9.679   2.742   1.852 -1.8159 -0.0196 -0.1864
  906MOL0     H25024   9.496   2.508   1.551  1.0356 -1.1958 -0.2678
  906MOL0     H25025   9.333   3.087   2.020 -4.1611  2.3720  0.3820
  906MOL0     H25026   9.174   3.400   1.931 -1.5642 -0.6427  0.2839
  906MOL0     H25027   9.068   3.269   1.999  0.4953  0.1916  1.9101
  906MOL0     H25028   9.239   3.295   2.057 -0.2843 -2.6035  1.2917
  907MOL0     O25029   9.759   6.312   2.951  0.8368  0.5032 -0.4286
  907MOL0     C25030   9.769   6.293   2.831 -0.3099 -0.1506 -1.0911
  907MOL0     O25031   9.873   6.306   2.748  0.3918  0.0262 -0.2884
  907MOL0     C25032  10.006   6.330   2.788  0.2000  0.6586  0.0580
  907MOL0     C25033  10.086   6.394   2.689 -0.1441  0.2245 -0.1391
  907MOL0     C25034  10.214   6.435   2.724  0.3045  0.0955  0.3644
  907MOL0     C25035  10.270   6.424   2.854  1.3453  0.2774 -0.3544
  907MOL0     O25036  10.391   6.477   2.876 -0.6481 -0.6743  0.2858
  907MOL0     C25037  10.491   6.390   2.933  0.5487  0.1594  0.8174
  907MOL0     C25038  10.609   6.375   2.836 -0.9505  0.2644 -1.1104
  907MOL0     C25039  10.675   6.522   2.816 -0.2762 -0.2173  0.0982
  907MOL0     C25040  10.601   6.617   2.714  0.0373  0.3674  0.8730
  907MOL0     C25041  10.706   6.718   2.654 -0.6496 -0.8161  0.6943
  907MOL0     C25042  10.630   6.804   2.550  0.5895  0.2548  0.1513
  907MOL0     C25043  10.719   6.864   2.447  0.6886 -0.0269 -0.6628
  907MOL0     C25044  10.650   6.897   2.312 -0.2254  0.2138 -0.9298
  907MOL0     N25045  10.661   6.786   2.222 -0.4315 -0.2667  1.5959
  907MOL0     C25046  10.762   6.766   2.137 -0.0707 -0.1139  1.5326
  907MOL0     C25047  10.750   6.650   2.084  0.1034 -0.2427 -0.1728
  907MOL0     C25048  10.845   6.590   1.990  1.0353 -0.2237  0.0705
  907MOL0     C25049  10.771   6.518   1.875  0.0388 -0.5004 -0.2197
  907MOL0     C25050  10.861   6.467   1.765 -0.8414 -0.4337  0.5086
  907MOL0     C25051  10.796   6.353   1.691  0.0910  1.0692  0.5168
  907MOL0     O25052  10.777   6.248   1.787  0.7944  0.3628 -0.5363
  907MOL0     C25053  10.743   6.132   1.709  0.6166 -0.7004 -0.6907
  907MOL0     C25054  10.851   6.049   1.661  0.4482 -0.6461  0.4829
  907MOL0     C25055  10.832   5.922   1.590 -0.2504  0.0480 -0.6295
  907MOL0     C25056  10.955   5.848   1.551 -0.0489 -0.1162 -0.1839
  907MOL0     C25057  10.699   5.890   1.561 -0.2440  0.2405 -0.6838
  907MOL0     C25058  10.652   5.765   1.502  0.0892 -0.4634  0.6762
  907MOL0     O25059  10.717   5.655   1.508 -0.1045 -0.4565 -0.9128
  907MOL0     C25060  10.677   5.535   1.454  0.8935  0.2929 -0.1126
  907MOL0     C25061  10.789   5.445   1.423  0.9181 -0.1199  0.7722
  907MOL0     C25062  10.745   5.315   1.368 -0.5567 -0.2131  0.1778
  907MOL0     C25063  10.613   5.268   1.352 -0.3785 -0.4299 -0.3497
  907MOL0     O25064  10.595   5.146   1.303  0.2908  0.3378  0.2718
  907MOL0     C25065  10.484   5.120   1.208 -0.0739  0.9491 -0.1042
  907MOL0     C25066  10.444   4.972   1.199 -0.4667 -0.4082  0.4320
  907MOL0     C25067  10.313   4.938   1.129 -0.3583 -0.0268  0.2766
  907MOL0     C25068  10.307   4.979   0.984 -0.2639  0.4564  0.2049
  907MOL0     C25069  10.174   4.924   0.908 -0.2477 -0.4912  0.1186
  907MOL0     C25070  10.202   4.947   0.753 -0.1335  0.5144  0.0863
  907MOL0     C25071  10.111   4.858   0.664 -1.0896  0.5927  1.1072
  907MOL0     C25072   9.966   4.921   0.643 -1.0405  0.1350  0.9390
  907MOL0    Cl25073   9.843   4.900   0.778 -0.5997  0.0188 -0.6146
  907MOL0     C25074  10.512   5.356   1.395  0.1701  0.0955 -0.3658
  907MOL0     C25075  10.534   5.484   1.447  0.1536 -0.0742  0.0772
  907MOL0     O25076  10.541   5.776   1.448 -0.3290 -0.1592 -0.1246
  907MOL0     C25077  10.598   5.977   1.597 -0.0008 -0.2919  0.0751
  907MOL0     C25078  10.620   6.087   1.673  1.3341  0.6902  0.3002
  907MOL0     N25079  10.634   6.591   2.137 -0.4033 -0.8878  0.6525
  907MOL0     N25080  10.574   6.683   2.210  0.3760 -0.3581  0.0571
  907MOL0     C25081  10.195   6.345   2.945 -0.0640 -0.8479 -0.1095
  907MOL0     C25082  10.063   6.308   2.916  1.3400 -0.0441  0.9808
  907MOL0     C25083   9.640   6.253   2.759 -0.1826 -0.5531  0.8599
  907MOL0     C25084   9.524   6.310   2.800  1.0609  0.0113 -0.1910
  907MOL0     C25085   9.407   6.310   2.723 -1.4920 -0.5070 -0.5446
  907MOL0     C25086   9.407   6.252   2.609  0.2954 -0.4193 -0.0667
  907MOL0     O25087   9.286   6.244   2.546 -0.7226 -0.2026 -0.5006
  907MOL0     C25088   9.267   6.158   2.433 -0.3604  0.5109 -0.8118
  907MOL0     C25089   9.247   6.006   2.448 -0.2730  1.0202  0.6787
  907MOL0     C25090   9.275   5.919   2.312  0.1132  0.0440 -0.6760
  907MOL0     C25091   9.289   5.768   2.344  0.6035  1.1012  0.4614
  907MOL0     C25092   9.151   5.731   2.382 -0.1301 -1.5817  0.6095
  907MOL0     C25093   9.034   5.729   2.417  0.0592 -0.9152  0.3479
  907MOL0     C25094   9.523   6.184   2.555  0.1118 -0.1105 -0.2677
  907MOL0     C25095   9.641   6.181   2.634 -0.1849 -0.7552  0.0385
  907MOL0     C25096   9.764   6.116   2.582 -0.6517  0.0325  1.2452
  907MOL0     H25097  10.046   6.395   2.589 -1.4535  1.1857  0.3671
  907MOL0     H25098  10.273   6.492   2.653  1.0115 -1.3177 -0.2214
  907MOL0     H25099  10.456   6.287   2.950  1.6273 -0.4948 -0.7653
  907MOL0     H25100  10.519   6.416   3.036 -2.6319 -2.0279  2.4332
  907MOL0     H25101  10.683   6.312   2.885 -2.3618 -0.4353  0.2217
  907MOL0     H25102  10.575   6.326   2.744 -1.4810  0.6930 -1.1482
  907MOL0     H25103  10.688   6.563   2.917 -2.3196 -3.2451  1.7539
  907MOL0     H25104  10.774   6.499   2.778 -0.4094  0.4957 -0.7132
  907MOL0     H25105  10.574   6.562   2.623  4.9293 -2.5791  0.8574
  907MOL0     H25106  10.517   6.675   2.754  0.6092  1.7574  0.1206
  907MOL0     H25107  10.787   6.661   2.609 -0.5082 -0.4419  0.4753
  907MOL0     H25108  10.750   6.774   2.737  1.3347  0.1226 -0.9326
  907MOL0     H25109  10.556   6.749   2.492  2.3568 -2.2499  0.0856
  907MOL0     H25110  10.572   6.865   2.619 -0.5546 -3.2161  2.5366
  907MOL0     H25111  10.808   6.803   2.431  0.8272  0.5226 -2.1463
  907MOL0     H25112  10.752   6.959   2.492 -2.8869  0.2303  1.8398
  907MOL0     H25113  10.547   6.930   2.322  0.7284  3.4963 -0.8410
  907MOL0     H25114  10.709   6.981   2.275 -0.1703 -0.4862 -2.4912
  907MOL0     H25115  10.845   6.835   2.123 -1.2526  0.8791 -1.4760
  907MOL0     H25116  10.911   6.516   2.037  0.9047 -2.2968 -2.7523
  907MOL0     H25117  10.902   6.668   1.940  0.0005  1.6660  1.6786
  907MOL0     H25118  10.736   6.428   1.926 -0.6285  0.7486  1.6354
  907MOL0     H25119  10.691   6.587   1.846 -0.0814  0.3593  1.9157
  907MOL0     H25120  10.887   6.544   1.691 -2.1421  0.5977  1.0760
  907MOL0     H25121  10.951   6.417   1.800 -0.1029 -1.6777 -2.8642
  907MOL0     H25122  10.705   6.389   1.641 -0.2502  1.4717  1.4093
  907MOL0     H25123  10.851   6.324   1.601 -1.3242  2.2699 -0.8014
  907MOL0     H25124  10.948   6.090   1.688  3.1364 -2.4539 -4.8102
  907MOL0     H25125  10.996   5.795   1.637 -0.5000 -0.8635 -0.4112
  907MOL0     H25126  11.022   5.928   1.517 -0.5701  0.2411 -0.3764
  907MOL0     H25127  10.932   5.776   1.471  0.1738 -0.5954  0.1767
  907MOL0     H25128  10.890   5.485   1.429  0.6439  0.5151  1.2393
  907MOL0     H25129  10.822   5.243   1.342  0.2964  0.4797  0.7116
  907MOL0     H25130  10.392   5.177   1.225 -0.8802 -0.4633  0.4710
  907MOL0     H25131  10.522   5.151   1.110 -0.1916 -0.9061 -0.7917
  907MOL0     H25132  10.522   4.912   1.151  0.5713 -1.1624  2.8699
  907MOL0     H25133  10.440   4.947   1.306  2.6938 -0.1790  0.7022
  907MOL0     H25134  10.243   4.996   1.190  2.6745  0.4056  3.6276
  907MOL0     H25135  10.287   4.832   1.126  0.8688 -0.3896 -3.6785
  907MOL0     H25136  10.392   4.952   0.921  1.6381  1.2696  2.2996
  907MOL0     H25137  10.314   5.088   0.979  2.6401  0.2917 -0.5654
  907MOL0     H25138  10.171   4.816   0.929  0.3957 -0.7339 -0.9965
  907MOL0     H25139  10.086   4.982   0.937  0.3097  1.2732 -1.5551
  907MOL0     H25140  10.305   4.919   0.727  0.2687 -0.0441  2.0861
  907MOL0     H25141  10.205   5.053   0.727 -2.7639  0.5699 -0.2189
  907MOL0     H25142  10.108   4.759   0.709  1.5794  1.2109  2.8854
  907MOL0     H25143  10.164   4.871   0.569  2.0080  3.0633  2.9574
  907MOL0     H25144   9.924   4.874   0.554  0.1446  1.6242 -0.4663
  907MOL0     H25145   9.975   5.027   0.619 -0.8999  0.2520  1.4936
  907MOL0     H25146  10.409   5.326   1.381  0.4338 -1.7103  1.1486
  907MOL0     H25147  10.451   5.552   1.464 -0.8129 -1.2755  0.3200
  907MOL0     H25148  10.493   5.962   1.576 -0.2571  0.6240  0.6027
  907MOL0     H25149  10.530   6.145   1.692  0.4719 -0.1183 -1.1679
  907MOL0     H25150  10.242   6.322   3.040 -1.1859 -1.2582  0.3673
  907MOL0     H25151   9.995   6.258   2.984 -2.2439  0.2470 -2.0393
  907MOL0     H25152   9.524   6.362   2.896  1.2821  0.5187 -0.4598
  907MOL0     H25153   9.318   6.367   2.744 -0.0582  1.4454  0.5425
  907MOL0     H25154   9.175   6.188   2.382  0.0122  0.8721 -1.2688
  907MOL0     H25155   9.342   6.182   2.358 -0.7355  1.3351 -0.9298
  907MOL0     H25156   9.149   5.987   2.493 -1.5575  0.0365 -2.2820
  907MOL0     H25157   9.322   5.970   2.519  0.7480  1.4359 -0.1621
  907MOL0     H25158   9.205   5.942   2.232  0.4603  2.0847 -0.4646
  907MOL0     H25159   9.370   5.952   2.268 -0.0625 -0.1101 -1.1720
  907MOL0     H25160   9.365   5.752   2.421  0.4411 -0.1105  0.3975
  907MOL0     H25161   9.330   5.716   2.257 -3.6992 -0.6436 -0.8117
  907MOL0     H25162   8.931   5.717   2.446 -0.6744  2.3382 -0.4870
  907MOL0     H25163   9.533   6.156   2.451 -0.2858 -0.6401 -0.1654
  907MOL0     H25164   9.832   6.185   2.529  0.4492 -1.5923  0.4494
  907MOL0     H25165   9.813   6.067   2.666  1.4941  2.7243  1.7315
  907MOL0     H25166   9.735   6.042   2.507 -0.6778 -0.7991  2.0713
  908MOL0     O25167   6.864   2.617   5.462 -0.1993  0.4933 -0.2871
  908MOL0     C25168   6.780   2.644   5.377  0.3507 -0.1811  0.6600
  908MOL0     O25169   6.795   2.646   5.238 -0.4671 -0.6050  0.9418
  908MOL0     C25170   6.917   2.596   5.194  0.5580  0.4869 -0.5965
  908MOL0     C25171   7.020   2.683   5.199  0.3938 -0.4614 -0.0979
  908MOL0     C25172   7.151   2.639   5.148  0.5053  0.0438 -0.1437
  908MOL0     C25173   7.175   2.509   5.108 -0.1815  0.3853  0.1230
  908MOL0     O25174   7.304   2.483   5.070  0.6667  0.9929 -0.2339
  908MOL0     C25175   7.327   2.352   5.016 -0.9411 -0.1628  0.9328
  908MOL0     C25176   7.304   2.348   4.870  1.0538 -0.4697  0.4882
  908MOL0     C25177   7.392   2.448   4.791 -0.6945  0.3590  0.2485
  908MOL0     C25178   7.541   2.402   4.782  0.4277  0.4756 -0.3634
  908MOL0     C25179   7.567   2.297   4.684 -0.2324 -0.2299  0.1866
  908MOL0     C25180   7.712   2.234   4.681 -0.7376  0.1743  0.3325
  908MOL0     C25181   7.725   2.092   4.626  0.6144 -0.8358 -0.7936
  908MOL0     C25182   7.729   2.098   4.472  0.0988 -0.8487  1.3936
  908MOL0     N25183   7.864   2.071   4.425  0.3928  1.3870  0.7382
  908MOL0     C25184   7.910   1.957   4.367 -0.1930 -0.2708  0.6040
  908MOL0     C25185   8.045   1.981   4.326  0.1823 -0.4602  0.4267
  908MOL0     C25186   8.138   1.887   4.254  0.4114 -0.2833  0.0223
  908MOL0     C25187   8.121   1.899   4.099  0.6206 -1.0829 -0.4270
  908MOL0     C25188   8.258   1.872   4.038 -0.2183 -0.1693 -0.1170
  908MOL0     C25189   8.249   1.864   3.885  0.1197  0.0134 -1.4706
  908MOL0     O25190   8.194   1.736   3.857  0.1282  0.5522 -0.1675
  908MOL0     C25191   8.256   1.617   3.883 -1.4313 -0.1257 -0.4276
  908MOL0     C25192   8.393   1.611   3.900 -1.0228  0.3395 -0.8316
  908MOL0     C25193   8.460   1.491   3.928 -0.1303  0.7130  0.1935
  908MOL0     C25194   8.613   1.495   3.937 -0.5752  0.0288  0.2698
  908MOL0     C25195   8.387   1.375   3.934  0.4865 -0.1009 -0.9050
  908MOL0     C25196   8.447   1.240   3.954  0.7827 -0.1478  0.4328
  908MOL0     O25197   8.457   1.207   4.089 -0.3605 -0.4572  0.6919
  908MOL0     C25198   8.518   1.092   4.136 -0.9317  0.3611 -1.3665
  908MOL0     C25199   8.571   0.974   4.079  0.6500  0.1169  0.9692
  908MOL0     C25200   8.623   0.869   4.157 -0.3188 -0.6821  0.2969
  908MOL0     C25201   8.623   0.878   4.297  0.0558  0.0134  0.3085
  908MOL0     O25202   8.672   0.763   4.358  0.2665  0.5269  0.0005
  908MOL0     C25203   8.719   0.778   4.492 -0.9458 -0.1978  0.8926
  908MOL0     C25204   8.616   0.746   4.598 -0.0806  0.0588 -0.0208
  908MOL0     C25205   8.643   0.815   4.738  1.0511 -0.6095  0.0731
  908MOL0     C25206   8.585   0.967   4.754  0.6329  0.5987  0.0838
  908MOL0     C25207   8.622   1.032   4.897  0.2449 -0.1755 -0.9379
  908MOL0     C25208   8.770   1.050   4.929 -0.4955  0.4359  0.1179
  908MOL0     C25209   8.772   1.144   5.058 -0.1538 -1.6507 -0.1646
  908MOL0     C25210   8.917   1.160   5.116  0.8486  0.6197  0.6602
  908MOL0    Cl25211   8.959   1.011   5.195 -0.1592  0.4668  0.1648
  908MOL0     C25212   8.586   1.005   4.352 -0.5005 -0.2107 -0.3092
  908MOL0     C25213   8.536   1.106   4.271  0.4806 -0.2965  0.4943
  908MOL0     O25214   8.491   1.176   3.858  0.5427 -0.3095  0.1938
  908MOL0     C25215   8.247   1.388   3.940 -0.0846  0.9308 -0.0172
  908MOL0     C25216   8.180   1.503   3.906 -0.0211  0.5125  0.2718
  908MOL0     N25217   8.072   2.109   4.369 -0.6927 -0.2125 -0.1633
  908MOL0     N25218   7.967   2.167   4.412 -0.2069  0.0987  0.4500
  908MOL0     C25219   7.066   2.425   5.110  0.3077  0.5162 -0.4079
  908MOL0     C25220   6.933   2.458   5.156 -0.0715 -0.0160  0.5112
  908MOL0     C25221   6.637   2.691   5.415 -1.0321 -0.2061 -0.3437
  908MOL0     C25222   6.555   2.753   5.318 -0.3019 -0.1219  0.3793
  908MOL0     C25223   6.434   2.809   5.357 -0.5656 -0.9565 -0.8298
  908MOL0     C25224   6.384   2.798   5.489  0.5113  0.5323  0.2633
  908MOL0     O25225   6.254   2.840   5.504  0.9316 -0.5391 -0.7166
  908MOL0     C25226   6.261   2.941   5.613  0.9062  0.6836 -0.2857
  908MOL0     C25227   6.203   3.070   5.550 -1.8264  0.6212  0.8406
  908MOL0     C25228   6.066   3.049   5.483  0.2884 -0.2887  0.2689
  908MOL0     C25229   5.963   2.993   5.585  1.4435  0.3719 -1.0383
  908MOL0     C25230   5.833   2.985   5.531 -0.1627  0.1983  0.8577
  908MOL0     C25231   5.726   2.994   5.476  0.1436  0.6725 -0.8434
  908MOL0     C25232   6.465   2.723   5.583  0.4244 -0.1636  0.2538
  908MOL0     C25233   6.591   2.674   5.545  0.1208  0.5351 -0.1863
  908MOL0     C25234   6.659   2.593   5.651  0.2120 -0.3018  0.2742
  908MOL0     H25235   7.010   2.789   5.219 -2.8412 -0.2524 -1.9723
  908MOL0     H25236   7.229   2.714   5.147 -0.6244  1.2764  0.4245
  908MOL0     H25237   7.281   2.267   5.066 -2.5662 -1.3810 -2.3253
  908MOL0     H25238   7.435   2.341   5.028 -1.0368  0.3707  2.5222
  908MOL0     H25239   7.325   2.245   4.839  0.3626 -0.6350  0.5514
  908MOL0     H25240   7.198   2.371   4.859  1.4004  0.2904 -1.8819
  908MOL0     H25241   7.350   2.453   4.690 -1.4637 -2.0282  0.3876
  908MOL0     H25242   7.388   2.548   4.835 -2.1158  0.2818  0.3331
  908MOL0     H25243   7.604   2.487   4.758 -1.4169  2.6733  2.0225
  908MOL0     H25244   7.577   2.374   4.882  1.8482  2.0416 -0.4042
  908MOL0     H25245   7.553   2.336   4.582 -0.6261 -1.7581 -0.3666
  908MOL0     H25246   7.494   2.221   4.714 -1.6935  0.1131 -2.1806
  908MOL0     H25247   7.772   2.309   4.628  0.5343 -1.1787 -0.2269
  908MOL0     H25248   7.754   2.221   4.782 -0.7976 -0.8323  0.2363
  908MOL0     H25249   7.642   2.025   4.648 -0.7473  0.4733 -1.6976
  908MOL0     H25250   7.819   2.046   4.658  0.3087 -1.9724 -1.5061
  908MOL0     H25251   7.648   2.038   4.430 -0.8673  2.8505 -2.9327
  908MOL0     H25252   7.699   2.198   4.438 -0.6461 -1.7180 -0.6905
  908MOL0     H25253   7.854   1.865   4.362 -2.9651  1.3106  0.7061
  908MOL0     H25254   8.112   1.789   4.295 -2.3919  1.8599  4.0435
  908MOL0     H25255   8.241   1.911   4.281 -0.1741 -0.0947  2.3438
  908MOL0     H25256   8.053   1.820   4.066  2.7288 -1.9610 -2.9454
  908MOL0     H25257   8.091   2.004   4.086  0.4161 -1.1240 -0.2845
  908MOL0     H25258   8.320   1.958   4.066 -1.8816  0.6169  1.3646
  908MOL0     H25259   8.316   1.793   4.085  3.5325  1.9622 -0.7403
  908MOL0     H25260   8.186   1.945   3.847  0.7533  0.8308 -0.8146
  908MOL0     H25261   8.349   1.872   3.842  1.3412 -1.2743  0.9254
  908MOL0     H25262   8.450   1.703   3.893  0.3879 -0.3411  0.9256
  908MOL0     H25263   8.646   1.391   3.948 -0.8450  0.1065  2.2507
  908MOL0     H25264   8.635   1.540   4.035 -1.6008  0.0799  0.4874
  908MOL0     H25265   8.660   1.539   3.849 -3.3766 -0.6217 -1.6747
  908MOL0     H25266   8.565   0.969   3.971  4.3518  0.9513  0.5997
  908MOL0     H25267   8.681   0.786   4.120 -1.8005 -1.3632 -0.5728
  908MOL0     H25268   8.805   0.713   4.507  2.0637  2.4135 -3.0712
  908MOL0     H25269   8.766   0.875   4.510 -1.6317  0.0571  1.4102
  908MOL0     H25270   8.526   0.793   4.558 -0.2865  3.7080  3.9512
  908MOL0     H25271   8.617   0.637   4.607 -0.9958  0.1407  1.3478
  908MOL0     H25272   8.752   0.821   4.741  1.2423 -1.0576 -3.1339
  908MOL0     H25273   8.616   0.753   4.824  1.5117 -1.4431 -0.3765
  908MOL0     H25274   8.476   0.976   4.749  0.1738 -2.9875  0.9146
  908MOL0     H25275   8.634   1.032   4.681  2.9733  0.2026  1.2139
  908MOL0     H25276   8.577   1.131   4.884  2.8732  1.4554  1.4169
  908MOL0     H25277   8.566   0.986   4.980  0.3566  2.2907  0.6009
  908MOL0     H25278   8.821   1.102   4.847 -0.4357 -0.1767 -0.2377
  908MOL0     H25279   8.815   0.952   4.949  1.7989  1.3399 -0.2366
  908MOL0     H25280   8.703   1.113   5.137 -2.2495 -0.4508 -1.4306
  908MOL0     H25281   8.727   1.240   5.034  0.1578 -0.9458  1.9452
  908MOL0     H25282   8.929   1.236   5.194  0.6041  1.7279 -0.3414
  908MOL0     H25283   8.988   1.175   5.034  1.8680  1.5721  1.6907
  908MOL0     H25284   8.583   1.017   4.460  1.8398 -1.2483 -0.0720
  908MOL0     H25285   8.484   1.187   4.322 -0.7736 -0.7069 -0.0950
  908MOL0     H25286   8.179   1.308   3.967 -0.4347  1.0368 -0.5690
  908MOL0     H25287   8.072   1.501   3.905 -0.3508 -2.4510 -6.3589
  908MOL0     H25288   7.065   2.322   5.076 -2.2226  0.3022  0.0855
  908MOL0     H25289   6.864   2.374   5.154  1.0616 -0.9735 -0.9704
  908MOL0     H25290   6.575   2.762   5.212 -3.2537 -0.1213 -0.2720
  908MOL0     H25291   6.369   2.862   5.288 -0.7274  0.7950  0.5934
  908MOL0     H25292   6.197   2.918   5.698  1.0669  1.5531  0.0749
  908MOL0     H25293   6.362   2.958   5.650  0.5825  0.2225  0.8576
  908MOL0     H25294   6.281   3.100   5.479  1.2739 -3.3166  2.1928
  908MOL0     H25295   6.196   3.145   5.629  0.7059 -0.1398  1.8997
  908MOL0     H25296   6.023   3.146   5.459 -1.8614 -0.5267  2.6731
  908MOL0     H25297   6.079   2.983   5.397 -0.1779 -0.2697  0.1806
  908MOL0     H25298   5.950   3.064   5.667  1.3902 -0.4427 -0.3304
  908MOL0     H25299   6.000   2.903   5.635 -2.4547 -0.5907  0.4756
  908MOL0     H25300   5.623   2.988   5.446  0.3048  0.9599 -1.4924
  908MOL0     H25301   6.432   2.724   5.686  0.8013  3.1764  0.4318
  908MOL0     H25302   6.738   2.662   5.682 -0.7439  1.1965 -0.5319
  908MOL0     H25303   6.597   2.571   5.738  0.6920 -2.4536  0.1408
  908MOL0     H25304   6.692   2.495   5.616  1.7807 -0.2146  1.3903
  909MOL0     O25305   8.883   2.862   8.691  0.1411 -0.5710  0.3881
  909MOL0     C25306   8.795   2.933   8.651 -0.6804 -0.8749  0.1403
  909MOL0     O25307   8.788   3.068   8.675  0.4162 -0.0968 -0.1224
  909MOL0     C25308   8.885   3.116   8.766 -0.3056 -0.7335  0.4957
  909MOL0     C25309   8.854   3.123   8.900  0.5728 -0.4859  0.3807
  909MOL0     C25310   8.954   3.163   8.990 -0.5282 -0.5318  0.0643
  909MOL0     C25311   9.093   3.179   8.948  0.1119 -0.7213 -0.6253
  909MOL0     O25312   9.190   3.192   9.044  0.2913  0.3624 -0.3693
  909MOL0     C25313   9.304   3.280   9.018 -0.4147 -0.0342 -0.4489
  909MOL0     C25314   9.273   3.426   9.047  0.1347  0.1107  0.8958
  909MOL0     C25315   9.183   3.493   8.946 -0.0648 -0.0156 -0.0371
  909MOL0     C25316   9.085   3.590   9.012 -0.0339 -0.7634 -0.0402
  909MOL0     C25317   8.948   3.523   9.054 -0.9423  0.0124 -0.3145
  909MOL0     C25318   8.824   3.617   9.070 -0.4687 -0.6375  0.3021
  909MOL0     C25319   8.694   3.544   9.100  0.7956 -0.2375 -0.0605
  909MOL0     C25320   8.584   3.643   9.152  0.1192 -0.7943 -0.3441
  909MOL0     N25321   8.487   3.575   9.235  0.1790 -0.9631 -0.2316
  909MOL0     C25322   8.436   3.456   9.212 -0.6438  0.0318 -0.3040
  909MOL0     C25323   8.355   3.434   9.317  0.3205 -0.4542  0.9762
  909MOL0     C25324   8.288   3.305   9.326 -0.2668  0.4067 -0.0335
  909MOL0     C25325   8.274   3.246   9.465  0.3779 -0.8544 -0.7769
  909MOL0     C25326   8.189   3.118   9.479 -0.0468 -0.0491 -0.0727
  909MOL0     C25327   8.267   2.999   9.421 -0.7414 -0.0024  0.4376
  909MOL0     O25328   8.248   2.874   9.490  0.8272 -0.7099 -0.3357
  909MOL0     C25329   8.129   2.805   9.489 -0.7236 -0.9719  0.3136
  909MOL0     C25330   8.120   2.696   9.575 -1.4348  0.1931  0.5528
  909MOL0     C25331   8.013   2.601   9.585 -0.0851 -0.3793 -0.1476
  909MOL0     C25332   8.041   2.498   9.695 -0.0043  0.0567 -0.5308
  909MOL0     C25333   7.914   2.610   9.482  0.1401  0.1571 -0.1719
  909MOL0     C25334   7.780   2.536   9.477  0.1205 -0.4483  0.0775
  909MOL0     O25335   7.686   2.565   9.386  0.7499 -0.0771  0.3394
  909MOL0     C25336   7.595   2.470   9.365  0.7820  1.2991 -0.1829
  909MOL0     C25337   7.490   2.454   9.448 -0.1102  0.2947  0.0661
  909MOL0     C25338   7.393   2.348   9.431 -0.8205  0.9149  1.1210
  909MOL0     C25339   7.402   2.270   9.313  0.4302  0.3347 -0.4366
  909MOL0     O25340   7.297   2.190   9.295 -0.2787  0.6845 -0.3675
  909MOL0     C25341   7.310   2.101   9.179  0.2093 -0.1892 -0.0299
  909MOL0     C25342   7.178   2.028   9.158 -1.0385  0.4580 -0.6257
  909MOL0     C25343   7.057   2.117   9.115  0.0871 -0.1940 -0.3372
  909MOL0     C25344   7.086   2.210   8.987 -0.2780 -0.8258  0.1804
  909MOL0     C25345   6.961   2.278   8.930  0.1958  0.6658  0.0574
  909MOL0     C25346   6.894   2.189   8.827  0.4482 -0.0255 -0.4685
  909MOL0     C25347   6.801   2.287   8.760  0.5840 -0.3554  0.8448
  909MOL0     C25348   6.766   2.243   8.618 -0.2703  0.0022  0.1799
  909MOL0    Cl25349   6.647   2.366   8.535 -0.1492 -0.1827  0.1380
  909MOL0     C25350   7.520   2.285   9.235 -0.0956  1.2629 -0.6727
  909MOL0     C25351   7.623   2.380   9.266 -0.3588  0.8710  0.0059
  909MOL0     O25352   7.756   2.469   9.577 -0.4762 -0.6291 -0.6790
  909MOL0     C25353   7.926   2.715   9.393  0.4091  0.0944  0.7432
  909MOL0     C25354   8.025   2.814   9.393 -0.1866  0.4450 -0.3445
  909MOL0     N25355   8.366   3.541   9.399  0.1477 -0.2018  0.4633
  909MOL0     N25356   8.438   3.633   9.348  0.4384  0.0883  0.3349
  909MOL0     C25357   9.118   3.168   8.816  0.0534  0.3850  0.4956
  909MOL0     C25358   9.014   3.152   8.730 -0.0050  0.2280  0.5021
  909MOL0     C25359   8.696   2.876   8.557 -0.0225  0.3495 -0.1777
  909MOL0     C25360   8.611   2.773   8.599  0.5047 -0.5542  0.1277
  909MOL0     C25361   8.520   2.720   8.507  0.4431  0.0832  0.4234
  909MOL0     C25362   8.511   2.778   8.375  0.0505  0.0710 -0.0911
  909MOL0     O25363   8.415   2.727   8.286  0.2334  0.5650  0.1832
  909MOL0     C25364   8.393   2.760   8.146  0.5415 -0.2326  0.0832
  909MOL0     C25365   8.307   2.667   8.078 -0.7807 -0.9017 -0.8910
  909MOL0     C25366   8.240   2.721   7.959 -0.0795  1.1979 -0.3801
  909MOL0     C25367   8.180   2.606   7.877  0.2355  0.1993  0.1354
  909MOL0     C25368   8.106   2.666   7.765 -0.7154  0.3703  1.1946
  909MOL0     C25369   8.054   2.698   7.655 -0.1809  0.0795 -0.9293
  909MOL0     C25370   8.596   2.879   8.343  0.5408 -0.1918 -0.5358
  909MOL0     C25371   8.689   2.926   8.422  0.0426  0.3957  0.0451
  909MOL0     C25372   8.787   3.035   8.367  0.2593  0.5557 -0.8048
  909MOL0     H25373   8.752   3.094   8.918 -0.6257  2.9464 -0.0212
  909MOL0     H25374   8.939   3.188   9.095 -3.0430  2.3645 -0.8304
  909MOL0     H25375   9.338   3.269   8.915 -0.4061  0.8758 -0.5517
  909MOL0     H25376   9.386   3.237   9.076 -1.0711 -0.2212  0.3606
  909MOL0     H25377   9.247   3.443   9.151  1.2723  0.1806  1.1869
  909MOL0     H25378   9.366   3.481   9.027  0.3921 -0.5868  0.1198
  909MOL0     H25379   9.244   3.544   8.870  0.0244 -0.8354 -0.5283
  909MOL0     H25380   9.137   3.413   8.888  0.8978  0.6707 -1.8417
  909MOL0     H25381   9.136   3.639   9.095 -0.4597 -0.6203  0.1422
  909MOL0     H25382   9.072   3.673   8.942 -0.7971 -0.1427  0.8118
  909MOL0     H25383   8.962   3.470   9.149  3.0754  2.9171  0.9628
  909MOL0     H25384   8.920   3.445   8.982 -1.1624 -0.4563  0.2685
  909MOL0     H25385   8.848   3.684   9.152  1.4457 -0.3338 -0.4623
  909MOL0     H25386   8.803   3.672   8.978 -0.2948 -0.3448  0.4395
  909MOL0     H25387   8.709   3.458   9.165 -2.2226 -0.6976  0.1288
  909MOL0     H25388   8.671   3.524   8.995  3.0027 -0.2858 -0.5935
  909MOL0     H25389   8.637   3.714   9.216  0.1087 -0.7993 -0.3298
  909MOL0     H25390   8.536   3.703   9.074  1.2838  0.3689 -0.1910
  909MOL0     H25391   8.458   3.383   9.134 -1.8669 -0.3230 -0.3276
  909MOL0     H25392   8.338   3.231   9.263  1.3299  0.3532  1.2240
  909MOL0     H25393   8.186   3.312   9.287 -0.7466 -2.3272  0.4974
  909MOL0     H25394   8.375   3.225   9.502  0.8277  1.6920 -0.3481
  909MOL0     H25395   8.234   3.324   9.531  3.9992 -0.7698  1.6053
  909MOL0     H25396   8.187   3.088   9.585 -2.2652 -2.1199 -0.6016
  909MOL0     H25397   8.091   3.139   9.434  0.8220 -0.8545 -2.4632
  909MOL0     H25398   8.243   2.993   9.314  1.0109  1.5293 -0.1014
  909MOL0     H25399   8.374   3.020   9.432 -0.5276 -0.7592 -0.0904
  909MOL0     H25400   8.210   2.692   9.635 -0.8631 -2.0479 -0.3614
  909MOL0     H25401   7.961   2.507   9.769 -0.2542  0.2862 -0.8247
  909MOL0     H25402   8.132   2.505   9.755 -0.3018 -2.6973  0.3870
  909MOL0     H25403   8.034   2.399   9.648  1.0975 -1.2422  1.8947
  909MOL0     H25404   7.477   2.513   9.539 -2.3028 -0.0426  0.0289
  909MOL0     H25405   7.302   2.335   9.488 -0.6151 -0.0389  1.2373
  909MOL0     H25406   7.334   2.157   9.089 -1.3379 -0.8895 -0.9275
  909MOL0     H25407   7.394   2.032   9.193  0.9573  1.1532  2.8624
  909MOL0     H25408   7.190   1.955   9.077  1.1951  1.9085 -1.7156
  909MOL0     H25409   7.152   1.983   9.254  3.0073  0.1079  0.4804
  909MOL0     H25410   7.013   2.170   9.200 -1.6371 -0.7827 -0.8158
  909MOL0     H25411   6.973   2.053   9.083 -2.3441  1.4360  2.3261
  909MOL0     H25412   7.122   2.142   8.909  0.2081 -0.2300 -0.1253
  909MOL0     H25413   7.159   2.281   9.027 -2.2533  0.8646  0.9451
  909MOL0     H25414   6.889   2.292   9.012 -0.4772  0.1580 -0.4426
  909MOL0     H25415   6.990   2.376   8.892  1.8005 -0.3673 -1.4930
  909MOL0     H25416   6.841   2.101   8.864 -0.7742  0.2268 -1.5571
  909MOL0     H25417   6.963   2.147   8.754 -0.8272 -3.0056 -0.0923
  909MOL0     H25418   6.855   2.381   8.747 -1.6186  0.7708 -0.9179
  909MOL0     H25419   6.713   2.299   8.824  0.9719 -1.0302  1.5264
  909MOL0     H25420   6.704   2.153   8.615 -2.5553  1.4568  0.6952
  909MOL0     H25421   6.863   2.224   8.571  0.1674 -0.3052  1.1721
  909MOL0     H25422   7.548   2.236   9.142  3.5008 -0.0245  0.8804
  909MOL0     H25423   7.718   2.391   9.213 -0.2863  0.9681  0.1568
  909MOL0     H25424   7.838   2.724   9.329 -1.1164  0.9416  2.8564
  909MOL0     H25425   8.024   2.891   9.316  0.5338 -0.6922 -1.5516
  909MOL0     H25426   9.212   3.176   8.762 -0.0857 -1.0063  0.0022
  909MOL0     H25427   9.034   3.167   8.625 -2.0839 -0.7279 -0.0934
  909MOL0     H25428   8.628   2.722   8.693 -0.0258 -2.0026 -0.5326
  909MOL0     H25429   8.467   2.629   8.528  0.1598 -0.5443 -2.5552
  909MOL0     H25430   8.337   2.854   8.142  2.0206  0.6651 -3.7362
  909MOL0     H25431   8.481   2.763   8.081 -1.8324  0.1527 -3.3906
  909MOL0     H25432   8.235   2.622   8.147 -3.0972  2.6655 -0.7557
  909MOL0     H25433   8.372   2.586   8.043  1.3860  0.9537 -1.3547
  909MOL0     H25434   8.172   2.793   8.005 -1.2127  0.1710 -0.4018
  909MOL0     H25435   8.321   2.766   7.901  1.5644  0.3935  1.1994
  909MOL0     H25436   8.113   2.556   7.948 -0.4996  1.7726  0.5887
  909MOL0     H25437   8.264   2.547   7.839  1.7555  2.1794  0.2699
  909MOL0     H25438   8.004   2.739   7.570 -1.2330  1.3442  0.2453
  909MOL0     H25439   8.569   2.930   8.251  1.4488 -1.8939 -1.8093
  909MOL0     H25440   8.889   3.015   8.402  0.2719 -0.5679 -1.4234
  909MOL0     H25441   8.791   3.018   8.259 -1.0671 -2.5169 -0.4776
  909MOL0     H25442   8.754   3.136   8.393  0.5447 -0.4901  4.9496
  910MOL0     O25443   8.862   2.412   5.582 -0.2799  0.3515 -0.1016
  910MOL0     C25444   8.827   2.315   5.653  0.8462 -0.4663  0.1651
  910MOL0     O25445   8.695   2.291   5.689 -0.0045  0.2815  1.0096
  910MOL0     C25446   8.598   2.386   5.642 -0.1955  0.1124 -0.0945
  910MOL0     C25447   8.495   2.427   5.738 -0.9459  0.0517 -0.0965
  910MOL0     C25448   8.375   2.499   5.702  0.0964 -0.7407  0.2093
  910MOL0     C25449   8.358   2.537   5.570 -0.3581 -0.3757 -0.7535
  910MOL0     O25450   8.252   2.602   5.512  0.5558  0.4569 -0.6977
  910MOL0     C25451   8.130   2.621   5.586  0.2592  0.0394  0.8100
  910MOL0     C25452   8.136   2.757   5.653  0.5819  0.4725  0.4016
  910MOL0     C25453   8.000   2.794   5.714  0.4249 -0.0410  0.1430
  910MOL0     C25454   7.898   2.816   5.608 -0.2858  0.1911  0.2624
  910MOL0     C25455   7.771   2.891   5.633 -0.4172  0.0182  1.7695
  910MOL0     C25456   7.724   2.862   5.782 -0.2614 -0.8983  0.3843
  910MOL0     C25457   7.582   2.912   5.814  0.1724  0.6298 -0.0089
  910MOL0     C25458   7.560   2.862   5.966  0.2307 -0.3331  0.9808
  910MOL0     N25459   7.554   2.717   5.988  0.5353  0.2140 -0.5209
  910MOL0     C25460   7.440   2.638   5.970 -0.0431  0.3821 -0.0061
  910MOL0     C25461   7.474   2.516   6.019 -0.1740  0.1629  0.3969
  910MOL0     C25462   7.388   2.399   6.022 -0.2826 -0.5216 -0.5048
  910MOL0     C25463   7.327   2.363   5.880 -0.2802 -0.8211  0.4799
  910MOL0     C25464   7.319   2.217   5.837 -0.0859 -0.0099  0.1851
  910MOL0     C25465   7.456   2.145   5.851  0.1564 -1.6303 -0.2232
  910MOL0     O25466   7.476   2.055   5.748 -0.1328  0.0759  0.2551
  910MOL0     C25467   7.444   1.923   5.735  1.1404  0.0079 -0.7809
  910MOL0     C25468   7.458   1.874   5.608  0.4209  0.6833 -0.1240
  910MOL0     C25469   7.425   1.751   5.574  0.6199  0.4843 -0.3668
  910MOL0     C25470   7.468   1.714   5.434  0.3465  0.0105 -0.2431
  910MOL0     C25471   7.351   1.668   5.669 -0.1010 -0.0256  0.5424
  910MOL0     C25472   7.296   1.542   5.637 -0.4776 -0.2333 -0.1957
  910MOL0     O25473   7.272   1.460   5.738 -0.5662  0.0459 -0.4931
  910MOL0     C25474   7.264   1.322   5.714 -0.3755  0.3374 -0.0749
  910MOL0     C25475   7.365   1.248   5.669 -0.4700  0.3724  0.5268
  910MOL0     C25476   7.355   1.104   5.634  0.6666  0.7936  1.0925
  910MOL0     C25477   7.220   1.041   5.660 -0.5121 -0.5787  0.0078
  910MOL0     O25478   7.205   0.905   5.644  0.1215 -0.0929  0.5330
  910MOL0     C25479   7.322   0.826   5.623  0.8122 -0.1194 -0.4603
  910MOL0     C25480   7.382   0.816   5.477  0.0321 -0.6154 -0.1069
  910MOL0     C25481   7.451   0.678   5.463  0.6083  0.2425  0.4754
  910MOL0     C25482   7.595   0.686   5.517  0.2161 -0.2911 -0.6313
  910MOL0     C25483   7.687   0.590   5.442  0.2332  0.1336  0.8342
  910MOL0     C25484   7.688   0.450   5.497  0.0495  0.8142 -0.5463
  910MOL0     C25485   7.798   0.442   5.619 -0.2053 -0.6854  0.0038
  910MOL0     C25486   7.792   0.296   5.673 -0.6060  0.6172  0.2219
  910MOL0    Cl25487   7.960   0.237   5.664 -0.0986  0.0064  0.4584
  910MOL0     C25488   7.121   1.124   5.717  0.0758  0.3997  0.1396
  910MOL0     C25489   7.146   1.261   5.736 -0.3463 -0.8758  0.5838
  910MOL0     O25490   7.265   1.527   5.515 -1.0156 -0.6478  0.0408
  910MOL0     C25491   7.329   1.730   5.796 -0.2220  0.5708  0.1076
  910MOL0     C25492   7.381   1.853   5.832 -0.1374  0.7410 -0.4979
  910MOL0     N25493   7.598   2.530   6.083  0.0110  0.7342  0.6550
  910MOL0     N25494   7.646   2.647   6.059 -0.0734 -0.7515  0.4191
  910MOL0     C25495   8.457   2.500   5.481  0.6475 -0.4584  0.4798
  910MOL0     C25496   8.574   2.430   5.511  0.2549  1.0402 -0.3112
  910MOL0     C25497   8.929   2.222   5.696 -0.3876  0.0375  0.1480
  910MOL0     C25498   9.068   2.272   5.696  0.4015 -0.2897 -1.1055
  910MOL0     C25499   9.182   2.189   5.718  0.6758  0.0415 -0.1654
  910MOL0     C25500   9.163   2.061   5.744  0.3479  0.3734 -0.1426
  910MOL0     O25501   9.276   1.996   5.789  1.0826 -0.6385  0.4283
  910MOL0     C25502   9.293   1.856   5.781 -1.1570 -0.6377  0.3240
  910MOL0     C25503   9.440   1.834   5.813 -0.6779  0.3164  0.5653
  910MOL0     C25504   9.531   1.881   5.692 -0.3213 -0.3678 -0.0594
  910MOL0     C25505   9.672   1.886   5.716  0.2014 -0.5174 -0.5417
  910MOL0     C25506   9.731   2.025   5.748  0.5684  0.2256 -0.7681
  910MOL0     C25507   9.761   2.143   5.759  0.7048 -0.7881 -0.0756
  910MOL0     C25508   9.030   2.008   5.737  0.7584  0.2646 -0.7708
  910MOL0     C25509   8.920   2.090   5.713  0.2705 -0.3214 -0.3154
  910MOL0     C25510   8.797   2.002   5.677  1.4192  0.6718  0.2959
  910MOL0     H25511   8.499   2.393   5.841 -0.4357 -0.4029 -0.2645
  910MOL0     H25512   8.321   2.520   5.794  1.5798  1.1761  0.7037
  910MOL0     H25513   8.125   2.534   5.653 -1.4897 -2.5058 -2.3316
  910MOL0     H25514   8.053   2.621   5.509  1.4353  1.5083 -0.4286
  910MOL0     H25515   8.220   2.784   5.718  1.8167  1.2044 -1.3955
  910MOL0     H25516   8.147   2.836   5.578 -2.2549  3.3687  2.7496
  910MOL0     H25517   7.972   2.718   5.788  1.9717 -1.4022 -0.6073
  910MOL0     H25518   8.020   2.888   5.767  3.4009 -0.5364  0.0677
  910MOL0     H25519   7.947   2.857   5.520 -0.9565  1.2385  0.3602
  910MOL0     H25520   7.871   2.716   5.572  0.2088 -0.9912  2.8772
  910MOL0     H25521   7.693   2.856   5.564  2.5073  0.8576 -2.3074
  910MOL0     H25522   7.794   2.996   5.616 -1.2033  0.2017  1.7743
  910MOL0     H25523   7.727   2.753   5.785 -1.2424 -0.9142  0.9671
  910MOL0     H25524   7.801   2.914   5.841 -0.1538  1.3452 -1.5577
  910MOL0     H25525   7.505   2.867   5.751 -0.3076  0.2305  0.8406
  910MOL0     H25526   7.574   3.021   5.804  0.0498  0.7708  1.4114
  910MOL0     H25527   7.640   2.909   6.024  1.2368  0.5796 -1.0038
  910MOL0     H25528   7.459   2.887   5.999  0.9617 -1.4211  4.4383
  910MOL0     H25529   7.351   2.657   5.911 -1.3747 -0.8032  1.5310
  910MOL0     H25530   7.300   2.410   6.087 -1.3592  0.6046 -2.0649
  910MOL0     H25531   7.450   2.313   6.049 -3.4549 -2.8776 -0.1425
  910MOL0     H25532   7.226   2.404   5.868 -0.2904 -1.5943 -3.1336
  910MOL0     H25533   7.384   2.421   5.807 -1.5819 -0.7978 -0.5608
  910MOL0     H25534   7.251   2.165   5.905 -1.2333  0.6750 -0.4108
  910MOL0     H25535   7.281   2.217   5.734 -0.9454  0.6096  0.4883
  910MOL0     H25536   7.539   2.215   5.833 -1.0402 -0.7014 -2.5245
  910MOL0     H25537   7.467   2.089   5.944 -0.6569 -2.0805 -0.3950
  910MOL0     H25538   7.495   1.943   5.532 -0.4821  2.2406  0.7889
  910MOL0     H25539   7.458   1.610   5.404  0.8334 -0.2159  0.3637
  910MOL0     H25540   7.563   1.755   5.400 -1.6155  4.4294 -1.2118
  910MOL0     H25541   7.403   1.766   5.363  1.7473 -1.4321 -2.6968
  910MOL0     H25542   7.454   1.306   5.647  0.3686 -0.4332  1.6484
  910MOL0     H25543   7.446   1.062   5.593  0.2668 -2.3257  3.0171
  910MOL0     H25544   7.403   0.859   5.689  2.7002 -1.5335 -1.9515
  910MOL0     H25545   7.292   0.727   5.658 -0.5020  0.1033 -0.8867
  910MOL0     H25546   7.313   0.836   5.395  0.1274  3.3763  0.6035
  910MOL0     H25547   7.450   0.902   5.487 -2.2560  1.1915  0.8419
  910MOL0     H25548   7.454   0.660   5.355 -4.5245  0.8884 -0.0343
  910MOL0     H25549   7.400   0.599   5.519  2.8970 -0.7871  1.2275
  910MOL0     H25550   7.602   0.653   5.621 -6.0438  0.2122  0.3458
  910MOL0     H25551   7.624   0.791   5.513  1.0422 -0.5222 -0.8567
  910MOL0     H25552   7.672   0.591   5.333  2.9834  0.2715  0.3841
  910MOL0     H25553   7.791   0.624   5.448  0.4913 -0.3840 -0.3837
  910MOL0     H25554   7.723   0.388   5.414 -1.3946  1.0069 -1.3155
  910MOL0     H25555   7.598   0.408   5.543  1.9683 -5.9543 -1.8680
  910MOL0     H25556   7.769   0.518   5.692  1.8317  1.5741 -1.3918
  910MOL0     H25557   7.894   0.477   5.580 -0.9184 -0.6628 -1.8106
  910MOL0     H25558   7.722   0.232   5.617 -0.0905  0.3131 -0.0775
  910MOL0     H25559   7.761   0.299   5.778  0.1210  0.9902  0.4291
  910MOL0     H25560   7.024   1.080   5.739 -0.9744  2.2390 -0.6136
  910MOL0     H25561   7.072   1.320   5.788 -0.2191  1.5341 -1.7799
  910MOL0     H25562   7.258   1.677   5.858 -1.6132 -0.9352 -2.5812
  910MOL0     H25563   7.350   1.904   5.922  1.8843 -1.5587  1.6568
  910MOL0     H25564   8.448   2.507   5.373  2.5312 -0.1804  0.2955
  910MOL0     H25565   8.643   2.400   5.433  0.8864  0.8394  0.3152
  910MOL0     H25566   9.103   2.372   5.670 -0.9185  1.2644  2.3342
  910MOL0     H25567   9.283   2.228   5.713 -0.6024  3.6853 -0.2640
  910MOL0     H25568   9.233   1.803   5.855 -3.3598  1.1504 -0.1032
  910MOL0     H25569   9.268   1.820   5.681 -2.5834 -0.7302  0.6966
  910MOL0     H25570   9.465   1.730   5.834  1.9430  1.3937  3.4795
  910MOL0     H25571   9.463   1.895   5.901  2.0342  1.3370 -0.7407
  910MOL0     H25572   9.509   1.803   5.619 -0.3428 -0.0058 -0.4443
  910MOL0     H25573   9.516   1.983   5.654  3.7607 -0.8607 -3.9021
  910MOL0     H25574   9.715   1.856   5.620  0.4316  1.6224 -1.1429
  910MOL0     H25575   9.700   1.810   5.790  2.9363  1.4668  0.6345
  910MOL0     H25576   9.774   2.249   5.757  1.3587 -0.7920  1.7143
  910MOL0     H25577   9.027   1.902   5.761 -3.4159  0.5020  0.4619
  910MOL0     H25578   8.713   2.071   5.687  0.9466  0.3899 -1.3892
  910MOL0     H25579   8.801   1.961   5.576  0.2536 -0.2824  0.6199
  910MOL0     H25580   8.780   1.911   5.734 -0.2611 -0.0831 -1.3209
  911MOL0     O25581   4.016   8.089  11.605  0.7555  0.2692  0.1570
  911MOL0     C25582   3.956   8.002  11.545 -0.5570 -0.0710 -0.1472
  911MOL0     O25583   3.884   7.902  11.614  1.0388  0.0393  0.2525
  911MOL0     C25584   3.892   7.891  11.756  0.4664  0.5430  0.4461
  911MOL0     C25585   3.782   7.852  11.837  0.0406 -0.4560 -0.0334
  911MOL0     C25586   3.800   7.818  11.972  0.2787 -0.2579  0.6513
  911MOL0     C25587   3.925   7.828  12.037 -0.1825  0.0414  0.1725
  911MOL0     O25588   3.941   7.790  12.170  0.1647 -0.2497  0.4513
  911MOL0     C25589   3.875   7.667  12.199 -0.8972 -0.3044  0.0075
  911MOL0     C25590   3.940   7.593  12.318  0.9969 -0.1464  0.0618
  911MOL0     C25591   4.077   7.540  12.292  0.3268 -0.3486 -0.7334
  911MOL0     C25592   4.192   7.641  12.299  0.2991  0.4493 -0.2262
  911MOL0     C25593   4.319   7.552  12.287 -0.0923  0.1398 -0.5491
  911MOL0     C25594   4.440   7.639  12.264  1.0730  0.0377 -0.0840
  911MOL0     C25595   4.555   7.554  12.290 -0.5752  0.1870  0.3842
  911MOL0     C25596   4.689   7.589  12.236  0.7575  0.2534 -0.4155
  911MOL0     N25597   4.796   7.499  12.262 -0.7462 -0.5964 -0.5384
  911MOL0     C25598   4.836   7.481  12.386 -0.3415 -0.1590  0.9912
  911MOL0     C25599   4.935   7.389  12.373 -0.2115  0.2147  0.1133
  911MOL0     C25600   4.989   7.305  12.499 -0.1547  0.8942  0.6252
  911MOL0     C25601   5.136   7.324  12.503  0.8210 -0.4945  0.0714
  911MOL0     C25602   5.204   7.262  12.378  0.9876 -0.1996  0.1955
  911MOL0     C25603   5.335   7.184  12.400 -0.4408 -0.3520  0.5691
  911MOL0     O25604   5.445   7.269  12.420 -0.8488  0.6469  0.3790
  911MOL0     C25605   5.568   7.207  12.415 -0.7204  0.5610 -0.0823
  911MOL0     C25606   5.657   7.218  12.311 -0.4019  0.4278  0.8281
  911MOL0     C25607   5.775   7.138  12.312 -0.6629  0.5865  0.1748
  911MOL0     C25608   5.869   7.156  12.192 -0.4447  0.5652  0.3841
  911MOL0     C25609   5.805   7.040  12.416  0.2623 -0.0108  0.2594
  911MOL0     C25610   5.927   6.953  12.418  0.9574  0.3554 -0.8311
  911MOL0     O25611   5.968   6.895  12.536  0.4977 -0.0999  0.3709
  911MOL0     C25612   6.075   6.806  12.533  0.0405 -0.7747 -0.7188
  911MOL0     C25613   6.170   6.816  12.634  0.8647  0.1519 -0.6962
  911MOL0     C25614   6.285   6.733  12.635  0.7488  0.1043 -0.1254
  911MOL0     C25615   6.301   6.638  12.532 -1.2411 -0.8081  0.1966
  911MOL0     O25616   6.418   6.564  12.538  0.1140 -0.2253 -0.1981
  911MOL0     C25617   6.472   6.500  12.410  0.2861  0.4601 -0.0520
  911MOL0     C25618   6.596   6.419  12.445 -0.0544 -0.1654  0.5761
  911MOL0     C25619   6.635   6.333  12.320 -0.0095  0.2494  0.0484
  911MOL0     C25620   6.740   6.232  12.352 -0.2424 -0.2988 -0.2960
  911MOL0     C25621   6.752   6.125  12.232  0.1635  0.2093 -0.2170
  911MOL0     C25622   6.644   6.017  12.224  0.9345  0.8590 -0.0741
  911MOL0     C25623   6.665   5.937  12.101  0.4438  0.2926 -0.0642
  911MOL0     C25624   6.562   5.825  12.097 -0.3386 -0.4227  0.6646
  911MOL0    Cl25625   6.526   5.783  11.927 -0.0829 -0.2213 -0.4570
  911MOL0     C25626   6.202   6.622  12.434  0.5517  0.5941 -0.6598
  911MOL0     C25627   6.084   6.702  12.442  0.4093  0.3770  0.3759
  911MOL0     O25628   5.982   6.935  12.314  0.4643  0.2950  0.1171
  911MOL0     C25629   5.717   7.039  12.521  1.0593  0.0549 -0.4774
  911MOL0     C25630   5.603   7.116  12.513 -0.7540  0.0463  0.1527
  911MOL0     N25631   4.942   7.345  12.245  0.6292 -0.5632  0.3036
  911MOL0     N25632   4.841   7.397  12.186  0.2840  0.1513  0.2509
  911MOL0     C25633   4.033   7.850  11.947  0.0545 -1.2767 -0.3844
  911MOL0     C25634   4.012   7.883  11.812  0.3986  0.7475  0.3301
  911MOL0     C25635   3.945   8.004  11.397  0.2864  0.1917  0.1288
  911MOL0     C25636   3.905   7.886  11.334 -0.4660  0.6945 -1.8061
  911MOL0     C25637   3.911   7.871  11.200 -0.9596  0.3415 -0.2362
  911MOL0     C25638   3.953   7.975  11.111 -0.7312 -0.6745 -0.6675
  911MOL0     O25639   3.960   7.968  10.979  0.4507  0.1373 -0.0517
  911MOL0     C25640   3.836   7.994  10.917 -0.4679 -0.1081 -0.8544
  911MOL0     C25641   3.799   7.893  10.815 -1.1582 -0.4021 -0.7325
  911MOL0     C25642   3.662   7.933  10.761 -0.9746  0.7248  0.6222
  911MOL0     C25643   3.589   7.847  10.649  0.3829 -0.0870  0.4904
  911MOL0     C25644   3.621   7.895  10.511  0.2358 -0.2541 -0.3969
  911MOL0     C25645   3.645   7.924  10.397 -0.2838  0.3283  0.6807
  911MOL0     C25646   3.992   8.101  11.167  0.3649  0.0332 -0.4200
  911MOL0     C25647   3.982   8.115  11.311  0.2680 -0.7453 -0.4422
  911MOL0     C25648   4.013   8.260  11.366 -0.2882 -0.6656 -0.1672
  911MOL0     H25649   3.681   7.855  11.799  0.5914  4.0279 -1.6693
  911MOL0     H25650   3.713   7.792  12.030  0.8612  1.2203  2.2868
  911MOL0     H25651   3.865   7.603  12.112 -0.3907 -1.1777  0.5805
  911MOL0     H25652   3.769   7.691  12.216 -0.9748 -1.1962  0.8635
  911MOL0     H25653   3.939   7.649  12.412  2.3156 -0.9781  0.6095
  911MOL0     H25654   3.881   7.506  12.346  2.9937 -0.9455  2.0448
  911MOL0     H25655   4.093   7.474  12.378  1.9854  0.3174 -0.5066
  911MOL0     H25656   4.080   7.467  12.210  2.3493 -3.3927  1.8204
  911MOL0     H25657   4.181   7.703  12.209  2.0790  0.3452 -0.5393
  911MOL0     H25658   4.186   7.708  12.385 -1.8528 -1.0388  0.8762
  911MOL0     H25659   4.311   7.485  12.201  1.1094  1.6521 -1.9002
  911MOL0     H25660   4.331   7.497  12.381 -0.7005  3.0321  1.3842
  911MOL0     H25661   4.447   7.665  12.158  0.2246 -1.1011 -0.4434
  911MOL0     H25662   4.425   7.732  12.319  2.2281 -0.1320  0.5589
  911MOL0     H25663   4.534   7.453  12.255  0.4776  0.1890 -0.2966
  911MOL0     H25664   4.570   7.547  12.399  5.2541  1.9200  0.0464
  911MOL0     H25665   4.686   7.596  12.127  0.4946  0.7796 -0.3807
  911MOL0     H25666   4.708   7.686  12.284 -1.0810  0.3109  0.2621
  911MOL0     H25667   4.805   7.520  12.483 -3.2772 -0.9355  0.4622
  911MOL0     H25668   4.960   7.200  12.500 -0.1622  0.8757  2.6347
  911MOL0     H25669   4.948   7.352  12.589 -0.3225 -0.8791  1.5151
  911MOL0     H25670   5.149   7.431  12.480 -2.5498  0.0045  0.0326
  911MOL0     H25671   5.172   7.304  12.604  3.8870  1.3472 -0.5242
  911MOL0     H25672   5.140   7.176  12.352  4.5328 -3.1963  0.5698
  911MOL0     H25673   5.205   7.326  12.289 -1.7361  1.5175  1.2882
  911MOL0     H25674   5.326   7.124  12.491 -1.2317  0.6343  1.1714
  911MOL0     H25675   5.363   7.123  12.314 -0.8061  0.2970 -0.0235
  911MOL0     H25676   5.632   7.282  12.227 -1.1733  1.1073  1.5503
  911MOL0     H25677   5.845   7.089  12.109  3.9419 -0.2352 -0.4441
  911MOL0     H25678   5.973   7.138  12.218 -0.9660 -0.0982  2.1740
  911MOL0     H25679   5.864   7.253  12.142  0.0372  0.6340  0.4624
  911MOL0     H25680   6.149   6.885  12.715  0.7862 -0.2696 -0.3578
  911MOL0     H25681   6.362   6.730  12.712  2.3320 -2.2900 -1.6707
  911MOL0     H25682   6.392   6.441  12.364 -0.7682  2.0591 -0.3298
  911MOL0     H25683   6.507   6.571  12.335  4.2426 -2.8291 -1.7674
  911MOL0     H25684   6.674   6.496  12.451 -0.7900  1.5243 -5.5770
  911MOL0     H25685   6.558   6.372  12.536 -3.7285  2.8932  0.8534
  911MOL0     H25686   6.668   6.401  12.242 -0.5391  1.2241  0.6523
  911MOL0     H25687   6.541   6.284  12.292 -1.5926  3.1384 -0.0849
  911MOL0     H25688   6.729   6.205  12.457 -1.4501  3.9800  0.8783
  911MOL0     H25689   6.832   6.290  12.349 -0.0198 -0.6544 -3.1993
  911MOL0     H25690   6.747   6.187  12.142  0.4994 -0.3111 -0.6016
  911MOL0     H25691   6.854   6.085  12.237  0.6088  1.1434 -1.4052
  911MOL0     H25692   6.553   6.076  12.210 -0.4881 -1.1653  0.1684
  911MOL0     H25693   6.643   5.955  12.314  1.7755 -2.3069 -2.0603
  911MOL0     H25694   6.762   5.888  12.115 -0.0050 -0.9426 -1.0895
  911MOL0     H25695   6.654   5.997  12.010 -2.0512 -1.9123 -1.3590
  911MOL0     H25696   6.463   5.858  12.130 -0.0605  0.3430  0.7552
  911MOL0     H25697   6.593   5.739  12.158  0.8486  0.5104  1.4291
  911MOL0     H25698   6.207   6.560  12.345  1.7417  1.7541 -1.4429
  911MOL0     H25699   6.017   6.710  12.357  0.5296  3.7246  0.4894
  911MOL0     H25700   5.732   6.971  12.605  0.2351  0.6962  0.2104
  911MOL0     H25701   5.531   7.087  12.588 -1.3889  0.8638 -0.1292
  911MOL0     H25702   4.135   7.829  11.980  0.0837 -0.4559  0.0586
  911MOL0     H25703   4.093   7.858  11.743  0.2216 -6.3133  1.8814
  911MOL0     H25704   3.886   7.794  11.390  0.5216  1.0924 -0.7792
  911MOL0     H25705   3.894   7.769  11.168 -0.5034  0.3958 -0.6593
  911MOL0     H25706   3.761   8.004  10.996  2.5464 -1.5773  2.4706
  911MOL0     H25707   3.834   8.090  10.864  2.0877 -1.1503 -3.0785
  911MOL0     H25708   3.804   7.793  10.859 -0.0518 -0.7232 -1.5623
  911MOL0     H25709   3.875   7.896  10.738 -0.3318 -0.9063  0.0448
  911MOL0     H25710   3.598   7.944  10.849  1.0789 -0.1705  2.3290
  911MOL0     H25711   3.677   8.035  10.723  1.3627 -0.1772 -1.1101
  911MOL0     H25712   3.482   7.850  10.669 -0.0896 -1.0842 -1.6452
  911MOL0     H25713   3.624   7.744  10.641  2.1306  0.5839 -1.9111
  911MOL0     H25714   3.664   7.947  10.295  2.4980  1.6596  1.4109
  911MOL0     H25715   4.026   8.182  11.105  1.1538  1.4811  1.7806
  911MOL0     H25716   4.104   8.267  11.426 -1.0247 -2.6733  1.3091
  911MOL0     H25717   4.023   8.339  11.292  2.8450 -0.7786  0.0066
  911MOL0     H25718   3.930   8.272  11.437 -0.9893 -0.4687 -1.0102
  912MOL0     O25719   7.552   9.773   3.072  0.0290 -0.7306 -0.2444
  912MOL0     C25720   7.656   9.799   3.020 -0.4405  0.3346  0.3201
  912MOL0     O25721   7.709   9.927   3.006 -0.0098  0.2320  0.0101
  912MOL0     C25722   7.636  10.024   3.059  0.7816 -0.1225  0.8132
  912MOL0     C25723   7.576  10.033   3.185 -0.4035 -0.2875 -0.7894
  912MOL0     C25724   7.510  10.148   3.239 -0.2937  0.6622 -0.0167
  912MOL0     C25725   7.491  10.265   3.148  0.5804 -0.1832 -0.6850
  912MOL0     O25726   7.411  10.375   3.173 -0.2308 -0.5817  0.1039
  912MOL0     C25727   7.362  10.386   3.309  0.0320  0.6503 -0.1858
  912MOL0     C25728   7.261  10.498   3.328  0.3833 -0.1703  0.6097
  912MOL0     C25729   7.113  10.444   3.349 -0.4099  1.0367  0.1138
  912MOL0     C25730   7.005  10.552   3.350 -0.5714  0.5074  0.1037
  912MOL0     C25731   6.880  10.480   3.396  0.3373  0.8139  0.0622
  912MOL0     C25732   6.765  10.588   3.398  0.6137  0.2187 -0.0894
  912MOL0     C25733   6.688  10.584   3.532  1.1426 -0.7108 -0.3214
  912MOL0     C25734   6.585  10.702   3.544  0.4452 -1.2389  0.1185
  912MOL0     N25735   6.470  10.671   3.634  0.3463 -0.2446  0.2953
  912MOL0     C25736   6.366  10.587   3.612  0.2286  0.1520 -0.2153
  912MOL0     C25737   6.279  10.620   3.719 -0.0137  0.1388 -0.9876
  912MOL0     C25738   6.138  10.573   3.751 -0.3054  0.0772 -0.0752
  912MOL0     C25739   6.146  10.495   3.884  0.4100  0.0444  0.3305
  912MOL0     C25740   6.183  10.350   3.863 -0.1127 -0.1941 -0.1432
  912MOL0     C25741   6.076  10.255   3.809  0.3327 -0.5127  0.7944
  912MOL0     O25742   5.961  10.264   3.899 -0.0383 -0.7661 -0.0679
  912MOL0     C25743   5.840  10.213   3.859 -0.7742  0.1581  0.5438
  912MOL0     C25744   5.731  10.268   3.924  0.0739  0.5460  0.5456
  912MOL0     C25745   5.603  10.216   3.903  0.5686  0.4164 -0.3262
  912MOL0     C25746   5.490  10.284   3.986  0.7755  0.2907  0.7634
  912MOL0     C25747   5.585  10.118   3.797  0.2288  0.1640 -0.2665
  912MOL0     C25748   5.462  10.051   3.753 -0.3869  0.2836  0.1340
  912MOL0     O25749   5.471   9.925   3.706  0.2479 -0.3046 -0.4468
  912MOL0     C25750   5.360   9.868   3.648  0.7274  0.3611  0.7171
  912MOL0     C25751   5.266   9.934   3.561 -0.4735  0.9903  0.5305
  912MOL0     C25752   5.163   9.860   3.503 -0.3397 -0.2970 -0.0981
  912MOL0     C25753   5.135   9.724   3.527  0.0802  0.0210 -0.1372
  912MOL0     O25754   5.034   9.641   3.484 -0.1587 -0.5676 -0.3657
  912MOL0     C25755   4.952   9.696   3.380 -0.5754  0.4653 -0.2445
  912MOL0     C25756   4.808   9.741   3.407 -1.4608  0.7807 -0.1102
  912MOL0     C25757   4.807   9.876   3.482 -0.7466 -0.1069 -0.3057
  912MOL0     C25758   4.666   9.951   3.469 -0.8961 -0.0231  0.0726
  912MOL0     C25759   4.671  10.061   3.365 -0.2371 -0.3236 -0.5875
  912MOL0     C25760   4.532  10.125   3.348 -1.2427 -0.1954 -0.5626
  912MOL0     C25761   4.488  10.201   3.477 -0.6207  1.0590  1.1489
  912MOL0     C25762   4.362  10.263   3.444  0.2627 -0.0810  0.4693
  912MOL0    Cl25763   4.373  10.381   3.306  0.3392  0.1263  0.2898
  912MOL0     C25764   5.222   9.669   3.626  0.5468  0.0966  0.0258
  912MOL0     C25765   5.333   9.730   3.669 -0.0265 -0.0456 -0.7940
  912MOL0     O25766   5.360  10.115   3.756 -0.0244  0.4123  0.3851
  912MOL0     C25767   5.700  10.064   3.732 -0.7056 -0.0334  0.1437
  912MOL0     C25768   5.822  10.116   3.763 -0.8172  0.6703 -0.6356
  912MOL0     N25769   6.340  10.713   3.799 -0.3177  0.2711  0.7731
  912MOL0     N25770   6.456  10.739   3.747  0.2228  0.1466 -0.6177
  912MOL0     C25771   7.535  10.256   3.021 -0.0019  0.1041 -0.2662
  912MOL0     C25772   7.611  10.140   2.976  0.4033  0.0859 -0.8764
  912MOL0     C25773   7.730   9.685   2.947  0.8551 -0.0857 -0.1358
  912MOL0     C25774   7.837   9.723   2.861  0.3924 -0.7357 -0.1670
  912MOL0     C25775   7.907   9.639   2.771  0.2472  0.0105 -0.4440
  912MOL0     C25776   7.871   9.513   2.769  0.9302  0.8039  1.6533
  912MOL0     O25777   7.913   9.420   2.675 -0.1704 -0.5715  0.5621
  912MOL0     C25778   8.026   9.446   2.584 -0.2858 -0.3249 -1.0915
  912MOL0     C25779   8.085   9.319   2.523 -0.4256 -0.8350  0.2400
  912MOL0     C25780   8.151   9.231   2.627 -0.4952 -0.2471 -0.0777
  912MOL0     C25781   8.223   9.127   2.553  0.2878 -0.1853  0.1212
  912MOL0     C25782   8.358   9.178   2.536 -0.0872  0.1610 -0.6035
  912MOL0     C25783   8.480   9.207   2.522  0.1614  0.0473 -0.2229
  912MOL0     C25784   7.767   9.467   2.858  0.8931  0.3584 -0.1420
  912MOL0     C25785   7.697   9.551   2.951  0.3732 -0.4378 -0.8528
  912MOL0     C25786   7.592   9.489   3.037  0.0399  1.2340  0.9416
  912MOL0     H25787   7.575   9.950   3.255 -3.7148 -1.4741 -2.0061
  912MOL0     H25788   7.466  10.143   3.338 -0.3381  1.7509  0.0303
  912MOL0     H25789   7.453  10.397   3.369  2.2077  0.7444 -3.2581
  912MOL0     H25790   7.310  10.291   3.322 -0.3381 -0.2437 -5.7201
  912MOL0     H25791   7.300  10.556   3.412 -1.8544  0.9230  0.9561
  912MOL0     H25792   7.259  10.570   3.246 -0.0641  0.6659  1.3396
  912MOL0     H25793   7.093  10.372   3.269  0.2700  0.8616  0.0924
  912MOL0     H25794   7.115  10.404   3.451 -1.0515  6.2348  2.4610
  912MOL0     H25795   7.031  10.624   3.429 -0.0692 -0.6405  1.0154
  912MOL0     H25796   7.000  10.591   3.248  1.1818 -1.6529 -0.8816
  912MOL0     H25797   6.903  10.450   3.499 -2.1283 -1.3821  0.0749
  912MOL0     H25798   6.844  10.408   3.323  1.3708 -3.9972  3.7601
  912MOL0     H25799   6.792  10.692   3.375 -2.6859  1.5407  1.4214
  912MOL0     H25800   6.689  10.570   3.321  1.6546 -1.7902 -0.7150
  912MOL0     H25801   6.765  10.604   3.607  1.0750  0.0844 -0.4524
  912MOL0     H25802   6.631  10.491   3.543 -0.5903  0.3709  0.2046
  912MOL0     H25803   6.625  10.796   3.585 -2.4940  0.3532 -0.3529
  912MOL0     H25804   6.559  10.713   3.439  2.4076 -1.2173 -0.3940
  912MOL0     H25805   6.347  10.520   3.528  2.7818  0.0456 -0.7910
  912MOL0     H25806   6.098  10.511   3.671  1.7030 -0.2729 -0.8863
  912MOL0     H25807   6.084  10.664   3.777  3.9301  2.9463 -0.2246
  912MOL0     H25808   6.220  10.540   3.951  1.1265 -1.1826  0.4027
  912MOL0     H25809   6.051  10.499   3.938 -0.6360  1.7723 -1.5300
  912MOL0     H25810   6.273  10.334   3.803 -1.8787  1.4757 -3.4997
  912MOL0     H25811   6.197  10.322   3.968 -0.1413  1.1043  0.2216
  912MOL0     H25812   6.044  10.279   3.707  0.8929  0.6375  0.8752
  912MOL0     H25813   6.129  10.160   3.802  2.2159  0.6095 -2.8245
  912MOL0     H25814   5.741  10.342   4.003  0.1831  0.5391  0.5388
  912MOL0     H25815   5.487  10.235   4.083 -1.7447 -0.2785  0.4763
  912MOL0     H25816   5.393  10.275   3.935  0.6875 -3.8906  1.2787
  912MOL0     H25817   5.508  10.391   3.998  3.1558  0.0727 -0.2756
  912MOL0     H25818   5.281  10.032   3.519 -0.7481 -0.2297 -2.6796
  912MOL0     H25819   5.114   9.919   3.425  1.8471  1.5617 -0.1841
  912MOL0     H25820   4.999   9.771   3.316  0.7411  2.5226  2.9230
  912MOL0     H25821   4.942   9.610   3.313 -0.9981 -0.9159  1.5103
  912MOL0     H25822   4.768   9.758   3.307 -2.8634  0.0431  0.3012
  912MOL0     H25823   4.759   9.655   3.453  1.2274 -0.9408 -0.2721
  912MOL0     H25824   4.884   9.947   3.451 -2.2050  0.9486 -1.6801
  912MOL0     H25825   4.813   9.873   3.591  1.8112  4.0761 -0.1309
  912MOL0     H25826   4.641   9.996   3.565 -1.2983 -0.6935  0.2892
  912MOL0     H25827   4.582   9.884   3.449 -0.8339  0.6626 -2.9214
  912MOL0     H25828   4.749  10.136   3.384  0.7390 -0.5527 -3.2128
  912MOL0     H25829   4.696  10.012   3.270 -1.1087 -3.5142  0.6996
  912MOL0     H25830   4.466  10.041   3.325 -0.9485 -0.9931  1.3920
  912MOL0     H25831   4.536  10.193   3.262  1.1289 -1.1809 -1.3180
  912MOL0     H25832   4.569  10.270   3.503  0.5293 -0.0853  0.6917
  912MOL0     H25833   4.476  10.140   3.567  2.5491  0.2290  1.1380
  912MOL0     H25834   4.313  10.326   3.519 -3.1400  3.1853 -3.9728
  912MOL0     H25835   4.291  10.183   3.420  0.4736 -0.1204 -0.0367
  912MOL0     H25836   5.203   9.571   3.669 -1.6486  1.3139  2.1400
  912MOL0     H25837   5.395   9.674   3.739 -1.5234 -0.4377  0.2693
  912MOL0     H25838   5.694   9.978   3.668  2.5130  0.1643 -0.6182
  912MOL0     H25839   5.907  10.083   3.704  1.3399  3.5694  0.5931
  912MOL0     H25840   7.505  10.344   2.964  2.5159 -0.9915 -3.6909
  912MOL0     H25841   7.655  10.147   2.878  3.2009 -0.5760  0.2346
  912MOL0     H25842   7.856   9.829   2.847 -0.4705 -0.7531 -1.7213
  912MOL0     H25843   7.981   9.674   2.699 -0.8627  0.6146 -1.3314
  912MOL0     H25844   7.978   9.508   2.507  1.2234  2.8783  0.3282
  912MOL0     H25845   8.099   9.511   2.634 -1.5417  0.8393 -0.6843
  912MOL0     H25846   8.160   9.349   2.450  1.9089 -2.0733  2.0005
  912MOL0     H25847   8.002   9.262   2.480 -0.3985 -0.1461 -0.7591
  912MOL0     H25848   8.216   9.297   2.685 -3.1398  2.4522  0.1021
  912MOL0     H25849   8.073   9.181   2.686  0.0954 -1.4444 -0.2899
  912MOL0     H25850   8.170   9.101   2.461  2.1474 -3.1904 -0.2509
  912MOL0     H25851   8.227   9.037   2.615  0.5080 -0.3732 -0.1611
  912MOL0     H25852   8.575   9.252   2.501  0.8268 -0.3601  1.6936
  912MOL0     H25853   7.735   9.363   2.853 -2.1110  1.1839 -0.2121
  912MOL0     H25854   7.494   9.521   2.999  0.2229 -0.5348 -1.2852
  912MOL0     H25855   7.599   9.382   3.015  1.1982  1.4027  0.4110
  912MOL0     H25856   7.590   9.503   3.145  1.3897  0.7844  1.0423
  913MOL0     O25857   8.763   9.772   6.635 -0.5004 -0.1740  0.0947
  913MOL0     C25858   8.747   9.692   6.731  0.2133  0.4796  0.5648
  913MOL0     O25859   8.685   9.568   6.723  0.1939  0.8160  0.5454
  913MOL0     C25860   8.602   9.545   6.616 -0.6063  0.1607 -0.1735
  913MOL0     C25861   8.645   9.480   6.505 -0.3874 -0.1928  0.9577
  913MOL0     C25862   8.571   9.477   6.386  0.2906  0.7745 -0.8606
  913MOL0     C25863   8.433   9.518   6.385  0.6297 -0.0721 -0.7169
  913MOL0     O25864   8.351   9.480   6.275 -0.2246  0.2060 -0.7673
  913MOL0     C25865   8.242   9.574   6.254 -0.9572  0.3529  0.0179
  913MOL0     C25866   8.166   9.528   6.125 -0.3001  0.5298 -0.5241
  913MOL0     C25867   8.043   9.622   6.101  0.7508 -0.3074  0.0412
  913MOL0     C25868   7.904   9.548   6.082 -0.5878 -0.4211  0.5072
  913MOL0     C25869   7.891   9.455   5.968 -0.7233 -0.5688  0.1859
  913MOL0     C25870   7.778   9.478   5.873  0.9922  0.0582  0.3976
  913MOL0     C25871   7.814   9.607   5.803  0.7828  0.0146  1.4436
  913MOL0     C25872   7.691   9.666   5.736 -0.1485 -0.7803 -0.4887
  913MOL0     N25873   7.662   9.603   5.608  1.2577 -0.2778  0.3227
  913MOL0     C25874   7.724   9.641   5.491  0.2266  0.0688  0.8880
  913MOL0     C25875   7.644   9.598   5.398  1.7861 -0.2543 -0.6236
  913MOL0     C25876   7.664   9.621   5.257  0.2875 -0.8542 -0.3489
  913MOL0     C25877   7.574   9.731   5.205 -1.0814 -0.2010  0.6958
  913MOL0     C25878   7.527   9.721   5.065 -0.4293 -0.2858  0.6026
  913MOL0     C25879   7.440   9.598   5.037  0.6932  0.1035 -0.6531
  913MOL0     O25880   7.403   9.577   4.901  0.7515 -0.1942 -0.2200
  913MOL0     C25881   7.316   9.474   4.862 -0.4695 -0.2040  0.6100
  913MOL0     C25882   7.265   9.380   4.956  0.0464  0.4372  0.1274
  913MOL0     C25883   7.176   9.280   4.911  0.1599  0.6136 -0.1091
  913MOL0     C25884   7.130   9.168   5.009  0.1083 -0.2330 -0.3841
  913MOL0     C25885   7.126   9.283   4.772  1.5221 -0.8843  0.4016
  913MOL0     C25886   7.042   9.166   4.711  0.2716  0.0442  0.2646
  913MOL0     O25887   7.069   9.133   4.577  0.9058 -1.5568 -0.2716
  913MOL0     C25888   6.975   9.062   4.501  0.0828  0.9466  0.3758
  913MOL0     C25889   6.950   8.924   4.537  0.4031  0.4233 -0.9341
  913MOL0     C25890   6.848   8.849   4.471  0.4199  0.2088  0.8759
  913MOL0     C25891   6.780   8.910   4.359  0.6724 -1.3018  0.1310
  913MOL0     O25892   6.697   8.839   4.272 -0.1329  0.2839  0.0515
  913MOL0     C25893   6.618   8.735   4.324  0.6496  0.3009  0.0222
  913MOL0     C25894   6.671   8.590   4.290  0.5890  0.1451  0.0291
  913MOL0     C25895   6.654   8.555   4.141  0.7942  0.1610  0.1163
  913MOL0     C25896   6.748   8.457   4.097 -0.1121  0.5457 -0.3448
  913MOL0     C25897   6.694   8.370   3.981 -0.0345  0.3036  0.4661
  913MOL0     C25898   6.804   8.266   3.952 -0.1614 -0.8424  0.2464
  913MOL0     C25899   6.772   8.145   3.866 -0.5866 -0.5452 -0.6811
  913MOL0     C25900   6.844   8.148   3.742 -0.3099  0.1175 -0.2697
  913MOL0    Cl25901   6.782   8.021   3.640  0.0201 -0.0724 -0.2414
  913MOL0     C25902   6.817   9.047   4.320 -0.2444  0.8164  0.1108
  913MOL0     C25903   6.908   9.115   4.396 -0.2400 -0.4948 -0.0516
  913MOL0     O25904   6.957   9.118   4.779 -0.3899 -0.6510 -0.8060
  913MOL0     C25905   7.178   9.380   4.685  0.5118  0.3421 -0.1275
  913MOL0     C25906   7.273   9.474   4.728 -1.1259  0.3957  0.5757
  913MOL0     N25907   7.540   9.521   5.451 -0.2821 -0.1610 -0.4066
  913MOL0     N25908   7.549   9.525   5.577  0.9047  1.0452 -0.6334
  913MOL0     C25909   8.382   9.577   6.503  0.2210 -0.6813 -0.2272
  913MOL0     C25910   8.469   9.592   6.615 -0.4086  0.0367  1.0456
  913MOL0     C25911   8.787   9.743   6.864  0.7152  0.1265  1.1686
  913MOL0     C25912   8.854   9.867   6.879 -0.3221  0.6256 -0.1691
  913MOL0     C25913   8.920   9.901   6.996 -0.3977  0.5647  0.2024
  913MOL0     C25914   8.913   9.806   7.106  0.1071  0.4558  0.4215
  913MOL0     O25915   8.988   9.839   7.217 -0.1875  0.4907  0.1232
  913MOL0     C25916   9.073   9.728   7.265 -0.6441  0.4309  0.0780
  913MOL0     C25917   9.182   9.711   7.164  0.0111  0.8123  0.4115
  913MOL0     C25918   9.306   9.622   7.218 -0.0084 -1.0623  0.6691
  913MOL0     C25919   9.430   9.629   7.120 -0.5100  0.1185  0.0956
  913MOL0     C25920   9.504   9.759   7.123 -0.2375 -0.5786  0.3219
  913MOL0     C25921   9.564   9.868   7.127  0.0786  0.0890  0.4589
  913MOL0     C25922   8.821   9.700   7.100 -0.8367 -0.3737  1.1454
  913MOL0     C25923   8.749   9.672   6.982 -1.3252  0.4613 -0.2262
  913MOL0     C25924   8.644   9.562   6.998 -0.3930 -0.5973  0.5798
  913MOL0     H25925   8.749   9.450   6.517  0.5759  1.3795 -2.2918
  913MOL0     H25926   8.612   9.449   6.289 -3.0150  0.0119 -2.1691
  913MOL0     H25927   8.279   9.677   6.248  2.5521 -0.6667  1.7411
  913MOL0     H25928   8.179   9.572   6.344  1.4318  2.2508  1.8914
  913MOL0     H25929   8.247   9.551   6.055 -0.3206  2.9474  0.1496
  913MOL0     H25930   8.137   9.423   6.123 -3.4710  1.2239  1.5820
  913MOL0     H25931   8.038   9.696   6.182 -0.6892  1.0451 -1.2257
  913MOL0     H25932   8.077   9.671   6.010  0.9095 -0.2109  0.1522
  913MOL0     H25933   7.874   9.479   6.162 -0.8922 -0.5554  0.2761
  913MOL0     H25934   7.830   9.628   6.079  0.8377  0.9478  0.0924
  913MOL0     H25935   7.873   9.351   5.996 -1.7414 -1.9393 -4.5626
  913MOL0     H25936   7.988   9.460   5.919 -0.3431 -1.7362  0.7889
  913MOL0     H25937   7.770   9.406   5.791 -3.1185  1.3728 -0.6226
  913MOL0     H25938   7.691   9.483   5.939  1.0509 -3.2340  0.8692
  913MOL0     H25939   7.889   9.583   5.727  0.4051 -1.0553  1.3920
  913MOL0     H25940   7.873   9.680   5.859  3.4699  0.2513 -1.4430
  913MOL0     H25941   7.599   9.637   5.788 -1.0078  2.0691 -0.2788
  913MOL0     H25942   7.694   9.775   5.738  1.5997 -0.8071  0.1006
  913MOL0     H25943   7.820   9.690   5.483  0.8007 -1.2070 -0.4989
  913MOL0     H25944   7.621   9.526   5.222 -1.6295 -0.2355  0.2215
  913MOL0     H25945   7.771   9.640   5.241  0.0076  0.6253 -0.6043
  913MOL0     H25946   7.489   9.735   5.273 -0.7303  3.0860  1.1061
  913MOL0     H25947   7.630   9.825   5.218 -1.6183  0.2775 -0.3710
  913MOL0     H25948   7.483   9.818   5.037 -0.7989 -0.6019  0.0595
  913MOL0     H25949   7.619   9.710   5.007  0.6163  0.1480  2.1484
  913MOL0     H25950   7.486   9.508   5.080  1.6189  0.9495  0.1623
  913MOL0     H25951   7.347   9.623   5.089 -0.0366 -1.6852 -1.0228
  913MOL0     H25952   7.303   9.383   5.057  1.9105  1.3927 -0.5407
  913MOL0     H25953   7.130   9.063   4.979  2.6224 -0.3640 -0.1624
  913MOL0     H25954   7.027   9.175   5.046 -0.4159 -4.5021 -0.5306
  913MOL0     H25955   7.196   9.183   5.095 -0.7452 -1.6062  0.5602
  913MOL0     H25956   6.995   8.870   4.620 -1.7255 -2.6329 -1.6035
  913MOL0     H25957   6.829   8.745   4.499  2.3913 -0.3640  0.1990
  913MOL0     H25958   6.620   8.747   4.433  1.4840 -0.0412  0.0558
  913MOL0     H25959   6.518   8.753   4.285  1.2106  2.0223 -0.7196
  913MOL0     H25960   6.777   8.588   4.316  0.2182  0.0187  1.6550
  913MOL0     H25961   6.628   8.512   4.354  1.7879  0.3964  1.1778
  913MOL0     H25962   6.673   8.640   4.076 -3.2615  0.9763 -0.2655
  913MOL0     H25963   6.550   8.528   4.122  0.6247  1.6405 -1.2155
  913MOL0     H25964   6.778   8.405   4.188  0.5964  4.2741  1.7661
  913MOL0     H25965   6.838   8.507   4.060  0.1072  0.5443  0.1784
  913MOL0     H25966   6.603   8.316   4.005 -0.3388  0.2562 -0.7245
  913MOL0     H25967   6.681   8.429   3.890  0.0416 -2.8647 -1.7507
  913MOL0     H25968   6.857   8.234   4.042  0.8507  0.6696  0.2143
  913MOL0     H25969   6.888   8.320   3.907 -0.8629  1.1188  1.1676
  913MOL0     H25970   6.666   8.129   3.844 -0.9513 -2.1728  1.8769
  913MOL0     H25971   6.797   8.058   3.926  0.3715  0.2306  0.0805
  913MOL0     H25972   6.946   8.122   3.771 -1.5896 -2.1735  2.6050
  913MOL0     H25973   6.834   8.242   3.687 -2.7132 -0.7764 -1.4756
  913MOL0     H25974   6.765   9.084   4.232  1.7830 -0.2742 -1.6364
  913MOL0     H25975   6.951   9.207   4.356  2.7893 -2.1883 -1.0001
  913MOL0     H25976   7.153   9.383   4.579  0.5888 -0.4040 -0.1668
  913MOL0     H25977   7.316   9.548   4.661 -3.2067  1.3336  0.1742
  913MOL0     H25978   8.286   9.628   6.511  0.4942  0.4644 -3.0917
  913MOL0     H25979   8.444   9.655   6.700  2.1879  2.5119  0.1198
  913MOL0     H25980   8.866   9.933   6.794 -1.7716  0.6101 -0.4028
  913MOL0     H25981   8.984   9.989   6.991  0.3297 -0.0268 -1.9429
  913MOL0     H25982   9.110   9.750   7.366 -0.8530  2.2445 -0.2047
  913MOL0     H25983   9.008   9.641   7.275 -0.3892  0.2141 -0.1510
  913MOL0     H25984   9.221   9.811   7.141  1.3183 -0.0412 -1.3347
  913MOL0     H25985   9.152   9.675   7.066 -1.5724  2.0410  0.3934
  913MOL0     H25986   9.337   9.658   7.317  0.4292  0.1316  0.1114
  913MOL0     H25987   9.274   9.518   7.231  2.2277 -2.1955 -1.9408
  913MOL0     H25988   9.394   9.621   7.017  0.8841  0.7562 -0.4643
  913MOL0     H25989   9.502   9.551   7.147 -1.3033 -1.8119 -2.8941
  913MOL0     H25990   9.620   9.959   7.136 -4.0578  3.3567 -2.5077
  913MOL0     H25991   8.809   9.627   7.179  0.2549 -1.8344  0.0230
  913MOL0     H25992   8.554   9.603   6.950  0.7236  3.1733  1.4302
  913MOL0     H25993   8.677   9.474   6.942  1.3723  0.7029 -0.5206
  913MOL0     H25994   8.609   9.539   7.099 -2.9066  2.5794  0.5931
  914MOL0     O25995   4.144   7.472  10.858  0.7210  0.3264 -0.0445
  914MOL0     C25996   4.079   7.531  10.765 -0.2746  0.1239 -0.0780
  914MOL0     O25997   3.964   7.483  10.714  0.0281 -0.0575 -0.0234
  914MOL0     C25998   3.921   7.354  10.757  0.7316 -0.3248  0.1645
  914MOL0     C25999   3.967   7.230  10.708 -0.2143  0.0945  0.3232
  914MOL0     C26000   3.925   7.106  10.767 -0.0389  0.1640 -0.6702
  914MOL0     C26001   3.833   7.111  10.866  0.6469  0.0287  0.9524
  914MOL0     O26002   3.772   7.004  10.926  0.4402 -0.5380  0.2705
  914MOL0     C26003   3.837   6.874  10.935 -0.1001  0.2231  0.5269
  914MOL0     C26004   3.745   6.786  11.018 -0.5963  0.2654  0.3647
  914MOL0     C26005   3.596   6.758  10.967  0.4650  0.0633 -0.1855
  914MOL0     C26006   3.507   6.648  11.029  0.8441  0.3696 -0.0337
  914MOL0     C26007   3.371   6.634  10.965  0.5134 -0.0799 -1.5773
  914MOL0     C26008   3.368   6.551  10.834  0.1037  0.3058 -0.0217
  914MOL0     C26009   3.237   6.569  10.754  0.3416  0.1328  0.0625
  914MOL0     C26010   3.146   6.442  10.772  0.6024  0.1911 -0.2018
  914MOL0     N26011   3.198   6.316  10.722  0.5118 -0.1518 -0.7530
  914MOL0     C26012   3.304   6.302  10.639  0.4275 -1.1994 -0.6989
  914MOL0     C26013   3.299   6.171  10.612 -0.2903  0.0002 -0.8382
  914MOL0     C26014   3.365   6.088  10.505 -0.0923 -0.7880  1.2784
  914MOL0     C26015   3.434   5.963  10.546  0.2493 -0.2191 -0.4421
  914MOL0     C26016   3.576   5.966  10.600  0.0307 -0.6423  0.3450
  914MOL0     C26017   3.593   6.028  10.741 -0.3283 -0.4222  0.1139
  914MOL0     O26018   3.726   6.013  10.796 -0.6765 -0.6643 -0.2673
  914MOL0     C26019   3.760   5.885  10.843  0.2523 -0.0934  0.7741
  914MOL0     C26020   3.685   5.768  10.842 -0.7766  0.1763  1.0083
  914MOL0     C26021   3.741   5.642  10.874 -0.6964 -0.2734  0.6873
  914MOL0     C26022   3.647   5.523  10.862  0.1889 -0.6666 -1.2477
  914MOL0     C26023   3.880   5.631  10.923 -0.7298 -0.0693 -0.4788
  914MOL0     C26024   3.962   5.503  10.972 -0.4122  0.2672  0.9056
  914MOL0     O26025   4.081   5.532  11.049 -0.4475 -0.1710  1.1263
  914MOL0     C26026   4.151   5.435  11.109 -0.7541  0.3802 -0.9658
  914MOL0     C26027   4.087   5.336  11.190  0.1930 -0.1797  0.8530
  914MOL0     C26028   4.163   5.237  11.252  0.0736  0.6601 -0.2464
  914MOL0     C26029   4.301   5.240  11.249 -0.5890 -0.4500  0.2424
  914MOL0     O26030   4.375   5.149  11.328 -0.2837 -0.1400  0.4137
  914MOL0     C26031   4.514   5.118  11.299  0.1533  0.0222  0.3764
  914MOL0     C26032   4.564   5.006  11.393  0.7609 -0.2941 -0.2739
  914MOL0     C26033   4.576   4.880  11.307  0.1222 -0.7709  0.3164
  914MOL0     C26034   4.598   4.765  11.402  0.0779 -0.9334 -0.1457
  914MOL0     C26035   4.611   4.632  11.332 -0.4259  0.4659 -1.1196
  914MOL0     C26036   4.635   4.512  11.429 -0.3100 -0.8642  0.4885
  914MOL0     C26037   4.671   4.390  11.348 -0.0685 -0.2051  0.0981
  914MOL0     C26038   4.629   4.266  11.426 -0.1971 -0.1459 -0.1812
  914MOL0    Cl26039   4.636   4.125  11.317  0.2529 -0.1982 -0.0681
  914MOL0     C26040   4.362   5.332  11.159 -0.6066  0.2272  0.4320
  914MOL0     C26041   4.293   5.432  11.097  0.7229  0.1140 -0.3375
  914MOL0     O26042   3.930   5.393  10.934 -0.0419 -0.3571  0.1115
  914MOL0     C26043   3.946   5.750  10.935 -0.2718 -0.4731 -0.6083
  914MOL0     C26044   3.892   5.871  10.894  0.3326 -0.0200 -0.5224
  914MOL0     N26045   3.204   6.115  10.691  1.0469  0.3822  0.9608
  914MOL0     N26046   3.145   6.195  10.754 -0.2182 -1.1554 -0.0405
  914MOL0     C26047   3.779   7.234  10.909 -0.1498 -0.7991  0.4547
  914MOL0     C26048   3.821   7.356  10.857 -0.8471 -0.8390 -1.2959
  914MOL0     C26049   4.137   7.659  10.719  1.0372  0.5274 -0.5495
  914MOL0     C26050   4.239   7.722  10.800  0.0501 -0.3825 -0.3896
  914MOL0     C26051   4.288   7.846  10.770  0.1124 -0.2752  1.0702
  914MOL0     C26052   4.253   7.911  10.654  0.6196 -0.2435  0.5470
  914MOL0     O26053   4.302   8.028  10.609  0.1975 -0.8925 -0.1003
  914MOL0     C26054   4.439   8.053  10.622 -1.1274  0.0091 -0.6298
  914MOL0     C26055   4.505   7.963  10.517  0.8268 -0.3117 -0.0257
  914MOL0     C26056   4.655   7.968  10.539 -0.1404  0.0385 -0.7215
  914MOL0     C26057   4.732   7.867  10.446 -0.4188 -0.0297 -0.9099
  914MOL0     C26058   4.693   7.885  10.305  0.5382 -0.3620  0.5808
  914MOL0     C26059   4.656   7.892  10.185 -0.5495  0.9534  0.2528
  914MOL0     C26060   4.154   7.845  10.574 -0.3298  1.1591 -0.8609
  914MOL0     C26061   4.089   7.723  10.604  0.0521 -1.0821  0.1021
  914MOL0     C26062   3.992   7.670  10.494 -0.2638  0.1302 -0.6518
  914MOL0     H26063   4.046   7.241  10.634 -2.7766  1.1370 -2.4496
  914MOL0     H26064   3.976   7.014  10.738 -2.0072 -1.7596  1.6102
  914MOL0     H26065   3.932   6.871  10.989  0.5973  0.7002 -0.6525
  914MOL0     H26066   3.853   6.824  10.839 -1.6235  2.3801 -0.9302
  914MOL0     H26067   3.801   6.692  11.025  0.9261  0.9212 -1.7827
  914MOL0     H26068   3.734   6.825  11.119  0.6770 -3.8622  2.2900
  914MOL0     H26069   3.542   6.852  10.979 -3.5901 -2.2061  1.3164
  914MOL0     H26070   3.602   6.736  10.860 -2.3189 -2.6698  0.0947
  914MOL0     H26071   3.549   6.548  11.013 -0.6135 -0.1590 -0.8307
  914MOL0     H26072   3.489   6.664  11.135  1.3162  0.7235 -0.0071
  914MOL0     H26073   3.343   6.736  10.936  0.5273  0.5281  0.3372
  914MOL0     H26074   3.303   6.583  11.034  0.8224 -1.7308 -2.4590
  914MOL0     H26075   3.450   6.580  10.766 -1.4293 -0.1425 -2.1701
  914MOL0     H26076   3.384   6.446  10.858  1.0107  0.8377  1.8519
  914MOL0     H26077   3.243   6.576  10.645  1.0579 -0.5237  0.0510
  914MOL0     H26078   3.189   6.658  10.796  2.5034  1.4291 -0.1120
  914MOL0     H26079   3.140   6.431  10.881 -0.7794  2.3087 -0.0068
  914MOL0     H26080   3.044   6.453  10.733 -0.5502 -3.0773  1.5057
  914MOL0     H26081   3.377   6.374  10.602 -0.8712 -0.1172 -1.2334
  914MOL0     H26082   3.444   6.149  10.460 -0.7841 -1.4982 -1.0396
  914MOL0     H26083   3.288   6.058  10.433  2.0482 -1.9694 -0.6926
  914MOL0     H26084   3.371   5.914  10.621  1.6841 -1.2334  0.1526
  914MOL0     H26085   3.444   5.896  10.461  2.6404 -0.5140 -0.0120
  914MOL0     H26086   3.594   5.860  10.622 -2.0245 -0.5898  2.7282
  914MOL0     H26087   3.642   6.011  10.526 -0.3605  0.4815  0.6619
  914MOL0     H26088   3.564   6.133  10.733  1.6480 -0.0003 -2.8569
  914MOL0     H26089   3.518   5.987  10.810  0.4140  0.3233  1.4235
  914MOL0     H26090   3.582   5.761  10.808 -0.2242  0.1904 -0.7512
  914MOL0     H26091   3.608   5.497  10.961  1.7449  2.9116  0.4912
  914MOL0     H26092   3.696   5.445  10.803  2.1392 -1.9531  1.7825
  914MOL0     H26093   3.559   5.556  10.806  0.3721  0.5718 -0.8454
  914MOL0     H26094   3.981   5.321  11.207  0.3127 -0.9413  0.9688
  914MOL0     H26095   4.122   5.157  11.312 -0.7526  0.1431 -1.4587
  914MOL0     H26096   4.524   5.100  11.191 -3.4921 -1.0920  0.0853
  914MOL0     H26097   4.570   5.208  11.323 -0.1940 -0.0957  1.6981
  914MOL0     H26098   4.659   5.030  11.442  0.5243  0.6849 -0.2702
  914MOL0     H26099   4.487   4.997  11.470 -0.9434  1.2222 -1.6888
  914MOL0     H26100   4.659   4.893  11.237  0.7834 -3.0021  0.6029
  914MOL0     H26101   4.486   4.858  11.247 -2.0685 -0.1212  3.1406
  914MOL0     H26102   4.518   4.759  11.476 -0.9816  0.4716 -1.1098
  914MOL0     H26103   4.686   4.788  11.462  0.3961 -2.0591 -0.1561
  914MOL0     H26104   4.523   4.608  11.272 -0.1512 -0.1556 -1.2806
  914MOL0     H26105   4.697   4.632  11.264 -0.7465 -1.0405 -1.5661
  914MOL0     H26106   4.551   4.498  11.497 -2.5792  3.1182 -1.0953
  914MOL0     H26107   4.717   4.548  11.492 -1.1246 -0.8950  1.6047
  914MOL0     H26108   4.778   4.370  11.343 -0.3163 -1.2487 -1.6752
  914MOL0     H26109   4.614   4.391  11.254 -2.1870 -3.8757  1.1157
  914MOL0     H26110   4.528   4.275  11.467  1.6833  6.0563  4.6774
  914MOL0     H26111   4.688   4.246  11.516 -0.4464 -4.2783 -0.7318
  914MOL0     H26112   4.469   5.340  11.143 -0.7690  1.8565  0.0678
  914MOL0     H26113   4.335   5.506  11.030 -3.1960  2.9864  0.0834
  914MOL0     H26114   4.049   5.761  10.967 -1.4315  1.5894  3.0082
  914MOL0     H26115   3.945   5.963  10.915 -0.9626 -0.0492  3.6461
  914MOL0     H26116   3.705   7.236  10.988 -0.3507 -0.6014  0.2645
  914MOL0     H26117   3.792   7.451  10.901  1.8454 -1.9873  3.7566
  914MOL0     H26118   4.269   7.685  10.897  1.3242  0.7571 -0.3122
  914MOL0     H26119   4.365   7.902  10.822 -0.6426  1.4556  0.3859
  914MOL0     H26120   4.463   8.158  10.601 -1.5478  0.1310 -0.5144
  914MOL0     H26121   4.482   8.033  10.720 -1.3407  3.3746  0.2777
  914MOL0     H26122   4.464   8.004  10.425 -4.4003 -2.6061  0.9142
  914MOL0     H26123   4.471   7.859  10.523 -0.0038 -0.0154  0.7800
  914MOL0     H26124   4.692   8.067  10.508  1.5634 -0.4654 -0.4247
  914MOL0     H26125   4.672   7.960  10.646 -1.7391  4.8086  0.1565
  914MOL0     H26126   4.715   7.760  10.460  1.4113 -0.3739 -1.0335
  914MOL0     H26127   4.836   7.897  10.462  0.1777 -2.7433  1.0565
  914MOL0     H26128   4.628   7.871  10.084  0.4099 -2.2148  0.5634
  914MOL0     H26129   4.130   7.896  10.482  1.4605  2.1084 -0.8386
  914MOL0     H26130   3.974   7.747  10.418 -3.0315  0.6886  0.4627
  914MOL0     H26131   4.033   7.580  10.445 -0.5304 -0.7236  0.6427
  914MOL0     H26132   3.898   7.634  10.537 -0.6372  1.6831 -0.1243
  915MOL0     O26133   2.786   4.268   2.477  0.2638 -0.1121 -0.3595
  915MOL0     C26134   2.891   4.207   2.493 -0.0567 -0.4853  0.4395
  915MOL0     O26135   2.901   4.079   2.527 -0.1402  0.4071  0.0829
  915MOL0     C26136   2.793   4.019   2.580  0.8626  0.2678 -0.1745
  915MOL0     C26137   2.755   3.903   2.528  0.6222 -0.1400  0.4960
  915MOL0     C26138   2.658   3.826   2.584 -0.0147 -0.4604 -0.6456
  915MOL0     C26139   2.584   3.873   2.700  0.6392 -0.2676  0.5367
  915MOL0     O26140   2.486   3.801   2.763 -0.2487  0.1201  1.1816
  915MOL0     C26141   2.425   3.693   2.691  0.5033  0.9191  0.0903
  915MOL0     C26142   2.295   3.670   2.771  0.1060  1.2399  0.6939
  915MOL0     C26143   2.226   3.550   2.702  0.5101 -0.6054 -0.2030
  915MOL0     C26144   2.191   3.448   2.814 -0.5805 -0.5983 -1.5760
  915MOL0     C26145   2.078   3.353   2.770  0.1575 -0.7593  0.1053
  915MOL0     C26146   2.065   3.258   2.889 -0.3109  0.2794 -0.0095
  915MOL0     C26147   1.970   3.144   2.862  0.0741 -0.0324 -0.6067
  915MOL0     C26148   1.965   3.033   2.954  0.8621  0.2783 -0.4278
  915MOL0     N26149   2.102   2.971   2.958  0.8326  0.4517 -0.2241
  915MOL0     C26150   2.206   2.991   3.047 -0.7486 -0.1200  0.4664
  915MOL0     C26151   2.300   2.901   3.011 -0.4164 -0.4136  0.6356
  915MOL0     C26152   2.431   2.895   3.084 -0.5843  0.7265 -0.5223
  915MOL0     C26153   2.394   2.902   3.226  0.2714  0.5108  0.6632
  915MOL0     C26154   2.511   2.857   3.313 -0.3681 -0.0156 -0.4541
  915MOL0     C26155   2.467   2.861   3.462 -0.1427  0.6641  0.8353
  915MOL0     O26156   2.391   2.974   3.489  0.4186 -1.4453  0.2712
  915MOL0     C26157   2.441   3.084   3.548 -0.5898  0.5594  0.6458
  915MOL0     C26158   2.349   3.178   3.585 -0.2759  0.0943  0.0021
  915MOL0     C26159   2.382   3.298   3.634  0.5964 -0.0758  0.4898
  915MOL0     C26160   2.261   3.391   3.662 -0.3153  0.5564  1.1470
  915MOL0     C26161   2.509   3.322   3.665 -0.2593 -0.1498 -0.1220
  915MOL0     C26162   2.563   3.454   3.732 -0.4429  0.3169  0.3096
  915MOL0     O26163   2.702   3.461   3.744 -0.5327 -0.2666  0.0692
  915MOL0     C26164   2.754   3.568   3.814  0.2805  0.4589 -0.7381
  915MOL0     C26165   2.863   3.645   3.783 -0.1572 -0.4842  0.0287
  915MOL0     C26166   2.918   3.748   3.860  0.6982 -0.4749 -0.5991
  915MOL0     C26167   2.868   3.764   3.995 -0.0074  0.1937  0.1386
  915MOL0     O26168   2.904   3.854   4.094  0.6073 -0.0242 -0.2502
  915MOL0     C26169   2.986   3.961   4.056  0.2159  0.4971 -0.7284
  915MOL0     C26170   3.024   4.037   4.186  0.7314 -0.5342 -0.2549
  915MOL0     C26171   3.054   4.187   4.172  0.8751 -0.4381  0.6234
  915MOL0     C26172   3.062   4.267   4.295  0.2571  0.5504 -0.1621
  915MOL0     C26173   3.058   4.419   4.275  0.0743  0.1243 -0.4477
  915MOL0     C26174   3.085   4.492   4.408 -0.5707  0.5176  0.2355
  915MOL0     C26175   3.137   4.633   4.397 -0.7616  0.0142  0.5564
  915MOL0     C26176   3.063   4.729   4.484  0.5833 -1.6325  0.5019
  915MOL0    Cl26177   2.892   4.737   4.447  0.1553 -0.2391 -0.0147
  915MOL0     C26178   2.756   3.682   4.036  0.2172  0.0092  0.1037
  915MOL0     C26179   2.700   3.587   3.950  0.6889 -0.7307  0.5906
  915MOL0     O26180   2.490   3.549   3.759  0.5562  0.6042  0.8205
  915MOL0     C26181   2.617   3.230   3.635 -0.8700  0.2933  1.6239
  915MOL0     C26182   2.575   3.103   3.581  0.2244 -0.2047 -0.4606
  915MOL0     N26183   2.256   2.828   2.897  0.3767  0.0693  0.1344
  915MOL0     N26184   2.126   2.865   2.879 -1.0038  0.7225  1.0177
  915MOL0     C26185   2.622   3.997   2.751  0.3467  0.2412 -1.3168
  915MOL0     C26186   2.735   4.065   2.706  0.1083 -0.2390 -0.1625
  915MOL0     C26187   3.008   4.284   2.445  0.3498  0.4980 -0.1742
  915MOL0     C26188   3.133   4.212   2.449  0.2227 -0.4140  0.1150
  915MOL0     C26189   3.257   4.262   2.420 -0.0449 -0.6808 -0.1022
  915MOL0     C26190   3.274   4.393   2.386  0.1422 -0.3197 -0.2341
  915MOL0     O26191   3.399   4.435   2.362 -0.2482  0.3752 -0.0386
  915MOL0     C26192   3.423   4.576   2.381  0.0484  0.5659 -0.4880
  915MOL0     C26193   3.563   4.610   2.374 -1.3963 -0.3913 -0.6744
  915MOL0     C26194   3.645   4.545   2.484 -0.2605 -0.7959  0.0350
  915MOL0     C26195   3.787   4.592   2.505  0.5582 -0.0016  0.4005
  915MOL0     C26196   3.792   4.722   2.577 -0.2371  0.8276 -0.1923
  915MOL0     C26197   3.801   4.824   2.633  0.2903 -0.0846  0.5130
  915MOL0     C26198   3.157   4.471   2.372 -0.0471  0.1807 -0.1688
  915MOL0     C26199   3.025   4.414   2.403  1.0059 -0.0686  0.5375
  915MOL0     C26200   2.909   4.507   2.390  0.6433 -0.7543  0.2971
  915MOL0     H26201   2.802   3.870   2.436 -1.9261  4.7990 -2.9906
  915MOL0     H26202   2.641   3.734   2.528 -1.6025  0.1084 -1.1587
  915MOL0     H26203   2.488   3.606   2.674  0.9515  1.5060 -1.4295
  915MOL0     H26204   2.398   3.721   2.589  0.8786 -0.6595 -0.4697
  915MOL0     H26205   2.314   3.635   2.873 -1.1808 -2.1330 -0.1057
  915MOL0     H26206   2.235   3.762   2.769 -1.8391  0.0604  1.8601
  915MOL0     H26207   2.139   3.595   2.653  2.0363  1.9261 -0.7837
  915MOL0     H26208   2.279   3.495   2.624  1.1939  0.3285 -0.4289
  915MOL0     H26209   2.274   3.381   2.837  0.3358  0.6646 -1.0987
  915MOL0     H26210   2.162   3.499   2.906  1.0647  1.6785 -2.2233
  915MOL0     H26211   2.108   3.286   2.689 -1.6859  0.4885 -1.7071
  915MOL0     H26212   1.983   3.404   2.754 -0.1026 -1.4787 -0.7023
  915MOL0     H26213   2.167   3.232   2.921  0.0994  1.7797 -0.0202
  915MOL0     H26214   2.015   3.320   2.965 -3.2481 -2.8018  0.8126
  915MOL0     H26215   1.997   3.095   2.768  1.3614  0.1116 -0.3174
  915MOL0     H26216   1.862   3.162   2.850 -0.0109 -0.5215 -0.6259
  915MOL0     H26217   1.943   3.061   3.057  1.0799  0.3076 -0.3880
  915MOL0     H26218   1.887   2.964   2.922  1.4699 -2.0035  2.5572
  915MOL0     H26219   2.217   3.076   3.113  2.1602 -2.8663  3.9179
  915MOL0     H26220   2.498   2.979   3.061 -0.2134  0.2771 -1.1144
  915MOL0     H26221   2.477   2.797   3.068  1.3914  1.3181  1.0778
  915MOL0     H26222   2.353   2.999   3.256 -0.0194  0.6548 -0.1671
  915MOL0     H26223   2.311   2.831   3.239  0.7589 -0.5703 -1.5784
  915MOL0     H26224   2.546   2.754   3.300  0.7777  0.4503 -1.2617
  915MOL0     H26225   2.600   2.917   3.292 -1.5929  0.9712 -3.1195
  915MOL0     H26226   2.409   2.771   3.482 -0.6106  1.0949  1.4156
  915MOL0     H26227   2.552   2.855   3.530 -1.9985  1.4954  3.3545
  915MOL0     H26228   2.244   3.158   3.566 -0.4544 -2.3008  2.8463
  915MOL0     H26229   2.274   3.468   3.586 -2.5201 -0.6940 -0.5915
  915MOL0     H26230   2.253   3.433   3.763  0.3364 -0.1730  1.5103
  915MOL0     H26231   2.169   3.339   3.636 -0.5901  1.2386  0.7322
  915MOL0     H26232   2.924   3.613   3.699  1.9847 -2.5770  2.2252
  915MOL0     H26233   2.998   3.810   3.821  0.5996 -0.4315 -0.7376
  915MOL0     H26234   3.081   3.934   4.009  1.8692  1.2793  1.9586
  915MOL0     H26235   2.931   4.029   3.990  1.5639  3.3748  0.9487
  915MOL0     H26236   2.928   4.031   4.237  0.9668 -0.2194  0.2449
  915MOL0     H26237   3.107   3.982   4.233  0.2548 -0.3562  0.8380
  915MOL0     H26238   2.974   4.235   4.114  2.7232 -0.2235 -1.9234
  915MOL0     H26239   3.138   4.195   4.102 -1.2525 -1.6399 -2.2166
  915MOL0     H26240   3.164   4.240   4.327  1.0285  0.9355 -2.1464
  915MOL0     H26241   2.984   4.232   4.363  1.8848 -2.9494  0.1290
  915MOL0     H26242   3.133   4.461   4.208  1.7529  1.8910  2.3034
  915MOL0     H26243   2.961   4.465   4.254 -0.4431  0.6347  2.5834
  915MOL0     H26244   3.164   4.437   4.458 -0.0611 -0.0107 -1.0964
  915MOL0     H26245   2.996   4.478   4.470 -1.0109  1.6090 -0.1123
  915MOL0     H26246   3.134   4.667   4.293  0.6162 -0.1768  0.4385
  915MOL0     H26247   3.238   4.636   4.439 -0.3026 -1.1396 -0.4259
  915MOL0     H26248   3.104   4.830   4.471 -0.6699 -0.7446  2.8483
  915MOL0     H26249   3.084   4.704   4.589 -0.7500  0.9535  1.4767
  915MOL0     H26250   2.728   3.673   4.140 -2.6468  2.1762 -0.3451
  915MOL0     H26251   2.640   3.505   3.987  1.9284 -1.9143  0.0714
  915MOL0     H26252   2.722   3.250   3.652 -0.4674  1.4734 -1.6386
  915MOL0     H26253   2.646   3.020   3.572 -0.2720 -0.5724 -1.0805
  915MOL0     H26254   2.558   4.036   2.830  1.3422 -1.8223  0.6106
  915MOL0     H26255   2.781   4.150   2.756  2.1368 -0.0583 -2.1209
  915MOL0     H26256   3.153   4.108   2.474  1.8741 -1.1420 -3.5735
  915MOL0     H26257   3.346   4.199   2.418  1.3164  0.9513 -4.6322
  915MOL0     H26258   3.391   4.633   2.293  1.4745  0.6778 -0.9487
  915MOL0     H26259   3.370   4.617   2.468  1.3597  0.4670  0.3729
  915MOL0     H26260   3.583   4.718   2.381 -1.2745 -0.5486  2.8187
  915MOL0     H26261   3.605   4.578   2.278  0.2876  3.4073 -1.3968
  915MOL0     H26262   3.593   4.579   2.575 -4.1101  0.0665 -2.2564
  915MOL0     H26263   3.641   4.438   2.463  0.1928 -0.9447  0.6604
  915MOL0     H26264   3.831   4.613   2.407  1.6880 -0.0443  0.8831
  915MOL0     H26265   3.844   4.510   2.550  1.5392 -0.5011 -1.6293
  915MOL0     H26266   3.822   4.912   2.691 -1.2640 -0.3181  1.4897
  915MOL0     H26267   3.162   4.575   2.341  1.3638  0.1351 -0.1767
  915MOL0     H26268   2.846   4.509   2.480  0.4644 -1.5592  0.1954
  915MOL0     H26269   2.930   4.614   2.382 -0.0914 -0.7419 -2.1945
  915MOL0     H26270   2.843   4.487   2.306 -0.3575  0.8625  0.6396
  916MOL0     O26271   9.035   5.955   0.985  0.3477 -0.4262  0.2239
  916MOL0     C26272   9.001   5.853   1.049  0.4085 -1.7232 -0.2952
  916MOL0     O26273   9.039   5.724   1.018  0.4807  0.0949  0.1584
  916MOL0     C26274   9.073   5.684   0.893  0.5905 -0.4614  0.5987
  916MOL0     C26275   9.083   5.761   0.771  0.4767 -0.3586 -1.0014
  916MOL0     C26276   9.151   5.714   0.658  0.0828  0.0595  0.4153
  916MOL0     C26277   9.191   5.584   0.656  0.8348 -0.2541  0.2344
  916MOL0     O26278   9.257   5.546   0.540  0.7767 -0.1908  0.9023
  916MOL0     C26279   9.327   5.424   0.541 -0.7386  0.7663  0.3417
  916MOL0     C26280   9.438   5.420   0.442 -0.0498 -0.1886  0.0330
  916MOL0     C26281   9.393   5.411   0.298  0.7835  1.4680  0.1883
  916MOL0     C26282   9.510   5.398   0.206 -0.8266  0.3329  0.1646
  916MOL0     C26283   9.467   5.346   0.062  0.2825  0.0958 -0.9130
  916MOL0     C26284   9.580   5.380  -0.040  0.0116  0.1076  0.1042
  916MOL0     C26285   9.565   5.300  -0.177  0.0799 -0.2159  0.0002
  916MOL0     C26286   9.688   5.322  -0.270  0.6580  0.6807 -0.7507
  916MOL0     N26287   9.668   5.240  -0.383  0.3803 -0.1965  0.3386
  916MOL0     C26288   9.707   5.108  -0.394  0.4217 -0.6690  0.7001
  916MOL0     C26289   9.653   5.066  -0.508  0.1758 -0.4391  0.0122
  916MOL0     C26290   9.678   4.929  -0.560 -0.6887 -0.0291 -0.4291
  916MOL0     C26291   9.585   4.899  -0.683 -0.1425 -0.9283 -0.0803
  916MOL0     C26292   9.666   4.936  -0.823 -0.1910  1.4076  0.2959
  916MOL0     C26293   9.676   5.084  -0.841  0.0661  1.4815  0.4994
  916MOL0     O26294   9.807   5.130  -0.800 -0.2268  0.9691  0.8870
  916MOL0     C26295   9.840   5.255  -0.808 -0.0800 -0.9820  0.0809
  916MOL0     C26296   9.892   5.324  -0.697 -0.8526  0.4173 -0.5601
  916MOL0     C26297   9.938   5.452  -0.696 -0.3495  0.6375 -0.1825
  916MOL0     C26298  10.009   5.515  -0.568 -0.5987  0.9860  0.0650
  916MOL0     C26299   9.936   5.527  -0.814  0.4032  0.5515 -0.1039
  916MOL0     C26300   9.964   5.663  -0.832  0.9444  0.0593  1.2591
  916MOL0     O26301   9.977   5.708  -0.960 -0.2559  0.3695 -1.3078
  916MOL0     C26302  10.053   5.814  -0.995 -1.0335  0.9031  0.5085
  916MOL0     C26303  10.193   5.807  -1.000 -0.5762  0.4821  0.2065
  916MOL0     C26304  10.268   5.908  -1.064 -0.1573  0.5272 -0.0126
  916MOL0     C26305  10.209   6.021  -1.110 -0.7245  0.4035 -1.1945
  916MOL0     O26306  10.269   6.144  -1.153 -0.0435  0.1355 -0.4070
  916MOL0     C26307  10.397   6.129  -1.199 -0.8117 -0.0543 -0.3591
  916MOL0     C26308  10.503   6.159  -1.096 -0.4951  0.5061  0.2520
  916MOL0     C26309  10.640   6.176  -1.169 -0.1919  0.0658 -0.0526
  916MOL0     C26310  10.747   6.144  -1.065 -1.6609  0.5931  0.3909
  916MOL0     C26311  10.764   5.992  -1.037  0.6857  0.0808  0.2778
  916MOL0     C26312  10.894   5.952  -0.967  0.5497  0.3467 -0.2645
  916MOL0     C26313  10.911   5.799  -0.926 -0.1596  0.4556  0.6835
  916MOL0     C26314  10.996   5.783  -0.802 -0.0526  0.1684  0.8570
  916MOL0    Cl26315  11.163   5.816  -0.848  0.2780  0.2899  0.3311
  916MOL0     C26316  10.068   6.031  -1.094 -0.0381 -1.0071 -0.2960
  916MOL0     C26317   9.993   5.930  -1.034  0.3902  0.0400  0.1608
  916MOL0     O26318   9.971   5.735  -0.733  1.0217 -0.1705  0.4551
  916MOL0     C26319   9.883   5.463  -0.928  0.3648  0.4938  0.3395
  916MOL0     C26320   9.835   5.328  -0.933 -1.0949  0.4383 -0.1856
  916MOL0     N26321   9.563   5.160  -0.567 -1.0398 -0.3598 -0.3371
  916MOL0     N26322   9.577   5.261  -0.485 -0.6512 -0.8328  0.0699
  916MOL0     C26323   9.178   5.512   0.772  0.1133 -0.0622  0.1603
  916MOL0     C26324   9.119   5.555   0.885 -0.4287 -0.0372  0.0920
  916MOL0     C26325   8.913   5.871   1.175 -0.1413 -0.4885  0.4914
  916MOL0     C26326   8.932   5.772   1.273  0.8026  0.5200 -0.2595
  916MOL0     C26327   8.851   5.762   1.392  0.0838 -0.0168  0.4096
  916MOL0     C26328   8.749   5.865   1.408  0.1874  1.2499 -0.2800
  916MOL0     O26329   8.672   5.849   1.518  0.4279 -0.2702 -0.2073
  916MOL0     C26330   8.603   5.970   1.570  0.0678  0.3379  0.4205
  916MOL0     C26331   8.512   5.924   1.687 -0.7665 -0.1353  0.3861
  916MOL0     C26332   8.455   6.048   1.755 -0.0060 -0.2619  0.0645
  916MOL0     C26333   8.412   6.016   1.904 -0.1981  0.1622  0.3334
  916MOL0     C26334   8.292   5.937   1.908  0.0481  1.6667  0.5957
  916MOL0     C26335   8.192   5.866   1.884  0.3696 -0.0128 -0.7381
  916MOL0     C26336   8.753   5.977   1.330  0.1630 -0.9434 -0.2832
  916MOL0     C26337   8.829   5.977   1.214  0.6316 -0.6631  0.2954
  916MOL0     C26338   8.815   6.102   1.134  0.0302  0.7813  0.1441
  916MOL0     H26339   9.035   5.857   0.755  0.5411 -0.6700 -3.3509
  916MOL0     H26340   9.148   5.777   0.569 -3.2557  1.8533  1.6341
  916MOL0     H26341   9.267   5.335   0.521  0.8053  0.0030 -1.2320
  916MOL0     H26342   9.364   5.397   0.640  0.1680  0.6753 -0.0114
  916MOL0     H26343   9.504   5.508   0.445  0.5100 -0.6130  0.2539
  916MOL0     H26344   9.487   5.324   0.459 -2.8548 -1.6776  0.2753
  916MOL0     H26345   9.312   5.338   0.290  1.5597  0.4612  1.1672
  916MOL0     H26346   9.343   5.504   0.273 -1.4100  0.0958 -0.7870
  916MOL0     H26347   9.562   5.494   0.209 -2.1886  1.0853  1.1293
  916MOL0     H26348   9.580   5.325   0.246 -0.2292  2.1368  2.6661
  916MOL0     H26349   9.375   5.396   0.030  0.5533  0.9142 -0.4424
  916MOL0     H26350   9.453   5.238   0.068 -1.5966  0.2087 -2.1112
  916MOL0     H26351   9.578   5.488  -0.052 -4.3870  0.2737  0.8416
  916MOL0     H26352   9.674   5.348   0.007 -1.3129 -3.6488  0.5209
  916MOL0     H26353   9.472   5.338  -0.221 -1.1107 -2.0605  0.8332
  916MOL0     H26354   9.566   5.193  -0.156  4.2206 -0.6062 -1.3451
  916MOL0     H26355   9.701   5.426  -0.300  2.9152 -0.2176 -3.2862
  916MOL0     H26356   9.783   5.303  -0.219  1.4350 -0.6702 -2.5800
  916MOL0     H26357   9.788   5.063  -0.337  1.4821 -2.4309 -2.0096
  916MOL0     H26358   9.663   4.856  -0.480  3.1474 -0.9507 -0.3474
  916MOL0     H26359   9.782   4.926  -0.593 -0.9073  0.5258 -1.1990
  916MOL0     H26360   9.556   4.794  -0.686  0.8498 -1.3322  2.2049
  916MOL0     H26361   9.492   4.955  -0.671  0.0264 -0.5994 -0.2786
  916MOL0     H26362   9.765   4.890  -0.818 -0.6706  0.1782 -1.0674
  916MOL0     H26363   9.623   4.890  -0.913  4.4738 -3.8326  0.2212
  916MOL0     H26364   9.675   5.116  -0.945  3.6428  0.6607  0.0848
  916MOL0     H26365   9.590   5.133  -0.794 -1.3054 -0.9007  0.6224
  916MOL0     H26366   9.904   5.265  -0.607  3.3442 -0.8883 -1.7769
  916MOL0     H26367   9.943   5.591  -0.525  1.7883  2.5654  1.1981
  916MOL0     H26368  10.102   5.563  -0.598  0.6089 -1.0808  0.3210
  916MOL0     H26369  10.023   5.440  -0.490 -0.6760 -2.5377 -3.0557
  916MOL0     H26370  10.256   5.719  -0.997 -1.4455 -0.1571  0.2926
  916MOL0     H26371  10.373   5.909  -1.092 -0.2982 -1.0724 -0.7250
  916MOL0     H26372  10.412   6.031  -1.246  0.3609  0.0160 -0.1499
  916MOL0     H26373  10.414   6.205  -1.276 -3.3606 -0.0779 -1.0479
  916MOL0     H26374  10.473   6.247  -1.039 -0.4936  2.0945 -2.0501
  916MOL0     H26375  10.505   6.075  -1.027  0.5902 -0.0178 -0.3793
  916MOL0     H26376  10.649   6.278  -1.206  0.4590  0.0617  0.0754
  916MOL0     H26377  10.654   6.105  -1.251  1.1158  0.5373 -0.2703
  916MOL0     H26378  10.720   6.198  -0.974 -2.9398  0.0310  0.3677
  916MOL0     H26379  10.843   6.182  -1.103 -1.1806 -0.2221  0.7587
  916MOL0     H26380  10.683   5.956  -0.974 -1.3285  0.5789 -1.8959
  916MOL0     H26381  10.764   5.936  -1.131 -3.7590 -3.6884  2.1233
  916MOL0     H26382  10.886   6.008  -0.873  1.9176 -0.5310  0.4116
  916MOL0     H26383  10.988   5.990  -1.009  3.3368 -0.8797  4.1829
  916MOL0     H26384  10.940   5.738  -1.011 -1.3671 -0.6628  1.0409
  916MOL0     H26385  10.812   5.766  -0.893  0.3787  0.1835  2.0892
  916MOL0     H26386  10.985   5.678  -0.774 -0.8315  0.4069  1.4629
  916MOL0     H26387  10.967   5.847  -0.719 -1.3941  0.8034 -0.0741
  916MOL0     H26388  10.034   6.131  -1.120  0.4782 -0.9543 -0.7961
  916MOL0     H26389   9.884   5.933  -1.038  0.4279  1.3213 -0.2612
  916MOL0     H26390   9.864   5.513  -1.023  1.6754  0.0324 -0.1922
  916MOL0     H26391   9.788   5.284  -1.021 -2.2386  2.2306 -0.5232
  916MOL0     H26392   9.208   5.407   0.777 -0.3123 -0.2140 -0.4114
  916MOL0     H26393   9.111   5.496   0.975 -0.9951  2.6392  1.9174
  916MOL0     H26394   9.000   5.688   1.273  1.0335  0.6835 -1.6494
  916MOL0     H26395   8.864   5.679   1.461 -3.2344 -1.7838 -0.8592
  916MOL0     H26396   8.674   6.047   1.603 -1.3392  1.6087  0.6230
  916MOL0     H26397   8.536   6.008   1.492  0.4730  1.3080  0.5243
  916MOL0     H26398   8.578   5.887   1.766 -0.6788 -0.4668  0.1571
  916MOL0     H26399   8.443   5.852   1.642 -0.1752  0.8092 -2.2024
  916MOL0     H26400   8.522   6.134   1.755 -1.4506  0.9723  2.5201
  916MOL0     H26401   8.373   6.099   1.703  1.3224  3.7609  1.5549
  916MOL0     H26402   8.382   6.109   1.951  1.1033 -0.8415  3.3988
  916MOL0     H26403   8.503   5.978   1.953  1.2149  2.6776 -0.1580
  916MOL0     H26404   8.112   5.799   1.861  1.6444 -0.9007 -2.9250
  916MOL0     H26405   8.696   6.062   1.365 -2.1168 -2.7419  0.6585
  916MOL0     H26406   8.756   6.180   1.183 -0.1371  0.9450 -0.3116
  916MOL0     H26407   8.914   6.146   1.117  0.1085  0.1099 -1.3337
  916MOL0     H26408   8.776   6.076   1.035  3.1971  0.6150 -1.1833
  917MOL0     O26409   4.630   0.830   5.134 -0.1041  0.1277  0.0209
  917MOL0     C26410   4.547   0.746   5.115 -0.2392  0.2037  0.8016
  917MOL0     O26411   4.580   0.629   5.043  0.0712 -0.4246 -0.1523
  917MOL0     C26412   4.702   0.608   4.982 -0.6772  0.5134 -0.9292
  917MOL0     C26413   4.832   0.655   5.023  0.7121  0.1523  0.4522
  917MOL0     C26414   4.937   0.618   4.943  0.1535 -0.5458 -0.4530
  917MOL0     C26415   4.914   0.535   4.824 -0.3085 -0.4453 -0.1188
  917MOL0     O26416   5.022   0.475   4.764  0.3570  0.0441 -0.2016
  917MOL0     C26417   5.124   0.567   4.723  1.3042  0.1500  0.3849
  917MOL0     C26418   5.205   0.503   4.607 -0.4296  0.7209  0.3043
  917MOL0     C26419   5.191   0.564   4.472  1.0951  0.5954 -0.3238
  917MOL0     C26420   5.061   0.512   4.393 -0.3313 -0.1826  0.0230
  917MOL0     C26421   5.017   0.584   4.260  0.9011  0.8567  0.7327
  917MOL0     C26422   4.980   0.734   4.283 -0.7233  0.1667  0.2899
  917MOL0     C26423   4.878   0.766   4.389  0.6993 -0.0529  0.9340
  917MOL0     C26424   4.732   0.736   4.348  0.0172  0.3895  0.1327
  917MOL0     N26425   4.674   0.862   4.285 -0.5418  0.5812  0.6327
  917MOL0     C26426   4.642   0.873   4.153 -0.0255  0.2437  0.2862
  917MOL0     C26427   4.587   0.994   4.144  0.4719  0.0440  0.2839
  917MOL0     C26428   4.519   1.047   4.025  0.3962  0.1106  0.5407
  917MOL0     C26429   4.615   1.079   3.901 -0.6655  0.0997 -0.2491
  917MOL0     C26430   4.534   1.113   3.778  0.0230 -1.0520  0.4018
  917MOL0     C26431   4.629   1.187   3.681  0.6486  0.1459 -0.0429
  917MOL0     O26432   4.766   1.144   3.688 -0.3018 -0.1719 -0.9758
  917MOL0     C26433   4.823   1.087   3.576  1.0419 -0.7786 -0.2267
  917MOL0     C26434   4.759   1.001   3.489 -0.5373  0.8527 -0.2844
  917MOL0     C26435   4.820   0.932   3.384  0.4399 -0.6941 -0.7856
  917MOL0     C26436   4.734   0.854   3.296  0.1639 -0.4829 -0.7041
  917MOL0     C26437   4.959   0.958   3.366 -0.7135  0.0172  0.4287
  917MOL0     C26438   5.047   0.890   3.256  0.4936  0.1342 -0.7030
  917MOL0     O26439   5.181   0.906   3.271 -0.4113  0.4463  0.2571
  917MOL0     C26440   5.267   0.870   3.176  0.2672 -0.6311  0.8227
  917MOL0     C26441   5.360   0.962   3.128 -0.7186 -0.2752 -0.1906
  917MOL0     C26442   5.463   0.928   3.045 -0.0087 -0.1352  0.2956
  917MOL0     C26443   5.483   0.800   3.006 -0.8645 -0.0641  0.1184
  917MOL0     O26444   5.586   0.755   2.916  0.1360 -1.0775 -1.4918
  917MOL0     C26445   5.717   0.793   2.946  0.4616 -0.8725  0.1955
  917MOL0     C26446   5.817   0.679   2.951  0.4480  0.9377 -0.2664
  917MOL0     C26447   5.860   0.646   2.809 -0.3786 -0.0659  0.0496
  917MOL0     C26448   5.915   0.499   2.807 -0.9814 -0.4971  0.0999
  917MOL0     C26449   5.829   0.380   2.747  0.1897 -0.2895 -0.7505
  917MOL0     C26450   5.710   0.348   2.830  0.8605  1.4036  0.0238
  917MOL0     C26451   5.749   0.278   2.962  0.4538 -0.4225 -0.2270
  917MOL0     C26452   5.645   0.294   3.065  0.8758 -1.0402 -0.0206
  917MOL0    Cl26453   5.471   0.252   3.001  0.3992 -0.1907  0.6106
  917MOL0     C26454   5.389   0.704   3.049  0.2355  0.7449 -0.1215
  917MOL0     C26455   5.277   0.743   3.125 -0.3040 -0.3586 -0.1670
  917MOL0     O26456   4.995   0.825   3.165  0.2665 -0.0084 -0.4797
  917MOL0     C26457   5.024   1.043   3.449  0.3044 -0.8775 -1.2357
  917MOL0     C26458   4.961   1.111   3.558  0.0708 -0.3281  0.0703
  917MOL0     N26459   4.585   1.056   4.271 -0.2401  0.0481  0.0289
  917MOL0     N26460   4.643   0.978   4.351  0.6231  0.7941  0.3849
  917MOL0     C26461   4.788   0.491   4.794  0.2334  0.1594  0.2300
  917MOL0     C26462   4.680   0.534   4.868 -0.5374  1.0738  0.0253
  917MOL0     C26463   4.412   0.774   5.151  0.4555 -0.2284 -0.5952
  917MOL0     C26464   4.306   0.712   5.077 -0.5094  1.0151 -0.3825
  917MOL0     C26465   4.173   0.723   5.110  2.0338 -0.4199  0.2701
  917MOL0     C26466   4.142   0.811   5.216 -0.1939 -0.2034  0.6980
  917MOL0     O26467   4.007   0.807   5.238 -0.0570 -0.4072 -0.8298
  917MOL0     C26468   3.953   0.919   5.310 -0.0734  0.4340  0.9454
  917MOL0     C26469   3.806   0.888   5.345 -0.2001  0.3743  0.3441
  917MOL0     C26470   3.794   0.766   5.442  0.5760 -0.8156  0.2750
  917MOL0     C26471   3.649   0.741   5.472 -0.5197 -1.0865  0.9047
  917MOL0     C26472   3.600   0.817   5.583  0.1729 -0.0555 -1.4490
  917MOL0     C26473   3.552   0.870   5.683 -0.1450  0.9037  0.7281
  917MOL0     C26474   4.238   0.881   5.290  0.2276  1.4292  0.3433
  917MOL0     C26475   4.378   0.868   5.252  0.0183 -0.2911  0.2326
  917MOL0     C26476   4.480   0.945   5.346  0.3108  0.4137 -0.1398
  917MOL0     H26477   4.830   0.717   5.112  0.6125  2.5054 -1.1101
  917MOL0     H26478   5.033   0.654   4.980 -1.0840  0.6481  1.8679
  917MOL0     H26479   5.184   0.581   4.813  0.5979 -1.2235  1.0959
  917MOL0     H26480   5.090   0.663   4.682 -3.5693 -1.4551  0.0149
  917MOL0     H26481   5.307   0.522   4.642  0.5512 -1.3586 -1.2048
  917MOL0     H26482   5.190   0.394   4.604  0.5694  0.5942 -0.7379
  917MOL0     H26483   5.167   0.667   4.498 -2.1574 -0.7838  3.0409
  917MOL0     H26484   5.282   0.559   4.411 -0.0878  3.9897 -2.6705
  917MOL0     H26485   5.080   0.407   4.373 -0.9019 -0.2539 -0.1604
  917MOL0     H26486   4.973   0.503   4.458 -1.3493 -1.2323 -1.4615
  917MOL0     H26487   4.928   0.540   4.216  3.5381 -1.6803 -2.5714
  917MOL0     H26488   5.099   0.576   4.188 -0.9869 -1.8465 -1.2775
  917MOL0     H26489   5.070   0.787   4.314  1.1829 -1.6620 -1.7526
  917MOL0     H26490   4.946   0.765   4.184 -2.2381 -2.8778 -0.2575
  917MOL0     H26491   4.894   0.872   4.407  1.5693  0.1116 -0.6556
  917MOL0     H26492   4.909   0.719   4.484  0.3472  0.4440  1.2966
  917MOL0     H26493   4.729   0.655   4.275  0.8058 -0.1536  0.6908
  917MOL0     H26494   4.683   0.695   4.437  0.3473 -3.3011 -1.2267
  917MOL0     H26495   4.660   0.815   4.063 -0.6168  1.8005 -0.9053
  917MOL0     H26496   4.457   1.133   4.051 -4.3992 -2.1674 -2.0639
  917MOL0     H26497   4.441   0.974   3.999 -1.4463  2.7667 -1.9596
  917MOL0     H26498   4.675   1.166   3.930 -2.0964  1.2106 -0.5021
  917MOL0     H26499   4.678   0.992   3.880  0.3187  0.0185  2.6291
  917MOL0     H26500   4.487   1.033   3.721  0.5024  0.2666 -1.9660
  917MOL0     H26501   4.451   1.179   3.802 -0.0383 -1.1887  0.5666
  917MOL0     H26502   4.587   1.189   3.580  1.0674  4.4352 -0.3139
  917MOL0     H26503   4.636   1.294   3.705 -2.3547  0.6604 -1.0641
  917MOL0     H26504   4.654   0.989   3.511 -0.7928  3.3420  0.1226
  917MOL0     H26505   4.757   0.751   3.267  0.1313 -0.9350  0.8157
  917MOL0     H26506   4.700   0.914   3.211 -0.3028 -0.6300 -0.6198
  917MOL0     H26507   4.644   0.843   3.357  1.8354  1.5776  2.3864
  917MOL0     H26508   5.365   1.064   3.166  1.0780  0.6238 -2.5734
  917MOL0     H26509   5.530   1.003   3.005  0.1838 -0.4011  0.1139
  917MOL0     H26510   5.745   0.874   2.878 -2.0033 -0.9619 -1.0192
  917MOL0     H26511   5.705   0.832   3.048 -0.8443 -2.3597  0.6388
  917MOL0     H26512   5.886   0.716   3.027  1.4565  0.5582 -0.9825
  917MOL0     H26513   5.765   0.587   2.979  0.8577  1.6603  3.3485
  917MOL0     H26514   5.936   0.713   2.767 -0.4935  0.4467  0.6575
  917MOL0     H26515   5.769   0.651   2.748  0.6459  0.2352 -1.5335
  917MOL0     H26516   5.960   0.473   2.903  0.2397 -0.4551 -0.4393
  917MOL0     H26517   6.000   0.503   2.739 -1.2200 -3.3095 -0.4989
  917MOL0     H26518   5.792   0.412   2.650  2.0897  1.1686 -1.0454
  917MOL0     H26519   5.898   0.297   2.727  0.2055 -0.9455  1.6180
  917MOL0     H26520   5.635   0.291   2.774  1.5096 -1.3465  1.7984
  917MOL0     H26521   5.662   0.442   2.858  1.4013  1.4402  0.8455
  917MOL0     H26522   5.846   0.307   3.003  0.4294  0.0406 -0.4988
  917MOL0     H26523   5.760   0.173   2.930 -1.2690  0.0956 -2.8416
  917MOL0     H26524   5.650   0.398   3.096  2.1397 -1.1326  0.1773
  917MOL0     H26525   5.654   0.234   3.157 -2.8021  0.2701  1.3546
  917MOL0     H26526   5.391   0.603   3.009  0.9282  0.1707  1.3092
  917MOL0     H26527   5.207   0.666   3.158  0.4945 -1.7837 -1.6530
  917MOL0     H26528   5.129   1.067   3.434 -0.1846  0.5965 -2.5140
  917MOL0     H26529   5.025   1.182   3.609 -0.9553  2.1677 -1.9023
  917MOL0     H26530   4.772   0.418   4.715  1.0762  0.4099 -0.1904
  917MOL0     H26531   4.588   0.482   4.843  1.0130 -0.5739 -2.8059
  917MOL0     H26532   4.331   0.639   5.000  0.0852  0.3178  0.4473
  917MOL0     H26533   4.096   0.662   5.064 -2.0367  1.2600  4.1190
  917MOL0     H26534   4.008   0.945   5.400 -1.0665  4.0171  0.6748
  917MOL0     H26535   3.963   1.008   5.248 -0.3615 -0.2116 -0.0707
  917MOL0     H26536   3.742   0.880   5.257 -0.1115 -0.2876  0.3405
  917MOL0     H26537   3.776   0.984   5.390  0.6724 -0.2445  2.3501
  917MOL0     H26538   3.844   0.676   5.407  0.0976 -1.1295  0.3882
  917MOL0     H26539   3.842   0.794   5.537 -0.0726  3.7210 -0.4953
  917MOL0     H26540   3.633   0.635   5.492 -0.4690 -1.1890  0.4146
  917MOL0     H26541   3.593   0.779   5.386  1.1783 -0.1473  0.1740
  917MOL0     H26542   3.519   0.935   5.762 -1.2557 -0.6475  1.5823
  917MOL0     H26543   4.210   0.956   5.363  0.7552  3.5874 -1.5395
  917MOL0     H26544   4.546   1.018   5.299 -1.2362  2.1410  0.2730
  917MOL0     H26545   4.427   0.999   5.425  1.3774  1.4265 -0.0860
  917MOL0     H26546   4.540   0.869   5.397 -0.4886  0.3998  0.8149
  918MOL0     O26547   2.198   4.699   2.867  0.8142 -0.3986 -0.6149
  918MOL0     C26548   2.086   4.692   2.922  0.6823  0.3972 -0.6021
  918MOL0     O26549   1.993   4.602   2.899  0.3867 -0.7322 -0.4770
  918MOL0     C26550   2.016   4.510   2.794  0.0719 -0.2949 -0.3363
  918MOL0     C26551   2.118   4.413   2.801 -0.7638 -0.5160  0.7186
  918MOL0     C26552   2.121   4.307   2.710  0.1672  0.2653  0.7225
  918MOL0     C26553   2.033   4.306   2.603  0.0875 -0.6318  1.1858
  918MOL0     O26554   2.016   4.195   2.524  0.9425 -0.9638 -0.1872
  918MOL0     C26555   2.101   4.078   2.531 -0.3167  0.0974 -0.3625
  918MOL0     C26556   2.050   3.970   2.424 -0.6690 -0.6825  0.4778
  918MOL0     C26557   1.922   3.906   2.479  1.0095  0.3687 -0.7394
  918MOL0     C26558   1.845   3.826   2.372 -0.7850  0.1677  0.0167
  918MOL0     C26559   1.851   3.675   2.381  0.7917  0.5248 -0.3311
  918MOL0     C26560   1.773   3.615   2.502  0.8536  0.0649  0.4107
  918MOL0     C26561   1.770   3.465   2.500  0.0938 -0.1830 -0.0169
  918MOL0     C26562   1.705   3.396   2.621  0.5508  0.6415  0.1253
  918MOL0     N26563   1.668   3.252   2.580 -0.5181 -0.1660 -0.3718
  918MOL0     C26564   1.758   3.176   2.513 -0.3933  0.2239  0.4767
  918MOL0     C26565   1.685   3.059   2.492  0.1449  0.5567  0.3730
  918MOL0     C26566   1.737   2.933   2.438  0.2912  0.3166  0.2329
  918MOL0     C26567   1.645   2.886   2.320  0.3935  0.7247  0.0903
  918MOL0     C26568   1.698   2.750   2.276  0.0248 -1.2742  0.0008
  918MOL0     C26569   1.587   2.669   2.222  0.1420 -0.1001 -0.2355
  918MOL0     O26570   1.515   2.638   2.342  0.3625 -0.5152  0.2156
  918MOL0     C26571   1.382   2.614   2.325 -0.3631 -0.2013  0.8106
  918MOL0     C26572   1.327   2.551   2.204  0.2450  0.2133  0.2308
  918MOL0     C26573   1.186   2.527   2.192 -0.2820  0.2975  0.0461
  918MOL0     C26574   1.152   2.446   2.063 -1.2336 -0.5554 -0.0381
  918MOL0     C26575   1.092   2.578   2.289 -0.2655 -0.5109  1.1022
  918MOL0     C26576   0.949   2.547   2.280  0.1325  0.8642  0.0440
  918MOL0     O26577   0.883   2.575   2.392 -0.0117 -0.6606  0.3176
  918MOL0     C26578   0.776   2.495   2.404 -0.0432 -0.8530  0.5587
  918MOL0     C26579   0.653   2.511   2.346  0.1501 -0.1265 -0.4281
  918MOL0     C26580   0.544   2.427   2.383 -1.2161  0.8021  0.4175
  918MOL0     C26581   0.557   2.325   2.474 -0.2225  0.5262  0.1792
  918MOL0     O26582   0.450   2.244   2.515 -0.0581 -0.5415 -0.7742
  918MOL0     C26583   0.396   2.307   2.639  0.0844 -0.0586 -0.2748
  918MOL0     C26584   0.252   2.269   2.668 -0.4969 -0.4047 -0.0561
  918MOL0     C26585   0.166   2.328   2.553  0.3470  0.2861 -0.3398
  918MOL0     C26586   0.016   2.302   2.593 -0.5896  0.7197 -0.4728
  918MOL0     C26587  -0.074   2.365   2.482 -0.4777 -0.4741  0.5753
  918MOL0     C26588  -0.150   2.256   2.403  0.2015 -0.3842  0.1912
  918MOL0     C26589  -0.220   2.298   2.267  0.5070  0.2452  1.1108
  918MOL0     C26590  -0.302   2.180   2.188  0.8960  0.3700  0.0960
  918MOL0    Cl26591  -0.406   2.231   2.050  0.2498 -0.4434 -0.3826
  918MOL0     C26592   0.684   2.307   2.524 -0.0177 -0.5517 -0.4167
  918MOL0     C26593   0.793   2.383   2.486  0.1313 -0.8305  0.2060
  918MOL0     O26594   0.902   2.487   2.181  0.8200 -0.1170 -0.8808
  918MOL0     C26595   1.154   2.650   2.396 -0.4518  0.4921  0.9313
  918MOL0     C26596   1.295   2.671   2.410  0.4303  0.8940 -0.4327
  918MOL0     N26597   1.551   3.071   2.551 -1.1528 -1.2497  0.0949
  918MOL0     N26598   1.551   3.187   2.608 -0.0054  0.0729 -0.1605
  918MOL0     C26599   1.934   4.404   2.586 -0.7854 -0.5384 -0.5882
  918MOL0     C26600   1.929   4.511   2.678  0.4119  0.1788 -0.5828
  918MOL0     C26601   2.045   4.793   3.031  0.0960 -0.6458  0.5223
  918MOL0     C26602   1.914   4.805   3.064 -0.2805 -0.6212 -0.5254
  918MOL0     C26603   1.877   4.900   3.159  0.2048 -0.0901 -1.1984
  918MOL0     C26604   1.966   4.986   3.225  0.4811  1.4337  0.4283
  918MOL0     O26605   1.913   5.077   3.313 -0.1753  0.2919 -0.3657
  918MOL0     C26606   1.996   5.169   3.385  0.5328 -0.3578 -0.2664
  918MOL0     C26607   1.925   5.256   3.495 -0.2909  0.9892 -0.1324
  918MOL0     C26608   1.786   5.213   3.545 -0.1742 -0.6128  1.0320
  918MOL0     C26609   1.746   5.296   3.673 -0.5907  1.1595 -0.1677
  918MOL0     C26610   1.643   5.228   3.762 -0.8463  0.2916  0.3446
  918MOL0     C26611   1.556   5.172   3.834 -0.6225  0.1609  0.2223
  918MOL0     C26612   2.094   4.982   3.186  0.5608 -0.5417 -0.1817
  918MOL0     C26613   2.136   4.886   3.091 -0.6310 -0.1933 -0.6999
  918MOL0     C26614   2.283   4.878   3.052  1.4416  0.6296 -0.6439
  918MOL0     H26615   2.177   4.414   2.893  1.2956  1.0361 -0.5226
  918MOL0     H26616   2.203   4.237   2.721 -0.8596 -0.6166  3.8318
  918MOL0     H26617   2.103   4.034   2.631  0.0538 -0.2253 -0.5087
  918MOL0     H26618   2.202   4.115   2.514  1.5294 -2.6217  3.2235
  918MOL0     H26619   2.033   4.024   2.330 -2.5165  2.1018  2.2455
  918MOL0     H26620   2.121   3.887   2.413 -2.9987 -2.4924 -2.6802
  918MOL0     H26621   1.952   3.836   2.557  3.2459  3.8898  1.9103
  918MOL0     H26622   1.861   3.982   2.530 -1.4804 -1.0316 -1.4432
  918MOL0     H26623   1.739   3.854   2.364 -1.5281 -2.6970 -1.5604
  918MOL0     H26624   1.886   3.851   2.274 -0.8483  1.0140  0.2015
  918MOL0     H26625   1.956   3.648   2.399  2.0870  3.3583 -2.7223
  918MOL0     H26626   1.813   3.639   2.285  0.9708 -0.9002  0.0997
  918MOL0     H26627   1.821   3.656   2.591  0.4943  1.5755 -0.0569
  918MOL0     H26628   1.665   3.631   2.508  0.7807 -0.9351  2.2980
  918MOL0     H26629   1.875   3.432   2.498 -0.0695 -0.6818 -1.1128
  918MOL0     H26630   1.725   3.437   2.405 -1.9112 -2.7716  1.5486
  918MOL0     H26631   1.776   3.381   2.703 -0.0319 -1.7665  0.2684
  918MOL0     H26632   1.610   3.440   2.652 -0.7725 -0.5449 -2.0625
  918MOL0     H26633   1.851   3.218   2.476 -0.8012  0.0618 -0.8076
  918MOL0     H26634   1.731   2.855   2.513 -2.6074  1.1076  0.9492
  918MOL0     H26635   1.837   2.949   2.395  0.4454  1.0078  0.8289
  918MOL0     H26636   1.540   2.877   2.350  0.2569  1.5100 -0.1223
  918MOL0     H26637   1.655   2.964   2.244  1.0057  0.7827  0.2256
  918MOL0     H26638   1.764   2.780   2.194 -2.3442  0.0322 -1.5529
  918MOL0     H26639   1.742   2.695   2.360 -0.9690  1.3114  2.3694
  918MOL0     H26640   1.521   2.715   2.148 -0.9366 -0.7047  0.3094
  918MOL0     H26641   1.640   2.586   2.175 -1.5468  0.3793 -3.2156
  918MOL0     H26642   1.393   2.498   2.135  1.3920 -2.0142  2.8294
  918MOL0     H26643   1.250   2.431   2.016 -0.9748 -1.5737  0.7932
  918MOL0     H26644   1.091   2.515   2.003 -0.5254  0.6321  0.5606
  918MOL0     H26645   1.107   2.351   2.091 -1.4607 -1.2303 -2.4532
  918MOL0     H26646   0.648   2.582   2.265 -0.5858  0.3041 -0.0113
  918MOL0     H26647   0.446   2.438   2.337 -0.6291  0.3919 -0.9940
  918MOL0     H26648   0.448   2.260   2.723 -0.3930  1.6835  1.0716
  918MOL0     H26649   0.394   2.416   2.636 -1.1380 -0.0747 -3.0345
  918MOL0     H26650   0.257   2.160   2.676  2.0728 -0.1620  4.6907
  918MOL0     H26651   0.212   2.312   2.760 -0.5689  2.8599 -1.4667
  918MOL0     H26652   0.200   2.295   2.454 -1.6750 -1.4335 -0.5135
  918MOL0     H26653   0.183   2.436   2.544 -1.9658  0.9071  1.6974
  918MOL0     H26654  -0.006   2.362   2.682 -2.1994 -2.2280  1.2640
  918MOL0     H26655  -0.006   2.195   2.594 -1.8377  0.9120 -2.1853
  918MOL0     H26656  -0.147   2.423   2.539  1.1423  0.5968  1.6300
  918MOL0     H26657  -0.021   2.433   2.415 -2.3957 -1.7524 -2.4818
  918MOL0     H26658  -0.241   2.220   2.451 -0.9441  0.3657 -1.3117
  918MOL0     H26659  -0.074   2.179   2.388  1.7420  1.1185 -0.1117
  918MOL0     H26660  -0.144   2.342   2.202  0.4384  3.4089  2.9703
  918MOL0     H26661  -0.282   2.385   2.291 -0.7383 -0.4404  0.4493
  918MOL0     H26662  -0.371   2.138   2.261  0.0873  0.9839 -0.3044
  918MOL0     H26663  -0.231   2.099   2.169  0.5059  0.0656 -0.0802
  918MOL0     H26664   0.706   2.241   2.607  0.2778  3.0820  2.6718
  918MOL0     H26665   0.880   2.355   2.545  0.5867  1.8432  0.9420
  918MOL0     H26666   1.083   2.690   2.468  0.5610 -1.0211  2.8862
  918MOL0     H26667   1.343   2.727   2.489  2.0170 -0.3822 -0.4571
  918MOL0     H26668   1.861   4.398   2.506 -1.9867 -1.4075  0.5498
  918MOL0     H26669   1.849   4.584   2.671 -1.8275 -1.8068  1.9068
  918MOL0     H26670   1.834   4.747   3.019  0.5429 -1.1093 -1.4068
  918MOL0     H26671   1.769   4.900   3.172  0.4915 -2.0248  2.1119
  918MOL0     H26672   2.078   5.114   3.431  0.6607 -0.1209 -0.2088
  918MOL0     H26673   2.034   5.244   3.315 -1.4986  0.7234 -0.2941
  918MOL0     H26674   1.908   5.352   3.444  0.0522 -0.2217 -2.6931
  918MOL0     H26675   1.989   5.271   3.582 -1.2650  1.4255  0.5248
  918MOL0     H26676   1.720   5.221   3.458  3.9542  1.3198 -2.2939
  918MOL0     H26677   1.783   5.107   3.571  4.0579 -2.5614 -4.3057
  918MOL0     H26678   1.717   5.399   3.652 -1.2636  1.4723  2.0308
  918MOL0     H26679   1.830   5.305   3.743 -0.5908  0.8092 -0.1194
  918MOL0     H26680   1.475   5.144   3.898  0.2082 -0.0478  1.2269
  918MOL0     H26681   2.165   5.052   3.229  0.2535  2.6815 -4.2697
  918MOL0     H26682   2.314   4.773   3.059  1.1455  0.4904 -1.3096
  918MOL0     H26683   2.291   4.927   2.954  0.8498  2.1101  0.0193
  918MOL0     H26684   2.359   4.918   3.120  2.8662 -1.0336 -1.1716
  919MOL0     O26685  10.530   0.370   8.813 -0.2165 -0.0611 -0.9103
  919MOL0     C26686  10.644   0.366   8.775  0.0418 -0.4181  0.2796
  919MOL0     O26687  10.740   0.464   8.806 -0.4074 -0.8419  0.3597
  919MOL0     C26688  10.680   0.579   8.850 -0.1754  0.3035  0.2451
  919MOL0     C26689  10.686   0.590   8.992 -0.8239  0.0029  0.7598
  919MOL0     C26690  10.630   0.699   9.049 -0.0096 -0.7284 -1.0197
  919MOL0     C26691  10.563   0.795   8.969  0.2224  0.9511 -0.4894
  919MOL0     O26692  10.506   0.897   9.045  0.8410 -0.4640 -0.4638
  919MOL0     C26693  10.412   0.989   8.985 -0.6448 -0.2767 -0.0133
  919MOL0     C26694  10.373   1.105   9.076  0.0664  0.9386  0.1485
  919MOL0     C26695  10.229   1.083   9.136 -1.2741  0.7956  0.7513
  919MOL0     C26696  10.230   0.975   9.241 -0.1319  0.4382 -0.2377
  919MOL0     C26697  10.117   0.876   9.237  0.3804  1.0049  1.2686
  919MOL0     C26698  10.128   0.781   9.357  0.8645  0.0225 -0.5333
  919MOL0     C26699  10.022   0.665   9.372  0.6585  1.2858 -0.0486
  919MOL0     C26700   9.914   0.697   9.483  0.1486 -0.4329 -0.6599
  919MOL0     N26701   9.787   0.766   9.455 -0.3632 -0.5859  0.6711
  919MOL0     C26702   9.671   0.773   9.532  0.3217 -0.3157  1.0772
  919MOL0     C26703   9.579   0.842   9.450 -0.2594 -0.2141 -0.7702
  919MOL0     C26704   9.442   0.853   9.506 -0.2836 -0.2702 -0.5224
  919MOL0     C26705   9.333   0.747   9.475  0.2428  0.2252  1.4198
  919MOL0     C26706   9.319   0.728   9.325  0.1134 -0.6004 -0.7277
  919MOL0     C26707   9.216   0.626   9.272  1.7220  0.3680  0.2075
  919MOL0     O26708   9.253   0.497   9.312  0.7878 -0.3545 -0.2499
  919MOL0     C26709   9.182   0.441   9.412  0.7456 -1.4939 -0.1935
  919MOL0     C26710   9.247   0.388   9.521 -0.6946 -0.1749  0.8624
  919MOL0     C26711   9.187   0.329   9.629 -0.4425 -0.2653 -0.1760
  919MOL0     C26712   9.279   0.275   9.740  0.6182 -0.3417  1.2688
  919MOL0     C26713   9.046   0.319   9.631  0.3280  0.0676 -0.0341
  919MOL0     C26714   8.974   0.256   9.738  0.1973  0.8041 -0.0775
  919MOL0     O26715   8.854   0.209   9.703 -1.0025 -0.1426  0.4522
  919MOL0     C26716   8.775   0.146   9.793 -0.0437  0.1953  0.2980
  919MOL0     C26717   8.643   0.200   9.819 -0.6789 -0.3128 -0.1822
  919MOL0     C26718   8.571   0.133   9.915  0.4890 -0.8694 -0.8057
  919MOL0     C26719   8.602   0.018   9.983  0.2265  0.4645 -0.5399
  919MOL0     O26720   8.516  -0.039  10.075  0.0050 -0.0116 -0.1948
  919MOL0     C26721   8.401   0.038  10.125 -0.3569  0.0775  0.3117
  919MOL0     C26722   8.391   0.006  10.274 -0.5128  0.3600 -0.0038
  919MOL0     C26723   8.271   0.072  10.347 -0.9283 -0.0649 -0.2770
  919MOL0     C26724   8.302   0.100  10.498  0.4143  0.1555 -0.2835
  919MOL0     C26725   8.177   0.153  10.578 -0.1683 -0.2435 -1.0617
  919MOL0     C26726   8.215   0.174  10.729  0.8087 -0.3959 -1.7100
  919MOL0     C26727   8.085   0.184  10.816 -0.8207 -0.2991  0.5813
  919MOL0     C26728   8.109   0.208  10.961 -0.4798  0.4913  0.3027
  919MOL0    Cl26729   8.151   0.058  11.047  0.3594  0.1568 -0.2062
  919MOL0     C26730   8.729  -0.048   9.947 -0.2867 -0.6102 -0.5308
  919MOL0     C26731   8.816   0.020   9.857 -0.2070 -0.4231  0.2345
  919MOL0     O26732   9.016   0.263   9.856 -0.9904  0.1259 -0.2783
  919MOL0     C26733   8.974   0.368   9.510  0.6431 -0.0656 -1.2764
  919MOL0     C26734   9.047   0.421   9.405 -0.5570 -0.6033  0.1102
  919MOL0     N26735   9.633   0.871   9.326 -0.5194  1.0125 -0.6353
  919MOL0     N26736   9.761   0.829   9.336 -0.1003 -0.8187  0.3026
  919MOL0     C26737  10.543   0.774   8.837 -0.6945  0.5150  0.0540
  919MOL0     C26738  10.611   0.669   8.768 -0.8288 -0.7403  0.6796
  919MOL0     C26739  10.692   0.259   8.689  0.5962  0.2969 -0.2442
  919MOL0     C26740  10.796   0.275   8.593  0.2632  0.7930  0.6250
  919MOL0     C26741  10.867   0.176   8.531 -0.2494  0.1681 -0.8934
  919MOL0     C26742  10.829   0.043   8.552  0.8446  0.5696  0.6494
  919MOL0     O26743  10.888  -0.053   8.474 -0.1410 -0.4368  0.4362
  919MOL0     C26744  10.992  -0.127   8.545  0.3305  0.3006 -0.1617
  919MOL0     C26745  11.070  -0.219   8.447 -0.1501 -0.1620 -0.4500
  919MOL0     C26746  10.977  -0.267   8.331 -0.0112  0.4923  0.0253
  919MOL0     C26747  11.035  -0.400   8.280  0.0346  0.0755 -0.9630
  919MOL0     C26748  10.988  -0.452   8.147 -0.1750  0.0470  0.2772
  919MOL0     C26749  10.968  -0.488   8.029  0.9252  0.6643 -0.2218
  919MOL0     C26750  10.735   0.016   8.651 -0.5367  0.6122 -0.0520
  919MOL0     C26751  10.664   0.113   8.724 -0.5744  0.1679  0.3095
  919MOL0     C26752  10.563   0.071   8.825 -0.6206 -0.8832  0.2928
  919MOL0     H26753  10.738   0.510   9.044  3.5207  2.7214  1.1495
  919MOL0     H26754  10.626   0.703   9.158  2.5007  1.3211 -0.9148
  919MOL0     H26755  10.330   0.938   8.932  1.0521  0.4748 -3.7072
  919MOL0     H26756  10.460   1.034   8.898  0.5972 -3.8883 -1.3773
  919MOL0     H26757  10.440   1.114   9.162 -0.2969 -2.5378  0.9251
  919MOL0     H26758  10.371   1.196   9.015 -2.1855  1.6643  1.2105
  919MOL0     H26759  10.185   1.172   9.181 -0.3600  0.4443  2.4210
  919MOL0     H26760  10.153   1.055   9.061 -3.4192  0.6008  2.8664
  919MOL0     H26761  10.326   0.923   9.234 -0.2981  0.3137 -2.7010
  919MOL0     H26762  10.223   1.018   9.341 -0.7324 -1.7026  0.7120
  919MOL0     H26763  10.133   0.816   9.147  0.4511  0.4945  1.6206
  919MOL0     H26764  10.015   0.914   9.235  0.6164  1.8130  3.0635
  919MOL0     H26765  10.226   0.733   9.347  1.7105  1.4570  0.4219
  919MOL0     H26766  10.135   0.844   9.447  0.2274 -1.3296  0.4955
  919MOL0     H26767  10.071   0.569   9.392  2.9653  1.9217 -2.1174
  919MOL0     H26768   9.969   0.637   9.280 -1.2537 -2.8470  2.0015
  919MOL0     H26769   9.888   0.600   9.526  3.3565 -0.5625  1.3757
  919MOL0     H26770   9.966   0.758   9.558 -3.2701  1.6387  0.2132
  919MOL0     H26771   9.647   0.737   9.631 -0.6106 -0.5222  0.7876
  919MOL0     H26772   9.421   0.957   9.481 -0.0516  0.1917  1.1117
  919MOL0     H26773   9.455   0.860   9.615  0.6063 -1.5548 -0.5122
  919MOL0     H26774   9.353   0.646   9.514 -0.4718 -1.3458 -1.9243
  919MOL0     H26775   9.249   0.802   9.517  0.3264  1.6194 -0.1510
  919MOL0     H26776   9.317   0.824   9.272  1.9391  0.4472  0.9360
  919MOL0     H26777   9.412   0.685   9.288  1.2833 -0.0186  1.3877
  919MOL0     H26778   9.111   0.645   9.298  0.8366 -0.2007 -2.6151
  919MOL0     H26779   9.211   0.638   9.164  0.0887  2.9338  0.4890
  919MOL0     H26780   9.354   0.398   9.502 -0.9392 -1.5794 -1.8317
  919MOL0     H26781   9.379   0.263   9.699  0.6026 -0.3939  1.2458
  919MOL0     H26782   9.247   0.171   9.755 -1.2114 -0.3185 -1.6329
  919MOL0     H26783   9.273   0.327   9.836 -0.7474  2.5496 -0.2332
  919MOL0     H26784   8.622   0.289   9.761  2.8835  1.1863  0.5595
  919MOL0     H26785   8.471   0.174   9.923  0.9771  0.4919 -1.3591
  919MOL0     H26786   8.415   0.146  10.117  0.8997 -0.1262 -0.7601
  919MOL0     H26787   8.318  -0.002  10.066  0.0160  0.0840 -0.2277
  919MOL0     H26788   8.372  -0.101  10.283 -1.9424  0.5955 -0.0099
  919MOL0     H26789   8.483   0.039  10.323  1.8170 -0.1945 -3.6788
  919MOL0     H26790   8.189  -0.000  10.345  0.9128 -2.3302  0.5438
  919MOL0     H26791   8.245   0.165  10.296  1.1442  2.6115  3.1647
  919MOL0     H26792   8.381   0.175  10.507 -0.3419  0.8032  1.2560
  919MOL0     H26793   8.334   0.001  10.532 -1.7939 -0.2835  0.7167
  919MOL0     H26794   8.152   0.253  10.540 -2.2697  0.5432  2.0244
  919MOL0     H26795   8.095   0.082  10.570 -1.3498  0.8246  0.8969
  919MOL0     H26796   8.280   0.261  10.746 -1.0485  0.6444  0.7769
  919MOL0     H26797   8.263   0.083  10.764 -2.3304 -0.8934  1.9641
  919MOL0     H26798   8.019   0.100  10.794 -2.4556  0.8263  0.9597
  919MOL0     H26799   8.040   0.274  10.773  2.0673  2.2619  2.5357
  919MOL0     H26800   8.017   0.254  10.998 -1.3536 -1.3102  0.4898
  919MOL0     H26801   8.189   0.282  10.969 -0.4323  0.8481 -2.4302
  919MOL0     H26802   8.764  -0.143   9.985 -0.7613  0.0987  1.8553
  919MOL0     H26803   8.911  -0.030   9.843 -0.1264 -0.2764  0.2492
  919MOL0     H26804   8.865   0.366   9.507  0.5711  0.6126  0.1722
  919MOL0     H26805   8.996   0.452   9.314 -0.2244  1.7965  0.6667
  919MOL0     H26806  10.472   0.831   8.777 -1.1901  0.0015  0.1410
  919MOL0     H26807  10.607   0.635   8.665 -2.9814 -0.5308  0.6544
  919MOL0     H26808  10.846   0.370   8.573  3.2141 -0.5390  1.0642
  919MOL0     H26809  10.947   0.192   8.459 -2.2375  3.1270 -2.6689
  919MOL0     H26810  11.065  -0.062   8.595  0.6808 -0.9378  1.0019
  919MOL0     H26811  10.951  -0.199   8.616  3.3292 -2.7189 -1.2514
  919MOL0     H26812  11.106  -0.293   8.519  0.3332  0.5126  0.0099
  919MOL0     H26813  11.161  -0.168   8.412 -0.2114  1.4359  1.5674
  919MOL0     H26814  10.872  -0.273   8.363  0.5588  2.6011  2.6259
  919MOL0     H26815  10.981  -0.204   8.243  2.4018  0.0452 -0.2581
  919MOL0     H26816  11.008  -0.471   8.359 -2.1706  2.1959  0.3133
  919MOL0     H26817  11.142  -0.403   8.298 -0.0288  1.0658 -0.3388
  919MOL0     H26818  10.948  -0.505   7.925  0.8802  0.8866 -0.2480
  919MOL0     H26819  10.716  -0.091   8.650 -0.8243  0.6562 -1.3772
  919MOL0     H26820  10.463   0.071   8.780 -0.2342  0.3591 -0.6195
  919MOL0     H26821  10.578  -0.032   8.861 -0.6130 -0.9868 -0.0093
  919MOL0     H26822  10.559   0.150   8.901  0.4645  0.9868 -1.5148
  920MOL0     O26823   7.063  11.085   2.393 -0.1784 -0.4315  0.7844
  920MOL0     C26824   7.164  11.071   2.458 -0.1813 -0.3209  0.4194
  920MOL0     O26825   7.230  11.168   2.519 -0.4882 -1.3920 -0.1471
  920MOL0     C26826   7.187  11.297   2.486 -0.5108  0.5958  0.4041
  920MOL0     C26827   7.283  11.376   2.419  0.1163 -0.0591  0.2331
  920MOL0     C26828   7.251  11.508   2.393  0.2783  0.0324  0.2650
  920MOL0     C26829   7.132  11.565   2.433  0.1855  0.7162  0.6916
  920MOL0     O26830   7.111  11.698   2.435  0.1567 -0.1085  0.6367
  920MOL0     C26831   6.979  11.745   2.400 -1.0758  0.5310 -1.1963
  920MOL0     C26832   6.983  11.891   2.353  0.4784  0.4168  0.4988
  920MOL0     C26833   7.042  11.895   2.205  0.1482 -0.3228 -0.1351
  920MOL0     C26834   7.195  11.913   2.196  0.9467 -0.7075  0.5228
  920MOL0     C26835   7.241  11.906   2.040  0.5796  0.5443 -0.0665
  920MOL0     C26836   7.390  11.927   2.027 -0.3534 -0.8104  0.5481
  920MOL0     C26837   7.469  11.795   2.024 -0.7909 -0.5265  0.0819
  920MOL0     C26838   7.499  11.744   1.878  0.0144 -0.9277  0.0831
  920MOL0     N26839   7.614  11.822   1.835 -0.5799 -0.1021 -0.0378
  920MOL0     C26840   7.741  11.806   1.884  0.1897 -0.3175 -1.4952
  920MOL0     C26841   7.828  11.871   1.812  0.2793 -0.3961 -0.0085
  920MOL0     C26842   7.967  11.904   1.824  0.1055  0.1661 -0.2631
  920MOL0     C26843   7.985  12.023   1.926 -0.3256 -0.5210 -0.6013
  920MOL0     C26844   7.912  12.155   1.890  0.3383 -0.1031  0.6157
  920MOL0     C26845   7.967  12.200   1.761 -0.2393  0.1859  0.1847
  920MOL0     O26846   7.946  12.336   1.739  0.1601 -0.0458 -1.0615
  920MOL0     C26847   8.013  12.374   1.622 -0.7882 -0.1688 -0.3127
  920MOL0     C26848   7.963  12.335   1.497 -0.5766  0.2189 -0.4869
  920MOL0     C26849   8.017  12.388   1.378 -0.3145  0.0658  1.1219
  920MOL0     C26850   7.936  12.347   1.257 -0.7424 -0.0914 -0.6456
  920MOL0     C26851   8.129  12.468   1.375 -0.4765 -0.2721  0.8184
  920MOL0     C26852   8.202  12.504   1.248 -0.3814  0.0217  0.5815
  920MOL0     O26853   8.335  12.525   1.267  0.0276 -0.5763  0.3764
  920MOL0     C26854   8.424  12.516   1.160 -0.5321  0.6191 -0.5723
  920MOL0     C26855   8.415  12.431   1.053 -0.1240 -0.1682 -0.6129
  920MOL0     C26856   8.501  12.444   0.938  0.6980 -0.2772  0.6169
  920MOL0     C26857   8.599  12.537   0.945 -0.1708 -0.0230  0.0331
  920MOL0     O26858   8.677  12.526   0.837  0.3902  0.3871 -0.4467
  920MOL0     C26859   8.762  12.637   0.795  0.1760 -0.4674  0.6890
  920MOL0     C26860   8.851  12.596   0.686  0.7799 -0.4864 -0.0668
  920MOL0     C26861   8.952  12.486   0.716 -0.0341  0.4317  0.4831
  920MOL0     C26862   9.081  12.501   0.641 -0.1312  1.1467 -0.2778
  920MOL0     C26863   9.177  12.384   0.657 -0.0208  0.7732 -0.4657
  920MOL0     C26864   9.212  12.338   0.806  0.3812  0.0349 -0.2526
  920MOL0     C26865   9.359  12.277   0.816 -0.0412 -0.1990  0.2090
  920MOL0     C26866   9.405  12.284   0.969  0.0628 -0.1229 -0.4201
  920MOL0    Cl26867   9.441  12.444   1.033  0.0915  0.4921  0.0541
  920MOL0     C26868   8.618  12.624   1.054 -0.0794  0.0708  0.3603
  920MOL0     C26869   8.532  12.605   1.166 -0.2054  0.2506 -0.8522
  920MOL0     O26870   8.138  12.523   1.151 -0.1166 -0.3485  0.2403
  920MOL0     C26871   8.195  12.493   1.503 -0.0374  0.1091 -0.1959
  920MOL0     C26872   8.136  12.446   1.618  0.6523 -0.3038 -0.4705
  920MOL0     N26873   7.752  11.928   1.712 -0.6894  0.4102 -0.2507
  920MOL0     N26874   7.631  11.897   1.729  0.1100 -0.4145  0.2091
  920MOL0     C26875   7.036  11.486   2.506 -0.3028 -0.3143 -0.1580
  920MOL0     C26876   7.059  11.350   2.526  0.2106  0.6062  0.0055
  920MOL0     C26877   7.196  10.928   2.503 -0.0642 -1.1881 -0.2935
  920MOL0     C26878   7.087  10.846   2.521  0.5235  1.1442  0.6528
  920MOL0     C26879   7.098  10.715   2.568 -0.2229  0.5268 -0.1337
  920MOL0     C26880   7.234  10.669   2.601  0.1765  0.1255 -0.2611
  920MOL0     O26881   7.269  10.545   2.637 -0.5906  0.3806  0.1520
  920MOL0     C26882   7.163  10.453   2.636 -0.2575  1.0002  0.6278
  920MOL0     C26883   7.228  10.320   2.662  0.9008  0.6493  0.5666
  920MOL0     C26884   7.120  10.212   2.660  0.8523  0.4341 -0.4110
  920MOL0     C26885   7.169  10.078   2.719 -0.6517 -0.3147  0.8937
  920MOL0     C26886   7.054   9.990   2.727  0.0004 -1.0137  0.9049
  920MOL0     C26887   6.952   9.929   2.752 -1.1390 -0.4415  0.0780
  920MOL0     C26888   7.341  10.754   2.581 -0.0588 -1.0454 -0.2444
  920MOL0     C26889   7.327  10.886   2.540  0.3412  0.1056 -0.0905
  920MOL0     C26890   7.448  10.980   2.537  0.0235  0.3403  0.4121
  920MOL0     H26891   7.373  11.332   2.376 -0.7070  0.8426 -2.6496
  920MOL0     H26892   7.315  11.577   2.341  2.9201 -1.9989  0.5940
  920MOL0     H26893   6.907  11.739   2.483  0.3899  1.5500  0.2082
  920MOL0     H26894   6.933  11.685   2.321 -0.2170 -1.7726 -0.0408
  920MOL0     H26895   6.882  11.932   2.345  0.7696  1.6636  2.5304
  920MOL0     H26896   7.029  11.958   2.427  2.5483 -0.0806 -0.2678
  920MOL0     H26897   7.004  11.805   2.156 -2.5778  0.5338  0.2470
  920MOL0     H26898   6.989  11.972   2.148 -0.9889  0.5470  2.0055
  920MOL0     H26899   7.224  12.004   2.250 -1.0259  2.1605 -2.8878
  920MOL0     H26900   7.246  11.834   2.252  1.7654  0.6172  1.7316
  920MOL0     H26901   7.184  11.976   1.979 -1.2348 -0.3230  0.5653
  920MOL0     H26902   7.205  11.810   2.001 -1.8696  1.0439  0.8030
  920MOL0     H26903   7.409  11.984   1.936 -1.6278  2.9384  2.4165
  920MOL0     H26904   7.420  11.989   2.113 -1.7739 -1.4211  1.5224
  920MOL0     H26905   7.406  11.719   2.071 -0.4622 -0.4799  0.6016
  920MOL0     H26906   7.561  11.818   2.078  0.3971  1.3769 -2.5145
  920MOL0     H26907   7.528  11.639   1.879  1.6567 -0.5423  2.7865
  920MOL0     H26908   7.411  11.758   1.815  0.7767 -1.5143 -1.1494
  920MOL0     H26909   7.759  11.743   1.970  0.7155 -1.6890 -2.5623
  920MOL0     H26910   8.028  11.932   1.738  2.9197  0.4347  1.6830
  920MOL0     H26911   8.014  11.816   1.870 -1.5125 -0.8398 -0.4371
  920MOL0     H26912   7.940  11.999   2.023  2.8679  3.0240  2.0756
  920MOL0     H26913   8.094  12.027   1.937 -0.1807 -2.7152 -0.6994
  920MOL0     H26914   7.803  12.143   1.885 -0.2492  3.2279  2.3808
  920MOL0     H26915   7.938  12.232   1.964 -0.6097  0.6184  0.2183
  920MOL0     H26916   8.076  12.186   1.763 -0.4040 -1.4898 -0.7442
  920MOL0     H26917   7.934  12.135   1.679  4.0009 -4.3733  1.5657
  920MOL0     H26918   7.869  12.283   1.485 -1.5954  1.2776  2.1683
  920MOL0     H26919   7.916  12.439   1.201  0.7271 -0.3465 -1.6505
  920MOL0     H26920   7.842  12.291   1.262 -0.3858 -0.8664 -2.1563
  920MOL0     H26921   7.997  12.282   1.193  1.2324  1.1387 -0.0815
  920MOL0     H26922   8.341  12.355   1.031  0.8681 -1.1589 -0.6127
  920MOL0     H26923   8.482  12.384   0.850  0.2654  0.4676  0.1976
  920MOL0     H26924   8.712  12.730   0.767  1.3295 -0.2915 -0.9074
  920MOL0     H26925   8.825  12.675   0.876  0.3762  0.6368  0.0379
  920MOL0     H26926   8.796  12.552   0.602 -0.7148  2.5108 -0.7685
  920MOL0     H26927   8.902  12.684   0.646 -1.0879 -0.4494 -2.6702
  920MOL0     H26928   8.895  12.395   0.696 -0.4999  0.2556  2.4005
  920MOL0     H26929   8.974  12.488   0.823 -0.1547 -0.0475  0.5162
  920MOL0     H26930   9.127  12.594   0.674  1.2654  0.4213 -0.0818
  920MOL0     H26931   9.053  12.512   0.535  1.9807 -1.3846 -1.2212
  920MOL0     H26932   9.146  12.291   0.609  0.8379 -0.9667  2.1325
  920MOL0     H26933   9.274  12.393   0.607  0.1645  2.2214  0.0932
  920MOL0     H26934   9.138  12.271   0.849  0.3532  1.5689  2.2855
  920MOL0     H26935   9.202  12.426   0.870  0.6922  0.6583 -1.0437
  920MOL0     H26936   9.431  12.332   0.756  0.2327  0.3690  1.0423
  920MOL0     H26937   9.356  12.174   0.778  1.0401 -0.2468  0.2182
  920MOL0     H26938   9.489  12.215   0.981  0.0970 -0.3663 -1.8804
  920MOL0     H26939   9.324  12.236   1.026 -1.3038 -0.0944 -2.2389
  920MOL0     H26940   8.696  12.699   1.052  0.6997 -0.6742  1.6017
  920MOL0     H26941   8.541  12.679   1.245 -2.2665  0.6873 -0.9563
  920MOL0     H26942   8.290  12.543   1.515  0.0008 -0.4392  2.0832
  920MOL0     H26943   8.191  12.460   1.711  1.5222 -1.6778 -0.7492
  920MOL0     H26944   6.949  11.529   2.554  0.5361  0.4823  0.6989
  920MOL0     H26945   6.979  11.299   2.578  0.4738 -0.2281 -0.3902
  920MOL0     H26946   6.986  10.875   2.495 -1.2221 -3.6493  1.1532
  920MOL0     H26947   7.016  10.649   2.593  0.0615  0.7077  1.4330
  920MOL0     H26948   7.095  10.468   2.721 -0.5804 -0.9914  0.7718
  920MOL0     H26949   7.113  10.446   2.539  1.5837 -0.7912 -0.2699
  920MOL0     H26950   7.274  10.328   2.761  0.8113  0.4166  0.6287
  920MOL0     H26951   7.304  10.301   2.587  0.1954 -3.3850  0.6342
  920MOL0     H26952   7.030  10.235   2.716  1.0119  1.9591 -0.7468
  920MOL0     H26953   7.094  10.193   2.555 -1.4438  0.0555  0.1818
  920MOL0     H26954   7.213  10.110   2.814 -0.2496  2.2567 -0.0642
  920MOL0     H26955   7.246  10.030   2.658 -2.3246 -0.4867 -1.2169
  920MOL0     H26956   6.860   9.886   2.785 -1.9081  0.4908 -0.7481
  920MOL0     H26957   7.441  10.711   2.586 -0.4339 -1.8341  0.7001
  920MOL0     H26958   7.529  10.915   2.570 -0.5878 -0.1674  0.9512
  920MOL0     H26959   7.465  11.025   2.439 -0.7871  1.4503  0.7613
  920MOL0     H26960   7.438  11.071   2.597  3.3227  1.2741 -0.2359
  921MOL0     O26961  10.854   4.762  10.758 -0.3394  0.0807  0.6206
  921MOL0     C26962  10.959   4.809  10.818 -0.5035 -0.3183  0.1599
  921MOL0     O26963  10.991   4.801  10.959 -0.0762 -0.3568 -0.2861
  921MOL0     C26964  10.915   4.744  11.055  0.7164 -0.2419  0.1754
  921MOL0     C26965  10.821   4.652  11.035  0.7140  0.1644  0.8581
  921MOL0     C26966  10.748   4.598  11.145  0.4724 -0.2209  0.2177
  921MOL0     C26967  10.777   4.637  11.272 -0.6767  0.1740  0.5217
  921MOL0     O26968  10.694   4.579  11.368 -0.0949  0.5958 -0.0937
  921MOL0     C26969  10.667   4.649  11.484 -0.8004 -0.1674  0.9622
  921MOL0     C26970  10.627   4.802  11.462 -0.0016  0.4064  0.9514
  921MOL0     C26971  10.521   4.822  11.353 -0.1767  0.3745 -0.4250
  921MOL0     C26972  10.524   4.970  11.300  0.4925 -0.1734  0.7851
  921MOL0     C26973  10.651   5.002  11.210  0.4452  0.3356 -0.7028
  921MOL0     C26974  10.670   5.156  11.213 -0.2876 -0.9395  0.4717
  921MOL0     C26975  10.738   5.210  11.082  0.0498  0.2038  0.9973
  921MOL0     C26976  10.852   5.135  11.016 -0.4107 -0.8151 -0.5213
  921MOL0     N26977  10.927   5.215  10.923 -0.0213  0.0365 -0.3026
  921MOL0     C26978  11.057   5.184  10.881  0.2968 -0.5638 -0.6541
  921MOL0     C26979  11.080   5.283  10.798 -0.3107 -0.1366  0.8638
  921MOL0     C26980  11.201   5.287  10.707 -0.6117 -0.7102 -0.0321
  921MOL0     C26981  11.275   5.421  10.706  0.1031 -0.1083  0.1349
  921MOL0     C26982  11.320   5.456  10.569  0.0757 -0.6093 -0.6906
  921MOL0     C26983  11.216   5.525  10.483  0.2054 -0.5461 -0.2353
  921MOL0     O26984  11.284   5.582  10.372  0.4149  0.0725  0.3128
  921MOL0     C26985  11.276   5.512  10.257  0.3320  0.4682  0.3989
  921MOL0     C26986  11.292   5.374  10.248 -1.4386 -0.4595  1.3264
  921MOL0     C26987  11.280   5.300  10.127 -0.2839 -1.0227 -0.7841
  921MOL0     C26988  11.301   5.149  10.119 -0.3625  0.3635 -0.1815
  921MOL0     C26989  11.230   5.377  10.014  0.7086  0.5122  0.3225
  921MOL0     C26990  11.188   5.316   9.879 -0.1163 -0.0685  0.1912
  921MOL0     O26991  11.228   5.196   9.844  0.0117 -0.8154  0.4704
  921MOL0     C26992  11.279   5.162   9.718 -0.3534 -0.5161 -0.4165
  921MOL0     C26993  11.333   5.029   9.710  0.3232  0.4374  0.4555
  921MOL0     C26994  11.382   4.976   9.585  0.1958 -0.0380 -0.7227
  921MOL0     C26995  11.374   5.048   9.472  0.8456  1.0236  0.1980
  921MOL0     O26996  11.416   4.994   9.355  0.8746  0.5135  0.0343
  921MOL0     C26997  11.352   4.880   9.303 -0.0849  0.2572 -0.6570
  921MOL0     C26998  11.440   4.751   9.315  0.0659  0.5673 -0.3250
  921MOL0     C26999  11.570   4.754   9.223  0.1688  0.0206  0.3244
  921MOL0     C27000  11.522   4.709   9.078 -0.2332 -1.3188 -0.4036
  921MOL0     C27001  11.629   4.752   8.972 -0.1216 -0.2869  0.3250
  921MOL0     C27002  11.586   4.728   8.826  0.7764 -0.3354 -0.6248
  921MOL0     C27003  11.683   4.797   8.726 -0.3284  0.5828  0.2218
  921MOL0     C27004  11.680   4.734   8.584  0.3604  0.3462 -0.6972
  921MOL0    Cl27005  11.728   4.563   8.596 -0.1224 -0.1952 -0.3897
  921MOL0     C27006  11.322   5.183   9.481 -0.0560  0.2295  0.4991
  921MOL0     C27007  11.282   5.237   9.604 -0.3952 -0.2290 -0.8259
  921MOL0     O27008  11.122   5.395   9.805  0.6648  0.4379  1.0390
  921MOL0     C27009  11.226   5.517  10.018  1.2807  0.4384 -0.3845
  921MOL0     C27010  11.243   5.579  10.140 -0.5361 -0.2565 -1.1154
  921MOL0     N27011  10.979   5.376  10.789  0.2063  0.6644  0.4157
  921MOL0     N27012  10.890   5.335  10.871  0.2163 -0.5569  0.3965
  921MOL0     C27013  10.882   4.725  11.292 -0.1318 -0.2808 -0.4069
  921MOL0     C27014  10.948   4.782  11.184  0.2272 -1.2877 -0.3501
  921MOL0     C27015  11.075   4.855  10.724 -0.6430 -0.2574 -0.3004
  921MOL0     C27016  11.040   4.874  10.587 -0.2577 -0.5207  0.1720
  921MOL0     C27017  11.144   4.926  10.497 -0.8920 -0.0121 -0.1002
  921MOL0     C27018  11.270   4.950  10.545  0.3061  0.3456 -1.3238
  921MOL0     O27019  11.353   5.001  10.447  0.1124 -0.8906 -0.3662
  921MOL0     C27020  11.495   4.983  10.455 -0.0213  0.4890  0.1315
  921MOL0     C27021  11.576   5.098  10.521 -0.8898 -0.7431  0.5377
  921MOL0     C27022  11.712   5.038  10.557 -0.1361 -0.5497  0.9752
  921MOL0     C27023  11.801   5.139  10.629 -0.1539 -0.8134  0.1774
  921MOL0     C27024  11.745   5.244  10.718  0.7155  0.7602 -0.2367
  921MOL0     C27025  11.698   5.336  10.787  0.3069  0.4685  0.7115
  921MOL0     C27026  11.303   4.936  10.680 -0.1525  0.2352  0.4534
  921MOL0     C27027  11.208   4.888  10.766  0.7494  0.1061  0.0003
  921MOL0     C27028  11.265   4.861  10.910  0.0049 -1.0805 -0.0158
  921MOL0     H27029  10.786   4.617  10.938 -2.1735 -0.0741  1.9048
  921MOL0     H27030  10.670   4.524  11.130  1.7652 -1.9305  1.5348
  921MOL0     H27031  10.758   4.647  11.545 -0.2950  2.8227  0.4407
  921MOL0     H27032  10.589   4.597  11.540 -2.6094  0.6531 -0.6628
  921MOL0     H27033  10.574   4.833  11.553 -1.9498 -1.0305  0.3841
  921MOL0     H27034  10.713   4.868  11.447  1.2772 -1.5820 -1.0845
  921MOL0     H27035  10.531   4.753  11.269 -1.2696 -1.1507  0.6336
  921MOL0     H27036  10.419   4.801  11.386 -0.6329 -0.2822 -2.1859
  921MOL0     H27037  10.436   4.982  11.237  0.6435  1.1565  0.8117
  921MOL0     H27038  10.515   5.034  11.388 -0.0165 -1.6594  1.8603
  921MOL0     H27039  10.640   4.948  11.115 -1.0289 -0.8705  0.1058
  921MOL0     H27040  10.747   4.957  11.237  1.2064  1.0235 -2.1528
  921MOL0     H27041  10.575   5.210  11.206  0.3604  0.5338  2.1237
  921MOL0     H27042  10.723   5.180  11.306  0.3755 -2.8046  0.6106
  921MOL0     H27043  10.762   5.315  11.100  0.6793 -0.1841  2.5448
  921MOL0     H27044  10.661   5.203  11.004 -0.1391 -2.6947  1.3514
  921MOL0     H27045  10.913   5.095  11.098 -1.6348  0.4514  1.0745
  921MOL0     H27046  10.808   5.051  10.961  1.1181 -3.5603  2.1094
  921MOL0     H27047  11.116   5.094  10.891  0.8079 -0.3976 -1.9974
  921MOL0     H27048  11.166   5.259  10.607 -3.5275 -2.2897  1.3304
  921MOL0     H27049  11.272   5.214  10.746  0.2782  0.6198  0.9322
  921MOL0     H27050  11.211   5.501  10.743  1.4823  0.3422  1.6562
  921MOL0     H27051  11.368   5.419  10.763 -0.0615 -0.4861  0.3901
  921MOL0     H27052  11.408   5.521  10.564 -0.4047 -0.0740 -3.0216
  921MOL0     H27053  11.342   5.367  10.510  0.1072  1.4199 -3.9814
  921MOL0     H27054  11.145   5.450  10.446  1.0469 -1.1743 -0.6011
  921MOL0     H27055  11.166   5.606  10.537  2.8196 -0.6556  2.5586
  921MOL0     H27056  11.324   5.298  10.318 -1.0642 -1.7667 -0.2095
  921MOL0     H27057  11.213   5.091  10.089  0.6460 -1.4305  0.1983
  921MOL0     H27058  11.338   5.111  10.215  2.2536  0.9293 -0.9030
  921MOL0     H27059  11.373   5.122  10.042  0.6054 -1.1780  1.1909
  921MOL0     H27060  11.340   4.974   9.803 -1.8230  3.4728  2.6265
  921MOL0     H27061  11.408   4.871   9.586  2.6074  0.5047  0.1505
  921MOL0     H27062  11.251   4.866   9.344  0.4316 -1.3757  0.1390
  921MOL0     H27063  11.327   4.894   9.197  0.6872 -3.5828 -1.4974
  921MOL0     H27064  11.474   4.738   9.418 -2.7640  0.3839  0.6833
  921MOL0     H27065  11.385   4.661   9.284  0.5149  0.8693 -2.1615
  921MOL0     H27066  11.638   4.676   9.257  1.0978 -0.5112 -2.4539
  921MOL0     H27067  11.622   4.850   9.221 -0.9197  0.6500  1.2731
  921MOL0     H27068  11.428   4.763   9.062  0.3926  0.4138  1.3513
  921MOL0     H27069  11.506   4.603   9.059  2.3063 -1.2961 -3.6465
  921MOL0     H27070  11.657   4.857   8.986  0.9876 -0.7185  1.6007
  921MOL0     H27071  11.723   4.699   8.992  1.2692  1.7256 -0.4939
  921MOL0     H27072  11.487   4.770   8.802  0.7886 -1.0863 -2.0980
  921MOL0     H27073  11.589   4.620   8.808 -3.5293 -0.8861  0.6957
  921MOL0     H27074  11.783   4.779   8.768 -0.5617 -2.8547 -0.3742
  921MOL0     H27075  11.659   4.903   8.718 -1.7315  0.2147 -0.6765
  921MOL0     H27076  11.749   4.785   8.515  1.7738  0.7774  0.9623
  921MOL0     H27077  11.580   4.746   8.540 -0.5078 -1.3047  0.7261
  921MOL0     H27078  11.324   5.240   9.388  2.1360 -1.5384 -0.6459
  921MOL0     H27079  11.257   5.342   9.616  3.1629  1.0334 -2.9408
  921MOL0     H27080  11.199   5.584   9.937 -1.8140  1.8243  1.5963
  921MOL0     H27081  11.235   5.687  10.139  0.6474 -0.0849  1.0201
  921MOL0     H27082  10.924   4.733  11.392  1.5684 -0.0980 -1.1087
  921MOL0     H27083  11.021   4.860  11.201 -1.2945  0.4130 -1.2764
  921MOL0     H27084  10.940   4.848  10.554 -1.1887 -0.1012  2.4799
  921MOL0     H27085  11.130   4.950  10.392 -0.7809  2.9108  0.4683
  921MOL0     H27086  11.510   4.895  10.518 -0.5252  0.9949  0.9871
  921MOL0     H27087  11.530   4.959  10.354 -2.2567  2.1700 -1.1479
  921MOL0     H27088  11.532   5.135  10.613  3.2632 -0.4578  2.6341
  921MOL0     H27089  11.602   5.182  10.455 -0.3855  0.0303  1.6931
  921MOL0     H27090  11.701   4.949  10.619  0.7547 -0.2085  1.6262
  921MOL0     H27091  11.766   5.001  10.469 -3.4932 -0.9840 -1.1010
  921MOL0     H27092  11.854   5.191  10.549 -2.3485  0.4474 -0.5297
  921MOL0     H27093  11.862   5.073  10.692  0.0999  0.9684  1.9209
  921MOL0     H27094  11.662   5.403  10.862 -3.0245  1.7348 -1.7970
  921MOL0     H27095  11.407   4.959  10.703 -0.1534  0.6113  0.1027
  921MOL0     H27096  11.202   4.904  10.988 -1.5365  0.0463 -1.7928
  921MOL0     H27097  11.275   4.755  10.936  2.8428 -1.0032 -0.5589
  921MOL0     H27098  11.364   4.906  10.909 -0.9992  1.2917  0.0758
  922MOL0     O27099   3.091   3.862   0.795  0.1460  0.4027 -0.2129
  922MOL0     C27100   3.214   3.850   0.808 -0.5927 -0.1412 -0.5778
  922MOL0     O27101   3.312   3.874   0.717  0.6914  0.6058 -0.5523
  922MOL0     C27102   3.279   3.910   0.586  0.0129 -0.0095  0.1268
  922MOL0     C27103   3.177   3.859   0.511  1.1365  0.1857 -0.2312
  922MOL0     C27104   3.142   3.892   0.379 -0.0813  0.4211 -0.0649
  922MOL0     C27105   3.221   3.990   0.322 -1.2110 -0.1238 -0.4730
  922MOL0     O27106   3.193   4.029   0.196 -0.0146  0.2415 -0.2410
  922MOL0     C27107   3.149   3.920   0.114 -0.2455 -0.9083  0.5391
  922MOL0     C27108   3.203   3.951  -0.024 -0.0143  0.7139  0.1498
  922MOL0     C27109   3.349   3.914  -0.069 -1.1950  0.5050  0.7060
  922MOL0     C27110   3.372   3.957  -0.217  0.4148  0.1980  0.7624
  922MOL0     C27111   3.514   3.935  -0.273  0.7907 -0.1088 -0.3561
  922MOL0     C27112   3.619   4.044  -0.230 -0.1966  0.3149  0.3259
  922MOL0     C27113   3.586   4.176  -0.298  0.1724 -0.2799  0.2257
  922MOL0     C27114   3.696   4.268  -0.277 -0.0867 -0.3496  0.5462
  922MOL0     N27115   3.709   4.366  -0.388 -0.6789  0.0602 -0.9467
  922MOL0     C27116   3.801   4.380  -0.491  0.1539  0.3750  0.0331
  922MOL0     C27117   3.773   4.490  -0.561 -0.7135 -0.3796 -0.5440
  922MOL0     C27118   3.857   4.561  -0.659 -0.9912  0.1886 -0.1388
  922MOL0     C27119   3.861   4.484  -0.792 -0.6079  0.2718 -0.1866
  922MOL0     C27120   3.722   4.495  -0.864  0.2761  0.2071  0.2415
  922MOL0     C27121   3.723   4.472  -1.012 -0.6314 -0.1496  0.1847
  922MOL0     O27122   3.844   4.513  -1.088  0.3438  0.4750 -0.7470
  922MOL0     C27123   3.846   4.644  -1.138 -0.2305  1.3112 -0.2281
  922MOL0     C27124   3.748   4.709  -1.213 -0.2374 -0.1473  0.3229
  922MOL0     C27125   3.749   4.848  -1.250  0.6813 -0.2497  0.2683
  922MOL0     C27126   3.634   4.913  -1.322  0.0811  1.4845  0.7686
  922MOL0     C27127   3.871   4.920  -1.222  0.2236 -0.2570 -0.1607
  922MOL0     C27128   3.891   5.064  -1.257 -0.7261 -0.5573 -0.4270
  922MOL0     O27129   3.987   5.126  -1.177 -0.1625 -0.4347  0.1788
  922MOL0     C27130   3.998   5.264  -1.189  0.1602  0.7892 -0.2030
  922MOL0     C27131   4.002   5.343  -1.075  0.5491 -0.3495  0.9307
  922MOL0     C27132   4.009   5.479  -1.100 -0.5711  0.5508  0.1476
  922MOL0     C27133   4.022   5.540  -1.224 -0.2316  0.6096  0.2774
  922MOL0     O27134   4.040   5.676  -1.247  0.1914 -0.5971  0.3889
  922MOL0     C27135   4.032   5.764  -1.133 -0.3903  0.0361 -0.5430
  922MOL0     C27136   4.032   5.912  -1.170  0.2112 -0.8697 -0.4962
  922MOL0     C27137   4.023   6.008  -1.049 -0.2679 -0.0915 -0.1271
  922MOL0     C27138   4.085   6.149  -1.057  0.4793 -0.3177 -0.6378
  922MOL0     C27139   4.026   6.245  -0.958 -0.1600  0.0417  0.2863
  922MOL0     C27140   3.900   6.313  -1.016 -0.5748  0.1607  0.3265
  922MOL0     C27141   3.811   6.369  -0.899  0.4399  0.0710  0.9432
  922MOL0     C27142   3.848   6.508  -0.841  0.3738 -0.4580 -0.2698
  922MOL0    Cl27143   3.860   6.641  -0.960 -0.2667 -0.0462 -0.1970
  922MOL0     C27144   4.023   5.454  -1.338 -0.3619  0.6770  0.4134
  922MOL0     C27145   4.024   5.310  -1.315  0.6771  0.2242  0.2395
  922MOL0     O27146   3.817   5.120  -1.340 -1.1211 -1.0266 -0.3744
  922MOL0     C27147   3.967   4.854  -1.139  0.6417 -0.4619  0.9573
  922MOL0     C27148   3.956   4.717  -1.104  0.2712 -0.3956 -0.6170
  922MOL0     N27149   3.656   4.543  -0.505  0.2137  1.4277  0.0598
  922MOL0     N27150   3.622   4.481  -0.396  0.2858  0.6085 -0.2923
  922MOL0     C27151   3.312   4.056   0.402  0.6834 -0.1513  0.6536
  922MOL0     C27152   3.354   4.011   0.529  0.7426  1.0492 -0.5911
  922MOL0     C27153   3.252   3.797   0.937 -0.6458  0.9734 -0.2845
  922MOL0     C27154   3.353   3.698   0.933 -0.3698  0.0478 -0.7464
  922MOL0     C27155   3.403   3.649   1.056  0.7019  0.3570  0.0612
  922MOL0     C27156   3.355   3.700   1.176 -0.6352  0.3943  0.2491
  922MOL0     O27157   3.401   3.676   1.302 -0.0627  0.0437  0.0604
  922MOL0     C27158   3.500   3.581   1.329  0.0847  0.7656  0.5961
  922MOL0     C27159   3.561   3.586   1.473  0.3664  0.3409 -0.7947
  922MOL0     C27160   3.603   3.736   1.496 -0.6728 -0.7802 -0.6176
  922MOL0     C27161   3.726   3.734   1.595 -0.7299  0.2470 -0.0196
  922MOL0     C27162   3.698   3.810   1.721  1.3811 -0.3415 -0.5204
  922MOL0     C27163   3.683   3.873   1.826  0.6405  0.0631  0.2449
  922MOL0     C27164   3.263   3.808   1.171 -0.1165  0.1457  0.5837
  922MOL0     C27165   3.205   3.852   1.058 -0.5875  0.0565 -0.7293
  922MOL0     C27166   3.114   3.974   1.066 -0.0673 -0.0470 -0.1911
  922MOL0     H27167   3.111   3.783   0.552 -0.7410 -0.0495 -3.3226
  922MOL0     H27168   3.051   3.848   0.339  0.2621 -0.2759 -0.0949
  922MOL0     H27169   3.041   3.910   0.123 -0.4592  1.7698  2.2136
  922MOL0     H27170   3.194   3.826   0.145  0.3809 -0.6156  0.5451
  922MOL0     H27171   3.141   3.883  -0.083  1.0506  0.8686 -1.2002
  922MOL0     H27172   3.195   4.052  -0.064 -1.8436  1.0682  1.2861
  922MOL0     H27173   3.421   3.946   0.007 -0.9590 -2.8845  2.0828
  922MOL0     H27174   3.358   3.805  -0.078  0.4165  0.7261 -1.1920
  922MOL0     H27175   3.290   3.916  -0.277  1.2941 -2.4731  1.2642
  922MOL0     H27176   3.346   4.063  -0.225 -2.3907 -0.5184 -0.7521
  922MOL0     H27177   3.519   3.923  -0.382  3.5907 -2.5525 -0.1202
  922MOL0     H27178   3.539   3.831  -0.248 -1.9237 -0.5984  0.6198
  922MOL0     H27179   3.629   4.047  -0.121 -0.4953 -1.4843  0.4369
  922MOL0     H27180   3.719   4.011  -0.262  1.2425  2.4880  2.2258
  922MOL0     H27181   3.493   4.214  -0.254  0.7962  1.0427  0.4594
  922MOL0     H27182   3.560   4.148  -0.400  1.5471  1.7045 -0.7434
  922MOL0     H27183   3.691   4.310  -0.177 -2.9898 -1.9895  1.2015
  922MOL0     H27184   3.787   4.208  -0.269  0.5663  0.8236  2.8661
  922MOL0     H27185   3.887   4.318  -0.515 -1.6792 -2.5343  0.4620
  922MOL0     H27186   3.958   4.567  -0.618 -0.6567  0.7967 -1.0394
  922MOL0     H27187   3.815   4.662  -0.667 -0.0972  0.4860 -1.3604
  922MOL0     H27188   3.936   4.525  -0.860 -0.4611 -0.7278 -0.6490
  922MOL0     H27189   3.882   4.379  -0.769 -2.3278  0.3379  1.9619
  922MOL0     H27190   3.642   4.434  -0.820 -2.0532  2.0185 -1.1954
  922MOL0     H27191   3.683   4.597  -0.859  0.5550  0.2708  1.2350
  922MOL0     H27192   3.734   4.365  -1.031 -0.9305 -0.2270  0.4365
  922MOL0     H27193   3.631   4.507  -1.060 -2.3864  0.1994  3.5039
  922MOL0     H27194   3.659   4.653  -1.240  0.0561 -1.1481  1.3767
  922MOL0     H27195   3.545   4.851  -1.324 -0.2940  2.0184 -0.2151
  922MOL0     H27196   3.657   4.934  -1.427  1.9653 -1.2017  0.5411
  922MOL0     H27197   3.593   5.004  -1.278 -5.2806 -0.2859  0.1116
  922MOL0     H27198   3.985   5.300  -0.977  2.5544 -0.0294  1.4636
  922MOL0     H27199   4.006   5.541  -1.010  2.8956  1.4015 -0.1619
  922MOL0     H27200   3.931   5.746  -1.096 -0.7657 -1.2094 -2.0631
  922MOL0     H27201   4.111   5.739  -1.062 -3.0319 -2.2229  1.8396
  922MOL0     H27202   4.118   5.940  -1.231 -0.8281  1.8556 -0.8620
  922MOL0     H27203   3.951   5.929  -1.242  0.9792 -2.4023 -1.7720
  922MOL0     H27204   4.087   5.956  -0.977  2.7617 -0.4970 -2.8421
  922MOL0     H27205   3.920   6.011  -1.014  0.0499  1.0316  0.7780
  922MOL0     H27206   4.070   6.191  -1.156 -0.4715  5.0235  1.4504
  922MOL0     H27207   4.193   6.142  -1.039  0.2746  0.2008  0.9168
  922MOL0     H27208   4.004   6.190  -0.865 -0.6528 -0.3892 -0.0812
  922MOL0     H27209   4.099   6.324  -0.942  1.6782 -0.4313 -4.3276
  922MOL0     H27210   3.836   6.256  -1.084 -1.9672  2.1390 -0.1167
  922MOL0     H27211   3.938   6.388  -1.085 -0.0669 -2.3188 -2.2747
  922MOL0     H27212   3.773   6.297  -0.826 -1.2858 -0.1842 -0.1501
  922MOL0     H27213   3.724   6.392  -0.961  0.9888 -0.4853 -0.0350
  922MOL0     H27214   3.948   6.483  -0.805  0.7784 -0.4043 -1.3324
  922MOL0     H27215   3.782   6.539  -0.759 -0.1672  0.4524 -1.0277
  922MOL0     H27216   4.027   5.505  -1.433  1.2333 -0.0747  0.0449
  922MOL0     H27217   4.053   5.240  -1.392  1.1255  0.7994 -0.1272
  922MOL0     H27218   4.055   4.911  -1.113  0.9099  0.9705 -2.5451
  922MOL0     H27219   4.025   4.668  -1.035 -1.1407 -0.0146  1.1344
  922MOL0     H27220   3.383   4.127   0.360  2.3667 -3.0227 -1.8012
  922MOL0     H27221   3.435   4.058   0.585  1.4508 -1.9363  1.0808
  922MOL0     H27222   3.387   3.652   0.840  4.3172 -1.2000  1.2789
  922MOL0     H27223   3.488   3.582   1.049  0.1099 -0.4231  0.1016
  922MOL0     H27224   3.450   3.485   1.315 -0.5510  0.9986  1.2401
  922MOL0     H27225   3.584   3.599   1.261 -1.1794 -3.5100 -2.4950
  922MOL0     H27226   3.649   3.521   1.483 -0.7398 -1.0314  0.4330
  922MOL0     H27227   3.484   3.565   1.547  0.6521  0.4631 -0.4620
  922MOL0     H27228   3.632   3.782   1.401 -0.1464  0.5804  0.1815
  922MOL0     H27229   3.513   3.786   1.534  1.3144  2.7397 -0.1752
  922MOL0     H27230   3.814   3.770   1.541 -1.6118  1.8362 -0.4432
  922MOL0     H27231   3.746   3.637   1.643 -0.1694 -0.0364 -0.8105
  922MOL0     H27232   3.682   3.925   1.919 -0.7448 -1.7298  1.2910
  922MOL0     H27233   3.233   3.847   1.269 -0.1811 -0.0681  0.6489
  922MOL0     H27234   3.115   4.019   1.165 -2.3052  0.7046 -0.4545
  922MOL0     H27235   3.146   4.049   0.993 -0.2506 -0.5106 -0.7560
  922MOL0     H27236   3.015   3.958   1.024 -0.1662  3.3855 -1.6380
  923MOL0     O27237   4.767   3.406  10.683  0.8951  0.7519  0.4133
  923MOL0     C27238   4.653   3.365  10.651  0.1346 -0.5294 -0.3702
  923MOL0     O27239   4.619   3.248  10.595 -0.5206  0.1846  0.3757
  923MOL0     C27240   4.699   3.162  10.530  0.8266 -0.3556 -0.4188
  923MOL0     C27241   4.843   3.163  10.501  0.0097 -0.8705 -0.1271
  923MOL0     C27242   4.897   3.073  10.408 -0.6464  0.0852 -0.2216
  923MOL0     C27243   4.818   2.967  10.357  0.0922  0.4170 -0.7247
  923MOL0     O27244   4.865   2.889  10.258  0.1631 -0.1277  0.1652
  923MOL0     C27245   4.910   2.761  10.295 -0.6921  1.1528  0.8765
  923MOL0     C27246   4.839   2.631  10.237  0.5513 -0.7900 -0.0287
  923MOL0     C27247   4.926   2.507  10.267  0.3821 -0.5487  0.9708
  923MOL0     C27248   4.924   2.455  10.417  0.4882 -0.1055  0.7796
  923MOL0     C27249   4.966   2.312  10.430 -0.2653 -0.1516 -0.4293
  923MOL0     C27250   5.107   2.288  10.376 -0.3372  0.4229 -0.4910
  923MOL0     C27251   5.136   2.134  10.355 -0.0059  0.5435  0.4261
  923MOL0     C27252   5.288   2.113  10.330 -0.0302 -0.2777 -0.1552
  923MOL0     N27253   5.322   1.971  10.353 -0.2347  0.0666  0.5751
  923MOL0     C27254   5.326   1.877  10.252 -0.9594 -0.3401  0.1552
  923MOL0     C27255   5.369   1.768  10.321  0.1830  0.3572  0.2013
  923MOL0     C27256   5.360   1.622  10.259 -0.6095  0.1984  0.7120
  923MOL0     C27257   5.430   1.512  10.346  0.2244 -0.0975 -1.5613
  923MOL0     C27258   5.404   1.364  10.299  0.3611  0.6530  0.7737
  923MOL0     C27259   5.470   1.326  10.161 -0.2022  0.6793 -0.4826
  923MOL0     O27260   5.431   1.412  10.050  0.8418 -0.4876  0.1924
  923MOL0     C27261   5.317   1.397   9.977  0.2776  1.0500 -0.1145
  923MOL0     C27262   5.267   1.507   9.912  0.0681  0.5347  0.3655
  923MOL0     C27263   5.134   1.518   9.858 -0.3903 -0.5221  0.4531
  923MOL0     C27264   5.096   1.659   9.811  0.1270 -0.2005  0.9587
  923MOL0     C27265   5.050   1.412   9.859 -0.0720 -0.1757 -0.1769
  923MOL0     C27266   4.907   1.405   9.797 -0.2632  0.7754  0.5325
  923MOL0     O27267   4.877   1.498   9.705  0.3057  0.2117 -0.0260
  923MOL0     C27268   4.776   1.482   9.612 -0.7647  0.2187 -0.1061
  923MOL0     C27269   4.660   1.409   9.627 -0.0316  0.8348 -0.2823
  923MOL0     C27270   4.580   1.378   9.508  0.2508  0.0465 -0.3815
  923MOL0     C27271   4.619   1.433   9.385 -0.3810 -0.2494 -0.0703
  923MOL0     O27272   4.537   1.396   9.281  0.5927  1.0497  0.3427
  923MOL0     C27273   4.577   1.438   9.143  0.0974  0.0148  0.8383
  923MOL0     C27274   4.529   1.323   9.060 -0.1399  0.4886  0.1754
  923MOL0     C27275   4.545   1.356   8.907 -0.2137  0.4000 -0.5062
  923MOL0     C27276   4.546   1.228   8.817 -0.0100 -0.3616  0.0957
  923MOL0     C27277   4.539   1.264   8.664 -0.0602  0.4949 -1.2441
  923MOL0     C27278   4.678   1.241   8.591  0.3160  0.3206 -0.0563
  923MOL0     C27279   4.674   1.285   8.450 -0.0446  0.5822 -0.1421
  923MOL0     C27280   4.811   1.309   8.402 -0.3908 -0.8129  0.3262
  923MOL0    Cl27281   4.897   1.156   8.387 -0.0134 -0.0398 -0.0444
  923MOL0     C27282   4.737   1.516   9.374 -0.0666  0.4067 -0.2587
  923MOL0     C27283   4.811   1.539   9.491 -0.2585 -0.2230 -0.0112
  923MOL0     O27284   4.847   1.297   9.814  0.8685 -0.8299  1.4282
  923MOL0     C27285   5.095   1.295   9.932 -0.5370  0.4595 -0.5572
  923MOL0     C27286   5.230   1.288   9.990  0.4068 -0.8726  0.3038
  923MOL0     N27287   5.381   1.783  10.459  0.2169 -0.0896  0.6622
  923MOL0     N27288   5.367   1.913  10.472  0.0181  0.0697 -0.1860
  923MOL0     C27289   4.680   2.958  10.394 -0.7057  0.0894  0.1519
  923MOL0     C27290   4.622   3.059  10.466 -0.0576 -0.0493 -0.0998
  923MOL0     C27291   4.542   3.456  10.673 -0.5092 -0.7951  0.3503
  923MOL0     C27292   4.531   3.515  10.801  1.6833 -0.1830 -0.7367
  923MOL0     C27293   4.431   3.610  10.826  0.1716 -1.4065 -1.1557
  923MOL0     C27294   4.336   3.635  10.725 -0.3841  0.4421  0.2484
  923MOL0     O27295   4.237   3.725  10.758  0.3116 -0.0643 -0.3412
  923MOL0     C27296   4.175   3.802  10.655 -0.2471 -0.1334 -0.8455
  923MOL0     C27297   4.056   3.868  10.725 -0.4282  0.0277 -0.0404
  923MOL0     C27298   3.963   3.942  10.631 -0.7849  0.4439  0.2048
  923MOL0     C27299   4.016   4.056  10.530 -0.3079 -0.0485  0.0437
  923MOL0     C27300   4.121   4.146  10.591  0.0368  0.6963  1.2203
  923MOL0     C27301   4.198   4.234  10.616 -0.5486 -0.2994  0.4187
  923MOL0     C27302   4.344   3.571  10.603  0.2082 -2.3618  0.1325
  923MOL0     C27303   4.452   3.492  10.568 -0.6390 -0.5575 -1.7100
  923MOL0     C27304   4.464   3.434  10.427 -0.9567  0.3706 -0.2035
  923MOL0     H27305   4.897   3.255  10.519  0.3272 -0.4479 -2.9037
  923MOL0     H27306   4.991   3.098  10.360 -0.8866  1.4827 -0.0041
  923MOL0     H27307   4.895   2.745  10.402 -2.3468 -0.1953  0.4910
  923MOL0     H27308   5.015   2.756  10.264 -0.8158  0.8678  0.4884
  923MOL0     H27309   4.747   2.620  10.295  1.7939  0.2637  2.2879
  923MOL0     H27310   4.813   2.634  10.131  1.0606  1.8151 -0.1480
  923MOL0     H27311   4.883   2.427  10.206 -0.6193  0.7544 -0.0818
  923MOL0     H27312   5.025   2.532  10.230  1.1352 -1.2381  2.4124
  923MOL0     H27313   4.984   2.517  10.483  0.6623 -2.1440  2.6737
  923MOL0     H27314   4.818   2.461  10.443  0.7996  0.0741  2.0545
  923MOL0     H27315   4.888   2.264  10.371  2.1683 -3.4021 -1.2993
  923MOL0     H27316   4.949   2.286  10.535 -2.0150 -1.7957 -1.0626
  923MOL0     H27317   5.122   2.337  10.279  2.5391  0.9794  0.1358
  923MOL0     H27318   5.182   2.331  10.443  1.6130  1.0628 -2.9280
  923MOL0     H27319   5.079   2.074  10.283  0.3366  0.9217 -0.1759
  923MOL0     H27320   5.112   2.094  10.454  0.1800 -2.3696 -0.5960
  923MOL0     H27321   5.306   2.147  10.228 -0.9104 -1.9536 -0.9110
  923MOL0     H27322   5.340   2.180  10.400 -2.0018  2.0700 -0.7875
  923MOL0     H27323   5.303   1.868  10.147 -3.1238 -2.2212  0.7201
  923MOL0     H27324   5.402   1.615  10.158 -0.7012 -2.4311  0.7826
  923MOL0     H27325   5.256   1.590  10.264 -0.2631 -0.7952  3.8988
  923MOL0     H27326   5.538   1.533  10.342  0.3719  0.2461  1.7571
  923MOL0     H27327   5.387   1.530  10.444  4.4518 -3.4686  1.3193
  923MOL0     H27328   5.445   1.288  10.367  4.9622 -1.7393 -3.9899
  923MOL0     H27329   5.295   1.354  10.300  0.1544  2.0220  3.4681
  923MOL0     H27330   5.579   1.338  10.162 -0.1185 -0.0733  0.0372
  923MOL0     H27331   5.453   1.222  10.132 -0.7264  0.7278 -0.3506
  923MOL0     H27332   5.337   1.590   9.916  1.3618 -0.5387  1.1636
  923MOL0     H27333   5.009   1.699   9.864 -0.4377  0.3456 -0.3525
  923MOL0     H27334   5.066   1.663   9.706  2.0189  1.6097  0.4423
  923MOL0     H27335   5.184   1.722   9.819 -0.6695  1.5703 -2.4978
  923MOL0     H27336   4.649   1.370   9.727  0.2440  0.7106 -0.2983
  923MOL0     H27337   4.498   1.308   9.513 -0.4083  0.4308 -3.7231
  923MOL0     H27338   4.522   1.529   9.117 -2.7573 -2.1060 -1.2197
  923MOL0     H27339   4.686   1.440   9.137  0.1757  0.5337  2.2500
  923MOL0     H27340   4.594   1.238   9.083 -2.4149 -0.7471  2.5692
  923MOL0     H27341   4.427   1.297   9.087  0.1389  1.8833  2.9648
  923MOL0     H27342   4.636   1.411   8.885  2.3662 -3.1488  0.3769
  923MOL0     H27343   4.466   1.431   8.898  0.3909  1.0745 -0.3042
  923MOL0     H27344   4.458   1.167   8.840  1.4442 -2.3692  0.7149
  923MOL0     H27345   4.635   1.172   8.850  0.0827  0.6047  1.5427
  923MOL0     H27346   4.466   1.202   8.611 -0.9190  1.5709 -1.3514
  923MOL0     H27347   4.518   1.371   8.661  3.0142  1.4885  2.8135
  923MOL0     H27348   4.704   1.135   8.598  0.3126  0.4172  2.4475
  923MOL0     H27349   4.758   1.298   8.640  0.3614 -0.6236  1.0056
  923MOL0     H27350   4.620   1.380   8.448 -1.7830 -0.3558  0.0172
  923MOL0     H27351   4.618   1.207   8.396  0.0707  0.3710  0.0399
  923MOL0     H27352   4.864   1.369   8.477 -1.5152  0.2555  0.3018
  923MOL0     H27353   4.816   1.368   8.310 -1.9782  0.5324  1.0558
  923MOL0     H27354   4.760   1.563   9.279  0.1259 -1.1445 -1.0061
  923MOL0     H27355   4.892   1.605   9.462 -1.3124  0.6685 -1.0664
  923MOL0     H27356   5.031   1.208   9.925 -0.3856  0.4242 -5.3882
  923MOL0     H27357   5.270   1.198  10.035  0.0752 -0.6500  1.0631
  923MOL0     H27358   4.604   2.887  10.365  0.0101 -0.3188 -0.7631
  923MOL0     H27359   4.514   3.059  10.474 -0.5811  1.7370 -4.2959
  923MOL0     H27360   4.607   3.490  10.874  1.3150 -2.1636 -0.9733
  923MOL0     H27361   4.420   3.677  10.911  1.1810 -1.7483 -0.7388
  923MOL0     H27362   4.245   3.869  10.604 -0.2738  1.2436  0.8151
  923MOL0     H27363   4.139   3.747  10.568  1.1829  1.6384 -2.6272
  923MOL0     H27364   4.087   3.941  10.801 -1.2499 -1.6922  2.0564
  923MOL0     H27365   3.992   3.793  10.772 -0.5639 -1.3970 -2.3530
  923MOL0     H27366   3.936   3.857  10.568 -0.2229 -2.1324  3.2142
  923MOL0     H27367   3.880   3.985  10.688  1.3692  2.2394  2.1846
  923MOL0     H27368   3.924   4.115  10.522 -1.5644 -2.1861 -3.1072
  923MOL0     H27369   4.053   4.004  10.442  0.9789 -1.0635  1.1350
  923MOL0     H27370   4.279   4.297  10.649 -0.3516  2.6560 -4.6972
  923MOL0     H27371   4.275   3.599  10.524  2.7301 -0.0491 -1.4067
  923MOL0     H27372   4.398   3.488  10.358 -2.6943  0.0241  1.0982
  923MOL0     H27373   4.566   3.441  10.390 -1.4062  0.9978 -1.3688
  923MOL0     H27374   4.441   3.327  10.424  2.8884 -0.5596 -1.4949
  924MOL0     O27375   4.761   1.566  10.205 -0.5068  0.4559 -0.6766
  924MOL0     C27376   4.792   1.460  10.258  0.0744  0.0490 -2.5203
  924MOL0     O27377   4.726   1.336  10.255 -0.1885 -0.3101  0.3754
  924MOL0     C27378   4.633   1.314  10.159  0.4743  0.3561  0.4858
  924MOL0     C27379   4.506   1.376  10.157 -0.3666  0.1546 -0.4341
  924MOL0     C27380   4.403   1.334  10.070 -0.5788 -0.4585  0.1833
  924MOL0     C27381   4.427   1.232   9.984  0.1396  0.1816  0.1198
  924MOL0     O27382   4.320   1.194   9.902  0.4878 -0.4170  0.4105
  924MOL0     C27383   4.300   1.048   9.875 -0.2963 -0.4043 -0.1531
  924MOL0     C27384   4.179   1.028   9.783 -0.9983  0.5064 -0.3778
  924MOL0     C27385   4.043   1.077   9.823  0.2496 -0.2708  0.2014
  924MOL0     C27386   4.032   1.226   9.785 -0.0541  0.1173 -0.7388
  924MOL0     C27387   3.900   1.278   9.837 -0.1111  0.0186  0.1130
  924MOL0     C27388   3.795   1.278   9.725  0.1348  0.4207  0.1071
  924MOL0     C27389   3.650   1.260   9.776  0.1788 -0.0042  0.2682
  924MOL0     C27390   3.542   1.262   9.665 -0.2306  0.1328 -0.6304
  924MOL0     N27391   3.440   1.154   9.692  0.4873 -0.0481  0.0195
  924MOL0     C27392   3.309   1.176   9.726  0.7582  0.5324 -0.4467
  924MOL0     C27393   3.242   1.057   9.718 -0.0297 -0.5351  0.2561
  924MOL0     C27394   3.093   1.037   9.742 -0.8494  0.4265 -0.3286
  924MOL0     C27395   3.015   1.119   9.643  0.6260  0.5704  0.3122
  924MOL0     C27396   2.863   1.117   9.691 -0.1172  0.5924  1.1391
  924MOL0     C27397   2.792   0.970   9.683  0.3267  0.1594 -0.0905
  924MOL0     O27398   2.653   0.992   9.711 -0.6064  0.8674 -0.3998
  924MOL0     C27399   2.559   0.891   9.695  0.1564 -0.1599  0.9717
  924MOL0     C27400   2.435   0.941   9.671  0.4604  0.2569 -0.6812
  924MOL0     C27401   2.324   0.863   9.634 -0.2113 -0.1609  0.0738
  924MOL0     C27402   2.187   0.929   9.618  0.8240  0.4302  0.0307
  924MOL0     C27403   2.341   0.728   9.608  0.0995  0.7060 -0.7990
  924MOL0     C27404   2.243   0.626   9.560  1.0031  0.0570 -0.2857
  924MOL0     O27405   2.130   0.672   9.497 -0.1078  0.0400 -0.1517
  924MOL0     C27406   2.020   0.606   9.454 -1.0533  0.0030  0.7094
  924MOL0     C27407   1.961   0.651   9.336 -0.6572  1.2841  0.0562
  924MOL0     C27408   1.836   0.594   9.291 -0.1192 -0.1158  0.0610
  924MOL0     C27409   1.771   0.494   9.372  0.0911  0.0219 -0.4962
  924MOL0     O27410   1.652   0.432   9.355  0.9909  0.0074 -0.3475
  924MOL0     C27411   1.569   0.494   9.254 -0.1303  0.4996 -0.0960
  924MOL0     C27412   1.423   0.444   9.259 -0.7708  0.2677 -1.0953
  924MOL0     C27413   1.336   0.520   9.159 -0.3827 -0.2667 -0.6335
  924MOL0     C27414   1.305   0.669   9.190 -1.0689 -0.5913  0.5328
  924MOL0     C27415   1.208   0.716   9.077 -0.1460 -0.2836 -0.8726
  924MOL0     C27416   1.197   0.871   9.083 -0.3074  0.5638  0.1346
  924MOL0     C27417   1.080   0.924   8.991 -0.2751  0.0090 -0.7844
  924MOL0     C27418   0.946   0.872   9.051 -0.7631 -0.4983  0.4419
  924MOL0    Cl27419   0.815   0.918   8.927  0.2166 -0.5823 -0.4623
  924MOL0     C27420   1.827   0.455   9.491 -0.2620 -0.3658 -0.7847
  924MOL0     C27421   1.954   0.509   9.533  0.5844  0.8183  1.0765
  924MOL0     O27422   2.258   0.508   9.585  0.4821 -0.4075 -0.1894
  924MOL0     C27423   2.472   0.674   9.633  0.1301 -0.5242  0.5659
  924MOL0     C27424   2.582   0.750   9.680  0.2855 -0.5062 -0.4017
  924MOL0     N27425   3.337   0.959   9.694  0.2560 -0.4286 -0.8956
  924MOL0     N27426   3.448   1.024   9.660 -0.2526  0.1124  0.6520
  924MOL0     C27427   4.553   1.177   9.969 -0.2441 -0.9789 -0.5329
  924MOL0     C27428   4.656   1.219  10.055  0.5214 -0.9228  0.1111
  924MOL0     C27429   4.908   1.476  10.353 -0.1557 -0.9794  0.1276
  924MOL0     C27430   4.954   1.349  10.403 -0.0731  0.9773 -0.3003
  924MOL0     C27431   5.064   1.338  10.491 -0.3652 -0.3770 -0.2531
  924MOL0     C27432   5.132   1.455  10.526 -0.6336  1.3733 -1.5540
  924MOL0     O27433   5.228   1.465  10.625  0.1221  0.1281 -0.2789
  924MOL0     C27434   5.307   1.344  10.669 -0.8397 -0.5022  0.4193
  924MOL0     C27435   5.441   1.372  10.744  0.4746  0.1752  0.5897
  924MOL0     C27436   5.505   1.247  10.798  0.4048  0.9667  0.1666
  924MOL0     C27437   5.649   1.206  10.753  0.1566  0.2561 -0.0318
  924MOL0     C27438   5.647   1.136  10.623  0.1985 -0.1330 -0.1808
  924MOL0     C27439   5.630   1.083  10.515  0.3012  0.7858  0.3697
  924MOL0     C27440   5.091   1.578  10.471  0.5112  0.5236  0.5552
  924MOL0     C27441   4.984   1.593  10.381 -0.8497  0.5295 -0.6169
  924MOL0     C27442   4.951   1.734  10.332  0.2574 -0.3744 -0.4214
  924MOL0     H27443   4.486   1.458  10.225 -1.1784  1.7626 -2.5366
  924MOL0     H27444   4.303   1.372  10.087 -1.0648  0.8972 -4.3184
  924MOL0     H27445   4.275   0.990   9.965 -0.0841  1.3980  1.1267
  924MOL0     H27446   4.399   1.010   9.848  1.1290  2.7430  0.2725
  924MOL0     H27447   4.203   1.066   9.683 -0.8885  0.8004 -0.2410
  924MOL0     H27448   4.169   0.920   9.769 -0.5320  0.8221 -3.9554
  924MOL0     H27449   3.976   1.010   9.769 -1.1594 -1.3446  3.0874
  924MOL0     H27450   4.014   1.058   9.927  1.7833 -3.9563  0.0840
  924MOL0     H27451   4.111   1.285   9.833 -0.1846 -0.0418 -0.3201
  924MOL0     H27452   4.038   1.236   9.677 -0.4326 -0.2141 -0.7957
  924MOL0     H27453   3.909   1.377   9.883  0.3826 -0.4555  1.0783
  924MOL0     H27454   3.869   1.216   9.921 -0.9673 -0.4499 -0.5338
  924MOL0     H27455   3.798   1.361   9.654 -3.3631 -2.2672 -3.7142
  924MOL0     H27456   3.810   1.191   9.660 -2.4136  2.6301 -3.9076
  924MOL0     H27457   3.632   1.327   9.861  2.1430  1.6254 -0.5208
  924MOL0     H27458   3.658   1.159   9.816  0.4288 -0.3915 -0.7189
  924MOL0     H27459   3.496   1.361   9.661  0.6242  0.6042  0.6910
  924MOL0     H27460   3.581   1.247   9.564 -2.1219 -2.3179 -1.1286
  924MOL0     H27461   3.256   1.270   9.735 -0.8639 -0.2148 -1.6181
  924MOL0     H27462   3.074   1.060   9.847  0.6224 -0.4708  0.1639
  924MOL0     H27463   3.066   0.931   9.749  2.4580 -0.3999  2.3870
  924MOL0     H27464   3.060   1.219   9.641  4.2074 -0.5620  5.1997
  924MOL0     H27465   3.010   1.076   9.542 -0.6031 -1.4617  1.1810
  924MOL0     H27466   2.868   1.151   9.795  0.4917  1.0180  0.9783
  924MOL0     H27467   2.816   1.194   9.629  0.0262 -2.0373 -2.5651
  924MOL0     H27468   2.818   0.921   9.588  4.4488  0.6739  0.5799
  924MOL0     H27469   2.843   0.910   9.759  0.3431  0.0768 -0.1675
  924MOL0     H27470   2.420   1.048   9.673 -0.7992  0.0815  0.7239
  924MOL0     H27471   2.172   0.943   9.511 -1.8251 -3.2578 -0.2634
  924MOL0     H27472   2.191   1.017   9.683  3.4601 -0.6495  1.5042
  924MOL0     H27473   2.108   0.862   9.654  1.3252  0.6413  1.6261
  924MOL0     H27474   2.012   0.717   9.267 -2.0923  2.6939  0.2576
  924MOL0     H27475   1.793   0.642   9.203  0.4430 -0.2931 -0.3214
  924MOL0     H27476   1.576   0.602   9.269  0.5124  0.4997 -0.3679
  924MOL0     H27477   1.609   0.467   9.156 -0.3756 -2.4605  0.5343
  924MOL0     H27478   1.422   0.345   9.213 -0.0071 -1.1299  1.6650
  924MOL0     H27479   1.378   0.446   9.358 -0.2429 -1.3307 -0.7870
  924MOL0     H27480   1.238   0.472   9.166 -2.0934  2.7420 -1.8454
  924MOL0     H27481   1.376   0.516   9.057  0.2981 -1.4328 -0.3358
  924MOL0     H27482   1.393   0.731   9.169 -1.3787  0.2961  1.7736
  924MOL0     H27483   1.282   0.695   9.293 -1.1226  1.3426  0.0761
  924MOL0     H27484   1.275   0.692   8.993  4.1796 -2.6435  2.8112
  924MOL0     H27485   1.118   0.656   9.091  1.3267 -2.0526  1.6938
  924MOL0     H27486   1.290   0.915   9.046  0.5611 -1.6710 -0.5053
  924MOL0     H27487   1.185   0.900   9.188  4.8536  1.8323  0.6653
  924MOL0     H27488   1.100   0.897   8.887  1.8047  3.4330 -1.4341
  924MOL0     H27489   1.081   1.033   8.994  1.2007  0.0210 -1.4165
  924MOL0     H27490   0.900   0.918   9.138 -4.0489 -1.3453 -0.7019
  924MOL0     H27491   0.946   0.763   9.058  3.8516 -0.7453 -0.2705
  924MOL0     H27492   1.769   0.389   9.554  0.0292 -0.9830 -1.1539
  924MOL0     H27493   1.998   0.455   9.616  0.8976  0.7999  0.8973
  924MOL0     H27494   2.485   0.567   9.621 -1.4267 -0.5852 -0.9974
  924MOL0     H27495   2.680   0.708   9.699  1.3211  2.0879  0.4938
  924MOL0     H27496   4.590   1.125   9.882 -1.6188  0.9225 -2.3485
  924MOL0     H27497   4.754   1.177  10.034  1.9362  1.9435  0.5461
  924MOL0     H27498   4.896   1.263  10.374  0.2099  0.7436 -0.1834
  924MOL0     H27499   5.102   1.240  10.519 -0.0791  0.5232  2.8739
  924MOL0     H27500   5.247   1.294  10.745  0.1984 -2.0141  0.2751
  924MOL0     H27501   5.319   1.278  10.583 -4.5259 -0.3533 -0.3460
  924MOL0     H27502   5.418   1.450  10.816  0.9333  2.0994 -1.2375
  924MOL0     H27503   5.515   1.423  10.681 -0.2913 -1.8543 -2.1412
  924MOL0     H27504   5.519   1.260  10.905  2.8175  0.4951 -0.0401
  924MOL0     H27505   5.442   1.159  10.778  3.3370 -1.0662 -0.9603
  924MOL0     H27506   5.698   1.137  10.822 -0.3316  0.8605  0.9485
  924MOL0     H27507   5.716   1.292  10.762 -0.9845  0.9488  3.0218
  924MOL0     H27508   5.593   1.025  10.433  0.0682  2.3084 -0.6333
  924MOL0     H27509   5.149   1.667  10.493  1.3093 -0.4297  2.5540
  924MOL0     H27510   4.841   1.741  10.332  0.3363  2.2893  0.9766
  924MOL0     H27511   4.986   1.826  10.380  0.5798  0.4702 -2.1883
  924MOL0     H27512   4.983   1.758  10.231 -0.8375  5.0405  0.1983
  925MOL0     O27513   0.726   5.807   1.973 -0.9450  0.0510  0.1566
  925MOL0     C27514   0.736   5.921   1.934  0.5313 -0.7563 -0.0723
  925MOL0     O27515   0.831   5.968   1.847  0.3885 -0.2368 -0.7289
  925MOL0     C27516   0.920   5.901   1.765  1.3960  0.6223  0.0600
  925MOL0     C27517   1.022   5.974   1.705  0.0101  0.4071  1.1605
  925MOL0     C27518   1.121   5.910   1.629  0.6196 -0.8033 -0.3141
  925MOL0     C27519   1.120   5.767   1.629 -0.5900  0.7188  0.1774
  925MOL0     O27520   1.220   5.687   1.571  0.2225 -0.0769  0.2565
  925MOL0     C27521   1.355   5.715   1.601  1.0213  0.5440  0.0892
  925MOL0     C27522   1.374   5.659   1.740  0.0498  0.3395  0.2547
  925MOL0     C27523   1.518   5.644   1.793 -0.0158 -0.0709  0.0830
  925MOL0     C27524   1.579   5.509   1.780 -0.0179  0.0229 -0.6708
  925MOL0     C27525   1.552   5.440   1.648 -0.0055  0.3864 -0.0994
  925MOL0     C27526   1.615   5.296   1.642  0.1714 -0.3289 -0.2144
  925MOL0     C27527   1.547   5.208   1.530 -0.4951 -0.0653  0.6769
  925MOL0     C27528   1.585   5.066   1.541  0.6093 -0.0498 -0.2239
  925MOL0     N27529   1.729   5.049   1.533 -0.5343 -0.7535 -0.1908
  925MOL0     C27530   1.798   5.021   1.420 -0.4481 -0.1155  0.1823
  925MOL0     C27531   1.915   4.965   1.459 -0.2854 -0.4242  0.2081
  925MOL0     C27532   2.056   4.948   1.395  0.6723 -0.1416  0.4424
  925MOL0     C27533   2.142   5.059   1.437 -0.0523  0.5174  0.8366
  925MOL0     C27534   2.087   5.198   1.385 -0.0359 -0.6572 -0.2079
  925MOL0     C27535   2.065   5.195   1.238  0.2876  0.1417  0.1260
  925MOL0     O27536   2.077   5.320   1.161  0.3060 -0.6829 -0.8184
  925MOL0     C27537   1.973   5.415   1.163 -0.0878 -0.3178  0.9939
  925MOL0     C27538   1.997   5.535   1.097 -0.3951  1.2126  0.7496
  925MOL0     C27539   1.909   5.640   1.096  0.8248  0.7406 -0.8488
  925MOL0     C27540   1.947   5.763   1.026 -0.8083 -0.0100 -0.2011
  925MOL0     C27541   1.780   5.626   1.155  0.1140  0.0363 -0.3903
  925MOL0     C27542   1.679   5.735   1.169  0.3589  0.2573  0.1684
  925MOL0     O27543   1.602   5.741   1.287  0.7010 -0.2904  0.0862
  925MOL0     C27544   1.541   5.861   1.305  0.8431  1.1838  0.1955
  925MOL0     C27545   1.603   5.981   1.332 -0.1384  0.4152  0.2475
  925MOL0     C27546   1.526   6.101   1.338 -0.2340 -0.7231 -0.5083
  925MOL0     C27547   1.391   6.092   1.330  1.2610 -0.1143  0.6600
  925MOL0     O27548   1.337   6.218   1.353  0.0304  0.4229 -0.0825
  925MOL0     C27549   1.194   6.233   1.329  0.8634 -0.0139  0.2505
  925MOL0     C27550   1.149   6.377   1.347 -0.2598  0.1046  0.4576
  925MOL0     C27551   0.999   6.394   1.318  0.0570  0.2410 -0.3313
  925MOL0     C27552   0.969   6.527   1.376 -0.0519  0.0315  0.0593
  925MOL0     C27553   0.836   6.583   1.312 -0.4386 -0.0173 -0.5185
  925MOL0     C27554   0.711   6.539   1.395  0.5022 -0.4215  0.3058
  925MOL0     C27555   0.653   6.411   1.357  0.4670 -0.5018 -0.3641
  925MOL0     C27556   0.496   6.412   1.375 -0.1278  0.4125 -0.4618
  925MOL0    Cl27557   0.421   6.250   1.333  0.0921  0.2802  0.1990
  925MOL0     C27558   1.321   5.968   1.304  0.6944 -0.4351 -0.9790
  925MOL0     C27559   1.403   5.855   1.292  0.7806  0.0228 -0.2834
  925MOL0     O27560   1.667   5.813   1.074 -0.3898 -0.1329 -0.4792
  925MOL0     C27561   1.756   5.501   1.227 -0.3254  0.3355 -0.6767
  925MOL0     C27562   1.854   5.403   1.241  0.5624  0.6603  0.8008
  925MOL0     N27563   1.902   4.948   1.593  0.3079  0.9350 -0.4191
  925MOL0     N27564   1.796   5.005   1.638 -0.1655 -0.1489 -0.3917
  925MOL0     C27565   1.018   5.697   1.694  0.0981 -0.0203  0.2852
  925MOL0     C27566   0.917   5.758   1.762 -0.0825 -0.9372  0.4940
  925MOL0     C27567   0.645   6.021   1.998  0.0711  0.0474 -0.7437
  925MOL0     C27568   0.707   6.146   2.015 -0.0699  0.2151 -0.4464
  925MOL0     C27569   0.627   6.250   2.071  0.6875 -0.0068 -0.0613
  925MOL0     C27570   0.492   6.232   2.112 -0.0433 -0.1369 -0.3337
  925MOL0     O27571   0.434   6.350   2.149  0.1784  0.3897 -0.2088
  925MOL0     C27572   0.300   6.344   2.191  0.2276 -0.0150 -0.9581
  925MOL0     C27573   0.245   6.481   2.224  0.5708 -0.5163 -0.6366
  925MOL0     C27574   0.174   6.486   2.368 -0.7302  0.2441  0.9126
  925MOL0     C27575   0.233   6.604   2.444 -0.0350 -0.0208  0.4875
  925MOL0     C27576   0.216   6.593   2.593  1.2417  0.6966 -0.3240
  925MOL0     C27577   0.204   6.582   2.714  0.9778 -0.2106 -0.1619
  925MOL0     C27578   0.442   6.105   2.097  1.2253 -0.5347 -0.2830
  925MOL0     C27579   0.510   6.000   2.036 -0.8181  0.1928  0.0316
  925MOL0     C27580   0.432   5.869   2.012  0.2240  0.1835 -0.8433
  925MOL0     H27581   1.017   6.082   1.698  1.8750  0.4474 -0.7517
  925MOL0     H27582   1.203   5.966   1.583 -0.0675  0.2441 -0.2861
  925MOL0     H27583   1.379   5.821   1.592 -3.5041  1.9149  1.3793
  925MOL0     H27584   1.427   5.659   1.540  1.3485 -0.4239  1.3094
  925MOL0     H27585   1.330   5.728   1.812 -0.9166 -0.2209  0.2218
  925MOL0     H27586   1.332   5.558   1.745  3.0870 -1.0336  0.4185
  925MOL0     H27587   1.583   5.723   1.755  0.0132  0.3049  0.8879
  925MOL0     H27588   1.520   5.659   1.902 -1.6497  1.2899 -0.0502
  925MOL0     H27589   1.686   5.518   1.795  0.2364  1.6137 -2.8911
  925MOL0     H27590   1.541   5.449   1.863 -0.0797  2.3806  1.1010
  925MOL0     H27591   1.591   5.497   1.563  1.2063 -0.8082 -0.3850
  925MOL0     H27592   1.443   5.437   1.637 -0.1191  2.7009 -0.0366
  925MOL0     H27593   1.723   5.304   1.627  0.2395 -0.8414 -0.0109
  925MOL0     H27594   1.586   5.245   1.734 -0.7983  0.9027  0.1808
  925MOL0     H27595   1.583   5.239   1.432 -0.3129 -0.1792  0.7077
  925MOL0     H27596   1.438   5.217   1.535 -0.8788 -3.4899  0.6718
  925MOL0     H27597   1.552   5.033   1.641  0.2556  1.0094  0.0163
  925MOL0     H27598   1.528   4.999   1.475 -0.4697 -2.7482  3.1161
  925MOL0     H27599   1.755   5.049   1.324 -2.4206 -1.3465  0.6525
  925MOL0     H27600   2.043   4.952   1.286  1.4779 -0.2775  0.3339
  925MOL0     H27601   2.107   4.855   1.422 -2.9829 -2.1308  1.0902
  925MOL0     H27602   2.154   5.057   1.545 -1.3998  1.4405  1.0215
  925MOL0     H27603   2.245   5.048   1.402  0.4599  3.5308  1.1197
  925MOL0     H27604   1.997   5.220   1.443  1.6690  0.5146  2.1841
  925MOL0     H27605   2.166   5.270   1.410  1.3358 -1.6706 -1.3987
  925MOL0     H27606   2.140   5.124   1.200 -0.0661  0.3849 -1.0958
  925MOL0     H27607   1.967   5.148   1.223 -0.1037  1.3826 -1.5140
  925MOL0     H27608   2.099   5.543   1.059 -0.7180 -1.0193 -0.7474
  925MOL0     H27609   2.048   5.735   0.994 -0.4011  0.8420  0.3351
  925MOL0     H27610   1.954   5.842   1.101 -2.4542 -1.3995  1.4921
  925MOL0     H27611   1.882   5.808   0.950  1.7385  0.2159 -2.4173
  925MOL0     H27612   1.712   5.984   1.332 -0.0708  1.5679  3.4116
  925MOL0     H27613   1.567   6.200   1.356  1.6093 -1.1734 -1.9755
  925MOL0     H27614   1.183   6.188   1.229  2.7586  0.7723 -0.3641
  925MOL0     H27615   1.137   6.173   1.400  1.3406  1.1420  1.6442
  925MOL0     H27616   1.162   6.401   1.452 -0.7831 -0.0178  0.5525
  925MOL0     H27617   1.216   6.432   1.279 -0.0705 -1.4617 -0.7023
  925MOL0     H27618   0.946   6.317   1.375  1.3986  0.4311  1.2485
  925MOL0     H27619   0.979   6.380   1.211  0.0486 -0.9976 -0.1818
  925MOL0     H27620   1.047   6.602   1.359  0.7158 -0.6905  0.3347
  925MOL0     H27621   0.954   6.515   1.483  0.6670  0.6271  0.2338
  925MOL0     H27622   0.823   6.692   1.310 -3.7650 -0.3204 -0.7223
  925MOL0     H27623   0.822   6.543   1.212 -2.0487 -0.6528 -0.0576
  925MOL0     H27624   0.634   6.608   1.361  0.2356  1.4458  4.1184
  925MOL0     H27625   0.718   6.569   1.500  3.3635  2.0836 -0.4387
  925MOL0     H27626   0.686   6.323   1.413 -1.6950 -1.3726 -0.3899
  925MOL0     H27627   0.671   6.398   1.250 -0.5593  0.6679 -0.6908
  925MOL0     H27628   0.452   6.489   1.311  1.4290 -0.9399 -3.3866
  925MOL0     H27629   0.474   6.440   1.478  0.5406 -2.4881  0.5916
  925MOL0     H27630   1.213   5.966   1.313  0.6625 -0.4195 -1.3619
  925MOL0     H27631   1.347   5.762   1.292  1.8313 -0.7811  3.7205
  925MOL0     H27632   1.658   5.503   1.274 -0.0911  1.1785 -0.1920
  925MOL0     H27633   1.836   5.311   1.296 -2.0830  0.0802 -0.8668
  925MOL0     H27634   1.012   5.589   1.685 -3.2702 -0.1363  2.2962
  925MOL0     H27635   0.838   5.689   1.790 -1.3613  0.2363 -0.1237
  925MOL0     H27636   0.809   6.167   1.983 -0.7690 -0.1026 -3.0521
  925MOL0     H27637   0.662   6.352   2.082  1.3040 -0.3849  1.8583
  925MOL0     H27638   0.242   6.297   2.111 -1.4288  2.1941 -1.1505
  925MOL0     H27639   0.300   6.283   2.282 -1.6415  0.8589 -0.3232
  925MOL0     H27640   0.174   6.501   2.144 -3.1427 -1.2135  2.1863
  925MOL0     H27641   0.323   6.557   2.227  0.1228 -0.0702 -0.1056
  925MOL0     H27642   0.067   6.504   2.355 -0.0668  3.2869 -1.9078
  925MOL0     H27643   0.195   6.398   2.429  2.2248  0.9660  1.0910
  925MOL0     H27644   0.204   6.703   2.407  0.8503 -0.3799 -1.2696
  925MOL0     H27645   0.341   6.604   2.427  0.3237  0.0035  2.4646
  925MOL0     H27646   0.192   6.569   2.820  0.8994  0.4637 -0.0826
  925MOL0     H27647   0.340   6.088   2.127  0.8872  0.1627 -1.0058
  925MOL0     H27648   0.342   5.859   2.073  0.2922 -0.4759 -0.8422
  925MOL0     H27649   0.392   5.866   1.910 -2.0823 -0.0813 -0.0015
  925MOL0     H27650   0.492   5.780   2.033  0.8702  1.5240  4.1852
  926MOL0     O27651   2.185   8.592   8.220 -1.0418 -0.3448  0.1230
  926MOL0     C27652   2.141   8.474   8.225 -0.0182  0.0004  0.5081
  926MOL0     O27653   2.080   8.421   8.338 -0.1623 -0.2012  0.2065
  926MOL0     C27654   2.078   8.496   8.454 -0.8763  1.7068  0.5477
  926MOL0     C27655   2.133   8.434   8.562  0.8787  0.1385 -0.5927
  926MOL0     C27656   2.135   8.510   8.687  0.5944 -0.0744 -0.8747
  926MOL0     C27657   2.098   8.650   8.690 -0.0304  0.1859 -0.5129
  926MOL0     O27658   2.134   8.730   8.800 -0.4152 -0.4495  0.3108
  926MOL0     C27659   2.099   8.686   8.932 -0.5184 -0.5223 -0.0238
  926MOL0     C27660   2.217   8.627   9.012  0.6069  0.1251  0.2863
  926MOL0     C27661   2.328   8.730   9.037  0.5448 -0.5784  0.0179
  926MOL0     C27662   2.445   8.716   8.942  0.1413 -0.1122  0.5347
  926MOL0     C27663   2.530   8.591   8.975  0.9076 -0.9963 -0.0653
  926MOL0     C27664   2.573   8.498   8.859  0.2157  0.6852 -0.5067
  926MOL0     C27665   2.519   8.352   8.894 -0.9038  0.2034 -0.0048
  926MOL0     C27666   2.503   8.277   8.762 -0.4446  0.3171  0.6580
  926MOL0     N27667   2.630   8.202   8.738 -0.0783  0.2958 -0.3024
  926MOL0     C27668   2.757   8.249   8.698  0.2786  0.0533  0.1693
  926MOL0     C27669   2.828   8.139   8.658 -0.0512  0.1981 -0.5681
  926MOL0     C27670   2.961   8.117   8.582  0.8368 -0.0325  0.2041
  926MOL0     C27671   3.069   8.212   8.614  0.2419  0.1017 -0.8688
  926MOL0     C27672   3.187   8.180   8.516 -0.3550 -0.6561  0.0424
  926MOL0     C27673   3.298   8.288   8.531 -0.6981 -0.0043 -0.5134
  926MOL0     O27674   3.267   8.423   8.488  0.3692  0.1475 -0.1785
  926MOL0     C27675   3.205   8.426   8.363 -0.4699  0.1314 -0.1556
  926MOL0     C27676   3.257   8.365   8.246 -0.1463 -0.8257  0.0531
  926MOL0     C27677   3.196   8.364   8.117  0.1138 -0.3651 -0.3802
  926MOL0     C27678   3.271   8.306   8.004 -1.0316  0.2420  0.2965
  926MOL0     C27679   3.063   8.426   8.106 -0.6364  0.4423 -0.3347
  926MOL0     C27680   2.974   8.426   7.988  0.1648  0.0932  0.3615
  926MOL0     O27681   2.870   8.523   7.983 -0.0122 -0.8415 -0.0558
  926MOL0     C27682   2.788   8.510   7.876  0.5361 -0.0676  0.6137
  926MOL0     C27683   2.827   8.559   7.752  0.8314 -0.3615 -0.9420
  926MOL0     C27684   2.750   8.524   7.638  0.3836  0.4018  0.3250
  926MOL0     C27685   2.628   8.461   7.646  0.0850  0.1537 -0.1823
  926MOL0     O27686   2.557   8.424   7.528  0.0598 -0.8786 -1.1007
  926MOL0     C27687   2.629   8.374   7.417 -0.9219 -0.0628  0.1882
  926MOL0     C27688   2.685   8.233   7.454 -0.6413 -0.1642 -0.7185
  926MOL0     C27689   2.747   8.151   7.332  0.4352 -0.4477 -0.0944
  926MOL0     C27690   2.793   8.010   7.377  0.0553 -0.1880 -0.0550
  926MOL0     C27691   2.897   7.944   7.297  0.0000  0.3772  0.1050
  926MOL0     C27692   3.040   8.008   7.274  0.0491 -0.3772  0.3480
  926MOL0     C27693   3.133   8.017   7.397 -1.1274 -0.7631 -0.2292
  926MOL0     C27694   3.273   8.066   7.377  0.2099  0.2370  0.6630
  926MOL0    Cl27695   3.364   7.982   7.245 -0.0163  0.3396  0.3472
  926MOL0     C27696   2.584   8.422   7.773 -0.3679 -0.3456  0.2264
  926MOL0     C27697   2.666   8.442   7.883  0.6684  0.2709 -0.2017
  926MOL0     O27698   3.001   8.351   7.901 -0.0598 -0.3842  0.4471
  926MOL0     C27699   3.020   8.493   8.227 -0.6127 -0.7868  0.3861
  926MOL0     C27700   3.093   8.507   8.349 -0.3771 -0.3409  0.4554
  926MOL0     N27701   2.755   8.028   8.686  0.2832 -0.5486 -0.5832
  926MOL0     N27702   2.640   8.069   8.734 -0.3907  0.0028 -0.1996
  926MOL0     C27703   2.022   8.697   8.583 -0.8947 -0.4265 -0.4112
  926MOL0     C27704   2.027   8.622   8.461 -1.0250  0.4265 -0.7983
  926MOL0     C27705   2.139   8.396   8.093  0.1350  0.4528  0.7664
  926MOL0     C27706   2.139   8.462   7.965  0.5843 -0.1314 -0.1682
  926MOL0     C27707   2.143   8.397   7.848 -0.6116  0.2955  0.0433
  926MOL0     C27708   2.141   8.255   7.853 -0.6110  1.1901 -0.7840
  926MOL0     O27709   2.175   8.174   7.740 -0.1122  0.1720 -0.3337
  926MOL0     C27710   2.086   8.181   7.626  0.0061 -1.0883  0.3285
  926MOL0     C27711   2.054   8.048   7.565 -0.2312 -0.5737 -0.1027
  926MOL0     C27712   1.996   7.955   7.667 -0.3852  0.2371  0.4389
  926MOL0     C27713   1.979   7.801   7.626 -0.3217  0.3970  0.3213
  926MOL0     C27714   1.881   7.739   7.721  0.2852 -0.0198  0.5610
  926MOL0     C27715   1.794   7.692   7.790  0.3054 -0.1694  0.6789
  926MOL0     C27716   2.131   8.182   7.973  0.2189 -0.0519  0.2302
  926MOL0     C27717   2.125   8.253   8.096 -0.0775  0.3483  1.3466
  926MOL0     C27718   2.143   8.171   8.221  1.4194 -1.8155  0.4555
  926MOL0     H27719   2.158   8.328   8.562  0.3844  0.0151 -1.5031
  926MOL0     H27720   2.179   8.464   8.775 -3.0361 -0.5094  0.8881
  926MOL0     H27721   2.022   8.609   8.924 -0.7696 -0.0917 -2.5668
  926MOL0     H27722   2.044   8.766   8.983 -0.1281  1.5402 -2.6013
  926MOL0     H27723   2.186   8.586   9.109 -0.0263  1.2477  0.5776
  926MOL0     H27724   2.259   8.544   8.955  1.9588 -0.1956  1.6849
  926MOL0     H27725   2.287   8.831   9.026 -0.9603 -1.2518 -0.7997
  926MOL0     H27726   2.348   8.727   9.144 -0.6071 -0.6208  0.2376
  926MOL0     H27727   2.419   8.709   8.836  1.6202 -2.1551  0.2518
  926MOL0     H27728   2.513   8.802   8.948  0.6736 -0.4085 -0.8301
  926MOL0     H27729   2.469   8.539   9.049 -4.6382  1.4013 -2.3830
  926MOL0     H27730   2.618   8.626   9.028  1.2694 -0.0375 -1.2494
  926MOL0     H27731   2.531   8.527   8.762  1.3722 -1.9669 -1.9204
  926MOL0     H27732   2.682   8.490   8.856  0.2309 -2.5806  2.7283
  926MOL0     H27733   2.433   8.357   8.960 -1.9180  0.0913 -1.2822
  926MOL0     H27734   2.595   8.297   8.950 -0.0724  0.7631 -0.5411
  926MOL0     H27735   2.419   8.208   8.774 -1.9066  1.8890 -0.2431
  926MOL0     H27736   2.480   8.340   8.676 -0.6047  0.9331  1.1477
  926MOL0     H27737   2.775   8.355   8.680 -4.3320  0.9304 -0.5328
  926MOL0     H27738   2.934   8.128   8.477  1.2923 -0.9492 -0.0161
  926MOL0     H27739   2.988   8.013   8.601 -0.6590 -0.2264  1.5071
  926MOL0     H27740   3.044   8.317   8.596 -1.9790 -0.5369 -1.9879
  926MOL0     H27741   3.105   8.201   8.716 -0.6535  1.0840 -0.4326
  926MOL0     H27742   3.232   8.082   8.533  0.6603 -0.0427  0.9303
  926MOL0     H27743   3.151   8.173   8.412  0.0683  1.2216 -0.2643
  926MOL0     H27744   3.325   8.295   8.636  1.6127 -0.8170 -0.9949
  926MOL0     H27745   3.387   8.245   8.484 -1.5087 -5.4707  2.0772
  926MOL0     H27746   3.351   8.311   8.258 -0.3191 -1.5323 -1.5535
  926MOL0     H27747   3.224   8.207   8.000 -1.9820  0.6656  0.6215
  926MOL0     H27748   3.377   8.308   8.030 -0.1875 -1.1039 -2.6377
  926MOL0     H27749   3.252   8.358   7.910 -1.1878 -5.5654 -3.3878
  926MOL0     H27750   2.914   8.624   7.753 -0.3270  1.3176  1.6994
  926MOL0     H27751   2.798   8.562   7.548  0.8065 -0.8366  0.0082
  926MOL0     H27752   2.548   8.359   7.346 -2.6199 -1.1486  2.2327
  926MOL0     H27753   2.703   8.442   7.374  0.2006 -1.8783 -0.8511
  926MOL0     H27754   2.764   8.240   7.529 -0.1553  1.6694 -1.3657
  926MOL0     H27755   2.603   8.173   7.496  0.1368 -0.4621  0.4271
  926MOL0     H27756   2.829   8.201   7.282 -0.5586  1.5103  0.1488
  926MOL0     H27757   2.665   8.137   7.261 -3.4962  1.8542  3.4734
  926MOL0     H27758   2.708   7.944   7.395  0.3810 -0.4370  0.5879
  926MOL0     H27759   2.839   8.024   7.475  1.4225 -2.9816 -0.2236
  926MOL0     H27760   2.906   7.846   7.344 -2.0314 -0.5432 -1.2439
  926MOL0     H27761   2.858   7.927   7.196  0.5729 -1.7367  0.1887
  926MOL0     H27762   3.027   8.103   7.222  0.2950  0.1944  1.3166
  926MOL0     H27763   3.099   7.947   7.205  0.1537  0.2650 -0.1367
  926MOL0     H27764   3.146   7.916   7.436  0.9346 -1.0279 -1.4543
  926MOL0     H27765   3.093   8.084   7.475  1.7936 -0.8728  1.5359
  926MOL0     H27766   3.334   8.073   7.468  2.2108 -1.6433 -0.4514
  926MOL0     H27767   3.254   8.162   7.328 -0.9467  0.6793  1.9188
  926MOL0     H27768   2.485   8.379   7.781 -0.0925 -0.6860  2.5308
  926MOL0     H27769   2.628   8.414   7.981  0.7609 -3.0086 -1.0088
  926MOL0     H27770   2.929   8.553   8.227 -1.2100 -1.6172  2.3339
  926MOL0     H27771   3.049   8.571   8.425 -1.0697  1.6356 -1.5133
  926MOL0     H27772   1.988   8.800   8.575 -0.7136 -0.4722 -5.8877
  926MOL0     H27773   1.973   8.678   8.385 -0.0392  3.0531  0.3088
  926MOL0     H27774   2.123   8.569   7.954 -1.2352 -0.3391  0.1562
  926MOL0     H27775   2.160   8.461   7.761  1.1140 -1.8398 -1.2954
  926MOL0     H27776   1.986   8.219   7.649 -0.0259  0.8144 -2.4364
  926MOL0     H27777   2.127   8.238   7.542 -1.0825 -0.0806  0.4624
  926MOL0     H27778   2.147   8.009   7.521 -1.4579 -0.4920 -3.0375
  926MOL0     H27779   1.994   8.053   7.474  1.2373 -2.7476 -1.3097
  926MOL0     H27780   2.058   7.955   7.758 -1.4893 -3.2041  1.3344
  926MOL0     H27781   1.896   7.992   7.690 -0.8709 -2.2020  2.7644
  926MOL0     H27782   2.077   7.752   7.622  0.5331  2.0558 -1.5143
  926MOL0     H27783   1.939   7.788   7.525  3.0866  1.3559 -1.3123
  926MOL0     H27784   1.710   7.661   7.849 -0.2475  0.5202  0.2696
  926MOL0     H27785   2.131   8.074   7.968  1.7395 -0.0849  0.5655
  926MOL0     H27786   2.045   8.183   8.266  0.1181  2.7595 -2.8894
  926MOL0     H27787   2.174   8.070   8.193 -1.4067 -2.5819 -0.1832
  926MOL0     H27788   2.209   8.216   8.296  0.2279 -3.1088  2.3646
  927MOL0     O27789   6.414   4.797  10.557 -0.1077 -0.6421 -0.2900
  927MOL0     C27790   6.381   4.918  10.569  0.8601  0.3229 -0.7986
  927MOL0     O27791   6.447   5.027  10.527 -0.4860  0.7563  0.4068
  927MOL0     C27792   6.540   5.007  10.428 -0.1507  0.1087 -0.2385
  927MOL0     C27793   6.674   4.995  10.465  0.4751  0.6579  0.0754
  927MOL0     C27794   6.773   5.001  10.363  0.1458  0.1654 -0.2118
  927MOL0     C27795   6.745   5.002  10.228 -0.2365 -0.0124  0.2448
  927MOL0     O27796   6.832   4.983  10.113 -0.7126 -0.6949  0.2353
  927MOL0     C27797   6.976   4.943  10.133  1.3754 -0.4245 -0.0054
  927MOL0     C27798   7.039   4.979   9.995  0.7211 -0.8252 -0.3825
  927MOL0     C27799   7.190   4.960   9.984  0.8445 -0.3100 -0.3320
  927MOL0     C27800   7.214   4.812  10.005 -0.6685 -0.1666  0.3210
  927MOL0     C27801   7.359   4.760   9.956  0.6191  0.0824  0.1145
  927MOL0     C27802   7.381   4.614   9.973 -0.2756  0.2677 -0.7287
  927MOL0     C27803   7.521   4.564   9.936 -0.7954 -0.4104  0.2981
  927MOL0     C27804   7.525   4.406   9.924  0.7926 -0.9313  0.8143
  927MOL0     N27805   7.666   4.382   9.938 -0.7326  0.2782  0.8065
  927MOL0     C27806   7.760   4.439   9.852 -0.1894  0.3528 -0.6642
  927MOL0     C27807   7.871   4.368   9.884  0.3232  0.9902  0.4620
  927MOL0     C27808   8.009   4.379   9.824 -0.5505 -0.7106 -0.5264
  927MOL0     C27809   8.137   4.340   9.911  0.2070 -0.0563 -1.6219
  927MOL0     C27810   8.150   4.427  10.039 -1.0190  0.7325  0.3662
  927MOL0     C27811   8.254   4.351  10.123 -0.2179 -0.2824 -0.6809
  927MOL0     O27812   8.323   4.433  10.220 -0.2377  0.6002  0.0851
  927MOL0     C27813   8.395   4.369  10.322  0.7226  0.8870  0.1962
  927MOL0     C27814   8.443   4.230  10.315 -0.5532  0.1157  0.2605
  927MOL0     C27815   8.526   4.185  10.425 -0.8502 -0.5913 -0.2126
  927MOL0     C27816   8.597   4.051  10.398 -0.0063 -0.0450 -0.0092
  927MOL0     C27817   8.560   4.273  10.535  1.2135  0.4037  0.3160
  927MOL0     C27818   8.645   4.226  10.639 -1.7110 -0.7162 -0.4598
  927MOL0     O27819   8.750   4.149  10.614 -0.0033  0.0034  0.4456
  927MOL0     C27820   8.807   4.106  10.720 -0.9865 -0.1100 -0.7614
  927MOL0     C27821   8.893   4.200  10.784 -0.7062 -0.0618 -0.4069
  927MOL0     C27822   8.957   4.164  10.907  0.6585  0.1251  0.6340
  927MOL0     C27823   8.953   4.036  10.967 -0.0816  0.1679  0.7520
  927MOL0     O27824   9.015   4.012  11.086 -0.1084  0.5126 -1.0142
  927MOL0     C27825   9.039   3.880  11.139  0.3459  0.3050  0.0944
  927MOL0     C27826   9.127   3.900  11.255  0.4610 -0.8834 -0.0806
  927MOL0     C27827   9.036   3.971  11.362  0.5564 -0.7047 -0.1758
  927MOL0     C27828   9.108   4.052  11.472 -0.2957  0.9737  0.7532
  927MOL0     C27829   9.007   4.126  11.570 -0.1018 -0.1820 -1.4400
  927MOL0     C27830   9.074   4.182  11.697  0.2389  0.1390 -0.0900
  927MOL0     C27831   9.180   4.286  11.683 -0.2725 -0.2745  0.5410
  927MOL0     C27832   9.149   4.397  11.579  1.0413 -0.6492  0.3132
  927MOL0    Cl27833   9.295   4.489  11.550  0.0332  0.3103  0.1058
  927MOL0     C27834   8.874   3.947  10.899  0.2246  0.0827  0.2239
  927MOL0     C27835   8.802   3.982  10.780  0.0743  1.0790 -1.3863
  927MOL0     O27836   8.611   4.263  10.751  0.9869  0.5537  0.0249
  927MOL0     C27837   8.493   4.401  10.540  0.1070 -0.1399  0.7011
  927MOL0     C27838   8.415   4.449  10.435 -0.3470  0.2963  0.2542
  927MOL0     N27839   7.849   4.270   9.974  0.6362  0.1810  0.2175
  927MOL0     N27840   7.723   4.278  10.009 -0.0378 -0.5651  0.9159
  927MOL0     C27841   6.604   5.014  10.199 -1.2916  0.3692  0.1777
  927MOL0     C27842   6.499   5.025  10.298  0.1238  0.0360  0.4636
  927MOL0     C27843   6.270   4.938  10.665  0.5810  0.2570 -0.1074
  927MOL0     C27844   6.263   4.852  10.774  0.9490 -0.5284  0.1818
  927MOL0     C27845   6.174   4.875  10.879  0.8097 -0.0338 -0.3855
  927MOL0     C27846   6.082   4.980  10.877 -0.7056 -0.1441 -0.0011
  927MOL0     O27847   5.993   4.996  10.973 -0.0842 -0.2056  0.1376
  927MOL0     C27848   5.897   4.891  10.987 -0.1131  0.5838 -0.0493
  927MOL0     C27849   5.793   4.883  10.877 -0.0166  0.4051  0.1505
  927MOL0     C27850   5.691   4.770  10.895  0.6967  0.3687  1.5748
  927MOL0     C27851   5.739   4.628  10.903 -1.1981 -0.0122 -0.0976
  927MOL0     C27852   5.838   4.585  10.799  0.4886 -0.6164 -0.1244
  927MOL0     C27853   5.913   4.543  10.714  0.6911 -0.1046 -0.4098
  927MOL0     C27854   6.087   5.067  10.766  0.6278 -0.1069  0.0469
  927MOL0     C27855   6.179   5.049  10.656  0.4634 -0.0727 -0.1155
  927MOL0     C27856   6.184   5.140  10.537  0.1153  1.8780 -0.2000
  927MOL0     H27857   6.703   4.992  10.569  0.1420 -1.3697  0.1516
  927MOL0     H27858   6.877   5.007  10.394  0.1926  0.3602 -0.4007
  927MOL0     H27859   6.988   4.836  10.150  0.3876 -1.1489 -3.1772
  927MOL0     H27860   7.036   4.996  10.208 -0.4139  0.7469  0.6705
  927MOL0     H27861   6.987   4.923   9.917 -2.3414  0.8334  0.3223
  927MOL0     H27862   7.022   5.085   9.973  1.9039 -0.5953 -0.2872
  927MOL0     H27863   7.216   5.003   9.887  0.0690  2.6557  0.6910
  927MOL0     H27864   7.246   5.018  10.059  0.6447  0.1980 -0.5728
  927MOL0     H27865   7.213   4.789  10.112  0.0856  1.6107  0.7423
  927MOL0     H27866   7.136   4.761   9.946 -0.4400  1.6132 -1.5975
  927MOL0     H27867   7.442   4.822   9.991  0.1278 -0.0701  1.6113
  927MOL0     H27868   7.368   4.780   9.849 -0.2490 -1.7067 -0.3336
  927MOL0     H27869   7.362   4.592  10.079 -1.6761 -1.4221 -1.2917
  927MOL0     H27870   7.305   4.559   9.917 -1.6384 -0.3628  1.5998
  927MOL0     H27871   7.584   4.588  10.023  0.9585  0.2694 -1.1001
  927MOL0     H27872   7.546   4.613   9.842 -1.9742  0.2170  0.2822
  927MOL0     H27873   7.464   4.363  10.004 -0.3947 -1.5431 -0.3761
  927MOL0     H27874   7.487   4.366   9.830  1.8386  0.4515 -0.2428
  927MOL0     H27875   7.759   4.525   9.786 -0.6713 -0.4802 -1.7888
  927MOL0     H27876   8.014   4.484   9.792  1.9845 -1.1883 -1.9537
  927MOL0     H27877   8.020   4.311   9.739 -4.2976 -3.0619  0.6350
  927MOL0     H27878   8.140   4.236   9.945 -1.4750  0.3680 -0.0421
  927MOL0     H27879   8.226   4.356   9.850  0.1608  1.4892 -1.3231
  927MOL0     H27880   8.177   4.530  10.013  3.0583  0.1211  1.4600
  927MOL0     H27881   8.061   4.433  10.101 -1.5553 -0.7764 -0.2158
  927MOL0     H27882   8.209   4.268  10.177 -0.8988  2.6171  3.7376
  927MOL0     H27883   8.336   4.302  10.069 -0.4807 -0.9527 -0.4726
  927MOL0     H27884   8.424   4.165  10.230  1.4468 -0.1613 -0.0163
  927MOL0     H27885   8.695   4.065  10.353  0.3598 -2.4200 -0.0931
  927MOL0     H27886   8.541   3.985  10.331  3.0342  1.3248 -4.3174
  927MOL0     H27887   8.592   3.995  10.492  2.1168 -0.9841 -0.4032
  927MOL0     H27888   8.915   4.299  10.745 -0.7845  0.5142  0.9445
  927MOL0     H27889   9.015   4.250  10.937 -1.4703  1.5925  0.7858
  927MOL0     H27890   8.937   3.848  11.163  0.3054  1.1206  1.0495
  927MOL0     H27891   9.074   3.813  11.060 -1.5835 -0.8485  0.1561
  927MOL0     H27892   9.165   3.809  11.301  0.5274 -0.7514  0.1303
  927MOL0     H27893   9.211   3.961  11.222 -0.0106 -1.1892 -1.9733
  927MOL0     H27894   8.974   3.895  11.409  1.3763  0.7369  3.5480
  927MOL0     H27895   8.966   4.041  11.317  2.0941 -1.4122 -4.1319
  927MOL0     H27896   9.188   4.110  11.425  1.0638 -1.2239  0.1946
  927MOL0     H27897   9.160   3.983  11.539 -1.1768 -0.1128  0.3673
  927MOL0     H27898   8.974   4.212  11.510  2.5687  2.4255  0.5233
  927MOL0     H27899   8.924   4.057  11.587  1.5325 -1.9852 -0.3231
  927MOL0     H27900   9.104   4.094  11.755  1.3656 -2.2360 -3.8762
  927MOL0     H27901   8.992   4.233  11.748  0.6606  0.7421 -0.0034
  927MOL0     H27902   9.277   4.240  11.662  1.2778  2.5381  0.9701
  927MOL0     H27903   9.195   4.338  11.778  2.2972 -0.1899  0.1419
  927MOL0     H27904   9.072   4.465  11.615  0.7214 -0.3884 -0.8105
  927MOL0     H27905   9.131   4.343  11.485  2.0307 -1.0759  0.3551
  927MOL0     H27906   8.853   3.845  10.931 -1.6425  0.6307  0.8516
  927MOL0     H27907   8.736   3.927  10.714 -0.8838  1.3604 -0.6791
  927MOL0     H27908   8.496   4.467  10.625 -2.6112 -0.0807  0.8532
  927MOL0     H27909   8.372   4.548  10.446 -1.3769  0.0441 -1.2210
  927MOL0     H27910   6.574   5.026  10.095 -0.6695  2.2802  0.1817
  927MOL0     H27911   6.396   5.054  10.281  0.3035  1.0129  0.9536
  927MOL0     H27912   6.320   4.760  10.776 -0.5642 -1.5244 -0.4469
  927MOL0     H27913   6.176   4.800  10.958  1.7366  2.1323  1.7667
  927MOL0     H27914   5.935   4.788  10.984 -3.7802 -1.0259  2.1759
  927MOL0     H27915   5.844   4.909  11.081 -2.8053  4.6083 -2.0925
  927MOL0     H27916   5.842   4.870  10.780  4.1147 -1.8120  2.2399
  927MOL0     H27917   5.734   4.974  10.885 -2.4086 -0.9698 -0.6759
  927MOL0     H27918   5.644   4.792  10.991  2.7424  0.7321  2.5263
  927MOL0     H27919   5.615   4.772  10.816  3.0435  0.6535 -0.7949
  927MOL0     H27920   5.653   4.560  10.906  2.1248 -5.4883 -5.8907
  927MOL0     H27921   5.787   4.614  11.000 -1.6959  2.1102  0.5236
  927MOL0     H27922   5.989   4.496  10.655  0.8067  0.3841 -0.6531
  927MOL0     H27923   6.015   5.147  10.757 -1.1455 -1.8472 -2.6788
  927MOL0     H27924   6.268   5.209  10.543  0.8934  0.9136  0.4249
  927MOL0     H27925   6.188   5.075  10.449  2.4651 -0.9782  1.8153
  927MOL0     H27926   6.090   5.193  10.520  0.0794  1.9189  0.1163
  928MOL0     O27927   2.977   8.492   6.831 -0.0353 -0.1360  0.4752
  928MOL0     C27928   2.920   8.384   6.854  0.1569  0.0262  0.6331
  928MOL0     O27929   2.889   8.337   6.975 -0.2335 -0.1333  0.2208
  928MOL0     C27930   2.950   8.405   7.074  0.0117 -0.0392 -0.1389
  928MOL0     C27931   2.865   8.482   7.156 -0.4439 -0.2827  0.8459
  928MOL0     C27932   2.921   8.567   7.239 -0.4304  0.7620 -0.8504
  928MOL0     C27933   3.063   8.579   7.256  1.1899  0.3865  0.0318
  928MOL0     O27934   3.099   8.662   7.357 -0.7482  0.7578  1.2110
  928MOL0     C27935   3.185   8.616   7.468  0.3389  0.6307 -0.6906
  928MOL0     C27936   3.157   8.702   7.595  0.2022  0.4363  0.9095
  928MOL0     C27937   3.223   8.662   7.716 -1.1651  0.8208  0.6583
  928MOL0     C27938   3.213   8.770   7.830  0.4917  0.3597  1.7353
  928MOL0     C27939   3.317   8.734   7.948  0.3184  0.3996 -0.2091
  928MOL0     C27940   3.464   8.767   7.917  1.3737 -0.8893 -0.5016
  928MOL0     C27941   3.549   8.709   8.022  0.0138 -0.0304 -0.0234
  928MOL0     C27942   3.696   8.711   7.974  0.7966  0.2980 -0.1532
  928MOL0     N27943   3.765   8.798   8.064  0.1129  0.1737  0.2076
  928MOL0     C27944   3.901   8.798   8.067 -0.3078  0.2872  0.2386
  928MOL0     C27945   3.942   8.891   8.149 -0.7217  0.0394 -0.6979
  928MOL0     C27946   4.074   8.954   8.167 -0.4032 -1.1615  0.6645
  928MOL0     C27947   4.196   8.865   8.183 -0.0789 -0.4726  0.7735
  928MOL0     C27948   4.331   8.937   8.205  0.7414 -0.1309  0.2028
  928MOL0     C27949   4.450   8.869   8.124  0.0434 -0.0155  0.5106
  928MOL0     O27950   4.477   8.734   8.183 -0.6663 -0.8378  0.4459
  928MOL0     C27951   4.570   8.654   8.109 -0.3972  0.2953  0.4601
  928MOL0     C27952   4.656   8.699   8.006 -0.6814 -0.6673  0.0586
  928MOL0     C27953   4.750   8.610   7.938  0.2425 -0.0228  0.2041
  928MOL0     C27954   4.829   8.671   7.822  0.4630  0.2421 -0.1982
  928MOL0     C27955   4.763   8.480   7.985  0.5595  0.6692  0.0892
  928MOL0     C27956   4.846   8.369   7.930  0.2056 -0.6411 -0.5222
  928MOL0     O27957   4.860   8.261   8.008 -0.4902  0.3540 -0.3757
  928MOL0     C27958   4.878   8.140   7.953  0.4385 -0.6387 -0.5147
  928MOL0     C27959   4.760   8.064   7.925  0.2176  0.6125 -0.5765
  928MOL0     C27960   4.762   7.957   7.851 -0.3345  0.6938  0.0770
  928MOL0     C27961   4.887   7.892   7.812  0.7137 -0.4163 -1.2087
  928MOL0     O27962   4.872   7.769   7.771  0.1871  0.5982  0.4590
  928MOL0     C27963   4.986   7.698   7.726 -1.6135  0.3688 -0.2894
  928MOL0     C27964   4.960   7.546   7.748 -0.4432  0.1316  0.5920
  928MOL0     C27965   4.870   7.486   7.644 -0.8130 -1.0130  0.9247
  928MOL0     C27966   4.837   7.337   7.671 -1.0843  0.0285  0.4820
  928MOL0     C27967   4.744   7.311   7.788  0.6690  0.8099  0.7639
  928MOL0     C27968   4.734   7.151   7.797  0.0489  0.8451 -0.4341
  928MOL0     C27969   4.625   7.127   7.906 -1.4131  0.2570  0.2490
  928MOL0     C27970   4.508   7.040   7.866  0.3107  0.6143  0.4705
  928MOL0    Cl27971   4.402   7.017   8.011  0.0095  0.1379 -0.0134
  928MOL0     C27972   5.012   7.962   7.849 -0.0499  0.6078  0.2964
  928MOL0     C27973   5.003   8.089   7.913 -0.6144 -0.0614 -0.4502
  928MOL0     O27974   4.877   8.374   7.814 -0.3886  0.9380 -0.0811
  928MOL0     C27975   4.669   8.431   8.081 -0.4140  0.0071 -0.5793
  928MOL0     C27976   4.585   8.516   8.146 -0.0889 -0.7190  0.8239
  928MOL0     N27977   3.818   8.950   8.198 -0.0416  0.2626 -0.2179
  928MOL0     N27978   3.714   8.905   8.136  0.0715  1.3831  0.6933
  928MOL0     C27979   3.143   8.489   7.188 -0.4974  0.3813 -0.5922
  928MOL0     C27980   3.087   8.402   7.101  0.0636  1.0218 -0.0414
  928MOL0     C27981   2.887   8.292   6.737 -0.5040  0.6253 -0.8795
  928MOL0     C27982   2.949   8.171   6.709 -0.0380  0.0298 -0.3277
  928MOL0     C27983   2.901   8.094   6.601 -0.4305  0.1937 -0.7793
  928MOL0     C27984   2.804   8.134   6.513 -0.5882  0.2933  0.2673
  928MOL0     O27985   2.766   8.059   6.402  0.2427  0.2822 -0.2778
  928MOL0     C27986   2.872   8.045   6.306 -0.8190 -0.3885  0.4184
  928MOL0     C27987   2.873   8.174   6.213 -0.6957 -0.4491  0.3254
  928MOL0     C27988   2.732   8.210   6.162  0.2835 -0.6056  1.2109
  928MOL0     C27989   2.751   8.326   6.061 -0.5524  0.2093 -0.0795
  928MOL0     C27990   2.611   8.342   6.020 -0.8275 -0.2331  0.2800
  928MOL0     C27991   2.494   8.366   5.991 -0.4046 -0.2592  0.2281
  928MOL0     C27992   2.752   8.260   6.529  0.3330  1.4043 -0.2664
  928MOL0     C27993   2.792   8.336   6.641 -0.3899  0.1826  0.2075
  928MOL0     C27994   2.703   8.457   6.659 -0.4624 -0.1206  0.8211
  928MOL0     H27995   2.757   8.484   7.147 -0.3003 -0.6898 -1.7527
  928MOL0     H27996   2.843   8.607   7.303 -0.6771  0.6603 -1.0816
  928MOL0     H27997   3.284   8.652   7.439  1.3896  0.9329  2.8687
  928MOL0     H27998   3.204   8.510   7.488 -1.8343  0.2593 -0.3400
  928MOL0     H27999   3.194   8.802   7.571 -3.4390  1.1438 -2.9637
  928MOL0     H28000   3.049   8.697   7.614 -0.2249 -4.2521 -1.2003
  928MOL0     H28001   3.177   8.572   7.755  2.1246 -1.4695 -0.3329
  928MOL0     H28002   3.324   8.650   7.675 -1.9153  2.4550 -1.9806
  928MOL0     H28003   3.225   8.875   7.800  0.5290  0.5470  2.3883
  928MOL0     H28004   3.113   8.750   7.868 -0.1931 -3.3984 -1.3961
  928MOL0     H28005   3.312   8.625   7.953  1.4955  0.2573 -1.4468
  928MOL0     H28006   3.305   8.791   8.041  3.1309 -0.5867  0.8510
  928MOL0     H28007   3.490   8.727   7.818 -3.1339 -1.3821 -1.6860
  928MOL0     H28008   3.467   8.876   7.927  1.4583 -1.0753  2.2036
  928MOL0     H28009   3.534   8.605   8.050 -1.7987  0.2071  0.0577
  928MOL0     H28010   3.534   8.766   8.114  0.8672 -0.0256  0.1204
  928MOL0     H28011   3.731   8.608   7.967  1.3076  0.5280 -1.1946
  928MOL0     H28012   3.703   8.754   7.873 -2.4741 -1.2420 -1.1565
  928MOL0     H28013   3.969   8.738   8.007  0.4903  3.1277 -1.9446
  928MOL0     H28014   4.068   9.022   8.252  0.9039  2.1362 -1.6664
  928MOL0     H28015   4.097   9.023   8.085  1.9403 -0.4793  1.7897
  928MOL0     H28016   4.178   8.811   8.277  0.5631  1.7724  2.2713
  928MOL0     H28017   4.208   8.801   8.096  2.9873  0.9885 -0.0129
  928MOL0     H28018   4.311   9.039   8.174  0.7362  0.8204  3.0509
  928MOL0     H28019   4.346   8.940   8.313 -1.4756  3.4234  0.5710
  928MOL0     H28020   4.420   8.850   8.020  0.1897  1.6214  0.1278
  928MOL0     H28021   4.532   8.941   8.127 -2.1965  2.9932 -2.2570
  928MOL0     H28022   4.645   8.802   7.972 -1.7615 -1.5470 -2.5342
  928MOL0     H28023   4.935   8.680   7.849  0.4435 -1.6466  0.6196
  928MOL0     H28024   4.781   8.765   7.792 -0.1562 -0.2898 -0.9146
  928MOL0     H28025   4.817   8.610   7.733 -0.9396 -0.9757  0.7795
  928MOL0     H28026   4.669   8.113   7.959  0.0989 -1.4484  2.4628
  928MOL0     H28027   4.670   7.900   7.845 -1.6510  2.5330  1.4083
  928MOL0     H28028   5.006   7.730   7.623  1.3200 -0.2010  0.0062
  928MOL0     H28029   5.074   7.711   7.790 -0.1489 -1.1162 -1.9126
  928MOL0     H28030   5.056   7.496   7.739 -0.0677  0.4219  2.5547
  928MOL0     H28031   4.923   7.519   7.848 -1.9716 -2.5343 -0.5926
  928MOL0     H28032   4.913   7.484   7.543  0.1268 -2.5807  1.3139
  928MOL0     H28033   4.779   7.546   7.640  0.8182  2.1336  4.5240
  928MOL0     H28034   4.924   7.276   7.697 -0.1654  1.4764  0.9112
  928MOL0     H28035   4.791   7.302   7.578  0.9083 -1.0272 -0.1642
  928MOL0     H28036   4.783   7.353   7.881  0.0121 -1.3739  2.0864
  928MOL0     H28037   4.645   7.354   7.766 -0.1334 -1.8676 -1.3548
  928MOL0     H28038   4.830   7.108   7.828  0.6696  2.4032 -0.1364
  928MOL0     H28039   4.707   7.100   7.704 -2.5081 -1.0472  1.2205
  928MOL0     H28040   4.578   7.221   7.938 -0.7984  1.1543 -1.3890
  928MOL0     H28041   4.673   7.084   7.994 -0.7079 -0.8026 -0.6396
  928MOL0     H28042   4.550   6.951   7.817 -0.0765 -0.0991  1.3984
  928MOL0     H28043   4.443   7.077   7.787  2.0347 -0.0674 -1.3693
  928MOL0     H28044   5.114   7.929   7.827 -0.2664  1.0173 -1.5013
  928MOL0     H28045   5.092   8.142   7.947 -0.4506 -0.0466 -0.8983
  928MOL0     H28046   4.661   8.327   8.113  0.5809  0.2367  0.4701
  928MOL0     H28047   4.532   8.486   8.235 -0.0774 -1.6029  0.5395
  928MOL0     H28048   3.251   8.490   7.197 -0.6121 -1.5645  2.6143
  928MOL0     H28049   3.147   8.329   7.047  2.1503  1.2530  1.7688
  928MOL0     H28050   3.031   8.148   6.777 -2.8420  0.9383  3.7164
  928MOL0     H28051   2.955   8.000   6.591 -0.5623  0.1157 -0.7716
  928MOL0     H28052   2.974   8.036   6.344 -1.0312  0.3814  1.2008
  928MOL0     H28053   2.868   7.957   6.241 -0.4324  1.0381 -1.6358
  928MOL0     H28054   2.947   8.164   6.134 -0.5871 -0.9970  0.4920
  928MOL0     H28055   2.911   8.249   6.283  3.5252 -0.3134 -1.8133
  928MOL0     H28056   2.693   8.120   6.116 -2.0984  2.0117 -2.4138
  928MOL0     H28057   2.670   8.260   6.237 -0.2509 -1.8159  1.5924
  928MOL0     H28058   2.819   8.304   5.978 -1.7581  0.7919 -1.2405
  928MOL0     H28059   2.797   8.413   6.109  0.7596 -3.0953  5.6423
  928MOL0     H28060   2.395   8.390   5.958  0.3167  2.5503 -0.1532
  928MOL0     H28061   2.675   8.290   6.459 -0.4598  0.0099 -0.0269
  928MOL0     H28062   2.714   8.521   6.571  1.0595  0.0410  1.0923
  928MOL0     H28063   2.594   8.449   6.663 -0.5852  0.9112  0.0118
  928MOL0     H28064   2.742   8.526   6.734 -1.2834  0.8957  0.3363
  929MOL0     O28065   1.533   3.998   9.217 -0.2363 -0.3689 -0.4939
  929MOL0     C28066   1.640   3.950   9.247 -0.7336  0.4029 -0.5476
  929MOL0     O28067   1.683   3.924   9.367  0.2776  0.2687  0.0843
  929MOL0     C28068   1.604   3.934   9.486  0.0314 -0.3534 -0.2058
  929MOL0     C28069   1.499   4.025   9.517 -0.4109  0.2165  0.4828
  929MOL0     C28070   1.441   4.023   9.647 -0.2416 -0.1350 -0.0436
  929MOL0     C28071   1.490   3.949   9.754 -0.0679 -0.1274  0.0567
  929MOL0     O28072   1.434   3.951   9.880 -0.0955 -0.1748  0.1157
  929MOL0     C28073   1.356   4.070   9.938  0.1033 -0.9763  0.2354
  929MOL0     C28074   1.319   4.055  10.085  1.8097 -0.5480  0.1682
  929MOL0     C28075   1.252   4.177  10.128  0.7990 -0.1879  0.4477
  929MOL0     C28076   1.192   4.170  10.276 -1.0654  0.0847  0.2574
  929MOL0     C28077   1.118   4.294  10.318 -0.2474 -0.2719 -0.2245
  929MOL0     C28078   1.038   4.262  10.447  0.7106 -0.4425 -0.3844
  929MOL0     C28079   1.114   4.290  10.581  0.7800  0.5384  0.2404
  929MOL0     C28080   1.248   4.227  10.593 -0.4038 -0.0743 -0.6874
  929MOL0     N28081   1.296   4.219  10.731 -0.0657 -0.1068 -0.9331
  929MOL0     C28082   1.314   4.333  10.807 -0.7813  0.2378  0.0452
  929MOL0     C28083   1.331   4.289  10.932  0.6565  0.3622 -0.0019
  929MOL0     C28084   1.371   4.379  11.054  0.3280 -0.1186  0.7231
  929MOL0     C28085   1.519   4.409  11.039 -0.1496 -0.6113 -0.2895
  929MOL0     C28086   1.597   4.475  11.151 -0.6159  0.2323  0.2127
  929MOL0     C28087   1.544   4.613  11.189 -0.0870  0.1965  0.2111
  929MOL0     O28088   1.590   4.707  11.088 -0.3112  0.2952  0.6466
  929MOL0     C28089   1.535   4.833  11.102  0.2968  0.6943  1.2028
  929MOL0     C28090   1.479   4.892  11.213 -1.2408  0.8701 -0.5309
  929MOL0     C28091   1.452   5.030  11.230 -1.0434  1.5282  0.4702
  929MOL0     C28092   1.397   5.066  11.372 -0.7647 -0.2358 -0.5339
  929MOL0     C28093   1.477   5.110  11.115  0.7037  0.0077  0.2373
  929MOL0     C28094   1.453   5.259  11.121 -0.9852 -0.1444 -0.3972
  929MOL0     O28095   1.402   5.309  11.003 -0.8935 -0.9263 -1.2492
  929MOL0     C28096   1.395   5.447  10.995 -0.0690  0.1280 -0.9141
  929MOL0     C28097   1.498   5.527  10.991  0.5774 -0.5267 -0.1230
  929MOL0     C28098   1.480   5.672  10.983 -0.0886  0.3368 -0.2370
  929MOL0     C28099   1.350   5.723  10.991 -0.7510  0.1864 -0.9102
  929MOL0     O28100   1.343   5.857  10.986 -0.1042  0.1477 -0.0446
  929MOL0     C28101   1.237   5.894  10.900  0.8815  0.0447  0.1297
  929MOL0     C28102   1.232   6.041  10.880  0.6080  0.6210  0.0696
  929MOL0     C28103   1.160   6.089  10.753 -0.5824  0.9136  0.2831
  929MOL0     C28104   1.222   6.229  10.706  0.3095 -0.0345 -0.0907
  929MOL0     C28105   1.141   6.270  10.582  0.2700  0.2347 -0.0512
  929MOL0     C28106   1.047   6.387  10.617 -0.6319 -0.4324  0.7334
  929MOL0     C28107   0.960   6.449  10.514 -0.9109 -0.1392 -0.3547
  929MOL0     C28108   1.021   6.479  10.379 -0.5223 -0.3423 -0.0816
  929MOL0    Cl28109   0.905   6.594  10.279 -0.3056  0.8184  0.0429
  929MOL0     C28110   1.239   5.636  11.021 -0.7248  0.3554  1.4541
  929MOL0     C28111   1.271   5.500  11.024  0.9728 -0.4919  0.1452
  929MOL0     O28112   1.489   5.324  11.221 -0.2221 -0.2074  0.0018
  929MOL0     C28113   1.509   5.054  10.987  0.9571 -0.0875  0.1876
  929MOL0     C28114   1.527   4.910  10.980  0.3424 -0.9119  0.3193
  929MOL0     N28115   1.330   4.157  10.938 -0.3805 -0.0784 -0.4187
  929MOL0     N28116   1.301   4.113  10.822 -0.6290  0.3099 -0.0567
  929MOL0     C28117   1.599   3.867   9.719  0.0719 -0.0597 -0.4105
  929MOL0     C28118   1.647   3.853   9.591  0.5545 -0.4392  0.1389
  929MOL0     C28119   1.735   3.954   9.139  0.2315  0.7247  0.7272
  929MOL0     C28120   1.842   3.864   9.161  1.0241 -0.5503  0.0916
  929MOL0     C28121   1.949   3.866   9.069  0.1260  0.3046  0.3282
  929MOL0     C28122   1.958   3.946   8.965  0.4002  0.2414 -1.3646
  929MOL0     O28123   2.056   3.953   8.879  0.0209  0.8617  0.0067
  929MOL0     C28124   2.198   3.952   8.929  0.8324  0.1743 -0.4323
  929MOL0     C28125   2.248   4.089   8.948  0.3585  0.2619 -1.5163
  929MOL0     C28126   2.247   4.178   8.821 -0.1586 -0.1692 -0.4834
  929MOL0     C28127   2.119   4.261   8.812 -0.3150 -0.2632 -0.8677
  929MOL0     C28128   2.160   4.393   8.783 -0.0202 -0.2716 -0.6775
  929MOL0     C28129   2.193   4.510   8.781 -0.2237 -0.1338 -1.1415
  929MOL0     C28130   1.848   4.019   8.935  0.4245  0.1905 -0.1494
  929MOL0     C28131   1.734   4.029   9.015  0.0122 -0.5455 -0.7571
  929MOL0     C28132   1.622   4.119   8.970  0.1086 -0.1158  0.3897
  929MOL0     H28133   1.461   4.097   9.445 -0.2542 -1.0630 -0.9369
  929MOL0     H28134   1.354   4.085   9.664 -1.7718 -2.5674  1.7056
  929MOL0     H28135   1.269   4.088   9.874  1.6768 -2.7297 -2.5724
  929MOL0     H28136   1.422   4.157   9.943  1.9728 -2.2961 -0.4541
  929MOL0     H28137   1.258   3.966  10.104  0.6016  0.8235  3.3381
  929MOL0     H28138   1.413   4.038  10.140 -0.0709 -2.4469  3.0978
  929MOL0     H28139   1.321   4.262  10.126 -1.4260  1.7589  1.4088
  929MOL0     H28140   1.176   4.213  10.059 -0.2701 -1.5793  0.8549
  929MOL0     H28141   1.135   4.077  10.280  0.2919 -0.7347  3.3962
  929MOL0     H28142   1.281   4.151  10.336 -1.2841 -1.5421  0.0877
  929MOL0     H28143   1.046   4.327  10.243  0.3864  0.1001 -0.6836
  929MOL0     H28144   1.186   4.377  10.340 -0.1453 -1.0744  3.2322
  929MOL0     H28145   0.944   4.318  10.443  0.1460 -1.0607  2.3183
  929MOL0     H28146   1.010   4.157  10.446  1.9589 -0.7990 -1.1863
  929MOL0     H28147   1.056   4.269  10.672  0.3910  3.3280  0.7379
  929MOL0     H28148   1.143   4.395  10.582  2.9854 -0.0293  0.2759
  929MOL0     H28149   1.222   4.123  10.570  0.1018  0.0089 -1.7090
  929MOL0     H28150   1.326   4.275  10.533  1.8117  2.0474  3.4295
  929MOL0     H28151   1.311   4.439  10.781 -0.2680  0.2337 -0.0414
  929MOL0     H28152   1.355   4.326  11.148  0.5339 -0.0742  0.7851
  929MOL0     H28153   1.309   4.469  11.062  0.0979 -0.4059  2.7368
  929MOL0     H28154   1.581   4.319  11.028  1.9397  0.2664  2.8557
  929MOL0     H28155   1.537   4.470  10.950  4.8493 -1.8841 -0.4385
  929MOL0     H28156   1.595   4.417  11.244 -1.0327  0.6198  0.4491
  929MOL0     H28157   1.704   4.474  11.129 -0.2191  0.1665  1.9302
  929MOL0     H28158   1.435   4.615  11.174 -0.0770  4.1632 -0.4430
  929MOL0     H28159   1.569   4.657  11.285 -1.2675  0.9270  0.2135
  929MOL0     H28160   1.470   4.826  11.299  0.4160  1.8167  0.4071
  929MOL0     H28161   1.344   4.982  11.418 -0.2039 -2.8230 -4.1768
  929MOL0     H28162   1.331   5.152  11.366  2.0395  2.0392 -0.8833
  929MOL0     H28163   1.488   5.090  11.427 -0.3613  1.4699 -1.8714
  929MOL0     H28164   1.596   5.483  10.983  0.9554  0.3839 -0.7062
  929MOL0     H28165   1.569   5.734  10.976  2.9529 -3.7842 -2.7539
  929MOL0     H28166   1.244   5.839  10.806 -0.5996 -1.3223  0.7641
  929MOL0     H28167   1.138   5.859  10.930  1.5126 -1.5145  0.5178
  929MOL0     H28168   1.191   6.094  10.967  0.7726  2.6111 -0.9990
  929MOL0     H28169   1.334   6.080  10.887  0.6022  0.6765 -0.1545
  929MOL0     H28170   1.055   6.097  10.780 -0.0452 -0.4680  3.2255
  929MOL0     H28171   1.176   6.010  10.679 -0.4051 -0.8296  2.1076
  929MOL0     H28172   1.328   6.221  10.680  0.7417  1.0366  1.1939
  929MOL0     H28173   1.228   6.304  10.786  2.9820 -0.3145  0.0724
  929MOL0     H28174   1.215   6.296  10.506 -0.1525  1.0359 -0.2048
  929MOL0     H28175   1.084   6.187  10.540  1.1857  0.2274 -1.3419
  929MOL0     H28176   1.118   6.463  10.651 -1.5831 -0.5160  3.1396
  929MOL0     H28177   0.991   6.365  10.709 -0.8427 -1.1836  0.4357
  929MOL0     H28178   0.920   6.539  10.561  0.8945 -0.4568  1.9661
  929MOL0     H28179   0.885   6.373  10.491  3.3798 -5.7161  1.8503
  929MOL0     H28180   1.048   6.381  10.338  3.4201  0.0202  1.2980
  929MOL0     H28181   1.119   6.527  10.378 -0.2369 -0.7792  2.3551
  929MOL0     H28182   1.135   5.667  11.022 -1.4947 -1.5642 -2.1187
  929MOL0     H28183   1.187   5.432  11.028 -0.5388  0.9205 -3.4856
  929MOL0     H28184   1.513   5.119  10.900  0.0225  1.7870  1.4697
  929MOL0     H28185   1.535   4.862  10.883 -1.3021 -0.2665 -0.1656
  929MOL0     H28186   1.639   3.799   9.794 -2.5389 -0.9657  0.2635
  929MOL0     H28187   1.733   3.788   9.578  1.4064 -0.0493  3.0526
  929MOL0     H28188   1.846   3.795   9.245 -0.6904  1.4389  1.9192
  929MOL0     H28189   2.027   3.792   9.085 -1.6120 -1.0986  3.3357
  929MOL0     H28190   2.216   3.884   9.013 -3.0581 -0.2808  0.2413
  929MOL0     H28191   2.252   3.903   8.847 -1.5310 -4.3900  0.3875
  929MOL0     H28192   2.354   4.076   8.973  0.0157 -2.0757 -1.0595
  929MOL0     H28193   2.197   4.134   9.034  0.9159 -4.6700  1.7845
  929MOL0     H28194   2.340   4.235   8.824 -0.6589  0.8183 -2.4190
  929MOL0     H28195   2.267   4.122   8.730  3.8043 -3.8170  2.2207
  929MOL0     H28196   2.055   4.264   8.901  0.7487  2.7670 -0.0850
  929MOL0     H28197   2.075   4.218   8.722 -0.6095  0.5183 -1.1096
  929MOL0     H28198   2.225   4.611   8.794 -0.5648  0.0383 -1.6260
  929MOL0     H28199   1.855   4.084   8.848 -0.3576  1.8004  0.9350
  929MOL0     H28200   1.673   4.212   8.943  2.3822 -1.9018 -2.0055
  929MOL0     H28201   1.588   4.074   8.876  1.3359 -0.6036  0.1560
  929MOL0     H28202   1.536   4.134   9.035 -0.9965 -1.9625 -0.5397
  930MOL0     O28203   4.872  11.407   5.470  0.7783 -0.5600 -0.6089
  930MOL0     C28204   4.960  11.471   5.525  0.2114  0.2533 -0.9999
  930MOL0     O28205   5.097  11.458   5.492 -0.0996 -0.3517 -0.0211
  930MOL0     C28206   5.143  11.401   5.372  0.7621 -0.6570  0.4106
  930MOL0     C28207   5.233  11.471   5.293  0.1926 -0.3680  0.0016
  930MOL0     C28208   5.288  11.427   5.169  0.2036  0.5359  0.5122
  930MOL0     C28209   5.246  11.299   5.134  0.0844  0.7382  0.7990
  930MOL0     O28210   5.290  11.239   5.012  0.5644 -0.0693  0.2023
  930MOL0     C28211   5.281  11.316   4.899 -0.5938 -0.3244  0.2125
  930MOL0     C28212   5.285  11.226   4.781 -0.0157 -0.1779 -0.1690
  930MOL0     C28213   5.214  11.097   4.799  0.0999 -0.2584 -0.1413
  930MOL0     C28214   5.224  11.016   4.668 -0.1903 -0.2865 -1.0105
  930MOL0     C28215   5.274  10.870   4.700  0.5772  1.5286 -0.5921
  930MOL0     C28216   5.415  10.883   4.753  0.2596 -0.2687  0.2444
  930MOL0     C28217   5.486  10.747   4.799  0.5050 -0.7144  0.2354
  930MOL0     C28218   5.534  10.645   4.685  0.4593  0.0398  0.5204
  930MOL0     N28219   5.549  10.510   4.736  0.3250  0.5891  1.6778
  930MOL0     C28220   5.470  10.416   4.792  0.3220 -0.5842 -0.1853
  930MOL0     C28221   5.543  10.307   4.809 -0.4311 -0.9180  0.3633
  930MOL0     C28222   5.509  10.175   4.853  0.2437  0.2966 -1.1475
  930MOL0     C28223   5.506  10.177   5.011  0.7407  0.7317  0.3856
  930MOL0     C28224   5.493  10.031   5.071 -0.2913 -0.9350  0.2976
  930MOL0     C28225   5.427   9.997   5.211  0.0047 -0.7606  1.0673
  930MOL0     O28226   5.381   9.870   5.216  0.2835 -0.4065  0.5488
  930MOL0     C28227   5.253   9.832   5.190  0.4487 -0.0236  0.0030
  930MOL0     C28228   5.170   9.886   5.091  0.3880 -0.3824  0.7627
  930MOL0     C28229   5.040   9.835   5.065 -0.6192 -0.5961  0.8076
  930MOL0     C28230   4.967   9.899   4.951  0.9642 -1.2035  0.0468
  930MOL0     C28231   4.987   9.720   5.137 -0.0848 -0.3806 -1.2152
  930MOL0     C28232   4.852   9.659   5.116 -0.3059  0.5384  0.3119
  930MOL0     O28233   4.820   9.538   5.168 -0.7152  0.4799 -0.4998
  930MOL0     C28234   4.701   9.484   5.150  0.2828 -0.2036  0.6431
  930MOL0     C28235   4.637   9.464   5.025  0.2817 -0.5909 -0.2972
  930MOL0     C28236   4.510   9.397   5.013 -0.1461  0.8588 -0.6030
  930MOL0     C28237   4.459   9.319   5.129 -0.4720  0.0411 -0.1961
  930MOL0     O28238   4.329   9.271   5.112 -0.1675 -0.3520 -1.0475
  930MOL0     C28239   4.327   9.122   5.126  0.4824  0.0449 -0.1314
  930MOL0     C28240   4.192   9.060   5.152  0.5347 -0.3863  1.0905
  930MOL0     C28241   4.117   9.011   5.025 -0.3709 -0.7573 -0.4836
  930MOL0     C28242   4.041   9.132   4.956  0.1302  1.0533 -0.4117
  930MOL0     C28243   3.928   9.059   4.869 -0.4144 -0.1459  0.4043
  930MOL0     C28244   3.785   9.084   4.926 -1.2329  0.4233 -0.0599
  930MOL0     C28245   3.667   9.012   4.861 -1.0826  0.1735  0.3164
  930MOL0     C28246   3.543   9.010   4.951  1.3244  0.7870  0.4067
  930MOL0    Cl28247   3.537   9.177   5.005  0.5267 -0.5166  0.2950
  930MOL0     C28248   4.526   9.339   5.256  0.1922  0.6213  0.7455
  930MOL0     C28249   4.648   9.412   5.264  0.0428  0.0138  0.2684
  930MOL0     O28250   4.774   9.727   5.054  0.0094 -0.2966  0.0268
  930MOL0     C28251   5.075   9.666   5.233  0.3428 -0.4138  0.7394
  930MOL0     C28252   5.199   9.721   5.257  0.2199 -0.6019 -0.3050
  930MOL0     N28253   5.669  10.341   4.763  0.6334  0.4578  0.4057
  930MOL0     N28254   5.680  10.459   4.729 -0.1955  0.6860  0.7946
  930MOL0     C28255   5.148  11.229   5.210  0.2651 -0.2932  1.1550
  930MOL0     C28256   5.107  11.271   5.332 -0.4908 -0.0880 -0.0514
  930MOL0     C28257   4.928  11.552   5.641 -0.6254  0.5557  0.2924
  930MOL0     C28258   5.032  11.585   5.727  0.2726 -0.2749  0.8746
  930MOL0     C28259   5.015  11.675   5.830 -0.0418 -0.2512 -0.5603
  930MOL0     C28260   4.889  11.742   5.856  0.1730  1.2099  0.0008
  930MOL0     O28261   4.859  11.838   5.948 -0.1053 -0.3432 -0.1970
  930MOL0     C28262   4.957  11.943   5.977  0.8763  0.2511 -0.1771
  930MOL0     C28263   4.883  12.091   5.991 -0.6199  1.2913  0.6015
  930MOL0     C28264   4.760  12.078   6.076 -0.2672  1.1466 -0.4339
  930MOL0     C28265   4.719  12.200   6.143  1.2318  0.5693 -0.8127
  930MOL0     C28266   4.605  12.179   6.227 -0.4779 -0.2934 -0.4235
  930MOL0     C28267   4.522  12.167   6.312  1.3806  1.2018 -0.9046
  930MOL0     C28268   4.782  11.698   5.765  0.9764  0.1866  0.3784
  930MOL0     C28269   4.797  11.600   5.666 -0.0448  0.2959  0.6378
  930MOL0     C28270   4.671  11.565   5.583 -0.5024 -0.5037 -0.8005
  930MOL0     H28271   5.238  11.577   5.318  1.4221 -0.3283 -0.3532
  930MOL0     H28272   5.363  11.472   5.105  0.1372 -0.7484 -0.5105
  930MOL0     H28273   5.363  11.385   4.878 -0.5731 -0.3288  0.2794
  930MOL0     H28274   5.193  11.381   4.896 -1.4787 -1.4746  0.4061
  930MOL0     H28275   5.252  11.281   4.692 -1.0396 -0.9243 -0.2682
  930MOL0     H28276   5.388  11.191   4.767 -0.2512 -0.9627  0.0519
  930MOL0     H28277   5.241  11.040   4.888 -1.8995  1.9392  2.0238
  930MOL0     H28278   5.107  11.109   4.820  0.0912 -0.3825 -0.1099
  930MOL0     H28279   5.122  11.002   4.633 -0.4741 -1.3883  0.1618
  930MOL0     H28280   5.300  11.060   4.603  3.5527  0.4294  3.3166
  930MOL0     H28281   5.264  10.803   4.615  0.6642 -0.0502  0.6033
  930MOL0     H28282   5.211  10.819   4.773  1.8410 -1.3217 -1.3867
  930MOL0     H28283   5.470  10.942   4.679 -2.4004  1.3966 -0.5287
  930MOL0     H28284   5.420  10.940   4.846  1.4245 -0.6636  0.4416
  930MOL0     H28285   5.418  10.701   4.871 -0.2124  2.7691  1.9593
  930MOL0     H28286   5.566  10.776   4.867  0.1433 -2.7689  1.6383
  930MOL0     H28287   5.473  10.643   4.595 -0.6953  0.7463  1.2660
  930MOL0     H28288   5.623  10.687   4.637 -0.5285 -0.1981 -1.6251
  930MOL0     H28289   5.365  10.427   4.819  0.1876  1.1105 -1.1948
  930MOL0     H28290   5.587  10.106   4.819  0.9207 -0.6767  2.0245
  930MOL0     H28291   5.416  10.150   4.800 -0.1612 -1.8718  0.4374
  930MOL0     H28292   5.597  10.221   5.051 -0.9957  2.9167  2.1401
  930MOL0     H28293   5.432  10.250   5.045  0.8258  1.0584 -0.1203
  930MOL0     H28294   5.433   9.975   4.998 -3.8695 -2.4497  3.9709
  930MOL0     H28295   5.586   9.974   5.076 -0.2575 -1.3634 -3.1546
  930MOL0     H28296   5.497  10.014   5.294  2.8930 -2.1281 -0.9123
  930MOL0     H28297   5.346  10.067   5.232  0.2079  0.1991 -1.0651
  930MOL0     H28298   5.201   9.969   5.028  1.7750 -1.0426  0.5381
  930MOL0     H28299   5.029   9.980   4.911 -1.1810  1.3183  1.5531
  930MOL0     H28300   4.877   9.953   4.981  1.0081 -2.3515  2.4278
  930MOL0     H28301   4.947   9.819   4.879 -2.2111  0.7023 -1.3887
  930MOL0     H28302   4.680   9.506   4.934 -3.2669  1.0165 -1.4121
  930MOL0     H28303   4.454   9.389   4.921  0.7005  0.6863 -1.1215
  930MOL0     H28304   4.373   9.085   5.035  0.0842  3.4766 -1.9062
  930MOL0     H28305   4.394   9.094   5.208 -0.8127  1.0176  1.3316
  930MOL0     H28306   4.193   8.971   5.216 -2.8279 -2.3210 -1.1959
  930MOL0     H28307   4.146   9.143   5.206 -2.9537 -2.5109  1.7015
  930MOL0     H28308   4.039   8.944   5.062  0.0709 -1.4259 -0.7482
  930MOL0     H28309   4.184   8.957   4.957 -0.4690 -0.7250 -0.6050
  930MOL0     H28310   4.116   9.183   4.894 -0.9104  1.6001 -1.2623
  930MOL0     H28311   4.004   9.203   5.031  3.0710  1.2452  0.9948
  930MOL0     H28312   3.918   9.100   4.768 -2.3254 -0.1947  0.5309
  930MOL0     H28313   3.947   8.951   4.867 -0.0660 -0.1315  1.8065
  930MOL0     H28314   3.775   9.191   4.906 -0.0502  0.7851  1.1113
  930MOL0     H28315   3.790   9.057   5.032 -2.4478 -0.0873 -0.1194
  930MOL0     H28316   3.690   8.908   4.833 -0.5914 -0.5850  3.1864
  930MOL0     H28317   3.636   9.082   4.782  2.9526  3.2146  1.1088
  930MOL0     H28318   3.543   8.945   5.039 -2.9519  1.2095  0.9243
  930MOL0     H28319   3.454   8.970   4.902  3.1473 -3.1622 -0.0637
  930MOL0     H28320   4.484   9.294   5.345 -0.5928 -0.8700 -0.3363
  930MOL0     H28321   4.685   9.406   5.366 -1.2582  1.1392  0.8305
  930MOL0     H28322   5.045   9.585   5.298  3.2667  1.5952  5.0305
  930MOL0     H28323   5.248   9.685   5.347 -1.5416 -0.6888  0.6559
  930MOL0     H28324   5.105  11.142   5.162  1.3422  1.1264 -2.7846
  930MOL0     H28325   5.041  11.206   5.388  1.0350 -0.6042  1.2430
  930MOL0     H28326   5.133  11.547   5.717  0.0273 -0.3419 -1.9941
  930MOL0     H28327   5.097  11.694   5.898 -0.0234 -2.1507  0.0335
  930MOL0     H28328   5.015  11.906   6.062  0.7309  0.8141  0.1743
  930MOL0     H28329   5.032  11.956   5.899  0.2369  1.4177 -0.6169
  930MOL0     H28330   4.856  12.134   5.894  3.4109  3.4893  0.2434
  930MOL0     H28331   4.963  12.145   6.041  0.6275 -1.7966  2.2176
  930MOL0     H28332   4.674  12.033   6.024 -1.9185  2.0755  1.3556
  930MOL0     H28333   4.790  12.006   6.153  2.9068 -0.3612 -2.8263
  930MOL0     H28334   4.674  12.266   6.068 -0.3082 -0.0830 -0.4937
  930MOL0     H28335   4.797  12.248   6.202 -0.3980  2.0310  0.2502
  930MOL0     H28336   4.449  12.157   6.390  2.0080  1.2184 -0.3062
  930MOL0     H28337   4.679  11.729   5.777 -0.0720 -1.6488 -2.7981
  930MOL0     H28338   4.601  11.648   5.591  0.1866 -0.0469  1.2152
  930MOL0     H28339   4.692  11.558   5.476  2.8164  5.1716 -0.9451
  930MOL0     H28340   4.628  11.468   5.607  0.9057 -0.4276  2.7298
  931MOL0     O28341   8.407   9.929   6.710 -0.3164  0.3443  0.2031
  931MOL0     C28342   8.508  10.001   6.701  1.7010  1.0256 -0.5874
  931MOL0     O28343   8.558  10.057   6.598  0.2630  1.4745  0.4801
  931MOL0     C28344   8.540  10.018   6.468 -0.0433 -0.1863 -0.7679
  931MOL0     C28345   8.525  10.127   6.373  0.4587  0.0994 -0.4184
  931MOL0     C28346   8.519  10.097   6.241  0.9175 -0.1288 -0.5759
  931MOL0     C28347   8.502   9.967   6.193  0.1914  0.5183 -0.2168
  931MOL0     O28348   8.489   9.946   6.055  1.0033  0.4031 -0.0587
  931MOL0     C28349   8.562   9.833   6.006 -0.2067 -0.2239 -0.6450
  931MOL0     C28350   8.508   9.782   5.875 -1.4043  0.1235 -0.4390
  931MOL0     C28351   8.568   9.637   5.829 -0.6203  0.4047 -0.3186
  931MOL0     C28352   8.491   9.589   5.704 -0.0709 -0.4688 -0.1620
  931MOL0     C28353   8.566   9.477   5.641 -0.4299  0.7683 -0.4384
  931MOL0     C28354   8.526   9.454   5.500 -0.7069 -0.1912  1.1616
  931MOL0     C28355   8.626   9.544   5.405  0.7222  0.0134  0.6013
  931MOL0     C28356   8.578   9.549   5.253  0.9227 -0.1099 -0.3579
  931MOL0     N28357   8.437   9.602   5.233 -0.1314 -0.5660 -0.6087
  931MOL0     C28358   8.391   9.721   5.270  1.3554 -1.0132 -0.3456
  931MOL0     C28359   8.263   9.723   5.221 -0.1822 -1.1687 -0.5065
  931MOL0     C28360   8.165   9.838   5.256  0.0283  0.2464 -0.4816
  931MOL0     C28361   8.189   9.971   5.193  0.3686  0.0360  0.2099
  931MOL0     C28362   8.228   9.963   5.042  0.4276 -0.4627  0.4512
  931MOL0     C28363   8.258  10.097   4.984  0.7351  0.2936  1.0470
  931MOL0     O28364   8.146  10.193   5.001 -0.5152  0.5796  0.1390
  931MOL0     C28365   8.176  10.314   4.948  0.3702 -0.3676  0.4160
  931MOL0     C28366   8.264  10.406   5.012  1.4402 -0.3257  0.6119
  931MOL0     C28367   8.291  10.539   4.965  0.2265  1.1852  1.0965
  931MOL0     C28368   8.373  10.618   5.063  0.7416 -0.8074  0.3103
  931MOL0     C28369   8.231  10.569   4.838 -0.4470 -0.1794  0.6240
  931MOL0     C28370   8.266  10.695   4.768  0.5126 -1.2412  0.5771
  931MOL0     O28371   8.196  10.715   4.650 -0.1982  0.1007  1.1009
  931MOL0     C28372   8.217  10.828   4.579  0.7282 -0.6324  0.2979
  931MOL0     C28373   8.098  10.863   4.518 -0.5834  0.0275  0.1171
  931MOL0     C28374   8.081  10.975   4.433 -0.1104  0.8405 -0.2588
  931MOL0     C28375   8.189  11.073   4.433 -1.9694  1.3375  0.0481
  931MOL0     O28376   8.180  11.187   4.360  0.0081  0.7842 -0.8891
  931MOL0     C28377   8.131  11.292   4.449 -0.5647  0.5281  0.9838
  931MOL0     C28378   8.076  11.401   4.363  0.0012 -0.3753 -0.3669
  931MOL0     C28379   8.056  11.537   4.437 -0.1881 -0.2221 -0.2288
  931MOL0     C28380   8.186  11.609   4.479  0.1722  0.1106  0.7126
  931MOL0     C28381   8.184  11.753   4.542  0.0806  0.3308  0.9986
  931MOL0     C28382   8.103  11.766   4.680 -0.8655 -0.8702 -0.0424
  931MOL0     C28383   7.994  11.885   4.681 -0.5005 -0.4252  0.0530
  931MOL0     C28384   7.853  11.831   4.676  0.6829  0.1692  0.3134
  931MOL0    Cl28385   7.820  11.739   4.524 -0.0217 -0.1604 -0.3781
  931MOL0     C28386   8.305  11.048   4.507  0.2275 -0.2591 -0.0411
  931MOL0     C28387   8.322  10.923   4.571  0.5553 -1.0067 -0.3967
  931MOL0     O28388   8.351  10.775   4.812  0.6871  0.2456 -0.6322
  931MOL0     C28389   8.150  10.470   4.766 -0.4136 -0.3556  1.6490
  931MOL0     C28390   8.118  10.354   4.822  0.2828  0.3697 -1.1711
  931MOL0     N28391   8.240   9.603   5.154  0.0945  0.0123 -0.1760
  931MOL0     N28392   8.350   9.538   5.153 -0.0065 -0.4763  0.3759
  931MOL0     C28393   8.508   9.863   6.286 -0.2297  0.5401  0.3635
  931MOL0     C28394   8.528   9.882   6.427 -1.4996  0.1899 -0.9598
  931MOL0     C28395   8.546  10.072   6.836  1.1201  0.6617 -0.1650
  931MOL0     C28396   8.615  10.196   6.829 -0.3079  1.0742 -0.1384
  931MOL0     C28397   8.635  10.276   6.937  0.4636  0.3222  0.8470
  931MOL0     C28398   8.590  10.228   7.066  0.2676 -0.7447  0.0982
  931MOL0     O28399   8.596  10.307   7.177 -0.5294 -0.5558 -0.3748
  931MOL0     C28400   8.716  10.311   7.257 -0.5737  0.7335  0.0142
  931MOL0     C28401   8.751  10.164   7.298  0.4678  0.2815  0.6071
  931MOL0     C28402   8.867  10.154   7.403  0.5708  0.8126 -0.1613
  931MOL0     C28403   8.798  10.172   7.537  0.1536 -0.2505 -0.6649
  931MOL0     C28404   8.874  10.139   7.654  0.7650  0.0284  0.1617
  931MOL0     C28405   8.940  10.113   7.752  0.0499 -0.5343  0.4403
  931MOL0     C28406   8.525  10.112   7.075  0.0482  0.7587  0.2932
  931MOL0     C28407   8.509  10.023   6.962  1.0580  0.0170 -0.8737
  931MOL0     C28408   8.432   9.897   6.996  0.4603 -0.0708 -0.1886
  931MOL0     H28409   8.526  10.231   6.404 -2.4068  0.8790 -2.5826
  931MOL0     H28410   8.518  10.178   6.169 -1.2041  0.1890 -0.2517
  931MOL0     H28411   8.544   9.745   6.068  2.8345 -0.8480 -0.5075
  931MOL0     H28412   8.671   9.835   6.008 -0.1310  0.0395 -2.4931
  931MOL0     H28413   8.399   9.778   5.885 -1.5074  1.7098 -0.6383
  931MOL0     H28414   8.530   9.855   5.797 -1.5511  1.3322  0.6076
  931MOL0     H28415   8.673   9.652   5.804 -0.4654 -1.5261 -0.9781
  931MOL0     H28416   8.580   9.565   5.911  2.2799  0.3563 -0.6810
  931MOL0     H28417   8.389   9.573   5.740 -0.7730  2.8228 -0.3912
  931MOL0     H28418   8.482   9.670   5.631  0.4845 -0.2849 -0.0306
  931MOL0     H28419   8.541   9.385   5.695  3.3426  0.4920  1.1549
  931MOL0     H28420   8.673   9.459   5.656 -0.7493 -2.7248 -1.5242
  931MOL0     H28421   8.547   9.349   5.475  1.3591  1.0468 -3.5176
  931MOL0     H28422   8.424   9.481   5.474 -0.9995 -1.9696  0.3082
  931MOL0     H28423   8.727   9.503   5.413  0.3130 -0.7349  2.6394
  931MOL0     H28424   8.645   9.647   5.436  2.2524  1.1509 -3.5050
  931MOL0     H28425   8.649   9.616   5.203 -2.0818  2.1687 -1.8801
  931MOL0     H28426   8.581   9.447   5.213 -1.3403  0.2218 -1.5114
  931MOL0     H28427   8.438   9.796   5.333  1.7370  0.0900 -1.8681
  931MOL0     H28428   8.181   9.859   5.362 -3.4843  0.9751  0.0296
  931MOL0     H28429   8.060   9.809   5.246 -0.2603  1.3231 -0.7782
  931MOL0     H28430   8.092  10.021   5.209 -0.8621 -1.5645 -1.7993
  931MOL0     H28431   8.273  10.009   5.252  1.2507 -2.8169  0.9196
  931MOL0     H28432   8.315   9.900   5.019  0.4685  0.6231 -2.8706
  931MOL0     H28433   8.157   9.914   4.975 -0.2881  4.1106 -2.5719
  931MOL0     H28434   8.340  10.137   5.045 -0.0138  4.0351 -0.0985
  931MOL0     H28435   8.289  10.075   4.882 -0.2369  0.5090  0.6912
  931MOL0     H28436   8.305  10.377   5.108  1.5009 -3.2448 -0.2204
  931MOL0     H28437   8.336  10.595   5.164 -2.1582  1.0961 -0.1921
  931MOL0     H28438   8.365  10.725   5.046  0.4038 -0.6686  1.2540
  931MOL0     H28439   8.479  10.595   5.075  1.3935  1.2620 -0.9666
  931MOL0     H28440   8.000  10.815   4.523  0.0215 -1.7062 -2.4157
  931MOL0     H28441   7.991  10.992   4.375  0.5791  3.7333 -0.6111
  931MOL0     H28442   8.046  11.264   4.513 -1.9587  4.0680  0.9274
  931MOL0     H28443   8.223  11.311   4.505  1.2690 -0.8914 -1.3779
  931MOL0     H28444   8.135  11.426   4.275 -1.8561  0.0371 -1.5546
  931MOL0     H28445   7.980  11.360   4.330 -0.9246 -0.6671  2.4420
  931MOL0     H28446   7.995  11.521   4.527  0.6478 -0.0425  0.3802
  931MOL0     H28447   8.005  11.599   4.363 -1.0651  1.8884  1.9941
  931MOL0     H28448   8.249  11.615   4.390  1.8682 -2.8386  1.5855
  931MOL0     H28449   8.239  11.537   4.542  0.1961  1.8793  2.8392
  931MOL0     H28450   8.285  11.787   4.563  0.6858 -0.6747 -0.1779
  931MOL0     H28451   8.169  11.834   4.471  1.7811 -1.4480 -1.5503
  931MOL0     H28452   8.171  11.772   4.765  0.8947  0.9667 -1.4823
  931MOL0     H28453   8.057  11.671   4.708  0.1303 -1.6467 -0.9542
  931MOL0     H28454   8.009  11.957   4.600  2.0236 -0.4318  0.4522
  931MOL0     H28455   8.003  11.953   4.765  0.3802  0.1832 -0.5188
  931MOL0     H28456   7.790  11.920   4.672  1.3072  0.5805 -2.0606
  931MOL0     H28457   7.836  11.774   4.768  0.8979  1.1135  0.9540
  931MOL0     H28458   8.378  11.127   4.512 -3.1790  3.1753  4.6852
  931MOL0     H28459   8.417  10.923   4.624 -1.2650 -0.2727  3.2094
  931MOL0     H28460   8.122  10.489   4.663  0.5522  1.4346  1.6651
  931MOL0     H28461   8.049  10.287   4.772 -0.0449  2.6942 -4.1203
  931MOL0     H28462   8.485   9.762   6.252 -0.7881  0.2894  1.4324
  931MOL0     H28463   8.539   9.790   6.483 -1.1461  1.5111  1.2580
  931MOL0     H28464   8.661  10.232   6.738  1.4046 -1.9446 -0.6024
  931MOL0     H28465   8.682  10.373   6.936 -2.2954  1.8278  2.4751
  931MOL0     H28466   8.798  10.360   7.205 -0.2912 -1.8081 -2.1173
  931MOL0     H28467   8.694  10.373   7.345 -0.8763  0.0874  0.4038
  931MOL0     H28468   8.784  10.105   7.212  2.0756 -0.9202  1.9740
  931MOL0     H28469   8.659  10.107   7.319 -0.0138  0.7515 -0.1736
  931MOL0     H28470   8.917  10.057   7.417 -0.7326  0.3172  1.5134
  931MOL0     H28471   8.939  10.236   7.399  1.3610  0.2129  1.0141
  931MOL0     H28472   8.708  10.110   7.543  0.2436 -0.4355 -1.1232
  931MOL0     H28473   8.768  10.275   7.553 -0.2815 -0.1229 -2.1610
  931MOL0     H28474   8.996  10.100   7.842  0.9033 -0.3854 -0.0623
  931MOL0     H28475   8.502  10.073   7.174  0.8689 -0.2187  0.1070
  931MOL0     H28476   8.452   9.862   7.098 -0.6954  2.6872  1.0843
  931MOL0     H28477   8.326   9.902   6.971  0.0717 -2.9440  0.5572
  931MOL0     H28478   8.475   9.820   6.931  1.9050  1.1935 -0.7968
  932MOL0     O28479   6.165   5.981   7.194 -0.2946 -0.4642  0.2448
  932MOL0     C28480   6.205   5.950   7.301  0.3484 -0.5445 -0.9565
  932MOL0     O28481   6.239   6.033   7.407  0.5920 -0.8108 -0.5977
  932MOL0     C28482   6.228   6.173   7.398  0.4646 -0.3827 -0.9559
  932MOL0     C28483   6.210   6.257   7.289 -0.4907  0.6684 -0.0936
  932MOL0     C28484   6.235   6.396   7.308  0.3305  0.1196 -0.0529
  932MOL0     C28485   6.252   6.450   7.433  0.5611  0.1748 -0.2491
  932MOL0     O28486   6.278   6.587   7.459 -0.1501  0.7289  0.0493
  932MOL0     C28487   6.363   6.664   7.366 -0.2874  0.3389 -0.2370
  932MOL0     C28488   6.305   6.772   7.286  0.1424  0.1349 -0.4707
  932MOL0     C28489   6.412   6.837   7.207 -0.7390  0.4804 -0.4850
  932MOL0     C28490   6.329   6.907   7.093  0.1964  0.9123 -0.4831
  932MOL0     C28491   6.430   6.965   6.990  0.1623 -0.1511 -0.0578
  932MOL0     C28492   6.364   7.012   6.870 -1.3438  0.0456  0.7907
  932MOL0     C28493   6.459   7.088   6.771 -0.1504 -0.4528  0.8773
  932MOL0     C28494   6.393   7.126   6.633  0.0186  0.3019 -0.0507
  932MOL0     N28495   6.376   7.014   6.541  0.5930 -0.8539 -0.7761
  932MOL0     C28496   6.464   6.923   6.499 -0.7796  0.5065 -0.4233
  932MOL0     C28497   6.395   6.821   6.441  0.5003  0.2308 -0.0739
  932MOL0     C28498   6.457   6.715   6.366  0.2939 -0.4758 -0.4947
  932MOL0     C28499   6.472   6.741   6.223  0.7620  0.1716  0.9108
  932MOL0     C28500   6.470   6.626   6.117 -0.5416 -0.5107 -0.0259
  932MOL0     C28501   6.446   6.675   5.975 -0.6036 -1.1671  0.0666
  932MOL0     O28502   6.424   6.561   5.880  0.1459  0.9506 -0.4335
  932MOL0     C28503   6.395   6.604   5.748 -0.3852 -0.1951 -0.2305
  932MOL0     C28504   6.389   6.734   5.693 -0.0886 -0.3482  1.2860
  932MOL0     C28505   6.394   6.757   5.553 -0.6124 -0.8143  0.4324
  932MOL0     C28506   6.408   6.900   5.508  1.0072  0.4486 -0.2248
  932MOL0     C28507   6.391   6.654   5.458  0.0718 -0.1387 -0.7126
  932MOL0     C28508   6.394   6.677   5.316  0.6013  0.3552 -0.0359
  932MOL0     O28509   6.438   6.561   5.249 -0.4519 -0.0139  0.7054
  932MOL0     C28510   6.457   6.581   5.113  0.1874 -0.0295  0.4281
  932MOL0     C28511   6.388   6.501   5.020  0.0607  0.8035 -0.1959
  932MOL0     C28512   6.413   6.519   4.878 -0.0589  0.2251  0.5066
  932MOL0     C28513   6.484   6.629   4.828  0.8599  0.5045 -1.0172
  932MOL0     O28514   6.511   6.654   4.697  0.1031  0.5658  0.6413
  932MOL0     C28515   6.553   6.550   4.599  1.1673 -1.2466  0.2605
  932MOL0     C28516   6.540   6.594   4.454 -0.5257  0.4940 -0.1359
  932MOL0     C28517   6.408   6.670   4.414 -0.0980 -0.3361 -1.1374
  932MOL0     C28518   6.394   6.676   4.273 -0.8210 -0.0739  0.3329
  932MOL0     C28519   6.502   6.746   4.186 -0.3198 -0.5200 -0.7880
  932MOL0     C28520   6.514   6.901   4.210  0.7550 -0.1383  0.2490
  932MOL0     C28521   6.635   6.963   4.139 -0.1213  0.9384  0.0196
  932MOL0     C28522   6.647   7.117   4.177 -0.9921  0.7713 -0.0549
  932MOL0    Cl28523   6.696   7.106   4.357  0.0174 -0.0311  0.2024
  932MOL0     C28524   6.540   6.719   4.924 -0.5333  0.0670 -0.5039
  932MOL0     C28525   6.532   6.681   5.055 -0.3052  0.1354  0.9018
  932MOL0     O28526   6.360   6.785   5.262 -0.0835 -0.1711 -0.3068
  932MOL0     C28527   6.403   6.523   5.511  0.7211 -1.1744  0.7965
  932MOL0     C28528   6.410   6.499   5.654 -0.8092  0.0623 -0.1627
  932MOL0     N28529   6.260   6.847   6.451 -0.5558 -0.1473 -0.8454
  932MOL0     N28530   6.251   6.963   6.510  0.9389  0.2590  0.7470
  932MOL0     C28531   6.257   6.367   7.542 -0.3792 -1.6428 -0.2746
  932MOL0     C28532   6.250   6.229   7.527 -0.0074 -0.1065  0.5854
  932MOL0     C28533   6.206   5.796   7.333  0.6407 -0.8814  1.2444
  932MOL0     C28534   6.203   5.758   7.472  0.1236 -1.1506  1.1085
  932MOL0     C28535   6.220   5.628   7.517  0.5502  0.1938 -0.8534
  932MOL0     C28536   6.200   5.526   7.418 -0.0819  0.0577 -0.1063
  932MOL0     O28537   6.223   5.393   7.458 -0.1207 -0.2111  0.1341
  932MOL0     C28538   6.204   5.288   7.356  0.3439 -0.0643  0.6049
  932MOL0     C28539   6.219   5.144   7.423  0.1644  0.2522 -0.2768
  932MOL0     C28540   6.190   5.029   7.323 -0.7492 -0.1434 -0.4442
  932MOL0     C28541   6.172   4.895   7.395 -0.4286 -0.2565 -0.7494
  932MOL0     C28542   6.304   4.846   7.453  0.1686 -0.8361 -0.2364
  932MOL0     C28543   6.402   4.805   7.519  0.2312 -0.0206  0.4643
  932MOL0     C28544   6.192   5.559   7.277  0.0987 -0.7883  0.1208
  932MOL0     C28545   6.184   5.693   7.237 -0.0486 -0.3566  0.0377
  932MOL0     C28546   6.173   5.716   7.087 -0.5560  0.3211  0.4300
  932MOL0     H28547   6.189   6.216   7.191  1.8871  4.0601 -2.2891
  932MOL0     H28548   6.245   6.461   7.222  2.1176 -0.2447 -0.1519
  932MOL0     H28549   6.416   6.597   7.298 -1.1412 -2.6267  1.8177
  932MOL0     H28550   6.443   6.713   7.421 -0.8962  0.5155  0.5212
  932MOL0     H28551   6.220   6.732   7.230 -2.7332  0.6142  3.2145
  932MOL0     H28552   6.267   6.845   7.358  4.0087 -0.7765  2.8402
  932MOL0     H28553   6.467   6.908   7.269  1.4723 -3.1459  2.0681
  932MOL0     H28554   6.481   6.765   7.162 -0.1791 -0.0666  1.1948
  932MOL0     H28555   6.276   6.826   7.043 -1.5933 -0.6709  3.5562
  932MOL0     H28556   6.250   6.976   7.124 -0.2008 -0.2294  1.1534
  932MOL0     H28557   6.503   6.886   6.968 -0.9042 -1.6256  1.4684
  932MOL0     H28558   6.492   7.050   7.022  0.2285  0.0019 -0.5770
  932MOL0     H28559   6.345   6.916   6.821 -2.1969 -0.3861  1.9338
  932MOL0     H28560   6.262   7.050   6.880 -1.0206  0.6764  1.7804
  932MOL0     H28561   6.546   7.024   6.750 -0.5895 -0.3978 -1.3057
  932MOL0     H28562   6.489   7.182   6.817  2.6937 -1.1383  0.6022
  932MOL0     H28563   6.299   7.180   6.646 -0.0072 -0.3681  3.3331
  932MOL0     H28564   6.464   7.194   6.585  1.3885  1.1473  2.9272
  932MOL0     H28565   6.571   6.941   6.505 -0.8131  3.0543 -4.3167
  932MOL0     H28566   6.386   6.632   6.367  0.1131 -0.3258  0.1851
  932MOL0     H28567   6.553   6.680   6.406  0.0062 -1.5221 -0.6903
  932MOL0     H28568   6.392   6.812   6.200 -0.9123 -1.6465  0.9327
  932MOL0     H28569   6.571   6.785   6.210  2.1117 -1.1780  4.9896
  932MOL0     H28570   6.565   6.572   6.126  0.1645  0.8707  1.1660
  932MOL0     H28571   6.399   6.546   6.141 -0.0684 -1.9082 -2.8072
  932MOL0     H28572   6.357   6.740   5.971 -1.0659 -1.8164 -0.6705
  932MOL0     H28573   6.521   6.741   5.930  0.2295 -2.5792 -0.6884
  932MOL0     H28574   6.398   6.825   5.752 -0.0649  0.6583 -0.2064
  932MOL0     H28575   6.423   6.950   5.604 -0.0501 -2.9174  1.8324
  932MOL0     H28576   6.308   6.922   5.468  1.0788 -0.4819 -0.9422
  932MOL0     H28577   6.482   6.932   5.434 -0.5433  2.6289 -0.9568
  932MOL0     H28578   6.334   6.411   5.046  2.6799 -1.5993 -2.4178
  932MOL0     H28579   6.375   6.433   4.824  0.3755  0.4533 -0.1730
  932MOL0     H28580   6.659   6.535   4.619  2.1985  3.2636 -0.6259
  932MOL0     H28581   6.496   6.458   4.615  0.6899 -1.3270 -1.6554
  932MOL0     H28582   6.633   6.641   4.423  1.1156 -2.2339  0.3374
  932MOL0     H28583   6.529   6.495   4.407  0.5619 -1.4770  3.3944
  932MOL0     H28584   6.412   6.770   4.458  0.7348 -0.4525 -0.9171
  932MOL0     H28585   6.321   6.627   4.463 -0.2850  0.4645 -0.7440
  932MOL0     H28586   6.303   6.724   4.237  0.2224  2.3068  0.6609
  932MOL0     H28587   6.383   6.568   4.258 -0.3407 -0.6307  3.2450
  932MOL0     H28588   6.602   6.705   4.203  0.0590 -0.3412 -2.4098
  932MOL0     H28589   6.486   6.728   4.079  0.2971 -0.4303 -0.9012
  932MOL0     H28590   6.542   6.910   4.316 -2.5435  1.4331  1.1513
  932MOL0     H28591   6.424   6.958   4.185  1.5575  0.6288 -0.9481
  932MOL0     H28592   6.617   6.956   4.031  1.5106  1.1611 -0.2983
  932MOL0     H28593   6.727   6.912   4.169  0.1743  1.4124 -0.0866
  932MOL0     H28594   6.554   7.169   4.154 -2.7683 -1.4047  1.7259
  932MOL0     H28595   6.729   7.163   4.121  1.3929 -1.3814  1.4793
  932MOL0     H28596   6.607   6.800   4.900 -0.9388  0.6614  0.3053
  932MOL0     H28597   6.582   6.761   5.110  2.0999 -1.2219  0.8310
  932MOL0     H28598   6.412   6.436   5.446 -3.6948 -1.2658 -0.0278
  932MOL0     H28599   6.398   6.395   5.682 -0.9520  0.5134  1.6219
  932MOL0     H28600   6.278   6.402   7.643  0.4021 -1.8023 -0.3739
  932MOL0     H28601   6.252   6.162   7.612 -1.7442  0.3560  1.0179
  932MOL0     H28602   6.169   5.831   7.544  1.8810  0.4361  0.4031
  932MOL0     H28603   6.228   5.612   7.624 -3.2616  0.5360 -0.3788
  932MOL0     H28604   6.108   5.297   7.304  1.1583  1.4236 -0.7518
  932MOL0     H28605   6.289   5.300   7.289 -1.3070 -2.3566 -2.1388
  932MOL0     H28606   6.141   5.150   7.499 -3.1456 -2.4941 -3.1129
  932MOL0     H28607   6.321   5.127   7.458 -0.7752 -2.3409  1.4942
  932MOL0     H28608   6.112   5.066   7.257 -0.0281  0.9604 -0.7003
  932MOL0     H28609   6.273   5.029   7.251  0.4338  1.1712  0.8515
  932MOL0     H28610   6.133   4.828   7.317  0.3648 -1.7185  0.0739
  932MOL0     H28611   6.086   4.901   7.463 -1.6670 -1.7788 -2.0768
  932MOL0     H28612   6.489   4.766   7.568  0.2902 -1.1156 -0.4753
  932MOL0     H28613   6.194   5.488   7.195 -1.9927 -1.8494  0.9132
  932MOL0     H28614   6.271   5.749   7.051 -0.0421 -0.0860  1.4313
  932MOL0     H28615   6.156   5.622   7.032  0.5989  1.2147 -1.5864
  932MOL0     H28616   6.093   5.782   7.052 -0.8511 -0.5043 -0.5377
  933MOL0     O28617   7.497   4.614   3.286  0.0134  0.5719 -0.8021
  933MOL0     C28618   7.401   4.578   3.354 -1.1443  0.4032 -0.4546
  933MOL0     O28619   7.375   4.450   3.384  0.1968  1.0620 -0.4045
  933MOL0     C28620   7.441   4.350   3.313 -0.1732  0.4601 -0.0231
  933MOL0     C28621   7.492   4.243   3.384 -0.2726 -0.4001 -0.3918
  933MOL0     C28622   7.576   4.149   3.319  0.2027 -0.9606  0.7256
  933MOL0     C28623   7.591   4.158   3.179  0.5033 -0.3781  0.5471
  933MOL0     O28624   7.659   4.070   3.107 -0.3372  0.4679  0.3618
  933MOL0     C28625   7.798   4.085   3.129  0.2732  0.1149 -0.7764
  933MOL0     C28626   7.867   3.958   3.186  0.0489  0.4084 -0.1438
  933MOL0     C28627   7.866   3.839   3.088  0.3368  0.0932  0.5409
  933MOL0     C28628   7.866   3.700   3.162 -0.3718  0.1391  0.2366
  933MOL0     C28629   7.927   3.589   3.065  0.3558  1.3772 -0.3631
  933MOL0     C28630   7.967   3.463   3.149 -0.9924  0.8388  0.1376
  933MOL0     C28631   7.991   3.340   3.066  0.3071 -0.5634  0.3394
  933MOL0     C28632   8.063   3.353   2.928 -0.4403 -0.3517  0.3202
  933MOL0     N28633   8.199   3.393   2.921  0.0974  0.3560 -0.7094
  933MOL0     C28634   8.281   3.316   2.850 -1.2176  0.3918 -0.0310
  933MOL0     C28635   8.408   3.376   2.877 -0.2013  0.9028  0.6721
  933MOL0     C28636   8.529   3.324   2.807 -0.1109  0.0965  0.1791
  933MOL0     C28637   8.586   3.198   2.870 -0.2470  0.8344  0.1960
  933MOL0     C28638   8.700   3.128   2.792  0.0669  0.0393 -0.2276
  933MOL0     C28639   8.823   3.215   2.794 -0.7441 -0.0737 -0.7245
  933MOL0     O28640   8.934   3.164   2.731 -0.2211  0.3654 -0.5692
  933MOL0     C28641   8.989   3.050   2.776  0.7606  1.0924  0.2484
  933MOL0     C28642   9.054   3.039   2.902 -0.0168  0.5344  0.3450
  933MOL0     C28643   9.119   2.925   2.953  0.2185  0.2385  0.0827
  933MOL0     C28644   9.208   2.941   3.078 -0.0796 -0.9821 -0.1010
  933MOL0     C28645   9.099   2.812   2.877  1.2210 -0.4356  0.1013
  933MOL0     C28646   9.136   2.673   2.927  0.1986  0.5759  0.0429
  933MOL0     O28647   9.062   2.563   2.888 -0.1043  0.4292 -0.6500
  933MOL0     C28648   9.116   2.443   2.924  0.2046 -0.6568  0.0027
  933MOL0     C28649   9.033   2.351   2.973 -0.3056 -0.3205  0.1782
  933MOL0     C28650   9.075   2.219   2.996  0.3122  0.0512 -0.3840
  933MOL0     C28651   9.206   2.180   2.978  0.1158  0.6727 -0.1933
  933MOL0     O28652   9.249   2.059   3.024 -0.0479 -0.3362 -0.4660
  933MOL0     C28653   9.154   1.948   3.002 -0.0005 -0.0770 -0.7145
  933MOL0     C28654   9.231   1.818   2.981 -1.1226 -0.8131 -0.6165
  933MOL0     C28655   9.145   1.689   2.972  0.5667 -0.4134  0.4163
  933MOL0     C28656   9.051   1.682   2.859  0.6607 -0.0041  0.5566
  933MOL0     C28657   8.957   1.560   2.853  0.0960  0.9353  0.7054
  933MOL0     C28658   9.034   1.432   2.829  0.0558  0.3460 -0.6890
  933MOL0     C28659   9.052   1.338   2.954  0.5761 -0.2008 -0.1105
  933MOL0     C28660   9.186   1.263   2.950 -0.7450  1.1043 -0.6931
  933MOL0    Cl28661   9.204   1.170   2.799  0.3451  0.1183  0.0760
  933MOL0     C28662   9.293   2.268   2.938  0.4673 -0.1171 -0.2538
  933MOL0     C28663   9.251   2.400   2.900  0.4366 -0.0919 -0.3001
  933MOL0     O28664   9.233   2.669   3.011  0.1307 -0.0103  0.7821
  933MOL0     C28665   9.029   2.818   2.754 -0.0489  0.3662 -1.1154
  933MOL0     C28666   8.984   2.940   2.698 -0.0481 -0.3031  0.3599
  933MOL0     N28667   8.394   3.484   2.957  0.8585 -0.6667 -0.0034
  933MOL0     N28668   8.267   3.489   2.988  0.7040  0.2310 -0.1206
  933MOL0     C28669   7.528   4.258   3.106 -1.3297  0.3563 -0.0191
  933MOL0     C28670   7.461   4.360   3.176 -0.4065 -0.1300  0.1382
  933MOL0     C28671   7.299   4.671   3.388  0.5452  0.0416  0.0758
  933MOL0     C28672   7.220   4.627   3.500  0.3156  1.1267  0.0731
  933MOL0     C28673   7.110   4.703   3.552  0.5082 -0.4371  0.3956
  933MOL0     C28674   7.076   4.824   3.491  0.5226 -1.1341 -0.2864
  933MOL0     O28675   6.975   4.911   3.530  0.0620  0.7021 -0.1921
  933MOL0     C28676   6.925   4.883   3.653 -0.6807 -0.3662 -0.3402
  933MOL0     C28677   6.801   4.964   3.685  0.1281 -0.0655 -0.6828
  933MOL0     C28678   6.670   4.940   3.595 -0.8219 -1.2785 -1.2272
  933MOL0     C28679   6.564   4.847   3.654 -1.5181 -0.0445 -0.5562
  933MOL0     C28680   6.463   4.929   3.721  0.1267  0.7840 -0.6163
  933MOL0     C28681   6.379   4.999   3.770 -0.9977 -0.3093  0.2286
  933MOL0     C28682   7.148   4.867   3.382  0.1823 -0.3835  0.2822
  933MOL0     C28683   7.260   4.794   3.325  0.0326  0.5489  0.5047
  933MOL0     C28684   7.326   4.839   3.207  0.2717  0.1793 -0.0348
  933MOL0     H28685   7.505   4.248   3.491 -1.1063  0.7563 -0.3350
  933MOL0     H28686   7.631   4.073   3.374 -0.9009 -2.0849  0.3276
  933MOL0     H28687   7.829   4.163   3.199  3.0907 -1.9144  0.4458
  933MOL0     H28688   7.835   4.121   3.032 -2.8100  3.1238 -1.0288
  933MOL0     H28689   7.970   3.982   3.215  0.1818 -1.0633  0.6538
  933MOL0     H28690   7.805   3.929   3.271 -3.7379 -0.2396 -2.8411
  933MOL0     H28691   7.772   3.838   3.032  0.7609  0.9848 -0.2238
  933MOL0     H28692   7.945   3.837   3.012 -0.8664 -2.0379 -0.7589
  933MOL0     H28693   7.932   3.699   3.249  1.2962 -1.2499 -0.9783
  933MOL0     H28694   7.760   3.682   3.184 -1.0166  2.2438 -0.8767
  933MOL0     H28695   8.016   3.623   3.010 -1.1300  0.4355 -3.6010
  933MOL0     H28696   7.855   3.564   2.986  2.2187  1.8978 -2.3030
  933MOL0     H28697   8.064   3.486   3.195 -0.8185 -0.1170  0.2871
  933MOL0     H28698   7.900   3.443   3.233 -1.6542  2.7110  0.1055
  933MOL0     H28699   7.892   3.300   3.040 -1.1068  3.3549 -0.9468
  933MOL0     H28700   8.044   3.270   3.132  0.0070  0.6474  1.9130
  933MOL0     H28701   8.045   3.253   2.887 -3.6069  0.5400 -0.7570
  933MOL0     H28702   8.002   3.415   2.860 -0.3270  0.3631  0.8544
  933MOL0     H28703   8.269   3.227   2.789  2.8682  0.8942 -1.8749
  933MOL0     H28704   8.602   3.405   2.801  0.6818 -0.7072 -1.8999
  933MOL0     H28705   8.505   3.300   2.703  1.3649  0.7737 -0.3440
  933MOL0     H28706   8.614   3.229   2.971  1.0904  0.6438 -0.0921
  933MOL0     H28707   8.498   3.134   2.862 -1.3110  2.3386 -0.8597
  933MOL0     H28708   8.712   3.035   2.849 -1.0162 -0.4928 -0.8359
  933MOL0     H28709   8.653   3.094   2.699  0.9892 -1.7740 -0.0713
  933MOL0     H28710   8.781   3.307   2.753 -0.4593 -0.5954 -2.2310
  933MOL0     H28711   8.842   3.252   2.896 -1.7778 -1.8297  0.1540
  933MOL0     H28712   9.054   3.132   2.957 -0.4441  0.7452 -0.0068
  933MOL0     H28713   9.184   2.872   3.160  0.7825 -1.3694 -0.1629
  933MOL0     H28714   9.195   3.044   3.114 -2.2417 -1.6534  1.2823
  933MOL0     H28715   9.316   2.931   3.064 -0.3328 -0.6332 -2.7875
  933MOL0     H28716   8.933   2.380   3.004  1.1801  1.8343  3.6711
  933MOL0     H28717   9.003   2.155   3.047  1.6846  0.9842  3.0619
  933MOL0     H28718   9.073   1.955   3.075  0.9471  4.8860  0.2449
  933MOL0     H28719   9.092   1.971   2.915 -1.8129  1.3542  0.8743
  933MOL0     H28720   9.295   1.822   2.892  2.3158 -0.7818  1.6742
  933MOL0     H28721   9.301   1.798   3.062 -0.4001  1.1435 -0.7073
  933MOL0     H28722   9.086   1.692   3.065  0.1995  1.6396  0.1722
  933MOL0     H28723   9.204   1.597   2.968  2.5522  0.7435  1.3901
  933MOL0     H28724   9.114   1.692   2.771  0.1322  0.0343  0.1817
  933MOL0     H28725   8.988   1.771   2.864 -1.0682 -1.0544 -1.3001
  933MOL0     H28726   8.906   1.561   2.950  0.3255 -2.9772  1.0298
  933MOL0     H28727   8.888   1.564   2.768  0.8486  0.4299  0.0491
  933MOL0     H28728   9.129   1.453   2.779  0.1313  1.0309 -0.2646
  933MOL0     H28729   8.978   1.379   2.752  0.7811  2.4680 -2.7828
  933MOL0     H28730   8.971   1.265   2.956  0.2183  0.1315  3.0417
  933MOL0     H28731   9.037   1.398   3.044 -1.0104  4.0198 -2.8715
  933MOL0     H28732   9.173   1.185   3.025  2.5104 -2.5018 -3.4652
  933MOL0     H28733   9.272   1.329   2.967 -1.1629  1.3841  0.4069
  933MOL0     H28734   9.395   2.244   2.911  0.4133 -1.4052  0.5986
  933MOL0     H28735   9.325   2.469   2.862  3.7912 -1.5510  2.9298
  933MOL0     H28736   9.009   2.726   2.700 -1.5031  0.5113 -0.8626
  933MOL0     H28737   8.940   2.933   2.599 -0.0835 -1.1539  0.4334
  933MOL0     H28738   7.533   4.275   2.999 -0.5866 -1.8215 -0.3736
  933MOL0     H28739   7.414   4.445   3.128  2.8661  1.2941 -0.8151
  933MOL0     H28740   7.260   4.543   3.556  1.8550  1.9791  0.3281
  933MOL0     H28741   7.069   4.663   3.644 -2.8195  0.7127 -0.4159
  933MOL0     H28742   6.900   4.776   3.661 -0.1477 -0.5216 -0.6773
  933MOL0     H28743   6.996   4.910   3.731 -0.6443 -1.3079 -0.0305
  933MOL0     H28744   6.830   5.069   3.678  0.1496  0.0401  0.7478
  933MOL0     H28745   6.775   4.959   3.791  1.3278 -0.5311 -0.3913
  933MOL0     H28746   6.624   5.038   3.585 -2.4235 -1.4812  2.4169
  933MOL0     H28747   6.702   4.914   3.494 -2.8543  0.3245 -2.3646
  933MOL0     H28748   6.615   4.770   3.712  3.3597  2.0102 -1.5518
  933MOL0     H28749   6.526   4.794   3.567 -1.8732  2.1994 -1.8550
  933MOL0     H28750   6.296   5.058   3.802 -1.1689 -0.4297  0.0106
  933MOL0     H28751   7.118   4.961   3.336  0.5774 -1.3863 -2.1889
  933MOL0     H28752   7.300   4.773   3.123  1.6392 -0.4867  0.0314
  933MOL0     H28753   7.288   4.938   3.181 -2.4827 -1.2724 -2.1232
  933MOL0     H28754   7.434   4.850   3.215  0.3281  1.2435 -1.7677
  934MOL0     O28755   5.970   4.826   1.016  1.1974  0.5959 -0.1962
  934MOL0     C28756   6.089   4.817   1.061  0.4765 -0.1530  0.3184
  934MOL0     O28757   6.135   4.862   1.185  0.3059  0.0192  0.2269
  934MOL0     C28758   6.076   4.979   1.220 -0.5993  0.3513 -0.0148
  934MOL0     C28759   6.060   5.097   1.140  1.3085 -0.3112  0.3415
  934MOL0     C28760   5.981   5.206   1.183 -0.3465 -0.6313 -0.2499
  934MOL0     C28761   5.949   5.204   1.321 -0.5364  0.0747 -0.0232
  934MOL0     O28762   5.883   5.309   1.374 -0.3400 -0.0895 -0.3407
  934MOL0     C28763   5.739   5.294   1.366 -0.5806 -0.1654  0.6176
  934MOL0     C28764   5.677   5.377   1.473  0.7494 -0.1065  0.3545
  934MOL0     C28765   5.529   5.380   1.452 -0.3071  0.8005 -0.5015
  934MOL0     C28766   5.456   5.397   1.581  0.6786  1.1189 -0.3885
  934MOL0     C28767   5.316   5.456   1.574 -0.2948 -0.0742  0.2836
  934MOL0     C28768   5.225   5.415   1.692  0.3702  0.3996 -0.3678
  934MOL0     C28769   5.281   5.462   1.822  0.8076 -0.6112 -0.2495
  934MOL0     C28770   5.173   5.501   1.930 -0.3061 -0.0776 -0.3203
  934MOL0     N28771   5.081   5.389   1.947 -0.4543  0.6882  0.0506
  934MOL0     C28772   5.108   5.256   1.935 -0.2020 -0.3630 -0.3331
  934MOL0     C28773   5.013   5.194   1.991  0.4850  0.0136  0.0237
  934MOL0     C28774   5.010   5.051   2.037  0.7652  0.6689 -0.9914
  934MOL0     C28775   5.020   5.046   2.190  1.0852 -0.8306  0.0991
  934MOL0     C28776   5.149   5.090   2.262 -0.4964  0.3243 -0.1129
  934MOL0     C28777   5.122   5.126   2.415  0.2077 -0.8631  0.4985
  934MOL0     O28778   5.234   5.192   2.475  0.7844  0.2768  0.5506
  934MOL0     C28779   5.241   5.331   2.473  0.1646  0.1180  0.3811
  934MOL0     C28780   5.168   5.416   2.389 -1.0589  1.3292  0.5566
  934MOL0     C28781   5.170   5.554   2.411 -1.5455 -0.3512  0.7824
  934MOL0     C28782   5.109   5.644   2.304  0.4073 -0.3139  0.0531
  934MOL0     C28783   5.236   5.608   2.518  0.3355 -0.7979  1.1007
  934MOL0     C28784   5.245   5.748   2.542 -2.0041  0.1415  0.6639
  934MOL0     O28785   5.357   5.792   2.600  0.1940  0.4562  0.7324
  934MOL0     C28786   5.369   5.931   2.628 -0.2458  0.0514 -0.7453
  934MOL0     C28787   5.354   5.977   2.761 -0.5104 -0.5030  0.5063
  934MOL0     C28788   5.363   6.121   2.778 -0.1788 -0.4113 -0.3792
  934MOL0     C28789   5.393   6.212   2.681 -0.1742 -0.6396 -0.8579
  934MOL0     O28790   5.418   6.341   2.721  0.2263 -0.1875 -0.6282
  934MOL0     C28791   5.448   6.433   2.618  0.5823  0.3317 -0.7445
  934MOL0     C28792   5.487   6.574   2.669  1.0059 -0.0541 -0.3347
  934MOL0     C28793   5.610   6.564   2.756 -0.0578  0.1857 -0.0261
  934MOL0     C28794   5.647   6.695   2.831 -0.3306  0.7823  0.4109
  934MOL0     C28795   5.770   6.698   2.923  0.5752  0.3622 -0.0953
  934MOL0     C28796   5.775   6.584   3.030  0.8028  1.2975 -0.9732
  934MOL0     C28797   5.898   6.606   3.123  0.2746 -0.3015 -1.2877
  934MOL0     C28798   5.926   6.477   3.206 -0.7773  0.3837  0.5344
  934MOL0    Cl28799   6.049   6.377   3.115  0.0770 -0.1661  0.0407
  934MOL0     C28800   5.410   6.163   2.552 -0.0780  0.3796 -0.3576
  934MOL0     C28801   5.404   6.027   2.529 -0.1698  0.2946 -0.8715
  934MOL0     O28802   5.149   5.820   2.524  1.1318  0.1888  0.1827
  934MOL0     C28803   5.318   5.523   2.592 -0.3322 -0.3890 -0.8059
  934MOL0     C28804   5.324   5.391   2.571 -0.1237 -0.1999  0.5188
  934MOL0     N28805   4.916   5.286   2.028 -0.2682 -0.1264 -0.4795
  934MOL0     N28806   4.956   5.406   1.994 -0.2839  0.3774 -0.0411
  934MOL0     C28807   5.964   5.093   1.399 -0.8541  0.5877  0.3532
  934MOL0     C28808   6.025   4.983   1.356 -0.7999  0.0416  0.9384
  934MOL0     C28809   6.185   4.746   0.981  0.4555 -0.4039  0.1031
  934MOL0     C28810   6.305   4.722   1.045 -0.2950  0.4463  0.7035
  934MOL0     C28811   6.416   4.654   0.987  0.0088  0.2050 -0.2877
  934MOL0     C28812   6.393   4.585   0.872  0.4394  1.0093 -0.1002
  934MOL0     O28813   6.486   4.501   0.818  0.2891 -0.5917 -0.2183
  934MOL0     C28814   6.561   4.423   0.919 -0.3785  0.4332  0.3721
  934MOL0     C28815   6.711   4.461   0.919 -0.0200 -1.0649 -0.3582
  934MOL0     C28816   6.782   4.379   1.033 -0.2480  0.4342  0.7745
  934MOL0     C28817   6.742   4.416   1.185  1.0653  0.4400 -0.5072
  934MOL0     C28818   6.751   4.555   1.211  0.3063 -0.1686 -1.6046
  934MOL0     C28819   6.782   4.670   1.226 -0.4242 -0.5084 -0.5447
  934MOL0     C28820   6.274   4.606   0.807 -0.0566  0.1888  0.4068
  934MOL0     C28821   6.171   4.694   0.843 -0.4428 -0.0772 -0.9890
  934MOL0     C28822   6.058   4.722   0.745  0.2562  0.4590 -0.2929
  934MOL0     H28823   6.077   5.094   1.033  0.4436 -0.0511  0.1858
  934MOL0     H28824   5.948   5.284   1.116  1.3308 -0.0033 -0.3666
  934MOL0     H28825   5.726   5.193   1.407 -0.5631 -0.2320  0.4591
  934MOL0     H28826   5.706   5.307   1.263 -1.3896  0.9083  0.9969
  934MOL0     H28827   5.696   5.326   1.568 -0.5648 -1.5413 -0.0975
  934MOL0     H28828   5.715   5.479   1.475  2.1139 -0.5556  3.4889
  934MOL0     H28829   5.508   5.465   1.386  0.1890 -0.4144 -2.3030
  934MOL0     H28830   5.507   5.282   1.410  1.2975  0.0602  0.2807
  934MOL0     H28831   5.459   5.294   1.615  0.2787 -0.3728 -4.3194
  934MOL0     H28832   5.507   5.451   1.661  1.2438 -1.0579  0.7925
  934MOL0     H28833   5.285   5.410   1.480  2.1365 -0.1203 -0.5603
  934MOL0     H28834   5.320   5.563   1.551 -0.2246  0.2668  1.7777
  934MOL0     H28835   5.124   5.455   1.675  0.6254  0.5915 -1.5996
  934MOL0     H28836   5.217   5.307   1.684  3.4189  0.2024 -2.2398
  934MOL0     H28837   5.337   5.547   1.783  1.3245 -1.4077 -1.2949
  934MOL0     H28838   5.364   5.399   1.855  3.9453  2.1073 -2.3093
  934MOL0     H28839   5.227   5.510   2.025 -1.6324 -2.4681  0.7404
  934MOL0     H28840   5.115   5.592   1.917 -1.6581 -0.9316 -0.4891
  934MOL0     H28841   5.202   5.207   1.913 -0.2121  0.0355 -1.2750
  934MOL0     H28842   5.079   4.977   1.995 -1.2399 -1.6059 -0.5217
  934MOL0     H28843   4.912   5.004   2.023 -0.0876  0.0071  4.6428
  934MOL0     H28844   4.942   5.104   2.242  2.6765  3.2971 -1.6765
  934MOL0     H28845   5.000   4.944   2.224 -1.7384 -1.4689 -2.9798
  934MOL0     H28846   5.222   5.011   2.245 -1.6719 -1.0988  1.1633
  934MOL0     H28847   5.176   5.182   2.210  1.4364 -0.5883 -0.8242
  934MOL0     H28848   5.038   5.195   2.410  0.7014 -0.1737  1.4659
  934MOL0     H28849   5.095   5.035   2.470  0.9057 -0.5558  1.3749
  934MOL0     H28850   5.103   5.367   2.318  0.1393  1.5962 -0.7594
  934MOL0     H28851   5.095   5.595   2.208 -0.8904 -0.1316  0.1301
  934MOL0     H28852   5.174   5.730   2.281  0.7365 -0.5288  0.1633
  934MOL0     H28853   5.007   5.676   2.324 -1.0159 -4.1657 -0.2306
  934MOL0     H28854   5.357   5.911   2.847 -0.0812 -0.4750  0.5183
  934MOL0     H28855   5.355   6.170   2.875  1.9938  0.8183 -0.7622
  934MOL0     H28856   5.528   6.397   2.553  1.5897 -0.1768  0.7351
  934MOL0     H28857   5.359   6.436   2.553  3.4600 -0.8899 -5.1969
  934MOL0     H28858   5.520   6.634   2.584 -0.9659  1.4694 -0.0947
  934MOL0     H28859   5.406   6.622   2.724  1.5016 -1.0652  1.3652
  934MOL0     H28860   5.698   6.546   2.694 -1.8476 -0.3580 -2.5673
  934MOL0     H28861   5.598   6.484   2.830  0.3592 -2.1271 -2.2952
  934MOL0     H28862   5.562   6.718   2.895 -1.1299  0.8684 -0.6596
  934MOL0     H28863   5.664   6.779   2.762 -2.4890  0.4096 -0.6548
  934MOL0     H28864   5.863   6.698   2.865  0.3145  0.0974 -0.5177
  934MOL0     H28865   5.771   6.791   2.981  2.0830 -0.8607  1.9675
  934MOL0     H28866   5.791   6.483   2.989  1.4226 -0.0670  2.3341
  934MOL0     H28867   5.682   6.584   3.087  1.1940  0.8207 -0.3260
  934MOL0     H28868   5.877   6.690   3.189  2.2545 -0.1628 -0.7578
  934MOL0     H28869   5.980   6.628   3.053  0.8945 -2.9927 -1.5270
  934MOL0     H28870   5.831   6.424   3.217 -0.9254  0.9239  2.1572
  934MOL0     H28871   5.963   6.506   3.305  0.2396  0.5313  0.1226
  934MOL0     H28872   5.447   6.220   2.467  1.4128  3.0327  1.8925
  934MOL0     H28873   5.417   5.997   2.425 -1.2475 -1.7117 -0.4928
  934MOL0     H28874   5.376   5.554   2.679 -0.8433 -0.5627 -0.3993
  934MOL0     H28875   5.377   5.311   2.622  0.4871 -1.2530 -1.6090
  934MOL0     H28876   5.961   5.094   1.507  2.6716  0.0915  0.5985
  934MOL0     H28877   6.056   4.897   1.414 -0.1848  0.6676  1.5481
  934MOL0     H28878   6.328   4.757   1.146  2.1558  2.7441 -0.5227
  934MOL0     H28879   6.516   4.650   1.031  0.8400 -2.0294 -2.1710
  934MOL0     H28880   6.506   4.415   1.013 -2.1326  0.4840 -0.5936
  934MOL0     H28881   6.562   4.315   0.900 -0.0281  0.2244  1.4957
  934MOL0     H28882   6.723   4.569   0.927  2.7082 -1.4306  1.8838
  934MOL0     H28883   6.769   4.426   0.832 -0.2721 -2.2345 -0.0817
  934MOL0     H28884   6.762   4.273   1.019  4.8241 -0.7937  0.9007
  934MOL0     H28885   6.890   4.381   1.015 -0.7416  1.1047 -2.8566
  934MOL0     H28886   6.809   4.365   1.254  1.2426  2.2769  0.7570
  934MOL0     H28887   6.640   4.380   1.199  0.6483  1.9514  0.6363
  934MOL0     H28888   6.829   4.764   1.244  2.1700 -1.4797 -1.7213
  934MOL0     H28889   6.276   4.563   0.708 -1.1957  0.8252  0.0955
  934MOL0     H28890   6.091   4.696   0.644 -2.2753  2.9307 -1.9101
  934MOL0     H28891   5.968   4.660   0.750 -0.0837  0.7827 -1.7666
  934MOL0     H28892   6.023   4.826   0.739 -3.0138 -0.6049 -2.2394
  935MOL0     O28893   6.997   9.632   7.162 -0.1870 -0.2184 -0.5032
  935MOL0     C28894   7.065   9.686   7.246 -0.4544  0.0903 -0.1042
  935MOL0     O28895   7.054   9.816   7.288 -0.5432  0.0879 -0.3104
  935MOL0     C28896   6.961   9.907   7.240 -0.7974 -0.4027 -0.0514
  935MOL0     C28897   6.971   9.963   7.115  0.2108  0.5177  0.0813
  935MOL0     C28898   6.884  10.068   7.077  0.4734 -0.3577  0.0791
  935MOL0     C28899   6.795  10.115   7.176  0.2057  0.5509 -0.3318
  935MOL0     O28900   6.720  10.221   7.129 -0.1236  0.8055 -0.0938
  935MOL0     C28901   6.611  10.285   7.195  0.8380  0.3417 -0.1542
  935MOL0     C28902   6.490  10.205   7.144 -0.0461  0.5860 -0.5670
  935MOL0     C28903   6.472  10.229   6.996 -0.3891  0.4006 -0.5911
  935MOL0     C28904   6.337  10.174   6.951 -0.5832  0.1277 -0.5233
  935MOL0     C28905   6.305  10.244   6.811 -0.6827 -0.3433 -1.2347
  935MOL0     C28906   6.207  10.167   6.726 -0.3524 -0.6773 -0.4585
  935MOL0     C28907   6.284  10.062   6.643  0.0076  0.9066  0.3988
  935MOL0     C28908   6.194   9.951   6.583 -0.0429 -0.2452  0.0847
  935MOL0     N28909   6.125   9.862   6.672  0.8273 -0.0445 -0.2795
  935MOL0     C28910   6.186   9.774   6.751 -0.4846 -0.0100  0.2942
  935MOL0     C28911   6.091   9.716   6.821 -0.3710 -0.4160 -0.1168
  935MOL0     C28912   6.120   9.612   6.930  0.4444  0.5601  0.0415
  935MOL0     C28913   6.210   9.684   7.038  0.7318 -0.6141  0.2249
  935MOL0     C28914   6.145   9.813   7.103  0.5899 -0.2995 -0.2120
  935MOL0     C28915   6.000   9.807   7.155 -0.3406 -0.1258 -0.2709
  935MOL0     O28916   5.992   9.725   7.271  0.2247 -0.5975 -0.1057
  935MOL0     C28917   5.873   9.659   7.291  0.2590 -0.0223  0.1028
  935MOL0     C28918   5.876   9.532   7.329  0.2374  0.0180  0.2904
  935MOL0     C28919   5.757   9.442   7.320  0.3765 -0.7141 -0.0105
  935MOL0     C28920   5.771   9.296   7.360 -0.5720  0.5252  0.5409
  935MOL0     C28921   5.631   9.503   7.283  0.5271  0.6261  0.1780
  935MOL0     C28922   5.503   9.431   7.274  0.9808  0.5121  0.7960
  935MOL0     O28923   5.381   9.498   7.257  0.8166  0.0572 -0.0613
  935MOL0     C28924   5.260   9.437   7.275  0.0130  0.7341 -0.3676
  935MOL0     C28925   5.227   9.346   7.371  0.0985  0.9736  0.2051
  935MOL0     C28926   5.097   9.288   7.383 -0.1437 -0.8511  0.5210
  935MOL0     C28927   4.999   9.334   7.286  0.1891  0.8000 -0.6149
  935MOL0     O28928   4.886   9.271   7.267  0.4175  0.7538 -0.1043
  935MOL0     C28929   4.838   9.167   7.354  0.3647  0.8489  0.4794
  935MOL0     C28930   4.716   9.106   7.281  0.3354 -0.0648 -1.2502
  935MOL0     C28931   4.660   8.984   7.361  1.3862 -0.0881  0.3385
  935MOL0     C28932   4.607   9.032   7.497  0.7224 -0.1962 -0.3784
  935MOL0     C28933   4.523   8.935   7.571  0.0685  0.5180 -0.0351
  935MOL0     C28934   4.523   8.966   7.724  0.2705 -0.0137 -0.7036
  935MOL0     C28935   4.507   9.113   7.769 -0.5968  0.3057  0.7852
  935MOL0     C28936   4.381   9.129   7.861 -0.8588 -0.0156 -0.0641
  935MOL0    Cl28937   4.227   9.105   7.774  0.0029  0.2199  0.0156
  935MOL0     C28938   5.038   9.428   7.188  0.3553 -0.4537 -0.0020
  935MOL0     C28939   5.171   9.471   7.178 -0.5648  0.3770  0.4528
  935MOL0     O28940   5.509   9.313   7.283 -0.2621 -0.1693 -0.2436
  935MOL0     C28941   5.627   9.638   7.252 -0.0901 -0.2424 -0.5183
  935MOL0     C28942   5.747   9.712   7.253 -0.4225  0.1611  0.3613
  935MOL0     N28943   5.970   9.783   6.807  0.1796 -0.7992  0.0971
  935MOL0     N28944   5.989   9.870   6.715  0.2709  0.1594  0.1252
  935MOL0     C28945   6.791  10.071   7.304 -0.6711  0.2293 -0.3384
  935MOL0     C28946   6.874   9.958   7.335 -0.4195  0.3688 -0.5258
  935MOL0     C28947   7.139   9.592   7.340 -0.3259 -0.7765 -0.4007
  935MOL0     C28948   7.258   9.523   7.301  1.2466  0.8896  0.0674
  935MOL0     C28949   7.329   9.450   7.392  0.7576  0.2907  0.0316
  935MOL0     C28950   7.280   9.435   7.522  0.4077 -0.2142  0.6052
  935MOL0     O28951   7.336   9.365   7.626 -0.2958  0.1765 -0.9786
  935MOL0     C28952   7.382   9.233   7.609  0.1664  0.1950 -0.1947
  935MOL0     C28953   7.353   9.155   7.731 -0.1061  1.3334 -0.6911
  935MOL0     C28954   7.400   9.011   7.704 -1.0736  0.9977  0.4508
  935MOL0     C28955   7.288   8.909   7.725 -1.0683 -0.2345 -0.2203
  935MOL0     C28956   7.186   8.930   7.625 -0.4590  0.0285 -0.4843
  935MOL0     C28957   7.092   8.941   7.551  0.1729 -0.1629  0.1077
  935MOL0     C28958   7.156   9.482   7.557 -0.1857 -1.3635  0.1424
  935MOL0     C28959   7.085   9.569   7.474 -0.1937  0.1273  0.4601
  935MOL0     C28960   6.958   9.637   7.529  0.5357  0.2098 -0.9731
  935MOL0     H28961   7.042   9.919   7.046 -1.8985 -1.3664 -1.0361
  935MOL0     H28962   6.875  10.111   6.978 -1.4894 -3.7268 -1.4162
  935MOL0     H28963   6.606  10.391   7.169 -0.6651  0.3224 -0.0261
  935MOL0     H28964   6.626  10.270   7.302  3.9497 -0.8739 -0.6305
  935MOL0     H28965   6.513  10.099   7.159  0.2414  1.0606  3.2191
  935MOL0     H28966   6.404  10.237   7.203  0.5708 -0.9692  1.3026
  935MOL0     H28967   6.468  10.335   6.969 -1.0136  0.4956 -0.1364
  935MOL0     H28968   6.554  10.187   6.936 -1.2556  2.2976 -3.3234
  935MOL0     H28969   6.326  10.068   6.927 -1.6280 -0.5328  2.4521
  935MOL0     H28970   6.255  10.205   7.017  0.3063  1.5753 -0.0577
  935MOL0     H28971   6.399  10.248   6.755  1.5296 -4.0268  1.8120
  935MOL0     H28972   6.278  10.349   6.825 -1.3764 -0.5333 -1.0965
  935MOL0     H28973   6.144  10.116   6.800 -1.1981 -0.2952 -0.8964
  935MOL0     H28974   6.147  10.236   6.665  0.1673 -0.0600 -0.2824
  935MOL0     H28975   6.363  10.015   6.702 -0.8647  0.4705  1.2313
  935MOL0     H28976   6.341  10.112   6.564  2.8390 -3.9228 -1.0078
  935MOL0     H28977   6.112  10.002   6.531  0.7208  3.4999  2.1513
  935MOL0     H28978   6.258   9.892   6.516 -1.3843 -2.9758  1.0585
  935MOL0     H28979   6.292   9.753   6.756 -0.3282 -0.5790 -2.9283
  935MOL0     H28980   6.164   9.520   6.891  2.4278  0.5434  2.1145
  935MOL0     H28981   6.024   9.592   6.979  0.2405 -0.5566 -0.7732
  935MOL0     H28982   6.244   9.611   7.112 -2.3836 -1.3941  1.0190
  935MOL0     H28983   6.291   9.735   6.984  1.7191  0.0620  2.2471
  935MOL0     H28984   6.213   9.859   7.176  2.2558  0.2655 -2.0381
  935MOL0     H28985   6.138   9.884   7.021  1.3662 -1.9567 -1.7969
  935MOL0     H28986   5.981   9.905   7.199 -0.7437 -0.4256  0.2306
  935MOL0     H28987   5.928   9.787   7.075 -1.6818 -0.2819  0.9396
  935MOL0     H28988   5.963   9.479   7.365 -0.1049  0.7513  2.3015
  935MOL0     H28989   5.721   9.230   7.289  3.0306  2.2582 -4.1700
  935MOL0     H28990   5.726   9.282   7.459 -0.7651 -1.4375  0.2178
  935MOL0     H28991   5.872   9.255   7.349 -0.6459  0.4996 -0.0576
  935MOL0     H28992   5.305   9.327   7.445  0.7094  4.7368  0.6992
  935MOL0     H28993   5.075   9.222   7.467 -2.2675  1.7068  2.1063
  935MOL0     H28994   4.920   9.096   7.371  0.3805  0.8861  0.5622
  935MOL0     H28995   4.816   9.199   7.457  1.6637  0.0521  1.0379
  935MOL0     H28996   4.639   9.183   7.272 -0.4566 -1.0793 -4.3741
  935MOL0     H28997   4.750   9.066   7.185  0.0671  1.8439 -2.1955
  935MOL0     H28998   4.731   8.901   7.365 -1.8654 -3.0739  1.4834
  935MOL0     H28999   4.571   8.939   7.314 -0.4568  1.9105  1.7095
  935MOL0     H29000   4.534   9.112   7.479  0.9056 -0.0838 -0.6324
  935MOL0     H29001   4.690   9.058   7.563 -0.8651  0.5687  1.4463
  935MOL0     H29002   4.427   8.937   7.521  1.8947  2.1385 -3.8276
  935MOL0     H29003   4.562   8.833   7.565 -2.1041 -0.3238 -0.5687
  935MOL0     H29004   4.620   8.924   7.750 -1.2858 -3.0154  0.7410
  935MOL0     H29005   4.450   8.903   7.775  3.0478  0.2866  4.2963
  935MOL0     H29006   4.489   9.177   7.681  1.4847  0.3649  0.3325
  935MOL0     H29007   4.593   9.147   7.827  0.3936 -0.0250 -0.4293
  935MOL0     H29008   4.377   9.224   7.914 -2.4855 -0.8895  1.5063
  935MOL0     H29009   4.382   9.062   7.948 -1.9470  2.1631  1.7146
  935MOL0     H29010   4.960   9.457   7.119 -0.3345  1.2980  1.4437
  935MOL0     H29011   5.200   9.516   7.084  2.7045 -2.0197  0.0935
  935MOL0     H29012   5.532   9.684   7.227 -0.8632 -2.3853 -1.8099
  935MOL0     H29013   5.745   9.818   7.228  2.0068  0.6628  1.8803
  935MOL0     H29014   6.737  10.120   7.385  3.3271  1.1819  2.0280
  935MOL0     H29015   6.887   9.907   7.431  1.5433  0.3279 -0.7660
  935MOL0     H29016   7.288   9.540   7.197 -0.8863 -5.4452 -2.0258
  935MOL0     H29017   7.421   9.398   7.371  0.6351 -0.6646  1.6542
  935MOL0     H29018   7.348   9.181   7.519 -1.8679  0.7158  0.2206
  935MOL0     H29019   7.488   9.239   7.584  0.1530  1.2266 -0.0693
  935MOL0     H29020   7.245   9.162   7.750  0.1663 -0.4647  2.0972
  935MOL0     H29021   7.404   9.185   7.822  0.5953  2.5369 -1.4618
  935MOL0     H29022   7.452   8.987   7.611 -1.0522  1.4322  0.3466
  935MOL0     H29023   7.478   8.998   7.781 -0.1427  1.5810 -0.3667
  935MOL0     H29024   7.237   8.934   7.818 -2.8357 -0.3275 -1.1182
  935MOL0     H29025   7.318   8.805   7.741 -1.2982 -0.0656  1.5079
  935MOL0     H29026   7.003   8.927   7.493 -0.6022  0.1022  1.1831
  935MOL0     H29027   7.111   9.466   7.654 -1.6756  2.1298  0.2003
  935MOL0     H29028   6.871   9.602   7.473  2.0725 -1.9815 -2.1575
  935MOL0     H29029   6.943   9.624   7.636 -1.3621  1.8509 -0.9877
  935MOL0     H29030   6.963   9.746   7.526 -1.8416  0.6143  3.0731
  936MOL0     O29031   4.369   3.996   6.569 -0.1773 -0.9021  0.3586
  936MOL0     C29032   4.480   3.980   6.613 -0.2065 -0.1829  0.6851
  936MOL0     O29033   4.511   3.935   6.741  0.5688 -0.0460  0.1861
  936MOL0     C29034   4.429   3.936   6.852  0.0210 -0.0506 -0.3096
  936MOL0     C29035   4.486   3.890   6.971 -0.6732 -0.6167  1.6163
  936MOL0     C29036   4.421   3.888   7.085 -0.4220 -0.2951 -0.0312
  936MOL0     C29037   4.290   3.926   7.090  0.4645 -1.1447  0.0594
  936MOL0     O29038   4.226   3.927   7.221  0.0045 -1.0729  0.0523
  936MOL0     C29039   4.093   3.982   7.237 -0.6764  0.2691  0.1254
  936MOL0     C29040   4.075   3.997   7.385 -0.0630 -0.4003 -0.0255
  936MOL0     C29041   3.961   4.088   7.416 -0.1775 -0.3702 -0.3325
  936MOL0     C29042   3.936   4.113   7.570  0.2762  0.3541  0.8918
  936MOL0     C29043   3.804   4.194   7.577 -0.3901  0.3431  0.6535
  936MOL0     C29044   3.780   4.219   7.725  0.0059 -0.1220  0.0919
  936MOL0     C29045   3.634   4.264   7.739 -0.0892  0.2364  0.3372
  936MOL0     C29046   3.600   4.271   7.893  0.1204  0.4838 -0.2495
  936MOL0     N29047   3.564   4.138   7.948 -0.0451 -0.0780  0.0926
  936MOL0     C29048   3.451   4.066   7.915  0.0285 -0.0973 -0.0571
  936MOL0     C29049   3.451   3.965   8.008  0.0758  0.4475 -0.4008
  936MOL0     C29050   3.348   3.850   7.986  0.1179 -0.6110  0.1587
  936MOL0     C29051   3.198   3.867   8.032  0.1875 -0.5732 -0.9084
  936MOL0     C29052   3.176   3.894   8.177  0.1393 -0.3468 -0.5999
  936MOL0     C29053   3.237   4.025   8.233  0.8036  0.1365  0.1538
  936MOL0     O29054   3.176   4.140   8.172 -0.3933  0.0420 -0.4605
  936MOL0     C29055   3.256   4.248   8.153  0.2238 -0.4215  0.0618
  936MOL0     C29056   3.207   4.326   8.062 -0.9415 -1.0586 -0.2388
  936MOL0     C29057   3.257   4.453   8.033  0.1554  0.2110  0.1329
  936MOL0     C29058   3.206   4.511   7.911  0.2198 -0.4263  0.4202
  936MOL0     C29059   3.349   4.512   8.128  0.0922 -0.1414  0.7112
  936MOL0     C29060   3.407   4.648   8.115 -1.1978 -0.1659  0.1173
  936MOL0     O29061   3.507   4.666   8.033  0.4060  0.6489  0.3270
  936MOL0     C29062   3.562   4.789   8.028 -0.5188  0.4782 -0.3745
  936MOL0     C29063   3.497   4.893   7.973 -0.0382 -1.0325 -0.3505
  936MOL0     C29064   3.568   5.019   7.967  0.6916  0.1217  0.2846
  936MOL0     C29065   3.701   5.035   8.009 -0.6371  0.0706 -0.2821
  936MOL0     O29066   3.759   5.156   8.004 -0.6138  0.3647 -0.0970
  936MOL0     C29067   3.891   5.154   7.942 -0.0153  0.4934 -0.1322
  936MOL0     C29068   3.918   5.290   7.879 -0.4545 -0.4257  0.5693
  936MOL0     C29069   4.051   5.306   7.809 -0.1445 -0.8069  0.1696
  936MOL0     C29070   4.185   5.280   7.898  0.1350  0.7878  0.4157
  936MOL0     C29071   4.315   5.299   7.829  0.2601  0.4480  0.4458
  936MOL0     C29072   4.423   5.198   7.891  0.4010 -0.2316  0.2817
  936MOL0     C29073   4.541   5.187   7.798 -0.6634 -0.4899  0.0809
  936MOL0     C29074   4.608   5.314   7.770 -0.1162 -0.8279  0.8158
  936MOL0    Cl29075   4.761   5.301   7.701 -0.5765 -0.3932  0.3094
  936MOL0     C29076   3.766   4.918   8.054  0.0591  0.3952 -0.3503
  936MOL0     C29077   3.699   4.799   8.066 -0.4868  0.9874  1.2217
  936MOL0     O29078   3.360   4.731   8.189 -0.4558 -0.6533  0.0646
  936MOL0     C29079   3.404   4.422   8.230  0.5462 -0.4891 -0.5481
  936MOL0     C29080   3.360   4.291   8.234  0.3004  0.1083 -1.2385
  936MOL0     N29081   3.554   3.982   8.094 -1.1194  1.0525  0.0230
  936MOL0     N29082   3.615   4.081   8.057 -0.4746 -0.4401 -0.2644
  936MOL0     C29083   4.228   3.980   6.974  0.1952  0.0087 -0.2897
  936MOL0     C29084   4.294   3.990   6.851 -0.7191 -0.5608 -0.0679
  936MOL0     C29085   4.589   3.990   6.511  0.0485 -0.3162  1.4960
  936MOL0     C29086   4.702   3.915   6.547 -0.1991  0.2562 -0.1012
  936MOL0     C29087   4.816   3.917   6.460  0.3259 -0.4876 -0.5503
  936MOL0     C29088   4.823   4.005   6.351 -0.9118 -0.9981 -0.3141
  936MOL0     O29089   4.933   4.006   6.275 -0.2620  0.5985  0.3065
  936MOL0     C29090   4.917   3.975   6.134 -0.1520  1.1551  0.2301
  936MOL0     C29091   4.932   4.098   6.039 -0.0327  0.2358  0.3786
  936MOL0     C29092   5.056   4.177   6.075  0.1020 -0.2491 -0.2410
  936MOL0     C29093   5.067   4.305   6.008 -0.3132 -0.4849  0.2659
  936MOL0     C29094   5.096   4.299   5.866 -0.6242  0.3948  0.4193
  936MOL0     C29095   5.123   4.292   5.749 -0.0702  0.7990 -0.2169
  936MOL0     C29096   4.713   4.093   6.327 -0.3123 -0.9120  0.2664
  936MOL0     C29097   4.600   4.086   6.407  0.7053  0.2081 -0.3901
  936MOL0     C29098   4.502   4.197   6.379  0.1161  0.2175  0.1659
  936MOL0     H29099   4.592   3.867   6.970 -0.3441  0.8284  1.8413
  936MOL0     H29100   4.470   3.840   7.169  3.0548  2.0245 -0.5070
  936MOL0     H29101   4.024   3.913   7.188  1.9006 -2.3261 -0.0981
  936MOL0     H29102   4.075   4.078   7.188  0.3742 -0.2041 -1.2458
  936MOL0     H29103   4.059   3.902   7.436  4.6763 -0.8381  1.1713
  936MOL0     H29104   4.166   4.026   7.438 -0.3379 -1.7178  1.2139
  936MOL0     H29105   3.972   4.180   7.357  0.5959 -1.1071 -1.3891
  936MOL0     H29106   3.864   4.046   7.387  0.1462 -1.7620  0.4870
  936MOL0     H29107   3.941   4.018   7.624 -0.0764  0.5632  1.2986
  936MOL0     H29108   4.019   4.178   7.599 -0.1990  2.2319 -1.5610
  936MOL0     H29109   3.727   4.135   7.525 -1.0437 -0.2075  2.1601
  936MOL0     H29110   3.824   4.284   7.519  2.4686 -1.3268 -1.2148
  936MOL0     H29111   3.789   4.125   7.779 -1.1363  0.0926  0.6824
  936MOL0     H29112   3.853   4.291   7.763 -0.3541 -0.1196  0.7963
  936MOL0     H29113   3.572   4.191   7.686  3.1267 -0.9918 -2.1090
  936MOL0     H29114   3.607   4.362   7.699  1.2054  0.9924  1.2431
  936MOL0     H29115   3.693   4.304   7.941  1.7214 -1.0995 -2.0997
  936MOL0     H29116   3.522   4.347   7.905 -0.5758 -0.6232  3.8842
  936MOL0     H29117   3.382   4.083   7.834  1.0323 -0.3134 -0.9890
  936MOL0     H29118   3.387   3.767   8.045 -1.6903 -2.1964 -0.7367
  936MOL0     H29119   3.352   3.832   7.878  1.3829  1.6190 -0.2311
  936MOL0     H29120   3.147   3.945   7.975  0.9265 -0.2345 -1.1279
  936MOL0     H29121   3.142   3.775   8.016 -1.6695 -0.3145  3.0117
  936MOL0     H29122   3.071   3.870   8.195  0.7431 -3.8316 -0.9418
  936MOL0     H29123   3.229   3.809   8.221  2.1065  0.0044 -2.1319
  936MOL0     H29124   3.200   4.042   8.335  0.7016 -1.3055  0.3745
  936MOL0     H29125   3.346   4.025   8.233  0.9458 -2.3727 -3.0651
  936MOL0     H29126   3.132   4.292   7.990 -1.6536  0.5185 -0.2696
  936MOL0     H29127   3.234   4.617   7.907 -2.4369  0.4427  1.8697
  936MOL0     H29128   3.098   4.496   7.916  0.0341 -0.3850 -2.3356
  936MOL0     H29129   3.235   4.450   7.825 -0.9037  2.4511 -2.1919
  936MOL0     H29130   3.389   4.887   7.962 -0.4961 -1.7263  3.2305
  936MOL0     H29131   3.514   5.102   7.925  2.5861  1.3465  0.1325
  936MOL0     H29132   3.966   5.127   8.016  1.2404  2.0584 -0.7491
  936MOL0     H29133   3.895   5.072   7.870  0.3581 -1.2546  1.8135
  936MOL0     H29134   3.839   5.317   7.808  1.2007 -0.4975 -1.3942
  936MOL0     H29135   3.927   5.348   7.970 -0.5839 -1.6722  1.4044
  936MOL0     H29136   4.056   5.408   7.770  1.3161  0.2613  2.8947
  936MOL0     H29137   4.049   5.236   7.725  0.7411 -0.6222 -0.0078
  936MOL0     H29138   4.168   5.173   7.914  0.9195  0.6310  0.2653
  936MOL0     H29139   4.182   5.326   7.997 -2.1134  0.0190  0.7461
  936MOL0     H29140   4.311   5.267   7.724 -0.6200  0.0572  0.5852
  936MOL0     H29141   4.356   5.400   7.837  0.2975  0.4281  0.5056
  936MOL0     H29142   4.369   5.103   7.895 -1.9565  1.0833  2.1241
  936MOL0     H29143   4.453   5.221   7.994 -0.8125 -1.0006  0.8226
  936MOL0     H29144   4.500   5.154   7.702  0.1555  0.9973 -0.8451
  936MOL0     H29145   4.615   5.117   7.837 -0.2900  0.9106  2.0508
  936MOL0     H29146   4.628   5.374   7.859  0.7680 -1.0582  0.7870
  936MOL0     H29147   4.533   5.373   7.716 -1.6610 -1.4954  2.1826
  936MOL0     H29148   3.868   4.919   8.091 -1.4273  1.1815  4.3733
  936MOL0     H29149   3.755   4.710   8.093  3.8116  2.7469 -0.9408
  936MOL0     H29150   3.483   4.464   8.291 -0.0903  0.1733 -0.1469
  936MOL0     H29151   3.396   4.219   8.307 -4.2844 -1.8063 -0.5532
  936MOL0     H29152   4.126   4.017   6.974  0.8056  1.7748 -0.4194
  936MOL0     H29153   4.244   4.025   6.761  1.2937 -2.7555 -2.2170
  936MOL0     H29154   4.697   3.845   6.629 -2.5106 -1.8758 -1.8869
  936MOL0     H29155   4.900   3.851   6.480 -0.9699 -2.5855 -1.6616
  936MOL0     H29156   4.992   3.901   6.103  0.2562  2.1482 -1.2874
  936MOL0     H29157   4.819   3.939   6.102  1.1389 -1.9012 -0.6336
  936MOL0     H29158   4.851   4.171   6.040 -0.0361  0.3330 -1.7435
  936MOL0     H29159   4.938   4.062   5.936 -0.5191 -3.9796  1.6249
  936MOL0     H29160   5.044   4.205   6.180 -0.0913 -0.9142 -0.0780
  936MOL0     H29161   5.150   4.122   6.078  0.7962  0.9411  1.5556
  936MOL0     H29162   5.142   4.369   6.057  0.3999  0.0647 -1.4771
  936MOL0     H29163   4.973   4.357   6.031 -0.3534 -0.4037 -0.0857
  936MOL0     H29164   5.144   4.279   5.644  0.8532 -2.1218  0.2521
  936MOL0     H29165   4.726   4.158   6.241  0.1916 -1.4490 -0.0762
  936MOL0     H29166   4.396   4.171   6.388  0.2987 -0.3345  0.8283
  936MOL0     H29167   4.526   4.286   6.438 -1.3464  0.2278  0.8026
  936MOL0     H29168   4.518   4.212   6.272  2.9106  0.0079  0.5027
  937MOL0     O29169   4.437   2.406   3.641 -0.6006 -0.3951  0.7684
  937MOL0     C29170   4.356   2.312   3.653 -1.1741  0.8686 -1.0834
  937MOL0     O29171   4.319   2.215   3.555 -0.4845  0.3789 -0.2544
  937MOL0     C29172   4.361   2.251   3.430 -0.1191  1.3256 -0.4498
  937MOL0     C29173   4.285   2.344   3.352  0.4511  0.1854  0.0094
  937MOL0     C29174   4.322   2.373   3.221  0.4625 -1.0504 -0.9030
  937MOL0     C29175   4.453   2.330   3.175 -0.4668  0.6631 -0.3234
  937MOL0     O29176   4.495   2.384   3.057  0.0983  0.4241  0.0891
  937MOL0     C29177   4.637   2.383   3.030  0.0873  0.3667  0.5988
  937MOL0     C29178   4.670   2.262   2.936  0.2711  0.1305 -0.6495
  937MOL0     C29179   4.610   2.282   2.802  0.9980 -0.0854  0.0861
  937MOL0     C29180   4.646   2.180   2.698 -0.7568 -0.3801  0.0086
  937MOL0     C29181   4.597   2.043   2.729 -0.2076  0.4487  0.3709
  937MOL0     C29182   4.568   1.962   2.600 -0.7318 -0.5806 -0.3398
  937MOL0     C29183   4.697   1.937   2.524  0.4581  0.5271  0.8012
  937MOL0     C29184   4.688   1.821   2.414  0.0949 -0.1316 -0.6447
  937MOL0     N29185   4.814   1.780   2.357 -0.5618 -0.1315 -1.6895
  937MOL0     C29186   4.897   1.700   2.425 -0.3204  0.8063 -0.5604
  937MOL0     C29187   4.993   1.664   2.346 -0.2876  0.0780  0.7563
  937MOL0     C29188   5.111   1.576   2.387  0.0370 -0.8583  0.5511
  937MOL0     C29189   5.100   1.431   2.344  0.2136  0.8342  0.5465
  937MOL0     C29190   4.986   1.347   2.392  0.6386 -1.2673  0.6478
  937MOL0     C29191   4.998   1.196   2.370  0.0477 -1.2750  0.6019
  937MOL0     O29192   4.866   1.144   2.385 -0.4876 -0.3825 -0.5463
  937MOL0     C29193   4.843   1.016   2.390 -0.1426  0.2034  0.4112
  937MOL0     C29194   4.939   0.920   2.376  0.9029  0.0862  0.4595
  937MOL0     C29195   4.923   0.782   2.396  0.0993  0.2043  0.2815
  937MOL0     C29196   5.047   0.700   2.422  0.2700  0.4628  0.0258
  937MOL0     C29197   4.792   0.736   2.422  0.5247 -1.1380 -0.3977
  937MOL0     C29198   4.757   0.600   2.463  0.3217 -0.0775 -0.3782
  937MOL0     O29199   4.634   0.592   2.530  0.3029  0.0366  0.2039
  937MOL0     C29200   4.558   0.481   2.510 -0.5298  0.9998  0.0002
  937MOL0     C29201   4.484   0.423   2.611 -0.3591  0.1499  0.7400
  937MOL0     C29202   4.410   0.302   2.579  0.0115 -0.7831  0.0488
  937MOL0     C29203   4.403   0.242   2.457 -0.0539 -0.1521 -0.1885
  937MOL0     O29204   4.326   0.134   2.427 -0.9009 -0.8942  0.9696
  937MOL0     C29205   4.349   0.010   2.503 -0.6223  0.0176  0.8928
  937MOL0     C29206   4.340  -0.120   2.413  0.8897  0.1809  0.4362
  937MOL0     C29207   4.236  -0.114   2.292  0.0050 -0.4572 -0.1469
  937MOL0     C29208   4.250  -0.248   2.217  1.4768  0.0505  0.2479
  937MOL0     C29209   4.205  -0.227   2.069 -0.1724  0.4470  0.1767
  937MOL0     C29210   4.156  -0.356   1.998 -0.6851 -0.3180  0.1334
  937MOL0     C29211   4.006  -0.376   2.003 -0.9078  0.4857  0.4873
  937MOL0     C29212   3.960  -0.512   1.941 -0.8783 -0.0496  0.5829
  937MOL0    Cl29213   3.808  -0.581   1.998 -0.2222  0.0601 -0.6320
  937MOL0     C29214   4.464   0.304   2.354  1.2200 -0.1909  0.3472
  937MOL0     C29215   4.551   0.413   2.383 -0.5044 -0.0767  0.4899
  937MOL0     O29216   4.823   0.509   2.425 -0.1470  0.4535  0.3063
  937MOL0     C29217   4.689   0.837   2.431 -0.4389  0.5158 -0.3400
  937MOL0     C29218   4.716   0.972   2.426  0.9836  0.3961  0.7304
  937MOL0     N29219   4.974   1.722   2.221 -0.5230 -1.1949 -0.2805
  937MOL0     N29220   4.873   1.804   2.241 -0.3124  0.7635 -0.5892
  937MOL0     C29221   4.524   2.227   3.246  0.6189  1.3210  0.4710
  937MOL0     C29222   4.475   2.190   3.375 -1.2230 -0.2502  0.4530
  937MOL0     C29223   4.290   2.294   3.786 -0.0458 -0.6248  0.7039
  937MOL0     C29224   4.177   2.211   3.796 -0.9665  0.9570  0.0067
  937MOL0     C29225   4.134   2.174   3.918  0.2974 -0.4195 -0.1247
  937MOL0     C29226   4.153   2.248   4.028 -0.6281  0.3315 -0.6925
  937MOL0     O29227   4.104   2.217   4.151  0.1701  0.1958  0.7199
  937MOL0     C29228   3.960   2.197   4.156  0.2742  0.6661  0.4283
  937MOL0     C29229   3.887   2.210   4.289  1.0955  0.3289  0.5214
  937MOL0     C29230   3.915   2.339   4.376  0.0348  0.3039  0.5054
  937MOL0     C29231   4.050   2.308   4.459  0.0701 -0.0707 -0.4647
  937MOL0     C29232   4.013   2.209   4.568 -0.2771 -0.2589  0.8172
  937MOL0     C29233   3.974   2.133   4.650  0.4343 -0.7428  0.5599
  937MOL0     C29234   4.242   2.347   4.022 -0.1976 -0.7075 -0.0248
  937MOL0     C29235   4.323   2.363   3.907 -0.5120 -0.2946 -0.2243
  937MOL0     C29236   4.434   2.455   3.914  0.0691  0.4448  0.2591
  937MOL0     H29237   4.192   2.368   3.402  0.9836  0.9562  0.6600
  937MOL0     H29238   4.259   2.449   3.175  2.6914  1.5482  0.0556
  937MOL0     H29239   4.688   2.384   3.127  1.1555 -2.1686  0.1617
  937MOL0     H29240   4.654   2.476   2.977 -2.7526  0.5694 -0.1038
  937MOL0     H29241   4.779   2.265   2.925  0.4140  2.4215  0.8502
  937MOL0     H29242   4.640   2.165   2.976  2.4433 -1.7718 -3.2442
  937MOL0     H29243   4.500   2.281   2.797  1.0165 -2.3053 -1.1657
  937MOL0     H29244   4.652   2.375   2.762  3.5789 -1.5054 -0.7125
  937MOL0     H29245   4.607   2.207   2.600  3.9828  4.7940 -0.9505
  937MOL0     H29246   4.753   2.166   2.679 -1.1297 -1.1942 -1.6597
  937MOL0     H29247   4.500   2.054   2.777 -1.3445  1.1585 -1.9377
  937MOL0     H29248   4.669   1.994   2.795 -0.8749  0.3377  1.0299
  937MOL0     H29249   4.530   1.864   2.629  1.5312 -1.4946 -0.2472
  937MOL0     H29250   4.497   2.014   2.536 -1.5249 -1.1319  0.0698
  937MOL0     H29251   4.766   1.901   2.601 -1.1149 -0.4295  1.8425
  937MOL0     H29252   4.730   2.033   2.485 -0.6767  1.3501  1.7562
  937MOL0     H29253   4.625   1.742   2.455  1.3760 -0.5445  0.5988
  937MOL0     H29254   4.637   1.879   2.336 -1.1059  2.5117  1.9167
  937MOL0     H29255   4.900   1.660   2.526 -2.2540 -1.9060 -1.4709
  937MOL0     H29256   5.134   1.572   2.494  1.8524 -0.0621  0.2288
  937MOL0     H29257   5.206   1.613   2.348  1.2784 -3.1333  1.2317
  937MOL0     H29258   5.094   1.431   2.235 -2.0618 -0.8646  0.5958
  937MOL0     H29259   5.190   1.374   2.371  0.5998  0.3723 -1.5143
  937MOL0     H29260   4.979   1.388   2.493  3.4761  0.3989  0.2590
  937MOL0     H29261   4.895   1.386   2.345  1.4731 -0.7789 -0.6334
  937MOL0     H29262   5.028   1.175   2.267 -3.0166 -2.2625 -0.2100
  937MOL0     H29263   5.063   1.161   2.451  0.3767  2.6534  2.2430
  937MOL0     H29264   5.042   0.955   2.369  1.5809 -1.4982  1.8917
  937MOL0     H29265   5.131   0.767   2.443  0.6497  0.4117 -1.2727
  937MOL0     H29266   5.068   0.641   2.333 -0.8426  2.2061 -1.4518
  937MOL0     H29267   5.027   0.646   2.515  2.3586  1.2248  0.9649
  937MOL0     H29268   4.472   0.459   2.713 -4.5074  0.7843  0.1874
  937MOL0     H29269   4.350   0.255   2.657  0.1145 -0.6838  0.1878
  937MOL0     H29270   4.446   0.015   2.553 -0.0596  2.5200 -0.2565
  937MOL0     H29271   4.281   0.011   2.589  0.8897  2.6796  2.1904
  937MOL0     H29272   4.441  -0.140   2.376  0.5357  1.1252 -1.1414
  937MOL0     H29273   4.317  -0.206   2.476  1.0814 -2.0055 -2.3161
  937MOL0     H29274   4.252  -0.032   2.222 -4.5021  0.0351 -0.9351
  937MOL0     H29275   4.133  -0.094   2.325 -0.8335 -2.6847 -1.2100
  937MOL0     H29276   4.189  -0.330   2.257  0.9295 -1.3181 -3.0444
  937MOL0     H29277   4.356  -0.275   2.218  1.7093  0.8926 -0.4432
  937MOL0     H29278   4.131  -0.151   2.041  0.3301  0.4372 -1.2357
  937MOL0     H29279   4.298  -0.180   2.033  0.4089 -0.6017  0.2632
  937MOL0     H29280   4.217  -0.439   2.034 -1.2533 -0.2663  1.2542
  937MOL0     H29281   4.201  -0.352   1.899  2.0024  0.4455  1.3046
  937MOL0     H29282   3.964  -0.303   1.933 -0.1395 -0.2479 -0.7623
  937MOL0     H29283   3.956  -0.352   2.098  0.5133  1.8481  0.9340
  937MOL0     H29284   4.039  -0.586   1.956  0.0009  0.9684  1.0807
  937MOL0     H29285   3.955  -0.500   1.832  0.3778  0.5725  0.5833
  937MOL0     H29286   4.456   0.260   2.255 -2.7697 -3.4271  1.7951
  937MOL0     H29287   4.594   0.466   2.298 -0.7203 -1.0966 -0.2676
  937MOL0     H29288   4.585   0.804   2.439  0.4524 -4.1200 -3.4158
  937MOL0     H29289   4.641   1.050   2.432 -0.0675 -0.5620  0.3191
  937MOL0     H29290   4.609   2.176   3.203  0.4205  2.1004 -0.9071
  937MOL0     H29291   4.531   2.117   3.431  1.4365 -0.1424 -1.8505
  937MOL0     H29292   4.145   2.150   3.712 -1.1172 -0.1339  0.8257
  937MOL0     H29293   4.067   2.089   3.927 -1.0192  0.7750  4.3158
  937MOL0     H29294   3.923   2.276   4.091 -1.2570  1.0598  1.7013
  937MOL0     H29295   3.936   2.095   4.126 -2.3487  1.4196 -0.2921
  937MOL0     H29296   3.890   2.111   4.336 -4.1311 -2.9264 -4.6107
  937MOL0     H29297   3.780   2.208   4.268  1.1064 -2.4323  0.3002
  937MOL0     H29298   3.930   2.430   4.317 -2.0911  0.3469 -0.0427
  937MOL0     H29299   3.823   2.358   4.432  0.6115  0.7991  1.3158
  937MOL0     H29300   4.096   2.392   4.512  5.4095 -2.8512  0.0051
  937MOL0     H29301   4.127   2.273   4.389  0.6369  0.5655 -0.1788
  937MOL0     H29302   3.930   2.056   4.711  0.8671  0.0050  1.8659
  937MOL0     H29303   4.275   2.393   4.115  1.9300 -0.3823 -0.8926
  937MOL0     H29304   4.526   2.403   3.886 -0.3954  0.5320 -1.5486
  937MOL0     H29305   4.426   2.543   3.849  5.1214 -0.1294 -1.6319
  937MOL0     H29306   4.444   2.490   4.017  0.1357 -2.4512  1.3202
  938MOL0     O29307   4.302   0.745   1.121  0.6755  0.1014  0.1704
  938MOL0     C29308   4.408   0.745   1.175 -0.0900  0.0676 -0.5810
  938MOL0     O29309   4.521   0.814   1.132  0.1606  0.7156 -0.9059
  938MOL0     C29310   4.515   0.890   1.022  0.3204  0.0098 -0.5267
  938MOL0     C29311   4.540   1.026   1.027 -0.9659 -0.9747 -0.5215
  938MOL0     C29312   4.537   1.102   0.918 -0.2238 -0.2445 -0.3770
  938MOL0     C29313   4.532   1.047   0.796 -1.1634  0.2345  0.9407
  938MOL0     O29314   4.535   1.129   0.693 -0.5121 -0.0477  0.2510
  938MOL0     C29315   4.632   1.095   0.594  0.0028  0.8284  0.0905
  938MOL0     C29316   4.723   1.210   0.552  0.8823 -0.2107 -0.1049
  938MOL0     C29317   4.629   1.320   0.480 -0.3247  0.7672 -0.9320
  938MOL0     C29318   4.674   1.457   0.514  0.4018 -0.7114  0.5929
  938MOL0     C29319   4.645   1.505   0.650  0.9160  0.5832  0.0575
  938MOL0     C29320   4.502   1.558   0.664  0.3300 -0.2897 -0.3630
  938MOL0     C29321   4.490   1.707   0.617 -0.0864 -0.8551  0.1459
  938MOL0     C29322   4.335   1.731   0.589 -0.5292 -0.3511  0.3161
  938MOL0     N29323   4.269   1.716   0.723  0.2146  0.2864  0.0367
  938MOL0     C29324   4.133   1.684   0.742  0.2462 -0.2704  1.1828
  938MOL0     C29325   4.110   1.715   0.874  0.7511  0.2121 -0.5967
  938MOL0     C29326   3.985   1.714   0.945  0.4774  0.5288 -1.3452
  938MOL0     C29327   3.939   1.586   1.024 -0.3346 -0.2900 -1.3576
  938MOL0     C29328   3.877   1.477   0.945 -0.0971  0.1298  0.5511
  938MOL0     C29329   3.748   1.511   0.870  0.5721 -0.2888  0.8825
  938MOL0     O29330   3.643   1.502   0.967 -0.4112 -0.3680 -0.0911
  938MOL0     C29331   3.507   1.486   0.939 -0.7285  0.0893  0.7710
  938MOL0     C29332   3.411   1.457   1.034  0.6103  0.6182 -0.2084
  938MOL0     C29333   3.277   1.452   0.996  0.4893 -0.2617  0.0838
  938MOL0     C29334   3.171   1.426   1.100 -0.2536  0.0063 -0.5327
  938MOL0     C29335   3.240   1.493   0.868  0.1702  0.6117 -1.1958
  938MOL0     C29336   3.104   1.511   0.830 -0.5027  0.3839 -0.5852
  938MOL0     O29337   3.063   1.637   0.789  0.0426  0.3208  0.0165
  938MOL0     C29338   2.941   1.640   0.731 -0.5586  0.6582  0.1297
  938MOL0     C29339   2.926   1.642   0.590  0.0917  0.4333  0.5023
  938MOL0     C29340   2.797   1.642   0.533 -0.8012 -0.2284 -0.2514
  938MOL0     C29341   2.688   1.646   0.620  0.1451 -0.0178 -0.2957
  938MOL0     O29342   2.569   1.637   0.545 -0.1492  0.5349 -0.9212
  938MOL0     C29343   2.441   1.639   0.628 -0.3976  0.2209  0.3644
  938MOL0     C29344   2.411   1.493   0.686  0.0876  0.7213  0.4254
  938MOL0     C29345   2.276   1.498   0.760 -0.1045  0.0517 -0.3488
  938MOL0     C29346   2.254   1.362   0.834 -0.5687 -0.3734  0.0270
  938MOL0     C29347   2.108   1.337   0.859 -0.0533 -0.5051  0.2042
  938MOL0     C29348   2.083   1.251   0.982 -0.6428  0.4206 -0.3254
  938MOL0     C29349   1.933   1.225   1.004 -0.3013 -0.2425 -0.1600
  938MOL0     C29350   1.913   1.130   1.124 -0.6501  0.5898  0.3113
  938MOL0    Cl29351   1.960   1.215   1.273  0.3533  0.1637 -0.2818
  938MOL0     C29352   2.699   1.651   0.763  0.0317 -0.1491  0.9380
  938MOL0     C29353   2.823   1.646   0.812 -0.1969  0.6365 -0.0861
  938MOL0     O29354   3.043   1.408   0.811  0.7602  0.7209  0.1883
  938MOL0     C29355   3.336   1.522   0.775  0.0674 -0.4215  0.1142
  938MOL0     C29356   3.466   1.509   0.809 -0.0594  0.3918 -0.0936
  938MOL0     N29357   4.226   1.756   0.928 -0.4864 -0.1851 -0.5138
  938MOL0     N29358   4.320   1.766   0.841  0.6907 -0.6047 -0.5849
  938MOL0     C29359   4.508   0.903   0.789  0.1364  0.2294 -0.3869
  938MOL0     C29360   4.511   0.823   0.904 -0.0083  0.2300 -0.4228
  938MOL0     C29361   4.417   0.660   1.306 -0.1286 -0.1668  0.8882
  938MOL0     C29362   4.538   0.667   1.367  0.9217 -0.8679 -0.0266
  938MOL0     C29363   4.560   0.605   1.496  0.0151 -0.2380 -0.2160
  938MOL0     C29364   4.455   0.532   1.561  0.8396 -0.5534 -0.7662
  938MOL0     O29365   4.485   0.478   1.682 -0.1392  0.0118  0.8099
  938MOL0     C29366   4.424   0.540   1.792  0.7448 -1.4680  0.0725
  938MOL0     C29367   4.462   0.477   1.928 -0.2931  0.5349 -0.2749
  938MOL0     C29368   4.602   0.429   1.953 -0.4807  0.9301  0.5427
  938MOL0     C29369   4.639   0.296   1.901  0.5320  0.6482 -0.2094
  938MOL0     C29370   4.562   0.183   1.968 -0.5590  0.4698 -0.0060
  938MOL0     C29371   4.494   0.105   2.023 -0.8303  0.0604 -0.4485
  938MOL0     C29372   4.329   0.526   1.498 -0.1511 -0.1888 -0.5714
  938MOL0     C29373   4.307   0.591   1.374 -0.4726 -0.5141 -0.1604
  938MOL0     C29374   4.167   0.578   1.325  0.0618 -0.7067 -0.4066
  938MOL0     H29375   4.551   1.072   1.124  1.8418 -2.0126 -0.2545
  938MOL0     H29376   4.548   1.209   0.932 -2.5189 -0.2562  2.5839
  938MOL0     H29377   4.576   1.056   0.508 -2.2213  0.1799  1.7479
  938MOL0     H29378   4.701   1.018   0.632  0.3012  1.2850  0.4913
  938MOL0     H29379   4.767   1.251   0.643 -0.0924  0.0033  0.2810
  938MOL0     H29380   4.799   1.179   0.480 -1.0583 -0.6938 -2.0510
  938MOL0     H29381   4.607   1.292   0.377  0.5472 -6.9792  0.3670
  938MOL0     H29382   4.528   1.313   0.523  0.3557  3.2917  1.3967
  938MOL0     H29383   4.782   1.465   0.499  0.3558 -2.0378 -0.6663
  938MOL0     H29384   4.618   1.520   0.445 -1.3162 -1.4204  1.2862
  938MOL0     H29385   4.715   1.584   0.678 -2.1430  2.7037  2.4196
  938MOL0     H29386   4.656   1.426   0.724  5.0175  0.0831 -0.8509
  938MOL0     H29387   4.431   1.482   0.629 -0.3474 -0.5528  1.4592
  938MOL0     H29388   4.487   1.540   0.771  1.4193  1.5013  0.1312
  938MOL0     H29389   4.547   1.722   0.524 -0.6802 -1.1106 -0.2678
  938MOL0     H29390   4.533   1.782   0.683  1.4852 -1.7558  0.1841
  938MOL0     H29391   4.326   1.837   0.564  0.5172 -0.0674  1.0615
  938MOL0     H29392   4.290   1.681   0.502 -0.6042 -0.9504  0.6903
  938MOL0     H29393   4.051   1.667   0.674 -0.0839  0.1161  1.4798
  938MOL0     H29394   3.900   1.756   0.891 -1.3451  0.9672  1.6333
  938MOL0     H29395   3.997   1.789   1.024 -3.2946 -1.8417  1.8858
  938MOL0     H29396   4.024   1.540   1.076 -0.6807 -0.0001 -0.5111
  938MOL0     H29397   3.868   1.615   1.102  1.7291 -2.3263  1.4702
  938MOL0     H29398   3.952   1.433   0.878 -2.8610 -1.0304 -1.9692
  938MOL0     H29399   3.854   1.395   1.013 -2.0265  1.2727  1.3348
  938MOL0     H29400   3.756   1.606   0.817  3.7325  0.1456  1.9444
  938MOL0     H29401   3.716   1.437   0.796 -1.1413 -0.3077  1.5945
  938MOL0     H29402   3.431   1.430   1.137 -0.5176 -3.2474 -0.8185
  938MOL0     H29403   3.105   1.352   1.054 -5.0205  3.4733  0.0407
  938MOL0     H29404   3.125   1.517   1.139  1.6675  0.9491 -0.3279
  938MOL0     H29405   3.212   1.371   1.185 -1.2493 -2.1637 -1.3774
  938MOL0     H29406   3.011   1.643   0.523  0.1212 -0.5497  0.5140
  938MOL0     H29407   2.788   1.641   0.425 -2.7121  1.0375 -0.1569
  938MOL0     H29408   2.451   1.721   0.699  4.6877  1.0727 -0.9103
  938MOL0     H29409   2.368   1.663   0.550  2.2114 -0.8829 -2.6366
  938MOL0     H29410   2.395   1.432   0.597  1.5359  0.0117  0.6372
  938MOL0     H29411   2.492   1.460   0.751  0.6751  2.4630  0.6393
  938MOL0     H29412   2.188   1.507   0.695 -1.6306 -0.7065  1.5003
  938MOL0     H29413   2.282   1.581   0.831  0.9167 -0.0452 -0.3034
  938MOL0     H29414   2.315   1.366   0.924  0.5766 -1.1951 -0.6810
  938MOL0     H29415   2.297   1.282   0.772 -0.9327 -0.1087 -0.5787
  938MOL0     H29416   2.079   1.440   0.879  3.9226  0.8920 -0.2640
  938MOL0     H29417   2.066   1.298   0.766  0.9850 -1.0052 -0.0705
  938MOL0     H29418   2.129   1.307   1.064 -2.1545 -0.0365  0.8939
  938MOL0     H29419   2.146   1.162   0.975 -1.1319  0.1309 -1.1809
  938MOL0     H29420   1.896   1.182   0.910 -1.7780 -0.9691  0.7301
  938MOL0     H29421   1.872   1.315   1.012  0.7471  0.6439 -1.4852
  938MOL0     H29422   1.973   1.040   1.107 -2.5201 -0.9708  1.5282
  938MOL0     H29423   1.812   1.088   1.123  0.8373 -3.3959 -0.7340
  938MOL0     H29424   2.614   1.646   0.830 -1.3771 -1.5519 -0.8630
  938MOL0     H29425   2.850   1.642   0.917 -0.1595 -2.2425 -0.1435
  938MOL0     H29426   3.310   1.549   0.674 -1.1923 -0.5513  0.3877
  938MOL0     H29427   3.535   1.552   0.736 -3.4984 -0.6207 -4.3420
  938MOL0     H29428   4.513   0.845   0.697  0.9539 -2.2661  1.1405
  938MOL0     H29429   4.503   0.716   0.886 -0.8021  0.2802 -0.4186
  938MOL0     H29430   4.626   0.714   1.324  0.9737 -0.3000  0.6815
  938MOL0     H29431   4.658   0.613   1.542  0.0650 -1.7860 -0.0009
  938MOL0     H29432   4.460   0.643   1.794 -0.4461 -1.0416  0.5263
  938MOL0     H29433   4.318   0.552   1.769  1.5663 -0.3791 -3.6716
  938MOL0     H29434   4.381   0.404   1.938 -0.7990  0.1513 -4.7351
  938MOL0     H29435   4.444   0.549   2.008  0.5472 -0.5483  0.9239
  938MOL0     H29436   4.681   0.500   1.924  2.8231 -0.3185  5.1766
  938MOL0     H29437   4.617   0.423   2.062 -1.0737 -1.2604  0.5346
  938MOL0     H29438   4.746   0.278   1.916  0.7729  1.6838 -0.5735
  938MOL0     H29439   4.623   0.288   1.793  0.5046 -1.0750 -0.0978
  938MOL0     H29440   4.443   0.024   2.070  1.1239 -2.0037 -1.6578
  938MOL0     H29441   4.256   0.464   1.549  0.3911  0.3407  0.9076
  938MOL0     H29442   4.106   0.662   1.356 -1.8875 -2.4543  0.7361
  938MOL0     H29443   4.167   0.587   1.215  0.0006  5.3163 -0.2519
  938MOL0     H29444   4.131   0.480   1.358  2.4725 -2.7630 -3.2284
  939MOL0     O29445   8.677   2.464   7.668  0.4367 -0.2669 -0.4507
  939MOL0     C29446   8.590   2.548   7.642  0.0480  0.9166 -0.4735
  939MOL0     O29447   8.474   2.515   7.572  0.3771 -0.6063  0.0928
  939MOL0     C29448   8.471   2.395   7.506 -0.6966 -0.0188 -0.9433
  939MOL0     C29449   8.497   2.374   7.378  0.3523 -0.0714 -0.6979
  939MOL0     C29450   8.526   2.242   7.330 -0.0871  0.0336 -0.5193
  939MOL0     C29451   8.483   2.136   7.419 -0.6745  0.7445  0.3013
  939MOL0     O29452   8.510   2.004   7.368 -0.7134  0.5298 -0.3172
  939MOL0     C29453   8.471   1.895   7.455 -0.1468  0.1268 -0.5133
  939MOL0     C29454   8.489   1.761   7.388  0.4741  0.3811 -0.7038
  939MOL0     C29455   8.414   1.749   7.249 -0.6142  0.4868 -0.4193
  939MOL0     C29456   8.255   1.750   7.268  0.5491  0.3413  0.4745
  939MOL0     C29457   8.180   1.808   7.148  0.4119 -0.4548  0.4633
  939MOL0     C29458   8.031   1.831   7.194  0.3698 -0.4186  0.5374
  939MOL0     C29459   7.947   1.872   7.064 -0.7433  0.2618 -0.2858
  939MOL0     C29460   7.802   1.912   7.092  0.1538  0.6485 -0.0732
  939MOL0     N29461   7.714   1.817   7.160  0.5648  1.1234 -0.3484
  939MOL0     C29462   7.656   1.711   7.097 -0.6357 -0.2422  0.5459
  939MOL0     C29463   7.597   1.653   7.197  0.1449  0.7944 -0.0373
  939MOL0     C29464   7.490   1.545   7.198 -0.7422 -0.1995 -0.2049
  939MOL0     C29465   7.467   1.463   7.324  0.0841 -0.2625  0.3066
  939MOL0     C29466   7.355   1.364   7.315  0.9423  1.1217  0.5708
  939MOL0     C29467   7.333   1.264   7.434  0.3164 -0.1660  0.6825
  939MOL0     O29468   7.456   1.221   7.493  0.4494 -0.1590  0.4221
  939MOL0     C29469   7.535   1.128   7.426  0.0233 -0.2285  0.3840
  939MOL0     C29470   7.486   1.034   7.344  0.2586  0.1335 -0.6524
  939MOL0     C29471   7.571   0.945   7.286  0.4289  0.3953  0.2021
  939MOL0     C29472   7.499   0.837   7.206 -0.7616  0.2650 -0.9111
  939MOL0     C29473   7.705   0.947   7.317 -0.4256 -0.7558  0.4552
  939MOL0     C29474   7.801   0.849   7.254 -0.1855  0.2221 -0.5028
  939MOL0     O29475   7.928   0.867   7.299 -0.7197  0.4385 -1.0730
  939MOL0     C29476   8.035   0.824   7.221 -0.0518 -0.5121  0.0276
  939MOL0     C29477   8.114   0.720   7.273  0.3561  0.6526 -0.3999
  939MOL0     C29478   8.219   0.674   7.193 -0.8274 -0.0621  0.7962
  939MOL0     C29479   8.246   0.733   7.067  0.0763  0.1524 -0.0065
  939MOL0     O29480   8.345   0.695   6.989 -0.6525  0.2781 -0.4474
  939MOL0     C29481   8.472   0.716   7.060 -1.1116  0.7489 -0.4213
  939MOL0     C29482   8.571   0.753   6.955 -0.1824 -0.0234  0.0324
  939MOL0     C29483   8.601   0.650   6.841  0.1574  0.1964  0.0584
  939MOL0     C29484   8.629   0.510   6.903  0.2355 -0.8875  0.1465
  939MOL0     C29485   8.649   0.408   6.787 -0.0565  1.1496 -0.0162
  939MOL0     C29486   8.758   0.428   6.671  1.0438 -0.3507  0.1059
  939MOL0     C29487   8.897   0.476   6.713 -0.2559 -0.2105  0.1951
  939MOL0     C29488   8.983   0.460   6.595  0.4598 -0.3932 -0.5126
  939MOL0    Cl29489   9.143   0.526   6.632 -0.1743  0.5351 -0.1920
  939MOL0     C29490   8.149   0.824   7.008  0.0642  0.6916 -0.2523
  939MOL0     C29491   8.048   0.882   7.095 -0.6873  0.6221  0.3320
  939MOL0     O29492   7.766   0.763   7.170  0.3919 -0.7901  0.0385
  939MOL0     C29493   7.753   1.047   7.404  0.8294  0.3473  0.3841
  939MOL0     C29494   7.661   1.142   7.457  0.1800 -1.0269  0.6874
  939MOL0     N29495   7.630   1.714   7.319 -0.0396  0.7613 -0.5326
  939MOL0     N29496   7.698   1.818   7.292 -0.0810  0.3534 -0.3142
  939MOL0     C29497   8.432   2.164   7.541 -0.1387  0.9350  0.0273
  939MOL0     C29498   8.438   2.286   7.587  0.6316 -0.6735  0.7464
  939MOL0     C29499   8.582   2.679   7.706  0.4100  0.5537  0.4018
  939MOL0     C29500   8.513   2.774   7.634  0.4792 -0.6439  0.1462
  939MOL0     C29501   8.482   2.896   7.693 -0.9917 -0.7961  0.1013
  939MOL0     C29502   8.548   2.926   7.816 -0.1327 -0.4664  0.6127
  939MOL0     O29503   8.540   3.035   7.894  0.5593  0.1881 -1.4057
  939MOL0     C29504   8.445   3.136   7.868  0.0504 -0.3282 -0.1199
  939MOL0     C29505   8.310   3.106   7.932  0.3774  0.7529 -0.2902
  939MOL0     C29506   8.214   3.229   7.908 -1.2116 -0.4213 -0.0654
  939MOL0     C29507   8.151   3.226   7.768  0.1596  0.2814  0.4387
  939MOL0     C29508   8.010   3.206   7.780  1.0890 -0.0474  0.0434
  939MOL0     C29509   7.891   3.187   7.803  0.6776  0.0040  0.1124
  939MOL0     C29510   8.624   2.834   7.880 -1.0762  0.2438 -0.7472
  939MOL0     C29511   8.637   2.704   7.832  0.2999 -0.3363 -1.0315
  939MOL0     C29512   8.709   2.601   7.913  1.0594  0.3148 -0.2618
  939MOL0     H29513   8.501   2.467   7.322  0.6608  0.1862 -0.2521
  939MOL0     H29514   8.554   2.208   7.231 -3.3407  0.4881 -1.7265
  939MOL0     H29515   8.367   1.902   7.486 -0.3419  0.6292 -1.2492
  939MOL0     H29516   8.539   1.894   7.541  0.2574 -0.4137 -0.8361
  939MOL0     H29517   8.596   1.745   7.371  0.9961  0.3184  2.0243
  939MOL0     H29518   8.447   1.685   7.455  0.3008  0.8251 -0.3016
  939MOL0     H29519   8.453   1.829   7.185  0.0156  1.7482  1.4453
  939MOL0     H29520   8.438   1.651   7.207 -0.9615 -0.7786  2.1312
  939MOL0     H29521   8.211   1.650   7.276 -1.4223  0.9933 -1.2563
  939MOL0     H29522   8.221   1.812   7.352 -1.7103  2.5320 -1.8763
  939MOL0     H29523   8.197   1.745   7.060  1.8802 -0.9461  1.0530
  939MOL0     H29524   8.226   1.906   7.135  2.0042 -1.0801  1.0180
  939MOL0     H29525   7.991   1.738   7.235 -1.2941 -0.7590 -1.6893
  939MOL0     H29526   8.029   1.910   7.269  1.2570 -1.2823  1.4960
  939MOL0     H29527   7.948   1.792   6.991  1.5446 -0.6391  0.6215
  939MOL0     H29528   7.996   1.957   7.015 -2.0700  0.1863 -1.7888
  939MOL0     H29529   7.798   2.004   7.150  1.8081  1.2434 -0.8446
  939MOL0     H29530   7.759   1.939   6.995  1.4545  1.2524 -0.4918
  939MOL0     H29531   7.645   1.681   6.993 -0.8300  2.2416 -0.2382
  939MOL0     H29532   7.506   1.468   7.122  0.1217 -0.8791  0.6427
  939MOL0     H29533   7.397   1.597   7.172  0.1431  1.8774  0.5799
  939MOL0     H29534   7.559   1.408   7.348 -0.9070 -1.9440  0.4005
  939MOL0     H29535   7.440   1.525   7.410 -2.2826 -0.4373 -0.2433
  939MOL0     H29536   7.262   1.412   7.285  0.9330 -0.5180 -2.5358
  939MOL0     H29537   7.384   1.295   7.235  4.2007  1.3556  1.3857
  939MOL0     H29538   7.276   1.318   7.509 -2.8599 -2.7504  0.3544
  939MOL0     H29539   7.270   1.177   7.415  1.9798 -0.9486 -1.8635
  939MOL0     H29540   7.382   1.029   7.312 -0.3989  2.5747  0.8051
  939MOL0     H29541   7.527   0.737   7.240 -2.4854 -0.7684 -2.3964
  939MOL0     H29542   7.515   0.853   7.099 -0.1323 -2.9561 -1.4157
  939MOL0     H29543   7.391   0.841   7.220 -0.4761 -0.8959  2.5227
  939MOL0     H29544   8.082   0.676   7.366 -1.6116  2.3245 -0.2183
  939MOL0     H29545   8.279   0.601   7.246  2.6361  2.1854  0.3158
  939MOL0     H29546   8.453   0.797   7.132 -1.3124 -0.8588  1.4417
  939MOL0     H29547   8.508   0.628   7.114 -1.2136  0.2262 -1.1905
  939MOL0     H29548   8.537   0.845   6.906  1.5660 -0.2372 -1.6964
  939MOL0     H29549   8.662   0.783   7.007  2.4366  0.7352 -4.4509
  939MOL0     H29550   8.694   0.678   6.791 -1.2828 -0.1173 -3.0926
  939MOL0     H29551   8.510   0.653   6.779  0.7225  0.1480 -0.7941
  939MOL0     H29552   8.549   0.473   6.967 -0.3401  0.8627  0.4861
  939MOL0     H29553   8.716   0.523   6.968  2.5245  1.0770 -3.0246
  939MOL0     H29554   8.659   0.306   6.828  2.3977  1.8967  1.4585
  939MOL0     H29555   8.557   0.410   6.728 -0.1860 -1.4142 -0.0123
  939MOL0     H29556   8.716   0.492   6.592  2.1457  0.5799  0.2552
  939MOL0     H29557   8.765   0.334   6.615 -1.7878 -0.8075  0.3498
  939MOL0     H29558   8.922   0.409   6.796  0.0713 -2.3127 -1.5180
  939MOL0     H29559   8.897   0.581   6.741 -1.8316 -0.7746  2.7116
  939MOL0     H29560   8.945   0.521   6.512 -2.9538 -0.9980  0.4393
  939MOL0     H29561   8.999   0.353   6.582  0.9091 -0.5871  1.3781
  939MOL0     H29562   8.155   0.863   6.906 -0.5128  1.5183  0.0195
  939MOL0     H29563   7.976   0.955   7.057 -0.8357 -0.1716 -0.9450
  939MOL0     H29564   7.856   1.062   7.437  1.6079 -1.1365 -1.2015
  939MOL0     H29565   7.696   1.226   7.515 -0.0979 -0.3752 -0.0643
  939MOL0     H29566   8.426   2.082   7.612  1.7841  2.4151  2.0403
  939MOL0     H29567   8.419   2.289   7.694  1.8272 -2.5718  1.0696
  939MOL0     H29568   8.472   2.756   7.536 -0.0806 -1.6981  0.5634
  939MOL0     H29569   8.416   2.965   7.642 -0.4753 -2.2324 -2.7546
  939MOL0     H29570   8.481   3.225   7.921  0.7398 -1.2640  1.0348
  939MOL0     H29571   8.447   3.163   7.762  0.6253  1.3495  0.2796
  939MOL0     H29572   8.321   3.122   8.040 -2.5638 -0.3371  0.2897
  939MOL0     H29573   8.257   3.011   7.917  1.0916 -0.2149  2.5496
  939MOL0     H29574   8.134   3.211   7.980  0.0992 -3.9298  0.7486
  939MOL0     H29575   8.264   3.324   7.930 -1.5435 -0.2643  0.0132
  939MOL0     H29576   8.189   3.142   7.710  2.4592 -0.6970  3.1228
  939MOL0     H29577   8.161   3.315   7.706 -2.1996 -0.3768 -1.0290
  939MOL0     H29578   7.787   3.180   7.829  0.0887  1.1250 -1.7432
  939MOL0     H29579   8.673   2.865   7.972 -1.0092 -0.9493 -0.3598
  939MOL0     H29580   8.658   2.505   7.928  2.4786 -0.6465 -1.2969
  939MOL0     H29581   8.808   2.573   7.876  1.3457  0.0869  0.6414
  939MOL0     H29582   8.731   2.633   8.015  3.4452  1.5071 -1.0697
  940MOL0     O29583   8.095   0.097   2.519  0.0956 -0.1248  0.3326
  940MOL0     C29584   8.185   0.075   2.595 -0.1335  0.8235  0.1485
  940MOL0     O29585   8.204   0.116   2.726  0.0587 -0.3327  0.7619
  940MOL0     C29586   8.112   0.217   2.762  0.5833  0.6193 -0.6717
  940MOL0     C29587   8.155   0.350   2.752  0.0521  1.4763 -0.0885
  940MOL0     C29588   8.080   0.459   2.788  0.3774 -0.8129  0.6149
  940MOL0     C29589   7.956   0.432   2.854 -0.0590 -1.1677 -0.0438
  940MOL0     O29590   7.880   0.526   2.909  0.0583  0.0996 -0.1197
  940MOL0     C29591   7.850   0.657   2.854 -0.1083 -0.0647  1.1836
  940MOL0     C29592   7.931   0.780   2.907 -0.5537 -0.2759 -0.0554
  940MOL0     C29593   7.955   0.776   3.064 -0.2325  0.5804 -0.8018
  940MOL0     C29594   7.834   0.747   3.165  0.2715 -0.4566  0.0598
  940MOL0     C29595   7.726   0.858   3.148  0.4392 -0.1838  0.0308
  940MOL0     C29596   7.588   0.831   3.206 -0.0889 -0.0451  0.9431
  940MOL0     C29597   7.498   0.953   3.222  0.6404  0.2983 -0.3126
  940MOL0     C29598   7.498   1.049   3.091  0.5445  0.5079  0.8755
  940MOL0     N29599   7.408   1.160   3.104  1.1395 -0.0576 -0.2613
  940MOL0     C29600   7.273   1.161   3.097  0.1748  0.2331 -0.1436
  940MOL0     C29601   7.243   1.288   3.130  0.0850 -0.3594  1.1074
  940MOL0     C29602   7.103   1.364   3.104 -0.7698  0.1305 -0.2344
  940MOL0     C29603   7.129   1.505   3.044  0.3164 -1.0273  0.1330
  940MOL0     C29604   7.134   1.610   3.154 -0.6242  1.2498  0.0227
  940MOL0     C29605   7.164   1.741   3.088  0.0292 -1.0966 -0.0766
  940MOL0     O29606   7.050   1.794   3.016 -0.0521 -0.0400 -0.0278
  940MOL0     C29607   7.014   1.925   3.009 -0.9112 -0.6163 -0.7080
  940MOL0     C29608   6.878   1.933   2.987  0.0708 -0.9231 -0.5850
  940MOL0     C29609   6.815   2.055   3.002 -0.7233 -1.0811 -0.3985
  940MOL0     C29610   6.665   2.058   2.966  0.4133 -0.0885  0.2022
  940MOL0     C29611   6.887   2.179   3.034  0.3483  0.0293  0.8100
  940MOL0     C29612   6.829   2.322   3.048 -0.5242  0.6001 -0.0780
  940MOL0     O29613   6.921   2.420   3.048 -0.2780 -0.5995 -0.2023
  940MOL0     C29614   6.893   2.554   3.036  0.3251  1.0933  0.4233
  940MOL0     C29615   6.775   2.611   3.005  0.3296 -0.6196 -0.4092
  940MOL0     C29616   6.768   2.750   2.984 -0.5469  0.4349  0.1440
  940MOL0     C29617   6.882   2.836   3.009  0.6781 -0.3015  0.4698
  940MOL0     O29618   6.876   2.973   3.012  0.2009 -0.8270 -0.2962
  940MOL0     C29619   6.779   3.042   2.926  0.1897 -0.1599 -0.9995
  940MOL0     C29620   6.828   3.044   2.779  0.0136  0.2375  0.1415
  940MOL0     C29621   6.955   3.131   2.773 -0.6019 -0.3206  0.6033
  940MOL0     C29622   6.935   3.287   2.801 -0.3590  0.5029 -0.5529
  940MOL0     C29623   7.064   3.364   2.791  0.2795 -0.6068 -0.3046
  940MOL0     C29624   7.174   3.329   2.885  0.1506  0.8070 -0.3645
  940MOL0     C29625   7.140   3.348   3.036 -0.9467  0.5055 -0.4129
  940MOL0     C29626   7.136   3.491   3.073  0.0753 -0.2419  0.0155
  940MOL0    Cl29627   7.139   3.496   3.254 -0.3817  0.1624 -0.5038
  940MOL0     C29628   7.004   2.777   3.036 -0.5123 -0.7053 -0.3542
  940MOL0     C29629   7.004   2.635   3.051 -0.2470  0.0179  0.1297
  940MOL0     O29630   6.711   2.330   3.077  0.0766  0.0657 -0.4912
  940MOL0     C29631   7.021   2.157   3.059  0.6218  0.0507  0.6843
  940MOL0     C29632   7.090   2.036   3.049  0.3553  0.0313 -0.2336
  940MOL0     N29633   7.352   1.355   3.174 -0.8005 -0.3825  0.6067
  940MOL0     N29634   7.455   1.281   3.147 -0.1892 -0.5450  0.0065
  940MOL0     C29635   7.909   0.300   2.874  0.4644 -0.5700  0.0760
  940MOL0     C29636   7.984   0.192   2.826 -0.9256  0.3133 -0.4045
  940MOL0     C29637   8.283  -0.017   2.545  0.5658  0.5930  0.6608
  940MOL0     C29638   8.297  -0.134   2.617 -0.3306  0.2860  0.7735
  940MOL0     C29639   8.394  -0.220   2.593 -0.1756  0.5284 -0.4386
  940MOL0     C29640   8.484  -0.207   2.489  0.5513  0.4770  0.7942
  940MOL0     O29641   8.571  -0.315   2.476  0.5181 -1.0034 -0.0018
  940MOL0     C29642   8.693  -0.280   2.404 -1.2133  0.4004  0.8916
  940MOL0     C29643   8.674  -0.323   2.260  0.3177 -0.9103 -0.1866
  940MOL0     C29644   8.799  -0.386   2.200 -0.0578 -0.0652  0.0740
  940MOL0     C29645   8.920  -0.292   2.216 -0.3551  0.3413 -0.4747
  940MOL0     C29646   9.031  -0.327   2.135  0.1867  0.5136  0.4592
  940MOL0     C29647   9.132  -0.381   2.093 -0.5036 -0.3635  0.2218
  940MOL0     C29648   8.480  -0.084   2.414  0.2398 -1.4644  0.4342
  940MOL0     C29649   8.380   0.011   2.441 -0.4522  0.2215  0.3091
  940MOL0     C29650   8.369   0.144   2.372 -0.1987 -0.0909 -0.2357
  940MOL0     H29651   8.258   0.335   2.720  0.2303 -5.6548  2.1106
  940MOL0     H29652   8.121   0.559   2.791 -1.6779  0.1629 -1.2915
  940MOL0     H29653   7.744   0.674   2.877  0.2535  4.6549  0.2774
  940MOL0     H29654   7.871   0.662   2.747 -0.8613 -0.0041  1.0296
  940MOL0     H29655   8.027   0.797   2.856 -0.7815  0.3729 -0.2827
  940MOL0     H29656   7.870   0.871   2.897  0.0038  0.3534  1.9582
  940MOL0     H29657   8.038   0.707   3.082  1.2617  2.5551  0.2903
  940MOL0     H29658   7.994   0.874   3.092  0.0040  0.2068  0.1999
  940MOL0     H29659   7.796   0.650   3.129 -0.6189 -0.3105  0.5735
  940MOL0     H29660   7.865   0.747   3.270  0.2860 -1.1614  0.0617
  940MOL0     H29661   7.706   0.870   3.041 -1.3860 -2.5732  0.0234
  940MOL0     H29662   7.764   0.950   3.193  2.6961 -1.6620  1.3505
  940MOL0     H29663   7.531   0.748   3.162 -2.5740  1.6953  0.6658
  940MOL0     H29664   7.606   0.801   3.310 -1.1535  2.6053  1.9805
  940MOL0     H29665   7.530   1.013   3.308  1.1036  1.6976 -1.4285
  940MOL0     H29666   7.398   0.920   3.250  1.1888  2.1499  5.1545
  940MOL0     H29667   7.596   1.098   3.087  0.3009  0.9284 -0.3735
  940MOL0     H29668   7.478   0.994   2.998 -0.9560 -0.2748  1.6275
  940MOL0     H29669   7.202   1.085   3.067  1.4421 -1.5667  1.2289
  940MOL0     H29670   7.059   1.387   3.202  2.9677  0.6150  1.5034
  940MOL0     H29671   7.034   1.307   3.041 -0.4544 -1.2386  0.5911
  940MOL0     H29672   7.227   1.507   2.996  0.2579  1.3482 -0.0298
  940MOL0     H29673   7.055   1.529   2.967  0.0330  1.5718  1.1027
  940MOL0     H29674   7.043   1.611   3.214 -0.4472  2.5257  0.3014
  940MOL0     H29675   7.208   1.586   3.231 -1.8284 -1.0273  0.5518
  940MOL0     H29676   7.193   1.805   3.172  2.2067  1.7057 -2.7423
  940MOL0     H29677   7.255   1.732   3.028  2.0585  4.5349  1.4672
  940MOL0     H29678   6.814   1.851   2.958 -0.5690 -0.7000  0.1537
  940MOL0     H29679   6.666   2.098   2.864  0.8000 -1.1580 -0.2325
  940MOL0     H29680   6.604   2.120   3.032 -0.2385  0.9826 -1.3254
  940MOL0     H29681   6.614   1.961   2.965 -0.9034  0.5598 -1.9225
  940MOL0     H29682   6.699   2.538   2.982  1.6524 -2.2104  0.0373
  940MOL0     H29683   6.669   2.788   2.961 -0.8235  0.1763  0.8657
  940MOL0     H29684   6.680   2.996   2.937  0.7350 -0.9142  1.1298
  940MOL0     H29685   6.774   3.144   2.966 -0.2169  1.1147 -4.0172
  940MOL0     H29686   6.838   2.940   2.749 -2.8969  0.2214 -1.1469
  940MOL0     H29687   6.743   3.072   2.715 -0.6363 -1.5198  0.1952
  940MOL0     H29688   6.994   3.117   2.672  2.1638 -1.7840  1.7582
  940MOL0     H29689   7.032   3.090   2.840 -0.2281  1.3123  1.2286
  940MOL0     H29690   6.895   3.294   2.902 -2.1533 -2.8975 -0.8689
  940MOL0     H29691   6.852   3.320   2.737  0.7643 -0.0756 -2.4107
  940MOL0     H29692   7.104   3.345   2.691  0.1208 -3.4231  0.0752
  940MOL0     H29693   7.050   3.472   2.792 -0.3987 -0.6893 -0.3459
  940MOL0     H29694   7.251   3.401   2.857 -0.5516  1.2679 -1.1675
  940MOL0     H29695   7.207   3.227   2.862 -3.0895 -0.8550  1.7188
  940MOL0     H29696   7.228   3.306   3.086 -0.1368 -0.6689 -2.6873
  940MOL0     H29697   7.049   3.304   3.077  0.3867 -0.8081  1.3407
  940MOL0     H29698   7.051   3.540   3.024  0.4938 -1.7644 -2.3978
  940MOL0     H29699   7.230   3.532   3.035 -0.1437 -1.4865 -2.0270
  940MOL0     H29700   7.096   2.834   3.044 -0.0192 -1.6903  1.2854
  940MOL0     H29701   7.104   2.604   3.080  0.4542  3.4111  1.8036
  940MOL0     H29702   7.081   2.243   3.086 -0.1419  0.5462  0.8252
  940MOL0     H29703   7.198   2.029   3.059  0.3236 -2.7056 -1.1068
  940MOL0     H29704   7.817   0.281   2.929  0.8991 -3.7966 -0.1352
  940MOL0     H29705   7.957   0.090   2.851  1.7429 -0.1980  0.8030
  940MOL0     H29706   8.224  -0.163   2.691  0.1993 -0.1712  1.1212
  940MOL0     H29707   8.394  -0.308   2.657  1.4389  2.5318  2.6042
  940MOL0     H29708   8.722  -0.174   2.413  2.5157 -0.3464 -0.5654
  940MOL0     H29709   8.775  -0.337   2.448 -0.3813  0.0349 -1.0252
  940MOL0     H29710   8.648  -0.245   2.188  1.7098  0.4499  0.7284
  940MOL0     H29711   8.594  -0.398   2.262 -0.5130 -0.0438  0.8433
  940MOL0     H29712   8.815  -0.485   2.243 -1.0488 -0.1433  0.2796
  940MOL0     H29713   8.784  -0.412   2.095  1.4092  0.2096 -0.2332
  940MOL0     H29714   8.956  -0.310   2.317 -0.3167 -0.5460 -0.6445
  940MOL0     H29715   8.900  -0.184   2.212 -0.4538  0.4744  2.1470
  940MOL0     H29716   9.218  -0.432   2.053  0.4677  0.4926  1.1467
  940MOL0     H29717   8.551  -0.054   2.337 -0.2790 -1.5058 -0.0683
  940MOL0     H29718   8.327   0.225   2.432 -3.0679 -0.4842 -1.5640
  940MOL0     H29719   8.472   0.171   2.348 -0.5151  0.8526 -0.5571
  940MOL0     H29720   8.319   0.146   2.275  2.0011  1.5409 -1.4445
  941MOL0     O29721  11.261   8.642   8.726 -0.4250 -0.2044  0.3481
  941MOL0     C29722  11.218   8.618   8.614 -0.1821 -0.5724 -0.5271
  941MOL0     O29723  11.284   8.553   8.510 -0.0020  0.3093 -1.1185
  941MOL0     C29724  11.414   8.509   8.523  0.2875  0.0576 -0.1643
  941MOL0     C29725  11.522   8.568   8.446  0.0232 -0.5734 -0.3981
  941MOL0     C29726  11.647   8.528   8.470 -0.1139  0.6557 -0.8352
  941MOL0     C29727  11.674   8.415   8.558  0.2333 -0.6485 -0.4738
  941MOL0     O29728  11.803   8.363   8.577  0.7000 -0.4485 -0.7619
  941MOL0     C29729  11.912   8.462   8.589  0.1083  0.2173 -0.6788
  941MOL0     C29730  12.042   8.404   8.615 -0.2918  0.3416  0.6489
  941MOL0     C29731  12.151   8.509   8.627 -0.6960  0.3578  0.1522
  941MOL0     C29732  12.280   8.441   8.663 -0.2759  0.1613 -1.5161
  941MOL0     C29733  12.393   8.543   8.688 -0.5252 -0.4435 -0.1913
  941MOL0     C29734  12.373   8.617   8.819 -0.2002  0.9384  0.2449
  941MOL0     C29735  12.503   8.688   8.861  0.0228 -0.6467 -1.3229
  941MOL0     C29736  12.511   8.729   9.013 -0.3049  0.1353 -1.0559
  941MOL0     N29737  12.386   8.791   9.073 -0.4872 -0.7299  0.0507
  941MOL0     C29738  12.381   8.930   9.087 -0.1834 -0.4044  0.1941
  941MOL0     C29739  12.267   8.963   9.142 -0.6701 -0.6428 -0.9659
  941MOL0     C29740  12.215   9.104   9.187  0.5067  1.2042 -0.2428
  941MOL0     C29741  12.065   9.138   9.158 -0.7708 -0.2824 -0.1286
  941MOL0     C29742  12.020   9.269   9.226  0.1940 -0.1590 -0.4383
  941MOL0     C29743  11.944   9.368   9.132 -0.3690 -0.2269  0.5717
  941MOL0     O29744  12.025   9.401   9.020  0.0966  0.2505  0.4039
  941MOL0     C29745  11.988   9.502   8.924 -0.1528  1.1242  0.7730
  941MOL0     C29746  12.085   9.520   8.827  0.2549 -0.0388 -0.2683
  941MOL0     C29747  12.083   9.627   8.745  0.7195 -0.0085  0.5544
  941MOL0     C29748  12.198   9.646   8.651 -0.4581  0.1190  0.3453
  941MOL0     C29749  11.962   9.709   8.745 -0.7847  0.3670  1.3319
  941MOL0     C29750  11.943   9.826   8.659  0.5100 -0.0354 -0.2723
  941MOL0     O29751  11.833   9.908   8.676  1.1065  0.0891 -0.5108
  941MOL0     C29752  11.834  10.034   8.620 -0.1879  0.5944 -0.3427
  941MOL0     C29753  11.944  10.118   8.664 -0.1640 -1.2815 -0.0485
  941MOL0     C29754  11.955  10.242   8.609 -0.2655 -0.1340  0.1233
  941MOL0     C29755  11.855  10.301   8.534  0.3576 -0.0841 -0.3424
  941MOL0     O29756  11.878  10.432   8.503  0.3400 -0.6187  0.1590
  941MOL0     C29757  11.824  10.496   8.390  0.2955  0.2624  0.1538
  941MOL0     C29758  11.872  10.422   8.260 -0.2746 -0.6305  0.2624
  941MOL0     C29759  11.821  10.502   8.142  0.8096 -0.2594 -0.1632
  941MOL0     C29760  11.881  10.447   8.014 -0.1820  0.6052  0.7660
  941MOL0     C29761  11.815  10.526   7.896 -0.5622  0.3509  0.1587
  941MOL0     C29762  11.850  10.679   7.889 -0.8530  0.8646  0.0943
  941MOL0     C29763  11.841  10.737   7.750  0.1355  0.1648 -0.0883
  941MOL0     C29764  11.904  10.872   7.734 -0.4304  0.4351  0.7496
  941MOL0    Cl29765  11.804  10.990   7.822  0.3841 -0.2823  0.1895
  941MOL0     C29766  11.739  10.228   8.511  0.3937 -0.1738  0.1211
  941MOL0     C29767  11.727  10.098   8.559 -0.4384  0.5144 -0.3925
  941MOL0     O29768  12.020   9.846   8.565  0.4385  0.0738  0.1219
  941MOL0     C29769  11.864   9.689   8.847  0.1356  1.0233  0.0071
  941MOL0     C29770  11.879   9.586   8.933  0.1164 -0.0371 -0.4895
  941MOL0     N29771  12.197   8.842   9.170 -0.1391 -0.1298  0.1363
  941MOL0     N29772  12.268   8.748   9.132 -0.5743  0.1353 -0.0752
  941MOL0     C29773  11.566   8.349   8.625 -0.0005 -0.3661  1.1013
  941MOL0     C29774  11.434   8.395   8.607  0.0410 -0.0889 -0.5991
  941MOL0     C29775  11.081   8.668   8.585  0.2408 -0.4572  0.1151
  941MOL0     C29776  11.056   8.678   8.447  0.1174 -0.4019 -0.4297
  941MOL0     C29777  10.925   8.696   8.395  0.2908 -0.0347  0.3563
  941MOL0     C29778  10.831   8.762   8.481  0.0854 -0.0035 -0.6154
  941MOL0     O29779  10.704   8.801   8.445 -0.1712  0.2689  0.4728
  941MOL0     C29780  10.681   8.942   8.448 -0.3464 -0.1607 -0.5513
  941MOL0     C29781  10.684   9.005   8.311  0.2684 -0.2943  0.7668
  941MOL0     C29782  10.677   9.157   8.318  0.1728  0.1243  0.5606
  941MOL0     C29783  10.604   9.218   8.432 -0.7291  0.4948  1.1083
  941MOL0     C29784  10.597   9.360   8.413  0.3295 -0.2782 -0.1904
  941MOL0     C29785  10.582   9.482   8.410 -0.4136 -0.1396  0.5566
  941MOL0     C29786  10.865   8.760   8.620  0.3674  0.6348  0.6884
  941MOL0     C29787  10.983   8.719   8.680  0.7973  0.4382  0.0542
  941MOL0     C29788  10.979   8.715   8.832 -0.6432  0.2918 -0.5857
  941MOL0     H29789  11.495   8.647   8.377 -0.2232 -0.1844  0.1305
  941MOL0     H29790  11.719   8.566   8.398  2.6667 -1.8589  0.3685
  941MOL0     H29791  11.890   8.522   8.678  0.7794 -0.1470 -0.2639
  941MOL0     H29792  11.936   8.530   8.506 -0.5356 -0.2372 -1.2542
  941MOL0     H29793  12.035   8.355   8.712 -3.2379  2.1711  1.4844
  941MOL0     H29794  12.065   8.347   8.525  2.9109 -3.5800  3.5964
  941MOL0     H29795  12.172   8.548   8.527  0.9121  0.6615  0.5761
  941MOL0     H29796  12.126   8.591   8.694 -2.1957  1.3424 -1.5381
  941MOL0     H29797  12.258   8.380   8.751 -2.5658  1.4563 -1.0993
  941MOL0     H29798  12.309   8.377   8.579 -2.9783 -2.6758 -0.4686
  941MOL0     H29799  12.387   8.609   8.600  1.1893  1.6348  1.1368
  941MOL0     H29800  12.494   8.502   8.678 -0.0794  1.0971 -5.2306
  941MOL0     H29801  12.298   8.696   8.814 -0.5628  0.5418 -0.6168
  941MOL0     H29802  12.358   8.545   8.900  3.0464  0.2111  0.3781
  941MOL0     H29803  12.514   8.778   8.799 -3.1500  2.7425  2.4590
  941MOL0     H29804  12.581   8.614   8.843 -1.7905 -2.3860 -2.4166
  941MOL0     H29805  12.524   8.650   9.088 -0.3065  0.4583 -0.7075
  941MOL0     H29806  12.593   8.793   9.047 -2.5459  1.2010  3.0988
  941MOL0     H29807  12.456   9.000   9.054  1.2222 -0.7641  2.4300
  941MOL0     H29808  12.269   9.179   9.128  0.4390  1.0403 -0.5174
  941MOL0     H29809  12.244   9.110   9.292 -1.3748 -0.0884  0.4183
  941MOL0     H29810  12.055   9.141   9.049  1.5388  0.1836 -0.3787
  941MOL0     H29811  12.000   9.061   9.201 -2.4117 -0.0146 -1.9486
  941MOL0     H29812  11.952   9.257   9.311  1.7113  0.0971  0.8656
  941MOL0     H29813  12.108   9.315   9.271  0.3237 -0.1388 -0.7142
  941MOL0     H29814  11.855   9.316   9.097 -2.3984  0.5439  4.0942
  941MOL0     H29815  11.927   9.458   9.192 -0.6924 -0.9153  1.5454
  941MOL0     H29816  12.172   9.457   8.812 -0.0088 -0.0809 -1.8605
  941MOL0     H29817  12.256   9.553   8.650  2.8846  1.8246  4.5760
  941MOL0     H29818  12.268   9.720   8.691 -2.3048  1.9797  0.2784
  941MOL0     H29819  12.177   9.675   8.547 -0.6547  1.1673  0.6730
  941MOL0     H29820  12.020  10.082   8.732 -0.1842  0.9148  1.2452
  941MOL0     H29821  12.047  10.296   8.632 -0.4262 -0.0846  0.6412
  941MOL0     H29822  11.715  10.505   8.390  0.3248  2.1736 -2.9083
  941MOL0     H29823  11.853  10.601   8.378 -4.2685  1.6785 -0.5314
  941MOL0     H29824  11.981  10.423   8.254  0.1693  0.5337  4.6775
  941MOL0     H29825  11.842  10.317   8.251 -1.3077 -0.3094 -0.1729
  941MOL0     H29826  11.862  10.603   8.142  2.1418 -0.5907 -4.9059
  941MOL0     H29827  11.712  10.515   8.135  0.9366  2.0532  1.2463
  941MOL0     H29828  11.860  10.340   8.013 -1.2506  0.5208  5.6539
  941MOL0     H29829  11.988  10.471   8.015 -0.6103  2.7905 -0.0524
  941MOL0     H29830  11.860  10.487   7.805  0.6528  1.4163  0.2786
  941MOL0     H29831  11.707  10.516   7.884 -0.3061 -1.6763 -0.8463
  941MOL0     H29832  11.954  10.694   7.920  0.4896  2.3936 -4.3918
  941MOL0     H29833  11.792  10.739   7.959 -0.4929 -0.0573  1.2164
  941MOL0     H29834  11.735  10.740   7.721 -0.2479  0.6429  1.2617
  941MOL0     H29835  11.890  10.679   7.671  3.2111  1.2250  0.9207
  941MOL0     H29836  11.896  10.902   7.630  0.1314 -0.0737  0.5504
  941MOL0     H29837  12.011  10.872   7.758 -0.8062  2.2831  2.7800
  941MOL0     H29838  11.649  10.265   8.463  0.2438  1.4662  1.5448
  941MOL0     H29839  11.645  10.035   8.526  0.8851 -1.6785  0.3388
  941MOL0     H29840  11.778   9.755   8.846 -1.5222 -0.8343  3.2784
  941MOL0     H29841  11.807   9.557   9.008  1.8101 -2.3474  0.3317
  941MOL0     H29842  11.585   8.262   8.688 -0.2168 -2.3508 -1.4019
  941MOL0     H29843  11.347   8.359   8.663 -0.9778 -2.1138 -3.2360
  941MOL0     H29844  11.108   8.624   8.368  0.2207 -0.6648 -0.1822
  941MOL0     H29845  10.904   8.671   8.292 -1.3519 -0.0009  0.6567
  941MOL0     H29846  10.587   8.966   8.499  1.4993  2.3083  1.9976
  941MOL0     H29847  10.754   8.981   8.520 -1.1865  0.9797 -0.2828
  941MOL0     H29848  10.597   8.974   8.252  0.0807  1.7591 -0.1480
  941MOL0     H29849  10.768   8.965   8.254 -1.1210 -0.7645 -1.0606
  941MOL0     H29850  10.783   9.185   8.314 -0.1482  1.1915 -1.5582
  941MOL0     H29851  10.646   9.202   8.224  2.5045  1.4231  0.3176
  941MOL0     H29852  10.643   9.199   8.532  4.1616 -0.7043 -0.6888
  941MOL0     H29853  10.497   9.199   8.434 -1.4762  3.9439  1.3145
  941MOL0     H29854  10.596   9.589   8.410 -1.8285  0.0851 -1.1260
  941MOL0     H29855  10.780   8.769   8.688 -1.2096  0.3736 -1.1502
  941MOL0     H29856  11.052   8.647   8.877  0.1842  1.3422 -0.3151
  941MOL0     H29857  10.982   8.811   8.885 -4.5081 -0.1227  0.7341
  941MOL0     H29858  10.886   8.672   8.870 -0.5356  0.2235 -0.3978
  942MOL0     O29859   3.960   6.520   1.701 -0.1906 -0.4605 -0.3690
  942MOL0     C29860   3.907   6.575   1.801 -0.2872 -0.3148 -0.6286
  942MOL0     O29861   3.973   6.597   1.921  0.0583  0.7889 -0.2935
  942MOL0     C29862   4.107   6.604   1.899  0.6754 -0.3313  0.5171
  942MOL0     C29863   4.177   6.486   1.912  0.0312  0.8859  0.0229
  942MOL0     C29864   4.315   6.466   1.887 -0.4584  0.8642 -0.5967
  942MOL0     C29865   4.387   6.574   1.833  0.7996 -0.2318 -0.2312
  942MOL0     O29866   4.522   6.550   1.816  0.1758 -0.2095  0.2892
  942MOL0     C29867   4.596   6.641   1.729  0.0472  0.0001 -0.5467
  942MOL0     C29868   4.718   6.574   1.667  0.5553 -0.0314 -0.2601
  942MOL0     C29869   4.800   6.673   1.585  0.3472  0.0340  0.5487
  942MOL0     C29870   4.940   6.624   1.576 -0.6013  0.1595  0.3977
  942MOL0     C29871   5.032   6.738   1.528 -0.9128 -0.2104  0.5727
  942MOL0     C29872   5.180   6.731   1.574  0.1337  0.1036 -0.6340
  942MOL0     C29873   5.245   6.606   1.517  1.0694 -0.3743  0.5035
  942MOL0     C29874   5.283   6.610   1.365  0.6260  0.3113 -0.0746
  942MOL0     N29875   5.298   6.478   1.304  0.5188  0.7540  0.3288
  942MOL0     C29876   5.314   6.463   1.167  0.7991  0.3750 -0.5534
  942MOL0     C29877   5.341   6.330   1.156 -0.7182 -0.5689  0.1285
  942MOL0     C29878   5.331   6.276   1.024  0.7776 -0.5119  1.1717
  942MOL0     C29879   5.185   6.239   0.987  0.1359  0.2195  0.3965
  942MOL0     C29880   5.109   6.366   0.942 -0.2316 -0.6866  0.1042
  942MOL0     C29881   4.971   6.329   0.888 -1.2470 -0.0185 -0.0244
  942MOL0     O29882   4.970   6.389   0.754  0.6060  0.9696  0.7929
  942MOL0     C29883   4.863   6.370   0.678  0.0224 -0.4904 -0.5160
  942MOL0     C29884   4.899   6.366   0.545  0.8073 -0.5893  0.2342
  942MOL0     C29885   4.796   6.351   0.454 -0.0211 -0.0040 -0.6967
  942MOL0     C29886   4.847   6.362   0.309  0.9972  0.0219  0.2538
  942MOL0     C29887   4.653   6.329   0.499 -0.3387  0.8689  0.5406
  942MOL0     C29888   4.537   6.326   0.400 -0.5041  0.1062  0.0772
  942MOL0     O29889   4.429   6.270   0.456  0.5518  0.0333  0.6135
  942MOL0     C29890   4.315   6.240   0.388  0.2232  0.4825 -1.2372
  942MOL0     C29891   4.316   6.167   0.268 -1.1745  0.8277 -0.4733
  942MOL0     C29892   4.198   6.107   0.215  0.5354 -0.1033 -0.0247
  942MOL0     C29893   4.076   6.126   0.280 -0.5904  0.8254 -0.3177
  942MOL0     O29894   3.970   6.087   0.204 -0.1618  0.2789 -0.1469
  942MOL0     C29895   3.847   6.090   0.272 -0.2635  0.6654  0.2772
  942MOL0     C29896   3.744   6.056   0.160  0.3227  0.6977  0.8751
  942MOL0     C29897   3.661   6.182   0.143 -0.7136  0.0578  0.0212
  942MOL0     C29898   3.545   6.169   0.039  0.1698  0.3750 -0.8813
  942MOL0     C29899   3.462   6.291   0.055 -0.3148  0.6646 -0.2565
  942MOL0     C29900   3.346   6.265   0.156 -0.4652  0.3809 -0.8660
  942MOL0     C29901   3.238   6.374   0.168  0.1594  1.2852 -0.2893
  942MOL0     C29902   3.127   6.316   0.251  1.2610  0.0643  0.6485
  942MOL0    Cl29903   3.181   6.249   0.414  0.7613  0.1228  0.9231
  942MOL0     C29904   4.074   6.201   0.402  0.5394  0.1763 -0.3660
  942MOL0     C29905   4.192   6.252   0.457 -0.8556  0.6218  0.2258
  942MOL0     O29906   4.547   6.361   0.284 -0.7158 -1.4382  0.0410
  942MOL0     C29907   4.628   6.314   0.636 -0.0619  0.6150 -0.1991
  942MOL0     C29908   4.732   6.347   0.723 -0.0230  0.4392  0.1550
  942MOL0     N29909   5.354   6.280   1.285 -0.5624  0.3938 -0.2146
  942MOL0     N29910   5.327   6.361   1.373  0.9191  0.1692  0.4821
  942MOL0     C29911   4.316   6.696   1.818 -0.1410  0.1000 -0.8514
  942MOL0     C29912   4.180   6.708   1.839  0.0414 -0.3850 -0.1888
  942MOL0     C29913   3.761   6.607   1.795  0.1748  0.8957 -0.7511
  942MOL0     C29914   3.680   6.511   1.731 -1.4464 -0.6903 -0.1793
  942MOL0     C29915   3.541   6.530   1.708 -0.3328  0.5584 -0.2651
  942MOL0     C29916   3.472   6.654   1.755 -0.2375 -0.2066 -0.6227
  942MOL0     O29917   3.340   6.678   1.716  0.2013 -0.0888 -0.1275
  942MOL0     C29918   3.246   6.714   1.822 -0.2239  0.3939 -1.3163
  942MOL0     C29919   3.097   6.692   1.774 -0.0292 -0.9528  0.1926
  942MOL0     C29920   3.001   6.731   1.891  1.8116 -0.6642  0.1254
  942MOL0     C29921   2.986   6.886   1.913 -0.0614  0.5969  1.1598
  942MOL0     C29922   2.901   6.922   2.023 -0.9479 -0.2139 -0.6573
  942MOL0     C29923   2.814   6.933   2.110 -0.1376 -0.8219  0.3678
  942MOL0     C29924   3.551   6.739   1.821 -0.7849 -0.0823  0.4709
  942MOL0     C29925   3.687   6.723   1.839  0.0478  0.4491  0.6347
  942MOL0     C29926   3.764   6.838   1.897  0.5031  0.4978  0.7959
  942MOL0     H29927   4.129   6.404   1.965  3.0908 -1.4297 -0.4865
  942MOL0     H29928   4.363   6.370   1.903 -1.5298  0.0486 -2.0687
  942MOL0     H29929   4.633   6.720   1.794  3.2243 -0.9439 -1.0625
  942MOL0     H29930   4.525   6.668   1.650  0.3167  2.8205  0.0912
  942MOL0     H29931   4.779   6.529   1.746  0.5121 -0.5296 -0.5085
  942MOL0     H29932   4.698   6.485   1.606 -0.2564 -0.3351  0.4278
  942MOL0     H29933   4.760   6.678   1.483 -1.4821 -2.7197  1.0093
  942MOL0     H29934   4.797   6.776   1.620  0.1384  1.5958 -3.5602
  942MOL0     H29935   4.969   6.598   1.678  1.7457  3.3176  0.6786
  942MOL0     H29936   4.950   6.541   1.505  1.8144 -0.1762  1.0299
  942MOL0     H29937   4.986   6.826   1.575  0.0014  1.7165 -1.8864
  942MOL0     H29938   5.031   6.752   1.419  1.2689 -1.0516  0.4097
  942MOL0     H29939   5.238   6.819   1.544  0.7938 -0.1199 -0.0342
  942MOL0     H29940   5.180   6.722   1.683  0.2639 -1.1371 -0.7205
  942MOL0     H29941   5.176   6.521   1.522  1.3009 -0.5743  0.3269
  942MOL0     H29942   5.342   6.581   1.561  1.1658 -2.9256 -0.9247
  942MOL0     H29943   5.202   6.665   1.316 -0.0099 -1.3792 -1.0000
  942MOL0     H29944   5.375   6.670   1.367  1.5434 -1.0513  0.0692
  942MOL0     H29945   5.285   6.531   1.088 -2.5712 -1.8165 -1.4362
  942MOL0     H29946   5.404   6.194   1.024  0.0057 -1.2604 -1.0534
  942MOL0     H29947   5.366   6.341   0.944 -0.1089 -2.4304 -0.9043
  942MOL0     H29948   5.193   6.175   0.899  0.4467  1.1685 -0.2938
  942MOL0     H29949   5.140   6.182   1.069  2.5861 -1.0721  0.9194
  942MOL0     H29950   5.103   6.443   1.020  1.5594  1.5236 -1.7723
  942MOL0     H29951   5.158   6.411   0.856 -3.9445  1.7911 -0.9666
  942MOL0     H29952   4.964   6.220   0.888  0.0677 -0.1195  0.6909
  942MOL0     H29953   4.883   6.361   0.944 -2.0086 -1.9058 -0.0423
  942MOL0     H29954   4.997   6.385   0.502 -0.5710  0.1289 -2.8630
  942MOL0     H29955   4.857   6.261   0.268  0.2331  0.0959 -0.1452
  942MOL0     H29956   4.944   6.409   0.296 -0.0855  1.9029 -1.8345
  942MOL0     H29957   4.772   6.413   0.247  0.4591  0.0596  0.9268
  942MOL0     H29958   4.414   6.157   0.221 -0.0995  5.1462  0.4464
  942MOL0     H29959   4.203   6.049   0.123  2.1979 -0.0122 -0.0242
  942MOL0     H29960   3.842   6.013   0.349 -4.5143  1.8147  1.4462
  942MOL0     H29961   3.843   6.186   0.326  1.7954  0.8646  0.1515
  942MOL0     H29962   3.785   6.023   0.064  1.5121 -1.0215  1.9306
  942MOL0     H29963   3.686   5.974   0.203 -0.7100  1.5306  1.1194
  942MOL0     H29964   3.724   6.270   0.124  1.3953 -1.6731 -1.5220
  942MOL0     H29965   3.619   6.202   0.241  3.3330  3.3449  1.4163
  942MOL0     H29966   3.499   6.072   0.057 -2.8734  1.6303 -1.3558
  942MOL0     H29967   3.597   6.164  -0.057  2.5692 -0.3492  0.3597
  942MOL0     H29968   3.525   6.373   0.091 -0.4681  0.3291  0.8030
  942MOL0     H29969   3.415   6.316  -0.041 -0.6009  2.5749  0.3301
  942MOL0     H29970   3.383   6.249   0.258 -2.1390  2.1889  0.1024
  942MOL0     H29971   3.305   6.168   0.128  3.7444 -1.8329 -0.2002
  942MOL0     H29972   3.204   6.417   0.073  1.0815  0.7223 -0.8904
  942MOL0     H29973   3.288   6.455   0.222 -0.3096  0.7373  0.9786
  942MOL0     H29974   3.090   6.237   0.185  1.8504 -0.0449  0.4423
  942MOL0     H29975   3.043   6.380   0.279 -0.0886 -1.0295 -0.7315
  942MOL0     H29976   3.987   6.224   0.462 -0.3297 -0.5739 -1.2994
  942MOL0     H29977   4.183   6.297   0.555  2.5664  2.3598 -0.1181
  942MOL0     H29978   4.528   6.301   0.677  1.1304  1.7408  3.4947
  942MOL0     H29979   4.706   6.336   0.828 -0.9091 -0.1670 -0.1161
  942MOL0     H29980   4.375   6.774   1.771 -0.3788  0.7317 -0.1256
  942MOL0     H29981   4.131   6.801   1.810  1.9372  0.1753 -1.7595
  942MOL0     H29982   3.734   6.424   1.697 -0.4626 -0.7731  1.4628
  942MOL0     H29983   3.481   6.459   1.652 -1.8407  1.2814  0.3463
  942MOL0     H29984   3.281   6.653   1.906  2.9743  1.2894 -1.8715
  942MOL0     H29985   3.256   6.812   1.869 -0.3743 -0.8230  1.4566
  942MOL0     H29986   3.071   6.589   1.750 -2.4075 -0.8696  1.9888
  942MOL0     H29987   3.066   6.755   1.690  1.7350 -0.0815  0.1426
  942MOL0     H29988   2.903   6.684   1.878  0.7702  1.7555 -1.3998
  942MOL0     H29989   3.043   6.691   1.983  2.4779 -3.0166 -1.1346
  942MOL0     H29990   2.936   6.918   1.821  0.6384 -0.1887  0.4856
  942MOL0     H29991   3.080   6.942   1.919  1.6076 -1.7417 -1.0916
  942MOL0     H29992   2.750   6.956   2.193 -1.2481  1.1757 -0.9404
  942MOL0     H29993   3.503   6.834   1.843  0.2803  0.8265 -0.9559
  942MOL0     H29994   3.782   6.820   2.003 -1.6713 -0.6374  1.0348
  942MOL0     H29995   3.858   6.846   1.842 -0.8772  1.0503 -1.6479
  942MOL0     H29996   3.716   6.934   1.874 -1.0655 -0.1096  1.3737
  943MOL0     O29997   3.822   8.093   2.013 -0.6594  0.0865  0.5725
  943MOL0     C29998   3.887   8.183   2.062 -0.3395  0.0903 -0.5948
  943MOL0     O29999   3.904   8.209   2.195 -0.1738  0.0970  0.4780
  943MOL0     C30000   3.857   8.135   2.303 -0.1675 -0.8046  0.2841
  943MOL0     C30001   3.855   8.191   2.427 -0.2767 -0.0126 -0.1676
  943MOL0     C30002   3.810   8.124   2.541 -0.2373  0.7391  0.2161
  943MOL0     C30003   3.753   7.990   2.530  0.2871  0.4916  0.0176
  943MOL0     O30004   3.707   7.912   2.627  0.9331 -0.2303 -0.7239
  943MOL0     C30005   3.621   7.974   2.724  0.1992 -1.0179  0.7581
  943MOL0     C30006   3.674   7.986   2.868 -0.2134 -0.7618 -0.4854
  943MOL0     C30007   3.580   8.075   2.954  0.7887  0.2842 -0.2251
  943MOL0     C30008   3.626   8.057   3.091  0.2312 -0.0312 -1.1670
  943MOL0     C30009   3.534   8.112   3.212 -0.0660  0.1452 -0.1177
  943MOL0     C30010   3.425   8.005   3.247  0.5635  0.2662  0.1091
  943MOL0     C30011   3.342   8.045   3.375  0.1928  0.3655 -0.7905
  943MOL0     C30012   3.214   8.103   3.344 -0.1463 -0.0167 -0.5193
  943MOL0     N30013   3.155   8.166   3.466 -0.1981  0.5878 -0.5629
  943MOL0     C30014   3.151   8.301   3.485  1.0167 -0.3168  0.3814
  943MOL0     C30015   3.125   8.307   3.623 -0.5907 -0.3296  0.4831
  943MOL0     C30016   3.121   8.436   3.690  0.7368  0.2343 -0.0574
  943MOL0     C30017   3.239   8.537   3.674  0.0340 -0.7732 -0.1174
  943MOL0     C30018   3.357   8.507   3.772 -0.1714  0.1917  0.0509
  943MOL0     C30019   3.334   8.539   3.916 -0.0454  0.6101 -0.8169
  943MOL0     O30020   3.250   8.434   3.967 -0.6584 -0.6480  0.0626
  943MOL0     C30021   3.182   8.464   4.086 -0.5415  1.1276  0.2550
  943MOL0     C30022   3.228   8.548   4.185 -0.4472  0.5286  1.2049
  943MOL0     C30023   3.176   8.555   4.315 -0.3412  0.0404  1.1266
  943MOL0     C30024   3.232   8.662   4.413  0.6011  0.6446 -1.0776
  943MOL0     C30025   3.068   8.473   4.349 -0.4961  0.3266 -0.4388
  943MOL0     C30026   3.006   8.477   4.485  0.4061 -0.0391  0.2577
  943MOL0     O30027   3.087   8.475   4.595 -0.1169 -0.4343  0.0216
  943MOL0     C30028   3.048   8.446   4.723 -0.1090  0.3025  0.6644
  943MOL0     C30029   3.040   8.316   4.778 -1.6515  0.9258 -0.2092
  943MOL0     C30030   2.982   8.282   4.899 -0.2055  0.4515  0.0657
  943MOL0     C30031   2.944   8.388   4.977  0.1084  0.6311 -0.0590
  943MOL0     O30032   2.890   8.360   5.100  0.6470 -0.0296 -0.6637
  943MOL0     C30033   2.745   8.372   5.102  0.4287 -1.0277  0.7717
  943MOL0     C30034   2.692   8.340   5.243 -0.3593  0.3686  0.1118
  943MOL0     C30035   2.737   8.457   5.338  0.6837  0.4862 -0.4499
  943MOL0     C30036   2.671   8.436   5.476  0.6381  0.4397 -0.1510
  943MOL0     C30037   2.672   8.551   5.576  0.1783 -0.0689  0.7303
  943MOL0     C30038   2.610   8.680   5.520 -0.0404 -0.1221 -0.9861
  943MOL0     C30039   2.592   8.794   5.622  0.0221 -0.2537 -0.4345
  943MOL0     C30040   2.535   8.749   5.743 -0.1029 -0.6333 -0.6353
  943MOL0    Cl30041   2.384   8.659   5.719 -0.2064  0.0973 -0.5100
  943MOL0     C30042   2.943   8.519   4.925 -0.0168  0.0854 -0.3752
  943MOL0     C30043   2.998   8.544   4.798  0.4905 -0.2245  0.1664
  943MOL0     O30044   2.882   8.468   4.491 -0.0913 -0.2233 -0.6301
  943MOL0     C30045   3.022   8.390   4.255  0.4161 -1.3227  0.8112
  943MOL0     C30046   3.077   8.382   4.120  1.3287  0.0655  0.2602
  943MOL0     N30047   3.118   8.179   3.679 -0.4943  0.8350 -0.4697
  943MOL0     N30048   3.124   8.093   3.580 -0.6321  0.0552  0.4690
  943MOL0     C30049   3.742   7.933   2.402  0.3061 -1.4499  0.3705
  943MOL0     C30050   3.806   8.006   2.294  0.1440 -0.1807 -0.1218
  943MOL0     C30051   3.970   8.266   1.973  0.2621 -0.3808 -0.4577
  943MOL0     C30052   3.901   8.304   1.852  0.4227  1.3079 -0.4591
  943MOL0     C30053   3.956   8.392   1.761  0.4443  0.8707  0.7375
  943MOL0     C30054   4.096   8.414   1.778 -0.7753 -0.7794 -0.5558
  943MOL0     O30055   4.175   8.497   1.701 -0.1124  0.1270 -0.1085
  943MOL0     C30056   4.127   8.538   1.573 -0.3234  0.7411  0.2540
  943MOL0     C30057   4.241   8.564   1.468 -0.1503 -0.6384  0.0458
  943MOL0     C30058   4.314   8.439   1.429 -0.3889 -1.0180 -0.4381
  943MOL0     C30059   4.404   8.451   1.307  0.0590 -1.4570  0.8321
  943MOL0     C30060   4.515   8.545   1.346 -0.4843  0.2702  0.1280
  943MOL0     C30061   4.608   8.618   1.385  0.2323  0.1504  0.2284
  943MOL0     C30062   4.164   8.374   1.897  0.4529  0.0916  0.3456
  943MOL0     C30063   4.107   8.305   1.988 -0.1725 -0.5799 -1.0425
  943MOL0     C30064   4.190   8.264   2.108  0.1582  0.4275  0.0909
  943MOL0     H30065   3.896   8.292   2.429 -0.0056  0.0144 -2.9891
  943MOL0     H30066   3.834   8.166   2.639  3.1106 -1.0319  0.2817
  943MOL0     H30067   3.528   7.916   2.721  0.2502 -1.1057  0.9526
  943MOL0     H30068   3.591   8.077   2.702  0.9660 -0.9923 -0.2333
  943MOL0     H30069   3.683   7.886   2.913  1.3437 -1.0057 -1.2609
  943MOL0     H30070   3.777   8.020   2.860  0.1300 -1.2727  1.1819
  943MOL0     H30071   3.593   8.174   2.909 -0.1923 -0.9032 -3.3984
  943MOL0     H30072   3.473   8.052   2.957  0.9792 -0.6553  3.7016
  943MOL0     H30073   3.640   7.953   3.122  0.2662  0.7229  1.6944
  943MOL0     H30074   3.722   8.110   3.100  1.7284 -2.7511 -0.1363
  943MOL0     H30075   3.509   8.218   3.208  3.5358  1.3971  3.3376
  943MOL0     H30076   3.608   8.126   3.292  0.1639 -2.7164  0.2817
  943MOL0     H30077   3.371   7.974   3.157 -0.3697 -2.0701  1.3745
  943MOL0     H30078   3.461   7.902   3.262 -5.5546 -2.1938  0.7127
  943MOL0     H30079   3.404   8.118   3.427 -0.0870  0.5312 -0.6875
  943MOL0     H30080   3.325   7.958   3.439  0.2258 -1.1709 -2.7682
  943MOL0     H30081   3.236   8.171   3.261  2.8096 -1.2288 -0.8417
  943MOL0     H30082   3.161   8.018   3.302 -1.0781  0.7426 -0.9176
  943MOL0     H30083   3.165   8.391   3.425 -0.0896 -0.7025 -0.5042
  943MOL0     H30084   3.098   8.399   3.791 -2.3991 -1.8574 -1.3886
  943MOL0     H30085   3.024   8.480   3.666  0.0788 -0.8126  0.6171
  943MOL0     H30086   3.291   8.537   3.577 -1.9790  1.7161 -1.2846
  943MOL0     H30087   3.201   8.638   3.688 -1.3369 -1.4133  0.9249
  943MOL0     H30088   3.390   8.403   3.774  0.8422  0.4905  3.0334
  943MOL0     H30089   3.442   8.569   3.741 -0.7158 -0.4640 -3.0617
  943MOL0     H30090   3.430   8.552   3.967 -1.1367  1.2131  1.2114
  943MOL0     H30091   3.285   8.636   3.928  0.2483  0.5464  1.3598
  943MOL0     H30092   3.322   8.600   4.165 -0.2033  0.0988  1.2128
  943MOL0     H30093   3.316   8.625   4.471  0.8546  4.4879  1.4051
  943MOL0     H30094   3.152   8.700   4.479  2.3959 -0.0183  1.6343
  943MOL0     H30095   3.272   8.754   4.370 -1.7799  2.4348  0.2413
  943MOL0     H30096   3.087   8.239   4.718 -3.3278 -1.0224  0.8584
  943MOL0     H30097   2.968   8.176   4.921  0.3675  0.3192 -0.1942
  943MOL0     H30098   2.702   8.471   5.083  3.4238  0.0724 -1.0031
  943MOL0     H30099   2.700   8.304   5.028 -2.0454  0.8621  0.4033
  943MOL0     H30100   2.583   8.341   5.245 -0.4361  3.7271 -0.1345
  943MOL0     H30101   2.738   8.248   5.280 -2.5728 -1.0841 -0.5369
  943MOL0     H30102   2.701   8.551   5.295 -1.3142  1.0625  2.1903
  943MOL0     H30103   2.846   8.467   5.340  1.0165 -1.0936 -4.0106
  943MOL0     H30104   2.726   8.357   5.528  1.3432  0.8252 -0.3082
  943MOL0     H30105   2.567   8.406   5.461  0.6122  1.2977 -1.9076
  943MOL0     H30106   2.620   8.508   5.662  2.7943 -2.4414  1.2409
  943MOL0     H30107   2.774   8.570   5.609 -0.3187  1.8861  1.2937
  943MOL0     H30108   2.509   8.653   5.488 -1.9809  1.7057  2.8826
  943MOL0     H30109   2.666   8.707   5.431 -0.0455 -3.2217 -2.0640
  943MOL0     H30110   2.525   8.864   5.572 -0.4478 -0.1654  0.3039
  943MOL0     H30111   2.689   8.843   5.638 -2.6059  5.0923  1.3665
  943MOL0     H30112   2.514   8.831   5.812  4.9862 -0.3555  1.0564
  943MOL0     H30113   2.604   8.685   5.799  1.5170 -0.0885 -1.9173
  943MOL0     H30114   2.901   8.600   4.984  2.0688 -0.8153  2.5772
  943MOL0     H30115   2.999   8.644   4.757 -0.2994 -0.5329 -0.6245
  943MOL0     H30116   2.936   8.338   4.297 -0.6175  2.2349  3.5274
  943MOL0     H30117   3.033   8.318   4.044 -0.0303 -0.1133  1.1756
  943MOL0     H30118   3.702   7.833   2.394  1.0290 -1.7076 -0.1712
  943MOL0     H30119   3.803   7.961   2.195 -2.2646  0.0129 -0.1843
  943MOL0     H30120   3.797   8.272   1.846  1.2344 -1.7292 -0.0713
  943MOL0     H30121   3.901   8.439   1.681 -2.2534 -2.0900  0.6369
  943MOL0     H30122   4.056   8.462   1.538 -1.8315  0.8466  2.8020
  943MOL0     H30123   4.066   8.627   1.591  1.4941  1.3722  4.7974
  943MOL0     H30124   4.319   8.621   1.518  0.4035 -1.4379  0.1169
  943MOL0     H30125   4.199   8.600   1.374 -1.2385 -1.1073  0.3374
  943MOL0     H30126   4.372   8.401   1.513  1.5994 -0.0745 -1.3270
  943MOL0     H30127   4.250   8.352   1.414 -1.5397  0.2922 -4.1518
  943MOL0     H30128   4.352   8.491   1.219  0.3542 -1.5099  0.6273
  943MOL0     H30129   4.445   8.357   1.270  1.1149 -0.4760 -0.6327
  943MOL0     H30130   4.683   8.690   1.407 -1.2839  1.3376  1.7746
  943MOL0     H30131   4.253   8.432   1.920  2.3292 -3.1493  2.0796
  943MOL0     H30132   4.246   8.171   2.103 -2.1765 -1.0396 -0.0719
  943MOL0     H30133   4.264   8.343   2.125  0.0788 -0.0143  2.9212
  943MOL0     H30134   4.143   8.273   2.206 -1.2021  3.7343 -0.7026
  944MOL0     O30135   9.693   4.184   5.520 -0.2650  0.6554  0.6037
  944MOL0     C30136   9.791   4.118   5.543  0.1802 -0.7167  0.0682
  944MOL0     O30137   9.792   3.975   5.562  0.8038 -0.3462  0.2569
  944MOL0     C30138   9.669   3.917   5.535  0.4519  0.0030  0.0765
  944MOL0     C30139   9.573   3.895   5.630  0.2194  0.2499  0.5085
  944MOL0     C30140   9.449   3.848   5.600  1.0235  0.9491  0.2463
  944MOL0     C30141   9.409   3.822   5.472  0.0668 -0.5005 -0.6088
  944MOL0     O30142   9.281   3.775   5.441  0.1634  0.1240  0.3493
  944MOL0     C30143   9.220   3.679   5.534 -0.7481  0.0884 -0.1788
  944MOL0     C30144   9.148   3.584   5.439 -0.1225 -0.0064 -0.3693
  944MOL0     C30145   9.247   3.477   5.393  0.4151  0.4935 -0.2114
  944MOL0     C30146   9.178   3.380   5.303  0.1391  0.1482 -0.0988
  944MOL0     C30147   9.231   3.231   5.315  0.1492 -0.6455  0.6318
  944MOL0     C30148   9.381   3.220   5.277  0.5889 -0.2893  0.0655
  944MOL0     C30149   9.442   3.089   5.301  0.6739 -0.8711 -0.7588
  944MOL0     C30150   9.579   3.078   5.229  0.1013  1.2754  0.1631
  944MOL0     N30151   9.687   3.152   5.295  0.4949  0.2257  0.0005
  944MOL0     C30152   9.751   3.259   5.242 -0.1552 -1.3415 -0.3847
  944MOL0     C30153   9.850   3.293   5.334  0.0287 -0.5612  0.0675
  944MOL0     C30154   9.943   3.412   5.305  0.3763 -0.6397 -0.5805
  944MOL0     C30155   9.873   3.538   5.351 -0.1791 -1.0104  0.3566
  944MOL0     C30156   9.952   3.663   5.305 -0.5307 -0.6869  0.9561
  944MOL0     C30157  10.064   3.689   5.398 -0.4928  0.2406  2.1625
  944MOL0     O30158  10.124   3.814   5.356  0.7987 -0.0824  0.1518
  944MOL0     C30159  10.247   3.854   5.397 -0.1365 -1.0880 -0.2730
  944MOL0     C30160  10.326   3.941   5.318  0.6739  0.5764 -0.6125
  944MOL0     C30161  10.452   3.989   5.352  0.2297  0.6390  0.5171
  944MOL0     C30162  10.536   4.072   5.246  0.0686 -0.4018 -0.1583
  944MOL0     C30163  10.497   3.963   5.483 -0.1776  0.4585 -0.8043
  944MOL0     C30164  10.633   4.020   5.538  0.0467 -0.7011  0.6697
  944MOL0     O30165  10.718   4.087   5.445 -0.2125  0.4763 -0.4180
  944MOL0     C30166  10.831   4.155   5.461 -0.6992 -0.6393 -0.8691
  944MOL0     C30167  10.904   4.180   5.345  0.7415 -0.7380  0.2207
  944MOL0     C30168  11.038   4.224   5.354 -0.2866 -0.1808 -0.0186
  944MOL0     C30169  11.090   4.255   5.485 -0.1766  1.1429 -0.2234
  944MOL0     O30170  11.222   4.299   5.493 -0.7249 -0.4891 -1.1041
  944MOL0     C30171  11.303   4.261   5.611  0.2038 -0.9241  0.3791
  944MOL0     C30172  11.322   4.386   5.705  0.4727  0.4567  0.3337
  944MOL0     C30173  11.413   4.490   5.638 -0.9351 -0.9179 -0.5946
  944MOL0     C30174  11.422   4.616   5.741  0.1017  0.3136 -0.2630
  944MOL0     C30175  11.459   4.734   5.653 -0.9547 -0.1602  0.0187
  944MOL0     C30176  11.416   4.881   5.685 -0.7076 -0.8807  0.5785
  944MOL0     C30177  11.432   4.930   5.831  0.3767 -0.6941 -0.5613
  944MOL0     C30178  11.561   4.881   5.901  1.7670  0.1746  0.8517
  944MOL0    Cl30179  11.553   4.929   6.075  0.2419  0.1493 -0.2557
  944MOL0     C30180  11.008   4.254   5.597  0.5943 -0.0295 -0.3703
  944MOL0     C30181  10.887   4.196   5.584  0.3460  0.4037 -0.0612
  944MOL0     O30182  10.667   3.997   5.652  0.1696  0.0602 -0.9052
  944MOL0     C30183  10.419   3.881   5.570  0.6913 -0.3617  0.2852
  944MOL0     C30184  10.294   3.829   5.526  0.0563 -0.4798  0.9471
  944MOL0     N30185   9.826   3.232   5.454  0.7729 -0.1767 -0.4801
  944MOL0     N30186   9.727   3.147   5.435 -0.3066 -0.3599  0.1902
  944MOL0     C30187   9.505   3.836   5.370  0.2104  0.2899 -0.4679
  944MOL0     C30188   9.630   3.886   5.405 -0.2561  0.3134  0.9608
  944MOL0     C30189   9.927   4.194   5.523  1.1115 -0.0534 -0.5788
  944MOL0     C30190  10.047   4.127   5.552 -1.0064 -0.2776 -0.2570
  944MOL0     C30191  10.181   4.182   5.551  0.2892  0.3240 -0.0747
  944MOL0     C30192  10.192   4.312   5.498  0.2189  0.6864  0.3042
  944MOL0     O30193  10.313   4.365   5.465 -0.0709  0.2923 -0.4113
  944MOL0     C30194  10.332   4.507   5.466 -0.9758 -0.2167  0.7194
  944MOL0     C30195  10.364   4.564   5.597 -0.0703 -0.1681 -0.9292
  944MOL0     C30196  10.500   4.509   5.657 -0.0843 -0.0107  1.1337
  944MOL0     C30197  10.557   4.601   5.764  1.0535 -0.0587  0.3837
  944MOL0     C30198  10.659   4.546   5.841  0.2220 -0.5147 -0.6877
  944MOL0     C30199  10.745   4.496   5.916  0.1093  0.9903  0.5639
  944MOL0     C30200  10.081   4.381   5.465  1.0849 -0.1534 -0.5844
  944MOL0     C30201   9.947   4.324   5.488  0.2386 -0.5923 -0.5806
  944MOL0     C30202   9.835   4.422   5.460 -0.8182 -0.7214  0.2748
  944MOL0     H30203   9.599   3.919   5.732  1.4438 -3.1608  1.1180
  944MOL0     H30204   9.375   3.847   5.679  0.1663  4.8927 -0.2516
  944MOL0     H30205   9.146   3.728   5.598 -1.5205 -1.0273 -0.1857
  944MOL0     H30206   9.301   3.630   5.589 -0.4504 -0.8554 -1.3968
  944MOL0     H30207   9.068   3.527   5.487  1.2953 -2.1390 -0.4083
  944MOL0     H30208   9.103   3.642   5.358  0.8963  1.8824  0.3614
  944MOL0     H30209   9.336   3.511   5.339  0.3431 -3.0521 -2.9972
  944MOL0     H30210   9.286   3.421   5.479 -0.3366 -2.4971 -1.6640
  944MOL0     H30211   9.068   3.374   5.304  0.1924 -1.9497  1.9536
  944MOL0     H30212   9.199   3.418   5.202 -0.1313 -2.3543 -1.1867
  944MOL0     H30213   9.175   3.158   5.255  1.5461 -2.0727  0.9916
  944MOL0     H30214   9.232   3.187   5.416  0.6143 -0.5203  0.6839
  944MOL0     H30215   9.393   3.238   5.170  1.2199  0.5379  0.2631
  944MOL0     H30216   9.441   3.299   5.323  2.6615 -2.0413  0.5729
  944MOL0     H30217   9.379   3.009   5.263 -3.0878  2.3379 -1.9328
  944MOL0     H30218   9.456   3.082   5.409 -1.5029  0.7923 -0.2954
  944MOL0     H30219   9.618   2.976   5.224  1.9892  2.0037 -1.4321
  944MOL0     H30220   9.572   3.120   5.128  0.5897  0.8831 -0.0394
  944MOL0     H30221   9.727   3.302   5.146 -2.4012  4.1002  2.1799
  944MOL0     H30222   9.959   3.412   5.197  0.8241  1.7125 -0.5547
  944MOL0     H30223  10.036   3.398   5.360  0.1589 -2.9099 -0.6913
  944MOL0     H30224   9.769   3.539   5.316 -0.3342 -2.7213  0.6710
  944MOL0     H30225   9.853   3.525   5.458  1.1963  3.8625  1.4235
  944MOL0     H30226   9.981   3.658   5.200 -0.4994 -0.9303  0.9767
  944MOL0     H30227   9.884   3.749   5.315  2.9730  2.3136  0.9988
  944MOL0     H30228  10.029   3.696   5.502  3.5999  4.1171  3.5913
  944MOL0     H30229  10.135   3.607   5.385  0.1490  1.0388  0.2843
  944MOL0     H30230  10.291   3.966   5.219 -2.0776 -1.7319 -0.3734
  944MOL0     H30231  10.632   4.023   5.230 -0.1294 -0.8750  0.0881
  944MOL0     H30232  10.551   4.176   5.278 -1.3148  0.8579 -3.1529
  944MOL0     H30233  10.491   4.080   5.146 -0.6246 -0.1052  0.1667
  944MOL0     H30234  10.867   4.169   5.244  1.6382  2.5808 -0.5821
  944MOL0     H30235  11.105   4.233   5.269 -0.7733 -0.2138 -0.4102
  944MOL0     H30236  11.250   4.191   5.677  0.4612  1.6879  3.6380
  944MOL0     H30237  11.398   4.218   5.581  1.2864  1.1320  0.6763
  944MOL0     H30238  11.221   4.425   5.719  0.0495 -0.4371 -0.1272
  944MOL0     H30239  11.356   4.360   5.806  1.2209 -2.6298 -0.6033
  944MOL0     H30240  11.371   4.516   5.541  1.9961 -2.7472 -2.4964
  944MOL0     H30241  11.514   4.454   5.614 -0.0706  0.6863  0.4672
  944MOL0     H30242  11.487   4.594   5.826 -1.4604 -0.0897  0.8739
  944MOL0     H30243  11.321   4.624   5.781 -3.5505 -1.5950 -7.4047
  944MOL0     H30244  11.567   4.733   5.636 -0.6437  1.5169  1.5387
  944MOL0     H30245  11.406   4.715   5.559 -2.1080 -1.6910  0.9301
  944MOL0     H30246  11.308   4.891   5.672 -0.7689 -3.2143 -1.5529
  944MOL0     H30247  11.452   4.961   5.620 -3.6157  1.4842  1.6486
  944MOL0     H30248  11.340   4.901   5.883 -2.5642  1.7446 -3.8471
  944MOL0     H30249  11.422   5.039   5.843  3.0317 -0.5247  0.6403
  944MOL0     H30250  11.650   4.921   5.850  1.1099  0.6198  0.0177
  944MOL0     H30251  11.581   4.773   5.899  0.9741  0.0116  1.3758
  944MOL0     H30252  11.038   4.289   5.695 -1.2938 -2.7628  1.3404
  944MOL0     H30253  10.827   4.183   5.673  1.4368 -1.5889  0.4312
  944MOL0     H30254  10.456   3.864   5.671 -1.3896 -2.0991  0.8256
  944MOL0     H30255  10.240   3.764   5.593 -2.6437 -1.0873 -1.6272
  944MOL0     H30256   9.470   3.783   5.282 -0.9634  0.0275  0.1419
  944MOL0     H30257   9.708   3.900   5.331  0.5638 -0.3477  1.6764
  944MOL0     H30258  10.031   4.023   5.577  1.0902 -0.3887  0.8787
  944MOL0     H30259  10.262   4.116   5.581 -0.3818  0.1704  1.4400
  944MOL0     H30260  10.426   4.521   5.411 -0.7747 -1.5506  0.6794
  944MOL0     H30261  10.259   4.571   5.417  2.2452  2.0586 -1.5354
  944MOL0     H30262  10.294   4.525   5.672 -0.1315  0.4788 -0.6511
  944MOL0     H30263  10.351   4.672   5.603 -2.0695 -0.4443  3.1702
  944MOL0     H30264  10.491   4.407   5.694  1.7319 -1.4828 -2.0412
  944MOL0     H30265  10.577   4.498   5.581 -0.5769  1.8272  0.2884
  944MOL0     H30266  10.477   4.629   5.832  0.1230 -0.7312 -0.4022
  944MOL0     H30267  10.596   4.693   5.718 -1.1419  0.8929  0.3064
  944MOL0     H30268  10.824   4.458   5.977  1.1485  0.0844 -1.2547
  944MOL0     H30269  10.080   4.480   5.420  0.3570  0.2472  0.2967
  944MOL0     H30270   9.865   4.524   5.431  2.5610 -0.3832  4.0598
  944MOL0     H30271   9.781   4.385   5.372 -2.6817  1.9811  0.1640
  944MOL0     H30272   9.756   4.428   5.535 -0.1949 -0.7405  0.9408
  945MOL0     O30273  10.662  10.170   2.793  0.9440 -0.5232  0.1181
  945MOL0     C30274  10.566  10.172   2.872 -0.2415 -0.1986 -0.6442
  945MOL0     O30275  10.561  10.216   3.000 -0.5781  0.5585 -0.2975
  945MOL0     C30276  10.668  10.284   3.055  0.2637 -0.1500  0.6189
  945MOL0     C30277  10.648  10.408   3.115 -0.7285  0.0854 -0.0089
  945MOL0     C30278  10.756  10.479   3.171 -0.8111  0.1511 -0.2352
  945MOL0     C30279  10.881  10.408   3.189  0.4432 -0.0325 -0.1019
  945MOL0     O30280  10.986  10.466   3.255 -0.2451  0.0639 -1.3433
  945MOL0     C30281  11.053  10.588   3.224 -0.4345 -0.1799  0.2282
  945MOL0     C30282  11.090  10.589   3.077  0.7680  0.0300 -0.5717
  945MOL0     C30283  11.192  10.704   3.048 -0.3784  0.1498 -0.1121
  945MOL0     C30284  11.127  10.840   3.044  0.4738 -0.0435  0.4467
  945MOL0     C30285  11.214  10.947   3.004  0.0802  0.1349  0.3917
  945MOL0     C30286  11.326  10.974   3.107  0.6516  0.1594 -0.3741
  945MOL0     C30287  11.425  11.075   3.043 -0.3509  0.0081  0.0392
  945MOL0     C30288  11.542  11.102   3.148  0.3873 -0.7657  0.2276
  945MOL0     N30289  11.660  11.154   3.067  0.7496 -0.3782  0.1067
  945MOL0     C30290  11.791  11.106   3.069  0.2243 -0.0871  0.0209
  945MOL0     C30291  11.872  11.192   2.999  0.8751 -0.5186 -0.3385
  945MOL0     C30292  12.013  11.184   2.970 -0.7414  0.0982 -0.3653
  945MOL0     C30293  12.065  11.186   2.818  0.2933 -0.5560 -0.3219
  945MOL0     C30294  11.993  11.098   2.719 -0.5915 -0.9486 -0.5566
  945MOL0     C30295  12.025  10.952   2.751 -0.6653  0.0509  0.1770
  945MOL0     O30296  11.939  10.857   2.667  0.4580  0.5141  0.0216
  945MOL0     C30297  11.996  10.800   2.560 -0.5741  0.5574 -0.5397
  945MOL0     C30298  11.923  10.695   2.506 -0.0442  0.0134  0.7473
  945MOL0     C30299  11.971  10.625   2.393 -0.4118  0.6074 -0.1434
  945MOL0     C30300  11.903  10.499   2.347 -0.4292 -0.0486 -0.7331
  945MOL0     C30301  12.088  10.672   2.326 -1.0220  0.7400  0.4577
  945MOL0     C30302  12.163  10.602   2.214  0.4719  0.4766  0.5396
  945MOL0     O30303  12.283  10.659   2.172 -0.1115 -0.1721  0.5622
  945MOL0     C30304  12.373  10.572   2.120  0.4618 -0.1798  0.0925
  945MOL0     C30305  12.414  10.463   2.189 -0.2261  0.8051 -0.4526
  945MOL0     C30306  12.515  10.366   2.147  0.7234 -0.4134 -1.1778
  945MOL0     C30307  12.576  10.392   2.026 -0.1344 -0.2930  0.7562
  945MOL0     O30308  12.671  10.307   1.967 -0.7266 -1.2648  0.6066
  945MOL0     C30309  12.707  10.183   2.025  0.4453  0.1666  0.3546
  945MOL0     C30310  12.834  10.128   1.955 -0.0610 -0.5240  0.5783
  945MOL0     C30311  12.795  10.087   1.802  0.2485 -0.3894 -0.0264
  945MOL0     C30312  12.911  10.029   1.717  0.2455  1.1857  0.9759
  945MOL0     C30313  12.854  10.018   1.580  0.8055  0.9356 -1.0687
  945MOL0     C30314  12.931   9.910   1.494 -0.1821 -0.3560  0.4435
  945MOL0     C30315  12.913   9.933   1.342 -0.4260 -0.3670 -0.2521
  945MOL0     C30316  12.963   9.823   1.251  0.2704  0.7286 -0.4310
  945MOL0    Cl30317  12.843   9.687   1.252 -0.0102 -0.0876 -0.7471
  945MOL0     C30318  12.533  10.508   1.949 -0.9427  0.5491  0.2535
  945MOL0     C30319  12.435  10.599   1.995  0.3778 -1.0696 -0.0965
  945MOL0     O30320  12.118  10.488   2.170 -1.1182 -0.1279 -0.0730
  945MOL0     C30321  12.162  10.775   2.393 -0.7266 -0.4374  0.3421
  945MOL0     C30322  12.117  10.844   2.499 -0.2279  0.4708  0.4691
  945MOL0     N30323  11.784  11.293   2.960 -0.2454 -0.0997 -0.9014
  945MOL0     N30324  11.658  11.275   3.005 -0.4414 -0.4582  0.8565
  945MOL0     C30325  10.891  10.281   3.148 -0.8136  0.3724  0.2065
  945MOL0     C30326  10.786  10.216   3.080 -0.3225 -0.3446  0.0343
  945MOL0     C30327  10.450  10.087   2.835 -0.5285 -0.5907 -0.3017
  945MOL0     C30328  10.465   9.976   2.756 -1.4808 -1.0282 -0.4815
  945MOL0     C30329  10.366   9.881   2.737 -0.0763 -0.9316  1.1363
  945MOL0     C30330  10.236   9.887   2.802  0.1522 -0.8981  0.0540
  945MOL0     O30331  10.132   9.808   2.787 -0.6682  0.4897  0.4079
  945MOL0     C30332  10.161   9.666   2.773  0.3755 -0.6307 -0.5495
  945MOL0     C30333  10.040   9.595   2.829  0.4562 -0.7432 -0.8774
  945MOL0     C30334   9.922   9.646   2.738 -0.2279  0.2438  0.0212
  945MOL0     C30335   9.796   9.594   2.806  0.4704  0.0146  0.2839
  945MOL0     C30336   9.675   9.642   2.748  0.0857 -0.0388 -0.2517
  945MOL0     C30337   9.567   9.703   2.739  0.2958  0.3532  0.3884
  945MOL0     C30338  10.215  10.000   2.880  0.0880  0.1245 -0.8160
  945MOL0     C30339  10.317  10.095   2.894 -0.6632 -0.1329 -0.7103
  945MOL0     C30340  10.271  10.208   2.984 -0.1443 -0.0435 -0.2473
  945MOL0     H30341  10.552  10.450   3.088 -0.5877 -0.7519 -1.9826
  945MOL0     H30342  10.748  10.581   3.208  1.0835  1.4779 -3.1483
  945MOL0     H30343  11.140  10.604   3.288 -1.2158  2.0022  0.8551
  945MOL0     H30344  10.995  10.680   3.243 -0.9768 -0.0274 -1.9291
  945MOL0     H30345  11.143  10.495   3.060  0.0436 -0.5374  0.2640
  945MOL0     H30346  11.013  10.583   3.000  0.6845  2.1376 -0.7372
  945MOL0     H30347  11.271  10.699   3.123 -1.4958 -1.5781  1.0498
  945MOL0     H30348  11.239  10.695   2.950 -0.1694  0.1273 -0.0102
  945MOL0     H30349  11.045  10.849   2.972  0.1553  0.4119  0.8583
  945MOL0     H30350  11.076  10.874   3.134 -3.6940 -1.3721 -1.2016
  945MOL0     H30351  11.153  11.036   2.990  0.5209  0.3861  0.0408
  945MOL0     H30352  11.276  10.924   2.916  1.2786 -1.1671  1.5249
  945MOL0     H30353  11.275  11.004   3.199  0.5756  0.6844 -0.5860
  945MOL0     H30354  11.379  10.884   3.141  2.4223  1.1497 -0.4216
  945MOL0     H30355  11.380  11.172   3.020  0.0212  0.4101  0.9472
  945MOL0     H30356  11.461  11.034   2.948 -0.9569  3.3962 -1.8029
  945MOL0     H30357  11.511  11.166   3.231  2.8437  0.0694  0.5848
  945MOL0     H30358  11.574  11.010   3.196  3.1945  2.2392  4.9736
  945MOL0     H30359  11.820  11.013   3.117 -1.5048 -0.0380  1.2415
  945MOL0     H30360  12.050  11.088   3.009 -2.0621 -0.5618 -0.6534
  945MOL0     H30361  12.066  11.263   3.023 -2.9044  2.1717 -1.1079
  945MOL0     H30362  12.046  11.291   2.793 -2.3796 -1.1902 -1.2720
  945MOL0     H30363  12.170  11.158   2.805  0.2576 -0.6908 -0.3168
  945MOL0     H30364  11.887  11.124   2.712 -0.2943  0.3494 -0.5216
  945MOL0     H30365  12.038  11.130   2.625  0.0161  4.3853  1.2347
  945MOL0     H30366  12.132  10.930   2.744 -1.0704 -1.7501 -1.4715
  945MOL0     H30367  12.005  10.939   2.857 -0.7307 -1.3846  0.0092
  945MOL0     H30368  11.823  10.667   2.538 -1.5930  0.4273 -3.0749
  945MOL0     H30369  11.945  10.420   2.410  0.2603  1.4471  0.7394
  945MOL0     H30370  11.903  10.487   2.238  0.0404 -0.8011 -0.6617
  945MOL0     H30371  11.798  10.500   2.378 -0.1946  0.2890  0.0681
  945MOL0     H30372  12.356  10.445   2.279 -1.3073 -3.5696 -1.7901
  945MOL0     H30373  12.539  10.280   2.208  3.5106  1.8758  1.2854
  945MOL0     H30374  12.715  10.183   2.134 -3.5018  0.2815  0.7862
  945MOL0     H30375  12.622  10.115   2.014  0.1590  0.3684  1.2410
  945MOL0     H30376  12.912  10.203   1.972 -0.8030  0.1395  1.1432
  945MOL0     H30377  12.857  10.040   2.016 -2.1609 -0.6086  1.3238
  945MOL0     H30378  12.747  10.173   1.754  0.2472  0.7863  1.9824
  945MOL0     H30379  12.717  10.015   1.828 -1.1459  1.1392  0.1963
  945MOL0     H30380  12.940   9.934   1.762  1.1948  2.0763  2.3489
  945MOL0     H30381  13.004  10.087   1.719  2.3093 -1.1754 -4.8843
  945MOL0     H30382  12.753   9.979   1.593 -0.1235  1.9739 -4.1500
  945MOL0     H30383  12.863  10.122   1.546  1.5513  2.9293  4.2616
  945MOL0     H30384  12.897   9.808   1.513 -1.3765 -0.7237 -2.8675
  945MOL0     H30385  13.034   9.917   1.530 -0.5427  0.4072  1.3642
  945MOL0     H30386  12.974  10.020   1.314  0.5664 -1.1838 -0.6802
  945MOL0     H30387  12.808   9.950   1.318 -0.0647 -0.0249 -1.6988
  945MOL0     H30388  13.058   9.774   1.274 -0.7272 -0.3741  1.6086
  945MOL0     H30389  12.977   9.846   1.145  1.1541 -0.6406 -0.6379
  945MOL0     H30390  12.578  10.536   1.854 -0.4959 -1.9766 -0.3449
  945MOL0     H30391  12.395  10.679   1.933  2.3131 -0.0541 -0.1271
  945MOL0     H30392  12.260  10.814   2.365 -0.1617 -1.6522  0.5653
  945MOL0     H30393  12.179  10.927   2.530 -1.3487  1.3186  0.4902
  945MOL0     H30394  10.982  10.225   3.166  0.4478  1.9400 -0.9774
  945MOL0     H30395  10.801  10.128   3.018  2.2410  1.2278 -1.7739
  945MOL0     H30396  10.558   9.958   2.702 -2.4126 -2.8104 -1.5734
  945MOL0     H30397  10.381   9.792   2.676  0.7478  1.0678 -1.7709
  945MOL0     H30398  10.176   9.649   2.666  1.4148  1.2884 -0.7456
  945MOL0     H30399  10.254   9.644   2.826  1.5069  3.8201 -0.2836
  945MOL0     H30400  10.024   9.630   2.931  1.2634  2.5094 -1.7721
  945MOL0     H30401  10.058   9.487   2.820 -1.6198 -1.1495 -0.6363
  945MOL0     H30402   9.917   9.755   2.727  0.1400  0.0818 -2.0767
  945MOL0     H30403   9.914   9.598   2.641 -3.5204 -0.2059  0.4322
  945MOL0     H30404   9.788   9.624   2.911 -0.8887 -1.1046  0.5299
  945MOL0     H30405   9.807   9.485   2.798  2.4641  0.1972  0.0248
  945MOL0     H30406   9.473   9.752   2.723  0.6840  1.3882  1.1204
  945MOL0     H30407  10.120  10.021   2.927  1.1096 -0.2639  1.5527
  945MOL0     H30408  10.164  10.227   2.984  0.2644  2.5455  0.3547
  945MOL0     H30409  10.312  10.208   3.086  1.5160  1.5629 -0.8611
  945MOL0     H30410  10.320  10.293   2.936 -0.1882  0.6417  0.8697
  946MOL0     O30411   7.790   9.036   4.476  0.3719  0.1666 -0.5809
  946MOL0     C30412   7.734   8.939   4.428  0.0277 -0.2150 -0.4778
  946MOL0     O30413   7.765   8.903   4.300 -0.0215  0.0397 -0.3308
  946MOL0     C30414   7.815   8.992   4.211  0.3944  0.1380  0.0167
  946MOL0     C30415   7.895   8.939   4.106  0.2871 -0.0064  0.1315
  946MOL0     C30416   7.933   9.022   4.001 -0.6891  0.1482  0.9675
  946MOL0     C30417   7.901   9.153   3.981  0.3751  0.9470 -1.2753
  946MOL0     O30418   7.936   9.209   3.861  1.0357 -0.6457 -0.0398
  946MOL0     C30419   7.840   9.216   3.761  0.3716  0.1055  0.7410
  946MOL0     C30420   7.893   9.225   3.612 -0.1054  0.4280  0.8527
  946MOL0     C30421   7.921   9.362   3.563 -0.2586  0.2878 -0.3544
  946MOL0     C30422   8.048   9.435   3.634  0.6198 -0.2817 -1.3464
  946MOL0     C30423   8.186   9.365   3.625  0.7666 -0.9453  0.5104
  946MOL0     C30424   8.242   9.342   3.487  0.9480  0.1703 -0.2859
  946MOL0     C30425   8.394   9.334   3.477 -0.0025 -0.6870 -0.0575
  946MOL0     C30426   8.444   9.205   3.545  0.8571 -0.6699 -0.4402
  946MOL0     N30427   8.594   9.222   3.558  0.0312  0.4193  0.6983
  946MOL0     C30428   8.681   9.222   3.459 -0.7146 -0.1378 -0.6006
  946MOL0     C30429   8.797   9.267   3.521 -1.1718  0.5325 -0.4129
  946MOL0     C30430   8.930   9.291   3.462 -0.7379 -0.2752  0.0007
  946MOL0     C30431   9.049   9.251   3.558  0.3684  0.0402  0.9556
  946MOL0     C30432   9.068   9.104   3.591 -0.0916  0.5176  0.6259
  946MOL0     C30433   9.196   9.062   3.665 -0.0342 -0.1484 -0.5248
  946MOL0     O30434   9.175   9.123   3.799  0.2770 -0.8772  0.5334
  946MOL0     C30435   9.284   9.144   3.884 -0.1873 -0.2764  0.2310
  946MOL0     C30436   9.411   9.075   3.869  0.8694 -0.2054  0.1966
  946MOL0     C30437   9.516   9.086   3.957  0.7187 -0.3794  0.3130
  946MOL0     C30438   9.640   9.003   3.928  0.1847 -0.8611  0.6712
  946MOL0     C30439   9.495   9.178   4.066 -0.2927 -1.1340 -0.3271
  946MOL0     C30440   9.587   9.208   4.169 -0.3878 -0.1400  1.2784
  946MOL0     O30441   9.570   9.332   4.243 -0.0595  1.1556 -0.2327
  946MOL0     C30442   9.654   9.380   4.333  0.1155  0.8773 -0.9306
  946MOL0     C30443   9.607   9.483   4.414  0.9667  0.8118 -0.8962
  946MOL0     C30444   9.690   9.542   4.516 -0.6319  0.1789  0.4279
  946MOL0     C30445   9.818   9.482   4.555  0.4177  0.1947  0.1589
  946MOL0     O30446   9.876   9.540   4.657 -0.4456  0.4753 -0.9219
  946MOL0     C30447   9.950   9.441   4.734  1.0887  0.0996 -0.5935
  946MOL0     C30448  10.017   9.503   4.855 -0.4313  0.3064 -0.8122
  946MOL0     C30449  10.091   9.399   4.944 -0.0632 -0.9460 -0.3292
  946MOL0     C30450  10.173   9.454   5.062  0.8697 -0.2911  0.0584
  946MOL0     C30451  10.314   9.379   5.084 -0.0888  0.6457  0.0375
  946MOL0     C30452  10.302   9.238   5.139  0.4268  0.8465  0.5417
  946MOL0     C30453  10.277   9.239   5.294  0.7155  0.3373 -0.4747
  946MOL0     C30454  10.285   9.100   5.365 -0.0042 -1.2190 -0.1186
  946MOL0    Cl30455  10.466   9.054   5.371 -0.0403 -0.0570 -0.0483
  946MOL0     C30456   9.861   9.378   4.471  0.1916  0.0178  0.6114
  946MOL0     C30457   9.783   9.335   4.360 -1.0035  0.2457 -1.4793
  946MOL0     O30458   9.678   9.129   4.184  0.3935 -0.0372 -0.1835
  946MOL0     C30459   9.376   9.260   4.064  0.8211  0.0783 -0.8643
  946MOL0     C30460   9.269   9.235   3.981  0.0744 -1.2950 -0.0523
  946MOL0     N30461   8.776   9.267   3.655 -0.2720  0.2558  0.6630
  946MOL0     N30462   8.653   9.253   3.681  0.3931  0.3248  0.3261
  946MOL0     C30463   7.818   9.205   4.083  0.0003  0.3039  1.0066
  946MOL0     C30464   7.781   9.125   4.201 -0.3255 -0.2122 -0.0324
  946MOL0     C30465   7.646   8.853   4.510 -0.2737  0.0612  0.1836
  946MOL0     C30466   7.583   8.746   4.444 -0.6577  0.3892  0.3597
  946MOL0     C30467   7.491   8.663   4.506 -0.7714  0.4302  0.3885
  946MOL0     C30468   7.465   8.677   4.638  0.4299 -1.1444  0.6013
  946MOL0     O30469   7.388   8.571   4.695 -0.2167 -0.5699 -0.9383
  946MOL0     C30470   7.314   8.592   4.825  0.3980 -0.5728 -0.2757
  946MOL0     C30471   7.188   8.677   4.815 -0.2447 -0.0009 -0.3393
  946MOL0     C30472   7.073   8.631   4.731 -0.3935  0.0305 -0.2608
  946MOL0     C30473   7.045   8.480   4.749 -0.2236 -0.4686  0.7071
  946MOL0     C30474   6.906   8.455   4.693 -0.9003  0.8837  0.0947
  946MOL0     C30475   6.796   8.447   4.644  1.0333  0.7736 -0.0923
  946MOL0     C30476   7.527   8.787   4.709 -0.2444  0.1069  0.2665
  946MOL0     C30477   7.624   8.869   4.651 -0.0431 -0.7498 -0.1177
  946MOL0     C30478   7.703   8.956   4.744  0.1942 -0.4325  0.3781
  946MOL0     H30479   7.932   8.837   4.100 -0.6543 -0.3032 -1.0230
  946MOL0     H30480   7.993   8.978   3.921 -0.9912  0.3125  0.6461
  946MOL0     H30481   7.783   9.309   3.771  1.8069  0.9784  1.2276
  946MOL0     H30482   7.781   9.125   3.770 -0.0272  0.2994  0.1473
  946MOL0     H30483   7.980   9.158   3.615 -0.2679  0.1821  0.2102
  946MOL0     H30484   7.816   9.187   3.545  1.0788  0.8570 -0.8302
  946MOL0     H30485   7.938   9.354   3.455  2.2554  1.5874 -0.1229
  946MOL0     H30486   7.837   9.430   3.580  0.3544  0.6271  1.5986
  946MOL0     H30487   8.051   9.536   3.592 -0.0005  0.3742  0.1210
  946MOL0     H30488   8.026   9.453   3.740  2.1390  0.8282 -1.1805
  946MOL0     H30489   8.191   9.269   3.677 -1.4329 -0.9150  0.9112
  946MOL0     H30490   8.251   9.432   3.681  1.2535 -0.4379 -0.6276
  946MOL0     H30491   8.187   9.255   3.448 -1.7144 -0.5758  4.4341
  946MOL0     H30492   8.209   9.428   3.429  1.6562 -0.6961 -2.0494
  946MOL0     H30493   8.440   9.417   3.533  1.0825 -1.6982  0.6140
  946MOL0     H30494   8.426   9.343   3.373  0.5299 -0.9741  0.0761
  946MOL0     H30495   8.398   9.187   3.643 -0.7406  1.5661 -0.7004
  946MOL0     H30496   8.409   9.123   3.482 -1.2534  0.7278 -1.1689
  946MOL0     H30497   8.661   9.204   3.354  0.5813 -2.0898 -0.5642
  946MOL0     H30498   8.930   9.394   3.427 -2.1974  0.0061  0.7354
  946MOL0     H30499   8.940   9.225   3.375  0.7279 -0.8476  0.5825
  946MOL0     H30500   9.145   9.293   3.527  2.1061 -3.4742  1.1159
  946MOL0     H30501   9.037   9.302   3.654  1.6859  0.9975  0.6338
  946MOL0     H30502   8.984   9.059   3.644 -1.1023 -1.2378 -2.2543
  946MOL0     H30503   9.078   9.049   3.498  2.8984  0.1348  1.0635
  946MOL0     H30504   9.206   8.954   3.651 -2.1211 -0.1795 -2.3312
  946MOL0     H30505   9.274   9.125   3.620 -0.1056  0.3757  0.0740
  946MOL0     H30506   9.431   8.998   3.794  2.0834  0.0861  0.2000
  946MOL0     H30507   9.633   8.941   3.838 -2.5543  2.1160 -1.4278
  946MOL0     H30508   9.653   8.951   4.023 -3.3782 -2.8297  0.2759
  946MOL0     H30509   9.724   9.071   3.911 -1.1107  0.5481 -0.5197
  946MOL0     H30510   9.503   9.511   4.399  0.4777 -2.1298 -4.4581
  946MOL0     H30511   9.649   9.620   4.580 -1.6650 -0.2095  0.2567
  946MOL0     H30512   9.892   9.350   4.747  0.7974  0.3344 -0.2443
  946MOL0     H30513  10.030   9.406   4.667 -0.1729 -3.7347 -0.3136
  946MOL0     H30514  10.080   9.585   4.819 -1.5079  0.7511 -1.7282
  946MOL0     H30515   9.941   9.541   4.924  1.4457  0.3856  1.3266
  946MOL0     H30516  10.170   9.357   4.880 -1.3748 -2.1553 -1.2274
  946MOL0     H30517  10.025   9.320   4.981  0.4810 -1.3439 -0.1881
  946MOL0     H30518  10.111   9.448   5.152 -0.2357  1.1724 -0.5795
  946MOL0     H30519  10.203   9.557   5.041 -0.3887 -0.1992 -1.4953
  946MOL0     H30520  10.373   9.361   4.993  1.2214 -6.0112  1.6605
  946MOL0     H30521  10.380   9.441   5.145  1.9862  0.5981 -2.0480
  946MOL0     H30522  10.403   9.202   5.113  0.9833  3.0560 -0.5907
  946MOL0     H30523  10.228   9.178   5.085  1.7165 -2.5399  2.1863
  946MOL0     H30524  10.187   9.298   5.312  2.6258  3.6186 -0.8762
  946MOL0     H30525  10.361   9.292   5.341  0.0893 -0.9643  2.3225
  946MOL0     H30526  10.212   9.030   5.323 -3.3698  1.8737  0.0615
  946MOL0     H30527  10.252   9.116   5.468  1.5247  0.6140  0.1443
  946MOL0     H30528   9.954   9.326   4.492  1.9897  3.1848  1.1046
  946MOL0     H30529   9.831   9.250   4.314 -1.0023  0.3539 -1.6804
  946MOL0     H30530   9.353   9.343   4.131  0.8969  0.6009 -1.4726
  946MOL0     H30531   9.185   9.304   3.986  1.0314 -0.1328  0.5873
  946MOL0     H30532   7.803   9.312   4.077 -3.7092 -0.1815 -3.3504
  946MOL0     H30533   7.725   9.181   4.274  0.5525 -0.8352  1.1579
  946MOL0     H30534   7.597   8.728   4.338  2.5100 -4.1648  1.2317
  946MOL0     H30535   7.432   8.596   4.444  1.9402 -2.0912  0.3118
  946MOL0     H30536   7.288   8.502   4.882  0.3936  0.0940  0.7992
  946MOL0     H30537   7.381   8.646   4.893 -0.9462  0.3327  0.3977
  946MOL0     H30538   7.227   8.770   4.771  2.1872  0.3827  2.3144
  946MOL0     H30539   7.150   8.691   4.917  0.2787 -2.3045  0.2250
  946MOL0     H30540   6.987   8.693   4.761  0.1823  1.3545 -1.2221
  946MOL0     H30541   7.097   8.643   4.625  2.7362  3.0734  0.5841
  946MOL0     H30542   7.038   8.453   4.854 -1.3418  0.7770  0.9769
  946MOL0     H30543   7.121   8.409   4.713 -1.0760 -2.3685  2.4722
  946MOL0     H30544   6.693   8.434   4.620  1.4872 -3.7507 -0.5100
  946MOL0     H30545   7.497   8.787   4.813  0.2619  0.2433  0.4178
  946MOL0     H30546   7.668   8.950   4.847 -0.0112 -0.9696  0.2801
  946MOL0     H30547   7.811   8.941   4.752  0.1180 -0.2624  2.1792
  946MOL0     H30548   7.687   9.059   4.708  2.5033 -0.2064 -0.2075
  947MOL0     O30549   9.264   2.625   8.216 -1.1020  0.9186 -0.2362
  947MOL0     C30550   9.213   2.731   8.186  1.2408  0.0662 -0.0534
  947MOL0     O30551   9.109   2.779   8.243  0.3060  0.1249 -0.0931
  947MOL0     C30552   9.028   2.690   8.314 -0.5116  0.7563 -0.0135
  947MOL0     C30553   9.024   2.699   8.445  0.5051 -0.2589 -0.4284
  947MOL0     C30554   8.950   2.614   8.531  0.0747 -0.0650  0.0021
  947MOL0     C30555   8.852   2.529   8.473 -0.4604  1.0537  0.6646
  947MOL0     O30556   8.760   2.441   8.535  0.0871 -0.4876 -0.0148
  947MOL0     C30557   8.757   2.440   8.673  0.6480 -0.3305 -0.6185
  947MOL0     C30558   8.822   2.321   8.754  0.5701 -0.1150  0.1459
  947MOL0     C30559   8.773   2.333   8.902 -0.2745  0.2901 -0.0846
  947MOL0     C30560   8.872   2.265   9.003 -0.3429 -0.4665  0.1522
  947MOL0     C30561   8.891   2.112   8.966  0.8613  0.8289  0.0099
  947MOL0     C30562   8.984   2.034   9.057 -0.9864 -0.0200  0.1554
  947MOL0     C30563   8.985   1.890   9.032  0.4150 -0.1774  0.0637
  947MOL0     C30564   9.021   1.833   8.898  0.0042 -0.2272 -1.0894
  947MOL0     N30565   9.023   1.683   8.883  0.2643  0.0371  0.4650
  947MOL0     C30566   9.034   1.600   8.983  0.8267 -0.2386 -0.1975
  947MOL0     C30567   9.021   1.473   8.921 -0.5312  0.1114 -0.2011
  947MOL0     C30568   9.034   1.329   8.978  0.7552  0.0583  0.1023
  947MOL0     C30569   9.034   1.305   9.132  0.3010  0.3072 -0.5583
  947MOL0     C30570   9.170   1.330   9.199 -0.1593 -0.6491  0.1980
  947MOL0     C30571   9.279   1.214   9.173 -0.0179 -0.4885 -0.1627
  947MOL0     O30572   9.412   1.257   9.211  0.3980 -0.0712  0.0121
  947MOL0     C30573   9.514   1.236   9.118  0.2502 -0.2065  0.0779
  947MOL0     C30574   9.588   1.121   9.111 -0.7611  0.4199  0.1091
  947MOL0     C30575   9.688   1.105   9.011  1.3435  0.4030 -0.0208
  947MOL0     C30576   9.743   0.968   8.987 -0.6907 -0.1059 -0.9071
  947MOL0     C30577   9.718   1.219   8.923  0.8758  0.4514 -0.1503
  947MOL0     C30578   9.830   1.214   8.828  0.1094 -0.0138  0.5148
  947MOL0     O30579   9.882   1.329   8.799  0.2279 -0.3992  0.1204
  947MOL0     C30580   9.998   1.336   8.720 -0.5252  0.1998  0.2890
  947MOL0     C30581  10.122   1.298   8.775  0.3845  0.0637  0.4053
  947MOL0     C30582  10.242   1.283   8.710  0.3836  0.8312  0.5573
  947MOL0     C30583  10.243   1.308   8.568 -0.4184  0.3836 -0.9702
  947MOL0     O30584  10.363   1.302   8.503 -0.0207  0.0461 -0.1677
  947MOL0     C30585  10.427   1.181   8.490 -0.4127  0.4141  0.1481
  947MOL0     C30586  10.442   1.139   8.347  0.4178  0.4167  0.5566
  947MOL0     C30587  10.327   1.190   8.250  0.9984 -0.6023  0.0378
  947MOL0     C30588  10.301   1.125   8.109 -0.5603  0.4293  1.0696
  947MOL0     C30589  10.186   1.206   8.038  0.0558  0.5036  0.6290
  947MOL0     C30590  10.158   1.163   7.895  0.2888  0.3966  0.1740
  947MOL0     C30591  10.059   1.263   7.827  0.1418  0.2414  0.8075
  947MOL0     C30592  10.032   1.242   7.679 -1.3247 -0.0789  0.3438
  947MOL0    Cl30593   9.944   1.087   7.643  0.2663 -0.5349  0.3248
  947MOL0     C30594  10.121   1.350   8.506 -0.7701  0.5087 -0.5090
  947MOL0     C30595  10.003   1.357   8.586  0.5507 -0.2112  0.2301
  947MOL0     O30596   9.857   1.110   8.766  0.2623 -0.3590  0.6961
  947MOL0     C30597   9.645   1.336   8.939 -0.5086  1.1149 -0.3819
  947MOL0     C30598   9.544   1.343   9.031  0.1560 -0.1538  0.2748
  947MOL0     N30599   9.006   1.503   8.781 -0.0302 -0.8488 -0.1264
  947MOL0     N30600   9.004   1.627   8.756 -0.5382 -0.0276 -0.4601
  947MOL0     C30601   8.851   2.529   8.327 -0.7671 -0.4523 -0.3310
  947MOL0     C30602   8.940   2.602   8.253 -0.8047  0.6213  0.3544
  947MOL0     C30603   9.282   2.818   8.089 -0.3621 -0.5120  0.6006
  947MOL0     C30604   9.416   2.833   8.091 -0.1083  0.4227  0.6768
  947MOL0     C30605   9.488   2.930   8.015 -0.4044  0.4765  0.1595
  947MOL0     C30606   9.418   3.023   7.935 -0.2015  0.6688 -0.8623
  947MOL0     O30607   9.467   3.106   7.848  0.2112  0.2102  0.3237
  947MOL0     C30608   9.493   3.051   7.723  0.2601  0.2428  0.2816
  947MOL0     C30609   9.582   3.141   7.629 -0.1139  0.4874  0.1459
  947MOL0     C30610   9.522   3.262   7.576  1.0928 -0.4228 -0.4222
  947MOL0     C30611   9.625   3.346   7.497  0.7847  0.0502 -0.2517
  947MOL0     C30612   9.574   3.431   7.391  0.6750 -0.8152  0.1037
  947MOL0     C30613   9.533   3.503   7.299 -0.1427  0.5168 -0.1918
  947MOL0     C30614   9.281   3.016   7.934  0.5320 -0.7302  0.1716
  947MOL0     C30615   9.211   2.915   8.007  0.5147  0.2420  0.3466
  947MOL0     C30616   9.061   2.909   7.990  0.4240  0.3580  0.2955
  947MOL0     H30617   9.085   2.774   8.495  0.4083 -0.2130 -0.3776
  947MOL0     H30618   8.976   2.621   8.636 -2.5109 -0.9396  0.7527
  947MOL0     H30619   8.653   2.463   8.702  1.7075  4.4358  0.3197
  947MOL0     H30620   8.798   2.534   8.711 -3.3657  1.3795  0.0617
  947MOL0     H30621   8.792   2.222   8.717  1.1296 -0.9842  1.9060
  947MOL0     H30622   8.931   2.323   8.755  0.6317 -1.0840 -1.2585
  947MOL0     H30623   8.776   2.438   8.932  1.0837  1.0295 -2.5831
  947MOL0     H30624   8.675   2.290   8.926  1.5731 -2.9019  2.6046
  947MOL0     H30625   8.971   2.312   8.994 -0.3941 -0.7518 -2.8617
  947MOL0     H30626   8.837   2.276   9.106 -1.7641 -2.5799 -0.0562
  947MOL0     H30627   8.917   2.106   8.860  0.5005 -1.4769  0.0036
  947MOL0     H30628   8.803   2.048   8.958  2.7639 -2.0467  0.6636
  947MOL0     H30629   9.086   2.069   9.037 -1.2349  0.4993 -0.2444
  947MOL0     H30630   8.968   2.039   9.165 -4.1586 -1.1882 -0.1408
  947MOL0     H30631   8.882   1.863   9.053 -0.3001 -2.1292 -4.7708
  947MOL0     H30632   9.042   1.845   9.114  1.0391 -0.9980 -0.7896
  947MOL0     H30633   8.947   1.873   8.828 -0.2078  2.2759  0.4441
  947MOL0     H30634   9.123   1.870   8.888  0.3467 -0.2962  1.4397
  947MOL0     H30635   9.051   1.636   9.084  0.1343  2.7777 -1.0674
  947MOL0     H30636   9.115   1.278   8.924 -0.4024 -0.5112 -1.1594
  947MOL0     H30637   8.946   1.281   8.934  1.0667  2.0925 -2.9933
  947MOL0     H30638   8.956   1.373   9.167  0.5053 -0.4502  1.5774
  947MOL0     H30639   8.991   1.207   9.153 -1.3750  0.8665 -1.2517
  947MOL0     H30640   9.203   1.424   9.155  0.1359 -0.4916  0.7490
  947MOL0     H30641   9.153   1.345   9.306 -1.3836 -1.5253  0.1463
  947MOL0     H30642   9.261   1.119   9.223 -0.0772 -0.8285 -0.8173
  947MOL0     H30643   9.272   1.197   9.065  0.7792  0.8104 -0.4569
  947MOL0     H30644   9.567   1.039   9.180  2.7226 -1.8077 -1.1852
  947MOL0     H30645   9.686   0.916   8.909  0.6417 -0.8005 -1.4637
  947MOL0     H30646   9.737   0.913   9.081  2.3457  1.8314  0.6000
  947MOL0     H30647   9.846   0.962   8.950 -0.8825 -0.2246 -1.4323
  947MOL0     H30648  10.125   1.293   8.883  1.0137 -0.0508  0.3884
  947MOL0     H30649  10.331   1.277   8.771 -0.3300  0.8767  1.6368
  947MOL0     H30650  10.527   1.198   8.532 -0.7590 -2.1102  2.2678
  947MOL0     H30651  10.394   1.097   8.552  1.7633 -1.3407 -0.9342
  947MOL0     H30652  10.538   1.170   8.306 -1.0147  2.0971 -1.7509
  947MOL0     H30653  10.437   1.031   8.332  0.0605  0.7451 -2.2326
  947MOL0     H30654  10.335   1.298   8.235 -0.5929 -0.3066  1.0263
  947MOL0     H30655  10.237   1.172   8.310  1.4513 -1.0671  0.5852
  947MOL0     H30656  10.275   1.019   8.116  1.5003 -0.2778 -0.9885
  947MOL0     H30657  10.395   1.126   8.054 -0.4868 -0.5008  1.1698
  947MOL0     H30658  10.093   1.187   8.092 -0.3368 -0.9700 -0.5032
  947MOL0     H30659  10.205   1.314   8.039 -0.4394  0.6250 -0.8901
  947MOL0     H30660  10.124   1.060   7.911 -2.9271  1.1652 -1.0238
  947MOL0     H30661  10.252   1.170   7.839 -1.2624 -0.0949 -2.6452
  947MOL0     H30662  10.093   1.366   7.834 -0.4118  0.3991  6.3043
  947MOL0     H30663   9.964   1.274   7.881  0.1985  1.1936  0.7200
  947MOL0     H30664  10.135   1.238   7.641  0.1366  1.5012  3.8028
  947MOL0     H30665   9.977   1.326   7.635 -0.4395  1.9698  2.9313
  947MOL0     H30666  10.119   1.376   8.401  3.3861  1.6188 -0.4602
  947MOL0     H30667   9.907   1.377   8.538  0.3419 -1.5804  0.0428
  947MOL0     H30668   9.668   1.428   8.887 -3.2883  2.0277 -0.1338
  947MOL0     H30669   9.489   1.434   9.051 -1.1840 -0.9567  0.4146
  947MOL0     H30670   8.778   2.475   8.267 -2.4459  3.2099 -1.9389
  947MOL0     H30671   8.905   2.620   8.152 -2.7804  2.2615  1.2564
  947MOL0     H30672   9.477   2.773   8.158 -2.0181  1.8602  3.9277
  947MOL0     H30673   9.596   2.924   8.004 -0.3744 -1.3247  1.0971
  947MOL0     H30674   9.548   2.957   7.736 -0.0430 -0.1491 -1.1883
  947MOL0     H30675   9.394   3.031   7.683 -0.6321  2.9467  0.9287
  947MOL0     H30676   9.610   3.071   7.551 -0.5208 -0.6704  1.0045
  947MOL0     H30677   9.682   3.155   7.671 -0.1404  0.3497  0.2570
  947MOL0     H30678   9.445   3.228   7.506 -0.2056 -0.5897  1.0598
  947MOL0     H30679   9.472   3.324   7.651 -0.3611 -2.2023  0.1281
  947MOL0     H30680   9.690   3.274   7.447 -1.2050 -1.4477 -0.7936
  947MOL0     H30681   9.689   3.407   7.562 -1.7181  3.2403 -0.5537
  947MOL0     H30682   9.507   3.566   7.217  0.4120  3.3152  1.6139
  947MOL0     H30683   9.219   3.094   7.891  0.4817  0.1582  1.7823
  947MOL0     H30684   9.002   2.843   8.054  3.3531 -2.1783  0.5710
  947MOL0     H30685   9.023   3.010   8.011  0.1581 -0.0683  2.0056
  947MOL0     H30686   9.044   2.876   7.887  1.2522  2.2272 -0.4940
  948MOL0     O30687   4.529   4.695  10.980 -0.8436  0.2550  0.5855
  948MOL0     C30688   4.460   4.683  10.877 -0.2813  0.0134 -0.4515
  948MOL0     O30689   4.429   4.560  10.824 -0.2183 -0.5407 -1.1713
  948MOL0     C30690   4.459   4.451  10.890  0.1156  1.4403 -0.3180
  948MOL0     C30691   4.356   4.346  10.894  0.2105 -0.1800  0.4088
  948MOL0     C30692   4.383   4.218  10.930  0.7118 -0.4592 -0.5857
  948MOL0     C30693   4.515   4.176  10.977 -0.0554  0.9430  0.9956
  948MOL0     O30694   4.523   4.044  11.018  0.0261 -0.1586 -0.2415
  948MOL0     C30695   4.648   3.983  11.005  0.1196  0.7365 -0.6701
  948MOL0     C30696   4.651   3.891  10.868  0.2383 -0.5502 -0.5317
  948MOL0     C30697   4.763   3.786  10.851  0.5727 -0.2505  1.1734
  948MOL0     C30698   4.779   3.710  10.971  0.5735 -0.1151 -1.2680
  948MOL0     C30699   4.895   3.606  10.949 -0.3296  0.4949  0.6320
  948MOL0     C30700   4.945   3.539  11.082 -0.8268  0.9214 -0.4587
  948MOL0     C30701   4.986   3.646  11.181  0.2962 -0.5805  0.4180
  948MOL0     C30702   5.104   3.614  11.262 -0.7463  1.0763 -0.6432
  948MOL0     N30703   5.057   3.533  11.381  0.5419  0.5474  0.2944
  948MOL0     C30704   5.045   3.549  11.518 -0.8785  0.3373  0.0376
  948MOL0     C30705   5.045   3.425  11.577 -0.1689  1.0108 -0.5959
  948MOL0     C30706   5.054   3.411  11.733 -0.0279 -0.0220 -1.0106
  948MOL0     C30707   4.923   3.383  11.808 -0.7875 -0.3369  1.0195
  948MOL0     C30708   4.851   3.512  11.844  0.0906 -0.7975  0.0729
  948MOL0     C30709   4.737   3.496  11.946 -0.7445 -0.7820 -0.1549
  948MOL0     O30710   4.703   3.629  12.005 -0.5606  0.0040 -0.6177
  948MOL0     C30711   4.620   3.641  12.122 -0.5989  0.4736 -0.2801
  948MOL0     C30712   4.617   3.764  12.180 -0.5302 -0.5261 -1.0159
  948MOL0     C30713   4.549   3.784  12.304 -0.1643 -0.3538 -0.6005
  948MOL0     C30714   4.540   3.919  12.384 -0.1837  0.6483 -0.3339
  948MOL0     C30715   4.489   3.671  12.364 -0.5637  1.2126  0.3331
  948MOL0     C30716   4.435   3.666  12.503 -0.5588 -0.5825 -0.0733
  948MOL0     O30717   4.493   3.575  12.593  0.1907 -0.4994 -0.8225
  948MOL0     C30718   4.410   3.541  12.699  0.5427 -0.9097 -0.8789
  948MOL0     C30719   4.437   3.573  12.832 -0.0419  0.6995 -0.0024
  948MOL0     C30720   4.352   3.532  12.934  1.1597  0.0070  0.4492
  948MOL0     C30721   4.238   3.447  12.913 -0.7391 -0.1328  0.0749
  948MOL0     O30722   4.152   3.389  13.004  0.1797  0.1521  0.1856
  948MOL0     C30723   4.177   3.401  13.146  0.2954 -0.1039  0.6598
  948MOL0     C30724   4.051   3.342  13.209  0.3298 -0.0282 -0.5233
  948MOL0     C30725   4.054   3.343  13.365  0.7879 -0.4172  0.5624
  948MOL0     C30726   4.051   3.488  13.426 -0.0074  0.1150 -0.6868
  948MOL0     C30727   3.926   3.519  13.513  0.2770  0.5821  0.5860
  948MOL0     C30728   3.903   3.424  13.638 -0.6951 -0.0571 -0.1199
  948MOL0     C30729   3.775   3.432  13.701 -0.4413 -0.1849 -0.2915
  948MOL0     C30730   3.714   3.565  13.737  0.2752 -0.3082 -0.5618
  948MOL0    Cl30731   3.830   3.644  13.848 -0.5510  0.0591 -0.1940
  948MOL0     C30732   4.215   3.420  12.773  0.7780  0.5428  0.5571
  948MOL0     C30733   4.307   3.455  12.674  0.4414  0.0503 -0.0455
  948MOL0     O30734   4.328   3.720  12.523  0.0277 -0.1413 -0.1894
  948MOL0     C30735   4.502   3.544  12.302 -0.0335  0.2312  0.5714
  948MOL0     C30736   4.558   3.534  12.175 -0.2043 -0.4760  0.0217
  948MOL0     N30737   5.022   3.334  11.476  0.3760 -0.7614 -0.6244
  948MOL0     N30738   5.038   3.397  11.365 -0.3001 -0.2367  0.5120
  948MOL0     C30739   4.617   4.274  10.994 -1.1837 -0.4973  0.0966
  948MOL0     C30740   4.591   4.409  10.951 -0.4291  0.2168 -0.1753
  948MOL0     C30741   4.436   4.806  10.797  0.4414 -0.7791 -0.0327
  948MOL0     C30742   4.451   4.938  10.845 -0.9565  0.0742  0.5665
  948MOL0     C30743   4.422   5.056  10.772  0.3619 -0.4836 -0.0660
  948MOL0     C30744   4.369   5.036  10.640 -0.0010 -0.5648 -0.1498
  948MOL0     O30745   4.329   5.142  10.553  0.4551  0.2285  0.4469
  948MOL0     C30746   4.391   5.275  10.582  0.1564  0.6946 -0.2309
  948MOL0     C30747   4.379   5.367  10.464  0.5340 -0.1022  0.2361
  948MOL0     C30748   4.443   5.296  10.340 -0.0250  0.5722  0.5208
  948MOL0     C30749   4.390   5.359  10.201  0.7960 -1.0533 -0.0273
  948MOL0     C30750   4.373   5.504  10.215  0.3784  0.5336  0.3709
  948MOL0     C30751   4.377   5.623  10.208  0.0111 -1.4862  0.0614
  948MOL0     C30752   4.363   4.906  10.588  0.7530  0.4306 -0.0069
  948MOL0     C30753   4.382   4.794  10.665 -0.7554  0.6162  0.2584
  948MOL0     C30754   4.351   4.666  10.591  0.0046 -0.1701 -0.4610
  948MOL0     H30755   4.254   4.368  10.863  0.3068  0.4072  0.4909
  948MOL0     H30756   4.321   4.129  10.928 -0.4621  0.0983  3.0486
  948MOL0     H30757   4.655   3.924  11.096 -0.3488 -1.0280 -1.7320
  948MOL0     H30758   4.737   4.047  11.006  0.4605  0.3420  2.0731
  948MOL0     H30759   4.549   3.850  10.867  0.5789 -1.4272 -2.3838
  948MOL0     H30760   4.650   3.960  10.783 -1.9214  0.2203  0.0384
  948MOL0     H30761   4.746   3.727  10.760  0.4499  2.6796 -0.8338
  948MOL0     H30762   4.857   3.839  10.832  0.8166 -1.1811 -0.4761
  948MOL0     H30763   4.811   3.780  11.050  1.2972 -1.4679 -0.3301
  948MOL0     H30764   4.687   3.662  11.005 -0.9449  2.5722 -1.2208
  948MOL0     H30765   4.978   3.648  10.892  0.4364  2.8211  3.2306
  948MOL0     H30766   4.838   3.532  10.892 -0.9370  3.6825 -3.3307
  948MOL0     H30767   4.870   3.493  11.147  1.2391 -0.6361  0.9434
  948MOL0     H30768   5.033   3.476  11.071  1.1824  3.4248  0.3794
  948MOL0     H30769   4.896   3.670  11.239 -1.0959  0.1557 -1.8939
  948MOL0     H30770   5.013   3.738  11.128 -0.7208  0.2827  1.3334
  948MOL0     H30771   5.179   3.568  11.196 -0.0920  1.2268 -0.0209
  948MOL0     H30772   5.145   3.712  11.288 -3.4057  1.7057  1.6231
  948MOL0     H30773   5.040   3.647  11.564 -0.0338  0.3917  0.0199
  948MOL0     H30774   5.105   3.494  11.782 -0.0156 -2.5291  3.7554
  948MOL0     H30775   5.117   3.324  11.755 -2.4203 -1.8025 -0.7970
  948MOL0     H30776   4.851   3.325  11.749  0.8099 -0.9554 -0.4080
  948MOL0     H30777   4.950   3.334  11.902  2.5400  0.1508  0.4245
  948MOL0     H30778   4.924   3.589  11.870 -0.9743 -0.4802  2.3619
  948MOL0     H30779   4.804   3.536  11.748  1.1991 -2.9450 -1.0888
  948MOL0     H30780   4.652   3.448  11.896 -3.1074  2.9557 -0.0756
  948MOL0     H30781   4.765   3.423  12.023  3.4078  1.1886  0.4678
  948MOL0     H30782   4.665   3.854  12.144 -0.4177 -1.4257 -3.3509
  948MOL0     H30783   4.435   3.949  12.386  0.3530  2.7824 -1.1948
  948MOL0     H30784   4.604   3.997  12.341  0.3077  1.4255  1.7019
  948MOL0     H30785   4.574   3.898  12.486  0.4992  2.8434 -0.0733
  948MOL0     H30786   4.510   3.643  12.870 -0.1935  1.2685 -0.7248
  948MOL0     H30787   4.389   3.561  13.032  1.0616  1.6529  0.0345
  948MOL0     H30788   4.267   3.342  13.166  1.2850  1.5560  1.2531
  948MOL0     H30789   4.190   3.508  13.164  0.6905  0.3231 -1.8331
  948MOL0     H30790   3.961   3.387  13.168 -0.6994 -1.6480 -0.1210
  948MOL0     H30791   4.045   3.235  13.188 -0.6163 -0.2622  0.8214
  948MOL0     H30792   4.138   3.287  13.408 -1.6996 -2.1087  3.6914
  948MOL0     H30793   3.965   3.290  13.400 -1.9264  1.1726 -3.1803
  948MOL0     H30794   4.033   3.563  13.348 -0.9671  2.5261  1.7061
  948MOL0     H30795   4.141   3.502  13.486  0.1009 -1.1667 -0.5200
  948MOL0     H30796   3.930   3.624  13.545 -0.4975  0.0295  2.6374
  948MOL0     H30797   3.833   3.535  13.457  1.3386  3.0553 -0.6236
  948MOL0     H30798   3.978   3.443  13.717 -1.7730  0.3394  0.8321
  948MOL0     H30799   3.922   3.318  13.618  5.5332 -0.3441  4.2666
  948MOL0     H30800   3.780   3.378  13.796  0.5350 -1.2166 -0.9123
  948MOL0     H30801   3.711   3.382  13.627 -2.8285  2.1706  0.0368
  948MOL0     H30802   3.626   3.541  13.797  1.6080 -0.5875  1.3849
  948MOL0     H30803   3.677   3.630  13.657 -1.7949  2.6449  2.5136
  948MOL0     H30804   4.128   3.357  12.753  2.2376 -1.0007 -1.2816
  948MOL0     H30805   4.275   3.428  12.573  0.3398  2.3746 -0.6963
  948MOL0     H30806   4.436   3.464  12.333 -1.0779  1.5260  1.8508
  948MOL0     H30807   4.554   3.442  12.117  1.2415 -1.4843  1.4321
  948MOL0     H30808   4.716   4.260  11.036 -0.9928 -0.0867 -0.2132
  948MOL0     H30809   4.664   4.489  10.959 -0.6221  0.4861 -1.0001
  948MOL0     H30810   4.488   4.948  10.947 -2.1301 -0.4736  1.0666
  948MOL0     H30811   4.426   5.161  10.801  0.9597  0.7510 -3.9845
  948MOL0     H30812   4.338   5.317  10.668 -0.2018  0.7300 -0.4688
  948MOL0     H30813   4.493   5.256  10.618 -0.6372 -0.9138  1.2623
  948MOL0     H30814   4.433   5.457  10.494  0.0399  0.0500  0.6787
  948MOL0     H30815   4.276   5.391  10.437  0.6465 -1.3335 -1.4615
  948MOL0     H30816   4.550   5.316  10.343  0.4751 -1.6867 -0.6389
  948MOL0     H30817   4.445   5.187  10.330  2.5409  0.7947 -3.1981
  948MOL0     H30818   4.292   5.320  10.173 -1.6121  1.2601  4.1524
  948MOL0     H30819   4.458   5.336  10.119 -0.7607  0.8977 -1.9481
  948MOL0     H30820   4.382   5.730  10.206  0.7353 -1.4345  1.9794
  948MOL0     H30821   4.324   4.903  10.487 -0.5762  3.0217  0.3542
  948MOL0     H30822   4.441   4.605  10.573 -1.3784 -2.8920  1.1811
  948MOL0     H30823   4.285   4.608  10.656 -0.1280 -1.7498 -1.9152
  948MOL0     H30824   4.307   4.680  10.492 -0.7393  1.7402  0.0996
  949MOL0     O30825   4.228   6.857  10.936  0.3080  0.7212 -0.0443
  949MOL0     C30826   4.332   6.855  10.863 -0.0893  0.3442 -0.1337
  949MOL0     O30827   4.420   6.749  10.855 -0.3415  0.0858  0.3991
  949MOL0     C30828   4.388   6.633  10.920 -0.4125  1.1562  1.0006
  949MOL0     C30829   4.491   6.591  10.996 -0.1688 -0.0970 -0.0173
  949MOL0     C30830   4.471   6.481  11.082  0.0982 -0.2548 -0.7690
  949MOL0     C30831   4.357   6.394  11.064 -0.4217 -0.1349  1.0870
  949MOL0     O30832   4.353   6.285  11.150 -0.0986  0.2721 -0.3850
  949MOL0     C30833   4.314   6.153  11.101 -0.1985  0.0307 -0.6323
  949MOL0     C30834   4.405   6.105  10.991 -1.4250  0.0269  0.2113
  949MOL0     C30835   4.352   5.972  10.921 -0.2083  0.6745  0.4197
  949MOL0     C30836   4.425   5.943  10.786 -0.1257 -0.5597 -0.0284
  949MOL0     C30837   4.396   5.801  10.726 -0.2101  0.2531  0.4961
  949MOL0     C30838   4.440   5.793  10.578 -0.4925  0.1787 -0.1529
  949MOL0     C30839   4.594   5.816  10.548  0.5410  0.1768  0.1204
  949MOL0     C30840   4.618   5.811  10.400  0.8730 -0.2907  0.1574
  949MOL0     N30841   4.758   5.835  10.376 -0.6622  0.4720  0.4757
  949MOL0     C30842   4.810   5.964  10.386  0.5824  1.0992 -0.0616
  949MOL0     C30843   4.947   5.943  10.379 -0.3110  0.1506  0.2943
  949MOL0     C30844   5.060   6.040  10.352  0.3312 -0.3205 -0.0491
  949MOL0     C30845   5.177   5.987  10.265  0.4030  1.2735  0.2382
  949MOL0     C30846   5.285   6.102  10.236  0.4423  0.2167 -0.8529
  949MOL0     C30847   5.416   6.062  10.154  0.5867 -0.0939  0.7476
  949MOL0     O30848   5.482   6.187  10.113 -1.0218  0.2945 -0.8934
  949MOL0     C30849   5.618   6.183  10.126 -0.0573 -0.4962  0.1177
  949MOL0     C30850   5.668   6.206  10.250  0.3841 -0.0288  0.7302
  949MOL0     C30851   5.803   6.184  10.273 -0.4898  0.4575  0.0463
  949MOL0     C30852   5.842   6.209  10.418  0.6218  0.6250 -0.1079
  949MOL0     C30853   5.889   6.143  10.166  0.4833  1.0054 -0.9846
  949MOL0     C30854   6.033   6.104  10.190 -0.9872  1.2025  0.0107
  949MOL0     O30855   6.115   6.060  10.087 -0.0767 -0.5351 -0.0231
  949MOL0     C30856   6.234   6.018  10.126 -0.5383 -0.4596  0.8963
  949MOL0     C30857   6.338   6.100  10.156 -0.2376 -0.0420  0.1333
  949MOL0     C30858   6.458   6.040  10.216  0.6523  0.4213  1.2874
  949MOL0     C30859   6.462   5.904  10.249 -0.1855  1.3178  0.2392
  949MOL0     O30860   6.579   5.861  10.313  0.1853  0.5070  0.1837
  949MOL0     C30861   6.597   5.718  10.330 -0.0178 -0.5739  0.4662
  949MOL0     C30862   6.731   5.700  10.394  0.5280 -0.1322  0.0757
  949MOL0     C30863   6.740   5.753  10.535 -0.0049  0.9977  0.0517
  949MOL0     C30864   6.693   5.652  10.646 -0.4551  0.6784  1.1409
  949MOL0     C30865   6.728   5.694  10.785 -0.4579 -0.4579  0.3038
  949MOL0     C30866   6.880   5.688  10.823  0.0934  0.1967 -0.6502
  949MOL0     C30867   6.921   5.774  10.942  0.5319  0.0564 -0.5825
  949MOL0     C30868   6.847   5.727  11.066  0.8752 -0.0945 -1.0889
  949MOL0    Cl30869   6.915   5.564  11.130 -0.5305 -0.2936 -0.3908
  949MOL0     C30870   6.362   5.822  10.210  0.5175 -1.0272  0.8781
  949MOL0     C30871   6.246   5.882  10.159 -0.7126 -0.3975  0.2463
  949MOL0     O30872   6.055   6.073  10.309 -0.9784 -0.2879  0.4096
  949MOL0     C30873   5.835   6.127  10.035 -0.3836  0.3779  0.5502
  949MOL0     C30874   5.698   6.140  10.020  1.1180 -0.3658  0.1205
  949MOL0     N30875   4.977   5.807  10.377 -1.3566 -0.4071  0.8262
  949MOL0     N30876   4.863   5.747  10.379  0.2588  0.7192  0.9213
  949MOL0     C30877   4.255   6.426  10.968  0.5809  0.1650 -0.3596
  949MOL0     C30878   4.273   6.547  10.895 -0.4025 -0.3387 -1.1135
  949MOL0     C30879   4.360   6.982  10.793 -0.1472  0.2350  1.1705
  949MOL0     C30880   4.424   6.975  10.667  0.0023 -0.8823  0.0834
  949MOL0     C30881   4.469   7.077  10.588 -0.1034  0.1522  0.6977
  949MOL0     C30882   4.441   7.209  10.631 -0.1033 -0.0606  0.2324
  949MOL0     O30883   4.484   7.309  10.546  0.2802  0.4403  0.1590
  949MOL0     C30884   4.448   7.440  10.550  0.2864  0.3329  0.3801
  949MOL0     C30885   4.511   7.515  10.430  0.2662  0.2664 -0.3828
  949MOL0     C30886   4.437   7.487  10.302  0.1260  0.1096 -0.2242
  949MOL0     C30887   4.482   7.610  10.206  0.0332  0.5134 -0.1414
  949MOL0     C30888   4.414   7.620  10.079 -0.1588 -0.0946  1.2157
  949MOL0     C30889   4.366   7.622   9.964 -0.2494  0.4442 -0.8435
  949MOL0     C30890   4.361   7.221  10.748 -0.5195 -0.0026 -0.0411
  949MOL0     C30891   4.314   7.110  10.828 -0.5716 -0.7501 -1.0334
  949MOL0     C30892   4.217   7.144  10.940  0.1122  0.7402 -0.7203
  949MOL0     H30893   4.579   6.649  11.018 -1.8798  2.8442 -0.3338
  949MOL0     H30894   4.533   6.459  11.168 -1.0459 -2.4339 -0.4434
  949MOL0     H30895   4.211   6.163  11.067 -0.4762  0.0945  0.2016
  949MOL0     H30896   4.320   6.087  11.188  1.0127 -0.1457 -0.8318
  949MOL0     H30897   4.421   6.179  10.911  1.5424 -0.3834  0.3420
  949MOL0     H30898   4.505   6.077  11.025 -1.3530  2.0899  1.8892
  949MOL0     H30899   4.368   5.884  10.983  2.9909 -0.6299 -1.9998
  949MOL0     H30900   4.243   5.977  10.908 -0.5570 -1.9274  1.6882
  949MOL0     H30901   4.394   6.017  10.711  3.7729 -0.7610 -2.0834
  949MOL0     H30902   4.531   5.970  10.793  0.1398 -1.3629 -0.7254
  949MOL0     H30903   4.289   5.778  10.728  0.2949 -2.3965  1.2728
  949MOL0     H30904   4.444   5.720  10.781  1.9926  1.7904  0.9949
  949MOL0     H30905   4.420   5.687  10.558  6.1301 -2.0311  2.2137
  949MOL0     H30906   4.386   5.860  10.510  1.0045  0.1635 -1.4133
  949MOL0     H30907   4.644   5.735  10.602  0.2598 -1.0319 -1.3740
  949MOL0     H30908   4.622   5.913  10.592 -1.7243  0.2221  1.6018
  949MOL0     H30909   4.598   5.712  10.359  0.4377 -1.1432  2.2829
  949MOL0     H30910   4.555   5.884  10.347 -2.1781 -0.4189  3.2315
  949MOL0     H30911   4.746   6.051  10.383 -1.1704 -0.1595 -1.8541
  949MOL0     H30912   5.107   6.076  10.444  0.8554  1.0571 -0.8349
  949MOL0     H30913   5.006   6.118  10.298  0.1528 -0.9994 -0.8736
  949MOL0     H30914   5.217   5.900  10.318 -3.5201 -0.2185  1.1458
  949MOL0     H30915   5.147   5.945  10.168 -0.6846 -0.1382  1.1329
  949MOL0     H30916   5.233   6.178  10.177  0.2899 -0.5084 -1.6705
  949MOL0     H30917   5.315   6.143  10.334  0.5314  2.4670 -1.7556
  949MOL0     H30918   5.475   6.004  10.226  1.0559  1.1838  1.4284
  949MOL0     H30919   5.400   6.003  10.064  1.3302  0.4079  0.2749
  949MOL0     H30920   5.601   6.236  10.330  0.1740 -0.5720  0.7627
  949MOL0     H30921   5.845   6.112  10.470 -1.5655  1.1268  1.0686
  949MOL0     H30922   5.765   6.264  10.473 -0.6499  2.5921 -3.5284
  949MOL0     H30923   5.929   6.276  10.423  1.0018  0.1158  0.3046
  949MOL0     H30924   6.321   6.205  10.133 -0.5898 -0.6579 -2.7983
  949MOL0     H30925   6.548   6.100  10.221  0.6291  0.6090 -0.1113
  949MOL0     H30926   6.510   5.673  10.380  1.2707 -3.3888  0.3962
  949MOL0     H30927   6.582   5.671  10.232  0.5050  0.5524 -0.1786
  949MOL0     H30928   6.742   5.591  10.397  1.6478 -0.0218  1.0578
  949MOL0     H30929   6.805   5.747  10.329  0.0351 -0.1544 -0.5019
  949MOL0     H30930   6.694   5.852  10.545  1.5663  1.5990  2.1271
  949MOL0     H30931   6.849   5.764  10.541  0.2629 -0.8396 -0.8119
  949MOL0     H30932   6.738   5.555  10.625  3.1694  2.5437 -0.7121
  949MOL0     H30933   6.584   5.653  10.635 -0.4040 -0.7847  0.3343
  949MOL0     H30934   6.696   5.798  10.789 -0.4596 -0.4186 -0.5165
  949MOL0     H30935   6.663   5.644  10.857 -1.1245  1.5483  1.1617
  949MOL0     H30936   6.931   5.733  10.737 -1.7638  0.6134 -1.5818
  949MOL0     H30937   6.908   5.584  10.845  0.1423  0.7575  2.3323
  949MOL0     H30938   6.889   5.873  10.908  0.7587  0.2631 -0.1923
  949MOL0     H30939   7.029   5.778  10.958  1.0017  2.6153 -3.4489
  949MOL0     H30940   6.739   5.711  11.054  0.9774  0.3405 -2.9174
  949MOL0     H30941   6.862   5.795  11.150  2.5502 -0.8926 -0.7171
  949MOL0     H30942   6.365   5.715  10.229 -0.6156 -1.2242  0.0729
  949MOL0     H30943   6.159   5.819  10.144 -0.5110 -0.3918 -0.9869
  949MOL0     H30944   5.893   6.094   9.950 -3.3906 -2.3777 -0.6329
  949MOL0     H30945   5.644   6.123   9.927 -3.0589  3.2874  1.5041
  949MOL0     H30946   4.167   6.364  10.954  0.3782 -0.1039  1.7879
  949MOL0     H30947   4.197   6.565  10.820 -0.4526 -1.2951 -1.3101
  949MOL0     H30948   4.451   6.876  10.632 -3.0961 -1.0835 -2.0887
  949MOL0     H30949   4.524   7.068  10.495  1.4150 -1.9541  1.7383
  949MOL0     H30950   4.342   7.467  10.557  0.1981 -0.3442  1.9862
  949MOL0     H30951   4.483   7.487  10.643 -0.9387  0.0814  0.9789
  949MOL0     H30952   4.617   7.491  10.418  0.7377  2.2020 -0.4932
  949MOL0     H30953   4.505   7.619  10.463  1.0831  0.0651  0.4518
  949MOL0     H30954   4.458   7.395  10.246 -1.5125 -0.6065  0.2691
  949MOL0     H30955   4.331   7.494  10.324 -0.2827  0.3180 -2.0903
  949MOL0     H30956   4.590   7.600  10.189  0.1143  1.4342 -0.2416
  949MOL0     H30957   4.462   7.711  10.243 -3.4422  1.4965 -4.0039
  949MOL0     H30958   4.328   7.623   9.863  0.6265  1.5506 -1.1754
  949MOL0     H30959   4.324   7.322  10.763 -1.2350 -0.6803  3.8074
  949MOL0     H30960   4.132   7.077  10.938 -1.0135  1.8328  2.8340
  949MOL0     H30961   4.270   7.136  11.036  0.8620  1.2841 -1.0738
  949MOL0     H30962   4.179   7.247  10.937 -2.5343 -0.0846  1.0233
  950MOL0     O30963   8.615   2.099   2.368  0.6010  0.4963 -0.2046
  950MOL0     C30964   8.697   2.164   2.313  0.1330  0.5983 -0.1337
  950MOL0     O30965   8.684   2.287   2.288 -0.4479  0.2054  0.5956
  950MOL0     C30966   8.565   2.342   2.252 -0.1760 -0.5980 -0.0754
  950MOL0     C30967   8.544   2.480   2.274 -0.4307 -0.5754 -0.8389
  950MOL0     C30968   8.418   2.537   2.258 -1.0160  0.5306 -0.4144
  950MOL0     C30969   8.310   2.461   2.217  0.1850  0.5713 -1.3158
  950MOL0     O30970   8.182   2.514   2.217 -0.1695  0.6572  1.0149
  950MOL0     C30971   8.062   2.435   2.196  0.1363  0.3024  0.2860
  950MOL0     C30972   7.934   2.506   2.239 -0.0313 -0.0963 -0.7143
  950MOL0     C30973   7.891   2.515   2.396  0.2649  0.2567  0.3030
  950MOL0     C30974   7.861   2.381   2.451  0.4439  0.2234  0.1331
  950MOL0     C30975   7.843   2.380   2.603  0.6768  0.6534 -0.4337
  950MOL0     C30976   7.701   2.394   2.651  1.0382 -0.5861  0.3218
  950MOL0     C30977   7.611   2.262   2.645 -0.0657  0.5068  0.2255
  950MOL0     C30978   7.453   2.265   2.664 -0.1083 -0.0828  0.8069
  950MOL0     N30979   7.443   2.322   2.805 -0.4092 -0.2781 -0.5470
  950MOL0     C30980   7.521   2.291   2.918  0.0719 -0.5403  0.1305
  950MOL0     C30981   7.438   2.322   3.020  0.4799  0.4158  0.1514
  950MOL0     C30982   7.480   2.276   3.156  1.2019  0.0169 -0.2216
  950MOL0     C30983   7.381   2.345   3.264 -0.2089  0.3439  0.8765
  950MOL0     C30984   7.457   2.371   3.399 -0.0389  0.6532  0.3640
  950MOL0     C30985   7.523   2.515   3.428  0.1783 -0.2127 -0.0316
  950MOL0     O30986   7.429   2.619   3.436  0.6235  0.1091 -0.0239
  950MOL0     C30987   7.343   2.637   3.549 -0.8541 -0.0195  0.6793
  950MOL0     C30988   7.383   2.602   3.683 -0.4303 -0.2314 -0.6577
  950MOL0     C30989   7.289   2.628   3.789 -1.0606  0.4787  0.4878
  950MOL0     C30990   7.338   2.580   3.920 -0.1594  0.0471 -0.9585
  950MOL0     C30991   7.160   2.690   3.765  0.3704 -0.8594  0.2551
  950MOL0     C30992   7.057   2.740   3.867 -0.6918  0.2057 -0.5149
  950MOL0     O30993   6.938   2.803   3.824 -0.6181  0.7100  0.6524
  950MOL0     C30994   6.856   2.837   3.926  0.3617  0.1881  0.6281
  950MOL0     C30995   6.874   2.964   3.990  0.3983  1.1044  0.5210
  950MOL0     C30996   6.798   3.013   4.093 -0.4148 -0.5005  0.6495
  950MOL0     C30997   6.698   2.930   4.154 -1.0056 -0.8321  0.6474
  950MOL0     O30998   6.620   2.981   4.260 -0.6701  0.0154 -0.3353
  950MOL0     C30999   6.479   2.942   4.271  0.6240 -0.7163  0.4070
  950MOL0     C31000   6.444   2.969   4.421  0.7818  0.1236 -0.7995
  950MOL0     C31001   6.291   2.997   4.444 -0.4994  0.3182  0.3700
  950MOL0     C31002   6.258   3.013   4.592 -0.2845  0.2286 -0.7757
  950MOL0     C31003   6.119   2.952   4.630 -0.2843 -1.1053  0.4231
  950MOL0     C31004   6.001   3.023   4.558  0.7444  0.0062 -0.0355
  950MOL0     C31005   5.868   2.968   4.613  0.4069  0.3457 -0.1756
  950MOL0     C31006   5.759   3.024   4.520  0.9241  1.1999 -1.1063
  950MOL0    Cl31007   5.615   2.920   4.539 -0.5038  0.1888  0.3000
  950MOL0     C31008   6.675   2.808   4.092 -0.0662 -0.0652  1.4045
  950MOL0     C31009   6.747   2.759   3.977  0.5674 -0.7417 -1.0206
  950MOL0     O31010   7.101   2.733   3.980  0.1215 -0.0517  0.1195
  950MOL0     C31011   7.132   2.729   3.633 -0.7407  0.4277 -0.8687
  950MOL0     C31012   7.235   2.705   3.535 -0.0530  0.4442 -0.0453
  950MOL0     N31013   7.333   2.405   2.973 -0.1097 -0.3414  0.8425
  950MOL0     N31014   7.335   2.394   2.845  0.8926 -0.1720 -0.0334
  950MOL0     C31015   8.342   2.334   2.169 -0.1574 -0.0245  0.1984
  950MOL0     C31016   8.467   2.283   2.189  0.4224 -0.3355  0.5911
  950MOL0     C31017   8.826   2.101   2.280  0.2663  0.7664  1.1964
  950MOL0     C31018   8.886   2.151   2.168  0.3144  0.0134  0.4781
  950MOL0     C31019   9.021   2.110   2.135  0.7041  0.7141 -0.8871
  950MOL0     C31020   9.060   1.982   2.188 -0.1491 -0.1152  1.0578
  950MOL0     O31021   9.155   1.914   2.104 -0.1329 -0.2072 -0.3566
  950MOL0     C31022   9.201   1.784   2.147  0.7195 -0.4755 -0.4946
  950MOL0     C31023   9.276   1.715   2.027 -0.3909  0.3356  0.1456
  950MOL0     C31024   9.408   1.777   2.001 -0.8819  1.2295  0.0549
  950MOL0     C31025   9.488   1.744   1.883 -0.3405  1.2941 -0.5377
  950MOL0     C31026   9.562   1.615   1.910  0.7813 -0.2822 -0.6613
  950MOL0     C31027   9.626   1.519   1.953 -0.5815  0.7253  0.5523
  950MOL0     C31028   8.990   1.924   2.294 -0.6386  0.3490  0.0768
  950MOL0     C31029   8.877   1.989   2.349  1.1656  1.1592 -0.9354
  950MOL0     C31030   8.826   1.951   2.486 -0.2621  1.5419  0.1022
  950MOL0     H31031   8.620   2.553   2.301 -0.7795  0.3583 -2.2938
  950MOL0     H31032   8.400   2.639   2.292 -4.1264  0.6506 -1.9980
  950MOL0     H31033   8.067   2.335   2.241 -1.1302 -0.1336 -0.4905
  950MOL0     H31034   8.045   2.418   2.089 -3.9861  0.2400  0.7886
  950MOL0     H31035   7.948   2.610   2.210 -0.1067 -0.5787 -2.5829
  950MOL0     H31036   7.851   2.468   2.180 -1.3689 -0.1113  1.0956
  950MOL0     H31037   7.982   2.553   2.443  0.0254 -0.8103  1.6627
  950MOL0     H31038   7.807   2.584   2.399  1.5495  1.9923 -1.0590
  950MOL0     H31039   7.764   2.349   2.413 -0.3055 -0.4178  2.4265
  950MOL0     H31040   7.935   2.302   2.433 -0.9818 -1.1880  0.2421
  950MOL0     H31041   7.900   2.457   2.656 -0.4377  0.9485  0.3902
  950MOL0     H31042   7.891   2.291   2.644  3.1211  3.4406  3.5057
  950MOL0     H31043   7.704   2.440   2.750  0.3784 -1.5178  0.7887
  950MOL0     H31044   7.649   2.469   2.590  2.9425 -0.9345 -1.8890
  950MOL0     H31045   7.658   2.203   2.725 -2.4646 -2.0159 -0.0900
  950MOL0     H31046   7.643   2.213   2.553  0.1802  0.3914  0.3705
  950MOL0     H31047   7.402   2.321   2.585  2.3163  0.2841 -0.6003
  950MOL0     H31048   7.408   2.166   2.654 -1.1492  0.5987 -2.6496
  950MOL0     H31049   7.609   2.228   2.924  0.3159 -0.0905  1.3696
  950MOL0     H31050   7.585   2.295   3.178  0.5826  1.4741  1.6269
  950MOL0     H31051   7.467   2.167   3.155 -1.2167  0.1931  1.4523
  950MOL0     H31052   7.341   2.438   3.224 -0.6791 -0.3106 -0.2045
  950MOL0     H31053   7.295   2.280   3.285 -1.9212  2.0023 -0.6796
  950MOL0     H31054   7.376   2.344   3.468  2.1512 -4.3243  1.4668
  950MOL0     H31055   7.533   2.295   3.420 -0.5068  0.0350 -0.1357
  950MOL0     H31056   7.587   2.517   3.516  1.5468 -3.0917 -0.8221
  950MOL0     H31057   7.594   2.534   3.347 -0.1618 -0.6308 -0.4379
  950MOL0     H31058   7.480   2.559   3.703 -1.1033 -1.2097  0.7157
  950MOL0     H31059   7.316   2.632   4.013  2.6951 -1.0572  0.4650
  950MOL0     H31060   7.447   2.586   3.921 -0.2053  0.9392 -0.7671
  950MOL0     H31061   7.300   2.479   3.940 -0.6643  0.9477  3.6351
  950MOL0     H31062   6.953   3.028   3.952  2.3599 -1.1076  0.6859
  950MOL0     H31063   6.816   3.113   4.132 -0.1549  0.4715 -1.7923
  950MOL0     H31064   6.423   3.003   4.199 -1.9917 -2.0206  1.2296
  950MOL0     H31065   6.461   2.837   4.246  0.6491 -1.1080  1.9198
  950MOL0     H31066   6.488   2.893   4.486  2.8019 -0.5450 -2.8115
  950MOL0     H31067   6.498   3.059   4.452  1.8560 -0.0877 -1.9571
  950MOL0     H31068   6.231   2.915   4.405  0.5171 -0.6520  0.7833
  950MOL0     H31069   6.265   3.089   4.390 -2.0881 -0.0471  0.4619
  950MOL0     H31070   6.265   3.121   4.610 -1.3447  0.1886 -0.0503
  950MOL0     H31071   6.316   2.951   4.661 -0.4030  0.0877 -0.8029
  950MOL0     H31072   6.110   2.847   4.603  1.9180 -1.6551  1.5710
  950MOL0     H31073   6.102   2.958   4.738 -1.8616 -0.8072  0.1777
  950MOL0     H31074   6.010   2.982   4.457  0.9094 -0.7497  0.2827
  950MOL0     H31075   6.010   3.132   4.562 -5.4615  0.9276 -0.7229
  950MOL0     H31076   5.862   2.992   4.720  1.7941 -4.2276  1.1809
  950MOL0     H31077   5.875   2.860   4.598 -0.7537  0.2250  0.0915
  950MOL0     H31078   5.800   3.042   4.420  0.3310  3.2004 -1.0195
  950MOL0     H31079   5.713   3.117   4.554 -0.1744 -0.1848  1.4914
  950MOL0     H31080   6.595   2.742   4.124  0.0748 -0.1587  1.5688
  950MOL0     H31081   6.723   2.665   3.928  2.4857 -0.8863 -1.7324
  950MOL0     H31082   7.045   2.783   3.597 -1.9795 -0.9210 -0.0292
  950MOL0     H31083   7.214   2.736   3.433 -2.1224  0.6790  0.4115
  950MOL0     H31084   8.259   2.295   2.111 -1.3675  0.1501  1.7551
  950MOL0     H31085   8.493   2.182   2.158  2.1487 -0.1919  1.4184
  950MOL0     H31086   8.843   2.234   2.113  1.1109  0.1473  0.0375
  950MOL0     H31087   9.079   2.165   2.062  0.6250  3.4921  0.9868
  950MOL0     H31088   9.253   1.794   2.243  1.4690 -1.3629 -0.7846
  950MOL0     H31089   9.118   1.719   2.174 -2.9001  2.9821 -2.3697
  950MOL0     H31090   9.216   1.714   1.936 -1.6783 -2.3977  0.9343
  950MOL0     H31091   9.302   1.613   2.056  1.8609  1.0975  1.0748
  950MOL0     H31092   9.389   1.883   1.985  1.3548  1.6837  0.0104
  950MOL0     H31093   9.471   1.761   2.090 -3.9651  1.5846  2.4612
  950MOL0     H31094   9.558   1.828   1.881 -0.2855  1.2780  0.2012
  950MOL0     H31095   9.421   1.728   1.799 -0.2137 -1.0000 -0.2437
  950MOL0     H31096   9.681   1.431   1.981 -0.3136  0.5383 -0.5262
  950MOL0     H31097   9.030   1.837   2.346 -1.3473  0.0073  0.0623
  950MOL0     H31098   8.908   1.908   2.545 -0.3647  0.7545 -0.3177
  950MOL0     H31099   8.793   2.044   2.533 -1.1758  1.6679 -0.7526
  950MOL0     H31100   8.740   1.885   2.473 -0.8555  2.4539 -0.8226
  951MOL0     O31101   1.442   0.849   2.191 -0.4378 -0.0071 -0.9897
  951MOL0     C31102   1.554   0.804   2.187  0.0650 -0.3295  0.7222
  951MOL0     O31103   1.623   0.776   2.075 -0.6465  1.0105  0.0620
  951MOL0     C31104   1.562   0.805   1.960  0.4524 -0.6839 -0.2197
  951MOL0     C31105   1.580   0.930   1.894 -0.6837 -0.3160  0.5510
  951MOL0     C31106   1.506   0.952   1.778 -0.1265 -0.1857 -0.7504
  951MOL0     C31107   1.416   0.858   1.718  1.0806  1.0293 -0.2961
  951MOL0     O31108   1.344   0.896   1.609 -0.1710 -0.6725 -0.1166
  951MOL0     C31109   1.244   1.002   1.635 -0.7434  1.3327 -0.6325
  951MOL0     C31110   1.119   0.980   1.546 -0.5204  0.1772  0.4224
  951MOL0     C31111   1.072   0.839   1.521 -0.0764 -0.4410 -0.5766
  951MOL0     C31112   0.932   0.843   1.458 -0.6429 -0.2398  0.6255
  951MOL0     C31113   0.849   0.724   1.496 -0.1925  0.0173 -0.8671
  951MOL0     C31114   0.918   0.592   1.443 -0.4722  0.5422 -0.7029
  951MOL0     C31115   0.816   0.476   1.471 -0.2562 -0.5561  0.2643
  951MOL0     C31116   0.897   0.350   1.527  0.2944 -0.0077 -0.2585
  951MOL0     N31117   0.815   0.233   1.546  0.6591  0.6773  0.3101
  951MOL0     C31118   0.678   0.216   1.528  0.5799 -0.6995 -0.1201
  951MOL0     C31119   0.677   0.090   1.477  0.3582 -1.3241 -0.2155
  951MOL0     C31120   0.564   0.037   1.398  0.0474  0.5736 -0.1312
  951MOL0     C31121   0.450  -0.013   1.485 -0.7883  0.1054 -0.1511
  951MOL0     C31122   0.332  -0.048   1.414 -0.8163  0.6489  0.2207
  951MOL0     C31123   0.221  -0.074   1.526 -0.4222 -0.2536  0.3139
  951MOL0     O31124   0.259  -0.183   1.610  0.3888  0.4311 -0.0432
  951MOL0     C31125   0.248  -0.311   1.566  0.0530  1.0131  0.5068
  951MOL0     C31126   0.209  -0.346   1.437  0.3912 -0.5423  0.1031
  951MOL0     C31127   0.171  -0.472   1.402  0.2387 -0.6289  0.8011
  951MOL0     C31128   0.138  -0.484   1.257 -0.0064  0.5207  0.4080
  951MOL0     C31129   0.177  -0.576   1.498 -0.3998  0.0631 -0.5459
  951MOL0     C31130   0.133  -0.723   1.479  0.4831 -0.4218  0.2644
  951MOL0     O31131   0.063  -0.788   1.581 -0.1923  0.5435 -1.4307
  951MOL0     C31132  -0.005  -0.906   1.546  0.6864 -0.1160  1.0616
  951MOL0     C31133   0.011  -1.027   1.612 -0.3878  0.3987  0.8005
  951MOL0     C31134  -0.068  -1.138   1.577 -0.2417 -0.3952  0.9686
  951MOL0     C31135  -0.158  -1.133   1.469  0.5170  0.7074 -0.9195
  951MOL0     O31136  -0.221  -1.241   1.415  0.7527 -0.3453 -0.6336
  951MOL0     C31137  -0.151  -1.366   1.425  0.4562  0.4043  0.3754
  951MOL0     C31138  -0.165  -1.426   1.283 -0.2234  1.1115 -0.1445
  951MOL0     C31139  -0.293  -1.504   1.269  0.0877 -1.7347  0.9767
  951MOL0     C31140  -0.311  -1.557   1.124  0.7201  0.0050 -0.3194
  951MOL0     C31141  -0.444  -1.622   1.086 -0.6880 -0.7938 -0.5165
  951MOL0     C31142  -0.478  -1.758   1.134 -0.2343  0.1271 -0.3120
  951MOL0     C31143  -0.460  -1.863   1.015 -0.5531  0.2261 -0.0795
  951MOL0     C31144  -0.509  -2.007   1.047  0.5658 -0.0004  0.2973
  951MOL0    Cl31145  -0.408  -2.110   1.152 -0.0256  0.1182  0.3234
  951MOL0     C31146  -0.172  -1.006   1.411  0.7664  0.5418 -0.3266
  951MOL0     C31147  -0.110  -0.896   1.444 -0.2539 -0.2981 -0.1195
  951MOL0     O31148   0.142  -0.769   1.363 -0.0181  0.3230 -0.2666
  951MOL0     C31149   0.221  -0.547   1.635  0.5482 -0.4359 -0.2659
  951MOL0     C31150   0.255  -0.408   1.664  0.4571 -0.0312 -0.5642
  951MOL0     N31151   0.798   0.033   1.501 -1.5444  0.6138  0.8972
  951MOL0     N31152   0.880   0.111   1.548 -0.0774  0.0179 -0.0791
  951MOL0     C31153   1.403   0.729   1.781 -0.4082 -0.4788  0.1991
  951MOL0     C31154   1.480   0.705   1.900  0.0161  0.0787  0.7881
  951MOL0     C31155   1.617   0.755   2.318 -0.3718  0.7183  0.9390
  951MOL0     C31156   1.546   0.663   2.394  0.4689  0.0652  0.5391
  951MOL0     C31157   1.621   0.601   2.501  0.5210 -0.6832 -0.4070
  951MOL0     C31158   1.757   0.626   2.524 -0.3644 -0.5295 -0.6605
  951MOL0     O31159   1.830   0.561   2.621 -0.2756 -0.5027  0.1933
  951MOL0     C31160   1.790   0.418   2.632 -1.2512 -0.0799  0.3825
  951MOL0     C31161   1.904   0.347   2.709 -0.3321  0.1181  0.0294
  951MOL0     C31162   1.855   0.200   2.724 -1.4067  0.0767  0.1229
  951MOL0     C31163   1.952   0.126   2.812  0.5632 -0.3135  0.4776
  951MOL0     C31164   2.083   0.120   2.749  0.3514  0.5859 -0.3163
  951MOL0     C31165   2.196   0.121   2.689  0.7896  0.1678 -0.1405
  951MOL0     C31166   1.824   0.722   2.442 -0.8022 -0.3939  0.8987
  951MOL0     C31167   1.750   0.792   2.343 -1.0430  1.1841 -0.0941
  951MOL0     C31168   1.804   0.903   2.262  0.0552 -0.0532 -0.0878
  951MOL0     H31169   1.647   0.997   1.947 -0.5975 -0.7628  1.0137
  951MOL0     H31170   1.523   1.038   1.714  0.0466  2.0070  2.0926
  951MOL0     H31171   1.313   1.086   1.622  2.9223 -1.6613 -2.4107
  951MOL0     H31172   1.205   0.987   1.736  3.5073 -2.3686  0.7511
  951MOL0     H31173   1.036   1.040   1.585 -2.6807 -0.7596 -2.3447
  951MOL0     H31174   1.154   1.024   1.452  0.0595  0.9544  0.9897
  951MOL0     H31175   1.141   0.785   1.455  2.2006  1.8626 -0.2269
  951MOL0     H31176   1.071   0.786   1.617  2.2383 -0.8938 -0.7366
  951MOL0     H31177   0.881   0.933   1.493 -1.5170 -0.4762 -0.0093
  951MOL0     H31178   0.948   0.845   1.350  4.3232 -1.4046  1.1241
  951MOL0     H31179   0.745   0.731   1.463 -0.5941 -0.8989  0.1230
  951MOL0     H31180   0.833   0.726   1.604 -0.3130  1.4780 -0.8952
  951MOL0     H31181   0.953   0.587   1.340 -0.3010 -0.0497 -0.6218
  951MOL0     H31182   1.009   0.568   1.499 -1.8336 -0.5864  1.1656
  951MOL0     H31183   0.765   0.453   1.378 -2.0709 -2.9045  1.7280
  951MOL0     H31184   0.741   0.493   1.549 -1.4880 -3.5826 -0.1227
  951MOL0     H31185   0.982   0.315   1.467 -0.4490  1.2926 -2.1774
  951MOL0     H31186   0.929   0.370   1.630  1.2473  0.0370 -0.5560
  951MOL0     H31187   0.607   0.298   1.531 -0.2588 -1.4153 -0.0419
  951MOL0     H31188   0.606  -0.051   1.349  1.5367 -0.3146  2.5138
  951MOL0     H31189   0.524   0.117   1.335  1.5862  0.2385 -1.6068
  951MOL0     H31190   0.486  -0.096   1.547  0.2181 -0.6082 -1.6419
  951MOL0     H31191   0.435   0.070   1.554  0.9935 -0.5153  1.0413
  951MOL0     H31192   0.298   0.034   1.351  1.6879 -0.6857 -3.1675
  951MOL0     H31193   0.350  -0.131   1.345 -2.1276  0.9242 -0.4794
  951MOL0     H31194   0.202   0.020   1.580 -0.8787 -0.8268  1.1728
  951MOL0     H31195   0.130  -0.096   1.471  0.6634  0.4264 -1.8637
  951MOL0     H31196   0.211  -0.269   1.361 -2.8341  2.0134  2.3124
  951MOL0     H31197   0.029  -0.485   1.255 -0.0487  0.9068  1.6953
  951MOL0     H31198   0.168  -0.581   1.216  1.0903  1.7915 -2.0110
  951MOL0     H31199   0.169  -0.395   1.202 -0.6763  0.2736 -0.3806
  951MOL0     H31200   0.082  -1.021   1.693  1.6495  1.9486 -0.9874
  951MOL0     H31201  -0.046  -1.224   1.640  1.6776  0.8993  2.1869
  951MOL0     H31202  -0.047  -1.352   1.457  0.2112 -0.4467  1.6166
  951MOL0     H31203  -0.188  -1.429   1.506  4.4858  0.2253  2.3430
  951MOL0     H31204  -0.156  -1.360   1.196  0.7263 -0.0096 -0.9311
  951MOL0     H31205  -0.082  -1.496   1.271 -0.9439  0.4862 -1.7106
  951MOL0     H31206  -0.379  -1.441   1.294 -0.3184 -1.6326 -0.5947
  951MOL0     H31207  -0.282  -1.585   1.342  2.3239  0.4248  3.2540
  951MOL0     H31208  -0.227  -1.619   1.092  0.4897 -1.0695  1.0380
  951MOL0     H31209  -0.304  -1.476   1.051 -1.7495  2.2267  1.7117
  951MOL0     H31210  -0.515  -1.551   1.129  0.3637 -0.7833  1.3235
  951MOL0     H31211  -0.456  -1.604   0.979 -2.4202 -0.8032 -0.3610
  951MOL0     H31212  -0.580  -1.744   1.172 -0.0022  0.8823  0.0609
  951MOL0     H31213  -0.416  -1.788   1.218  0.3023  0.9023 -0.4167
  951MOL0     H31214  -0.354  -1.861   0.987 -0.5570  0.3911 -0.0820
  951MOL0     H31215  -0.515  -1.825   0.929 -0.6403  2.3511  0.8530
  951MOL0     H31216  -0.521  -2.056   0.950  1.8821  1.1277 -0.4646
  951MOL0     H31217  -0.614  -2.002   1.077  0.5064  0.1455  0.0646
  951MOL0     H31218  -0.248  -1.006   1.334 -2.1314 -0.3187  2.3450
  951MOL0     H31219  -0.132  -0.803   1.391  0.5306  0.8818  1.5180
  951MOL0     H31220   0.221  -0.621   1.715  0.0969  0.8129  0.9230
  951MOL0     H31221   0.270  -0.373   1.765  1.7408  1.1338 -1.1298
  951MOL0     H31222   1.339   0.647   1.751 -2.3336  0.0737  2.4745
  951MOL0     H31223   1.460   0.606   1.940  0.3648 -1.8297 -3.2460
  951MOL0     H31224   1.442   0.640   2.370  0.6353 -1.5123  1.2091
  951MOL0     H31225   1.569   0.531   2.566 -1.5250 -0.6226 -1.8364
  951MOL0     H31226   1.704   0.408   2.698 -1.7355 -0.1401 -0.2521
  951MOL0     H31227   1.761   0.373   2.537 -4.0153  2.1866  0.0116
  951MOL0     H31228   1.899   0.379   2.813  2.3352 -1.7056  0.8196
  951MOL0     H31229   2.004   0.349   2.665 -0.4967  4.1143 -0.4999
  951MOL0     H31230   1.760   0.199   2.777 -1.0166  0.3971  0.8507
  951MOL0     H31231   1.838   0.152   2.627 -2.7635  0.3693  0.1978
  951MOL0     H31232   1.919   0.022   2.819 -4.5379  0.8325 -1.7120
  951MOL0     H31233   1.949   0.171   2.912 -1.3484  1.9883 -0.5064
  951MOL0     H31234   2.291   0.132   2.639  1.1654  0.5093  0.6262
  951MOL0     H31235   1.918   0.767   2.469  0.3196 -2.0375 -0.1181
  951MOL0     H31236   1.892   0.949   2.308  0.2199  0.3005 -0.7413
  951MOL0     H31237   1.832   0.859   2.166  4.8549 -2.0176  1.8875
  951MOL0     H31238   1.731   0.982   2.241 -0.9776 -1.5263 -2.4345
  952MOL0     O31239   0.964   6.950   8.417  0.2770 -0.4137 -0.1864
  952MOL0     C31240   1.038   6.858   8.402  0.4162 -0.1439  0.2268
  952MOL0     O31241   1.144   6.847   8.482 -0.5811  0.1336 -0.2691
  952MOL0     C31242   1.156   6.919   8.594  1.3896  0.0597 -0.4610
  952MOL0     C31243   1.077   6.894   8.707 -0.3159  0.6824  0.5312
  952MOL0     C31244   1.107   6.959   8.827 -1.6116 -0.3623 -0.3557
  952MOL0     C31245   1.221   7.052   8.829 -0.2931 -1.0591 -1.4271
  952MOL0     O31246   1.248   7.140   8.928  0.2109  0.0508  0.1936
  952MOL0     C31247   1.254   7.093   9.065 -0.5889 -1.1218  0.7406
  952MOL0     C31248   1.401   7.051   9.094 -0.5990  0.2452  0.5147
  952MOL0     C31249   1.465   6.929   9.041 -0.3136  0.5968 -0.3896
  952MOL0     C31250   1.529   6.842   9.149 -0.2552  0.0535 -0.5305
  952MOL0     C31251   1.655   6.754   9.111 -0.1343  0.1429  0.1118
  952MOL0     C31252   1.613   6.658   8.991 -0.4158  0.6852 -0.1140
  952MOL0     C31253   1.713   6.547   8.964 -0.3319  0.1513  0.2621
  952MOL0     C31254   1.729   6.438   9.064 -0.5856 -0.5755  0.5327
  952MOL0     N31255   1.611   6.363   9.100 -0.9439 -0.8776  0.9150
  952MOL0     C31256   1.551   6.266   9.026 -0.8304  0.4770  0.0245
  952MOL0     C31257   1.459   6.220   9.105  0.2117  0.5015  0.8768
  952MOL0     C31258   1.372   6.099   9.058 -0.5625  0.0883 -0.8235
  952MOL0     C31259   1.237   6.132   8.998  0.4300 -0.4418  1.1750
  952MOL0     C31260   1.136   6.205   9.097  0.2673  0.7486  0.5601
  952MOL0     C31261   1.014   6.259   9.016 -0.3522  0.7545  0.8029
  952MOL0     O31262   0.921   6.307   9.107  0.2378 -0.4459 -0.3717
  952MOL0     C31263   0.955   6.430   9.152 -0.3385 -0.7045 -0.8651
  952MOL0     C31264   1.073   6.513   9.131 -0.3753  0.3998  0.8500
  952MOL0     C31265   1.081   6.647   9.164 -0.0409 -0.0691 -0.2019
  952MOL0     C31266   1.202   6.716   9.111  0.8242 -0.6898  0.0673
  952MOL0     C31267   0.978   6.697   9.252 -0.6918 -0.6339  1.3614
  952MOL0     C31268   0.965   6.835   9.292  0.2261  0.7570 -0.2027
  952MOL0     O31269   0.878   6.858   9.395  0.6787  0.4871  0.2501
  952MOL0     C31270   0.872   6.978   9.457  0.0579  0.2644 -0.9656
  952MOL0     C31271   0.916   7.104   9.423 -0.7902  0.7703  0.3313
  952MOL0     C31272   0.884   7.210   9.511  0.3057 -1.3246  0.0311
  952MOL0     C31273   0.812   7.198   9.631 -0.0907  0.1574 -0.2907
  952MOL0     O31274   0.786   7.307   9.708  0.9587 -0.2674 -0.2320
  952MOL0     C31275   0.857   7.318   9.832  0.4924 -0.0446  0.1211
  952MOL0     C31276   0.759   7.377   9.938  0.0653  0.8040  0.3961
  952MOL0     C31277   0.692   7.509   9.899 -0.9780  0.0218  0.0122
  952MOL0     C31278   0.592   7.555  10.007  0.5507  0.5064 -0.2683
  952MOL0     C31279   0.523   7.689   9.967 -0.1023  0.5515  1.1385
  952MOL0     C31280   0.610   7.802   9.936  1.2397  0.3314  0.2938
  952MOL0     C31281   0.513   7.916   9.891  0.1763  0.3643 -0.4990
  952MOL0     C31282   0.435   7.968  10.006  0.0132 -0.9618 -1.1808
  952MOL0    Cl31283   0.414   8.140   9.951 -0.3078 -0.3754  0.1635
  952MOL0     C31284   0.774   7.070   9.665 -0.5412 -0.5625 -0.5642
  952MOL0     C31285   0.807   6.964   9.583 -0.8667  0.3786 -0.4524
  952MOL0     O31286   1.025   6.919   9.232  0.0123  0.2412  0.3547
  952MOL0     C31287   0.873   6.615   9.278  1.2473 -0.8485  0.3579
  952MOL0     C31288   0.854   6.489   9.228  0.4419 -0.3754  0.3923
  952MOL0     N31289   1.455   6.291   9.224 -0.4872 -0.2942 -0.1791
  952MOL0     N31290   1.537   6.380   9.207 -0.0586  0.0053 -0.3833
  952MOL0     C31291   1.297   7.075   8.717  0.1522 -0.4184 -0.3667
  952MOL0     C31292   1.258   7.007   8.601  0.3244  1.1908 -0.0097
  952MOL0     C31293   1.007   6.774   8.276  0.4106 -0.9623 -0.3565
  952MOL0     C31294   0.919   6.824   8.175 -0.4389  0.4946 -0.3610
  952MOL0     C31295   0.865   6.736   8.074  0.1414 -0.3794 -0.3386
  952MOL0     C31296   0.918   6.612   8.054 -0.2336  0.0823  0.5624
  952MOL0     O31297   0.887   6.544   7.935  0.2819 -0.3213 -0.2300
  952MOL0     C31298   0.979   6.457   7.879 -0.2520  0.7724  0.5070
  952MOL0     C31299   0.903   6.393   7.771  0.1541  0.1703  0.5022
  952MOL0     C31300   0.797   6.295   7.816  0.6293  0.5299  0.7978
  952MOL0     C31301   0.695   6.240   7.708  0.2313  0.1169  0.1289
  952MOL0     C31302   0.766   6.142   7.622  0.2606  0.1272  0.4611
  952MOL0     C31303   0.820   6.054   7.559  0.2132  0.0304 -0.0883
  952MOL0     C31304   1.014   6.562   8.143  0.8348  0.1324 -0.6834
  952MOL0     C31305   1.060   6.637   8.254  0.7209  0.4151 -0.8053
  952MOL0     C31306   1.168   6.581   8.339  0.1884  0.2282  0.0574
  952MOL0     H31307   1.007   6.813   8.692 -0.5228  0.7040  1.3354
  952MOL0     H31308   1.041   6.946   8.912  0.9267 -1.2044  1.6107
  952MOL0     H31309   1.173   7.024   9.089 -0.9047 -1.0189 -0.0004
  952MOL0     H31310   1.238   7.186   9.121  0.8945 -0.8265  0.7051
  952MOL0     H31311   1.467   7.133   9.065  2.2911 -1.6000  1.4207
  952MOL0     H31312   1.403   7.051   9.203  2.9434  1.2410  0.5781
  952MOL0     H31313   1.384   6.866   9.003  1.7411 -1.7383 -1.0882
  952MOL0     H31314   1.541   6.953   8.967 -0.3509  1.9142 -0.0262
  952MOL0     H31315   1.565   6.906   9.229  0.6715 -0.5510 -0.4484
  952MOL0     H31316   1.454   6.771   9.186 -2.7781  2.3891 -0.7651
  952MOL0     H31317   1.670   6.688   9.197  2.2934 -0.1832 -0.4885
  952MOL0     H31318   1.745   6.810   9.083  1.2477 -3.2164 -3.0370
  952MOL0     H31319   1.520   6.611   9.023  1.4861 -0.8071  3.9934
  952MOL0     H31320   1.607   6.714   8.898 -3.8587 -1.4607 -1.3656
  952MOL0     H31321   1.808   6.590   8.929  0.9267 -0.8570  2.2542
  952MOL0     H31322   1.676   6.490   8.878 -1.9371 -0.3319  1.2391
  952MOL0     H31323   1.794   6.357   9.033  1.3245  0.0228  2.7071
  952MOL0     H31324   1.763   6.490   9.154 -0.0730  2.4297 -1.2454
  952MOL0     H31325   1.584   6.243   8.925 -2.1518 -1.1497 -0.0697
  952MOL0     H31326   1.358   6.029   9.141 -1.8813 -0.0547 -1.1473
  952MOL0     H31327   1.426   6.037   8.985  0.8312  0.9725 -0.5845
  952MOL0     H31328   1.247   6.203   8.915 -1.1049 -0.4468  0.9453
  952MOL0     H31329   1.186   6.043   8.959  0.6887 -1.1933  2.4839
  952MOL0     H31330   1.094   6.119   9.151 -1.9366 -0.7232 -3.0985
  952MOL0     H31331   1.189   6.280   9.156 -1.4614  2.1475  0.4051
  952MOL0     H31332   1.043   6.335   8.943 -0.8100  2.5584  2.4328
  952MOL0     H31333   0.969   6.179   8.957  2.6325 -1.1732  0.8981
  952MOL0     H31334   1.142   6.469   9.060 -2.4802  0.9834 -1.7345
  952MOL0     H31335   1.160   6.768   9.024 -1.1082  0.6272  1.6890
  952MOL0     H31336   1.284   6.650   9.082 -0.0683 -1.9446  0.3313
  952MOL0     H31337   1.226   6.792   9.185 -0.6951  0.1256 -0.2460
  952MOL0     H31338   0.975   7.123   9.333 -3.1059 -0.1120 -1.4697
  952MOL0     H31339   0.909   7.308   9.472 -2.2500  1.0338  3.6757
  952MOL0     H31340   0.901   7.224   9.868 -0.1418  0.4154  2.2661
  952MOL0     H31341   0.943   7.383   9.812 -0.5764  0.8359 -1.9895
  952MOL0     H31342   0.682   7.307   9.970 -0.2398  0.9386 -0.0316
  952MOL0     H31343   0.817   7.390  10.030 -1.4249  0.0197  1.4665
  952MOL0     H31344   0.637   7.486   9.807 -0.3231  1.8206 -0.8886
  952MOL0     H31345   0.769   7.584   9.878  1.1753 -2.7958 -3.2486
  952MOL0     H31346   0.649   7.576  10.098  1.3979  2.1737 -1.1198
  952MOL0     H31347   0.517   7.477  10.014  0.4114  0.1247 -3.8563
  952MOL0     H31348   0.458   7.660   9.884  1.5625  1.7170 -0.6403
  952MOL0     H31349   0.462   7.708  10.057 -0.4217 -0.1259  1.0743
  952MOL0     H31350   0.677   7.767   9.857  1.6310 -1.6790  1.4512
  952MOL0     H31351   0.669   7.833  10.023  0.7160  1.8925  0.1231
  952MOL0     H31352   0.453   7.868   9.813 -0.0170 -0.2605  0.0305
  952MOL0     H31353   0.571   7.993   9.839 -0.4327  1.5029  0.4632
  952MOL0     H31354   0.494   7.952  10.097 -1.0041  2.1043  0.1463
  952MOL0     H31355   0.337   7.923  10.023 -0.0708  0.3007  2.6110
  952MOL0     H31356   0.710   7.047   9.750  2.9093 -1.8551  1.9012
  952MOL0     H31357   0.769   6.866   9.611 -1.2339  0.2668 -1.3243
  952MOL0     H31358   0.809   6.657   9.355  1.6812 -2.8929  1.9147
  952MOL0     H31359   0.773   6.427   9.267 -0.1783  0.1807  0.0030
  952MOL0     H31360   1.374   7.152   8.722  2.6954 -2.8728  2.9705
  952MOL0     H31361   1.300   7.035   8.505  0.3353  0.9275 -0.0837
  952MOL0     H31362   0.871   6.921   8.175 -2.2232 -0.3378 -1.3973
  952MOL0     H31363   0.807   6.780   7.994 -0.5653 -0.4244  0.1467
  952MOL0     H31364   1.066   6.496   7.825 -0.2190 -0.9026 -0.7419
  952MOL0     H31365   1.000   6.379   7.953 -0.9150  2.4218  2.5226
  952MOL0     H31366   0.960   6.343   7.691 -2.3646  0.4538 -1.5998
  952MOL0     H31367   0.853   6.479   7.726 -1.0110  0.2021  1.8068
  952MOL0     H31368   0.846   6.212   7.868 -1.1980 -0.0480  1.6631
  952MOL0     H31369   0.724   6.327   7.891 -0.0168  1.9501 -0.3777
  952MOL0     H31370   0.656   6.327   7.654  1.7814  1.3876  0.9726
  952MOL0     H31371   0.611   6.190   7.757 -0.1380 -0.8816 -1.4535
  952MOL0     H31372   0.875   5.980   7.504 -2.1411 -1.0535 -1.1558
  952MOL0     H31373   1.067   6.468   8.129  0.5053 -0.3527  1.1971
  952MOL0     H31374   1.220   6.494   8.298 -0.5933  0.7077 -2.0688
  952MOL0     H31375   1.251   6.652   8.347 -1.0029  2.4041 -4.1477
  952MOL0     H31376   1.135   6.554   8.439 -3.6124  0.6221 -0.9388
  953MOL0     O31377   9.145   3.262   0.859  0.0352 -0.7211 -0.1435
  953MOL0     C31378   9.137   3.322   0.965 -1.1172 -0.3216  0.1416
  953MOL0     O31379   9.089   3.273   1.072 -0.6653  0.1903 -0.0440
  953MOL0     C31380   9.013   3.156   1.066 -1.3861  0.1484  0.2908
  953MOL0     C31381   9.034   3.054   1.167  0.6310 -0.2408 -0.3767
  953MOL0     C31382   8.953   2.947   1.173 -0.7002  0.7150  0.2827
  953MOL0     C31383   8.836   2.937   1.102  1.1276 -0.2646  0.3952
  953MOL0     O31384   8.762   2.820   1.128  0.4121  0.1553 -0.1191
  953MOL0     C31385   8.638   2.793   1.074 -0.4363  0.7715  0.8284
  953MOL0     C31386   8.574   2.661   1.113 -0.0711  0.0851 -0.3040
  953MOL0     C31387   8.675   2.547   1.071 -0.5379 -0.2695 -0.1802
  953MOL0     C31388   8.708   2.543   0.923  0.2318 -0.7046  0.6447
  953MOL0     C31389   8.578   2.538   0.843 -0.3108  0.1948  0.2870
  953MOL0     C31390   8.612   2.550   0.687 -0.2080  0.0429 -0.2117
  953MOL0     C31391   8.490   2.536   0.586 -0.3505 -0.0637 -0.0970
  953MOL0     C31392   8.542   2.497   0.452 -0.0161  0.2159  0.8962
  953MOL0     N31393   8.632   2.584   0.382  0.8888 -0.2246  0.3304
  953MOL0     C31394   8.595   2.682   0.295  0.0705  0.4697 -0.0716
  953MOL0     C31395   8.706   2.763   0.276 -0.1288 -0.4791 -0.4077
  953MOL0     C31396   8.703   2.893   0.203  0.8814 -0.0872 -0.6878
  953MOL0     C31397   8.736   2.886   0.060  0.7716  0.9508 -0.0068
  953MOL0     C31398   8.618   2.837  -0.018 -0.0772  0.3495  0.4439
  953MOL0     C31399   8.480   2.911  -0.005  0.3156  0.8618 -0.3718
  953MOL0     O31400   8.395   2.880  -0.116  0.1179 -0.7182 -0.4248
  953MOL0     C31401   8.292   2.795  -0.117  0.6362 -0.2581 -0.9483
  953MOL0     C31402   8.189   2.832  -0.209 -0.0049  0.6141 -0.5021
  953MOL0     C31403   8.060   2.781  -0.201 -1.0546 -0.5081 -0.5579
  953MOL0     C31404   7.958   2.848  -0.289  0.0658  0.0197 -0.3410
  953MOL0     C31405   8.032   2.685  -0.097 -0.1019  0.0546 -0.2066
  953MOL0     C31406   7.894   2.624  -0.085  1.1357  0.3236 -0.4206
  953MOL0     O31407   7.782   2.657  -0.162 -0.1461 -0.8862  0.3789
  953MOL0     C31408   7.664   2.589  -0.154  0.3921 -0.5013  0.5510
  953MOL0     C31409   7.573   2.666  -0.232  0.3706  0.5743 -0.7016
  953MOL0     C31410   7.442   2.625  -0.229  0.4538 -0.7336 -0.6077
  953MOL0     C31411   7.393   2.506  -0.174  0.0853 -0.1399 -0.5341
  953MOL0     O31412   7.260   2.470  -0.194 -0.2788 -0.4818 -0.2257
  953MOL0     C31413   7.224   2.331  -0.189  0.8436  0.6929 -0.0707
  953MOL0     C31414   7.092   2.315  -0.267  0.4195 -0.8152  0.4635
  953MOL0     C31415   6.984   2.413  -0.230  0.5805  1.0431  0.0030
  953MOL0     C31416   6.841   2.364  -0.257  0.5778 -0.3525  0.2646
  953MOL0     C31417   6.730   2.461  -0.209  0.6365  0.0174 -0.0588
  953MOL0     C31418   6.734   2.610  -0.254  1.0862  0.0547  0.3023
  953MOL0     C31419   6.669   2.634  -0.396  0.9502  0.0757  0.8549
  953MOL0     C31420   6.689   2.772  -0.436 -0.1629  0.1791 -0.2870
  953MOL0    Cl31421   6.618   2.791  -0.606  0.0940  0.0824  0.3202
  953MOL0     C31422   7.490   2.438  -0.095 -0.0908 -0.3665 -0.3805
  953MOL0     C31423   7.622   2.483  -0.073  0.2636  0.1247  0.1924
  953MOL0     O31424   7.898   2.531  -0.004 -0.8851  0.2653  0.4619
  953MOL0     C31425   8.143   2.639  -0.014 -0.2537  0.0524 -0.1233
  953MOL0     C31426   8.267   2.698  -0.023  0.4638 -0.3177  0.3350
  953MOL0     N31427   8.810   2.708   0.359 -0.2963 -0.4801  0.0134
  953MOL0     N31428   8.763   2.600   0.412 -0.6981  0.5186 -0.5828
  953MOL0     C31429   8.808   3.027   0.996 -0.3804 -0.9998 -0.3192
  953MOL0     C31430   8.889   3.144   0.992 -0.2286 -0.2978 -0.2133
  953MOL0     C31431   9.190   3.458   0.984  0.0778  0.9130 -0.0538
  953MOL0     C31432   9.258   3.487   1.100 -0.8507 -0.5745  1.0467
  953MOL0     C31433   9.304   3.609   1.126  0.3635 -0.5135 -1.3466
  953MOL0     C31434   9.288   3.711   1.036 -0.4054  0.7923 -0.0231
  953MOL0     O31435   9.331   3.835   1.061  0.3830 -0.5218  1.1724
  953MOL0     C31436   9.254   3.956   1.057  0.3543 -0.1793 -0.7868
  953MOL0     C31437   9.202   3.976   1.197  0.2662 -0.2275  0.1235
  953MOL0     C31438   9.312   4.006   1.303 -0.2669  0.5038  0.5573
  953MOL0     C31439   9.362   3.891   1.386  0.7998  0.1335 -0.9191
  953MOL0     C31440   9.423   3.940   1.513  0.5585 -0.1428  0.6053
  953MOL0     C31441   9.467   3.968   1.618  0.8168 -0.1604  0.0438
  953MOL0     C31442   9.220   3.688   0.921 -0.3028  1.1507  0.0833
  953MOL0     C31443   9.184   3.555   0.894  0.6447 -1.0483  0.8526
  953MOL0     C31444   9.098   3.545   0.756  0.2093 -0.1268 -0.5078
  953MOL0     H31445   9.116   3.065   1.237  0.3977 -3.8721  0.6551
  953MOL0     H31446   8.969   2.872   1.250  2.8530 -1.7233 -2.5008
  953MOL0     H31447   8.663   2.801   0.968 -1.0978  3.8298  0.7989
  953MOL0     H31448   8.571   2.874   1.106  1.3214  1.8461  1.9565
  953MOL0     H31449   8.563   2.658   1.222  1.3473 -0.3107 -0.1627
  953MOL0     H31450   8.475   2.657   1.066  0.8726  1.7069 -2.6056
  953MOL0     H31451   8.771   2.564   1.121  0.0802 -1.0381 -1.0690
  953MOL0     H31452   8.635   2.446   1.087  0.6070 -0.5314  1.2185
  953MOL0     H31453   8.782   2.619   0.896 -1.6480  0.7279 -0.6812
  953MOL0     H31454   8.756   2.446   0.906  2.1924 -0.3222  3.3719
  953MOL0     H31455   8.513   2.623   0.867  0.5913  0.8870  0.3395
  953MOL0     H31456   8.517   2.448   0.850 -3.8487  2.4039  0.8237
  953MOL0     H31457   8.666   2.643   0.666  1.1237 -0.2764  1.5691
  953MOL0     H31458   8.691   2.479   0.662 -0.4504 -0.1635 -0.3963
  953MOL0     H31459   8.445   2.636   0.590 -0.1091  0.1664 -2.0015
  953MOL0     H31460   8.423   2.456   0.617  0.2563 -0.6911 -0.3988
  953MOL0     H31461   8.582   2.395   0.451 -1.8011 -0.6415 -2.7681
  953MOL0     H31462   8.452   2.467   0.397 -0.0177 -1.4964  1.7402
  953MOL0     H31463   8.496   2.697   0.253 -0.3503  0.4039  0.8784
  953MOL0     H31464   8.779   2.952   0.256 -0.8851  1.7421 -0.0645
  953MOL0     H31465   8.609   2.946   0.216  2.3946  2.9708 -1.2279
  953MOL0     H31466   8.770   2.983   0.021 -0.7560  0.9646 -1.3813
  953MOL0     H31467   8.825   2.824   0.047 -1.1792 -1.7917 -1.0881
  953MOL0     H31468   8.645   2.846  -0.124  5.0491 -0.7712  1.3698
  953MOL0     H31469   8.608   2.728  -0.013  1.0355  0.1282 -1.2302
  953MOL0     H31470   8.433   2.876   0.087  1.1985  0.5858 -0.0134
  953MOL0     H31471   8.499   3.018   0.006  1.2168  0.7112 -0.3815
  953MOL0     H31472   8.209   2.908  -0.283  1.1273  1.0620  0.2370
  953MOL0     H31473   7.912   2.765  -0.344  0.0668  1.0078 -1.9110
  953MOL0     H31474   8.017   2.900  -0.365 -0.6385 -1.7973 -2.2235
  953MOL0     H31475   7.886   2.912  -0.237  0.0269 -1.1546  1.1201
  953MOL0     H31476   7.616   2.747  -0.290 -1.8844 -0.3826 -3.9578
  953MOL0     H31477   7.362   2.684  -0.271 -1.7471  0.4707  4.5558
  953MOL0     H31478   7.296   2.262  -0.234 -0.6933  0.2487 -1.9903
  953MOL0     H31479   7.212   2.303  -0.083  0.5582  2.5879  0.4332
  953MOL0     H31480   7.112   2.328  -0.373  0.8077  0.7361  0.7109
  953MOL0     H31481   7.062   2.211  -0.250  2.2722 -1.7331 -1.4362
  953MOL0     H31482   7.009   2.510  -0.275  2.1815 -0.2516 -2.0938
  953MOL0     H31483   6.982   2.421  -0.121 -0.8354  0.2730  0.0590
  953MOL0     H31484   6.829   2.275  -0.195 -0.9618  2.9230  5.3256
  953MOL0     H31485   6.832   2.338  -0.362  2.5745  1.0313 -0.3032
  953MOL0     H31486   6.628   2.425  -0.221  0.1047  0.8778  1.5670
  953MOL0     H31487   6.738   2.468  -0.100 -1.5747  0.5128  0.1021
  953MOL0     H31488   6.830   2.661  -0.267  0.1632  1.9532  0.6160
  953MOL0     H31489   6.676   2.668  -0.181  3.0228  3.9113 -0.9730
  953MOL0     H31490   6.561   2.613  -0.391  1.0100 -1.7811 -2.3420
  953MOL0     H31491   6.696   2.564  -0.476 -1.0410  1.7256 -1.4195
  953MOL0     H31492   6.791   2.810  -0.429  0.9387 -2.5197 -0.6735
  953MOL0     H31493   6.627   2.830  -0.366  0.7344 -1.1954  1.7311
  953MOL0     H31494   7.462   2.346  -0.044  1.2414 -1.7934 -2.0855
  953MOL0     H31495   7.679   2.426  -0.001  0.0727  1.3021  1.3063
  953MOL0     H31496   8.124   2.572   0.069  0.1886 -1.9488 -1.5496
  953MOL0     H31497   8.345   2.695   0.052  2.4811  0.5429 -1.6331
  953MOL0     H31498   8.726   3.016   0.927 -0.6754 -0.9032  0.0110
  953MOL0     H31499   8.861   3.235   0.940  0.2835  1.2235  2.0591
  953MOL0     H31500   9.271   3.413   1.179 -1.2533  0.8237  2.4923
  953MOL0     H31501   9.360   3.632   1.216  0.6404 -2.6198 -0.9253
  953MOL0     H31502   9.300   4.045   1.013 -0.2614 -0.2291 -1.5521
  953MOL0     H31503   9.167   3.935   0.994 -1.0446  0.2803  0.9171
  953MOL0     H31504   9.150   3.889   1.238  1.1342 -0.3106  1.0703
  953MOL0     H31505   9.127   4.056   1.201  1.0192  0.5712 -1.0476
  953MOL0     H31506   9.389   4.050   1.239 -1.1166  1.4097  0.1381
  953MOL0     H31507   9.270   4.092   1.355 -0.0021  1.1972 -0.3537
  953MOL0     H31508   9.425   3.817   1.337 -0.6424 -1.5421 -0.3292
  953MOL0     H31509   9.276   3.829   1.414  0.4749  0.4871 -1.1163
  953MOL0     H31510   9.511   4.000   1.710 -1.1178 -0.1541  1.0295
  953MOL0     H31511   9.214   3.774   0.855 -0.7402  0.9000 -0.2058
  953MOL0     H31512   8.992   3.526   0.773 -0.8654  3.6153 -2.0282
  953MOL0     H31513   9.084   3.640   0.703  0.4612 -0.2429 -0.7853
  953MOL0     H31514   9.152   3.475   0.692  1.1003 -0.2013  0.3067
  954MOL0     O31515   4.679   6.258   1.866  0.0815 -0.2210 -0.8321
  954MOL0     C31516   4.776   6.281   1.947 -0.3211  0.4396  0.7772
  954MOL0     O31517   4.760   6.305   2.078  0.1750  0.2320 -0.0435
  954MOL0     C31518   4.639   6.294   2.141  0.2283  0.8311  0.5151
  954MOL0     C31519   4.607   6.174   2.205 -0.5609  0.1733  0.3664
  954MOL0     C31520   4.501   6.169   2.286  0.2429 -0.9260  0.2223
  954MOL0     C31521   4.408   6.273   2.275 -0.1279  0.6018 -0.1317
  954MOL0     O31522   4.297   6.256   2.358 -0.4825  0.1987 -0.7821
  954MOL0     C31523   4.172   6.303   2.325 -1.1601  0.2818  0.4796
  954MOL0     C31524   4.111   6.198   2.229  0.0813 -0.2953  0.3317
  954MOL0     C31525   3.962   6.226   2.209  0.8890  0.7354  0.1135
  954MOL0     C31526   3.884   6.164   2.326 -0.6694  0.0291  0.5055
  954MOL0     C31527   3.734   6.198   2.335 -0.3200  0.6399 -0.9200
  954MOL0     C31528   3.690   6.190   2.487 -0.1261 -0.7065  0.1547
  954MOL0     C31529   3.546   6.242   2.515 -0.2254 -0.0776 -0.3128
  954MOL0     C31530   3.452   6.117   2.521 -0.3367 -0.4186  0.8499
  954MOL0     N31531   3.327   6.172   2.571 -0.0274 -0.7115  0.5705
  954MOL0     C31532   3.299   6.193   2.705  0.5088  0.0180  0.1308
  954MOL0     C31533   3.191   6.268   2.712  0.8246 -0.2997 -0.0800
  954MOL0     C31534   3.117   6.299   2.839 -0.6821 -0.7924 -0.4600
  954MOL0     C31535   3.198   6.371   2.945 -0.2547  0.2560  0.1700
  954MOL0     C31536   3.129   6.374   3.079 -0.0908  0.2900 -0.0353
  954MOL0     C31537   3.225   6.320   3.183  0.6986  0.8541 -1.2179
  954MOL0     O31538   3.341   6.412   3.167  0.8668  0.6822 -0.2365
  954MOL0     C31539   3.457   6.363   3.230 -0.4374 -0.5845 -0.1078
  954MOL0     C31540   3.459   6.255   3.323 -0.6876  0.0313 -0.1225
  954MOL0     C31541   3.581   6.201   3.359  0.1571 -0.9910 -0.5269
  954MOL0     C31542   3.588   6.062   3.408  0.1085  0.2874  0.3307
  954MOL0     C31543   3.701   6.278   3.350  0.6013  0.3080 -0.3115
  954MOL0     C31544   3.828   6.219   3.387 -0.6861 -0.1775 -0.0497
  954MOL0     O31545   3.917   6.253   3.296  0.1210 -0.4188 -0.4167
  954MOL0     C31546   4.043   6.250   3.333  0.0144 -0.2783  0.0676
  954MOL0     C31547   4.101   6.348   3.411 -0.1783  0.6756  0.0949
  954MOL0     C31548   4.235   6.337   3.451  0.5057 -0.2429  0.5651
  954MOL0     C31549   4.323   6.227   3.424  0.2889  0.4017  0.7712
  954MOL0     O31550   4.460   6.221   3.448 -0.1595  0.3683 -0.2552
  954MOL0     C31551   4.524   6.282   3.562 -0.6573 -0.3938  0.3664
  954MOL0     C31552   4.674   6.243   3.557  1.1521 -0.5329  0.2264
  954MOL0     C31553   4.705   6.114   3.631  1.2967  0.5809 -0.1674
  954MOL0     C31554   4.658   6.130   3.776  0.3843 -0.4942 -0.5228
  954MOL0     C31555   4.726   6.041   3.879  0.2448  0.2210  0.7987
  954MOL0     C31556   4.632   6.003   3.983 -0.1735 -0.1978 -0.7031
  954MOL0     C31557   4.689   5.901   4.084  0.0338 -0.6690 -0.1619
  954MOL0     C31558   4.715   5.763   4.040 -0.1585 -0.1335 -0.4836
  954MOL0    Cl31559   4.557   5.683   4.012  0.3346 -0.0183 -0.1936
  954MOL0     C31560   4.258   6.121   3.355 -0.1562 -0.6443 -0.2713
  954MOL0     C31561   4.128   6.132   3.306  0.3346 -0.7971 -1.1345
  954MOL0     O31562   3.855   6.148   3.482 -0.6147 -0.2517  0.1990
  954MOL0     C31563   3.697   6.396   3.274  0.8725 -0.4338  0.0225
  954MOL0     C31564   3.583   6.428   3.208  0.6754 -0.2043  0.4368
  954MOL0     N31565   3.139   6.277   2.582 -1.0647 -1.3476 -0.7869
  954MOL0     N31566   3.221   6.222   2.498 -0.6306  0.2155 -0.0681
  954MOL0     C31567   4.423   6.387   2.189 -0.1111  0.7249  0.0331
  954MOL0     C31568   4.548   6.398   2.126  0.5090 -0.4581  0.3406
  954MOL0     C31569   4.914   6.298   1.878  1.3759 -0.8068 -0.0893
  954MOL0     C31570   5.013   6.347   1.966 -0.6950 -0.0901  0.3199
  954MOL0     C31571   5.142   6.353   1.929  0.3041  0.1640 -0.1868
  954MOL0     C31572   5.182   6.318   1.804  0.5161 -0.2976  0.4644
  954MOL0     O31573   5.313   6.318   1.761 -0.3826  0.0177  0.7401
  954MOL0     C31574   5.414   6.340   1.863  0.3020  0.4438 -0.8902
  954MOL0     C31575   5.544   6.268   1.825  0.3029  0.3987 -0.1341
  954MOL0     C31576   5.668   6.338   1.891  0.6027  0.2241  0.7850
  954MOL0     C31577   5.705   6.280   2.026 -0.0777  0.1013  0.7204
  954MOL0     C31578   5.760   6.147   2.005 -0.3501  0.8219  0.6558
  954MOL0     C31579   5.809   6.036   1.997  1.4110 -0.5433 -0.3555
  954MOL0     C31580   5.092   6.270   1.715  0.1985  0.1767 -0.4807
  954MOL0     C31581   4.955   6.256   1.748  0.4066  1.3117  0.9103
  954MOL0     C31582   4.857   6.224   1.630 -0.6422  0.6796 -0.2378
  954MOL0     H31583   4.680   6.094   2.203  2.1984  2.4310  2.3671
  954MOL0     H31584   4.490   6.081   2.348  1.9492 -0.4556  1.2625
  954MOL0     H31585   4.163   6.405   2.287 -4.1476 -0.2188 -0.4181
  954MOL0     H31586   4.119   6.314   2.420 -1.0813 -2.3962  0.9098
  954MOL0     H31587   4.175   6.202   2.140  1.9726  1.7796  1.6889
  954MOL0     H31588   4.138   6.098   2.264  2.1400  0.6285  1.5827
  954MOL0     H31589   3.942   6.333   2.196 -0.6855  0.5157  0.4853
  954MOL0     H31590   3.922   6.167   2.126  0.8869  0.7903  0.0752
  954MOL0     H31591   3.901   6.056   2.328  2.6819  0.4558  0.2301
  954MOL0     H31592   3.933   6.203   2.416  0.0403  2.7633 -0.9817
  954MOL0     H31593   3.681   6.123   2.276  1.8058 -2.0245  0.3726
  954MOL0     H31594   3.717   6.298   2.293 -2.9037  0.4298 -0.5620
  954MOL0     H31595   3.703   6.091   2.531 -2.0438 -0.7026  0.8255
  954MOL0     H31596   3.754   6.263   2.536 -0.0298 -0.0080 -0.9637
  954MOL0     H31597   3.511   6.307   2.434 -0.6149 -0.1871 -0.2378
  954MOL0     H31598   3.546   6.296   2.611  0.8333  1.3440 -1.0816
  954MOL0     H31599   3.433   6.085   2.418 -4.7604  2.2651  0.5775
  954MOL0     H31600   3.489   6.031   2.577  2.3787 -0.5040 -0.8793
  954MOL0     H31601   3.355   6.149   2.787  1.3885  1.1706  0.1735
  954MOL0     H31602   3.073   6.204   2.870 -1.2078 -0.6893 -0.8867
  954MOL0     H31603   3.026   6.350   2.807  0.9881  0.6630 -3.3044
  954MOL0     H31604   3.293   6.317   2.951  0.6788  1.9416  1.1789
  954MOL0     H31605   3.211   6.474   2.910  3.3105 -0.3242 -0.6761
  954MOL0     H31606   3.104   6.478   3.100 -3.0516 -0.5704  1.2583
  954MOL0     H31607   3.039   6.312   3.076 -0.8573  1.4081 -1.0491
  954MOL0     H31608   3.190   6.325   3.287  2.3547 -2.3644 -0.3625
  954MOL0     H31609   3.248   6.214   3.173  0.4142  0.5584  0.8539
  954MOL0     H31610   3.370   6.195   3.337 -0.4985 -0.4935 -1.1067
  954MOL0     H31611   3.494   6.006   3.396 -0.7625  1.9248 -0.8709
  954MOL0     H31612   3.609   6.075   3.514 -0.1180  2.8414  0.1352
  954MOL0     H31613   3.669   6.007   3.360  3.2158  3.9511  0.9313
  954MOL0     H31614   4.050   6.438   3.444  2.2666  1.7015  1.3249
  954MOL0     H31615   4.286   6.421   3.499 -1.5379  0.8689  0.9137
  954MOL0     H31616   4.504   6.389   3.552  1.9946  0.0713 -0.9421
  954MOL0     H31617   4.478   6.244   3.654  1.3388 -2.1912  0.6949
  954MOL0     H31618   4.724   6.243   3.460 -1.2130  0.2135 -1.0733
  954MOL0     H31619   4.731   6.320   3.610  2.6483 -0.1145 -1.8461
  954MOL0     H31620   4.813   6.111   3.614  0.9437  4.5853 -6.3068
  954MOL0     H31621   4.669   6.022   3.585 -1.6743  3.2761 -3.8947
  954MOL0     H31622   4.551   6.115   3.791  0.4638  0.2584  0.9868
  954MOL0     H31623   4.665   6.235   3.806  1.3628 -0.0790 -2.0803
  954MOL0     H31624   4.748   5.950   3.823  1.2537 -0.0671  1.6311
  954MOL0     H31625   4.826   6.073   3.910  1.7092 -0.3541 -2.9055
  954MOL0     H31626   4.534   5.971   3.947  0.6162 -1.2859 -1.9705
  954MOL0     H31627   4.619   6.094   4.042  0.3897 -0.3690 -0.3001
  954MOL0     H31628   4.637   5.912   4.179 -0.7266  1.6335 -0.7639
  954MOL0     H31629   4.779   5.950   4.123 -1.7372  1.5224  1.4958
  954MOL0     H31630   4.780   5.714   4.113 -1.0773  0.2651  0.6229
  954MOL0     H31631   4.780   5.772   3.952  2.5180  3.0441  1.5634
  954MOL0     H31632   4.320   6.037   3.325 -0.1061  0.0168 -2.1305
  954MOL0     H31633   4.092   6.049   3.247  0.1990 -0.1621 -1.9569
  954MOL0     H31634   3.792   6.443   3.250  2.1116 -2.4920  0.6310
  954MOL0     H31635   3.589   6.509   3.135  1.1734 -1.7244 -1.2693
  954MOL0     H31636   4.351   6.468   2.177  0.4912  1.3062  0.2382
  954MOL0     H31637   4.567   6.484   2.062 -3.6961 -0.8753 -1.8293
  954MOL0     H31638   4.990   6.371   2.069  2.1555  2.1281  0.5847
  954MOL0     H31639   5.203   6.407   2.001  0.1533  1.7895 -1.2311
  954MOL0     H31640   5.431   6.447   1.844 -0.2726  0.1837 -3.1447
  954MOL0     H31641   5.385   6.326   1.968 -1.9100 -1.5922 -1.6867
  954MOL0     H31642   5.549   6.276   1.716  0.9399 -2.9643 -0.4681
  954MOL0     H31643   5.526   6.161   1.836 -0.5401  0.2278 -2.5790
  954MOL0     H31644   5.762   6.333   1.834  0.4035 -0.0949  0.4785
  954MOL0     H31645   5.647   6.445   1.897  3.3601  0.9575 -0.8174
  954MOL0     H31646   5.621   6.279   2.096 -2.0974 -0.1705 -1.5720
  954MOL0     H31647   5.787   6.341   2.064  0.9752 -1.1944  0.6074
  954MOL0     H31648   5.858   5.942   1.987  0.2923 -1.4735  2.0003
  954MOL0     H31649   5.135   6.242   1.619 -1.1035 -3.2791 -0.2088
  954MOL0     H31650   4.886   6.278   1.539 -0.5233  0.4655 -0.3272
  954MOL0     H31651   4.845   6.117   1.611 -0.6588  1.0868 -3.0485
  954MOL0     H31652   4.762   6.276   1.648 -1.2259  0.1736 -1.6870
  955MOL0     O31653   0.560   5.433   0.812 -0.1223 -0.1850 -0.8920
  955MOL0     C31654   0.581   5.513   0.726  0.0846 -0.2742  0.8228
  955MOL0     O31655   0.491   5.552   0.626  0.9232 -0.7169 -0.4736
  955MOL0     C31656   0.380   5.476   0.618  0.2022 -0.2563 -0.0147
  955MOL0     C31657   0.389   5.350   0.561  1.4078  0.0307 -0.3473
  955MOL0     C31658   0.286   5.257   0.575 -0.4261 -0.4991  0.4882
  955MOL0     C31659   0.172   5.290   0.652 -0.4779  0.2757  1.0882
  955MOL0     O31660   0.076   5.192   0.656 -1.0293 -0.2444 -0.5055
  955MOL0     C31661  -0.053   5.218   0.710 -0.1104 -0.6439  0.2856
  955MOL0     C31662  -0.142   5.294   0.609  1.2633  1.0434  0.4451
  955MOL0     C31663  -0.293   5.254   0.638  0.7613 -0.2626  0.1305
  955MOL0     C31664  -0.346   5.272   0.781  0.5752 -0.4551 -0.4556
  955MOL0     C31665  -0.491   5.303   0.787  0.4531 -0.9797  0.2453
  955MOL0     C31666  -0.544   5.313   0.934 -0.1817  0.9004 -0.2908
  955MOL0     C31667  -0.686   5.373   0.942  0.9460 -0.0399 -1.3002
  955MOL0     C31668  -0.746   5.393   1.077  1.0431  0.0065  0.1116
  955MOL0     N31669  -0.866   5.478   1.064 -0.5804 -0.2556  0.7672
  955MOL0     C31670  -0.875   5.606   1.118  0.6690  1.2034 -0.2592
  955MOL0     C31671  -0.996   5.645   1.080 -0.4928  0.3259 -0.2073
  955MOL0     C31672  -1.056   5.776   1.114  0.3071  0.3313  0.8192
  955MOL0     C31673  -1.066   5.872   0.994 -1.0985 -0.0027 -0.2407
  955MOL0     C31674  -1.211   5.863   0.940 -0.5114 -0.6357  0.0491
  955MOL0     C31675  -1.241   5.757   0.837 -1.0790 -0.1030  0.5375
  955MOL0     O31676  -1.145   5.741   0.729  0.8130  0.3255  0.2072
  955MOL0     C31677  -1.100   5.616   0.682  0.2188 -0.5536  0.8106
  955MOL0     C31678  -1.177   5.499   0.690 -0.7291  0.4205 -0.5921
  955MOL0     C31679  -1.130   5.375   0.650 -0.1447  0.2051  0.2655
  955MOL0     C31680  -1.187   5.254   0.719 -0.2654 -0.2954 -0.4993
  955MOL0     C31681  -0.990   5.372   0.597 -0.2590  0.3796 -0.2508
  955MOL0     C31682  -0.908   5.259   0.560 -0.4696 -0.4411  0.6405
  955MOL0     O31683  -0.899   5.157   0.648 -0.1251 -0.7317 -0.1647
  955MOL0     C31684  -0.796   5.063   0.662 -0.3097  0.7980 -0.7055
  955MOL0     C31685  -0.688   5.049   0.583  0.0157 -0.5992 -0.3473
  955MOL0     C31686  -0.582   4.968   0.619 -1.3356 -0.3544 -0.9853
  955MOL0     C31687  -0.592   4.883   0.733  0.1333  0.6373 -0.5544
  955MOL0     O31688  -0.489   4.792   0.759 -0.1574 -0.1140 -0.2752
  955MOL0     C31689  -0.485   4.738   0.892  0.5825  0.3069  0.7599
  955MOL0     C31690  -0.350   4.667   0.927  0.4152 -0.3824 -1.1209
  955MOL0     C31691  -0.341   4.623   1.075  0.3012  0.5592 -0.4064
  955MOL0     C31692  -0.206   4.542   1.087 -0.5946 -0.3437  0.2390
  955MOL0     C31693  -0.162   4.493   1.234  0.4024 -0.1803 -0.0549
  955MOL0     C31694  -0.210   4.358   1.257 -0.2139  0.3516 -0.9591
  955MOL0     C31695  -0.169   4.316   1.395  0.0713  0.0932  0.2274
  955MOL0     C31696  -0.247   4.185   1.425  0.2447  0.6900 -0.0792
  955MOL0    Cl31697  -0.211   4.038   1.311  0.0213 -0.1532  0.3481
  955MOL0     C31698  -0.711   4.883   0.806  0.6847  0.2018  0.5737
  955MOL0     C31699  -0.814   4.981   0.774 -0.7075 -0.5256 -0.4065
  955MOL0     O31700  -0.854   5.258   0.448 -1.1909 -0.8211  0.8369
  955MOL0     C31701  -0.935   5.496   0.557 -0.6601 -0.0824 -0.3621
  955MOL0     C31702  -0.984   5.612   0.605  0.1912 -0.5685 -0.4611
  955MOL0     N31703  -1.056   5.544   1.007 -0.2393 -0.8213 -0.5586
  955MOL0     N31704  -0.976   5.454   0.989  0.4269  0.9711  0.0771
  955MOL0     C31705   0.160   5.427   0.687  0.3997  0.3210  0.5009
  955MOL0     C31706   0.266   5.512   0.685  0.8950  0.3745 -0.3656
  955MOL0     C31707   0.712   5.592   0.718 -0.6002  0.8222 -0.1040
  955MOL0     C31708   0.822   5.552   0.796 -0.6581 -1.1864 -0.6587
  955MOL0     C31709   0.948   5.611   0.802 -0.8048  0.4407 -0.2651
  955MOL0     C31710   0.973   5.729   0.722 -0.1529 -0.0345 -0.1607
  955MOL0     O31711   1.095   5.794   0.727  1.2543 -0.4743 -0.2414
  955MOL0     C31712   1.207   5.722   0.785 -0.0669  1.1799 -0.5231
  955MOL0     C31713   1.337   5.790   0.733  0.4369  0.5491  0.7117
  955MOL0     C31714   1.450   5.718   0.798 -0.0210 -0.2068  0.0496
  955MOL0     C31715   1.586   5.796   0.782 -0.3635 -0.3900 -0.6307
  955MOL0     C31716   1.642   5.752   0.653  0.1172  0.3926  0.0208
  955MOL0     C31717   1.696   5.746   0.540 -0.2237 -0.6901  0.6922
  955MOL0     C31718   0.868   5.770   0.637 -0.1393 -0.7270  0.4448
  955MOL0     C31719   0.738   5.710   0.643 -0.5924 -0.1411  0.4510
  955MOL0     C31720   0.626   5.777   0.549 -0.2606  0.2990 -1.3646
  955MOL0     H31721   0.480   5.318   0.513  1.5358  1.0816 -0.8404
  955MOL0     H31722   0.291   5.162   0.523  0.7939 -1.1566  1.7448
  955MOL0     H31723  -0.042   5.273   0.804  1.1263  0.4577 -0.4546
  955MOL0     H31724  -0.108   5.125   0.725 -0.4444 -0.5889 -0.5124
  955MOL0     H31725  -0.151   5.401   0.629 -0.1244  1.1367 -0.5640
  955MOL0     H31726  -0.121   5.275   0.504  0.6203 -1.7560  0.7427
  955MOL0     H31727  -0.346   5.306   0.558  0.4011 -0.8557 -0.0231
  955MOL0     H31728  -0.305   5.147   0.621  0.1156 -0.1167 -0.3833
  955MOL0     H31729  -0.324   5.181   0.838 -0.8941  0.2646  1.3701
  955MOL0     H31730  -0.291   5.346   0.840 -1.6507 -1.1442  2.7385
  955MOL0     H31731  -0.549   5.234   0.725  2.1592 -2.8148  0.5924
  955MOL0     H31732  -0.519   5.399   0.742 -3.6542 -1.3937  1.4307
  955MOL0     H31733  -0.552   5.209   0.967  2.0323  1.2517  1.6588
  955MOL0     H31734  -0.475   5.369   0.998  0.5118  2.6290 -2.4159
  955MOL0     H31735  -0.750   5.310   0.879  0.3876  0.2990 -1.0784
  955MOL0     H31736  -0.688   5.472   0.896  1.2016  0.6298  0.0886
  955MOL0     H31737  -0.775   5.296   1.119 -1.2830 -0.5214 -2.4462
  955MOL0     H31738  -0.676   5.441   1.146 -0.4619  3.3264 -0.4725
  955MOL0     H31739  -0.791   5.654   1.168  1.4525 -0.4795  0.1120
  955MOL0     H31740  -1.005   5.829   1.196 -0.6880  1.9137  0.4578
  955MOL0     H31741  -1.154   5.776   1.161 -1.3319 -1.0221 -2.3439
  955MOL0     H31742  -1.051   5.974   1.030 -0.5456  0.9208 -2.8800
  955MOL0     H31743  -0.990   5.846   0.920 -0.8424  0.2293 -0.0610
  955MOL0     H31744  -1.277   5.838   1.023 -0.6907  1.5397  0.6250
  955MOL0     H31745  -1.248   5.963   0.915 -0.7234 -0.7844 -0.2380
  955MOL0     H31746  -1.256   5.668   0.900  2.7446 -0.6379  0.9310
  955MOL0     H31747  -1.338   5.778   0.791 -1.1690 -2.0128 -0.2481
  955MOL0     H31748  -1.263   5.505   0.756  2.5803 -1.7060  4.5968
  955MOL0     H31749  -1.176   5.157   0.669 -0.0034  0.2068 -1.4395
  955MOL0     H31750  -1.295   5.273   0.712 -0.2034  0.7654  0.8694
  955MOL0     H31751  -1.159   5.255   0.825 -0.8308  0.4272 -0.3441
  955MOL0     H31752  -0.678   5.096   0.486 -3.1087  3.0331  0.8365
  955MOL0     H31753  -0.493   4.966   0.557 -0.8426 -0.6380 -0.2941
  955MOL0     H31754  -0.486   4.819   0.965 -0.2255  0.8715  0.1396
  955MOL0     H31755  -0.571   4.674   0.915 -0.5887  1.9668  1.1875
  955MOL0     H31756  -0.319   4.592   0.853  2.6096  0.5657 -1.2469
  955MOL0     H31757  -0.272   4.743   0.924  0.8886 -0.8891 -3.3410
  955MOL0     H31758  -0.418   4.548   1.097  0.8949 -0.1892 -0.8255
  955MOL0     H31759  -0.340   4.706   1.146 -1.3312 -0.2236  0.5975
  955MOL0     H31760  -0.132   4.617   1.058 -1.8776  0.4867 -1.0090
  955MOL0     H31761  -0.213   4.460   1.015  1.1493 -1.0459  0.8297
  955MOL0     H31762  -0.054   4.496   1.252  0.0870 -1.5249  2.5584
  955MOL0     H31763  -0.225   4.548   1.305 -0.5839 -0.3929 -0.7441
  955MOL0     H31764  -0.138   4.309   1.190  0.4717  1.2457 -0.8852
  955MOL0     H31765  -0.314   4.346   1.224 -0.4223 -0.3633 -0.1000
  955MOL0     H31766  -0.199   4.397   1.463  1.3658 -1.6576  3.0804
  955MOL0     H31767  -0.062   4.300   1.407 -0.1503  0.2280  3.0653
  955MOL0     H31768  -0.354   4.204   1.429 -0.1253 -1.2821  1.4311
  955MOL0     H31769  -0.220   4.150   1.526 -3.0196  0.9644  0.9847
  955MOL0     H31770  -0.734   4.821   0.892  1.1894  0.2108  0.7169
  955MOL0     H31771  -0.901   4.977   0.839 -0.8351 -1.5928 -0.6270
  955MOL0     H31772  -0.842   5.497   0.500  1.0491  0.4437  2.2842
  955MOL0     H31773  -0.937   5.707   0.580 -0.1695  0.0294  1.0108
  955MOL0     H31774   0.066   5.456   0.732 -0.4399  0.6569 -1.3763
  955MOL0     H31775   0.269   5.620   0.702  1.0262  0.8445 -2.9122
  955MOL0     H31776   0.806   5.462   0.855 -0.0251 -1.1320 -0.3987
  955MOL0     H31777   1.022   5.595   0.880  2.4729  0.0983 -3.1788
  955MOL0     H31778   1.209   5.738   0.893 -0.3613  1.4219 -0.5509
  955MOL0     H31779   1.208   5.621   0.744 -1.6997  2.0682 -3.0096
  955MOL0     H31780   1.344   5.897   0.752  1.9583  0.5413  0.2511
  955MOL0     H31781   1.333   5.779   0.625 -0.0672  0.6947  0.7101
  955MOL0     H31782   1.436   5.720   0.907  1.3195  1.1883  0.2456
  955MOL0     H31783   1.454   5.616   0.759 -1.0319  0.8767 -3.2063
  955MOL0     H31784   1.658   5.750   0.850  1.3357 -0.5229 -2.4200
  955MOL0     H31785   1.574   5.904   0.796  2.9147 -0.0872  0.6411
  955MOL0     H31786   1.749   5.744   0.447  0.0969 -2.0998  0.8922
  955MOL0     H31787   0.882   5.857   0.574  0.8024 -1.3169 -0.1788
  955MOL0     H31788   0.661   5.876   0.518 -2.6232  1.8778  0.5768
  955MOL0     H31789   0.603   5.711   0.465 -0.6877  1.2879 -2.0400
  955MOL0     H31790   0.535   5.794   0.609  1.5011 -1.2964  2.0776
  956MOL0     O31791  10.350   4.786   5.323  0.4459 -0.5778  1.4261
  956MOL0     C31792  10.413   4.796   5.217 -0.2619 -0.0607  0.3674
  956MOL0     O31793  10.395   4.715   5.118 -0.0706  0.0326  0.3186
  956MOL0     C31794  10.298   4.614   5.118 -0.6375  0.0133  0.4733
  956MOL0     C31795  10.326   4.485   5.147 -0.1895 -0.5226 -0.5368
  956MOL0     C31796  10.217   4.385   5.148 -0.9432 -0.8640  0.6809
  956MOL0     C31797  10.090   4.413   5.116  0.0566  0.4653  0.3437
  956MOL0     O31798   9.983   4.330   5.130  0.0060 -0.7386 -0.2419
  956MOL0     C31799   9.998   4.192   5.146  0.6118 -0.8156 -1.3507
  956MOL0     C31800   9.857   4.145   5.134  0.6034  0.5389  0.2461
  956MOL0     C31801   9.852   3.982   5.106 -0.1424 -0.9262 -0.0442
  956MOL0     C31802   9.713   3.940   5.052  0.0294 -0.5875 -0.0839
  956MOL0     C31803   9.711   3.785   5.028  0.5823  0.2725 -0.0702
  956MOL0     C31804   9.572   3.739   4.985 -0.4360 -0.6996  0.3448
  956MOL0     C31805   9.539   3.590   4.964  0.7507 -0.6255 -0.0612
  956MOL0     C31806   9.650   3.512   4.884  0.2604  0.3184 -0.1040
  956MOL0     N31807   9.606   3.377   4.864 -0.2877  0.6042  0.4091
  956MOL0     C31808   9.483   3.338   4.818 -0.5716  0.3466 -1.4642
  956MOL0     C31809   9.479   3.202   4.814  0.4163 -0.0554 -0.0364
  956MOL0     C31810   9.358   3.121   4.772 -0.7196 -0.7363  0.2039
  956MOL0     C31811   9.217   3.193   4.801  0.2033 -0.2405 -0.5309
  956MOL0     C31812   9.195   3.198   4.954  0.9808  0.6733 -0.1255
  956MOL0     C31813   9.046   3.246   4.978 -0.0896  0.1425 -0.4473
  956MOL0     O31814   8.955   3.144   4.929  0.0328 -0.1227 -0.1481
  956MOL0     C31815   8.823   3.158   4.964 -0.0737  1.6146 -0.7528
  956MOL0     C31816   8.744   3.042   4.935 -0.6429 -0.0847  0.1633
  956MOL0     C31817   8.609   3.043   4.955  1.2882  0.2338 -0.3849
  956MOL0     C31818   8.528   2.916   4.907 -0.1795  0.5091  0.4468
  956MOL0     C31819   8.551   3.162   5.009  0.0178  0.4289  0.6178
  956MOL0     C31820   8.410   3.162   5.053  0.3630 -0.7177 -0.1757
  956MOL0     O31821   8.323   3.071   4.997  1.0231 -0.1432 -0.3552
  956MOL0     C31822   8.210   3.040   5.066  0.6947  0.5925 -0.0994
  956MOL0     C31823   8.227   2.969   5.183 -0.2228 -0.0212 -0.1989
  956MOL0     C31824   8.114   2.935   5.264  0.0562  0.0528  0.4065
  956MOL0     C31825   7.993   2.995   5.232  0.8432  0.4425  0.4945
  956MOL0     O31826   7.884   2.986   5.319 -0.0872  0.0028 -0.0113
  956MOL0     C31827   7.783   3.086   5.325  0.4523 -0.4430 -0.5953
  956MOL0     C31828   7.840   3.224   5.381 -0.1468  1.7185  1.0155
  956MOL0     C31829   7.733   3.333   5.420 -0.4440  0.5479 -0.1656
  956MOL0     C31830   7.653   3.287   5.543 -0.0534  0.9178  0.4083
  956MOL0     C31831   7.506   3.329   5.536 -0.5440  0.7871  0.2392
  956MOL0     C31832   7.430   3.279   5.660 -0.3162  0.1059 -0.1048
  956MOL0     C31833   7.466   3.353   5.788  0.1326  0.5143 -0.7334
  956MOL0     C31834   7.361   3.329   5.890  0.8025  0.3655  0.6618
  956MOL0    Cl31835   7.364   3.156   5.943  0.2730 -0.5304 -0.0390
  956MOL0     C31836   7.976   3.070   5.112  0.4048 -0.6031  0.5903
  956MOL0     C31837   8.086   3.090   5.024 -0.6329  0.1535 -0.6646
  956MOL0     O31838   8.390   3.227   5.159  0.9238 -0.1451 -0.0497
  956MOL0     C31839   8.634   3.267   5.046  0.9325  0.0897 -0.7889
  956MOL0     C31840   8.766   3.270   5.027 -0.0015  0.4540  0.2456
  956MOL0     N31841   9.602   3.160   4.859  0.4390 -0.7479 -0.6367
  956MOL0     N31842   9.675   3.261   4.895  0.8673  0.3135 -0.4697
  956MOL0     C31843  10.059   4.546   5.081  0.4072 -0.7880 -0.4615
  956MOL0     C31844  10.166   4.639   5.083 -0.7340 -0.0457  1.1879
  956MOL0     C31845  10.509   4.906   5.200 -0.0461 -0.3017  1.1606
  956MOL0     C31846  10.573   4.931   5.072  0.4635  0.3718  0.1919
  956MOL0     C31847  10.663   5.041   5.048  0.3674 -0.2582 -0.4391
  956MOL0     C31848  10.690   5.135   5.148  0.8209  0.9192 -0.2607
  956MOL0     O31849  10.766   5.242   5.113  0.0860 -0.1048 -0.4776
  956MOL0     C31850  10.795   5.350   5.210 -0.1500 -0.6503 -0.5574
  956MOL0     C31851  10.869   5.472   5.151  0.5952 -0.0124 -0.6429
  956MOL0     C31852  10.896   5.568   5.269  0.4458 -0.4868 -0.5836
  956MOL0     C31853  11.019   5.537   5.356 -0.6762 -0.5307  0.1693
  956MOL0     C31854  11.021   5.613   5.486  0.6092  1.1066 -0.2162
  956MOL0     C31855  11.038   5.667   5.599  0.3192 -0.0978 -0.3943
  956MOL0     C31856  10.645   5.103   5.282  0.3815  0.1128 -0.2792
  956MOL0     C31857  10.550   4.993   5.307 -0.2321 -0.2412  0.1568
  956MOL0     C31858  10.498   4.971   5.449 -0.6130  0.2996  0.0762
  956MOL0     H31859  10.431   4.471   5.169  0.7177  1.9750 -2.8087
  956MOL0     H31860  10.250   4.289   5.185  0.5013 -0.6596  0.0081
  956MOL0     H31861  10.041   4.178   5.246 -0.3069  2.7304 -0.3091
  956MOL0     H31862  10.057   4.150   5.064  3.4831  2.4388 -1.1971
  956MOL0     H31863   9.809   4.169   5.229  0.8651  1.3495  0.1758
  956MOL0     H31864   9.805   4.191   5.050  1.5658 -2.6483 -2.3223
  956MOL0     H31865   9.930   3.956   5.034  0.2721  0.0277  0.0489
  956MOL0     H31866   9.856   3.930   5.202  0.3459  1.0940  1.1006
  956MOL0     H31867   9.636   3.974   5.121  2.5845 -0.3294  2.8922
  956MOL0     H31868   9.690   3.978   4.952  2.4657 -2.8780 -1.6773
  956MOL0     H31869   9.725   3.729   5.120  0.5597 -1.9846 -1.3817
  956MOL0     H31870   9.785   3.757   4.952 -0.3804  1.7979 -1.6555
  956MOL0     H31871   9.497   3.790   5.046  2.3920  3.3088  0.8693
  956MOL0     H31872   9.544   3.787   4.891  1.1590  0.0552  0.2166
  956MOL0     H31873   9.447   3.586   4.905  1.6060 -0.6381 -1.4436
  956MOL0     H31874   9.515   3.542   5.059 -2.9632  2.9702  1.1326
  956MOL0     H31875   9.661   3.557   4.785  1.9379  1.5499  0.5929
  956MOL0     H31876   9.745   3.525   4.937 -0.8563 -0.6671  2.2399
  956MOL0     H31877   9.401   3.406   4.795 -2.6908 -0.8249  1.9474
  956MOL0     H31878   9.357   3.025   4.825  0.1319 -0.8606  0.0177
  956MOL0     H31879   9.368   3.093   4.666 -0.6292 -0.7588  0.2183
  956MOL0     H31880   9.208   3.296   4.767 -1.8882 -0.3848 -0.5534
  956MOL0     H31881   9.137   3.140   4.749 -0.1021 -0.1235 -0.1817
  956MOL0     H31882   9.227   3.105   5.002  1.1996 -1.1451 -3.5076
  956MOL0     H31883   9.253   3.281   4.997 -2.0433  1.7045  2.3233
  956MOL0     H31884   9.019   3.281   5.078 -0.6794 -1.4454 -0.0182
  956MOL0     H31885   9.022   3.340   4.928 -1.1284 -0.3410 -0.8962
  956MOL0     H31886   8.781   2.950   4.892  0.3797 -0.3050  1.4469
  956MOL0     H31887   8.451   2.951   4.837 -0.9507 -1.4522  0.2398
  956MOL0     H31888   8.485   2.873   4.998  0.6250  0.0473  0.6179
  956MOL0     H31889   8.599   2.839   4.875  1.5669  0.7865  3.3231
  956MOL0     H31890   8.324   2.925   5.205 -0.4816  0.5514  2.3348
  956MOL0     H31891   8.138   2.880   5.355 -0.4749 -0.3650  0.3022
  956MOL0     H31892   7.737   3.095   5.226 -0.0907  1.0575 -0.2345
  956MOL0     H31893   7.704   3.060   5.396  0.1065 -1.5268 -1.3656
  956MOL0     H31894   7.902   3.201   5.468 -0.3275 -1.0937  0.4672
  956MOL0     H31895   7.906   3.255   5.300  1.4917  2.2910  2.5163
  956MOL0     H31896   7.653   3.330   5.346  0.9019 -2.8237 -1.7077
  956MOL0     H31897   7.776   3.434   5.425 -0.4958  0.5460  0.3145
  956MOL0     H31898   7.703   3.324   5.633 -3.9768 -1.2400  3.8539
  956MOL0     H31899   7.651   3.178   5.552  1.5745  0.9927  2.3002
  956MOL0     H31900   7.488   3.436   5.517 -0.5675  0.9518  1.1815
  956MOL0     H31901   7.471   3.264   5.455  0.6556 -0.9400  1.0504
  956MOL0     H31902   7.450   3.171   5.665  1.9003  0.4545 -0.2366
  956MOL0     H31903   7.327   3.305   5.638  0.2476  3.2209  0.5678
  956MOL0     H31904   7.476   3.461   5.776 -0.7348  0.6143 -0.6140
  956MOL0     H31905   7.551   3.302   5.835 -1.7233 -1.3274  0.7888
  956MOL0     H31906   7.261   3.352   5.852  1.8280  4.6224  0.0255
  956MOL0     H31907   7.377   3.397   5.975  1.4807  0.1379  0.7158
  956MOL0     H31908   7.888   3.114   5.066  2.5308  1.0898 -2.2359
  956MOL0     H31909   8.075   3.142   4.929  1.9141 -1.7710 -2.1454
  956MOL0     H31910   8.593   3.361   5.082  0.6789 -0.2857 -0.0825
  956MOL0     H31911   8.813   3.363   5.056  1.1897 -0.3535  0.9737
  956MOL0     H31912   9.955   4.561   5.051  0.7858  0.7546 -1.1024
  956MOL0     H31913  10.159   4.742   5.049 -1.2441 -1.0714 -2.1412
  956MOL0     H31914  10.544   4.869   4.987  0.2301  1.2300 -0.3670
  956MOL0     H31915  10.674   5.059   4.942 -2.9482 -1.5159 -1.1306
  956MOL0     H31916  10.696   5.390   5.232  0.1128 -0.5131  0.4476
  956MOL0     H31917  10.839   5.322   5.306  0.1560  2.8729  0.4998
  956MOL0     H31918  10.801   5.513   5.075 -3.0516 -4.2008 -0.0220
  956MOL0     H31919  10.964   5.450   5.101  1.3245  1.7420 -0.0933
  956MOL0     H31920  10.898   5.672   5.236 -1.7496 -0.8754 -2.1866
  956MOL0     H31921  10.806   5.574   5.332  1.7559 -0.9747  1.4081
  956MOL0     H31922  11.111   5.554   5.299 -0.0005 -0.1871  1.3339
  956MOL0     H31923  11.017   5.430   5.382  0.1942 -1.0896 -1.8784
  956MOL0     H31924  11.039   5.715   5.695 -2.7648 -1.8918  0.7044
  956MOL0     H31925  10.664   5.161   5.371 -2.1777  1.3831 -0.4872
  956MOL0     H31926  10.527   4.871   5.482  2.8182  0.7917 -1.0299
  956MOL0     H31927  10.534   5.043   5.524 -2.6254  2.0625 -0.5398
  956MOL0     H31928  10.391   4.993   5.446 -0.5822  0.4692  0.1598
  957MOL0     O31929  11.385   9.234   7.108  0.0747 -0.1693  0.0757
  957MOL0     C31930  11.366   9.351   7.083 -0.5603 -0.6751 -0.5396
  957MOL0     O31931  11.394   9.468   7.160  0.7388  0.7349  0.2150
  957MOL0     C31932  11.412   9.460   7.297 -0.0851  0.5209  0.6269
  957MOL0     C31933  11.426   9.583   7.347 -1.2055 -0.6879 -1.2693
  957MOL0     C31934  11.445   9.594   7.483 -0.0200  0.4766  0.0952
  957MOL0     C31935  11.443   9.484   7.574  0.0602 -0.1120  1.5190
  957MOL0     O31936  11.451   9.487   7.711  0.6087  0.4970 -0.1954
  957MOL0     C31937  11.467   9.613   7.767 -0.2989 -0.9486 -0.1466
  957MOL0     C31938  11.441   9.612   7.914 -0.4536  1.2314 -0.0559
  957MOL0     C31939  11.289   9.616   7.951 -0.0364 -0.1747 -0.2223
  957MOL0     C31940  11.265   9.643   8.094 -0.4831  0.0831  0.4621
  957MOL0     C31941  11.122   9.627   8.129  0.2361  0.1797 -1.1406
  957MOL0     C31942  11.083   9.667   8.271 -0.1513  0.0393  0.9978
  957MOL0     C31943  10.935   9.646   8.307 -1.8295  0.3181  0.6117
  957MOL0     C31944  10.838   9.716   8.230  0.5424  0.1800  0.5112
  957MOL0     N31945  10.824   9.684   8.088  0.6485  0.2001  0.5236
  957MOL0     C31946  10.832   9.771   7.985 -0.2927  0.7298 -0.3037
  957MOL0     C31947  10.810   9.692   7.873 -0.7577  0.3258  0.8912
  957MOL0     C31948  10.810   9.733   7.736 -1.0904  0.1665  0.7229
  957MOL0     C31949  10.921   9.664   7.652 -0.5489  0.5433 -0.1819
  957MOL0     C31950  10.902   9.512   7.614 -0.3831 -0.9617  0.1289
  957MOL0     C31951  11.045   9.460   7.566  0.2726  0.1072 -0.8416
  957MOL0     O31952  11.096   9.549   7.469  0.0401  0.2144  0.0699
  957MOL0     C31953  11.054   9.558   7.337 -0.6206  0.6689 -0.3113
  957MOL0     C31954  11.086   9.672   7.270 -1.2631 -0.2368  0.2358
  957MOL0     C31955  11.040   9.699   7.133 -0.1310 -0.4220  0.0440
  957MOL0     C31956  11.102   9.819   7.071 -0.6962 -0.2149 -0.8873
  957MOL0     C31957  10.957   9.605   7.071 -0.3578 -0.7791  0.2761
  957MOL0     C31958  10.908   9.626   6.934  0.1565 -0.7863  0.5244
  957MOL0     O31959  10.901   9.517   6.855 -0.6848  0.2548 -0.1136
  957MOL0     C31960  10.854   9.528   6.728  0.3673 -0.3106  0.7460
  957MOL0     C31961  10.923   9.585   6.619  0.7807  0.2653 -0.1084
  957MOL0     C31962  10.878   9.580   6.483 -0.3633  0.1437 -0.4640
  957MOL0     C31963  10.751   9.533   6.456  0.1026  0.5076 -0.8161
  957MOL0     O31964  10.709   9.560   6.338  0.5075 -0.3379  0.3411
  957MOL0     C31965  10.598   9.480   6.281 -0.0618  1.4452  0.0925
  957MOL0     C31966  10.528   9.523   6.137 -0.3030 -1.8048 -0.3570
  957MOL0     C31967  10.391   9.457   6.113 -0.2490  0.4295 -0.7590
  957MOL0     C31968  10.320   9.505   5.979 -0.0230  0.3849 -0.8226
  957MOL0     C31969  10.380   9.423   5.868 -0.5566 -0.1079 -0.7024
  957MOL0     C31970  10.279   9.404   5.750 -0.2690 -0.0352  0.7159
  957MOL0     C31971  10.173   9.303   5.779  0.9701  0.7675 -0.0794
  957MOL0     C31972  10.033   9.338   5.730  0.8922  0.8079 -0.4624
  957MOL0    Cl31973  10.026   9.352   5.549 -0.0640 -0.5013 -0.1600
  957MOL0     C31974  10.677   9.461   6.561  0.0233 -0.4289 -0.4240
  957MOL0     C31975  10.734   9.465   6.693 -0.7923 -0.2197 -0.2664
  957MOL0     O31976  10.874   9.743   6.892  0.3184 -0.1226 -0.2945
  957MOL0     C31977  10.931   9.488   7.138  0.3551  1.5747  0.3541
  957MOL0     C31978  10.985   9.462   7.267  1.1846 -0.2979  0.7386
  957MOL0     N31979  10.770   9.568   7.907  0.0174  0.3532  0.3292
  957MOL0     N31980  10.771   9.565   8.026 -0.4924 -0.2867 -1.2209
  957MOL0     C31981  11.408   9.365   7.521  0.0367  0.1715  0.2323
  957MOL0     C31982  11.401   9.346   7.380 -0.1353  0.0033 -0.5343
  957MOL0     C31983  11.329   9.382   6.945 -0.2157 -0.7197  0.5459
  957MOL0     C31984  11.307   9.515   6.913  0.5326  0.1762 -0.2767
  957MOL0     C31985  11.269   9.562   6.793  0.3407  0.2001  0.3699
  957MOL0     C31986  11.276   9.478   6.683  0.8122  0.0443  0.6392
  957MOL0     O31987  11.246   9.536   6.562 -0.8700  0.1677  0.6467
  957MOL0     C31988  11.274   9.442   6.452 -0.0087 -1.0375 -0.0040
  957MOL0     C31989  11.308   9.516   6.323 -0.0950 -0.1629 -0.1161
  957MOL0     C31990  11.196   9.612   6.280  0.1686 -0.4106  1.1098
  957MOL0     C31991  11.209   9.695   6.146  0.1367 -0.3971  0.6324
  957MOL0     C31992  11.317   9.798   6.166 -0.1469 -0.1696 -0.2496
  957MOL0     C31993  11.406   9.877   6.199 -0.0979  0.3208 -1.1358
  957MOL0     C31994  11.303   9.339   6.702 -0.5667  0.1884  0.4110
  957MOL0     C31995  11.326   9.291   6.831 -0.3420  0.8491  0.3172
  957MOL0     C31996  11.338   9.134   6.845  0.0662 -0.7659  0.3888
  957MOL0     H31997  11.418   9.666   7.277 -1.5565 -0.7030 -1.2496
  957MOL0     H31998  11.472   9.694   7.514 -0.9507  1.8008 -2.9906
  957MOL0     H31999  11.406   9.688   7.715  1.3303 -0.2547 -1.1402
  957MOL0     H32000  11.566   9.658   7.755 -1.3117  0.6353 -5.0325
  957MOL0     H32001  11.492   9.529   7.963  0.3547  0.8276 -1.5080
  957MOL0     H32002  11.487   9.702   7.955 -0.8040  1.2056  0.3937
  957MOL0     H32003  11.249   9.700   7.893 -1.5638 -0.0015  0.9950
  957MOL0     H32004  11.248   9.521   7.915 -0.6799  0.3832 -1.0012
  957MOL0     H32005  11.314   9.569   8.159 -3.0109 -1.1701  1.0961
  957MOL0     H32006  11.299   9.744   8.115 -1.7663  1.1673 -2.2879
  957MOL0     H32007  11.077   9.529   8.111  1.6947 -0.8655  0.6187
  957MOL0     H32008  11.071   9.699   8.064  0.0816 -0.3816 -1.6537
  957MOL0     H32009  11.151   9.625   8.346  1.1331  4.0648  2.3546
  957MOL0     H32010  11.085   9.776   8.267 -2.1352  0.1138 -2.9383
  957MOL0     H32011  10.926   9.669   8.414 -1.6379 -1.4365  1.0337
  957MOL0     H32012  10.910   9.540   8.316 -3.7985  0.5869 -0.8357
  957MOL0     H32013  10.745   9.687   8.279  0.5530 -1.1391 -0.1994
  957MOL0     H32014  10.866   9.821   8.238  1.3273  0.0344 -0.1359
  957MOL0     H32015  10.868   9.873   7.998 -2.6664  1.7066 -0.7258
  957MOL0     H32016  10.823   9.840   7.715  0.3395 -0.3674 -1.4849
  957MOL0     H32017  10.718   9.711   7.681  0.1471 -3.2984 -0.2052
  957MOL0     H32018  10.947   9.725   7.565  2.1815 -0.6207 -0.2712
  957MOL0     H32019  11.007   9.656   7.720 -1.3546 -2.3024  0.6290
  957MOL0     H32020  10.862   9.457   7.699  1.0383 -0.6453  1.0444
  957MOL0     H32021  10.836   9.491   7.529 -0.5473 -0.4201  0.1175
  957MOL0     H32022  11.116   9.470   7.648  0.1154  2.6790 -0.9417
  957MOL0     H32023  11.032   9.362   7.520  0.5920  1.1398 -3.2655
  957MOL0     H32024  11.158   9.740   7.315 -3.0647  1.8838  0.0641
  957MOL0     H32025  11.175   9.790   6.995  0.3077  0.1043 -0.0694
  957MOL0     H32026  11.152   9.882   7.145  0.0731  1.1003 -2.4649
  957MOL0     H32027  11.037   9.890   7.018 -0.3796  0.4416 -0.4142
  957MOL0     H32028  11.023   9.622   6.639  0.6582 -0.7247  2.8726
  957MOL0     H32029  10.937   9.622   6.402  0.4318  0.7281  0.4062
  957MOL0     H32030  10.639   9.381   6.259 -2.1675  0.2265  1.3780
  957MOL0     H32031  10.519   9.474   6.356  0.8108  2.6767  1.1614
  957MOL0     H32032  10.513   9.631   6.128 -0.1042 -1.5206  2.1002
  957MOL0     H32033  10.604   9.492   6.064 -0.0903  0.2550 -1.0930
  957MOL0     H32034  10.321   9.485   6.192  0.9476  0.2503  0.4163
  957MOL0     H32035  10.393   9.348   6.110  1.7355  0.4446 -1.4387
  957MOL0     H32036  10.331   9.607   5.941 -0.2656  0.2277 -1.3166
  957MOL0     H32037  10.213   9.487   5.992 -0.3085 -0.1259 -3.3478
  957MOL0     H32038  10.477   9.463   5.837  1.1436 -1.7709  2.0765
  957MOL0     H32039  10.396   9.324   5.909 -1.9896 -0.2709 -0.4882
  957MOL0     H32040  10.340   9.367   5.666  4.5509  1.2061  3.3091
  957MOL0     H32041  10.251   9.498   5.702  0.6150  1.3243  2.7221
  957MOL0     H32042  10.172   9.298   5.888 -1.5592  0.9792 -0.0167
  957MOL0     H32043  10.194   9.203   5.738  1.6125  1.3011 -1.0876
  957MOL0     H32044  10.009   9.429   5.786 -1.8863  1.1379 -1.9921
  957MOL0     H32045   9.962   9.260   5.759  2.1319 -0.4005 -0.5924
  957MOL0     H32046  10.583   9.408   6.549 -0.4715 -0.1374  1.7627
  957MOL0     H32047  10.685   9.426   6.782  2.8881 -2.3141  1.0755
  957MOL0     H32048  10.861   9.413   7.104  0.9225  0.2033  2.0692
  957MOL0     H32049  10.953   9.368   7.312 -3.1571  0.1110 -1.0379
  957MOL0     H32050  11.399   9.273   7.577  2.5480 -1.7024 -2.1653
  957MOL0     H32051  11.396   9.243   7.345 -1.1366 -0.3553  0.5791
  957MOL0     H32052  11.318   9.594   6.988 -3.5136  1.7514 -1.1026
  957MOL0     H32053  11.247   9.669   6.795  1.1890  0.3808  1.6420
  957MOL0     H32054  11.361   9.378   6.468  2.7843  1.3872 -3.6311
  957MOL0     H32055  11.185   9.380   6.442 -0.0624 -1.2057  1.3469
  957MOL0     H32056  11.328   9.439   6.248  2.4178 -1.6554  1.9208
  957MOL0     H32057  11.403   9.569   6.336 -0.6034  1.3265 -1.9654
  957MOL0     H32058  11.114   9.540   6.271  1.7057 -1.9844 -2.5811
  957MOL0     H32059  11.170   9.675   6.365 -0.6395  2.3764 -1.0575
  957MOL0     H32060  11.113   9.748   6.136 -0.4814 -1.0013  2.8105
  957MOL0     H32061  11.244   9.643   6.056 -1.3999  2.8574 -2.0500
  957MOL0     H32062  11.484   9.935   6.244 -1.9179 -0.8329  4.2365
  957MOL0     H32063  11.306   9.256   6.633  1.1198 -0.4091  1.1420
  957MOL0     H32064  11.253   9.106   6.909  0.2129  2.6963  2.3521
  957MOL0     H32065  11.332   9.077   6.752  2.0636  0.1601 -0.3626
  957MOL0     H32066  11.431   9.106   6.894 -0.2207 -1.8599  0.3329
  958MOL0     O32067  10.302   3.749   3.236 -0.4154  0.8561  0.4145
  958MOL0     C32068  10.200   3.731   3.174 -1.3119 -0.0646  0.9547
  958MOL0     O32069  10.087   3.807   3.174 -0.5280  1.0686  0.4547
  958MOL0     C32070  10.079   3.916   3.253 -0.9473 -0.7005  0.0525
  958MOL0     C32071   9.991   3.922   3.364 -0.0828  0.4029 -0.7583
  958MOL0     C32072  10.014   4.031   3.453  0.2018  0.4861  0.4189
  958MOL0     C32073  10.087   4.148   3.416  0.7656 -0.5981  0.5201
  958MOL0     O32074  10.091   4.249   3.522 -0.0548  0.5373  0.3078
  958MOL0     C32075  10.025   4.366   3.473 -0.6905 -0.3747  0.5712
  958MOL0     C32076  10.055   4.486   3.553  0.7311 -0.7588 -0.0231
  958MOL0     C32077  10.006   4.484   3.706 -0.1969 -0.2798 -0.5415
  958MOL0     C32078  10.022   4.617   3.776  0.5465  0.9426  0.5148
  958MOL0     C32079  10.019   4.608   3.922  0.6281 -0.0707  0.4063
  958MOL0     C32080  10.121   4.708   3.980 -0.4317 -0.2376 -0.2558
  958MOL0     C32081  10.114   4.690   4.133  0.3238 -0.2229  0.1817
  958MOL0     C32082   9.983   4.722   4.204  0.9268 -0.0411  0.0983
  958MOL0     N32083   9.936   4.861   4.168  0.2166 -0.7416 -0.4560
  958MOL0     C32084   9.993   4.981   4.210 -0.4605  0.7800 -1.5734
  958MOL0     C32085   9.896   5.074   4.186 -0.1904  0.2072  0.7478
  958MOL0     C32086   9.893   5.223   4.190  0.3014  0.6091 -0.0383
  958MOL0     C32087   9.842   5.279   4.325 -0.1536  0.6842  0.2712
  958MOL0     C32088   9.830   5.430   4.336  0.6837 -1.0295  0.2215
  958MOL0     C32089   9.969   5.502   4.327 -0.1674 -0.1111 -0.7139
  958MOL0     O32090  10.038   5.472   4.443 -0.2191  0.4863 -0.5050
  958MOL0     C32091  10.163   5.530   4.465  0.7678 -0.1073 -0.4504
  958MOL0     C32092  10.214   5.498   4.590  0.0236  0.0891 -0.2762
  958MOL0     C32093  10.341   5.549   4.620 -1.2284  0.2769 -1.1999
  958MOL0     C32094  10.402   5.522   4.757  0.0164  0.0276 -0.0878
  958MOL0     C32095  10.408   5.634   4.533 -0.9469 -0.7308 -0.3033
  958MOL0     C32096  10.540   5.705   4.556  0.2698 -0.5948  0.0050
  958MOL0     O32097  10.545   5.795   4.667 -0.4897 -0.1560  0.3597
  958MOL0     C32098  10.662   5.841   4.718  0.1847  0.7866  0.6911
  958MOL0     C32099  10.790   5.780   4.687  0.7785  0.5330 -1.0406
  958MOL0     C32100  10.900   5.826   4.754 -0.7582  0.5291  0.4778
  958MOL0     C32101  10.899   5.928   4.849  0.6824  0.7481  0.6781
  958MOL0     O32102  11.021   5.972   4.899 -0.1560 -0.1700  0.7475
  958MOL0     C32103  11.028   6.027   5.034  0.3044  0.4236  0.3916
  958MOL0     C32104  11.163   5.998   5.094  0.7727  0.6805  0.4714
  958MOL0     C32105  11.188   6.058   5.228 -0.2471  0.7691 -0.8914
  958MOL0     C32106  11.155   5.945   5.330  0.3728  0.1636  0.7987
  958MOL0     C32107  11.173   5.990   5.476 -1.4100 -0.1795  1.1820
  958MOL0     C32108  11.317   5.957   5.520  0.7901 -0.2548 -0.7171
  958MOL0     C32109  11.347   6.034   5.656  0.1832 -0.4332 -0.3190
  958MOL0     C32110  11.496   6.011   5.697 -0.2838 -0.6075  0.8762
  958MOL0    Cl32111  11.512   6.061   5.863 -0.2016 -0.0102 -0.2140
  958MOL0     C32112  10.773   5.995   4.871  0.4513  0.5853  0.5741
  958MOL0     C32113  10.652   5.948   4.812 -0.8002  0.2091  0.3909
  958MOL0     O32114  10.621   5.696   4.466  0.1759  0.5369 -0.2151
  958MOL0     C32115  10.354   5.659   4.407  0.0109 -0.2419 -0.0895
  958MOL0     C32116  10.232   5.603   4.374  0.3388 -0.1015  0.8688
  958MOL0     N32117   9.791   5.004   4.129  0.2603  0.4622 -0.1940
  958MOL0     N32118   9.814   4.875   4.111  0.1036  0.1779  0.2757
  958MOL0     C32119  10.174   4.128   3.298 -0.9407  0.3929  1.3293
  958MOL0     C32120  10.167   4.018   3.219  0.8478 -0.0489 -0.3012
  958MOL0     C32121  10.226   3.623   3.064 -0.1971 -0.8886 -0.8241
  958MOL0     C32122  10.338   3.633   2.982 -0.9257  0.8705  0.4934
  958MOL0     C32123  10.359   3.540   2.877 -1.0274  0.1407 -0.3695
  958MOL0     C32124  10.263   3.447   2.844 -0.4063  0.1731 -0.2308
  958MOL0     O32125  10.278   3.355   2.745  1.2054  0.2339  0.1618
  958MOL0     C32126  10.401   3.348   2.668  1.4963  0.0602  0.1335
  958MOL0     C32127  10.393   3.203   2.603 -0.3135 -0.2400 -0.8798
  958MOL0     C32128  10.296   3.199   2.486 -0.8844  0.3796 -0.4066
  958MOL0     C32129  10.380   3.209   2.349 -0.1184 -0.3931  0.2919
  958MOL0     C32130  10.419   3.340   2.316  0.5445 -0.0412 -0.6292
  958MOL0     C32131  10.486   3.438   2.307  0.2403  0.1838 -0.3562
  958MOL0     C32132  10.147   3.436   2.926  0.3777  0.9585 -0.1667
  958MOL0     C32133  10.129   3.521   3.033 -0.1485 -0.2479 -1.3411
  958MOL0     C32134   9.988   3.515   3.099 -0.3352  0.6076  0.3422
  958MOL0     H32135   9.936   3.837   3.401 -1.5537  2.0560  1.0941
  958MOL0     H32136   9.964   4.030   3.549 -0.0449  2.4051  0.3499
  958MOL0     H32137   9.917   4.362   3.457 -0.4589 -2.1190 -1.0682
  958MOL0     H32138  10.069   4.400   3.378  2.3265  1.7964  2.5824
  958MOL0     H32139  10.163   4.487   3.537  0.3813 -1.3838 -2.8799
  958MOL0     H32140  10.015   4.578   3.509  2.2023 -0.0282  0.1041
  958MOL0     H32141   9.907   4.440   3.706 -1.5971  2.6274  0.1295
  958MOL0     H32142  10.084   4.420   3.748  2.0438  1.4819 -1.7187
  958MOL0     H32143  10.112   4.661   3.734  0.8560  0.5069  0.7127
  958MOL0     H32144   9.934   4.677   3.749  0.9270  1.2513 -0.0529
  958MOL0     H32145  10.043   4.506   3.956  2.9545  0.4476  0.5396
  958MOL0     H32146   9.919   4.639   3.953  0.4208  1.4155 -1.6034
  958MOL0     H32147  10.223   4.686   3.948 -1.4923 -1.1153 -3.2985
  958MOL0     H32148  10.086   4.806   3.946  0.4651  1.1977  2.5500
  958MOL0     H32149  10.196   4.739   4.187  0.1216  0.9204 -0.5018
  958MOL0     H32150  10.133   4.585   4.157 -0.6175 -0.2450  0.8670
  958MOL0     H32151   9.907   4.646   4.187  2.8621 -2.5050  1.8618
  958MOL0     H32152  10.006   4.712   4.310 -5.5231  0.6281  1.9571
  958MOL0     H32153  10.095   4.986   4.248 -0.9898  3.0077 -0.2716
  958MOL0     H32154   9.821   5.256   4.115 -0.4635 -0.3860  0.2475
  958MOL0     H32155   9.994   5.265   4.180  0.3776  1.0505  2.0077
  958MOL0     H32156   9.744   5.233   4.342 -0.3161  0.8862 -0.1063
  958MOL0     H32157   9.919   5.244   4.395  1.0672 -1.9450 -2.1713
  958MOL0     H32158   9.762   5.474   4.262 -0.0783 -0.3935  1.2658
  958MOL0     H32159   9.782   5.460   4.430  1.5506 -2.2974  1.0924
  958MOL0     H32160  10.015   5.459   4.238 -0.9336 -4.2465  0.6705
  958MOL0     H32161   9.939   5.607   4.329  0.5308  0.1303  2.4496
  958MOL0     H32162  10.153   5.445   4.662  0.7315 -1.2722 -0.6459
  958MOL0     H32163  10.331   5.488   4.832  0.5025  1.8704  1.2796
  958MOL0     H32164  10.433   5.622   4.789  2.8764 -0.5733 -0.6510
  958MOL0     H32165  10.492   5.459   4.755 -0.1644 -0.2996  1.0790
  958MOL0     H32166  10.798   5.700   4.614  0.0794  0.2288 -0.7932
  958MOL0     H32167  10.995   5.775   4.743 -1.5340 -1.5989  2.6014
  958MOL0     H32168  11.006   6.134   5.031 -1.8257  0.0570  1.0553
  958MOL0     H32169  10.940   5.984   5.083 -0.1100  1.2369  0.3778
  958MOL0     H32170  11.178   5.890   5.093  0.0534  0.5776  0.1485
  958MOL0     H32171  11.233   6.042   5.023  1.2258  0.7491  0.9559
  958MOL0     H32172  11.126   6.146   5.248 -1.0222  0.2304 -0.8788
  958MOL0     H32173  11.295   6.081   5.237 -0.2388  0.4842 -0.1843
  958MOL0     H32174  11.199   5.847   5.311 -2.5844 -1.4317  1.6684
  958MOL0     H32175  11.054   5.906   5.317  0.4219 -0.1216  1.2571
  958MOL0     H32176  11.142   6.093   5.497 -1.6060 -0.1021  0.5455
  958MOL0     H32177  11.122   5.918   5.541  3.1062 -1.0371  4.1836
  958MOL0     H32178  11.390   5.991   5.446  2.0425  1.6890  1.2762
  958MOL0     H32179  11.322   5.850   5.539  0.7946 -0.1848 -0.3176
  958MOL0     H32180  11.278   5.997   5.732  0.0206  1.5903  0.5768
  958MOL0     H32181  11.339   6.143   5.646  2.2717 -0.1185  0.8288
  958MOL0     H32182  11.569   6.059   5.632 -2.2886 -0.4916 -1.4292
  958MOL0     H32183  11.519   5.905   5.679  0.9910  0.1896 -3.3947
  958MOL0     H32184  10.786   6.091   4.920  1.1563  0.9015 -0.2071
  958MOL0     H32185  10.561   6.008   4.816 -0.5244  0.7856 -1.4201
  958MOL0     H32186  10.406   5.722   4.336  0.5190 -0.9111 -0.3150
  958MOL0     H32187  10.201   5.622   4.271 -1.4528 -1.6260  1.0695
  958MOL0     H32188  10.249   4.206   3.284 -0.4586 -0.2677  0.1047
  958MOL0     H32189  10.244   4.001   3.144  1.4408  1.6947 -0.1251
  958MOL0     H32190  10.419   3.703   3.000  0.8262 -0.4777 -1.5865
  958MOL0     H32191  10.456   3.541   2.829  0.2114  2.4935  1.8826
  958MOL0     H32192  10.428   3.418   2.588 -1.4409 -0.4588 -1.4601
  958MOL0     H32193  10.483   3.357   2.740  4.0008  0.2158 -2.5523
  958MOL0     H32194  10.349   3.134   2.675  1.1744 -0.8041 -0.4873
  958MOL0     H32195  10.496   3.173   2.584  0.3326  0.6664  0.9832
  958MOL0     H32196  10.246   3.102   2.490 -1.9582  0.9197 -0.1521
  958MOL0     H32197  10.215   3.270   2.505 -1.2995 -0.2317  0.1678
  958MOL0     H32198  10.313   3.183   2.267  1.3541 -0.5340 -0.9134
  958MOL0     H32199  10.460   3.135   2.338 -0.1118 -0.2758 -0.4981
  958MOL0     H32200  10.543   3.528   2.294  0.0336  0.5554  1.1322
  958MOL0     H32201  10.073   3.368   2.885 -2.3662  1.6918  3.1039
  958MOL0     H32202   9.956   3.410   3.096  2.2238 -0.3855  3.0903
  958MOL0     H32203   9.994   3.547   3.203 -1.5993  1.3866  0.1874
  958MOL0     H32204   9.923   3.577   3.037  1.1566 -0.2985 -2.3577
  959MOL0     O32205   7.086   3.205  10.171  0.0387  0.7469 -0.4223
  959MOL0     C32206   7.102   3.087  10.176  0.7756  0.0570 -0.3877
  959MOL0     O32207   7.134   3.012  10.279 -0.5619 -0.4719 -1.3906
  959MOL0     C32208   7.151   3.076  10.405  1.2467 -0.4550 -0.5191
  959MOL0     C32209   7.050   3.154  10.461  0.4535 -0.4825  0.1242
  959MOL0     C32210   7.067   3.230  10.570  1.0195 -0.1538 -0.7154
  959MOL0     C32211   7.176   3.230  10.649 -0.0423 -0.6441 -0.4963
  959MOL0     O32212   7.173   3.305  10.757  0.2125  0.3727  0.9602
  959MOL0     C32213   7.292   3.379  10.789 -0.1154 -0.2973 -0.8425
  959MOL0     C32214   7.224   3.469  10.899 -0.8049 -0.5655  0.4657
  959MOL0     C32215   7.184   3.388  11.017 -0.4824  0.9041 -0.5771
  959MOL0     C32216   7.301   3.320  11.101  0.2543  0.6996 -0.1207
  959MOL0     C32217   7.251   3.274  11.239  0.3230  0.0012 -0.5139
  959MOL0     C32218   7.356   3.197  11.325 -0.5443 -0.0989  0.0847
  959MOL0     C32219   7.284   3.134  11.443  0.6745 -0.8262 -0.3861
  959MOL0     C32220   7.190   3.019  11.399 -0.6390 -0.1380 -0.4432
  959MOL0     N32221   7.154   2.946  11.521  0.0093 -0.1743  0.3535
  959MOL0     C32222   7.197   2.820  11.556 -0.4615  0.2798 -0.1999
  959MOL0     C32223   7.117   2.767  11.649  1.0473  0.2479 -0.1739
  959MOL0     C32224   7.139   2.632  11.714 -0.0937 -0.4635  0.9994
  959MOL0     C32225   7.235   2.617  11.829  0.8933 -0.9762 -0.3740
  959MOL0     C32226   7.376   2.661  11.781  0.1239  0.2102 -1.1997
  959MOL0     C32227   7.491   2.596  11.873 -0.0487 -0.5600 -0.4467
  959MOL0     O32228   7.485   2.457  11.867  0.0123  0.3870 -0.1716
  959MOL0     C32229   7.574   2.398  11.951  0.4239  0.9778  0.5370
  959MOL0     C32230   7.709   2.391  11.925  0.9944 -0.7814  1.0839
  959MOL0     C32231   7.804   2.319  12.006 -0.6549  0.4772  0.4409
  959MOL0     C32232   7.953   2.337  11.961  0.1677  0.7623  0.1433
  959MOL0     C32233   7.758   2.237  12.104  0.3964  0.3645  0.6070
  959MOL0     C32234   7.847   2.168  12.187 -1.3073 -0.8746 -0.4665
  959MOL0     O32235   7.880   2.043  12.157 -0.2512 -0.2094  0.5805
  959MOL0     C32236   7.987   1.975  12.217  0.5748 -0.1678  0.8886
  959MOL0     C32237   8.111   1.982  12.142  0.3193 -0.5812  0.2506
  959MOL0     C32238   8.216   1.903  12.199 -0.2329  0.4443  0.2693
  959MOL0     C32239   8.205   1.831  12.316  0.3352  0.8664 -0.8203
  959MOL0     O32240   8.321   1.762  12.356 -0.1097 -0.5896  0.3241
  959MOL0     C32241   8.333   1.755  12.508  0.3644 -0.1916 -0.0201
  959MOL0     C32242   8.469   1.700  12.535 -0.7637  1.1473 -0.7433
  959MOL0     C32243   8.576   1.817  12.547 -0.3276 -0.6368 -1.3292
  959MOL0     C32244   8.716   1.768  12.567  0.5679  0.6893  0.2473
  959MOL0     C32245   8.836   1.868  12.585 -0.0831  0.2984 -0.6321
  959MOL0     C32246   8.824   1.937  12.725  0.7562  0.2081  1.0369
  959MOL0     C32247   8.892   1.859  12.834 -0.7641  0.1769 -0.4099
  959MOL0     C32248   9.041   1.877  12.827 -0.4191  0.4276 -0.1663
  959MOL0    Cl32249   9.125   1.715  12.874 -0.1518 -0.3411  0.0779
  959MOL0     C32250   8.084   1.827  12.381 -0.6374  0.4857  0.5594
  959MOL0     C32251   7.974   1.894  12.331  1.6774 -0.1632  0.6050
  959MOL0     O32252   7.885   2.229  12.290 -0.1092  0.1344  0.1934
  959MOL0     C32253   7.620   2.246  12.136 -0.7473 -0.3668 -0.1970
  959MOL0     C32254   7.526   2.318  12.057 -0.0538  1.2779 -0.6780
  959MOL0     N32255   7.037   2.871  11.694  0.0677 -0.6725  0.5065
  959MOL0     N32256   7.065   2.968  11.623 -0.6089 -0.8514  0.0307
  959MOL0     C32257   7.279   3.136  10.604 -0.1089  0.6491  0.2371
  959MOL0     C32258   7.262   3.063  10.484 -0.5624  0.7379  0.0833
  959MOL0     C32259   7.081   3.004  10.043 -0.2736 -0.7073  1.0130
  959MOL0     C32260   7.054   2.870  10.059 -1.1073 -0.2592  0.0150
  959MOL0     C32261   7.030   2.787   9.948 -0.4546  0.4020  0.2486
  959MOL0     C32262   7.049   2.840   9.816  0.2705  0.4802 -0.4638
  959MOL0     O32263   7.035   2.758   9.713 -0.0379 -0.1088 -0.1922
  959MOL0     C32264   7.151   2.680   9.699  0.4557  0.1394  0.1951
  959MOL0     C32265   7.131   2.570   9.584  0.3403  0.5073 -0.9401
  959MOL0     C32266   7.067   2.441   9.648 -0.6828  0.1100 -0.7435
  959MOL0     C32267   7.024   2.317   9.569 -0.7175 -0.2101  1.2416
  959MOL0     C32268   6.944   2.365   9.450  0.0103 -0.3001 -0.7517
  959MOL0     C32269   6.879   2.408   9.359  0.1192  0.1972  0.4626
  959MOL0     C32270   7.081   2.972   9.797 -0.5846 -0.7658 -0.3766
  959MOL0     C32271   7.095   3.057   9.914  0.7562  0.1824  1.9231
  959MOL0     C32272   7.150   3.200   9.891 -0.0415  0.7523  0.3497
  959MOL0     H32273   6.957   3.158  10.404  1.9760  1.9991 -2.5012
  959MOL0     H32274   6.982   3.287  10.608 -0.1671 -1.1204 -1.7985
  959MOL0     H32275   7.341   3.438  10.711  0.6857  1.4713  0.9144
  959MOL0     H32276   7.370   3.312  10.827  0.2164  0.1236 -0.7723
  959MOL0     H32277   7.297   3.540  10.938 -0.8771  0.4016 -1.0590
  959MOL0     H32278   7.145   3.535  10.862  0.7052  1.7398  1.1239
  959MOL0     H32279   7.123   3.439  11.091  0.9239 -0.5053  1.6859
  959MOL0     H32280   7.109   3.315  10.988 -3.1882  2.3485  2.1948
  959MOL0     H32281   7.356   3.234  11.063  1.4422  1.2710  0.2311
  959MOL0     H32282   7.379   3.392  11.129  3.0104 -1.4639 -1.6912
  959MOL0     H32283   7.164   3.217  11.206  2.1535 -1.9010 -2.3749
  959MOL0     H32284   7.213   3.364  11.289 -1.7399 -1.2091  0.1996
  959MOL0     H32285   7.407   3.121  11.266 -1.3648 -0.7086  0.1355
  959MOL0     H32286   7.436   3.268  11.346  0.4675  0.2283 -3.9723
  959MOL0     H32287   7.236   3.212  11.502 -0.3410 -1.2127 -0.6824
  959MOL0     H32288   7.371   3.101  11.501  1.7135  3.2754  0.7134
  959MOL0     H32289   7.107   3.055  11.338  0.0629 -1.5507 -2.3164
  959MOL0     H32290   7.249   2.955  11.333 -0.6427 -2.0633  1.3078
  959MOL0     H32291   7.269   2.770  11.492 -0.5297  1.0408 -0.8954
  959MOL0     H32292   7.180   2.562  11.640 -0.1452 -1.2423  1.6904
  959MOL0     H32293   7.040   2.596  11.744 -1.4534  3.5525  1.9739
  959MOL0     H32294   7.186   2.679  11.904  1.2143  0.8608 -1.6166
  959MOL0     H32295   7.224   2.516  11.869  1.0480 -1.2490 -1.0063
  959MOL0     H32296   7.382   2.628  11.676  0.1990  0.6732 -1.3412
  959MOL0     H32297   7.375   2.769  11.791  0.8734  0.0302  1.4297
  959MOL0     H32298   7.596   2.624  11.860  0.1136  2.5982  4.8982
  959MOL0     H32299   7.471   2.633  11.974  2.8619 -1.1063  0.4118
  959MOL0     H32300   7.752   2.471  11.866  1.0352 -0.9791  0.8442
  959MOL0     H32301   7.981   2.242  11.915 -3.8635 -0.9737  0.8303
  959MOL0     H32302   8.012   2.360  12.050 -2.9136  2.0771  2.0210
  959MOL0     H32303   7.968   2.422  11.894  4.3141 -0.1072 -0.2978
  959MOL0     H32304   8.130   2.050  12.059 -1.4539 -0.1257  0.1767
  959MOL0     H32305   8.313   1.890  12.151  1.1162  1.1096  2.6326
  959MOL0     H32306   8.317   1.854  12.551 -1.2005 -1.6952  3.2036
  959MOL0     H32307   8.264   1.674  12.533 -1.7983  1.7200  0.5330
  959MOL0     H32308   8.473   1.645  12.629 -1.3151  3.7440  0.9157
  959MOL0     H32309   8.498   1.635  12.453  2.3279  2.8151 -1.1340
  959MOL0     H32310   8.556   1.866  12.643  3.7805  0.1892 -0.7218
  959MOL0     H32311   8.565   1.891  12.468 -0.4168  0.4365 -0.3444
  959MOL0     H32312   8.747   1.715  12.477 -1.7740  1.3340 -1.0051
  959MOL0     H32313   8.699   1.702  12.652 -1.0401 -2.6931 -2.4592
  959MOL0     H32314   8.927   1.808  12.577 -1.6961 -2.0400 -3.1391
  959MOL0     H32315   8.848   1.935  12.500 -0.1252  0.6770 -0.3426
  959MOL0     H32316   8.718   1.951  12.752  0.8497  2.8400  0.2380
  959MOL0     H32317   8.871   2.035  12.725 -1.7073  1.4595  1.2511
  959MOL0     H32318   8.879   1.755  12.803  1.1962 -0.0349 -0.6623
  959MOL0     H32319   8.859   1.888  12.934 -0.8840  0.5778 -0.5660
  959MOL0     H32320   9.067   1.965  12.886 -2.7917  2.4626 -1.9217
  959MOL0     H32321   9.073   1.886  12.723  2.9544 -3.9047  0.2295
  959MOL0     H32322   8.056   1.774  12.472 -0.7442  3.4882  2.4151
  959MOL0     H32323   7.875   1.897  12.377  0.6315  4.1132 -1.3956
  959MOL0     H32324   7.584   2.181  12.215  0.4968  0.3833  1.0156
  959MOL0     H32325   7.422   2.304  12.087  0.1419 -2.2595 -1.1368
  959MOL0     H32326   7.367   3.115  10.664 -3.3984 -2.8586  4.5284
  959MOL0     H32327   7.341   3.001  10.445 -0.7563  0.8852 -0.5561
  959MOL0     H32328   7.037   2.841  10.162 -2.9239  2.4273  0.5960
  959MOL0     H32329   7.008   2.683   9.969 -1.3221  0.1334 -1.8198
  959MOL0     H32330   7.225   2.749   9.656  1.0559 -0.5047  0.1613
  959MOL0     H32331   7.187   2.635   9.792  3.0088 -0.3190 -0.9272
  959MOL0     H32332   7.222   2.535   9.536 -0.0967 -1.2301 -0.5432
  959MOL0     H32333   7.056   2.610   9.514  0.0184 -2.2917 -2.3100
  959MOL0     H32334   7.131   2.401   9.727  0.3976  0.6566 -1.3197
  959MOL0     H32335   6.975   2.465   9.702  1.8151 -0.6293  4.4146
  959MOL0     H32336   6.961   2.254   9.632 -2.1504 -1.4694 -1.2783
  959MOL0     H32337   7.105   2.265   9.518 -1.5966 -2.0122  1.6224
  959MOL0     H32338   6.799   2.427   9.289 -0.0585  0.5164  0.7476
  959MOL0     H32339   7.094   3.022   9.702 -0.7673 -0.5967 -0.3134
  959MOL0     H32340   7.183   3.195   9.787  3.7080  0.2501  1.4341
  959MOL0     H32341   7.072   3.275   9.911  0.0193  0.4336  1.9175
  959MOL0     H32342   7.232   3.231   9.957 -1.3412  1.6573  1.6039
  960MOL0     O32343   1.894   7.987   2.542  0.1609 -0.5363 -0.2696
  960MOL0     C32344   1.864   8.018   2.428  0.3320  0.0074  0.6505
  960MOL0     O32345   1.865   7.934   2.326 -0.1960 -0.3621  0.9332
  960MOL0     C32346   1.912   7.807   2.345 -0.1681 -0.0032 -0.0401
  960MOL0     C32347   2.043   7.775   2.351  0.0341 -0.6564  0.3233
  960MOL0     C32348   2.076   7.634   2.370  0.4309 -0.3644  0.9229
  960MOL0     C32349   1.978   7.537   2.358 -0.0506 -0.6512 -0.1440
  960MOL0     O32350   2.022   7.406   2.350 -0.6802  0.4638 -0.3278
  960MOL0     C32351   2.009   7.330   2.471  0.1097  0.6435 -0.2215
  960MOL0     C32352   2.067   7.183   2.456 -0.6002 -0.5096 -0.3594
  960MOL0     C32353   2.029   7.093   2.571 -0.4707  1.0275 -0.0791
  960MOL0     C32354   2.052   6.936   2.551  0.0094  0.5956  0.5071
  960MOL0     C32355   2.203   6.903   2.548  0.1812  1.0099 -0.1494
  960MOL0     C32356   2.217   6.755   2.514 -0.3543 -0.2177 -0.1343
  960MOL0     C32357   2.367   6.710   2.486 -0.0802  0.5037 -0.6876
  960MOL0     C32358   2.380   6.572   2.423  0.7293  0.3530  1.3045
  960MOL0     N32359   2.527   6.540   2.390 -0.1355  0.5067 -0.2919
  960MOL0     C32360   2.589   6.421   2.391  0.5605 -0.0322  0.6455
  960MOL0     C32361   2.716   6.449   2.350  0.7560 -1.2372  0.1268
  960MOL0     C32362   2.833   6.345   2.318  0.4374 -0.2545 -0.6507
  960MOL0     C32363   2.894   6.350   2.170  0.1706  0.8330 -0.5836
  960MOL0     C32364   3.021   6.263   2.178  0.1417  0.2487  0.2593
  960MOL0     C32365   3.116   6.266   2.052 -0.3622  0.1688  0.2349
  960MOL0     O32366   3.161   6.399   2.021  0.0380  0.0145 -0.0910
  960MOL0     C32367   3.255   6.444   2.106 -0.0634 -0.2357  0.4642
  960MOL0     C32368   3.222   6.509   2.220 -0.4924  0.0045 -0.6778
  960MOL0     C32369   3.331   6.563   2.307 -0.5223 -0.0198  0.1511
  960MOL0     C32370   3.296   6.636   2.435  0.9745 -0.1432 -0.1283
  960MOL0     C32371   3.470   6.545   2.267  0.0420 -0.5158 -0.3710
  960MOL0     C32372   3.594   6.611   2.330  0.3626 -0.2759 -0.3400
  960MOL0     O32373   3.712   6.562   2.283  0.3264 -0.1623 -0.9952
  960MOL0     C32374   3.834   6.582   2.349  0.4772  0.2921  0.7034
  960MOL0     C32375   3.947   6.625   2.270  0.2773 -0.5434 -0.3289
  960MOL0     C32376   4.073   6.658   2.330  0.1016  1.0020 -0.0692
  960MOL0     C32377   4.079   6.644   2.474 -0.1904  0.0362  0.0364
  960MOL0     O32378   4.190   6.681   2.556 -0.4972  0.2545  0.3624
  960MOL0     C32379   4.317   6.665   2.491  0.3799  0.5121  0.3456
  960MOL0     C32380   4.443   6.666   2.576 -0.0730  0.0214  1.0994
  960MOL0     C32381   4.425   6.587   2.705  0.2621  0.6946  0.6926
  960MOL0     C32382   4.413   6.432   2.686  0.1680 -0.0306  0.0368
  960MOL0     C32383   4.357   6.352   2.816 -1.1315 -1.3023 -0.4537
  960MOL0     C32384   4.456   6.363   2.935  0.2928 -1.0097  0.5530
  960MOL0     C32385   4.453   6.248   3.034 -0.3435 -0.0604  0.3456
  960MOL0     C32386   4.538   6.131   2.985  0.2242  0.4125  0.2865
  960MOL0    Cl32387   4.489   6.005   3.092 -0.2298  0.1830 -0.3891
  960MOL0     C32388   3.964   6.605   2.550  0.3277  0.4943  0.0293
  960MOL0     C32389   3.851   6.565   2.484  1.5426 -0.2502  0.1084
  960MOL0     O32390   3.590   6.699   2.412 -0.4221 -0.4454 -0.4226
  960MOL0     C32391   3.490   6.488   2.144 -0.2605  0.5741 -0.0403
  960MOL0     C32392   3.388   6.432   2.068 -0.1187 -0.6200 -0.3734
  960MOL0     N32393   2.725   6.576   2.309  0.6135  0.1704 -0.4085
  960MOL0     N32394   2.608   6.640   2.339 -0.9055  0.4966  0.0591
  960MOL0     C32395   1.848   7.577   2.338  0.0965  1.2958  0.2348
  960MOL0     C32396   1.821   7.704   2.329  1.2130 -0.5460  0.5900
  960MOL0     C32397   1.825   8.155   2.402 -0.3213 -1.3353 -0.2474
  960MOL0     C32398   1.848   8.208   2.275 -0.5713 -0.4083 -0.0191
  960MOL0     C32399   1.813   8.338   2.236 -0.5805 -0.7564  0.0640
  960MOL0     C32400   1.761   8.423   2.335  1.1545  0.1185 -0.3053
  960MOL0     O32401   1.735   8.552   2.297  0.4016 -0.3678 -0.4438
  960MOL0     C32402   1.837   8.654   2.337  0.7095 -0.3961 -0.0696
  960MOL0     C32403   1.803   8.802   2.304 -0.2669  0.3476  0.2880
  960MOL0     C32404   1.837   8.838   2.156 -0.3131 -0.0715  0.8229
  960MOL0     C32405   1.752   8.955   2.109 -0.6436  0.1146 -0.2204
  960MOL0     C32406   1.751   9.080   2.196 -1.0763 -1.3875  0.6156
  960MOL0     C32407   1.747   9.194   2.245  0.0793  0.8849 -1.4099
  960MOL0     C32408   1.737   8.374   2.469 -0.4746 -0.4767  1.0482
  960MOL0     C32409   1.762   8.242   2.501  0.4458 -0.9371 -0.0671
  960MOL0     C32410   1.700   8.188   2.621  0.4451  0.9316 -0.7281
  960MOL0     H32411   2.125   7.846   2.352  0.3182 -0.9502  2.2982
  960MOL0     H32412   2.180   7.606   2.382  0.5537 -1.2490 -1.7497
  960MOL0     H32413   1.904   7.310   2.493  0.6869 -1.8484  0.6017
  960MOL0     H32414   2.055   7.381   2.556  1.2559  0.9837 -1.0144
  960MOL0     H32415   2.036   7.134   2.363  1.8268 -1.4703 -0.7235
  960MOL0     H32416   2.176   7.188   2.451 -0.5203  2.4138  1.6353
  960MOL0     H32417   2.089   7.121   2.659 -1.3676 -0.5416  1.0921
  960MOL0     H32418   1.921   7.104   2.587 -0.4543 -0.7134  1.4860
  960MOL0     H32419   2.004   6.881   2.633  0.4209 -0.8224 -0.1781
  960MOL0     H32420   2.016   6.911   2.451  0.1086  1.2778  0.2910
  960MOL0     H32421   2.258   6.931   2.638  2.2134  0.0848 -1.0316
  960MOL0     H32422   2.242   6.967   2.469  0.5177  2.0666  0.8407
  960MOL0     H32423   2.179   6.685   2.590  0.8676 -3.1615 -2.0475
  960MOL0     H32424   2.161   6.736   2.422  0.9142  1.2642 -1.2571
  960MOL0     H32425   2.405   6.715   2.588 -2.2993  2.1292  0.1283
  960MOL0     H32426   2.414   6.785   2.422  0.2100  0.7178 -0.2210
  960MOL0     H32427   2.317   6.494   2.467 -1.4333  1.4903  0.4034
  960MOL0     H32428   2.333   6.584   2.325  0.7133  1.1930  1.4011
  960MOL0     H32429   2.546   6.322   2.405 -2.0784  0.6944 -1.5202
  960MOL0     H32430   2.806   6.245   2.352 -0.7549  0.7326  1.5209
  960MOL0     H32431   2.908   6.379   2.390 -1.2952 -0.8731  1.5384
  960MOL0     H32432   2.819   6.318   2.098 -2.0281  2.4590  0.8694
  960MOL0     H32433   2.924   6.455   2.162  0.3567  0.9364  1.0987
  960MOL0     H32434   3.073   6.293   2.269  1.6895  1.5138 -0.9750
  960MOL0     H32435   2.986   6.160   2.184 -1.8324  0.6697 -2.1968
  960MOL0     H32436   3.204   6.201   2.054  0.3506  1.1188  0.5876
  960MOL0     H32437   3.062   6.226   1.966  0.2210 -3.4778  1.3730
  960MOL0     H32438   3.120   6.516   2.255 -0.9760 -1.4411 -1.7291
  960MOL0     H32439   3.319   6.743   2.424 -0.0338  0.1019  0.0256
  960MOL0     H32440   3.357   6.589   2.512  1.1873 -1.6255 -1.1608
  960MOL0     H32441   3.191   6.631   2.465  0.8013  2.4846 -0.0745
  960MOL0     H32442   3.942   6.652   2.165 -2.8013 -1.3845 -0.4759
  960MOL0     H32443   4.151   6.666   2.254  1.3373 -1.7623  0.7805
  960MOL0     H32444   4.319   6.563   2.451 -2.7819  1.1404 -1.7950
  960MOL0     H32445   4.334   6.735   2.408 -0.5282  1.0394  0.5836
  960MOL0     H32446   4.521   6.615   2.519 -0.6934  2.3349 -2.0913
  960MOL0     H32447   4.483   6.766   2.597 -0.7571 -0.0110  2.6720
  960MOL0     H32448   4.348   6.619   2.776  2.9910 -2.6253  5.7799
  960MOL0     H32449   4.517   6.617   2.757 -1.0136  2.0839  2.2305
  960MOL0     H32450   4.511   6.392   2.661  0.3543 -0.1562  0.9404
  960MOL0     H32451   4.351   6.414   2.598  2.4651  0.0396 -1.6920
  960MOL0     H32452   4.258   6.388   2.847 -1.4339 -1.3936 -1.2946
  960MOL0     H32453   4.346   6.248   2.784  0.5678 -1.6425 -0.0471
  960MOL0     H32454   4.443   6.445   3.007  0.8830 -1.2328  0.9207
  960MOL0     H32455   4.556   6.373   2.894  0.2883  1.7111  0.9974
  960MOL0     H32456   4.348   6.216   3.038 -1.1414  1.8166 -2.4730
  960MOL0     H32457   4.482   6.266   3.137  1.7043 -0.4492 -0.1219
  960MOL0     H32458   4.644   6.153   2.998  0.1719  2.7224 -2.2310
  960MOL0     H32459   4.532   6.122   2.876  3.9519  1.4878 -0.1299
  960MOL0     H32460   3.980   6.580   2.654  0.8395  0.5977 -0.0190
  960MOL0     H32461   3.771   6.515   2.537 -1.1252  0.9383 -2.4884
  960MOL0     H32462   3.588   6.487   2.097  0.4652  2.2867  1.2996
  960MOL0     H32463   3.414   6.382   1.976  0.5531 -0.9751  0.0034
  960MOL0     H32464   1.782   7.496   2.308  0.0452  1.2714  0.4100
  960MOL0     H32465   1.723   7.740   2.299  1.7125  0.1355 -0.2644
  960MOL0     H32466   1.886   8.140   2.200  1.3992 -0.0897  0.6279
  960MOL0     H32467   1.825   8.378   2.135 -4.8098  1.0489  0.0711
  960MOL0     H32468   1.856   8.647   2.445  4.3941 -6.2918 -0.7044
  960MOL0     H32469   1.930   8.630   2.285 -0.1346  0.9448 -2.3281
  960MOL0     H32470   1.865   8.866   2.367 -1.2119  0.3709  1.2232
  960MOL0     H32471   1.697   8.821   2.324  0.0969  3.4143 -0.1978
  960MOL0     H32472   1.942   8.867   2.144 -0.3377 -0.4545 -0.4344
  960MOL0     H32473   1.818   8.750   2.094 -0.9356 -0.6413  1.7962
  960MOL0     H32474   1.648   8.922   2.109 -0.3394 -0.9532 -1.8443
  960MOL0     H32475   1.785   8.980   2.007  2.7947  1.0008  0.9549
  960MOL0     H32476   1.747   9.293   2.285 -0.1387  0.9346 -1.5353
  960MOL0     H32477   1.700   8.445   2.542  1.8801 -0.8325  2.7020
  960MOL0     H32478   1.762   8.192   2.711  0.2743 -0.5032 -0.5206
  960MOL0     H32479   1.628   8.260   2.661  0.8082  0.9372 -0.0656
  960MOL0     H32480   1.648   8.092   2.606  1.1935  0.3561  0.2638
  961MOL0     O32481   8.320   2.196   3.084 -1.0327 -0.1318 -0.1939
  961MOL0     C32482   8.205   2.173   3.123 -0.3205  0.0095 -0.4193
  961MOL0     O32483   8.140   2.055   3.095  0.5410 -0.8638 -0.3025
  961MOL0     C32484   8.222   1.954   3.050 -0.1464 -1.1785 -0.7482
  961MOL0     C32485   8.283   1.874   3.143  0.6148  0.4468 -0.1486
  961MOL0     C32486   8.332   1.752   3.100  0.8916 -0.2142 -0.7814
  961MOL0     C32487   8.342   1.719   2.964 -0.3354  0.4855  0.2318
  961MOL0     O32488   8.397   1.590   2.936 -0.1354 -0.9951  0.0736
  961MOL0     C32489   8.454   1.578   2.810 -0.6867  0.4552  0.5258
  961MOL0     C32490   8.499   1.432   2.813 -0.0366  0.4775 -0.3797
  961MOL0     C32491   8.591   1.383   2.938  0.5282 -0.4196 -0.7108
  961MOL0     C32492   8.625   1.239   2.911 -0.5738  0.6456  0.2704
  961MOL0     C32493   8.680   1.174   3.045 -0.1960 -0.8782  0.0276
  961MOL0     C32494   8.764   1.048   3.019  0.5814  0.2008  0.0332
  961MOL0     C32495   8.829   1.010   3.161  0.3774  0.5550  0.2504
  961MOL0     C32496   8.846   0.852   3.175 -0.5789 -0.1817  0.5211
  961MOL0     N32497   8.929   0.799   3.073 -0.4839 -0.0877  0.2245
  961MOL0     C32498   9.065   0.836   3.067  0.5725  0.6669 -0.2960
  961MOL0     C32499   9.109   0.821   2.936 -0.2347 -0.6643 -0.3509
  961MOL0     C32500   9.251   0.856   2.885 -0.6581 -0.5081  0.0176
  961MOL0     C32501   9.260   0.838   2.727  1.0864  0.0838 -0.8532
  961MOL0     C32502   9.297   0.695   2.684  0.0856  0.5028 -0.2144
  961MOL0     C32503   9.281   0.686   2.533  0.7612 -0.0436  0.6047
  961MOL0     O32504   9.354   0.574   2.483  0.2882  0.4944  0.0411
  961MOL0     C32505   9.352   0.558   2.353 -0.1205 -0.4156 -0.0126
  961MOL0     C32506   9.442   0.465   2.315  0.5482 -0.3427  0.5786
  961MOL0     C32507   9.474   0.442   2.181  1.0674  0.1760  0.1971
  961MOL0     C32508   9.573   0.331   2.168 -0.5737 -0.8817  0.2997
  961MOL0     C32509   9.419   0.518   2.079  0.7044 -0.7576 -0.5636
  961MOL0     C32510   9.441   0.488   1.936 -0.6689 -0.0883 -0.1498
  961MOL0     O32511   9.343   0.508   1.846  0.2299 -0.0069 -0.7426
  961MOL0     C32512   9.352   0.467   1.711  1.4402 -0.2874  0.2840
  961MOL0     C32513   9.410   0.334   1.685  0.3458 -0.5688 -0.7142
  961MOL0     C32514   9.413   0.286   1.552 -0.4009 -0.3877 -0.5374
  961MOL0     C32515   9.362   0.371   1.449  0.5431 -0.3134 -1.1190
  961MOL0     O32516   9.384   0.345   1.318  0.0566 -0.1353  0.6555
  961MOL0     C32517   9.439   0.211   1.291  0.1835  0.2622 -0.1275
  961MOL0     C32518   9.450   0.187   1.142 -0.1602  0.5523  0.1796
  961MOL0     C32519   9.504   0.048   1.128 -0.2159  0.3673 -0.7580
  961MOL0     C32520   9.570   0.037   0.990  0.0375  0.4248 -0.6405
  961MOL0     C32521   9.580  -0.105   0.946 -0.5587  1.0296  0.2621
  961MOL0     C32522   9.445  -0.160   0.894  1.0038 -0.5757 -0.0391
  961MOL0     C32523   9.440  -0.306   0.878  0.9757 -1.3399 -0.4697
  961MOL0     C32524   9.316  -0.368   0.804 -1.1111 -0.2699 -0.7633
  961MOL0    Cl32525   9.173  -0.308   0.882 -0.3488 -0.3417 -0.0514
  961MOL0     C32526   9.305   0.491   1.472 -1.4535 -1.0659 -0.2403
  961MOL0     C32527   9.302   0.536   1.598  0.0874 -0.3726  0.5376
  961MOL0     O32528   9.557   0.443   1.912  0.3818  0.8183 -0.3655
  961MOL0     C32529   9.323   0.622   2.124  0.5506 -1.1348  0.1707
  961MOL0     C32530   9.295   0.638   2.253 -0.5994  0.4785 -0.5623
  961MOL0     N32531   8.996   0.793   2.861  0.8308 -0.0445 -0.3125
  961MOL0     N32532   8.891   0.789   2.942  0.0574 -0.5808 -0.7637
  961MOL0     C32533   8.275   1.811   2.872 -0.6648 -0.2080 -0.2908
  961MOL0     C32534   8.222   1.929   2.918  0.4329  0.4213 -0.3320
  961MOL0     C32535   8.129   2.275   3.211  0.4259  0.3033 -0.3907
  961MOL0     C32536   7.997   2.253   3.248 -0.5403  1.2588 -0.0099
  961MOL0     C32537   7.911   2.332   3.318  0.7445 -0.8850  0.5387
  961MOL0     C32538   7.957   2.462   3.355  0.2074  0.1640  0.8859
  961MOL0     O32539   7.871   2.549   3.424  0.4089  0.0305 -0.0077
  961MOL0     C32540   7.910   2.682   3.453 -0.0064  1.3499  0.1517
  961MOL0     C32541   7.783   2.759   3.474  0.7827  0.0170  0.0131
  961MOL0     C32542   7.812   2.902   3.532 -0.3202 -0.7013 -0.3715
  961MOL0     C32543   7.684   2.985   3.527  0.0894  0.0516 -0.0528
  961MOL0     C32544   7.698   3.135   3.529  0.2349  0.4367  0.5978
  961MOL0     C32545   7.705   3.256   3.541 -0.5569  0.2660 -0.2987
  961MOL0     C32546   8.093   2.485   3.316  0.7137 -0.1243  0.6270
  961MOL0     C32547   8.182   2.397   3.254  0.7322 -0.1426  0.1537
  961MOL0     C32548   8.324   2.443   3.235 -0.2445 -0.6986 -0.0509
  961MOL0     H32549   8.296   1.904   3.247 -0.5064 -3.1642  1.1726
  961MOL0     H32550   8.368   1.676   3.169 -1.7402 -1.9598 -1.1963
  961MOL0     H32551   8.540   1.642   2.788  0.0099 -0.3729  0.7949
  961MOL0     H32552   8.381   1.579   2.729 -0.5904 -0.6040  0.4221
  961MOL0     H32553   8.408   1.371   2.817 -0.1134  0.6809  1.4266
  961MOL0     H32554   8.555   1.419   2.719 -0.8516  2.7597 -1.2474
  961MOL0     H32555   8.678   1.447   2.954  0.2970 -0.6988  2.2242
  961MOL0     H32556   8.532   1.382   3.030 -0.7392  1.8031 -1.4050
  961MOL0     H32557   8.537   1.188   2.871 -0.4402  0.5570  0.0860
  961MOL0     H32558   8.708   1.224   2.842 -0.5099 -1.0410  0.6711
  961MOL0     H32559   8.594   1.146   3.107 -0.0644  2.3109  1.8840
  961MOL0     H32560   8.740   1.238   3.111 -2.8349  2.6181 -0.6244
  961MOL0     H32561   8.699   0.973   2.972  0.4105  1.9645 -2.8252
  961MOL0     H32562   8.850   1.067   2.954  0.8646 -0.7721  0.1028
  961MOL0     H32563   8.773   1.050   3.246 -0.4832  2.8491 -1.2847
  961MOL0     H32564   8.934   1.042   3.167  1.6306 -3.2148  1.4842
  961MOL0     H32565   8.875   0.838   3.279 -2.9410  1.5109  1.5114
  961MOL0     H32566   8.748   0.807   3.159  0.5426 -2.3571 -0.6186
  961MOL0     H32567   9.133   0.872   3.143  0.5694 -1.1144  0.6057
  961MOL0     H32568   9.339   0.804   2.924 -0.1328  1.7510  2.0808
  961MOL0     H32569   9.275   0.957   2.918 -0.6818  0.3310 -2.3449
  961MOL0     H32570   9.170   0.873   2.675  1.8959  1.1581 -1.5714
  961MOL0     H32571   9.349   0.898   2.705  2.1750  0.5712  3.8802
  961MOL0     H32572   9.402   0.688   2.713  0.1946 -1.1308 -0.8973
  961MOL0     H32573   9.245   0.607   2.724  3.5621 -0.9982  1.4337
  961MOL0     H32574   9.172   0.682   2.521  1.0480 -2.5343 -2.0177
  961MOL0     H32575   9.312   0.775   2.478 -0.1330 -0.7001 -1.0295
  961MOL0     H32576   9.489   0.402   2.390  0.4481 -0.4602  0.5443
  961MOL0     H32577   9.563   0.272   2.259 -0.7366 -0.0773  0.8100
  961MOL0     H32578   9.674   0.373   2.169 -1.7665  2.5716 -2.0933
  961MOL0     H32579   9.548   0.272   2.079 -0.7427 -2.7814  1.5655
  961MOL0     H32580   9.458   0.266   1.754  0.6825 -0.9969 -1.3569
  961MOL0     H32581   9.472   0.197   1.535 -1.7004 -1.8248  1.8761
  961MOL0     H32582   9.536   0.222   1.340  0.5979  1.3648 -1.1594
  961MOL0     H32583   9.384   0.128   1.336  0.1814  0.2251 -0.1992
  961MOL0     H32584   9.367   0.207   1.075  1.8462  0.5862 -2.4798
  961MOL0     H32585   9.521   0.261   1.103  1.2538 -1.5029 -1.4126
  961MOL0     H32586   9.419  -0.018   1.147 -0.5837  1.9157  4.1035
  961MOL0     H32587   9.582   0.024   1.200  1.6708 -0.0379 -2.8097
  961MOL0     H32588   9.673   0.073   0.988 -0.1144  0.9289  0.1683
  961MOL0     H32589   9.510   0.087   0.912 -2.0559  0.6376  1.0309
  961MOL0     H32590   9.654  -0.125   0.868  2.2338 -1.8074  3.3175
  961MOL0     H32591   9.619  -0.166   1.027 -0.3106 -1.1387 -1.3887
  961MOL0     H32592   9.414  -0.114   0.800 -0.0018 -0.5225  0.2986
  961MOL0     H32593   9.371  -0.133   0.971  2.0137 -0.7466  1.0194
  961MOL0     H32594   9.449  -0.352   0.977 -1.9849  1.6931  1.4128
  961MOL0     H32595   9.528  -0.331   0.818  1.0118 -3.2495  0.2896
  961MOL0     H32596   9.305  -0.473   0.833 -1.9100  0.6133  2.5221
  961MOL0     H32597   9.319  -0.351   0.696  1.6532  1.1090 -0.5452
  961MOL0     H32598   9.260   0.544   1.389 -2.2472 -0.5772  0.4717
  961MOL0     H32599   9.257   0.634   1.614 -2.3672 -1.5213  1.1394
  961MOL0     H32600   9.276   0.689   2.053 -0.6308 -0.7536  1.2801
  961MOL0     H32601   9.226   0.719   2.275 -2.0690 -0.4210 -1.6932
  961MOL0     H32602   8.267   1.782   2.767  0.2227 -0.3682 -0.3221
  961MOL0     H32603   8.160   1.991   2.854  0.0728  0.3568 -0.0462
  961MOL0     H32604   7.966   2.155   3.214  3.2838 -0.6410  1.4455
  961MOL0     H32605   7.807   2.307   3.338  0.2042 -0.3404 -1.4203
  961MOL0     H32606   7.973   2.683   3.543 -1.7950  5.4200  1.6317
  961MOL0     H32607   7.965   2.725   3.369 -0.8930  1.4083 -0.4134
  961MOL0     H32608   7.724   2.707   3.550 -0.4228 -0.2490 -1.0948
  961MOL0     H32609   7.717   2.763   3.388  0.0653 -0.5291  0.5324
  961MOL0     H32610   7.857   2.893   3.631  2.8875  1.6201 -1.4502
  961MOL0     H32611   7.881   2.950   3.462  0.2718 -1.1346 -0.0992
  961MOL0     H32612   7.626   2.977   3.619  0.6834 -0.0609  0.3158
  961MOL0     H32613   7.615   2.955   3.448  1.9339  0.3847 -1.8998
  961MOL0     H32614   7.726   3.361   3.552  2.3540 -0.3145  0.3807
  961MOL0     H32615   8.141   2.581   3.330 -1.2989  0.9229  0.8021
  961MOL0     H32616   8.358   2.511   3.313  0.8738 -1.7573  0.4209
  961MOL0     H32617   8.400   2.364   3.238  1.7163  1.1316  0.6101
  961MOL0     H32618   8.326   2.481   3.133  0.3173  2.6082  1.0710
  962MOL0     O32619   1.712   1.143   3.781  0.2189  1.0172  0.1796
  962MOL0     C32620   1.812   1.085   3.749  0.6894  0.4942  0.0289
  962MOL0     O32621   1.837   1.042   3.625  0.1978  1.2151 -0.5298
  962MOL0     C32622   1.809   1.126   3.515 -0.3159 -0.3558  0.2902
  962MOL0     C32623   1.778   1.071   3.393  0.3655  0.3909  0.5566
  962MOL0     C32624   1.755   1.159   3.279 -0.5519  0.8958  0.0334
  962MOL0     C32625   1.769   1.299   3.291 -0.1635 -0.5209 -0.5050
  962MOL0     O32626   1.754   1.386   3.181  0.4823  0.4982 -0.2086
  962MOL0     C32627   1.755   1.332   3.047  0.4662 -0.2536 -0.0458
  962MOL0     C32628   1.705   1.448   2.960  0.5230 -0.8821  0.8167
  962MOL0     C32629   1.722   1.423   2.809 -0.2227  0.2022 -0.1291
  962MOL0     C32630   1.862   1.435   2.768  0.3369  0.7635 -0.2116
  962MOL0     C32631   1.878   1.378   2.630  0.2424 -0.7628  0.2061
  962MOL0     C32632   1.776   1.442   2.533  0.3461 -0.0032  0.5514
  962MOL0     C32633   1.808   1.421   2.385  0.4190  0.1794 -0.8479
  962MOL0     C32634   1.769   1.277   2.345 -0.3951  0.9944  0.1323
  962MOL0     N32635   1.772   1.275   2.197 -0.1219  0.5490 -0.6189
  962MOL0     C32636   1.695   1.359   2.116  0.2385 -0.1106  0.2288
  962MOL0     C32637   1.720   1.318   1.990  1.0651 -0.5265 -0.2516
  962MOL0     C32638   1.661   1.386   1.871  0.9018 -0.0603  0.5877
  962MOL0     C32639   1.720   1.333   1.738 -0.1090  0.0763 -0.3977
  962MOL0     C32640   1.665   1.401   1.610 -0.2076  0.6683  0.4417
  962MOL0     C32641   1.751   1.325   1.495  0.4946 -0.4739  0.1938
  962MOL0     O32642   1.692   1.195   1.471 -0.2099  0.2436 -0.0873
  962MOL0     C32643   1.738   1.084   1.516  0.2399  0.5245  0.8614
  962MOL0     C32644   1.653   0.975   1.484  0.1220  0.2125  0.0680
  962MOL0     C32645   1.693   0.848   1.535 -0.2464  0.8218 -0.3951
  962MOL0     C32646   1.605   0.746   1.469 -0.3273  0.9826 -0.0976
  962MOL0     C32647   1.796   0.829   1.627 -0.2474  0.3531 -0.0055
  962MOL0     C32648   1.842   0.694   1.689  0.5909 -0.1822  0.0936
  962MOL0     O32649   1.957   0.689   1.759 -0.5310 -0.0842 -0.1040
  962MOL0     C32650   2.026   0.579   1.796 -0.7034 -0.1119  0.5652
  962MOL0     C32651   2.037   0.543   1.937 -0.7555  0.6793  0.4972
  962MOL0     C32652   2.119   0.437   1.973  0.4275  0.5557 -1.4709
  962MOL0     C32653   2.179   0.359   1.877  0.5055 -0.8696 -0.2336
  962MOL0     O32654   2.283   0.287   1.927 -0.1933  0.4435 -0.1686
  962MOL0     C32655   2.274   0.156   1.863  0.4496  0.4594  1.1881
  962MOL0     C32656   2.358   0.062   1.944  0.9920 -0.0202  0.1871
  962MOL0     C32657   2.413  -0.054   1.877 -0.1899 -1.2572 -0.6041
  962MOL0     C32658   2.509  -0.010   1.762 -0.5396 -0.9820 -0.5598
  962MOL0     C32659   2.616  -0.119   1.731  0.1733  0.0834 -0.6697
  962MOL0     C32660   2.701  -0.107   1.603 -0.2960 -0.1116  0.1584
  962MOL0     C32661   2.818  -0.012   1.638 -0.0436  0.6050 -0.6826
  962MOL0     C32662   2.945  -0.086   1.679 -0.3895 -0.1808 -0.0427
  962MOL0    Cl32663   3.072   0.040   1.694  0.3635  0.0142 -0.5509
  962MOL0     C32664   2.162   0.397   1.743  0.3099 -0.2320  0.6749
  962MOL0     C32665   2.088   0.505   1.697 -0.5862 -0.3920 -0.2990
  962MOL0     O32666   1.774   0.600   1.666  0.6044  0.1072  0.6553
  962MOL0     C32667   1.875   0.939   1.651 -0.7881 -0.0573 -0.4947
  962MOL0     C32668   1.841   1.064   1.614  0.2940 -1.2009  0.3770
  962MOL0     N32669   1.812   1.219   2.004 -0.6741  0.2388  0.3457
  962MOL0     N32670   1.845   1.196   2.123  0.6387  0.3126 -0.3484
  962MOL0     C32671   1.813   1.356   3.410  0.4102 -0.6588 -0.4372
  962MOL0     C32672   1.822   1.272   3.522  0.2490  0.6165 -0.9641
  962MOL0     C32673   1.897   1.026   3.856  0.6854  0.9697 -0.3386
  962MOL0     C32674   1.935   0.890   3.842 -0.2861  0.1230 -0.8658
  962MOL0     C32675   2.011   0.819   3.938  0.4738 -0.5563 -0.0086
  962MOL0     C32676   2.035   0.883   4.059 -0.0352 -1.1422  0.3743
  962MOL0     O32677   2.085   0.839   4.175  0.0717  0.7987  1.0556
  962MOL0     C32678   2.156   0.717   4.177 -0.4621 -0.2124 -0.2319
  962MOL0     C32679   2.086   0.602   4.249  0.2684  0.1033 -0.2888
  962MOL0     C32680   2.037   0.639   4.382  0.1363  0.1733 -0.3166
  962MOL0     C32681   1.959   0.512   4.433 -0.1580 -0.2894 -0.3622
  962MOL0     C32682   1.910   0.567   4.564  1.0383  0.3649 -0.5675
  962MOL0     C32683   1.884   0.606   4.679 -0.3113 -0.3171 -0.2175
  962MOL0     C32684   2.004   1.024   4.073  0.8223 -0.7291  0.1260
  962MOL0     C32685   1.937   1.093   3.978  0.1790 -0.1205  0.1588
  962MOL0     C32686   1.909   1.242   3.991 -0.3014 -0.8437  0.3035
  962MOL0     H32687   1.765   0.963   3.389 -0.5912  0.4159  2.1295
  962MOL0     H32688   1.715   1.105   3.194  2.6220 -2.8899  0.6511
  962MOL0     H32689   1.688   1.246   3.043  1.0739 -0.7049 -0.7260
  962MOL0     H32690   1.856   1.307   3.013  1.0875  1.5463  0.3941
  962MOL0     H32691   1.602   1.468   2.990  1.9217  1.1535  4.8780
  962MOL0     H32692   1.766   1.537   2.973  0.4665  0.3116 -4.6914
  962MOL0     H32693   1.680   1.322   2.808 -0.8702  0.4108  1.5051
  962MOL0     H32694   1.665   1.497   2.752  1.6276  0.2237 -2.0833
  962MOL0     H32695   1.886   1.540   2.753 -0.7875  1.0811  0.1685
  962MOL0     H32696   1.942   1.390   2.828  2.8135  2.2066 -2.2126
  962MOL0     H32697   1.862   1.270   2.643  0.9318 -0.8800  0.1462
  962MOL0     H32698   1.976   1.400   2.587 -0.7760  2.4506 -0.7427
  962MOL0     H32699   1.673   1.412   2.554 -0.6890  2.3877 -0.6224
  962MOL0     H32700   1.770   1.550   2.554 -2.0158  0.4483 -1.8418
  962MOL0     H32701   1.910   1.457   2.367  0.2969  1.9626  1.5122
  962MOL0     H32702   1.733   1.489   2.344 -0.9484  0.0142  1.2208
  962MOL0     H32703   1.828   1.198   2.392  2.4021  2.4796 -0.5822
  962MOL0     H32704   1.669   1.250   2.378  0.2870 -1.6274  0.2668
  962MOL0     H32705   1.634   1.441   2.155 -0.6843 -1.0870  0.9152
  962MOL0     H32706   1.665   1.495   1.859 -1.0205 -0.0541 -0.4399
  962MOL0     H32707   1.558   1.349   1.877 -0.6128  3.4434 -1.1571
  962MOL0     H32708   1.829   1.342   1.737  0.1411 -2.3283 -1.0981
  962MOL0     H32709   1.689   1.228   1.737  0.8907 -0.2394 -0.2461
  962MOL0     H32710   1.557   1.397   1.596 -0.0598  0.6632 -0.8130
  962MOL0     H32711   1.684   1.509   1.611 -0.6067  0.7662  2.6465
  962MOL0     H32712   1.749   1.396   1.411  2.1285 -0.4825  0.1114
  962MOL0     H32713   1.859   1.320   1.511  0.5422 -1.5375 -0.3845
  962MOL0     H32714   1.577   0.972   1.407 -0.1271 -2.3559  0.3363
  962MOL0     H32715   1.673   0.693   1.401  1.5548  0.9730  1.6839
  962MOL0     H32716   1.515   0.777   1.416 -2.2656  0.0386  2.4336
  962MOL0     H32717   1.575   0.674   1.547  3.2221  3.0207  3.5657
  962MOL0     H32718   1.986   0.609   2.007 -2.5087  1.0023 -1.0091
  962MOL0     H32719   2.122   0.402   2.076 -3.9156 -1.4699 -1.7845
  962MOL0     H32720   2.173   0.118   1.876  0.9056 -1.7004 -0.7527
  962MOL0     H32721   2.298   0.145   1.757 -1.4931 -1.7067  0.8995
  962MOL0     H32722   2.439   0.114   1.996  2.2136 -0.6794 -0.9614
  962MOL0     H32723   2.300   0.024   2.028 -1.2230  1.2022 -0.6994
  962MOL0     H32724   2.333  -0.118   1.836 -0.5139 -3.1615  2.6306
  962MOL0     H32725   2.460  -0.120   1.950 -0.0429 -1.6566 -1.0492
  962MOL0     H32726   2.572   0.072   1.797  1.2905 -2.3414 -0.5806
  962MOL0     H32727   2.464   0.031   1.670 -1.8418  4.6218  2.1182
  962MOL0     H32728   2.687  -0.129   1.814  0.9154  3.3828 -0.7446
  962MOL0     H32729   2.549  -0.204   1.718  0.4389 -0.3272  0.5716
  962MOL0     H32730   2.638  -0.068   1.522 -1.3392  0.6924  1.3187
  962MOL0     H32731   2.724  -0.207   1.567 -1.8461 -0.7004  0.7217
  962MOL0     H32732   2.783   0.063   1.710 -1.4177 -1.0011  0.3990
  962MOL0     H32733   2.850   0.021   1.539  2.6879 -0.6425 -0.3219
  962MOL0     H32734   2.965  -0.154   1.596  0.6148 -0.7793  0.6667
  962MOL0     H32735   2.928  -0.143   1.771  1.0348 -4.0292 -1.9154
  962MOL0     H32736   2.217   0.337   1.671 -0.1386  0.1726 -0.0197
  962MOL0     H32737   2.067   0.521   1.592 -0.1890  1.0850 -0.1848
  962MOL0     H32738   1.959   0.923   1.718 -0.0853  1.1759 -1.0529
  962MOL0     H32739   1.902   1.145   1.652 -1.2646  1.1411 -1.7542
  962MOL0     H32740   1.796   1.463   3.419 -1.9710 -0.9215 -1.1651
  962MOL0     H32741   1.857   1.309   3.618 -1.5370  1.1516 -0.4883
  962MOL0     H32742   1.905   0.832   3.755  0.1807  2.1640 -2.4594
  962MOL0     H32743   2.019   0.711   3.945 -3.4451 -0.9709  0.4735
  962MOL0     H32744   2.192   0.689   4.078  1.1049  1.2176 -0.1136
  962MOL0     H32745   2.245   0.738   4.236 -0.9935 -2.8080  1.6933
  962MOL0     H32746   2.151   0.514   4.255 -0.0579 -0.3097 -2.1603
  962MOL0     H32747   2.008   0.566   4.182  1.3275 -1.2835 -0.8130
  962MOL0     H32748   2.125   0.651   4.445 -1.8660  2.7266  2.2788
  962MOL0     H32749   1.980   0.732   4.376  1.1444  0.7225 -1.6634
  962MOL0     H32750   2.025   0.426   4.443 -0.9493 -0.8950 -0.3078
  962MOL0     H32751   1.872   0.491   4.371  0.2604 -2.7442 -0.1853
  962MOL0     H32752   1.852   0.637   4.777  0.4077  1.9843 -0.6658
  962MOL0     H32753   2.028   1.085   4.160  0.9142  0.4636 -0.7155
  962MOL0     H32754   1.803   1.266   3.978 -1.1877 -3.9413  0.9719
  962MOL0     H32755   1.940   1.259   4.094 -1.6667 -1.7834  0.8984
  962MOL0     H32756   1.961   1.298   3.913  0.5411 -3.7979 -1.4422
  963MOL0     O32757   2.982   6.094   1.513  0.2185 -0.2362  0.7768
  963MOL0     C32758   3.042   6.177   1.448 -0.0661 -0.8628 -0.1963
  963MOL0     O32759   3.155   6.235   1.497 -0.1737  0.2191 -0.5150
  963MOL0     C32760   3.219   6.330   1.426 -0.1761 -0.8731  0.5547
  963MOL0     C32761   3.160   6.459   1.401  0.1015 -0.3925 -0.3005
  963MOL0     C32762   3.239   6.556   1.327 -0.6908 -0.0973  0.6317
  963MOL0     C32763   3.369   6.526   1.287 -0.3053 -0.6776 -0.1690
  963MOL0     O32764   3.446   6.616   1.223  0.6193 -0.1565 -0.9384
  963MOL0     C32765   3.575   6.635   1.287 -0.3479 -0.0098 -0.0975
  963MOL0     C32766   3.671   6.737   1.220 -0.0003 -0.0090  0.1113
  963MOL0     C32767   3.795   6.757   1.304 -0.4783 -0.9651 -0.2389
  963MOL0     C32768   3.893   6.852   1.231  0.0274 -0.0978 -0.6818
  963MOL0     C32769   4.032   6.861   1.290 -0.1010 -0.0258 -0.0066
  963MOL0     C32770   4.034   6.931   1.427  0.5345  0.8054 -0.6431
  963MOL0     C32771   4.176   6.925   1.496 -0.4906  0.0015  0.3304
  963MOL0     C32772   4.285   7.016   1.419 -1.1178 -0.2457 -0.6878
  963MOL0     N32773   4.411   7.021   1.502  0.3268 -0.5125 -0.3722
  963MOL0     C32774   4.440   7.121   1.593 -0.8719 -0.3701 -0.3074
  963MOL0     C32775   4.543   7.064   1.655  0.5182  0.0931 -0.0629
  963MOL0     C32776   4.614   7.121   1.772 -0.3522  0.2203  1.0885
  963MOL0     C32777   4.722   7.226   1.728  0.1472 -0.8149  0.3635
  963MOL0     C32778   4.837   7.166   1.653 -0.6068  0.0420 -0.0578
  963MOL0     C32779   4.945   7.100   1.747  0.0777 -0.1907 -0.6098
  963MOL0     O32780   5.075   7.099   1.695 -0.0244 -0.0226 -0.0044
  963MOL0     C32781   5.173   7.202   1.712  0.1600  0.5417 -0.3008
  963MOL0     C32782   5.143   7.323   1.774  0.2956 -0.3077  0.1167
  963MOL0     C32783   5.246   7.411   1.828 -0.6759 -0.8308  0.7209
  963MOL0     C32784   5.208   7.516   1.931  0.9883  0.1148  0.8366
  963MOL0     C32785   5.378   7.386   1.788  0.7835 -0.0691  1.1267
  963MOL0     C32786   5.498   7.455   1.834  0.3740 -0.2096 -0.4971
  963MOL0     O32787   5.588   7.495   1.740  0.9012 -0.3200 -0.0249
  963MOL0     C32788   5.719   7.497   1.784  0.0382 -0.7534  0.3284
  963MOL0     C32789   5.755   7.586   1.881 -0.3723  0.2912 -0.6096
  963MOL0     C32790   5.885   7.584   1.934  0.5797 -0.3312 -0.1805
  963MOL0     C32791   5.986   7.503   1.878 -0.1130 -0.1563 -0.2848
  963MOL0     O32792   6.112   7.504   1.926 -0.6204 -0.9502 -0.3023
  963MOL0     C32793   6.220   7.512   1.829  0.8141 -1.1652 -1.2862
  963MOL0     C32794   6.313   7.629   1.869 -0.7428  0.7772  0.2966
  963MOL0     C32795   6.377   7.625   2.013  0.0045 -0.8034  1.1488
  963MOL0     C32796   6.381   7.765   2.071 -0.4755  1.2711 -0.1042
  963MOL0     C32797   6.256   7.805   2.139  0.7435 -0.0154  0.0169
  963MOL0     C32798   6.238   7.741   2.271  0.3550 -0.2520  0.2029
  963MOL0     C32799   6.109   7.794   2.345  1.2347  0.9911  0.9041
  963MOL0     C32800   5.986   7.732   2.283 -0.7809 -0.0397 -0.0171
  963MOL0    Cl32801   5.903   7.856   2.184  0.0085  0.0831  0.3357
  963MOL0     C32802   5.945   7.410   1.771  0.1117 -0.8964 -0.3745
  963MOL0     C32803   5.814   7.408   1.728  0.3382 -0.2338 -0.0619
  963MOL0     O32804   5.518   7.446   1.956  0.1094 -0.6207  0.1502
  963MOL0     C32805   5.406   7.272   1.700 -0.2611  0.1108  0.4938
  963MOL0     C32806   5.304   7.180   1.665  0.3432  0.1052  0.6970
  963MOL0     N32807   4.570   6.939   1.600 -0.7734 -0.4757 -0.0070
  963MOL0     N32808   4.497   6.913   1.508  1.4092 -0.5378  0.6326
  963MOL0     C32809   3.411   6.395   1.295 -0.0435 -0.5174 -0.1580
  963MOL0     C32810   3.341   6.295   1.369  0.8183 -0.6720  0.6367
  963MOL0     C32811   2.999   6.194   1.306 -0.1258 -0.5804  0.6249
  963MOL0     C32812   3.087   6.184   1.201  0.1282 -0.8948  0.5683
  963MOL0     C32813   3.042   6.206   1.075  1.0878 -0.4564  0.0094
  963MOL0     C32814   2.908   6.244   1.050 -0.7303 -0.4922  0.3073
  963MOL0     O32815   2.865   6.271   0.926 -0.5161  0.2202  0.0370
  963MOL0     C32816   2.878   6.410   0.904  0.4506  0.5314  0.8443
  963MOL0     C32817   2.758   6.451   0.810  0.6970  0.1650  0.1008
  963MOL0     C32818   2.792   6.573   0.721  1.2575  0.1870 -0.1819
  963MOL0     C32819   2.663   6.657   0.709 -0.5446  0.1527  0.2926
  963MOL0     C32820   2.646   6.733   0.836 -0.3337  0.7469  0.1256
  963MOL0     C32821   2.635   6.806   0.926  0.1080  0.9396 -0.6248
  963MOL0     C32822   2.811   6.259   1.147 -0.6143  0.5768  0.2356
  963MOL0     C32823   2.860   6.229   1.277 -0.2395 -0.5907 -0.7666
  963MOL0     C32824   2.755   6.232   1.384 -0.0558 -0.1236  0.3819
  963MOL0     H32825   3.070   6.492   1.451  2.5882  3.4881  2.1406
  963MOL0     H32826   3.198   6.654   1.304  0.2611  0.4607  1.2539
  963MOL0     H32827   3.624   6.538   1.296 -2.0225 -0.7294  2.2830
  963MOL0     H32828   3.547   6.675   1.386 -1.0442  1.1854 -0.7511
  963MOL0     H32829   3.691   6.703   1.118 -3.7119  0.7140 -0.9896
  963MOL0     H32830   3.614   6.830   1.212  0.5177  0.4485  1.3739
  963MOL0     H32831   3.761   6.805   1.396  1.6664  2.5489 -1.0734
  963MOL0     H32832   3.838   6.664   1.342 -3.5193 -2.2516  0.3156
  963MOL0     H32833   3.917   6.819   1.129 -2.4309  0.2519 -1.4402
  963MOL0     H32834   3.844   6.950   1.224 -1.6081 -0.8706 -0.4522
  963MOL0     H32835   4.085   6.940   1.236  0.9975 -1.2810 -0.8525
  963MOL0     H32836   4.096   6.772   1.295  0.6789  0.5718  1.7775
  963MOL0     H32837   4.005   7.036   1.419  0.0629  0.9921  2.3400
  963MOL0     H32838   3.965   6.880   1.495  0.7116 -1.3090 -1.9839
  963MOL0     H32839   4.215   6.824   1.486  2.2740  0.9498  0.6104
  963MOL0     H32840   4.177   6.958   1.600  2.1195 -1.6193  0.8895
  963MOL0     H32841   4.317   6.976   1.323  3.3650 -0.1371  0.5356
  963MOL0     H32842   4.233   7.112   1.409 -2.1348 -0.6479  0.6016
  963MOL0     H32843   4.395   7.218   1.612  0.1510  0.3467 -1.3738
  963MOL0     H32844   4.644   7.043   1.843 -2.3541 -1.9781 -0.3524
  963MOL0     H32845   4.536   7.178   1.824  3.0217  4.0076  2.5386
  963MOL0     H32846   4.683   7.305   1.662 -0.5657 -0.7054  0.8915
  963MOL0     H32847   4.767   7.279   1.813  0.0000 -1.2273  0.7055
  963MOL0     H32848   4.796   7.096   1.580 -0.6687 -1.7034  1.5729
  963MOL0     H32849   4.899   7.244   1.608  2.5038 -1.6464  1.0465
  963MOL0     H32850   4.951   7.153   1.842 -0.5210  0.2833 -0.8342
  963MOL0     H32851   4.924   6.997   1.779  1.8893 -0.4228 -0.0623
  963MOL0     H32852   5.039   7.345   1.793  0.5895  2.5266 -1.0862
  963MOL0     H32853   5.274   7.512   2.018  1.5056 -0.6460  0.4308
  963MOL0     H32854   5.107   7.497   1.966  0.9376  0.9925  1.1995
  963MOL0     H32855   5.210   7.619   1.895 -3.3865  1.3370  3.4001
  963MOL0     H32856   5.682   7.652   1.927 -2.9340  0.2864 -4.2891
  963MOL0     H32857   5.906   7.654   2.014  0.6543  0.9171 -1.2602
  963MOL0     H32858   6.272   7.416   1.832 -0.0889 -1.6424  0.5145
  963MOL0     H32859   6.187   7.521   1.725  0.7071 -1.0484 -1.2428
  963MOL0     H32860   6.392   7.630   1.793 -1.6159 -4.3535 -1.0376
  963MOL0     H32861   6.253   7.721   1.863 -5.2866 -1.8398  0.7345
  963MOL0     H32862   6.482   7.594   2.003  0.8593  2.0578  0.3748
  963MOL0     H32863   6.321   7.552   2.072  1.3081 -1.2167  1.9301
  963MOL0     H32864   6.400   7.835   1.990  0.4875  2.3510  1.0190
  963MOL0     H32865   6.457   7.772   2.149  0.4463  2.1815 -1.0593
  963MOL0     H32866   6.248   7.913   2.155 -5.0564 -0.3340  1.5664
  963MOL0     H32867   6.174   7.793   2.068  1.8892 -0.9790 -1.1882
  963MOL0     H32868   6.327   7.767   2.329 -0.4564 -2.4095  2.6196
  963MOL0     H32869   6.241   7.632   2.274  2.8343 -0.2367  3.5809
  963MOL0     H32870   6.105   7.903   2.331  3.1187  0.9612 -0.3891
  963MOL0     H32871   6.109   7.770   2.451 -1.1732 -1.0183  0.5529
  963MOL0     H32872   5.917   7.692   2.358 -0.7290  0.1877  0.1517
  963MOL0     H32873   6.005   7.645   2.220 -0.1954  0.7377 -0.9439
  963MOL0     H32874   6.019   7.337   1.742 -0.9504 -2.2443  0.1809
  963MOL0     H32875   5.787   7.345   1.643  0.6713  1.3187 -1.3733
  963MOL0     H32876   5.507   7.242   1.675 -0.7712 -1.5283  0.2841
  963MOL0     H32877   5.330   7.080   1.633  0.1982  0.2906 -0.0345
  963MOL0     H32878   3.505   6.362   1.253  0.0606 -0.3439 -0.0654
  963MOL0     H32879   3.373   6.191   1.372  1.8621 -0.6098 -2.8591
  963MOL0     H32880   3.191   6.152   1.212 -0.0554 -3.1151 -2.6233
  963MOL0     H32881   3.108   6.199   0.990  1.4499 -0.1290  0.2556
  963MOL0     H32882   2.875   6.464   0.999  0.8117 -1.1810  1.8620
  963MOL0     H32883   2.973   6.432   0.854 -1.5155  5.5158 -1.3690
  963MOL0     H32884   2.669   6.458   0.873 -0.7517  0.6948 -1.8858
  963MOL0     H32885   2.748   6.370   0.737 -2.5016  0.4752  0.0838
  963MOL0     H32886   2.870   6.630   0.771 -0.9707 -0.1129  4.0813
  963MOL0     H32887   2.828   6.542   0.622  1.1930  2.4218 -0.9516
  963MOL0     H32888   2.570   6.604   0.688 -1.4034  1.5008  0.5817
  963MOL0     H32889   2.684   6.738   0.640 -1.8995 -0.9718 -1.5325
  963MOL0     H32890   2.634   6.896   0.984 -1.4747  1.6184 -1.6294
  963MOL0     H32891   2.706   6.276   1.123 -1.3308 -1.6665  1.4847
  963MOL0     H32892   2.654   6.246   1.345 -0.0766  0.4229  0.6081
  963MOL0     H32893   2.744   6.148   1.453 -1.9039  1.4985  2.2203
  963MOL0     H32894   2.781   6.311   1.456  0.9080  0.2982 -0.4020
  964MOL0     O32895  11.120   1.342   3.926  0.9018  1.1657  0.3701
  964MOL0     C32896  11.197   1.377   3.832  0.4015 -0.1424 -0.3015
  964MOL0     O32897  11.334   1.344   3.818  0.1010 -0.1764  0.5732
  964MOL0     C32898  11.383   1.282   3.934 -1.0109  0.0291 -0.2375
  964MOL0     C32899  11.349   1.299   4.077  0.0467  0.1082 -0.3388
  964MOL0     C32900  11.430   1.247   4.174 -0.6130 -0.3082  0.4155
  964MOL0     C32901  11.535   1.157   4.138 -0.0516  0.6864  0.4460
  964MOL0     O32902  11.612   1.094   4.238 -0.7302  0.0333 -0.1672
  964MOL0     C32903  11.533   1.010   4.332 -0.6677 -0.3391  0.6673
  964MOL0     C32904  11.584   1.031   4.470 -0.1915  0.0787 -0.6257
  964MOL0     C32905  11.508   1.154   4.541  0.0061  0.6379  0.1380
  964MOL0     C32906  11.525   1.166   4.685  0.5420  0.2335 -0.9621
  964MOL0     C32907  11.460   1.284   4.752  0.0642 -0.3678  0.0828
  964MOL0     C32908  11.321   1.290   4.730  1.6977  0.3315 -0.0129
  964MOL0     C32909  11.248   1.409   4.804 -0.1442  0.4255 -0.6664
  964MOL0     C32910  11.278   1.556   4.762 -0.0796  0.9919  0.3065
  964MOL0     N32911  11.264   1.582   4.620  0.7407  0.0066  0.2827
  964MOL0     C32912  11.155   1.659   4.574  0.4493  0.8235  0.7952
  964MOL0     C32913  11.134   1.642   4.441  0.2680 -0.3957  0.4212
  964MOL0     C32914  11.032   1.704   4.353 -0.0333 -0.6431 -0.0997
  964MOL0     C32915  11.019   1.640   4.204 -0.2818  0.3819  0.4295
  964MOL0     C32916  10.936   1.506   4.211 -0.4906  0.0877 -0.7011
  964MOL0     C32917  10.790   1.512   4.249  0.4416  0.8505 -0.3163
  964MOL0     O32918  10.699   1.599   4.175 -0.5603 -0.1071  0.5672
  964MOL0     C32919  10.680   1.579   4.044  0.7102 -0.2516 -0.8571
  964MOL0     C32920  10.707   1.471   3.967 -0.5732  0.2283 -0.4431
  964MOL0     C32921  10.670   1.459   3.827 -0.4966  0.5742  0.6434
  964MOL0     C32922  10.705   1.337   3.749 -0.2269 -0.8128  0.4643
  964MOL0     C32923  10.587   1.561   3.770  0.9607  0.1332 -0.7320
  964MOL0     C32924  10.535   1.558   3.632  0.9991  0.0751  0.9807
  964MOL0     O32925  10.602   1.486   3.537  0.5430  1.4070  0.3724
  964MOL0     C32926  10.573   1.493   3.401 -0.3712  0.3053 -0.1516
  964MOL0     C32927  10.628   1.387   3.323  0.5089 -0.6612 -0.4637
  964MOL0     C32928  10.611   1.378   3.187  1.5134 -0.4089 -0.1508
  964MOL0     C32929  10.534   1.473   3.118  1.0093 -0.8090  0.0276
  964MOL0     O32930  10.530   1.449   2.978  0.1273 -0.7057  0.0666
  964MOL0     C32931  10.411   1.511   2.914  0.3790 -0.0489  0.4583
  964MOL0     C32932  10.356   1.424   2.806 -0.0666  0.3625  0.3851
  964MOL0     C32933  10.442   1.411   2.677  0.0492 -0.3655 -0.1022
  964MOL0     C32934  10.393   1.293   2.583  0.7538  0.5894 -0.1562
  964MOL0     C32935  10.251   1.310   2.533 -0.6965  0.9480  0.9933
  964MOL0     C32936  10.203   1.194   2.437  0.0148  0.0401 -0.3408
  964MOL0     C32937  10.213   1.054   2.497  0.3698  0.5801 -0.0709
  964MOL0     C32938  10.157   0.930   2.416 -0.0360 -0.1203 -0.5642
  964MOL0    Cl32939  10.270   0.870   2.275 -0.2699  0.2190  0.1499
  964MOL0     C32940  10.475   1.584   3.193 -0.9721  0.1551  0.3490
  964MOL0     C32941  10.494   1.586   3.330 -1.1848 -0.0999 -0.2803
  964MOL0     O32942  10.422   1.612   3.613 -0.3586  0.5423 -0.2602
  964MOL0     C32943  10.557   1.681   3.853  1.6039  0.1348 -0.1110
  964MOL0     C32944  10.609   1.678   3.984  0.0392 -1.2384  0.3857
  964MOL0     N32945  11.227   1.546   4.407 -0.1587  0.7079  0.0373
  964MOL0     N32946  11.312   1.517   4.503 -0.5288  0.6313 -0.0149
  964MOL0     C32947  11.572   1.136   4.005  0.0513  0.4322 -0.6860
  964MOL0     C32948  11.489   1.193   3.907 -0.0765  0.4732 -0.4134
  964MOL0     C32949  11.136   1.452   3.724  0.0210  0.5339  0.5890
  964MOL0     C32950  11.024   1.536   3.753 -0.3125 -0.7487  0.0596
  964MOL0     C32951  10.964   1.617   3.656 -0.1828  0.3243  0.0609
  964MOL0     C32952  11.015   1.622   3.526 -0.5436 -0.3319 -0.8830
  964MOL0     O32953  10.965   1.707   3.434  0.2631  0.7114 -0.5850
  964MOL0     C32954  10.848   1.646   3.371 -0.7736  0.2420  0.1282
  964MOL0     C32955  10.785   1.756   3.283 -0.0169  0.5698  0.5540
  964MOL0     C32956  10.714   1.857   3.375  0.1923  1.4406 -0.1703
  964MOL0     C32957  10.637   1.953   3.284 -0.1737 -0.3965  0.1735
  964MOL0     C32958  10.722   2.060   3.219  0.0660 -0.4007  0.0122
  964MOL0     C32959  10.780   2.137   3.147  0.0605 -0.2722  0.2028
  964MOL0     C32960  11.117   1.535   3.489 -0.6968  0.9583 -0.2179
  964MOL0     C32961  11.178   1.448   3.581  1.0995  0.6891  0.7737
  964MOL0     C32962  11.268   1.349   3.519  0.1095  0.3793  0.2249
  964MOL0     H32963  11.269   1.366   4.109  0.5538  0.0256  1.1766
  964MOL0     H32964  11.405   1.262   4.279 -0.4000 -2.6584  0.8531
  964MOL0     H32965  11.555   0.912   4.288 -4.1914 -1.0836  0.2913
  964MOL0     H32966  11.427   1.030   4.317 -0.3086  1.5854  0.3480
  964MOL0     H32967  11.562   0.936   4.519 -1.9081  1.1804  0.8864
  964MOL0     H32968  11.693   1.027   4.477 -0.2791 -3.5303  0.5677
  964MOL0     H32969  11.540   1.244   4.486 -1.5975 -0.1928 -2.3128
  964MOL0     H32970  11.401   1.143   4.524 -0.1105  1.8932 -0.1004
  964MOL0     H32971  11.480   1.081   4.738  3.0000 -2.1012 -2.3614
  964MOL0     H32972  11.628   1.162   4.721  0.0983 -0.0021  0.3438
  964MOL0     H32973  11.506   1.377   4.718  2.8791 -0.1400  3.9342
  964MOL0     H32974  11.464   1.273   4.860 -4.6296 -0.9380  0.4427
  964MOL0     H32975  11.287   1.300   4.627 -1.9333  2.0144  1.1698
  964MOL0     H32976  11.283   1.192   4.763  2.7964  0.2375  1.0528
  964MOL0     H32977  11.260   1.390   4.911 -0.1797 -0.5342 -0.8254
  964MOL0     H32978  11.140   1.400   4.785  0.2867 -1.6096 -2.6321
  964MOL0     H32979  11.212   1.623   4.818 -2.0232 -1.6833  1.4722
  964MOL0     H32980  11.375   1.590   4.797 -0.5362  1.4886  1.1155
  964MOL0     H32981  11.108   1.747   4.616  1.3868  2.1094 -0.7079
  964MOL0     H32982  11.050   1.811   4.347  3.1985 -1.1225 -0.7597
  964MOL0     H32983  10.934   1.693   4.401 -0.9464  0.1500 -1.7019
  964MOL0     H32984  10.983   1.712   4.130 -0.4318 -0.4306 -0.3100
  964MOL0     H32985  11.120   1.611   4.174 -0.5042 -0.8373  0.7846
  964MOL0     H32986  10.943   1.451   4.117  1.0543  0.4743 -0.8357
  964MOL0     H32987  10.975   1.438   4.288  1.7812  0.2559 -1.6501
  964MOL0     H32988  10.750   1.410   4.248 -0.5610  0.8623  5.3505
  964MOL0     H32989  10.782   1.546   4.352  0.5357  1.7774 -0.6081
  964MOL0     H32990  10.769   1.391   4.006  1.5754  2.9313  2.1396
  964MOL0     H32991  10.616   1.279   3.721 -1.1770  1.0031 -0.4972
  964MOL0     H32992  10.772   1.274   3.807  0.0469 -0.1097  0.9287
  964MOL0     H32993  10.760   1.361   3.657  0.9573 -0.3081  1.2750
  964MOL0     H32994  10.681   1.303   3.368  1.5746  0.9644  1.4799
  964MOL0     H32995  10.651   1.284   3.150 -0.8845 -1.4826 -0.2524
  964MOL0     H32996  10.332   1.532   2.987 -1.0728 -0.6382 -0.8754
  964MOL0     H32997  10.441   1.603   2.864 -1.2124 -0.0505 -0.5450
  964MOL0     H32998  10.347   1.324   2.849  2.2004  0.0899  0.3450
  964MOL0     H32999  10.258   1.461   2.774 -0.7073 -1.0642  0.6038
  964MOL0     H33000  10.544   1.379   2.701 -1.0133 -2.7490  1.7131
  964MOL0     H33001  10.441   1.505   2.621  0.2962 -0.3766 -0.1282
  964MOL0     H33002  10.393   1.195   2.633 -0.7034  1.4751  1.7410
  964MOL0     H33003  10.470   1.276   2.508 -2.2354  0.2379 -3.3647
  964MOL0     H33004  10.177   1.321   2.613 -1.5161  1.1628  0.2231
  964MOL0     H33005  10.258   1.400   2.472 -0.9170  0.8595  0.8342
  964MOL0     H33006  10.265   1.194   2.347 -3.6796  1.3089 -3.1393
  964MOL0     H33007  10.098   1.211   2.410 -0.8418 -4.2785 -0.5413
  964MOL0     H33008  10.149   1.068   2.584 -0.9487  1.9251 -1.1782
  964MOL0     H33009  10.316   1.037   2.528  0.5975 -0.4221 -1.3022
  964MOL0     H33010  10.052   0.944   2.387 -0.2834 -1.6838 -0.5048
  964MOL0     H33011  10.154   0.851   2.491 -0.2708 -2.8049 -3.2088
  964MOL0     H33012  10.416   1.661   3.145 -2.0152  0.0392  1.3878
  964MOL0     H33013  10.439   1.665   3.380 -3.6101 -1.1483 -1.1443
  964MOL0     H33014  10.490   1.761   3.825  1.9969 -0.1957 -2.1772
  964MOL0     H33015  10.589   1.767   4.043  0.1761 -0.1148 -1.1954
  964MOL0     H33016  11.654   1.066   3.987  0.1260  0.0844  0.8567
  964MOL0     H33017  11.507   1.184   3.800 -1.7249  1.4005 -0.8058
  964MOL0     H33018  10.970   1.539   3.847  1.4858 -1.2387  1.1635
  964MOL0     H33019  10.872   1.671   3.674 -0.6526 -1.4679  4.1353
  964MOL0     H33020  10.870   1.553   3.319  1.4880  0.7710  0.0380
  964MOL0     H33021  10.781   1.615   3.451 -2.9173  1.5086 -1.0751
  964MOL0     H33022  10.712   1.702   3.222 -0.7060 -1.9174  3.3871
  964MOL0     H33023  10.859   1.814   3.226 -2.4042  3.8504  0.4911
  964MOL0     H33024  10.639   1.802   3.433  0.4805 -3.0505 -3.5596
  964MOL0     H33025  10.794   1.903   3.434  3.3874 -1.7845 -1.6701
  964MOL0     H33026  10.557   2.002   3.340  0.5261  0.6672  0.2975
  964MOL0     H33027  10.593   1.884   3.213 -2.1693  1.2730 -0.2967
  964MOL0     H33028  10.849   2.187   3.082 -0.6107  0.1689 -0.1781
  964MOL0     H33029  11.131   1.548   3.382 -1.4890  1.4254 -0.2776
  964MOL0     H33030  11.260   1.361   3.411 -0.1034 -0.4247  0.1514
  964MOL0     H33031  11.366   1.392   3.546  0.3596  0.4064 -0.6989
  964MOL0     H33032  11.260   1.247   3.556 -0.9751 -0.4075 -2.0136
  965MOL0     O33033   7.220   0.475   1.718  0.0357 -0.6501  0.3242
  965MOL0     C33034   7.199   0.589   1.678 -0.7534  0.4869  0.1569
  965MOL0     O33035   7.080   0.634   1.642  0.7648  1.2012 -0.2249
  965MOL0     C33036   6.993   0.554   1.564  0.6555 -1.1726 -0.4400
  965MOL0     C33037   7.042   0.453   1.480 -0.4389 -1.5159 -0.2777
  965MOL0     C33038   6.951   0.380   1.406  0.6771  0.2648  0.4435
  965MOL0     C33039   6.808   0.401   1.414  0.1534 -0.8559 -0.2584
  965MOL0     O33040   6.723   0.311   1.350 -0.4338  0.6208  0.6576
  965MOL0     C33041   6.600   0.342   1.294 -0.1513 -0.3088 -0.4447
  965MOL0     C33042   6.522   0.223   1.242 -1.4167 -0.3561  0.2295
  965MOL0     C33043   6.582   0.168   1.115 -0.4941  0.6904 -0.1190
  965MOL0     C33044   6.525   0.028   1.079  0.8283  0.0868  0.3295
  965MOL0     C33045   6.375   0.038   1.038 -0.3152  0.0353 -0.7644
  965MOL0     C33046   6.319  -0.093   1.024  0.7730  0.0336 -1.2388
  965MOL0     C33047   6.167  -0.091   1.000 -0.6900 -0.3045  0.5345
  965MOL0     C33048   6.140  -0.071   0.850 -0.2338 -0.0462  0.7083
  965MOL0     N33049   5.999  -0.071   0.811  0.1449  0.4447 -0.3892
  965MOL0     C33050   5.958  -0.038   0.685  0.4596 -0.9443 -0.1345
  965MOL0     C33051   5.829  -0.078   0.677 -0.6281  0.6028  1.4080
  965MOL0     C33052   5.749  -0.060   0.548  0.9206 -0.7920 -0.4027
  965MOL0     C33053   5.622   0.018   0.577  0.6108  0.1126  0.1229
  965MOL0     C33054   5.558   0.060   0.445  0.0619  0.1806  0.1412
  965MOL0     C33055   5.612   0.199   0.401 -1.0154  0.6242  0.3971
  965MOL0     O33056   5.665   0.185   0.269 -0.8684  0.0117  0.3732
  965MOL0     C33057   5.701   0.288   0.192 -0.4858 -0.5080 -0.7654
  965MOL0     C33058   5.687   0.428   0.218  0.9466  0.2626 -0.1422
  965MOL0     C33059   5.700   0.519   0.109  0.3078  0.1156 -0.2342
  965MOL0     C33060   5.691   0.672   0.141  0.9091  0.6293  0.7514
  965MOL0     C33061   5.734   0.474  -0.018 -0.2636  1.0220  0.1482
  965MOL0     C33062   5.755   0.568  -0.144 -0.3384  0.4584 -1.1937
  965MOL0     O33063   5.876   0.588  -0.202  0.3618 -0.3198  0.0513
  965MOL0     C33064   5.894   0.679  -0.303  0.9813 -1.0880 -0.3297
  965MOL0     C33065   5.850   0.808  -0.286  0.0523  0.0918  0.0604
  965MOL0     C33066   5.889   0.904  -0.381  0.5054 -0.2186  0.2810
  965MOL0     C33067   5.944   0.863  -0.508  0.2244 -0.1219 -0.1585
  965MOL0     O33068   5.973   0.941  -0.614  0.7523 -0.1435  0.3875
  965MOL0     C33069   5.949   1.085  -0.607  0.9733 -0.1088 -0.0488
  965MOL0     C33070   6.001   1.141  -0.739 -0.2128  0.3086  0.1372
  965MOL0     C33071   6.005   1.297  -0.747  0.3314 -0.6086  0.2196
  965MOL0     C33072   6.045   1.359  -0.879  0.5920 -0.6535  0.0538
  965MOL0     C33073   5.979   1.494  -0.889 -0.2274 -0.0803 -0.6757
  965MOL0     C33074   5.999   1.569  -1.025 -0.5052 -0.3824  0.9301
  965MOL0     C33075   5.897   1.519  -1.137 -0.5436  0.2480 -0.1471
  965MOL0     C33076   5.887   1.601  -1.268 -0.8635  0.7681 -0.1788
  965MOL0    Cl33077   6.059   1.632  -1.334  0.1706  0.2353 -0.4752
  965MOL0     C33078   5.967   0.731  -0.526  0.2298 -0.1496 -0.5343
  965MOL0     C33079   5.943   0.637  -0.422 -0.2731 -0.2369  0.9848
  965MOL0     O33080   5.655   0.623  -0.177  0.5878  0.5084 -0.3333
  965MOL0     C33081   5.757   0.345  -0.036 -0.5464  0.2812 -0.1388
  965MOL0     C33082   5.744   0.248   0.072  0.5976 -0.1044  0.3276
  965MOL0     N33083   5.804  -0.148   0.792 -0.6274  0.2144  0.0291
  965MOL0     N33084   5.901  -0.141   0.875 -0.3848 -0.4276 -1.0267
  965MOL0     C33085   6.767   0.500   1.502  0.2215  0.4769 -0.7121
  965MOL0     C33086   6.853   0.582   1.574 -0.6262 -0.5100 -0.7409
  965MOL0     C33087   7.331   0.669   1.666 -0.0497  0.6509 -1.2173
  965MOL0     C33088   7.452   0.624   1.735  0.8781 -0.1792  0.7730
  965MOL0     C33089   7.572   0.689   1.706 -0.5621 -0.2838  0.8491
  965MOL0     C33090   7.577   0.795   1.621 -0.4135 -0.6587 -0.8487
  965MOL0     O33091   7.695   0.860   1.602  0.3991 -0.2607 -0.2569
  965MOL0     C33092   7.700   0.992   1.674 -0.0631  0.1262  1.0565
  965MOL0     C33093   7.704   0.983   1.831 -0.2504  0.4008 -0.1793
  965MOL0     C33094   7.695   1.128   1.894 -0.0101 -0.1162 -0.4477
  965MOL0     C33095   7.839   1.191   1.919  0.6467 -0.2905  0.1585
  965MOL0     C33096   7.945   1.106   1.974 -0.2882 -0.3884  0.0788
  965MOL0     C33097   8.034   1.043   2.033  0.6774  1.0012  0.7855
  965MOL0     C33098   7.466   0.840   1.562  0.5298  0.3999  0.0416
  965MOL0     C33099   7.346   0.783   1.583 -0.0523 -0.3460 -0.8186
  965MOL0     C33100   7.229   0.838   1.516  1.0719 -0.9890 -0.5846
  965MOL0     H33101   7.146   0.425   1.465 -0.5681 -0.8896 -2.8574
  965MOL0     H33102   6.974   0.292   1.346  1.8466  1.1425 -0.4604
  965MOL0     H33103   6.609   0.401   1.203  0.2949  0.8262  0.3139
  965MOL0     H33104   6.533   0.394   1.364 -1.3862 -0.8035 -1.2176
  965MOL0     H33105   6.524   0.144   1.317  4.3375 -0.2047  0.6760
  965MOL0     H33106   6.420   0.250   1.210 -0.2503  1.8804 -1.9875
  965MOL0     H33107   6.550   0.231   1.031 -0.9316  0.2675 -0.2764
  965MOL0     H33108   6.691   0.160   1.122 -0.2494  0.9729 -2.7447
  965MOL0     H33109   6.571  -0.016   0.990 -1.6380 -0.6854 -0.6393
  965MOL0     H33110   6.535  -0.042   1.163 -0.9059  0.1050  0.5922
  965MOL0     H33111   6.361   0.097   0.947  1.6421  1.8586  0.0345
  965MOL0     H33112   6.324   0.094   1.116  0.1258 -0.1986 -0.3016
  965MOL0     H33113   6.364  -0.136   0.934 -0.4767 -1.5211 -1.1755
  965MOL0     H33114   6.337  -0.152   1.115 -4.2167  0.1650  0.1391
  965MOL0     H33115   6.123  -0.021   1.072 -1.2077 -1.6024  1.5325
  965MOL0     H33116   6.125  -0.189   1.028 -2.5688 -0.0942 -1.2979
  965MOL0     H33117   6.180   0.029   0.829  0.1577 -0.5730 -1.2656
  965MOL0     H33118   6.195  -0.139   0.785  0.7384 -0.8740  2.3468
  965MOL0     H33119   6.019   0.017   0.614 -0.8036  1.8968  0.8263
  965MOL0     H33120   5.729  -0.156   0.499 -1.7097  0.4600 -1.9479
  965MOL0     H33121   5.809  -0.001   0.479  0.4464  0.8708  0.5524
  965MOL0     H33122   5.545  -0.031   0.637 -0.0236  1.6625  0.6291
  965MOL0     H33123   5.652   0.103   0.640 -0.0811  1.0256 -0.7347
  965MOL0     H33124   5.571  -0.019   0.371  1.1840  0.1566  0.3466
  965MOL0     H33125   5.452   0.082   0.460 -0.7465 -3.2672  0.3890
  965MOL0     H33126   5.539   0.278   0.419  0.4316  2.0789  0.1164
  965MOL0     H33127   5.694   0.238   0.461  0.4559  2.7450 -2.6899
  965MOL0     H33128   5.650   0.454   0.317 -0.3620  0.3624 -0.6430
  965MOL0     H33129   5.599   0.705   0.093 -1.4522 -4.2482  1.3834
  965MOL0     H33130   5.782   0.712   0.095 -0.2039  0.6133 -1.6234
  965MOL0     H33131   5.686   0.693   0.248  0.1782  0.2707  0.7863
  965MOL0     H33132   5.810   0.835  -0.188  0.7093  2.9069 -0.3806
  965MOL0     H33133   5.855   1.006  -0.360 -0.6919 -0.3229 -0.9808
  965MOL0     H33134   5.843   1.112  -0.604  0.4987 -1.5804 -1.6097
  965MOL0     H33135   5.995   1.121  -0.515  0.1355  1.3602 -0.1863
  965MOL0     H33136   6.105   1.108  -0.751 -0.1053  0.7020 -0.0060
  965MOL0     H33137   5.945   1.091  -0.819 -0.3177 -0.6919  0.8147
  965MOL0     H33138   6.072   1.327  -0.666 -0.4919 -0.0718  0.7154
  965MOL0     H33139   5.905   1.324  -0.714  0.5311 -1.4917  1.6591
  965MOL0     H33140   6.014   1.288  -0.956  3.6348 -3.4103  1.1245
  965MOL0     H33141   6.152   1.377  -0.894  0.0480  1.6304 -1.7679
  965MOL0     H33142   5.874   1.501  -0.860 -0.7246 -0.5770 -2.2129
  965MOL0     H33143   6.037   1.550  -0.816  1.9108  0.5678 -2.7453
  965MOL0     H33144   6.101   1.555  -1.063 -0.4351 -3.1712  1.9058
  965MOL0     H33145   5.980   1.676  -1.011 -1.5528 -0.2479 -1.0361
  965MOL0     H33146   5.801   1.523  -1.086 -0.0089 -3.3237  1.4298
  965MOL0     H33147   5.915   1.413  -1.157  2.8876  0.5970  0.5103
  965MOL0     H33148   5.839   1.697  -1.244 -2.4575 -0.4265  1.6956
  965MOL0     H33149   5.820   1.538  -1.327  0.0268 -1.6768  1.3116
  965MOL0     H33150   5.990   0.690  -0.623 -1.6341  1.4239 -1.7308
  965MOL0     H33151   5.980   0.535  -0.418 -2.2286 -1.0071  0.5332
  965MOL0     H33152   5.778   0.314  -0.138 -1.6204 -2.2041  0.3385
  965MOL0     H33153   5.757   0.142   0.053 -0.4179 -0.9413  3.6300
  965MOL0     H33154   6.665   0.522   1.531  0.3597  0.1646  0.0314
  965MOL0     H33155   6.819   0.658   1.645  0.3319 -0.9742  0.2486
  965MOL0     H33156   7.457   0.549   1.814 -1.0580  0.9780  2.0796
  965MOL0     H33157   7.666   0.652   1.744 -0.5131 -1.5784 -0.4411
  965MOL0     H33158   7.792   1.039   1.640  0.3800 -0.3257  1.6233
  965MOL0     H33159   7.614   1.054   1.646  0.7066 -0.1331 -2.3094
  965MOL0     H33160   7.803   0.945   1.861 -0.2986  1.2946  1.2079
  965MOL0     H33161   7.630   0.914   1.872  1.3338 -2.5994 -2.0078
  965MOL0     H33162   7.639   1.202   1.837 -1.2749  0.9311  1.9905
  965MOL0     H33163   7.628   1.128   1.981  1.4388  0.0960  0.7151
  965MOL0     H33164   7.825   1.275   1.988  2.2387 -0.4891  0.7717
  965MOL0     H33165   7.876   1.238   1.827 -1.9396  0.1628 -0.7314
  965MOL0     H33166   8.110   0.985   2.080  0.8422  1.6987  1.3997
  965MOL0     H33167   7.472   0.926   1.495 -3.2701  0.7533 -0.0227
  965MOL0     H33168   7.178   0.753   1.470  0.9121 -2.7775  2.6074
  965MOL0     H33169   7.157   0.865   1.594  0.1448 -4.3419 -0.1157
  965MOL0     H33170   7.234   0.918   1.441 -2.3805  3.3051  3.1433
  966MOL0     O33171   1.022   4.476   5.825 -0.2267  0.5363 -0.3013
  966MOL0     C33172   1.112   4.459   5.747  0.5569  0.1915 -0.2357
  966MOL0     O33173   1.163   4.556   5.663 -0.1430 -0.0224 -0.4182
  966MOL0     C33174   1.129   4.688   5.690 -0.0859 -0.7328 -0.6772
  966MOL0     C33175   1.033   4.748   5.614  0.2988 -0.0993 -0.2710
  966MOL0     C33176   1.007   4.881   5.616 -0.4328 -0.2795  0.7844
  966MOL0     C33177   1.073   4.968   5.704 -0.2249 -0.1514  0.8039
  966MOL0     O33178   1.051   5.099   5.721  0.5461  0.4976 -0.3486
  966MOL0     C33179   0.965   5.181   5.636 -0.1223  0.1403  0.0448
  966MOL0     C33180   0.928   5.316   5.705  0.6647 -0.7275 -0.1779
  966MOL0     C33181   1.045   5.419   5.725  0.7199 -0.7166 -0.1506
  966MOL0     C33182   1.003   5.533   5.831  0.2317  0.2798 -0.2938
  966MOL0     C33183   1.125   5.631   5.847  0.1429  0.2862 -0.5399
  966MOL0     C33184   1.103   5.723   5.978 -0.4883  0.6716 -0.7315
  966MOL0     C33185   1.177   5.851   5.965  0.6398  0.1511 -0.3738
  966MOL0     C33186   1.122   5.958   6.071  0.7321  0.6755  0.5664
  966MOL0     N33187   1.186   6.084   6.038  0.5272  0.1980  0.4085
  966MOL0     C33188   1.325   6.104   6.045  0.8330  0.3085  0.0220
  966MOL0     C33189   1.350   6.231   6.013  0.9990  0.0710  0.2252
  966MOL0     C33190   1.488   6.288   6.005  0.5638 -0.4908 -0.2960
  966MOL0     C33191   1.486   6.426   5.950  0.1009  0.5371  0.0795
  966MOL0     C33192   1.442   6.431   5.806 -0.3958 -0.6454  1.4020
  966MOL0     C33193   1.530   6.335   5.719 -0.8920  0.0348  0.0007
  966MOL0     O33194   1.481   6.200   5.725  1.1844 -0.0881 -0.4848
  966MOL0     C33195   1.512   6.110   5.624  0.2312  0.2196  0.1416
  966MOL0     C33196   1.462   5.975   5.637 -0.6907 -0.0976 -0.6934
  966MOL0     C33197   1.476   5.878   5.540 -0.0117  0.3597  0.0761
  966MOL0     C33198   1.416   5.740   5.562 -0.6025 -0.7116  0.2469
  966MOL0     C33199   1.554   5.917   5.430  0.2056  0.1459  0.2979
  966MOL0     C33200   1.583   5.829   5.317 -0.9877 -0.4461  0.4200
  966MOL0     O33201   1.647   5.714   5.366 -0.0617 -0.0663  0.3218
  966MOL0     C33202   1.697   5.617   5.277  0.9672  0.0400  0.6466
  966MOL0     C33203   1.605   5.547   5.190 -0.9675  0.1337  0.4757
  966MOL0     C33204   1.653   5.442   5.113 -0.5335 -0.0375 -0.7987
  966MOL0     C33205   1.781   5.394   5.131 -0.4944 -0.5633  0.7668
  966MOL0     O33206   1.806   5.278   5.064 -0.5795  0.1763  0.7504
  966MOL0     C33207   1.902   5.189   5.107 -1.3154 -0.7112 -0.2873
  966MOL0     C33208   1.915   5.087   5.001  0.8032  0.8102 -0.0171
  966MOL0     C33209   1.973   4.960   5.068 -0.2542  0.0979  0.5370
  966MOL0     C33210   1.930   4.844   4.979 -1.0009  0.0365  0.7074
  966MOL0     C33211   1.977   4.712   5.031 -0.2683 -0.1596 -1.1354
  966MOL0     C33212   1.964   4.593   4.931  0.3098 -0.0747  0.4640
  966MOL0     C33213   2.018   4.460   4.993  0.5643  0.6251  0.3830
  966MOL0     C33214   1.907   4.394   5.088 -0.0369 -0.3878  0.7314
  966MOL0    Cl33215   1.765   4.348   4.980 -0.4378 -0.0437 -0.2865
  966MOL0     C33216   1.865   5.465   5.205  0.2488 -0.1739 -0.0237
  966MOL0     C33217   1.830   5.585   5.274  0.5499 -0.6043  0.2980
  966MOL0     O33218   1.576   5.864   5.199 -0.1843 -0.2256 -0.3277
  966MOL0     C33219   1.608   6.043   5.417 -0.1086 -0.0149  0.0014
  966MOL0     C33220   1.590   6.142   5.512 -0.8274  0.3827 -0.0424
  966MOL0     N33221   1.223   6.293   5.993 -0.3791 -1.0635 -0.2485
  966MOL0     N33222   1.132   6.213   6.020  0.3234  0.0210  0.5091
  966MOL0     C33223   1.165   4.910   5.794 -0.7295  0.2175 -0.5580
  966MOL0     C33224   1.197   4.768   5.782  0.0747  0.0428 -0.9386
  966MOL0     C33225   1.168   4.323   5.732  0.7289  0.2659  0.5923
  966MOL0     C33226   1.075   4.213   5.728  0.0126  0.5324  0.6446
  966MOL0     C33227   1.119   4.078   5.725 -0.1796 -0.5383 -0.6773
  966MOL0     C33228   1.257   4.050   5.716 -0.4393  0.4369 -0.4877
  966MOL0     O33229   1.303   3.915   5.719  0.8661  0.7736 -0.5446
  966MOL0     C33230   1.447   3.899   5.697 -0.3783 -0.9131  0.2394
  966MOL0     C33231   1.503   3.757   5.685 -1.1182 -0.3811 -0.0200
  966MOL0     C33232   1.409   3.657   5.631  1.0527 -0.1114 -0.6642
  966MOL0     C33233   1.472   3.524   5.600  0.1427  1.4877  0.3697
  966MOL0     C33234   1.520   3.452   5.717 -0.0759 -0.1689 -1.0995
  966MOL0     C33235   1.562   3.396   5.817  0.4731 -1.9035 -0.1053
  966MOL0     C33236   1.355   4.151   5.703 -0.4522 -0.5973 -0.7611
  966MOL0     C33237   1.308   4.287   5.708 -0.4346  0.0259  0.0099
  966MOL0     C33238   1.414   4.388   5.710  0.9020  0.0102  0.2868
  966MOL0     H33239   0.985   4.689   5.537  0.2875  1.3179 -1.4055
  966MOL0     H33240   0.928   4.936   5.565  1.7808  2.7523  0.3230
  966MOL0     H33241   0.873   5.124   5.621 -0.1375 -0.8185  3.0411
  966MOL0     H33242   1.026   5.199   5.548  0.4811 -3.3549 -0.3763
  966MOL0     H33243   0.846   5.353   5.643  1.5901  0.2173 -0.8869
  966MOL0     H33244   0.876   5.292   5.798 -3.5384  0.5518 -1.9367
  966MOL0     H33245   1.136   5.363   5.747  0.0357 -1.0511  2.0312
  966MOL0     H33246   1.059   5.465   5.627 -1.3089 -2.6796 -1.4447
  966MOL0     H33247   0.913   5.586   5.799  0.1789 -1.1558 -2.8139
  966MOL0     H33248   0.980   5.496   5.931 -0.1666  4.8805  1.5790
  966MOL0     H33249   1.122   5.695   5.759 -0.2820  2.6984  1.1310
  966MOL0     H33250   1.221   5.578   5.856  1.0695  2.1571  2.0062
  966MOL0     H33251   0.998   5.752   5.990 -0.6736 -0.6206  1.2261
  966MOL0     H33252   1.126   5.675   6.074  4.3063  0.3972 -1.7972
  966MOL0     H33253   1.154   5.893   5.867  0.9155 -0.1909 -0.5865
  966MOL0     H33254   1.286   5.847   5.973  0.9503  0.1384 -3.5442
  966MOL0     H33255   1.017   5.979   6.046  0.0573  1.1732  3.3913
  966MOL0     H33256   1.125   5.935   6.178  0.8057 -2.3142  0.0045
  966MOL0     H33257   1.402   6.031   6.069  1.1930  0.9916  0.9784
  966MOL0     H33258   1.555   6.218   5.954  2.4253  0.8553  0.1842
  966MOL0     H33259   1.530   6.294   6.106 -2.1577  1.2263  0.8257
  966MOL0     H33260   1.426   6.503   5.999 -1.1066  2.1059 -3.4880
  966MOL0     H33261   1.589   6.463   5.951  0.2645  0.1989 -1.2638
  966MOL0     H33262   1.340   6.400   5.781  0.7011 -2.7383 -0.9390
  966MOL0     H33263   1.464   6.533   5.776  2.5341 -1.2715  1.0750
  966MOL0     H33264   1.518   6.368   5.615  2.1030 -1.2430 -0.8790
  966MOL0     H33265   1.637   6.339   5.745 -0.3688 -1.6072 -1.7102
  966MOL0     H33266   1.400   5.952   5.723 -0.2403 -1.1916 -0.6535
  966MOL0     H33267   1.356   5.715   5.474  0.1515 -3.6598  0.4514
  966MOL0     H33268   1.345   5.743   5.645  0.1602  1.8359  0.8896
  966MOL0     H33269   1.497   5.668   5.574  0.2782 -0.0888 -1.7352
  966MOL0     H33270   1.501   5.575   5.186 -1.2895 -1.1238 -1.1995
  966MOL0     H33271   1.590   5.382   5.047 -0.4197 -1.4202  0.3070
  966MOL0     H33272   1.999   5.239   5.113 -1.8440  0.4878 -1.2924
  966MOL0     H33273   1.878   5.157   5.209  1.2982  0.5932  0.8384
  966MOL0     H33274   1.820   5.068   4.950 -0.2171  2.8764  0.9962
  966MOL0     H33275   1.981   5.121   4.921  0.2458  2.3624  0.1493
  966MOL0     H33276   1.933   4.935   5.167  0.6565  0.3839  0.9868
  966MOL0     H33277   2.082   4.956   5.066 -0.1579  1.1882  2.1072
  966MOL0     H33278   1.965   4.866   4.878  0.0244  3.8341  1.7376
  966MOL0     H33279   1.822   4.830   4.966 -0.5979 -1.2377 -2.0215
  966MOL0     H33280   2.081   4.725   5.062 -0.1322 -0.4091 -1.4913
  966MOL0     H33281   1.919   4.684   5.119  1.7357  0.8521  0.6126
  966MOL0     H33282   2.025   4.633   4.849  0.8868  0.8031  1.2942
  966MOL0     H33283   1.860   4.584   4.898  0.1561  2.9693 -0.1796
  966MOL0     H33284   2.103   4.481   5.059  2.0401 -4.0689  0.3723
  966MOL0     H33285   2.046   4.380   4.923  2.0220 -1.8887  3.5937
  966MOL0     H33286   1.875   4.457   5.171  0.3910 -0.8892  1.2768
  966MOL0     H33287   1.943   4.304   5.137 -1.5919 -0.6543  1.4608
  966MOL0     H33288   1.963   5.422   5.225  0.9277  0.4059 -1.8721
  966MOL0     H33289   1.888   5.638   5.350  0.5887 -0.8219  0.4220
  966MOL0     H33290   1.659   6.076   5.327 -1.1220  0.6572 -0.3342
  966MOL0     H33291   1.646   6.233   5.490  2.2394 -0.7156  2.5303
  966MOL0     H33292   1.203   4.976   5.872  2.2629 -1.3271 -0.5415
  966MOL0     H33293   1.273   4.726   5.847  0.4160 -0.8588 -1.9000
  966MOL0     H33294   0.970   4.228   5.748  0.4758  0.4445  3.6226
  966MOL0     H33295   1.052   3.994   5.737  0.5194 -0.7571  2.7665
  966MOL0     H33296   1.488   3.955   5.613  2.6669 -0.4564  1.8763
  966MOL0     H33297   1.503   3.936   5.784 -1.2335  0.5327  0.2036
  966MOL0     H33298   1.539   3.727   5.784 -0.1416 -1.6601 -0.7401
  966MOL0     H33299   1.585   3.753   5.612  0.6554 -0.5363  1.8824
  966MOL0     H33300   1.331   3.635   5.704  0.9958 -0.1822 -0.7455
  966MOL0     H33301   1.365   3.698   5.540 -0.6885  0.7264  0.5031
  966MOL0     H33302   1.553   3.536   5.527  1.2170  1.3377  1.5093
  966MOL0     H33303   1.387   3.465   5.562  0.9110  0.4601  0.1891
  966MOL0     H33304   1.587   3.350   5.910 -1.5541  0.6126  1.8430
  966MOL0     H33305   1.462   4.136   5.699 -0.1142  1.0382  0.6168
  966MOL0     H33306   1.419   4.444   5.804 -1.7226 -2.2707  1.9342
  966MOL0     H33307   1.507   4.332   5.699  0.3498 -0.3788 -3.9568
  966MOL0     H33308   1.404   4.460   5.628 -3.4576 -0.6843 -0.0270
  967MOL0     O33309   5.620   4.094   9.088  0.1162 -0.2679 -0.8098
  967MOL0     C33310   5.585   4.009   9.172  0.0048  0.4671  0.2064
  967MOL0     O33311   5.545   4.032   9.304  0.0882  0.0737  0.0521
  967MOL0     C33312   5.578   4.150   9.349  0.0537  0.7633 -0.2709
  967MOL0     C33313   5.482   4.250   9.347 -0.4601 -0.0087  0.5259
  967MOL0     C33314   5.519   4.379   9.393  0.6648 -0.3627  0.2787
  967MOL0     C33315   5.649   4.414   9.427  0.7140 -0.9247  0.0107
  967MOL0     O33316   5.710   4.534   9.473  0.8072 -0.2486  0.0784
  967MOL0     C33317   5.639   4.658   9.458 -0.2499 -0.2060 -0.3318
  967MOL0     C33318   5.712   4.762   9.543  0.7543 -0.1782  0.3646
  967MOL0     C33319   5.638   4.893   9.541  0.8273  0.3445 -0.5693
  967MOL0     C33320   5.697   4.980   9.430  0.1332  0.0961 -0.6438
  967MOL0     C33321   5.631   5.123   9.407  0.7114 -0.0074  0.0215
  967MOL0     C33322   5.496   5.131   9.322  0.3020  0.3859 -0.0533
  967MOL0     C33323   5.518   5.078   9.181  0.0947 -0.1541  0.4569
  967MOL0     C33324   5.400   5.130   9.095  0.0218  0.3283  0.7197
  967MOL0     N33325   5.389   5.048   8.970 -0.0571  0.4080 -0.6292
  967MOL0     C33326   5.421   5.081   8.838  0.5730  0.7640  0.1991
  967MOL0     C33327   5.369   4.983   8.758 -0.1358 -0.5057  0.1254
  967MOL0     C33328   5.381   5.009   8.611 -0.7928 -0.3836  0.3190
  967MOL0     C33329   5.359   4.883   8.523  0.4083  0.8050  0.2074
  967MOL0     C33330   5.476   4.792   8.537  1.5216 -0.2614  0.4834
  967MOL0     C33331   5.431   4.653   8.482  0.0983  0.4403 -0.0290
  967MOL0     O33332   5.426   4.657   8.346 -0.2065  0.0360  0.8399
  967MOL0     C33333   5.357   4.564   8.271  0.5725  0.9049  0.1675
  967MOL0     C33334   5.383   4.418   8.268 -0.1057  0.0821 -0.7626
  967MOL0     C33335   5.322   4.334   8.181 -0.2437  0.4208  0.4796
  967MOL0     C33336   5.349   4.184   8.181  0.3393  0.6857  0.5140
  967MOL0     C33337   5.223   4.392   8.094  0.4084  0.6746  0.7237
  967MOL0     C33338   5.156   4.314   7.983 -0.0903 -0.3280  0.5752
  967MOL0     O33339   5.144   4.371   7.853 -0.6108  0.7666  1.1894
  967MOL0     C33340   5.252   4.448   7.807  0.1961  0.0814  0.2949
  967MOL0     C33341   5.378   4.389   7.777  0.4271  0.5421 -0.4255
  967MOL0     C33342   5.477   4.471   7.734 -0.1590 -0.1783  0.0296
  967MOL0     C33343   5.475   4.610   7.738  0.0366  0.2357 -0.2382
  967MOL0     O33344   5.590   4.676   7.718  0.3685 -0.3155  0.5276
  967MOL0     C33345   5.572   4.813   7.663 -0.3556  0.7329 -0.2813
  967MOL0     C33346   5.705   4.855   7.610 -0.3036 -0.0868 -0.7255
  967MOL0     C33347   5.717   4.947   7.485  0.6934  0.1883 -0.5619
  967MOL0     C33348   5.806   5.071   7.519 -0.4126 -0.4512 -0.4006
  967MOL0     C33349   5.787   5.185   7.418 -0.8285  0.0923 -0.3701
  967MOL0     C33350   5.758   5.315   7.498 -0.3325 -0.3129  0.5482
  967MOL0     C33351   5.875   5.365   7.584  0.7966  0.4793 -0.4046
  967MOL0     C33352   5.864   5.514   7.589 -0.1874  0.7920 -0.4625
  967MOL0    Cl33353   5.974   5.572   7.707 -0.1521 -0.1387 -0.0355
  967MOL0     C33354   5.351   4.664   7.768  0.4569  0.7631 -0.4285
  967MOL0     C33355   5.236   4.581   7.795 -0.3027 -0.3911  0.7662
  967MOL0     O33356   5.091   4.221   8.025 -0.2762 -0.3089  0.8174
  967MOL0     C33357   5.191   4.529   8.104 -0.5239  0.1949 -0.3716
  967MOL0     C33358   5.258   4.621   8.188 -0.3883 -0.6707 -0.0293
  967MOL0     N33359   5.313   4.891   8.842 -0.4030 -0.8157  0.7131
  967MOL0     N33360   5.326   4.926   8.968 -0.2772 -0.4247  0.2311
  967MOL0     C33361   5.739   4.301   9.432  0.3094 -0.1359  0.2665
  967MOL0     C33362   5.702   4.172   9.396  0.0835 -0.2155 -0.9938
  967MOL0     C33363   5.601   3.869   9.134  0.6782 -0.0736 -0.7547
  967MOL0     C33364   5.697   3.820   9.042 -0.3916 -0.9212 -0.1481
  967MOL0     C33365   5.715   3.694   9.010  0.3910  0.5645  0.3506
  967MOL0     C33366   5.633   3.595   9.058 -0.6542 -0.1413  0.5189
  967MOL0     O33367   5.660   3.469   9.004 -0.1306 -0.3242 -0.0792
  967MOL0     C33368   5.604   3.357   9.070 -0.0992  0.0978  0.3520
  967MOL0     C33369   5.677   3.336   9.209 -0.2393 -0.8849  1.0242
  967MOL0     C33370   5.658   3.198   9.277  0.0131 -0.3775 -0.3373
  967MOL0     C33371   5.510   3.153   9.290 -0.1892 -1.4740  1.0340
  967MOL0     C33372   5.484   3.078   9.166  0.4630 -0.0234  0.0094
  967MOL0     C33373   5.457   3.012   9.069 -0.3692  1.4017  0.0868
  967MOL0     C33374   5.523   3.637   9.136 -0.1408  0.1806 -0.4758
  967MOL0     C33375   5.510   3.771   9.185  0.0192  0.8822 -0.0326
  967MOL0     C33376   5.397   3.791   9.274  0.1890 -0.4699 -0.3757
  967MOL0     H33377   5.384   4.230   9.306 -1.5942  2.5971  1.7376
  967MOL0     H33378   5.442   4.456   9.397 -1.3783 -1.1865 -7.5602
  967MOL0     H33379   5.534   4.651   9.487  0.1754 -1.1137  1.0857
  967MOL0     H33380   5.639   4.694   9.354  2.3982 -0.2281 -0.4098
  967MOL0     H33381   5.722   4.715   9.641 -0.1015 -1.3030 -0.0641
  967MOL0     H33382   5.818   4.785   9.526 -0.2856  2.8620 -3.7410
  967MOL0     H33383   5.530   4.882   9.525  0.6353  0.7522  0.3683
  967MOL0     H33384   5.648   4.951   9.633 -0.1266  0.4488 -0.5198
  967MOL0     H33385   5.804   4.987   9.450  0.1729  4.1927 -1.4408
  967MOL0     H33386   5.691   4.929   9.333 -1.0852  0.2014 -0.6456
  967MOL0     H33387   5.708   5.185   9.359  1.6198 -0.8500  0.3528
  967MOL0     H33388   5.598   5.160   9.505 -2.5596 -2.9094  0.2141
  967MOL0     H33389   5.421   5.070   9.373 -0.5158  2.1248  0.9316
  967MOL0     H33390   5.447   5.226   9.342 -1.5119 -0.2104 -1.4376
  967MOL0     H33391   5.530   4.970   9.171 -1.4189 -0.2594 -0.5340
  967MOL0     H33392   5.609   5.124   9.141 -0.1281 -1.8803 -2.2585
  967MOL0     H33393   5.311   5.121   9.159  0.6512 -0.8762  1.4585
  967MOL0     H33394   5.405   5.235   9.062 -1.9617  0.5834  1.1017
  967MOL0     H33395   5.493   5.158   8.810  1.8123 -0.7976 -1.1019
  967MOL0     H33396   5.473   5.064   8.589 -1.2733  0.5265  0.5327
  967MOL0     H33397   5.294   5.071   8.585 -1.1221 -1.5058 -1.4208
  967MOL0     H33398   5.263   4.834   8.542 -0.8381  1.4130 -3.5845
  967MOL0     H33399   5.349   4.909   8.417 -0.2965 -0.3158 -0.0167
  967MOL0     H33400   5.544   4.833   8.461 -1.9537 -2.1135 -4.1252
  967MOL0     H33401   5.521   4.785   8.636 -0.1640 -1.0905  1.2164
  967MOL0     H33402   5.509   4.585   8.517  1.4356  1.6413 -0.5503
  967MOL0     H33403   5.333   4.620   8.518  1.1613 -1.9538  0.8506
  967MOL0     H33404   5.447   4.374   8.344  1.5464 -0.9606 -2.6667
  967MOL0     H33405   5.328   4.124   8.091  1.3472  1.2692 -0.1408
  967MOL0     H33406   5.294   4.136   8.262 -1.2726  0.0967 -0.8613
  967MOL0     H33407   5.455   4.173   8.208  0.4360  2.9924  1.2918
  967MOL0     H33408   5.387   4.281   7.782 -3.3845 -0.1341 -3.2032
  967MOL0     H33409   5.575   4.426   7.723  1.7217  3.7641 -1.0377
  967MOL0     H33410   5.494   4.816   7.587 -0.0141  0.7776 -0.6329
  967MOL0     H33411   5.536   4.871   7.748 -3.1218 -0.5988 -0.4229
  967MOL0     H33412   5.744   4.896   7.703 -1.7454 -0.0730 -0.1080
  967MOL0     H33413   5.769   4.768   7.591 -0.4044 -1.8281  5.0375
  967MOL0     H33414   5.613   4.970   7.460  0.9931 -0.2642 -2.3465
  967MOL0     H33415   5.754   4.898   7.395  0.0961 -0.9555 -0.2042
  967MOL0     H33416   5.911   5.043   7.513 -0.5945 -0.8851 -4.0054
  967MOL0     H33417   5.806   5.090   7.627 -3.6094 -0.8655 -0.2329
  967MOL0     H33418   5.876   5.200   7.356 -2.2034  3.2898 -1.7490
  967MOL0     H33419   5.707   5.173   7.344 -1.6878  0.0638  0.5436
  967MOL0     H33420   5.669   5.301   7.561  1.0315 -3.4473  1.9936
  967MOL0     H33421   5.726   5.386   7.421  0.6047  1.0125  1.3516
  967MOL0     H33422   5.966   5.335   7.531  0.6633 -1.9383  0.5990
  967MOL0     H33423   5.888   5.306   7.676  1.1052 -0.5334 -1.0796
  967MOL0     H33424   5.759   5.537   7.610 -0.7843 -0.5138 -1.8532
  967MOL0     H33425   5.896   5.550   7.491  0.2083 -2.9934 -1.8669
  967MOL0     H33426   5.350   4.772   7.784 -2.4369  0.5692  1.4411
  967MOL0     H33427   5.140   4.628   7.816 -1.5598 -2.2322 -0.5180
  967MOL0     H33428   5.105   4.571   8.052 -1.3050  1.6474  1.9520
  967MOL0     H33429   5.230   4.725   8.197 -4.1778 -1.0783 -3.6636
  967MOL0     H33430   5.841   4.328   9.455 -0.1082  3.4524 -1.4112
  967MOL0     H33431   5.776   4.093   9.406 -0.5750 -0.5005  3.3658
  967MOL0     H33432   5.786   3.875   9.011 -0.8663 -0.3403 -0.5104
  967MOL0     H33433   5.797   3.656   8.949  1.2105 -0.0432  1.7786
  967MOL0     H33434   5.495   3.367   9.075  0.1347  3.4815  1.3491
  967MOL0     H33435   5.640   3.267   9.020  2.8489  0.0664  2.2801
  967MOL0     H33436   5.629   3.415   9.267 -0.4577  2.7229 -3.4358
  967MOL0     H33437   5.782   3.364   9.199 -0.8145  0.8409 -0.9110
  967MOL0     H33438   5.717   3.126   9.218  0.0904 -1.5677  1.1313
  967MOL0     H33439   5.691   3.207   9.380 -3.2179  1.2396  0.6822
  967MOL0     H33440   5.456   3.248   9.297  2.6745  0.3389  0.3549
  967MOL0     H33441   5.495   3.094   9.381 -0.3620 -1.4726  1.0071
  967MOL0     H33442   5.444   2.952   8.982 -0.5134  1.6289 -0.0498
  967MOL0     H33443   5.445   3.568   9.165 -1.6231  1.8003 -0.3956
  967MOL0     H33444   5.332   3.703   9.271 -1.2563  0.4280  1.8441
  967MOL0     H33445   5.430   3.797   9.378 -0.1406 -1.7452 -0.1777
  967MOL0     H33446   5.335   3.880   9.260 -1.4097 -0.6422  3.9676
  968MOL0     O33447   7.774   3.789   6.343  0.2805  0.2548  0.6160
  968MOL0     C33448   7.658   3.804   6.370 -1.0422  0.2333  0.7687
  968MOL0     O33449   7.604   3.926   6.400  0.4462 -0.4690  0.9695
  968MOL0     C33450   7.660   4.041   6.355 -0.7643  0.1457  0.1740
  968MOL0     C33451   7.665   4.147   6.445 -0.0190  0.1484  0.0197
  968MOL0     C33452   7.743   4.254   6.417 -0.1861 -0.3511 -0.2316
  968MOL0     C33453   7.805   4.266   6.289  0.8534  0.3322 -0.2980
  968MOL0     O33454   7.878   4.383   6.262  0.7095 -0.1891 -0.5598
  968MOL0     C33455   7.959   4.382   6.149 -0.3230  0.4142  0.3177
  968MOL0     C33456   8.054   4.503   6.169  0.0403  0.5062  0.1432
  968MOL0     C33457   8.169   4.485   6.270 -0.6630 -0.1195  0.1836
  968MOL0     C33458   8.298   4.556   6.217 -1.0892 -0.8576  0.2957
  968MOL0     C33459   8.375   4.464   6.118 -0.0771  0.2627 -0.6711
  968MOL0     C33460   8.499   4.512   6.049  0.2978  0.2467  0.0472
  968MOL0     C33461   8.584   4.608   6.131 -0.0870  0.0257  0.0814
  968MOL0     C33462   8.568   4.751   6.107  1.5011 -0.7962 -0.2045
  968MOL0     N33463   8.660   4.794   6.000  0.6062  0.0541 -0.1310
  968MOL0     C33464   8.644   4.801   5.862 -0.3068  0.5061 -0.6916
  968MOL0     C33465   8.776   4.813   5.816  0.1036  0.3123 -0.4575
  968MOL0     C33466   8.817   4.792   5.675 -0.0033 -0.1590 -0.6428
  968MOL0     C33467   8.940   4.722   5.648 -0.2416  0.2120  1.0240
  968MOL0     C33468   9.075   4.788   5.687  0.3118 -0.0396 -0.6576
  968MOL0     C33469   9.098   4.934   5.660 -0.6802 -0.1148  0.7049
  968MOL0     O33470   9.068   4.968   5.517 -0.5305 -0.8104 -0.7154
  968MOL0     C33471   9.025   5.094   5.484  0.4484  0.6965  0.1480
  968MOL0     C33472   9.033   5.211   5.568  0.3698 -0.1730  0.4127
  968MOL0     C33473   9.021   5.338   5.517 -0.2114 -0.0886  0.5073
  968MOL0     C33474   9.052   5.439   5.612  0.0029 -0.3938  0.4068
  968MOL0     C33475   8.989   5.360   5.385 -0.1892 -1.2729  0.5235
  968MOL0     C33476   8.978   5.505   5.317  0.3421 -0.3896  1.4002
  968MOL0     O33477   8.990   5.617   5.396  0.5572 -0.0567  0.4459
  968MOL0     C33478   9.030   5.741   5.345  0.1171  0.3306 -0.4078
  968MOL0     C33479   9.131   5.755   5.247  0.4609 -0.9410  0.6239
  968MOL0     C33480   9.179   5.884   5.226  0.0215 -0.9082 -0.9160
  968MOL0     C33481   9.117   5.993   5.280 -0.7748 -0.3395 -0.0945
  968MOL0     O33482   9.169   6.114   5.250  0.2348  0.1628 -0.1307
  968MOL0     C33483   9.125   6.167   5.134  0.2943  0.8331 -0.0220
  968MOL0     C33484   9.236   6.235   5.058 -0.4789  0.3542  0.8606
  968MOL0     C33485   9.186   6.313   4.939 -0.4641  0.2420  0.4183
  968MOL0     C33486   9.297   6.350   4.838  0.2075  0.2376  0.1226
  968MOL0     C33487   9.224   6.434   4.732 -0.6178 -0.3074 -0.4806
  968MOL0     C33488   9.324   6.462   4.620 -0.0339  0.0985  0.5967
  968MOL0     C33489   9.383   6.345   4.535  0.5608 -0.2853  0.0489
  968MOL0     C33490   9.281   6.252   4.481 -0.5151 -0.3446 -0.8127
  968MOL0    Cl33491   9.363   6.165   4.351 -0.1185  0.2257 -0.0194
  968MOL0     C33492   9.005   5.986   5.365 -0.7083 -0.4616 -0.4201
  968MOL0     C33493   8.975   5.859   5.406  0.2219  0.7386 -0.0377
  968MOL0     O33494   8.944   5.501   5.196 -0.1293  0.1109 -0.0358
  968MOL0     C33495   8.966   5.254   5.308 -0.2722  1.2610  0.5979
  968MOL0     C33496   8.983   5.117   5.352 -0.3356 -0.2327  0.4011
  968MOL0     N33497   8.854   4.849   5.922 -1.0317 -0.5238 -0.1961
  968MOL0     N33498   8.782   4.838   6.033 -0.3503 -0.4603 -0.1700
  968MOL0     C33499   7.778   4.165   6.191 -0.2685  0.2993 -0.7049
  968MOL0     C33500   7.715   4.052   6.229  0.6349 -0.2799 -0.4037
  968MOL0     C33501   7.574   3.689   6.343 -0.4202  0.3735  0.7001
  968MOL0     C33502   7.621   3.564   6.398  1.2744  0.1290  0.2331
  968MOL0     C33503   7.543   3.448   6.378  0.2940 -0.4918  0.4466
  968MOL0     C33504   7.418   3.452   6.316  0.0121 -0.2600 -0.5233
  968MOL0     O33505   7.341   3.343   6.290 -0.2777  0.3276 -0.1514
  968MOL0     C33506   7.391   3.208   6.307 -0.1771  0.3411  0.2402
  968MOL0     C33507   7.261   3.118   6.295 -0.1561  0.0839 -0.1893
  968MOL0     C33508   7.295   2.969   6.326 -0.2400  0.0636 -0.0773
  968MOL0     C33509   7.210   2.884   6.427 -1.0888 -0.1730  0.1838
  968MOL0     C33510   7.068   2.914   6.413  0.1361  0.5807 -0.2217
  968MOL0     C33511   6.950   2.937   6.387  0.5461 -0.9730  0.3218
  968MOL0     C33512   7.373   3.576   6.269 -0.5677  0.8769 -0.5267
  968MOL0     C33513   7.443   3.693   6.282 -0.7127 -0.4511 -0.0991
  968MOL0     C33514   7.390   3.820   6.222  0.2748 -0.6460 -0.2502
  968MOL0     H33515   7.615   4.128   6.539  1.0011 -0.7362  0.3970
  968MOL0     H33516   7.748   4.342   6.481  0.5407  1.2203 -2.3527
  968MOL0     H33517   7.893   4.391   6.062 -1.2447 -0.9337  0.8448
  968MOL0     H33518   8.015   4.294   6.115 -0.1356  0.3676  0.7407
  968MOL0     H33519   8.093   4.522   6.068  2.4076  2.7734  1.3684
  968MOL0     H33520   8.003   4.597   6.191  3.3704  2.3359  0.6649
  968MOL0     H33521   8.142   4.525   6.369  0.2104  0.0571  0.3553
  968MOL0     H33522   8.191   4.379   6.264 -0.3780  0.0175 -4.3694
  968MOL0     H33523   8.272   4.656   6.179 -0.9025 -1.0667 -0.3777
  968MOL0     H33524   8.360   4.569   6.307  0.5299 -1.1887 -0.7407
  968MOL0     H33525   8.300   4.424   6.050 -1.4886  0.0516  0.9624
  968MOL0     H33526   8.402   4.379   6.180 -0.0053  1.5927  1.2103
  968MOL0     H33527   8.561   4.427   6.017  0.1646  0.7239 -1.5970
  968MOL0     H33528   8.466   4.560   5.956  1.5595  1.3786  0.1416
  968MOL0     H33529   8.689   4.581   6.119  0.3721  2.0216 -0.7268
  968MOL0     H33530   8.557   4.591   6.236 -1.4943  0.6133 -0.1566
  968MOL0     H33531   8.470   4.792   6.082  2.5367  1.6689 -0.4905
  968MOL0     H33532   8.589   4.816   6.193 -0.0549  2.4012 -2.0390
  968MOL0     H33533   8.570   4.773   5.788  1.6128  0.9805 -2.9125
  968MOL0     H33534   8.827   4.896   5.643  0.0672 -0.7247 -2.5749
  968MOL0     H33535   8.736   4.744   5.620  1.4980 -2.5179 -0.9121
  968MOL0     H33536   8.947   4.628   5.705  0.7451  0.8093  1.9377
  968MOL0     H33537   8.936   4.695   5.542  3.3225  2.3887  0.1535
  968MOL0     H33538   9.088   4.775   5.795  1.7890 -0.0933 -0.8174
  968MOL0     H33539   9.152   4.729   5.636 -1.4531 -2.0006 -1.1944
  968MOL0     H33540   9.024   4.983   5.724  0.3387  1.1751  0.9297
  968MOL0     H33541   9.197   4.975   5.680 -0.2747 -0.9703  0.5025
  968MOL0     H33542   9.066   5.195   5.670 -0.4086  0.2651  0.7449
  968MOL0     H33543   8.970   5.506   5.640  0.5735 -0.1480  1.5461
  968MOL0     H33544   9.129   5.503   5.567  0.7930 -2.5290 -1.4805
  968MOL0     H33545   9.089   5.394   5.705  3.7719  3.5781  1.1401
  968MOL0     H33546   9.175   5.671   5.194 -1.3173 -0.6752 -1.4004
  968MOL0     H33547   9.267   5.891   5.163 -0.8615  1.2076 -1.9906
  968MOL0     H33548   9.078   6.089   5.073 -0.1885  1.0505  0.0688
  968MOL0     H33549   9.049   6.242   5.158  1.7425  1.4960  2.8964
  968MOL0     H33550   9.302   6.286   5.128  1.6028 -2.3654  1.0571
  968MOL0     H33551   9.292   6.153   5.012  0.2599  0.3361  1.7675
  968MOL0     H33552   9.150   6.407   4.982 -0.2382  1.1061 -1.2075
  968MOL0     H33553   9.102   6.256   4.898 -0.0392 -0.7129  0.8557
  968MOL0     H33554   9.334   6.252   4.805 -0.4825  0.1530 -0.4375
  968MOL0     H33555   9.384   6.399   4.882  0.0534  0.6595 -0.0379
  968MOL0     H33556   9.125   6.394   4.705 -1.3126 -0.9693  2.6519
  968MOL0     H33557   9.201   6.528   4.783  0.5585 -0.9674  1.3979
  968MOL0     H33558   9.415   6.510   4.659  0.9032 -1.7901  0.8581
  968MOL0     H33559   9.283   6.534   4.549  1.1907  0.2605  0.0221
  968MOL0     H33560   9.449   6.292   4.605  0.4676 -0.9411 -0.3592
  968MOL0     H33561   9.439   6.372   4.445  0.4212 -1.2693 -0.3367
  968MOL0     H33562   9.202   6.319   4.446  0.9415  2.2283  0.4852
  968MOL0     H33563   9.238   6.190   4.560 -2.3918  0.5934 -1.0207
  968MOL0     H33564   8.970   6.084   5.396  2.8423  0.1552  2.3421
  968MOL0     H33565   8.899   5.847   5.483  1.8412  1.8743  1.8185
  968MOL0     H33566   8.929   5.274   5.208  0.4590  2.6200  0.5720
  968MOL0     H33567   8.982   5.037   5.279  2.6983  2.0443 -2.4534
  968MOL0     H33568   7.829   4.171   6.095  0.0482  1.1513 -0.4856
  968MOL0     H33569   7.723   3.965   6.163  3.6361 -0.6141  0.2781
  968MOL0     H33570   7.718   3.570   6.446  2.0069  0.6298 -1.2507
  968MOL0     H33571   7.570   3.350   6.416 -0.6569  0.4963  4.1460
  968MOL0     H33572   7.465   3.181   6.231 -1.4121  0.8070 -1.1702
  968MOL0     H33573   7.432   3.202   6.408  0.8361  1.2687 -0.0941
  968MOL0     H33574   7.220   3.119   6.194 -2.2039 -1.4388  0.5528
  968MOL0     H33575   7.183   3.167   6.355  0.0982  0.9049 -0.5176
  968MOL0     H33576   7.309   2.916   6.231  2.1819  1.3316 -0.5098
  968MOL0     H33577   7.396   2.961   6.368 -0.2729 -4.7696 -0.3889
  968MOL0     H33578   7.245   2.907   6.528 -1.1399 -1.7403  0.5846
  968MOL0     H33579   7.238   2.783   6.398  1.2183  1.1115 -2.5693
  968MOL0     H33580   6.846   2.962   6.382  0.3219 -1.9689 -0.4513
  968MOL0     H33581   7.272   3.585   6.230 -1.2390 -1.1320  0.6307
  968MOL0     H33582   7.455   3.907   6.217 -0.1152 -0.3775 -0.6507
  968MOL0     H33583   7.374   3.784   6.120  0.4023 -2.2987  0.2738
  968MOL0     H33584   7.296   3.848   6.271  0.6097 -1.0432  0.6483
  969MOL0     O33585   7.356   7.255   0.715  0.4069  0.0493 -0.9697
  969MOL0     C33586   7.281   7.333   0.780  0.0596 -0.7720  0.1334
  969MOL0     O33587   7.239   7.452   0.732  1.3025  0.0136 -0.5907
  969MOL0     C33588   7.235   7.465   0.601  0.8540 -0.1723 -0.1040
  969MOL0     C33589   7.283   7.592   0.568 -1.3224  0.7212 -0.4421
  969MOL0     C33590   7.261   7.637   0.440  0.3088 -0.3373  1.3868
  969MOL0     C33591   7.209   7.559   0.336 -1.0905  0.5228  0.0835
  969MOL0     O33592   7.193   7.616   0.217 -1.1707 -0.0809 -0.1236
  969MOL0     C33593   7.313   7.662   0.139  0.0288 -0.1010  1.4089
  969MOL0     C33594   7.257   7.751   0.028 -0.1448 -1.5627 -0.1220
  969MOL0     C33595   7.364   7.844  -0.027 -0.3173  0.5936  0.6794
  969MOL0     C33596   7.311   7.905  -0.159  0.2143 -0.6309  0.1232
  969MOL0     C33597   7.400   8.007  -0.241  0.2358  0.2791  0.2387
  969MOL0     C33598   7.510   7.933  -0.319 -0.3601  0.6984 -0.0870
  969MOL0     C33599   7.605   8.034  -0.384 -0.4170 -0.3057 -0.0078
  969MOL0     C33600   7.640   7.991  -0.528  0.0540  0.1215  0.6271
  969MOL0     N33601   7.752   8.065  -0.584 -0.9921 -0.1693 -0.2510
  969MOL0     C33602   7.764   8.203  -0.572 -0.3996 -0.4165 -0.6284
  969MOL0     C33603   7.863   8.242  -0.644 -0.1588  0.4188  0.6926
  969MOL0     C33604   7.907   8.386  -0.664 -1.0344 -0.2403  0.2048
  969MOL0     C33605   7.835   8.452  -0.790  0.3857 -0.6387 -0.4168
  969MOL0     C33606   7.902   8.416  -0.931  0.3583 -0.1807 -0.5352
  969MOL0     C33607   8.051   8.437  -0.944  1.0280  0.5280  0.1159
  969MOL0     O33608   8.081   8.572  -0.914  0.0836 -0.4199  0.0638
  969MOL0     C33609   8.184   8.642  -0.976  0.4268 -0.1776  0.1413
  969MOL0     C33610   8.299   8.601  -1.047  0.0717  0.3849 -0.2128
  969MOL0     C33611   8.404   8.691  -1.088  0.3832  0.1896 -0.3560
  969MOL0     C33612   8.528   8.643  -1.152  0.2517 -0.4615  0.4135
  969MOL0     C33613   8.384   8.833  -1.065 -0.4289  0.6726 -0.1752
  969MOL0     C33614   8.490   8.931  -1.097 -0.0691  0.4249  0.0880
  969MOL0     O33615   8.621   8.901  -1.133  0.1378  0.4463  0.6511
  969MOL0     C33616   8.683   8.948  -1.244 -0.2456  0.4623 -0.2095
  969MOL0     C33617   8.620   9.034  -1.333 -0.3587 -1.1638  1.4196
  969MOL0     C33618   8.695   9.096  -1.433 -0.9713  0.6748 -0.4529
  969MOL0     C33619   8.830   9.056  -1.464 -0.1749  0.3096  0.1797
  969MOL0     O33620   8.893   9.130  -1.561 -0.3938  0.5486  0.3069
  969MOL0     C33621   9.017   9.085  -1.613  0.5603 -0.0232 -0.2005
  969MOL0     C33622   9.068   9.154  -1.744  0.4361 -0.6450 -0.0749
  969MOL0     C33623   8.991   9.102  -1.865  0.5480 -0.0382  0.5331
  969MOL0     C33624   9.042   9.171  -1.995 -0.3651  0.6032 -0.4093
  969MOL0     C33625   8.963   9.142  -2.119  0.5039  0.1436  0.0259
  969MOL0     C33626   8.815   9.194  -2.122 -0.2368  0.8028 -1.2935
  969MOL0     C33627   8.804   9.339  -2.077  0.0625 -0.2056 -0.7698
  969MOL0     C33628   8.653   9.395  -2.101 -0.5961 -1.0414  0.2025
  969MOL0    Cl33629   8.652   9.563  -2.037 -0.0713  0.2025  0.1001
  969MOL0     C33630   8.883   8.955  -1.379 -0.2503 -0.0427 -1.0597
  969MOL0     C33631   8.818   8.910  -1.267  0.2680 -0.5236 -0.1907
  969MOL0     O33632   8.449   9.045  -1.089  0.6690  0.0480 -0.1194
  969MOL0     C33633   8.266   8.871  -0.988  0.2420  0.6968  0.5356
  969MOL0     C33634   8.177   8.777  -0.944  0.0464  0.3781 -0.5454
  969MOL0     N33635   7.902   8.130  -0.710  0.0346  0.6259  0.5790
  969MOL0     N33636   7.851   8.022  -0.663  0.3599  0.9472  0.1409
  969MOL0     C33637   7.174   7.421   0.366 -0.0167 -0.8236  0.0353
  969MOL0     C33638   7.170   7.383   0.503 -0.7702 -0.4397  0.0686
  969MOL0     C33639   7.233   7.307   0.920  0.2669 -0.1773  0.2202
  969MOL0     C33640   7.130   7.378   0.980 -0.1600 -0.4868 -0.2174
  969MOL0     C33641   7.078   7.352   1.103 -0.0898  0.8720  0.0076
  969MOL0     C33642   7.139   7.259   1.188  0.4262 -0.3702  0.9455
  969MOL0     O33643   7.079   7.233   1.314  0.0723  0.0140 -1.0230
  969MOL0     C33644   7.158   7.181   1.427 -0.0572  0.8228  0.5136
  969MOL0     C33645   7.110   7.246   1.558  0.2235 -0.1553  0.6850
  969MOL0     C33646   7.155   7.185   1.677 -0.1384 -0.0866 -0.3080
  969MOL0     C33647   7.063   7.066   1.698  0.2573  0.0936 -0.1221
  969MOL0     C33648   7.029   7.047   1.837 -0.3749 -0.0149  0.3707
  969MOL0     C33649   6.993   7.008   1.948  0.8472 -0.2419  0.0448
  969MOL0     C33650   7.251   7.185   1.142  0.6552 -0.2296 -0.5114
  969MOL0     C33651   7.296   7.206   1.006 -0.9412  0.1752 -0.7833
  969MOL0     C33652   7.414   7.121   0.972  0.3576 -0.4749 -0.0899
  969MOL0     H33653   7.327   7.656   0.644  1.1283 -0.1142 -1.0652
  969MOL0     H33654   7.280   7.742   0.422  1.3257 -0.6750  0.3437
  969MOL0     H33655   7.383   7.585   0.106 -0.5379 -1.3729  3.0331
  969MOL0     H33656   7.365   7.734   0.203  0.4958  0.1281  0.7823
  969MOL0     H33657   7.207   7.685  -0.043 -1.8400 -1.8863  1.2967
  969MOL0     H33658   7.179   7.808   0.078 -0.7784 -0.6042 -2.0933
  969MOL0     H33659   7.387   7.927   0.040 -3.7129  1.9066  0.4289
  969MOL0     H33660   7.451   7.782  -0.050 -1.2381 -0.3336 -0.4841
  969MOL0     H33661   7.277   7.826  -0.227  1.0559  0.0878 -1.1969
  969MOL0     H33662   7.222   7.966  -0.141  0.8796  1.8946 -3.7209
  969MOL0     H33663   7.437   8.090  -0.180  0.9938 -0.6281  1.0430
  969MOL0     H33664   7.337   8.051  -0.318 -0.0968  0.9667  0.8870
  969MOL0     H33665   7.568   7.876  -0.246 -0.6587 -0.8627 -1.0220
  969MOL0     H33666   7.477   7.866  -0.398  0.8146  2.2823 -2.0358
  969MOL0     H33667   7.704   8.035  -0.336 -0.2527 -2.2733 -0.2502
  969MOL0     H33668   7.549   8.128  -0.385 -0.3262 -0.1269  2.7657
  969MOL0     H33669   7.667   7.885  -0.531 -0.4630 -0.0020 -1.5416
  969MOL0     H33670   7.552   7.993  -0.592  0.1586 -3.2788  0.2043
  969MOL0     H33671   7.705   8.269  -0.509  0.5319 -0.2264  0.0668
  969MOL0     H33672   8.016   8.380  -0.673 -0.9579  0.7536  0.3370
  969MOL0     H33673   7.906   8.432  -0.564 -1.7325 -1.3356  0.7231
  969MOL0     H33674   7.733   8.413  -0.787 -0.0107  0.3548 -0.5657
  969MOL0     H33675   7.811   8.559  -0.790 -0.4805 -0.8244 -0.5077
  969MOL0     H33676   7.871   8.312  -0.943 -1.5501 -0.2190  3.1687
  969MOL0     H33677   7.851   8.466  -1.014  1.6436 -2.8191 -3.1118
  969MOL0     H33678   8.097   8.366  -0.874  1.9408  1.9653  1.0465
  969MOL0     H33679   8.084   8.414  -1.046  2.8281  2.1567  0.2693
  969MOL0     H33680   8.305   8.494  -1.060 -1.7458 -0.1018  2.2705
  969MOL0     H33681   8.519   8.535  -1.166  2.8914 -0.7719  0.7307
  969MOL0     H33682   8.611   8.648  -1.081  0.7838 -0.7996 -0.1773
  969MOL0     H33683   8.553   8.696  -1.243 -0.4548  3.7797  2.4515
  969MOL0     H33684   8.521   9.073  -1.315 -0.4803 -0.4345 -0.6355
  969MOL0     H33685   8.654   9.180  -1.488 -2.5734  1.0717  1.2291
  969MOL0     H33686   9.096   9.097  -1.538  0.8127 -1.1117 -0.2738
  969MOL0     H33687   9.014   8.980  -1.644  1.1105 -0.9729  2.6607
  969MOL0     H33688   9.050   9.261  -1.733 -1.9087 -0.8455 -1.3018
  969MOL0     H33689   9.176   9.136  -1.749  0.2417 -1.5251 -2.8425
  969MOL0     H33690   8.884   9.113  -1.846  0.1579 -0.8251 -1.0255
  969MOL0     H33691   9.007   8.994  -1.867 -0.7787 -0.2817  1.5663
  969MOL0     H33692   9.147   9.142  -2.008 -0.4368 -0.3045  0.8449
  969MOL0     H33693   9.044   9.280  -1.986 -0.1912  0.5331  0.5372
  969MOL0     H33694   9.011   9.182  -2.209 -1.9341  0.6394 -1.1478
  969MOL0     H33695   8.949   9.035  -2.136 -3.6337  0.7425 -1.4998
  969MOL0     H33696   8.755   9.134  -2.052  2.0804 -3.0959 -2.3296
  969MOL0     H33697   8.769   9.178  -2.220  0.3984  3.0927 -2.0121
  969MOL0     H33698   8.881   9.405  -2.118  0.9403 -0.3854  0.5351
  969MOL0     H33699   8.821   9.340  -1.969 -0.3860 -0.4901 -0.6917
  969MOL0     H33700   8.582   9.349  -2.033 -1.5636  1.7758  1.2664
  969MOL0     H33701   8.621   9.371  -2.203 -2.9697 -0.9699  0.8662
  969MOL0     H33702   8.981   8.918  -1.407 -0.2022 -0.5004 -0.3023
  969MOL0     H33703   8.877   8.852  -1.197  0.0013  1.0421  1.3952
  969MOL0     H33704   8.254   8.968  -0.941 -2.4302 -0.0786  1.6395
  969MOL0     H33705   8.107   8.809  -0.867  2.2244  1.0576  1.2672
  969MOL0     H33706   7.128   7.366   0.285  1.2744 -1.2268 -0.4400
  969MOL0     H33707   7.127   7.286   0.526 -0.4368 -0.7889 -0.7356
  969MOL0     H33708   7.076   7.451   0.921  2.3164  0.7809 -1.0605
  969MOL0     H33709   6.988   7.403   1.134 -1.8276 -1.7516 -0.3953
  969MOL0     H33710   7.140   7.073   1.430  0.6312  0.6202 -1.4805
  969MOL0     H33711   7.266   7.193   1.418 -0.4437  3.7117 -1.6020
  969MOL0     H33712   7.001   7.261   1.554  0.1329 -0.9963 -0.5390
  969MOL0     H33713   7.158   7.344   1.547  0.0729 -0.3068 -1.7634
  969MOL0     H33714   7.259   7.150   1.668  0.2431  1.2284 -1.2430
  969MOL0     H33715   7.153   7.250   1.765  1.1513 -0.3027 -0.0981
  969MOL0     H33716   7.102   6.970   1.665 -1.5780 -1.6961  2.5076
  969MOL0     H33717   6.967   7.080   1.647  0.4015 -0.5832 -0.5968
  969MOL0     H33718   6.968   6.970   2.044  3.3602 -1.3495  0.3321
  969MOL0     H33719   7.299   7.108   1.201 -1.0090 -0.5792  0.4502
  969MOL0     H33720   7.484   7.172   0.905  2.6626 -1.5039  1.4341
  969MOL0     H33721   7.462   7.081   1.061  3.0316 -2.2315 -2.1682
  969MOL0     H33722   7.373   7.031   0.924  0.9537 -0.4830 -0.5991
  970MOL0     O33723  11.338   5.125  11.148  0.3238  0.1655  0.2509
  970MOL0     C33724  11.274   5.222  11.179 -0.0504  0.4168 -0.1842
  970MOL0     O33725  11.139   5.219  11.222 -0.1578 -0.4497  0.3450
  970MOL0     C33726  11.091   5.141  11.322  0.3363  0.3886 -0.2894
  970MOL0     C33727  11.140   5.018  11.354 -0.0546 -0.0874  0.0894
  970MOL0     C33728  11.079   4.956  11.461  0.3021 -0.3977  0.7240
  970MOL0     C33729  10.961   5.008  11.520  0.7880  0.2251  0.2060
  970MOL0     O33730  10.900   4.952  11.621  0.6513  0.1915 -0.2885
  970MOL0     C33731  10.974   4.973  11.737 -0.6309 -0.4601  0.1197
  970MOL0     C33732  10.983   4.853  11.830  0.1136  0.2949  0.8092
  970MOL0     C33733  11.069   4.742  11.770  0.0194  0.8558  0.0792
  970MOL0     C33734  11.069   4.631  11.868  0.2526  0.2640 -0.5415
  970MOL0     C33735  11.185   4.532  11.858 -0.0991 -0.6763  0.3489
  970MOL0     C33736  11.237   4.476  11.996 -0.5203  0.6642  0.8695
  970MOL0     C33737  11.135   4.395  12.065 -0.4892 -0.8456 -0.0599
  970MOL0     C33738  11.082   4.467  12.201 -0.1990  0.0924 -0.1279
  970MOL0     N33739  10.978   4.383  12.270 -1.0425  0.4101  0.2825
  970MOL0     C33740  10.864   4.331  12.210 -0.4016 -0.4509  0.5752
  970MOL0     C33741  10.814   4.250  12.306 -0.1912  0.3162 -0.8515
  970MOL0     C33742  10.686   4.165  12.298  0.2337 -0.6814  1.2541
  970MOL0     C33743  10.573   4.222  12.381  0.3351 -0.8191 -0.2228
  970MOL0     C33744  10.452   4.137  12.380  0.8836 -0.1833 -0.7677
  970MOL0     C33745  10.368   4.176  12.499  0.2224 -0.2588  0.2530
  970MOL0     O33746  10.225   4.153  12.466 -0.3045 -0.3166  0.5509
  970MOL0     C33747  10.128   4.184  12.551  0.6859  0.2350 -0.9463
  970MOL0     C33748  10.125   4.291  12.640 -0.5151 -1.1306 -0.4514
  970MOL0     C33749  10.029   4.318  12.728 -0.2073 -0.0878  0.5752
  970MOL0     C33750  10.057   4.413  12.846 -1.3387  0.3344  0.2212
  970MOL0     C33751   9.899   4.264  12.700 -1.1992 -1.4392  0.5490
  970MOL0     C33752   9.764   4.312  12.743 -0.2539  0.5317 -1.3646
  970MOL0     O33753   9.656   4.246  12.699 -0.5531  0.3213 -0.2741
  970MOL0     C33754   9.528   4.276  12.737 -1.0199 -1.4317 -0.1886
  970MOL0     C33755   9.428   4.296  12.634  0.6595  0.0806  0.9061
  970MOL0     C33756   9.298   4.306  12.672  0.3258 -1.5877 -0.0320
  970MOL0     C33757   9.260   4.323  12.806  0.2750  0.4009 -0.4356
  970MOL0     O33758   9.129   4.340  12.836 -0.0559  0.3325 -0.9372
  970MOL0     C33759   9.087   4.420  12.950 -0.4665  1.0799  0.2334
  970MOL0     C33760   8.930   4.423  12.980 -1.1680  0.0808  0.0954
  970MOL0     C33761   8.861   4.284  12.989 -0.6806  0.2494  0.2392
  970MOL0     C33762   8.716   4.302  13.028 -0.7179  0.3364 -1.0430
  970MOL0     C33763   8.650   4.162  13.015 -0.0314  0.2374 -0.3586
  970MOL0     C33764   8.499   4.173  13.069  0.1426 -0.1432 -1.5341
  970MOL0     C33765   8.428   4.038  13.065 -1.1676 -0.1524  0.2060
  970MOL0     C33766   8.272   4.057  13.061 -0.1164  0.5567 -0.2669
  970MOL0    Cl33767   8.215   4.165  13.190 -0.3183  0.3999 -0.2540
  970MOL0     C33768   9.363   4.315  12.902 -0.2568 -0.7897 -0.1274
  970MOL0     C33769   9.493   4.295  12.871 -0.5742 -0.6374  0.4062
  970MOL0     O33770   9.757   4.401  12.829 -0.6236  0.0116 -0.5820
  970MOL0     C33771   9.903   4.157  12.609 -0.0385  0.8149 -0.7100
  970MOL0     C33772  10.013   4.122  12.548  0.4099  0.2451  1.0499
  970MOL0     N33773  10.890   4.274  12.419  0.7523 -0.1750 -1.5117
  970MOL0     N33774  10.990   4.353  12.402 -0.6434 -0.1133 -0.5134
  970MOL0     C33775  10.907   5.131  11.474  0.2471  1.2347  0.3565
  970MOL0     C33776  10.969   5.188  11.363  0.9406 -0.6814  0.2928
  970MOL0     C33777  11.327   5.355  11.144  0.1805 -0.7289  0.1073
  970MOL0     C33778  11.252   5.454  11.085 -0.5688  0.2354  0.4171
  970MOL0     C33779  11.306   5.579  11.044 -0.1710  0.5982 -0.1807
  970MOL0     C33780  11.430   5.624  11.086 -0.2154 -0.1663 -0.2503
  970MOL0     O33781  11.487   5.752  11.082  0.5602 -0.3310 -0.3171
  970MOL0     C33782  11.412   5.848  11.014  0.5528  0.3282  0.1099
  970MOL0     C33783  11.307   5.924  11.095 -0.1654 -0.2771 -0.8837
  970MOL0     C33784  11.354   5.990  11.224  1.1573  0.8263  0.1510
  970MOL0     C33785  11.488   6.061  11.212 -0.1149  0.3086 -0.4505
  970MOL0     C33786  11.504   6.148  11.098 -0.3822  0.5867  1.1112
  970MOL0     C33787  11.512   6.214  11.006  0.3211 -0.1029  0.6395
  970MOL0     C33788  11.510   5.521  11.138 -0.0497 -0.3905  0.0984
  970MOL0     C33789  11.465   5.395  11.175 -0.4341 -0.1262  0.5291
  970MOL0     C33790  11.577   5.304  11.223 -0.6263 -1.1146  0.1683
  970MOL0     H33791  11.227   4.976  11.304  0.8263  0.2661  1.2829
  970MOL0     H33792  11.106   4.859  11.502 -3.0357 -1.4289  0.7210
  970MOL0     H33793  10.922   5.052  11.792 -0.6873  0.1875 -0.8316
  970MOL0     H33794  11.078   5.000  11.718 -0.6320 -1.9112 -2.5010
  970MOL0     H33795  11.037   4.890  11.918  1.2663  2.1022 -0.6083
  970MOL0     H33796  10.890   4.814  11.873 -0.5390  1.9893  0.9872
  970MOL0     H33797  11.041   4.704  11.672  0.2267  0.7221  0.0712
  970MOL0     H33798  11.171   4.781  11.764  0.3271  0.6398  2.7250
  970MOL0     H33799  11.084   4.671  11.968  3.2675 -1.8713 -0.0120
  970MOL0     H33800  10.977   4.572  11.859 -0.6488  1.1453  1.9799
  970MOL0     H33801  11.268   4.581  11.808  0.8635 -0.7901  1.7731
  970MOL0     H33802  11.163   4.450  11.789 -1.2322  0.1976 -0.3570
  970MOL0     H33803  11.320   4.411  11.964 -0.8108  0.7860 -0.1847
  970MOL0     H33804  11.287   4.554  12.054  1.3380 -0.0602  0.3214
  970MOL0     H33805  11.163   4.289  12.074  0.5780 -0.3795  3.0287
  970MOL0     H33806  11.051   4.373  11.998  1.0723  0.8626 -2.7975
  970MOL0     H33807  11.177   4.472  12.255  0.9996  3.6837 -2.2542
  970MOL0     H33808  11.053   4.570  12.181  4.7590  1.5000 -1.4317
  970MOL0     H33809  10.819   4.328  12.112 -1.1124  4.2600  0.5465
  970MOL0     H33810  10.713   4.063  12.330  2.8679  0.4037  2.8042
  970MOL0     H33811  10.641   4.173  12.199 -0.5429 -0.6945  1.6012
  970MOL0     H33812  10.619   4.237  12.479 -0.4350 -0.4525  0.0949
  970MOL0     H33813  10.547   4.322  12.343  1.9956  0.2928  1.3837
  970MOL0     H33814  10.403   4.143  12.282  0.3697  0.3263 -0.4855
  970MOL0     H33815  10.484   4.035  12.402  1.9770  0.8742  3.5409
  970MOL0     H33816  10.393   4.114  12.586  0.9592  1.2237  1.1310
  970MOL0     H33817  10.375   4.282  12.526  1.0931 -0.4106  0.6541
  970MOL0     H33818  10.212   4.356  12.641 -2.9194  2.3450  0.3855
  970MOL0     H33819  10.156   4.407  12.892 -0.7743 -0.5169 -1.0363
  970MOL0     H33820   9.981   4.386  12.919 -2.3201  0.8600 -0.5831
  970MOL0     H33821  10.045   4.518  12.818 -0.5506 -0.0300 -1.6665
  970MOL0     H33822   9.440   4.301  12.526  0.3607  1.2378  0.9159
  970MOL0     H33823   9.217   4.326  12.602  0.9799 -1.6960 -0.8367
  970MOL0     H33824   9.121   4.380  13.046 -3.8413 -0.0102  1.0949
  970MOL0     H33825   9.120   4.524  12.942 -2.4465  2.0363  3.0334
  970MOL0     H33826   8.909   4.467  13.078 -1.4820 -0.8580  0.4592
  970MOL0     H33827   8.891   4.491  12.904  5.0907  2.5437 -1.5494
  970MOL0     H33828   8.913   4.228  13.067 -2.0049  3.0353  3.3774
  970MOL0     H33829   8.867   4.232  12.893  1.4367  2.1435 -0.7499
  970MOL0     H33830   8.669   4.378  12.965  0.8684  0.2285 -2.4332
  970MOL0     H33831   8.709   4.342  13.129  0.7405  1.6772 -1.4418
  970MOL0     H33832   8.642   4.136  12.909 -3.1568 -1.0590  0.0709
  970MOL0     H33833   8.709   4.093  13.075  0.1675  0.6956 -0.0191
  970MOL0     H33834   8.446   4.248  13.011  0.8280  1.3334 -0.3280
  970MOL0     H33835   8.493   4.195  13.176  2.0492 -1.4817 -1.0979
  970MOL0     H33836   8.450   3.966  13.144  1.3479  1.8449  1.5006
  970MOL0     H33837   8.464   3.990  12.974  0.3649  0.7108  0.3140
  970MOL0     H33838   8.233   3.955  13.065 -1.5098  1.0847  2.9279
  970MOL0     H33839   8.251   4.092  12.959  1.3098  1.6931 -0.2031
  970MOL0     H33840   9.340   4.319  13.008  3.1393  1.1215  0.6885
  970MOL0     H33841   9.569   4.282  12.947  0.2852  2.3859  0.1792
  970MOL0     H33842   9.810   4.104  12.593 -0.3574  1.7722 -2.2155
  970MOL0     H33843  10.011   4.041  12.476  2.5583  1.0307  0.0220
  970MOL0     H33844  10.817   5.180  11.509  0.4479  1.0102  1.2025
  970MOL0     H33845  10.927   5.262  11.295  0.3066 -2.2399 -1.0614
  970MOL0     H33846  11.148   5.432  11.063 -0.7882 -2.7727  3.6859
  970MOL0     H33847  11.236   5.641  10.988 -0.6107 -1.1335 -1.6404
  970MOL0     H33848  11.491   5.913  10.976  0.7320 -0.5319 -1.0240
  970MOL0     H33849  11.359   5.798  10.933  0.2833  0.7923 -0.0040
  970MOL0     H33850  11.230   5.856  11.133 -1.0882  0.6218 -1.0813
  970MOL0     H33851  11.264   6.002  11.031  0.4762  0.2463 -0.6898
  970MOL0     H33852  11.280   6.069  11.238 -0.5517 -0.5327 -0.8992
  970MOL0     H33853  11.337   5.917  11.303 -0.2348  1.0093  0.0394
  970MOL0     H33854  11.566   5.987  11.230 -0.4900  0.3189  1.3930
  970MOL0     H33855  11.489   6.129  11.297 -0.0515  2.8984 -2.3945
  970MOL0     H33856  11.518   6.265  10.912 -1.1347 -2.1164 -0.6322
  970MOL0     H33857  11.608   5.555  11.169 -1.0485  3.6084 -0.5248
  970MOL0     H33858  11.654   5.341  11.292 -0.6832 -1.0079  0.1761
  970MOL0     H33859  11.526   5.237  11.293 -2.9576  0.0784 -0.2719
  970MOL0     H33860  11.616   5.245  11.140 -1.5287 -3.4859  1.3292
  971MOL0     O33861   7.935   7.120  11.249  0.3276  0.2052  0.3586
  971MOL0     C33862   7.895   7.028  11.318  0.2884 -0.1501 -0.6427
  971MOL0     O33863   7.956   6.911  11.319 -0.5226 -1.1191  0.0908
  971MOL0     C33864   8.089   6.904  11.287 -1.0282  2.0329 -0.5395
  971MOL0     C33865   8.196   6.869  11.390  0.6243  0.4000  0.5491
  971MOL0     C33866   8.326   6.835  11.343 -0.1710  0.5746 -0.3176
  971MOL0     C33867   8.355   6.813  11.201  0.5347  0.5007 -0.8361
  971MOL0     O33868   8.477   6.763  11.151  0.1248 -0.2043  0.4901
  971MOL0     C33869   8.587   6.753  11.240 -0.0530 -0.0068 -0.3044
  971MOL0     C33870   8.708   6.707  11.162 -0.7580 -0.4321  0.4978
  971MOL0     C33871   8.790   6.831  11.102 -0.1877  0.1290 -0.1382
  971MOL0     C33872   8.935   6.771  11.074  0.2762 -0.9459 -0.0346
  971MOL0     C33873   9.007   6.863  10.972  0.4626  0.3260 -0.7481
  971MOL0     C33874   9.052   6.998  11.017 -0.1964 -0.0532 -0.2544
  971MOL0     C33875   9.143   7.083  10.931 -0.3323 -0.1520  0.3051
  971MOL0     C33876   9.064   7.172  10.832 -0.0753 -0.8463  0.3262
  971MOL0     N33877   9.115   7.178  10.699 -0.5515  0.5099  0.0475
  971MOL0     C33878   9.222   7.255  10.659 -0.4702  0.5701 -0.4169
  971MOL0     C33879   9.250   7.238  10.536  0.8570  0.2261  1.2436
  971MOL0     C33880   9.364   7.305  10.474 -0.0994  0.5965  1.5493
  971MOL0     C33881   9.483   7.212  10.474 -0.2646  0.0776 -0.6666
  971MOL0     C33882   9.618   7.309  10.485  0.7204  1.1372  0.6290
  971MOL0     C33883   9.738   7.225  10.430 -0.2511 -1.1120 -0.2801
  971MOL0     O33884   9.754   7.119  10.523 -0.5437 -0.2507  0.3346
  971MOL0     C33885   9.859   7.049  10.483  0.6748  0.1343 -0.2873
  971MOL0     C33886   9.859   6.944  10.395  0.4960 -0.3756  0.5929
  971MOL0     C33887   9.972   6.878  10.368 -0.3241  1.1039  1.0003
  971MOL0     C33888   9.958   6.775  10.248 -0.1743 -0.4880 -0.2297
  971MOL0     C33889  10.090   6.886  10.441 -0.2139 -0.1548 -0.6336
  971MOL0     C33890  10.208   6.794  10.419  0.9939  0.1997 -0.4995
  971MOL0     O33891  10.289   6.800  10.534  0.8509 -0.8497 -0.3001
  971MOL0     C33892  10.409   6.748  10.517 -0.6913  0.5755 -0.8659
  971MOL0     C33893  10.433   6.618  10.558 -0.4450 -0.1711 -0.3559
  971MOL0     C33894  10.568   6.573  10.555 -0.2283  0.3973 -0.6097
  971MOL0     C33895  10.673   6.652  10.530 -0.7673 -0.0503 -0.1907
  971MOL0     O33896  10.795   6.582  10.529  0.1334  0.0764 -0.4164
  971MOL0     C33897  10.878   6.613  10.423  0.3107  0.2619 -0.4509
  971MOL0     C33898  10.966   6.490  10.389  0.9841 -0.1710 -0.0068
  971MOL0     C33899  11.071   6.510  10.288  0.5887 -0.2527  0.7943
  971MOL0     C33900  11.213   6.534  10.358  0.5376 -0.3189  0.9364
  971MOL0     C33901  11.328   6.561  10.257 -1.2653 -0.3157  0.2908
  971MOL0     C33902  11.455   6.604  10.337  0.7521  0.3656  0.8836
  971MOL0     C33903  11.548   6.681  10.241  0.1517  0.7201 -0.2730
  971MOL0     C33904  11.645   6.768  10.324  0.3261  0.6377  0.8334
  971MOL0    Cl33905  11.568   6.929  10.336  0.7606 -0.5836 -0.5831
  971MOL0     C33906  10.643   6.788  10.509 -0.0034  0.7081 -0.5335
  971MOL0     C33907  10.515   6.832  10.499 -1.2649 -0.2106  0.3744
  971MOL0     O33908  10.232   6.737  10.314 -0.8397  0.0332  1.0585
  971MOL0     C33909  10.084   6.992  10.536 -0.0194  0.5223 -1.3663
  971MOL0     C33910   9.973   7.071  10.554  1.3466  0.4718  0.5645
  971MOL0     N33911   9.166   7.139  10.492 -0.3842 -0.7667  0.1521
  971MOL0     N33912   9.082   7.108  10.585  0.4505  0.1059 -0.2384
  971MOL0     C33913   8.248   6.830  11.108 -0.1383 -0.1343 -0.2418
  971MOL0     C33914   8.124   6.873  11.146 -0.1583 -1.0828 -1.0158
  971MOL0     C33915   7.763   7.044  11.377  0.1239 -0.3619  0.5043
  971MOL0     C33916   7.738   7.030  11.514 -0.4920 -0.5763 -1.0152
  971MOL0     C33917   7.612   7.042  11.570 -0.1437 -0.3699  0.0204
  971MOL0     C33918   7.501   7.066  11.489 -0.2926 -0.9097 -0.5328
  971MOL0     O33919   7.372   7.084  11.538  0.7601 -0.8426 -0.7882
  971MOL0     C33920   7.359   7.108  11.676 -0.0290  0.5666 -0.2132
  971MOL0     C33921   7.213   7.152  11.691 -0.2610 -0.1876  0.2340
  971MOL0     C33922   7.190   7.287  11.617  0.9783  0.3434 -0.4921
  971MOL0     C33923   7.122   7.269  11.490 -0.4677  0.1244  0.3533
  971MOL0     C33924   7.096   7.404  11.432 -0.7999  0.7067 -0.7591
  971MOL0     C33925   7.082   7.522  11.391  0.1849  0.2031  0.4844
  971MOL0     C33926   7.527   7.086  11.352 -0.2792 -0.7951 -0.3737
  971MOL0     C33927   7.652   7.085  11.300  0.6596  0.4231 -0.0556
  971MOL0     C33928   7.658   7.104  11.142  0.4152 -0.0925  0.9003
  971MOL0     H33929   8.168   6.868  11.495  0.7915 -0.5046  0.5903
  971MOL0     H33930   8.406   6.811  11.413 -1.2698 -2.2239  0.1487
  971MOL0     H33931   8.556   6.670  11.305  0.5961  0.0908  0.1368
  971MOL0     H33932   8.598   6.845  11.299  1.6969 -1.1069  1.2121
  971MOL0     H33933   8.781   6.653  11.223 -0.0488 -0.5593 -0.4432
  971MOL0     H33934   8.689   6.631  11.086  1.0565 -2.0021  1.4956
  971MOL0     H33935   8.732   6.857  11.013 -0.4952 -0.7306 -0.2012
  971MOL0     H33936   8.792   6.908  11.179 -0.7504  0.0895 -0.0780
  971MOL0     H33937   8.991   6.771  11.168  1.7570  0.6829 -0.8666
  971MOL0     H33938   8.916   6.669  11.038 -0.0974 -0.8042 -0.2457
  971MOL0     H33939   8.939   6.866  10.886 -0.6919  0.1921  0.1307
  971MOL0     H33940   9.101   6.819  10.938  0.9915 -0.1666  1.2319
  971MOL0     H33941   8.969   7.058  11.055 -3.2040 -2.2854 -2.7660
  971MOL0     H33942   9.112   6.960  11.100  2.2430  1.1406 -1.3540
  971MOL0     H33943   9.212   7.018  10.877  0.5907 -0.0453  1.3286
  971MOL0     H33944   9.202   7.149  10.995  0.7320  2.3116 -2.9200
  971MOL0     H33945   8.957   7.157  10.817 -0.3561  0.1780  1.1722
  971MOL0     H33946   9.056   7.273  10.873  0.0758  0.2073 -2.0927
  971MOL0     H33947   9.270   7.328  10.724 -1.4315 -0.1867  1.2185
  971MOL0     H33948   9.378   7.394  10.537 -1.7295 -0.8267  4.0881
  971MOL0     H33949   9.329   7.317  10.371  5.4150 -1.7711 -0.9807
  971MOL0     H33950   9.495   7.154  10.567 -0.4009 -0.1097 -0.7655
  971MOL0     H33951   9.478   7.140  10.392  1.4900  2.2765 -2.8410
  971MOL0     H33952   9.595   7.399  10.428  0.9555  0.9436  0.2263
  971MOL0     H33953   9.636   7.333  10.590 -2.3370  1.6562  1.1455
  971MOL0     H33954   9.718   7.184  10.331  0.6094 -0.7771 -0.6073
  971MOL0     H33955   9.826   7.290  10.420 -0.1173 -1.3147 -0.4257
  971MOL0     H33956   9.758   6.932  10.358 -0.9784  1.6235  3.5347
  971MOL0     H33957   9.887   6.808  10.171  0.6070 -2.9519 -2.1542
  971MOL0     H33958   9.940   6.677  10.292 -0.4090 -1.5629 -2.5739
  971MOL0     H33959  10.044   6.757  10.183 -0.4015  0.7682 -0.9204
  971MOL0     H33960  10.357   6.552  10.600 -0.5047 -1.2568 -2.0546
  971MOL0     H33961  10.612   6.475  10.575  0.8677  1.0126  0.1456
  971MOL0     H33962  10.813   6.648  10.342 -3.5130  0.2256  2.3423
  971MOL0     H33963  10.940   6.697  10.454  0.3857 -0.3401  1.1304
  971MOL0     H33964  11.007   6.433  10.473  1.6987 -0.1377 -0.3200
  971MOL0     H33965  10.886   6.426  10.352 -0.9662  1.5001  1.1199
  971MOL0     H33966  11.059   6.596  10.222  1.2043  1.7585  3.1688
  971MOL0     H33967  11.079   6.429  10.215 -0.5948  0.9924 -0.7758
  971MOL0     H33968  11.240   6.449  10.421  2.2628 -0.5020  0.0046
  971MOL0     H33969  11.219   6.616  10.429  2.4702 -1.5264  2.2612
  971MOL0     H33970  11.349   6.474  10.195  0.2586  1.3705 -1.6843
  971MOL0     H33971  11.298   6.640  10.188  0.9184  0.4209  0.1001
  971MOL0     H33972  11.501   6.515  10.379  1.5316 -0.9483 -2.4323
  971MOL0     H33973  11.425   6.660  10.426  1.6320 -1.0254  2.0857
  971MOL0     H33974  11.490   6.739  10.168 -0.0488 -1.2250 -1.7358
  971MOL0     H33975  11.600   6.610  10.176 -0.9105  2.0087 -2.6489
  971MOL0     H33976  11.739   6.772  10.269  1.1528  3.1186  2.2676
  971MOL0     H33977  11.672   6.723  10.420  0.0326  0.5441  0.8726
  971MOL0     H33978  10.725   6.859  10.508  0.6852  0.2031  3.5137
  971MOL0     H33979  10.481   6.934  10.487 -2.8852 -0.6794  0.7814
  971MOL0     H33980  10.173   7.014  10.595 -0.9840 -0.5512  0.5947
  971MOL0     H33981   9.978   7.149  10.630  2.4591 -2.1655  3.4009
  971MOL0     H33982   8.274   6.813  11.004 -0.8217 -1.9803 -0.1538
  971MOL0     H33983   8.044   6.896  11.078  0.6638  1.4043 -1.2364
  971MOL0     H33984   7.823   7.028  11.582  1.4156  2.3207 -3.0452
  971MOL0     H33985   7.606   7.017  11.675 -1.4139 -0.1506  0.0179
  971MOL0     H33986   7.371   7.013  11.729 -2.3607  1.8250  2.8880
  971MOL0     H33987   7.430   7.187  11.704 -1.0547  1.5281 -0.2899
  971MOL0     H33988   7.196   7.177  11.796 -1.3374  0.9630 -0.1865
  971MOL0     H33989   7.141   7.073  11.671 -2.2042  0.5287  3.6477
  971MOL0     H33990   7.122   7.350  11.675  2.2404  1.3562 -0.0775
  971MOL0     H33991   7.282   7.343  11.604  1.7492 -1.0834 -1.5411
  971MOL0     H33992   7.024   7.220  11.492 -1.5188  2.1106  0.1418
  971MOL0     H33993   7.181   7.205  11.424  1.4278  0.1134  1.9620
  971MOL0     H33994   7.030   7.611  11.360 -0.5869 -1.2976 -3.0391
  971MOL0     H33995   7.443   7.119  11.291 -1.5531  2.7453  2.8698
  971MOL0     H33996   7.560   7.112  11.094  0.8209  2.0431  0.3205
  971MOL0     H33997   7.710   7.195  11.110  2.2927 -2.6750 -4.5792
  971MOL0     H33998   7.712   7.024  11.090  2.8128  1.7451  0.3394
  972MOL0     O33999   5.458   8.317   2.272  0.3966  0.2019 -0.4222
  972MOL0     C34000   5.415   8.416   2.327  0.1957  0.2481 -0.4823
  972MOL0     O34001   5.359   8.416   2.449 -0.4969 -0.3849  0.5240
  972MOL0     C34002   5.342   8.296   2.522  0.1196 -0.6985 -0.4060
  972MOL0     C34003   5.429   8.264   2.623  0.2873 -0.0807  0.2178
  972MOL0     C34004   5.413   8.152   2.703 -0.5509  0.6061 -0.5383
  972MOL0     C34005   5.300   8.073   2.690 -0.1551  0.4419 -0.2738
  972MOL0     O34006   5.269   7.973   2.775 -0.8666  0.1646  0.1488
  972MOL0     C34007   5.328   7.966   2.895  0.6605  0.1020 -0.2590
  972MOL0     C34008   5.275   7.858   2.984  0.2037  1.0007 -1.0142
  972MOL0     C34009   5.322   7.868   3.127 -0.0619 -0.3784  0.0680
  972MOL0     C34010   5.471   7.894   3.159  0.8885 -0.2948  0.5984
  972MOL0     C34011   5.528   8.034   3.150  0.6304  0.1091 -0.6047
  972MOL0     C34012   5.674   8.045   3.203  0.1632  0.0641  0.9259
  972MOL0     C34013   5.774   7.960   3.124 -0.3673  0.0131 -0.1860
  972MOL0     C34014   5.806   7.987   2.974 -0.4949 -0.3916  0.7201
  972MOL0     N34015   5.815   8.131   2.951 -0.2107 -0.4802 -0.2643
  972MOL0     C34016   5.928   8.205   2.976 -0.0517 -0.4671 -0.0406
  972MOL0     C34017   5.893   8.321   2.922  0.6280 -0.0618 -0.0628
  972MOL0     C34018   5.986   8.422   2.891 -0.3688  0.2880  0.9158
  972MOL0     C34019   5.930   8.552   2.949 -0.0347  0.0551  0.2034
  972MOL0     C34020   6.039   8.663   2.954  0.4095 -0.8745  0.5833
  972MOL0     C34021   6.060   8.734   2.809  0.0653 -0.3539 -0.1783
  972MOL0     O34022   6.188   8.800   2.802  0.4129 -0.0951  0.2073
  972MOL0     C34023   6.235   8.848   2.683  0.3504 -0.0359 -0.4672
  972MOL0     C34024   6.370   8.852   2.662 -0.3454 -0.1636 -0.5012
  972MOL0     C34025   6.431   8.923   2.551  0.1252  0.1605  0.5211
  972MOL0     C34026   6.584   8.921   2.538  0.0857  0.9279 -1.4612
  972MOL0     C34027   6.349   8.965   2.441 -0.2565 -0.4541 -0.4537
  972MOL0     C34028   6.393   9.015   2.310 -0.2300 -0.1385 -0.4676
  972MOL0     O34029   6.312   8.977   2.201 -0.5324  0.1423 -0.0142
  972MOL0     C34030   6.305   9.047   2.085  0.0865  0.7374 -0.2207
  972MOL0     C34031   6.251   8.989   1.967  0.1174  0.1707 -0.3885
  972MOL0     C34032   6.256   9.053   1.843 -0.2996  0.0139  0.1322
  972MOL0     C34033   6.303   9.183   1.827 -0.2717  0.1456  0.1728
  972MOL0     O34034   6.288   9.245   1.709  0.8926 -0.3676  0.1066
  972MOL0     C34035   6.274   9.385   1.695  0.2890  0.7084  0.2132
  972MOL0     C34036   6.243   9.411   1.546 -0.0896 -0.5035  0.0257
  972MOL0     C34037   6.362   9.359   1.458 -0.9347  0.7348 -0.2235
  972MOL0     C34038   6.496   9.443   1.485 -0.8029  0.7835  0.8155
  972MOL0     C34039   6.616   9.398   1.405 -0.6086  0.4020 -0.7986
  972MOL0     C34040   6.634   9.236   1.412 -0.8469  0.6516 -0.6538
  972MOL0     C34041   6.779   9.201   1.379 -0.1886 -0.2044 -0.5689
  972MOL0     C34042   6.797   9.049   1.389  0.7941 -0.4528 -0.1957
  972MOL0    Cl34043   6.957   9.003   1.391 -0.3147 -0.1314 -0.5859
  972MOL0     C34044   6.341   9.251   1.944 -0.4873  0.2464 -0.6018
  972MOL0     C34045   6.349   9.184   2.069  0.7406  1.1300  0.1422
  972MOL0     O34046   6.491   9.092   2.304  0.4516 -0.5763  0.1516
  972MOL0     C34047   6.209   8.936   2.464 -0.4879 -0.0974  0.6867
  972MOL0     C34048   6.151   8.892   2.584  0.8028  0.3466 -0.4529
  972MOL0     N34049   5.764   8.311   2.871 -0.1259  0.0957  0.0363
  972MOL0     N34050   5.712   8.203   2.898 -0.3365  1.0188 -0.0743
  972MOL0     C34051   5.207   8.108   2.588 -0.8797 -0.6891 -0.4574
  972MOL0     C34052   5.234   8.219   2.501  0.0412  0.3396 -0.2464
  972MOL0     C34053   5.434   8.549   2.259 -1.0642  0.1837  0.6128
  972MOL0     C34054   5.370   8.663   2.319 -0.4196 -0.8910  0.0841
  972MOL0     C34055   5.393   8.799   2.276  0.1403 -0.4806 -0.0041
  972MOL0     C34056   5.479   8.822   2.174 -0.2440  0.9294 -0.5393
  972MOL0     O34057   5.506   8.943   2.132  0.1548 -0.3697 -0.2070
  972MOL0     C34058   5.428   8.985   2.021  1.1815  0.0617 -0.3784
  972MOL0     C34059   5.516   9.088   1.941 -0.7703  0.0711  0.8599
  972MOL0     C34060   5.602   9.020   1.829  0.8307 -0.7799  0.5078
  972MOL0     C34061   5.702   9.108   1.755 -0.2180 -0.3207 -0.9002
  972MOL0     C34062   5.638   9.205   1.661  0.9978  0.3366  0.2249
  972MOL0     C34063   5.577   9.266   1.573  0.3397 -0.0546 -0.4202
  972MOL0     C34064   5.548   8.718   2.114  0.0098  0.6636  0.7219
  972MOL0     C34065   5.523   8.578   2.152  0.1573 -0.1805  0.9205
  972MOL0     C34066   5.588   8.475   2.055 -0.4741 -0.5329  0.0312
  972MOL0     H34067   5.503   8.339   2.648  2.5769 -2.3997  0.8498
  972MOL0     H34068   5.480   8.131   2.786  0.8337  1.4092 -1.4015
  972MOL0     H34069   5.300   8.054   2.954  0.5572  0.5867 -1.0236
  972MOL0     H34070   5.434   7.942   2.888  0.2225 -1.6069 -1.8337
  972MOL0     H34071   5.166   7.865   2.997  0.3248  1.8873 -0.3467
  972MOL0     H34072   5.302   7.763   2.937 -3.7067  0.9410 -3.6699
  972MOL0     H34073   5.262   7.947   3.173  1.1327 -0.6437  2.1964
  972MOL0     H34074   5.294   7.773   3.174 -2.4848 -0.6785 -1.7872
  972MOL0     H34075   5.490   7.867   3.263  2.5041  0.0008  0.4013
  972MOL0     H34076   5.519   7.834   3.081  0.8651  2.4180 -1.6721
  972MOL0     H34077   5.468   8.097   3.217  1.0464  1.4862 -1.4835
  972MOL0     H34078   5.530   8.076   3.048  0.0613 -0.7808 -0.9937
  972MOL0     H34079   5.715   8.146   3.199  0.8463 -0.2421 -0.5648
  972MOL0     H34080   5.672   8.011   3.307 -2.5944 -3.3606 -0.0393
  972MOL0     H34081   5.736   7.858   3.134  1.5043 -0.7036 -0.0142
  972MOL0     H34082   5.866   7.964   3.183  0.5195 -0.6019 -1.4895
  972MOL0     H34083   5.897   7.938   2.940 -1.4448 -2.7168  1.3356
  972MOL0     H34084   5.714   7.951   2.925 -0.7405  0.4700  0.5367
  972MOL0     H34085   6.019   8.166   3.020 -1.0850 -0.7126  2.0613
  972MOL0     H34086   5.984   8.424   2.782  2.5931  1.2263  0.7964
  972MOL0     H34087   6.091   8.414   2.920  0.5885  3.3431 -1.2298
  972MOL0     H34088   5.842   8.596   2.901  0.4285 -1.2499 -2.0086
  972MOL0     H34089   5.911   8.532   3.055 -0.6340 -2.2801 -0.2804
  972MOL0     H34090   6.013   8.737   3.031 -1.7756 -1.5059  0.5107
  972MOL0     H34091   6.132   8.609   2.976  1.2696  0.4836  0.4423
  972MOL0     H34092   6.062   8.662   2.726 -2.5681 -0.3341 -0.3343
  972MOL0     H34093   5.982   8.810   2.805 -1.8711 -2.0502  2.2501
  972MOL0     H34094   6.428   8.800   2.738  0.1416  2.5028  1.0959
  972MOL0     H34095   6.629   8.832   2.494  0.0675 -0.8457  1.8283
  972MOL0     H34096   6.625   8.917   2.639 -2.3649  1.0351 -0.3991
  972MOL0     H34097   6.614   9.016   2.493  1.8824 -0.2977 -3.0015
  972MOL0     H34098   6.199   8.893   1.973  0.0448  0.2687  0.8693
  972MOL0     H34099   6.207   9.008   1.757 -1.8842  0.8110  0.5837
  972MOL0     H34100   6.189   9.420   1.754  0.1263 -0.1403  0.4985
  972MOL0     H34101   6.362   9.447   1.714  0.8073  0.5128 -1.3648
  972MOL0     H34102   6.145   9.369   1.526 -0.9916 -0.9022  4.4156
  972MOL0     H34103   6.237   9.519   1.529 -2.8537 -0.8354 -1.7186
  972MOL0     H34104   6.318   9.362   1.358 -3.0948  1.6020  0.6929
  972MOL0     H34105   6.375   9.253   1.480  0.1890  0.7258 -0.8585
  972MOL0     H34106   6.519   9.445   1.592  0.1604 -1.0014  0.6830
  972MOL0     H34107   6.479   9.546   1.453  1.4850  0.9478 -0.0294
  972MOL0     H34108   6.610   9.435   1.303  0.1891  4.6671  0.5075
  972MOL0     H34109   6.699   9.455   1.446 -1.0267  2.6804 -2.9330
  972MOL0     H34110   6.567   9.185   1.342 -1.5664 -0.9370  1.1107
  972MOL0     H34111   6.597   9.216   1.513 -1.0719  2.6137 -0.2967
  972MOL0     H34112   6.847   9.261   1.440 -2.0623  2.5555 -1.0449
  972MOL0     H34113   6.799   9.217   1.272 -0.8754 -3.6116 -1.3296
  972MOL0     H34114   6.758   9.004   1.297  1.3943  1.3859 -1.3957
  972MOL0     H34115   6.749   9.002   1.476 -1.3557 -0.7898 -1.5053
  972MOL0     H34116   6.381   9.352   1.948  1.1990 -0.4229  0.5264
  972MOL0     H34117   6.381   9.227   2.163 -0.9966 -1.3675  2.0466
  972MOL0     H34118   6.157   8.974   2.377 -0.8552  0.6355  1.2096
  972MOL0     H34119   6.043   8.896   2.584  0.7925  0.6831 -1.9377
  972MOL0     H34120   5.118   8.050   2.567 -1.8831 -0.0353  1.6715
  972MOL0     H34121   5.158   8.252   2.430  1.6525  3.8509 -0.5591
  972MOL0     H34122   5.306   8.647   2.404 -3.3961 -2.9797 -2.3396
  972MOL0     H34123   5.338   8.877   2.328  2.0221  0.6369  0.4025
  972MOL0     H34124   5.390   8.901   1.963  0.9893  0.3401 -0.6576
  972MOL0     H34125   5.338   9.031   2.063  0.1439 -2.0011 -0.1742
  972MOL0     H34126   5.584   9.138   2.010  2.1256  2.0185 -2.9726
  972MOL0     H34127   5.449   9.169   1.910 -0.5232 -0.4747 -1.2783
  972MOL0     H34128   5.649   8.933   1.875 -0.2561 -1.6915 -0.0748
  972MOL0     H34129   5.526   8.978   1.763 -0.1076  0.5709  0.6759
  972MOL0     H34130   5.773   9.048   1.698  0.6345  0.4897 -0.7279
  972MOL0     H34131   5.770   9.163   1.822 -1.1881 -1.8124  1.4622
  972MOL0     H34132   5.528   9.324   1.497 -1.4892  0.0923  0.8181
  972MOL0     H34133   5.609   8.756   2.033  0.1519 -1.2697 -0.1163
  972MOL0     H34134   5.663   8.527   1.995 -0.3863 -0.7779 -0.0708
  972MOL0     H34135   5.657   8.419   2.120  2.1706  1.6424 -0.7146
  972MOL0     H34136   5.513   8.422   1.996 -0.5694  0.6672 -0.9576
  973MOL0     O34137  10.624  10.449   2.452  0.3586 -0.2004  0.1999
  973MOL0     C34138  10.532  10.415   2.526  0.1224  0.6023 -0.1111
  973MOL0     O34139  10.489  10.484   2.641 -0.0111  0.6602  0.6216
  973MOL0     C34140  10.574  10.578   2.701  0.0450 -0.3377 -0.9273
  973MOL0     C34141  10.690  10.538   2.772  0.3615  0.0802 -0.2396
  973MOL0     C34142  10.753  10.640   2.850 -0.3586 -0.2267  0.7192
  973MOL0     C34143  10.711  10.770   2.876  0.6811  0.4042  0.2850
  973MOL0     O34144  10.766  10.858   2.961 -0.9290 -0.2996  0.8324
  973MOL0     C34145  10.692  10.929   3.064 -0.3093 -0.6785 -0.3657
  973MOL0     C34146  10.754  11.068   3.100 -0.6203  0.0970  0.4519
  973MOL0     C34147  10.801  11.151   2.989  0.2557 -0.3322  0.4937
  973MOL0     C34148  10.866  11.281   3.034  0.0835 -0.2761  1.4208
  973MOL0     C34149  10.938  11.343   2.915 -0.5520 -0.4074  0.0326
  973MOL0     C34150  10.911  11.308   2.776  1.0373  1.0051 -1.5516
  973MOL0     C34151  10.965  11.411   2.668  0.5852  0.1238 -0.0964
  973MOL0     C34152  10.902  11.541   2.648  0.4284  0.9459 -0.5368
  973MOL0     N34153  10.936  11.595   2.512  0.0053  0.1602 -0.4398
  973MOL0     C34154  10.922  11.535   2.393 -0.0082 -0.4979  0.3411
  973MOL0     C34155  10.936  11.639   2.304 -0.2981 -0.7150 -0.7976
  973MOL0     C34156  10.920  11.662   2.156  0.2879  0.6116 -0.2159
  973MOL0     C34157  10.795  11.591   2.109 -0.1891 -0.2850  0.7330
  973MOL0     C34158  10.779  11.635   1.960 -0.0593  0.8233 -0.3671
  973MOL0     C34159  10.656  11.568   1.902 -0.6037 -0.4196 -0.6310
  973MOL0     O34160  10.531  11.598   1.967 -0.6190  0.9265 -0.3143
  973MOL0     C34161  10.421  11.526   1.932  0.0078 -0.3986  0.5776
  973MOL0     C34162  10.312  11.564   2.000 -0.5598 -0.2405 -0.0448
  973MOL0     C34163  10.193  11.498   1.977  0.0990  0.0778  0.1337
  973MOL0     C34164  10.070  11.568   2.055 -1.1681  0.1386 -0.1192
  973MOL0     C34165  10.178  11.397   1.883 -0.1964  1.0684  0.0930
  973MOL0     C34166  10.051  11.321   1.858 -0.0825  0.8003  0.1569
  973MOL0     O34167   9.964  11.302   1.959  0.1533 -0.0079  0.1187
  973MOL0     C34168   9.842  11.238   1.937 -0.5305  0.7475 -0.0893
  973MOL0     C34169   9.785  11.176   1.818 -0.0008  0.5766  0.0688
  973MOL0     C34170   9.652  11.117   1.831 -0.5433 -1.4255 -0.3828
  973MOL0     C34171   9.580  11.121   1.941  0.1057  0.0100 -0.2058
  973MOL0     O34172   9.457  11.046   1.947 -0.0568 -0.4266  0.1376
  973MOL0     C34173   9.468  10.905   1.958 -0.1340 -0.6290 -1.5515
  973MOL0     C34174   9.376  10.848   2.070 -0.1578  0.2415  0.0247
  973MOL0     C34175   9.462  10.770   2.169  0.5717 -0.3545  0.1536
  973MOL0     C34176   9.373  10.709   2.277 -0.4270 -0.5976 -0.5412
  973MOL0     C34177   9.444  10.642   2.388 -0.1247 -0.1623 -0.2809
  973MOL0     C34178   9.336  10.578   2.472 -0.6543  0.6963  0.1560
  973MOL0     C34179   9.268  10.674   2.577  0.2345  0.7268  0.1720
  973MOL0     C34180   9.342  10.703   2.708 -0.0279 -0.6599  0.2718
  973MOL0    Cl34181   9.478  10.805   2.685 -0.1046  0.0985 -0.5005
  973MOL0     C34182   9.628  11.183   2.060 -0.1513  0.9569 -0.1792
  973MOL0     C34183   9.758  11.240   2.056 -0.5540  0.8629  0.3953
  973MOL0     O34184  10.044  11.270   1.746 -0.4463  0.1049  0.0562
  973MOL0     C34185  10.284  11.368   1.806  0.2984 -0.0124  0.5872
  973MOL0     C34186  10.407  11.430   1.831 -0.3703 -0.3448 -0.1094
  973MOL0     N34187  10.981  11.748   2.365  0.1629  0.3770  0.2158
  973MOL0     N34188  10.986  11.716   2.494  0.3227  0.3955 -0.0781
  973MOL0     C34189  10.593  10.804   2.804 -0.3590  0.2808 -0.6761
  973MOL0     C34190  10.523  10.708   2.723  0.5658 -1.0414 -0.5062
  973MOL0     C34191  10.462  10.284   2.485 -0.0666  0.5791 -0.7115
  973MOL0     C34192  10.542  10.189   2.418  0.5094  0.6508  0.7035
  973MOL0     C34193  10.477  10.078   2.366  0.4399 -0.6902  0.2374
  973MOL0     C34194  10.354  10.044   2.398  0.5782  0.5675 -0.3277
  973MOL0     O34195  10.313   9.930   2.334 -0.3416 -0.0780  0.1078
  973MOL0     C34196  10.205   9.857   2.393 -0.7858  1.2709 -0.1976
  973MOL0     C34197  10.056   9.895   2.351 -0.6114  0.3692 -1.1145
  973MOL0     C34198   9.968   9.786   2.414  1.2417  0.0509 -0.1957
  973MOL0     C34199   9.812   9.792   2.408 -0.3327 -1.1343  0.1210
  973MOL0     C34200   9.781   9.758   2.267  0.3507 -0.6437 -0.3705
  973MOL0     C34201   9.738   9.725   2.161 -0.2010  0.1161  0.3437
  973MOL0     C34202  10.277  10.128   2.471  0.4637 -0.4774 -0.2247
  973MOL0     C34203  10.333  10.243   2.537 -0.7669  0.0623 -0.9322
  973MOL0     C34204  10.238  10.311   2.638  0.8079  0.5280 -0.2479
  973MOL0     H34205  10.728  10.437   2.758 -1.1267 -0.3469 -1.4795
  973MOL0     H34206  10.855  10.617   2.878 -0.1517 -0.0455  0.1291
  973MOL0     H34207  10.669  10.866   3.150  0.8974 -0.4871  0.1229
  973MOL0     H34208  10.592  10.958   3.032  0.5494  4.0344  0.4915
  973MOL0     H34209  10.676  11.121   3.157 -2.9709 -0.6334 -1.8928
  973MOL0     H34210  10.843  11.049   3.160  0.3585  0.3999 -0.8554
  973MOL0     H34211  10.860  11.085   2.924  0.7206  0.3207  0.2454
  973MOL0     H34212  10.716  11.186   2.930 -1.0539 -1.5800  1.5787
  973MOL0     H34213  10.798  11.358   3.072  1.7326  1.8489  0.2743
  973MOL0     H34214  10.936  11.249   3.111 -1.9973 -2.2491  2.6251
  973MOL0     H34215  11.044  11.318   2.923 -0.5684 -0.5486 -0.2070
  973MOL0     H34216  10.936  11.450   2.938  1.5955 -0.5747  1.3558
  973MOL0     H34217  10.950  11.208   2.755 -5.9503 -2.9412  0.9363
  973MOL0     H34218  10.803  11.309   2.762  1.0658  2.9872 -1.8302
  973MOL0     H34219  10.977  11.356   2.574 -1.8155 -0.8740  0.1372
  973MOL0     H34220  11.071  11.427   2.690  0.9102  1.3517 -2.2169
  973MOL0     H34221  10.794  11.524   2.647  0.4761  0.4037  0.9048
  973MOL0     H34222  10.933  11.610   2.727  1.0866 -0.0937  0.1310
  973MOL0     H34223  10.898  11.429   2.392 -0.8050 -0.3504  1.9171
  973MOL0     H34224  11.005  11.606   2.115  0.9716  0.5100  1.2803
  973MOL0     H34225  10.919  11.767   2.125 -0.8700  2.5315  5.2428
  973MOL0     H34226  10.806  11.483   2.119 -0.5241 -0.6972 -2.4255
  973MOL0     H34227  10.707  11.625   2.165 -1.8056 -1.7226 -0.8113
  973MOL0     H34228  10.747  11.739   1.972 -3.3666  0.0107 -1.0887
  973MOL0     H34229  10.872  11.612   1.908  1.3017 -0.2722  2.3499
  973MOL0     H34230  10.629  11.612   1.806 -1.8791  2.1969  0.8018
  973MOL0     H34231  10.676  11.462   1.888  2.4910  0.0673 -0.5936
  973MOL0     H34232  10.302  11.652   2.063 -2.1425 -1.6226  1.7690
  973MOL0     H34233  10.089  11.580   2.162 -0.0922 -3.4650  0.2082
  973MOL0     H34234   9.972  11.525   2.035  0.2608 -2.3981 -2.4236
  973MOL0     H34235  10.071  11.673   2.025 -0.0310  0.0355 -0.5097
  973MOL0     H34236   9.830  11.179   1.719 -1.4732  3.2951 -0.6091
  973MOL0     H34237   9.603  11.065   1.749 -3.5628  1.3752 -0.5737
  973MOL0     H34238   9.434  10.858   1.865 -2.3681 -1.1065 -0.5532
  973MOL0     H34239   9.570  10.874   1.982 -1.3608 -3.0966  0.9266
  973MOL0     H34240   9.339  10.929   2.133  1.6752 -1.1784  3.1282
  973MOL0     H34241   9.282  10.800   2.040 -0.8916 -0.3256  2.9530
  973MOL0     H34242   9.528  10.852   2.199  0.6192  0.2194 -1.4427
  973MOL0     H34243   9.514  10.688   2.119 -1.0163 -3.4806  3.2103
  973MOL0     H34244   9.308  10.644   2.218 -0.4132 -0.6086 -0.5439
  973MOL0     H34245   9.306  10.782   2.322 -0.2475 -1.6811  1.6267
  973MOL0     H34246   9.514  10.571   2.344  1.0234  1.7114 -1.6341
  973MOL0     H34247   9.498  10.723   2.438 -1.7286  2.1214 -2.0657
  973MOL0     H34248   9.373  10.487   2.520  1.6515  0.8653 -1.1572
  973MOL0     H34249   9.259  10.546   2.400 -0.0833  0.7936 -0.5100
  973MOL0     H34250   9.166  10.641   2.600 -0.3413  0.5136 -2.3999
  973MOL0     H34251   9.248  10.769   2.526 -1.1731 -0.4681 -1.6126
  973MOL0     H34252   9.374  10.613   2.762  1.1672  0.6589  1.8587
  973MOL0     H34253   9.280  10.771   2.768  2.8391  1.3639  1.1730
  973MOL0     H34254   9.579  11.173   2.156 -0.4707  2.5298 -0.1619
  973MOL0     H34255   9.810  11.275   2.144 -0.7996  0.7144  0.6019
  973MOL0     H34256  10.290  11.302   1.721 -0.1200 -0.3873  0.8403
  973MOL0     H34257  10.499  11.399   1.782  0.1751  2.0742 -0.7712
  973MOL0     H34258  10.559  10.906   2.824 -2.0722 -0.5677  1.1447
  973MOL0     H34259  10.436  10.740   2.666 -0.9733  0.6291  2.5372
  973MOL0     H34260  10.650  10.199   2.409  0.5595  1.9703  2.3045
  973MOL0     H34261  10.530  10.010   2.300  1.6642 -1.0694  1.5572
  973MOL0     H34262  10.238   9.754   2.375 -2.0395  0.9741 -0.9222
  973MOL0     H34263  10.211   9.865   2.502 -3.7662 -1.3961  0.3390
  973MOL0     H34264  10.040   9.887   2.243 -0.0620  0.5982 -1.2153
  973MOL0     H34265  10.041   9.997   2.387  0.4725  0.3762 -0.6419
  973MOL0     H34266  10.003   9.695   2.364  0.6814  0.1666 -0.8038
  973MOL0     H34267   9.995   9.786   2.520  0.9177 -1.0255 -0.0995
  973MOL0     H34268   9.775   9.891   2.437  2.0067 -0.5146  1.2849
  973MOL0     H34269   9.762   9.717   2.470 -0.7270 -1.7128 -0.8673
  973MOL0     H34270   9.701   9.699   2.064  0.3856 -0.0513  0.1638
  973MOL0     H34271  10.180  10.101   2.511  1.6061 -2.2908  1.5410
  973MOL0     H34272  10.166  10.378   2.591  0.6701 -0.3430 -1.3052
  973MOL0     H34273  10.182  10.239   2.698  1.8051  0.7707  1.0182
  973MOL0     H34274  10.294  10.372   2.709  0.3767 -1.1720  1.6348
  974MOL0     O34275  10.941   7.660   7.230  0.2190 -0.1224 -0.1995
  974MOL0     C34276  10.864   7.657   7.325 -0.0921 -0.5894  0.5279
  974MOL0     O34277  10.841   7.755   7.417 -0.5966  0.7161  0.1792
  974MOL0     C34278  10.947   7.846   7.424  1.3274  0.5035  0.6801
  974MOL0     C34279  10.967   7.958   7.337  0.5876 -0.1221  0.8014
  974MOL0     C34280  11.085   8.023   7.356 -0.3571 -0.1143  0.5314
  974MOL0     C34281  11.174   8.002   7.468  0.4326  0.2583  0.6367
  974MOL0     O34282  11.286   8.076   7.492  0.6505  0.1446 -0.0055
  974MOL0     C34283  11.257   8.220   7.490  0.2998 -0.2010 -0.4436
  974MOL0     C34284  11.386   8.307   7.486  0.1200 -0.2910  0.5619
  974MOL0     C34285  11.471   8.299   7.363  0.2553 -0.4392  0.2982
  974MOL0     C34286  11.605   8.388   7.366 -0.4161 -0.4770  0.2861
  974MOL0     C34287  11.691   8.368   7.242  0.2582 -0.1637 -0.9081
  974MOL0     C34288  11.694   8.223   7.187  0.0377  0.3448  0.3119
  974MOL0     C34289  11.798   8.213   7.068  0.0253 -0.1156 -0.4137
  974MOL0     C34290  11.808   8.077   7.012  0.6574  0.0766 -0.3309
  974MOL0     N34291  11.916   8.065   6.918 -1.2742 -0.2452  0.4500
  974MOL0     C34292  11.894   8.128   6.788  0.1077 -0.1437 -0.1727
  974MOL0     C34293  12.019   8.137   6.735  0.0296 -0.0728 -0.4824
  974MOL0     C34294  12.079   8.145   6.597 -0.0715 -0.1158  0.9294
  974MOL0     C34295  11.983   8.145   6.472  0.9328  0.9001  0.3822
  974MOL0     C34296  11.931   8.279   6.425 -0.4161 -0.2190 -0.0521
  974MOL0     C34297  12.049   8.359   6.376 -0.6119 -0.9541  0.4641
  974MOL0     O34298  12.136   8.428   6.476  0.4314  0.0099 -1.0595
  974MOL0     C34299  12.273   8.451   6.445 -0.3727 -0.5262  0.6710
  974MOL0     C34300  12.326   8.458   6.315  0.6443  0.2128  0.0618
  974MOL0     C34301  12.449   8.506   6.268  0.2866  0.0384 -0.3998
  974MOL0     C34302  12.462   8.517   6.116 -0.5701 -0.5295  0.6648
  974MOL0     C34303  12.537   8.540   6.374  0.9196 -0.9166  0.4354
  974MOL0     C34304  12.666   8.591   6.338 -1.3004 -0.4907  0.1481
  974MOL0     O34305  12.679   8.729   6.343  0.2100  0.6912 -0.4895
  974MOL0     C34306  12.803   8.773   6.354 -0.1349  0.1886  0.0807
  974MOL0     C34307  12.836   8.861   6.458  0.5195  0.4542  0.1202
  974MOL0     C34308  12.961   8.929   6.474 -0.5272 -0.0230 -0.2877
  974MOL0     C34309  13.062   8.891   6.387  0.3605  0.1163 -0.6822
  974MOL0     O34310  13.185   8.939   6.415 -0.0693 -0.1392 -0.0692
  974MOL0     C34311  13.293   8.840   6.413  0.0942  0.2407 -0.8629
  974MOL0     C34312  13.402   8.899   6.489  0.0009  0.3241 -0.1026
  974MOL0     C34313  13.432   9.048   6.467 -0.4135 -1.1969  0.0237
  974MOL0     C34314  13.539   9.100   6.567  0.2197  0.4431 -0.4099
  974MOL0     C34315  13.506   9.236   6.621 -0.4407 -0.5687 -0.2695
  974MOL0     C34316  13.504   9.353   6.515 -0.0559 -0.2140  0.4821
  974MOL0     C34317  13.459   9.480   6.596  0.7215  0.0350 -0.3985
  974MOL0     C34318  13.419   9.593   6.497  0.0401  0.8751 -0.0477
  974MOL0    Cl34319  13.390   9.739   6.601 -0.1248 -0.2621 -0.0086
  974MOL0     C34320  13.028   8.798   6.284 -0.3149 -0.4641  0.9784
  974MOL0     C34321  12.895   8.757   6.257 -0.2106 -0.8905  0.1333
  974MOL0     O34322  12.753   8.507   6.305 -0.0468  0.0205 -0.1701
  974MOL0     C34323  12.496   8.535   6.508  0.7447 -0.9395 -0.2919
  974MOL0     C34324  12.364   8.494   6.544 -0.0076 -0.1280  0.2392
  974MOL0     N34325  12.108   8.088   6.835  0.0400  0.3524  1.1705
  974MOL0     N34326  12.050   8.046   6.942 -0.4923  0.4151 -0.6432
  974MOL0     C34327  11.144   7.898   7.559 -0.7086  0.0366  0.8084
  974MOL0     C34328  11.026   7.825   7.536  0.3544 -0.4162  0.5741
  974MOL0     C34329  10.776   7.538   7.346 -1.1720  0.4797  0.6382
  974MOL0     C34330  10.680   7.546   7.450  0.9097  0.6288  0.5199
  974MOL0     C34331  10.577   7.446   7.461  0.0195  0.6037  0.6503
  974MOL0     C34332  10.583   7.340   7.376 -0.7453  0.5655 -0.4331
  974MOL0     O34333  10.486   7.251   7.393  0.5235  0.0231 -0.8668
  974MOL0     C34334  10.509   7.122   7.346  0.0217  0.0067  0.7193
  974MOL0     C34335  10.391   7.036   7.368 -0.2473 -0.5163 -0.6795
  974MOL0     C34336  10.328   7.047   7.515  0.0308  0.6787 -0.6454
  974MOL0     C34337  10.194   6.984   7.531  0.3581  0.1656 -0.6509
  974MOL0     C34338  10.107   7.066   7.620 -0.0023  0.3517  0.2311
  974MOL0     C34339  10.019   7.118   7.685 -0.3407  0.4625 -0.0094
  974MOL0     C34340  10.686   7.323   7.291 -0.5390  0.1990 -0.2435
  974MOL0     C34341  10.777   7.422   7.264 -0.8067 -0.8276  0.7233
  974MOL0     C34342  10.874   7.400   7.145  1.1744 -0.0151  0.1323
  974MOL0     H34343  10.895   7.964   7.256 -1.2665 -1.0892  2.2818
  974MOL0     H34344  11.108   8.105   7.288 -1.3548 -0.8856 -0.7939
  974MOL0     H34345  11.204   8.237   7.585  0.3089 -2.0468 -0.0608
  974MOL0     H34346  11.196   8.261   7.410  0.7054  1.7765  0.2058
  974MOL0     H34347  11.352   8.411   7.493 -0.8640  0.3621 -6.5169
  974MOL0     H34348  11.441   8.282   7.577  2.9757 -1.7663 -1.4080
  974MOL0     H34349  11.495   8.194   7.342  4.3907  0.8360 -2.9130
  974MOL0     H34350  11.408   8.339   7.283  1.9978  2.4054  0.1840
  974MOL0     H34351  11.588   8.496   7.369 -0.9019 -0.4817 -1.3290
  974MOL0     H34352  11.663   8.364   7.455 -1.5755  0.4495  1.3250
  974MOL0     H34353  11.792   8.398   7.268  0.1848 -1.4951  1.1907
  974MOL0     H34354  11.652   8.435   7.164  2.9607  1.0514 -1.3131
  974MOL0     H34355  11.725   8.150   7.262  2.3762 -0.2110 -1.0853
  974MOL0     H34356  11.600   8.189   7.144  0.6160 -1.1581  0.1844
  974MOL0     H34357  11.898   8.230   7.111  0.2233 -3.1752  0.5357
  974MOL0     H34358  11.777   8.285   6.988 -2.7745 -1.4436 -0.9698
  974MOL0     H34359  11.815   8.009   7.098 -1.8537  0.9942  0.6970
  974MOL0     H34360  11.718   8.055   6.955 -1.0085  4.1601  0.3660
  974MOL0     H34361  11.797   8.144   6.742 -0.2300  0.0257  0.5794
  974MOL0     H34362  12.142   8.056   6.586  0.9559  0.6723  0.1546
  974MOL0     H34363  12.151   8.227   6.593  0.4048 -0.5415 -3.2264
  974MOL0     H34364  12.039   8.108   6.385 -0.3297  0.3837 -0.2311
  974MOL0     H34365  11.904   8.072   6.492  0.2439  0.3590 -3.5433
  974MOL0     H34366  11.873   8.251   6.336 -0.2266 -0.3098 -0.1487
  974MOL0     H34367  11.869   8.344   6.487 -1.7431 -0.1920 -1.3462
  974MOL0     H34368  12.110   8.301   6.306  0.8965  2.7650 -1.6143
  974MOL0     H34369  12.012   8.423   6.295 -1.3547 -3.4740 -1.2882
  974MOL0     H34370  12.256   8.432   6.235 -1.0685 -0.2471  1.6326
  974MOL0     H34371  12.368   8.515   6.060  0.8033 -3.9523 -1.9696
  974MOL0     H34372  12.519   8.425   6.098  0.2855  0.2182 -0.5296
  974MOL0     H34373  12.521   8.602   6.081 -3.6499  1.5439  0.1321
  974MOL0     H34374  12.763   8.890   6.533 -0.8092 -0.6050 -0.7037
  974MOL0     H34375  12.993   8.996   6.553  0.0528  1.2746 -1.5851
  974MOL0     H34376  13.260   8.747   6.459  0.4755  1.4285  2.0165
  974MOL0     H34377  13.317   8.820   6.308 -0.6822 -0.7535 -0.8648
  974MOL0     H34378  13.361   8.891   6.590  2.1201  2.0502  0.9864
  974MOL0     H34379  13.494   8.842   6.474  1.6300  3.3064 -2.7728
  974MOL0     H34380  13.342   9.108   6.485  2.2054  3.2465 -0.3051
  974MOL0     H34381  13.453   9.065   6.361 -0.8224 -2.0473 -0.2023
  974MOL0     H34382  13.639   9.101   6.521  0.5094  0.6555  0.2203
  974MOL0     H34383  13.542   9.038   6.657 -0.7657  1.2839  0.2107
  974MOL0     H34384  13.412   9.233   6.676  0.7356 -0.6810  1.8567
  974MOL0     H34385  13.580   9.271   6.694 -0.8993  0.2047 -0.1687
  974MOL0     H34386  13.421   9.329   6.448 -2.5025  1.7909  2.5833
  974MOL0     H34387  13.602   9.360   6.468  0.1677  2.2419  1.1949
  974MOL0     H34388  13.540   9.518   6.659  0.4873 -2.8578  1.8105
  974MOL0     H34389  13.372   9.463   6.659 -1.6457 -0.9992 -3.6983
  974MOL0     H34390  13.327   9.575   6.440  0.6474 -1.0353 -0.5055
  974MOL0     H34391  13.502   9.603   6.425  2.7097 -3.9266  1.8770
  974MOL0     H34392  13.101   8.769   6.209  1.8435  0.1567  2.7216
  974MOL0     H34393  12.863   8.705   6.166 -0.7246  1.2526 -0.9756
  974MOL0     H34394  12.554   8.588   6.583 -0.3928  1.5209 -1.0644
  974MOL0     H34395  12.334   8.505   6.648  0.9045  3.3673  0.2320
  974MOL0     H34396  11.197   7.872   7.650  0.1288 -0.6157  0.1462
  974MOL0     H34397  11.005   7.744   7.605  0.9688 -0.4497  0.7251
  974MOL0     H34398  10.684   7.618   7.531 -0.5885 -0.8140  1.9499
  974MOL0     H34399  10.508   7.457   7.545  3.2065 -2.4608  4.0563
  974MOL0     H34400  10.532   7.113   7.239 -0.3298  4.1200  0.1326
  974MOL0     H34401  10.596   7.084   7.400  3.8122  1.1156 -3.9115
  974MOL0     H34402  10.395   6.931   7.336  2.2721 -0.1056 -2.0088
  974MOL0     H34403  10.321   7.086   7.299 -0.3542  0.1007 -0.1299
  974MOL0     H34404  10.397   6.990   7.578 -0.9393  1.6871  1.4430
  974MOL0     H34405  10.338   7.153   7.544  0.9506  1.0160 -2.1253
  974MOL0     H34406  10.200   6.884   7.575  1.9298  0.2119 -0.6926
  974MOL0     H34407  10.157   6.984   7.428  0.3733  2.3106 -0.6954
  974MOL0     H34408   9.951   7.160   7.756  0.8070  2.5503 -0.0902
  974MOL0     H34409  10.686   7.232   7.231  1.0474  1.9393 -3.1493
  974MOL0     H34410  10.884   7.486   7.078  0.8908 -0.0173  0.0850
  974MOL0     H34411  10.968   7.359   7.182 -0.1768 -0.8871  2.9479
  974MOL0     H34412  10.835   7.321   7.079  1.9225  3.2281 -4.6790
  975MOL0     O34413   4.387   9.892   0.486  0.3779 -0.6644  0.0922
  975MOL0     C34414   4.451   9.898   0.592  0.2853 -0.3782 -0.7162
  975MOL0     O34415   4.554   9.814   0.628 -0.6592 -0.0555  0.2284
  975MOL0     C34416   4.551   9.687   0.579 -0.7151  0.4615  0.5935
  975MOL0     C34417   4.428   9.620   0.593 -1.3435  0.2818 -0.0769
  975MOL0     C34418   4.399   9.509   0.524  0.4261  0.0561  0.1337
  975MOL0     C34419   4.498   9.448   0.438 -0.0738 -0.5458  0.6190
  975MOL0     O34420   4.475   9.334   0.377 -0.0634  0.3863 -0.3074
  975MOL0     C34421   4.409   9.230   0.439 -0.2010  0.3353  0.2643
  975MOL0     C34422   4.510   9.121   0.458 -0.1534 -0.6937 -0.6313
  975MOL0     C34423   4.613   9.113   0.346  0.7903  0.2421  0.8388
  975MOL0     C34424   4.727   9.018   0.387  0.2078 -0.3763  0.8405
  975MOL0     C34425   4.845   9.023   0.286  0.1009 -0.3260 -0.0138
  975MOL0     C34426   4.941   8.922   0.331 -0.0733 -1.0289 -0.9705
  975MOL0     C34427   5.051   8.885   0.230 -1.1248 -0.3339 -0.1723
  975MOL0     C34428   5.134   8.768   0.282  0.1969  0.8035 -0.2336
  975MOL0     N34429   5.254   8.730   0.205 -0.6872  0.8227 -0.9215
  975MOL0     C34430   5.293   8.780   0.083 -1.0118  0.2998 -0.4589
  975MOL0     C34431   5.409   8.712   0.063  0.5521 -0.8855 -0.4801
  975MOL0     C34432   5.499   8.715  -0.053 -0.4745  0.0876 -0.5496
  975MOL0     C34433   5.514   8.590  -0.129  0.7384  0.6429  0.8574
  975MOL0     C34434   5.459   8.583  -0.276  0.5953  0.4801 -0.0937
  975MOL0     C34435   5.523   8.684  -0.365 -0.9050 -0.0446  1.2161
  975MOL0     O34436   5.667   8.674  -0.363 -0.8292  0.9449 -0.7149
  975MOL0     C34437   5.746   8.758  -0.442 -0.2061 -0.0486  0.6469
  975MOL0     C34438   5.884   8.741  -0.437 -0.1194  1.2205  0.4626
  975MOL0     C34439   5.969   8.790  -0.541 -0.8424 -0.3326 -1.3521
  975MOL0     C34440   6.117   8.766  -0.529  0.2129 -0.7289 -0.4041
  975MOL0     C34441   5.914   8.874  -0.645 -1.4080  0.7523 -0.4807
  975MOL0     C34442   6.002   8.945  -0.750  0.1996  0.0693 -0.2020
  975MOL0     O34443   6.097   8.873  -0.804 -0.3060 -0.8802  0.2109
  975MOL0     C34444   6.195   8.936  -0.877 -0.0920  0.0953  0.1551
  975MOL0     C34445   6.227   8.907  -1.017 -0.2911 -0.2534 -0.0054
  975MOL0     C34446   6.325   8.980  -1.089 -0.3624  0.1169 -0.5922
  975MOL0     C34447   6.386   9.087  -1.030 -0.1640 -0.5367 -0.0863
  975MOL0     O34448   6.489   9.145  -1.090 -0.5553 -0.0325 -0.1665
  975MOL0     C34449   6.474   9.275  -1.129  0.3595  0.4269 -0.0762
  975MOL0     C34450   6.574   9.317  -1.237 -0.5700 -0.3614  0.6860
  975MOL0     C34451   6.683   9.217  -1.266  0.5788  0.3807 -1.0780
  975MOL0     C34452   6.799   9.256  -1.345 -1.7797  0.2474 -0.6219
  975MOL0     C34453   6.773   9.261  -1.498 -0.7637 -0.0901 -0.1703
  975MOL0     C34454   6.910   9.252  -1.566  1.2778 -0.1820 -1.1495
  975MOL0     C34455   6.899   9.262  -1.716 -0.2061  0.1209  0.2452
  975MOL0     C34456   7.035   9.285  -1.780 -0.3992 -0.6468  0.6573
  975MOL0    Cl34457   7.127   9.138  -1.763 -0.1509 -0.0330  0.1881
  975MOL0     C34458   6.364   9.109  -0.897  0.1214  0.0467  0.3828
  975MOL0     C34459   6.268   9.037  -0.818  0.4441 -1.0713 -0.1638
  975MOL0     O34460   5.974   9.060  -0.778 -0.1151  0.8243 -0.5011
  975MOL0     C34461   5.779   8.916  -0.632 -0.2255  0.0301  0.2157
  975MOL0     C34462   5.694   8.845  -0.541  0.0206  0.7486 -0.3669
  975MOL0     N34463   5.434   8.636   0.172 -0.1272  0.3485 -0.5199
  975MOL0     N34464   5.343   8.637   0.253  0.7250 -0.5381  0.2127
  975MOL0     C34465   4.624   9.501   0.422  1.0521 -0.7879  0.0783
  975MOL0     C34466   4.640   9.631   0.486 -1.5322  0.3053  0.2375
  975MOL0     C34467   4.422  10.008   0.693  0.6526 -0.3089  0.2134
  975MOL0     C34468   4.508  10.012   0.800 -0.2374 -0.5634 -0.4102
  975MOL0     C34469   4.485  10.099   0.908 -0.3172  0.7128 -0.2860
  975MOL0     C34470   4.367  10.179   0.914 -0.6968 -0.7369  0.5729
  975MOL0     O34471   4.325  10.255   1.011  0.0471 -0.7269 -0.0804
  975MOL0     C34472   4.409  10.299   1.123  0.3188 -0.6206 -0.8434
  975MOL0     C34473   4.414  10.453   1.119  0.5709 -0.7228 -0.8931
  975MOL0     C34474   4.422  10.506   1.261  0.2736  0.6017  0.2441
  975MOL0     C34475   4.510  10.635   1.271  0.2819  0.6757  0.5651
  975MOL0     C34476   4.551  10.672   1.410  0.2878  0.9653 -0.6187
  975MOL0     C34477   4.575  10.690   1.534 -0.6386 -0.7627  0.5062
  975MOL0     C34478   4.282  10.177   0.804  0.8465 -0.8208  0.1094
  975MOL0     C34479   4.304  10.095   0.695 -1.2178 -0.2674 -0.3165
  975MOL0     C34480   4.211  10.104   0.579 -0.3283 -1.7539  0.6033
  975MOL0     H34481   4.356   9.661   0.664  0.3877  0.2165  1.8197
  975MOL0     H34482   4.299   9.467   0.529  1.2854 -1.9540  2.5408
  975MOL0     H34483   4.350   9.206   0.350 -2.3469  0.6307  1.5429
  975MOL0     H34484   4.347   9.252   0.527 -1.8130 -1.4724 -0.3465
  975MOL0     H34485   4.566   9.139   0.550 -0.5665  1.5876 -0.7795
  975MOL0     H34486   4.465   9.021   0.469 -2.1247  0.1544 -0.4510
  975MOL0     H34487   4.571   9.069   0.255  0.3797 -1.7818  1.9427
  975MOL0     H34488   4.660   9.210   0.330 -3.2911  2.0433 -1.4953
  975MOL0     H34489   4.769   9.054   0.481 -0.6380  0.6789  0.8234
  975MOL0     H34490   4.697   8.913   0.385  1.7591 -0.9410 -3.2609
  975MOL0     H34491   4.894   9.121   0.277  1.3397 -0.9168  0.0525
  975MOL0     H34492   4.793   8.997   0.194 -1.6713  1.6338  0.3570
  975MOL0     H34493   4.988   8.955   0.425  2.9363  0.5216 -2.8575
  975MOL0     H34494   4.888   8.829   0.355 -1.5169  0.2898  1.2948
  975MOL0     H34495   5.110   8.976   0.217 -0.2382 -1.0703 -1.5251
  975MOL0     H34496   5.011   8.877   0.129 -0.7211  1.9533 -0.5685
  975MOL0     H34497   5.160   8.788   0.386 -2.1257  0.0043  0.5603
  975MOL0     H34498   5.084   8.671   0.289  2.0740 -0.1490  0.5645
  975MOL0     H34499   5.247   8.842   0.007  0.7836  0.9083 -1.0892
  975MOL0     H34500   5.602   8.730  -0.021  0.8396 -0.5500 -4.0779
  975MOL0     H34501   5.469   8.799  -0.117  1.5985  1.2978 -0.0205
  975MOL0     H34502   5.618   8.558  -0.133  0.3706 -0.5026 -0.0692
  975MOL0     H34503   5.460   8.513  -0.073 -0.4017 -0.1026 -1.1530
  975MOL0     H34504   5.480   8.485  -0.320  0.5317  0.3488  0.1697
  975MOL0     H34505   5.351   8.602  -0.275  0.4887 -0.0670  1.9056
  975MOL0     H34506   5.500   8.672  -0.471 -2.4970  0.9704  1.4205
  975MOL0     H34507   5.487   8.786  -0.356 -3.5542 -0.4424 -2.4688
  975MOL0     H34508   5.932   8.684  -0.358  0.7510  1.7010  0.2981
  975MOL0     H34509   6.145   8.755  -0.634 -3.5147  3.8227 -2.2875
  975MOL0     H34510   6.141   8.677  -0.471  1.9060 -2.0026 -2.8760
  975MOL0     H34511   6.176   8.848  -0.488  1.9858 -1.1536 -1.9649
  975MOL0     H34512   6.165   8.828  -1.058  2.1536 -2.7522  0.8071
  975MOL0     H34513   6.361   8.943  -1.184  2.8533  2.9364 -0.6476
  975MOL0     H34514   6.373   9.297  -1.167 -1.5252 -3.9607  1.7585
  975MOL0     H34515   6.478   9.336  -1.038 -2.8328 -0.3601  0.7150
  975MOL0     H34516   6.516   9.317  -1.330  2.3119 -0.0917 -1.2293
  975MOL0     H34517   6.614   9.417  -1.222 -0.3392 -0.2381 -0.6795
  975MOL0     H34518   6.640   9.123  -1.301  0.2843 -1.0051  2.5503
  975MOL0     H34519   6.729   9.202  -1.168 -1.1185 -1.0969 -0.4562
  975MOL0     H34520   6.879   9.185  -1.321 -0.8351  0.6834 -2.2827
  975MOL0     H34521   6.842   9.347  -1.302  2.3253 -2.0951  0.7955
  975MOL0     H34522   6.713   9.176  -1.529  0.6265 -1.3270  0.4244
  975MOL0     H34523   6.738   9.363  -1.520 -2.2626 -0.0091  2.2644
  975MOL0     H34524   6.957   9.158  -1.534 -1.4876 -0.3851  3.0668
  975MOL0     H34525   6.970   9.334  -1.526 -0.3130  0.7616 -0.6104
  975MOL0     H34526   6.835   9.351  -1.728  0.6423  0.5486 -1.5246
  975MOL0     H34527   6.855   9.170  -1.756  2.0461 -1.3763  1.0580
  975MOL0     H34528   7.089   9.371  -1.739 -1.2743  1.0018 -1.4642
  975MOL0     H34529   7.027   9.298  -1.889  0.3588 -0.4879  0.6176
  975MOL0     H34530   6.424   9.190  -0.857  0.5140  0.1959 -0.4806
  975MOL0     H34531   6.271   9.067  -0.713  0.2335 -0.2267 -0.3890
  975MOL0     H34532   5.739   8.986  -0.705  3.6918  0.6382 -1.5670
  975MOL0     H34533   5.587   8.863  -0.545  0.1082  1.2257 -0.7325
  975MOL0     H34534   4.686   9.461   0.342 -0.4993  2.3270 -2.8910
  975MOL0     H34535   4.727   9.690   0.457  0.1012 -1.9710  0.2525
  975MOL0     H34536   4.592   9.946   0.817 -1.3143 -1.2696  3.3786
  975MOL0     H34537   4.559  10.102   0.987  2.0370  1.7496 -2.3790
  975MOL0     H34538   4.363  10.269   1.218  0.2432  0.6861 -0.4448
  975MOL0     H34539   4.510  10.259   1.118  0.2008 -0.7953 -2.4573
  975MOL0     H34540   4.320  10.485   1.073  1.1716 -1.0926 -2.4456
  975MOL0     H34541   4.491  10.483   1.048 -1.6466 -0.7397 -3.5133
  975MOL0     H34542   4.324  10.526   1.306  1.3050 -0.2057  3.0987
  975MOL0     H34543   4.477  10.431   1.318 -0.0702  0.8572  0.9216
  975MOL0     H34544   4.460  10.720   1.224 -0.4096  1.3730  2.4276
  975MOL0     H34545   4.598  10.618   1.209 -2.0821 -0.2868 -2.8004
  975MOL0     H34546   4.598  10.720   1.634  1.9789  1.7897 -0.6923
  975MOL0     H34547   4.193  10.238   0.806  0.5736 -1.1899 -0.4368
  975MOL0     H34548   4.125  10.037   0.580 -0.4789 -1.6167 -1.1073
  975MOL0     H34549   4.163  10.202   0.573  0.0853 -1.5870 -0.0762
  975MOL0     H34550   4.255  10.091   0.480  0.4322 -0.0585  0.6689
  976MOL0     O34551   2.157   5.599  10.575 -0.6874 -0.2864 -0.0501
  976MOL0     C34552   2.066   5.652  10.510 -1.3520 -0.6560 -0.4319
  976MOL0     O34553   1.931   5.609  10.515  0.0806  0.7601  0.4396
  976MOL0     C34554   1.883   5.521  10.611 -0.3209  1.1622 -0.4540
  976MOL0     C34555   1.793   5.416  10.573 -0.1952  0.3959  0.0605
  976MOL0     C34556   1.754   5.309  10.661 -0.0418 -1.1261 -0.2655
  976MOL0     C34557   1.806   5.307  10.791  0.4055 -0.2145  0.4138
  976MOL0     O34558   1.766   5.202  10.878  0.2323 -0.0168  0.1139
  976MOL0     C34559   1.852   5.163  10.980  0.0545  0.0589 -0.1218
  976MOL0     C34560   1.956   5.059  10.914 -0.7371  1.1078 -0.9114
  976MOL0     C34561   1.904   4.968  10.811 -0.0094  0.7721  0.0629
  976MOL0     C34562   2.002   4.850  10.781  0.1561  0.7616 -0.0998
  976MOL0     C34563   1.946   4.716  10.733  0.3560 -0.6328 -0.3069
  976MOL0     C34564   1.855   4.645  10.834  0.3543  0.2158  0.8357
  976MOL0     C34565   1.803   4.515  10.770  0.3124  0.2312  0.7910
  976MOL0     C34566   1.891   4.396  10.735  0.8855 -0.7234  0.5087
  976MOL0     N34567   1.973   4.344  10.844 -0.0975 -0.4480 -0.0329
  976MOL0     C34568   2.101   4.375  10.853  0.5512 -0.0291 -0.4614
  976MOL0     C34569   2.152   4.291  10.952 -0.3364  0.7732  0.3452
  976MOL0     C34570   2.290   4.271  11.008 -0.6930  0.9259 -0.6047
  976MOL0     C34571   2.308   4.130  11.044 -0.4938  0.3918 -0.5270
  976MOL0     C34572   2.453   4.099  11.093  0.6911  1.7419 -0.0384
  976MOL0     C34573   2.557   4.127  10.987  0.0919  0.4038 -0.3509
  976MOL0     O34574   2.684   4.078  11.013 -0.0081  0.1426  0.1740
  976MOL0     C34575   2.715   3.949  10.963  0.2961  0.4228  0.9523
  976MOL0     C34576   2.850   3.912  10.980 -0.3900 -0.3362  0.0975
  976MOL0     C34577   2.893   3.779  10.962  0.7507  0.5252  0.9122
  976MOL0     C34578   3.025   3.745  11.008 -0.5832  0.0746 -0.1203
  976MOL0     C34579   2.811   3.681  10.907  0.4762 -0.9535  1.1020
  976MOL0     C34580   2.838   3.535  10.897  0.4599 -0.8540  0.3841
  976MOL0     O34581   2.962   3.506  10.853  0.0203  0.2775  0.0174
  976MOL0     C34582   2.998   3.366  10.854 -0.4366  0.1566 -0.1896
  976MOL0     C34583   3.001   3.295  10.735  0.1217 -0.6466  0.8599
  976MOL0     C34584   3.051   3.167  10.725 -0.1196 -0.2649  1.2841
  976MOL0     C34585   3.119   3.107  10.835  0.5644 -0.7421  0.4357
  976MOL0     O34586   3.178   2.986  10.815  0.0414  0.1197 -0.7104
  976MOL0     C34587   3.193   2.895  10.925  0.7003  1.1127  0.5096
  976MOL0     C34588   3.278   2.787  10.874  0.1010 -0.1146  0.3765
  976MOL0     C34589   3.324   2.689  10.972  0.0841  0.1176  0.4472
  976MOL0     C34590   3.410   2.572  10.915 -0.6469  0.5252 -0.0102
  976MOL0     C34591   3.338   2.465  10.851  0.9912  0.3399  0.5689
  976MOL0     C34592   3.427   2.363  10.771 -0.0519 -0.5501 -0.6868
  976MOL0     C34593   3.511   2.287  10.870  0.5719  0.4605 -0.2431
  976MOL0     C34594   3.664   2.267  10.842  1.4713  0.6678  0.2541
  976MOL0    Cl34595   3.763   2.416  10.811  0.1600  0.0992 -0.2655
  976MOL0     C34596   3.118   3.176  10.956  0.6297  0.7768  0.3542
  976MOL0     C34597   3.060   3.300  10.964 -0.2908 -0.2944  0.3042
  976MOL0     O34598   2.746   3.469  10.942  0.4858  0.4001  0.1561
  976MOL0     C34599   2.681   3.726  10.869 -0.0671  1.0337 -0.8389
  976MOL0     C34600   2.633   3.854  10.903 -0.3729  0.0010  0.1767
  976MOL0     N34601   2.049   4.199  10.986  1.0290 -0.4229 -0.5372
  976MOL0     N34602   1.945   4.238  10.930  0.3068 -0.5477  0.3336
  976MOL0     C34603   1.882   5.416  10.836  0.9227  0.1211  0.4486
  976MOL0     C34604   1.924   5.523  10.743 -0.1021  1.0115  1.0540
  976MOL0     C34605   2.103   5.777  10.436  0.9729  0.1468 -0.3198
  976MOL0     C34606   2.240   5.796  10.399 -0.0310  0.1805  0.8814
  976MOL0     C34607   2.288   5.913  10.326 -0.2951  0.8223  0.4235
  976MOL0     C34608   2.193   6.002  10.283 -0.1582 -0.3916 -0.6938
  976MOL0     O34609   2.240   6.104  10.198 -0.2508  0.3049 -0.5832
  976MOL0     C34610   2.156   6.208  10.144 -0.1476 -0.7756  0.3868
  976MOL0     C34611   2.096   6.293  10.253 -0.1319  0.4591 -0.4720
  976MOL0     C34612   2.201   6.391  10.324 -1.0718 -0.4374 -0.3455
  976MOL0     C34613   2.149   6.454  10.455  0.0640  0.1594  0.0418
  976MOL0     C34614   2.151   6.347  10.552  0.4088 -2.1112  0.7283
  976MOL0     C34615   2.163   6.257  10.633 -0.4498  0.0180 -0.4670
  976MOL0     C34616   2.053   5.982  10.313 -0.8443  0.9246  0.2272
  976MOL0     C34617   2.012   5.875  10.393  1.0085 -0.0157 -1.2923
  976MOL0     C34618   1.868   5.871  10.422  0.3281 -0.5074  0.0522
  976MOL0     H34619   1.750   5.405  10.474 -3.7446  0.1683  1.4616
  976MOL0     H34620   1.682   5.231  10.638 -1.6525 -0.0110  0.7512
  976MOL0     H34621   1.794   5.120  11.062  0.3113 -0.3393 -0.1429
  976MOL0     H34622   1.909   5.237  11.036  0.4892  0.5594 -1.2004
  976MOL0     H34623   2.048   5.105  10.878  1.0418 -2.1520 -0.9765
  976MOL0     H34624   1.998   5.007  11.001  2.0149  2.2508 -1.4623
  976MOL0     H34625   1.815   4.924  10.857  0.3517  0.9037  0.8916
  976MOL0     H34626   1.880   5.023  10.720  0.3094  4.3513  1.9778
  976MOL0     H34627   2.083   4.882  10.715  0.3020 -1.9118 -1.3401
  976MOL0     H34628   2.060   4.828  10.872 -2.2418 -0.4052  1.2559
  976MOL0     H34629   2.029   4.646  10.716 -2.5013 -4.8672  1.5255
  976MOL0     H34630   1.905   4.737  10.634  1.1736 -0.2860 -0.5800
  976MOL0     H34631   1.908   4.627  10.928  0.6791  0.2391  0.6548
  976MOL0     H34632   1.771   4.714  10.849 -0.8411 -1.0029 -0.0503
  976MOL0     H34633   1.745   4.527  10.679 -1.6435 -3.4972  1.3382
  976MOL0     H34634   1.730   4.467  10.836  1.7807 -0.9409  1.6551
  976MOL0     H34635   1.830   4.313  10.697 -1.3162  0.5900  0.9897
  976MOL0     H34636   1.949   4.417  10.645 -4.7663  1.5039 -3.1816
  976MOL0     H34637   2.162   4.453  10.807  0.3695  0.4854  0.1553
  976MOL0     H34638   2.301   4.315  11.108 -1.8648 -2.1293  0.9869
  976MOL0     H34639   2.368   4.318  10.948  2.8590 -0.4413  2.5062
  976MOL0     H34640   2.245   4.106  11.130 -1.1694 -2.3450 -1.6779
  976MOL0     H34641   2.278   4.069  10.958 -0.1563  3.7910 -3.2940
  976MOL0     H34642   2.478   4.164  11.178 -0.7637  1.8251  0.3585
  976MOL0     H34643   2.451   3.993  11.119 -2.5126  0.6324 -3.8897
  976MOL0     H34644   2.514   4.098  10.891  2.5319 -0.1013 -1.3720
  976MOL0     H34645   2.556   4.236  10.988  0.3482  0.4253  1.1898
  976MOL0     H34646   2.920   3.985  11.018  0.0287 -0.3211 -0.6922
  976MOL0     H34647   3.057   3.819  11.082  0.5551 -0.3067 -0.2103
  976MOL0     H34648   3.095   3.758  10.925  1.1485 -0.3901  1.1901
  976MOL0     H34649   3.034   3.643  11.048 -1.3612  0.4155  0.9644
  976MOL0     H34650   2.949   3.333  10.648  0.2616 -1.5311  0.3743
  976MOL0     H34651   3.044   3.111  10.632 -0.6089  0.1246  1.0847
  976MOL0     H34652   3.233   2.935  11.019 -1.5343 -0.4237  2.2000
  976MOL0     H34653   3.093   2.860  10.950  1.5409 -0.7709  1.4803
  976MOL0     H34654   3.212   2.750  10.795  0.8062  0.9267 -0.7332
  976MOL0     H34655   3.362   2.835  10.824 -0.6940  1.2067  0.2482
  976MOL0     H34656   3.245   2.651  11.038  0.5792 -1.3291  0.2356
  976MOL0     H34657   3.388   2.735  11.048 -0.2901 -0.1459  0.9227
  976MOL0     H34658   3.467   2.524  10.995 -1.4023 -1.6509 -0.7118
  976MOL0     H34659   3.485   2.617  10.849 -0.4937  0.4372  0.1047
  976MOL0     H34660   3.266   2.423  10.923  0.2113  4.4304  2.5141
  976MOL0     H34661   3.276   2.520  10.780 -1.1919 -0.1513  1.9867
  976MOL0     H34662   3.503   2.412  10.709  0.1890 -1.0566 -0.7952
  976MOL0     H34663   3.365   2.302  10.704  2.5958 -2.0056 -1.9592
  976MOL0     H34664   3.458   2.193  10.889  0.5449  1.1387  4.1068
  976MOL0     H34665   3.500   2.328  10.971  0.8637  1.6303 -0.6685
  976MOL0     H34666   3.680   2.217  10.746 -1.8443  0.2028 -0.1490
  976MOL0     H34667   3.707   2.211  10.926 -1.0737  1.8404  2.4850
  976MOL0     H34668   3.173   3.142  11.043  2.1068 -0.2997 -0.9441
  976MOL0     H34669   3.081   3.356  11.055  1.3310 -2.3430  1.3060
  976MOL0     H34670   2.613   3.652  10.828  1.2154 -0.5979 -0.1565
  976MOL0     H34671   2.529   3.867  10.876  0.4680  1.2389 -2.9245
  976MOL0     H34672   1.903   5.420  10.943 -0.7522  2.4397  0.7458
  976MOL0     H34673   1.983   5.607  10.777  3.3718 -0.9460  0.3579
  976MOL0     H34674   2.313   5.718  10.417 -0.9430 -1.1939 -1.0352
  976MOL0     H34675   2.389   5.931  10.293  0.1462 -1.5612  0.2625
  976MOL0     H34676   2.211   6.274  10.075 -0.6307 -0.4405  0.3179
  976MOL0     H34677   2.069   6.169  10.090 -2.2423  2.4013  1.1411
  976MOL0     H34678   2.067   6.220  10.330 -1.7259 -1.7438 -3.0139
  976MOL0     H34679   2.020   6.358  10.211 -0.3438  0.8744  0.5262
  976MOL0     H34680   2.286   6.322  10.333  0.7418  1.6234 -0.8042
  976MOL0     H34681   2.225   6.472  10.255  2.3268 -0.6720  0.4021
  976MOL0     H34682   2.045   6.483  10.437  0.3489  0.8735 -0.5386
  976MOL0     H34683   2.213   6.539  10.479 -0.2238  0.2502  0.5001
  976MOL0     H34684   2.161   6.167  10.691  0.5699 -1.3495 -2.4236
  976MOL0     H34685   1.978   6.054  10.280 -2.5437 -1.1078 -0.5442
  976MOL0     H34686   1.857   5.872  10.530 -1.4752  0.2841 -0.1105
  976MOL0     H34687   1.817   5.963  10.392  1.0047  1.4048  4.1319
  976MOL0     H34688   1.816   5.787  10.374 -1.8151  0.8507 -0.1048
  977MOL0     O34689  11.062   6.200   1.410  0.2620 -0.0527  0.3400
  977MOL0     C34690  11.081   6.281   1.324 -0.7422 -0.7955  0.0173
  977MOL0     O34691  11.170   6.384   1.332  0.5167 -0.0452 -0.1007
  977MOL0     C34692  11.206   6.427   1.458 -0.7962  0.8625 -0.1152
  977MOL0     C34693  11.142   6.537   1.523  0.3909 -0.6349 -0.0908
  977MOL0     C34694  11.159   6.560   1.658  0.2416 -0.0951 -0.6415
  977MOL0     C34695  11.250   6.486   1.726  1.1727  0.1004  0.0345
  977MOL0     O34696  11.265   6.519   1.861 -0.3696 -0.9546  0.0750
  977MOL0     C34697  11.332   6.434   1.950 -0.6129  0.0547 -1.1117
  977MOL0     C34698  11.344   6.474   2.106  0.2055 -0.4732  0.1165
  977MOL0     C34699  11.211   6.481   2.176  0.0199  0.0694  0.4086
  977MOL0     C34700  11.223   6.512   2.320 -0.7179 -0.0432  1.0040
  977MOL0     C34701  11.086   6.532   2.394  0.2913  0.2849 -0.4013
  977MOL0     C34702  11.006   6.399   2.420 -0.5198 -0.6212 -0.3464
  977MOL0     C34703  11.046   6.328   2.551 -0.3423 -0.6856 -0.8531
  977MOL0     C34704  10.943   6.214   2.581 -0.1943  0.9146 -0.0337
  977MOL0     N34705  10.962   6.134   2.705 -0.8456  0.4109  0.6505
  977MOL0     C34706  10.957   6.169   2.832  0.2312  0.0478  0.4124
  977MOL0     C34707  10.950   6.056   2.901  0.3960 -0.3942 -0.3370
  977MOL0     C34708  10.912   6.058   3.045  0.4020 -0.6767 -0.0879
  977MOL0     C34709  10.917   5.919   3.103 -0.9837 -0.0657  0.6078
  977MOL0     C34710  10.833   5.924   3.226  0.5559  0.1692 -0.4526
  977MOL0     C34711  10.882   6.001   3.343 -0.0633  0.0810  0.3261
  977MOL0     O34712  10.780   5.980   3.442 -0.9584 -0.1273  0.5698
  977MOL0     C34713  10.756   6.060   3.554 -0.1532 -0.5781 -0.7480
  977MOL0     C34714  10.649   6.035   3.633  0.3571  0.4360 -0.0061
  977MOL0     C34715  10.625   6.102   3.755  0.7441 -0.8882  0.5164
  977MOL0     C34716  10.506   6.063   3.835 -0.2360  0.0685 -0.1668
  977MOL0     C34717  10.720   6.202   3.789 -0.3016  0.2733 -0.7621
  977MOL0     C34718  10.704   6.288   3.918  0.3686  0.9501  0.3746
  977MOL0     O34719  10.585   6.281   3.998 -0.0547  0.5078  0.2102
  977MOL0     C34720  10.581   6.380   4.091 -0.2762  0.2293  0.4168
  977MOL0     C34721  10.584   6.512   4.055  1.0859 -0.5884  0.5728
  977MOL0     C34722  10.575   6.621   4.143  0.0557  0.9398  1.1284
  977MOL0     C34723  10.570   6.595   4.278  0.0604  0.5832 -0.3093
  977MOL0     O34724  10.569   6.700   4.370  0.1948  0.2922  0.1285
  977MOL0     C34725  10.512   6.829   4.331  1.1623 -0.3453  1.0796
  977MOL0     C34726  10.410   6.886   4.434 -0.5260  0.5679  0.0421
  977MOL0     C34727  10.273   6.804   4.441 -0.7428  0.7349  1.5521
  977MOL0     C34728  10.192   6.886   4.531 -0.0020 -0.7802  0.2773
  977MOL0     C34729  10.057   6.835   4.550  0.9500 -0.4908  0.2129
  977MOL0     C34730  10.039   6.717   4.646  0.4399 -0.1719 -0.5601
  977MOL0     C34731  10.034   6.581   4.570 -0.9463 -0.1312 -0.4972
  977MOL0     C34732   9.992   6.466   4.663 -0.2066 -0.5029 -0.2006
  977MOL0    Cl34733   9.856   6.502   4.769  0.1585 -0.1491 -0.1800
  977MOL0     C34734  10.553   6.458   4.316  0.2178  0.3418  0.2416
  977MOL0     C34735  10.568   6.353   4.226  0.0877 -0.5685 -0.2505
  977MOL0     O34736  10.806   6.351   3.946 -0.1906  0.2558  0.4927
  977MOL0     C34737  10.832   6.224   3.701  0.2838  0.5659  0.4398
  977MOL0     C34738  10.851   6.151   3.593 -0.2026  0.7771 -0.6319
  977MOL0     N34739  10.952   5.949   2.808  0.5975  0.5214 -0.9454
  977MOL0     N34740  10.952   6.001   2.689 -0.1617  0.5752  0.3829
  977MOL0     C34741  11.306   6.367   1.672 -0.1935  0.6386  0.7048
  977MOL0     C34742  11.287   6.341   1.539 -0.2324 -0.4398  0.3217
  977MOL0     C34743  11.046   6.248   1.184 -0.6262  0.0267 -1.3558
  977MOL0     C34744  11.139   6.264   1.076 -0.8439 -0.5024 -0.2056
  977MOL0     C34745  11.108   6.224   0.941 -0.5363  0.2811  0.1676
  977MOL0     C34746  10.986   6.161   0.911  0.2812  0.1062  0.3970
  977MOL0     O34747  10.947   6.110   0.792 -0.5859 -0.5067  0.3404
  977MOL0     C34748  11.035   6.019   0.722 -0.2503  0.1552  0.1013
  977MOL0     C34749  11.109   5.913   0.816 -0.1912 -0.4169 -0.3918
  977MOL0     C34750  11.022   5.804   0.888 -0.2901 -0.2908  0.0621
  977MOL0     C34751  11.096   5.734   1.003 -0.2699  0.4188  0.4221
  977MOL0     C34752  11.093   5.809   1.126 -0.1307  0.3148 -0.5771
  977MOL0     C34753  11.107   5.866   1.230 -1.1504 -0.2497  0.0163
  977MOL0     C34754  10.897   6.148   1.017  0.0408 -0.9792 -0.7343
  977MOL0     C34755  10.924   6.186   1.149 -0.7822 -0.0456  0.1910
  977MOL0     C34756  10.817   6.158   1.248  0.3020  0.2308  1.1853
  977MOL0     H34757  11.062   6.584   1.465  2.6579  2.9502 -0.5888
  977MOL0     H34758  11.099   6.635   1.707 -0.2784  0.8495 -2.6082
  977MOL0     H34759  11.432   6.447   1.909  0.3725  1.8771  1.6337
  977MOL0     H34760  11.305   6.328   1.951  4.1694 -1.3874 -1.2627
  977MOL0     H34761  11.403   6.401   2.163  0.2603 -0.4148  0.1352
  977MOL0     H34762  11.384   6.576   2.119  1.0812 -0.9350  1.2541
  977MOL0     H34763  11.158   6.559   2.120  1.7198 -0.0975 -1.5180
  977MOL0     H34764  11.167   6.383   2.152 -0.4919  0.6382 -1.1021
  977MOL0     H34765  11.267   6.418   2.356 -1.6691 -1.4746 -1.3655
  977MOL0     H34766  11.292   6.596   2.337  2.7604 -2.8939  2.1922
  977MOL0     H34767  11.012   6.594   2.342 -1.2551  0.6390  2.0610
  977MOL0     H34768  11.107   6.583   2.489 -0.7935  1.8978 -0.9854
  977MOL0     H34769  10.900   6.422   2.431  0.0093  1.4745  1.1321
  977MOL0     H34770  11.028   6.334   2.335 -1.3935 -1.6554  0.1909
  977MOL0     H34771  11.052   6.404   2.630 -3.5096 -3.0256  1.9294
  977MOL0     H34772  11.141   6.275   2.550 -0.6724 -1.2774 -1.3425
  977MOL0     H34773  10.842   6.253   2.597 -0.4243 -0.0514  0.9815
  977MOL0     H34774  10.931   6.148   2.495  0.5953  0.0697  0.4858
  977MOL0     H34775  10.974   6.266   2.878 -1.8504  1.2140 -1.0849
  977MOL0     H34776  10.816   6.109   3.034  1.5491  1.3528 -1.1380
  977MOL0     H34777  10.978   6.121   3.105 -1.7892  1.4518  0.2479
  977MOL0     H34778  10.864   5.858   3.030  1.3410  1.5854 -2.6889
  977MOL0     H34779  11.018   5.881   3.121 -0.9917 -1.4733 -1.9839
  977MOL0     H34780  10.740   5.971   3.194  0.8883  1.9538  1.0332
  977MOL0     H34781  10.817   5.821   3.259  1.2877 -0.8647 -3.0840
  977MOL0     H34782  10.986   5.976   3.364  0.3264  0.8769 -0.5718
  977MOL0     H34783  10.867   6.108   3.322  3.8429  0.4244 -1.5540
  977MOL0     H34784  10.573   5.963   3.604  1.9680 -0.8430 -1.3587
  977MOL0     H34785  10.545   6.016   3.926  0.0563  2.5114  1.0746
  977MOL0     H34786  10.458   5.990   3.770  3.0699 -1.4452 -1.0982
  977MOL0     H34787  10.436   6.144   3.859  1.3777  0.9519  2.0072
  977MOL0     H34788  10.588   6.530   3.948  3.1716 -1.3090  0.4861
  977MOL0     H34789  10.582   6.722   4.102  1.2577 -0.3861 -2.2947
  977MOL0     H34790  10.585   6.908   4.311  1.0421 -1.1992 -3.8100
  977MOL0     H34791  10.455   6.808   4.240  0.3396  2.4299  0.8676
  977MOL0     H34792  10.456   6.880   4.533 -0.1542 -0.5713 -0.1813
  977MOL0     H34793  10.392   6.992   4.417 -3.4937 -0.2680 -2.9867
  977MOL0     H34794  10.287   6.701   4.473 -0.1953  0.8679  1.7531
  977MOL0     H34795  10.225   6.799   4.342  0.8428  2.3172  0.6269
  977MOL0     H34796  10.185   6.984   4.481 -6.5702 -1.2577 -0.6565
  977MOL0     H34797  10.237   6.901   4.629 -0.2928  4.4397 -0.0707
  977MOL0     H34798  10.010   6.926   4.588 -2.6891 -2.5154  1.0868
  977MOL0     H34799  10.007   6.807   4.456 -1.3607  0.0685  1.1993
  977MOL0     H34800   9.940   6.732   4.689  0.8803 -0.4357  0.5909
  977MOL0     H34801  10.113   6.704   4.727 -1.5783  1.1818  1.6148
  977MOL0     H34802  10.131   6.547   4.533 -0.5529 -0.2091  0.5744
  977MOL0     H34803   9.965   6.593   4.485  0.3658 -0.3742 -1.6350
  977MOL0     H34804  10.077   6.436   4.725 -1.2763  1.3099  2.2857
  977MOL0     H34805   9.969   6.379   4.600  3.9562 -2.0977  0.2069
  977MOL0     H34806  10.527   6.453   4.422 -2.8199  0.1087 -0.4212
  977MOL0     H34807  10.553   6.250   4.254 -0.7599 -1.1558 -2.5998
  977MOL0     H34808  10.898   6.305   3.732  0.5044  1.0772 -1.2465
  977MOL0     H34809  10.936   6.176   3.530 -0.6348 -1.8104 -2.4279
  977MOL0     H34810  11.372   6.305   1.732  1.2656  2.8267  1.4826
  977MOL0     H34811  11.324   6.253   1.487  0.0853  0.6820 -1.4406
  977MOL0     H34812  11.239   6.282   1.115 -1.0436 -1.8191  1.0015
  977MOL0     H34813  11.182   6.225   0.862 -2.4001 -0.9407 -1.6930
  977MOL0     H34814  10.991   5.965   0.638  2.1829  2.1223 -2.6146
  977MOL0     H34815  11.115   6.081   0.681 -0.0948 -1.5121 -2.3082
  977MOL0     H34816  11.169   5.962   0.894 -0.2345 -3.1089  1.4908
  977MOL0     H34817  11.191   5.857   0.770  0.0750 -1.5269  1.3176
  977MOL0     H34818  10.938   5.860   0.930  0.3555  0.2843  0.6076
  977MOL0     H34819  10.982   5.733   0.816 -0.1105  2.0728 -2.5254
  977MOL0     H34820  11.204   5.727   0.991 -0.5201  0.2474 -2.2969
  977MOL0     H34821  11.052   5.635   1.020  0.2263 -0.0941 -1.0965
  977MOL0     H34822  11.120   5.925   1.319 -1.6513 -0.0395 -0.0446
  977MOL0     H34823  10.799   6.106   0.998 -1.1177  0.0721  2.3110
  977MOL0     H34824  10.722   6.134   1.199  0.1733  3.9830 -0.7754
  977MOL0     H34825  10.836   6.064   1.300 -0.6541 -2.4686 -2.8472
  977MOL0     H34826  10.808   6.242   1.317  0.0852 -0.1091  1.5732
  978MOL0     O34827   4.496  11.354   4.046  0.3574  0.2374  0.2941
  978MOL0     C34828   4.590  11.281   4.065 -0.3082  0.2458  0.3718
  978MOL0     O34829   4.671  11.220   3.972 -0.2437  0.5816  0.6815
  978MOL0     C34830   4.667  11.271   3.841  0.6187 -0.1727  0.6207
  978MOL0     C34831   4.709  11.400   3.814 -1.2388  0.5521  0.7253
  978MOL0     C34832   4.722  11.442   3.678 -0.4529  0.0985  0.7364
  978MOL0     C34833   4.687  11.363   3.570  0.0513 -0.2140 -1.0700
  978MOL0     O34834   4.696  11.412   3.447 -0.8939  0.2438  0.0979
  978MOL0     C34835   4.836  11.415   3.401  0.2605 -0.6418  0.7307
  978MOL0     C34836   4.834  11.462   3.257 -1.3338 -0.8988  0.0806
  978MOL0     C34837   4.968  11.423   3.190 -0.8129 -0.5655  0.6164
  978MOL0     C34838   5.000  11.495   3.066  0.9063  1.1326  0.1302
  978MOL0     C34839   4.987  11.648   3.067  0.6124 -1.0481 -0.3062
  978MOL0     C34840   5.092  11.707   3.166 -1.0121  0.0949 -0.3485
  978MOL0     C34841   5.123  11.855   3.161  0.1169 -0.0178  0.8673
  978MOL0     C34842   4.989  11.935   3.155  0.5376 -0.6591  0.2648
  978MOL0     N34843   4.911  11.957   3.282 -0.9115  0.4366 -0.4423
  978MOL0     C34844   4.815  11.878   3.334  0.6100  0.4016  0.3185
  978MOL0     C34845   4.786  11.928   3.455  0.6516 -0.7864  0.1765
  978MOL0     C34846   4.682  11.867   3.553 -0.0773 -0.2498 -0.2631
  978MOL0     C34847   4.541  11.906   3.504  0.0243  0.2935 -0.0415
  978MOL0     C34848   4.437  11.828   3.569  0.1000 -0.7024 -0.9856
  978MOL0     C34849   4.403  11.871   3.714 -0.0059  0.0480 -0.1181
  978MOL0     O34850   4.494  11.807   3.809  0.5722  0.1383 -0.1321
  978MOL0     C34851   4.471  11.835   3.940 -0.1221  0.3776  0.1804
  978MOL0     C34852   4.433  11.966   3.989 -0.8336  0.2586  0.2184
  978MOL0     C34853   4.455  12.000   4.121 -0.2096  0.2363 -1.3411
  978MOL0     C34854   4.426  12.136   4.169 -1.1909  0.4385  0.2485
  978MOL0     C34855   4.497  11.897   4.218  0.5041  0.0439 -0.2383
  978MOL0     C34856   4.508  11.929   4.364 -0.9803  1.1428 -0.7665
  978MOL0     O34857   4.471  11.833   4.456  0.2360 -0.6198 -0.5972
  978MOL0     C34858   4.442  11.871   4.587 -0.2824 -0.2753 -0.0806
  978MOL0     C34859   4.495  11.812   4.703 -0.4197 -0.0809 -0.4539
  978MOL0     C34860   4.456  11.848   4.828  0.1194 -0.1058 -0.5654
  978MOL0     C34861   4.356  11.950   4.847 -0.2428 -0.5338  0.7972
  978MOL0     O34862   4.311  12.004   4.967  0.8681  0.3048  0.1145
  978MOL0     C34863   4.347  11.945   5.085 -0.1362  0.3442 -0.3262
  978MOL0     C34864   4.247  12.000   5.191 -0.2743  0.2893  1.7173
  978MOL0     C34865   4.106  11.944   5.167 -0.2756 -0.3857 -0.4704
  978MOL0     C34866   4.003  12.011   5.250 -0.4439 -0.6674 -0.8065
  978MOL0     C34867   3.871  11.928   5.245 -0.2090 -0.8224  0.0624
  978MOL0     C34868   3.758  12.015   5.296  0.7045 -0.2168 -0.5784
  978MOL0     C34869   3.623  11.949   5.296  0.6966 -0.2271 -0.1506
  978MOL0     C34870   3.519  12.021   5.387  0.8650  0.4234 -0.1684
  978MOL0    Cl34871   3.364  11.919   5.357  0.0820  0.4116  0.0074
  978MOL0     C34872   4.287  11.999   4.732  0.5457 -0.3390 -0.8644
  978MOL0     C34873   4.331  11.956   4.604  0.7487 -0.3836 -0.1751
  978MOL0     O34874   4.559  12.034   4.401  0.3873  0.5396 -0.5163
  978MOL0     C34875   4.520  11.770   4.176  0.4508  0.4932 -0.1018
  978MOL0     C34876   4.517  11.738   4.039 -0.2443 -0.1236  0.1562
  978MOL0     N34877   4.848  12.049   3.465  0.4777  0.0424 -0.0550
  978MOL0     N34878   4.924  12.069   3.359  0.1930  0.2534  0.5991
  978MOL0     C34879   4.636  11.231   3.600  0.2903  0.2367  0.5039
  978MOL0     C34880   4.636  11.186   3.728 -0.9291  0.7162 -1.4831
  978MOL0     C34881   4.622  11.256   4.211 -0.4034 -0.8907 -1.2293
  978MOL0     C34882   4.506  11.242   4.294  0.0365 -0.7652 -0.2350
  978MOL0     C34883   4.520  11.227   4.431 -0.6859 -0.1856 -0.6344
  978MOL0     C34884   4.644  11.213   4.491  0.4137 -0.4511  0.4638
  978MOL0     O34885   4.655  11.214   4.636 -0.5112 -0.3601  0.5139
  978MOL0     C34886   4.771  11.209   4.698 -0.6150  0.4607 -0.7881
  978MOL0     C34887   4.765  11.193   4.850 -0.2580  0.3133 -0.7058
  978MOL0     C34888   4.719  11.051   4.876  0.6738  1.1479  0.3418
  978MOL0     C34889   4.818  10.984   4.979 -0.9158 -1.0888  0.0966
  978MOL0     C34890   4.802  11.049   5.106 -0.0752  0.4355 -0.2044
  978MOL0     C34891   4.806  11.093   5.222  0.4888 -0.7853  0.6069
  978MOL0     C34892   4.760  11.213   4.408 -0.0465  1.1270 -0.2530
  978MOL0     C34893   4.751  11.234   4.269 -1.4208 -0.4335  0.7490
  978MOL0     C34894   4.888  11.254   4.194 -0.1674 -0.1529  0.4719
  978MOL0     H34895   4.739  11.465   3.896 -0.5757  0.1576  0.8001
  978MOL0     H34896   4.779  11.530   3.653  1.4161 -1.3558 -0.3385
  978MOL0     H34897   4.870  11.312   3.411 -0.3032 -0.6972  2.4222
  978MOL0     H34898   4.906  11.481   3.455 -1.6647  3.5855 -1.4547
  978MOL0     H34899   4.758  11.408   3.199 -0.4483 -0.8892 -1.1248
  978MOL0     H34900   4.809  11.568   3.248 -1.1826 -0.8861 -0.1853
  978MOL0     H34901   5.051  11.438   3.260 -1.0696 -2.9989  1.5122
  978MOL0     H34902   4.959  11.318   3.162  0.6864 -0.1987 -1.5175
  978MOL0     H34903   5.101  11.460   3.043 -0.5618 -2.9747 -0.7691
  978MOL0     H34904   4.938  11.469   2.980 -0.1792  1.0204  0.9377
  978MOL0     H34905   4.888  11.688   3.092 -0.2126 -3.4193  0.5281
  978MOL0     H34906   5.015  11.684   2.968  1.7213  3.1963  1.2942
  978MOL0     H34907   5.050  11.686   3.265  0.2769  0.3788  0.2820
  978MOL0     H34908   5.186  11.657   3.140 -0.1811  1.6990 -0.5719
  978MOL0     H34909   5.181  11.884   3.073 -0.3497  0.5646  0.7420
  978MOL0     H34910   5.177  11.896   3.246  0.2655  2.3989 -0.2995
  978MOL0     H34911   5.010  12.037   3.123 -0.5878 -0.2028  0.8932
  978MOL0     H34912   4.916  11.896   3.084 -0.2975  1.1924  0.0526
  978MOL0     H34913   4.770  11.795   3.280  0.1523  1.3133 -0.7557
  978MOL0     H34914   4.693  11.907   3.654  2.0817  0.6771 -0.8217
  978MOL0     H34915   4.690  11.758   3.546  1.0979 -0.0734 -2.4071
  978MOL0     H34916   4.528  12.014   3.516  2.3241  0.6128  0.0225
  978MOL0     H34917   4.539  11.869   3.401  2.4733  1.9029 -0.7321
  978MOL0     H34918   4.357  11.845   3.497 -1.6557  0.4065  1.0840
  978MOL0     H34919   4.455  11.721   3.561  0.1594 -0.6599 -1.4277
  978MOL0     H34920   4.414  11.975   3.747 -2.1002 -0.2040  1.6266
  978MOL0     H34921   4.299  11.844   3.736 -0.2710  1.8143  0.9629
  978MOL0     H34922   4.399  12.045   3.922  1.8798  3.2701  2.1097
  978MOL0     H34923   4.518  12.195   4.174 -0.3883 -0.5059 -1.9193
  978MOL0     H34924   4.386  12.131   4.271 -0.0845 -0.1547  0.6730
  978MOL0     H34925   4.361  12.195   4.104 -3.4334 -0.7555  1.2775
  978MOL0     H34926   4.568  11.735   4.679 -0.0100 -1.1408  3.5361
  978MOL0     H34927   4.514  11.803   4.908  0.9929  0.8511 -0.6453
  978MOL0     H34928   4.331  11.837   5.077 -1.4257  0.6119 -1.7956
  978MOL0     H34929   4.448  11.969   5.118 -1.6804  3.1048  3.1016
  978MOL0     H34930   4.281  11.984   5.294  1.3657  0.7003  1.2825
  978MOL0     H34931   4.247  12.109   5.175  1.0405 -0.0603 -1.2589
  978MOL0     H34932   4.109  11.838   5.192 -0.0777  0.0668  1.6354
  978MOL0     H34933   4.099  11.975   5.063  3.3739  1.9633 -0.2191
  978MOL0     H34934   3.997  12.118   5.228  0.6497  0.0279  1.8490
  978MOL0     H34935   4.061  12.011   5.343  1.1527  0.0388 -1.7677
  978MOL0     H34936   3.873  11.910   5.137  1.1117 -1.4970  0.1796
  978MOL0     H34937   3.881  11.837   5.304  1.1312 -0.0675  1.0384
  978MOL0     H34938   3.747  12.109   5.241 -1.2331 -0.1845 -0.2220
  978MOL0     H34939   3.787  12.058   5.393 -0.8853  0.6751 -0.4475
  978MOL0     H34940   3.638  11.847   5.331  0.8233 -0.3784 -0.6476
  978MOL0     H34941   3.582  11.941   5.196 -2.0341  1.7062  0.7067
  978MOL0     H34942   3.504  12.122   5.348  2.6555  0.3151 -1.2612
  978MOL0     H34943   3.543  12.029   5.493  1.2215 -4.2282  0.3294
  978MOL0     H34944   4.218  12.082   4.746 -1.2667 -2.2789  3.5560
  978MOL0     H34945   4.289  11.996   4.512 -1.8486 -0.8933  0.6971
  978MOL0     H34946   4.532  11.694   4.252 -2.1609 -1.2908 -1.3232
  978MOL0     H34947   4.527  11.634   4.011 -0.4268 -0.2670  0.6063
  978MOL0     H34948   4.621  11.163   3.517 -1.0249 -0.9504  1.6691
  978MOL0     H34949   4.613  11.081   3.739  2.5044 -0.0309 -0.3563
  978MOL0     H34950   4.407  11.249   4.249  0.7147  2.0248 -1.5168
  978MOL0     H34951   4.429  11.222   4.490  0.1610  1.8914  0.9752
  978MOL0     H34952   4.834  11.128   4.658  1.2714  1.6005 -0.2750
  978MOL0     H34953   4.826  11.297   4.665  2.5385 -1.5900 -1.4769
  978MOL0     H34954   4.703  11.274   4.889 -1.9422 -0.4192 -1.7304
  978MOL0     H34955   4.867  11.205   4.890 -1.7773  2.7007  3.0047
  978MOL0     H34956   4.610  11.046   4.888  0.2615  2.6878 -2.0289
  978MOL0     H34957   4.730  10.984   4.790  0.0286  2.5241 -0.8732
  978MOL0     H34958   4.919  10.996   4.940 -2.0020 -0.7633 -2.9066
  978MOL0     H34959   4.792  10.878   4.982  0.2262 -1.5180 -2.3247
  978MOL0     H34960   4.813  11.128   5.323  0.6793 -1.1517  0.7232
  978MOL0     H34961   4.860  11.204   4.448 -0.0927  0.8677 -0.1927
  978MOL0     H34962   4.876  11.323   4.110 -0.1322  0.2686  0.8046
  978MOL0     H34963   4.970  11.286   4.260 -0.0404 -2.4212  1.4828
  978MOL0     H34964   4.912  11.165   4.135 -1.2131  2.2856 -4.1439
  979MOL0     O34965   8.930   5.750   2.720 -0.1464  0.3927 -0.6224
  979MOL0     C34966   9.009   5.828   2.762  0.5322 -0.1396 -0.6605
  979MOL0     O34967   9.023   5.963   2.713  0.4757  0.5602 -0.0061
  979MOL0     C34968   8.922   6.044   2.652  1.0655  0.2958  0.0560
  979MOL0     C34969   8.962   6.175   2.641  0.1237 -0.7239 -0.3191
  979MOL0     C34970   8.881   6.278   2.606  1.0194  0.8220 -0.5659
  979MOL0     C34971   8.740   6.247   2.571 -0.1372  0.0485 -0.4144
  979MOL0     O34972   8.653   6.349   2.545 -0.7512  0.1734 -0.7039
  979MOL0     C34973   8.526   6.303   2.501  0.7280  0.3858  0.2762
  979MOL0     C34974   8.471   6.423   2.414  0.5809 -0.9891 -0.5855
  979MOL0     C34975   8.547   6.432   2.288  0.5763 -0.7841  0.4315
  979MOL0     C34976   8.498   6.542   2.199 -0.6725  0.3627 -0.1202
  979MOL0     C34977   8.387   6.496   2.103 -0.2406 -0.2805 -0.0179
  979MOL0     C34978   8.355   6.596   1.992 -0.0417  0.5474 -0.1095
  979MOL0     C34979   8.459   6.580   1.879  1.0959 -0.3350 -0.3607
  979MOL0     C34980   8.414   6.473   1.779  0.6598 -0.6178 -0.3259
  979MOL0     N34981   8.301   6.511   1.692  0.1107  0.0104  0.2307
  979MOL0     C34982   8.288   6.616   1.612 -0.2611 -0.1562  0.5179
  979MOL0     C34983   8.194   6.584   1.522 -0.2911  0.3615  0.6492
  979MOL0     C34984   8.158   6.670   1.408 -1.2114 -0.2791  0.3720
  979MOL0     C34985   8.268   6.666   1.306  0.3332  0.0168  0.4772
  979MOL0     C34986   8.247   6.775   1.197  0.1338  0.8075 -0.5537
  979MOL0     C34987   8.370   6.790   1.102 -0.6521  0.4529  0.3233
  979MOL0     O34988   8.402   6.668   1.040  0.4706 -0.8473 -0.2970
  979MOL0     C34989   8.506   6.652   0.951  0.3087 -0.8923  0.0821
  979MOL0     C34990   8.542   6.521   0.908 -0.3255 -0.2670 -0.2729
  979MOL0     C34991   8.641   6.509   0.814  0.3331  0.0063 -0.0633
  979MOL0     C34992   8.676   6.357   0.775  0.0956  0.3817 -0.5413
  979MOL0     C34993   8.710   6.610   0.756 -0.1522  0.6124  0.5930
  979MOL0     C34994   8.831   6.586   0.677 -0.7307 -0.1333 -0.8167
  979MOL0     O34995   8.823   6.636   0.555 -0.4747  0.2352  0.8344
  979MOL0     C34996   8.926   6.621   0.459  0.3162 -0.1578 -0.4492
  979MOL0     C34997   8.977   6.489   0.437  0.8836 -0.3109 -0.0730
  979MOL0     C34998   9.105   6.468   0.383 -0.0741  0.4952  0.6510
  979MOL0     C34999   9.156   6.579   0.306  0.2537  0.4056 -0.5398
  979MOL0     O35000   9.267   6.566   0.223  0.5446 -0.2516 -0.1965
  979MOL0     C35001   9.383   6.515   0.291  0.5666 -0.8722 -0.0404
  979MOL0     C35002   9.507   6.568   0.221  0.8267  0.7910  0.9397
  979MOL0     C35003   9.630   6.517   0.299  0.8255  0.1792 -0.3352
  979MOL0     C35004   9.766   6.578   0.269  0.2471  0.7191  0.2465
  979MOL0     C35005   9.873   6.486   0.326  0.4706 -0.9186 -0.4105
  979MOL0     C35006  10.009   6.530   0.296  0.3137  0.3413  0.4515
  979MOL0     C35007  10.116   6.452   0.364  0.5638  0.8645  0.3964
  979MOL0     C35008  10.169   6.516   0.494 -0.0531 -0.5058  0.0443
  979MOL0    Cl35009  10.237   6.677   0.485  0.1107  0.1205  0.1100
  979MOL0     C35010   9.095   6.709   0.304 -1.0097  0.7002  0.5395
  979MOL0     C35011   8.988   6.725   0.388 -0.0506 -0.9967  0.0256
  979MOL0     O35012   8.919   6.506   0.722 -0.2500 -0.2299 -0.0757
  979MOL0     C35013   8.680   6.732   0.800  0.2164 -0.1903 -0.7262
  979MOL0     C35014   8.584   6.760   0.903 -0.1454  0.2589  0.2005
  979MOL0     N35015   8.124   6.479   1.570  0.4912 -0.3741 -0.1792
  979MOL0     N35016   8.182   6.439   1.677  0.7345  0.4946  0.3852
  979MOL0     C35017   8.712   6.111   2.576 -0.1822 -0.6241  1.3162
  979MOL0     C35018   8.796   6.010   2.616  0.8737  0.4944  0.3794
  979MOL0     C35019   9.087   5.783   2.882  1.1621  0.0918  0.2245
  979MOL0     C35020   9.077   5.871   2.993 -0.8615  0.4191  0.8407
  979MOL0     C35021   9.127   5.830   3.114 -0.0878 -0.0803  0.0850
  979MOL0     C35022   9.185   5.704   3.128 -0.1123  0.8140  0.1721
  979MOL0     O35023   9.225   5.653   3.251  0.2920 -0.5041  0.3891
  979MOL0     C35024   9.317   5.546   3.265  0.7123  0.7181 -0.7182
  979MOL0     C35025   9.407   5.569   3.387 -0.4576  0.3433  0.5358
  979MOL0     C35026   9.497   5.440   3.421  0.3925 -0.1022  0.5952
  979MOL0     C35027   9.577   5.451   3.555  1.0477 -0.4793 -0.9253
  979MOL0     C35028   9.575   5.325   3.635 -0.0152 -0.6869 -0.1694
  979MOL0     C35029   9.597   5.224   3.692  0.0911  0.0141  0.9446
  979MOL0     C35030   9.200   5.620   3.015  0.1987 -0.1395  0.7640
  979MOL0     C35031   9.157   5.662   2.891  0.1472  0.3876  0.5391
  979MOL0     C35032   9.171   5.573   2.771  0.9126  0.1400  0.2978
  979MOL0     H35033   9.056   6.217   2.676 -0.8863  1.3744 -0.0392
  979MOL0     H35034   8.927   6.374   2.584 -0.3587  1.9432  1.2156
  979MOL0     H35035   8.454   6.284   2.581 -1.1275  2.7427 -0.6917
  979MOL0     H35036   8.532   6.227   2.423 -3.9360  2.5204 -2.6062
  979MOL0     H35037   8.365   6.406   2.392  0.6067  1.0284 -2.6960
  979MOL0     H35038   8.500   6.506   2.478  0.7171 -1.1249 -0.4712
  979MOL0     H35039   8.654   6.446   2.302  0.6672 -0.3343 -0.5667
  979MOL0     H35040   8.547   6.338   2.232  0.7449 -0.9454  0.7056
  979MOL0     H35041   8.469   6.635   2.249 -0.5504 -0.4405  1.5118
  979MOL0     H35042   8.587   6.559   2.138  0.6960  1.0946  1.9861
  979MOL0     H35043   8.304   6.496   2.173  2.8827 -2.4918  4.1497
  979MOL0     H35044   8.409   6.393   2.072 -4.2642 -0.4945 -3.0072
  979MOL0     H35045   8.252   6.588   1.954  0.4313  2.4440 -2.0297
  979MOL0     H35046   8.371   6.695   2.036  1.1515  0.6266 -0.6799
  979MOL0     H35047   8.539   6.528   1.934 -0.4471 -1.1518  1.1949
  979MOL0     H35048   8.491   6.666   1.820  1.0744 -0.6750 -0.8803
  979MOL0     H35049   8.504   6.455   1.719  0.7427 -0.1732 -0.3399
  979MOL0     H35050   8.400   6.378   1.832  2.1500  0.8559  2.9948
  979MOL0     H35051   8.344   6.709   1.611  1.3189 -1.0609 -0.4979
  979MOL0     H35052   8.142   6.774   1.441  1.8814  0.1229  0.8869
  979MOL0     H35053   8.069   6.630   1.359 -1.4760 -0.6632  1.1468
  979MOL0     H35054   8.363   6.682   1.357  1.4117  1.5156 -1.8449
  979MOL0     H35055   8.275   6.572   1.249  0.8705  2.1024 -3.1960
  979MOL0     H35056   8.160   6.743   1.138  0.8547 -3.1974  0.2705
  979MOL0     H35057   8.229   6.875   1.238  3.1601  0.9336  0.7509
  979MOL0     H35058   8.339   6.870   1.034  3.2636  2.9619  1.1577
  979MOL0     H35059   8.459   6.826   1.153 -1.1472  2.5545 -0.2189
  979MOL0     H35060   8.482   6.434   0.931 -1.2332 -0.0544 -1.6514
  979MOL0     H35061   8.733   6.341   0.683  2.2195 -1.2953  0.9768
  979MOL0     H35062   8.576   6.316   0.764  0.4822 -0.6446 -0.3079
  979MOL0     H35063   8.722   6.303   0.859 -1.9111 -1.7099 -0.7047
  979MOL0     H35064   8.927   6.401   0.477  0.2960  0.2818  0.5077
  979MOL0     H35065   9.138   6.369   0.351  0.8865  1.7279 -2.6169
  979MOL0     H35066   9.395   6.539   0.397 -1.9711  2.5961 -0.3854
  979MOL0     H35067   9.375   6.407   0.275 -0.5923 -0.4634 -2.6926
  979MOL0     H35068   9.506   6.531   0.118  1.3616  4.6014 -0.6057
  979MOL0     H35069   9.505   6.677   0.229  0.5399  0.9416 -0.8472
  979MOL0     H35070   9.638   6.409   0.283  1.8441  0.7120 -4.6633
  979MOL0     H35071   9.608   6.525   0.405 -1.9314 -1.7506 -0.6388
  979MOL0     H35072   9.751   6.673   0.322  1.0935  0.7373  0.4681
  979MOL0     H35073   9.777   6.598   0.162 -0.3866  1.5060  0.3219
  979MOL0     H35074   9.862   6.498   0.435  0.0518  0.1127 -0.5570
  979MOL0     H35075   9.864   6.384   0.288  2.0342 -0.4380 -2.2068
  979MOL0     H35076  10.017   6.635   0.325  2.7660 -0.0380  1.3119
  979MOL0     H35077  10.021   6.528   0.187  0.4743 -0.7667  0.4809
  979MOL0     H35078  10.205   6.454   0.299  0.8379  0.9584  0.7710
  979MOL0     H35079  10.096   6.345   0.373  1.4732  0.4183 -1.9876
  979MOL0     H35080  10.248   6.451   0.534  1.4165  0.1512 -1.6177
  979MOL0     H35081  10.082   6.518   0.560 -1.8467  2.5902 -2.1512
  979MOL0     H35082   9.145   6.791   0.252 -1.2070 -0.3925 -1.4771
  979MOL0     H35083   8.938   6.821   0.398 -1.0485 -1.3707 -1.1061
  979MOL0     H35084   8.735   6.817   0.760  2.5780 -1.2592  0.0657
  979MOL0     H35085   8.559   6.865   0.914  0.0567  0.8563 -3.7266
  979MOL0     H35086   8.616   6.067   2.553 -0.1465 -0.2328  0.3500
  979MOL0     H35087   8.759   5.908   2.620 -2.2156  1.5217  0.6033
  979MOL0     H35088   8.998   5.945   2.993  0.7118  2.1685  1.1624
  979MOL0     H35089   9.125   5.892   3.203  0.1807 -1.2758  0.9594
  979MOL0     H35090   9.262   5.454   3.285  1.3126  0.1524 -1.5812
  979MOL0     H35091   9.374   5.526   3.173  1.3390  2.0281 -0.6325
  979MOL0     H35092   9.348   5.606   3.472 -0.7253 -0.0673  0.5309
  979MOL0     H35093   9.476   5.651   3.363 -0.1937 -0.2540 -0.7943
  979MOL0     H35094   9.452   5.340   3.427  2.1574 -0.9895 -0.1225
  979MOL0     H35095   9.578   5.440   3.348  0.5427  3.3032  0.5925
  979MOL0     H35096   9.540   5.536   3.613  4.8738  0.8456 -0.0993
  979MOL0     H35097   9.679   5.482   3.531  0.9725  0.4334 -0.1445
  979MOL0     H35098   9.607   5.135   3.751 -0.6887  0.0392  1.1280
  979MOL0     H35099   9.247   5.522   3.016 -2.5128 -1.5265 -0.0182
  979MOL0     H35100   9.227   5.484   2.803 -2.5453 -1.4864  2.3658
  979MOL0     H35101   9.074   5.529   2.748  1.0990 -2.3933  3.6794
  979MOL0     H35102   9.211   5.622   2.682 -2.0052  0.8125 -0.7478
  980MOL0     O35103   7.337   3.505   5.264  0.0673  0.5408  0.3212
  980MOL0     C35104   7.283   3.597   5.330  0.3167  0.9656  0.6871
  980MOL0     O35105   7.332   3.723   5.330 -0.7103 -0.5766 -0.1810
  980MOL0     C35106   7.449   3.771   5.279 -0.8395 -0.6119 -0.7613
  980MOL0     C35107   7.461   3.909   5.267 -0.5268  0.2598 -0.5988
  980MOL0     C35108   7.584   3.968   5.224  0.2574 -0.2996  0.6874
  980MOL0     C35109   7.685   3.884   5.173  0.1868 -0.6438 -0.6521
  980MOL0     O35110   7.789   3.941   5.103  0.3257  0.5143 -0.2128
  980MOL0     C35111   7.882   3.861   5.039  0.0336 -0.1327  0.1797
  980MOL0     C35112   7.990   3.974   4.994 -0.4689 -0.4759 -0.6097
  980MOL0     C35113   8.054   4.030   5.122  0.2151  0.1291  1.2793
  980MOL0     C35114   8.143   3.922   5.179  0.6918  0.3846  0.6391
  980MOL0     C35115   8.247   3.977   5.283 -0.8002 -0.7634 -0.1017
  980MOL0     C35116   8.183   4.026   5.418  0.6677  0.4649 -0.5453
  980MOL0     C35117   8.308   4.093   5.496  0.8915 -0.8670  0.4626
  980MOL0     C35118   8.275   4.177   5.617  0.3466  0.1113 -0.1352
  980MOL0     N35119   8.171   4.131   5.710  0.7242 -0.2884 -0.3579
  980MOL0     C35120   8.155   4.009   5.773  0.0365 -0.2106 -0.7304
  980MOL0     C35121   8.068   4.030   5.872  0.5596 -0.2443  0.0012
  980MOL0     C35122   8.028   3.919   5.971  0.1225 -0.6426 -0.0522
  980MOL0     C35123   8.122   3.942   6.084  0.5144  0.2324 -1.1213
  980MOL0     C35124   8.107   3.845   6.204  0.2947  0.7601 -0.0642
  980MOL0     C35125   8.200   3.869   6.322 -0.4034  0.9209 -0.7087
  980MOL0     O35126   8.179   3.997   6.371 -0.1082 -0.5216  0.6654
  980MOL0     C35127   8.075   4.022   6.468 -0.1095 -0.0454  0.4166
  980MOL0     C35128   8.060   4.161   6.505 -0.8955  0.9567  0.2989
  980MOL0     C35129   7.982   4.191   6.613 -0.6466 -0.6021 -0.8006
  980MOL0     C35130   7.993   4.341   6.634  0.2472 -0.2029 -0.0455
  980MOL0     C35131   7.893   4.095   6.682 -0.1208 -0.4825  0.0385
  980MOL0     C35132   7.808   4.122   6.798 -0.3949  0.6047  0.5193
  980MOL0     O35133   7.699   4.035   6.805 -0.2251  1.0560 -0.0944
  980MOL0     C35134   7.623   4.003   6.915  0.3317  0.1397  0.0710
  980MOL0     C35135   7.569   3.876   6.916 -0.4404 -0.4645  0.1645
  980MOL0     C35136   7.491   3.822   7.021  0.0061 -0.5630  0.0629
  980MOL0     C35137   7.468   3.902   7.127 -0.5398  0.2069  0.4041
  980MOL0     O35138   7.396   3.849   7.230 -0.9032  1.0287  0.1852
  980MOL0     C35139   7.482   3.796   7.335  0.7475 -0.9822 -0.4129
  980MOL0     C35140   7.455   3.886   7.470  0.0100  0.0193  0.6659
  980MOL0     C35141   7.337   3.832   7.544  0.0771 -0.3683 -0.2307
  980MOL0     C35142   7.380   3.780   7.678  0.9138 -0.4197 -0.1889
  980MOL0     C35143   7.436   3.638   7.661  0.8634  0.9558 -0.6325
  980MOL0     C35144   7.438   3.576   7.803  0.1399  0.1157 -1.2141
  980MOL0     C35145   7.462   3.421   7.778  0.7096  0.1946 -0.7250
  980MOL0     C35146   7.446   3.340   7.907  0.1235  0.0968 -0.5264
  980MOL0    Cl35147   7.490   3.168   7.884  0.1053  0.5764  0.5404
  980MOL0     C35148   7.516   4.030   7.135  0.4052 -0.3626 -0.4032
  980MOL0     C35149   7.583   4.088   7.025  0.2261 -0.1535 -0.2764
  980MOL0     O35150   7.829   4.218   6.873 -0.6054  0.3787 -0.1853
  980MOL0     C35151   7.907   3.964   6.641  0.2321  0.1372  0.0723
  980MOL0     C35152   7.991   3.925   6.533  0.6501  0.5199  0.3550
  980MOL0     N35153   8.035   4.162   5.870 -0.5812  0.0396  0.4013
  980MOL0     N35154   8.081   4.220   5.772 -1.3126  0.4911  0.0665
  980MOL0     C35155   7.678   3.750   5.197  0.4369  0.1527  0.6726
  980MOL0     C35156   7.565   3.691   5.252 -1.1442 -0.3641  0.5448
  980MOL0     C35157   7.158   3.566   5.409 -1.2079  0.9358  0.3251
  980MOL0     C35158   7.115   3.439   5.397  0.5831  0.5691 -0.8991
  980MOL0     C35159   7.009   3.383   5.469 -0.2791 -0.2095 -0.3175
  980MOL0     C35160   6.931   3.474   5.547 -0.0015 -0.5771 -0.0842
  980MOL0     O35161   6.833   3.422   5.630  0.0866  0.3458 -0.1319
  980MOL0     C35162   6.722   3.510   5.666 -0.4501  0.7663  0.8382
  980MOL0     C35163   6.599   3.430   5.719  0.4047 -1.2166 -0.1515
  980MOL0     C35164   6.534   3.334   5.610 -0.4920 -0.1626 -0.0824
  980MOL0     C35165   6.566   3.183   5.636 -1.0550  0.0758 -0.2616
  980MOL0     C35166   6.709   3.142   5.616  0.3455 -0.3698 -0.5883
  980MOL0     C35167   6.826   3.103   5.601  0.8046 -0.0929  0.2448
  980MOL0     C35168   6.972   3.609   5.555  0.3281 -0.5046 -0.3150
  980MOL0     C35169   7.076   3.660   5.481 -1.0500 -0.0335  0.3263
  980MOL0     C35170   7.101   3.805   5.499 -0.5764 -0.2045  0.3425
  980MOL0     H35171   7.375   3.967   5.300 -0.1395 -0.7038  2.3962
  980MOL0     H35172   7.589   4.076   5.226 -4.5819  0.3117 -2.4559
  980MOL0     H35173   7.829   3.814   4.956 -1.4186 -0.3513  1.1929
  980MOL0     H35174   7.915   3.771   5.091  0.3365 -0.4940 -0.6284
  980MOL0     H35175   8.063   3.939   4.921 -0.8093  1.3841 -1.9045
  980MOL0     H35176   7.946   4.046   4.925  2.0078  0.2815 -1.4791
  980MOL0     H35177   8.120   4.112   5.092 -0.6852 -0.4602 -3.0771
  980MOL0     H35178   7.977   4.078   5.183 -0.1659 -0.5326  1.3296
  980MOL0     H35179   8.090   3.839   5.228  1.7084  0.0184  1.1597
  980MOL0     H35180   8.211   3.882   5.103 -0.8033  0.3006 -0.6963
  980MOL0     H35181   8.303   4.056   5.231  0.5678 -2.0981 -0.7333
  980MOL0     H35182   8.319   3.895   5.291  1.1688  0.8966  0.0958
  980MOL0     H35183   8.112   4.100   5.382 -0.6549 -0.7490 -0.5305
  980MOL0     H35184   8.135   3.941   5.468  0.2542 -0.7531 -2.8276
  980MOL0     H35185   8.359   4.165   5.431  0.8280 -1.2073  0.0318
  980MOL0     H35186   8.373   4.008   5.520  0.3611 -1.0336  1.3425
  980MOL0     H35187   8.365   4.205   5.673 -0.6531  2.6666  0.3459
  980MOL0     H35188   8.237   4.275   5.584 -1.7107  0.1235  1.9723
  980MOL0     H35189   8.212   3.919   5.751  0.1730 -0.2006 -0.4145
  980MOL0     H35190   8.041   3.817   5.934 -0.7037 -0.6273 -0.4118
  980MOL0     H35191   7.926   3.931   6.009  0.2568 -1.0462  0.4481
  980MOL0     H35192   8.221   3.923   6.042 -0.3835  0.3630 -3.4381
  980MOL0     H35193   8.123   4.041   6.131  1.9430  0.1141 -0.8519
  980MOL0     H35194   8.005   3.844   6.245 -0.3390 -1.2550 -1.5408
  980MOL0     H35195   8.121   3.744   6.167  2.0178  0.7430  0.5236
  980MOL0     H35196   8.183   3.790   6.397  2.1549  1.0919  0.1365
  980MOL0     H35197   8.303   3.841   6.297 -0.6443 -1.1050  0.3154
  980MOL0     H35198   8.119   4.239   6.458  0.5454  1.5214  2.8822
  980MOL0     H35199   8.084   4.368   6.688  0.5277  2.9709 -1.8369
  980MOL0     H35200   7.908   4.374   6.695  2.1758  3.2441  1.0917
  980MOL0     H35201   7.983   4.409   6.548 -1.6829 -0.8569 -0.4081
  980MOL0     H35202   7.583   3.826   6.820 -1.9631  1.5011 -1.1696
  980MOL0     H35203   7.455   3.719   7.021 -2.6673  0.2836 -1.0776
  980MOL0     H35204   7.445   3.695   7.357  0.5145 -1.0851 -1.2608
  980MOL0     H35205   7.589   3.788   7.313  1.1053 -2.7022  1.6156
  980MOL0     H35206   7.541   3.907   7.535  0.9608 -0.0123 -0.5354
  980MOL0     H35207   7.414   3.985   7.447  1.4487  0.5412  0.1827
  980MOL0     H35208   7.286   3.757   7.483  0.2061 -0.9063  0.3127
  980MOL0     H35209   7.264   3.914   7.552 -0.2462 -0.1962 -3.6977
  980MOL0     H35210   7.301   3.787   7.753  2.1534 -0.2478  1.1369
  980MOL0     H35211   7.456   3.835   7.733  1.6465 -1.5225 -0.0702
  980MOL0     H35212   7.377   3.585   7.586  2.8653 -4.2250  1.0483
  980MOL0     H35213   7.538   3.640   7.621  1.4419  2.2572  0.7848
  980MOL0     H35214   7.348   3.600   7.860  0.0004  1.2639 -1.8826
  980MOL0     H35215   7.521   3.621   7.858 -0.2287  0.3525 -0.8425
  980MOL0     H35216   7.562   3.394   7.742  0.5169 -1.3048 -0.2115
  980MOL0     H35217   7.398   3.377   7.701  1.8414 -2.6082 -0.1918
  980MOL0     H35218   7.348   3.357   7.954  1.2506  0.5152  1.8164
  980MOL0     H35219   7.519   3.362   7.985 -0.3180 -0.5126  0.0742
  980MOL0     H35220   7.482   4.088   7.220  3.1593  0.2037  0.3982
  980MOL0     H35221   7.627   4.185   7.046 -0.7866  0.5070 -1.1134
  980MOL0     H35222   7.836   3.888   6.672 -1.1287  1.1333 -0.5036
  980MOL0     H35223   7.983   3.819   6.510 -1.3018  0.1570  2.3608
  980MOL0     H35224   7.755   3.678   5.172 -0.4037  0.1217 -2.1783
  980MOL0     H35225   7.579   3.584   5.263  1.2341 -0.2411 -0.6317
  980MOL0     H35226   7.159   3.364   5.330 -1.4533 -0.8767 -0.7095
  980MOL0     H35227   6.981   3.279   5.454  2.3755 -0.9333 -0.6871
  980MOL0     H35228   6.752   3.584   5.740 -1.4927  1.5666  0.4932
  980MOL0     H35229   6.693   3.569   5.578  0.5917  0.4401  0.2693
  980MOL0     H35230   6.523   3.504   5.744 -0.2077 -2.0060  0.3666
  980MOL0     H35231   6.623   3.379   5.813 -0.9608  3.3897  3.0707
  980MOL0     H35232   6.426   3.345   5.608 -0.3740  1.5126  0.9620
  980MOL0     H35233   6.577   3.349   5.511  3.6914  2.5629  1.8359
  980MOL0     H35234   6.506   3.121   5.568 -0.2265 -1.8636  0.6768
  980MOL0     H35235   6.532   3.148   5.734 -2.3621 -0.9522 -1.0410
  980MOL0     H35236   6.916   3.055   5.571 -0.0769 -0.8748 -1.2927
  980MOL0     H35237   6.923   3.684   5.616  1.8928  1.4523 -1.3834
  980MOL0     H35238   7.110   3.852   5.400  0.8379 -0.5717  0.2754
  980MOL0     H35239   7.041   3.854   5.576  0.8787  1.1520  0.6875
  980MOL0     H35240   7.201   3.818   5.542 -2.3911 -0.5566  5.3146
  981MOL0     O35241   4.047   6.786   6.298 -0.4080  0.4320  0.4151
  981MOL0     C35242   4.150   6.840   6.252  0.8125  0.2246 -0.8050
  981MOL0     O35243   4.273   6.810   6.293  0.7997  0.1116 -0.3734
  981MOL0     C35244   4.294   6.720   6.394 -0.3234 -0.3529  0.3027
  981MOL0     C35245   4.280   6.588   6.369 -0.3602  0.3394 -0.1105
  981MOL0     C35246   4.292   6.498   6.474 -0.7471 -0.0632  0.9015
  981MOL0     C35247   4.346   6.541   6.599  0.6488  0.2014 -0.6110
  981MOL0     O35248   4.391   6.456   6.691 -0.4411 -0.1364  0.4035
  981MOL0     C35249   4.409   6.320   6.675  0.4326  0.5555  0.2536
  981MOL0     C35250   4.485   6.258   6.789 -0.6964  0.2017 -0.0166
  981MOL0     C35251   4.611   6.314   6.835 -1.0280 -0.2231 -0.1935
  981MOL0     C35252   4.725   6.319   6.728 -0.2952  0.0177 -1.3539
  981MOL0     C35253   4.871   6.347   6.782  0.0435  0.2819  0.1748
  981MOL0     C35254   4.891   6.479   6.838  0.2251 -0.5650  0.4134
  981MOL0     C35255   4.848   6.606   6.756  0.2986 -1.1317 -0.8393
  981MOL0     C35256   4.952   6.613   6.642 -0.0126  0.6742 -0.6174
  981MOL0     N35257   5.084   6.665   6.685  0.1392  0.4048 -0.4413
  981MOL0     C35258   5.109   6.778   6.766 -1.0948 -0.3027  0.2613
  981MOL0     C35259   5.228   6.756   6.810 -0.1804 -0.0130 -0.3330
  981MOL0     C35260   5.312   6.855   6.890  0.7728 -0.0106  0.2347
  981MOL0     C35261   5.429   6.916   6.809 -0.5999  0.1029 -0.7957
  981MOL0     C35262   5.492   7.030   6.861 -0.8891 -0.2080  0.4536
  981MOL0     C35263   5.563   7.028   7.000 -0.5806  0.1405 -0.6936
  981MOL0     O35264   5.543   7.149   7.065  0.3158  0.6199 -0.7913
  981MOL0     C35265   5.654   7.239   7.060  0.2033  0.5619 -0.3236
  981MOL0     C35266   5.794   7.207   7.045  0.3126  1.4272 -0.3980
  981MOL0     C35267   5.900   7.309   7.054  0.2169  0.5629  1.3931
  981MOL0     C35268   6.047   7.256   7.043  0.1148  0.6549  1.3563
  981MOL0     C35269   5.861   7.439   7.071  0.5330 -1.5313 -0.2501
  981MOL0     C35270   5.959   7.558   7.082 -0.9437 -0.4224  0.8438
  981MOL0     O35271   5.912   7.673   7.140 -0.2686  0.1519  0.7422
  981MOL0     C35272   5.951   7.803   7.115 -0.4349  0.4656  1.1925
  981MOL0     C35273   6.043   7.839   7.017 -0.3002  0.7480  0.4077
  981MOL0     C35274   6.079   7.966   6.984  0.5489 -0.0668 -0.2661
  981MOL0     C35275   6.030   8.075   7.054 -0.4959  1.1730 -0.5220
  981MOL0     O35276   6.061   8.207   7.036  0.6811 -0.2825  0.5009
  981MOL0     C35277   6.134   8.237   6.911 -1.0110 -0.3354 -0.3541
  981MOL0     C35278   6.284   8.198   6.942  0.3726  0.1417  0.2084
  981MOL0     C35279   6.377   8.290   6.869  0.4959 -0.7754 -0.2287
  981MOL0     C35280   6.381   8.254   6.715  0.1401  0.0613 -0.3474
  981MOL0     C35281   6.309   8.350   6.616  1.0164 -0.9753 -0.9735
  981MOL0     C35282   6.290   8.315   6.467  0.2540  0.3426  0.0899
  981MOL0     C35283   6.169   8.215   6.430  0.0140  0.0417  0.6305
  981MOL0     C35284   6.159   8.207   6.282  0.0442  0.6223  0.4327
  981MOL0    Cl35285   6.255   8.064   6.228  0.2725  0.5421  0.6564
  981MOL0     C35286   5.947   8.041   7.162 -0.1996  0.5830 -0.7858
  981MOL0     C35287   5.910   7.904   7.187  0.1849 -0.6597  0.0219
  981MOL0     O35288   6.065   7.542   7.013  0.5092  0.3884  0.0173
  981MOL0     C35289   5.724   7.471   7.082  0.2014 -0.3160  1.5749
  981MOL0     C35290   5.625   7.374   7.083  0.3969 -0.3096 -1.0472
  981MOL0     N35291   5.284   6.637   6.770 -0.0498  0.3329  0.9223
  981MOL0     N35292   5.196   6.584   6.689 -0.3607 -0.2868 -0.2624
  981MOL0     C35293   4.369   6.674   6.623  0.2189  0.3435  0.2546
  981MOL0     C35294   4.333   6.768   6.514 -0.2786  0.2491 -0.2309
  981MOL0     C35295   4.135   6.958   6.153  0.7895 -0.1592  0.2874
  981MOL0     C35296   4.004   6.992   6.123  0.1871 -0.1520  0.3427
  981MOL0     C35297   3.964   7.099   6.051 -0.6713  1.1767 -0.2553
  981MOL0     C35298   4.067   7.177   5.989 -0.4369 -0.4822  0.4658
  981MOL0     O35299   4.027   7.268   5.898  0.3400  0.1390  1.1127
  981MOL0     C35300   4.118   7.332   5.806 -0.7585 -0.3265 -0.3119
  981MOL0     C35301   4.034   7.398   5.707  0.6120 -0.1200  0.5570
  981MOL0     C35302   3.925   7.298   5.639  0.1849 -0.3537 -0.1029
  981MOL0     C35303   3.864   7.355   5.511  1.1098  0.9143 -0.3660
  981MOL0     C35304   3.765   7.462   5.535 -0.6505 -0.1339  0.3725
  981MOL0     C35305   3.679   7.542   5.550 -0.1477 -0.4402 -0.0546
  981MOL0     C35306   4.201   7.152   6.020  0.9913  0.4195  0.3842
  981MOL0     C35307   4.236   7.042   6.102  0.6858 -0.1320 -0.9377
  981MOL0     C35308   4.379   7.015   6.131 -0.2609 -0.8272  0.4006
  981MOL0     H35309   4.263   6.556   6.267 -2.4041 -2.1032  0.8888
  981MOL0     H35310   4.282   6.391   6.466 -0.7141 -0.4430  4.4675
  981MOL0     H35311   4.475   6.299   6.591  1.6334  2.0982  0.7675
  981MOL0     H35312   4.315   6.264   6.672 -1.7943  3.9932  0.1419
  981MOL0     H35313   4.413   6.249   6.871 -0.7491  0.1654 -0.0662
  981MOL0     H35314   4.500   6.157   6.750 -3.2880  0.2642 -1.4197
  981MOL0     H35315   4.601   6.413   6.881  0.4364 -0.0786 -0.1289
  981MOL0     H35316   4.655   6.253   6.914  0.6558 -2.0806 -2.4104
  981MOL0     H35317   4.727   6.223   6.675 -1.2650  0.1130 -1.5883
  981MOL0     H35318   4.689   6.396   6.659 -4.1445 -0.8853 -0.6041
  981MOL0     H35319   4.943   6.341   6.700 -0.7495 -1.0277 -0.4624
  981MOL0     H35320   4.895   6.267   6.853  2.0521 -0.0509 -0.7889
  981MOL0     H35321   4.829   6.482   6.928  0.7203  1.0327  0.7255
  981MOL0     H35322   4.993   6.482   6.878  0.8520 -1.9680 -0.9668
  981MOL0     H35323   4.853   6.698   6.815 -0.9002  0.4160 -2.9915
  981MOL0     H35324   4.744   6.602   6.723 -0.5540  0.4108  1.4777
  981MOL0     H35325   4.968   6.514   6.600 -0.2829 -0.4855  1.8475
  981MOL0     H35326   4.921   6.685   6.565  1.0129  2.5816  0.6503
  981MOL0     H35327   5.038   6.858   6.784  1.4455  2.1328  0.3152
  981MOL0     H35328   5.354   6.808   6.979  3.6686  2.7882  0.5104
  981MOL0     H35329   5.253   6.937   6.933 -0.8220  0.4800 -2.6203
  981MOL0     H35330   5.508   6.840   6.805 -2.0973 -1.4625 -2.3068
  981MOL0     H35331   5.406   6.928   6.703 -1.7440 -1.4209 -0.7517
  981MOL0     H35332   5.569   7.064   6.792 -1.2830  0.8963  0.5351
  981MOL0     H35333   5.417   7.110   6.860 -2.0788 -1.1362 -3.8098
  981MOL0     H35334   5.510   6.959   7.067 -1.8147 -0.5360 -2.2981
  981MOL0     H35335   5.664   6.985   6.999 -0.5086  0.2058  0.7612
  981MOL0     H35336   5.828   7.104   7.041 -0.4162  1.0309  2.0929
  981MOL0     H35337   6.106   7.295   7.126  1.5025  0.9004  0.2917
  981MOL0     H35338   6.103   7.269   6.950 -0.9161  1.9412  0.8789
  981MOL0     H35339   6.056   7.149   7.063  1.5839  0.7857  1.4528
  981MOL0     H35340   6.081   7.762   6.950 -2.3712  0.0302 -0.0154
  981MOL0     H35341   6.151   7.972   6.903  1.6596 -1.1932  0.5916
  981MOL0     H35342   6.099   8.175   6.828 -0.6940  0.2034 -0.8997
  981MOL0     H35343   6.140   8.346   6.899  3.2808 -0.0766  2.1641
  981MOL0     H35344   6.299   8.214   7.049  0.7637  0.5078  0.1014
  981MOL0     H35345   6.306   8.093   6.920 -2.7261 -0.1969 -2.0794
  981MOL0     H35346   6.471   8.287   6.925 -0.6769 -1.2389  1.8377
  981MOL0     H35347   6.344   8.394   6.881  2.0138 -0.3836  0.8180
  981MOL0     H35348   6.338   8.154   6.705 -2.8268  1.4094 -2.5012
  981MOL0     H35349   6.486   8.261   6.686  0.0002  2.8606 -0.4285
  981MOL0     H35350   6.208   8.378   6.650  0.4609  0.3633 -3.4994
  981MOL0     H35351   6.366   8.442   6.612 -1.3301  0.6344  0.1238
  981MOL0     H35352   6.379   8.277   6.417 -2.2998 -1.1266 -3.8966
  981MOL0     H35353   6.276   8.409   6.412 -0.8352 -0.5576 -1.2452
  981MOL0     H35354   6.084   8.264   6.479  0.3141 -1.5219  2.8600
  981MOL0     H35355   6.192   8.114   6.465  4.0137  0.2522 -0.8525
  981MOL0     H35356   6.194   8.293   6.225  2.3455  0.2341  1.1609
  981MOL0     H35357   6.055   8.189   6.253  0.8678  0.3465 -2.7607
  981MOL0     H35358   5.900   8.120   7.220  0.5453  0.1208  0.4833
  981MOL0     H35359   5.826   7.885   7.253 -1.0268  0.6715 -1.0552
  981MOL0     H35360   5.679   7.569   7.075 -1.5560 -1.1800 -2.8301
  981MOL0     H35361   5.520   7.404   7.083 -0.7110 -3.6711 -0.1552
  981MOL0     H35362   4.408   6.722   6.712 -1.4379  3.6374 -0.6297
  981MOL0     H35363   4.362   6.872   6.520 -0.4205  0.2183  1.2836
  981MOL0     H35364   3.926   6.920   6.144 -1.8901  1.2958 -1.8890
  981MOL0     H35365   3.857   7.108   6.035 -1.5463 -2.2918  2.4371
  981MOL0     H35366   4.193   7.392   5.859 -0.0870 -2.1975  0.9506
  981MOL0     H35367   4.171   7.255   5.749  0.6340  1.3549 -1.3890
  981MOL0     H35368   4.095   7.438   5.626  0.3826  1.1414  0.9841
  981MOL0     H35369   3.972   7.474   5.755  1.6296  2.2616 -1.6671
  981MOL0     H35370   3.968   7.199   5.618  0.9059 -0.1947  0.5854
  981MOL0     H35371   3.841   7.275   5.706  0.4281 -0.9622  0.0050
  981MOL0     H35372   3.808   7.268   5.476  2.9833  0.0098 -1.2616
  981MOL0     H35373   3.940   7.390   5.440  1.2754  2.6705  0.6023
  981MOL0     H35374   3.613   7.624   5.572  0.3754 -0.8060  3.5777
  981MOL0     H35375   4.268   7.229   5.982  0.0257  3.2810  3.8929
  981MOL0     H35376   4.424   7.109   6.097 -1.6018 -1.0669 -2.3054
  981MOL0     H35377   4.406   6.991   6.235 -1.0429  4.3940  2.0858
  981MOL0     H35378   4.407   6.933   6.064  2.9150  0.8601 -0.5248
  982MOL0     O35379   5.921   3.721   7.619  0.1119  0.1146  0.0953
  982MOL0     C35380   5.901   3.709   7.503 -0.4105  0.6851  0.7046
  982MOL0     O35381   5.979   3.640   7.415  0.3544 -0.6852  0.3642
  982MOL0     C35382   6.105   3.581   7.446  0.0743 -0.1728  0.8795
  982MOL0     C35383   6.194   3.626   7.543  0.1101  0.6508 -0.4838
  982MOL0     C35384   6.312   3.562   7.570 -0.0827  0.3586 -1.0628
  982MOL0     C35385   6.364   3.469   7.482 -0.0025 -0.7714 -0.1766
  982MOL0     O35386   6.485   3.432   7.506 -1.0515  0.1904  0.1894
  982MOL0     C35387   6.572   3.419   7.390  0.0144  0.4889 -0.6651
  982MOL0     C35388   6.720   3.444   7.440  0.2390  0.4350 -1.1342
  982MOL0     C35389   6.760   3.304   7.492 -0.1475 -0.8645  0.3081
  982MOL0     C35390   6.915   3.315   7.533 -0.0433  0.4816  0.7481
  982MOL0     C35391   6.969   3.196   7.613  0.2898 -0.0148 -0.0697
  982MOL0     C35392   6.927   3.063   7.581  0.1269  0.9237 -0.4962
  982MOL0     C35393   6.976   3.009   7.444  1.0800 -0.5690 -0.1370
  982MOL0     C35394   6.900   2.889   7.391  0.2710 -0.2484 -0.1204
  982MOL0     N35395   6.775   2.926   7.315 -0.6385 -1.0144  0.6238
  982MOL0     C35396   6.657   2.960   7.374 -0.3483 -0.2960  0.2981
  982MOL0     C35397   6.570   2.979   7.276  0.7559  0.1788 -1.8773
  982MOL0     C35398   6.428   3.029   7.304 -0.7175  0.6512  0.2299
  982MOL0     C35399   6.363   2.951   7.420 -0.1469  0.0428 -0.4713
  982MOL0     C35400   6.228   3.010   7.466 -0.4278 -0.5455  0.7542
  982MOL0     C35401   6.117   2.987   7.365 -0.0410 -0.1446 -0.2077
  982MOL0     O35402   5.985   3.012   7.428 -0.2471 -1.1308  0.7487
  982MOL0     C35403   5.905   3.085   7.341 -0.1439 -0.4473  0.2192
  982MOL0     C35404   5.867   3.219   7.371  0.1745 -0.4407  0.4582
  982MOL0     C35405   5.770   3.287   7.292  0.7619 -0.1617 -0.9127
  982MOL0     C35406   5.728   3.420   7.343  0.2312  0.0757 -0.2429
  982MOL0     C35407   5.711   3.221   7.177 -0.7461  0.9484 -0.4597
  982MOL0     C35408   5.601   3.277   7.095  0.2282  0.6284 -0.1717
  982MOL0     O35409   5.589   3.237   6.968  0.3714 -0.0764  0.5151
  982MOL0     C35410   5.496   3.285   6.881 -0.7246 -0.0914  0.5690
  982MOL0     C35411   5.428   3.410   6.885  0.2620  0.0815 -1.5525
  982MOL0     C35412   5.333   3.443   6.787  0.2283  0.2398 -1.2413
  982MOL0     C35413   5.326   3.358   6.674  0.7968  1.2169 -0.2750
  982MOL0     O35414   5.265   3.390   6.554 -0.6046 -0.2429  0.2994
  982MOL0     C35415   5.182   3.504   6.556 -0.7512  0.3715 -0.3521
  982MOL0     C35416   5.138   3.524   6.409  0.3874 -1.1870 -0.0504
  982MOL0     C35417   5.268   3.570   6.325  0.6253  0.5055 -0.1594
  982MOL0     C35418   5.216   3.623   6.198 -0.6787 -0.3679  0.4540
  982MOL0     C35419   5.324   3.704   6.127 -0.5748 -1.2594  0.5332
  982MOL0     C35420   5.273   3.781   6.003 -0.4336 -0.8485 -0.7488
  982MOL0     C35421   5.265   3.710   5.872 -0.0008 -0.0014 -1.3411
  982MOL0     C35422   5.250   3.802   5.747 -0.2128 -0.4532  0.0166
  982MOL0    Cl35423   5.137   3.948   5.786 -0.0430  0.3229  0.2242
  982MOL0     C35424   5.393   3.234   6.667  0.3850  0.0992  0.4203
  982MOL0     C35425   5.479   3.196   6.773 -0.0386 -0.1496 -0.4132
  982MOL0     O35426   5.544   3.372   7.145  0.2533  0.0697  0.0804
  982MOL0     C35427   5.760   3.101   7.145 -0.5141 -0.0540  0.1721
  982MOL0     C35428   5.856   3.028   7.225 -0.2956  0.5616 -0.4759
  982MOL0     N35429   6.619   2.954   7.155  0.4590  0.1791  0.4483
  982MOL0     N35430   6.747   2.931   7.179  0.9996  0.0155  0.1712
  982MOL0     C35431   6.284   3.414   7.391  0.1792  0.4419  0.5632
  982MOL0     C35432   6.154   3.469   7.362 -0.1750 -0.1942  0.3257
  982MOL0     C35433   5.763   3.741   7.454 -0.0418  0.2295  0.2389
  982MOL0     C35434   5.749   3.747   7.319  0.0801 -0.4312 -0.6123
  982MOL0     C35435   5.631   3.766   7.254  0.0993  0.0512 -0.7102
  982MOL0     C35436   5.518   3.779   7.338 -0.0822  0.7547 -0.2335
  982MOL0     O35437   5.405   3.830   7.284  0.2749 -0.5257 -1.0488
  982MOL0     C35438   5.331   3.737   7.206 -0.2365 -0.1950 -0.1272
  982MOL0     C35439   5.188   3.735   7.261  1.2990 -0.2809 -0.1741
  982MOL0     C35440   5.176   3.634   7.373  0.0089  0.2344 -0.2040
  982MOL0     C35441   5.035   3.643   7.434  0.1199  0.2659 -0.0360
  982MOL0     C35442   5.002   3.574   7.568 -0.4738  0.3577 -0.1532
  982MOL0     C35443   4.964   3.528   7.676 -0.1268 -0.0089 -0.1898
  982MOL0     C35444   5.527   3.758   7.477  0.2632  1.0478 -0.1582
  982MOL0     C35445   5.650   3.748   7.540 -0.0015  0.7689 -0.4731
  982MOL0     C35446   5.650   3.717   7.687  0.5243 -0.2500 -0.1347
  982MOL0     H35447   6.175   3.722   7.590 -0.7088  1.0197 -1.5123
  982MOL0     H35448   6.375   3.604   7.648 -0.3972  3.5254 -2.3522
  982MOL0     H35449   6.557   3.483   7.303 -1.2518  1.5556  0.3127
  982MOL0     H35450   6.564   3.314   7.361 -3.2524  1.0350 -2.1316
  982MOL0     H35451   6.790   3.473   7.362  0.4960 -0.2471 -1.1654
  982MOL0     H35452   6.715   3.519   7.519 -0.8889 -0.3932 -0.3808
  982MOL0     H35453   6.707   3.279   7.585 -0.3296  1.3750  0.8777
  982MOL0     H35454   6.739   3.224   7.421 -0.2358  0.2448 -0.9646
  982MOL0     H35455   6.970   3.306   7.440  0.2407 -4.1333  1.1125
  982MOL0     H35456   6.938   3.410   7.581  3.1683  0.6624 -0.8923
  982MOL0     H35457   6.956   3.212   7.721 -2.8707  1.8990 -0.5879
  982MOL0     H35458   7.076   3.200   7.592 -0.1040 -0.8092 -2.5972
  982MOL0     H35459   6.973   2.997   7.656  0.9165  0.6499 -1.2168
  982MOL0     H35460   6.818   3.057   7.581  0.2064 -2.3182 -0.0769
  982MOL0     H35461   7.080   2.985   7.467  0.9961  0.9828  2.1617
  982MOL0     H35462   6.972   3.087   7.367  0.9607 -0.6760 -0.2395
  982MOL0     H35463   6.970   2.833   7.328  0.6850 -1.5444  1.4157
  982MOL0     H35464   6.883   2.822   7.476  2.6476  1.9833  2.3286
  982MOL0     H35465   6.643   2.964   7.482  3.8421 -1.1074  1.0310
  982MOL0     H35466   6.374   3.010   7.211  0.8264  0.2929 -0.6401
  982MOL0     H35467   6.423   3.137   7.317  2.6701  1.1041 -1.1604
  982MOL0     H35468   6.360   2.845   7.393 -1.9739  0.6501 -3.1621
  982MOL0     H35469   6.428   2.954   7.508 -0.5805 -0.3167 -0.1357
  982MOL0     H35470   6.206   2.947   7.552  4.8876 -0.9311  2.1820
  982MOL0     H35471   6.243   3.117   7.484  3.4686 -0.1106 -3.2697
  982MOL0     H35472   6.133   3.062   7.287  2.2602  2.4374  2.5606
  982MOL0     H35473   6.119   2.881   7.337 -1.5005 -0.6264  1.3459
  982MOL0     H35474   5.914   3.274   7.452 -2.1896 -0.2821  1.7800
  982MOL0     H35475   5.621   3.408   7.364  0.3018 -2.5833 -1.0074
  982MOL0     H35476   5.739   3.493   7.262 -2.9050 -2.0849 -2.9195
  982MOL0     H35477   5.790   3.451   7.427  0.0538  3.9139 -1.3578
  982MOL0     H35478   5.434   3.479   6.968 -0.2871  0.5115 -1.8645
  982MOL0     H35479   5.273   3.533   6.796  1.0303  1.0501 -3.3258
  982MOL0     H35480   5.101   3.466   6.619  1.3548 -0.4342  2.0266
  982MOL0     H35481   5.223   3.598   6.594 -1.1271  1.3577 -2.2866
  982MOL0     H35482   5.102   3.433   6.361 -0.6612  0.0940 -1.8033
  982MOL0     H35483   5.066   3.607   6.407  0.1563 -1.3927 -0.1989
  982MOL0     H35484   5.333   3.483   6.310  2.4012  1.9790 -1.4882
  982MOL0     H35485   5.316   3.656   6.374  1.1998 -0.2859  0.6994
  982MOL0     H35486   5.123   3.681   6.198  0.5382  1.6895  0.6130
  982MOL0     H35487   5.188   3.542   6.130  0.9471 -0.9339  0.4270
  982MOL0     H35488   5.370   3.782   6.188 -1.6381  0.6865 -1.0365
  982MOL0     H35489   5.413   3.644   6.106  0.9004  0.5913  1.1962
  982MOL0     H35490   5.334   3.870   5.982  1.1223 -1.8031 -0.3725
  982MOL0     H35491   5.181   3.828   6.039  1.8751  1.4327  2.8104
  982MOL0     H35492   5.181   3.639   5.881  0.2350 -0.0332  3.0642
  982MOL0     H35493   5.356   3.650   5.861  1.4780  0.5799  4.4191
  982MOL0     H35494   5.211   3.741   5.665  1.5737 -0.9729 -0.4835
  982MOL0     H35495   5.344   3.847   5.714  0.2468 -1.0553  0.4725
  982MOL0     H35496   5.394   3.169   6.580 -2.8994 -0.1145  0.4249
  982MOL0     H35497   5.520   3.096   6.769 -2.4047 -1.1459 -1.9822
  982MOL0     H35498   5.717   3.038   7.068 -2.3840 -1.2801  2.1349
  982MOL0     H35499   5.893   2.933   7.187  1.4325  2.0672 -2.8283
  982MOL0     H35500   6.311   3.328   7.329  1.0097  0.5260  0.7917
  982MOL0     H35501   6.086   3.440   7.283 -0.7563  1.3673  0.2081
  982MOL0     H35502   5.837   3.750   7.255  1.4798  2.0281  1.2605
  982MOL0     H35503   5.620   3.781   7.147 -0.3915  3.9794 -0.2625
  982MOL0     H35504   5.330   3.772   7.102  1.2264  0.3299  0.0081
  982MOL0     H35505   5.383   3.640   7.201  0.9827  0.1331  3.3086
  982MOL0     H35506   5.124   3.686   7.188  1.0696 -1.5180  0.8226
  982MOL0     H35507   5.136   3.827   7.287  2.4271  0.2552  0.2678
  982MOL0     H35508   5.196   3.534   7.333  0.1763 -2.7100  6.1003
  982MOL0     H35509   5.247   3.641   7.456 -2.5690 -3.7134  2.6812
  982MOL0     H35510   4.979   3.586   7.359  0.4179  0.5253 -0.4533
  982MOL0     H35511   4.993   3.743   7.421 -2.4678 -0.9391 -2.0901
  982MOL0     H35512   4.924   3.474   7.759 -2.4970 -0.5776 -1.5910
  982MOL0     H35513   5.439   3.770   7.539 -0.6907 -0.4644 -1.1802
  982MOL0     H35514   5.702   3.622   7.703  0.4618 -0.0544  1.3147
  982MOL0     H35515   5.680   3.804   7.747 -1.2946  1.3870 -1.4697
  982MOL0     H35516   5.553   3.686   7.725  1.5729 -0.2478  2.7721
  983MOL0     O35517   4.417  10.538  10.846  0.2262  0.5799 -1.2283
  983MOL0     C35518   4.532  10.508  10.807 -0.2444 -0.4962  0.2465
  983MOL0     O35519   4.614  10.416  10.871 -0.3686  0.0606 -0.7495
  983MOL0     C35520   4.615  10.405  11.013  0.7766 -0.9999  0.2413
  983MOL0     C35521   4.523  10.468  11.105 -0.5195 -0.1793  0.6859
  983MOL0     C35522   4.542  10.464  11.246 -0.5983 -1.1935  0.3175
  983MOL0     C35523   4.626  10.361  11.305 -0.4556 -0.8231  0.0701
  983MOL0     O35524   4.625  10.330  11.437 -0.3770  0.1686  0.0439
  983MOL0     C35525   4.558  10.422  11.528  0.5534  0.3774 -0.4597
  983MOL0     C35526   4.557  10.362  11.677 -0.2896 -0.3305  0.3780
  983MOL0     C35527   4.510  10.475  11.765 -0.7800  0.3667 -0.3972
  983MOL0     C35528   4.536  10.423  11.903  0.1264 -0.7795 -0.4535
  983MOL0     C35529   4.469  10.528  11.994 -0.0268  0.4646 -0.6636
  983MOL0     C35530   4.475  10.505  12.144 -0.2445  0.4754 -0.6932
  983MOL0     C35531   4.361  10.560  12.222 -0.0229 -0.1198 -0.5431
  983MOL0     C35532   4.409  10.554  12.376  0.5067  1.0547 -0.5389
  983MOL0     N35533   4.489  10.658  12.436 -0.0235  0.0440  0.3916
  983MOL0     C35534   4.611  10.708  12.399  0.2059  0.7705 -0.1025
  983MOL0     C35535   4.648  10.776  12.515 -0.1622 -0.4453 -0.2381
  983MOL0     C35536   4.780  10.836  12.539  0.0630  0.0870  0.2418
  983MOL0     C35537   4.859  10.769  12.659 -0.0189 -0.0704  0.5052
  983MOL0     C35538   4.872  10.616  12.669  0.2306 -0.7131  0.2178
  983MOL0     C35539   4.948  10.556  12.792  2.0688  0.1248 -0.2333
  983MOL0     O35540   4.910  10.627  12.910  0.6529  0.0071 -0.1709
  983MOL0     C35541   4.968  10.582  13.032  0.0378 -0.5139  0.1784
  983MOL0     C35542   4.929  10.666  13.143  0.8848  0.6518  1.1807
  983MOL0     C35543   4.975  10.638  13.275  0.9855  0.2242 -0.6152
  983MOL0     C35544   4.923  10.732  13.382  0.1025 -0.4479  0.2615
  983MOL0     C35545   5.066  10.535  13.294 -0.4548  0.9642  1.4726
  983MOL0     C35546   5.143  10.507  13.414  0.1409 -0.3848  1.0012
  983MOL0     O35547   5.197  10.373  13.417 -0.0485 -0.8077 -0.7550
  983MOL0     C35548   5.226  10.310  13.542  0.2504  0.2066 -0.2679
  983MOL0     C35549   5.145  10.324  13.659  0.1106 -0.5909  0.1689
  983MOL0     C35550   5.185  10.261  13.780  0.2657  0.7024  0.6289
  983MOL0     C35551   5.293  10.169  13.781  0.0611  0.3218 -0.4926
  983MOL0     O35552   5.341  10.103  13.901  0.4119  0.0697  0.5567
  983MOL0     C35553   5.235  10.028  13.964  0.2347 -0.1660 -0.0757
  983MOL0     C35554   5.282   9.884  13.986 -0.2395  1.3477  0.7273
  983MOL0     C35555   5.402   9.876  14.083 -0.7039 -0.3507  0.4873
  983MOL0     C35556   5.489   9.753  14.059 -1.1416 -0.6731  0.4909
  983MOL0     C35557   5.411   9.618  14.078  0.0986  0.5124  0.0653
  983MOL0     C35558   5.467   9.498  13.980 -0.2689 -0.6026 -0.2636
  983MOL0     C35559   5.395   9.367  14.013  0.3694  0.3598 -0.7448
  983MOL0     C35560   5.456   9.259  13.932  0.2138 -0.3460  0.8755
  983MOL0    Cl35561   5.403   9.120  14.013 -0.3261 -0.4890  0.2204
  983MOL0     C35562   5.356  10.130  13.657  0.3411  0.2815 -1.2333
  983MOL0     C35563   5.325  10.206  13.541  0.2372 -0.9169 -0.2818
  983MOL0     O35564   5.162  10.591  13.494  0.1067 -0.1669  0.5279
  983MOL0     C35565   5.091  10.440  13.189 -0.8194 -0.6724 -1.4950
  983MOL0     C35566   5.041  10.465  13.056 -0.2728  0.7283 -0.4703
  983MOL0     N35567   4.540  10.778  12.599  0.1903  0.1440 -0.6400
  983MOL0     N35568   4.449  10.702  12.555 -1.4505  0.6401 -1.1320
  983MOL0     C35569   4.692  10.288  11.215  0.4255  0.0977 -0.3058
  983MOL0     C35570   4.690  10.303  11.076  0.7446  0.9559 -0.0913
  983MOL0     C35571   4.591  10.567  10.684  0.0063  0.1189  0.4223
  983MOL0     C35572   4.686  10.490  10.616 -0.0617  0.6632 -0.1661
  983MOL0     C35573   4.766  10.549  10.519  0.4414 -0.6852 -0.0443
  983MOL0     C35574   4.748  10.683  10.481 -0.2712 -0.3142 -0.0844
  983MOL0     O35575   4.824  10.755  10.395 -0.1279 -0.5632  1.3153
  983MOL0     C35576   4.940  10.704  10.317 -0.2189  0.7230  0.4184
  983MOL0     C35577   5.031  10.823  10.287  0.0231 -1.4851 -0.9283
  983MOL0     C35578   4.973  10.913  10.178 -0.7290 -0.4919 -0.6434
  983MOL0     C35579   5.040  11.055  10.167  0.1270 -0.8067 -0.3917
  983MOL0     C35580   4.969  11.160  10.101 -0.3563 -0.3675  0.4274
  983MOL0     C35581   4.894  11.240  10.054 -0.3696  0.1750 -0.1636
  983MOL0     C35582   4.656  10.753  10.554  0.8487 -0.2259  0.5353
  983MOL0     C35583   4.564  10.700  10.649 -0.0798 -0.1492 -0.6331
  983MOL0     C35584   4.479  10.793  10.723 -0.5275  0.3197 -0.7310
  983MOL0     H35585   4.449  10.542  11.076 -0.4809  0.4426  2.1113
  983MOL0     H35586   4.484  10.533  11.306  2.2619 -0.7509  2.8196
  983MOL0     H35587   4.458  10.448  11.492  0.8737  1.9576 -0.2518
  983MOL0     H35588   4.627  10.507  11.529  2.8253 -1.2980  2.3806
  983MOL0     H35589   4.493  10.274  11.681 -0.2550 -0.3226  1.2979
  983MOL0     H35590   4.657  10.327  11.705 -1.0230 -1.8905  1.1731
  983MOL0     H35591   4.561  10.569  11.739 -1.9961  0.7889 -1.3616
  983MOL0     H35592   4.405  10.488  11.736 -0.5773  0.6626 -1.0251
  983MOL0     H35593   4.509  10.320  11.927  0.2597 -0.9426 -0.9760
  983MOL0     H35594   4.644  10.434  11.919 -0.4495  3.2490  1.8776
  983MOL0     H35595   4.362  10.523  11.975  0.2167 -0.2408 -1.9753
  983MOL0     H35596   4.510  10.629  11.987  1.5283 -0.2131 -2.1322
  983MOL0     H35597   4.453  10.399  12.158 -0.4081  0.3073 -2.1030
  983MOL0     H35598   4.573  10.530  12.186 -0.5194  1.8768 -0.8501
  983MOL0     H35599   4.268  10.506  12.202  0.1091 -0.7695  0.5273
  983MOL0     H35600   4.329  10.659  12.188 -2.7839 -1.1393 -1.2011
  983MOL0     H35601   4.313  10.546  12.426  1.3699  0.6391  1.1177
  983MOL0     H35602   4.451  10.454  12.391 -2.8935 -0.6435 -1.2483
  983MOL0     H35603   4.664  10.690  12.307  2.7858 -0.9224  1.6022
  983MOL0     H35604   4.766  10.944  12.549  0.7492  0.2146 -0.1501
  983MOL0     H35605   4.838  10.817  12.449  1.5393 -0.1948  1.2212
  983MOL0     H35606   4.957  10.817  12.659 -1.0522  2.2311 -0.6979
  983MOL0     H35607   4.809  10.800  12.752 -2.4787 -3.1540  0.3890
  983MOL0     H35608   4.768  10.580  12.676  0.0544 -0.2626 -0.0230
  983MOL0     H35609   4.915  10.565  12.582  1.1656  0.2991  0.0739
  983MOL0     H35610   4.921  10.450  12.800  0.0061  0.7285  1.7921
  983MOL0     H35611   5.053  10.578  12.771  1.3967  1.8113 -2.0580
  983MOL0     H35612   4.865  10.753  13.129  0.2836 -0.2152 -2.7110
  983MOL0     H35613   4.957  10.832  13.357  2.4334 -1.4383 -0.8220
  983MOL0     H35614   4.955  10.699  13.482  0.6887 -1.0718 -0.1283
  983MOL0     H35615   4.814  10.745  13.390  0.0727 -1.5385  2.5593
  983MOL0     H35616   5.076  10.408  13.647  0.0253 -0.4915  1.2750
  983MOL0     H35617   5.142  10.285  13.877  3.1145  0.3515  2.1086
  983MOL0     H35618   5.213  10.064  14.065  2.0690 -1.0291  0.6752
  983MOL0     H35619   5.141  10.033  13.909 -0.2096  0.5393  0.7258
  983MOL0     H35620   5.198   9.821  14.017 -0.5018  2.1460  1.6874
  983MOL0     H35621   5.313   9.836  13.893  2.0261 -0.8185  2.4948
  983MOL0     H35622   5.367   9.872  14.186 -1.9450 -1.9197  0.0423
  983MOL0     H35623   5.462   9.967  14.077  2.1308 -2.1985 -1.8020
  983MOL0     H35624   5.589   9.763  14.102  0.4704  2.3414 -3.3108
  983MOL0     H35625   5.521   9.764  13.955 -0.2234 -1.3414  0.6834
  983MOL0     H35626   5.412   9.591  14.184  2.2981 -0.8760 -0.2296
  983MOL0     H35627   5.307   9.620  14.046 -0.0876  0.7107  0.6712
  983MOL0     H35628   5.576   9.489  13.979 -0.3480 -1.8103 -0.3254
  983MOL0     H35629   5.427   9.513  13.880 -0.6272 -3.3105 -0.6212
  983MOL0     H35630   5.291   9.363  13.981 -0.9185  2.4549  2.5759
  983MOL0     H35631   5.404   9.348  14.121 -0.0293 -0.8638 -0.9162
  983MOL0     H35632   5.565   9.273  13.928  0.1235  0.8421  1.8175
  983MOL0     H35633   5.424   9.257  13.828 -1.7525 -1.7106  1.4568
  983MOL0     H35634   5.415  10.039  13.658  0.9424  0.6637  0.3053
  983MOL0     H35635   5.361  10.180  13.442 -1.2761 -3.7151 -0.2099
  983MOL0     H35636   5.162  10.358  13.192  1.0034  0.7043 -3.7267
  983MOL0     H35637   5.070  10.386  12.987 -1.5351 -1.1389  1.0207
  983MOL0     H35638   4.755  10.210  11.256 -0.8741 -2.1111 -2.2663
  983MOL0     H35639   4.754  10.245  11.010  0.9886 -2.4496  2.8244
  983MOL0     H35640   4.725  10.395  10.651 -0.6045 -0.2669 -1.9418
  983MOL0     H35641   4.846  10.495  10.471 -0.3906  0.3564 -2.7901
  983MOL0     H35642   5.003  10.631  10.369 -0.5054 -0.3115 -0.6393
  983MOL0     H35643   4.907  10.647  10.229 -0.9161  0.9888  0.4993
  983MOL0     H35644   5.124  10.790  10.240  0.2747  0.2104 -1.7115
  983MOL0     H35645   5.049  10.883  10.377 -0.3591 -1.3402 -0.9477
  983MOL0     H35646   4.998  10.856  10.088  1.7782  0.2148 -0.4508
  983MOL0     H35647   4.865  10.909  10.193 -0.5121 -1.6333  0.8163
  983MOL0     H35648   5.145  11.050  10.137 -0.1654 -0.3169 -1.5914
  983MOL0     H35649   5.051  11.086  10.271 -0.2893 -2.7530  0.2587
  983MOL0     H35650   4.822  11.310  10.017  0.7510  1.0534 -0.7824
  983MOL0     H35651   4.671  10.860  10.557  1.5274 -0.1556 -2.2665
  983MOL0     H35652   4.451  10.869  10.649  0.6526  0.1930 -1.3220
  983MOL0     H35653   4.383  10.746  10.750  0.8076 -1.3204  1.5095
  983MOL0     H35654   4.520  10.834  10.815 -1.5499  0.6602 -0.4092
  984MOL0     O35655   0.163   1.601  10.610  0.3145  0.9468 -0.9530
  984MOL0     C35656   0.142   1.705  10.542  0.2648 -0.6627  0.5842
  984MOL0     O35657   0.043   1.795  10.575 -0.3664 -0.1911  0.8356
  984MOL0     C35658  -0.072   1.766  10.644  0.8372  0.5546 -0.0705
  984MOL0     C35659  -0.135   1.647  10.646  0.1304  0.0803 -0.4181
  984MOL0     C35660  -0.249   1.633  10.729 -0.5160  0.3917  1.9013
  984MOL0     C35661  -0.311   1.735  10.799  0.6099  0.5759  1.0692
  984MOL0     O35662  -0.432   1.701  10.855  0.2243 -0.3942  0.6654
  984MOL0     C35663  -0.471   1.768  10.970  0.0351 -0.3798  0.1091
  984MOL0     C35664  -0.598   1.712  11.032  0.0216 -0.1683 -0.2747
  984MOL0     C35665  -0.576   1.561  11.062  0.0938 -0.6848  0.0590
  984MOL0     C35666  -0.698   1.508  11.130 -1.0254  1.7688  0.5980
  984MOL0     C35667  -0.656   1.367  11.192  0.2654  1.2939  0.8026
  984MOL0     C35668  -0.767   1.268  11.225  0.8294  0.6200  0.6553
  984MOL0     C35669  -0.705   1.130  11.251 -0.2098 -0.8391 -0.0191
  984MOL0     C35670  -0.828   1.043  11.299  0.0708 -0.1662  0.5542
  984MOL0     N35671  -0.938   1.024  11.198  0.8944 -0.8952  0.8061
  984MOL0     C35672  -1.071   1.016  11.230 -0.4389  0.5280  1.0313
  984MOL0     C35673  -1.132   0.990  11.104  0.0573  0.9993 -1.3479
  984MOL0     C35674  -1.271   0.955  11.079  1.2446  0.2627 -0.5237
  984MOL0     C35675  -1.315   0.823  11.151 -0.5816  0.0631  0.5381
  984MOL0     C35676  -1.394   0.858  11.282 -0.1825 -0.1700 -0.3289
  984MOL0     C35677  -1.501   0.753  11.327 -0.0042  0.8129  0.8138
  984MOL0     O35678  -1.588   0.739  11.210 -0.6823 -0.0987 -0.3667
  984MOL0     C35679  -1.690   0.645  11.201  0.1932 -0.3331  0.0114
  984MOL0     C35680  -1.711   0.547  11.297  0.0646 -0.0816 -0.1678
  984MOL0     C35681  -1.800   0.437  11.274 -0.0789 -0.3398 -0.6461
  984MOL0     C35682  -1.809   0.337  11.388  0.3973  0.4583  0.5177
  984MOL0     C35683  -1.882   0.443  11.160 -0.7163 -0.1395 -1.4612
  984MOL0     C35684  -1.999   0.355  11.141 -0.1016 -0.2835 -0.1476
  984MOL0     O35685  -2.048   0.349  11.009 -0.8888 -0.7006 -0.4146
  984MOL0     C35686  -2.133   0.251  10.966 -0.3326 -0.2099  0.4566
  984MOL0     C35687  -2.254   0.226  11.031 -0.9939  0.5366  0.3223
  984MOL0     C35688  -2.346   0.125  10.988 -0.2874  0.6735 -0.2410
  984MOL0     C35689  -2.322   0.062  10.861 -0.9025 -1.0072  0.4360
  984MOL0     O35690  -2.411  -0.023  10.800  0.4476 -0.0485  0.4746
  984MOL0     C35691  -2.540  -0.031  10.860 -0.6568 -0.1711 -0.9950
  984MOL0     C35692  -2.631  -0.129  10.787  0.5101  0.4949  0.2334
  984MOL0     C35693  -2.553  -0.265  10.753  0.4081 -0.0914 -0.6472
  984MOL0     C35694  -2.644  -0.382  10.730 -0.3341  1.1159  0.0953
  984MOL0     C35695  -2.701  -0.447  10.863  0.3292  0.8939 -0.7481
  984MOL0     C35696  -2.757  -0.586  10.838  0.1660  0.0111 -0.1291
  984MOL0     C35697  -2.860  -0.624  10.932 -0.4958  0.8462  0.6623
  984MOL0     C35698  -2.922  -0.758  10.897 -0.3984 -0.4131  0.4618
  984MOL0    Cl35699  -3.028  -0.827  11.021  0.3601 -0.1741 -0.0459
  984MOL0     C35700  -2.204   0.106  10.788  0.1203  0.2520 -0.4378
  984MOL0     C35701  -2.108   0.189  10.841  0.2435 -0.8456  0.4185
  984MOL0     O35702  -2.060   0.297  11.227  0.7982  0.0396 -0.6189
  984MOL0     C35703  -1.871   0.558  11.072 -0.5395  0.5708 -0.4812
  984MOL0     C35704  -1.769   0.648  11.089 -0.4704  0.1844 -0.3210
  984MOL0     N35705  -1.033   0.972  11.011  1.2370  0.0099 -0.9173
  984MOL0     N35706  -0.922   0.999  11.061  0.7178  0.3947  1.0871
  984MOL0     C35707  -0.234   1.858  10.802 -0.1001  0.9406  0.8053
  984MOL0     C35708  -0.127   1.871  10.714  0.6385 -0.0821  0.0155
  984MOL0     C35709   0.228   1.733  10.426  0.0098  0.0327  0.3317
  984MOL0     C35710   0.242   1.865  10.380  0.5444 -0.2541  0.1390
  984MOL0     C35711   0.320   1.906  10.279 -0.7138  0.9079 -0.0245
  984MOL0     C35712   0.406   1.808  10.222 -1.2399 -0.0137  0.3290
  984MOL0     O35713   0.502   1.838  10.121 -0.2828 -0.2366  0.7817
  984MOL0     C35714   0.536   1.975  10.087 -0.1110 -0.4213 -0.7856
  984MOL0     C35715   0.429   2.057  10.011  0.1598 -0.0223  0.0606
  984MOL0     C35716   0.464   2.108   9.875 -0.9859  1.1864 -0.2227
  984MOL0     C35717   0.490   1.986   9.786  0.4384 -0.0026 -0.6071
  984MOL0     C35718   0.557   2.030   9.671 -0.1494 -1.3130 -0.0293
  984MOL0     C35719   0.612   2.056   9.565 -0.0222 -0.6756  0.3470
  984MOL0     C35720   0.385   1.667  10.250  0.9247 -0.7866 -0.7416
  984MOL0     C35721   0.299   1.631  10.356  0.5984 -0.3792 -0.0811
  984MOL0     C35722   0.303   1.478  10.389  1.1112  0.6236  0.2208
  984MOL0     H35723  -0.095   1.557  10.601 -1.6488 -1.3739  0.7650
  984MOL0     H35724  -0.307   1.541  10.722  0.2380 -0.1418  2.5276
  984MOL0     H35725  -0.476   1.877  10.968 -0.4996 -0.3889  0.5323
  984MOL0     H35726  -0.399   1.754  11.051 -0.8076  2.0595  1.4207
  984MOL0     H35727  -0.636   1.753  11.127 -1.9579  0.7644 -1.4114
  984MOL0     H35728  -0.675   1.732  10.958  0.5764 -1.3004 -1.1762
  984MOL0     H35729  -0.550   1.510  10.969 -1.3726 -0.3886 -0.5555
  984MOL0     H35730  -0.492   1.549  11.130  0.6341 -1.1872 -0.6845
  984MOL0     H35731  -0.728   1.573  11.213  2.3778  1.4750  2.2892
  984MOL0     H35732  -0.780   1.508  11.059 -0.4619 -2.8792 -0.3561
  984MOL0     H35733  -0.606   1.379  11.289  0.3972  1.3054  0.7317
  984MOL0     H35734  -0.592   1.315  11.121 -2.4477 -1.6153  0.2720
  984MOL0     H35735  -0.825   1.302  11.311 -0.0799  1.6892 -0.3522
  984MOL0     H35736  -0.836   1.250  11.142  0.8977 -3.1123  1.2422
  984MOL0     H35737  -0.639   1.152  11.335  0.0796  1.7580 -0.8384
  984MOL0     H35738  -0.646   1.079  11.174 -0.8185 -0.5842 -0.6616
  984MOL0     H35739  -0.795   0.941  11.321  2.7536  0.3534 -0.6781
  984MOL0     H35740  -0.874   1.088  11.388 -1.7810 -0.5662 -0.1549
  984MOL0     H35741  -1.117   1.017  11.328 -1.9253  3.6992  0.4149
  984MOL0     H35742  -1.289   0.955  10.971  0.4628  1.0526 -0.4020
  984MOL0     H35743  -1.337   1.037  11.110 -3.6987 -3.0863 -1.1126
  984MOL0     H35744  -1.373   0.763  11.081 -0.8589  0.0890  0.7407
  984MOL0     H35745  -1.224   0.766  11.167  0.6904  0.2026 -4.5920
  984MOL0     H35746  -1.315   0.871  11.357 -1.7787 -1.9289  1.7951
  984MOL0     H35747  -1.451   0.947  11.254 -2.5743 -1.3801  0.4347
  984MOL0     H35748  -1.451   0.659  11.352  1.2676  1.5589  1.1561
  984MOL0     H35749  -1.561   0.791  11.410  1.8622  0.1524  2.5394
  984MOL0     H35750  -1.661   0.554  11.393 -1.0811  1.2924  0.3720
  984MOL0     H35751  -1.720   0.323  11.450 -1.6618 -2.2583  3.1916
  984MOL0     H35752  -1.835   0.238  11.350 -3.7816  3.0065 -4.5847
  984MOL0     H35753  -1.895   0.355  11.454  2.5061  0.2907  3.5340
  984MOL0     H35754  -2.280   0.289  11.116 -1.2901 -0.5532  1.0629
  984MOL0     H35755  -2.426   0.104  11.058 -0.3511 -0.4203 -0.6111
  984MOL0     H35756  -2.545  -0.050  10.967 -0.5656  0.5819 -0.8509
  984MOL0     H35757  -2.571   0.073  10.845 -4.6274 -0.5041  2.9311
  984MOL0     H35758  -2.713  -0.141  10.859  1.4269  1.4564  1.4692
  984MOL0     H35759  -2.668  -0.084  10.694 -0.9915 -4.6278 -2.0049
  984MOL0     H35760  -2.482  -0.292  10.832 -1.3126  0.9710  1.3791
  984MOL0     H35761  -2.496  -0.234  10.665 -0.7190  3.6222 -0.2357
  984MOL0     H35762  -2.587  -0.462  10.682  1.9766  2.0522  1.1443
  984MOL0     H35763  -2.726  -0.349  10.666 -1.3818  0.8742  1.2814
  984MOL0     H35764  -2.629  -0.452  10.945 -0.9380  0.3348  0.3641
  984MOL0     H35765  -2.776  -0.373  10.895 -0.8145 -0.1070 -1.0555
  984MOL0     H35766  -2.677  -0.659  10.825 -1.2339 -1.9124  1.3530
  984MOL0     H35767  -2.793  -0.585  10.735  5.7595  2.6748 -2.4811
  984MOL0     H35768  -2.946  -0.556  10.931 -0.0728  1.4971 -2.5317
  984MOL0     H35769  -2.823  -0.655  11.030  0.3399  3.2918  1.1908
  984MOL0     H35770  -2.842  -0.831  10.881  0.8164  1.5526 -4.5060
  984MOL0     H35771  -2.974  -0.752  10.801  0.4508  2.7204  0.0842
  984MOL0     H35772  -2.190   0.060  10.691  0.1190 -2.5210  0.7464
  984MOL0     H35773  -2.009   0.189  10.796 -0.4057 -1.9933 -1.0634
  984MOL0     H35774  -1.951   0.578  11.002 -3.1064 -0.9675  1.7813
  984MOL0     H35775  -1.753   0.733  11.023  2.4987  1.9332  2.3579
  984MOL0     H35776  -0.251   1.947  10.862 -0.1880  1.1479  0.4766
  984MOL0     H35777  -0.070   1.963  10.710  0.2582  0.1216 -1.7166
  984MOL0     H35778   0.191   1.941  10.438  0.3102 -1.2355  1.2613
  984MOL0     H35779   0.329   2.011  10.253  4.0473  1.7076  3.5083
  984MOL0     H35780   0.574   2.035  10.170 -0.6836  2.8983 -2.7499
  984MOL0     H35781   0.629   1.973  10.029  0.2059 -0.4247 -0.2837
  984MOL0     H35782   0.403   2.142  10.074 -0.4319 -0.3130  0.2163
  984MOL0     H35783   0.344   1.988  10.001  0.4668 -0.4691  0.4704
  984MOL0     H35784   0.375   2.165   9.844 -2.2240  0.4832  1.8134
  984MOL0     H35785   0.542   2.185   9.880 -0.5655  0.7493 -0.0184
  984MOL0     H35786   0.398   1.943   9.745 -1.0674  1.4836  1.0727
  984MOL0     H35787   0.540   1.901   9.834 -0.0470 -0.0531 -0.1886
  984MOL0     H35788   0.639   2.075   9.463  0.5754  2.0172  0.9260
  984MOL0     H35789   0.427   1.587  10.191  1.8730 -1.7659  1.1630
  984MOL0     H35790   0.343   1.418  10.306 -3.9111 -2.3692 -0.4604
  984MOL0     H35791   0.376   1.465  10.469  0.7299  1.1312  0.6599
  984MOL0     H35792   0.206   1.439  10.422  0.9838  0.2126 -0.6096
  985MOL0     O35793   0.867   5.622   6.752 -0.8670 -0.1012  0.1282
  985MOL0     C35794   0.854   5.577   6.643  0.5529  0.9917 -0.4738
  985MOL0     O35795   0.874   5.647   6.521  0.2939  0.0761 -0.0792
  985MOL0     C35796   0.912   5.779   6.527 -0.5470  0.4270  0.4297
  985MOL0     C35797   0.817   5.879   6.503 -0.5234  0.2055  0.1997
  985MOL0     C35798   0.854   6.021   6.519  0.7553 -0.1967 -0.3594
  985MOL0     C35799   0.982   6.048   6.562 -0.6083  0.4121 -0.0002
  985MOL0     O35800   1.036   6.170   6.577  0.1553 -0.7429  0.1379
  985MOL0     C35801   0.998   6.272   6.473 -0.3882 -0.8076  0.2643
  985MOL0     C35802   1.110   6.371   6.439 -0.4775 -0.2984 -0.4220
  985MOL0     C35803   1.244   6.293   6.371 -0.4432  0.3216 -0.2478
  985MOL0     C35804   1.326   6.231   6.482 -1.4639  0.9954  0.0316
  985MOL0     C35805   1.454   6.193   6.411  1.1475  0.6351  1.0364
  985MOL0     C35806   1.548   6.110   6.503 -0.8649  0.3837  0.5437
  985MOL0     C35807   1.509   5.975   6.546 -0.2989 -0.2199  0.6309
  985MOL0     C35808   1.520   5.887   6.419 -0.4770 -0.7254  0.7669
  985MOL0     N35809   1.482   5.749   6.438 -0.4232 -0.4887  0.5257
  985MOL0     C35810   1.568   5.646   6.430 -0.0801 -0.3468 -1.0314
  985MOL0     C35811   1.491   5.535   6.471 -0.3130 -0.8722  0.9076
  985MOL0     C35812   1.537   5.397   6.466 -0.5979 -0.6552 -0.1119
  985MOL0     C35813   1.461   5.305   6.567 -0.2210 -1.0737 -0.3156
  985MOL0     C35814   1.546   5.170   6.553  1.0895 -0.2235  0.6711
  985MOL0     C35815   1.481   5.055   6.638 -0.9507 -0.1551 -0.4663
  985MOL0     O35816   1.356   5.046   6.583  0.6842  0.1414 -0.2620
  985MOL0     C35817   1.260   4.989   6.668 -0.6518 -1.4284  0.3144
  985MOL0     C35818   1.218   4.860   6.645 -0.4801  0.3943  0.5510
  985MOL0     C35819   1.127   4.787   6.731 -0.6171 -0.3754 -0.1726
  985MOL0     C35820   1.076   4.647   6.683 -0.3033 -0.7603  0.6817
  985MOL0     C35821   1.102   4.856   6.856 -0.5852 -1.2965 -0.2260
  985MOL0     C35822   1.016   4.787   6.972  0.0425 -0.3585  0.8475
  985MOL0     O35823   1.032   4.830   7.101 -0.1190 -0.5703 -0.1130
  985MOL0     C35824   0.928   4.780   7.168  0.8005  0.4159  0.3601
  985MOL0     C35825   0.800   4.826   7.147 -0.0895  0.4617  0.4452
  985MOL0     C35826   0.695   4.776   7.220  0.3651 -0.1319 -0.3124
  985MOL0     C35827   0.713   4.693   7.334  0.3444 -0.1903 -0.1729
  985MOL0     O35828   0.609   4.665   7.419 -0.1481 -1.0520 -0.2979
  985MOL0     C35829   0.637   4.568   7.509  0.4204  0.4297 -0.1685
  985MOL0     C35830   0.531   4.548   7.615 -0.1476  0.6639 -1.2645
  985MOL0     C35831   0.387   4.505   7.564 -0.1023 -0.6820 -1.3393
  985MOL0     C35832   0.308   4.609   7.484 -0.1505  0.1398 -0.2221
  985MOL0     C35833   0.163   4.562   7.480  0.5955  0.4366 -0.3320
  985MOL0     C35834   0.100   4.538   7.612  0.0547 -0.6915 -0.1652
  985MOL0     C35835  -0.051   4.533   7.587 -0.0398  0.9948  1.1855
  985MOL0     C35836  -0.123   4.540   7.725 -1.0672 -0.6280  0.7964
  985MOL0    Cl35837  -0.188   4.700   7.773  0.5256  0.1677  0.0771
  985MOL0     C35838   0.845   4.643   7.348 -0.5006 -0.0696  0.0128
  985MOL0     C35839   0.946   4.684   7.265 -0.3244 -0.3809 -0.2978
  985MOL0     O35840   0.941   4.697   6.934 -0.7088  0.5060 -0.1213
  985MOL0     C35841   1.141   4.992   6.881 -0.8113  0.5506  1.4500
  985MOL0     C35842   1.228   5.059   6.785 -0.0242  0.2285 -0.3978
  985MOL0     N35843   1.362   5.581   6.460 -0.3827  0.1422  0.0909
  985MOL0     N35844   1.354   5.707   6.442 -0.1565 -0.0391 -0.8717
  985MOL0     C35845   1.066   5.947   6.586 -0.0822  0.3259  0.5829
  985MOL0     C35846   1.036   5.822   6.568  0.7496  0.4201  0.5698
  985MOL0     C35847   0.793   5.443   6.644 -0.1783 -0.6957 -0.1114
  985MOL0     C35848   0.660   5.426   6.666  0.5588 -0.0338 -0.3149
  985MOL0     C35849   0.605   5.296   6.657  0.2067  0.6500 -0.4586
  985MOL0     C35850   0.688   5.187   6.624  0.7151 -0.4373 -0.3175
  985MOL0     O35851   0.624   5.071   6.630  0.3583  0.7437 -0.3897
  985MOL0     C35852   0.687   4.956   6.581  0.8103 -0.3968 -0.1013
  985MOL0     C35853   0.589   4.848   6.610  0.3005  0.8107  0.3363
  985MOL0     C35854   0.593   4.796   6.753  0.2414 -0.3977  0.3133
  985MOL0     C35855   0.499   4.877   6.834  0.4127  0.9216 -0.3706
  985MOL0     C35856   0.422   4.803   6.934 -0.8724  0.7003  0.2872
  985MOL0     C35857   0.365   4.736   7.022  0.2798 -0.6450 -0.0144
  985MOL0     C35858   0.829   5.210   6.594  1.1697  0.3881 -0.3906
  985MOL0     C35859   0.883   5.341   6.608 -0.5273  0.3481 -0.1776
  985MOL0     C35860   1.031   5.362   6.595 -0.2420 -0.4390 -0.8863
  985MOL0     H35861   0.723   5.846   6.460  0.2762  3.3958 -5.0256
  985MOL0     H35862   0.774   6.090   6.496  0.1273 -0.3492  1.2843
  985MOL0     H35863   0.921   6.334   6.518  0.0629  1.7517 -2.2264
  985MOL0     H35864   0.969   6.229   6.377 -0.3358  0.1637 -0.1924
  985MOL0     H35865   1.092   6.461   6.380  6.0034  1.5344 -0.4023
  985MOL0     H35866   1.137   6.421   6.532 -3.2704  1.8015 -0.6224
  985MOL0     H35867   1.206   6.209   6.312 -1.4181 -0.5629  1.5698
  985MOL0     H35868   1.306   6.368   6.320 -0.3704  3.1735  3.5494
  985MOL0     H35869   1.336   6.306   6.562  0.8607  0.7540  0.0278
  985MOL0     H35870   1.268   6.147   6.521 -0.0929  0.6650  1.4403
  985MOL0     H35871   1.490   6.290   6.374 -0.4755  1.4197  1.4262
  985MOL0     H35872   1.435   6.140   6.318  3.9472 -1.7071  1.6623
  985MOL0     H35873   1.641   6.107   6.446 -1.1309  1.0590  0.0637
  985MOL0     H35874   1.566   6.170   6.593  1.2932  1.1198 -0.3327
  985MOL0     H35875   1.406   5.976   6.581 -0.1937 -0.1112  0.9384
  985MOL0     H35876   1.577   5.947   6.627 -2.0657 -0.6445  2.0070
  985MOL0     H35877   1.450   5.939   6.353  1.8675  2.9241  0.8278
  985MOL0     H35878   1.613   5.891   6.362 -3.2988  5.5307 -4.7695
  985MOL0     H35879   1.675   5.639   6.415  0.1244 -1.4684  0.6442
  985MOL0     H35880   1.644   5.394   6.489 -0.3606  0.0766 -1.0290
  985MOL0     H35881   1.524   5.360   6.363 -1.6299 -0.0901 -0.2018
  985MOL0     H35882   1.448   5.339   6.671 -1.8783 -0.0974 -0.7972
  985MOL0     H35883   1.359   5.303   6.529  0.0763  1.1843 -1.4180
  985MOL0     H35884   1.560   5.136   6.450 -2.3281 -1.0246  0.3597
  985MOL0     H35885   1.649   5.188   6.586  0.9503  3.4584 -0.4170
  985MOL0     H35886   1.538   4.962   6.633 -0.2432  0.1237  1.5123
  985MOL0     H35887   1.469   5.079   6.745 -0.6585 -1.9755 -0.0011
  985MOL0     H35888   1.257   4.817   6.553 -1.5472 -0.2263  0.3725
  985MOL0     H35889   1.118   4.627   6.584 -3.7041 -0.8467 -0.8758
  985MOL0     H35890   0.967   4.643   6.679 -0.2689 -0.7069 -1.3407
  985MOL0     H35891   1.112   4.563   6.742  2.5435  0.2352  0.5668
  985MOL0     H35892   0.775   4.894   7.067 -0.8716  2.3065  2.1546
  985MOL0     H35893   0.594   4.801   7.188 -1.5300 -1.4499  3.9471
  985MOL0     H35894   0.642   4.471   7.459 -1.1029 -0.6990  1.7676
  985MOL0     H35895   0.730   4.580   7.565  0.5617  1.0099 -0.5151
  985MOL0     H35896   0.564   4.473   7.688 -2.1568  0.9294 -0.0012
  985MOL0     H35897   0.517   4.642   7.668 -2.1056 -0.3293  0.1367
  985MOL0     H35898   0.330   4.489   7.656  2.0471  0.7282  0.3321
  985MOL0     H35899   0.396   4.413   7.506 -3.1854 -0.8950 -1.6751
  985MOL0     H35900   0.348   4.612   7.382 -1.1624 -0.6958 -0.6522
  985MOL0     H35901   0.316   4.711   7.524 -1.5175 -1.0096  3.4139
  985MOL0     H35902   0.101   4.640   7.435 -1.8526 -0.1819  1.7288
  985MOL0     H35903   0.146   4.469   7.425  2.0171 -1.2903  1.9816
  985MOL0     H35904   0.126   4.618   7.682 -1.1633 -0.3263 -0.1077
  985MOL0     H35905   0.130   4.442   7.655  1.0902 -0.0418  0.6003
  985MOL0     H35906  -0.083   4.434   7.553  0.0961 -0.4310  4.7669
  985MOL0     H35907  -0.087   4.623   7.536  1.8927  1.1602 -0.0147
  985MOL0     H35908  -0.058   4.504   7.805 -1.5751 -1.9155  0.6424
  985MOL0     H35909  -0.201   4.463   7.722  0.9628 -2.8005  1.0293
  985MOL0     H35910   0.870   4.574   7.428  2.6815 -0.8718 -1.5297
  985MOL0     H35911   1.048   4.653   7.288  1.5049  3.4608 -2.3492
  985MOL0     H35912   1.114   5.045   6.971 -1.7809  2.0482  0.3253
  985MOL0     H35913   1.250   5.164   6.801 -0.5573  0.4718 -1.1878
  985MOL0     H35914   1.167   5.967   6.619  0.8522 -0.3596 -1.6895
  985MOL0     H35915   1.093   5.731   6.581 -2.0051 -1.5032  0.0698
  985MOL0     H35916   0.602   5.508   6.706  2.8121  2.2824 -1.4523
  985MOL0     H35917   0.501   5.284   6.686 -0.2497  1.2776 -1.7492
  985MOL0     H35918   0.721   4.963   6.477  0.0787  0.6186 -0.2840
  985MOL0     H35919   0.772   4.945   6.650  2.6405  1.2463 -1.9546
  985MOL0     H35920   0.618   4.763   6.548  1.4710  1.1230  0.4369
  985MOL0     H35921   0.486   4.874   6.583  0.1065  0.2556  0.5205
  985MOL0     H35922   0.546   4.697   6.750 -2.1288  0.6162  1.0920
  985MOL0     H35923   0.690   4.797   6.803 -0.4110  1.1375  1.6344
  985MOL0     H35924   0.430   4.940   6.778 -3.6961 -0.2608  2.8547
  985MOL0     H35925   0.559   4.957   6.879  1.5385 -0.2587  0.2945
  985MOL0     H35926   0.307   4.696   7.102 -1.3731  3.6027  1.1604
  985MOL0     H35927   0.896   5.128   6.571  0.2824 -0.6564  0.6262
  985MOL0     H35928   1.076   5.456   6.630 -0.1230  0.1368 -2.4969
  985MOL0     H35929   1.078   5.282   6.652 -1.8367 -2.2552 -2.0132
  985MOL0     H35930   1.045   5.354   6.487 -0.0508 -2.0936 -0.7672
  986MOL0     O35931   7.768   4.534   0.211 -0.0977 -0.0324 -0.3324
  986MOL0     C35932   7.831   4.436   0.172 -0.4463 -0.0068  0.1567
  986MOL0     O35933   7.815   4.372   0.053  0.5434  0.0141  0.1034
  986MOL0     C35934   7.715   4.434  -0.031 -0.6334 -0.0238 -0.2658
  986MOL0     C35935   7.717   4.548  -0.098 -0.1470  0.5273 -0.8969
  986MOL0     C35936   7.612   4.600  -0.173 -1.0215 -0.1353  0.0999
  986MOL0     C35937   7.495   4.533  -0.190  0.9548  0.2566  0.8059
  986MOL0     O35938   7.388   4.573  -0.252 -0.4224 -0.3192 -0.1992
  986MOL0     C35939   7.371   4.709  -0.256  0.4430 -0.6535  0.7756
  986MOL0     C35940   7.231   4.742  -0.295 -0.1723 -0.1100  0.3164
  986MOL0     C35941   7.214   4.868  -0.391 -0.1545  0.3469 -0.1968
  986MOL0     C35942   7.224   4.993  -0.311 -0.3614 -0.7199  0.5210
  986MOL0     C35943   7.236   5.120  -0.386  0.1877 -0.9895  0.8708
  986MOL0     C35944   7.175   5.245  -0.316 -1.2581  0.2418 -0.6245
  986MOL0     C35945   7.202   5.234  -0.163 -0.5046  0.5567 -0.6200
  986MOL0     C35946   7.146   5.355  -0.090 -0.1197  0.3311 -0.6120
  986MOL0     N35947   7.007   5.357  -0.048 -0.0284 -0.2172  0.4969
  986MOL0     C35948   6.915   5.388  -0.151 -0.4791  0.6500  0.1577
  986MOL0     C35949   6.817   5.440  -0.076 -0.0603 -0.3348 -0.0751
  986MOL0     C35950   6.690   5.512  -0.110  0.9630 -0.2634  0.3788
  986MOL0     C35951   6.651   5.627  -0.016  0.9187  0.3731 -0.0092
  986MOL0     C35952   6.536   5.719  -0.063 -1.0124  0.4562  0.4991
  986MOL0     C35953   6.426   5.645  -0.138 -0.4964 -0.1697 -0.6929
  986MOL0     O35954   6.334   5.740  -0.169 -0.7927 -0.1660 -0.8197
  986MOL0     C35955   6.247   5.693  -0.261  0.3566  0.0203 -0.0076
  986MOL0     C35956   6.184   5.795  -0.320  0.4116 -0.1818 -0.4044
  986MOL0     C35957   6.078   5.772  -0.417 -0.8426 -0.3414 -0.1265
  986MOL0     C35958   6.029   5.896  -0.486  0.1837  0.0894  0.6201
  986MOL0     C35959   6.038   5.643  -0.454 -0.8707 -0.1487 -1.3509
  986MOL0     C35960   5.951   5.608  -0.559  0.3484 -0.3297  0.2702
  986MOL0     O35961   5.971   5.480  -0.609 -0.4073 -0.5888  0.3576
  986MOL0     C35962   5.895   5.438  -0.717  0.0388  0.1069  0.1438
  986MOL0     C35963   5.929   5.491  -0.838  0.4703  0.0615  0.3418
  986MOL0     C35964   5.860   5.468  -0.955  0.4657  0.6844 -1.7346
  986MOL0     C35965   5.760   5.369  -0.958 -0.3126 -0.1270 -0.3156
  986MOL0     O35966   5.710   5.322  -1.078 -0.3902 -0.9119  0.5891
  986MOL0     C35967   5.634   5.199  -1.091 -0.5177 -0.0999 -0.1086
  986MOL0     C35968   5.654   5.150  -1.236 -0.7731  0.4484  0.2282
  986MOL0     C35969   5.595   5.012  -1.266 -1.0492  0.0666  0.4888
  986MOL0     C35970   5.459   5.001  -1.198  0.1059  0.3773 -0.3979
  986MOL0     C35971   5.378   4.886  -1.259 -0.4105 -0.3269  0.3440
  986MOL0     C35972   5.262   4.852  -1.159 -0.6706 -0.1882  0.5254
  986MOL0     C35973   5.176   4.748  -1.224  0.2940 -1.0545 -0.6222
  986MOL0     C35974   5.250   4.609  -1.214  0.8270 -0.3837  0.1457
  986MOL0    Cl35975   5.133   4.494  -1.293  0.0709  0.0073  0.4063
  986MOL0     C35976   5.716   5.322  -0.827 -0.0389 -0.6549  0.5104
  986MOL0     C35977   5.783   5.357  -0.709  0.3705 -0.2904  0.3734
  986MOL0     O35978   5.846   5.680  -0.576 -0.6328 -0.3845 -0.0253
  986MOL0     C35979   6.110   5.540  -0.387  0.2533 -0.5103  0.8247
  986MOL0     C35980   6.215   5.556  -0.294  0.8242  0.0500 -0.9378
  986MOL0     N35981   6.843   5.428   0.060 -0.1485  0.3728 -0.2013
  986MOL0     N35982   6.964   5.381   0.083  0.1044  0.4110  0.6699
  986MOL0     C35983   7.496   4.405  -0.141  0.3301  0.5339  0.0231
  986MOL0     C35984   7.603   4.359  -0.061  0.1500  0.2739 -0.8307
  986MOL0     C35985   7.935   4.395   0.258 -0.3798 -0.0857 -0.4318
  986MOL0     C35986   8.012   4.490   0.322  0.0352  0.4708  0.2734
  986MOL0     C35987   8.127   4.452   0.399 -0.0946  0.4672  0.0973
  986MOL0     C35988   8.161   4.317   0.412 -0.3854 -0.5081 -0.2126
  986MOL0     O35989   8.270   4.265   0.483  0.1973 -0.2848  0.0150
  986MOL0     C35990   8.368   4.361   0.535  0.3725  0.6264  0.0837
  986MOL0     C35991   8.472   4.287   0.619  0.1527  0.2656  0.3501
  986MOL0     C35992   8.414   4.175   0.726 -0.2256 -0.1736 -0.6777
  986MOL0     C35993   8.344   4.255   0.836  0.1425  1.0136 -0.9520
  986MOL0     C35994   8.314   4.163   0.951 -0.4976  0.4838  0.5341
  986MOL0     C35995   8.292   4.096   1.044 -0.0013 -0.6046 -0.5659
  986MOL0     C35996   8.083   4.222   0.355 -0.4508 -0.8175 -0.8465
  986MOL0     C35997   7.969   4.254   0.282 -0.5168  0.1122  0.8129
  986MOL0     C35998   7.905   4.143   0.205  0.3625 -0.0685 -0.0460
  986MOL0     H35999   7.791   4.625  -0.080 -3.4681  3.4382  1.9517
  986MOL0     H36000   7.635   4.697  -0.217 -2.3622 -0.6418 -1.8592
  986MOL0     H36001   7.427   4.742  -0.344  1.6768  1.2700  2.1846
  986MOL0     H36002   7.402   4.759  -0.163  4.6831  0.3111 -0.9018
  986MOL0     H36003   7.194   4.661  -0.359 -0.2943 -0.0763  0.3434
  986MOL0     H36004   7.155   4.768  -0.221 -0.5792 -0.7022  0.1192
  986MOL0     H36005   7.294   4.872  -0.466  0.6789  1.9029  0.7123
  986MOL0     H36006   7.122   4.846  -0.445 -1.0391 -1.8051  2.0240
  986MOL0     H36007   7.129   4.996  -0.258 -0.5537 -1.4357  0.2172
  986MOL0     H36008   7.295   5.000  -0.228 -2.6856  1.8477  2.4797
  986MOL0     H36009   7.174   5.114  -0.476  1.2159  0.2729  0.0560
  986MOL0     H36010   7.337   5.141  -0.420  0.5557 -1.8281  1.4129
  986MOL0     H36011   7.227   5.337  -0.348 -1.9295  1.0245  0.5034
  986MOL0     H36012   7.067   5.256  -0.325 -1.2228  2.4559  0.8882
  986MOL0     H36013   7.309   5.249  -0.146 -0.6232  0.8497 -0.1007
  986MOL0     H36014   7.163   5.145  -0.112 -1.0495  1.3183  0.3486
  986MOL0     H36015   7.206   5.360   0.001  0.7080  1.2729 -1.1897
  986MOL0     H36016   7.171   5.443  -0.149 -0.5892  0.4484 -0.6389
  986MOL0     H36017   6.917   5.389  -0.260 -1.8270 -0.8946  0.0808
  986MOL0     H36018   6.606   5.443  -0.124  0.1472  0.5993  0.9408
  986MOL0     H36019   6.698   5.561  -0.207 -0.3558 -0.7213  0.0179
  986MOL0     H36020   6.635   5.587   0.084  3.1342 -0.6910  0.0002
  986MOL0     H36021   6.744   5.684  -0.004  1.4860 -0.2572 -1.2033
  986MOL0     H36022   6.498   5.772   0.025  1.6033  1.0846  1.3349
  986MOL0     H36023   6.574   5.794  -0.132  2.3171  2.0328  3.7349
  986MOL0     H36024   6.464   5.586  -0.222  3.3211 -1.2980  1.6040
  986MOL0     H36025   6.383   5.572  -0.068 -0.7109  1.4155  0.8851
  986MOL0     H36026   6.224   5.895  -0.312  2.7117 -1.1380  1.1388
  986MOL0     H36027   5.919   5.892  -0.484  0.0393 -5.1962 -1.1483
  986MOL0     H36028   6.068   5.903  -0.588  0.6628 -4.0974  0.3375
  986MOL0     H36029   6.075   5.987  -0.448 -0.1733  1.2231 -1.5563
  986MOL0     H36030   6.005   5.567  -0.854 -1.5592  1.6977 -2.5311
  986MOL0     H36031   5.886   5.515  -1.050 -0.5724 -0.1389 -2.4454
  986MOL0     H36032   5.683   5.125  -1.027 -0.7399 -0.0664  0.1014
  986MOL0     H36033   5.526   5.206  -1.076 -1.2787 -1.2226 -3.9305
  986MOL0     H36034   5.614   5.232  -1.297 -0.1671  0.6692  0.1178
  986MOL0     H36035   5.758   5.160  -1.268 -0.9212  1.9492  0.1362
  986MOL0     H36036   5.658   4.931  -1.231  0.3307  1.0399  0.3280
  986MOL0     H36037   5.590   5.007  -1.376  0.5539 -0.5747  0.4347
  986MOL0     H36038   5.396   5.090  -1.195  1.2106  1.1698  0.7923
  986MOL0     H36039   5.482   4.982  -1.092  2.0834  2.5086 -0.3558
  986MOL0     H36040   5.343   4.916  -1.358 -1.9674  0.1355  1.0082
  986MOL0     H36041   5.442   4.801  -1.286 -0.3855 -0.0224 -0.5904
  986MOL0     H36042   5.210   4.946  -1.142 -0.6062 -0.1842  0.6916
  986MOL0     H36043   5.302   4.801  -1.071  0.2793 -0.3956 -0.0002
  986MOL0     H36044   5.157   4.776  -1.328 -0.7821 -0.7039 -0.3398
  986MOL0     H36045   5.075   4.748  -1.183  0.8140  1.3667  0.8292
  986MOL0     H36046   5.260   4.587  -1.107  1.9178 -1.5313 -0.1725
  986MOL0     H36047   5.349   4.620  -1.257  1.3675  1.6873  1.7500
  986MOL0     H36048   5.640   5.246  -0.812  1.0245 -1.1085  5.1253
  986MOL0     H36049   5.755   5.298  -0.623  1.7535 -4.4731 -1.7667
  986MOL0     H36050   6.110   5.432  -0.402 -2.2630 -0.9191  2.9138
  986MOL0     H36051   6.259   5.466  -0.253  1.4000  0.1342 -1.3736
  986MOL0     H36052   7.411   4.337  -0.148  0.8873 -0.4829  2.1927
  986MOL0     H36053   7.606   4.257  -0.024  2.8535  0.7119  0.4260
  986MOL0     H36054   7.971   4.590   0.324 -1.5605 -0.1679  1.4724
  986MOL0     H36055   8.192   4.532   0.433 -0.6926  0.5651  1.0564
  986MOL0     H36056   8.406   4.414   0.447  1.4123  0.8666  0.6612
  986MOL0     H36057   8.319   4.434   0.600  1.0530  1.4090 -0.2653
  986MOL0     H36058   8.537   4.355   0.675  1.3951 -0.6085  0.0299
  986MOL0     H36059   8.536   4.231   0.549  0.0501 -0.3482  0.7390
  986MOL0     H36060   8.331   4.112   0.691  0.4635 -1.2383 -0.4539
  986MOL0     H36061   8.500   4.116   0.758 -0.0559  0.8070  0.7753
  986MOL0     H36062   8.244   4.292   0.812 -1.8399 -2.0825  1.7166
  986MOL0     H36063   8.417   4.331   0.867  2.7826  0.1693 -4.3858
  986MOL0     H36064   8.268   4.041   1.133 -2.4494  0.7320 -0.3312
  986MOL0     H36065   8.129   4.124   0.350  2.4301  0.2421  2.0446
  986MOL0     H36066   7.948   4.126   0.106  1.0422  0.2203  0.1968
  986MOL0     H36067   7.928   4.053   0.262 -0.1354 -0.7129 -0.8390
  986MOL0     H36068   7.798   4.152   0.180  0.0323 -2.5184  0.2034
  987MOL0     O36069   6.557  10.690   2.846 -0.2753 -0.4472 -0.0314
  987MOL0     C36070   6.662  10.721   2.794  1.8576 -0.4394 -1.3455
  987MOL0     O36071   6.778  10.645   2.778  0.4370  0.1998 -0.7483
  987MOL0     C36072   6.770  10.508   2.805  0.6969 -0.5925 -0.8386
  987MOL0     C36073   6.748  10.448   2.934 -0.2374 -0.3913 -0.4382
  987MOL0     C36074   6.709  10.318   2.955  0.2487  0.2405  0.3274
  987MOL0     C36075   6.716  10.230   2.844 -0.1055  0.3401  0.4402
  987MOL0     O36076   6.679  10.102   2.855 -0.9954  0.1735 -0.6853
  987MOL0     C36077   6.548  10.067   2.906 -0.1173 -0.5998  0.4682
  987MOL0     C36078   6.535   9.922   2.902 -0.1313 -0.5679 -1.2591
  987MOL0     C36079   6.506   9.889   2.754 -0.4896 -0.2332 -0.6307
  987MOL0     C36080   6.466   9.741   2.741  1.1170  0.5000 -0.5856
  987MOL0     C36081   6.576   9.650   2.798  0.7167 -0.1062  0.5159
  987MOL0     C36082   6.560   9.506   2.740 -0.4779  0.6717  0.3707
  987MOL0     C36083   6.684   9.423   2.800 -0.0370 -0.3079  0.2301
  987MOL0     C36084   6.704   9.282   2.732  0.0193 -0.4135 -0.0848
  987MOL0     N36085   6.789   9.195   2.815  0.3128  1.6562 -0.4367
  987MOL0     C36086   6.915   9.152   2.780 -0.3511 -0.0227 -0.1571
  987MOL0     C36087   6.977   9.117   2.901 -0.4884 -0.1620 -0.0082
  987MOL0     C36088   7.121   9.064   2.927  0.2328  0.0997  0.5182
  987MOL0     C36089   7.196   9.150   3.040  0.0319 -0.3720  0.1806
  987MOL0     C36090   7.353   9.148   3.026 -0.5096  0.0635  0.4311
  987MOL0     C36091   7.412   9.007   2.996 -1.1938  0.4883  0.0374
  987MOL0     O36092   7.551   9.021   3.017 -0.2481  0.4507  0.1016
  987MOL0     C36093   7.626   8.949   2.932  0.1855  0.7695  1.0994
  987MOL0     C36094   7.611   8.808   2.917  0.5061  0.0632  1.1852
  987MOL0     C36095   7.697   8.740   2.820 -0.7477 -1.1069 -0.0346
  987MOL0     C36096   7.677   8.599   2.825 -0.1306 -0.4844 -0.5186
  987MOL0     C36097   7.800   8.809   2.755 -0.0943 -0.8399 -0.6193
  987MOL0     C36098   7.887   8.750   2.658  0.0495 -0.1886 -0.4685
  987MOL0     O36099   7.988   8.830   2.616 -0.3000  0.4147  0.6423
  987MOL0     C36100   8.070   8.787   2.513  1.0593 -0.1156 -0.7340
  987MOL0     C36101   8.026   8.790   2.377  0.2228 -0.2411 -0.4424
  987MOL0     C36102   8.111   8.745   2.280 -0.6809 -0.3583  0.0383
  987MOL0     C36103   8.248   8.706   2.317  0.3969 -0.2410  1.4296
  987MOL0     O36104   8.345   8.655   2.232  0.1300  1.0979  0.9556
  987MOL0     C36105   8.314   8.602   2.102  0.6250 -0.5078  0.6634
  987MOL0     C36106   8.434   8.526   2.035  0.5468  0.7396 -0.3866
  987MOL0     C36107   8.476   8.395   2.124  0.3253 -0.5563 -0.0586
  987MOL0     C36108   8.617   8.342   2.091 -0.1805 -0.3363  0.2113
  987MOL0     C36109   8.729   8.419   2.149 -0.6337  0.1354 -0.3983
  987MOL0     C36110   8.737   8.408   2.302  0.1404 -0.1087 -0.1722
  987MOL0     C36111   8.864   8.491   2.345  0.4379  0.6056 -0.5014
  987MOL0     C36112   8.869   8.514   2.493 -0.0391  0.5925 -0.6395
  987MOL0    Cl36113   9.027   8.597   2.531  0.1527  0.3502 -0.0498
  987MOL0     C36114   8.288   8.717   2.449 -1.2218  0.3475 -0.6972
  987MOL0     C36115   8.198   8.749   2.547 -0.2965  0.3395  1.2366
  987MOL0     O36116   7.856   8.645   2.603  0.6029 -0.2446 -0.0709
  987MOL0     C36117   7.819   8.944   2.791 -0.3939  0.0307  0.0847
  987MOL0     C36118   7.741   9.015   2.883  0.9764  0.5395  0.1433
  987MOL0     N36119   6.877   9.119   2.999 -0.2399  0.6304  0.6260
  987MOL0     N36120   6.768   9.162   2.945 -0.1363  0.6184 -0.5053
  987MOL0     C36121   6.755  10.281   2.718  1.1932  0.2045 -0.0851
  987MOL0     C36122   6.776  10.421   2.695 -0.4717 -0.5147  0.4968
  987MOL0     C36123   6.682  10.868   2.753  1.0699  0.7102 -0.8041
  987MOL0     C36124   6.813  10.922   2.753  0.6775 -0.1519  0.1543
  987MOL0     C36125   6.832  11.063   2.744 -0.0424  0.5296 -0.5459
  987MOL0     C36126   6.724  11.142   2.720  1.0218 -0.5215 -0.4685
  987MOL0     O36127   6.755  11.267   2.711 -0.1264 -0.8490  0.3298
  987MOL0     C36128   6.642  11.363   2.699 -0.0803  0.0972 -1.4232
  987MOL0     C36129   6.687  11.505   2.655 -0.2254 -0.3451 -0.8336
  987MOL0     C36130   6.573  11.604   2.665  0.2548 -0.0840 -0.2528
  987MOL0     C36131   6.620  11.738   2.620 -0.4075 -0.4775  0.5951
  987MOL0     C36132   6.611  11.766   2.472 -0.8440 -0.4751  0.5435
  987MOL0     C36133   6.621  11.778   2.355  0.9555 -0.0815  0.1062
  987MOL0     C36134   6.600  11.088   2.705 -0.7997 -0.3928  0.9994
  987MOL0     C36135   6.577  10.947   2.709  0.2215  0.1866 -0.1335
  987MOL0     C36136   6.421  10.922   2.684 -0.2290 -0.3568 -0.4393
  987MOL0     H36137   6.752  10.511   3.022 -4.4572 -2.1333  1.2305
  987MOL0     H36138   6.693  10.286   3.057  0.9221  4.0777  1.8220
  987MOL0     H36139   6.475  10.115   2.840 -0.6029 -0.8440  0.8294
  987MOL0     H36140   6.540  10.096   3.011  3.1978 -0.8944  0.9174
  987MOL0     H36141   6.630   9.881   2.938 -0.6868  0.0097  0.9689
  987MOL0     H36142   6.456   9.888   2.968  2.1037 -0.7726  1.4728
  987MOL0     H36143   6.432   9.951   2.704  0.0009 -0.7386 -2.0373
  987MOL0     H36144   6.599   9.910   2.700 -0.4578  1.3984  0.0074
  987MOL0     H36145   6.374   9.729   2.799  0.5471  2.6569 -0.9707
  987MOL0     H36146   6.446   9.716   2.636 -1.5373  2.9770 -0.8052
  987MOL0     H36147   6.565   9.658   2.906 -0.0781  3.8963  0.2990
  987MOL0     H36148   6.670   9.697   2.766  0.3594 -0.7913 -1.7513
  987MOL0     H36149   6.461   9.468   2.769 -1.5027  1.1853 -2.1529
  987MOL0     H36150   6.570   9.512   2.632 -0.5097  1.8949  0.4187
  987MOL0     H36151   6.665   9.422   2.907  0.8557  1.7738  0.4546
  987MOL0     H36152   6.778   9.480   2.796 -1.1943  1.6645 -2.9049
  987MOL0     H36153   6.607   9.233   2.724 -0.3720  0.5995 -1.9912
  987MOL0     H36154   6.735   9.303   2.630  0.2794  0.5787  0.1823
  987MOL0     H36155   6.975   9.175   2.693 -0.7400  1.7829  0.0148
  987MOL0     H36156   7.180   9.058   2.836  1.5233 -0.6196  1.3635
  987MOL0     H36157   7.107   8.964   2.969  2.4815 -0.8313 -0.7865
  987MOL0     H36158   7.169   9.256   3.034 -1.0299 -0.5501  1.3283
  987MOL0     H36159   7.165   9.114   3.139 -2.0836  1.5762  0.3047
  987MOL0     H36160   7.389   9.209   2.943  2.4684 -1.6644  0.3440
  987MOL0     H36161   7.398   9.187   3.118  1.4554  1.1675 -0.9518
  987MOL0     H36162   7.387   8.934   3.073  5.5649 -0.0737  2.3460
  987MOL0     H36163   7.396   8.977   2.892  0.8508 -0.9792  0.0911
  987MOL0     H36164   7.523   8.760   2.959 -0.8338  2.8664  1.8028
  987MOL0     H36165   7.646   8.567   2.725 -0.6353  1.9127 -1.1908
  987MOL0     H36166   7.608   8.560   2.899  0.2918 -1.1061 -0.4436
  987MOL0     H36167   7.773   8.555   2.853 -0.0632  1.1095  2.0914
  987MOL0     H36168   7.922   8.807   2.351 -0.1376 -1.1086  0.3986
  987MOL0     H36169   8.085   8.734   2.175 -1.6227 -1.7241  0.3839
  987MOL0     H36170   8.235   8.526   2.105  0.1668 -0.0158  1.4198
  987MOL0     H36171   8.264   8.677   2.040 -0.1867  1.5959  3.6558
  987MOL0     H36172   8.407   8.492   1.935 -0.2977 -1.0291  0.4116
  987MOL0     H36173   8.524   8.589   2.040  0.0642  1.6999 -2.5737
  987MOL0     H36174   8.396   8.322   2.107  1.2790 -1.6489  0.0711
  987MOL0     H36175   8.477   8.424   2.229  0.0137  3.6239 -1.0393
  987MOL0     H36176   8.634   8.341   1.983  2.5524  1.2403  0.5448
  987MOL0     H36177   8.627   8.237   2.120  0.7728 -0.9408 -2.0421
  987MOL0     H36178   8.826   8.379   2.118  1.0968  2.3568  1.7412
  987MOL0     H36179   8.713   8.526   2.133 -1.5190  0.4002  1.8316
  987MOL0     H36180   8.758   8.304   2.328  0.6574  0.4414  1.8452
  987MOL0     H36181   8.647   8.435   2.359  1.5178  1.1331  1.5579
  987MOL0     H36182   8.861   8.589   2.296  0.0324  0.8987  0.0904
  987MOL0     H36183   8.953   8.435   2.316  0.2705  0.4912 -0.8048
  987MOL0     H36184   8.866   8.417   2.544  0.8664  0.4007 -0.9457
  987MOL0     H36185   8.785   8.574   2.531  0.8767  0.9799  0.8576
  987MOL0     H36186   8.391   8.689   2.468 -1.1065  1.2349  0.0315
  987MOL0     H36187   8.244   8.733   2.644 -0.4934  1.0242  1.4462
  987MOL0     H36188   7.908   8.997   2.758 -0.8579  1.0428  0.4081
  987MOL0     H36189   7.760   9.118   2.913 -0.2723  1.4946 -2.0880
  987MOL0     H36190   6.756  10.216   2.631  0.0616  0.3155 -0.1882
  987MOL0     H36191   6.793  10.450   2.592  1.3813  3.2499  1.6735
  987MOL0     H36192   6.894  10.850   2.757  2.4200  1.7066 -0.4790
  987MOL0     H36193   6.933  11.100   2.757  0.2611 -0.1091 -1.0335
  987MOL0     H36194   6.579  11.327   2.617  0.8069 -1.4802 -1.4494
  987MOL0     H36195   6.601  11.367   2.800  4.3504  1.4025  0.5828
  987MOL0     H36196   6.732  11.515   2.556 -1.0901  0.1634 -1.1858
  987MOL0     H36197   6.768  11.529   2.724 -0.6061  1.3739 -0.9428
  987MOL0     H36198   6.484  11.579   2.607 -1.0414  3.6969 -0.1228
  987MOL0     H36199   6.546  11.611   2.771 -1.9074  0.1329 -0.7744
  987MOL0     H36200   6.719  11.762   2.658 -0.1999 -0.2626 -0.0730
  987MOL0     H36201   6.548  11.805   2.669 -1.8087 -1.2680 -0.2946
  987MOL0     H36202   6.623  11.791   2.249 -0.9669  3.3278  0.3680
  987MOL0     H36203   6.512  11.150   2.690  1.5523  2.4227 -3.1258
  987MOL0     H36204   6.376  11.003   2.626 -0.3396  0.3696  0.6264
  987MOL0     H36205   6.400  10.828   2.631 -1.5511  1.6842 -3.8677
  987MOL0     H36206   6.372  10.912   2.782  0.2302  0.0593 -0.1612
  988MOL0     O36207   0.357   2.447   5.318 -0.8605 -0.0472 -0.7285
  988MOL0     C36208   0.342   2.563   5.286  0.0523  0.1875  0.5628
  988MOL0     O36209   0.372   2.673   5.367  0.2676  0.4132 -1.1561
  988MOL0     C36210   0.451   2.653   5.483 -1.2800  0.4110  0.1711
  988MOL0     C36211   0.420   2.564   5.590 -0.4269  0.5491  1.0671
  988MOL0     C36212   0.510   2.550   5.697 -0.4074 -0.0036 -0.2356
  988MOL0     C36213   0.633   2.612   5.698  0.3895 -0.1200 -0.8866
  988MOL0     O36214   0.712   2.597   5.803  0.2072  0.3077  0.3950
  988MOL0     C36215   0.853   2.567   5.792  0.6032  0.0053 -1.0097
  988MOL0     C36216   0.910   2.558   5.935 -0.1773  0.1985 -0.8166
  988MOL0     C36217   1.054   2.607   5.934 -0.2879 -0.1694  0.1490
  988MOL0     C36218   1.150   2.528   5.833 -0.5646  0.8471  0.4679
  988MOL0     C36219   1.178   2.380   5.863 -0.6816  0.6859  0.1937
  988MOL0     C36220   1.271   2.311   5.764 -0.0871  0.7734  0.4826
  988MOL0     C36221   1.233   2.292   5.618  0.1288 -0.2924 -0.3056
  988MOL0     C36222   1.151   2.159   5.607  1.1959  0.1899  0.2765
  988MOL0     N36223   1.024   2.147   5.680 -0.6688 -1.0401  0.2809
  988MOL0     C36224   0.907   2.202   5.629  1.3617 -0.1158  0.5417
  988MOL0     C36225   0.813   2.166   5.718  0.0844  1.2154  0.7340
  988MOL0     C36226   0.664   2.172   5.685 -0.6066 -0.7729  0.0241
  988MOL0     C36227   0.601   2.135   5.549  1.0361  0.3250  0.3207
  988MOL0     C36228   0.653   2.002   5.469 -0.0660  0.6559 -0.3273
  988MOL0     C36229   0.547   1.969   5.357 -0.1921  0.6928  0.0576
  988MOL0     O36230   0.497   2.081   5.295 -0.3093 -0.2488  0.1785
  988MOL0     C36231   0.448   2.084   5.170 -0.4852  0.4528  1.0433
  988MOL0     C36232   0.530   2.037   5.059 -0.4922  0.5107  0.0257
  988MOL0     C36233   0.490   2.051   4.927 -0.8073  0.4825  0.6326
  988MOL0     C36234   0.578   2.010   4.818 -0.7128 -0.2404  0.4307
  988MOL0     C36235   0.362   2.101   4.905  0.7054 -0.1989  0.3300
  988MOL0     C36236   0.306   2.117   4.778  0.7931  0.2170  0.1177
  988MOL0     O36237   0.264   2.242   4.742  1.0910  0.1602 -0.0828
  988MOL0     C36238   0.193   2.251   4.627 -0.3648 -1.2385  1.2801
  988MOL0     C36239   0.088   2.170   4.601  0.3227 -0.5090  0.0248
  988MOL0     C36240   0.015   2.186   4.478  0.0113 -0.5602  0.7429
  988MOL0     C36241   0.059   2.289   4.382  0.3936 -0.5362 -0.3120
  988MOL0     O36242   0.001   2.311   4.264 -0.6838 -0.7704  1.2657
  988MOL0     C36243  -0.030   2.199   4.185  0.8080 -0.9484 -0.7891
  988MOL0     C36244  -0.031   2.252   4.041 -0.1247 -0.3300  0.1476
  988MOL0     C36245  -0.089   2.126   3.960  0.1988  0.0484 -1.0747
  988MOL0     C36246  -0.148   2.159   3.824  0.1436 -0.9450 -0.2082
  988MOL0     C36247  -0.267   2.252   3.834  0.2230 -0.4789  0.3692
  988MOL0     C36248  -0.317   2.314   3.700  1.1829 -0.0563 -0.0621
  988MOL0     C36249  -0.406   2.225   3.605  0.5587 -0.8741  0.5888
  988MOL0     C36250  -0.462   2.318   3.496  0.2574 -0.3558 -0.3935
  988MOL0    Cl36251  -0.571   2.209   3.387  0.2956 -0.5292  0.2201
  988MOL0     C36252   0.165   2.368   4.417 -1.2108 -0.2271 -0.2648
  988MOL0     C36253   0.236   2.357   4.544  0.3404 -0.6701 -0.3567
  988MOL0     O36254   0.294   2.011   4.714  0.0625 -0.4031 -0.3310
  988MOL0     C36255   0.282   2.141   5.010  0.8044 -0.4879 -0.1382
  988MOL0     C36256   0.323   2.130   5.139 -0.0993  0.0404  0.3075
  988MOL0     N36257   0.872   2.088   5.814 -0.0527  1.0344  0.2817
  988MOL0     N36258   0.993   2.081   5.796  0.2235  0.0378  0.1228
  988MOL0     C36259   0.671   2.699   5.594 -0.4648  0.3146 -0.4425
  988MOL0     C36260   0.573   2.721   5.495 -0.1468  0.4119 -0.5106
  988MOL0     C36261   0.233   2.574   5.173  0.0698  0.3041 -0.2096
  988MOL0     C36262   0.268   2.538   5.039 -0.5004 -0.3797  0.5249
  988MOL0     C36263   0.181   2.549   4.928 -0.8884 -0.5448 -0.1769
  988MOL0     C36264   0.054   2.594   4.954 -0.3144 -0.2007  0.5950
  988MOL0     O36265  -0.035   2.605   4.842 -0.0744  0.3547 -1.0740
  988MOL0     C36266  -0.004   2.526   4.711 -0.1188 -0.4058  0.8973
  988MOL0     C36267  -0.134   2.541   4.617 -0.2269 -1.3670  0.0756
  988MOL0     C36268  -0.170   2.689   4.596 -0.2011  0.5317  0.2773
  988MOL0     C36269  -0.287   2.717   4.502 -0.2641  0.6439 -0.3198
  988MOL0     C36270  -0.250   2.685   4.362  0.3891 -1.2234  0.4734
  988MOL0     C36271  -0.241   2.667   4.241 -0.5130  1.1130  0.4372
  988MOL0     C36272   0.011   2.621   5.083 -0.2926 -0.7037  0.1545
  988MOL0     C36273   0.103   2.626   5.198  0.6866 -0.1971  0.3191
  988MOL0     C36274   0.050   2.654   5.343  1.2748 -0.1949 -0.3631
  988MOL0     H36275   0.320   2.522   5.589 -1.7465  3.4814  0.0894
  988MOL0     H36276   0.478   2.475   5.769  1.6432  1.9583  2.9684
  988MOL0     H36277   0.905   2.641   5.731 -0.3963  1.2146 -0.4291
  988MOL0     H36278   0.863   2.475   5.734  0.5669 -0.9954  0.4883
  988MOL0     H36279   0.856   2.616   6.009  1.0967 -1.9833  1.9983
  988MOL0     H36280   0.901   2.455   5.970  1.1465 -0.0175 -1.0715
  988MOL0     H36281   1.064   2.713   5.912  3.0060 -0.8526 -2.5560
  988MOL0     H36282   1.077   2.590   6.039 -1.2449  2.7257  0.9080
  988MOL0     H36283   1.104   2.539   5.734 -1.8085  3.3416  1.2344
  988MOL0     H36284   1.246   2.580   5.823 -0.7738  1.0196 -0.9182
  988MOL0     H36285   1.083   2.327   5.859 -0.9974  1.3403 -2.3045
  988MOL0     H36286   1.217   2.386   5.965 -0.4605  2.9004  0.0336
  988MOL0     H36287   1.375   2.346   5.774 -0.3344  1.2395  1.4979
  988MOL0     H36288   1.281   2.209   5.801 -2.1140 -0.1359 -1.3119
  988MOL0     H36289   1.324   2.276   5.560  1.6855 -4.4991  2.7236
  988MOL0     H36290   1.164   2.371   5.589  0.7590  0.5218  0.3890
  988MOL0     H36291   1.133   2.144   5.500  0.4583  4.6913 -0.4310
  988MOL0     H36292   1.216   2.081   5.647  1.6306  0.5183  0.2104
  988MOL0     H36293   0.887   2.260   5.539 -0.7487 -1.6762 -0.0801
  988MOL0     H36294   0.640   2.277   5.702 -1.4708 -0.8923 -0.3682
  988MOL0     H36295   0.609   2.107   5.753 -1.7038 -1.1615 -1.1708
  988MOL0     H36296   0.498   2.111   5.577  1.0099  1.9090  1.7014
  988MOL0     H36297   0.593   2.225   5.487  0.6882 -1.9350 -3.2528
  988MOL0     H36298   0.750   2.032   5.427  0.8221  0.6649  1.6257
  988MOL0     H36299   0.672   1.917   5.535 -2.7253  0.6048  0.4484
  988MOL0     H36300   0.614   1.912   5.292  0.8524  0.3083  1.4152
  988MOL0     H36301   0.464   1.914   5.404  0.0633  2.2802  2.5411
  988MOL0     H36302   0.631   2.007   5.086 -2.0759 -3.7920  2.0908
  988MOL0     H36303   0.542   1.913   4.782 -0.7259 -0.7367  1.7399
  988MOL0     H36304   0.687   2.023   4.822 -0.9038  1.6519  0.6043
  988MOL0     H36305   0.557   2.076   4.733 -0.0100  0.8941  1.1032
  988MOL0     H36306   0.060   2.090   4.669 -3.1352  0.7198  0.2362
  988MOL0     H36307  -0.083   2.146   4.455 -0.9176  0.4518  2.6549
  988MOL0     H36308   0.037   2.114   4.197 -0.1395 -1.5520  0.4599
  988MOL0     H36309  -0.130   2.166   4.213  0.7732  1.1806  2.0751
  988MOL0     H36310  -0.081   2.348   4.023 -2.2101 -2.0007 -4.3126
  988MOL0     H36311   0.077   2.251   4.024  0.4627 -3.5489  2.9129
  988MOL0     H36312  -0.171   2.078   4.015  0.6184  1.0293  0.4725
  988MOL0     H36313  -0.015   2.052   3.932 -2.3807 -3.0715 -0.3085
  988MOL0     H36314  -0.180   2.073   3.764 -1.6354  1.7126 -3.4766
  988MOL0     H36315  -0.064   2.195   3.765  0.8822 -1.4901  0.4982
  988MOL0     H36316  -0.347   2.199   3.887  0.2078 -0.2657  0.5616
  988MOL0     H36317  -0.249   2.338   3.898 -3.6321  0.0570  0.9937
  988MOL0     H36318  -0.233   2.359   3.646 -1.0126  3.6075 -0.7227
  988MOL0     H36319  -0.379   2.395   3.740  1.2268 -0.3697  0.6545
  988MOL0     H36320  -0.485   2.168   3.656  0.7012 -2.8164 -1.2341
  988MOL0     H36321  -0.348   2.148   3.554  1.1700  1.1220 -1.9263
  988MOL0     H36322  -0.385   2.359   3.430  1.0569  0.4511  1.0110
  988MOL0     H36323  -0.526   2.401   3.529 -2.2947 -2.4621  0.3321
  988MOL0     H36324   0.182   2.451   4.350 -0.1575 -1.6466 -1.8324
  988MOL0     H36325   0.325   2.416   4.560  1.1725 -0.5071 -4.6170
  988MOL0     H36326   0.183   2.182   4.996  0.4821 -1.3470 -0.4182
  988MOL0     H36327   0.263   2.161   5.224  1.3096 -0.1801  1.4313
  988MOL0     H36328   0.756   2.766   5.603 -1.6766  2.0578 -1.3937
  988MOL0     H36329   0.595   2.789   5.413 -0.4545  0.8881 -0.2074
  988MOL0     H36330   0.372   2.508   5.022 -0.0621 -1.0660  3.8722
  988MOL0     H36331   0.226   2.526   4.833 -0.5283  2.8191 -0.9373
  988MOL0     H36332   0.080   2.572   4.658 -2.0975  1.6952 -0.6387
  988MOL0     H36333   0.018   2.420   4.723  0.3691 -0.6373 -1.4441
  988MOL0     H36334  -0.220   2.492   4.663 -0.7662  0.5112  1.1747
  988MOL0     H36335  -0.105   2.487   4.526  4.3217  1.5739 -0.5334
  988MOL0     H36336  -0.194   2.735   4.692 -0.0409 -0.3119  0.7376
  988MOL0     H36337  -0.084   2.745   4.560 -1.8573  2.1648 -1.3179
  988MOL0     H36338  -0.322   2.820   4.513 -2.8968 -0.1560 -0.6081
  988MOL0     H36339  -0.366   2.651   4.538  0.1477  1.0411  1.3973
  988MOL0     H36340  -0.230   2.644   4.137  1.3215  0.0228  0.8380
  988MOL0     H36341  -0.093   2.650   5.083  0.1771  1.3789 -2.6733
  988MOL0     H36342   0.116   2.656   5.430 -1.6705 -1.8810  2.0968
  988MOL0     H36343  -0.007   2.748   5.342  1.1040 -0.1853  2.3481
  988MOL0     H36344  -0.019   2.573   5.368 -0.9328  1.6675 -0.0309
  989MOL0     O36345   0.621   5.952  10.545  0.0265  0.0227  0.6318
  989MOL0     C36346   0.711   5.869  10.527 -0.9274  1.0049  0.1465
  989MOL0     O36347   0.768   5.837  10.405 -0.7870 -0.3699 -0.2276
  989MOL0     C36348   0.737   5.916  10.306  0.5905 -1.0338 -0.1721
  989MOL0     C36349   0.804   6.040  10.279  0.7871  0.3637  0.3338
  989MOL0     C36350   0.776   6.116  10.166  1.0261 -0.3727  0.0448
  989MOL0     C36351   0.661   6.086  10.087  0.2483 -0.2113  0.3030
  989MOL0     O36352   0.623   6.156   9.977 -0.1792  0.0698  0.7326
  989MOL0     C36353   0.686   6.279   9.944 -1.2133 -0.2516 -0.2682
  989MOL0     C36354   0.659   6.401  10.026 -0.7131  0.0538 -0.4999
  989MOL0     C36355   0.733   6.533   9.990 -0.1939 -0.3862  0.3890
  989MOL0     C36356   0.655   6.596   9.878 -0.2746 -0.6480 -0.1684
  989MOL0     C36357   0.695   6.740   9.863 -0.3705 -0.2620  0.6372
  989MOL0     C36358   0.673   6.834   9.982  0.0031  0.3779 -0.0713
  989MOL0     C36359   0.809   6.882  10.035  0.0190  0.4240  0.1783
  989MOL0     C36360   0.787   6.983  10.150  0.9238  0.0905  0.4225
  989MOL0     N36361   0.908   7.016  10.221 -0.8446 -0.3190 -0.8560
  989MOL0     C36362   0.971   7.132  10.196 -0.3552  0.1614  0.3099
  989MOL0     C36363   1.063   7.146  10.293  1.1072  0.2596 -0.4355
  989MOL0     C36364   1.152   7.263  10.280  0.2463 -0.1847 -0.8232
  989MOL0     C36365   1.160   7.328  10.415 -0.0580  0.4778 -0.0299
  989MOL0     C36366   1.288   7.420  10.414  0.5607  0.6540 -0.4925
  989MOL0     C36367   1.295   7.501  10.555 -0.1063 -0.0737  0.1545
  989MOL0     O36368   1.348   7.630  10.546 -0.0428  0.1002 -0.4191
  989MOL0     C36369   1.326   7.713  10.652 -0.1224  0.0698  1.2461
  989MOL0     C36370   1.422   7.809  10.656 -0.1937  1.0096  0.1680
  989MOL0     C36371   1.411   7.898  10.763 -1.0698  0.1784  0.7530
  989MOL0     C36372   1.519   8.005  10.769 -0.0879  0.0417  0.4436
  989MOL0     C36373   1.305   7.904  10.856 -0.4283  0.3202 -0.3817
  989MOL0     C36374   1.311   7.985  10.975  0.3178 -0.3367 -0.4739
  989MOL0     O36375   1.194   7.974  11.043  0.6085  0.0639 -0.1850
  989MOL0     C36376   1.180   8.036  11.164 -0.0774  0.0721  0.1039
  989MOL0     C36377   1.192   8.170  11.187  0.7557  0.2233  0.3493
  989MOL0     C36378   1.174   8.222  11.316  0.3660  0.0199 -0.1551
  989MOL0     C36379   1.137   8.139  11.419  0.6365 -0.1072 -1.0080
  989MOL0     O36380   1.090   8.166  11.546 -0.7277  1.0860 -0.7868
  989MOL0     C36381   1.063   8.303  11.576 -0.9396  0.2916 -0.4242
  989MOL0     C36382   0.993   8.303  11.710  0.3177  0.1642 -0.0140
  989MOL0     C36383   0.929   8.442  11.738  0.6729  0.3027  0.5126
  989MOL0     C36384   0.883   8.468  11.883 -0.1400 -0.0081 -0.0734
  989MOL0     C36385   0.828   8.603  11.898  0.1537 -0.8961  0.1201
  989MOL0     C36386   0.920   8.725  11.881 -0.2900 -0.5290 -0.0618
  989MOL0     C36387   0.848   8.844  11.945 -0.6930 -0.0586 -0.0710
  989MOL0     C36388   0.938   8.971  11.927  0.2883  0.5008  0.2808
  989MOL0    Cl36389   1.056   8.961  12.053  0.1739  0.1308  0.3010
  989MOL0     C36390   1.122   8.003  11.392  0.0945  0.2181  0.2307
  989MOL0     C36391   1.151   7.945  11.267  0.4172  0.1348  0.8112
  989MOL0     O36392   1.406   8.053  11.016 -0.2819 -0.5390  0.1440
  989MOL0     C36393   1.219   7.802  10.853  0.0944  0.8111  0.2868
  989MOL0     C36394   1.217   7.710  10.750  0.2697  0.8922 -0.2352
  989MOL0     N36395   1.050   7.049  10.386 -0.0541  0.4425 -1.1432
  989MOL0     N36396   0.962   6.963  10.340 -1.2029  0.6625 -0.4309
  989MOL0     C36397   0.593   5.967  10.111  0.3844  0.3287  0.1877
  989MOL0     C36398   0.620   5.889  10.227  0.1148 -0.1285  0.5027
  989MOL0     C36399   0.746   5.779  10.640 -0.7739  0.3572 -0.3492
  989MOL0     C36400   0.640   5.742  10.724  0.3260  0.1426  0.0713
  989MOL0     C36401   0.663   5.673  10.849 -0.8537 -0.1190  0.2836
  989MOL0     C36402   0.787   5.626  10.879 -0.3267  0.3615  0.3857
  989MOL0     O36403   0.802   5.567  11.005  0.5097 -0.3901  0.1736
  989MOL0     C36404   0.837   5.646  11.125 -0.8860 -0.7920 -0.4039
  989MOL0     C36405   0.887   5.547  11.233  0.2893  0.9339  0.3728
  989MOL0     C36406   0.951   5.631  11.340 -0.6237 -0.2086  1.4474
  989MOL0     C36407   1.017   5.536  11.451 -0.9600 -0.3735  0.3858
  989MOL0     C36408   1.163   5.499  11.435  0.1125  0.1538 -0.6650
  989MOL0     C36409   1.275   5.455  11.436  0.0903  0.3639  0.1528
  989MOL0     C36410   0.898   5.644  10.791  0.5380  0.1554  0.2359
  989MOL0     C36411   0.876   5.727  10.674  0.7704  1.5790  0.7785
  989MOL0     C36412   0.989   5.749  10.578  0.6299  0.0675 -0.3013
  989MOL0     H36413   0.903   6.044  10.324 -0.3613 -2.6359  3.6860
  989MOL0     H36414   0.838   6.202  10.143  1.1509 -0.0706  1.4210
  989MOL0     H36415   0.670   6.321   9.844  3.9452  2.5924 -0.2671
  989MOL0     H36416   0.795   6.272   9.952 -1.1895 -3.5187 -1.8869
  989MOL0     H36417   0.549   6.403  10.029 -0.8831  1.6387 -3.5461
  989MOL0     H36418   0.694   6.372  10.125 -3.0382  0.2437  0.4465
  989MOL0     H36419   0.730   6.602  10.075 -1.7090 -0.0857  0.1210
  989MOL0     H36420   0.832   6.508   9.953 -0.4509 -2.3822  0.9355
  989MOL0     H36421   0.683   6.548   9.784  2.8200  1.1275 -0.2784
  989MOL0     H36422   0.548   6.572   9.885 -0.0961 -1.7176 -0.8974
  989MOL0     H36423   0.635   6.785   9.783 -1.5919  0.3490  1.8557
  989MOL0     H36424   0.801   6.749   9.836 -0.3510  0.3185  0.8938
  989MOL0     H36425   0.631   6.924   9.936  1.0505  2.7502  3.1788
  989MOL0     H36426   0.602   6.790  10.053 -1.7795  1.2304 -1.2547
  989MOL0     H36427   0.875   6.931   9.964 -0.9466 -1.5379 -2.2322
  989MOL0     H36428   0.865   6.795  10.070 -1.7532  0.1379  2.5614
  989MOL0     H36429   0.734   7.073  10.116 -0.8985 -1.7506 -1.9891
  989MOL0     H36430   0.707   6.940  10.210  0.3456 -2.8312 -2.1290
  989MOL0     H36431   0.962   7.190  10.104  3.5993 -2.9260 -2.3454
  989MOL0     H36432   1.114   7.337  10.209  0.8145  1.0594  0.1306
  989MOL0     H36433   1.257   7.241  10.259  1.8589  3.6122  2.0489
  989MOL0     H36434   1.068   7.384  10.429 -3.1049 -3.1979 -3.2498
  989MOL0     H36435   1.176   7.262  10.501 -2.3980  1.0813  0.9282
  989MOL0     H36436   1.379   7.359  10.404 -1.8929 -3.2697 -1.0188
  989MOL0     H36437   1.283   7.486  10.327 -0.9030  1.1918 -0.0185
  989MOL0     H36438   1.197   7.499  10.604  1.2306 -0.9245  3.0186
  989MOL0     H36439   1.368   7.454  10.622 -0.5904  0.4252  1.0480
  989MOL0     H36440   1.496   7.807  10.577 -0.9224  4.0745 -0.7134
  989MOL0     H36441   1.475   8.103  10.789 -2.5135 -1.3303  2.3358
  989MOL0     H36442   1.564   8.004  10.669 -2.1848 -2.7382 -0.6329
  989MOL0     H36443   1.599   7.996  10.842  2.4610  3.1247 -1.7081
  989MOL0     H36444   1.223   8.236  11.106 -0.0003  0.9127  0.6097
  989MOL0     H36445   1.182   8.326  11.343 -0.3328 -0.5667  2.5593
  989MOL0     H36446   1.164   8.344  11.585  0.0640 -1.2470 -3.3197
  989MOL0     H36447   1.000   8.357  11.505 -2.9849 -0.1489  0.9647
  989MOL0     H36448   0.906   8.237  11.699  1.0644 -0.5647 -2.0155
  989MOL0     H36449   1.059   8.266  11.788 -1.4125 -1.4702  0.7709
  989MOL0     H36450   0.837   8.453  11.680  0.7920  0.3511  0.3324
  989MOL0     H36451   1.003   8.521  11.719  1.9855 -1.1538 -0.8035
  989MOL0     H36452   0.973   8.446  11.941  0.3473  0.3496 -0.6741
  989MOL0     H36453   0.800   8.401  11.905 -0.0159 -0.0608  0.2401
  989MOL0     H36454   0.734   8.627  11.848  0.9895 -3.1616 -2.8287
  989MOL0     H36455   0.807   8.587  12.004  1.1013 -0.2552  0.4227
  989MOL0     H36456   0.941   8.745  11.775 -3.1740 -0.4774 -0.7209
  989MOL0     H36457   1.017   8.712  11.930 -0.8672  1.4022  1.7247
  989MOL0     H36458   0.825   8.822  12.050  1.6133 -1.6209  0.1847
  989MOL0     H36459   0.766   8.875  11.880 -0.1096  1.0999 -0.2927
  989MOL0     H36460   0.874   9.057  11.946 -1.9163 -1.0821  0.3905
  989MOL0     H36461   0.981   8.983  11.828 -1.8391  1.6507 -0.5431
  989MOL0     H36462   1.071   7.932  11.456  0.8886 -1.7749 -1.2448
  989MOL0     H36463   1.128   7.842  11.243 -1.7991 -0.1322  3.5732
  989MOL0     H36464   1.135   7.785  10.921  1.1842 -0.0814  1.4507
  989MOL0     H36465   1.146   7.628  10.753 -0.6617  1.6550 -0.6236
  989MOL0     H36466   0.511   5.971  10.039  1.8625  1.1931 -1.5236
  989MOL0     H36467   0.555   5.806  10.251 -1.5187  0.2546 -2.1724
  989MOL0     H36468   0.542   5.787  10.715  1.4663  2.3766 -3.1095
  989MOL0     H36469   0.590   5.658  10.928  1.0413  2.4570  2.7106
  989MOL0     H36470   0.903   5.732  11.111 -2.0685  0.2313  0.1511
  989MOL0     H36471   0.747   5.686  11.172  1.1815 -0.0815  3.3308
  989MOL0     H36472   0.959   5.480  11.185 -3.1729 -3.4979  0.6660
  989MOL0     H36473   0.802   5.497  11.282  0.4418  1.4754  1.2045
  989MOL0     H36474   1.036   5.681  11.292 -2.2662  0.6900 -0.7281
  989MOL0     H36475   0.886   5.707  11.383  0.0508  0.9886  0.4299
  989MOL0     H36476   0.973   5.436  11.453 -1.2582 -0.2362  1.7670
  989MOL0     H36477   1.021   5.576  11.553 -0.1828 -2.2893  1.1646
  989MOL0     H36478   1.379   5.435  11.423  0.1573  1.7452 -1.8852
  989MOL0     H36479   0.997   5.602  10.802  1.5957  2.4150 -0.0912
  989MOL0     H36480   1.087   5.743  10.626  0.3951  1.5307  0.4330
  989MOL0     H36481   0.976   5.676  10.497 -2.2438 -1.4117  1.3252
  989MOL0     H36482   0.981   5.851  10.541  2.5368  0.6712  0.8044
  990MOL0     O36483  10.612   0.123   4.220 -0.1719 -0.0685  0.3578
  990MOL0     C36484  10.534   0.179   4.140 -0.7363  0.1190  0.5105
  990MOL0     O36485  10.431   0.124   4.081  0.5411 -0.1351 -0.1564
  990MOL0     C36486  10.376   0.002   4.120 -0.3559  0.7974  0.3678
  990MOL0     C36487  10.383  -0.060   4.246 -0.1274  0.0282  0.0537
  990MOL0     C36488  10.302  -0.175   4.276 -0.6475  0.3056  0.9659
  990MOL0     C36489  10.219  -0.237   4.177  0.9468  0.3155  0.3816
  990MOL0     O36490  10.156  -0.358   4.195  0.6510 -0.9616  0.8938
  990MOL0     C36491  10.240  -0.477   4.226 -0.0636 -0.1537 -0.4155
  990MOL0     C36492  10.161  -0.607   4.219  0.4147 -0.2294  0.6990
  990MOL0     C36493  10.064  -0.614   4.331  0.1029  0.3243 -0.7584
  990MOL0     C36494   9.982  -0.743   4.308  0.2500 -0.0783 -0.4823
  990MOL0     C36495  10.053  -0.869   4.262 -0.2703 -0.4092  1.3976
  990MOL0     C36496  10.169  -0.923   4.350  1.0356 -1.5559  0.5819
  990MOL0     C36497  10.205  -1.054   4.292  0.0388  0.0810  0.2397
  990MOL0     C36498  10.294  -1.119   4.396 -0.3042  0.0459  0.3310
  990MOL0     N36499  10.301  -1.261   4.369  0.0248  0.7350 -0.8217
  990MOL0     C36500  10.386  -1.311   4.280 -0.0562 -0.3545 -0.4122
  990MOL0     C36501  10.370  -1.448   4.284 -0.6623 -0.4218 -0.3058
  990MOL0     C36502  10.421  -1.540   4.195 -0.4848  0.1088 -0.7445
  990MOL0     C36503  10.525  -1.633   4.257  1.3520 -0.5855  0.6504
  990MOL0     C36504  10.470  -1.735   4.354 -0.0284 -0.0950 -0.3938
  990MOL0     C36505  10.552  -1.755   4.483 -0.5577  0.0153  0.0398
  990MOL0     O36506  10.676  -1.816   4.448 -0.4657 -0.0098  0.4242
  990MOL0     C36507  10.793  -1.772   4.508  0.2336 -0.0248 -0.4596
  990MOL0     C36508  10.810  -1.687   4.623  0.0493 -0.1671 -0.1165
  990MOL0     C36509  10.940  -1.653   4.672  0.4820 -0.1924 -0.7150
  990MOL0     C36510  10.954  -1.557   4.782  0.3248 -0.0240 -0.1025
  990MOL0     C36511  11.052  -1.697   4.605 -0.7896  0.8652  0.0131
  990MOL0     C36512  11.191  -1.650   4.623  0.4409  0.0914 -0.4389
  990MOL0     O36513  11.251  -1.602   4.512  0.0896  0.3832 -1.1210
  990MOL0     C36514  11.365  -1.528   4.508 -0.1146  0.2914 -0.0879
  990MOL0     C36515  11.403  -1.493   4.385 -0.1330 -0.3605  0.2179
  990MOL0     C36516  11.506  -1.397   4.373 -0.3492  0.4315 -0.0297
  990MOL0     C36517  11.583  -1.348   4.485 -0.5390  0.0336  0.4216
  990MOL0     O36518  11.699  -1.265   4.477  0.3911 -0.4745  0.2050
  990MOL0     C36519  11.704  -1.178   4.360  0.3361 -0.7570  0.5229
  990MOL0     C36520  11.804  -1.073   4.392 -0.4105 -0.0625 -0.3319
  990MOL0     C36521  11.803  -0.970   4.279  0.7475 -1.2001  0.5035
  990MOL0     C36522  11.680  -0.879   4.280 -0.3681 -0.7247  0.5109
  990MOL0     C36523  11.659  -0.796   4.405 -0.0274  0.4401 -0.1765
  990MOL0     C36524  11.583  -0.670   4.379  0.7602 -0.2199 -0.2725
  990MOL0     C36525  11.456  -0.666   4.300 -0.0306 -0.3521 -0.1291
  990MOL0     C36526  11.341  -0.745   4.362  0.5626  0.4439  0.2953
  990MOL0    Cl36527  11.296  -0.691   4.524 -0.2509  0.0456  0.4291
  990MOL0     C36528  11.547  -1.392   4.608  0.5572  0.2667  0.0166
  990MOL0     C36529  11.443  -1.480   4.624  0.1312  0.5209  0.2444
  990MOL0     O36530  11.236  -1.662   4.730 -0.6098  1.2803 -1.2207
  990MOL0     C36531  11.036  -1.785   4.497 -0.2612  0.4446  0.2036
  990MOL0     C36532  10.912  -1.810   4.443  0.8084  0.2870 -0.1421
  990MOL0     N36533  10.289  -1.469   4.400 -0.0688 -0.2303  0.0454
  990MOL0     N36534  10.238  -1.360   4.449 -0.6979  0.2111 -0.0798
  990MOL0     C36535  10.218  -0.181   4.043  0.2053 -0.0558  0.0029
  990MOL0     C36536  10.290  -0.063   4.021  0.5213 -0.2602 -0.2313
  990MOL0     C36537  10.579   0.308   4.088  0.2581 -0.1159 -0.3912
  990MOL0     C36538  10.475   0.409   4.078 -0.3178  0.1783  0.4012
  990MOL0     C36539  10.510   0.537   4.025  0.7562  0.1979 -0.6854
  990MOL0     C36540  10.647   0.573   3.991 -0.1565  0.8913 -0.3881
  990MOL0     O36541  10.653   0.696   3.938  0.3078 -0.0717  0.0293
  990MOL0     C36542  10.777   0.767   3.911 -0.3945 -0.5296  0.7534
  990MOL0     C36543  10.809   0.855   4.028  0.1516 -0.4915 -0.3586
  990MOL0     C36544  10.804   1.006   3.994 -0.2915  1.1035  0.2463
  990MOL0     C36545  10.826   1.099   4.107 -0.4487 -0.9628 -1.8734
  990MOL0     C36546  10.944   1.073   4.193  0.1604  0.0480 -0.4851
  990MOL0     C36547  11.038   1.064   4.267 -0.5146  0.2533  0.3632
  990MOL0     C36548  10.736   0.466   4.009  0.4728 -0.4908 -0.7065
  990MOL0     C36549  10.709   0.334   4.048  0.2011 -0.0702 -0.1700
  990MOL0     C36550  10.825   0.238   4.037  0.5696  0.5840 -0.4056
  990MOL0     H36551  10.450  -0.041   4.328 -0.9225 -0.8046  0.9177
  990MOL0     H36552  10.298  -0.225   4.372  1.1920 -2.1308 -0.1123
  990MOL0     H36553  10.284  -0.461   4.324 -4.8438 -0.6582  2.0866
  990MOL0     H36554  10.323  -0.490   4.155 -1.5055 -0.2520 -2.1496
  990MOL0     H36555  10.097  -0.624   4.132  0.0579 -2.2176  1.2991
  990MOL0     H36556  10.241  -0.681   4.215  1.9985  1.3488  1.5861
  990MOL0     H36557  10.124  -0.617   4.422  1.6120  0.5444 -1.7117
  990MOL0     H36558   9.996  -0.529   4.342  2.5229  2.0564  3.7612
  990MOL0     H36559   9.917  -0.768   4.393 -0.7689 -2.7693 -1.9102
  990MOL0     H36560   9.910  -0.719   4.230  4.1100 -0.8267 -4.6867
  990MOL0     H36561  10.085  -0.849   4.159 -3.0555 -1.1273  0.2895
  990MOL0     H36562   9.974  -0.944   4.254 -0.0071 -0.4971 -1.6360
  990MOL0     H36563  10.258  -0.860   4.357  1.3812 -2.2610  3.3688
  990MOL0     H36564  10.129  -0.932   4.451 -0.1510  0.4988  0.3601
  990MOL0     H36565  10.251  -1.040   4.193 -1.9408  0.7280 -0.6424
  990MOL0     H36566  10.122  -1.121   4.269  1.1747 -0.9172 -1.1649
  990MOL0     H36567  10.390  -1.067   4.402 -0.2376 -0.2410  2.4932
  990MOL0     H36568  10.256  -1.116   4.498 -0.5780 -0.1583  0.2367
  990MOL0     H36569  10.443  -1.257   4.205  0.2304 -0.1189 -0.0248
  990MOL0     H36570  10.479  -1.481   4.123 -0.0440  0.5518 -0.0322
  990MOL0     H36571  10.348  -1.601   4.141  2.0169 -1.8393 -2.1575
  990MOL0     H36572  10.572  -1.690   4.176 -0.3658 -2.8454  1.1241
  990MOL0     H36573  10.591  -1.571   4.318 -4.2199  3.0590  3.8247
  990MOL0     H36574  10.371  -1.700   4.385  1.0381  2.3802  0.4813
  990MOL0     H36575  10.470  -1.830   4.300  1.8844 -1.5305  1.9211
  990MOL0     H36576  10.570  -1.659   4.532 -0.6002 -0.2997  0.6776
  990MOL0     H36577  10.503  -1.831   4.544  1.7036 -0.7051  1.0395
  990MOL0     H36578  10.723  -1.654   4.680  0.8533  1.7477  0.0789
  990MOL0     H36579  10.993  -1.465   4.739  2.9636  0.4386  2.8950
  990MOL0     H36580  11.029  -1.585   4.857  0.3199 -0.3644 -0.2194
  990MOL0     H36581  10.861  -1.538   4.837  0.1854  2.8213 -1.1758
  990MOL0     H36582  11.351  -1.518   4.293  1.1443  2.0177 -1.2487
  990MOL0     H36583  11.515  -1.357   4.272 -0.1038  0.0788 -0.1503
  990MOL0     H36584  11.734  -1.230   4.269 -1.0276 -0.9130  0.1403
  990MOL0     H36585  11.603  -1.138   4.347  1.8713  2.8416 -2.2154
  990MOL0     H36586  11.775  -1.022   4.485 -2.2555 -0.8758 -0.4199
  990MOL0     H36587  11.904  -1.117   4.401 -0.9543 -1.2680 -0.0318
  990MOL0     H36588  11.809  -1.012   4.178 -2.9889 -1.8376  0.4153
  990MOL0     H36589  11.899  -0.918   4.278  1.0847 -1.6163 -2.8166
  990MOL0     H36590  11.584  -0.920   4.246 -0.1988 -0.5429 -0.2081
  990MOL0     H36591  11.702  -0.806   4.201 -2.5931 -2.0427 -1.4479
  990MOL0     H36592  11.601  -0.866   4.467  0.3897 -0.8627 -1.2143
  990MOL0     H36593  11.753  -0.772   4.456  0.4837  0.0265 -0.9086
  990MOL0     H36594  11.652  -0.594   4.341  3.6188 -2.2336  0.5399
  990MOL0     H36595  11.553  -0.646   4.481  3.5889 -0.8642  0.8106
  990MOL0     H36596  11.479  -0.720   4.207 -2.3391 -0.3709 -0.7598
  990MOL0     H36597  11.415  -0.565   4.291  0.5950 -0.1884 -1.3100
  990MOL0     H36598  11.371  -0.849   4.351  0.8264  0.4463  0.9295
  990MOL0     H36599  11.253  -0.739   4.298  0.5542 -0.1713  0.2488
  990MOL0     H36600  11.601  -1.371   4.700 -0.4782 -1.0747  0.9738
  990MOL0     H36601  11.415  -1.503   4.726 -0.2606  1.9747  0.4927
  990MOL0     H36602  11.125  -1.816   4.442 -0.6126  0.3669 -0.3278
  990MOL0     H36603  10.909  -1.870   4.353  3.2499 -2.1007  1.2493
  990MOL0     H36604  10.173  -0.237   3.963  0.1021 -1.1208  0.7869
  990MOL0     H36605  10.281  -0.019   3.923 -2.0850  1.3563  0.6277
  990MOL0     H36606  10.375   0.377   4.106 -0.5649 -0.8241 -1.4794
  990MOL0     H36607  10.420   0.596   4.018 -0.6459 -1.7828 -0.0991
  990MOL0     H36608  10.860   0.698   3.893  1.0522  0.6957  2.4791
  990MOL0     H36609  10.763   0.831   3.823 -0.7630  1.4218  2.1783
  990MOL0     H36610  10.916   0.842   4.045  0.2473  1.1359  0.5345
  990MOL0     H36611  10.753   0.822   4.116 -1.1470 -1.5559 -1.5324
  990MOL0     H36612  10.880   1.021   3.916  1.0797 -1.4075  0.9939
  990MOL0     H36613  10.711   1.025   3.940  1.0161  2.2021 -1.7532
  990MOL0     H36614  10.739   1.084   4.172 -0.1973  1.7091 -0.8079
  990MOL0     H36615  10.810   1.201   4.072 -0.9701 -0.5017 -0.3892
  990MOL0     H36616  11.121   1.053   4.334  0.3259 -1.2452 -0.8607
  990MOL0     H36617  10.835   0.493   3.973  0.1792 -1.5728 -2.4593
  990MOL0     H36618  10.866   0.234   4.138  2.7333  3.3373 -1.0328
  990MOL0     H36619  10.795   0.143   3.993  0.1344  0.6870 -0.3372
  990MOL0     H36620  10.905   0.278   3.974  1.9062 -2.0564 -0.5070
  991MOL0     O36621   8.017   5.210   3.390 -0.1279 -0.0819  1.3373
  991MOL0     C36622   8.027   5.183   3.272 -0.4793 -0.2048  1.2167
  991MOL0     O36623   8.061   5.271   3.169  0.5875 -0.2321  0.3808
  991MOL0     C36624   8.116   5.382   3.209 -0.3540 -0.6627 -0.7108
  991MOL0     C36625   8.257   5.387   3.237 -0.3757  0.3744  1.2058
  991MOL0     C36626   8.316   5.514   3.256 -0.3941  0.8249  0.8840
  991MOL0     C36627   8.244   5.635   3.261 -0.4853 -0.0169  0.0951
  991MOL0     O36628   8.314   5.747   3.284  0.4129 -0.4587 -0.2055
  991MOL0     C36629   8.285   5.806   3.414 -0.4622 -0.0486  0.4539
  991MOL0     C36630   8.341   5.728   3.532  0.9616 -0.1176  1.3469
  991MOL0     C36631   8.313   5.785   3.674 -0.3811  0.2436  0.1036
  991MOL0     C36632   8.421   5.764   3.779  0.0313  1.0010 -0.2523
  991MOL0     C36633   8.425   5.611   3.808 -0.1932  0.4097  0.5400
  991MOL0     C36634   8.561   5.603   3.881 -1.3539 -0.4301 -0.8808
  991MOL0     C36635   8.600   5.459   3.899 -0.3847  0.0730  0.3942
  991MOL0     C36636   8.728   5.431   3.980  0.3381  0.7091 -0.4192
  991MOL0     N36637   8.781   5.293   3.976  0.0648 -1.0120 -0.8976
  991MOL0     C36638   8.705   5.180   3.983  0.0765 -0.2789 -0.4476
  991MOL0     C36639   8.795   5.079   4.009 -0.2494 -0.9132  0.1969
  991MOL0     C36640   8.758   4.933   4.016  0.9882 -0.3053  0.1853
  991MOL0     C36641   8.859   4.850   3.933  0.4144 -0.3228 -1.1427
  991MOL0     C36642   8.796   4.722   3.874  0.5682  1.1118  0.5257
  991MOL0     C36643   8.872   4.684   3.748 -0.7629  0.3323  0.3930
  991MOL0     O36644   8.871   4.790   3.641 -0.2214 -0.8498 -0.7196
  991MOL0     C36645   8.896   4.746   3.521 -0.0898 -0.4850  0.2710
  991MOL0     C36646   8.847   4.824   3.411 -0.3398  0.1501 -0.6644
  991MOL0     C36647   8.876   4.794   3.278 -0.9933  0.0744  0.4572
  991MOL0     C36648   8.822   4.888   3.178  0.2003  0.5872 -0.2966
  991MOL0     C36649   8.949   4.682   3.250  0.1771 -0.6021  0.0981
  991MOL0     C36650   8.950   4.622   3.116 -0.4116  0.1209 -0.1401
  991MOL0     O36651   8.940   4.484   3.112  0.2715 -0.1725 -0.0970
  991MOL0     C36652   8.931   4.407   2.997 -0.4909 -0.0550  0.3045
  991MOL0     C36653   8.957   4.273   3.010 -0.2422  0.5718 -0.4695
  991MOL0     C36654   8.958   4.184   2.900  0.2456 -0.2698 -0.3876
  991MOL0     C36655   8.932   4.237   2.772  0.3582  1.1330  0.2317
  991MOL0     O36656   8.955   4.144   2.676  1.1512  0.3864  0.0847
  991MOL0     C36657   8.896   4.163   2.548  0.6029  0.0136 -0.1067
  991MOL0     C36658   8.895   4.022   2.485 -0.0440 -0.3965  0.2233
  991MOL0     C36659   8.881   4.031   2.336  0.8011 -0.7053  0.4469
  991MOL0     C36660   8.771   4.129   2.286 -0.3702  0.4161 -0.2748
  991MOL0     C36661   8.744   4.138   2.140  0.2746  1.1243  0.7494
  991MOL0     C36662   8.596   4.103   2.095 -0.6011  0.1684  0.4434
  991MOL0     C36663   8.598   4.069   1.943  0.1846 -0.6314 -0.7135
  991MOL0     C36664   8.454   4.088   1.884  0.0584  0.5901 -0.2373
  991MOL0    Cl36665   8.344   3.958   1.941  0.2127 -0.2660  0.3385
  991MOL0     C36666   8.912   4.372   2.755  0.6995 -0.1356 -0.3740
  991MOL0     C36667   8.913   4.455   2.864  0.3409 -0.8525 -0.0465
  991MOL0     O36668   8.988   4.696   3.030 -0.1048  0.5000 -0.1609
  991MOL0     C36669   8.992   4.599   3.353  0.3466  0.6638  0.2749
  991MOL0     C36670   8.975   4.630   3.490 -0.0283  1.0014 -0.3418
  991MOL0     N36671   8.921   5.127   4.032 -0.7581  0.1116  0.1198
  991MOL0     N36672   8.910   5.254   4.012  0.0880 -0.1746  0.3221
  991MOL0     C36673   8.102   5.640   3.237 -0.1351  0.2324  0.7388
  991MOL0     C36674   8.045   5.511   3.206  0.2084 -0.0449  0.5568
  991MOL0     C36675   8.008   5.042   3.226 -0.3623  0.2917 -0.0795
  991MOL0     C36676   7.904   4.967   3.301  0.0988 -0.3275  0.1719
  991MOL0     C36677   7.870   4.840   3.265 -0.5866  0.1358 -0.2765
  991MOL0     C36678   7.929   4.779   3.158 -0.1439  1.4196  0.7262
  991MOL0     O36679   7.908   4.649   3.126 -0.7620  0.2084  0.1721
  991MOL0     C36680   7.778   4.602   3.127 -0.0488  0.5892 -0.3529
  991MOL0     C36681   7.765   4.499   3.011 -0.4197  0.4300 -0.1781
  991MOL0     C36682   7.895   4.410   3.000 -0.6037 -0.1320  0.3306
  991MOL0     C36683   7.896   4.319   2.863  0.3367 -1.5386 -0.1810
  991MOL0     C36684   8.012   4.235   2.851  0.1929 -0.5755 -0.5464
  991MOL0     C36685   8.105   4.172   2.819  0.0229  0.5401 -0.1949
  991MOL0     C36686   8.021   4.851   3.081 -0.2872 -0.3664  1.2163
  991MOL0     C36687   8.066   4.984   3.112 -0.3251 -0.7049 -0.3009
  991MOL0     C36688   8.172   5.065   3.020  0.0283  0.5004  0.2638
  991MOL0     H36689   8.317   5.298   3.221 -2.6750 -0.9119 -0.9859
  991MOL0     H36690   8.424   5.509   3.268 -0.2367 -2.0149 -0.7821
  991MOL0     H36691   8.177   5.818   3.415 -0.4473  0.2972  2.0799
  991MOL0     H36692   8.334   5.903   3.400 -2.3765  0.8660 -0.2385
  991MOL0     H36693   8.302   5.627   3.519  0.6414  0.2170 -0.8545
  991MOL0     H36694   8.447   5.712   3.511  0.9497  0.0486  1.1435
  991MOL0     H36695   8.292   5.892   3.669 -3.0354 -0.1361  1.0749
  991MOL0     H36696   8.232   5.732   3.726  1.2301 -0.6459  1.8297
  991MOL0     H36697   8.513   5.814   3.750  1.9088 -1.2379  1.4258
  991MOL0     H36698   8.388   5.805   3.875  0.0150 -0.4216  0.3812
  991MOL0     H36699   8.432   5.556   3.713 -1.7771  2.4928 -0.8817
  991MOL0     H36700   8.342   5.565   3.862 -0.5247 -2.5898 -2.1799
  991MOL0     H36701   8.645   5.642   3.823  3.4173 -3.4006  3.1942
  991MOL0     H36702   8.552   5.662   3.973 -2.8726  0.9586 -1.8825
  991MOL0     H36703   8.621   5.414   3.801 -0.7505 -1.1505  0.8561
  991MOL0     H36704   8.511   5.409   3.939 -0.4309 -0.4246 -0.3204
  991MOL0     H36705   8.812   5.493   3.948  0.0998  1.2476 -0.0134
  991MOL0     H36706   8.723   5.460   4.085  1.8806  2.0345 -0.6883
  991MOL0     H36707   8.597   5.166   3.974  0.0461 -2.7129  2.1597
  991MOL0     H36708   8.659   4.914   3.973  1.1785 -0.2314 -0.2985
  991MOL0     H36709   8.761   4.888   4.115  1.5823 -0.5059  0.0800
  991MOL0     H36710   8.891   4.921   3.856  2.3361  1.2707  0.9599
  991MOL0     H36711   8.951   4.822   3.987 -0.9426 -1.6855  0.5799
  991MOL0     H36712   8.801   4.650   3.956  0.5152 -0.0888 -0.4918
  991MOL0     H36713   8.689   4.736   3.862 -0.2656 -3.7984  0.1072
  991MOL0     H36714   8.974   4.664   3.784  0.6063  4.8066 -0.3349
  991MOL0     H36715   8.816   4.601   3.704  1.9550  0.7154 -4.4711
  991MOL0     H36716   8.793   4.908   3.453  1.8711 -0.3008  3.6548
  991MOL0     H36717   8.905   4.958   3.162 -0.6907  2.2943  1.9328
  991MOL0     H36718   8.734   4.944   3.214 -0.9021 -0.5812 -1.1008
  991MOL0     H36719   8.816   4.850   3.076  1.3801  0.3872 -0.3009
  991MOL0     H36720   8.966   4.231   3.109 -1.5865  0.5765 -0.3256
  991MOL0     H36721   8.986   4.083   2.926  1.4719  0.4486  1.2740
  991MOL0     H36722   8.792   4.194   2.551 -0.2703 -1.8430 -4.2616
  991MOL0     H36723   8.957   4.238   2.497  1.1838  0.2596  0.9211
  991MOL0     H36724   8.987   3.970   2.513  0.2935  0.6083  1.0345
  991MOL0     H36725   8.807   3.972   2.528 -0.8016  0.2792 -0.5048
  991MOL0     H36726   8.859   3.929   2.305 -3.5711  0.4443 -1.0168
  991MOL0     H36727   8.974   4.077   2.302 -0.6641  3.4532  1.3783
  991MOL0     H36728   8.789   4.230   2.324  2.7318  0.2473 -1.0133
  991MOL0     H36729   8.678   4.101   2.337 -1.8876  1.1414 -2.4936
  991MOL0     H36730   8.767   4.233   2.091 -1.3836  1.1526 -0.0425
  991MOL0     H36731   8.804   4.060   2.093 -3.4879 -2.2961  1.0413
  991MOL0     H36732   8.527   4.184   2.120 -0.2742  0.2604  1.0830
  991MOL0     H36733   8.560   4.014   2.148 -3.5469 -0.7306 -2.7401
  991MOL0     H36734   8.620   3.967   1.912 -2.5137 -0.2809 -4.5085
  991MOL0     H36735   8.661   4.143   1.894 -0.4340 -1.1798 -2.3891
  991MOL0     H36736   8.463   4.081   1.775 -0.0192 -1.2504 -0.1548
  991MOL0     H36737   8.409   4.183   1.913 -0.6375  0.2113 -0.0564
  991MOL0     H36738   8.863   4.421   2.671 -0.4892 -0.3281  0.1806
  991MOL0     H36739   8.893   4.560   2.845  3.7812 -0.2741 -1.2359
  991MOL0     H36740   9.045   4.507   3.332  1.7054  2.0670 -3.2323
  991MOL0     H36741   9.012   4.548   3.550 -0.5472 -0.8158 -2.3831
  991MOL0     H36742   8.046   5.732   3.230 -1.2667 -0.2739  2.4753
  991MOL0     H36743   7.938   5.509   3.188  0.3805 -2.8883 -0.5439
  991MOL0     H36744   7.852   5.021   3.380  0.3627 -0.4399  0.4256
  991MOL0     H36745   7.793   4.795   3.327  0.7796 -0.1452  1.2979
  991MOL0     H36746   7.762   4.555   3.225 -1.9446  2.6464  0.4149
  991MOL0     H36747   7.710   4.687   3.117  2.1825  2.2369 -2.6001
  991MOL0     H36748   7.751   4.551   2.916  5.7440  1.2401 -1.0959
  991MOL0     H36749   7.681   4.437   3.041  1.4976 -2.7271 -0.9196
  991MOL0     H36750   7.986   4.470   2.998 -0.6638 -0.0368  0.4461
  991MOL0     H36751   7.898   4.341   3.085 -0.7416 -1.8188 -0.9723
  991MOL0     H36752   7.883   4.382   2.774 -1.7091  2.6518  2.7058
  991MOL0     H36753   7.802   4.263   2.867 -3.3739  3.8871  3.4854
  991MOL0     H36754   8.193   4.116   2.796  0.8169  2.6469 -2.8196
  991MOL0     H36755   8.054   4.807   2.987 -2.1230  0.6753  0.0142
  991MOL0     H36756   8.213   4.986   2.956 -0.5698 -0.1896  0.7196
  991MOL0     H36757   8.123   5.146   2.965  1.1709  0.9354 -0.1382
  991MOL0     H36758   8.259   5.108   3.070 -0.1444  3.7345 -1.9376
  992MOL0     O36759   9.974   7.095   1.783 -0.6244 -1.0313 -0.4147
  992MOL0     C36760   9.865   7.099   1.722 -0.5631  0.4653  0.0166
  992MOL0     O36761   9.854   7.090   1.589  0.6271 -0.4744 -0.5228
  992MOL0     C36762   9.955   7.105   1.497 -0.4877 -1.0539 -0.3933
  992MOL0     C36763  10.094   7.112   1.527 -0.4769 -0.3271  0.2509
  992MOL0     C36764  10.183   7.119   1.422 -0.0372  0.3840  0.0236
  992MOL0     C36765  10.145   7.121   1.292  0.4855  0.0386  0.6524
  992MOL0     O36766  10.242   7.134   1.196  0.9419 -0.0515  0.7053
  992MOL0     C36767  10.245   7.267   1.138 -0.8113  0.6774  0.0764
  992MOL0     C36768  10.304   7.362   1.240 -0.0090  0.2492 -0.8794
  992MOL0     C36769  10.307   7.504   1.193  0.1456 -0.0578 -0.2930
  992MOL0     C36770  10.337   7.605   1.302  0.3890 -0.4848 -0.7449
  992MOL0     C36771  10.337   7.745   1.238 -0.5313  0.2677  0.3662
  992MOL0     C36772  10.442   7.837   1.315  0.0145  0.0915 -0.9183
  992MOL0     C36773  10.458   7.964   1.225  0.3243 -1.2252 -0.2384
  992MOL0     C36774  10.328   8.053   1.221 -0.6460 -0.2369 -0.0351
  992MOL0     N36775  10.344   8.174   1.132 -0.3475  0.5272  0.2775
  992MOL0     C36776  10.303   8.188   1.002 -0.2497 -0.5328  0.3742
  992MOL0     C36777  10.335   8.306   0.957  1.4853  0.3793  0.0296
  992MOL0     C36778  10.289   8.354   0.812 -0.1475 -0.2915 -1.2024
  992MOL0     C36779  10.173   8.444   0.804  0.0604  0.8154  0.2514
  992MOL0     C36780  10.150   8.502   0.664 -0.5066 -0.1385 -0.0391
  992MOL0     C36781  10.133   8.409   0.545  0.2826 -0.0668 -0.2280
  992MOL0     O36782  10.064   8.288   0.589  0.1607  0.1152 -0.1093
  992MOL0     C36783  10.068   8.178   0.509 -0.5898  0.5359 -0.1989
  992MOL0     C36784   9.976   8.169   0.401  0.1136 -0.4524 -0.1407
  992MOL0     C36785   9.963   8.053   0.329  0.4871 -0.2021  0.1291
  992MOL0     C36786   9.861   8.055   0.219 -0.2811  0.1096 -0.8182
  992MOL0     C36787  10.041   7.944   0.357  1.3293  1.0806 -0.9228
  992MOL0     C36788  10.038   7.817   0.282 -0.3469 -0.3670  0.9926
  992MOL0     O36789  10.084   7.705   0.341 -0.5678  0.5628 -0.3718
  992MOL0     C36790  10.039   7.575   0.307  0.5414  0.6831  0.4099
  992MOL0     C36791   9.928   7.533   0.225  0.3367 -0.2137  0.2828
  992MOL0     C36792   9.891   7.399   0.194 -0.2667 -0.6942 -0.1679
  992MOL0     C36793   9.972   7.296   0.228 -0.1559  0.4571 -1.5035
  992MOL0     O36794   9.960   7.161   0.184 -0.8726 -0.4999  0.0545
  992MOL0     C36795   9.947   7.141   0.043  0.1113 -0.2696  0.2564
  992MOL0     C36796   9.884   7.000   0.011 -0.3494  0.0341  0.3456
  992MOL0     C36797   9.930   6.942  -0.125 -0.2291  0.3036  0.0603
  992MOL0     C36798   9.890   6.798  -0.155 -0.2315 -0.1943 -0.1709
  992MOL0     C36799   9.746   6.787  -0.230  0.4028  0.7365 -0.2857
  992MOL0     C36800   9.715   6.649  -0.294  0.4388 -0.3045 -0.4519
  992MOL0     C36801   9.839   6.581  -0.368  0.0647  0.0716 -0.5219
  992MOL0     C36802   9.785   6.461  -0.442  0.7751  0.2956 -0.0773
  992MOL0    Cl36803   9.924   6.382  -0.516  0.4629  0.4153  0.2106
  992MOL0     C36804  10.082   7.331   0.305  0.4146 -0.1115 -0.5584
  992MOL0     C36805  10.110   7.460   0.343  0.6235 -0.9004 -0.0547
  992MOL0     O36806   9.994   7.825   0.167  0.6564 -0.3822  0.3939
  992MOL0     C36807  10.132   7.959   0.469  0.1274 -0.2195 -0.3053
  992MOL0     C36808  10.150   8.071   0.548 -0.1209 -0.6077  0.1569
  992MOL0     N36809  10.408   8.370   1.056 -1.3602 -1.0245 -0.1334
  992MOL0     N36810  10.404   8.291   1.156  0.9255  0.5898  0.0608
  992MOL0     C36811  10.010   7.118   1.262 -0.4565 -0.0834  1.2095
  992MOL0     C36812   9.914   7.104   1.363 -0.6502 -1.1270  0.0462
  992MOL0     C36813   9.740   7.092   1.797  0.8893 -0.3396  0.3063
  992MOL0     C36814   9.617   7.090   1.716  0.4649 -0.7729  0.1214
  992MOL0     C36815   9.489   7.095   1.781 -0.5763 -0.1424  0.0700
  992MOL0     C36816   9.482   7.086   1.928  0.2325 -0.0825  0.3129
  992MOL0     O36817   9.367   7.074   2.009  0.2021 -0.2557 -0.0768
  992MOL0     C36818   9.244   7.044   1.940 -0.1151 -0.5470 -0.6486
  992MOL0     C36819   9.184   7.174   1.883  0.0940 -0.3171 -0.3142
  992MOL0     C36820   9.081   7.237   1.975 -0.0243 -0.6097  0.5142
  992MOL0     C36821   9.039   7.378   1.940 -0.3504  0.3405 -0.6187
  992MOL0     C36822   8.970   7.465   2.042  0.4696  0.4238  0.1138
  992MOL0     C36823   8.897   7.541   2.105 -0.3059  0.9632 -0.9415
  992MOL0     C36824   9.605   7.094   1.998  0.6104 -0.0297  0.7463
  992MOL0     C36825   9.733   7.100   1.943 -0.4578  0.0364 -0.1865
  992MOL0     C36826   9.846   7.110   2.044  0.1400  0.5661 -0.3603
  992MOL0     H36827  10.147   7.103   1.622 -0.5818  1.6075  0.5252
  992MOL0     H36828  10.288   7.126   1.447 -0.3426  1.9147  0.9771
  992MOL0     H36829  10.147   7.291   1.095 -1.1828 -0.4349  0.2618
  992MOL0     H36830  10.322   7.251   1.061  0.7695 -0.7732  1.8496
  992MOL0     H36831  10.245   7.349   1.330  2.0575 -5.0732  0.1374
  992MOL0     H36832  10.402   7.340   1.284 -0.4239  2.5105  1.4025
  992MOL0     H36833  10.391   7.513   1.125 -0.1928  3.4128 -0.4247
  992MOL0     H36834  10.222   7.533   1.131 -1.4923 -0.1537  1.8022
  992MOL0     H36835  10.254   7.582   1.369 -0.2702  0.2328 -1.3070
  992MOL0     H36836  10.434   7.582   1.347  0.0769  1.2144  0.9031
  992MOL0     H36837  10.241   7.795   1.249 -0.0786  1.4143 -0.6894
  992MOL0     H36838  10.362   7.726   1.134 -0.0934  2.1009  0.1126
  992MOL0     H36839  10.398   7.862   1.413  0.7322  0.5198 -0.6949
  992MOL0     H36840  10.534   7.778   1.321  1.3244  1.7510 -3.1587
  992MOL0     H36841  10.493   7.933   1.126  3.4295 -0.9539  0.6707
  992MOL0     H36842  10.537   8.028   1.266  0.8785 -2.8757  1.4298
  992MOL0     H36843  10.241   7.993   1.192 -0.7004 -0.8179  1.2511
  992MOL0     H36844  10.311   8.080   1.325 -0.4054 -0.1837 -0.0096
  992MOL0     H36845  10.237   8.114   0.960  0.2935 -0.5714 -0.4349
  992MOL0     H36846  10.277   8.259   0.759 -0.5252  0.4098 -2.4036
  992MOL0     H36847  10.378   8.410   0.780  0.9570  0.8215  3.1393
  992MOL0     H36848  10.079   8.392   0.823  0.1537  0.6069  0.1411
  992MOL0     H36849  10.181   8.531   0.869  0.8154  1.5683 -0.8028
  992MOL0     H36850  10.060   8.564   0.663 -0.8211 -0.5039  1.7455
  992MOL0     H36851  10.232   8.573   0.648 -0.7329  0.2344  0.4266
  992MOL0     H36852  10.076   8.464   0.470 -1.0700  0.2997  1.0450
  992MOL0     H36853  10.229   8.377   0.503  0.1002  0.1472 -0.8086
  992MOL0     H36854   9.923   8.262   0.383 -0.3191 -0.2792  1.8407
  992MOL0     H36855   9.908   8.050   0.121 -0.6249  2.8657 -1.2165
  992MOL0     H36856   9.805   8.148   0.230 -0.2922 -0.0709  0.9520
  992MOL0     H36857   9.791   7.971   0.226  1.5118 -1.4165 -0.4452
  992MOL0     H36858   9.863   7.615   0.196  0.6774  0.4960  1.4788
  992MOL0     H36859   9.806   7.386   0.127  1.2282  2.7778 -3.0702
  992MOL0     H36860   9.885   7.222   0.004  1.8551  1.1906  0.3858
  992MOL0     H36861  10.048   7.141  -0.000 -1.3902 -2.9207 -3.8234
  992MOL0     H36862   9.927   6.933   0.086 -0.5987  0.3988  0.8178
  992MOL0     H36863   9.776   6.998   0.026 -0.0102 -2.5575  3.5171
  992MOL0     H36864  10.040   6.942  -0.131 -0.1917 -2.6341 -0.4686
  992MOL0     H36865   9.877   7.009  -0.193 -2.7510 -1.3212  0.2902
  992MOL0     H36866   9.886   6.731  -0.069  2.1923 -0.1816  0.0262
  992MOL0     H36867   9.972   6.753  -0.212  1.6956  0.3800  1.9919
  992MOL0     H36868   9.669   6.841  -0.174  0.5816  0.8418 -0.1451
  992MOL0     H36869   9.743   6.855  -0.316  2.3525  0.4979 -0.5915
  992MOL0     H36870   9.635   6.651  -0.368 -1.3374  0.4874  1.3939
  992MOL0     H36871   9.669   6.584  -0.219  0.2269 -1.4371 -1.5307
  992MOL0     H36872   9.921   6.567  -0.297 -1.7818 -0.4955  1.6192
  992MOL0     H36873   9.869   6.650  -0.447 -2.1636  0.7710 -0.8339
  992MOL0     H36874   9.713   6.491  -0.519  0.0765 -2.0883 -0.4118
  992MOL0     H36875   9.734   6.394  -0.373 -1.9524  2.9201  0.7010
  992MOL0     H36876  10.142   7.249   0.343 -2.1852 -1.8785 -0.0056
  992MOL0     H36877  10.196   7.477   0.407  0.2342  0.3149  0.1659
  992MOL0     H36878  10.195   7.877   0.500 -2.4315 -2.6470 -1.1859
  992MOL0     H36879  10.211   8.072   0.637 -1.9967  1.7148  1.5196
  992MOL0     H36880   9.996   7.126   1.154 -1.2416 -0.1029  1.3026
  992MOL0     H36881   9.811   7.124   1.335  0.3026 -0.4823 -3.3827
  992MOL0     H36882   9.612   7.100   1.608 -2.8474 -0.1574  0.2258
  992MOL0     H36883   9.399   7.123   1.728  0.3824  2.7211 -0.2249
  992MOL0     H36884   9.253   6.969   1.861 -3.9045  0.3030 -2.1073
  992MOL0     H36885   9.166   6.999   2.002  0.0452 -0.3742 -0.3193
  992MOL0     H36886   9.123   7.145   1.796 -2.8371  1.9603  0.8180
  992MOL0     H36887   9.261   7.246   1.856 -1.8594  1.6634 -0.8507
  992MOL0     H36888   9.002   7.164   1.997  0.3028 -0.5661  1.9001
  992MOL0     H36889   9.131   7.244   2.072 -0.9551 -1.9076  1.1130
  992MOL0     H36890   8.984   7.383   1.846  2.4574 -0.2395 -2.3772
  992MOL0     H36891   9.130   7.430   1.910 -0.7989 -0.1336 -2.9996
  992MOL0     H36892   8.829   7.600   2.163 -1.8306 -1.0090 -0.6080
  992MOL0     H36893   9.594   7.107   2.105  0.9557  2.6114  0.5253
  992MOL0     H36894   9.813   7.128   2.147  4.9052  0.9487  1.3569
  992MOL0     H36895   9.891   7.011   2.056 -0.6983  0.2614  0.4088
  992MOL0     H36896   9.914   7.189   2.014  1.6827  0.8163  3.2574
  993MOL0     O36897   7.929   6.054   4.164 -0.0832  0.1561  0.7225
  993MOL0     C36898   8.013   6.057   4.075  0.3579  1.1701 -1.2567
  993MOL0     O36899   8.085   5.953   4.041  0.0295  0.0297 -0.7350
  993MOL0     C36900   8.110   5.842   4.120 -0.1192  0.2854  0.1307
  993MOL0     C36901   8.022   5.724   4.105 -0.7057 -0.3858 -0.7859
  993MOL0     C36902   8.040   5.609   4.182  0.3859  0.1175  0.0601
  993MOL0     C36903   8.143   5.604   4.278 -0.2550  0.8510  0.4011
  993MOL0     O36904   8.180   5.500   4.363  0.7008 -1.0095 -0.2537
  993MOL0     C36905   8.154   5.368   4.306  0.3134  0.0784 -0.2711
  993MOL0     C36906   8.190   5.250   4.402  0.5285  0.2808  0.7209
  993MOL0     C36907   8.122   5.266   4.544  0.5080 -0.1620 -0.1863
  993MOL0     C36908   7.971   5.246   4.549 -0.0846 -0.4954  0.0011
  993MOL0     C36909   7.907   5.358   4.645 -0.7897  0.6369  0.3097
  993MOL0     C36910   7.907   5.503   4.581 -2.1161  0.0192 -1.0667
  993MOL0     C36911   7.799   5.524   4.482 -0.4268  0.0405  0.2763
  993MOL0     C36912   7.789   5.672   4.428 -0.8304  0.5732 -0.2519
  993MOL0     N36913   7.711   5.687   4.298 -0.1316  0.1170  0.6112
  993MOL0     C36914   7.691   5.802   4.233  1.0277  0.4437  0.0988
  993MOL0     C36915   7.654   5.772   4.101  0.1774 -0.1065 -0.8659
  993MOL0     C36916   7.636   5.871   3.992  0.5097 -1.0139 -0.0149
  993MOL0     C36917   7.534   5.987   4.010  0.5718 -0.1377  0.7903
  993MOL0     C36918   7.569   6.104   3.913 -0.1773 -0.1568 -0.5021
  993MOL0     C36919   7.545   6.069   3.768 -0.1377 -0.5682  0.6081
  993MOL0     O36920   7.407   6.072   3.734 -1.5016  1.2102  0.0767
  993MOL0     C36921   7.365   6.056   3.604 -0.9956  0.2290 -0.6630
  993MOL0     C36922   7.420   5.945   3.519  0.3013 -1.0030 -0.6939
  993MOL0     C36923   7.378   5.922   3.397  1.2160 -0.2715  0.9461
  993MOL0     C36924   7.455   5.814   3.320  0.1919  1.3143  0.3181
  993MOL0     C36925   7.270   6.001   3.343 -0.4622 -0.7977  0.7586
  993MOL0     C36926   7.211   5.974   3.205  0.0608 -0.4653  0.3630
  993MOL0     O36927   7.098   6.041   3.181 -0.5784 -0.5207  0.8652
  993MOL0     C36928   7.036   6.022   3.061  0.1094  0.1465 -0.2631
  993MOL0     C36929   7.063   6.104   2.950  0.3024  0.0527  0.1190
  993MOL0     C36930   7.002   6.091   2.827 -0.8006 -0.9651  0.4702
  993MOL0     C36931   6.912   5.983   2.805 -0.1497 -0.5752 -0.8874
  993MOL0     O36932   6.858   5.947   2.688 -0.2337  0.0816 -0.5537
  993MOL0     C36933   6.961   5.956   2.584  0.6455 -0.2362  0.6232
  993MOL0     C36934   6.910   5.858   2.472 -1.1141 -0.2012 -0.1425
  993MOL0     C36935   6.978   5.878   2.339  0.0482 -0.0187  0.2960
  993MOL0     C36936   6.920   5.984   2.243 -0.5656  0.5204 -0.3738
  993MOL0     C36937   6.982   5.996   2.096  0.2908  0.6614 -1.1097
  993MOL0     C36938   7.127   6.018   2.076 -0.5477  0.4153  0.2625
  993MOL0     C36939   7.167   5.994   1.927  0.8595  0.0336 -0.6888
  993MOL0     C36940   7.310   6.012   1.901  0.4153  0.1243 -0.7611
  993MOL0    Cl36941   7.414   5.954   2.035  0.4721  0.3718 -0.0690
  993MOL0     C36942   6.887   5.898   2.908 -0.9991  1.1722  0.4979
  993MOL0     C36943   6.942   5.928   3.037  0.2837 -0.2573  0.6914
  993MOL0     O36944   7.271   5.909   3.121 -0.4291  0.2070 -0.2497
  993MOL0     C36945   7.204   6.098   3.429  0.0894 -0.3378 -0.7228
  993MOL0     C36946   7.260   6.131   3.557  0.1596  0.1903  0.0826
  993MOL0     N36947   7.629   5.634   4.095 -1.6140 -0.3126  0.0490
  993MOL0     N36948   7.681   5.589   4.209 -0.1639 -0.5282  0.0133
  993MOL0     C36949   8.224   5.720   4.297  0.0596 -0.4982 -0.2727
  993MOL0     C36950   8.216   5.833   4.216 -1.0450 -0.1146  0.7113
  993MOL0     C36951   8.005   6.182   3.994 -0.2346  0.3459  0.4812
  993MOL0     C36952   8.015   6.301   4.057  0.2767 -0.5936  0.5621
  993MOL0     C36953   8.020   6.424   3.994  0.4325 -0.0083  0.3322
  993MOL0     C36954   8.024   6.416   3.855  0.1972  1.0439 -0.2002
  993MOL0     O36955   8.013   6.540   3.793 -0.0177  0.7878 -0.6820
  993MOL0     C36956   8.040   6.548   3.654  0.0504  0.6989  0.0785
  993MOL0     C36957   7.911   6.536   3.573 -0.4032  0.4255 -0.7394
  993MOL0     C36958   7.938   6.626   3.445  0.2805 -0.2905 -0.4537
  993MOL0     C36959   7.859   6.560   3.331 -0.9115  0.4045  0.2810
  993MOL0     C36960   7.942   6.534   3.213 -0.7641  0.2988 -0.1114
  993MOL0     C36961   8.013   6.499   3.123 -0.4925 -0.0197  0.4314
  993MOL0     C36962   8.014   6.294   3.785  0.8509 -1.2663 -1.0126
  993MOL0     C36963   7.996   6.178   3.853  0.1786  0.7857  0.2989
  993MOL0     C36964   7.951   6.048   3.786 -0.7351  0.5321 -0.1530
  993MOL0     H36965   7.949   5.710   4.026 -2.2223 -0.0304  0.4908
  993MOL0     H36966   7.969   5.532   4.156 -3.2556  2.8949  1.0061
  993MOL0     H36967   8.208   5.351   4.212 -0.6349  0.9609 -1.0049
  993MOL0     H36968   8.045   5.359   4.301  0.4926 -2.1633 -1.6054
  993MOL0     H36969   8.166   5.156   4.353 -2.3829  0.2968  1.9136
  993MOL0     H36970   8.296   5.242   4.428  0.9513  0.2399 -0.8911
  993MOL0     H36971   8.152   5.176   4.599  1.7229  1.8456  2.6194
  993MOL0     H36972   8.161   5.355   4.592  2.5470 -1.1690  0.1365
  993MOL0     H36973   7.921   5.249   4.451 -4.5887 -0.3569  2.0722
  993MOL0     H36974   7.948   5.150   4.594  0.0368  0.1124  1.4029
  993MOL0     H36975   7.960   5.346   4.740 -3.2109 -2.3182  1.5081
  993MOL0     H36976   7.804   5.323   4.661 -0.5095 -1.0248 -1.1524
  993MOL0     H36977   7.879   5.565   4.667 -2.3033 -0.6963 -0.6015
  993MOL0     H36978   8.003   5.539   4.542 -2.6060  2.9332  0.1641
  993MOL0     H36979   7.707   5.484   4.526 -0.2611 -0.4469  0.1779
  993MOL0     H36980   7.833   5.462   4.399  0.9270  2.9911 -1.5448
  993MOL0     H36981   7.750   5.740   4.504  1.7105  0.1664  1.5498
  993MOL0     H36982   7.889   5.711   4.409 -0.5733 -1.2330 -3.3616
  993MOL0     H36983   7.719   5.902   4.265  0.7265  1.7533 -3.3311
  993MOL0     H36984   7.619   5.819   3.897  0.0414 -0.7374 -0.0841
  993MOL0     H36985   7.734   5.918   3.983  0.3347 -0.5027  0.6935
  993MOL0     H36986   7.440   5.935   3.991  1.3555 -1.2645 -0.1690
  993MOL0     H36987   7.540   6.026   4.112 -0.1002  1.7081  0.1608
  993MOL0     H36988   7.503   6.187   3.941 -0.3020 -1.0269  2.0403
  993MOL0     H36989   7.672   6.135   3.932 -0.0356 -2.2814  3.3106
  993MOL0     H36990   7.597   6.147   3.711 -2.9834  1.9334  1.1062
  993MOL0     H36991   7.591   5.972   3.753 -1.6000 -1.9190  3.9210
  993MOL0     H36992   7.503   5.887   3.557  1.1193  1.9398  2.5333
  993MOL0     H36993   7.517   5.748   3.381 -1.2565 -0.1463  0.2632
  993MOL0     H36994   7.521   5.864   3.249 -0.4789 -1.2034 -2.2629
  993MOL0     H36995   7.383   5.752   3.265 -0.1740 -1.3626  3.5332
  993MOL0     H36996   7.126   6.189   2.971 -1.3512  1.0727  1.1762
  993MOL0     H36997   7.033   6.157   2.746  0.9544 -0.1503  1.7307
  993MOL0     H36998   6.977   6.053   2.537  2.5678 -0.5150  0.6285
  993MOL0     H36999   7.057   5.920   2.622  1.7135  1.5653 -0.2129
  993MOL0     H37000   6.927   5.758   2.512  2.8691  0.4574  0.2772
  993MOL0     H37001   6.804   5.874   2.452 -0.9548 -2.3921 -3.6328
  993MOL0     H37002   6.971   5.781   2.289 -1.4879  0.7236 -1.0158
  993MOL0     H37003   7.087   5.882   2.349  0.3165 -2.2860 -0.9222
  993MOL0     H37004   6.928   6.083   2.289  2.0716 -0.1909  0.8590
  993MOL0     H37005   6.813   5.977   2.222 -0.0972 -0.6579 -2.6695
  993MOL0     H37006   6.947   5.900   2.057  0.8000 -0.2659  0.6086
  993MOL0     H37007   6.919   6.074   2.051 -2.9940 -0.9628  0.3370
  993MOL0     H37008   7.189   5.960   2.145  0.4981  0.3976 -0.6562
  993MOL0     H37009   7.151   6.121   2.104 -0.0033 -0.4708  3.4028
  993MOL0     H37010   7.099   6.058   1.870 -1.5439 -0.3988  1.5266
  993MOL0     H37011   7.140   5.889   1.916 -1.5698  0.5988 -0.7305
  993MOL0     H37012   7.333   6.119   1.899  2.0828 -0.1531  0.9938
  993MOL0     H37013   7.334   5.964   1.806 -0.8345  0.3664 -1.2106
  993MOL0     H37014   6.820   5.819   2.876 -2.2268  2.5671 -0.5215
  993MOL0     H37015   6.918   5.853   3.112  0.9140 -2.3783 -1.1322
  993MOL0     H37016   7.124   6.163   3.395  0.0023  0.0695  0.2018
  993MOL0     H37017   7.214   6.212   3.614 -0.9021 -0.3622  0.0364
  993MOL0     H37018   8.289   5.740   4.382  0.7683  0.8495 -1.0919
  993MOL0     H37019   8.271   5.925   4.232 -1.0502  0.1097 -0.4704
  993MOL0     H37020   8.007   6.297   4.165 -1.5870  1.1891  0.5529
  993MOL0     H37021   8.024   6.515   4.053  1.8770 -0.0075  0.2725
  993MOL0     H37022   8.087   6.646   3.646 -0.7507  1.0986  0.0926
  993MOL0     H37023   8.108   6.468   3.621 -3.5805 -2.8695  0.3808
  993MOL0     H37024   7.823   6.577   3.625 -1.3028  0.3028 -2.1198
  993MOL0     H37025   7.888   6.431   3.556 -3.5135  0.9923 -0.6734
  993MOL0     H37026   7.900   6.727   3.465  2.5371  0.4960  0.1200
  993MOL0     H37027   8.045   6.635   3.425  0.5237 -1.5078  0.2092
  993MOL0     H37028   7.793   6.638   3.292 -1.8856 -0.9710 -0.8928
  993MOL0     H37029   7.790   6.477   3.349 -2.9561  2.6508  4.4067
  993MOL0     H37030   8.078   6.449   3.054 -0.2861  1.2735 -0.3311
  993MOL0     H37031   8.008   6.288   3.677 -0.4869 -3.1056 -0.8689
  993MOL0     H37032   7.899   5.988   3.861  3.6347 -0.2976  2.5929
  993MOL0     H37033   7.891   6.076   3.699  4.6722  2.9317 -3.6269
  993MOL0     H37034   8.037   5.988   3.755 -0.2069  0.0447  2.1060
  994MOL0     O37035  10.387   1.320   4.608 -0.1540 -0.4270  0.9014
  994MOL0     C37036  10.288   1.307   4.536  0.3962  0.0620 -1.3074
  994MOL0     O37037  10.191   1.228   4.576 -0.0374 -0.3118 -0.6464
  994MOL0     C37038  10.191   1.163   4.703 -0.0510 -0.9212 -1.4757
  994MOL0     C37039  10.064   1.164   4.778 -0.2843 -0.1928  0.9112
  994MOL0     C37040  10.059   1.086   4.903 -0.2809  0.3765  0.6143
  994MOL0     C37041  10.164   1.009   4.942  0.2003  0.6341 -0.4253
  994MOL0     O37042  10.168   0.927   5.050  0.3860  0.8293  0.6000
  994MOL0     C37043  10.042   0.890   5.108 -0.2670 -1.0210 -0.3489
  994MOL0     C37044  10.046   0.756   5.182 -0.3918  0.1947 -0.2392
  994MOL0     C37045  10.102   0.640   5.094  0.5308  0.5801 -0.0850
  994MOL0     C37046  10.031   0.617   4.961  0.9869 -0.1024 -0.1982
  994MOL0     C37047   9.893   0.561   4.964 -0.1854 -0.2740 -0.1135
  994MOL0     C37048   9.832   0.549   4.826 -0.1341 -0.6894  0.5482
  994MOL0     C37049   9.711   0.456   4.831 -0.1185 -0.1029 -1.1728
  994MOL0     C37050   9.627   0.473   4.701  1.0629 -0.6682 -0.4969
  994MOL0     N37051   9.680   0.403   4.585 -0.0459 -1.0395 -0.2871
  994MOL0     C37052   9.754   0.285   4.573 -0.0846 -0.7558 -1.2984
  994MOL0     C37053   9.772   0.270   4.437  1.2667 -0.0180 -0.7701
  994MOL0     C37054   9.849   0.164   4.351 -0.6501 -0.3813  0.1307
  994MOL0     C37055   9.986   0.130   4.420 -0.7712 -0.2905  0.1648
  994MOL0     C37056  10.076   0.257   4.436 -0.9025 -0.5042 -0.4805
  994MOL0     C37057  10.226   0.224   4.481 -1.2842  0.7662  0.2317
  994MOL0     O37058  10.230   0.190   4.618  0.6893  0.3134  0.1181
  994MOL0     C37059  10.335   0.110   4.654  0.7161 -0.5791  0.1515
  994MOL0     C37060  10.296  -0.000   4.729  0.2915  0.1266  0.5152
  994MOL0     C37061  10.394  -0.077   4.791  0.8869  0.1749 -0.0964
  994MOL0     C37062  10.330  -0.192   4.866  0.2923  0.5047  0.4840
  994MOL0     C37063  10.530  -0.042   4.787 -0.9724  0.2102 -0.1006
  994MOL0     C37064  10.635  -0.112   4.873 -0.0008  0.1735  0.1271
  994MOL0     O37065  10.613  -0.092   5.016 -1.2706 -0.0983  0.4722
  994MOL0     C37066  10.705  -0.155   5.097 -0.3600  0.3336  0.2422
  994MOL0     C37067  10.672  -0.287   5.138  0.7960 -1.0165 -0.0048
  994MOL0     C37068  10.777  -0.370   5.181  0.1404 -0.9378  0.0921
  994MOL0     C37069  10.911  -0.332   5.181 -0.3191 -1.4794  0.1983
  994MOL0     O37070  11.002  -0.394   5.264  0.2478 -0.3718 -0.2113
  994MOL0     C37071  11.086  -0.480   5.188  0.0099 -0.3411  0.0541
  994MOL0     C37072  11.225  -0.481   5.254 -0.3877 -0.9901 -0.6221
  994MOL0     C37073  11.279  -0.349   5.211  1.2402 -0.0581 -0.4095
  994MOL0     C37074  11.412  -0.320   5.281 -0.4552 -0.2086  0.5327
  994MOL0     C37075  11.535  -0.336   5.197  0.8208 -0.3336 -0.1994
  994MOL0     C37076  11.661  -0.301   5.283 -1.0520 -1.5917  0.4419
  994MOL0     C37077  11.797  -0.286   5.208 -0.4186  0.4252  0.1258
  994MOL0     C37078  11.833  -0.404   5.118 -1.0808  0.7013  1.0409
  994MOL0    Cl37079  11.818  -0.575   5.202 -0.1340  0.1364  0.5261
  994MOL0     C37080  10.942  -0.201   5.147  0.0496 -1.2753 -0.7157
  994MOL0     C37081  10.841  -0.116   5.098  0.7422 -0.0693 -0.7230
  994MOL0     O37082  10.739  -0.156   4.828 -0.3009 -1.1167  0.9712
  994MOL0     C37083  10.572   0.073   4.709  0.1209 -0.5753 -0.1916
  994MOL0     C37084  10.471   0.141   4.639  0.1292 -0.3635  0.2656
  994MOL0     N37085   9.712   0.380   4.379 -0.2109 -0.2760 -1.1526
  994MOL0     N37086   9.663   0.453   4.463  0.0739  0.5102  0.3225
  994MOL0     C37087  10.294   1.020   4.878 -0.4224 -0.5205 -0.9295
  994MOL0     C37088  10.299   1.091   4.759  0.2295 -0.1569 -0.9250
  994MOL0     C37089  10.274   1.388   4.417  0.6273  0.4705  0.1506
  994MOL0     C37090  10.366   1.490   4.377 -0.6455 -0.4172  0.6644
  994MOL0     C37091  10.320   1.586   4.283  0.8552 -0.5603 -0.4466
  994MOL0     C37092  10.210   1.568   4.195 -0.9148  0.8212  0.6581
  994MOL0     O37093  10.188   1.652   4.087 -0.2712 -0.0000 -0.0270
  994MOL0     C37094  10.191   1.588   3.962  0.8994 -0.5892 -0.0147
  994MOL0     C37095  10.041   1.599   3.902  0.5350 -0.0850  0.4641
  994MOL0     C37096  10.033   1.520   3.764 -0.5519  0.3245  0.2261
  994MOL0     C37097  10.044   1.620   3.647  0.8691  0.4571  0.0745
  994MOL0     C37098  10.080   1.554   3.522  0.0382 -0.2701 -0.4368
  994MOL0     C37099  10.084   1.487   3.428 -0.5954  0.4672  0.5850
  994MOL0     C37100  10.129   1.464   4.225  0.3637 -1.1011 -0.6284
  994MOL0     C37101  10.162   1.369   4.322  0.2362  0.0958 -0.6625
  994MOL0     C37102  10.065   1.260   4.320  0.0001 -0.2144  0.6014
  994MOL0     H37103   9.979   1.215   4.736 -1.0592 -0.8326  1.6630
  994MOL0     H37104   9.974   1.083   4.969 -0.8230 -1.8334 -0.0995
  994MOL0     H37105   9.972   0.889   5.023  0.2127  1.5075 -0.8660
  994MOL0     H37106  10.007   0.972   5.172 -0.8021  1.6090 -3.7233
  994MOL0     H37107  10.110   0.775   5.269 -0.7494  1.8312 -0.3024
  994MOL0     H37108   9.951   0.722   5.225 -0.3666 -1.4615 -1.4320
  994MOL0     H37109  10.203   0.665   5.060  1.4114 -2.6104 -0.1621
  994MOL0     H37110  10.102   0.545   5.149 -1.4342 -0.1410 -1.2255
  994MOL0     H37111  10.030   0.714   4.911  0.5467 -0.2795 -0.5400
  994MOL0     H37112  10.088   0.547   4.900  1.0811 -0.6628  0.5158
  994MOL0     H37113   9.833   0.627   5.027  0.3214 -1.2056  1.4067
  994MOL0     H37114   9.894   0.459   5.004  1.1585 -2.0446 -4.1038
  994MOL0     H37115   9.803   0.647   4.788 -0.5726 -0.5107  1.3273
  994MOL0     H37116   9.909   0.516   4.756  1.0599 -0.9966  1.9470
  994MOL0     H37117   9.650   0.456   4.921 -0.4790 -1.8335 -1.3906
  994MOL0     H37118   9.765   0.361   4.828  1.1688  0.5894 -0.4853
  994MOL0     H37119   9.531   0.428   4.729  1.5564  0.7087  4.3399
  994MOL0     H37120   9.622   0.576   4.667  1.3222 -0.5462 -0.1673
  994MOL0     H37121   9.786   0.224   4.657  1.3792  1.5598 -0.0719
  994MOL0     H37122   9.863   0.197   4.248  2.0422  1.2747  0.9171
  994MOL0     H37123   9.797   0.069   4.339 -2.3880  0.7709 -2.4278
  994MOL0     H37124   9.969   0.081   4.516 -3.0635  0.9519  0.4793
  994MOL0     H37125  10.046   0.063   4.358 -1.4382  0.2379 -1.0942
  994MOL0     H37126  10.069   0.312   4.342 -3.4979 -1.5442 -0.9812
  994MOL0     H37127  10.055   0.337   4.507 -1.0019  0.6006 -1.7094
  994MOL0     H37128  10.269   0.145   4.418 -2.0474  2.4200 -2.5771
  994MOL0     H37129  10.287   0.313   4.461  1.6211 -0.2713  3.5182
  994MOL0     H37130  10.192  -0.014   4.755  0.7312  0.1601  2.4206
  994MOL0     H37131  10.304  -0.273   4.796 -0.6931  1.3636 -0.1758
  994MOL0     H37132  10.238  -0.154   4.910  0.9584  2.3687  0.3289
  994MOL0     H37133  10.394  -0.234   4.944 -0.7937 -2.6055 -0.1410
  994MOL0     H37134  10.569  -0.322   5.134  0.8021 -0.9493 -2.7121
  994MOL0     H37135  10.755  -0.472   5.210 -0.9092 -1.4148 -2.1329
  994MOL0     H37136  11.055  -0.585   5.202  2.3640 -1.1098 -0.0787
  994MOL0     H37137  11.081  -0.450   5.083 -1.7877  0.6962  0.4003
  994MOL0     H37138  11.200  -0.479   5.360  1.3788 -0.7689 -0.1871
  994MOL0     H37139  11.279  -0.570   5.222 -3.8553 -2.5434 -2.7463
  994MOL0     H37140  11.207  -0.274   5.246 -2.1454 -3.3811  0.4285
  994MOL0     H37141  11.288  -0.344   5.102 -1.0649 -0.4123 -0.6728
  994MOL0     H37142  11.408  -0.382   5.371  0.0460 -1.8597 -0.5570
  994MOL0     H37143  11.419  -0.216   5.315 -0.7324 -0.3101  0.9063
  994MOL0     H37144  11.548  -0.440   5.164  1.4210 -1.0247  2.0608
  994MOL0     H37145  11.530  -0.277   5.105  3.6308  1.0590  0.4261
  994MOL0     H37146  11.677  -0.384   5.352  1.5605 -2.1189 -0.6482
  994MOL0     H37147  11.642  -0.210   5.340  1.3585  0.6086 -1.9412
  994MOL0     H37148  11.875  -0.275   5.284  1.6614 -1.9516 -1.5201
  994MOL0     H37149  11.790  -0.194   5.150 -1.8298 -1.0939 -2.2709
  994MOL0     H37150  11.933  -0.403   5.072 -0.8548  0.5275  1.5197
  994MOL0     H37151  11.770  -0.404   5.029 -2.4770  3.0796  1.9598
  994MOL0     H37152  11.045  -0.168   5.149 -0.5826  0.8648 -1.1608
  994MOL0     H37153  10.860  -0.016   5.060 -3.1266 -0.2609 -3.6749
  994MOL0     H37154  10.677   0.104   4.709 -0.2036  0.5807  0.2207
  994MOL0     H37155  10.492   0.233   4.586 -0.5204  0.0590  0.7282
  994MOL0     H37156  10.384   0.967   4.908  1.3503  3.3279  1.2408
  994MOL0     H37157  10.389   1.084   4.698  0.2594  1.2489 -1.0711
  994MOL0     H37158  10.460   1.509   4.429  0.5064  2.1222 -2.0105
  994MOL0     H37159  10.389   1.669   4.271  1.6454 -1.2645 -0.8899
  994MOL0     H37160  10.272   1.620   3.897  1.9141 -3.8058 -0.4810
  994MOL0     H37161  10.209   1.480   3.972  1.1891 -0.5802 -0.4194
  994MOL0     H37162  10.011   1.702   3.880 -0.2055 -0.9024 -3.0673
  994MOL0     H37163   9.982   1.557   3.983  1.6867 -1.8031  0.4530
  994MOL0     H37164  10.117   1.450   3.757  0.0746  1.1382 -0.7047
  994MOL0     H37165   9.945   1.456   3.756 -0.2674 -0.0867  0.3213
  994MOL0     H37166  10.118   1.695   3.675  0.3366  0.1718  2.4193
  994MOL0     H37167   9.948   1.670   3.632  0.5590 -0.0723  0.2710
  994MOL0     H37168  10.107   1.432   3.340  0.5205 -1.0448  1.7722
  994MOL0     H37169  10.031   1.465   4.178 -0.8269  2.6122  1.4957
  994MOL0     H37170  10.046   1.237   4.214  4.3087 -1.7939 -0.0284
  994MOL0     H37171  10.106   1.165   4.356  0.5752 -0.3288 -0.3201
  994MOL0     H37172   9.976   1.288   4.376 -1.2764 -0.1329 -1.3649
  995MOL0     O37173   4.599   9.805   9.553 -0.5074  0.0706 -0.2661
  995MOL0     C37174   4.681   9.754   9.473  0.5129  0.1329  0.0914
  995MOL0     O37175   4.648   9.688   9.359 -0.2148 -0.7293  0.0358
  995MOL0     C37176   4.519   9.668   9.331  0.7868  1.2393 -0.9935
  995MOL0     C37177   4.454   9.711   9.216 -0.3366 -0.0800  0.0593
  995MOL0     C37178   4.325   9.677   9.190  1.2800 -0.5039 -0.1230
  995MOL0     C37179   4.254   9.587   9.279 -0.0531  0.5049  0.6729
  995MOL0     O37180   4.134   9.537   9.252 -0.4246  0.1216 -0.0874
  995MOL0     C37181   4.032   9.621   9.217  0.7514  0.1674  0.4372
  995MOL0     C37182   3.959   9.676   9.332  0.1951  0.9519 -0.3056
  995MOL0     C37183   3.872   9.576   9.405  0.7129  0.6089  0.7609
  995MOL0     C37184   3.940   9.471   9.476  0.4490 -0.2647  0.4307
  995MOL0     C37185   3.845   9.404   9.581 -0.1447  0.0558  0.2723
  995MOL0     C37186   3.896   9.273   9.624  0.2953  0.0895  0.2801
  995MOL0     C37187   3.844   9.211   9.759  0.1674  0.3738  0.1977
  995MOL0     C37188   3.889   9.069   9.759  0.1914 -0.0563 -0.3854
  995MOL0     N37189   4.037   9.054   9.750 -0.3125 -0.7619 -0.0203
  995MOL0     C37190   4.129   9.031   9.850  0.6011 -0.1643 -0.3882
  995MOL0     C37191   4.251   9.023   9.788 -0.0574 -0.2811  0.2721
  995MOL0     C37192   4.386   9.025   9.843 -0.8420  0.3057  0.0749
  995MOL0     C37193   4.421   9.161   9.905  0.4578  1.3220  0.0325
  995MOL0     C37194   4.437   9.274   9.802 -0.0161 -0.0603 -0.5887
  995MOL0     C37195   4.303   9.349   9.779 -0.3769  0.9322  0.0132
  995MOL0     O37196   4.342   9.486   9.743 -0.5098  0.1107 -0.1727
  995MOL0     C37197   4.253   9.590   9.742 -0.2470 -0.0505  0.4739
  995MOL0     C37198   4.306   9.709   9.691 -0.4166 -1.1157 -0.5622
  995MOL0     C37199   4.232   9.830   9.692  0.0760 -0.8246 -0.1943
  995MOL0     C37200   4.300   9.962   9.637  0.5891  0.2108  0.0108
  995MOL0     C37201   4.101   9.826   9.730  0.6794 -0.2803 -0.2088
  995MOL0     C37202   4.023   9.956   9.747  0.6218 -0.0877  0.1504
  995MOL0     O37203   4.063  10.059   9.826 -0.3084 -0.2955 -0.0121
  995MOL0     C37204   3.981  10.166   9.853 -0.3047  0.3336  0.1104
  995MOL0     C37205   4.039  10.235   9.956 -0.2046 -0.9361 -0.2253
  995MOL0     C37206   3.991  10.370   9.983  0.3650 -0.0769  0.3639
  995MOL0     C37207   3.875  10.431   9.915  0.9200  0.1932  0.1452
  995MOL0     O37208   3.814  10.553   9.956 -0.0596  0.4527 -0.4553
  995MOL0     C37209   3.910  10.647  10.006  0.0562  0.5895  0.4640
  995MOL0     C37210   3.844  10.770  10.049 -0.0942 -0.0627 -0.8252
  995MOL0     C37211   3.949  10.872  10.118  1.0691  0.0530  0.3339
  995MOL0     C37212   4.054  10.941  10.035  0.3690 -0.2140  0.6815
  995MOL0     C37213   4.007  11.012   9.906 -0.1333 -0.0677  0.2795
  995MOL0     C37214   4.133  11.037   9.809  0.0212 -0.1801  0.1472
  995MOL0     C37215   4.072  11.120   9.695  0.5443  0.3827  0.2021
  995MOL0     C37216   4.179  11.165   9.602 -0.4161  0.5123  0.6719
  995MOL0    Cl37217   4.121  11.293   9.490  0.2504 -0.0312  0.0995
  995MOL0     C37218   3.805  10.341   9.836  0.4589  0.4963  0.2439
  995MOL0     C37219   3.860  10.213   9.793 -0.9010  0.8784 -0.2254
  995MOL0     O37220   3.912   9.949   9.682  0.8503  0.0718 -0.2150
  995MOL0     C37221   4.035   9.700   9.756  0.1402  0.1129  0.1196
  995MOL0     C37222   4.113   9.580   9.765 -0.0761  0.6125 -0.3965
  995MOL0     N37223   4.224   9.032   9.649 -0.0502  0.6386 -0.0413
  995MOL0     N37224   4.101   9.042   9.629 -0.0116  1.3328 -0.7702
  995MOL0     C37225   4.323   9.540   9.386 -0.1129  0.7327 -0.3991
  995MOL0     C37226   4.442   9.589   9.419 -0.0947 -0.0033  0.0712
  995MOL0     C37227   4.827   9.746   9.501 -0.3753  0.2381 -0.3178
  995MOL0     C37228   4.907   9.651   9.436 -1.8267 -0.5357 -0.1958
  995MOL0     C37229   5.039   9.626   9.480 -0.2873 -0.0978 -0.3212
  995MOL0     C37230   5.098   9.704   9.580  0.2818  0.5940  1.1654
  995MOL0     O37231   5.235   9.678   9.600  0.2194 -0.0549  0.6006
  995MOL0     C37232   5.283   9.670   9.732  0.0234 -0.8428  0.0844
  995MOL0     C37233   5.283   9.524   9.792 -0.2382 -0.1121 -0.3393
  995MOL0     C37234   5.360   9.517   9.926  0.6717  0.2928 -1.0171
  995MOL0     C37235   5.327   9.378   9.983  1.0115  0.9964 -0.0659
  995MOL0     C37236   5.366   9.361  10.119  0.1396  1.5558 -0.0472
  995MOL0     C37237   5.393   9.347  10.236 -0.1594 -0.1700 -0.9150
  995MOL0     C37238   5.022   9.805   9.640 -0.0391  1.1101  0.2850
  995MOL0     C37239   4.888   9.826   9.602 -0.8821 -0.7424 -0.0574
  995MOL0     C37240   4.816   9.942   9.675  0.0478 -0.6036  0.1074
  995MOL0     H37241   4.504   9.771   9.140  1.6724 -2.1511 -0.3896
  995MOL0     H37242   4.267   9.704   9.103  1.6728  2.1607  0.3565
  995MOL0     H37243   3.960   9.569   9.153 -1.2048 -0.0304  2.6522
  995MOL0     H37244   4.074   9.695   9.147  4.1952 -0.5388  1.5561
  995MOL0     H37245   4.012   9.733   9.409  1.4215  2.1052 -1.9410
  995MOL0     H37246   3.894   9.754   9.292  1.2704  1.2764 -1.4988
  995MOL0     H37247   3.814   9.635   9.477 -0.1638  0.1284  0.4621
  995MOL0     H37248   3.790   9.557   9.336 -1.7854  5.6329  1.8419
  995MOL0     H37249   3.977   9.401   9.400 -1.2480  0.5300 -1.1930
  995MOL0     H37250   4.022   9.510   9.538  0.3694 -0.5267  0.7049
  995MOL0     H37251   3.742   9.421   9.547  0.8089  3.1749 -1.4812
  995MOL0     H37252   3.852   9.474   9.665  0.2998  2.5190 -1.6871
  995MOL0     H37253   3.886   9.199   9.544 -0.0020  2.4359 -2.0073
  995MOL0     H37254   4.002   9.291   9.643 -0.7527  3.2626  4.9065
  995MOL0     H37255   3.737   9.190   9.763  0.3724 -0.8396  4.6083
  995MOL0     H37256   3.866   9.259   9.854 -1.9212 -1.7166  1.8401
  995MOL0     H37257   3.862   9.025   9.856 -0.0834  0.6876 -0.1174
  995MOL0     H37258   3.848   9.011   9.676 -0.9352  0.0738  0.0707
  995MOL0     H37259   4.122   9.027   9.958 -1.7223  2.4888 -0.3231
  995MOL0     H37260   4.453   9.006   9.758 -1.8358  0.2470 -0.7193
  995MOL0     H37261   4.408   8.940   9.908  0.8634  1.0797  0.5566
  995MOL0     H37262   4.345   9.178   9.983 -1.6232  4.3575 -2.4165
  995MOL0     H37263   4.521   9.148   9.948  0.9689 -1.2320 -1.7226
  995MOL0     H37264   4.498   9.352   9.848  0.8034 -0.1448 -1.5092
  995MOL0     H37265   4.491   9.241   9.713  4.0067  5.3981 -0.7107
  995MOL0     H37266   4.249   9.289   9.705 -0.4444 -1.1267  1.6507
  995MOL0     H37267   4.241   9.343   9.869  0.1918 -0.7166  0.3266
  995MOL0     H37268   4.404   9.707   9.645 -1.3157 -2.6763 -2.5265
  995MOL0     H37269   4.242   9.999   9.552  0.3591 -0.0006  0.0742
  995MOL0     H37270   4.402   9.941   9.603  1.1849  1.8906  0.6694
  995MOL0     H37271   4.327  10.028   9.720  0.7547  1.0038 -0.6574
  995MOL0     H37272   4.116  10.184  10.013 -2.9759 -5.5318 -0.1534
  995MOL0     H37273   4.042  10.430  10.058  0.6990 -2.8120  2.5028
  995MOL0     H37274   3.953  10.603  10.096 -0.9692 -1.1052  0.1793
  995MOL0     H37275   3.980  10.671   9.925 -0.1198  1.9560  0.6918
  995MOL0     H37276   3.798  10.810   9.958 -3.7778 -4.0085 -1.0321
  995MOL0     H37277   3.762  10.744  10.117  2.7279 -1.8151  2.1296
  995MOL0     H37278   3.985  10.832  10.213 -1.2824 -0.0668  1.2598
  995MOL0     H37279   3.884  10.955  10.148 -0.5489 -1.3872  1.0008
  995MOL0     H37280   4.131  10.871  10.003 -1.9167 -2.5728  0.0308
  995MOL0     H37281   4.099  11.017  10.100 -1.1945 -1.2673  3.1356
  995MOL0     H37282   3.950  10.946   9.840  0.4388 -0.0606 -0.2254
  995MOL0     H37283   3.945  11.100   9.926 -4.0322 -1.6920 -3.2118
  995MOL0     H37284   4.171  10.947   9.761  2.3220  1.7488 -1.9235
  995MOL0     H37285   4.205  11.098   9.866 -1.5829  0.0625  2.0568
  995MOL0     H37286   4.025  11.214   9.725  2.1581  1.7617 -1.3963
  995MOL0     H37287   3.992  11.066   9.644 -0.2404  3.7167 -2.4526
  995MOL0     H37288   4.221  11.085   9.542  1.0741  2.9413 -1.7654
  995MOL0     H37289   4.259  11.211   9.662 -0.7430  2.5702 -0.3888
  995MOL0     H37290   3.704  10.359   9.803 -1.3200  0.0506  4.6873
  995MOL0     H37291   3.822  10.162   9.706  1.0029  0.2724 -0.7594
  995MOL0     H37292   3.927   9.695   9.766  0.0516  2.1836  0.6988
  995MOL0     H37293   4.068   9.484   9.785 -0.7622  0.8942 -0.5738
  995MOL0     H37294   4.270   9.481   9.461 -1.2813 -0.8687 -2.3954
  995MOL0     H37295   4.487   9.549   9.509  0.3175  1.5145  0.5715
  995MOL0     H37296   4.871   9.573   9.369 -1.2202 -0.1738 -0.9695
  995MOL0     H37297   5.093   9.542   9.437  0.6053 -0.2723  1.0902
  995MOL0     H37298   5.385   9.707   9.723  0.5285 -2.2598 -0.2585
  995MOL0     H37299   5.224   9.737   9.796 -1.0863  0.6129 -2.3114
  995MOL0     H37300   5.341   9.468   9.718 -3.5124 -0.7032 -2.6627
  995MOL0     H37301   5.186   9.473   9.793  0.6278 -1.8238 -0.2060
  995MOL0     H37302   5.469   9.527   9.919  1.0126  1.3459  2.9747
  995MOL0     H37303   5.318   9.590   9.996 -2.5112  0.1767 -2.6530
  995MOL0     H37304   5.387   9.310   9.922  0.0110 -2.5948  2.5550
  995MOL0     H37305   5.220   9.358   9.966  0.1047  4.9714  0.1318
  995MOL0     H37306   5.402   9.329  10.341 -0.6807 -2.8681 -1.2542
  995MOL0     H37307   5.076   9.867   9.711  1.8693 -0.0633 -0.0444
  995MOL0     H37308   4.889   9.994   9.738 -0.4845  0.4841 -0.1621
  995MOL0     H37309   4.775  10.012   9.602 -1.1206 -0.1715  1.1630
  995MOL0     H37310   4.736   9.902   9.738  0.8430 -0.9958  0.8902
  996MOL0     O37311   3.957  11.502   7.750 -0.4473  0.8583  0.1542
  996MOL0     C37312   3.992  11.443   7.649  0.7183  0.5243  0.2598
  996MOL0     O37313   3.978  11.494   7.518  0.1738  0.0312 -0.1914
  996MOL0     C37314   3.971  11.633   7.512  0.2580 -0.1960  0.0863
  996MOL0     C37315   3.848  11.718   7.498 -0.1563  2.0300  1.6084
  996MOL0     C37316   3.855  11.859   7.474 -0.8980  0.4793  0.7868
  996MOL0     C37317   3.987  11.919   7.466 -0.0307 -0.7214 -0.0626
  996MOL0     O37318   3.992  12.059   7.446 -0.4396 -0.5015  0.1351
  996MOL0     C37319   4.083  12.144   7.520  0.0650  0.3341 -0.6095
  996MOL0     C37320   3.990  12.241   7.604 -0.0428  0.4582  0.4961
  996MOL0     C37321   4.046  12.383   7.622  1.1087 -0.5678 -0.3700
  996MOL0     C37322   3.957  12.474   7.703  0.3535  0.2920  0.0377
  996MOL0     C37323   4.022  12.601   7.746  1.1533  0.4149 -0.3254
  996MOL0     C37324   3.917  12.669   7.837  0.1051 -0.3572  0.0303
  996MOL0     C37325   3.992  12.787   7.905 -0.2966 -0.6686 -0.1309
  996MOL0     C37326   3.928  12.851   8.035  1.0300 -0.2375 -0.2903
  996MOL0     N37327   3.796  12.906   8.001  0.7796 -0.1668  0.9797
  996MOL0     C37328   3.765  13.039   7.962  0.9744  1.0952  0.2510
  996MOL0     C37329   3.634  13.054   8.001  1.3933  0.1580 -0.4790
  996MOL0     C37330   3.563  13.188   7.974  0.3930 -0.4572  1.3435
  996MOL0     C37331   3.482  13.179   7.840 -0.0525  0.1711 -0.4623
  996MOL0     C37332   3.350  13.115   7.861 -0.5749 -0.9206  0.2081
  996MOL0     C37333   3.256  13.132   7.743  0.0749 -1.0665 -0.4716
  996MOL0     O37334   3.124  13.099   7.770  0.3525 -0.4850 -0.8419
  996MOL0     C37335   3.033  13.165   7.847 -0.8630 -0.9194 -0.4031
  996MOL0     C37336   2.905  13.113   7.844  1.0103  0.5967 -0.4316
  996MOL0     C37337   2.798  13.169   7.921  0.1121 -0.0537 -0.3733
  996MOL0     C37338   2.666  13.086   7.924 -0.6488 -0.7819 -0.5055
  996MOL0     C37339   2.826  13.278   8.008  0.8414  1.5144  0.0191
  996MOL0     C37340   2.730  13.335   8.111  0.2802 -0.2521 -0.2405
  996MOL0     O37341   2.590  13.317   8.094 -0.2297  0.1786 -0.0662
  996MOL0     C37342   2.512  13.322   8.201  0.3474  0.1521 -0.9110
  996MOL0     C37343   2.415  13.426   8.203 -0.0642  0.7103 -0.3350
  996MOL0     C37344   2.311  13.417   8.284  0.0374 -0.0315 -0.2598
  996MOL0     C37345   2.295  13.311   8.377 -1.1451 -0.0499  0.8433
  996MOL0     O37346   2.195  13.330   8.460  0.4109 -0.0775  0.2592
  996MOL0     C37347   2.178  13.243   8.570  0.4919 -0.1019  0.2478
  996MOL0     C37348   2.055  13.160   8.561 -0.5766 -0.3906 -0.2148
  996MOL0     C37349   2.063  13.045   8.453  0.0089  0.1209  0.1979
  996MOL0     C37350   2.011  13.079   8.307 -1.0120  0.2771 -0.4962
  996MOL0     C37351   2.032  12.955   8.214  0.8532 -0.2125 -0.4064
  996MOL0     C37352   2.172  12.916   8.172  0.9916 -1.1134  1.4657
  996MOL0     C37353   2.163  12.776   8.122 -0.6711 -0.3287  0.0359
  996MOL0     C37354   2.052  12.759   8.020  0.1412 -0.2286  0.3515
  996MOL0    Cl37355   2.093  12.620   7.916  0.4119  0.3475  0.6141
  996MOL0     C37356   2.386  13.205   8.374 -0.0419 -0.4645 -0.2940
  996MOL0     C37357   2.490  13.213   8.283 -0.2510 -0.2209 -0.1647
  996MOL0     O37358   2.781  13.411   8.197  0.8101  0.6123  0.6879
  996MOL0     C37359   2.955  13.335   8.001 -0.6110  0.4480  0.5907
  996MOL0     C37360   3.055  13.282   7.917  0.5344  0.1364  0.0621
  996MOL0     N37361   3.591  12.945   8.065  0.4073  0.3580 -0.5125
  996MOL0     N37362   3.684  12.860   8.065 -0.1176 -0.1155  0.0823
  996MOL0     C37363   4.107  11.845   7.490  0.4990  0.8530 -0.0146
  996MOL0     C37364   4.094  11.705   7.510 -0.5457 -0.3286 -0.0132
  996MOL0     C37365   4.011  11.293   7.658 -0.4246 -0.1386 -0.2548
  996MOL0     C37366   3.998  11.206   7.537 -0.5281 -0.6316 -0.8765
  996MOL0     C37367   4.017  11.069   7.537  0.3518  0.8582 -0.4227
  996MOL0     C37368   4.056  10.998   7.652 -0.0809 -0.4060  0.9115
  996MOL0     O37369   4.066  10.855   7.652  0.3926 -0.3007 -0.3825
  996MOL0     C37370   3.962  10.788   7.584  0.5556 -0.2053 -0.8350
  996MOL0     C37371   3.946  10.635   7.611  0.3906 -1.0137  0.1438
  996MOL0     C37372   3.812  10.579   7.552  0.4655  0.6048  0.5374
  996MOL0     C37373   3.812  10.430   7.527  0.0036 -0.7297  0.3199
  996MOL0     C37374   3.832  10.369   7.663 -0.2064  0.4656  0.5412
  996MOL0     C37375   3.827  10.316   7.774 -0.4113 -0.2345 -0.3592
  996MOL0     C37376   4.056  11.072   7.767 -0.2936  0.2473  0.5793
  996MOL0     C37377   4.046  11.218   7.775 -0.1246 -0.2688 -0.5697
  996MOL0     C37378   4.060  11.277   7.916 -1.1527 -1.2143  0.1789
  996MOL0     H37379   3.755  11.662   7.504  1.6358 -1.0592  3.1458
  996MOL0     H37380   3.769  11.925   7.469 -0.7477  0.7365  1.6241
  996MOL0     H37381   4.150  12.204   7.457  2.4161 -1.6864 -0.2025
  996MOL0     H37382   4.142  12.085   7.591 -0.4202 -0.1334 -0.5949
  996MOL0     H37383   3.888  12.237   7.564 -0.6137 -1.2895  2.0043
  996MOL0     H37384   3.965  12.188   7.696 -2.4667 -0.1690 -0.4408
  996MOL0     H37385   4.145  12.384   7.668  2.6726  2.9527 -3.2361
  996MOL0     H37386   4.054  12.425   7.521  1.7923 -3.5853 -1.6710
  996MOL0     H37387   3.872  12.496   7.638 -1.0972  1.6348  2.2518
  996MOL0     H37388   3.927  12.412   7.788  0.2490  2.1349  1.3964
  996MOL0     H37389   4.029  12.652   7.649  0.5933 -1.3291 -1.3436
  996MOL0     H37390   4.118  12.575   7.791  1.4924 -2.6630 -2.4438
  996MOL0     H37391   3.837  12.707   7.772 -0.4600 -0.5648  0.5906
  996MOL0     H37392   3.876  12.614   7.922  1.6127  0.5492  1.3797
  996MOL0     H37393   4.008  12.860   7.826  1.6924 -0.2365  0.6107
  996MOL0     H37394   4.092  12.764   7.944  0.0042  2.2828  1.0994
  996MOL0     H37395   3.915  12.784   8.121 -0.1555  1.0844  0.5978
  996MOL0     H37396   3.986  12.933   8.078 -0.3479 -0.0369  1.3148
  996MOL0     H37397   3.825  13.110   7.906  2.6507  0.4098  1.0957
  996MOL0     H37398   3.637  13.267   7.965  0.9870 -1.1615 -0.3930
  996MOL0     H37399   3.493  13.212   8.055  3.0316  0.6806  3.4488
  996MOL0     H37400   3.463  13.277   7.797 -0.2520  0.9187  1.2456
  996MOL0     H37401   3.531  13.116   7.765 -0.3534 -0.9572  0.2514
  996MOL0     H37402   3.353  13.008   7.880 -0.1169 -1.1096 -0.8825
  996MOL0     H37403   3.299  13.166   7.943 -1.0887  1.9164 -1.7126
  996MOL0     H37404   3.250  13.234   7.703 -0.5789 -1.5039 -1.5350
  996MOL0     H37405   3.301  13.071   7.664 -3.5471 -1.7704 -2.1751
  996MOL0     H37406   2.899  13.021   7.786 -0.2589  0.0477  0.5175
  996MOL0     H37407   2.658  13.001   7.856 -2.5809 -0.5920 -0.5705
  996MOL0     H37408   2.575  13.143   7.908  0.1208  1.6387  2.6862
  996MOL0     H37409   2.665  13.045   8.026 -1.4213  4.4165  1.9030
  996MOL0     H37410   2.433  13.509   8.135  2.2882  1.6667  1.3027
  996MOL0     H37411   2.234  13.493   8.276  1.8788  1.8733 -0.5456
  996MOL0     H37412   2.270  13.188   8.594  2.8491  3.2737 -0.3239
  996MOL0     H37413   2.164  13.307   8.657 -2.0714 -2.2606  1.5593
  996MOL0     H37414   2.033  13.109   8.655 -0.5808 -0.1390 -0.0786
  996MOL0     H37415   1.972  13.229   8.544  1.0429  1.2263 -2.0795
  996MOL0     H37416   2.004  12.962   8.494 -0.5675  1.2616  1.7633
  996MOL0     H37417   2.169  13.017   8.446 -0.3020 -0.7653 -1.4473
  996MOL0     H37418   2.071  13.159   8.264  3.0485 -2.8520 -1.3248
  996MOL0     H37419   1.904  13.102   8.311 -1.1947 -0.6303  3.1788
  996MOL0     H37420   1.981  12.873   8.266 -2.0439  1.9900  0.4660
  996MOL0     H37421   1.970  12.972   8.126 -0.0529  0.1126  0.2687
  996MOL0     H37422   2.241  12.917   8.257  0.7220  0.3694  1.6927
  996MOL0     H37423   2.208  12.983   8.094 -1.7818 -0.7137  0.3924
  996MOL0     H37424   2.153  12.707   8.206  1.0035  0.0975  0.6153
  996MOL0     H37425   2.257  12.739   8.081 -1.4671 -1.9167 -0.4441
  996MOL0     H37426   2.045  12.852   7.962 -0.3429  0.7637  1.9535
  996MOL0     H37427   1.956  12.740   8.068 -1.6213 -0.3889 -2.9562
  996MOL0     H37428   2.378  13.112   8.431 -0.0636 -0.3656 -0.1351
  996MOL0     H37429   2.556  13.127   8.272  1.2736  0.7899  0.7047
  996MOL0     H37430   2.977  13.411   8.074 -0.5150  2.2138 -1.1829
  996MOL0     H37431   3.153  13.330   7.911  1.8243 -2.1011  1.7325
  996MOL0     H37432   4.207  11.886   7.486  1.0840 -0.4570  0.5887
  996MOL0     H37433   4.190  11.656   7.509  0.8794  2.2690 -0.5913
  996MOL0     H37434   3.950  11.246   7.448 -0.4389  3.1915  0.6095
  996MOL0     H37435   4.011  11.029   7.436  1.5238 -2.3929  0.6536
  996MOL0     H37436   3.869  10.831   7.623  0.7733 -1.4014  1.1475
  996MOL0     H37437   3.960  10.800   7.475 -3.4326 -0.1466 -0.9039
  996MOL0     H37438   3.945  10.620   7.719 -0.9109 -0.7431  0.1766
  996MOL0     H37439   4.030  10.583   7.562 -0.2060 -0.3164 -1.7133
  996MOL0     H37440   3.740  10.616   7.625  2.3083  3.8882  0.9268
  996MOL0     H37441   3.783  10.636   7.463  4.1939  1.8951 -0.0638
  996MOL0     H37442   3.885  10.381   7.462 -1.2310 -2.0288 -0.1284
  996MOL0     H37443   3.716  10.401   7.483  0.6193  0.6157 -2.1351
  996MOL0     H37444   3.832  10.253   7.860 -0.0243 -0.3398 -0.4575
  996MOL0     H37445   4.102  11.030   7.856  0.6753  0.7172  0.3132
  996MOL0     H37446   4.070  11.211   8.003  0.2212 -2.3042 -0.7606
  996MOL0     H37447   4.136  11.355   7.921 -2.3125 -0.1020  1.1800
  996MOL0     H37448   3.970  11.332   7.944 -0.3550 -0.8152  2.0922
  997MOL0     O37449   2.096   2.418   2.103  0.1715 -0.2126 -0.8087
  997MOL0     C37450   2.056   2.355   2.200 -0.2205  0.1828  0.0670
  997MOL0     O37451   2.055   2.215   2.209  0.0908  0.2751 -0.0950
  997MOL0     C37452   2.140   2.147   2.134 -1.1181 -0.1356  0.5743
  997MOL0     C37453   2.277   2.171   2.144 -0.4088  0.1864  0.6585
  997MOL0     C37454   2.367   2.090   2.076 -0.5622  0.9858 -0.5877
  997MOL0     C37455   2.318   1.985   1.992 -0.5024 -0.4586  0.7387
  997MOL0     O37456   2.412   1.918   1.919  0.1099  0.0455 -0.3420
  997MOL0     C37457   2.405   1.935   1.776 -0.0865 -0.2578 -0.7164
  997MOL0     C37458   2.528   1.894   1.706  0.5203  0.3849 -0.0067
  997MOL0     C37459   2.573   1.747   1.738  0.2244 -0.0135 -0.2484
  997MOL0     C37460   2.674   1.683   1.635 -0.8204 -1.0681 -0.1924
  997MOL0     C37461   2.595   1.617   1.528  0.7148  0.0729 -0.2097
  997MOL0     C37462   2.685   1.589   1.410 -1.0360 -0.6223 -0.2039
  997MOL0     C37463   2.632   1.488   1.302  0.0129  0.1835  0.6947
  997MOL0     C37464   2.746   1.438   1.216 -0.1733 -0.1786 -0.0698
  997MOL0     N37465   2.709   1.346   1.110  0.3420 -0.4056  0.1380
  997MOL0     C37466   2.790   1.298   1.017  0.5009 -0.1983 -0.0107
  997MOL0     C37467   2.717   1.248   0.918  0.0792 -0.5930  1.3355
  997MOL0     C37468   2.762   1.184   0.786 -0.4757  0.2597 -0.6605
  997MOL0     C37469   2.742   1.276   0.662  0.1053 -0.2651  1.1534
  997MOL0     C37470   2.799   1.210   0.538  0.8184 -0.3811  0.7769
  997MOL0     C37471   2.952   1.174   0.542  1.2282 -0.2311 -1.0938
  997MOL0     O37472   3.008   1.132   0.420  0.7943 -0.0055  0.1268
  997MOL0     C37473   3.007   1.000   0.375  1.2324 -0.3182 -0.7463
  997MOL0     C37474   2.929   0.899   0.430  0.8017  0.4230  0.7886
  997MOL0     C37475   2.943   0.766   0.389 -0.4199 -0.0805  0.2804
  997MOL0     C37476   2.833   0.673   0.449  0.2467 -0.1349 -0.8759
  997MOL0     C37477   3.036   0.743   0.290  0.0147  0.4999 -0.2605
  997MOL0     C37478   3.059   0.600   0.239 -0.1608 -0.3406 -0.3437
  997MOL0     O37479   3.115   0.592   0.111  0.0131  0.0193 -0.3394
  997MOL0     C37480   3.133   0.472   0.043  0.0510 -0.0972  1.3546
  997MOL0     C37481   3.173   0.359   0.107  0.8185  0.7766  0.8538
  997MOL0     C37482   3.209   0.243   0.027 -0.0384 -0.6383  1.1556
  997MOL0     C37483   3.183   0.248  -0.116  0.4088  0.7248  0.2774
  997MOL0     O37484   3.218   0.132  -0.181  0.1029 -1.1647 -0.2869
  997MOL0     C37485   3.153   0.101  -0.310  0.3083  0.8096  0.0825
  997MOL0     C37486   3.215  -0.027  -0.371 -0.2565 -0.3217  0.5964
  997MOL0     C37487   3.198  -0.137  -0.272 -0.0610 -0.7334  0.2874
  997MOL0     C37488   3.223  -0.265  -0.340 -0.2163  0.7880 -0.2917
  997MOL0     C37489   3.220  -0.388  -0.249 -0.4688  0.8032  1.0704
  997MOL0     C37490   3.347  -0.405  -0.176 -0.5404 -0.3791 -0.1375
  997MOL0     C37491   3.351  -0.541  -0.111  0.0497  0.9368 -0.7866
  997MOL0     C37492   3.493  -0.578  -0.075  0.3974  1.0335  0.8728
  997MOL0    Cl37493   3.581  -0.621  -0.221  0.1529 -0.1829  0.6106
  997MOL0     C37494   3.130   0.364  -0.172 -0.0385  0.9400  0.3419
  997MOL0     C37495   3.116   0.481  -0.093  0.3079 -0.0582  0.4929
  997MOL0     O37496   3.026   0.509   0.320 -0.0198 -0.2398  1.1666
  997MOL0     C37497   3.126   0.845   0.235  0.5035 -0.2448  0.4042
  997MOL0     C37498   3.102   0.976   0.276  0.2792 -1.1069  0.1987
  997MOL0     N37499   2.585   1.273   0.949 -0.3736  0.6605 -0.4542
  997MOL0     N37500   2.580   1.320   1.071  0.8624 -0.1489  0.3056
  997MOL0     C37501   2.180   1.963   1.984 -0.5505 -0.6088  0.4789
  997MOL0     C37502   2.098   2.044   2.055  0.9745  0.3403  0.0321
  997MOL0     C37503   2.035   2.423   2.330 -0.9586  0.1039 -0.4712
  997MOL0     C37504   2.025   2.341   2.449  0.2781 -0.0219 -0.0433
  997MOL0     C37505   1.988   2.399   2.572  0.2666 -0.1698 -0.1335
  997MOL0     C37506   1.976   2.540   2.587  0.1833 -1.4502 -0.2593
  997MOL0     O37507   1.947   2.616   2.700 -0.5207  0.0271 -0.5182
  997MOL0     C37508   1.869   2.545   2.807  0.8762 -1.0278  0.6704
  997MOL0     C37509   1.802   2.652   2.896  0.5482 -0.3506  1.1090
  997MOL0     C37510   1.722   2.751   2.813 -0.3026  0.6313 -0.5692
  997MOL0     C37511   1.624   2.817   2.905  0.9783  0.2772 -0.4452
  997MOL0     C37512   1.656   2.911   3.005 -0.1990  0.3154 -0.4658
  997MOL0     C37513   1.649   3.008   3.084  0.8749  0.9876  0.6064
  997MOL0     C37514   2.011   2.616   2.480 -0.6085 -0.5211  0.0855
  997MOL0     C37515   2.029   2.559   2.353  0.7928  0.6355 -0.1559
  997MOL0     C37516   2.039   2.649   2.237 -0.4868 -1.4013  0.3659
  997MOL0     H37517   2.305   2.256   2.205 -1.7801  1.1558 -0.0005
  997MOL0     H37518   2.473   2.109   2.092 -0.1003 -0.5614 -1.6171
  997MOL0     H37519   2.406   2.043   1.761 -1.5359  0.4556  3.0863
  997MOL0     H37520   2.314   1.902   1.726 -1.2855 -1.0362  1.7991
  997MOL0     H37521   2.511   1.905   1.598 -2.5137 -2.9120 -0.0603
  997MOL0     H37522   2.609   1.964   1.728  0.9670  0.7310 -2.4624
  997MOL0     H37523   2.617   1.759   1.838  3.0824 -0.8770 -1.3116
  997MOL0     H37524   2.483   1.686   1.737  0.3594 -0.2627 -2.5349
  997MOL0     H37525   2.740   1.761   1.595  1.5715 -0.3295  4.4674
  997MOL0     H37526   2.739   1.610   1.684  0.4134 -0.9010 -1.5248
  997MOL0     H37527   2.505   1.673   1.504  0.9953 -1.0280 -4.8503
  997MOL0     H37528   2.559   1.519   1.561  0.8452 -0.0277 -0.3587
  997MOL0     H37529   2.716   1.681   1.361  3.1447 -3.1195 -2.8622
  997MOL0     H37530   2.777   1.551   1.455  0.5056 -0.1755 -2.7746
  997MOL0     H37531   2.550   1.528   1.241 -1.1451 -1.8602  0.8415
  997MOL0     H37532   2.585   1.399   1.343  0.9412 -1.7032 -2.0424
  997MOL0     H37533   2.793   1.527   1.174 -0.7177 -1.5515 -4.0319
  997MOL0     H37534   2.827   1.391   1.272  1.3007  2.9943  0.6871
  997MOL0     H37535   2.897   1.310   1.023  0.4171 -0.0860  1.7958
  997MOL0     H37536   2.704   1.093   0.771 -2.5316  1.1745  1.2350
  997MOL0     H37537   2.862   1.139   0.795 -0.4441  0.0766 -1.7087
  997MOL0     H37538   2.635   1.298   0.650 -0.1809 -1.4378  1.4131
  997MOL0     H37539   2.797   1.369   0.679  2.0557 -1.3039  0.7469
  997MOL0     H37540   2.739   1.123   0.514 -1.0616  0.6136  1.6631
  997MOL0     H37541   2.791   1.285   0.458  0.0095 -0.7193  0.5404
  997MOL0     H37542   3.011   1.262   0.570  2.4597 -1.5227  0.5703
  997MOL0     H37543   2.972   1.106   0.625  0.9462  1.3754  0.3658
  997MOL0     H37544   2.857   0.932   0.505 -1.2880 -0.4575 -0.7140
  997MOL0     H37545   2.876   0.616   0.532  0.2936  2.0045  0.6578
  997MOL0     H37546   2.785   0.617   0.368 -0.4087  1.1325 -1.3954
  997MOL0     H37547   2.748   0.730   0.488  1.1332  0.5397  0.1335
  997MOL0     H37548   3.168   0.356   0.215 -4.6686 -0.8847  0.8827
  997MOL0     H37549   3.231   0.148   0.075  0.2301 -1.2846 -0.1853
  997MOL0     H37550   3.048   0.073  -0.301  0.5661 -0.6302 -1.0617
  997MOL0     H37551   3.179   0.184  -0.376 -0.4529  0.5187 -0.5986
  997MOL0     H37552   3.161  -0.057  -0.461  2.2335  1.5421 -1.6804
  997MOL0     H37553   3.321  -0.013  -0.393 -0.9036  1.3390 -1.7688
  997MOL0     H37554   3.101  -0.138  -0.222 -2.0106  0.8695 -3.0757
  997MOL0     H37555   3.270  -0.124  -0.191 -1.3779  1.4847  1.1904
  997MOL0     H37556   3.318  -0.262  -0.395 -0.3335 -0.3658 -0.5989
  997MOL0     H37557   3.141  -0.280  -0.411 -0.1383  2.4357 -0.7526
  997MOL0     H37558   3.142  -0.380  -0.173  0.6503 -1.8690  2.6570
  997MOL0     H37559   3.221  -0.473  -0.317  0.7979  2.2182 -0.7731
  997MOL0     H37560   3.358  -0.330  -0.097 -1.6747 -0.6240  0.2856
  997MOL0     H37561   3.423  -0.406  -0.254  0.6154  0.4356  0.9537
  997MOL0     H37562   3.325  -0.607  -0.195  1.2172  0.4376 -0.7786
  997MOL0     H37563   3.288  -0.532  -0.023  1.8775  2.8600  0.4091
  997MOL0     H37564   3.492  -0.660  -0.002 -1.5674  2.0964  2.1136
  997MOL0     H37565   3.536  -0.490  -0.027 -0.4221 -0.1154  4.0196
  997MOL0     H37566   3.115   0.369  -0.279 -0.4448 -2.8023  0.0738
  997MOL0     H37567   3.082   0.579  -0.126  1.2781 -0.1121 -0.7605
  997MOL0     H37568   3.202   0.822   0.161 -0.2533 -1.0864 -0.1190
  997MOL0     H37569   3.154   1.067   0.249 -0.7805 -0.9216 -1.4115
  997MOL0     H37570   2.149   1.869   1.939  2.8376 -2.4741  1.6748
  997MOL0     H37571   1.993   2.016   2.047  0.4919  1.3821  1.9016
  997MOL0     H37572   2.025   2.233   2.437 -0.9336  0.2135 -3.1354
  997MOL0     H37573   1.973   2.334   2.657  1.3799  0.5839  0.6631
  997MOL0     H37574   1.793   2.491   2.750 -1.2062  1.6047  0.7389
  997MOL0     H37575   1.917   2.467   2.867  0.5864 -1.9971 -0.3152
  997MOL0     H37576   1.882   2.701   2.952  0.3088  1.1506  0.2144
  997MOL0     H37577   1.732   2.600   2.962 -0.7553  1.0473  0.8960
  997MOL0     H37578   1.797   2.823   2.781  1.3379 -0.1920  1.2020
  997MOL0     H37579   1.665   2.713   2.728 -1.3463 -0.8943  0.7414
  997MOL0     H37580   1.555   2.739   2.939  2.4560 -0.6578  0.5218
  997MOL0     H37581   1.573   2.888   2.840 -3.1299 -4.7911 -3.4893
  997MOL0     H37582   1.627   3.077   3.162 -3.1471 -1.5755  2.0671
  997MOL0     H37583   2.017   2.720   2.507 -0.4651 -1.4154  4.1517
  997MOL0     H37584   1.977   2.629   2.149 -0.7631  0.2675  0.1593
  997MOL0     H37585   1.994   2.741   2.274 -3.4649 -0.6356 -4.3615
  997MOL0     H37586   2.144   2.664   2.212 -0.6442  1.0315  0.9803
  998MOL0     O37587   0.789   4.125   0.382  0.0868 -0.3074  0.1580
  998MOL0     C37588   0.842   4.113   0.275  1.4389  0.5606 -0.6652
  998MOL0     O37589   0.961   4.060   0.261  0.1639  0.3347  0.0715
  998MOL0     C37590   1.025   4.006   0.364  0.4118 -0.4485 -0.1808
  998MOL0     C37591   1.149   4.049   0.414 -0.5015  1.3790  0.2058
  998MOL0     C37592   1.211   3.978   0.526 -0.3737 -0.0484  0.2036
  998MOL0     C37593   1.150   3.869   0.588 -0.1373 -0.0705  0.4028
  998MOL0     O37594   1.218   3.789   0.678 -0.6230  0.3591  1.1997
  998MOL0     C37595   1.347   3.838   0.724 -0.7423 -0.1367  0.0224
  998MOL0     C37596   1.335   3.952   0.825  0.0237  0.4451 -0.2361
  998MOL0     C37597   1.237   3.896   0.936 -0.4331 -0.0993 -0.0793
  998MOL0     C37598   1.232   3.975   1.057 -0.5030 -0.1173 -0.3051
  998MOL0     C37599   1.125   3.931   1.165  0.3603 -0.2284 -0.1146
  998MOL0     C37600   1.119   4.056   1.261 -0.4117  0.2250  0.0584
  998MOL0     C37601   1.048   4.039   1.394  0.5110  0.3024  0.1354
  998MOL0     C37602   1.097   3.930   1.491 -0.9993 -0.1525  1.1198
  998MOL0     N37603   0.993   3.905   1.587 -0.2247  0.8430 -0.5777
  998MOL0     C37604   0.984   3.975   1.706  0.3857  0.9181  0.9606
  998MOL0     C37605   0.890   3.895   1.768  0.0565 -0.3139 -0.8383
  998MOL0     C37606   0.869   3.926   1.920 -0.5225 -0.6684  0.0269
  998MOL0     C37607   0.730   3.874   1.988  0.0485 -0.3735 -0.1348
  998MOL0     C37608   0.594   3.918   1.916  0.4641 -0.4247  0.4921
  998MOL0     C37609   0.484   3.817   1.949 -0.2484  0.3465  0.2414
  998MOL0     O37610   0.476   3.817   2.088  0.4510  0.4426 -0.3009
  998MOL0     C37611   0.452   3.686   2.149 -0.2548 -0.1551 -0.4822
  998MOL0     C37612   0.421   3.555   2.095  0.0612 -0.7123 -0.1547
  998MOL0     C37613   0.369   3.454   2.168  1.7045  0.0734 -0.9315
  998MOL0     C37614   0.300   3.335   2.110 -0.0107 -0.1216  1.8282
  998MOL0     C37615   0.387   3.463   2.305  0.5778  0.0963 -0.5333
  998MOL0     C37616   0.348   3.357   2.408  1.0461  0.8017 -0.3795
  998MOL0     O37617   0.435   3.349   2.512  0.7269  0.3898  0.1195
  998MOL0     C37618   0.394   3.311   2.636 -0.3941 -0.2766 -0.4006
  998MOL0     C37619   0.410   3.415   2.732  0.2234  0.2505 -0.7574
  998MOL0     C37620   0.351   3.404   2.866 -0.3774  0.5522  1.1268
  998MOL0     C37621   0.275   3.286   2.908 -0.6930  0.4668  1.4082
  998MOL0     O37622   0.216   3.296   3.033  0.5068  0.2123  0.1616
  998MOL0     C37623   0.129   3.184   3.069 -0.2261 -0.1314  0.4026
  998MOL0     C37624   0.111   3.183   3.223 -0.2909 -0.3508 -0.3641
  998MOL0     C37625   0.240   3.176   3.307  0.8077 -0.1638 -0.6191
  998MOL0     C37626   0.300   3.037   3.282 -0.8650  0.0681 -0.0712
  998MOL0     C37627   0.418   3.013   3.364 -0.7716 -0.3770  0.1716
  998MOL0     C37628   0.466   2.868   3.354 -0.3886 -0.0153  0.3121
  998MOL0     C37629   0.499   2.817   3.218  0.1171  0.6151 -0.3877
  998MOL0     C37630   0.483   2.664   3.207  0.0742  0.0962 -0.3408
  998MOL0    Cl37631   0.540   2.638   3.045 -0.4422  0.3447  0.0857
  998MOL0     C37632   0.274   3.176   2.811  0.7470 -0.1327 -0.2742
  998MOL0     C37633   0.328   3.193   2.678 -0.0180 -0.8321 -0.5408
  998MOL0     O37634   0.244   3.298   2.396 -0.6781 -0.0509  0.5472
  998MOL0     C37635   0.435   3.578   2.366  0.2416  0.2247 -1.2459
  998MOL0     C37636   0.462   3.688   2.285  0.1039 -1.2081 -0.6449
  998MOL0     N37637   0.836   3.801   1.683 -0.1307 -0.3530 -1.2105
  998MOL0     N37638   0.900   3.805   1.575 -0.4851 -0.4442  0.4803
  998MOL0     C37639   1.029   3.824   0.532  0.7339  0.6743 -0.9551
  998MOL0     C37640   0.966   3.889   0.421 -0.7202 -0.3796 -0.6665
  998MOL0     C37641   0.775   4.202   0.171 -0.1172 -0.5898  0.1306
  998MOL0     C37642   0.864   4.270   0.089  0.9705  0.1530 -0.2405
  998MOL0     C37643   0.816   4.363  -0.008  0.3201  0.4847 -0.8743
  998MOL0     C37644   0.673   4.378  -0.023 -0.8867 -0.2637  0.4572
  998MOL0     O37645   0.635   4.474  -0.118  0.1188  0.3527  0.6998
  998MOL0     C37646   0.494   4.524  -0.121 -0.8657 -0.6044  0.0885
  998MOL0     C37647   0.466   4.608  -0.238  1.4687  0.4228  0.5781
  998MOL0     C37648   0.313   4.592  -0.286  0.6567 -0.7083  0.4754
  998MOL0     C37649   0.290   4.655  -0.425 -0.2217 -0.2675 -0.0102
  998MOL0     C37650   0.145   4.646  -0.453 -1.1605 -0.2771 -0.5482
  998MOL0     C37651   0.029   4.647  -0.479 -0.4974  0.3969  1.0957
  998MOL0     C37652   0.588   4.307   0.059 -0.3783 -1.1301  0.7101
  998MOL0     C37653   0.631   4.222   0.158  0.2348 -0.6047  0.1736
  998MOL0     C37654   0.543   4.151   0.250 -0.1258 -0.6605 -0.0695
  998MOL0     H37655   1.201   4.130   0.364 -0.8999  0.1638 -2.3345
  998MOL0     H37656   1.311   4.011   0.551 -0.1871 -2.1671  2.6691
  998MOL0     H37657   1.414   3.882   0.649  0.3534  1.2497  1.7182
  998MOL0     H37658   1.400   3.756   0.773 -0.8694  1.2136  2.5740
  998MOL0     H37659   1.434   3.978   0.864  3.1538 -2.8014 -4.9062
  998MOL0     H37660   1.300   4.039   0.769  1.6996  1.8152  0.7481
  998MOL0     H37661   1.139   3.901   0.886 -0.6960 -2.4886  0.1058
  998MOL0     H37662   1.264   3.793   0.961  0.8601  0.2182 -0.1344
  998MOL0     H37663   1.330   3.971   1.106  0.6617 -0.7375 -2.5624
  998MOL0     H37664   1.207   4.077   1.025 -0.4640  0.4522  1.3812
  998MOL0     H37665   1.136   3.834   1.214 -1.7399  0.1899  1.3209
  998MOL0     H37666   1.029   3.927   1.114 -0.0876 -0.3442  0.7153
  998MOL0     H37667   1.222   4.077   1.288  0.0889 -1.7618 -0.1314
  998MOL0     H37668   1.074   4.140   1.208  0.9100  1.6124  1.0864
  998MOL0     H37669   0.940   4.028   1.377  0.5361 -0.1732  0.2646
  998MOL0     H37670   1.055   4.137   1.442  1.1184  0.4242 -0.1965
  998MOL0     H37671   1.112   3.842   1.427  0.5020  0.6739  0.2681
  998MOL0     H37672   1.190   3.951   1.543 -0.2525  1.9156 -0.8830
  998MOL0     H37673   1.049   4.056   1.740  3.3662  0.0309 -2.0589
  998MOL0     H37674   0.886   4.034   1.929 -0.1755 -0.9191  3.0415
  998MOL0     H37675   0.944   3.886   1.988  1.8210  2.3101 -0.6125
  998MOL0     H37676   0.744   3.765   1.996 -3.9238 -0.9515  1.4403
  998MOL0     H37677   0.733   3.910   2.091  1.5693 -0.7250 -0.0378
  998MOL0     H37678   0.563   4.014   1.960 -2.9606 -1.5608  0.8532
  998MOL0     H37679   0.604   3.932   1.808 -0.0275  2.2385  0.7072
  998MOL0     H37680   0.391   3.852   1.903 -0.2386  2.2543  1.5789
  998MOL0     H37681   0.508   3.721   1.902 -1.7976  0.5345 -1.0354
  998MOL0     H37682   0.400   3.552   1.989 -4.0797  1.5610  0.3923
  998MOL0     H37683   0.193   3.328   2.131 -0.1996 -0.9893  0.7072
  998MOL0     H37684   0.351   3.240   2.130  0.6565 -0.9597 -2.8034
  998MOL0     H37685   0.312   3.348   2.002 -2.3882  1.2245  1.6434
  998MOL0     H37686   0.462   3.509   2.713  0.8893 -0.3635 -2.1323
  998MOL0     H37687   0.374   3.475   2.944 -0.7887  4.1502 -1.7578
  998MOL0     H37688   0.029   3.197   3.026  0.0770  0.9939  0.0168
  998MOL0     H37689   0.171   3.097   3.017 -2.0150  0.3500 -1.9957
  998MOL0     H37690   0.067   3.280   3.246 -0.9023 -0.6263 -0.3294
  998MOL0     H37691   0.042   3.106   3.262 -0.5647  0.5491  0.9868
  998MOL0     H37692   0.209   3.185   3.411  1.9213  1.6130 -0.3937
  998MOL0     H37693   0.303   3.261   3.280  1.0580  1.0751  3.2712
  998MOL0     H37694   0.339   3.026   3.180 -1.7306 -1.2663 -0.2809
  998MOL0     H37695   0.223   2.965   3.308 -2.1136  1.6348  0.7302
  998MOL0     H37696   0.499   3.080   3.335 -2.2664  0.3423 -2.6156
  998MOL0     H37697   0.385   3.031   3.467 -0.1750 -0.5690  0.4038
  998MOL0     H37698   0.380   2.813   3.392 -0.3411 -1.6908 -1.8208
  998MOL0     H37699   0.556   2.853   3.414  2.5462 -0.5556 -3.7748
  998MOL0     H37700   0.605   2.833   3.198  0.3749 -2.3308 -1.9861
  998MOL0     H37701   0.418   2.854   3.154  1.7955  0.2870 -2.8415
  998MOL0     H37702   0.385   2.620   3.226  0.0912  0.0961 -0.2549
  998MOL0     H37703   0.546   2.604   3.273 -0.3303  1.3826  1.2606
  998MOL0     H37704   0.223   3.081   2.825  0.6004 -0.2720 -1.6649
  998MOL0     H37705   0.321   3.122   2.595  1.1267  2.1008 -3.3454
  998MOL0     H37706   0.438   3.590   2.474 -1.4485 -0.2840 -1.1078
  998MOL0     H37707   0.483   3.785   2.329 -1.9172 -1.2588  0.5226
  998MOL0     H37708   0.978   3.741   0.580  2.4306  0.5445  0.7241
  998MOL0     H37709   0.883   3.842   0.370  0.3777 -1.4594 -1.5099
  998MOL0     H37710   0.970   4.262   0.113  1.2986 -3.2818 -2.1971
  998MOL0     H37711   0.876   4.424  -0.076  1.7029 -1.3163 -1.3379
  998MOL0     H37712   0.423   4.441  -0.118 -1.2576 -0.2483  2.4428
  998MOL0     H37713   0.471   4.575  -0.027  2.5084 -1.9628  1.8014
  998MOL0     H37714   0.533   4.581  -0.320  1.2848 -1.8784  1.1224
  998MOL0     H37715   0.481   4.716  -0.232  1.0113  0.7235 -2.2013
  998MOL0     H37716   0.285   4.487  -0.286  2.6778 -1.3570 -2.2090
  998MOL0     H37717   0.247   4.630  -0.207 -2.3369 -3.2336 -0.6586
  998MOL0     H37718   0.342   4.587  -0.493 -0.2526 -0.1461 -0.1571
  998MOL0     H37719   0.329   4.756  -0.440 -1.7258  0.3013 -0.2521
  998MOL0     H37720  -0.068   4.638  -0.523 -1.8946  1.4761  3.6866
  998MOL0     H37721   0.484   4.327   0.034  0.5544  1.4198 -1.5801
  998MOL0     H37722   0.436   4.173   0.240 -0.0570  0.2034  0.8680
  998MOL0     H37723   0.566   4.045   0.238 -0.6566 -0.7078 -0.6781
  998MOL0     H37724   0.562   4.181   0.354  0.6172 -0.6197 -0.2125
  999MOL0     O37725   8.943   9.500  11.533 -0.4272  0.9643  0.8149
  999MOL0     C37726   8.918   9.611  11.491 -0.8571  0.1314 -0.4923
  999MOL0     O37727   8.803   9.688  11.521 -0.2486  1.0022  0.9797
  999MOL0     C37728   8.705   9.616  11.588 -0.8929 -0.1733 -0.4444
  999MOL0     C37729   8.689   9.616  11.726  0.6579  0.5287 -0.3645
  999MOL0     C37730   8.593   9.547  11.788  0.8785  0.2203  0.0100
  999MOL0     C37731   8.501   9.470  11.714 -0.6045  0.1099  0.2174
  999MOL0     O37732   8.398   9.405  11.778  0.2034 -0.3985 -0.5652
  999MOL0     C37733   8.424   9.347  11.906 -1.1811 -0.3265 -0.1636
  999MOL0     C37734   8.309   9.253  11.949 -0.2798  0.2039 -0.4850
  999MOL0     C37735   8.177   9.325  11.981  0.5450  0.4350 -0.3637
  999MOL0     C37736   8.182   9.427  12.097 -0.3908  0.5607  0.6560
  999MOL0     C37737   8.058   9.524  12.091  0.0339  0.6370 -0.5944
  999MOL0     C37738   8.048   9.622  11.975 -0.1544 -0.7871 -0.2146
  999MOL0     C37739   7.942   9.734  11.975  0.8492 -0.6662  0.7493
  999MOL0     C37740   7.996   9.850  12.046 -0.4104  0.0041  0.0441
  999MOL0     N37741   7.892   9.952  12.074 -0.1887 -0.2876  0.0322
  999MOL0     C37742   7.807   9.951  12.178 -0.5992 -0.4246 -0.2157
  999MOL0     C37743   7.736  10.066  12.168  0.5264  0.6926  0.9153
  999MOL0     C37744   7.626  10.115  12.250  0.0116 -0.7209 -0.4499
  999MOL0     C37745   7.676  10.146  12.377 -0.2249 -0.8168  0.2359
  999MOL0     C37746   7.570  10.157  12.488  0.1771 -0.4248 -0.0886
  999MOL0     C37747   7.638  10.190  12.622  0.4311 -0.8068  0.5778
  999MOL0     O37748   7.683  10.323  12.621  0.5883 -0.4078 -0.7689
  999MOL0     C37749   7.769  10.355  12.715 -0.3980 -0.5169  0.0623
  999MOL0     C37750   7.817  10.292  12.829 -0.8478 -1.4670 -0.5725
  999MOL0     C37751   7.929  10.343  12.913  0.2689 -0.2631  0.0721
  999MOL0     C37752   7.971  10.261  13.037 -0.1947 -0.2578  0.2140
  999MOL0     C37753   7.983  10.467  12.882  0.2542  0.1327  0.2332
  999MOL0     C37754   8.112  10.523  12.934  0.8745  0.2142 -0.1259
  999MOL0     O37755   8.110  10.650  12.945 -0.0713  0.6469  0.0028
  999MOL0     C37756   8.218  10.722  12.995  0.1185  0.2774 -0.0146
  999MOL0     C37757   8.236  10.852  12.936 -0.3218 -0.3623 -0.2050
  999MOL0     C37758   8.345  10.928  12.966  0.6299 -0.3187 -0.1064
  999MOL0     C37759   8.431  10.881  13.060 -0.7303 -0.6040 -0.0135
  999MOL0     O37760   8.539  10.969  13.078 -0.1567  0.7783 -0.5311
  999MOL0     C37761   8.506  11.105  13.102 -0.5283 -0.1078  0.8716
  999MOL0     C37762   8.402  11.156  13.207 -0.2226  0.8124 -0.1994
  999MOL0     C37763   8.428  11.094  13.350  0.2009  0.2332  0.0348
  999MOL0     C37764   8.381  11.180  13.463  0.6444 -0.3266 -0.4894
  999MOL0     C37765   8.462  11.306  13.508  0.2426  0.4956  0.4664
  999MOL0     C37766   8.381  11.408  13.605 -0.2193 -0.5067  0.6519
  999MOL0     C37767   8.266  11.483  13.537 -0.3280  0.6022  0.6084
  999MOL0     C37768   8.318  11.586  13.437 -0.9551 -0.5144 -0.4797
  999MOL0    Cl37769   8.331  11.528  13.258 -0.1387  0.4058 -0.2829
  999MOL0     C37770   8.413  10.759  13.127 -0.0182  0.4404  1.0457
  999MOL0     C37771   8.310  10.670  13.095 -0.7825 -0.3640  0.8294
  999MOL0     O37772   8.213  10.447  12.930  0.4979 -0.7554 -0.1734
  999MOL0     C37773   7.916  10.544  12.785  0.4266 -0.7055 -0.2622
  999MOL0     C37774   7.831  10.481  12.695 -0.5407 -0.8202 -0.8495
  999MOL0     N37775   7.770  10.129  12.044  0.0113  0.1796  0.4140
  999MOL0     N37776   7.870  10.059  11.995 -0.2469  0.4449 -0.1552
  999MOL0     C37777   8.523   9.457  11.582 -0.4830 -0.9003  0.6456
  999MOL0     C37778   8.619   9.532  11.515 -0.1346 -0.7665 -0.1870
  999MOL0     C37779   9.037   9.659  11.410  0.3659  0.1783 -0.1643
  999MOL0     C37780   9.073   9.791  11.429 -1.2812 -0.4486 -0.1186
  999MOL0     C37781   9.195   9.846  11.370 -0.0940 -0.4280 -0.1119
  999MOL0     C37782   9.272   9.764  11.285  0.0939 -0.7124  1.3020
  999MOL0     O37783   9.392   9.811  11.230 -0.8276  0.2069 -0.5126
  999MOL0     C37784   9.505   9.723  11.257  0.8273 -0.4030  0.3678
  999MOL0     C37785   9.631   9.803  11.211 -1.2985  0.3690 -0.7706
  999MOL0     C37786   9.716   9.718  11.105 -0.3880 -0.2953 -0.3112
  999MOL0     C37787   9.796   9.608  11.170 -0.3841 -0.1179  0.3618
  999MOL0     C37788   9.932   9.656  11.228  1.4811  0.3070  0.3656
  999MOL0     C37789  10.041   9.687  11.266 -0.3727  0.2392  0.5757
  999MOL0     C37790   9.228   9.631  11.263  0.4418 -0.6677  0.0002
  999MOL0     C37791   9.108   9.590  11.313  0.2740  0.3336  0.2353
  999MOL0     C37792   9.071   9.453  11.266  0.0347  0.4830  0.4149
  999MOL0     H37793   8.756   9.673  11.790  1.6718  0.6469 -1.4826
  999MOL0     H37794   8.578   9.562  11.894 -0.5220  5.9637 -0.6478
  999MOL0     H37795   8.444   9.430  11.975  2.5562  0.3543 -1.7802
  999MOL0     H37796   8.509   9.278  11.909 -2.7299 -2.2956  0.5337
  999MOL0     H37797   8.288   9.176  11.875  0.0835  1.8195 -2.3512
  999MOL0     H37798   8.342   9.193  12.034 -0.0055 -0.6564 -1.1849
  999MOL0     H37799   8.138   9.369  11.888  0.2291 -0.9551 -0.9055
  999MOL0     H37800   8.094   9.259  12.006 -2.9883  3.5108 -2.7340
  999MOL0     H37801   8.184   9.384  12.197  0.1977 -0.2446  0.3073
  999MOL0     H37802   8.272   9.489  12.094  0.7390 -1.0633 -0.1519
  999MOL0     H37803   8.053   9.586  12.181  1.7880  1.8546 -1.2820
  999MOL0     H37804   7.967   9.463  12.086  0.3423  0.2244 -1.3330
  999MOL0     H37805   8.147   9.665  11.960 -1.7494  3.2980 -0.2940
  999MOL0     H37806   8.016   9.560  11.890 -1.1113 -0.7295  0.0899
  999MOL0     H37807   7.841   9.705  12.006  0.4885  1.0611  1.2776
  999MOL0     H37808   7.938   9.759  11.869  3.7974  1.6914  1.0584
  999MOL0     H37809   8.050   9.827  12.138  0.1940 -1.2179 -0.5913
  999MOL0     H37810   8.065   9.904  11.981  0.6310 -2.2562 -0.8062
  999MOL0     H37811   7.807   9.870  12.251  3.9211 -0.3299  0.1509
  999MOL0     H37812   7.559  10.030  12.267  2.7863 -2.7199  1.2789
  999MOL0     H37813   7.570  10.197  12.205  0.6999  1.6835  2.7609
  999MOL0     H37814   7.729  10.063  12.424  0.8920 -0.2432  0.0146
  999MOL0     H37815   7.740  10.235  12.370  0.1917 -1.2039 -1.4165
  999MOL0     H37816   7.495  10.229  12.455 -0.9383 -0.9419  1.2322
  999MOL0     H37817   7.527  10.057  12.501  0.8787 -0.7782 -0.3946
  999MOL0     H37818   7.579  10.169  12.711  1.1775 -0.7569  1.0970
  999MOL0     H37819   7.718  10.116  12.634  0.3859 -1.2938 -1.6948
  999MOL0     H37820   7.781  10.194  12.858  0.6916 -1.7507  0.5297
  999MOL0     H37821   7.937  10.311  13.129  3.0380 -0.2984  1.5544
  999MOL0     H37822   8.080  10.253  13.028  0.1496  2.3616  1.1577
  999MOL0     H37823   7.921  10.165  13.022 -0.4357  0.1116 -1.4757
  999MOL0     H37824   8.165  10.896  12.866  0.1898  0.1937 -0.3933
  999MOL0     H37825   8.363  11.023  12.917 -0.2748  1.4456  2.7048
  999MOL0     H37826   8.596  11.157  13.138  3.7101 -3.9004 -2.9479
  999MOL0     H37827   8.492  11.157  13.007 -0.2741  2.1776  2.0112
  999MOL0     H37828   8.401  11.265  13.210 -0.7107  0.8613 -1.3587
  999MOL0     H37829   8.304  11.119  13.175  0.8742 -3.6470  0.8800
  999MOL0     H37830   8.533  11.069  13.368  0.9913  1.1951 -2.7243
  999MOL0     H37831   8.372  11.000  13.353 -2.3047  1.5860 -1.0253
  999MOL0     H37832   8.367  11.116  13.551 -1.6056  1.2052  0.3552
  999MOL0     H37833   8.284  11.217  13.427  1.1636  0.1541 -1.4059
  999MOL0     H37834   8.555  11.275  13.558  0.5028 -0.2940 -0.4695
  999MOL0     H37835   8.485  11.370  13.422 -1.0654  0.4331  0.0563
  999MOL0     H37836   8.451  11.472  13.660  3.0310 -3.5709  0.5192
  999MOL0     H37837   8.335  11.341  13.677 -0.9370  0.1353  0.7958
  999MOL0     H37838   8.207  11.523  13.619 -2.1323  1.6182 -1.1122
  999MOL0     H37839   8.195  11.415  13.490 -2.2863  1.7760  1.7648
  999MOL0     H37840   8.416  11.626  13.465 -0.3172 -2.2073 -0.1745
  999MOL0     H37841   8.244  11.666  13.421 -0.7456 -0.6530 -2.4565
  999MOL0     H37842   8.496  10.726  13.189  0.7922 -1.0693 -0.7465
  999MOL0     H37843   8.302  10.574  13.146  0.6795  0.3039  2.4154
  999MOL0     H37844   7.957  10.644  12.771  2.5664 -1.0923  2.2946
  999MOL0     H37845   7.805  10.549  12.615  1.5414  2.9979  1.4037
  999MOL0     H37846   8.454   9.395  11.526 -1.2115 -1.3645  2.0178
  999MOL0     H37847   8.627   9.532  11.407  1.7733 -2.0928 -0.1021
  999MOL0     H37848   9.026   9.860  11.500  0.9796 -1.4889  2.5955
  999MOL0     H37849   9.219   9.951  11.387 -0.5864 -0.0471 -1.5769
  999MOL0     H37850   9.516   9.698  11.363  0.4752  1.1566  0.8059
  999MOL0     H37851   9.490   9.639  11.189  1.3129 -1.4952  1.5577
  999MOL0     H37852   9.702   9.827  11.290 -1.6170  3.5981 -1.3391
  999MOL0     H37853   9.607   9.905  11.180  2.1157  1.3804 -0.5033
  999MOL0     H37854   9.649   9.666  11.037  0.4461  0.0838 -1.4601
  999MOL0     H37855   9.771   9.790  11.044 -2.5939 -0.5968 -2.8468
  999MOL0     H37856   9.808   9.517  11.111  0.8976  0.6275 -0.5773
  999MOL0     H37857   9.734   9.577  11.255 -0.8133  1.4367  0.6550
  999MOL0     H37858  10.142   9.691  11.302  0.0281 -2.8529  0.0571
  999MOL0     H37859   9.292   9.584  11.189  1.0019 -4.2910  2.4958
  999MOL0     H37860   9.145   9.421  11.192  2.0709 -0.1667  2.6125
  999MOL0     H37861   9.074   9.388  11.354 -1.6496  0.7440  0.7001
  999MOL0     H37862   8.970   9.460  11.224 -1.5579 -1.3284  3.5554
 1000MOL0     O37863   1.036   2.906  11.267  0.0392  0.0115  0.2045
 1000MOL0     C37864   1.068   2.870  11.381  0.2326 -0.2858  0.3247
 1000MOL0     O37865   1.157   2.941  11.461  0.5203 -1.0252  0.2569
 1000MOL0     C37866   1.211   3.063  11.431 -0.4143 -0.3853  0.6588
 1000MOL0     C37867   1.246   3.143  11.539  1.0812 -0.2315  0.9492
 1000MOL0     C37868   1.275   3.282  11.507  0.4368 -0.3854 -1.3116
 1000MOL0     C37869   1.310   3.323  11.382  0.2168  0.9431  0.1073
 1000MOL0     O37870   1.352   3.456  11.354 -0.2145  0.7461  1.0926
 1000MOL0     C37871   1.456   3.484  11.260 -0.5030 -0.6601 -0.1889
 1000MOL0     C37872   1.538   3.605  11.296 -0.1067  0.2591  0.0373
 1000MOL0     C37873   1.464   3.741  11.294  0.0853 -0.1036 -0.0740
 1000MOL0     C37874   1.550   3.867  11.280 -0.4436 -0.0114 -0.6529
 1000MOL0     C37875   1.475   3.993  11.282  0.1246  0.4860  0.0293
 1000MOL0     C37876   1.389   4.011  11.409  0.0142 -0.6650  0.6750
 1000MOL0     C37877   1.331   4.154  11.426 -0.5258  0.4710  0.3998
 1000MOL0     C37878   1.438   4.255  11.465  0.2042  0.2559  0.4273
 1000MOL0     N37879   1.390   4.396  11.462  0.2458  0.8904  0.2017
 1000MOL0     C37880   1.265   4.444  11.483 -0.1093  0.1200  0.3852
 1000MOL0     C37881   1.278   4.568  11.533 -1.0093 -0.0905 -0.1411
 1000MOL0     C37882   1.175   4.652  11.587 -0.4233 -0.4030 -0.0337
 1000MOL0     C37883   1.184   4.676  11.738 -0.1855  0.1721  0.6287
 1000MOL0     C37884   1.124   4.544  11.801 -1.4136 -0.8207 -0.0053
 1000MOL0     C37885   1.091   4.583  11.947  0.5486  0.6736 -1.5482
 1000MOL0     O37886   1.004   4.477  12.002 -0.0391  0.0910 -0.5328
 1000MOL0     C37887   0.974   4.475  12.134  0.1420 -0.6891  0.7072
 1000MOL0     C37888   0.971   4.355  12.200  0.1739 -0.1259  0.6468
 1000MOL0     C37889   0.947   4.344  12.328  0.9696 -0.4608 -0.5611
 1000MOL0     C37890   0.938   4.210  12.397 -0.4066 -0.2038 -0.0234
 1000MOL0     C37891   0.944   4.470  12.408 -0.7026 -0.2286  0.9461
 1000MOL0     C37892   0.954   4.477  12.560  0.3342  0.3165 -0.1619
 1000MOL0     O37893   0.894   4.589  12.617  0.9043  1.1147  0.7630
 1000MOL0     C37894   0.851   4.584  12.747 -0.2952  0.0373  0.3772
 1000MOL0     C37895   0.941   4.605  12.855  1.2384 -0.0483  0.1240
 1000MOL0     C37896   0.910   4.575  12.986 -0.5500 -0.9335 -0.1713
 1000MOL0     C37897   0.785   4.532  13.020  0.5993  0.2093 -0.2599
 1000MOL0     O37898   0.768   4.502  13.152  0.1202  0.6733 -0.2379
 1000MOL0     C37899   0.676   4.397  13.188 -0.4929  0.7372  0.0130
 1000MOL0     C37900   0.769   4.281  13.239  0.2682  0.8588  0.5921
 1000MOL0     C37901   0.799   4.320  13.388  0.3886  0.2759 -0.1908
 1000MOL0     C37902   0.695   4.267  13.483  0.1334  0.2162  0.5022
 1000MOL0     C37903   0.727   4.297  13.626 -0.3731 -0.7377 -0.4909
 1000MOL0     C37904   0.613   4.251  13.715 -0.6398  0.3088  0.1006
 1000MOL0     C37905   0.629   4.300  13.857  0.2880  0.1668 -0.5347
 1000MOL0     C37906   0.578   4.198  13.956 -0.7025  0.0042 -0.4214
 1000MOL0    Cl37907   0.412   4.148  13.929 -0.2964 -0.3632  0.1053
 1000MOL0     C37908   0.686   4.514  12.917 -0.6917  0.0186  0.0391
 1000MOL0     C37909   0.719   4.548  12.788 -0.0998 -0.2336  0.5039
 1000MOL0     O37910   1.023   4.397  12.625 -0.2557  0.8216  0.1269
 1000MOL0     C37911   0.931   4.595  12.339 -0.0618  1.2430  0.3047
 1000MOL0     C37912   0.945   4.592  12.202 -0.1011 -0.6505 -0.6226
 1000MOL0     N37913   1.409   4.601  11.537  0.7798 -0.0818  0.0574
 1000MOL0     N37914   1.477   4.498  11.494 -0.5381  0.4398  0.6152
 1000MOL0     C37915   1.297   3.234  11.280 -0.6723  0.1946 -0.4253
 1000MOL0     C37916   1.245   3.102  11.299  0.0974 -0.0871 -0.3835
 1000MOL0     C37917   0.999   2.750  11.429  1.0600  0.5515  0.1405
 1000MOL0     C37918   1.034   2.695  11.548 -0.5293 -1.0770  1.3519
 1000MOL0     C37919   0.969   2.582  11.604  0.4221 -0.0978 -0.3832
 1000MOL0     C37920   0.871   2.510  11.533  0.5607  0.4474 -0.4792
 1000MOL0     O37921   0.822   2.396  11.593 -0.3038 -0.0109 -0.3908
 1000MOL0     C37922   0.738   2.313  11.521  0.8131  0.0004  0.0659
 1000MOL0     C37923   0.590   2.351  11.538 -0.2826  0.5106 -0.7431
 1000MOL0     C37924   0.493   2.229  11.525 -1.2005  0.1199  0.9766
 1000MOL0     C37925   0.486   2.159  11.667  0.7378 -0.3401  1.3243
 1000MOL0     C37926   0.583   2.052  11.694  0.0736 -0.2356  0.8098
 1000MOL0     C37927   0.636   1.942  11.705 -0.3629 -0.3805 -1.1492
 1000MOL0     C37928   0.844   2.558  11.405  0.9970  0.4256  0.5143
 1000MOL0     C37929   0.902   2.672  11.354  0.1178  0.5324  0.2706
 1000MOL0     C37930   0.864   2.706  11.207  0.4250  0.3892  0.0920
 1000MOL0     H37931   1.233   3.115  11.643  5.0143  0.3094  1.7243
 1000MOL0     H37932   1.286   3.342  11.597  0.4192 -3.8041  1.1834
 1000MOL0     H37933   1.418   3.490  11.157 -2.1586 -0.0012  0.4405
 1000MOL0     H37934   1.541   3.416  11.276  4.2396  5.2490  5.0396
 1000MOL0     H37935   1.600   3.591  11.385  1.0209  0.7092 -0.6580
 1000MOL0     H37936   1.621   3.626  11.228  0.9494  0.4135  1.3261
 1000MOL0     H37937   1.391   3.737  11.213 -1.1930 -0.3436  1.0549
 1000MOL0     H37938   1.405   3.740  11.386 -1.5740  1.2797 -1.0689
 1000MOL0     H37939   1.614   3.853  11.367  2.5794 -1.8020 -2.9530
 1000MOL0     H37940   1.613   3.864  11.191 -1.1369  2.2893 -1.2963
 1000MOL0     H37941   1.407   3.991  11.196 -0.2847 -2.1062  0.3445
 1000MOL0     H37942   1.551   4.071  11.274 -0.5916  1.2164  0.2233
 1000MOL0     H37943   1.307   3.938  11.408 -0.1671 -0.4663  0.8298
 1000MOL0     H37944   1.455   3.999  11.495  0.8265  1.4433  0.4090
 1000MOL0     H37945   1.265   4.148  11.513  0.7590 -3.5099  1.3087
 1000MOL0     H37946   1.284   4.188  11.333  0.3789 -3.8747 -1.8903
 1000MOL0     H37947   1.473   4.235  11.567  1.7208  1.4953  0.1799
 1000MOL0     H37948   1.515   4.250  11.388 -0.4157 -1.2561 -0.1394
 1000MOL0     H37949   1.172   4.391  11.465  0.5578 -1.3025  0.9650
 1000MOL0     H37950   1.074   4.623  11.556  0.2420 -1.4420 -1.3039
 1000MOL0     H37951   1.187   4.757  11.557  1.4644 -1.2834 -2.7288
 1000MOL0     H37952   1.285   4.707  11.766  0.4873 -1.6728  0.3803
 1000MOL0     H37953   1.114   4.755  11.766 -3.0679 -1.6851 -0.8096
 1000MOL0     H37954   1.033   4.511  11.751 -2.1410 -0.8532  1.2839
 1000MOL0     H37955   1.184   4.453  11.807  0.7512  0.6162  1.4493
 1000MOL0     H37956   1.176   4.606  12.011 -1.2288  2.1989  0.4216
 1000MOL0     H37957   1.032   4.675  11.944 -0.2678  0.6791  3.6999
 1000MOL0     H37958   0.965   4.267  12.138 -0.7424 -1.3319  2.3614
 1000MOL0     H37959   0.907   4.226  12.501  4.0820  4.3000  1.0380
 1000MOL0     H37960   1.034   4.157  12.407  0.1603  0.6205 -0.9271
 1000MOL0     H37961   0.878   4.142  12.336  0.7472 -0.7533 -0.5733
 1000MOL0     H37962   1.042   4.642  12.840  0.9529  1.3100  1.3901
 1000MOL0     H37963   0.980   4.576  13.069 -1.8743 -0.7399  0.9715
 1000MOL0     H37964   0.605   4.434  13.263 -1.8617  2.6332 -2.0975
 1000MOL0     H37965   0.634   4.348  13.100  5.6228 -0.8653 -2.5369
 1000MOL0     H37966   0.729   4.180  13.228  3.6863 -0.6049  0.1780
 1000MOL0     H37967   0.853   4.282  13.168 -1.1929  1.3237 -1.2229
 1000MOL0     H37968   0.792   4.428  13.403 -1.2746  0.0279  1.1585
 1000MOL0     H37969   0.893   4.270  13.411 -0.4069 -1.3730 -0.3544
 1000MOL0     H37970   0.693   4.164  13.448  3.5666  1.1512 -3.3509
 1000MOL0     H37971   0.608   4.330  13.461 -1.6394 -1.8498  1.2955
 1000MOL0     H37972   0.815   4.259  13.677  0.1196  1.2169  0.2285
 1000MOL0     H37973   0.738   4.406  13.624 -0.3956 -0.7496 -1.9026
 1000MOL0     H37974   0.619   4.142  13.712  3.2045  0.4145 -2.0063
 1000MOL0     H37975   0.518   4.275  13.666  0.6546 -0.9926 -3.3602
 1000MOL0     H37976   0.594   4.403  13.870  2.0342  1.0938 -2.5725
 1000MOL0     H37977   0.733   4.310  13.890  1.0129 -2.1435 -1.9024
 1000MOL0     H37978   0.586   4.237  14.058  2.3693  0.3996 -0.7292
 1000MOL0     H37979   0.639   4.108  13.952 -0.0143  0.5027 -1.5904
 1000MOL0     H37980   0.585   4.476  12.932 -1.8504  2.5671 -0.6310
 1000MOL0     H37981   0.648   4.543  12.706 -0.6022  2.7568  0.6182
 1000MOL0     H37982   0.917   4.691  12.388 -2.2180  0.2474  1.7793
 1000MOL0     H37983   0.942   4.676  12.134  1.1401 -1.5617 -1.8654
 1000MOL0     H37984   1.327   3.270  11.182  1.4950 -0.1991  0.0363
 1000MOL0     H37985   1.230   3.039  11.212 -0.6131  0.4856 -0.6932
 1000MOL0     H37986   1.115   2.742  11.602 -0.3858  2.8178 -1.7604
 1000MOL0     H37987   0.996   2.554  11.706  1.2035 -0.6034 -0.7153
 1000MOL0     H37988   0.764   2.299  11.415 -0.5114 -2.9916  0.0249
 1000MOL0     H37989   0.752   2.215  11.568  2.3321  1.3089  2.5456
 1000MOL0     H37990   0.552   2.419  11.462 -1.5652 -0.0156 -0.5953
 1000MOL0     H37991   0.582   2.389  11.641 -1.5614  1.5098 -1.1876
 1000MOL0     H37992   0.392   2.269  11.507 -1.3729 -0.2067  1.1956
 1000MOL0     H37993   0.527   2.159  11.449 -4.1952 -0.4387  0.0108
 1000MOL0     H37994   0.389   2.110  11.678  2.1120 -3.6629  0.1105
 1000MOL0     H37995   0.497   2.229  11.750 -0.7634  3.6069 -1.4649
 1000MOL0     H37996   0.677   1.844  11.699  2.3449  0.7356 -2.8070
 1000MOL0     H37997   0.764   2.520  11.342  1.1582  0.8752  0.0339
 1000MOL0     H37998   0.946   2.687  11.138  1.2040  2.1286  0.4980
 1000MOL0     H37999   0.772   2.649  11.186 -0.4604  0.0480  4.0792
 1000MOL0     H38000   0.829   2.809  11.213  1.6681  0.7701  1.1354
 1001MOL0     O38001   3.403   9.235   7.045 -0.5416  0.0257  0.7075
 1001MOL0     C38002   3.427   9.136   7.114  0.5654  0.7055 -0.3189
 1001MOL0     O38003   3.368   9.017   7.103 -0.3100 -0.3348  0.3551
 1001MOL0     C38004   3.317   8.973   6.983 -0.0839  0.8240  0.9680
 1001MOL0     C38005   3.359   9.020   6.860  0.2908 -0.2778  1.1743
 1001MOL0     C38006   3.314   8.969   6.735  0.2957  0.1945 -0.7441
 1001MOL0     C38007   3.214   8.862   6.738 -0.3800  0.3475  0.2228
 1001MOL0     O38008   3.160   8.815   6.621  0.3204  0.1198 -0.2378
 1001MOL0     C38009   3.080   8.701   6.617  0.8457 -0.5036  0.1294
 1001MOL0     C38010   3.077   8.663   6.467  0.1637 -0.1650  0.3364
 1001MOL0     C38011   2.988   8.756   6.381 -0.0961 -1.4875 -0.6628
 1001MOL0     C38012   2.845   8.780   6.442  0.2467 -0.1864  0.8351
 1001MOL0     C38013   2.742   8.855   6.351  0.0920 -1.2548  0.6264
 1001MOL0     C38014   2.692   8.785   6.219  0.5521 -1.0862  0.1312
 1001MOL0     C38015   2.606   8.661   6.232  0.4083  0.8126 -0.7652
 1001MOL0     C38016   2.497   8.671   6.337  0.5080 -0.2715 -1.3483
 1001MOL0     N38017   2.418   8.544   6.355 -0.3152 -0.6952  0.8701
 1001MOL0     C38018   2.345   8.496   6.249  1.1126  0.7563 -0.6879
 1001MOL0     C38019   2.292   8.381   6.292 -0.0943 -0.9611  0.2779
 1001MOL0     C38020   2.195   8.288   6.224  0.2212 -0.8453  0.2077
 1001MOL0     C38021   2.258   8.151   6.203  1.2267  0.0395  0.4622
 1001MOL0     C38022   2.175   8.054   6.123  1.2371  0.3677 -0.5833
 1001MOL0     C38023   2.243   7.916   6.142 -0.3330 -0.4067  0.3898
 1001MOL0     O38024   2.133   7.832   6.145 -0.0188 -0.0201 -1.2113
 1001MOL0     C38025   2.158   7.695   6.173 -0.2612 -0.2712 -0.4133
 1001MOL0     C38026   2.262   7.632   6.104 -0.7859  0.4523  0.0082
 1001MOL0     C38027   2.276   7.486   6.115 -0.3362 -0.7654 -0.7391
 1001MOL0     C38028   2.376   7.431   6.027  0.0650  0.0593  0.8788
 1001MOL0     C38029   2.205   7.416   6.219 -1.1117  0.9784 -0.2190
 1001MOL0     C38030   2.236   7.271   6.247  0.7522  0.0527  0.1798
 1001MOL0     O38031   2.160   7.223   6.344 -0.1534  0.3550 -0.8487
 1001MOL0     C38032   2.201   7.092   6.388  0.5169 -0.1359 -0.2281
 1001MOL0     C38033   2.123   6.980   6.367  0.5900  0.0941  0.2180
 1001MOL0     C38034   2.161   6.851   6.405 -0.6479 -0.4376  0.3976
 1001MOL0     C38035   2.280   6.830   6.463 -0.0375 -0.5161  0.0558
 1001MOL0     O38036   2.302   6.700   6.499 -0.4397  0.0070 -0.4844
 1001MOL0     C38037   2.394   6.672   6.608  0.0079  0.3040  0.8790
 1001MOL0     C38038   2.342   6.551   6.686  0.8307 -0.3438  0.8864
 1001MOL0     C38039   2.381   6.408   6.647 -0.2990 -0.0113 -0.9127
 1001MOL0     C38040   2.333   6.299   6.746  0.2050 -0.0084 -0.2849
 1001MOL0     C38041   2.354   6.163   6.685  0.4241 -0.7376 -0.6106
 1001MOL0     C38042   2.315   6.043   6.767 -0.3263  0.3745  0.6612
 1001MOL0     C38043   2.377   5.910   6.724 -0.0612  0.3334 -0.2490
 1001MOL0     C38044   2.315   5.797   6.810 -0.1942 -0.9812 -1.1684
 1001MOL0    Cl38045   2.378   5.651   6.751  0.3343  0.6766  0.3191
 1001MOL0     C38046   2.363   6.943   6.492 -0.0487 -0.1238  0.5584
 1001MOL0     C38047   2.323   7.070   6.449 -0.1805 -0.2147 -0.3669
 1001MOL0     O38048   2.315   7.209   6.176  0.0944  0.9116 -0.7236
 1001MOL0     C38049   2.107   7.487   6.290 -0.3214 -0.0307  1.1871
 1001MOL0     C38050   2.070   7.623   6.255  0.0773 -0.3316 -0.3005
 1001MOL0     N38051   2.332   8.372   6.426  0.0037  0.6330  0.9978
 1001MOL0     N38052   2.403   8.471   6.460 -1.5635 -0.3959 -0.7521
 1001MOL0     C38053   3.165   8.823   6.866 -0.8665 -0.2183 -0.0638
 1001MOL0     C38054   3.217   8.875   6.976  0.2389 -0.9755 -0.5568
 1001MOL0     C38055   3.472   9.172   7.256 -0.0921  0.3766  0.2748
 1001MOL0     C38056   3.443   9.084   7.363 -0.1282  0.8699  0.0199
 1001MOL0     C38057   3.495   9.096   7.492 -0.0432 -0.0100  0.3975
 1001MOL0     C38058   3.587   9.195   7.522 -0.8572  0.6329  0.8390
 1001MOL0     O38059   3.671   9.216   7.629 -0.0452 -0.0251 -0.6688
 1001MOL0     C38060   3.647   9.136   7.750  1.0438 -0.0426  0.7065
 1001MOL0     C38061   3.653   9.222   7.872 -1.0295 -0.6261  0.4874
 1001MOL0     C38062   3.771   9.308   7.912  0.2080  0.2665  0.4710
 1001MOL0     C38063   3.742   9.453   7.955 -0.1872 -0.1572 -1.1821
 1001MOL0     C38064   3.635   9.459   8.057 -0.3379 -0.3148  0.6574
 1001MOL0     C38065   3.547   9.466   8.144  0.1905 -0.5232 -0.2196
 1001MOL0     C38066   3.623   9.279   7.414  0.2025  0.4927 -0.2913
 1001MOL0     C38067   3.564   9.273   7.289 -0.3751  0.1575 -1.1158
 1001MOL0     C38068   3.627   9.374   7.196  1.0742 -1.3165 -0.2680
 1001MOL0     H38069   3.434   9.098   6.861  0.4745 -0.3330 -1.3998
 1001MOL0     H38070   3.353   8.997   6.638  1.7759 -2.0408 -0.8716
 1001MOL0     H38071   2.979   8.723   6.653  1.1835  1.2403  0.1018
 1001MOL0     H38072   3.134   8.623   6.670  1.4856 -1.1306 -1.3847
 1001MOL0     H38073   3.175   8.656   6.420  1.5074 -0.7741  3.0052
 1001MOL0     H38074   3.050   8.558   6.454  5.8153 -2.0029  0.9459
 1001MOL0     H38075   3.033   8.856   6.382 -1.9291 -0.5971  1.6562
 1001MOL0     H38076   3.003   8.722   6.278 -0.5659  1.6680 -1.8998
 1001MOL0     H38077   2.809   8.683   6.476  1.4610  0.4034  4.1655
 1001MOL0     H38078   2.844   8.842   6.533  2.5061  1.1110  0.0612
 1001MOL0     H38079   2.783   8.950   6.317 -2.9475 -0.0547 -0.0062
 1001MOL0     H38080   2.652   8.871   6.411  0.5579  0.8880  0.8288
 1001MOL0     H38081   2.638   8.858   6.159  1.8371 -3.4199 -4.2567
 1001MOL0     H38082   2.776   8.762   6.153  0.9223  2.8037 -0.9866
 1001MOL0     H38083   2.663   8.568   6.239  0.3285  0.7574 -0.8338
 1001MOL0     H38084   2.561   8.653   6.132 -1.0129 -1.3469 -0.0157
 1001MOL0     H38085   2.546   8.704   6.429  0.3795  4.4191 -2.6608
 1001MOL0     H38086   2.433   8.759   6.323  0.1975  0.6051  3.7737
 1001MOL0     H38087   2.343   8.526   6.145 -2.0428 -2.7085 -1.8274
 1001MOL0     H38088   2.162   8.330   6.128 -2.5062 -1.6156  0.7220
 1001MOL0     H38089   2.108   8.261   6.284 -1.6776 -1.3004 -2.5446
 1001MOL0     H38090   2.350   8.173   6.147  0.7852  3.1626  0.8317
 1001MOL0     H38091   2.275   8.110   6.303 -0.4497  2.0550  1.6515
 1001MOL0     H38092   2.071   8.049   6.154  1.3126  2.3127  0.1225
 1001MOL0     H38093   2.152   8.096   6.024 -1.7471  0.0014 -0.1329
 1001MOL0     H38094   2.317   7.895   6.064  0.1068  0.5420  0.5363
 1001MOL0     H38095   2.294   7.896   6.237 -0.2091 -1.6910  0.0721
 1001MOL0     H38096   2.300   7.689   6.020 -4.3894  0.7922 -1.5849
 1001MOL0     H38097   2.330   7.348   5.973 -5.1310  3.5982 -0.9326
 1001MOL0     H38098   2.468   7.403   6.079  1.6363  1.5088 -0.9678
 1001MOL0     H38099   2.392   7.506   5.949  0.3100 -3.7927 -3.1541
 1001MOL0     H38100   2.027   6.984   6.316  1.2244  3.3640 -0.9934
 1001MOL0     H38101   2.095   6.767   6.385 -0.3147  0.2137 -4.8443
 1001MOL0     H38102   2.495   6.651   6.573 -0.7099 -1.4180 -0.3492
 1001MOL0     H38103   2.403   6.755   6.679 -1.9892 -0.1742  1.7817
 1001MOL0     H38104   2.389   6.553   6.784  2.0225 -0.5852  0.3398
 1001MOL0     H38105   2.234   6.566   6.693  1.1164  2.5126  0.2478
 1001MOL0     H38106   2.490   6.401   6.641 -0.0845 -1.8533  2.6142
 1001MOL0     H38107   2.350   6.385   6.545  1.4412 -3.6394 -0.7925
 1001MOL0     H38108   2.226   6.310   6.765  0.5286 -0.6444  2.3568
 1001MOL0     H38109   2.379   6.314   6.844  1.3752  1.0600 -0.9699
 1001MOL0     H38110   2.307   6.163   6.587 -0.3958  0.8009 -0.2544
 1001MOL0     H38111   2.461   6.159   6.662  0.5923 -0.8632  0.1600
 1001MOL0     H38112   2.209   6.023   6.783  0.1052 -2.9599  0.1899
 1001MOL0     H38113   2.347   6.059   6.870  0.5681  0.7445  0.3399
 1001MOL0     H38114   2.480   5.931   6.754  0.0390 -1.9846  1.3482
 1001MOL0     H38115   2.375   5.891   6.617  1.7688 -0.1445 -0.2353
 1001MOL0     H38116   2.207   5.789   6.797 -0.2844 -1.9104 -0.0436
 1001MOL0     H38117   2.329   5.813   6.918 -4.8831  3.4585 -0.8603
 1001MOL0     H38118   2.446   6.924   6.559  0.6185 -2.7401 -0.8794
 1001MOL0     H38119   2.380   7.158   6.478 -2.4251  1.3080 -0.3083
 1001MOL0     H38120   2.051   7.438   6.369 -3.0584 -2.4626 -1.9628
 1001MOL0     H38121   1.999   7.673   6.320 -1.6898 -3.2820  0.2258
 1001MOL0     H38122   3.092   8.743   6.867 -0.1610 -0.8696  0.3805
 1001MOL0     H38123   3.182   8.841   7.073  1.0924 -0.0128  0.1031
 1001MOL0     H38124   3.381   8.995   7.356  1.4213 -0.2393  0.0238
 1001MOL0     H38125   3.482   9.015   7.564 -1.9141  0.5900  0.7689
 1001MOL0     H38126   3.544   9.099   7.751  0.0751  2.4571  2.5531
 1001MOL0     H38127   3.714   9.049   7.758  1.1277 -0.1008 -0.4330
 1001MOL0     H38128   3.645   9.147   7.951 -0.5098  0.4359  1.5768
 1001MOL0     H38129   3.559   9.279   7.870 -0.7321 -0.1353  0.5530
 1001MOL0     H38130   3.830   9.261   7.991 -2.6228 -2.8082  0.9894
 1001MOL0     H38131   3.825   9.328   7.819 -1.9509 -2.7483 -1.6074
 1001MOL0     H38132   3.717   9.512   7.867 -0.1177  1.0439 -0.4207
 1001MOL0     H38133   3.838   9.493   7.990 -0.6572  1.9588 -2.1603
 1001MOL0     H38134   3.473   9.478   8.221 -0.6680  1.0247 -1.2417
 1001MOL0     H38135   3.710   9.342   7.426  0.3960  0.4756 -1.4704
 1001MOL0     H38136   3.585   9.475   7.208  2.3463 -0.3299 -3.1696
 1001MOL0     H38137   3.735   9.381   7.213  0.7027 -1.1847  2.3819
 1001MOL0     H38138   3.611   9.346   7.091 -3.4444  1.0445 -0.4610
 1002MOL0     O38139   6.379   1.327   3.311  0.3031 -0.0532 -0.1977
 1002MOL0     C38140   6.401   1.219   3.373 -0.1541 -0.8770  0.1615
 1002MOL0     O38141   6.354   1.095   3.327  0.1506  0.2943 -0.7354
 1002MOL0     C38142   6.311   1.085   3.198 -0.1758 -0.3426  0.0915
 1002MOL0     C38143   6.401   1.077   3.086  0.8762  0.0427 -0.1002
 1002MOL0     C38144   6.360   1.070   2.960 -0.4383 -0.8880  0.7048
 1002MOL0     C38145   6.215   1.062   2.936  0.1966  0.5865  0.5059
 1002MOL0     O38146   6.159   1.044   2.812  0.3489 -0.0566  0.2803
 1002MOL0     C38147   6.242   1.083   2.698 -0.9099  0.2056 -1.5081
 1002MOL0     C38148   6.160   1.106   2.568  0.0161  0.6818  0.6061
 1002MOL0     C38149   6.102   1.253   2.569 -0.4879  0.4709  0.0909
 1002MOL0     C38150   5.980   1.270   2.667  0.0351  0.8509 -1.0803
 1002MOL0     C38151   5.882   1.150   2.690  0.0059  0.2657 -0.1640
 1002MOL0     C38152   5.771   1.197   2.784  0.1077 -0.2363  0.7615
 1002MOL0     C38153   5.640   1.129   2.743  0.3047 -0.0770 -0.4763
 1002MOL0     C38154   5.558   1.208   2.640 -0.3276 -0.1826 -0.4863
 1002MOL0     N38155   5.439   1.139   2.610 -0.0746 -0.5033  0.0270
 1002MOL0     C38156   5.328   1.133   2.703 -0.5488  0.3600 -0.0260
 1002MOL0     C38157   5.244   1.046   2.645  0.3716  0.8610  0.0692
 1002MOL0     C38158   5.106   0.994   2.702 -0.6167 -0.0736  0.0173
 1002MOL0     C38159   5.127   0.850   2.756  0.3457  0.3313  1.0942
 1002MOL0     C38160   4.988   0.790   2.799  0.3044 -0.9735 -0.4284
 1002MOL0     C38161   5.008   0.664   2.877 -0.7477 -0.1787  0.3203
 1002MOL0     O38162   4.957   0.554   2.805 -0.0523 -0.5226  0.1598
 1002MOL0     C38163   4.847   0.485   2.855 -0.8687 -0.8153  0.3094
 1002MOL0     C38164   4.849   0.351   2.811 -0.0820  0.3664  0.5118
 1002MOL0     C38165   4.748   0.258   2.866  0.2217 -0.2175  1.2119
 1002MOL0     C38166   4.745   0.121   2.796 -0.4067 -0.1867 -0.2148
 1002MOL0     C38167   4.639   0.304   2.947  0.1469  0.0070  0.9792
 1002MOL0     C38168   4.523   0.218   2.983 -0.2394 -0.9975 -0.4136
 1002MOL0     O38169   4.551   0.136   3.091 -0.4680  0.4908  0.1481
 1002MOL0     C38170   4.450   0.062   3.155 -0.5008  0.0115 -0.8941
 1002MOL0     C38171   4.317   0.119   3.177  0.4028 -0.1079 -0.7369
 1002MOL0     C38172   4.220   0.047   3.244  0.1820 -0.4582  0.7185
 1002MOL0     C38173   4.246  -0.078   3.308  0.6013  0.5335 -0.8761
 1002MOL0     O38174   4.159  -0.136   3.398  0.2660  0.0917 -0.2984
 1002MOL0     C38175   4.029  -0.162   3.338 -0.5469  0.4140 -0.0615
 1002MOL0     C38176   3.953  -0.262   3.427 -0.0013  0.1268 -0.4059
 1002MOL0     C38177   4.009  -0.411   3.399  0.1552  0.3835 -0.0514
 1002MOL0     C38178   4.096  -0.464   3.506 -0.4513 -0.2365  0.2216
 1002MOL0     C38179   4.146  -0.611   3.476 -0.6279  0.0055  0.5848
 1002MOL0     C38180   4.199  -0.680   3.594  0.4665  0.1855 -0.0321
 1002MOL0     C38181   4.264  -0.817   3.572 -0.3467  0.1669 -0.2518
 1002MOL0     C38182   4.357  -0.817   3.454  0.2410  0.9827  0.3551
 1002MOL0    Cl38183   4.478  -0.694   3.483 -0.0366 -0.3414  0.0772
 1002MOL0     C38184   4.374  -0.128   3.295  0.0560  1.1267  0.4118
 1002MOL0     C38185   4.475  -0.062   3.222  0.0281 -0.0061  0.5583
 1002MOL0     O38186   4.419   0.244   2.921  0.0516 -0.5776 -0.3054
 1002MOL0     C38187   4.652   0.438   2.995  0.3123  0.5941  0.1187
 1002MOL0     C38188   4.752   0.517   2.941 -0.8125  0.1150  0.3229
 1002MOL0     N38189   5.294   0.989   2.535 -0.4725 -0.5524  0.8163
 1002MOL0     N38190   5.415   1.044   2.513 -0.0449 -1.0474 -0.0633
 1002MOL0     C38191   6.129   1.080   3.040  1.0068  0.6216  0.5040
 1002MOL0     C38192   6.175   1.082   3.170 -0.0927  0.5417 -0.4567
 1002MOL0     C38193   6.490   1.240   3.495 -0.1568  0.0069  0.3178
 1002MOL0     C38194   6.565   1.129   3.531 -0.1777 -0.4366  0.0417
 1002MOL0     C38195   6.638   1.137   3.650  0.6068  0.0302 -0.4598
 1002MOL0     C38196   6.648   1.252   3.733 -0.8238 -0.2087  0.9176
 1002MOL0     O38197   6.724   1.279   3.845  0.0471 -0.1914  0.3396
 1002MOL0     C38198   6.835   1.188   3.858  0.4465  1.0114  0.1747
 1002MOL0     C38199   6.949   1.250   3.941  0.2776 -0.0288  0.3060
 1002MOL0     C38200   6.919   1.297   4.081 -0.1709  1.0937  0.1593
 1002MOL0     C38201   6.839   1.431   4.090 -0.4666  0.4758  0.5211
 1002MOL0     C38202   6.894   1.535   4.007 -0.6047  0.2716 -0.0410
 1002MOL0     C38203   6.947   1.612   3.928  0.3599 -1.0012  0.5516
 1002MOL0     C38204   6.584   1.362   3.688 -0.3540  0.0726  0.2906
 1002MOL0     C38205   6.503   1.359   3.570 -0.6203  0.7409  0.0025
 1002MOL0     C38206   6.454   1.492   3.541  1.3714  0.1693  0.0252
 1002MOL0     H38207   6.507   1.064   3.103  0.5161 -2.4148  0.7145
 1002MOL0     H38208   6.431   1.063   2.878 -3.1129  1.6069 -2.0970
 1002MOL0     H38209   6.308   0.995   2.693  1.5310  1.5575  2.1960
 1002MOL0     H38210   6.304   1.168   2.727  1.3699 -1.5422 -0.8959
 1002MOL0     H38211   6.224   1.087   2.481 -2.8297 -0.7545 -1.3432
 1002MOL0     H38212   6.077   1.035   2.564 -0.0503  0.8055 -0.7327
 1002MOL0     H38213   6.182   1.327   2.581 -0.4634  0.6074 -0.8231
 1002MOL0     H38214   6.068   1.268   2.466 -1.9127  0.0980  0.4814
 1002MOL0     H38215   6.014   1.278   2.771  0.6003 -3.7253 -0.7112
 1002MOL0     H38216   5.919   1.357   2.643 -0.0938  1.8778  2.4068
 1002MOL0     H38217   5.934   1.071   2.746  0.6001  1.6027  1.2543
 1002MOL0     H38218   5.835   1.116   2.597  0.8108  0.7639 -0.7664
 1002MOL0     H38219   5.792   1.172   2.889 -3.5128 -2.9145  1.0475
 1002MOL0     H38220   5.746   1.304   2.781 -2.9322 -0.8659  0.0668
 1002MOL0     H38221   5.558   1.118   2.814 -0.1810  1.4846 -0.7492
 1002MOL0     H38222   5.666   1.027   2.712  4.8785  0.8680 -0.4044
 1002MOL0     H38223   5.533   1.309   2.675  1.6984 -1.2191  4.8856
 1002MOL0     H38224   5.619   1.207   2.549  3.8586 -1.2230  2.0373
 1002MOL0     H38225   5.298   1.194   2.788 -0.3479  1.2477 -0.5886
 1002MOL0     H38226   5.037   0.993   2.618 -0.2435  0.6436 -0.3131
 1002MOL0     H38227   5.070   1.058   2.784 -1.0233  0.5299 -0.6236
 1002MOL0     H38228   5.153   0.792   2.668 -3.4781  0.5322 -0.3883
 1002MOL0     H38229   5.205   0.845   2.832  2.5228 -1.6172 -1.1037
 1002MOL0     H38230   4.944   0.865   2.865  1.1427  1.4542 -2.4578
 1002MOL0     H38231   4.916   0.771   2.719 -4.6078  0.3338  3.2310
 1002MOL0     H38232   5.113   0.652   2.907 -1.2520 -1.7196  1.6443
 1002MOL0     H38233   4.962   0.677   2.976  1.3999  1.4090  1.2002
 1002MOL0     H38234   4.925   0.316   2.741 -2.0643 -0.9850 -1.0789
 1002MOL0     H38235   4.811   0.052   2.849  2.6677  3.2626  0.8636
 1002MOL0     H38236   4.785   0.138   2.696 -1.4724 -2.4915 -1.1023
 1002MOL0     H38237   4.643   0.082   2.784 -1.0330  0.1284  3.1777
 1002MOL0     H38238   4.279   0.216   3.148  0.2387  0.3669  0.9975
 1002MOL0     H38239   4.126   0.102   3.242 -0.7768 -2.0264 -1.5217
 1002MOL0     H38240   3.971  -0.070   3.333  0.8858  1.2709 -2.0498
 1002MOL0     H38241   4.027  -0.205   3.238 -0.8802  0.7003 -0.1797
 1002MOL0     H38242   3.953  -0.236   3.533  0.0473 -0.1498 -0.3371
 1002MOL0     H38243   3.850  -0.260   3.390 -0.2802 -2.6399  0.0029
 1002MOL0     H38244   4.075  -0.414   3.312  0.0051 -0.2911 -0.1478
 1002MOL0     H38245   3.926  -0.483   3.394  0.0588  0.3429  1.7496
 1002MOL0     H38246   4.047  -0.465   3.603 -3.3629 -0.3630 -1.1313
 1002MOL0     H38247   4.186  -0.403   3.516  1.3740 -2.3772 -1.9080
 1002MOL0     H38248   4.067  -0.670   3.428  0.1474 -0.2822 -0.3698
 1002MOL0     H38249   4.219  -0.607   3.395 -1.3289 -2.3970 -0.2442
 1002MOL0     H38250   4.122  -0.686   3.672  0.1111 -0.1998 -0.4118
 1002MOL0     H38251   4.274  -0.613   3.638  0.6523 -0.2396  0.3178
 1002MOL0     H38252   4.187  -0.894   3.564  0.0044 -0.8882  4.0066
 1002MOL0     H38253   4.319  -0.846   3.662  0.6341 -2.5143 -1.6057
 1002MOL0     H38254   4.306  -0.809   3.357  2.1225 -2.0982 -1.0528
 1002MOL0     H38255   4.401  -0.916   3.438 -1.8822  0.5597 -4.6990
 1002MOL0     H38256   4.397  -0.218   3.351  0.4984  0.9138 -0.1083
 1002MOL0     H38257   4.577  -0.100   3.233 -0.3206 -1.3914 -0.6740
 1002MOL0     H38258   4.584   0.475   3.071  0.2874  1.2144 -0.1996
 1002MOL0     H38259   4.732   0.620   2.969  0.1903  0.5732 -0.5788
 1002MOL0     H38260   6.022   1.092   3.029  1.1979  3.3449  0.7302
 1002MOL0     H38261   6.114   1.094   3.259  0.9373  1.2429  0.1843
 1002MOL0     H38262   6.546   1.030   3.491 -3.2992  0.1335 -0.1791
 1002MOL0     H38263   6.686   1.047   3.688 -0.2453  0.0008  0.5852
 1002MOL0     H38264   6.809   1.093   3.906  1.4500  0.9294  0.5937
 1002MOL0     H38265   6.879   1.160   3.762  0.1956 -1.1719  0.6411
 1002MOL0     H38266   6.974   1.344   3.891  0.4069  0.4529  1.2582
 1002MOL0     H38267   7.037   1.186   3.943 -0.4483 -1.0409  2.3696
 1002MOL0     H38268   6.862   1.224   4.139  2.0814  0.4355  1.6760
 1002MOL0     H38269   7.012   1.295   4.138 -1.2900 -0.8933  2.0613
 1002MOL0     H38270   6.840   1.472   4.191 -1.5983  0.5779  0.5062
 1002MOL0     H38271   6.732   1.429   4.067 -0.1878 -0.2136 -0.8056
 1002MOL0     H38272   6.986   1.680   3.854 -1.5778  1.9532  2.0355
 1002MOL0     H38273   6.595   1.453   3.746  1.4393 -0.2092  0.4291
 1002MOL0     H38274   6.353   1.471   3.505  1.1634 -0.3109  0.8788
 1002MOL0     H38275   6.439   1.549   3.633  1.6811  0.7049 -0.2534
 1002MOL0     H38276   6.498   1.550   3.459 -0.2914  1.7715  0.1967
 1003MOL0     O38277   1.942  11.619  10.089 -0.3070 -0.3155 -0.4445
 1003MOL0     C38278   1.865  11.568  10.005  0.2598 -0.0075  0.4769
 1003MOL0     O38279   1.879  11.591   9.865 -0.7630 -0.8628 -0.6850
 1003MOL0     C38280   1.994  11.622   9.810  0.3601  0.4082  0.3357
 1003MOL0     C38281   2.106  11.539   9.804  0.7851  0.7024  0.0148
 1003MOL0     C38282   2.227  11.579   9.747  0.5192  0.3302 -0.2910
 1003MOL0     C38283   2.246  11.707   9.696 -0.5663  0.2456  0.3972
 1003MOL0     O38284   2.369  11.751   9.658  0.1754  0.0950 -0.0140
 1003MOL0     C38285   2.422  11.843   9.752 -0.3923  1.3180  0.6251
 1003MOL0     C38286   2.572  11.838   9.714 -0.3100 -0.5610 -0.3581
 1003MOL0     C38287   2.640  11.951   9.800 -0.3319  0.5598 -0.0286
 1003MOL0     C38288   2.796  11.959   9.784  0.0046  0.4080  0.6401
 1003MOL0     C38289   2.865  12.082   9.855 -0.3037  0.1891  0.0989
 1003MOL0     C38290   2.893  12.052  10.005 -0.2612 -0.2166 -0.7930
 1003MOL0     C38291   2.944  12.172  10.092 -0.3022 -0.2056  0.0531
 1003MOL0     C38292   3.094  12.185  10.064  0.5036 -0.8018  0.8041
 1003MOL0     N38293   3.136  12.308  10.136 -0.0555 -0.4211 -1.0431
 1003MOL0     C38294   3.149  12.311  10.276 -0.6587  0.3898  1.5350
 1003MOL0     C38295   3.226  12.417  10.302 -0.4829  0.6123  0.4064
 1003MOL0     C38296   3.278  12.462  10.440  0.1311  0.3333 -0.1204
 1003MOL0     C38297   3.199  12.406  10.563 -0.3955  0.1602  0.4636
 1003MOL0     C38298   3.284  12.421  10.694 -0.5611 -0.4258  0.4024
 1003MOL0     C38299   3.300  12.562  10.727  0.5623  0.4204 -0.1998
 1003MOL0     O38300   3.368  12.563  10.852 -0.0468 -0.3975 -0.1154
 1003MOL0     C38301   3.289  12.559  10.966  0.6705 -0.1586 -0.2303
 1003MOL0     C38302   3.290  12.465  11.063  1.0122 -0.3148  0.0373
 1003MOL0     C38303   3.214  12.479  11.184  0.2849  0.4048  0.1230
 1003MOL0     C38304   3.227  12.366  11.282  0.2114 -0.2452 -1.1876
 1003MOL0     C38305   3.134  12.596  11.206  0.5891  0.3750 -0.0317
 1003MOL0     C38306   3.031  12.605  11.319  0.3214  1.0379  0.8594
 1003MOL0     O38307   2.971  12.727  11.349  0.1551 -0.4417 -0.4084
 1003MOL0     C38308   2.880  12.725  11.457 -0.1356 -0.6529  0.4590
 1003MOL0     C38309   2.909  12.688  11.584 -0.3290 -1.0837 -0.0255
 1003MOL0     C38310   2.800  12.667  11.678  0.0585 -0.0965  0.0088
 1003MOL0     C38311   2.670  12.696  11.644  0.0457 -0.3214 -0.9616
 1003MOL0     O38312   2.572  12.689  11.739  0.0767  0.6779 -0.4533
 1003MOL0     C38313   2.592  12.767  11.852 -0.6357  0.3174 -0.1473
 1003MOL0     C38314   2.476  12.757  11.948 -0.5403 -0.2029  0.3014
 1003MOL0     C38315   2.466  12.616  12.010 -0.1219 -0.0148 -1.7448
 1003MOL0     C38316   2.469  12.612  12.168  0.3384  0.2298 -0.2449
 1003MOL0     C38317   2.436  12.469  12.218 -0.8407 -0.7734  0.5845
 1003MOL0     C38318   2.460  12.454  12.372  0.2942  0.5363  0.8658
 1003MOL0     C38319   2.362  12.543  12.448  0.5844  0.3476  0.5718
 1003MOL0     C38320   2.360  12.514  12.603 -0.2661  0.2002 -1.0323
 1003MOL0    Cl38321   2.528  12.531  12.661  0.2162  0.1546  0.3025
 1003MOL0     C38322   2.643  12.722  11.509  0.5414  0.6532 -0.3874
 1003MOL0     C38323   2.747  12.741  11.421  0.6609 -0.0466 -0.3481
 1003MOL0     O38324   2.984  12.496  11.352 -0.5420 -0.4051  0.1120
 1003MOL0     C38325   3.128  12.690  11.103  0.3746  0.4254 -0.8388
 1003MOL0     C38326   3.206  12.672  10.985 -0.8912 -0.1803  0.5667
 1003MOL0     N38327   3.273  12.457  10.176  0.2895 -0.0929  0.8486
 1003MOL0     N38328   3.205  12.404  10.075 -0.2202  0.1430 -0.6610
 1003MOL0     C38329   2.141  11.790   9.705 -0.2897  0.1269  0.9872
 1003MOL0     C38330   2.015  11.751   9.760  0.1136 -0.3224 -0.6560
 1003MOL0     C38331   1.735  11.506  10.057 -0.1346 -1.2056 -0.2917
 1003MOL0     C38332   1.627  11.497   9.971 -0.4038  0.1962  0.3934
 1003MOL0     C38333   1.510  11.431  10.001  0.3413 -1.0031 -0.6948
 1003MOL0     C38334   1.483  11.391  10.131  0.0032  0.5064 -0.3233
 1003MOL0     O38335   1.353  11.354  10.154 -0.2607  0.2170 -0.9473
 1003MOL0     C38336   1.295  11.429  10.262  0.1518 -0.1515  0.3294
 1003MOL0     C38337   1.200  11.533  10.220 -0.4075  0.2019  1.1445
 1003MOL0     C38338   1.077  11.484  10.141  0.3348  0.5449 -0.2652
 1003MOL0     C38339   0.993  11.591  10.063 -0.2169  0.3233  0.5865
 1003MOL0     C38340   1.069  11.657   9.958 -0.7456 -0.7545 -0.3694
 1003MOL0     C38341   1.125  11.729   9.884 -0.3085 -0.6629 -0.3881
 1003MOL0     C38342   1.593  11.396  10.227  0.4705 -1.5744 -0.4860
 1003MOL0     C38343   1.721  11.449  10.189  0.6662 -0.1978 -0.1188
 1003MOL0     C38344   1.837  11.423  10.285  0.1030 -0.0973 -0.3537
 1003MOL0     H38345   2.107  11.439   9.846  1.4371  1.6039  2.2907
 1003MOL0     H38346   2.314  11.522   9.778 -0.4873 -1.1386 -0.0583
 1003MOL0     H38347   2.404  11.805   9.853  1.7122 -0.0620  0.5400
 1003MOL0     H38348   2.382  11.945   9.744  0.8642  1.6882 -4.2118
 1003MOL0     H38349   2.637  11.751   9.727 -0.4263 -0.8109 -1.3530
 1003MOL0     H38350   2.578  11.877   9.612  3.5209 -0.9570 -0.4231
 1003MOL0     H38351   2.597  12.051   9.787  1.9855  1.3911 -2.0311
 1003MOL0     H38352   2.625  11.913   9.901 -4.0739  2.8837  0.4773
 1003MOL0     H38353   2.834  11.863   9.820 -3.4195 -1.4091 -0.1417
 1003MOL0     H38354   2.812  11.978   9.677 -0.9848  2.1704  0.7816
 1003MOL0     H38355   2.810  12.175   9.837 -1.3797  0.2006  2.8945
 1003MOL0     H38356   2.954  12.105   9.797 -1.2317  0.9868 -1.0614
 1003MOL0     H38357   2.796  12.020  10.045  0.7910 -2.1305  0.3883
 1003MOL0     H38358   2.968  11.973  10.013  3.0081  2.8130  2.1494
 1003MOL0     H38359   2.917  12.142  10.194 -2.5310  0.1999 -0.3739
 1003MOL0     H38360   2.889  12.264  10.073  1.7390  0.8835 -1.0093
 1003MOL0     H38361   3.148  12.097  10.099  0.3190 -0.9973  0.6087
 1003MOL0     H38362   3.101  12.183   9.955  2.2801  1.3231  0.8129
 1003MOL0     H38363   3.110  12.238  10.346  0.2689 -0.2245  1.4336
 1003MOL0     H38364   3.281  12.571  10.450  0.7551  0.4279 -1.2225
 1003MOL0     H38365   3.384  12.433  10.445  0.3123  0.9100 -0.5488
 1003MOL0     H38366   3.102  12.457  10.564 -2.6752 -3.7258 -0.5309
 1003MOL0     H38367   3.187  12.300  10.541  1.3066  0.1106 -0.3885
 1003MOL0     H38368   3.246  12.368  10.782 -3.0027 -1.0557 -0.9306
 1003MOL0     H38369   3.385  12.382  10.683 -0.0416  0.8781  0.3821
 1003MOL0     H38370   3.356  12.611  10.647 -0.5648 -0.7937 -1.8025
 1003MOL0     H38371   3.201  12.601  10.753  0.2118 -1.6689  1.9484
 1003MOL0     H38372   3.351  12.375  11.056 -0.0541 -1.0592  0.0323
 1003MOL0     H38373   3.314  12.300  11.271  1.7759  1.4397  0.2957
 1003MOL0     H38374   3.143  12.296  11.280  1.4720 -1.8087 -1.4146
 1003MOL0     H38375   3.239  12.406  11.383  2.6361  0.2152 -1.6023
 1003MOL0     H38376   3.009  12.669  11.620 -0.8058  0.3728  2.2601
 1003MOL0     H38377   2.830  12.619  11.771 -1.1223 -2.1817 -0.6013
 1003MOL0     H38378   2.685  12.735  11.900  0.1427  0.2615 -1.6141
 1003MOL0     H38379   2.597  12.874  11.829 -0.2506  0.8178  2.0546
 1003MOL0     H38380   2.496  12.832  12.025  2.7877 -3.0677  2.6038
 1003MOL0     H38381   2.379  12.782  11.905 -1.0707 -4.7901 -1.7878
 1003MOL0     H38382   2.546  12.546  11.981  0.0238 -0.3192 -0.6633
 1003MOL0     H38383   2.369  12.581  11.973 -1.7542  1.7988  0.5494
 1003MOL0     H38384   2.405  12.694  12.201  0.4145 -0.3824  1.5241
 1003MOL0     H38385   2.568  12.632  12.211  1.2354 -3.8489  0.0149
 1003MOL0     H38386   2.330  12.451  12.200 -2.4056  4.6473  2.4474
 1003MOL0     H38387   2.500  12.407  12.154 -0.9038  2.0861 -2.5347
 1003MOL0     H38388   2.562  12.488  12.393  0.4230 -0.1002  1.2925
 1003MOL0     H38389   2.441  12.351  12.406 -1.5515 -0.8759 -3.5916
 1003MOL0     H38390   2.257  12.541  12.417  1.0583  3.4270 -1.6818
 1003MOL0     H38391   2.400  12.645  12.434 -2.6397  1.3489 -2.1709
 1003MOL0     H38392   2.330  12.411  12.624 -0.0413 -0.0484 -1.8761
 1003MOL0     H38393   2.298  12.582  12.662  0.2258 -0.0624 -0.2050
 1003MOL0     H38394   2.539  12.746  11.490  0.9037  0.9705 -2.2147
 1003MOL0     H38395   2.733  12.767  11.316 -0.7331  2.7083  0.4238
 1003MOL0     H38396   3.073  12.781  11.125  0.5742  0.2353  0.5460
 1003MOL0     H38397   3.181  12.752  10.916  0.7984 -0.9778 -1.0285
 1003MOL0     H38398   2.137  11.890   9.662  0.8934 -0.2672 -0.0931
 1003MOL0     H38399   1.935  11.821   9.781  0.0739 -0.1491 -1.3566
 1003MOL0     H38400   1.624  11.534   9.869 -0.7139 -0.1680  0.2670
 1003MOL0     H38401   1.435  11.432   9.922 -2.2144 -0.5768  1.5930
 1003MOL0     H38402   1.247  11.359  10.332  0.1091 -1.8023 -1.2790
 1003MOL0     H38403   1.369  11.491  10.314 -0.2405  1.7245 -1.2404
 1003MOL0     H38404   1.243  11.609  10.154 -2.4741  1.2074  0.8673
 1003MOL0     H38405   1.168  11.600  10.300 -1.0465  0.0353  1.0320
 1003MOL0     H38406   1.104  11.411  10.064 -0.9320 -1.0667  0.7521
 1003MOL0     H38407   1.018  11.428  10.215  3.2632 -1.1662  0.9583
 1003MOL0     H38408   0.968  11.668  10.137 -3.6912 -0.3876  0.2975
 1003MOL0     H38409   0.895  11.552  10.036 -0.7282  2.2424 -0.5098
 1003MOL0     H38410   1.157  11.789   9.801 -0.1073  0.3107  0.3816
 1003MOL0     H38411   1.579  11.371  10.332 -0.5104  1.0472  0.0853
 1003MOL0     H38412   1.824  11.327  10.336  0.4857 -0.9423 -1.8030
 1003MOL0     H38413   1.931  11.406  10.231 -0.6794 -4.4606 -0.6548
 1003MOL0     H38414   1.826  11.516  10.342  0.7419  0.3886 -1.0070
 1004MOL0     O38415   4.258   2.624   9.151 -0.5587  0.4421  0.8999
 1004MOL0     C38416   4.205   2.633   9.036 -0.5916  0.1196 -0.0581
 1004MOL0     O38417   4.222   2.725   8.946 -0.0396 -0.4094 -0.5065
 1004MOL0     C38418   4.313   2.826   8.968  0.3722 -0.0404  0.7245
 1004MOL0     C38419   4.442   2.822   8.911  0.2978 -0.1438 -0.0577
 1004MOL0     C38420   4.539   2.917   8.943 -0.1071  0.3068 -0.1857
 1004MOL0     C38421   4.506   3.031   9.022  0.1988 -0.0247 -0.6447
 1004MOL0     O38422   4.598   3.121   9.071  0.9310 -0.4604 -0.3781
 1004MOL0     C38423   4.725   3.067   9.113 -0.8207  0.9681  1.1994
 1004MOL0     C38424   4.718   3.038   9.264 -0.1044 -0.4650 -0.5162
 1004MOL0     C38425   4.636   2.908   9.289  0.2909  0.4507  0.2478
 1004MOL0     C38426   4.654   2.852   9.429  0.2803 -0.7924  0.3581
 1004MOL0     C38427   4.552   2.728   9.462  0.3644  0.2900 -0.6709
 1004MOL0     C38428   4.573   2.614   9.357 -0.1143  0.3191 -0.0094
 1004MOL0     C38429   4.512   2.490   9.412 -0.0336 -0.2850 -1.2948
 1004MOL0     C38430   4.361   2.493   9.443  0.8662  0.2622 -0.0585
 1004MOL0     N38431   4.298   2.364   9.429 -0.5868  0.3827 -0.2979
 1004MOL0     C38432   4.169   2.334   9.398 -0.1527 -0.2665  0.1246
 1004MOL0     C38433   4.166   2.199   9.372 -0.1307  0.2350 -0.8128
 1004MOL0     C38434   4.039   2.131   9.339  0.5453 -0.1335  0.7403
 1004MOL0     C38435   4.046   2.124   9.181  0.3642  0.1863 -0.0144
 1004MOL0     C38436   3.929   2.051   9.115 -0.2965  0.9233  0.7527
 1004MOL0     C38437   3.936   1.895   9.132 -0.4279 -0.8542 -0.2919
 1004MOL0     O38438   3.815   1.827   9.080  0.1658  0.1865 -0.4070
 1004MOL0     C38439   3.700   1.843   9.154 -0.9665  0.3463 -0.4325
 1004MOL0     C38440   3.671   1.752   9.267  0.3470  0.1914 -0.2213
 1004MOL0     C38441   3.568   1.772   9.357  0.6103  0.5848 -0.2722
 1004MOL0     C38442   3.558   1.678   9.472  0.7569  0.0973  0.4977
 1004MOL0     C38443   3.470   1.871   9.334  0.3410 -0.1816  0.7671
 1004MOL0     C38444   3.351   1.910   9.414 -0.2332 -0.6207 -0.4853
 1004MOL0     O38445   3.312   2.036   9.411  0.0626 -0.6805  0.2964
 1004MOL0     C38446   3.211   2.092   9.483  0.1789  0.1870 -0.5528
 1004MOL0     C38447   3.127   2.189   9.427 -0.4246  0.1888 -0.0994
 1004MOL0     C38448   3.026   2.254   9.503 -0.9683  0.1290 -0.4624
 1004MOL0     C38449   3.002   2.215   9.634  0.5061  0.4899  0.8456
 1004MOL0     O38450   2.894   2.268   9.700 -0.2751 -0.1206 -0.3715
 1004MOL0     C38451   2.887   2.271   9.843 -0.3743 -0.0821  0.5300
 1004MOL0     C38452   2.992   2.367   9.916  0.5159  0.5077  0.4253
 1004MOL0     C38453   3.006   2.490   9.832 -0.5236  0.9650 -0.0299
 1004MOL0     C38454   3.092   2.599   9.913  0.0317  0.8658 -0.3558
 1004MOL0     C38455   3.147   2.693   9.814  0.2058 -1.6266  1.1713
 1004MOL0     C38456   3.039   2.778   9.748  0.1583 -0.8261  0.1682
 1004MOL0     C38457   3.089   2.906   9.668  0.6574  0.3361  0.0406
 1004MOL0     C38458   2.979   2.953   9.569 -0.1166  0.0549 -0.4997
 1004MOL0    Cl38459   2.988   3.123   9.536 -0.2673  0.3510 -0.4184
 1004MOL0     C38460   3.076   2.106   9.692 -0.3701  0.6012  0.5753
 1004MOL0     C38461   3.189   2.059   9.614  0.0806 -0.6412 -0.6509
 1004MOL0     O38462   3.292   1.828   9.481  0.3742 -0.5570 -0.4243
 1004MOL0     C38463   3.506   1.953   9.216  0.3354 -0.2461  0.4649
 1004MOL0     C38464   3.619   1.944   9.139 -0.3350  0.9812 -0.8425
 1004MOL0     N38465   4.292   2.146   9.386 -0.3749  0.7512 -0.7261
 1004MOL0     N38466   4.371   2.245   9.430 -0.0331 -0.2785 -0.1051
 1004MOL0     C38467   4.383   3.038   9.073  0.7047  0.1043  0.5029
 1004MOL0     C38468   4.279   2.941   9.051 -0.0537  0.4737 -0.2408
 1004MOL0     C38469   4.085   2.550   9.026 -0.1268 -0.0582 -1.5144
 1004MOL0     C38470   4.014   2.524   9.138  0.3519 -0.4136 -0.4313
 1004MOL0     C38471   3.897   2.458   9.143  0.5199 -0.5360 -0.8073
 1004MOL0     C38472   3.849   2.408   9.024  0.6650 -0.1829  0.0513
 1004MOL0     O38473   3.731   2.335   9.033 -0.0260 -0.2550 -0.4217
 1004MOL0     C38474   3.643   2.350   8.917  0.6384  0.4736  0.3079
 1004MOL0     C38475   3.619   2.494   8.884  1.1206  0.6287 -0.0432
 1004MOL0     C38476   3.595   2.605   8.992  0.1358 -0.4050 -0.1211
 1004MOL0     C38477   3.649   2.741   8.950 -1.1944  0.0272  0.7418
 1004MOL0     C38478   3.610   2.787   8.816  0.2949  0.2456 -0.0279
 1004MOL0     C38479   3.582   2.828   8.712  0.2349  0.0286  0.9076
 1004MOL0     C38480   3.924   2.424   8.911  1.0680  0.1060  0.4953
 1004MOL0     C38481   4.042   2.491   8.912 -0.6878  0.3715  0.4006
 1004MOL0     C38482   4.124   2.499   8.784  0.4988  0.2011  0.0355
 1004MOL0     H38483   4.468   2.735   8.850  0.1932 -1.4590  1.6920
 1004MOL0     H38484   4.639   2.892   8.910  0.2332 -1.0927  1.7251
 1004MOL0     H38485   4.801   3.144   9.099 -2.6231  2.2538 -2.9636
 1004MOL0     H38486   4.747   2.981   9.049 -1.3517  1.8968 -0.2915
 1004MOL0     H38487   4.823   3.021   9.289  0.2436 -2.0079 -2.7805
 1004MOL0     H38488   4.676   3.126   9.315  1.4053 -0.8144  1.4407
 1004MOL0     H38489   4.528   2.923   9.280  0.0719 -0.1525  1.6532
 1004MOL0     H38490   4.656   2.829   9.215 -2.4957  1.0869 -1.3186
 1004MOL0     H38491   4.753   2.807   9.432 -0.4249 -2.7065 -1.9643
 1004MOL0     H38492   4.628   2.929   9.503 -0.0939 -0.3224 -0.2562
 1004MOL0     H38493   4.449   2.765   9.460  0.4897  1.2260  2.8663
 1004MOL0     H38494   4.589   2.704   9.562  2.7677  3.8524 -0.5034
 1004MOL0     H38495   4.527   2.654   9.266 -0.7194 -1.4139 -0.5132
 1004MOL0     H38496   4.679   2.595   9.337 -0.4281 -0.5451 -0.9675
 1004MOL0     H38497   4.560   2.471   9.509 -1.4720  1.6993 -0.1345
 1004MOL0     H38498   4.533   2.408   9.343  1.9784  0.9992 -2.2997
 1004MOL0     H38499   4.345   2.540   9.541 -1.6597  1.9928 -1.1868
 1004MOL0     H38500   4.302   2.562   9.381 -0.7861 -0.2790  0.8550
 1004MOL0     H38501   4.082   2.398   9.383  1.3825  1.3655 -2.4554
 1004MOL0     H38502   3.943   2.183   9.351 -0.2929 -0.9633 -1.7479
 1004MOL0     H38503   4.033   2.035   9.391 -1.6570  1.1163  3.0283
 1004MOL0     H38504   4.048   2.225   9.140 -3.2459  1.2114  1.9285
 1004MOL0     H38505   4.138   2.092   9.131 -0.5535 -0.1829 -1.5347
 1004MOL0     H38506   3.836   2.096   9.152 -0.6384  3.7084 -2.9165
 1004MOL0     H38507   3.921   2.075   9.008  2.4116 -1.1970 -0.0372
 1004MOL0     H38508   4.018   1.855   9.072 -1.0812 -3.5608  0.4649
 1004MOL0     H38509   3.963   1.866   9.234  4.6233 -0.8084 -1.3426
 1004MOL0     H38510   3.745   1.673   9.281  0.4372  0.3404  0.1656
 1004MOL0     H38511   3.647   1.619   9.495  0.5325  0.8497  3.8045
 1004MOL0     H38512   3.481   1.601   9.462 -0.0193  0.7878  1.0190
 1004MOL0     H38513   3.538   1.744   9.557  2.7428  0.1950  0.9384
 1004MOL0     H38514   3.146   2.219   9.324  1.4146  2.8060  0.8962
 1004MOL0     H38515   2.964   2.335   9.467  0.3619  1.6633  0.5597
 1004MOL0     H38516   2.783   2.284   9.874 -0.9956 -1.0322 -1.0057
 1004MOL0     H38517   2.902   2.175   9.894  1.1969  0.0021  0.2566
 1004MOL0     H38518   2.961   2.403  10.015 -2.1399  0.0940 -0.1624
 1004MOL0     H38519   3.087   2.314   9.922 -0.6495 -1.8461 -0.4305
 1004MOL0     H38520   2.912   2.532   9.796 -0.4438  0.4423 -0.8744
 1004MOL0     H38521   3.057   2.454   9.742 -1.4815  1.0237 -0.6153
 1004MOL0     H38522   3.168   2.551   9.974 -2.2045  0.0452  1.9661
 1004MOL0     H38523   3.029   2.653   9.984  1.4782  2.1504  0.0155
 1004MOL0     H38524   3.220   2.765   9.853 -0.3532  0.0403 -0.6750
 1004MOL0     H38525   3.199   2.632   9.741  0.4126 -0.8074  0.6161
 1004MOL0     H38526   2.974   2.819   9.826  0.0583  0.2849 -0.4711
 1004MOL0     H38527   2.984   2.723   9.671  2.5559 -2.4105 -0.4934
 1004MOL0     H38528   3.182   2.886   9.614 -0.3089  0.9363 -1.9323
 1004MOL0     H38529   3.113   2.992   9.732 -0.2656  1.8707 -1.5995
 1004MOL0     H38530   2.877   2.934   9.605 -2.0298 -0.4488 -5.4103
 1004MOL0     H38531   2.987   2.902   9.472 -0.1159 -3.5330  1.2304
 1004MOL0     H38532   3.066   2.085   9.798  3.1161  2.0905  1.3508
 1004MOL0     H38533   3.266   1.996   9.659 -0.2870 -1.8873 -1.7033
 1004MOL0     H38534   3.438   2.035   9.192 -0.6504 -1.8209 -2.7129
 1004MOL0     H38535   3.643   2.021   9.067 -1.8046  0.2057 -2.2173
 1004MOL0     H38536   4.356   3.112   9.149 -0.6132 -0.3324  0.4911
 1004MOL0     H38537   4.186   2.939   9.107 -0.0712 -2.4173 -0.2182
 1004MOL0     H38538   4.045   2.562   9.235 -4.1430  0.0573  1.0463
 1004MOL0     H38539   3.839   2.432   9.232  2.2000 -1.2091  0.1314
 1004MOL0     H38540   3.685   2.292   8.834 -1.0271  0.2132 -0.3880
 1004MOL0     H38541   3.545   2.310   8.945  0.0941  1.7151  0.2348
 1004MOL0     H38542   3.520   2.491   8.836 -0.0577 -0.3263  2.2596
 1004MOL0     H38543   3.702   2.511   8.816  0.2388 -2.0106 -1.9863
 1004MOL0     H38544   3.488   2.629   8.999  0.8409  2.8227  1.6933
 1004MOL0     H38545   3.633   2.568   9.088  1.7300 -0.9169 -0.9153
 1004MOL0     H38546   3.758   2.743   8.961 -1.3430  1.4040  2.4143
 1004MOL0     H38547   3.598   2.812   9.016 -1.9126 -1.9122  2.3793
 1004MOL0     H38548   3.567   2.864   8.612  0.7444  2.7471  1.7228
 1004MOL0     H38549   3.892   2.370   8.823  2.1530 -3.3950  2.0879
 1004MOL0     H38550   4.080   2.428   8.714 -0.8263  0.3645  0.6633
 1004MOL0     H38551   4.122   2.597   8.737  1.4949  0.0591 -0.3217
 1004MOL0     H38552   4.226   2.477   8.814 -0.9211 -1.5449  4.3628
 1005MOL0     O38553   0.650   8.175  11.010 -0.2865  0.6696 -0.5040
 1005MOL0     C38554   0.548   8.225  10.958  0.4054  0.7251 -0.5125
 1005MOL0     O38555   0.530   8.354  10.925 -0.3977  0.6453 -0.3799
 1005MOL0     C38556   0.652   8.427  10.913 -0.5158  0.1392  0.0828
 1005MOL0     C38557   0.734   8.410  10.796  0.7558  0.4480  0.6070
 1005MOL0     C38558   0.844   8.491  10.781 -0.2672 -0.1190  0.2439
 1005MOL0     C38559   0.876   8.576  10.882 -0.3172 -0.5022  0.0247
 1005MOL0     O38560   0.996   8.630  10.868  0.4137 -1.0144  0.5260
 1005MOL0     C38561   1.045   8.716  10.957  1.3178  0.5456  0.1290
 1005MOL0     C38562   1.161   8.800  10.907 -0.9402  0.5168 -0.1951
 1005MOL0     C38563   1.274   8.709  10.850 -0.4452 -0.8290 -1.1705
 1005MOL0     C38564   1.332   8.619  10.963  0.4271  0.2712 -0.0246
 1005MOL0     C38565   1.443   8.530  10.913  0.8467  0.4625 -0.3777
 1005MOL0     C38566   1.503   8.437  11.019  0.6458  0.6244  0.3312
 1005MOL0     C38567   1.605   8.337  10.974 -0.1164  0.4223 -0.3531
 1005MOL0     C38568   1.665   8.253  11.088  0.4944 -0.6292  0.2647
 1005MOL0     N38569   1.742   8.139  11.030  0.1505  0.2339  0.2144
 1005MOL0     C38570   1.735   8.019  11.088  0.1354  0.2331 -0.0678
 1005MOL0     C38571   1.839   7.954  11.043  0.1968 -0.1864  0.4579
 1005MOL0     C38572   1.904   7.828  11.094  0.3765 -0.3746 -0.5295
 1005MOL0     C38573   2.038   7.794  11.027 -0.3086 -0.7212 -0.2366
 1005MOL0     C38574   2.067   7.646  11.056 -1.5219  0.5041  0.2710
 1005MOL0     C38575   2.212   7.620  10.995  0.0303  0.0497 -0.4549
 1005MOL0     O38576   2.208   7.645  10.851 -0.3317  1.0182 -0.5302
 1005MOL0     C38577   2.280   7.573  10.754 -0.1922  0.3442 -0.6349
 1005MOL0     C38578   2.382   7.478  10.773 -0.5554  0.2756 -0.2188
 1005MOL0     C38579   2.439   7.411  10.666 -0.2755 -0.3049 -0.6026
 1005MOL0     C38580   2.551   7.318  10.701  0.3956 -0.4709 -0.5241
 1005MOL0     C38581   2.379   7.426  10.541  0.8507  1.2579 -0.1414
 1005MOL0     C38582   2.431   7.341  10.438  0.3671 -0.3768  0.6655
 1005MOL0     O38583   2.535   7.378  10.353  0.3330  0.6262  0.5604
 1005MOL0     C38584   2.593   7.284  10.268  0.6703  0.2190 -0.2663
 1005MOL0     C38585   2.622   7.339  10.141 -0.7057  0.7200  0.3369
 1005MOL0     C38586   2.686   7.261  10.047 -0.7344 -0.2241  0.6416
 1005MOL0     C38587   2.736   7.130  10.069  0.2238 -0.0735 -0.1060
 1005MOL0     O38588   2.797   7.049   9.971 -0.0126  0.1288 -0.3322
 1005MOL0     C38589   2.864   6.926  10.007 -0.1421  0.4736  0.8360
 1005MOL0     C38590   3.003   6.969  10.074 -0.2589  1.0551  0.0159
 1005MOL0     C38591   3.036   6.879  10.197 -0.8268 -0.0107  0.0048
 1005MOL0     C38592   3.100   6.749  10.152 -0.6726 -0.8228 -0.2048
 1005MOL0     C38593   3.112   6.651  10.272  0.0526 -0.1305 -0.6408
 1005MOL0     C38594   3.149   6.516  10.231 -0.3882 -0.4354  0.6834
 1005MOL0     C38595   3.059   6.457  10.129  0.4818  0.2655 -0.0510
 1005MOL0     C38596   3.107   6.317  10.094  0.4218  0.3015  0.2301
 1005MOL0    Cl38597   3.101   6.223  10.246 -0.3170  0.4738  0.1261
 1005MOL0     C38598   2.692   7.073  10.194  0.2433 -0.0745  0.9566
 1005MOL0     C38599   2.625   7.151  10.292  0.5057 -0.7342  0.4283
 1005MOL0     O38600   2.365   7.234  10.431  0.3039  0.8910 -1.2866
 1005MOL0     C38601   2.276   7.510  10.521 -0.2791  0.9636  0.3378
 1005MOL0     C38602   2.224   7.585  10.627 -0.3873  1.0377 -0.0128
 1005MOL0     N38603   1.902   8.039  10.956  0.3628  0.7596 -0.0298
 1005MOL0     N38604   1.856   8.152  10.955 -0.4866  0.6673 -0.4543
 1005MOL0     C38605   0.797   8.601  10.998 -0.3947 -0.1392  1.0195
 1005MOL0     C38606   0.680   8.527  11.013  0.6173  1.3334  0.3919
 1005MOL0     C38607   0.426   8.141  10.927  0.2072  0.2429 -0.3178
 1005MOL0     C38608   0.306   8.179  10.984 -0.1054 -0.3002 -0.2521
 1005MOL0     C38609   0.192   8.103  10.971 -0.9739 -0.0526 -0.2542
 1005MOL0     C38610   0.191   7.987  10.889 -0.0155  0.1448  0.2267
 1005MOL0     O38611   0.069   7.931  10.871 -0.1787 -0.4631 -0.9073
 1005MOL0     C38612   0.049   7.820  10.785 -0.1452 -0.5437 -0.1848
 1005MOL0     C38613  -0.008   7.860  10.653  0.5132  0.1771 -0.0791
 1005MOL0     C38614   0.107   7.900  10.559  0.2707  0.4315  0.3879
 1005MOL0     C38615   0.044   7.892  10.415 -0.2181 -0.2957 -0.5496
 1005MOL0     C38616   0.151   7.852  10.325  0.0504  0.5531 -0.4719
 1005MOL0     C38617   0.249   7.812  10.268  0.8485 -0.6525  0.7929
 1005MOL0     C38618   0.311   7.947  10.832  0.3746  0.3135  0.0146
 1005MOL0     C38619   0.425   8.018  10.852 -0.8759 -0.4502 -0.7918
 1005MOL0     C38620   0.560   7.966  10.812 -0.2763  0.1202 -0.3369
 1005MOL0     H38621   0.704   8.339  10.720 -0.1568  1.7214 -0.2700
 1005MOL0     H38622   0.913   8.475  10.699 -0.1554 -1.5146  0.5957
 1005MOL0     H38623   1.071   8.656  11.045  1.1554 -1.0947 -0.8919
 1005MOL0     H38624   0.974   8.790  10.993  3.5435  2.9002 -0.0350
 1005MOL0     H38625   1.121   8.872  10.836 -2.8686 -0.7985 -0.5274
 1005MOL0     H38626   1.201   8.869  10.982 -0.6699  3.9109 -3.2280
 1005MOL0     H38627   1.239   8.635  10.777  0.7811 -2.0409 -0.5624
 1005MOL0     H38628   1.343   8.773  10.793 -1.2934 -1.9445 -3.5951
 1005MOL0     H38629   1.356   8.676  11.053 -1.1326  1.7121 -0.4836
 1005MOL0     H38630   1.253   8.557  11.006  1.4240 -0.1765  1.2281
 1005MOL0     H38631   1.526   8.594  10.881 -0.0323  0.7179 -2.2375
 1005MOL0     H38632   1.407   8.471  10.829 -0.2713 -0.6078  0.7972
 1005MOL0     H38633   1.559   8.497  11.091 -1.5311 -0.6604  3.3530
 1005MOL0     H38634   1.417   8.393  11.072  0.8561 -0.2708 -0.0520
 1005MOL0     H38635   1.689   8.389  10.928  2.7127 -0.3015  3.5112
 1005MOL0     H38636   1.555   8.272  10.901  1.1106 -0.0814 -0.7637
 1005MOL0     H38637   1.728   8.317  11.150 -3.0157  0.0804  3.5142
 1005MOL0     H38638   1.581   8.218  11.149 -0.6005 -1.2828 -1.5410
 1005MOL0     H38639   1.668   7.993  11.170  0.9496  0.7373  0.7636
 1005MOL0     H38640   1.836   7.742  11.088 -0.2237  0.0903 -0.4377
 1005MOL0     H38641   1.925   7.838  11.200 -1.6421 -2.0865  0.1100
 1005MOL0     H38642   2.056   7.819  10.921  1.0852  1.4487  0.4455
 1005MOL0     H38643   2.107   7.862  11.079 -0.8978  0.3398 -0.8017
 1005MOL0     H38644   2.061   7.626  11.163 -0.3896 -0.6211  0.1458
 1005MOL0     H38645   1.992   7.584  11.006 -1.6678  2.2417 -1.8196
 1005MOL0     H38646   2.276   7.695  11.042 -2.0557  1.7341 -0.1885
 1005MOL0     H38647   2.254   7.520  11.012  1.2237  0.8384  1.5697
 1005MOL0     H38648   2.436   7.447  10.862 -0.5736  1.3399  0.1847
 1005MOL0     H38649   2.609   7.360  10.784  0.2624 -1.3463  0.0255
 1005MOL0     H38650   2.623   7.298  10.622 -1.4029  1.4562 -2.8074
 1005MOL0     H38651   2.508   7.222  10.732  1.9600 -1.1059 -0.2260
 1005MOL0     H38652   2.590   7.442  10.125 -1.0511  0.1460 -4.1055
 1005MOL0     H38653   2.712   7.299   9.949 -3.3351 -0.2228 -0.1204
 1005MOL0     H38654   2.798   6.854  10.057  3.0811 -1.8332  2.1395
 1005MOL0     H38655   2.886   6.876   9.913  0.1444 -0.1527  1.2283
 1005MOL0     H38656   3.093   6.964  10.012  1.3718 -0.4186  2.3678
 1005MOL0     H38657   2.984   7.072  10.106 -4.0303  1.1385 -1.8707
 1005MOL0     H38658   2.939   6.861  10.245 -2.2603  0.9717 -2.3248
 1005MOL0     H38659   3.100   6.928  10.271 -0.7833 -1.6811  1.1245
 1005MOL0     H38660   3.198   6.753  10.104 -0.5749 -1.4404 -0.0619
 1005MOL0     H38661   3.028   6.706  10.081  0.0958  0.2897 -1.7199
 1005MOL0     H38662   3.173   6.696  10.351  0.0220 -1.2291  0.0429
 1005MOL0     H38663   3.016   6.646  10.325  1.8998 -0.1102  3.0118
 1005MOL0     H38664   3.152   6.455  10.322 -1.0670 -0.9281  0.3874
 1005MOL0     H38665   3.244   6.532  10.179 -2.6973  4.0184 -2.8872
 1005MOL0     H38666   3.075   6.499  10.029  2.0665 -5.3569 -2.6064
 1005MOL0     H38667   2.954   6.463  10.159  0.3094 -1.8287 -0.0260
 1005MOL0     H38668   3.211   6.299  10.067  0.0410  1.3067 -2.1308
 1005MOL0     H38669   3.057   6.263  10.013  2.7931 -0.4939 -0.7993
 1005MOL0     H38670   2.719   6.970  10.216 -0.2805 -1.5813 -4.1141
 1005MOL0     H38671   2.602   7.115  10.392 -1.8556 -1.1684 -0.2112
 1005MOL0     H38672   2.249   7.516  10.416  2.0926 -0.4488 -0.4224
 1005MOL0     H38673   2.148   7.657  10.599 -2.3979 -0.8121  0.5036
 1005MOL0     H38674   0.829   8.673  11.073  0.4295 -3.3416  4.0509
 1005MOL0     H38675   0.608   8.543  11.093 -0.2169 -0.8078  0.1505
 1005MOL0     H38676   0.304   8.255  11.061 -0.7283 -0.4406 -0.1248
 1005MOL0     H38677   0.099   8.134  11.016 -1.1134  0.8833 -1.1431
 1005MOL0     H38678   0.140   7.765  10.759 -0.0892 -0.4419 -0.2028
 1005MOL0     H38679  -0.016   7.741  10.824 -0.7492 -1.5276 -2.9486
 1005MOL0     H38680  -0.095   7.926  10.665  1.5603  1.2230  2.2248
 1005MOL0     H38681  -0.052   7.765  10.621  1.9512 -1.1992  1.8405
 1005MOL0     H38682   0.146   8.001  10.577 -0.0882  0.6606 -0.0940
 1005MOL0     H38683   0.186   7.825  10.555 -1.7454 -1.7651 -3.3976
 1005MOL0     H38684  -0.004   7.987  10.388  1.6978  1.0022  0.3469
 1005MOL0     H38685  -0.035   7.817  10.408  0.7434 -1.2179 -2.0297
 1005MOL0     H38686   0.348   7.787  10.235  2.0117  2.6753  1.3340
 1005MOL0     H38687   0.337   7.866  10.765  1.6129  1.3817 -0.8663
 1005MOL0     H38688   0.567   7.864  10.773  2.9768  0.4801 -0.9628
 1005MOL0     H38689   0.599   8.027  10.730  2.3282 -1.4903 -0.3788
 1005MOL0     H38690   0.634   7.957  10.891  2.4566  0.2369 -2.7288
 1006MOL0     O38691   5.250   7.605   0.658 -0.4033 -0.9978  0.2494
 1006MOL0     C38692   5.327   7.663   0.580  0.2160 -0.6483  0.7323
 1006MOL0     O38693   5.456   7.687   0.591 -1.0410  0.8612  0.6257
 1006MOL0     C38694   5.528   7.657   0.704 -0.4762  0.6325  0.5465
 1006MOL0     C38695   5.663   7.670   0.681 -0.5232 -0.0329 -1.3733
 1006MOL0     C38696   5.751   7.649   0.783 -0.7344 -0.3903  0.1128
 1006MOL0     C38697   5.716   7.615   0.908  0.6111 -0.4936 -0.5510
 1006MOL0     O38698   5.803   7.602   1.015 -0.6256 -0.5119  0.0319
 1006MOL0     C38699   5.936   7.548   0.987 -0.9134 -0.7073 -0.8245
 1006MOL0     C38700   5.917   7.402   0.954 -0.1657 -0.0857 -0.6202
 1006MOL0     C38701   6.027   7.339   0.867 -0.6388  0.4360  0.0191
 1006MOL0     C38702   6.163   7.371   0.912 -0.8884 -0.4462 -0.9125
 1006MOL0     C38703   6.289   7.308   0.838  0.4448 -0.1584  0.2861
 1006MOL0     C38704   6.311   7.162   0.870 -0.2696  0.7183  0.2032
 1006MOL0     C38705   6.417   7.109   0.765  0.8708 -0.4855  0.4533
 1006MOL0     C38706   6.428   6.959   0.785 -0.7315 -0.2614  0.2545
 1006MOL0     N38707   6.481   6.899   0.668 -0.1383  0.6478  0.5216
 1006MOL0     C38708   6.421   6.900   0.534  0.6595 -0.4001 -0.6923
 1006MOL0     C38709   6.485   6.807   0.472 -0.4603  1.1123  0.9120
 1006MOL0     C38710   6.472   6.765   0.324 -0.4036 -0.1006 -0.6883
 1006MOL0     C38711   6.350   6.678   0.299  0.2066  0.0030  0.3020
 1006MOL0     C38712   6.346   6.538   0.361  0.3643 -0.3149 -0.3464
 1006MOL0     C38713   6.247   6.450   0.294  0.1992  0.1538  0.0024
 1006MOL0     O38714   6.228   6.322   0.360 -0.0747  0.3604 -0.6393
 1006MOL0     C38715   6.135   6.330   0.458  0.1142  0.4832  0.6440
 1006MOL0     C38716   6.001   6.361   0.445  0.2559  1.0235 -0.2767
 1006MOL0     C38717   5.910   6.368   0.556  0.0701  0.0227  0.7607
 1006MOL0     C38718   5.776   6.413   0.514  0.4949 -0.8541  0.2272
 1006MOL0     C38719   5.957   6.350   0.685  0.3583  1.1357 -0.2043
 1006MOL0     C38720   5.880   6.379   0.811  0.4199 -0.7351 -0.1985
 1006MOL0     O38721   5.925   6.330   0.927  0.1942  0.7623 -0.4388
 1006MOL0     C38722   5.882   6.383   1.037  0.2429  0.2342 -0.0482
 1006MOL0     C38723   5.767   6.336   1.093 -0.0215  0.2099 -0.4382
 1006MOL0     C38724   5.723   6.393   1.211  0.7770 -0.1435 -0.2519
 1006MOL0     C38725   5.797   6.494   1.281  0.4080 -0.1921 -0.5772
 1006MOL0     O38726   5.770   6.552   1.407  0.3245  0.2610  0.1266
 1006MOL0     C38727   5.643   6.514   1.465  0.3196 -0.1767  0.8285
 1006MOL0     C38728   5.646   6.584   1.606  0.2525 -0.5998 -0.0244
 1006MOL0     C38729   5.647   6.742   1.599  0.7720  0.3212  0.2516
 1006MOL0     C38730   5.643   6.800   1.741 -0.3969  0.3835  0.2778
 1006MOL0     C38731   5.685   6.948   1.759 -0.3509 -0.2614  0.2889
 1006MOL0     C38732   5.669   6.978   1.906  0.2609 -0.1259  0.5699
 1006MOL0     C38733   5.701   7.114   1.951 -0.2841  0.2074  1.2970
 1006MOL0     C38734   5.719   7.136   2.096 -0.3161 -1.1756  0.8486
 1006MOL0    Cl38735   5.834   7.014   2.159 -0.1554 -0.1670 -0.3633
 1006MOL0     C38736   5.911   6.551   1.219  0.2569  0.6381  0.2186
 1006MOL0     C38737   5.948   6.496   1.094 -0.3418 -0.2008 -0.4128
 1006MOL0     O38738   5.770   6.441   0.794  0.2755 -0.1178 -0.4231
 1006MOL0     C38739   6.098   6.319   0.697  0.0741  0.4909 -0.9479
 1006MOL0     C38740   6.184   6.312   0.585  0.8204 -0.4674  1.1796
 1006MOL0     N38741   6.597   6.754   0.540  0.5777 -0.4660 -0.2663
 1006MOL0     N38742   6.589   6.816   0.659  0.1098 -0.5254  0.2375
 1006MOL0     C38743   5.574   7.604   0.934 -0.7283  0.1171  0.6520
 1006MOL0     C38744   5.475   7.632   0.835 -0.5232 -0.2762  0.9452
 1006MOL0     C38745   5.260   7.727   0.463 -0.4043  0.4275 -0.4738
 1006MOL0     C38746   5.127   7.680   0.435 -0.2941  0.7418  0.3712
 1006MOL0     C38747   5.054   7.734   0.334  0.3983 -0.6259  0.4196
 1006MOL0     C38748   5.095   7.830   0.252 -0.5564 -0.5772 -0.0442
 1006MOL0     O38749   4.998   7.876   0.158 -0.8299 -0.5406  0.5676
 1006MOL0     C38750   5.025   7.992   0.086  0.2880  0.0087  0.0550
 1006MOL0     C38751   4.920   8.038  -0.017 -0.7741 -1.6505 -0.2419
 1006MOL0     C38752   4.788   8.102   0.035  0.5757  1.0991  0.7628
 1006MOL0     C38753   4.700   8.119  -0.091 -1.2136 -0.5641 -1.1455
 1006MOL0     C38754   4.752   8.228  -0.176 -0.4020 -0.4512 -0.9901
 1006MOL0     C38755   4.798   8.330  -0.223  0.1043  0.0491 -0.2672
 1006MOL0     C38756   5.220   7.887   0.278  0.3031  0.4298  0.2355
 1006MOL0     C38757   5.306   7.830   0.378  0.0663 -0.2390  0.1041
 1006MOL0     C38758   5.446   7.879   0.392 -0.0492  0.3609  0.6603
 1006MOL0     H38759   5.696   7.703   0.583  0.7836  2.0104 -0.3289
 1006MOL0     H38760   5.856   7.655   0.757 -0.1780  1.3935  2.4908
 1006MOL0     H38761   5.995   7.559   1.078 -1.7505 -0.2046 -0.3288
 1006MOL0     H38762   5.989   7.603   0.908  1.6062 -1.4292  0.2548
 1006MOL0     H38763   5.898   7.355   1.051  0.7805 -1.3613 -1.0342
 1006MOL0     H38764   5.830   7.380   0.891  1.0267  0.2538 -2.4542
 1006MOL0     H38765   6.007   7.232   0.879 -2.5484  0.3921 -2.8064
 1006MOL0     H38766   6.007   7.357   0.762 -0.9160 -0.4236 -0.0864
 1006MOL0     H38767   6.180   7.479   0.907 -0.2903 -0.5897 -2.8053
 1006MOL0     H38768   6.165   7.359   1.021 -0.3014  4.6064 -0.1069
 1006MOL0     H38769   6.376   7.365   0.871  0.5253 -0.6269  0.8935
 1006MOL0     H38770   6.266   7.327   0.732  0.6698  0.0656  0.2764
 1006MOL0     H38771   6.348   7.144   0.972 -0.0287 -0.2199 -0.0425
 1006MOL0     H38772   6.224   7.099   0.850 -0.1110 -0.2579  2.2550
 1006MOL0     H38773   6.516   7.153   0.779  0.8109 -0.3809  0.5444
 1006MOL0     H38774   6.366   7.131   0.670 -1.3189  1.0182  1.8809
 1006MOL0     H38775   6.499   6.947   0.866 -0.6730 -4.0485 -0.1671
 1006MOL0     H38776   6.334   6.919   0.824  0.5578  0.2943  4.2998
 1006MOL0     H38777   6.335   6.959   0.502  1.8514  1.1099 -1.2315
 1006MOL0     H38778   6.568   6.726   0.289 -0.7111  1.6367 -3.8587
 1006MOL0     H38779   6.452   6.852   0.260  1.8795 -1.4873 -3.5418
 1006MOL0     H38780   6.251   6.724   0.310 -0.0921 -0.4442 -0.4237
 1006MOL0     H38781   6.359   6.667   0.190  0.6748  2.4268  0.0334
 1006MOL0     H38782   6.444   6.488   0.363 -0.5695 -2.4871 -2.8780
 1006MOL0     H38783   6.310   6.539   0.464  0.8640 -2.8622 -0.0680
 1006MOL0     H38784   6.154   6.501   0.267 -0.1864  0.2408  1.4398
 1006MOL0     H38785   6.291   6.425   0.197  0.9344 -0.7047  0.5369
 1006MOL0     H38786   5.960   6.359   0.345  0.2007 -0.2590 -0.2475
 1006MOL0     H38787   5.770   6.420   0.404 -1.3957 -0.9560  0.2874
 1006MOL0     H38788   5.761   6.515   0.551  0.1887 -0.8296  0.0448
 1006MOL0     H38789   5.690   6.351   0.540  1.1183 -1.5928  0.5397
 1006MOL0     H38790   5.718   6.257   1.038 -0.5277 -0.0479  0.3715
 1006MOL0     H38791   5.627   6.362   1.250  0.2121 -3.8208 -3.8839
 1006MOL0     H38792   5.557   6.551   1.408  0.6485  0.0709  0.4950
 1006MOL0     H38793   5.622   6.407   1.480  1.1917 -1.1667 -3.7190
 1006MOL0     H38794   5.555   6.558   1.661  1.7469 -0.7701  2.5599
 1006MOL0     H38795   5.733   6.546   1.661 -0.6425  0.2106  2.0426
 1006MOL0     H38796   5.563   6.778   1.540 -2.1615 -4.4991  1.0103
 1006MOL0     H38797   5.741   6.773   1.551  1.4811  1.1627  2.0720
 1006MOL0     H38798   5.716   6.751   1.806 -2.0879 -0.3100  1.7449
 1006MOL0     H38799   5.542   6.776   1.774 -0.5710 -0.7052 -0.9706
 1006MOL0     H38800   5.786   6.958   1.717 -0.8207 -2.8801 -1.7555
 1006MOL0     H38801   5.612   6.999   1.695 -1.0819 -0.0634  1.2689
 1006MOL0     H38802   5.737   6.910   1.958 -1.0760  0.5655  3.4221
 1006MOL0     H38803   5.563   6.963   1.929 -0.1655  0.1128 -1.1119
 1006MOL0     H38804   5.621   7.172   1.904  0.3645  0.1766  0.1223
 1006MOL0     H38805   5.799   7.138   1.910 -1.5754  3.0646 -0.4635
 1006MOL0     H38806   5.628   7.129   2.157 -1.9078 -2.7704 -1.5395
 1006MOL0     H38807   5.752   7.240   2.101 -0.0038 -1.1887 -0.6598
 1006MOL0     H38808   5.973   6.630   1.260  0.0879  2.5664 -2.9069
 1006MOL0     H38809   6.033   6.529   1.034  0.9893 -1.9313  0.4085
 1006MOL0     H38810   6.139   6.301   0.795 -0.4523 -1.0824 -0.9812
 1006MOL0     H38811   6.291   6.297   0.585  1.1936  1.7504  1.6555
 1006MOL0     H38812   5.546   7.565   1.031 -0.2935 -2.0402 -0.0366
 1006MOL0     H38813   5.373   7.612   0.865 -1.1857  3.4146  1.5341
 1006MOL0     H38814   5.085   7.596   0.490 -0.0392 -1.2288 -2.2413
 1006MOL0     H38815   4.948   7.710   0.334  0.8562 -3.0670 -1.5466
 1006MOL0     H38816   5.043   8.078   0.152 -3.3819  0.1342  1.1211
 1006MOL0     H38817   5.111   7.974   0.021 -1.8290  0.8864 -3.2179
 1006MOL0     H38818   4.885   7.956  -0.081 -1.3928 -1.8182  0.3022
 1006MOL0     H38819   4.975   8.109  -0.079  0.5663 -1.9794  0.5310
 1006MOL0     H38820   4.741   8.026   0.099  1.1816  1.1097  1.2272
 1006MOL0     H38821   4.794   8.200   0.081 -0.4399  3.2492 -3.2136
 1006MOL0     H38822   4.598   8.143  -0.058 -0.9742 -0.5417 -0.3943
 1006MOL0     H38823   4.688   8.027  -0.148  1.5731 -2.1577  0.6273
 1006MOL0     H38824   4.828   8.416  -0.278  1.4923 -1.2442 -1.5890
 1006MOL0     H38825   5.264   7.972   0.226  1.2238 -1.0980 -1.5748
 1006MOL0     H38826   5.474   7.960   0.323 -1.1015 -0.5911 -0.9435
 1006MOL0     H38827   5.469   7.919   0.492 -1.2015 -2.3972  2.1445
 1006MOL0     H38828   5.514   7.796   0.375 -0.6442 -0.1095  0.5462
 1007MOL0     O38829   4.343   0.438  10.312  0.3446 -0.2548 -0.0377
 1007MOL0     C38830   4.394   0.395  10.417 -1.1733  1.0685  0.9410
 1007MOL0     O38831   4.351   0.311  10.510 -1.1810  0.9553  0.8607
 1007MOL0     C38832   4.275   0.206  10.482  0.0165  0.0061 -0.1135
 1007MOL0     C38833   4.210   0.155  10.590 -0.2557 -0.1041 -1.0968
 1007MOL0     C38834   4.154   0.022  10.592  0.6932  0.2548  0.0139
 1007MOL0     C38835   4.126  -0.051  10.466 -0.7038 -0.8853 -0.4371
 1007MOL0     O38836   4.053  -0.170  10.451 -0.7223  0.6075  0.4953
 1007MOL0     C38837   4.048  -0.254  10.565  0.2188 -0.6777 -0.4850
 1007MOL0     C38838   4.044  -0.399  10.526 -0.1321  0.1713  0.6971
 1007MOL0     C38839   4.104  -0.487  10.639  0.6034  0.3452 -0.0426
 1007MOL0     C38840   4.100  -0.636  10.606  0.4466  0.0876  0.3894
 1007MOL0     C38841   3.951  -0.682  10.612 -0.1099 -0.2915  0.3242
 1007MOL0     C38842   3.946  -0.831  10.573 -0.2970 -0.2508  0.6203
 1007MOL0     C38843   4.003  -0.914  10.683  0.7180 -0.1450 -0.3253
 1007MOL0     C38844   4.000  -1.066  10.655 -0.1807  0.3000  0.7795
 1007MOL0     N38845   4.077  -1.107  10.534  0.4380  0.1680  0.1372
 1007MOL0     C38846   4.210  -1.119  10.526 -1.2840  0.3193 -1.5008
 1007MOL0     C38847   4.236  -1.141  10.395  0.1883  0.9015 -0.8128
 1007MOL0     C38848   4.377  -1.171  10.342  0.6160 -0.6150 -0.3311
 1007MOL0     C38849   4.412  -1.071  10.235 -0.6533  0.3020 -0.1659
 1007MOL0     C38850   4.382  -1.128  10.094  0.7447  0.5795 -0.6128
 1007MOL0     C38851   4.368  -1.037   9.982  0.3216 -1.3363  1.7631
 1007MOL0     O38852   4.292  -1.096   9.883  0.6889 -0.3376  0.4120
 1007MOL0     C38853   4.342  -1.172   9.773 -0.2029 -1.0734 -0.3918
 1007MOL0     C38854   4.479  -1.184   9.738  0.4955  0.1173 -0.9315
 1007MOL0     C38855   4.519  -1.252   9.619 -1.0012  0.6210 -0.3969
 1007MOL0     C38856   4.669  -1.257   9.588 -0.3806  0.0500 -0.4838
 1007MOL0     C38857   4.427  -1.324   9.551 -0.1392  1.0060 -0.7968
 1007MOL0     C38858   4.468  -1.422   9.436 -0.6620 -0.8802 -0.3485
 1007MOL0     O38859   4.353  -1.453   9.371  0.5021  0.4392 -0.0185
 1007MOL0     C38860   4.346  -1.519   9.249 -0.9498 -0.9355 -0.5399
 1007MOL0     C38861   4.452  -1.523   9.163 -0.0784  0.0827  0.6124
 1007MOL0     C38862   4.433  -1.565   9.024  1.3795 -0.8039  0.3490
 1007MOL0     C38863   4.316  -1.621   8.978 -0.3188 -0.5453  0.8497
 1007MOL0     O38864   4.310  -1.687   8.855  0.4431  1.5624  0.7464
 1007MOL0     C38865   4.193  -1.754   8.799 -0.1029 -1.1886 -0.2498
 1007MOL0     C38866   4.178  -1.692   8.654  0.4878  0.8410  0.0692
 1007MOL0     C38867   4.284  -1.753   8.564 -0.6337  0.5261  0.7593
 1007MOL0     C38868   4.259  -1.742   8.410 -0.3197 -0.0130 -0.6366
 1007MOL0     C38869   4.284  -1.600   8.362  0.4116  0.1234 -0.4979
 1007MOL0     C38870   4.276  -1.592   8.209 -0.0114  0.6179  0.9455
 1007MOL0     C38871   4.221  -1.459   8.171  0.0467  0.1446 -1.1409
 1007MOL0     C38872   4.189  -1.448   8.021  0.0655  0.9182 -0.3386
 1007MOL0    Cl38873   4.094  -1.304   7.995 -0.0164 -0.4269  0.0067
 1007MOL0     C38874   4.211  -1.605   9.063  0.2016  0.5024  0.8139
 1007MOL0     C38875   4.224  -1.557   9.194 -0.9851 -0.7423  0.0970
 1007MOL0     O38876   4.578  -1.464   9.417  0.6664  0.3695 -0.6892
 1007MOL0     C38877   4.288  -1.338   9.600  0.4736 -0.3215 -0.0303
 1007MOL0     C38878   4.252  -1.255   9.709 -0.1650  1.3178  0.4610
 1007MOL0     N38879   4.115  -1.154  10.324  0.2326  0.1879 -0.0726
 1007MOL0     N38880   4.028  -1.137  10.416  0.5726 -0.2563 -0.1479
 1007MOL0     C38881   4.189   0.021  10.356 -0.3747  0.0528  0.1568
 1007MOL0     C38882   4.263   0.141  10.354 -0.3053  1.0942 -0.5480
 1007MOL0     C38883   4.528   0.443  10.436 -0.2232 -0.5913 -0.4634
 1007MOL0     C38884   4.550   0.575  10.455  0.2308 -1.6066  0.3910
 1007MOL0     C38885   4.678   0.627  10.490  0.0017 -0.0753 -0.0902
 1007MOL0     C38886   4.783   0.548  10.514 -0.4772 -0.4053 -0.5444
 1007MOL0     O38887   4.903   0.594  10.534 -0.1262 -1.2552 -0.2813
 1007MOL0     C38888   4.917   0.655  10.665 -0.5924  0.9079 -0.9376
 1007MOL0     C38889   4.973   0.548  10.756 -0.5100  0.4054  0.0812
 1007MOL0     C38890   5.016   0.603  10.895  0.0183 -0.4694 -1.2217
 1007MOL0     C38891   5.052   0.499  10.998 -0.2376  0.3110  0.2917
 1007MOL0     C38892   5.172   0.425  10.957 -0.3469  0.7255 -0.0554
 1007MOL0     C38893   5.279   0.365  10.933  1.0121 -0.8309 -0.0790
 1007MOL0     C38894   4.763   0.411  10.502  0.1415 -0.1362  0.8133
 1007MOL0     C38895   4.641   0.357  10.457 -1.2259  1.0384  0.2232
 1007MOL0     C38896   4.633   0.210  10.428 -0.2065  0.2535 -0.1228
 1007MOL0     H38897   4.233   0.201  10.686 -0.2840  1.6449 -1.8896
 1007MOL0     H38898   4.105  -0.007  10.685 -0.3400  2.2617  0.1531
 1007MOL0     H38899   3.964  -0.225  10.630  0.1279  3.1267 -2.0259
 1007MOL0     H38900   4.140  -0.246  10.623 -0.1150 -0.2257 -0.0078
 1007MOL0     H38901   3.937  -0.420  10.511 -0.1600  1.0589 -0.5230
 1007MOL0     H38902   4.095  -0.418  10.431  0.8273 -1.7999  1.5479
 1007MOL0     H38903   4.205  -0.448  10.652 -0.2255  1.9366  2.3343
 1007MOL0     H38904   4.061  -0.466  10.738 -0.6880 -2.6095  0.1369
 1007MOL0     H38905   4.131  -0.653  10.502 -0.8737 -4.5794  0.5331
 1007MOL0     H38906   4.163  -0.695  10.672  0.9592 -0.2505 -0.3891
 1007MOL0     H38907   3.890  -0.629  10.539 -0.6935 -1.0065  0.2883
 1007MOL0     H38908   3.896  -0.683  10.707 -1.6693 -2.6403 -0.5276
 1007MOL0     H38909   3.838  -0.847  10.562 -0.5097  0.3220  1.7715
 1007MOL0     H38910   3.997  -0.850  10.478  0.3357 -0.1182  0.9324
 1007MOL0     H38911   3.943  -0.887  10.769 -1.8121 -0.1391 -1.9825
 1007MOL0     H38912   4.110  -0.901  10.701  1.2071 -3.0890 -0.5448
 1007MOL0     H38913   4.041  -1.118  10.741 -0.6751  3.3442  3.0115
 1007MOL0     H38914   3.898  -1.091  10.622  0.5218 -1.4795 -0.1994
 1007MOL0     H38915   4.278  -1.107  10.609  0.7187  2.1505 -3.2893
 1007MOL0     H38916   4.387  -1.270  10.296 -1.3245 -1.4536  0.9199
 1007MOL0     H38917   4.446  -1.165  10.427  1.2222 -0.0398 -0.8531
 1007MOL0     H38918   4.356  -0.978  10.240 -2.3253 -0.6014 -1.1698
 1007MOL0     H38919   4.520  -1.059  10.248 -0.0854 -0.7504 -3.1404
 1007MOL0     H38920   4.461  -1.202  10.078  1.3078  0.5742  1.8417
 1007MOL0     H38921   4.294  -1.192  10.096  1.9753 -1.1517  0.0760
 1007MOL0     H38922   4.322  -0.941  10.007 -0.2248 -1.4988  1.3822
 1007MOL0     H38923   4.467  -1.001   9.951  0.3273 -3.0689 -0.4807
 1007MOL0     H38924   4.541  -1.113   9.792 -3.8020  2.5534  1.4300
 1007MOL0     H38925   4.728  -1.179   9.636  0.9377 -1.5343  0.6115
 1007MOL0     H38926   4.701  -1.228   9.487  2.6055  1.8323  0.8459
 1007MOL0     H38927   4.720  -1.354   9.590  2.6897  1.5465  0.5235
 1007MOL0     H38928   4.551  -1.484   9.184 -1.3735  2.2673  3.3219
 1007MOL0     H38929   4.526  -1.559   8.968 -0.2027  0.3415 -2.3424
 1007MOL0     H38930   4.203  -1.863   8.787  0.6000 -1.1424 -0.1429
 1007MOL0     H38931   4.100  -1.721   8.846  1.3062  0.1994  1.7278
 1007MOL0     H38932   4.086  -1.724   8.606 -0.4408  0.2960  2.1132
 1007MOL0     H38933   4.199  -1.585   8.647 -0.5924  1.3775  3.4942
 1007MOL0     H38934   4.288  -1.860   8.585 -1.6607  0.3217 -0.0229
 1007MOL0     H38935   4.381  -1.704   8.582 -0.5570  0.4346  0.5991
 1007MOL0     H38936   4.155  -1.773   8.393 -0.5547  0.3078  0.1427
 1007MOL0     H38937   4.325  -1.816   8.365  2.7507  3.0142 -1.5211
 1007MOL0     H38938   4.204  -1.539   8.406 -1.5413 -1.4909 -1.6158
 1007MOL0     H38939   4.387  -1.571   8.386  1.2425 -2.3176 -0.8558
 1007MOL0     H38940   4.224  -1.680   8.170  0.0156  0.6544  0.8244
 1007MOL0     H38941   4.377  -1.614   8.174 -1.2720 -0.7546 -2.2402
 1007MOL0     H38942   4.295  -1.388   8.208  2.6315 -3.4838  1.3225
 1007MOL0     H38943   4.130  -1.455   8.232  1.8715  0.3179  1.7481
 1007MOL0     H38944   4.134  -1.541   8.005  2.0292 -0.2008 -1.0573
 1007MOL0     H38945   4.273  -1.468   7.954 -0.8317  1.6459 -1.7173
 1007MOL0     H38946   4.111  -1.635   9.035  0.7320  0.4819 -1.2264
 1007MOL0     H38947   4.134  -1.533   9.251  0.8959  2.6136  1.9996
 1007MOL0     H38948   4.220  -1.411   9.559  0.3116 -0.5489  0.6315
 1007MOL0     H38949   4.153  -1.257   9.753  0.2212 -0.0356  1.3236
 1007MOL0     H38950   4.164  -0.033  10.266 -1.2613  1.0344 -0.2088
 1007MOL0     H38951   4.306   0.173  10.259 -3.1100  0.3016 -2.2116
 1007MOL0     H38952   4.470   0.647  10.440  0.8161 -0.8369  0.8431
 1007MOL0     H38953   4.702   0.733  10.488  1.9508 -0.4677 -2.6044
 1007MOL0     H38954   4.973   0.747  10.648 -0.7959  1.2430  0.1299
 1007MOL0     H38955   4.824   0.689  10.711  0.2054  3.6534 -1.2037
 1007MOL0     H38956   5.057   0.495  10.710  0.7502 -0.3286  3.0374
 1007MOL0     H38957   4.894   0.477  10.782  0.1215  1.0235  4.4852
 1007MOL0     H38958   5.100   0.669  10.873  1.7927 -2.6054 -1.2132
 1007MOL0     H38959   4.934   0.667  10.929 -0.0410  0.3226 -2.7792
 1007MOL0     H38960   4.970   0.426  10.998  0.2146 -0.2029  0.5451
 1007MOL0     H38961   5.068   0.533  11.100 -1.6980  2.5419 -0.1524
 1007MOL0     H38962   5.369   0.307  10.924  2.8380  1.8145  0.1171
 1007MOL0     H38963   4.845   0.342  10.515  0.9383  0.5739 -0.2371
 1007MOL0     H38964   4.551   0.157  10.477  0.1739  1.0767  1.4654
 1007MOL0     H38965   4.633   0.193  10.319  0.6596  0.2045 -0.1221
 1007MOL0     H38966   4.726   0.170  10.471  2.0688  1.2853 -3.5978
 1008MOL0     O38967   9.921   4.409   9.158  0.5475  0.2647 -0.6990
 1008MOL0     C38968   9.927   4.334   9.063 -0.6313 -0.6613 -0.6228
 1008MOL0     O38969   9.818   4.251   9.018 -0.1575  0.7862 -0.1123
 1008MOL0     C38970   9.694   4.256   9.081  0.2939  0.2533 -0.3819
 1008MOL0     C38971   9.636   4.376   9.118  0.5838 -0.4509  0.5154
 1008MOL0     C38972   9.498   4.375   9.171  0.5433 -0.1953 -0.7057
 1008MOL0     C38973   9.413   4.262   9.165 -0.5400 -0.3354 -0.0924
 1008MOL0     O38974   9.281   4.262   9.220 -0.7347  0.7153 -0.1549
 1008MOL0     C38975   9.212   4.387   9.234  0.2185 -0.4269  0.6133
 1008MOL0     C38976   9.178   4.450   9.099 -1.0196  0.1905 -0.1866
 1008MOL0     C38977   9.096   4.354   9.008  0.7664 -1.5458 -0.7165
 1008MOL0     C38978   9.028   4.436   8.887  0.1713 -0.3289  0.0620
 1008MOL0     C38979   8.986   4.360   8.766 -0.5728  1.1008 -0.0314
 1008MOL0     C38980   8.970   4.447   8.635 -0.6029 -0.5181 -0.7606
 1008MOL0     C38981   8.977   4.375   8.508  0.2246  0.2007  0.5658
 1008MOL0     C38982   8.887   4.253   8.514  0.2569  0.3858  0.4485
 1008MOL0     N38983   8.744   4.282   8.539 -0.4461  0.5388 -0.1543
 1008MOL0     C38984   8.664   4.374   8.482  0.5738  0.7300  0.8337
 1008MOL0     C38985   8.542   4.367   8.563 -0.1471  0.2125 -0.1712
 1008MOL0     C38986   8.416   4.422   8.516 -0.4127 -0.1880 -0.2039
 1008MOL0     C38987   8.290   4.334   8.539  0.3996  0.3091  0.9859
 1008MOL0     C38988   8.157   4.408   8.494  0.5470 -0.8179 -0.2235
 1008MOL0     C38989   8.038   4.336   8.552 -0.4945  0.2618  0.1150
 1008MOL0     O38990   7.929   4.425   8.529 -0.7953  0.6343 -0.5768
 1008MOL0     C38991   7.806   4.383   8.550 -0.2154  0.2566  0.0349
 1008MOL0     C38992   7.765   4.276   8.627 -0.8332  0.7811  0.5476
 1008MOL0     C38993   7.631   4.258   8.658  0.1812 -0.1975  0.3526
 1008MOL0     C38994   7.603   4.141   8.759 -0.1813  0.4624 -0.2784
 1008MOL0     C38995   7.534   4.359   8.613  0.2413  0.4314  0.1889
 1008MOL0     C38996   7.388   4.354   8.653 -1.5133 -0.6101  0.0735
 1008MOL0     O38997   7.346   4.249   8.738  0.4131 -0.0945 -0.4704
 1008MOL0     C38998   7.239   4.258   8.828 -0.4220 -0.2524 -0.3956
 1008MOL0     C38999   7.160   4.369   8.864  0.7896 -0.2477 -0.5155
 1008MOL0     C39000   7.066   4.359   8.977  0.1529  0.1716  0.2713
 1008MOL0     C39001   7.057   4.242   9.052  0.2556 -0.3441  0.4370
 1008MOL0     O39002   6.963   4.229   9.160 -0.3779  0.1524  0.4036
 1008MOL0     C39003   6.824   4.261   9.134  0.1905  0.2845 -0.4695
 1008MOL0     C39004   6.747   4.208   9.254  0.9214  0.1230  1.0484
 1008MOL0     C39005   6.800   4.262   9.382 -0.5692 -0.8750  0.7426
 1008MOL0     C39006   6.719   4.205   9.495 -0.9127  0.2383  0.0768
 1008MOL0     C39007   6.760   4.261   9.633 -0.0305  0.5053 -0.3155
 1008MOL0     C39008   6.714   4.164   9.748  0.9118  0.3850  0.6258
 1008MOL0     C39009   6.722   4.222   9.889  0.0418 -0.4111  0.6994
 1008MOL0     C39010   6.656   4.149  10.006 -0.1297 -0.1968  0.3261
 1008MOL0    Cl39011   6.697   3.976  10.015 -0.2381 -0.2858  0.4789
 1008MOL0     C39012   7.128   4.130   9.004 -0.2218 -0.2307 -0.3154
 1008MOL0     C39013   7.215   4.137   8.896 -0.2447 -1.0411  0.1433
 1008MOL0     O39014   7.322   4.448   8.615  0.0397  0.1087 -0.8617
 1008MOL0     C39015   7.584   4.463   8.537 -0.8079 -0.3113  0.1486
 1008MOL0     C39016   7.712   4.472   8.491 -1.1138 -0.0522  0.6091
 1008MOL0     N39017   8.567   4.273   8.659 -0.5396  0.5111  0.2077
 1008MOL0     N39018   8.679   4.228   8.646 -0.5843 -1.1764 -0.2711
 1008MOL0     C39019   9.472   4.153   9.110 -0.7511  0.1988 -0.7266
 1008MOL0     C39020   9.611   4.145   9.077  0.0528 -0.7127 -0.5085
 1008MOL0     C39021  10.060   4.334   8.996 -0.0948  0.0020 -0.6587
 1008MOL0     C39022  10.169   4.415   9.046  0.2321 -0.5233 -0.2568
 1008MOL0     C39023  10.293   4.413   9.002  1.3999  0.5577  0.0251
 1008MOL0     C39024  10.327   4.327   8.906  0.1491  0.5988 -0.1286
 1008MOL0     O39025  10.453   4.311   8.866  0.4293 -0.4665 -0.2230
 1008MOL0     C39026  10.560   4.340   8.959  0.3019  0.8797  0.0598
 1008MOL0     C39027  10.679   4.294   8.879 -0.0136  0.1276 -0.0532
 1008MOL0     C39028  10.667   4.138   8.829 -0.2727  0.0461 -0.6275
 1008MOL0     C39029  10.767   4.104   8.714 -0.1093  0.6653 -0.8569
 1008MOL0     C39030  10.897   4.159   8.744  0.3138 -0.2921  1.0498
 1008MOL0     C39031  10.997   4.218   8.772  0.0484  0.8824  0.8922
 1008MOL0     C39032  10.223   4.251   8.840 -0.4996  0.1553  0.3309
 1008MOL0     C39033  10.094   4.244   8.887 -0.4522  0.6598  0.3404
 1008MOL0     C39034   9.994   4.141   8.819 -0.6076 -0.9970  0.4145
 1008MOL0     H39035   9.693   4.468   9.115 -1.7765  1.0600 -0.6745
 1008MOL0     H39036   9.470   4.468   9.219  0.9874 -1.0769  1.3588
 1008MOL0     H39037   9.259   4.461   9.299  0.7124 -2.4255  2.6575
 1008MOL0     H39038   9.117   4.355   9.278  1.3841 -1.4349  2.4981
 1008MOL0     H39039   9.128   4.546   9.114  0.0893  0.7057  0.2619
 1008MOL0     H39040   9.271   4.476   9.049  1.0879 -3.1672  1.5781
 1008MOL0     H39041   9.157   4.268   8.981  0.8576 -1.2924 -1.3477
 1008MOL0     H39042   9.019   4.303   9.066  0.7627  0.6886  1.4097
 1008MOL0     H39043   8.949   4.508   8.913  0.3582  0.1428 -0.6405
 1008MOL0     H39044   9.111   4.504   8.866  0.7186 -0.8792  0.4344
 1008MOL0     H39045   8.890   4.313   8.788  0.7296 -1.2332  1.0007
 1008MOL0     H39046   9.063   4.284   8.746  0.0165  2.0235 -1.4460
 1008MOL0     H39047   8.876   4.503   8.645 -2.8062 -3.8029 -1.5066
 1008MOL0     H39048   9.058   4.512   8.635 -0.8086 -0.2337 -1.0742
 1008MOL0     H39049   9.078   4.354   8.471 -0.8649 -1.8590 -1.4686
 1008MOL0     H39050   8.927   4.444   8.440 -2.9778 -0.5636  1.9795
 1008MOL0     H39051   8.893   4.206   8.415  0.3537  3.2320 -1.0123
 1008MOL0     H39052   8.925   4.184   8.589 -3.1433  1.5128  3.5211
 1008MOL0     H39053   8.689   4.436   8.397 -1.2231  0.2481 -0.0965
 1008MOL0     H39054   8.430   4.443   8.409 -1.2043  1.5524 -0.0071
 1008MOL0     H39055   8.415   4.518   8.569 -1.5590 -1.1946  1.6772
 1008MOL0     H39056   8.292   4.243   8.479 -0.3273 -0.3065  1.8585
 1008MOL0     H39057   8.285   4.299   8.643  1.1818  2.1133  1.6793
 1008MOL0     H39058   8.152   4.513   8.524  1.4278 -1.0698  0.8642
 1008MOL0     H39059   8.149   4.418   8.385 -0.4564 -0.7436 -0.1528
 1008MOL0     H39060   8.018   4.243   8.497 -0.0876 -0.4645  1.1487
 1008MOL0     H39061   8.043   4.311   8.659 -0.6222 -0.6944 -0.0928
 1008MOL0     H39062   7.836   4.209   8.675 -3.4159 -0.9722  2.1710
 1008MOL0     H39063   7.681   4.065   8.761 -1.9242 -1.7445 -4.5314
 1008MOL0     H39064   7.510   4.087   8.740  0.4830 -0.9363  0.2981
 1008MOL0     H39065   7.603   4.184   8.860 -0.4666  2.8475 -1.2237
 1008MOL0     H39066   7.172   4.470   8.825  0.6806  0.8033  1.9594
 1008MOL0     H39067   7.007   4.438   9.022  0.1888  0.0765  0.4874
 1008MOL0     H39068   6.804   4.368   9.129  0.8944  0.5426  1.2735
 1008MOL0     H39069   6.788   4.207   9.046 -0.0049  0.6435 -0.6132
 1008MOL0     H39070   6.644   4.244   9.240  0.8639 -0.7065 -0.9935
 1008MOL0     H39071   6.758   4.099   9.259 -0.0366  0.0128  0.8947
 1008MOL0     H39072   6.808   4.370   9.399  3.7270 -1.4864  4.5567
 1008MOL0     H39073   6.903   4.243   9.413 -0.5720 -0.0275  1.3108
 1008MOL0     H39074   6.754   4.102   9.503  2.3628  1.1798 -0.6705
 1008MOL0     H39075   6.611   4.209   9.478 -1.2126 -2.7374  0.8065
 1008MOL0     H39076   6.867   4.280   9.643 -0.1289 -0.1089  3.3501
 1008MOL0     H39077   6.717   4.360   9.650  0.7440  1.0245 -1.3316
 1008MOL0     H39078   6.775   4.076   9.727 -1.1703 -0.4313 -3.0460
 1008MOL0     H39079   6.605   4.155   9.738  0.8524  0.8689  0.7915
 1008MOL0     H39080   6.681   4.322   9.876 -0.7953 -0.6648  1.3333
 1008MOL0     H39081   6.826   4.246   9.916  0.0358  3.8113 -2.0871
 1008MOL0     H39082   6.549   4.171  10.007 -0.4893 -1.6666 -1.1098
 1008MOL0     H39083   6.703   4.195  10.093  3.0607 -0.0441 -1.3434
 1008MOL0     H39084   7.121   4.043   9.069 -1.3918  1.7060  2.3693
 1008MOL0     H39085   7.288   4.058   8.878  0.4445 -0.5395  0.7179
 1008MOL0     H39086   7.518   4.544   8.508 -1.3120 -0.5291  0.6776
 1008MOL0     H39087   7.745   4.551   8.424  2.8043  0.2457  2.5886
 1008MOL0     H39088   9.406   4.067   9.101 -1.9796  0.9872  0.2682
 1008MOL0     H39089   9.643   4.047   9.043  2.3965 -0.1150 -0.1758
 1008MOL0     H39090  10.148   4.477   9.133  1.6988  0.7397 -0.7509
 1008MOL0     H39091  10.357   4.489   9.045  0.1522  0.8513  1.4289
 1008MOL0     H39092  10.572   4.448   8.974 -0.8817  1.2814 -1.5861
 1008MOL0     H39093  10.548   4.290   9.056  5.0550 -0.7445  0.0351
 1008MOL0     H39094  10.770   4.311   8.939 -0.3846  0.9405  0.3003
 1008MOL0     H39095  10.690   4.355   8.789 -1.3823  0.2186 -0.1728
 1008MOL0     H39096  10.683   4.078   8.918  1.8701  2.6723  0.9230
 1008MOL0     H39097  10.566   4.119   8.792 -0.6040 -3.2305  1.6155
 1008MOL0     H39098  10.717   4.165   8.638 -4.7416 -1.9945 -0.3294
 1008MOL0     H39099  10.754   3.997   8.693 -1.3842  0.2046  1.7976
 1008MOL0     H39100  11.088   4.261   8.810  3.2019 -5.2313  1.4133
 1008MOL0     H39101  10.253   4.175   8.767 -3.0476 -1.4145  0.8073
 1008MOL0     H39102   9.956   4.070   8.893  0.3093  0.0343  1.9219
 1008MOL0     H39103   9.912   4.199   8.777  1.3192 -0.8341 -3.5764
 1008MOL0     H39104  10.026   4.088   8.728 -2.1784 -1.0638 -0.1267
 1009MOL0     O39105   9.326   1.588   3.919 -0.4816  0.1174 -0.2571
 1009MOL0     C39106   9.349   1.591   3.796 -0.0544 -0.9191  0.9539
 1009MOL0     O39107   9.275   1.665   3.703  0.1162 -0.1077 -0.0305
 1009MOL0     C39108   9.165   1.739   3.739  0.0138  0.2928 -0.2982
 1009MOL0     C39109   9.173   1.861   3.816 -0.4282  0.0932  0.1253
 1009MOL0     C39110   9.057   1.921   3.861 -0.7196 -0.1568  0.2030
 1009MOL0     C39111   8.937   1.866   3.835  0.0357  0.2891 -0.1515
 1009MOL0     O39112   8.815   1.915   3.886 -0.1213 -1.0499  0.6455
 1009MOL0     C39113   8.830   2.018   3.973  0.2953 -0.6730 -0.0280
 1009MOL0     C39114   8.695   2.054   4.033 -1.0958  0.0056  1.0136
 1009MOL0     C39115   8.603   2.109   3.925  0.5061 -0.0590  0.6296
 1009MOL0     C39116   8.628   2.250   3.873 -0.7688  0.3918  1.0968
 1009MOL0     C39117   8.543   2.294   3.749  0.8442  0.2509  0.7451
 1009MOL0     C39118   8.523   2.454   3.736  0.4245  0.0934 -0.7307
 1009MOL0     C39119   8.441   2.500   3.611  0.6940 -0.6954 -0.3530
 1009MOL0     C39120   8.287   2.491   3.632  0.3411  0.0583  0.2063
 1009MOL0     N39121   8.231   2.355   3.638  0.0792 -0.0908  0.8605
 1009MOL0     C39122   8.249   2.262   3.546  0.7728  0.0099 -0.0113
 1009MOL0     C39123   8.198   2.149   3.595 -0.4219 -1.0078  0.6544
 1009MOL0     C39124   8.194   2.014   3.530  0.1757  0.0276  0.0659
 1009MOL0     C39125   8.051   1.961   3.516 -0.2382  0.7304 -0.0815
 1009MOL0     C39126   8.039   1.851   3.405 -0.9125  0.4306  0.2040
 1009MOL0     C39127   7.899   1.793   3.409 -0.5223 -0.3087  1.0538
 1009MOL0     O39128   7.883   1.718   3.538  0.2785  0.1108 -0.3218
 1009MOL0     C39129   7.894   1.578   3.538  0.5468  0.2995 -0.7302
 1009MOL0     C39130   7.847   1.503   3.420 -1.3013  0.0578 -1.0888
 1009MOL0     C39131   7.856   1.360   3.410 -0.2437 -0.3286 -0.4733
 1009MOL0     C39132   7.797   1.305   3.301 -0.4849 -0.2353  0.1273
 1009MOL0     C39133   7.915   1.293   3.524  0.0217  0.0271 -0.4248
 1009MOL0     C39134   7.944   1.140   3.535  0.5304  0.5030  0.3784
 1009MOL0     O39135   8.033   1.103   3.626 -0.1678 -0.2215  0.0121
 1009MOL0     C39136   8.084   0.977   3.646  0.6862  0.8322 -0.3690
 1009MOL0     C39137   8.056   0.863   3.570 -0.1359 -0.0650 -0.8293
 1009MOL0     C39138   8.106   0.736   3.616 -0.6219  0.2141 -0.2695
 1009MOL0     C39139   8.195   0.730   3.728 -0.7914  0.8341  0.3518
 1009MOL0     O39140   8.247   0.608   3.761  0.0982 -0.0337  0.9065
 1009MOL0     C39141   8.176   0.479   3.751  0.5052 -0.0383  0.2911
 1009MOL0     C39142   8.076   0.490   3.867  0.6729  0.6322 -0.0313
 1009MOL0     C39143   7.952   0.396   3.845 -0.0694 -0.2029  0.8102
 1009MOL0     C39144   7.859   0.376   3.968  0.9906  0.7497  0.6400
 1009MOL0     C39145   7.924   0.297   4.082  0.2535 -0.8603 -0.4053
 1009MOL0     C39146   7.826   0.262   4.200 -0.7624 -0.2894  0.1134
 1009MOL0     C39147   7.867   0.344   4.327  0.0109 -1.2265 -0.3478
 1009MOL0     C39148   7.848   0.496   4.319 -0.4472  0.3963 -0.5827
 1009MOL0    Cl39149   7.884   0.540   4.488  0.4415 -0.0189  0.3325
 1009MOL0     C39150   8.230   0.850   3.792 -0.9790 -0.4374  0.8489
 1009MOL0     C39151   8.174   0.970   3.756 -0.1641  0.2341 -0.2580
 1009MOL0     O39152   7.877   1.067   3.457 -0.2653  0.4711 -0.5453
 1009MOL0     C39153   7.947   1.366   3.640 -0.0761  0.6133 -0.1194
 1009MOL0     C39154   7.941   1.503   3.642 -0.0622 -0.4781 -0.1135
 1009MOL0     N39155   8.151   2.182   3.728  0.7657  0.6838 -0.1497
 1009MOL0     N39156   8.160   2.305   3.742 -1.0973  0.0362  0.0665
 1009MOL0     C39157   8.923   1.753   3.760 -0.1890 -0.7714 -0.6752
 1009MOL0     C39158   9.038   1.694   3.704 -0.1851  0.9041  0.9806
 1009MOL0     C39159   9.467   1.517   3.744  0.0098 -0.7340  0.4347
 1009MOL0     C39160   9.508   1.394   3.797 -1.1071  0.7623 -0.0048
 1009MOL0     C39161   9.616   1.320   3.739 -0.0450  0.3573  0.5392
 1009MOL0     C39162   9.692   1.382   3.637 -0.0426 -0.1389  0.6777
 1009MOL0     O39163   9.802   1.325   3.574  0.2130  1.4791 -0.6720
 1009MOL0     C39164   9.815   1.181   3.570 -0.1572 -0.1708  0.5438
 1009MOL0     C39165   9.762   1.118   3.439  0.0829  0.7566 -0.7152
 1009MOL0     C39166   9.752   0.960   3.426 -0.7615  0.0802  0.8336
 1009MOL0     C39167   9.891   0.894   3.422 -0.2809 -0.1259 -0.5233
 1009MOL0     C39168   9.883   0.749   3.430  0.0078  0.1992  0.6543
 1009MOL0     C39169   9.846   0.633   3.430 -0.2874  0.0355  0.3493
 1009MOL0     C39170   9.658   1.510   3.592 -0.8060  0.0786 -0.4279
 1009MOL0     C39171   9.548   1.577   3.650 -0.0326 -0.7204  0.3373
 1009MOL0     C39172   9.532   1.716   3.599  0.2782 -0.0944  0.5726
 1009MOL0     H39173   9.270   1.893   3.855 -0.6555 -1.8678  2.5216
 1009MOL0     H39174   9.075   2.009   3.922 -1.1243 -1.7314  2.7491
 1009MOL0     H39175   8.875   2.110   3.933  0.6953 -0.4674  0.8775
 1009MOL0     H39176   8.893   1.995   4.059  0.3132  2.0961  0.7995
 1009MOL0     H39177   8.661   1.964   4.086  0.7475 -0.7896  0.8993
 1009MOL0     H39178   8.709   2.132   4.109  0.0850 -0.3685  1.1963
 1009MOL0     H39179   8.609   2.037   3.842  2.0352  1.9329 -1.0905
 1009MOL0     H39180   8.498   2.110   3.954 -0.2673  1.8931 -1.8302
 1009MOL0     H39181   8.602   2.335   3.936 -3.8229  4.0560 -4.2870
 1009MOL0     H39182   8.732   2.253   3.839 -1.7664 -0.4796 -2.4443
 1009MOL0     H39183   8.444   2.256   3.776  1.7078 -1.6478  1.3980
 1009MOL0     H39184   8.570   2.245   3.656  0.6027 -2.2218  1.9084
 1009MOL0     H39185   8.470   2.488   3.825  0.3541 -3.5670  0.7831
 1009MOL0     H39186   8.622   2.500   3.734 -0.9571  3.3813 -0.2172
 1009MOL0     H39187   8.468   2.435   3.527 -1.4252 -3.0614  0.6564
 1009MOL0     H39188   8.456   2.605   3.587  0.8980 -1.1074 -2.1347
 1009MOL0     H39189   8.250   2.554   3.714 -3.0658  0.4154 -1.4310
 1009MOL0     H39190   8.229   2.543   3.555  3.0980  2.1741 -0.5729
 1009MOL0     H39191   8.302   2.274   3.451  5.1985  1.2437  2.3296
 1009MOL0     H39192   8.261   1.946   3.581  1.3594 -1.0617 -2.7215
 1009MOL0     H39193   8.245   2.021   3.433  1.2817  2.0447  0.7481
 1009MOL0     H39194   8.016   1.918   3.610  3.9535 -0.9754  0.9268
 1009MOL0     H39195   7.979   2.039   3.488 -1.8865 -0.6222  0.2230
 1009MOL0     H39196   8.060   1.913   3.318  0.1733 -0.7897 -0.4382
 1009MOL0     H39197   8.106   1.770   3.436 -2.4620 -1.5180 -1.3885
 1009MOL0     H39198   7.823   1.871   3.401  0.4772  0.8046  2.0811
 1009MOL0     H39199   7.889   1.733   3.318  1.7048 -2.4318  2.0831
 1009MOL0     H39200   7.806   1.553   3.332 -0.5351 -0.1592 -1.5812
 1009MOL0     H39201   7.756   1.377   3.229  1.6773 -0.0573 -1.0114
 1009MOL0     H39202   7.713   1.239   3.322  1.5017 -1.9885  3.4881
 1009MOL0     H39203   7.864   1.240   3.244 -2.0592 -0.0039 -2.1333
 1009MOL0     H39204   7.976   0.844   3.499 -1.9217 -1.8342  1.4948
 1009MOL0     H39205   8.081   0.658   3.545 -3.1003  0.6495  0.0293
 1009MOL0     H39206   8.141   0.461   3.650  3.3378  0.2961 -0.8559
 1009MOL0     H39207   8.255   0.409   3.780  1.5829  1.4853  1.2581
 1009MOL0     H39208   8.127   0.457   3.958 -3.1590  0.1432  2.1724
 1009MOL0     H39209   8.044   0.592   3.887 -2.8518 -0.1455 -1.0077
 1009MOL0     H39210   7.991   0.301   3.807  1.3120 -0.3756  2.5300
 1009MOL0     H39211   7.897   0.447   3.766 -1.1364  0.4125  1.9211
 1009MOL0     H39212   7.767   0.323   3.941  2.1015  0.0990 -2.2183
 1009MOL0     H39213   7.824   0.477   3.992  2.6815  2.0912 -2.1391
 1009MOL0     H39214   7.966   0.205   4.040  1.3065 -0.8766  0.6357
 1009MOL0     H39215   8.014   0.352   4.113 -0.0476 -0.9149  0.5823
 1009MOL0     H39216   7.821   0.157   4.230  0.2952 -0.5791 -0.6564
 1009MOL0     H39217   7.722   0.268   4.168 -0.6502 -1.5550 -0.5333
 1009MOL0     H39218   7.970   0.322   4.355 -0.2373 -2.5051 -0.4085
 1009MOL0     H39219   7.795   0.323   4.407 -1.3255  0.9778 -0.8859
 1009MOL0     H39220   7.745   0.520   4.291  0.4577  4.3569 -1.1592
 1009MOL0     H39221   7.914   0.554   4.253  2.1944  2.2601  3.3302
 1009MOL0     H39222   8.306   0.851   3.870  2.6465  0.2258 -2.3474
 1009MOL0     H39223   8.189   1.058   3.817 -0.6931 -0.3580  0.7451
 1009MOL0     H39224   7.986   1.316   3.729 -2.6690  2.3210  2.1289
 1009MOL0     H39225   7.987   1.551   3.728 -0.5153  1.4537 -0.8871
 1009MOL0     H39226   8.818   1.732   3.745 -0.8436  1.5373  0.1862
 1009MOL0     H39227   9.029   1.616   3.630 -2.0338  0.9905  1.0674
 1009MOL0     H39228   9.459   1.350   3.884  1.2146 -2.0998 -0.0301
 1009MOL0     H39229   9.652   1.230   3.788 -2.4142 -0.0109  1.7355
 1009MOL0     H39230   9.923   1.162   3.563  0.4035  3.0486 -2.2773
 1009MOL0     H39231   9.793   1.133   3.665 -0.7271  0.0282  0.5171
 1009MOL0     H39232   9.830   1.146   3.358 -1.3572  0.1330 -2.1942
 1009MOL0     H39233   9.667   1.168   3.422 -1.1705 -1.1411  0.4146
 1009MOL0     H39234   9.697   0.912   3.508  2.8801 -0.1140  3.3873
 1009MOL0     H39235   9.699   0.924   3.337  0.7125  0.4038 -0.2149
 1009MOL0     H39236   9.957   0.922   3.504  0.0828  0.6812 -1.0823
 1009MOL0     H39237   9.933   0.922   3.325  0.9612  3.1275  0.8157
 1009MOL0     H39238   9.831   0.528   3.448 -1.8398 -0.3815 -2.6895
 1009MOL0     H39239   9.709   1.557   3.509 -0.9403 -2.5410 -2.1261
 1009MOL0     H39240   9.623   1.769   3.571 -1.2023  1.6751 -1.2053
 1009MOL0     H39241   9.468   1.706   3.511  0.9078 -0.6065  0.1613
 1009MOL0     H39242   9.486   1.773   3.680  1.7332 -2.2701  3.0658
 1010MOL0     O39243   3.813  10.289  11.163  0.3582  0.1588  0.4794
 1010MOL0     C39244   3.934  10.318  11.154 -0.4645  0.0183 -0.8795
 1010MOL0     O39245   3.981  10.436  11.106 -0.4855 -0.4466 -0.4233
 1010MOL0     C39246   3.890  10.517  11.052  0.9056  0.5986  0.3112
 1010MOL0     C39247   3.831  10.480  10.927 -0.5497  0.2819 -0.0258
 1010MOL0     C39248   3.729  10.562  10.885  1.1827 -0.0166  0.1377
 1010MOL0     C39249   3.681  10.680  10.945 -0.7115  0.4986 -0.1809
 1010MOL0     O39250   3.586  10.761  10.900 -0.5170  0.7909 -0.2191
 1010MOL0     C39251   3.537  10.736  10.769 -0.2435  0.4707 -0.2634
 1010MOL0     C39252   3.443  10.841  10.719 -0.3264 -0.8254  0.1032
 1010MOL0     C39253   3.508  10.977  10.718  0.8215 -0.8908  0.5171
 1010MOL0     C39254   3.417  11.067  10.646  0.3323  0.3355 -0.1360
 1010MOL0     C39255   3.477  11.211  10.646  0.5095 -0.3640 -0.3245
 1010MOL0     C39256   3.616  11.223  10.586  0.4723 -0.2758  0.3814
 1010MOL0     C39257   3.649  11.364  10.537 -0.3326 -1.9066  0.8227
 1010MOL0     C39258   3.565  11.414  10.416 -0.9086  0.0962  0.8618
 1010MOL0     N39259   3.576  11.558  10.422  0.7779 -0.8170 -0.2395
 1010MOL0     C39260   3.688  11.627  10.396 -0.8297 -0.8063  0.4726
 1010MOL0     C39261   3.658  11.751  10.436 -0.0732 -0.7150 -0.2822
 1010MOL0     C39262   3.737  11.875  10.391  0.1255 -0.2799 -0.6214
 1010MOL0     C39263   3.831  11.922  10.507  0.4989 -0.1350  0.4944
 1010MOL0     C39264   3.935  12.024  10.460 -0.6015  0.7280  0.7293
 1010MOL0     C39265   4.045  12.050  10.550 -0.0156 -0.5027  0.2783
 1010MOL0     O39266   4.027  12.170  10.624  0.6242 -0.1414  0.4920
 1010MOL0     C39267   4.132  12.257  10.631 -0.2098  0.2592  0.2909
 1010MOL0     C39268   4.106  12.390  10.609 -0.4263 -0.7333 -0.4415
 1010MOL0     C39269   4.197  12.493  10.635  0.0637 -0.5423 -0.0235
 1010MOL0     C39270   4.152  12.634  10.619  0.9929  0.9973  0.7109
 1010MOL0     C39271   4.326  12.463  10.688  0.6797  0.4677  0.4180
 1010MOL0     C39272   4.430  12.566  10.723 -0.6999  0.7796  0.9006
 1010MOL0     O39273   4.397  12.688  10.753 -0.0939 -0.4487 -0.3328
 1010MOL0     C39274   4.498  12.785  10.749 -0.4036  0.0940 -0.1351
 1010MOL0     C39275   4.545  12.841  10.624  0.6776  0.0777 -0.7111
 1010MOL0     C39276   4.621  12.961  10.630  0.3625 -0.4703  0.0369
 1010MOL0     C39277   4.660  13.013  10.748 -0.0596  0.3981  1.2134
 1010MOL0     O39278   4.739  13.124  10.746  0.0041  0.0175 -0.3943
 1010MOL0     C39279   4.874  13.124  10.818  0.5685  0.0047 -0.1022
 1010MOL0     C39280   4.932  13.270  10.798 -1.7852 -0.0350 -0.2836
 1010MOL0     C39281   5.074  13.291  10.860  0.3781  1.2271  0.2183
 1010MOL0     C39282   5.141  13.422  10.811 -0.3475  0.4605  0.0511
 1010MOL0     C39283   5.267  13.451  10.885 -0.0590  0.3095  0.4756
 1010MOL0     C39284   5.387  13.385  10.813 -0.1704  0.3147 -0.0561
 1010MOL0     C39285   5.506  13.386  10.913  0.8988 -0.2085 -0.2304
 1010MOL0     C39286   5.636  13.351  10.850 -0.2641  0.0017  0.2135
 1010MOL0    Cl39287   5.756  13.374  10.981 -0.0385  0.4261  0.2249
 1010MOL0     C39288   4.609  12.966  10.870  0.4053  0.1326 -0.4557
 1010MOL0     C39289   4.526  12.844  10.872  0.0889 -0.1442  0.2792
 1010MOL0     O39290   4.543  12.521  10.732  0.3716 -0.0144 -0.2928
 1010MOL0     C39291   4.343  12.329  10.724 -0.3423  0.3105  0.5205
 1010MOL0     C39292   4.254  12.226  10.691 -0.2066  0.2309 -0.7555
 1010MOL0     N39293   3.538  11.748  10.511 -0.7002  0.7232  0.0167
 1010MOL0     N39294   3.489  11.631  10.491 -0.6814 -0.3668 -0.6253
 1010MOL0     C39295   3.753  10.721  11.064 -0.0861 -0.3614 -0.5333
 1010MOL0     C39296   3.841  10.627  11.114  0.1362 -0.0145 -0.0877
 1010MOL0     C39297   4.043  10.227  11.214 -0.1772  0.4186 -0.4694
 1010MOL0     C39298   4.179  10.260  11.194 -0.8264  0.9366  1.0222
 1010MOL0     C39299   4.268  10.156  11.218 -0.0525 -0.0349  1.4340
 1010MOL0     C39300   4.234  10.031  11.258  0.9998 -0.4317 -1.1875
 1010MOL0     O39301   4.330   9.928  11.275 -0.2463 -0.2786 -0.3598
 1010MOL0     C39302   4.335   9.843  11.151  0.3038 -0.4332 -0.3806
 1010MOL0     C39303   4.447   9.886  11.060 -0.6876 -0.5727 -0.3139
 1010MOL0     C39304   4.577   9.885  11.147 -0.1972 -0.9170 -0.5723
 1010MOL0     C39305   4.697   9.866  11.053 -0.9411 -0.1543 -0.3834
 1010MOL0     C39306   4.691   9.950  10.931  0.2653  0.2333  0.7483
 1010MOL0     C39307   4.699  10.008  10.829  0.7211 -1.3155 -0.8933
 1010MOL0     C39308   4.106   9.998  11.291  0.0301 -0.4229 -0.4329
 1010MOL0     C39309   4.005  10.090  11.278 -1.1263 -0.9053 -0.8798
 1010MOL0     C39310   3.872  10.049  11.323  0.5475  0.3584  0.7507
 1010MOL0     H39311   3.861  10.384  10.888  0.8807 -0.2913  2.2723
 1010MOL0     H39312   3.692  10.521  10.792  2.0503 -1.5939  0.4372
 1010MOL0     H39313   3.481  10.642  10.767 -1.6650  1.1614  2.5410
 1010MOL0     H39314   3.624  10.725  10.703  0.7463  2.7377  0.5405
 1010MOL0     H39315   3.407  10.821  10.618 -0.0942  2.6215 -0.8064
 1010MOL0     H39316   3.361  10.838  10.791 -0.8603  1.5039 -0.3149
 1010MOL0     H39317   3.525  11.017  10.818  0.6356  1.5688 -0.3553
 1010MOL0     H39318   3.606  10.972  10.669  1.2615  3.3977  0.5376
 1010MOL0     H39319   3.398  11.028  10.545 -0.1234 -0.2913  0.1853
 1010MOL0     H39320   3.317  11.065  10.690 -2.8618  4.0415 -5.8236
 1010MOL0     H39321   3.476  11.253  10.748 -2.3769 -2.6904  0.7606
 1010MOL0     H39322   3.406  11.270  10.587 -3.1841 -1.7916  2.3174
 1010MOL0     H39323   3.700  11.186  10.646  1.6656  0.6156 -0.6852
 1010MOL0     H39324   3.610  11.158  10.498  0.7883 -1.8737  1.4878
 1010MOL0     H39325   3.752  11.374  10.502 -0.6288  0.7635  0.5078
 1010MOL0     H39326   3.634  11.435  10.619 -1.7497 -1.6476  0.3629
 1010MOL0     H39327   3.592  11.396  10.312  0.7239  3.9181  0.4468
 1010MOL0     H39328   3.459  11.393  10.433 -1.0026  0.8792  1.3274
 1010MOL0     H39329   3.779  11.599  10.343 -0.3842 -0.0478  0.8273
 1010MOL0     H39330   3.667  11.956  10.371 -1.6461 -0.7458  2.7835
 1010MOL0     H39331   3.778  11.857  10.291 -2.6054 -0.2957 -1.8071
 1010MOL0     H39332   3.779  11.965  10.593  1.7976 -0.5565  1.5184
 1010MOL0     H39333   3.894  11.842  10.546 -1.0748 -1.3052  0.7529
 1010MOL0     H39334   3.974  11.990  10.363 -0.4130  1.0413  0.6951
 1010MOL0     H39335   3.880  12.115  10.435  0.3156  1.3455  0.8929
 1010MOL0     H39336   4.063  11.966  10.618  1.2180 -0.4333  0.0737
 1010MOL0     H39337   4.136  12.059  10.489 -0.0738 -1.6089  0.0063
 1010MOL0     H39338   4.004  12.396  10.573 -0.1618  1.8165 -0.9650
 1010MOL0     H39339   4.158  12.695  10.710  3.3504  3.0864 -0.7250
 1010MOL0     H39340   4.045  12.630  10.600  0.5782  0.5994  2.8909
 1010MOL0     H39341   4.206  12.696  10.547  0.2277 -0.2746 -1.0099
 1010MOL0     H39342   4.497  12.791  10.541  0.1951  0.5655 -0.7335
 1010MOL0     H39343   4.647  12.994  10.530  1.4775 -2.0592 -0.2461
 1010MOL0     H39344   4.863  13.123  10.927 -1.6466  3.5710 -0.1507
 1010MOL0     H39345   4.934  13.041  10.778 -1.3557 -3.0336  2.8142
 1010MOL0     H39346   4.942  13.288  10.690  1.3716 -5.3828 -1.2393
 1010MOL0     H39347   4.855  13.334  10.842 -1.7892  0.6638 -1.2769
 1010MOL0     H39348   5.137  13.212  10.819 -2.3448 -0.2288 -1.4558
 1010MOL0     H39349   5.076  13.298  10.970  0.1372  1.6204  0.1995
 1010MOL0     H39350   5.065  13.499  10.831 -0.6343  0.4555 -0.9554
 1010MOL0     H39351   5.173  13.403  10.708  1.2204 -3.0360  1.0390
 1010MOL0     H39352   5.289  13.558  10.898  2.6130 -0.1472  0.2733
 1010MOL0     H39353   5.263  13.409  10.986 -3.9531  2.9316  1.6312
 1010MOL0     H39354   5.405  13.448  10.725  0.9499  1.7777  1.1722
 1010MOL0     H39355   5.356  13.285  10.779 -1.7509  0.3596  1.1383
 1010MOL0     H39356   5.481  13.320  10.998  1.8534  0.8802  0.9317
 1010MOL0     H39357   5.516  13.489  10.948 -0.4974 -0.6882  1.8062
 1010MOL0     H39358   5.657  13.411  10.762  1.5608  2.6222  2.2603
 1010MOL0     H39359   5.627  13.250  10.809  1.6374  1.1987 -3.6055
 1010MOL0     H39360   4.616  13.017  10.966 -1.0349 -0.1924 -0.1592
 1010MOL0     H39361   4.476  12.816  10.964 -0.6482  3.1133  1.0178
 1010MOL0     H39362   4.442  12.304  10.760  0.1976  0.9414 -0.4790
 1010MOL0     H39363   4.282  12.122  10.705 -0.1882  0.1662 -1.2644
 1010MOL0     H39364   3.715  10.814  11.104  1.5715  0.3995 -0.6341
 1010MOL0     H39365   3.875  10.643  11.216  0.3534  0.1470 -0.1846
 1010MOL0     H39366   4.209  10.357  11.156 -1.5051  1.3831  1.6089
 1010MOL0     H39367   4.374  10.172  11.202  0.3047 -1.5308  2.0873
 1010MOL0     H39368   4.352   9.741  11.186  0.6671 -0.2399  0.0118
 1010MOL0     H39369   4.241   9.853  11.095  0.6528 -2.3886 -1.3998
 1010MOL0     H39370   4.430   9.986  11.019  0.9546 -1.2241 -2.8242
 1010MOL0     H39371   4.452   9.807  10.984 -0.3454 -1.3233  0.4704
 1010MOL0     H39372   4.577   9.986  11.190 -0.9366 -1.1186 -0.0925
 1010MOL0     H39373   4.572   9.813  11.229 -1.0777 -2.2982 -1.7901
 1010MOL0     H39374   4.695   9.760  11.026  3.2559 -0.8421  1.2305
 1010MOL0     H39375   4.797   9.873  11.098 -0.9467 -2.3214  0.0635
 1010MOL0     H39376   4.695  10.070  10.741  0.5055 -1.2242 -0.8199
 1010MOL0     H39377   4.097   9.909  11.353  2.4023  1.0709  2.2926
 1010MOL0     H39378   3.811  10.002  11.246  0.8475 -3.3387  2.5178
 1010MOL0     H39379   3.882   9.977  11.405 -0.4828  0.0579  0.6245
 1010MOL0     H39380   3.832  10.138  11.374  1.8965  0.4002  1.8082
 1011MOL0     O39381   2.458   3.370   0.904 -0.4670  0.4192 -0.0849
 1011MOL0     C39382   2.405   3.442   0.989  0.4369 -1.3145 -0.4193
 1011MOL0     O39383   2.457   3.501   1.106  1.5602 -0.3244  1.2387
 1011MOL0     C39384   2.583   3.467   1.130  0.7671  0.1156  0.5738
 1011MOL0     C39385   2.694   3.530   1.073  0.1957 -0.7971 -0.1540
 1011MOL0     C39386   2.825   3.497   1.113 -0.8906 -0.6309 -0.6999
 1011MOL0     C39387   2.844   3.400   1.213  0.7290  0.7326  0.4750
 1011MOL0     O39388   2.959   3.366   1.271 -0.3382 -0.0532  0.1827
 1011MOL0     C39389   3.080   3.445   1.250 -0.0878  0.4725 -0.2501
 1011MOL0     C39390   3.160   3.432   1.386  0.1273  0.4119 -0.4999
 1011MOL0     C39391   3.234   3.306   1.406  0.3073  0.0989  0.4303
 1011MOL0     C39392   3.170   3.166   1.390  0.5965 -0.0473  0.3739
 1011MOL0     C39393   3.247   3.058   1.461  0.8035 -1.1322  0.1622
 1011MOL0     C39394   3.389   3.046   1.400  0.9477  1.0061 -0.1489
 1011MOL0     C39395   3.464   2.946   1.482  0.0322  0.3792 -0.2151
 1011MOL0     C39396   3.615   2.975   1.449 -0.4210  0.3978 -0.7211
 1011MOL0     N39397   3.689   3.004   1.574  0.4830 -0.5234 -0.0628
 1011MOL0     C39398   3.730   2.909   1.666  0.5787 -0.6969  0.8913
 1011MOL0     C39399   3.821   2.976   1.745  0.0892  0.1436 -1.4367
 1011MOL0     C39400   3.902   2.927   1.870  0.2575 -0.4429  0.4196
 1011MOL0     C39401   4.044   2.921   1.842 -0.2109  0.1792  0.4976
 1011MOL0     C39402   4.131   2.820   1.926  1.0029 -0.0259  0.3993
 1011MOL0     C39403   4.151   2.878   2.070 -0.2773 -0.0991  0.1301
 1011MOL0     O39404   4.198   2.755   2.142  0.1484 -0.0046 -0.5410
 1011MOL0     C39405   4.240   2.773   2.272 -0.7274 -0.3026  0.2864
 1011MOL0     C39406   4.348   2.698   2.311 -0.1322  0.2740 -0.3012
 1011MOL0     C39407   4.391   2.696   2.442 -0.1904  0.5261  0.0521
 1011MOL0     C39408   4.493   2.584   2.473 -0.2614  0.2908  0.2171
 1011MOL0     C39409   4.327   2.793   2.537 -0.5512  0.0984  0.7114
 1011MOL0     C39410   4.377   2.797   2.673 -0.2268 -0.5018  0.2034
 1011MOL0     O39411   4.309   2.885   2.751 -0.0606 -0.0342 -0.3779
 1011MOL0     C39412   4.362   2.919   2.875 -0.3444  0.2699  0.1607
 1011MOL0     C39413   4.345   2.840   2.989  0.5093  1.4159 -0.4091
 1011MOL0     C39414   4.394   2.868   3.119 -0.6124 -0.0201  0.2830
 1011MOL0     C39415   4.475   2.989   3.127 -0.6241  0.5495 -0.6465
 1011MOL0     O39416   4.529   3.024   3.253  0.7848 -0.5556 -0.1640
 1011MOL0     C39417   4.465   2.962   3.368  0.9172  0.4149  0.5532
 1011MOL0     C39418   4.525   3.030   3.498 -0.2674 -0.1868 -0.7184
 1011MOL0     C39419   4.478   2.962   3.625 -0.0420  0.2030 -0.5243
 1011MOL0     C39420   4.320   2.937   3.643  0.6942 -0.1201 -0.5855
 1011MOL0     C39421   4.247   3.077   3.647  0.4234 -0.2438  0.2752
 1011MOL0     C39422   4.098   3.042   3.635 -0.0250  0.0995 -0.3455
 1011MOL0     C39423   4.013   3.138   3.716  0.1057  0.4827 -0.3929
 1011MOL0     C39424   4.010   3.114   3.869 -0.5266  0.0562 -0.0215
 1011MOL0    Cl39425   3.942   2.949   3.903  0.2445 -0.2695 -0.0795
 1011MOL0     C39426   4.497   3.076   3.018 -0.7618  0.0155 -0.6173
 1011MOL0     C39427   4.433   3.036   2.892 -0.3562 -0.1054  1.1359
 1011MOL0     O39428   4.468   2.722   2.712  0.7821  0.4014  0.0430
 1011MOL0     C39429   4.228   2.873   2.496 -1.0669  0.2910  0.7839
 1011MOL0     C39430   4.178   2.861   2.360 -0.4665  0.3533 -0.0521
 1011MOL0     N39431   3.830   3.103   1.703 -0.4625 -1.1814 -0.4995
 1011MOL0     N39432   3.760   3.120   1.599  0.8248 -0.1102 -0.5700
 1011MOL0     C39433   2.731   3.332   1.261 -0.0828 -0.4225 -0.2934
 1011MOL0     C39434   2.604   3.361   1.216 -0.7145 -0.2946 -0.0383
 1011MOL0     C39435   2.253   3.472   0.954 -0.7262 -0.0316  0.7553
 1011MOL0     C39436   2.207   3.488   0.821 -0.6698 -1.0745 -0.3140
 1011MOL0     C39437   2.084   3.533   0.796 -0.7002 -0.3828 -0.2083
 1011MOL0     C39438   1.998   3.556   0.897  0.5600 -0.1017 -0.6047
 1011MOL0     O39439   1.878   3.625   0.862 -0.3421  0.8785  0.1687
 1011MOL0     C39440   1.773   3.537   0.809 -0.3296 -0.5976 -0.7949
 1011MOL0     C39441   1.692   3.487   0.934 -0.1803  0.6024  0.2089
 1011MOL0     C39442   1.556   3.558   0.937  0.0750  1.0917  0.2041
 1011MOL0     C39443   1.487   3.515   1.062  0.3659  0.9140 -0.3835
 1011MOL0     C39444   1.419   3.389   1.040  0.0293  0.5298 -0.0051
 1011MOL0     C39445   1.380   3.269   1.019  0.0096 -0.0028 -0.1892
 1011MOL0     C39446   2.034   3.522   1.027 -0.0270 -0.6844  1.0726
 1011MOL0     C39447   2.161   3.477   1.052  0.8900 -0.3944  0.1193
 1011MOL0     C39448   2.187   3.441   1.204  0.1212  0.0713  0.3120
 1011MOL0     H39449   2.681   3.593   0.985  1.1010 -0.2071  0.1154
 1011MOL0     H39450   2.908   3.561   1.085  1.6564 -1.1326  4.4283
 1011MOL0     H39451   3.048   3.548   1.231  2.9687  1.6200  0.1466
 1011MOL0     H39452   3.130   3.409   1.160 -0.2140 -0.9748  0.2207
 1011MOL0     H39453   3.239   3.508   1.389  0.8920 -0.3306 -1.3506
 1011MOL0     H39454   3.088   3.432   1.469 -1.1401  0.9613 -1.5701
 1011MOL0     H39455   3.323   3.310   1.342 -1.0033  2.1266 -1.4045
 1011MOL0     H39456   3.254   3.308   1.513 -2.1231  2.3690  0.9434
 1011MOL0     H39457   3.073   3.164   1.440  1.4207 -1.1389  2.0167
 1011MOL0     H39458   3.163   3.150   1.282  1.6012  3.4864 -0.3597
 1011MOL0     H39459   3.200   2.959   1.458 -1.2911 -0.2406  1.3818
 1011MOL0     H39460   3.258   3.097   1.562 -0.1491  0.2540 -0.2454
 1011MOL0     H39461   3.385   3.014   1.295  1.8728 -2.0930  0.6381
 1011MOL0     H39462   3.444   3.139   1.416  1.9637  0.1218  1.8615
 1011MOL0     H39463   3.436   2.844   1.456  1.7549 -0.6152  1.5328
 1011MOL0     H39464   3.432   2.957   1.586  0.7532 -4.2473  0.7050
 1011MOL0     H39465   3.654   2.886   1.398 -0.0082 -0.5093  1.0980
 1011MOL0     H39466   3.641   3.055   1.379 -0.6824  1.0799 -0.0458
 1011MOL0     H39467   3.683   2.813   1.683 -0.7797 -0.3545 -0.6184
 1011MOL0     H39468   3.884   2.824   1.901  5.8333 -2.3870 -1.5687
 1011MOL0     H39469   3.894   2.998   1.954  2.2704  2.6352 -1.7758
 1011MOL0     H39470   4.056   2.873   1.745 -2.4778  0.2606  0.1166
 1011MOL0     H39471   4.100   3.015   1.850  0.7125 -0.3397  0.2221
 1011MOL0     H39472   4.065   2.735   1.944 -1.0937  1.2545 -0.8213
 1011MOL0     H39473   4.217   2.791   1.864 -0.8201 -1.9701 -1.4086
 1011MOL0     H39474   4.226   2.956   2.084  1.3324 -1.6434  0.4411
 1011MOL0     H39475   4.054   2.918   2.102 -0.7055  0.0373 -1.2784
 1011MOL0     H39476   4.388   2.634   2.233 -1.4293 -2.3215  1.0687
 1011MOL0     H39477   4.588   2.619   2.515  0.7283 -1.7480 -0.2178
 1011MOL0     H39478   4.517   2.528   2.382 -3.5753 -1.0160  0.0314
 1011MOL0     H39479   4.451   2.499   2.528 -0.2845 -1.1583 -1.9184
 1011MOL0     H39480   4.283   2.752   2.990  2.3901 -0.0179  2.6931
 1011MOL0     H39481   4.380   2.805   3.206  1.1538 -1.2296 -0.2510
 1011MOL0     H39482   4.356   2.965   3.370  0.8846 -0.5790  0.3419
 1011MOL0     H39483   4.495   2.857   3.368  1.5973  0.5897  1.6209
 1011MOL0     H39484   4.634   3.032   3.503 -0.2554  1.4047  4.4691
 1011MOL0     H39485   4.504   3.137   3.504 -3.0611 -0.6967  0.5425
 1011MOL0     H39486   4.512   3.010   3.718 -3.3754  1.6570  0.0884
 1011MOL0     H39487   4.528   2.865   3.628  3.3084  1.7599 -0.9444
 1011MOL0     H39488   4.302   2.887   3.739  0.8156  1.2155  0.1691
 1011MOL0     H39489   4.279   2.878   3.561  0.1429 -1.1196  0.3819
 1011MOL0     H39490   4.271   3.117   3.747  0.0093 -1.0019  0.6848
 1011MOL0     H39491   4.294   3.134   3.567  0.4331  0.5463  0.8324
 1011MOL0     H39492   4.077   2.945   3.680 -3.3992  1.6681  1.8606
 1011MOL0     H39493   4.075   3.055   3.529  0.1808  0.0563 -0.3956
 1011MOL0     H39494   3.907   3.149   3.691 -0.5341 -2.1591  0.8887
 1011MOL0     H39495   4.060   3.236   3.698  3.1561 -0.5617  1.2454
 1011MOL0     H39496   3.957   3.198   3.915 -0.2302 -0.4196  1.2376
 1011MOL0     H39497   4.112   3.118   3.910 -1.0344 -0.0649  1.3186
 1011MOL0     H39498   4.568   3.156   3.035  1.3461 -1.6708 -1.0692
 1011MOL0     H39499   4.442   3.103   2.808 -0.8999 -3.2016 -1.6069
 1011MOL0     H39500   4.183   2.943   2.567 -3.7254 -0.3223 -0.1649
 1011MOL0     H39501   4.098   2.928   2.332 -1.0516 -1.1990 -2.4529
 1011MOL0     H39502   2.752   3.256   1.335 -0.3693  1.1244  1.4485
 1011MOL0     H39503   2.520   3.310   1.262 -1.0614  0.6931  0.4338
 1011MOL0     H39504   2.267   3.453   0.738  0.6757 -0.6362  0.4365
 1011MOL0     H39505   2.044   3.550   0.697 -1.3355 -1.6263 -0.1777
 1011MOL0     H39506   1.715   3.612   0.753  2.9317  2.2158 -0.7624
 1011MOL0     H39507   1.804   3.464   0.734 -0.2864  0.0259 -1.4018
 1011MOL0     H39508   1.739   3.519   1.027 -0.0787 -0.5477  0.5665
 1011MOL0     H39509   1.667   3.380   0.934 -3.0086  1.1664  1.5147
 1011MOL0     H39510   1.560   3.666   0.951  1.6883  1.0143  0.5164
 1011MOL0     H39511   1.499   3.528   0.848 -1.4030 -2.0225  2.0185
 1011MOL0     H39512   1.418   3.585   1.108 -3.1268 -1.2483 -1.9268
 1011MOL0     H39513   1.562   3.508   1.142 -2.8111  0.4833  2.8625
 1011MOL0     H39514   1.343   3.171   0.995  0.6781 -0.3120  0.0249
 1011MOL0     H39515   1.965   3.553   1.105 -0.2462  1.1502  0.2139
 1011MOL0     H39516   2.220   3.531   1.258  1.1828 -0.2426  0.2169
 1011MOL0     H39517   2.102   3.396   1.256  1.2710 -0.7554  1.5325
 1011MOL0     H39518   2.279   3.383   1.213  0.7344  0.1782 -3.4058
 1012MOL0     O39519   2.148   4.687   8.524  0.0103  0.4980  0.3183
 1012MOL0     C39520   2.172   4.775   8.452 -0.3293 -0.0294  0.1141
 1012MOL0     O39521   2.237   4.892   8.492 -0.7763 -0.8406  0.6688
 1012MOL0     C39522   2.275   4.911   8.618 -0.4685  0.7923 -0.6304
 1012MOL0     C39523   2.198   4.994   8.706  0.5966 -0.3183  0.8343
 1012MOL0     C39524   2.232   5.002   8.840  0.0403 -0.7517 -1.1258
 1012MOL0     C39525   2.360   4.946   8.887 -0.6823 -0.2688 -0.3532
 1012MOL0     O39526   2.406   4.986   9.018  0.1747 -0.0615  0.5229
 1012MOL0     C39527   2.515   4.909   9.061  1.0538  0.0753  0.0279
 1012MOL0     C39528   2.542   4.934   9.215  0.9286 -0.4065 -0.7180
 1012MOL0     C39529   2.423   4.940   9.315 -0.5499  0.4331 -0.0014
 1012MOL0     C39530   2.350   4.812   9.347  0.1627 -0.1530 -1.6096
 1012MOL0     C39531   2.239   4.826   9.456  0.0467  0.4091 -0.2063
 1012MOL0     C39532   2.186   4.682   9.486 -0.8370 -0.8140  0.5221
 1012MOL0     C39533   2.066   4.661   9.578  0.9272  0.2327 -0.1945
 1012MOL0     C39534   2.102   4.683   9.726  0.6760  0.1521 -0.0505
 1012MOL0     N39535   2.158   4.565   9.785  0.4703  1.2732  0.1875
 1012MOL0     C39536   2.121   4.432   9.773  0.1484  0.3551  0.4867
 1012MOL0     C39537   2.206   4.359   9.853 -0.2792  0.0725 -0.2990
 1012MOL0     C39538   2.222   4.212   9.866 -0.1310  0.7542 -0.2008
 1012MOL0     C39539   2.114   4.129   9.801  0.2487  0.2667  0.4032
 1012MOL0     C39540   2.127   3.977   9.830 -0.1351  0.2209  0.5304
 1012MOL0     C39541   2.032   3.895   9.751  0.8169 -0.1761 -0.2683
 1012MOL0     O39542   2.062   3.755   9.768 -0.9148 -0.2096 -0.3461
 1012MOL0     C39543   2.007   3.688   9.883 -0.5195  0.1524  0.5855
 1012MOL0     C39544   1.880   3.653   9.881 -0.4807 -0.0619  0.1260
 1012MOL0     C39545   1.810   3.615  10.002 -0.6230  0.5587  0.7327
 1012MOL0     C39546   1.661   3.569   9.991  0.9270  0.1529 -0.8335
 1012MOL0     C39547   1.888   3.580  10.115 -1.1048  0.4503  0.8467
 1012MOL0     C39548   1.830   3.524  10.249 -0.1162 -0.3631  0.0608
 1012MOL0     O39549   1.912   3.448  10.325  1.2285  0.8297 -0.3000
 1012MOL0     C39550   1.862   3.417  10.454 -0.1178 -0.0705  0.5984
 1012MOL0     C39551   1.760   3.321  10.469  0.1123 -0.2234 -0.0906
 1012MOL0     C39552   1.716   3.279  10.592 -0.0931  0.2920 -0.5652
 1012MOL0     C39553   1.768   3.321  10.710  0.0477  1.2456  0.4852
 1012MOL0     O39554   1.708   3.285  10.833 -0.2518 -0.0807 -0.2535
 1012MOL0     C39555   1.758   3.343  10.956  1.3966 -0.2443  0.7468
 1012MOL0     C39556   1.717   3.260  11.086 -0.7532 -1.0228  0.6275
 1012MOL0     C39557   1.821   3.135  11.065  0.2760 -1.2061  1.1577
 1012MOL0     C39558   1.816   3.044  11.189  0.0233  1.1184  0.3297
 1012MOL0     C39559   1.938   2.951  11.175 -0.0282 -0.1752 -0.3173
 1012MOL0     C39560   1.946   2.858  11.297 -0.3613 -0.5120 -0.2841
 1012MOL0     C39561   2.072   2.765  11.293 -0.7123  0.8111  0.2249
 1012MOL0     C39562   2.113   2.693  11.423  0.4286  0.3091 -0.3473
 1012MOL0    Cl39563   2.230   2.565  11.377  0.3005  0.0061 -0.0832
 1012MOL0     C39564   1.862   3.426  10.696 -0.3760  1.0621 -0.5989
 1012MOL0     C39565   1.911   3.476  10.573 -0.1258 -0.3901  0.8715
 1012MOL0     O39566   1.719   3.564  10.288 -0.1262  0.0430 -0.7317
 1012MOL0     C39567   2.027   3.599  10.104 -0.2144  0.5874 -0.6180
 1012MOL0     C39568   2.088   3.644   9.990  0.3818 -0.7212  0.2362
 1012MOL0     N39569   2.285   4.455   9.921  1.1958 -0.0590 -0.4335
 1012MOL0     N39570   2.261   4.576   9.879 -0.0563  0.1074  0.3653
 1012MOL0     C39571   2.439   4.870   8.797 -0.2756 -0.5234  0.0930
 1012MOL0     C39572   2.387   4.846   8.666  0.1784 -0.3837 -0.6822
 1012MOL0     C39573   2.118   4.765   8.319  0.0008 -1.1839  0.5127
 1012MOL0     C39574   2.192   4.811   8.212  0.1538 -1.0106 -0.3952
 1012MOL0     C39575   2.166   4.804   8.074 -0.1414 -0.8441  0.5357
 1012MOL0     C39576   2.056   4.728   8.036  0.1160 -0.0424 -0.5778
 1012MOL0     O39577   2.021   4.699   7.911 -0.1386 -0.2466  0.2095
 1012MOL0     C39578   2.069   4.775   7.797 -0.2934 -0.9057 -0.3070
 1012MOL0     C39579   1.968   4.887   7.758 -0.3611 -0.9000 -1.0030
 1012MOL0     C39580   1.822   4.843   7.754 -0.5435  0.0733 -0.1047
 1012MOL0     C39581   1.732   4.951   7.685 -0.3661  0.5695  0.0580
 1012MOL0     C39582   1.678   4.889   7.563 -0.0347  0.8609 -0.4289
 1012MOL0     C39583   1.636   4.823   7.469  0.0940 -0.3848  0.5433
 1012MOL0     C39584   1.986   4.675   8.144  0.0994 -0.5878  0.2564
 1012MOL0     C39585   2.002   4.695   8.284 -0.5923 -0.0222  0.9143
 1012MOL0     C39586   1.904   4.640   8.387  1.0563 -0.0784  1.1202
 1012MOL0     H39587   2.111   5.050   8.674  0.4841  0.2278  2.0339
 1012MOL0     H39588   2.167   5.047   8.914  2.2027  1.7532 -0.6118
 1012MOL0     H39589   2.604   4.920   8.998  0.6715  0.0796 -0.5143
 1012MOL0     H39590   2.494   4.802   9.055 -1.4047  0.5625 -1.3518
 1012MOL0     H39591   2.607   4.853   9.250  2.8628  0.3985 -2.2037
 1012MOL0     H39592   2.604   5.024   9.228 -0.6657  0.4842  1.3081
 1012MOL0     H39593   2.463   4.991   9.404 -1.6841 -1.6627  1.8216
 1012MOL0     H39594   2.357   5.016   9.272  0.0971  0.2583 -1.3251
 1012MOL0     H39595   2.317   4.770   9.251  1.3290 -0.1153 -2.0359
 1012MOL0     H39596   2.424   4.739   9.381  1.0374  1.2307 -0.4337
 1012MOL0     H39597   2.165   4.892   9.410 -2.0890 -1.7628 -0.0868
 1012MOL0     H39598   2.266   4.867   9.554 -1.6513 -0.2848  0.5870
 1012MOL0     H39599   2.150   4.647   9.389  1.3801  0.5886 -0.8913
 1012MOL0     H39600   2.266   4.615   9.519  0.6908  0.9695  0.6026
 1012MOL0     H39601   2.027   4.560   9.569 -2.6826  1.2307  2.1386
 1012MOL0     H39602   1.986   4.735   9.563  0.7035 -0.1722 -1.0128
 1012MOL0     H39603   2.167   4.771   9.730 -2.8330  2.9219  2.1257
 1012MOL0     H39604   2.014   4.707   9.786 -0.5010  0.6841 -1.8983
 1012MOL0     H39605   2.043   4.394   9.708  0.3200 -1.3876  1.2580
 1012MOL0     H39606   2.235   4.185   9.971  1.2546  0.6469 -0.3850
 1012MOL0     H39607   2.320   4.186   9.825 -0.9861  0.5947 -2.2972
 1012MOL0     H39608   2.011   4.155   9.826 -0.1750 -0.4973 -0.5280
 1012MOL0     H39609   2.131   4.148   9.695 -1.4234  4.3525  0.6646
 1012MOL0     H39610   2.226   3.934   9.808 -0.8542 -1.2830  0.1210
 1012MOL0     H39611   2.112   3.965   9.938 -0.0417 -1.0151  0.4187
 1012MOL0     H39612   1.931   3.929   9.778  0.3316 -0.2853 -1.8058
 1012MOL0     H39613   2.032   3.924   9.645 -2.1696 -0.9563 -0.5721
 1012MOL0     H39614   1.808   3.673   9.802 -0.7156 -0.1840  0.3051
 1012MOL0     H39615   1.652   3.476  10.047  2.9815 -0.2223 -1.0512
 1012MOL0     H39616   1.632   3.550   9.887 -0.0283 -0.1543 -0.5261
 1012MOL0     H39617   1.596   3.645  10.036  0.2787  0.9283 -2.9118
 1012MOL0     H39618   1.709   3.269  10.388 -0.6453 -1.3492  1.0804
 1012MOL0     H39619   1.627   3.221  10.612 -0.8618  2.1949  2.1960
 1012MOL0     H39620   1.866   3.357  10.954  1.0223  3.7416 -0.4487
 1012MOL0     H39621   1.718   3.445  10.957  1.7239 -0.1053  1.9500
 1012MOL0     H39622   1.752   3.314  11.175  0.8386 -0.8578 -0.0547
 1012MOL0     H39623   1.610   3.238  11.090 -0.8218 -2.0280 -3.2742
 1012MOL0     H39624   1.918   3.177  11.040 -0.6954  0.3880 -0.1655
 1012MOL0     H39625   1.792   3.084  10.973 -0.3380  1.2635 -0.1317
 1012MOL0     H39626   1.727   2.981  11.183  0.1621  0.7764  1.5663
 1012MOL0     H39627   1.824   3.091  11.287  3.5480  1.5559 -0.0514
 1012MOL0     H39628   1.933   2.900  11.078 -1.6556  0.3352 -0.5247
 1012MOL0     H39629   2.032   3.008  11.177 -0.0406 -0.1717  0.1633
 1012MOL0     H39630   1.862   2.788  11.300  0.4721 -1.5118  0.5936
 1012MOL0     H39631   1.957   2.919  11.387  0.4983  0.2668 -0.9085
 1012MOL0     H39632   2.162   2.814  11.252  1.8164 -4.2596 -1.1013
 1012MOL0     H39633   2.050   2.683  11.224 -1.2388 -1.0662  2.4976
 1012MOL0     H39634   2.031   2.640  11.473  0.5324  0.6579  0.1982
 1012MOL0     H39635   2.159   2.761  11.495  1.5339 -1.6657  0.8959
 1012MOL0     H39636   1.899   3.479  10.783 -3.0490 -0.6540  1.7453
 1012MOL0     H39637   1.982   3.558  10.568 -1.7205  0.9699 -0.7145
 1012MOL0     H39638   2.087   3.579  10.192  1.6510  0.7613 -1.7870
 1012MOL0     H39639   2.195   3.655   9.980  0.3800  0.0730  1.0099
 1012MOL0     H39640   2.537   4.826   8.811 -0.4241 -1.3800 -1.3051
 1012MOL0     H39641   2.445   4.779   8.602 -0.1072  0.1455 -1.5117
 1012MOL0     H39642   2.290   4.851   8.235  0.2157 -1.3057 -0.1475
 1012MOL0     H39643   2.232   4.847   7.998 -2.4300 -0.2413 -1.2107
 1012MOL0     H39644   2.169   4.816   7.812 -0.6509 -0.5614  1.3470
 1012MOL0     H39645   2.087   4.710   7.711  2.2533  2.1616 -2.3271
 1012MOL0     H39646   1.985   4.928   7.658 -2.0306  3.4173  0.2559
 1012MOL0     H39647   1.988   4.978   7.815 -0.4966 -1.2327 -0.4154
 1012MOL0     H39648   1.805   4.749   7.701  0.1973 -0.7514  1.0652
 1012MOL0     H39649   1.790   4.832   7.858 -3.1321 -1.9884 -1.0167
 1012MOL0     H39650   1.789   5.043   7.669 -0.1344  1.3752  4.3514
 1012MOL0     H39651   1.651   4.973   7.756 -2.0475 -0.2022 -1.5219
 1012MOL0     H39652   1.590   4.773   7.386  2.7604  0.1068 -1.3287
 1012MOL0     H39653   1.900   4.615   8.114  0.7268 -2.3435  1.7461
 1012MOL0     H39654   1.885   4.711   8.467  2.7457  2.9879 -1.0183
 1012MOL0     H39655   1.807   4.620   8.341 -0.7381  2.3014  3.5936
 1012MOL0     H39656   1.952   4.552   8.432  2.1290 -0.0746  0.0337
 1013MOL0     O39657   6.036   7.271   0.239  0.5576  0.1772 -0.5184
 1013MOL0     C39658   6.137   7.253   0.308 -0.7219 -0.5416 -0.3200
 1013MOL0     O39659   6.183   7.126   0.351  0.2123  0.2375  0.4736
 1013MOL0     C39660   6.118   7.023   0.286 -0.6338 -0.2159 -0.7975
 1013MOL0     C39661   6.119   7.009   0.154  0.0236  0.5978  0.0895
 1013MOL0     C39662   6.045   6.905   0.094  0.8746 -0.3568  0.5838
 1013MOL0     C39663   5.987   6.802   0.169  0.5762 -0.0340  0.0663
 1013MOL0     O39664   5.921   6.699   0.108  0.0347 -0.7630  0.5111
 1013MOL0     C39665   5.825   6.627   0.177  0.2695 -0.2997 -0.2650
 1013MOL0     C39666   5.701   6.704   0.222 -0.3054 -0.2061  0.1180
 1013MOL0     C39667   5.660   6.822   0.126 -0.2424 -0.6428 -0.3550
 1013MOL0     C39668   5.615   6.776  -0.015 -1.2517 -0.2562  0.6874
 1013MOL0     C39669   5.506   6.669  -0.009  0.8921 -0.0140  0.2096
 1013MOL0     C39670   5.468   6.636  -0.153 -0.1348 -0.9808 -0.2327
 1013MOL0     C39671   5.365   6.515  -0.151 -0.1461 -0.7952  0.1631
 1013MOL0     C39672   5.208   6.539  -0.138 -0.6180 -0.1757  0.0908
 1013MOL0     N39673   5.126   6.417  -0.130 -0.4450  0.9236 -0.1317
 1013MOL0     C39674   5.074   6.349  -0.234 -0.6486  1.2357  0.1584
 1013MOL0     C39675   5.022   6.240  -0.173  1.4332  0.3658  0.0630
 1013MOL0     C39676   4.964   6.116  -0.243  0.3823  0.1496  0.3047
 1013MOL0     C39677   4.935   5.992  -0.153 -0.5307 -1.0919  0.9068
 1013MOL0     C39678   5.022   5.858  -0.186  0.1930 -0.1113  0.2906
 1013MOL0     C39679   5.170   5.903  -0.179  0.3134  0.3083  0.4966
 1013MOL0     O39680   5.197   6.003  -0.081 -0.8222  0.2699 -0.2297
 1013MOL0     C39681   5.326   6.056  -0.073 -0.4651  0.8115 -0.0775
 1013MOL0     C39682   5.360   6.144   0.034 -1.0724  0.1983  0.3749
 1013MOL0     C39683   5.495   6.199   0.036  0.5018 -0.4810 -0.6627
 1013MOL0     C39684   5.508   6.294   0.158  0.1406 -0.2716 -1.2468
 1013MOL0     C39685   5.586   6.184  -0.068  0.7025 -0.4089 -0.2607
 1013MOL0     C39686   5.722   6.253  -0.080  0.3130 -0.4848  0.6101
 1013MOL0     O39687   5.818   6.191  -0.154  0.0239 -0.0950  0.4505
 1013MOL0     C39688   5.957   6.199  -0.130  0.0025  0.9540  0.1733
 1013MOL0     C39689   6.045   6.189  -0.239  0.3831 -0.0692  1.5004
 1013MOL0     C39690   6.180   6.174  -0.217 -0.7343  0.1079  0.3466
 1013MOL0     C39691   6.236   6.181  -0.089 -0.4589 -0.5671 -0.3728
 1013MOL0     O39692   6.377   6.185  -0.065 -0.5498 -0.1777  0.5017
 1013MOL0     C39693   6.412   6.081   0.029 -0.7079 -0.8552  0.3340
 1013MOL0     C39694   6.528   6.126   0.111  0.0995 -0.6838 -0.0411
 1013MOL0     C39695   6.547   6.282   0.147 -0.1505  0.1130  0.1939
 1013MOL0     C39696   6.704   6.306   0.151  0.2090 -0.1622 -0.2772
 1013MOL0     C39697   6.747   6.453   0.195 -0.8021  0.0487 -1.4733
 1013MOL0     C39698   6.899   6.477   0.160 -0.0248  0.8342 -0.0904
 1013MOL0     C39699   6.960   6.562   0.273 -0.0069  0.0573  0.8426
 1013MOL0     C39700   6.982   6.498   0.414  0.0167  0.3170  0.8008
 1013MOL0    Cl39701   7.095   6.361   0.361 -0.2294  0.2672  0.1214
 1013MOL0     C39702   6.152   6.211   0.018  0.4664 -0.2589  0.4079
 1013MOL0     C39703   6.011   6.213  -0.004  0.5172 -0.2092 -0.7224
 1013MOL0     O39704   5.740   6.360  -0.012 -0.0113  0.1719  0.2753
 1013MOL0     C39705   5.558   6.085  -0.167  0.5722 -0.3301 -0.5255
 1013MOL0     C39706   5.434   6.024  -0.167  0.6395 -0.0780 -0.0923
 1013MOL0     N39707   5.018   6.257  -0.034 -0.6345 -0.1560  0.5678
 1013MOL0     N39708   5.087   6.366  -0.012  0.9619  0.5176 -0.5525
 1013MOL0     C39709   6.001   6.818   0.304 -0.1698 -0.0485  0.5395
 1013MOL0     C39710   6.062   6.922   0.366  0.8621 -0.4278 -0.3706
 1013MOL0     C39711   6.219   7.372   0.357  0.3608 -0.3051  0.2256
 1013MOL0     C39712   6.157   7.473   0.433 -0.4030  0.5510 -0.2365
 1013MOL0     C39713   6.223   7.581   0.486  0.4774  0.7034 -0.1746
 1013MOL0     C39714   6.355   7.605   0.462 -0.5378 -1.1575 -0.3865
 1013MOL0     O39715   6.423   7.706   0.529  0.1754  0.4918  0.4890
 1013MOL0     C39716   6.351   7.817   0.599 -0.0400  0.5453 -0.6673
 1013MOL0     C39717   6.310   7.781   0.747 -0.0578 -0.6420  0.4514
 1013MOL0     C39718   6.264   7.915   0.821 -0.4383 -0.3961  0.9186
 1013MOL0     C39719   6.154   7.890   0.913  0.2557 -0.1718  0.2060
 1013MOL0     C39720   6.185   7.780   1.001  0.7052  0.4128 -1.0260
 1013MOL0     C39721   6.207   7.712   1.097  0.7497 -0.9633 -0.3094
 1013MOL0     C39722   6.426   7.496   0.403  0.7121 -0.1781 -1.2037
 1013MOL0     C39723   6.357   7.382   0.358  0.0673  0.0673  0.6347
 1013MOL0     C39724   6.435   7.274   0.292  1.0970 -0.2660  0.5383
 1013MOL0     H39725   6.163   7.081   0.085 -3.5739  3.6371  0.6195
 1013MOL0     H39726   6.034   6.902  -0.014 -1.0298  2.8132  0.5614
 1013MOL0     H39727   5.866   6.582   0.268  0.9564  1.4657  0.3547
 1013MOL0     H39728   5.799   6.548   0.106 -0.8347 -0.1382 -0.0672
 1013MOL0     H39729   5.630   6.624   0.243  0.9834 -0.8940  2.1331
 1013MOL0     H39730   5.724   6.756   0.316 -2.4276  1.2190 -0.0834
 1013MOL0     H39731   5.588   6.888   0.175  0.7564 -0.1841  0.5140
 1013MOL0     H39732   5.744   6.889   0.104 -1.0619 -0.0483 -1.9028
 1013MOL0     H39733   5.566   6.859  -0.067 -3.5922 -2.0276 -0.0951
 1013MOL0     H39734   5.699   6.743  -0.076 -1.5568  0.2629 -0.0264
 1013MOL0     H39735   5.424   6.698   0.057  1.7454  0.0950  1.2549
 1013MOL0     H39736   5.550   6.582   0.041  2.2913  0.8086  0.4821
 1013MOL0     H39737   5.420   6.723  -0.200  2.4546  1.0358  0.6202
 1013MOL0     H39738   5.543   6.605  -0.227  0.4282 -0.3784  0.0810
 1013MOL0     H39739   5.387   6.450  -0.066  0.6868  0.2448  0.7642
 1013MOL0     H39740   5.382   6.463  -0.246  5.7116 -1.2814  1.1044
 1013MOL0     H39741   5.182   6.603  -0.053  2.2336  0.3476  0.6852
 1013MOL0     H39742   5.166   6.584  -0.228 -0.4670 -4.4236 -2.3874
 1013MOL0     H39743   5.077   6.368  -0.340  2.6526 -0.8002 -0.2413
 1013MOL0     H39744   5.037   6.090  -0.320 -0.8824 -0.8574 -0.5916
 1013MOL0     H39745   4.866   6.150  -0.280  0.6211  0.7655  0.2184
 1013MOL0     H39746   4.942   6.016  -0.047  1.3862  1.6377  0.2680
 1013MOL0     H39747   4.830   5.978  -0.180 -0.3659 -0.6213 -0.0468
 1013MOL0     H39748   5.008   5.773  -0.118  3.0318 -1.2149 -0.3745
 1013MOL0     H39749   4.998   5.824  -0.287 -4.2960  3.4318 -0.2192
 1013MOL0     H39750   5.229   5.813  -0.164 -1.1071 -1.5181 -3.5068
 1013MOL0     H39751   5.197   5.947  -0.276 -2.2289  0.5751 -0.1645
 1013MOL0     H39752   5.281   6.183   0.097  0.0723  3.1205  0.1793
 1013MOL0     H39753   5.559   6.235   0.236 -2.9885 -4.6342 -2.0940
 1013MOL0     H39754   5.408   6.315   0.198  0.1845 -1.9303 -0.1323
 1013MOL0     H39755   5.566   6.383   0.133 -1.1852  0.0751 -3.3697
 1013MOL0     H39756   6.026   6.184  -0.346 -2.8994  0.3232  1.9526
 1013MOL0     H39757   6.250   6.169  -0.299  0.7192  0.4963  1.5075
 1013MOL0     H39758   6.345   6.062   0.114  1.6870  4.7337  4.1081
 1013MOL0     H39759   6.449   5.989  -0.015  1.7352  0.0892  0.2742
 1013MOL0     H39760   6.532   6.071   0.206  0.0852 -0.1183  0.2927
 1013MOL0     H39761   6.612   6.088   0.053 -1.0948 -2.5024 -0.6574
 1013MOL0     H39762   6.496   6.294   0.243  0.9603  1.8616  0.6120
 1013MOL0     H39763   6.503   6.342   0.066  2.2562 -1.3706 -2.4123
 1013MOL0     H39764   6.748   6.285   0.053 -0.4914 -3.8835  0.0301
 1013MOL0     H39765   6.747   6.232   0.218  1.8637  0.9651 -0.0473
 1013MOL0     H39766   6.686   6.525   0.140 -1.7567 -0.4033 -1.0340
 1013MOL0     H39767   6.724   6.481   0.298  1.9413  1.7220 -1.2252
 1013MOL0     H39768   6.902   6.539   0.070  1.6115  4.2559  2.0982
 1013MOL0     H39769   6.955   6.385   0.141  3.8452  2.3474  2.6586
 1013MOL0     H39770   6.896   6.651   0.281  1.5144  1.5450 -1.9256
 1013MOL0     H39771   7.059   6.596   0.241 -0.7712  1.3857 -0.2084
 1013MOL0     H39772   6.883   6.469   0.451 -1.1327  1.5546 -1.1041
 1013MOL0     H39773   7.036   6.562   0.485  1.6716  0.3925 -0.4869
 1013MOL0     H39774   6.188   6.228   0.119  3.1400 -4.1122  0.3429
 1013MOL0     H39775   5.940   6.217   0.077 -1.0603  1.3264 -2.1097
 1013MOL0     H39776   5.631   6.069  -0.245  3.0325 -0.8600  1.7682
 1013MOL0     H39777   5.414   5.951  -0.245  3.7353 -2.2779  0.9879
 1013MOL0     H39778   5.975   6.737   0.371 -0.0626 -1.3090 -0.8909
 1013MOL0     H39779   6.058   6.925   0.474 -1.1244  1.9141 -0.4322
 1013MOL0     H39780   6.051   7.470   0.460 -0.2273 -0.3609  0.3963
 1013MOL0     H39781   6.155   7.639   0.547 -1.6765 -0.4027 -1.4215
 1013MOL0     H39782   6.426   7.895   0.614  1.9252 -1.3932  0.2449
 1013MOL0     H39783   6.265   7.860   0.548  1.7956  1.6174 -3.0132
 1013MOL0     H39784   6.395   7.739   0.802 -2.0272  0.9534  5.2567
 1013MOL0     H39785   6.223   7.716   0.743 -1.6149  1.2717  1.4288
 1013MOL0     H39786   6.353   7.945   0.877  1.5339 -3.9057 -0.0705
 1013MOL0     H39787   6.220   7.986   0.751 -1.7993 -3.1195 -1.1756
 1013MOL0     H39788   6.060   7.867   0.862  1.5857  2.2720 -3.7226
 1013MOL0     H39789   6.128   7.976   0.976  1.9459  0.3913  0.1814
 1013MOL0     H39790   6.246   7.644   1.170  0.5964 -1.5996 -0.8176
 1013MOL0     H39791   6.534   7.490   0.406  0.7040 -0.2543 -1.0401
 1013MOL0     H39792   6.385   7.250   0.198  2.0032 -0.4246  0.0923
 1013MOL0     H39793   6.533   7.316   0.268  0.9118  2.0714  3.2140
 1013MOL0     H39794   6.430   7.195   0.368 -0.8370  1.4758  2.3774
 1014MOL0     O39795   3.125  11.142   2.376  0.7699 -0.2768  0.3842
 1014MOL0     C39796   3.218  11.064   2.397 -1.2746  0.3352 -0.3736
 1014MOL0     O39797   3.229  10.945   2.340 -0.3286  0.2424 -0.5151
 1014MOL0     C39798   3.168  10.907   2.225  0.3609 -0.1042 -0.3672
 1014MOL0     C39799   3.109  10.779   2.216 -0.8375  0.2395  0.0506
 1014MOL0     C39800   3.028  10.733   2.110 -0.4210  0.2007 -0.5320
 1014MOL0     C39801   3.023  10.807   1.994 -0.7191 -0.4793  0.8513
 1014MOL0     O39802   2.971  10.767   1.876 -0.1714  0.5666  0.5490
 1014MOL0     C39803   2.831  10.761   1.878  0.8297  0.0303  0.5358
 1014MOL0     C39804   2.814  10.710   1.735 -0.1141  0.3158  0.8320
 1014MOL0     C39805   2.664  10.702   1.699 -0.7092 -0.0858  0.0603
 1014MOL0     C39806   2.653  10.702   1.549  1.0649  1.1013 -0.0868
 1014MOL0     C39807   2.509  10.715   1.499  0.2781  0.3406 -0.4570
 1014MOL0     C39808   2.413  10.604   1.528 -0.5816 -0.6373  0.1285
 1014MOL0     C39809   2.277  10.617   1.455 -0.6780  0.4250 -0.5481
 1014MOL0     C39810   2.273  10.542   1.317 -0.1804  0.4099  0.2126
 1014MOL0     N39811   2.202  10.413   1.307  0.4461 -0.5176 -1.0234
 1014MOL0     C39812   2.065  10.400   1.317 -0.4367  0.3990 -0.4015
 1014MOL0     C39813   2.042  10.268   1.331  0.1227  1.1059  0.3967
 1014MOL0     C39814   1.906  10.202   1.352 -0.2919 -0.2264 -0.1628
 1014MOL0     C39815   1.890  10.182   1.506 -0.0151  0.6082 -0.9117
 1014MOL0     C39816   1.766  10.107   1.561 -0.0696 -0.1569 -0.1537
 1014MOL0     C39817   1.634  10.192   1.527  0.9614  0.3066  0.5427
 1014MOL0     O39818   1.655  10.336   1.537 -0.0839 -0.4837 -0.7388
 1014MOL0     C39819   1.543  10.414   1.554  0.5549  1.1180  0.7525
 1014MOL0     C39820   1.534  10.541   1.499 -0.1843 -0.3504  0.6429
 1014MOL0     C39821   1.423  10.627   1.518 -0.4358 -0.2185 -0.0700
 1014MOL0     C39822   1.449  10.766   1.458 -0.0288 -0.3407  0.6948
 1014MOL0     C39823   1.303  10.583   1.587 -1.2831 -0.1575  0.7941
 1014MOL0     C39824   1.182  10.665   1.610 -0.0841  0.5360  0.2929
 1014MOL0     O39825   1.198  10.799   1.607  0.4539  0.6082  0.2352
 1014MOL0     C39826   1.121  10.883   1.686 -0.2453  0.3658  0.7323
 1014MOL0     C39827   1.187  10.958   1.782 -0.6193  0.3342  0.3155
 1014MOL0     C39828   1.114  11.058   1.857  0.4274 -0.2451 -0.3257
 1014MOL0     C39829   0.986  11.078   1.831 -0.4766 -0.0941 -0.6179
 1014MOL0     O39830   0.923  11.181   1.906  0.6414 -0.7250 -0.1937
 1014MOL0     C39831   0.838  11.269   1.826 -0.1356 -0.6805 -0.1487
 1014MOL0     C39832   0.748  11.356   1.913 -0.7709 -0.5662  0.3721
 1014MOL0     C39833   0.657  11.269   2.008 -0.2657  0.6729  0.6627
 1014MOL0     C39834   0.572  11.167   1.934  0.0711  0.0719  0.3109
 1014MOL0     C39835   0.573  11.041   2.016  0.3561  0.8039  0.2008
 1014MOL0     C39836   0.510  10.925   1.936  0.2709  0.6082  0.1784
 1014MOL0     C39837   0.380  10.872   1.991 -0.4647  0.0482 -0.2946
 1014MOL0     C39838   0.341  10.725   1.956 -0.0858  0.4966  0.5440
 1014MOL0    Cl39839   0.330  10.709   1.772 -0.4549  0.3045 -0.0561
 1014MOL0     C39840   0.919  11.000   1.746 -0.6506  0.8298  0.0354
 1014MOL0     C39841   0.989  10.909   1.667  0.1776 -0.2343 -0.2484
 1014MOL0     O39842   1.079  10.606   1.636 -0.4550  0.4349  0.8505
 1014MOL0     C39843   1.314  10.456   1.638  0.2113 -0.5911 -0.3738
 1014MOL0     C39844   1.428  10.372   1.624  0.0713  0.1638 -0.5771
 1014MOL0     N39845   2.167  10.204   1.338  0.2882 -0.2974 -0.1405
 1014MOL0     N39846   2.260  10.293   1.335 -0.3132  0.1396 -0.0748
 1014MOL0     C39847   3.061  10.939   2.010 -0.6005  0.8614  0.8498
 1014MOL0     C39848   3.139  10.985   2.115  0.7200  0.0394  0.4976
 1014MOL0     C39849   3.317  11.118   2.489 -0.4610 -1.4009 -0.5792
 1014MOL0     C39850   3.372  11.025   2.584 -0.2643 -0.3361 -0.5345
 1014MOL0     C39851   3.469  11.059   2.682 -0.0313 -0.8781 -0.1316
 1014MOL0     C39852   3.509  11.190   2.699 -0.7271  0.9407 -0.5925
 1014MOL0     O39853   3.608  11.221   2.789 -0.2215  0.4286  0.2532
 1014MOL0     C39854   3.675  11.351   2.780  0.3642 -0.5533 -0.7901
 1014MOL0     C39855   3.612  11.463   2.872  0.4488  0.3314  0.5894
 1014MOL0     C39856   3.610  11.404   3.009 -0.4741  0.0846 -1.0229
 1014MOL0     C39857   3.578  11.509   3.112 -0.2913  0.3281  0.5610
 1014MOL0     C39858   3.451  11.568   3.077  2.2769 -0.9173  0.5245
 1014MOL0     C39859   3.344  11.629   3.062  0.4965 -0.3321 -0.6561
 1014MOL0     C39860   3.452  11.287   2.604  0.1270  0.3973 -0.4443
 1014MOL0     C39861   3.359  11.254   2.506  0.3796 -0.4354 -0.0532
 1014MOL0     C39862   3.305  11.365   2.420 -0.2990  0.6542  0.3336
 1014MOL0     H39863   3.132  10.698   2.284  1.9976  0.0189 -1.0158
 1014MOL0     H39864   2.995  10.630   2.122 -3.7207  1.2563  0.5525
 1014MOL0     H39865   2.779  10.855   1.898 -0.2185 -0.9410  2.6345
 1014MOL0     H39866   2.811  10.685   1.954  3.3633  1.7161  3.1049
 1014MOL0     H39867   2.864  10.793   1.686 -2.9097  1.4588 -0.3102
 1014MOL0     H39868   2.868  10.618   1.712  0.4311  1.6415 -4.4502
 1014MOL0     H39869   2.623  10.610   1.743  1.1355 -1.5660 -1.1505
 1014MOL0     H39870   2.603  10.785   1.737 -2.2137 -1.1033 -0.0320
 1014MOL0     H39871   2.707  10.778   1.492  0.6712 -0.6071 -3.0050
 1014MOL0     H39872   2.704  10.616   1.503 -2.4586 -1.3608  0.2484
 1014MOL0     H39873   2.505  10.735   1.391 -2.3896 -1.3190 -0.7381
 1014MOL0     H39874   2.469  10.801   1.553  1.0842 -1.6511  3.6807
 1014MOL0     H39875   2.450  10.503   1.506  0.6832  0.3717 -2.8251
 1014MOL0     H39876   2.395  10.596   1.636  2.1386 -0.8971  0.6158
 1014MOL0     H39877   2.278  10.725   1.439 -0.4587  0.4834 -0.1646
 1014MOL0     H39878   2.191  10.588   1.516  1.3798 -0.3582  2.2284
 1014MOL0     H39879   2.209  10.599   1.250 -1.2062  1.0303  1.6648
 1014MOL0     H39880   2.374  10.540   1.274 -0.3950  0.4802 -0.2996
 1014MOL0     H39881   1.995  10.483   1.317  0.0802  0.8868  1.5698
 1014MOL0     H39882   1.903  10.102   1.310 -2.8103 -0.9807  1.6228
 1014MOL0     H39883   1.834  10.270   1.306  0.4210 -0.4155 -1.6196
 1014MOL0     H39884   1.971  10.117   1.541 -0.0319  0.9899 -0.1476
 1014MOL0     H39885   1.907  10.282   1.545  4.1756 -0.1533 -0.2817
 1014MOL0     H39886   1.757  10.005   1.522  1.9505 -0.6255  0.4778
 1014MOL0     H39887   1.779  10.096   1.669  0.9838 -0.1317 -0.2695
 1014MOL0     H39888   1.593  10.167   1.429  0.6415 -0.5952  0.8934
 1014MOL0     H39889   1.572  10.157   1.610  1.2075 -0.1025  0.5573
 1014MOL0     H39890   1.631  10.577   1.467  0.0583 -2.6610 -1.5914
 1014MOL0     H39891   1.454  10.844   1.535  0.3990 -0.0002  0.3244
 1014MOL0     H39892   1.372  10.800   1.388  0.8161  1.3404  0.5284
 1014MOL0     H39893   1.534  10.756   1.390  0.1239 -0.9279  0.9601
 1014MOL0     H39894   1.294  10.975   1.778 -0.5235  0.1416  1.7041
 1014MOL0     H39895   1.153  11.134   1.924  0.2963  2.0533 -2.7235
 1014MOL0     H39896   0.903  11.336   1.769 -1.6003 -1.1195 -2.4793
 1014MOL0     H39897   0.780  11.223   1.746  1.7370  0.1694 -2.0757
 1014MOL0     H39898   0.821  11.411   1.974 -1.8584  0.0093  1.1712
 1014MOL0     H39899   0.689  11.423   1.849  0.5811  1.8259  1.4834
 1014MOL0     H39900   0.589  11.338   2.057  0.5603  1.5148  0.6533
 1014MOL0     H39901   0.725  11.213   2.073  2.9576  2.4772 -0.8976
 1014MOL0     H39902   0.624  11.133   1.844 -3.9024 -2.4102 -1.3400
 1014MOL0     H39903   0.470  11.197   1.908 -0.9670 -0.9676  2.8722
 1014MOL0     H39904   0.675  11.008   2.037  0.0965 -0.0523  0.1646
 1014MOL0     H39905   0.523  11.039   2.113 -0.7557 -2.2797 -0.3067
 1014MOL0     H39906   0.580  10.841   1.944 -0.6319 -0.1088  0.6779
 1014MOL0     H39907   0.505  10.954   1.830  1.6725 -0.8631 -0.3461
 1014MOL0     H39908   0.289  10.933   1.987 -0.6365 -0.0425  1.4361
 1014MOL0     H39909   0.391  10.867   2.099 -1.1613  3.2826  0.0418
 1014MOL0     H39910   0.243  10.705   2.001  0.7616 -0.6989  1.9253
 1014MOL0     H39911   0.418  10.650   1.978 -1.5366 -1.1222  0.4127
 1014MOL0     H39912   0.816  11.016   1.717  0.6398  1.7204 -4.8142
 1014MOL0     H39913   0.933  10.852   1.594 -0.1780  0.6676 -0.7078
 1014MOL0     H39914   1.227  10.418   1.691 -0.0246  0.1945 -0.1904
 1014MOL0     H39915   1.420  10.270   1.661  1.0769  0.0399 -0.6830
 1014MOL0     H39916   3.049  11.007   1.926 -1.2295 -0.0627  0.1839
 1014MOL0     H39917   3.182  11.084   2.109  2.5904 -0.8148 -2.7435
 1014MOL0     H39918   3.345  10.921   2.598  0.1196 -0.0251  4.5939
 1014MOL0     H39919   3.507  10.976   2.741 -1.1807 -1.2677  0.0986
 1014MOL0     H39920   3.773  11.341   2.828  0.1423  2.6637  0.5557
 1014MOL0     H39921   3.693  11.383   2.677 -0.6687  1.1782 -0.4706
 1014MOL0     H39922   3.509  11.478   2.838  1.0076  1.7004 -0.6077
 1014MOL0     H39923   3.674  11.553   2.877  1.3872 -0.1917 -1.1544
 1014MOL0     H39924   3.547  11.315   3.014  3.3249 -2.8595 -1.2319
 1014MOL0     H39925   3.710  11.380   3.046 -1.2942 -0.4098  0.9836
 1014MOL0     H39926   3.657  11.585   3.112 -1.6460  1.8501 -1.7648
 1014MOL0     H39927   3.575  11.470   3.214  3.1193  2.1989  1.5132
 1014MOL0     H39928   3.247  11.676   3.060  1.3982  2.0094  2.5459
 1014MOL0     H39929   3.487  11.390   2.605 -0.1588  0.6325 -3.7170
 1014MOL0     H39930   3.373  11.451   2.416  0.5310 -0.0184 -3.1164
 1014MOL0     H39931   3.307  11.322   2.319 -1.0421 -0.2503  0.6885
 1014MOL0     H39932   3.204  11.395   2.448 -0.4608 -1.0582  1.7235
 1015MOL0     O39933   4.298   4.023   2.011 -0.9273  0.3455  0.2730
 1015MOL0     C39934   4.406   3.968   1.983 -0.9827 -0.1309  0.3352
 1015MOL0     O39935   4.486   4.015   1.880 -0.0546  0.6723 -0.4606
 1015MOL0     C39936   4.434   4.121   1.807 -0.1675  0.0505 -0.0999
 1015MOL0     C39937   4.407   4.254   1.858 -0.2778  0.5789  0.2364
 1015MOL0     C39938   4.391   4.363   1.768 -1.4046 -0.2859 -0.2188
 1015MOL0     C39939   4.398   4.349   1.625  0.3016  0.4524  0.0048
 1015MOL0     O39940   4.375   4.464   1.557 -0.8982  0.1871  0.3236
 1015MOL0     C39941   4.363   4.434   1.409 -0.8249 -0.1142 -0.2478
 1015MOL0     C39942   4.358   4.568   1.334  0.3925  0.3048  0.5874
 1015MOL0     C39943   4.223   4.632   1.356  0.8442 -0.9046  0.1567
 1015MOL0     C39944   4.214   4.782   1.306 -1.1105  0.0166 -0.3338
 1015MOL0     C39945   4.194   4.776   1.155  0.0905 -0.2560  0.2565
 1015MOL0     C39946   4.127   4.903   1.092 -0.7249 -0.5020  0.1628
 1015MOL0     C39947   4.126   4.885   0.933 -0.3007 -0.8700 -0.6150
 1015MOL0     C39948   4.269   4.864   0.864  1.1016 -0.1541  0.4370
 1015MOL0     N39949   4.371   4.971   0.905 -0.7478 -0.5582 -0.6674
 1015MOL0     C39950   4.372   5.104   0.894  0.3831 -0.1298 -0.5365
 1015MOL0     C39951   4.493   5.146   0.938  0.1740 -0.1944  0.3030
 1015MOL0     C39952   4.541   5.282   0.948  0.3844 -0.2973 -0.4549
 1015MOL0     C39953   4.639   5.349   0.851  0.7090 -0.7379  0.4252
 1015MOL0     C39954   4.787   5.293   0.860  0.0339 -0.5047 -0.0933
 1015MOL0     C39955   4.858   5.272   0.720 -0.2578  1.0190  0.4705
 1015MOL0     O39956   4.837   5.380   0.630 -0.3925 -0.3091  0.2789
 1015MOL0     C39957   4.920   5.486   0.630  0.9529 -0.4194 -0.7067
 1015MOL0     C39958   4.973   5.556   0.743 -0.8207 -0.0332  0.2650
 1015MOL0     C39959   5.032   5.678   0.731  0.2396  1.0631  0.3500
 1015MOL0     C39960   5.084   5.743   0.861  0.2488 -0.2152 -0.9899
 1015MOL0     C39961   5.055   5.731   0.601 -0.8942  0.3065 -0.3641
 1015MOL0     C39962   5.130   5.857   0.567  0.7591  0.7443  0.4574
 1015MOL0     O39963   5.061   5.948   0.498  0.3683 -0.4234 -0.7439
 1015MOL0     C39964   5.140   6.061   0.487 -0.3259  1.1908 -0.0230
 1015MOL0     C39965   5.211   6.135   0.589 -0.4772  0.4061 -0.1547
 1015MOL0     C39966   5.268   6.257   0.569 -0.1570 -0.0211  0.6562
 1015MOL0     C39967   5.250   6.317   0.438 -1.0233  0.2604 -0.7886
 1015MOL0     O39968   5.317   6.437   0.419 -0.2869  0.5066 -0.5010
 1015MOL0     C39969   5.266   6.534   0.327  0.5364  0.5821  0.0600
 1015MOL0     C39970   5.305   6.669   0.389 -0.2553  0.7766 -0.2399
 1015MOL0     C39971   5.221   6.694   0.518  0.4557  0.3474 -0.1000
 1015MOL0     C39972   5.288   6.793   0.618 -0.4521 -0.2659 -0.0968
 1015MOL0     C39973   5.405   6.740   0.704  0.2381  0.3294 -0.7199
 1015MOL0     C39974   5.363   6.650   0.829 -0.1873  0.1392 -0.7302
 1015MOL0     C39975   5.500   6.615   0.896 -0.6649 -0.3478  0.7378
 1015MOL0     C39976   5.555   6.719   0.986  0.8705  0.1418  0.7146
 1015MOL0    Cl39977   5.455   6.739   1.137 -0.2328 -0.1709 -0.0275
 1015MOL0     C39978   5.187   6.236   0.347 -0.2381  0.2365 -0.2961
 1015MOL0     C39979   5.133   6.122   0.362  0.1108 -0.4604  0.3998
 1015MOL0     O39980   5.256   5.843   0.578  0.4413 -0.0531 -1.0440
 1015MOL0     C39981   5.005   5.663   0.489  0.4831 -0.3764 -0.4675
 1015MOL0     C39982   4.934   5.547   0.508  0.3157 -0.7252  0.3598
 1015MOL0     N39983   4.571   5.042   0.974 -0.0960  0.2376  0.5646
 1015MOL0     N39984   4.502   4.929   0.952 -0.4382 -0.8673 -0.1904
 1015MOL0     C39985   4.411   4.214   1.583 -0.1506 -1.0275 -0.2674
 1015MOL0     C39986   4.433   4.103   1.669  0.0867 -0.5978  0.1335
 1015MOL0     C39987   4.445   3.853   2.055  0.0400 -0.2804  0.3880
 1015MOL0     C39988   4.578   3.830   2.043 -0.2231  0.8203 -0.0403
 1015MOL0     C39989   4.639   3.716   2.100 -0.4902 -0.1874 -0.1357
 1015MOL0     C39990   4.564   3.622   2.170  1.3223  0.2875 -0.7347
 1015MOL0     O39991   4.632   3.511   2.214 -0.1097  0.0544  1.0133
 1015MOL0     C39992   4.557   3.420   2.298 -0.3638 -0.5277 -0.2732
 1015MOL0     C39993   4.644   3.304   2.357 -0.0670 -0.2060 -0.5602
 1015MOL0     C39994   4.739   3.365   2.452  0.4391  0.6416  0.6055
 1015MOL0     C39995   4.871   3.282   2.474 -0.5069 -0.9148  0.1013
 1015MOL0     C39996   4.845   3.135   2.489  0.3603  0.2979  0.4028
 1015MOL0     C39997   4.831   3.017   2.505  0.2764  0.4591 -0.0316
 1015MOL0     C39998   4.426   3.644   2.191 -0.2873  0.4823 -1.2961
 1015MOL0     C39999   4.369   3.761   2.139  0.1630 -1.0548 -0.0941
 1015MOL0     C40000   4.217   3.783   2.159 -0.1637  1.0389  0.1048
 1015MOL0     H40001   4.440   4.266   1.961  0.1188 -0.6716  0.2775
 1015MOL0     H40002   4.378   4.459   1.818  2.7089  0.2347  0.2273
 1015MOL0     H40003   4.274   4.372   1.413 -0.5858 -0.5757 -1.6916
 1015MOL0     H40004   4.446   4.372   1.375 -0.5276 -0.3180  0.8035
 1015MOL0     H40005   4.445   4.627   1.365  0.2124  0.9754 -0.1338
 1015MOL0     H40006   4.358   4.553   1.226 -0.3980  1.3154  0.4290
 1015MOL0     H40007   4.139   4.570   1.324 -2.8308  2.6035  2.0761
 1015MOL0     H40008   4.205   4.634   1.463 -0.1740  0.9367  0.0057
 1015MOL0     H40009   4.127   4.829   1.352 -0.8247  1.4319 -1.1620
 1015MOL0     H40010   4.304   4.838   1.334  0.6411 -2.0938 -1.3987
 1015MOL0     H40011   4.130   4.691   1.126 -0.1820  0.6107 -1.9018
 1015MOL0     H40012   4.294   4.756   1.116  2.2851  0.1802  5.0078
 1015MOL0     H40013   4.026   4.914   1.133  0.3460  4.0496  2.1483
 1015MOL0     H40014   4.173   4.998   1.121  1.0232 -0.9051 -1.0817
 1015MOL0     H40015   4.084   4.975   0.886 -0.9163 -0.4574  0.6706
 1015MOL0     H40016   4.055   4.803   0.920 -2.9559  1.2753 -0.5930
 1015MOL0     H40017   4.308   4.766   0.893  0.5158  0.1598  2.3881
 1015MOL0     H40018   4.247   4.863   0.757  1.2332 -1.2863  0.4104
 1015MOL0     H40019   4.282   5.158   0.869 -0.3094 -1.7275 -1.6687
 1015MOL0     H40020   4.587   5.296   1.046  0.4302 -2.1345 -0.1878
 1015MOL0     H40021   4.447   5.337   0.956 -1.2579 -3.1545  1.6648
 1015MOL0     H40022   4.600   5.339   0.750  2.3177 -3.4180 -0.0453
 1015MOL0     H40023   4.643   5.455   0.877  0.0907 -0.3235 -1.1066
 1015MOL0     H40024   4.834   5.368   0.925 -0.8292  0.8725 -1.0085
 1015MOL0     H40025   4.789   5.195   0.909  0.6232 -0.9522 -0.9941
 1015MOL0     H40026   4.964   5.254   0.736 -0.1008  1.8192  0.3721
 1015MOL0     H40027   4.820   5.179   0.677  2.2791 -0.1838  0.6531
 1015MOL0     H40028   4.955   5.526   0.846  0.9237  2.7444  1.4789
 1015MOL0     H40029   5.136   5.667   0.919 -0.6519 -1.0959 -1.3008
 1015MOL0     H40030   5.003   5.774   0.927 -0.5727  0.3596 -2.2189
 1015MOL0     H40031   5.159   5.823   0.858 -0.0296  0.2340  1.6408
 1015MOL0     H40032   5.215   6.083   0.684 -1.9603 -2.3921 -1.4804
 1015MOL0     H40033   5.341   6.294   0.640 -0.6465 -0.8513  1.6059
 1015MOL0     H40034   5.330   6.524   0.238  5.3707 -0.6357  3.2702
 1015MOL0     H40035   5.160   6.515   0.311  1.0487 -1.3891 -1.3568
 1015MOL0     H40036   5.413   6.678   0.402  0.0917 -0.8834 -1.6847
 1015MOL0     H40037   5.277   6.749   0.320 -1.3478 -0.3205 -1.0987
 1015MOL0     H40038   5.208   6.602   0.576 -3.9071  1.2275  0.6996
 1015MOL0     H40039   5.119   6.731   0.502  0.8214  1.3121 -0.2792
 1015MOL0     H40040   5.200   6.827   0.674 -1.9847  0.0339 -2.5570
 1015MOL0     H40041   5.332   6.872   0.557  3.8485 -1.5212  1.0294
 1015MOL0     H40042   5.482   6.691   0.642  1.1806 -0.7440  1.2050
 1015MOL0     H40043   5.448   6.828   0.752 -0.3154 -0.2715  0.9423
 1015MOL0     H40044   5.307   6.569   0.782 -2.4300  1.0179  0.3059
 1015MOL0     H40045   5.298   6.713   0.891  1.1024  1.9985 -1.1688
 1015MOL0     H40046   5.575   6.594   0.819 -0.9378 -0.3695  0.4783
 1015MOL0     H40047   5.490   6.526   0.959  3.2031 -2.5261 -1.3481
 1015MOL0     H40048   5.558   6.813   0.931  0.1920  0.0143  0.4435
 1015MOL0     H40049   5.659   6.696   1.013  2.2345  3.9118 -0.6646
 1015MOL0     H40050   5.167   6.282   0.251 -0.6053 -0.0173 -0.3390
 1015MOL0     H40051   5.069   6.078   0.286 -1.0186  3.0985 -0.8852
 1015MOL0     H40052   5.030   5.704   0.391  0.1691 -2.2785 -1.3919
 1015MOL0     H40053   4.904   5.483   0.426 -0.2848 -0.1761  0.1503
 1015MOL0     H40054   4.410   4.195   1.476 -2.6564 -0.5797 -0.3863
 1015MOL0     H40055   4.480   4.011   1.634  0.7621  0.5936 -2.4034
 1015MOL0     H40056   4.656   3.890   1.997  2.0251 -0.3594  1.9960
 1015MOL0     H40057   4.747   3.715   2.103 -0.4503  1.5951  3.1823
 1015MOL0     H40058   4.512   3.481   2.377  0.1578 -4.2296  3.1788
 1015MOL0     H40059   4.478   3.375   2.238  0.1881 -1.8866 -0.0213
 1015MOL0     H40060   4.687   3.239   2.281 -1.7276  0.2938 -1.9812
 1015MOL0     H40061   4.574   3.242   2.413 -2.6215  4.1969  1.6661
 1015MOL0     H40062   4.772   3.458   2.405  0.3607  0.4641  0.1980
 1015MOL0     H40063   4.699   3.385   2.552  0.8018 -1.6578  1.2573
 1015MOL0     H40064   4.922   3.316   2.564 -0.9356 -0.6914  0.2597
 1015MOL0     H40065   4.940   3.313   2.394  0.0310  0.8687  1.2094
 1015MOL0     H40066   4.796   2.916   2.511  2.9661 -0.6306 -0.9412
 1015MOL0     H40067   4.366   3.575   2.249  0.6218  0.0479 -0.8539
 1015MOL0     H40068   4.189   3.865   2.225 -5.2409 -0.9675  0.9136
 1015MOL0     H40069   4.174   3.793   2.059 -0.4202 -1.9834 -0.1759
 1015MOL0     H40070   4.169   3.697   2.207 -1.5132  2.1536  0.8456
 1016MOL0     O40071   2.673   2.364   1.139 -0.1078 -0.2912  0.5498
 1016MOL0     C40072   2.639   2.448   1.226 -0.8112 -0.1204  0.4290
 1016MOL0     O40073   2.715   2.535   1.293 -0.0954  0.3380  0.5555
 1016MOL0     C40074   2.843   2.565   1.251 -0.2902  0.7955  0.2712
 1016MOL0     C40075   2.914   2.532   1.130  0.5381  1.0441  0.2352
 1016MOL0     C40076   3.045   2.567   1.106 -0.6305  0.1675  0.2657
 1016MOL0     C40077   3.115   2.626   1.205  0.1375 -0.3345 -0.2052
 1016MOL0     O40078   3.253   2.661   1.197 -0.3163 -1.3827 -0.1321
 1016MOL0     C40079   3.318   2.615   1.079  0.2721  0.1942  0.0728
 1016MOL0     C40080   3.467   2.659   1.057 -0.0027  0.3057  1.1236
 1016MOL0     C40081   3.549   2.602   1.173 -0.1631  0.1275 -0.1645
 1016MOL0     C40082   3.695   2.647   1.174  1.2351  0.0790 -0.4808
 1016MOL0     C40083   3.772   2.590   1.298 -0.2744  0.6251  0.1610
 1016MOL0     C40084   3.921   2.645   1.300 -0.4143 -0.4354 -0.3265
 1016MOL0     C40085   4.010   2.580   1.407  0.2683  0.4984  0.0422
 1016MOL0     C40086   3.983   2.639   1.547  0.6043  0.5868  0.0599
 1016MOL0     N40087   4.053   2.549   1.638  0.0637 -0.4146 -0.4241
 1016MOL0     C40088   4.193   2.528   1.642 -1.4608  0.5904 -0.1139
 1016MOL0     C40089   4.211   2.457   1.763 -0.4407 -0.3272 -0.1110
 1016MOL0     C40090   4.332   2.403   1.832 -0.0380 -0.2851 -0.1500
 1016MOL0     C40091   4.302   2.415   1.987 -0.7557  0.1168 -0.7225
 1016MOL0     C40092   4.423   2.424   2.072 -0.9360 -0.3161 -0.2929
 1016MOL0     C40093   4.538   2.321   2.042 -0.4291  0.4906  0.4483
 1016MOL0     O40094   4.633   2.327   2.150  0.6362  0.3671  0.4358
 1016MOL0     C40095   4.745   2.248   2.147 -0.1819 -0.1491  0.1626
 1016MOL0     C40096   4.773   2.147   2.048 -0.6728 -0.8255 -0.1984
 1016MOL0     C40097   4.898   2.079   2.051 -0.3879  0.2545  1.1707
 1016MOL0     C40098   4.916   1.973   1.942  0.5531  0.1206  0.6487
 1016MOL0     C40099   5.000   2.114   2.145  0.3320  0.3400  0.1810
 1016MOL0     C40100   5.136   2.052   2.136 -0.1281 -0.8271 -0.1078
 1016MOL0     O40101   5.185   2.003   2.017  0.4573 -0.1633 -0.4402
 1016MOL0     C40102   5.287   1.912   2.023 -0.1073 -0.4693 -0.4362
 1016MOL0     C40103   5.423   1.939   2.001  0.1095  0.5478  0.0367
 1016MOL0     C40104   5.513   1.833   1.987 -0.1835  0.7732  0.8794
 1016MOL0     C40105   5.477   1.702   1.991  0.5852  0.1362 -0.7262
 1016MOL0     O40106   5.558   1.590   1.977 -0.0574 -0.6530  0.1515
 1016MOL0     C40107   5.525   1.497   1.874 -0.5032 -0.2025  0.1044
 1016MOL0     C40108   5.608   1.373   1.885 -0.2203 -0.4907  0.1911
 1016MOL0     C40109   5.562   1.265   1.987  0.5936 -0.2572 -0.5700
 1016MOL0     C40110   5.566   1.319   2.133 -0.0473 -0.1353  0.2005
 1016MOL0     C40111   5.552   1.209   2.231  0.0925 -0.4640  0.3588
 1016MOL0     C40112   5.655   1.096   2.229  1.0216  0.6801  0.8171
 1016MOL0     C40113   5.802   1.155   2.252 -0.3353 -0.5586  0.1526
 1016MOL0     C40114   5.921   1.055   2.250 -0.2750 -0.9517  0.5299
 1016MOL0    Cl40115   5.891   0.936   2.376  0.5690  0.3101 -0.5483
 1016MOL0     C40116   5.342   1.677   2.016 -0.0408 -0.2715  0.0092
 1016MOL0     C40117   5.250   1.782   2.028  0.0151 -0.6524  0.0620
 1016MOL0     O40118   5.196   2.041   2.243 -0.2322 -0.0809 -0.2477
 1016MOL0     C40119   4.966   2.192   2.251  0.1483  0.5237 -0.3091
 1016MOL0     C40120   4.842   2.261   2.252  0.9030  0.4552  0.3364
 1016MOL0     N40121   4.089   2.429   1.812 -0.5662 -0.3649  0.7805
 1016MOL0     N40122   3.993   2.476   1.741 -0.3716 -0.8014 -0.4352
 1016MOL0     C40123   3.043   2.677   1.314 -0.3513 -0.7671 -0.1251
 1016MOL0     C40124   2.912   2.649   1.347 -0.1806 -0.3980 -0.0722
 1016MOL0     C40125   2.493   2.449   1.275 -0.5997 -0.3895  0.3268
 1016MOL0     C40126   2.436   2.569   1.315  0.4735 -0.2663 -0.0780
 1016MOL0     C40127   2.314   2.573   1.383 -2.0382  0.6941  0.2860
 1016MOL0     C40128   2.236   2.457   1.401 -0.2478  0.1996 -0.0127
 1016MOL0     O40129   2.124   2.462   1.480  0.5389 -1.0594  0.3426
 1016MOL0     C40130   2.116   2.365   1.583 -0.4357  0.1628 -0.2801
 1016MOL0     C40131   2.074   2.426   1.711 -0.2855  0.3731  0.9153
 1016MOL0     C40132   1.923   2.464   1.690  0.8625 -0.3722 -0.4519
 1016MOL0     C40133   1.866   2.511   1.824  0.6417 -0.3901 -0.1776
 1016MOL0     C40134   1.737   2.579   1.810  0.2401  0.2069  0.3405
 1016MOL0     C40135   1.624   2.619   1.781 -0.2396 -0.3987 -0.2959
 1016MOL0     C40136   2.285   2.341   1.338  0.1828  0.3661 -0.1104
 1016MOL0     C40137   2.412   2.336   1.277  0.4583 -1.1333 -0.0001
 1016MOL0     C40138   2.463   2.199   1.231 -0.6681 -1.2197 -0.3699
 1016MOL0     H40139   2.854   2.497   1.046  2.2348  1.3448 -1.1434
 1016MOL0     H40140   3.094   2.549   1.011  1.7035 -1.0746  1.6264
 1016MOL0     H40141   3.266   2.646   0.989  1.9351 -2.5917 -2.0135
 1016MOL0     H40142   3.307   2.506   1.082  2.2292 -0.0229  0.4066
 1016MOL0     H40143   3.493   2.625   0.956 -0.2452 -0.2235  1.2383
 1016MOL0     H40144   3.477   2.767   1.076  2.0538 -0.1735  3.2425
 1016MOL0     H40145   3.503   2.606   1.272  0.7771 -1.2879  0.3608
 1016MOL0     H40146   3.563   2.494   1.162  2.3189 -0.3025  4.4551
 1016MOL0     H40147   3.756   2.621   1.087  0.6296 -6.7907  0.5798
 1016MOL0     H40148   3.693   2.757   1.173  0.3453  0.1084 -3.0246
 1016MOL0     H40149   3.774   2.480   1.293  0.6592  0.6845 -1.7772
 1016MOL0     H40150   3.728   2.627   1.391  1.2651  0.6821  0.8996
 1016MOL0     H40151   3.961   2.617   1.202  3.7263 -2.1996  1.6064
 1016MOL0     H40152   3.920   2.751   1.324  0.2314 -0.8803  1.8148
 1016MOL0     H40153   4.115   2.600   1.381 -0.3508  1.4967 -1.8539
 1016MOL0     H40154   4.010   2.470   1.411  0.8569  0.4565  4.2477
 1016MOL0     H40155   4.027   2.737   1.568  1.4665  0.0523  0.8777
 1016MOL0     H40156   3.875   2.644   1.563  0.1981  1.4891 -2.4650
 1016MOL0     H40157   4.271   2.564   1.575 -1.7074  0.9155 -0.2280
 1016MOL0     H40158   4.421   2.454   1.796  0.5033 -1.6608 -0.8507
 1016MOL0     H40159   4.353   2.298   1.809  1.9270  0.8659 -4.6870
 1016MOL0     H40160   4.243   2.505   2.005 -1.5937 -0.3095 -1.2631
 1016MOL0     H40161   4.236   2.335   2.023  0.3145 -0.3104  0.3470
 1016MOL0     H40162   4.470   2.522   2.064  2.7146 -1.9799 -1.7200
 1016MOL0     H40163   4.399   2.410   2.178  0.5203  2.2922  0.4561
 1016MOL0     H40164   4.491   2.222   2.031 -1.3437  1.0937 -1.5945
 1016MOL0     H40165   4.601   2.339   1.955 -0.5959 -2.2406 -0.3480
 1016MOL0     H40166   4.691   2.110   1.988 -1.6504  1.7056 -0.5788
 1016MOL0     H40167   4.968   1.883   1.975  1.2780 -1.3660 -3.8190
 1016MOL0     H40168   4.975   2.013   1.859 -0.6373 -1.3231 -0.9797
 1016MOL0     H40169   4.815   1.936   1.919  2.1226 -3.0143 -2.1305
 1016MOL0     H40170   5.459   2.036   1.966 -0.0534  0.9361  0.9115
 1016MOL0     H40171   5.617   1.854   1.965  0.0227  0.5390  1.5887
 1016MOL0     H40172   5.418   1.476   1.870 -0.4477 -0.3798 -0.5389
 1016MOL0     H40173   5.544   1.538   1.774 -4.2919 -0.7603 -0.9682
 1016MOL0     H40174   5.603   1.321   1.789  1.5318  1.1318 -0.8302
 1016MOL0     H40175   5.715   1.378   1.905  1.0193 -4.6740 -3.6758
 1016MOL0     H40176   5.642   1.191   1.982  0.3132 -0.6235  0.2017
 1016MOL0     H40177   5.462   1.235   1.953  0.2039  1.7037 -1.2848
 1016MOL0     H40178   5.474   1.376   2.148  0.7030  0.4171  3.6757
 1016MOL0     H40179   5.654   1.379   2.157  0.5278 -0.6650 -0.5295
 1016MOL0     H40180   5.550   1.260   2.328 -2.1785 -0.6112  0.4530
 1016MOL0     H40181   5.450   1.170   2.223 -1.7459  3.8050 -0.0275
 1016MOL0     H40182   5.659   1.046   2.131  1.9143 -0.0122  1.2009
 1016MOL0     H40183   5.613   1.025   2.300 -0.3956  0.1593 -0.4590
 1016MOL0     H40184   5.803   1.214   2.344 -0.7020  0.2250 -0.3425
 1016MOL0     H40185   5.821   1.220   2.166  2.4991 -0.5730  0.6538
 1016MOL0     H40186   6.017   1.107   2.256 -0.3871 -0.2198 -2.4642
 1016MOL0     H40187   5.925   1.002   2.154  2.8324  1.5426 -0.8737
 1016MOL0     H40188   5.307   1.577   2.039 -1.2705  0.1224 -0.0776
 1016MOL0     H40189   5.144   1.762   2.038 -0.2908  1.3270  1.3233
 1016MOL0     H40190   5.031   2.207   2.337 -0.8216  1.3700  0.2974
 1016MOL0     H40191   4.814   2.324   2.335  0.4400 -0.2014  0.6895
 1016MOL0     H40192   3.100   2.744   1.378 -0.3636 -1.4451  0.6174
 1016MOL0     H40193   2.856   2.691   1.430 -0.9315 -1.6524  0.0877
 1016MOL0     H40194   2.487   2.665   1.311  1.2730 -0.7383 -1.9169
 1016MOL0     H40195   2.289   2.663   1.437  3.4851  2.5267  0.4521
 1016MOL0     H40196   2.049   2.286   1.547  0.8890 -0.0136 -2.5210
 1016MOL0     H40197   2.209   2.312   1.605 -1.0490 -0.7088  0.3310
 1016MOL0     H40198   2.136   2.513   1.736  0.4478  0.8061 -2.0354
 1016MOL0     H40199   2.086   2.348   1.786 -1.4659 -0.9690 -0.2464
 1016MOL0     H40200   1.910   2.541   1.613 -0.6664  1.6640  1.6902
 1016MOL0     H40201   1.871   2.373   1.659  1.4370 -1.6788  2.1542
 1016MOL0     H40202   1.932   2.583   1.874 -1.6446  0.5947  1.5942
 1016MOL0     H40203   1.851   2.420   1.882  1.1334 -1.1329 -1.1803
 1016MOL0     H40204   1.525   2.643   1.749 -1.1173 -1.0056  1.7760
 1016MOL0     H40205   2.218   2.255   1.349 -1.6994  1.1473 -3.7448
 1016MOL0     H40206   2.395   2.130   1.283 -1.3969  1.1440  2.0423
 1016MOL0     H40207   2.457   2.198   1.122  1.0048 -0.3920 -0.5003
 1016MOL0     H40208   2.565   2.169   1.256 -0.6324  0.2947  1.5283
 1017MOL0     O40209   8.287   4.059   9.726 -0.6037  0.6304  0.1934
 1017MOL0     C40210   8.317   3.934   9.710 -1.1699 -0.3743  1.2479
 1017MOL0     O40211   8.439   3.889   9.657  0.5319  0.2163  0.5498
 1017MOL0     C40212   8.549   3.974   9.649  0.0263  1.2384 -0.3660
 1017MOL0     C40213   8.604   4.033   9.761 -0.3594 -0.0801 -0.2494
 1017MOL0     C40214   8.734   4.081   9.754 -0.2488 -0.6084  0.6105
 1017MOL0     C40215   8.802   4.092   9.629  0.0487 -0.3671  1.0779
 1017MOL0     O40216   8.923   4.144   9.618 -0.4669 -0.9038 -0.6344
 1017MOL0     C40217   8.934   4.292   9.628  1.5960  0.3174 -0.3528
 1017MOL0     C40218   8.850   4.354   9.510 -0.1192  0.1440  1.0511
 1017MOL0     C40219   8.900   4.507   9.506 -0.1565 -0.2851 -0.0085
 1017MOL0     C40220   8.849   4.578   9.376 -0.5758 -0.1106  0.1982
 1017MOL0     C40221   8.823   4.732   9.401  0.6267  0.2857 -0.2846
 1017MOL0     C40222   8.760   4.812   9.272  0.5311  0.1411 -1.2080
 1017MOL0     C40223   8.715   4.946   9.327  0.0029 -0.3689  0.0150
 1017MOL0     C40224   8.632   5.024   9.231  0.0583 -0.1198  0.5006
 1017MOL0     N40225   8.708   5.099   9.136 -0.3614 -0.7635 -0.8423
 1017MOL0     C40226   8.714   5.235   9.122  1.1222 -0.2518  0.3356
 1017MOL0     C40227   8.807   5.262   9.032  0.5574 -0.2465  0.0695
 1017MOL0     C40228   8.855   5.398   8.985 -0.6588  0.6095  0.6126
 1017MOL0     C40229   8.938   5.471   9.092 -0.2269  0.2012  0.4263
 1017MOL0     C40230   9.070   5.407   9.122  0.5686 -0.6782 -0.1214
 1017MOL0     C40231   9.160   5.380   8.998 -0.3254  0.0782 -0.4196
 1017MOL0     O40232   9.277   5.336   9.065  0.4872 -0.1987  0.0171
 1017MOL0     C40233   9.301   5.200   9.090  0.2546  0.1357 -0.4158
 1017MOL0     C40234   9.206   5.098   9.082 -0.3469 -0.1729 -0.5133
 1017MOL0     C40235   9.233   4.962   9.115  0.2390  0.4345 -0.4251
 1017MOL0     C40236   9.125   4.853   9.118 -0.3457 -0.1011 -0.4486
 1017MOL0     C40237   9.369   4.937   9.169 -0.2051 -0.5569 -0.2859
 1017MOL0     C40238   9.419   4.803   9.210 -0.5005  0.7412 -0.7392
 1017MOL0     O40239   9.509   4.802   9.314 -0.6172  1.1779  0.1577
 1017MOL0     C40240   9.570   4.693   9.382 -0.4517 -0.8531  0.8901
 1017MOL0     C40241   9.488   4.621   9.469  0.2677  0.2867  0.0878
 1017MOL0     C40242   9.538   4.517   9.544 -0.4337  0.1363  0.9284
 1017MOL0     C40243   9.665   4.466   9.519  0.4831 -0.4324 -0.1899
 1017MOL0     O40244   9.693   4.354   9.592 -0.7164 -1.0028 -0.1886
 1017MOL0     C40245   9.770   4.264   9.511  0.3359  0.5116  0.2895
 1017MOL0     C40246   9.767   4.117   9.583  1.3152 -0.6892  0.4185
 1017MOL0     C40247   9.629   4.050   9.559  0.7116  0.3310  0.2965
 1017MOL0     C40248   9.506   4.114   9.626 -0.7241 -0.7955 -0.0621
 1017MOL0     C40249   9.384   4.029   9.619  0.0291  0.0857  0.7116
 1017MOL0     C40250   9.338   4.003   9.482 -0.1535  0.0900  0.0329
 1017MOL0     C40251   9.208   3.920   9.468 -0.1409 -1.1439 -0.8153
 1017MOL0     C40252   9.142   3.920   9.329 -0.0185  1.0616 -0.2198
 1017MOL0    Cl40253   9.010   3.789   9.322  0.4347  0.2864  0.0030
 1017MOL0     C40254   9.744   4.532   9.424 -0.2061 -0.0727  0.4750
 1017MOL0     C40255   9.694   4.646   9.355 -0.1366 -0.2453 -0.0209
 1017MOL0     O40256   9.365   4.705   9.166 -0.2507  0.1803 -0.6016
 1017MOL0     C40257   9.459   5.045   9.167 -0.4260 -1.0210 -0.2601
 1017MOL0     C40258   9.428   5.174   9.130 -0.1902 -0.5818 -0.1076
 1017MOL0     N40259   8.863   5.144   8.987 -0.0265  0.0070 -0.9770
 1017MOL0     N40260   8.798   5.053   9.049 -0.4109  0.4762 -0.7560
 1017MOL0     C40261   8.734   4.036   9.519 -0.1722 -0.6678  1.4348
 1017MOL0     C40262   8.618   3.978   9.526 -1.2446  0.3143 -0.7736
 1017MOL0     C40263   8.206   3.840   9.735 -0.8083  0.6563  0.0193
 1017MOL0     C40264   8.226   3.706   9.690 -0.7541 -0.0466 -0.7804
 1017MOL0     C40265   8.125   3.608   9.687  0.0371  0.2201  0.1433
 1017MOL0     C40266   7.999   3.644   9.736 -0.2000 -0.0076 -0.7631
 1017MOL0     O40267   7.888   3.567   9.732 -0.1002 -0.1705 -0.2280
 1017MOL0     C40268   7.909   3.424   9.728  0.3963 -1.1420 -0.5166
 1017MOL0     C40269   7.931   3.378   9.876  0.6614  1.0689  0.0442
 1017MOL0     C40270   7.861   3.250   9.902 -0.2034 -0.4941 -0.6224
 1017MOL0     C40271   7.915   3.127   9.825  1.2044 -0.3375  0.6235
 1017MOL0     C40272   7.863   3.116   9.687 -0.0436 -0.8020  0.2157
 1017MOL0     C40273   7.813   3.110   9.577 -0.5286 -0.3259 -0.6143
 1017MOL0     C40274   7.983   3.768   9.803 -0.4008  0.2366 -0.4231
 1017MOL0     C40275   8.077   3.876   9.785 -0.5492 -0.9445 -0.5187
 1017MOL0     C40276   8.029   4.001   9.844  0.6458  0.1301 -0.0644
 1017MOL0     H40277   8.547   4.035   9.853 -2.7895 -2.7349 -1.5387
 1017MOL0     H40278   8.779   4.124   9.843  1.0360  3.2325 -1.6312
 1017MOL0     H40279   9.039   4.322   9.628  2.1847 -1.2248  3.2795
 1017MOL0     H40280   8.893   4.330   9.722  0.8717  1.2350 -1.0204
 1017MOL0     H40281   8.865   4.302   9.415 -3.6647  0.7257  0.0061
 1017MOL0     H40282   8.741   4.350   9.524 -0.6257 -4.5828 -1.8952
 1017MOL0     H40283   8.863   4.556   9.596 -3.1882 -4.7502  1.5223
 1017MOL0     H40284   9.009   4.509   9.511 -0.1925  2.2122  1.5821
 1017MOL0     H40285   8.917   4.552   9.294 -1.6183  0.0635 -0.7354
 1017MOL0     H40286   8.752   4.537   9.348 -0.2502 -1.6197  1.1644
 1017MOL0     H40287   8.917   4.775   9.437  0.6152  0.0453  0.0317
 1017MOL0     H40288   8.750   4.736   9.482 -1.0980 -1.7980 -1.6336
 1017MOL0     H40289   8.822   4.832   9.184 -4.6856  1.2622 -5.0887
 1017MOL0     H40290   8.671   4.762   9.234  1.1498 -1.4243 -0.6696
 1017MOL0     H40291   8.805   5.003   9.354 -0.5480  0.9036 -0.7671
 1017MOL0     H40292   8.655   4.928   9.416 -0.7208  2.1698  0.1205
 1017MOL0     H40293   8.585   4.952   9.164  0.2130 -1.1422  1.4686
 1017MOL0     H40294   8.562   5.085   9.289  1.1346  2.0078 -0.3204
 1017MOL0     H40295   8.663   5.306   9.186  2.7641 -0.1213  1.5807
 1017MOL0     H40296   8.779   5.467   8.948 -1.9122 -1.2715 -0.4227
 1017MOL0     H40297   8.910   5.372   8.894  0.3030  2.2054  0.7007
 1017MOL0     H40298   8.979   5.566   9.055  0.9230 -0.4282  0.0499
 1017MOL0     H40299   8.883   5.492   9.184  0.0805 -0.7902  0.8435
 1017MOL0     H40300   9.127   5.477   9.184  1.2712  2.0464 -3.5381
 1017MOL0     H40301   9.059   5.322   9.190 -1.2407  0.9408  1.8071
 1017MOL0     H40302   9.114   5.316   8.923  0.7938  1.1806 -2.1236
 1017MOL0     H40303   9.168   5.466   8.932 -4.4132  1.1130  0.2017
 1017MOL0     H40304   9.105   5.136   9.066  0.4723  1.8797 -1.0687
 1017MOL0     H40305   9.025   4.893   9.101 -0.2055  0.0513 -0.9151
 1017MOL0     H40306   9.135   4.795   9.210 -1.3502 -0.0108 -0.2722
 1017MOL0     H40307   9.151   4.785   9.037  1.5975 -1.5929  1.2826
 1017MOL0     H40308   9.381   4.640   9.470  0.3187  0.5628  1.2259
 1017MOL0     H40309   9.471   4.476   9.618 -0.6926 -1.1021  0.0542
 1017MOL0     H40310   9.740   4.254   9.406  0.0514  1.1394  0.3071
 1017MOL0     H40311   9.875   4.289   9.500  1.2601 -3.5063 -2.2417
 1017MOL0     H40312   9.846   4.060   9.533  0.9852 -0.7331 -0.0645
 1017MOL0     H40313   9.797   4.127   9.687 -0.1655  1.2643  0.7129
 1017MOL0     H40314   9.618   3.947   9.594 -4.6446  0.1451 -0.9860
 1017MOL0     H40315   9.611   4.052   9.451  2.8055  0.3388 -0.0951
 1017MOL0     H40316   9.479   4.213   9.588 -2.8507 -2.0808 -2.1093
 1017MOL0     H40317   9.538   4.132   9.729  1.3128  1.0337 -0.9203
 1017MOL0     H40318   9.385   3.932   9.669 -1.1565 -0.5852 -0.4982
 1017MOL0     H40319   9.305   4.086   9.669  0.9796 -0.6223  3.1565
 1017MOL0     H40320   9.415   3.946   9.428  2.9833 -0.4951  4.5127
 1017MOL0     H40321   9.325   4.100   9.434  2.8597 -0.5027 -2.2989
 1017MOL0     H40322   9.141   3.970   9.538  0.5344  1.1397 -1.7194
 1017MOL0     H40323   9.225   3.814   9.492 -1.7909 -0.9997  1.2977
 1017MOL0     H40324   9.223   3.900   9.258  1.7263 -2.8058  2.5204
 1017MOL0     H40325   9.094   4.015   9.305 -0.5702  1.1341  1.0995
 1017MOL0     H40326   9.844   4.499   9.395 -0.7192  0.6633 -2.3978
 1017MOL0     H40327   9.755   4.695   9.280 -0.4026  3.3590  1.8914
 1017MOL0     H40328   9.551   5.043   9.224 -0.7882  1.7261  0.5639
 1017MOL0     H40329   9.494   5.258   9.154 -1.3293  0.6886 -1.2275
 1017MOL0     H40330   8.793   4.041   9.428  0.3920 -0.2009  1.8172
 1017MOL0     H40331   8.565   3.939   9.440  0.3918  2.0605 -2.6951
 1017MOL0     H40332   8.317   3.675   9.638 -0.6572  1.2833 -1.4500
 1017MOL0     H40333   8.149   3.519   9.629  0.7268 -0.4580  1.4301
 1017MOL0     H40334   7.818   3.389   9.680 -0.2029  0.4728 -0.6158
 1017MOL0     H40335   7.991   3.391   9.664 -1.7578 -3.3080 -2.3264
 1017MOL0     H40336   7.892   3.450   9.948 -0.1843  1.6976 -1.0051
 1017MOL0     H40337   8.038   3.372   9.900  0.2809  2.0836  2.2687
 1017MOL0     H40338   7.864   3.223  10.009  0.0203 -3.9499 -1.3757
 1017MOL0     H40339   7.758   3.274   9.876 -0.6527 -0.8943  0.6963
 1017MOL0     H40340   7.877   3.035   9.871 -1.7115  0.5564  0.2152
 1017MOL0     H40341   8.024   3.134   9.825  1.4227 -2.0615  3.5271
 1017MOL0     H40342   7.768   3.096   9.482 -1.1084  0.7753 -0.5142
 1017MOL0     H40343   7.887   3.778   9.854  1.1442 -0.3681  2.8735
 1017MOL0     H40344   8.052   4.093   9.791 -0.1418  0.0045 -0.6518
 1017MOL0     H40345   7.920   3.996   9.836  0.7105 -0.5817 -0.5852
 1017MOL0     H40346   8.062   4.011   9.948  0.5463 -2.4925  0.2923
 1018MOL0     O40347   4.635   5.540   6.300  1.3819 -0.5587 -0.6556
 1018MOL0     C40348   4.664   5.608   6.393 -0.2841 -0.3876 -0.1021
 1018MOL0     O40349   4.570   5.661   6.480 -0.7529  0.0033  0.5134
 1018MOL0     C40350   4.453   5.595   6.513 -0.8243 -0.2499  0.9189
 1018MOL0     C40351   4.332   5.673   6.520  1.1117 -0.3544  0.2078
 1018MOL0     C40352   4.205   5.613   6.532 -0.2747  0.1927  0.4092
 1018MOL0     C40353   4.198   5.476   6.553  0.3498 -0.5655 -1.2735
 1018MOL0     O40354   4.083   5.402   6.572 -0.2986 -0.2671  0.1352
 1018MOL0     C40355   4.071   5.349   6.702  1.1346 -0.3576 -0.5836
 1018MOL0     C40356   3.995   5.220   6.695 -0.0880  0.5012 -0.8129
 1018MOL0     C40357   3.859   5.235   6.636 -0.1898 -0.6828  1.0056
 1018MOL0     C40358   3.793   5.094   6.618  0.1546  0.5596 -0.2072
 1018MOL0     C40359   3.649   5.138   6.584  0.6839 -0.4312  0.8966
 1018MOL0     C40360   3.552   5.020   6.541 -0.3909 -0.4784  0.0558
 1018MOL0     C40361   3.540   4.923   6.649 -0.4909  0.1195 -0.7707
 1018MOL0     C40362   3.457   4.797   6.613 -0.2280 -0.0081  0.5499
 1018MOL0     N40363   3.530   4.704   6.523  0.7463  0.6289  1.0475
 1018MOL0     C40364   3.562   4.720   6.387 -0.3396  0.8813  0.4299
 1018MOL0     C40365   3.632   4.606   6.363  0.2594  0.7831 -0.3059
 1018MOL0     C40366   3.678   4.573   6.215 -0.2993 -0.4112 -0.1620
 1018MOL0     C40367   3.823   4.574   6.176 -0.9535  0.6958 -0.6280
 1018MOL0     C40368   3.909   4.474   6.259  0.4937  0.3642 -0.5476
 1018MOL0     C40369   4.011   4.397   6.173  0.7876  0.0989 -0.2631
 1018MOL0     O40370   4.051   4.482   6.062 -0.0113 -0.5187  0.1694
 1018MOL0     C40371   4.145   4.423   5.974  0.0678  1.1238 -0.1246
 1018MOL0     C40372   4.177   4.502   5.865 -0.1556 -0.5667 -1.2377
 1018MOL0     C40373   4.249   4.461   5.751 -0.2732  0.5788  0.2633
 1018MOL0     C40374   4.241   4.550   5.630 -0.0624 -0.1698 -0.1987
 1018MOL0     C40375   4.308   4.334   5.755  0.5133  0.3269  0.1645
 1018MOL0     C40376   4.401   4.277   5.659 -0.0619  0.0699  0.1652
 1018MOL0     O40377   4.473   4.164   5.684  0.0410  0.8567 -0.2649
 1018MOL0     C40378   4.563   4.114   5.599  0.1138  0.0439 -0.1455
 1018MOL0     C40379   4.526   4.073   5.474  0.6295  0.1252  0.0445
 1018MOL0     C40380   4.610   3.998   5.390  0.6910  0.8866 -0.0074
 1018MOL0     C40381   4.739   3.972   5.435 -0.9975  0.6059  0.0759
 1018MOL0     O40382   4.815   3.884   5.355  0.2404  0.2756 -1.2138
 1018MOL0     C40383   4.932   3.812   5.411  0.8620 -0.0818  0.1027
 1018MOL0     C40384   4.980   3.727   5.295  0.5662  0.7147  0.4158
 1018MOL0     C40385   5.013   3.800   5.168  0.3893 -0.2133  0.5613
 1018MOL0     C40386   4.914   3.761   5.052  0.5525  0.2186 -0.2383
 1018MOL0     C40387   4.937   3.860   4.939  0.5569 -0.8448  0.1246
 1018MOL0     C40388   4.824   3.860   4.827 -0.4923  0.2927  0.1012
 1018MOL0     C40389   4.681   3.880   4.862  0.7291  0.4927  0.7003
 1018MOL0     C40390   4.595   3.858   4.741 -0.5302  0.3070  0.0973
 1018MOL0    Cl40391   4.608   3.989   4.626 -0.2046  0.2431 -0.5225
 1018MOL0     C40392   4.784   4.002   5.568  0.1952 -1.0009  0.0408
 1018MOL0     C40393   4.686   4.066   5.650 -0.4045 -0.0791 -0.1056
 1018MOL0     O40394   4.430   4.351   5.562 -0.4544  0.2923 -0.2551
 1018MOL0     C40395   4.281   4.244   5.863 -0.3883  0.1690 -1.1833
 1018MOL0     C40396   4.193   4.294   5.968  0.1516  0.5350 -0.4459
 1018MOL0     N40397   3.626   4.520   6.476  0.2839  0.3712  0.1947
 1018MOL0     N40398   3.561   4.583   6.557  1.1345 -0.0614 -0.4048
 1018MOL0     C40399   4.319   5.395   6.545 -0.6817 -1.2306 -0.2521
 1018MOL0     C40400   4.445   5.451   6.515 -0.1984 -0.2715  0.5742
 1018MOL0     C40401   4.812   5.634   6.419 -0.4249 -0.1589 -0.8065
 1018MOL0     C40402   4.845   5.726   6.528 -0.8809  0.8047  0.2563
 1018MOL0     C40403   4.973   5.761   6.550 -0.0071  0.2188 -0.2888
 1018MOL0     C40404   5.086   5.711   6.472 -0.7462  1.1554 -0.5270
 1018MOL0     O40405   5.209   5.764   6.521  0.4931 -0.1939 -0.5215
 1018MOL0     C40406   5.332   5.704   6.481  0.7581 -0.0479  0.1824
 1018MOL0     C40407   5.434   5.733   6.580  0.5544 -0.9514  0.2514
 1018MOL0     C40408   5.486   5.879   6.591  0.5249 -0.0238  1.0623
 1018MOL0     C40409   5.477   5.950   6.461  0.6844 -0.5192  0.2958
 1018MOL0     C40410   5.507   6.094   6.464  1.1003 -0.1235  0.6628
 1018MOL0     C40411   5.534   6.211   6.478 -0.3753  0.4357  0.4466
 1018MOL0     C40412   5.056   5.609   6.386  0.6055  0.2931 -1.2206
 1018MOL0     C40413   4.922   5.576   6.354  0.9814  1.2281 -0.1337
 1018MOL0     C40414   4.907   5.462   6.256  0.0753  0.4168 -0.0354
 1018MOL0     H40415   4.328   5.782   6.525 -2.7624 -0.4292  1.9888
 1018MOL0     H40416   4.115   5.672   6.538  2.2513  4.6968 -1.0380
 1018MOL0     H40417   4.013   5.429   6.750  0.4887  0.2192 -2.2732
 1018MOL0     H40418   4.167   5.333   6.753  1.0488 -1.0251 -0.6241
 1018MOL0     H40419   4.063   5.148   6.649 -1.1560 -0.1941 -1.3410
 1018MOL0     H40420   3.983   5.176   6.794 -2.0695  1.0633 -0.7526
 1018MOL0     H40421   3.799   5.303   6.697 -0.4942  1.5500 -1.6023
 1018MOL0     H40422   3.858   5.292   6.543 -1.4724 -2.5519 -0.2020
 1018MOL0     H40423   3.825   5.032   6.534  1.4502 -1.7334  1.8602
 1018MOL0     H40424   3.801   5.041   6.713  0.0026  1.9429  0.6108
 1018MOL0     H40425   3.647   5.221   6.513  1.6472 -1.2434 -0.1241
 1018MOL0     H40426   3.605   5.168   6.679  0.3297  0.5653  0.4275
 1018MOL0     H40427   3.454   5.060   6.515  0.6300  2.4274  0.2944
 1018MOL0     H40428   3.594   4.963   6.458  0.4384  1.0862 -0.6427
 1018MOL0     H40429   3.501   4.964   6.742 -0.3641 -2.0186  0.2999
 1018MOL0     H40430   3.638   4.881   6.676  0.2885  1.4152 -1.4740
 1018MOL0     H40431   3.398   4.750   6.693 -2.3321 -0.2662 -1.0598
 1018MOL0     H40432   3.371   4.827   6.552  0.0368 -1.3477 -0.5192
 1018MOL0     H40433   3.548   4.799   6.314  3.2287 -0.8594 -2.4619
 1018MOL0     H40434   3.628   4.656   6.164 -0.4008 -1.0935 -1.1937
 1018MOL0     H40435   3.660   4.472   6.176 -3.6551 -0.0296  0.0672
 1018MOL0     H40436   3.834   4.555   6.069 -2.5473 -0.7328 -0.5769
 1018MOL0     H40437   3.865   4.673   6.198 -1.3178  0.3920  1.6340
 1018MOL0     H40438   3.968   4.531   6.331  0.4185 -1.8321  1.3487
 1018MOL0     H40439   3.849   4.406   6.320 -0.0301  0.9814 -0.3512
 1018MOL0     H40440   4.096   4.377   6.239 -0.8667 -2.8883  1.1492
 1018MOL0     H40441   3.981   4.295   6.149  2.4376 -0.1186 -1.5468
 1018MOL0     H40442   4.142   4.604   5.877  1.0547 -0.4847  5.9344
 1018MOL0     H40443   4.333   4.610   5.625  2.3536 -3.6243 -0.9561
 1018MOL0     H40444   4.151   4.611   5.640  1.5873  1.9943  4.0820
 1018MOL0     H40445   4.233   4.487   5.541 -1.2804 -1.6828  0.9282
 1018MOL0     H40446   4.423   4.081   5.442 -0.2582 -2.1826  2.0094
 1018MOL0     H40447   4.580   3.955   5.295  2.0564 -2.0396  0.7588
 1018MOL0     H40448   5.014   3.879   5.440 -2.1048  2.7242  2.8385
 1018MOL0     H40449   4.905   3.759   5.502  3.3452  0.7426  1.4280
 1018MOL0     H40450   5.077   3.686   5.324  1.1434  1.0096 -1.0417
 1018MOL0     H40451   4.899   3.655   5.280  1.6326 -0.5498  0.6356
 1018MOL0     H40452   5.116   3.771   5.145 -0.1659 -1.5435 -0.3777
 1018MOL0     H40453   5.005   3.908   5.185  0.4572 -0.5828  3.2814
 1018MOL0     H40454   4.817   3.780   5.099  0.4221 -0.9247 -0.0167
 1018MOL0     H40455   4.926   3.658   5.016 -0.4331 -0.4408  1.2182
 1018MOL0     H40456   4.950   3.957   4.987 -1.9487 -1.4621  2.2998
 1018MOL0     H40457   5.030   3.832   4.889 -0.3716  1.4223 -3.2127
 1018MOL0     H40458   4.829   3.760   4.782  1.1960  0.4086 -0.0298
 1018MOL0     H40459   4.853   3.934   4.752 -1.7413  2.4934  1.7188
 1018MOL0     H40460   4.687   3.982   4.902  1.0123 -0.3352  2.9505
 1018MOL0     H40461   4.657   3.796   4.928  2.6889 -0.9228 -0.3159
 1018MOL0     H40462   4.494   3.848   4.782 -1.1492 -1.7545 -1.7704
 1018MOL0     H40463   4.615   3.771   4.678 -0.2470  1.3529 -1.3272
 1018MOL0     H40464   4.873   3.967   5.620  0.7989  1.3404  0.6909
 1018MOL0     H40465   4.722   4.072   5.752  1.5290 -2.8546 -0.5262
 1018MOL0     H40466   4.319   4.143   5.875 -1.6604 -0.1142  1.0184
 1018MOL0     H40467   4.165   4.229   6.050  3.3495 -1.9044 -1.0866
 1018MOL0     H40468   4.313   5.292   6.580 -5.2370 -0.2613  2.6441
 1018MOL0     H40469   4.537   5.395   6.506  1.3503  2.2207 -0.0725
 1018MOL0     H40470   4.778   5.767   6.603  0.7900 -0.6935  2.7322
 1018MOL0     H40471   4.983   5.843   6.620  3.0912 -1.2901  1.2398
 1018MOL0     H40472   5.321   5.595   6.472  0.0742 -0.0260  0.6597
 1018MOL0     H40473   5.348   5.741   6.380  1.2045  1.1256  0.6587
 1018MOL0     H40474   5.512   5.662   6.551  1.2056  1.0790 -3.6500
 1018MOL0     H40475   5.403   5.695   6.678  1.3299  1.0590  1.3354
 1018MOL0     H40476   5.426   5.928   6.668  0.9924  0.7807  0.9261
 1018MOL0     H40477   5.593   5.869   6.610  0.6665 -1.6082 -0.3004
 1018MOL0     H40478   5.374   5.960   6.425  1.1300  3.2027 -0.3749
 1018MOL0     H40479   5.531   5.893   6.384 -2.2471 -1.8929 -0.9046
 1018MOL0     H40480   5.570   6.312   6.473  1.4412 -0.1026  1.7090
 1018MOL0     H40481   5.138   5.552   6.344  1.6575  0.8231  0.0347
 1018MOL0     H40482   4.825   5.466   6.184 -4.1265  0.9127  4.3019
 1018MOL0     H40483   5.001   5.443   6.203  1.1709 -0.7931  2.2146
 1018MOL0     H40484   4.883   5.370   6.309 -0.6517 -0.6636 -2.1140
 1019MOL0     O40485   5.192  11.341   8.519 -0.1290  0.7594  0.1134
 1019MOL0     C40486   5.112  11.420   8.559  0.2552 -0.2317 -0.0392
 1019MOL0     O40487   5.019  11.492   8.494  0.1820  0.0860  0.3273
 1019MOL0     C40488   4.976  11.446   8.371  0.6391 -0.3458 -0.6574
 1019MOL0     C40489   5.042  11.365   8.283 -0.0684 -1.3481  0.0960
 1019MOL0     C40490   4.989  11.306   8.168 -0.3917 -0.5998 -0.3487
 1019MOL0     C40491   4.855  11.335   8.146  0.3123 -0.5011  0.7596
 1019MOL0     O40492   4.771  11.293   8.045 -0.2933 -0.1509  0.1675
 1019MOL0     C40493   4.821  11.195   7.948  0.1514 -0.5327  0.0869
 1019MOL0     C40494   4.857  11.065   8.009  0.0484  0.4550 -0.3057
 1019MOL0     C40495   4.882  10.954   7.898 -0.0215 -0.0835 -0.0833
 1019MOL0     C40496   5.026  10.964   7.846  0.3816  0.3756 -0.0993
 1019MOL0     C40497   5.048  10.851   7.742  0.2481  0.2214 -0.2578
 1019MOL0     C40498   5.044  10.708   7.805  0.3603  0.1347  0.7653
 1019MOL0     C40499   5.082  10.598   7.701 -0.2438 -0.0315 -0.9660
 1019MOL0     C40500   5.229  10.609   7.661  0.1105 -0.5349 -0.0145
 1019MOL0     N40501   5.321  10.570   7.768 -0.6431  0.3157  0.1906
 1019MOL0     C40502   5.320  10.471   7.856 -0.1845 -0.4749  0.5056
 1019MOL0     C40503   5.424  10.496   7.940 -0.4344 -0.4395  0.3167
 1019MOL0     C40504   5.462  10.431   8.067 -0.3516  0.0306 -0.7049
 1019MOL0     C40505   5.565  10.304   8.061 -0.9444  0.1870  0.2585
 1019MOL0     C40506   5.563  10.236   8.205 -0.0666 -0.7682  0.4476
 1019MOL0     C40507   5.689  10.153   8.231 -0.0638  1.1622  0.4492
 1019MOL0     O40508   5.671  10.050   8.129  0.4970  0.1562 -1.0528
 1019MOL0     C40509   5.758   9.948   8.111  0.5079 -0.3397 -0.6883
 1019MOL0     C40510   5.878   9.929   8.178 -0.3329  0.4765 -1.0425
 1019MOL0     C40511   5.953   9.810   8.164  0.6537 -0.0813  0.6275
 1019MOL0     C40512   6.073   9.795   8.254  0.5558  0.5977 -0.4448
 1019MOL0     C40513   5.908   9.713   8.061 -0.7737 -0.2799 -0.1801
 1019MOL0     C40514   5.971   9.583   8.049  0.1671  0.4676  0.0362
 1019MOL0     O40515   6.101   9.566   8.087 -0.0414 -0.5849 -0.2156
 1019MOL0     C40516   6.161   9.450   8.108 -1.2772 -0.0541  0.1937
 1019MOL0     C40517   6.214   9.419   8.232 -0.1516 -0.3879 -0.0663
 1019MOL0     C40518   6.268   9.297   8.258  0.9774  0.0361 -0.9839
 1019MOL0     C40519   6.288   9.202   8.160  0.1292 -0.2962  0.1694
 1019MOL0     O40520   6.335   9.072   8.168  1.1653  0.3325 -0.1277
 1019MOL0     C40521   6.337   9.031   8.307 -0.0360  0.2663 -0.0502
 1019MOL0     C40522   6.321   8.875   8.305  0.3000 -0.4506  0.1072
 1019MOL0     C40523   6.305   8.819   8.446 -0.4811  0.7715 -0.6517
 1019MOL0     C40524   6.415   8.866   8.542 -0.6175 -0.2060 -0.0956
 1019MOL0     C40525   6.439   8.742   8.630 -0.0286  0.5020 -0.3965
 1019MOL0     C40526   6.522   8.765   8.753  0.2045  0.2478  0.7986
 1019MOL0     C40527   6.526   8.644   8.842 -0.8189  0.1325  0.2813
 1019MOL0     C40528   6.634   8.656   8.952  1.1074  0.4870  0.1359
 1019MOL0    Cl40529   6.644   8.495   9.028  0.0613 -0.1411  0.1451
 1019MOL0     C40530   6.247   9.231   8.030 -0.1536 -0.0991 -1.5199
 1019MOL0     C40531   6.177   9.350   8.008 -0.0044 -0.0487  1.0554
 1019MOL0     O40532   5.900   9.492   8.001  0.7897 -0.6079  0.6151
 1019MOL0     C40533   5.797   9.747   7.986  0.8236  0.1971 -0.4628
 1019MOL0     C40534   5.728   9.864   8.007  0.2885  0.0549 -0.4568
 1019MOL0     N40535   5.490  10.608   7.898 -0.2859 -0.9432 -0.2646
 1019MOL0     N40536   5.436  10.648   7.790  0.1680  0.2188  0.2409
 1019MOL0     C40537   4.783  11.422   8.231  0.0412  0.0004  0.1374
 1019MOL0     C40538   4.844  11.472   8.349  1.1043  0.0367  0.8464
 1019MOL0     C40539   5.107  11.446   8.709 -0.8666 -0.5550  0.0725
 1019MOL0     C40540   4.997  11.528   8.753 -0.2723  0.1332  0.5527
 1019MOL0     C40541   4.968  11.546   8.888  0.0967  0.2477 -1.1601
 1019MOL0     C40542   5.031  11.469   8.984 -0.5023  0.2199  0.5783
 1019MOL0     O40543   5.015  11.498   9.118  0.0160  0.4915 -0.9712
 1019MOL0     C40544   4.896  11.419   9.164  0.1862  0.0674 -0.4042
 1019MOL0     C40545   4.875  11.428   9.322  0.0266 -0.7430  0.5560
 1019MOL0     C40546   4.968  11.329   9.393  0.0359  0.4450 -0.5611
 1019MOL0     C40547   4.937  11.297   9.538 -0.6895  0.8107  0.2026
 1019MOL0     C40548   5.012  11.178   9.589 -0.1600 -0.6092  0.0513
 1019MOL0     C40549   5.079  11.086   9.623  0.2984  0.1346  0.1251
 1019MOL0     C40550   5.136  11.387   8.944  0.2287  0.3683  0.7333
 1019MOL0     C40551   5.181  11.386   8.807 -0.1305  1.0573 -0.6833
 1019MOL0     C40552   5.307  11.299   8.778  0.3521  0.5425 -0.3457
 1019MOL0     H40553   5.148  11.341   8.295 -0.6684 -3.6079  1.4573
 1019MOL0     H40554   5.052  11.237   8.111  2.4029  0.9131  0.7058
 1019MOL0     H40555   4.907  11.234   7.892 -1.4134  1.3197 -1.1706
 1019MOL0     H40556   4.742  11.185   7.873  0.7514  3.8511 -1.4483
 1019MOL0     H40557   4.952  11.069   8.063  0.9663  0.8690 -1.9003
 1019MOL0     H40558   4.774  11.031   8.071 -1.7746  0.6351 -2.5325
 1019MOL0     H40559   4.867  10.857   7.946  0.8890  0.1730  0.7325
 1019MOL0     H40560   4.815  10.965   7.812  2.1313  0.5107 -1.7789
 1019MOL0     H40561   5.038  11.059   7.793 -3.0694  1.2834  0.5392
 1019MOL0     H40562   5.105  10.952   7.921  1.2796 -1.5966 -1.2698
 1019MOL0     H40563   5.147  10.862   7.696 -1.0660  0.3277 -3.3597
 1019MOL0     H40564   4.975  10.860   7.661 -1.2298  0.8248  1.0835
 1019MOL0     H40565   5.124  10.714   7.880 -0.2153 -0.1813  1.4152
 1019MOL0     H40566   4.947  10.688   7.850 -0.9809  0.3537 -1.8649
 1019MOL0     H40567   5.012  10.587   7.617 -0.7367 -3.6273 -0.2353
 1019MOL0     H40568   5.060  10.499   7.743 -2.6034  0.4588 -0.8813
 1019MOL0     H40569   5.243  10.543   7.575  2.7395 -1.1644  0.7984
 1019MOL0     H40570   5.245  10.708   7.617  0.7351 -1.6178 -2.4181
 1019MOL0     H40571   5.251  10.387   7.868  0.5502 -1.2401 -0.4328
 1019MOL0     H40572   5.367  10.404   8.114  0.4277  0.3194  1.1094
 1019MOL0     H40573   5.511  10.495   8.141  0.1210  1.5172 -2.2248
 1019MOL0     H40574   5.539  10.237   7.979  0.4036 -0.4781  0.3481
 1019MOL0     H40575   5.665  10.340   8.033 -1.2302 -0.1978 -1.3447
 1019MOL0     H40576   5.577  10.315   8.278  2.6111 -1.6226  0.9572
 1019MOL0     H40577   5.469  10.181   8.222  0.8202 -1.6547  2.9265
 1019MOL0     H40578   5.788  10.198   8.226  2.7992 -4.4594 -3.7027
 1019MOL0     H40579   5.683  10.103   8.328 -0.1533 -2.0215 -1.0637
 1019MOL0     H40580   5.907  10.000   8.255  1.4508 -0.8852 -0.3931
 1019MOL0     H40581   6.077   9.860   8.342 -0.2004  0.5447 -0.3624
 1019MOL0     H40582   6.164   9.821   8.199  1.5396 -0.5632  0.5886
 1019MOL0     H40583   6.074   9.690   8.284 -0.8585  0.9730  1.0572
 1019MOL0     H40584   6.194   9.491   8.311 -2.4506 -0.0271 -0.9073
 1019MOL0     H40585   6.317   9.295   8.355  0.6819 -0.1852 -0.8381
 1019MOL0     H40586   6.431   9.048   8.361 -0.8777 -0.3730  1.6974
 1019MOL0     H40587   6.256   9.082   8.360 -1.7872 -0.3194 -2.0419
 1019MOL0     H40588   6.229   8.846   8.254  0.0307  0.8690 -0.2139
 1019MOL0     H40589   6.395   8.820   8.247 -0.9334 -1.2305 -0.7664
 1019MOL0     H40590   6.304   8.712   8.427  1.1262  0.6710 -0.2946
 1019MOL0     H40591   6.207   8.833   8.493 -0.7171  0.7143 -1.1268
 1019MOL0     H40592   6.376   8.951   8.599  1.1302  2.4805 -2.5848
 1019MOL0     H40593   6.498   8.901   8.479  0.2622 -1.5388  0.2795
 1019MOL0     H40594   6.341   8.706   8.665  1.0323 -0.2929  1.9539
 1019MOL0     H40595   6.482   8.662   8.569 -0.7945 -0.2591  0.0276
 1019MOL0     H40596   6.488   8.850   8.813 -0.2471  2.4214 -2.3091
 1019MOL0     H40597   6.624   8.795   8.726 -0.0999  0.8935  0.3495
 1019MOL0     H40598   6.548   8.552   8.787  2.9751  2.4258 -2.5225
 1019MOL0     H40599   6.432   8.633   8.897  0.3809 -1.6046  2.1325
 1019MOL0     H40600   6.615   8.745   9.013 -0.5593  3.8781 -4.7590
 1019MOL0     H40601   6.725   8.675   8.894  0.9058  1.8695  0.2344
 1019MOL0     H40602   6.268   9.145   7.968 -1.0282 -2.2475  1.0018
 1019MOL0     H40603   6.120   9.369   7.917 -0.7984 -2.7032  0.9135
 1019MOL0     H40604   5.753   9.685   7.909 -2.3651 -1.0644  2.1590
 1019MOL0     H40605   5.643   9.892   7.946  0.8822  0.4685 -1.1063
 1019MOL0     H40606   4.681  11.452   8.211  1.0251  3.5499 -0.2574
 1019MOL0     H40607   4.793  11.532   8.423  0.9722  0.5048  0.3828
 1019MOL0     H40608   4.928  11.572   8.681  0.6802 -0.2655 -0.6180
 1019MOL0     H40609   4.884  11.605   8.923  2.3775  1.9776  1.8059
 1019MOL0     H40610   4.811  11.470   9.119 -0.4947  0.3701  1.1526
 1019MOL0     H40611   4.895  11.322   9.114  4.0683 -0.7076  0.6410
 1019MOL0     H40612   4.773  11.410   9.358 -0.2531 -0.2216  0.0547
 1019MOL0     H40613   4.913  11.527   9.351  3.9530 -1.1157 -2.4364
 1019MOL0     H40614   4.963  11.236   9.336 -0.7456  1.1396 -1.6587
 1019MOL0     H40615   5.073  11.356   9.384  0.8442 -0.9591  2.9362
 1019MOL0     H40616   4.835  11.262   9.556 -1.2130 -0.3061 -3.8719
 1019MOL0     H40617   4.964  11.389   9.591  4.6059 -0.2364 -0.1285
 1019MOL0     H40618   5.142  11.010   9.665 -0.0672 -0.6436 -0.6847
 1019MOL0     H40619   5.190  11.338   9.025  0.3910  1.4657  1.3024
 1019MOL0     H40620   5.369  11.347   8.701 -1.6444  2.6846 -0.7411
 1019MOL0     H40621   5.363  11.284   8.872 -0.3809 -4.3019 -0.4388
 1019MOL0     H40622   5.278  11.203   8.737 -0.8724 -0.2135  2.0980
 1020MOL0     O40623   3.291   3.342   8.062  0.2331 -0.8241  1.0591
 1020MOL0     C40624   3.328   3.318   8.173 -0.5043  0.4075  0.3420
 1020MOL0     O40625   3.321   3.203   8.240  0.3921  0.2021 -0.5780
 1020MOL0     C40626   3.343   3.082   8.174 -0.3161  1.0209 -0.7487
 1020MOL0     C40627   3.334   2.962   8.251 -0.5994 -0.1903  0.0989
 1020MOL0     C40628   3.366   2.832   8.197 -0.9479  0.0695 -0.5245
 1020MOL0     C40629   3.408   2.818   8.063 -0.7915 -0.7162 -0.9178
 1020MOL0     O40630   3.426   2.690   8.017  0.6762 -0.3051  0.6892
 1020MOL0     C40631   3.298   2.634   7.972 -0.5443 -0.5275 -1.4458
 1020MOL0     C40632   3.335   2.491   7.939 -0.0185  0.0654 -0.2992
 1020MOL0     C40633   3.205   2.406   7.919 -0.0387  0.2832 -0.4047
 1020MOL0     C40634   3.152   2.351   8.066  0.3102 -1.0321  0.5885
 1020MOL0     C40635   3.042   2.268   8.038  0.6052  0.3653 -0.3124
 1020MOL0     C40636   2.998   2.205   8.164 -0.7351  0.4560  0.2291
 1020MOL0     C40637   2.874   2.107   8.151 -1.1447 -0.3805  0.3304
 1020MOL0     C40638   2.754   2.162   8.077 -0.3888  0.7411  0.3500
 1020MOL0     N40639   2.747   2.111   7.937 -0.9027 -0.1506  0.9821
 1020MOL0     C40640   2.641   2.043   7.887  0.1775  0.5561 -0.5859
 1020MOL0     C40641   2.675   2.010   7.755 -1.2142 -0.1354 -0.2597
 1020MOL0     C40642   2.585   1.925   7.673  0.4049 -0.1486  0.6796
 1020MOL0     C40643   2.670   1.803   7.643  0.1098 -0.0589  0.0588
 1020MOL0     C40644   2.629   1.737   7.511 -0.2887  0.0350 -0.7175
 1020MOL0     C40645   2.756   1.640   7.476 -0.5676 -0.1108  0.4421
 1020MOL0     O40646   2.756   1.616   7.338  0.6430  0.8118  0.4973
 1020MOL0     C40647   2.661   1.521   7.285 -0.6601 -1.3985 -0.1344
 1020MOL0     C40648   2.668   1.497   7.148 -0.8801  0.1860 -0.7471
 1020MOL0     C40649   2.581   1.411   7.080 -1.2524  0.0799  0.7777
 1020MOL0     C40650   2.602   1.400   6.931  0.1049 -0.5041 -0.6473
 1020MOL0     C40651   2.488   1.333   7.149  0.6428  0.6218 -0.0613
 1020MOL0     C40652   2.390   1.236   7.094  0.1744 -0.0851 -0.2260
 1020MOL0     O40653   2.419   1.183   6.968  0.5453  0.8133  0.6278
 1020MOL0     C40654   2.320   1.113   6.905 -0.0016 -0.3138  1.0381
 1020MOL0     C40655   2.357   1.018   6.810 -0.7201 -0.4245 -0.3978
 1020MOL0     C40656   2.274   0.974   6.710  0.2267  0.0139 -0.2159
 1020MOL0     C40657   2.138   1.020   6.704 -0.8264  0.0821  0.2934
 1020MOL0     O40658   2.053   0.992   6.602  0.9866  0.1559  0.0599
 1020MOL0     C40659   2.086   1.044   6.470 -0.5075  0.4774  0.7035
 1020MOL0     C40660   1.943   1.049   6.400 -0.3732  0.6105 -0.3879
 1020MOL0     C40661   1.844   1.159   6.441 -0.5621  0.4631 -0.0249
 1020MOL0     C40662   1.728   1.155   6.341  1.2248 -0.6210  0.4408
 1020MOL0     C40663   1.600   1.229   6.402 -0.4772 -0.5452  0.4905
 1020MOL0     C40664   1.476   1.234   6.303 -0.6612 -0.3817  0.5876
 1020MOL0     C40665   1.500   1.188   6.154 -0.5341 -0.8273  1.4831
 1020MOL0     C40666   1.371   1.134   6.085 -0.0757  0.1894  0.9452
 1020MOL0    Cl40667   1.432   1.004   5.976 -0.2691 -0.0645 -0.1663
 1020MOL0     C40668   2.100   1.102   6.806 -0.4868 -0.2492  0.3834
 1020MOL0     C40669   2.176   1.150   6.901 -0.1450 -0.3070  0.0573
 1020MOL0     O40670   2.298   1.197   7.171  0.1467  0.2016 -0.4767
 1020MOL0     C40671   2.490   1.351   7.289 -0.3816  0.0790  0.6125
 1020MOL0     C40672   2.575   1.444   7.356 -0.1021 -0.9439 -0.2938
 1020MOL0     N40673   2.781   2.085   7.714  0.2216 -0.3486 -0.1303
 1020MOL0     N40674   2.830   2.142   7.822  0.7549 -0.4575  0.5145
 1020MOL0     C40675   3.418   2.933   7.983  0.7615 -0.5157 -0.0063
 1020MOL0     C40676   3.379   3.061   8.038 -0.2599 -0.5238 -0.2892
 1020MOL0     C40677   3.338   3.432   8.272  0.0815 -0.3543 -0.4708
 1020MOL0     C40678   3.257   3.445   8.385  0.4564  0.4215 -0.0627
 1020MOL0     C40679   3.262   3.549   8.474 -0.4688 -0.0923 -0.5494
 1020MOL0     C40680   3.342   3.659   8.446  0.7050 -0.1959  0.8628
 1020MOL0     O40681   3.356   3.779   8.503  0.4315 -0.3887  0.0966
 1020MOL0     C40682   3.296   3.793   8.624 -0.9269 -0.4427  0.1783
 1020MOL0     C40683   3.173   3.883   8.619  0.6523  0.8620  0.0198
 1020MOL0     C40684   3.042   3.810   8.597  0.3021 -0.0142  0.0877
 1020MOL0     C40685   2.908   3.890   8.603 -1.4068  0.0544 -0.5126
 1020MOL0     C40686   2.920   4.014   8.522 -0.6474  0.4021 -0.3019
 1020MOL0     C40687   2.923   4.118   8.457  0.5055 -0.3045 -0.2392
 1020MOL0     C40688   3.416   3.649   8.330  0.5664  0.6119 -0.5161
 1020MOL0     C40689   3.424   3.537   8.245  0.8267  0.3447  0.9212
 1020MOL0     C40690   3.519   3.532   8.133 -0.8225 -0.1801  0.4351
 1020MOL0     H40691   3.297   2.967   8.353 -0.6237  0.4556  0.0620
 1020MOL0     H40692   3.352   2.751   8.267  1.8020  2.0014  2.5825
 1020MOL0     H40693   3.262   2.699   7.891 -3.1092  3.6520  2.5612
 1020MOL0     H40694   3.219   2.634   8.048  1.3294  0.4952  0.6136
 1020MOL0     H40695   3.399   2.478   7.851  1.2754 -0.1476  0.6568
 1020MOL0     H40696   3.397   2.455   8.021 -0.7386  3.3858  1.9022
 1020MOL0     H40697   3.127   2.463   7.869 -0.7409  1.4862  1.9052
 1020MOL0     H40698   3.235   2.324   7.854  2.3204  0.9926 -0.2955
 1020MOL0     H40699   3.233   2.303   8.121  0.8996  0.3527  0.9738
 1020MOL0     H40700   3.129   2.436   8.130  1.6576 -0.5625  0.4777
 1020MOL0     H40701   3.058   2.193   7.960 -0.5624  2.6193 -2.8875
 1020MOL0     H40702   2.960   2.329   8.000 -0.5609 -0.6509  0.4837
 1020MOL0     H40703   3.075   2.141   8.208  0.8014  0.5638 -2.1144
 1020MOL0     H40704   2.974   2.279   8.241 -0.3700 -0.5305  1.3194
 1020MOL0     H40705   2.849   2.082   8.255  2.0574 -0.8227  1.0872
 1020MOL0     H40706   2.923   2.021   8.105  1.8119  0.6543  1.2885
 1020MOL0     H40707   2.664   2.122   8.123 -0.8865  1.3219 -0.1051
 1020MOL0     H40708   2.759   2.271   8.072 -0.6086  0.7111 -0.8520
 1020MOL0     H40709   2.553   2.012   7.942  0.4281 -1.0732 -1.0568
 1020MOL0     H40710   2.572   1.979   7.579  1.6533 -0.4571  0.3057
 1020MOL0     H40711   2.491   1.891   7.717 -1.2260  3.0341 -0.0204
 1020MOL0     H40712   2.771   1.840   7.625  0.2405  0.1498  1.1732
 1020MOL0     H40713   2.672   1.736   7.729  1.6173 -0.1822 -0.0524
 1020MOL0     H40714   2.535   1.682   7.523  0.1358 -0.3455  1.1116
 1020MOL0     H40715   2.596   1.811   7.437 -1.0383 -1.3307 -1.8140
 1020MOL0     H40716   2.851   1.692   7.491 -0.1085 -0.3066 -1.5888
 1020MOL0     H40717   2.746   1.550   7.539  0.3917  0.5407  1.5759
 1020MOL0     H40718   2.739   1.556   7.090  2.3411 -2.5174  0.1266
 1020MOL0     H40719   2.680   1.328   6.904  1.1176  1.0466 -2.0453
 1020MOL0     H40720   2.639   1.497   6.895  1.4408 -1.2372 -1.3680
 1020MOL0     H40721   2.512   1.384   6.872 -1.3607  1.2908  0.9840
 1020MOL0     H40722   2.455   0.983   6.840 -1.6792 -0.8556  2.6216
 1020MOL0     H40723   2.316   0.902   6.640  2.8925 -1.1114  2.3188
 1020MOL0     H40724   2.133   1.142   6.483 -1.4378  0.6829  3.0845
 1020MOL0     H40725   2.154   0.978   6.415  0.6163  1.2610  1.1008
 1020MOL0     H40726   1.966   1.070   6.295 -2.2978 -0.0935 -0.9868
 1020MOL0     H40727   1.900   0.949   6.410  0.2551  0.2483 -1.1476
 1020MOL0     H40728   1.888   1.258   6.450 -0.6896  0.3409  2.9892
 1020MOL0     H40729   1.799   1.122   6.534 -4.2687  0.0429 -1.8285
 1020MOL0     H40730   1.699   1.050   6.328 -0.6983  0.0692 -1.3276
 1020MOL0     H40731   1.755   1.199   6.244 -0.6414  1.9553  0.9933
 1020MOL0     H40732   1.572   1.174   6.493 -2.3444  1.2137  1.0530
 1020MOL0     H40733   1.625   1.331   6.431 -3.4825  1.0568 -1.9629
 1020MOL0     H40734   1.404   1.315   6.319  0.0645  0.1545  1.2474
 1020MOL0     H40735   1.423   1.148   6.343 -0.4109 -1.1315 -0.6572
 1020MOL0     H40736   1.578   1.111   6.156  0.2822 -0.0939 -0.1432
 1020MOL0     H40737   1.543   1.273   6.101 -1.8999  0.9424  3.0961
 1020MOL0     H40738   1.318   1.211   6.028 -2.5484  0.9059  3.9317
 1020MOL0     H40739   1.306   1.094   6.163 -4.7058  0.3199 -2.4317
 1020MOL0     H40740   1.995   1.128   6.794 -0.1392  0.3529 -1.7593
 1020MOL0     H40741   2.156   1.233   6.968 -1.4344 -0.8267  0.3517
 1020MOL0     H40742   2.440   1.281   7.355  1.2585 -1.5381  0.2322
 1020MOL0     H40743   2.569   1.455   7.463  2.4101 -3.3317  0.1954
 1020MOL0     H40744   3.450   2.922   7.880  3.2734  1.8391  0.3858
 1020MOL0     H40745   3.392   3.147   7.972 -0.9280 -0.8303 -0.8403
 1020MOL0     H40746   3.192   3.360   8.405 -0.4862  0.9446 -0.8469
 1020MOL0     H40747   3.191   3.560   8.555 -0.6448 -0.6234 -0.6299
 1020MOL0     H40748   3.282   3.699   8.677  1.6048  1.1868  4.2786
 1020MOL0     H40749   3.376   3.851   8.672 -0.4030  0.5538 -1.7901
 1020MOL0     H40750   3.183   3.943   8.528  0.0056 -1.4027 -1.6584
 1020MOL0     H40751   3.161   3.947   8.707  1.9031  0.7682  0.2743
 1020MOL0     H40752   3.052   3.761   8.500 -0.9204 -3.7464  1.6571
 1020MOL0     H40753   3.040   3.729   8.671  0.6967  0.7149  0.9202
 1020MOL0     H40754   2.898   3.918   8.708 -0.2927 -1.5998  0.0799
 1020MOL0     H40755   2.823   3.827   8.576 -0.7122 -2.0992  1.8975
 1020MOL0     H40756   2.919   4.214   8.409 -0.9274  0.4634  1.2782
 1020MOL0     H40757   3.473   3.735   8.296  0.6833  0.3614 -0.9750
 1020MOL0     H40758   3.568   3.629   8.122 -3.0999  1.0556  0.6854
 1020MOL0     H40759   3.604   3.463   8.135 -0.9062 -0.3279 -0.6722
 1020MOL0     H40760   3.476   3.512   8.034  1.1351 -1.1332 -0.2861
 1021MOL0     O40761   5.270   9.949   9.969  0.4782  0.0159  0.0999
 1021MOL0     C40762   5.214  10.014  10.052  0.0128  0.1049  0.2594
 1021MOL0     O40763   5.117   9.961  10.128  0.4255 -0.2565  0.6656
 1021MOL0     C40764   5.066   9.840  10.087 -0.2668  0.2858  0.1893
 1021MOL0     C40765   5.115   9.714  10.123 -0.2920 -0.1273 -0.8097
 1021MOL0     C40766   5.060   9.598  10.062 -0.1340  0.5590 -0.0791
 1021MOL0     C40767   4.949   9.606   9.974 -1.1006 -0.0550  1.1711
 1021MOL0     O40768   4.889   9.495   9.921  0.3503  0.3539 -0.3951
 1021MOL0     C40769   4.781   9.518   9.830  0.0670 -0.7636 -0.0705
 1021MOL0     C40770   4.774   9.382   9.754 -0.6687 -0.1643  0.4558
 1021MOL0     C40771   4.902   9.357   9.665  0.7283 -0.6340 -0.0808
 1021MOL0     C40772   4.918   9.212   9.625 -0.0927  0.7789 -1.2588
 1021MOL0     C40773   5.006   9.167   9.511 -0.6071 -0.3997 -0.5373
 1021MOL0     C40774   5.148   9.220   9.523 -0.7571  0.2884 -0.0095
 1021MOL0     C40775   5.223   9.184   9.393 -0.1395  1.4646 -1.3664
 1021MOL0     C40776   5.220   9.289   9.278  0.0668  0.3134 -0.2148
 1021MOL0     N40777   5.101   9.288   9.199 -0.5064 -0.0683  0.1317
 1021MOL0     C40778   5.059   9.194   9.108 -0.3017  0.1384 -0.7344
 1021MOL0     C40779   4.926   9.226   9.076 -0.3962  0.0059  0.1905
 1021MOL0     C40780   4.833   9.159   8.977  0.4843  0.0942 -0.8831
 1021MOL0     C40781   4.899   9.123   8.846 -0.4544  0.9459  0.3594
 1021MOL0     C40782   4.813   9.105   8.723  0.3403  0.9763 -0.2213
 1021MOL0     C40783   4.681   9.036   8.763  0.3579 -0.2923  0.3064
 1021MOL0     O40784   4.586   9.013   8.655  0.1755 -0.2519 -0.1243
 1021MOL0     C40785   4.492   8.917   8.657 -0.7184  0.2850 -0.1712
 1021MOL0     C40786   4.429   8.867   8.771 -0.8162  0.2959  0.6122
 1021MOL0     C40787   4.347   8.759   8.771  0.7713  0.7651  0.5855
 1021MOL0     C40788   4.288   8.719   8.900  0.5414 -0.7233  0.2648
 1021MOL0     C40789   4.325   8.681   8.651  0.5411 -0.2502 -0.2612
 1021MOL0     C40790   4.235   8.562   8.643 -0.2310 -0.0524  0.5833
 1021MOL0     O40791   4.206   8.485   8.759  0.2393 -0.0169  0.8424
 1021MOL0     C40792   4.092   8.421   8.762  0.4023 -0.3750  0.0651
 1021MOL0     C40793   4.020   8.445   8.877 -0.3836 -0.6532  1.1441
 1021MOL0     C40794   3.903   8.379   8.899 -0.4995 -0.1830 -0.1696
 1021MOL0     C40795   3.853   8.281   8.815 -0.5516  0.0001 -0.5772
 1021MOL0     O40796   3.736   8.214   8.822  0.0121  0.3633  0.2742
 1021MOL0     C40797   3.638   8.244   8.922 -0.1152 -0.4309 -0.0948
 1021MOL0     C40798   3.536   8.135   8.919  0.5875  0.2192 -1.0548
 1021MOL0     C40799   3.402   8.191   8.979 -0.3132  0.2047 -0.6482
 1021MOL0     C40800   3.308   8.069   8.992 -1.1027  0.4406 -0.3721
 1021MOL0     C40801   3.166   8.111   9.014 -0.8853 -0.5084 -0.5630
 1021MOL0     C40802   3.066   7.991   9.037 -0.3157  0.3482  0.4969
 1021MOL0     C40803   2.930   8.019   8.971  0.4920 -1.1027 -0.3729
 1021MOL0     C40804   2.827   7.932   9.022 -0.6130 -0.6334 -0.2589
 1021MOL0    Cl40805   2.794   7.945   9.199 -0.2025 -0.0227  0.0974
 1021MOL0     C40806   3.934   8.253   8.702  1.6127  0.0165 -0.1538
 1021MOL0     C40807   4.049   8.322   8.674 -0.1618 -0.3536 -0.5258
 1021MOL0     O40808   4.192   8.537   8.531 -0.1158  0.1606 -0.8955
 1021MOL0     C40809   4.386   8.734   8.536  0.8215  0.8750 -0.3657
 1021MOL0     C40810   4.469   8.851   8.538  1.3199 -0.5397  0.4508
 1021MOL0     N40811   4.893   9.336   9.153 -1.0111 -0.2537 -0.7178
 1021MOL0     N40812   5.000   9.375   9.219  0.2942  0.2223 -0.0621
 1021MOL0     C40813   4.901   9.732   9.958 -0.1998  0.4910 -0.5407
 1021MOL0     C40814   4.956   9.852  10.010  0.0697  1.0893  0.1782
 1021MOL0     C40815   5.252  10.155  10.099 -0.1186  0.0871 -0.4212
 1021MOL0     C40816   5.172  10.220  10.198 -1.1242 -0.2073 -0.7512
 1021MOL0     C40817   5.211  10.352  10.244  0.4249 -0.2573 -0.2771
 1021MOL0     C40818   5.314  10.431  10.185  0.6885 -0.8596 -0.1986
 1021MOL0     O40819   5.342  10.560  10.225  1.1289 -0.0302 -0.0602
 1021MOL0     C40820   5.480  10.574  10.261  0.0793  0.6878 -0.6374
 1021MOL0     C40821   5.496  10.701  10.347  1.2379  0.2278  0.0491
 1021MOL0     C40822   5.637  10.703  10.407  0.1193 -0.6009  1.1543
 1021MOL0     C40823   5.651  10.844  10.468 -0.7466 -0.0190  0.4224
 1021MOL0     C40824   5.594  10.859  10.600  1.2357 -0.8893  0.1183
 1021MOL0     C40825   5.553  10.870  10.713 -0.3640 -0.4852 -0.3638
 1021MOL0     C40826   5.381  10.368  10.080 -1.4298  0.6210 -0.2872
 1021MOL0     C40827   5.354  10.234  10.042  0.0717 -0.4192 -0.3604
 1021MOL0     C40828   5.437  10.171   9.929  0.1493 -0.6320 -0.5125
 1021MOL0     H40829   5.193   9.697  10.196 -1.9650 -2.4913  0.5712
 1021MOL0     H40830   5.118   9.507  10.076  3.8763  2.3427 -2.9380
 1021MOL0     H40831   4.818   9.583   9.751 -0.3875 -1.2309 -0.6793
 1021MOL0     H40832   4.689   9.553   9.879 -1.5224 -3.5584 -0.8075
 1021MOL0     H40833   4.765   9.296   9.821  0.7975 -2.8729 -2.5627
 1021MOL0     H40834   4.680   9.381   9.697  0.5732 -2.0960 -1.7442
 1021MOL0     H40835   4.895   9.413   9.571  1.1999  1.4989  1.0869
 1021MOL0     H40836   4.992   9.386   9.721  0.3903  1.3889 -0.4756
 1021MOL0     H40837   4.953   9.162   9.715 -0.4210 -0.4765 -1.8037
 1021MOL0     H40838   4.818   9.168   9.614 -0.4710  0.2767  2.8819
 1021MOL0     H40839   4.954   9.218   9.430  0.9480  1.6132 -0.3574
 1021MOL0     H40840   5.018   9.060   9.487  1.6620  0.6134 -5.1620
 1021MOL0     H40841   5.133   9.327   9.538 -2.4040 -0.2333  2.4682
 1021MOL0     H40842   5.196   9.174   9.610  0.8822  2.4448  0.3203
 1021MOL0     H40843   5.197   9.090   9.344  1.6808 -0.7286  1.4790
 1021MOL0     H40844   5.322   9.153   9.429 -1.8079  0.1546  2.7012
 1021MOL0     H40845   5.223   9.390   9.319  0.6227 -0.1100  0.8196
 1021MOL0     H40846   5.302   9.268   9.208 -1.1307  1.0075 -1.9032
 1021MOL0     H40847   5.113   9.110   9.066 -0.9367 -0.4349 -0.4219
 1021MOL0     H40848   4.766   9.241   8.952  3.6683  3.2847  0.1577
 1021MOL0     H40849   4.787   9.071   9.024 -0.9560  1.5267  0.4997
 1021MOL0     H40850   4.982   9.190   8.824  0.5637  1.3045  4.5490
 1021MOL0     H40851   4.944   9.025   8.865 -1.2485  0.6498  0.7768
 1021MOL0     H40852   4.798   9.206   8.685 -4.1140  0.7675  0.5298
 1021MOL0     H40853   4.865   9.036   8.656 -0.0918  0.2009  0.2209
 1021MOL0     H40854   4.706   8.936   8.798 -0.9991 -0.1430  1.8078
 1021MOL0     H40855   4.639   9.104   8.838  0.2562  2.5867 -2.1298
 1021MOL0     H40856   4.450   8.937   8.851 -0.9469  1.7397 -0.5777
 1021MOL0     H40857   4.325   8.792   8.973  3.8607 -3.3898  1.5281
 1021MOL0     H40858   4.304   8.615   8.931  0.3177 -1.0450 -0.6700
 1021MOL0     H40859   4.181   8.740   8.894 -0.0052 -3.0889  0.5588
 1021MOL0     H40860   4.065   8.526   8.933 -1.5714 -0.0755  1.2930
 1021MOL0     H40861   3.833   8.407   8.977  1.6865  0.2219  1.7584
 1021MOL0     H40862   3.659   8.260   9.028 -0.6731  0.9079 -0.1683
 1021MOL0     H40863   3.591   8.338   8.892 -1.2990 -0.4900  1.4413
 1021MOL0     H40864   3.512   8.108   8.815 -1.6718  1.9929 -1.0679
 1021MOL0     H40865   3.576   8.047   8.969  0.6127  0.1297 -1.2317
 1021MOL0     H40866   3.347   8.254   8.907  0.3641  0.7318 -0.7113
 1021MOL0     H40867   3.412   8.235   9.079  0.1025 -1.7637  0.2054
 1021MOL0     H40868   3.353   8.012   9.074 -1.0738 -0.9446 -1.3154
 1021MOL0     H40869   3.320   8.003   8.906 -1.8166 -2.2817  1.4868
 1021MOL0     H40870   3.161   8.166   9.108 -0.4605  1.1775 -1.4893
 1021MOL0     H40871   3.131   8.180   8.936  3.2478  2.1863 -0.3440
 1021MOL0     H40872   3.054   7.981   9.145 -0.2977 -0.6009  0.4254
 1021MOL0     H40873   3.109   7.900   8.993  1.2577  0.3571  1.9228
 1021MOL0     H40874   2.947   8.011   8.863  1.8792 -0.2066 -0.2409
 1021MOL0     H40875   2.903   8.125   8.983 -0.8953 -1.5188  0.2932
 1021MOL0     H40876   2.854   7.829   8.996  0.0107 -1.5090  3.3599
 1021MOL0     H40877   2.734   7.945   8.965 -1.0565  0.7610  0.7383
 1021MOL0     H40878   3.890   8.169   8.648 -1.9167  0.6528  1.4316
 1021MOL0     H40879   4.119   8.293   8.597  0.8075 -0.9577  0.5493
 1021MOL0     H40880   4.372   8.692   8.437  2.0059  0.7795 -0.5048
 1021MOL0     H40881   4.515   8.888   8.447 -0.7180  1.1846  0.0507
 1021MOL0     H40882   4.820   9.751   9.887  3.0910  3.1596 -3.9774
 1021MOL0     H40883   4.922   9.949   9.976  0.3781  1.2595  0.3485
 1021MOL0     H40884   5.084  10.174  10.241  0.1661 -1.6787  0.4180
 1021MOL0     H40885   5.150  10.403  10.318 -1.1782 -1.1929 -0.9177
 1021MOL0     H40886   5.521  10.495  10.324 -0.6056  0.9136  0.1009
 1021MOL0     H40887   5.542  10.585  10.170 -1.0794  3.5059 -1.2057
 1021MOL0     H40888   5.428  10.699  10.433  0.5033 -0.9341 -0.5448
 1021MOL0     H40889   5.459  10.788  10.292 -3.1897 -1.1179  0.5398
 1021MOL0     H40890   5.666  10.618  10.469  0.9061 -2.1179 -1.1532
 1021MOL0     H40891   5.711  10.701  10.327 -1.5009 -1.5296 -0.3900
 1021MOL0     H40892   5.604  10.924  10.409  0.0053  0.7801  0.8751
 1021MOL0     H40893   5.760  10.847  10.472 -0.7079 -0.7646 -0.0568
 1021MOL0     H40894   5.521  10.892  10.813 -2.0419  0.0912 -0.9902
 1021MOL0     H40895   5.467  10.419  10.037 -0.8989 -0.0361 -0.0243
 1021MOL0     H40896   5.496  10.084   9.958  0.0654 -0.4337  0.2900
 1021MOL0     H40897   5.372  10.141   9.847  3.1915 -1.5263 -2.7761
 1021MOL0     H40898   5.509  10.239   9.882  0.7512 -0.6812  0.3165
 1022MOL0     O40899   6.041   6.203   8.626  0.1804 -0.0196 -0.4385
 1022MOL0     C40900   5.973   6.136   8.708 -0.1580 -0.4599  0.0864
 1022MOL0     O40901   5.888   6.030   8.664  0.8659  0.5806  0.4404
 1022MOL0     C40902   5.839   6.034   8.540 -0.1271 -0.1509  0.6571
 1022MOL0     C40903   5.890   5.940   8.456  0.4017  0.3595 -0.2511
 1022MOL0     C40904   5.848   5.939   8.325  0.1697  1.2269 -0.0015
 1022MOL0     C40905   5.753   6.029   8.274 -0.6439 -0.9716  0.7708
 1022MOL0     O40906   5.709   6.012   8.143  0.0709  0.1324 -1.2221
 1022MOL0     C40907   5.609   6.105   8.086 -0.2498  0.2853  0.0874
 1022MOL0     C40908   5.577   6.071   7.938 -0.2079  0.7157 -0.5942
 1022MOL0     C40909   5.433   6.107   7.894  0.1506  0.2630  0.0017
 1022MOL0     C40910   5.432   6.258   7.851 -0.0158 -0.2124  0.4186
 1022MOL0     C40911   5.289   6.291   7.816 -0.1945 -0.8200 -0.0097
 1022MOL0     C40912   5.213   6.215   7.704  0.1416  0.5700  1.1904
 1022MOL0     C40913   5.305   6.220   7.578  0.5325  0.2314 -0.0652
 1022MOL0     C40914   5.252   6.130   7.464  0.3052 -0.0041  0.0023
 1022MOL0     N40915   5.123   6.168   7.397 -0.2082 -0.2848  1.3214
 1022MOL0     C40916   5.070   6.135   7.271 -1.0614  0.8908 -1.6238
 1022MOL0     C40917   4.955   6.192   7.254 -0.3594  0.0040 -0.6873
 1022MOL0     C40918   4.847   6.165   7.148 -0.0893 -0.3525  0.7841
 1022MOL0     C40919   4.781   6.026   7.176  0.7466 -0.1833 -0.6435
 1022MOL0     C40920   4.626   6.044   7.150 -1.1562  1.6384  0.6558
 1022MOL0     C40921   4.556   5.921   7.215  0.4435 -0.0782 -0.4633
 1022MOL0     O40922   4.580   5.811   7.123 -0.2195 -0.0091  0.2599
 1022MOL0     C40923   4.498   5.703   7.141 -0.2664  0.6925  0.5062
 1022MOL0     C40924   4.491   5.618   7.033 -0.6181 -0.2894  1.0437
 1022MOL0     C40925   4.399   5.518   7.017  0.9180  0.0366  0.0266
 1022MOL0     C40926   4.401   5.439   6.894 -0.9604  0.4909  0.8391
 1022MOL0     C40927   4.290   5.511   7.114  0.1139  0.0702 -0.1648
 1022MOL0     C40928   4.160   5.446   7.098 -0.0994 -0.0772  0.0058
 1022MOL0     O40929   4.155   5.309   7.141  0.4774 -0.4899 -0.1850
 1022MOL0     C40930   4.028   5.249   7.149 -0.4238  0.0605  0.2527
 1022MOL0     C40931   4.013   5.153   7.248  0.3420  1.0354  0.1021
 1022MOL0     C40932   3.888   5.077   7.267 -0.1803 -0.1341 -0.6743
 1022MOL0     C40933   3.789   5.091   7.170  0.0758  0.5852 -0.5443
 1022MOL0     O40934   3.671   5.028   7.197 -0.4058 -0.6061  0.5356
 1022MOL0     C40935   3.659   4.897   7.141  0.6856 -0.1264  0.5452
 1022MOL0     C40936   3.504   4.873   7.096 -0.1157 -0.2081 -0.7892
 1022MOL0     C40937   3.415   4.826   7.212  0.5885  0.2190 -0.0671
 1022MOL0     C40938   3.290   4.748   7.179  0.0950  0.1480 -0.7430
 1022MOL0     C40939   3.316   4.599   7.150  0.0188  0.0468 -0.7275
 1022MOL0     C40940   3.210   4.526   7.061  0.6630  0.6057  0.2005
 1022MOL0     C40941   3.247   4.528   6.913 -0.6425  0.2334  0.5918
 1022MOL0     C40942   3.132   4.487   6.835 -0.2053  0.9734  0.7637
 1022MOL0    Cl40943   3.200   4.423   6.682 -0.0316  0.2556  0.3663
 1022MOL0     C40944   3.810   5.177   7.055  0.8277 -0.5179 -0.7353
 1022MOL0     C40945   3.928   5.250   7.048  0.0428 -1.7842  0.0411
 1022MOL0     O40946   4.071   5.516   7.051 -0.0323 -0.1989  0.8145
 1022MOL0     C40947   4.300   5.598   7.226 -0.6479 -0.4194 -0.0823
 1022MOL0     C40948   4.407   5.692   7.241  0.3815 -0.0214 -0.5131
 1022MOL0     N40949   4.935   6.269   7.368 -0.2134 -0.2646  0.6669
 1022MOL0     N40950   5.040   6.264   7.446  0.8240  0.2512 -0.4494
 1022MOL0     C40951   5.700   6.125   8.359 -0.6207  0.3597 -0.2441
 1022MOL0     C40952   5.751   6.127   8.495 -0.0394 -0.8164  0.2270
 1022MOL0     C40953   6.017   6.148   8.850 -0.3269  0.2363 -0.4845
 1022MOL0     C40954   6.127   6.233   8.888 -1.3028 -0.4034 -0.2423
 1022MOL0     C40955   6.155   6.256   9.022  0.3322 -0.0379  0.2842
 1022MOL0     C40956   6.096   6.197   9.125  0.9070 -0.0638 -0.6547
 1022MOL0     O40957   6.125   6.201   9.262  0.0129 -0.3935  0.3904
 1022MOL0     C40958   6.131   6.336   9.305  0.0609  0.2760 -0.1115
 1022MOL0     C40959   5.989   6.403   9.332 -0.9631  0.5681  0.3138
 1022MOL0     C40960   6.005   6.540   9.389  0.1679  0.5838 -0.1999
 1022MOL0     C40961   5.886   6.591   9.476  0.1838 -0.6495 -0.8215
 1022MOL0     C40962   5.759   6.586   9.392  0.1920 -0.3107 -0.4965
 1022MOL0     C40963   5.650   6.587   9.338  0.1254  0.9121 -0.0389
 1022MOL0     C40964   5.984   6.121   9.098  0.0368 -0.7138 -1.1628
 1022MOL0     C40965   5.951   6.084   8.968 -0.2014 -0.1147  0.4464
 1022MOL0     C40966   5.852   5.967   8.960  1.2672 -0.4114 -0.0659
 1022MOL0     H40967   5.948   5.861   8.502  0.7623  0.6227 -0.2502
 1022MOL0     H40968   5.871   5.848   8.271 -2.3016 -0.3869  1.5223
 1022MOL0     H40969   5.652   6.205   8.079 -2.6131  1.2883 -1.3212
 1022MOL0     H40970   5.521   6.100   8.151  2.3172 -1.1411  3.8132
 1022MOL0     H40971   5.650   6.131   7.882  1.6035  0.0942  0.9934
 1022MOL0     H40972   5.591   5.963   7.927  1.2752  0.9551 -1.4440
 1022MOL0     H40973   5.386   6.049   7.814  0.1634  0.8277 -0.4208
 1022MOL0     H40974   5.369   6.101   7.982  0.3213  0.3854  0.1331
 1022MOL0     H40975   5.465   6.323   7.933  1.3596  1.0310 -1.0454
 1022MOL0     H40976   5.496   6.266   7.762  0.9959 -4.1121  0.6239
 1022MOL0     H40977   5.286   6.396   7.785  0.7462 -0.8199 -0.1444
 1022MOL0     H40978   5.220   6.277   7.899 -0.9356  0.5447 -0.3580
 1022MOL0     H40979   5.203   6.113   7.742  0.7327  1.6136  4.5014
 1022MOL0     H40980   5.113   6.253   7.681  1.1163  1.5810 -1.8796
 1022MOL0     H40981   5.406   6.182   7.600  1.7847  3.4139  0.1454
 1022MOL0     H40982   5.318   6.321   7.540 -0.3675  0.2728 -0.2762
 1022MOL0     H40983   5.321   6.130   7.379 -1.3251 -2.7643 -1.4484
 1022MOL0     H40984   5.242   6.025   7.492  0.4769  0.1619  0.6898
 1022MOL0     H40985   5.117   6.057   7.213  2.0636  2.9521 -2.0994
 1022MOL0     H40986   4.887   6.172   7.047 -0.9145  1.4072  0.5587
 1022MOL0     H40987   4.769   6.241   7.154 -1.6703 -2.0148  2.8736
 1022MOL0     H40988   4.823   5.947   7.114  1.1919 -1.2760  0.9828
 1022MOL0     H40989   4.795   5.996   7.281 -3.7386  2.2228  0.9218
 1022MOL0     H40990   4.586   6.127   7.210 -4.2901 -1.1865  2.8380
 1022MOL0     H40991   4.600   6.068   7.047  0.9010  5.4719  0.8102
 1022MOL0     H40992   4.606   5.901   7.310 -2.6375 -2.2504  0.8676
 1022MOL0     H40993   4.452   5.949   7.231  0.6888  0.7110 -0.2276
 1022MOL0     H40994   4.577   5.626   6.967 -0.0919  2.9866  1.9452
 1022MOL0     H40995   4.369   5.337   6.916 -2.7037  0.6204 -0.7982
 1022MOL0     H40996   4.496   5.439   6.840 -0.4430 -0.2424  1.7146
 1022MOL0     H40997   4.313   5.479   6.842 -4.0657 -2.2812  3.5181
 1022MOL0     H40998   4.097   5.149   7.316  1.1417 -0.8745 -0.9210
 1022MOL0     H40999   3.871   5.022   7.358  1.9055  0.3600  0.0708
 1022MOL0     H41000   3.726   4.889   7.055  1.3498  3.2529  0.6183
 1022MOL0     H41001   3.700   4.831   7.218  2.0756  0.7465  0.5950
 1022MOL0     H41002   3.472   4.973   7.066  0.2906  0.5959  1.3438
 1022MOL0     H41003   3.503   4.799   7.015  1.2185  1.1284 -2.1004
 1022MOL0     H41004   3.382   4.918   7.262  0.5580 -1.5390  3.4292
 1022MOL0     H41005   3.469   4.772   7.290  0.3289  1.0994  0.7450
 1022MOL0     H41006   3.237   4.803   7.101 -2.1990  0.7103  1.1019
 1022MOL0     H41007   3.217   4.766   7.259 -0.1383  1.7178 -1.2630
 1022MOL0     H41008   3.411   4.582   7.098  2.6487 -2.2974  4.1722
 1022MOL0     H41009   3.324   4.542   7.243 -0.7232  0.7932 -0.2036
 1022MOL0     H41010   3.115   4.578   7.077 -1.8353 -2.3203 -3.3298
 1022MOL0     H41011   3.198   4.424   7.097  0.8351  1.0364  1.5391
 1022MOL0     H41012   3.332   4.463   6.891  0.0890  1.7883 -1.4925
 1022MOL0     H41013   3.279   4.630   6.891 -2.7013  0.8167  0.0798
 1022MOL0     H41014   3.071   4.576   6.818  1.5576  2.3874  1.5381
 1022MOL0     H41015   3.073   4.413   6.889 -2.1742  1.5250 -0.5326
 1022MOL0     H41016   3.731   5.179   6.980 -1.9654  0.8714  2.0129
 1022MOL0     H41017   3.928   5.319   6.964 -2.1031 -0.4614  1.0390
 1022MOL0     H41018   4.228   5.619   7.305 -0.9729  0.2941 -0.5551
 1022MOL0     H41019   4.407   5.758   7.327 -1.1705  0.0515 -0.5409
 1022MOL0     H41020   5.624   6.196   8.328 -1.1014 -0.3820 -0.8099
 1022MOL0     H41021   5.704   6.192   8.568  0.9761  1.4249 -1.0246
 1022MOL0     H41022   6.183   6.291   8.816  0.5296 -0.4261  1.0959
 1022MOL0     H41023   6.228   6.333   9.048  1.5967  0.6851 -4.4690
 1022MOL0     H41024   6.184   6.343   9.401 -1.9290  0.3459  1.0630
 1022MOL0     H41025   6.185   6.404   9.240  0.5026  0.6298  0.6166
 1022MOL0     H41026   5.920   6.342   9.391 -1.6438  0.0137 -1.0049
 1022MOL0     H41027   5.952   6.406   9.229 -0.8376 -2.3893  0.0996
 1022MOL0     H41028   6.097   6.545   9.448  0.9168 -1.6551 -1.0533
 1022MOL0     H41029   6.016   6.595   9.295  2.0318  0.3191 -0.1864
 1022MOL0     H41030   5.896   6.692   9.517  3.8604 -1.9334  2.1356
 1022MOL0     H41031   5.872   6.525   9.563  2.6042 -0.2760 -0.0753
 1022MOL0     H41032   5.552   6.577   9.295 -0.6056 -3.3557  2.1525
 1022MOL0     H41033   5.935   6.075   9.183 -0.2998  4.0852  1.5768
 1022MOL0     H41034   5.749   6.000   8.943  1.1550  0.9321  2.6783
 1022MOL0     H41035   5.874   5.901   8.875 -1.5043  0.3287 -1.4923
 1022MOL0     H41036   5.858   5.916   9.056  0.6614 -1.3170 -0.4887
 1023MOL0     O41037   2.995   9.456   1.683  0.1025  0.1882  0.6335
 1023MOL0     C41038   3.027   9.347   1.643  0.2851 -0.1284  0.5467
 1023MOL0     O41039   3.139   9.280   1.681  0.1361  0.0225 -0.2701
 1023MOL0     C41040   3.238   9.362   1.731 -0.0495 -0.2984 -0.6034
 1023MOL0     C41041   3.286   9.321   1.855 -0.2787  0.2368  0.6952
 1023MOL0     C41042   3.387   9.389   1.922  0.0628  0.6475 -0.3407
 1023MOL0     C41043   3.440   9.509   1.870  0.6535  0.7250  0.2955
 1023MOL0     O41044   3.521   9.578   1.955 -0.8341  0.8191 -0.3263
 1023MOL0     C41045   3.604   9.680   1.898 -0.1332  0.4120 -0.1420
 1023MOL0     C41046   3.672   9.761   2.011 -0.6980  0.8527  0.6650
 1023MOL0     C41047   3.588   9.793   2.136 -0.0516 -0.4337 -0.1275
 1023MOL0     C41048   3.449   9.858   2.127 -0.4050  0.4617 -0.5752
 1023MOL0     C41049   3.389   9.840   2.272 -0.0878  0.2661  0.0754
 1023MOL0     C41050   3.278   9.942   2.279 -0.4628  0.0790  0.5816
 1023MOL0     C41051   3.207   9.937   2.412  0.0430 -0.4725  0.1537
 1023MOL0     C41052   3.123   9.812   2.445  0.4237 -0.4657  0.0614
 1023MOL0     N41053   3.019   9.786   2.344  0.2336  0.4616  0.8653
 1023MOL0     C41054   3.042   9.715   2.228  0.0489 -0.0446 -0.1401
 1023MOL0     C41055   2.936   9.749   2.146  0.1955 -0.1655 -0.1873
 1023MOL0     C41056   2.916   9.683   2.014 -0.2797 -0.1194  0.1065
 1023MOL0     C41057   3.008   9.733   1.900  0.2311  0.1027 -0.3219
 1023MOL0     C41058   3.067   9.872   1.905 -0.4384 -0.1401  0.4095
 1023MOL0     C41059   2.955   9.966   1.863 -0.2334  0.5846  0.7089
 1023MOL0     O41060   2.987  10.102   1.862 -0.3949 -1.0305 -0.1654
 1023MOL0     C41061   3.033  10.163   1.977  0.2499 -0.3801 -0.8736
 1023MOL0     C41062   3.120  10.273   1.964 -0.4494 -0.0560  0.6093
 1023MOL0     C41063   3.172  10.342   2.074 -0.1563  0.1207  0.0154
 1023MOL0     C41064   3.267  10.469   2.037 -0.3065  0.9500  0.0357
 1023MOL0     C41065   3.127  10.302   2.205  0.0093 -0.5614  0.1880
 1023MOL0     C41066   3.191  10.356   2.334  0.7668  0.8633 -0.5461
 1023MOL0     O41067   3.288  10.447   2.335 -0.7484 -0.6663  0.5967
 1023MOL0     C41068   3.346  10.494   2.447  0.2647  0.2919 -0.1229
 1023MOL0     C41069   3.362  10.423   2.564 -0.9163  0.7522  0.3802
 1023MOL0     C41070   3.438  10.477   2.675 -0.4203  0.1620 -0.0889
 1023MOL0     C41071   3.493  10.608   2.662 -0.3055  1.3576  0.7774
 1023MOL0     O41072   3.553  10.675   2.767  0.1300  0.4990  0.2828
 1023MOL0     C41073   3.480  10.678   2.888 -0.9245 -1.2462 -0.7381
 1023MOL0     C41074   3.572  10.728   2.996  0.2408 -0.0403 -0.4603
 1023MOL0     C41075   3.686  10.627   3.018 -0.6924  0.6628  0.0861
 1023MOL0     C41076   3.739  10.647   3.158 -0.2621  0.5001 -0.6520
 1023MOL0     C41077   3.857  10.552   3.193  0.2289 -0.9282  0.5411
 1023MOL0     C41078   3.916  10.597   3.330 -1.6285  0.2249  0.1599
 1023MOL0     C41079   4.040  10.514   3.363 -0.7178  0.7905  0.2181
 1023MOL0     C41080   4.000  10.383   3.430 -0.0334 -0.3835  0.2462
 1023MOL0    Cl41081   3.976  10.408   3.594 -0.1517  0.1147  0.0576
 1023MOL0     C41082   3.492  10.665   2.535 -0.5221  0.2353  0.1289
 1023MOL0     C41083   3.420  10.609   2.431 -0.4092  0.1487  0.5309
 1023MOL0     O41084   3.137  10.311   2.437  0.2775  0.0686 -0.4899
 1023MOL0     C41085   3.035  10.192   2.210  0.5181 -0.0945  1.0197
 1023MOL0     C41086   2.984  10.126   2.100 -0.9759  0.0363 -0.1802
 1023MOL0     N41087   2.845   9.832   2.219 -0.2663  0.3638  0.2844
 1023MOL0     N41088   2.901   9.846   2.332  0.6052 -0.1753 -0.3582
 1023MOL0     C41089   3.384   9.555   1.746  0.3953  1.0284 -0.2387
 1023MOL0     C41090   3.288   9.482   1.673 -0.6493 -0.9707  0.4698
 1023MOL0     C41091   2.953   9.284   1.527 -0.3525  0.5857 -0.0251
 1023MOL0     C41092   2.903   9.363   1.420  0.8361 -0.4910  0.3096
 1023MOL0     C41093   2.841   9.291   1.312 -0.6401 -0.1211  0.3755
 1023MOL0     C41094   2.829   9.153   1.311  0.1358 -1.0912  0.2396
 1023MOL0     O41095   2.801   9.093   1.190  0.4114 -0.2336  0.5695
 1023MOL0     C41096   2.747   8.957   1.197  0.4354  0.4631 -0.3871
 1023MOL0     C41097   2.629   8.937   1.296 -0.6333  0.4959 -0.5618
 1023MOL0     C41098   2.564   8.792   1.292 -0.4994 -0.1891  0.0654
 1023MOL0     C41099   2.645   8.676   1.340 -0.7083  0.3722  0.2418
 1023MOL0     C41100   2.651   8.651   1.488  1.3466  0.4718  0.7163
 1023MOL0     C41101   2.634   8.652   1.603 -0.1609 -0.4385  0.1082
 1023MOL0     C41102   2.889   9.083   1.414  0.0311 -0.8664 -0.9632
 1023MOL0     C41103   2.943   9.143   1.525  0.1068  0.3083 -0.4292
 1023MOL0     C41104   2.976   9.051   1.641 -0.7552  0.5738 -0.1395
 1023MOL0     H41105   3.263   9.222   1.892 -1.0717  0.6073  1.2423
 1023MOL0     H41106   3.419   9.337   2.012 -0.1531 -2.7494 -2.0530
 1023MOL0     H41107   3.559   9.757   1.834  0.1525  3.4605  3.0364
 1023MOL0     H41108   3.682   9.632   1.838 -0.2313  0.8031 -0.5849
 1023MOL0     H41109   3.754   9.697   2.045  0.2993  1.2841 -0.8121
 1023MOL0     H41110   3.706   9.856   1.969 -1.1043  0.9167  0.4845
 1023MOL0     H41111   3.565   9.698   2.186 -2.8118  0.9029  1.3824
 1023MOL0     H41112   3.643   9.852   2.209 -1.5915  1.7768 -0.6670
 1023MOL0     H41113   3.449   9.959   2.085  2.9147  1.2193  0.9091
 1023MOL0     H41114   3.395   9.791   2.060  1.3997 -0.2945 -1.3359
 1023MOL0     H41115   3.467   9.853   2.348  1.2970 -1.5177 -0.9698
 1023MOL0     H41116   3.354   9.736   2.280  0.0679  0.0591 -1.6317
 1023MOL0     H41117   3.331  10.036   2.266 -1.2264  0.5397  0.7655
 1023MOL0     H41118   3.199   9.930   2.204 -1.0697  1.8641  0.8995
 1023MOL0     H41119   3.143  10.026   2.404 -1.5196 -1.6210 -0.7118
 1023MOL0     H41120   3.272   9.954   2.498  0.2402  0.7038 -0.2096
 1023MOL0     H41121   3.189   9.725   2.449  1.9499  0.4554 -2.5517
 1023MOL0     H41122   3.073   9.828   2.541  2.5581  2.1254  0.8484
 1023MOL0     H41123   3.128   9.653   2.206 -0.8124 -0.4936 -2.4792
 1023MOL0     H41124   2.811   9.704   1.991 -0.0379 -1.2170 -2.2504
 1023MOL0     H41125   2.922   9.575   2.032 -3.3959 -0.3902  0.0686
 1023MOL0     H41126   3.100   9.673   1.902  1.3186  1.7310  0.6477
 1023MOL0     H41127   2.973   9.715   1.798  1.7745  1.4904 -1.1407
 1023MOL0     H41128   3.115   9.898   1.999  0.3458  0.0843 -0.0415
 1023MOL0     H41129   3.144   9.882   1.827  0.0195  2.7531  1.1435
 1023MOL0     H41130   2.911   9.942   1.766 -2.5142  0.2786  1.7724
 1023MOL0     H41131   2.873   9.948   1.933 -2.5878  0.7006 -1.8869
 1023MOL0     H41132   3.165  10.279   1.865  0.0312  0.7099  0.8701
 1023MOL0     H41133   3.236  10.504   1.938  1.9270  3.8169  0.2038
 1023MOL0     H41134   3.372  10.442   2.043 -0.4105  0.6768  0.8612
 1023MOL0     H41135   3.257  10.545   2.115  1.0388 -1.3363  2.6181
 1023MOL0     H41136   3.327  10.320   2.575  2.1718 -0.4031  0.2312
 1023MOL0     H41137   3.452  10.427   2.771 -3.5262 -1.6225 -0.4587
 1023MOL0     H41138   3.403  10.755   2.877  0.1665  0.0552  0.3542
 1023MOL0     H41139   3.430  10.582   2.907  0.4100 -2.3773 -2.6109
 1023MOL0     H41140   3.595  10.832   2.969 -2.6733  0.8217 -0.0006
 1023MOL0     H41141   3.510  10.733   3.087 -0.2681 -1.5886 -0.6942
 1023MOL0     H41142   3.753  10.633   2.931 -0.9306  0.4344 -0.1155
 1023MOL0     H41143   3.639  10.529   3.004 -3.1282  1.7398  0.2331
 1023MOL0     H41144   3.667  10.641   3.240 -0.4607 -0.9616 -0.9079
 1023MOL0     H41145   3.767  10.752   3.172 -0.8328  1.1901 -3.8897
 1023MOL0     H41146   3.823  10.448   3.194 -0.6544 -0.6734 -0.5974
 1023MOL0     H41147   3.928  10.556   3.110  2.1106  2.8544  2.0951
 1023MOL0     H41148   3.839  10.587   3.406 -2.7986  0.7261 -0.9234
 1023MOL0     H41149   3.936  10.704   3.327 -0.8050  0.1541  2.1501
 1023MOL0     H41150   4.085  10.583   3.434  0.5240 -3.0868  3.5767
 1023MOL0     H41151   4.102  10.491   3.276  2.3704 -1.6127  2.8084
 1023MOL0     H41152   4.076  10.307   3.410 -0.0997  0.2378 -2.9207
 1023MOL0     H41153   3.910  10.343   3.382 -0.2595  1.2861 -0.8131
 1023MOL0     H41154   3.528  10.767   2.539 -0.3904  0.1547  2.8236
 1023MOL0     H41155   3.418  10.663   2.337 -2.1488 -2.1397 -0.8401
 1023MOL0     H41156   2.985  10.149   2.296 -2.5412  0.6920 -0.2410
 1023MOL0     H41157   2.921  10.041   2.123 -1.1509  0.2715  0.2076
 1023MOL0     H41158   3.410   9.650   1.700 -0.6912 -0.4885 -4.4850
 1023MOL0     H41159   3.252   9.522   1.579  2.7650  1.0144 -0.1565
 1023MOL0     H41160   2.907   9.471   1.408  0.2958 -0.7341 -2.5535
 1023MOL0     H41161   2.810   9.341   1.221  1.8103  1.2561  0.2087
 1023MOL0     H41162   2.723   8.934   1.093 -2.9424  2.1782 -0.1159
 1023MOL0     H41163   2.826   8.887   1.225  0.5786  0.6186 -0.4020
 1023MOL0     H41164   2.555   9.015   1.275  0.3487  1.4483 -0.5760
 1023MOL0     H41165   2.678   8.938   1.394  1.0648 -0.9838 -1.3306
 1023MOL0     H41166   2.473   8.796   1.353  0.5591 -1.1658  1.7827
 1023MOL0     H41167   2.532   8.777   1.188  1.4948  1.4157 -0.8385
 1023MOL0     H41168   2.746   8.684   1.299 -0.9915  0.0540 -0.5311
 1023MOL0     H41169   2.604   8.583   1.300  2.8640 -0.8441 -0.9880
 1023MOL0     H41170   2.605   8.651   1.707 -1.3201 -0.0732 -0.1990
 1023MOL0     H41171   2.900   8.975   1.401 -0.8243 -0.9490 -1.0082
 1023MOL0     H41172   3.082   9.030   1.661 -0.6243  1.4898  0.1961
 1023MOL0     H41173   2.947   9.097   1.736  3.6862  2.9442  0.3712
 1023MOL0     H41174   2.928   8.954   1.635 -0.5037  0.5003 -1.1684
 1024MOL0     O41175   9.880   2.073   1.323  0.6739  0.3088  0.5177
 1024MOL0     C41176   9.826   2.118   1.217  0.2466  0.7234 -0.8816
 1024MOL0     O41177   9.817   2.252   1.183 -0.1114 -0.1235 -0.1367
 1024MOL0     C41178   9.867   2.340   1.277 -0.0597 -0.2944  0.3741
 1024MOL0     C41179   9.837   2.354   1.416  0.7706 -0.1641 -0.2967
 1024MOL0     C41180   9.879   2.458   1.490 -0.0169 -0.2700  0.0301
 1024MOL0     C41181   9.963   2.560   1.433 -0.2050 -0.8304 -1.4128
 1024MOL0     O41182   9.990   2.661   1.528 -0.1862 -0.5521  0.7791
 1024MOL0     C41183  10.104   2.743   1.486 -0.0720  1.0497  0.3866
 1024MOL0     C41184  10.113   2.877   1.564  0.7807 -0.2298 -0.2091
 1024MOL0     C41185  10.102   2.866   1.716  0.1300  0.3670 -0.2937
 1024MOL0     C41186  10.164   2.995   1.779  0.0365  0.4303  0.2807
 1024MOL0     C41187  10.166   2.970   1.931  0.1417 -0.4110 -0.7812
 1024MOL0     C41188  10.254   2.863   1.985  0.6431  0.2418 -0.2279
 1024MOL0     C41189  10.325   2.919   2.102  0.0036 -0.3206  0.0457
 1024MOL0     C41190  10.405   2.814   2.177  0.4577 -0.4322  0.3517
 1024MOL0     N41191  10.305   2.717   2.237  0.6619  0.1805 -0.4444
 1024MOL0     C41192  10.212   2.754   2.336  0.7041  0.4181  0.2243
 1024MOL0     C41193  10.124   2.652   2.334  0.0028  0.2970  0.9312
 1024MOL0     C41194  10.015   2.622   2.433 -0.1122 -0.1485  0.2149
 1024MOL0     C41195   9.891   2.695   2.418  0.6433  0.3662 -0.2329
 1024MOL0     C41196   9.786   2.642   2.519  0.2185 -0.0102 -0.0448
 1024MOL0     C41197   9.649   2.624   2.458 -0.3934  0.0095  0.5189
 1024MOL0     O41198   9.591   2.754   2.430  0.0881  0.4683  0.1479
 1024MOL0     C41199   9.460   2.766   2.415 -0.5645  0.6215  1.5012
 1024MOL0     C41200   9.369   2.668   2.440  0.3252  0.0461  0.6762
 1024MOL0     C41201   9.227   2.677   2.419  0.2250  0.7509  0.6431
 1024MOL0     C41202   9.142   2.556   2.442 -1.2988 -0.1863  0.7776
 1024MOL0     C41203   9.177   2.802   2.365 -0.7052  0.2637 -0.2294
 1024MOL0     C41204   9.036   2.815   2.330 -0.3451 -0.5750 -0.2629
 1024MOL0     O41205   9.006   2.896   2.219 -0.3227  0.3871 -0.9365
 1024MOL0     C41206   8.872   2.907   2.174 -0.3104  0.3192 -1.8681
 1024MOL0     C41207   8.786   2.797   2.158  1.0368  0.5381  0.4062
 1024MOL0     C41208   8.647   2.813   2.119 -0.6821  0.1966 -0.7416
 1024MOL0     C41209   8.593   2.945   2.095 -0.7581 -0.1325 -0.6354
 1024MOL0     O41210   8.464   2.965   2.062  0.5419  0.4963  0.8853
 1024MOL0     C41211   8.405   2.872   1.971  0.0531  0.9222 -0.4466
 1024MOL0     C41212   8.258   2.896   1.960 -1.0206  0.0317 -1.2967
 1024MOL0     C41213   8.177   2.811   1.873 -0.3090  1.2637 -0.8941
 1024MOL0     C41214   8.034   2.843   1.901  0.1759  0.3462  0.1966
 1024MOL0     C41215   7.941   2.749   1.815  0.3620 -0.5123 -1.3466
 1024MOL0     C41216   7.792   2.760   1.828 -0.2620  1.2797 -0.2745
 1024MOL0     C41217   7.719   2.661   1.735  0.1835  0.9846 -0.4130
 1024MOL0     C41218   7.721   2.507   1.776 -1.5458 -0.2067  0.6243
 1024MOL0    Cl41219   7.600   2.471   1.908 -0.4199  0.0872 -0.0018
 1024MOL0     C41220   8.681   3.054   2.111  0.1708  0.5201  0.3149
 1024MOL0     C41221   8.817   3.033   2.152  0.0228 -0.0358 -0.2146
 1024MOL0     O41222   8.951   2.768   2.403 -0.2803 -0.1400  0.1729
 1024MOL0     C41223   9.266   2.909   2.326  0.3847  0.1545  0.0238
 1024MOL0     C41224   9.402   2.888   2.356 -0.0082 -0.5839 -0.1250
 1024MOL0     N41225  10.165   2.560   2.243  0.5828 -0.3401 -0.1665
 1024MOL0     N41226  10.280   2.600   2.187  0.3571  0.0152 -0.8534
 1024MOL0     C41227   9.994   2.554   1.292  0.2173 -0.4179 -0.5178
 1024MOL0     C41228   9.952   2.444   1.221  0.1759 -0.7020  1.1176
 1024MOL0     C41229   9.802   2.017   1.113 -0.0774  0.0349  0.0051
 1024MOL0     C41230   9.736   1.903   1.158 -0.0661 -0.6039  0.7102
 1024MOL0     C41231   9.712   1.798   1.067  0.8177 -0.0608 -1.0734
 1024MOL0     C41232   9.753   1.810   0.935 -0.1801  0.4170  0.3740
 1024MOL0     O41233   9.735   1.709   0.843 -0.1701 -0.3256 -1.2001
 1024MOL0     C41234   9.686   1.747   0.716 -1.0075 -0.7546 -0.3537
 1024MOL0     C41235   9.582   1.635   0.672 -0.6808 -0.5304  1.0372
 1024MOL0     C41236   9.584   1.639   0.517 -0.0574  0.7741  0.6537
 1024MOL0     C41237   9.496   1.532   0.446  0.7742 -0.1610 -0.7491
 1024MOL0     C41238   9.507   1.389   0.482  0.2693  0.4350  0.3079
 1024MOL0     C41239   9.521   1.271   0.506  0.8904  0.4978  0.2064
 1024MOL0     C41240   9.819   1.931   0.900 -0.4307  0.9405  0.5963
 1024MOL0     C41241   9.846   2.030   0.981 -0.3734 -0.6875 -0.5128
 1024MOL0     C41242   9.933   2.148   0.935  0.0611  0.0251 -0.1286
 1024MOL0     H41243   9.772   2.278   1.460 -0.2851  0.0185 -1.4950
 1024MOL0     H41244   9.846   2.479   1.591  0.0068  0.5542 -0.1285
 1024MOL0     H41245  10.086   2.782   1.385 -0.4116  1.0984  0.4662
 1024MOL0     H41246  10.196   2.684   1.492  0.6276  1.5440 -3.0641
 1024MOL0     H41247  10.207   2.919   1.527  0.5179  0.8384  0.3154
 1024MOL0     H41248  10.024   2.935   1.536  0.0054 -1.8462 -1.2803
 1024MOL0     H41249   9.999   2.845   1.746  0.4120  3.3585  3.5492
 1024MOL0     H41250  10.155   2.776   1.751  0.1988 -0.0557 -1.4571
 1024MOL0     H41251  10.264   3.016   1.740 -0.5448 -1.3136 -2.3237
 1024MOL0     H41252  10.101   3.081   1.754  2.2957  2.4435  1.0002
 1024MOL0     H41253  10.064   2.943   1.958  0.4458 -2.4300 -1.4650
 1024MOL0     H41254  10.185   3.068   1.975 -0.2309  0.2780 -2.0948
 1024MOL0     H41255  10.189   2.776   2.004  2.4695 -1.9866 -3.2932
 1024MOL0     H41256  10.324   2.823   1.911 -1.3130 -0.3170 -1.8805
 1024MOL0     H41257  10.258   2.968   2.173  0.2675 -0.3806  0.3385
 1024MOL0     H41258  10.390   2.994   2.056  1.5233 -1.4574  0.2889
 1024MOL0     H41259  10.471   2.763   2.106  0.8750  0.9693 -0.3160
 1024MOL0     H41260  10.476   2.865   2.242  1.9181 -3.2079  1.0960
 1024MOL0     H41261  10.208   2.843   2.398 -2.7038  1.9205 -1.9004
 1024MOL0     H41262  10.071   2.641   2.525 -0.4092 -0.5491  0.4824
 1024MOL0     H41263   9.992   2.517   2.411  0.1335  0.3353 -2.7617
 1024MOL0     H41264   9.900   2.802   2.442  0.3937  0.0801  1.2087
 1024MOL0     H41265   9.857   2.709   2.315  1.4882  2.1211 -0.3161
 1024MOL0     H41266   9.820   2.550   2.569 -2.3289 -1.9468 -1.5886
 1024MOL0     H41267   9.774   2.716   2.599  2.1065  2.1881 -1.6702
 1024MOL0     H41268   9.656   2.565   2.366  0.1456  1.4420 -0.4162
 1024MOL0     H41269   9.592   2.583   2.541  0.6592 -1.7120  0.4380
 1024MOL0     H41270   9.398   2.567   2.466 -0.9715 -0.6075 -0.2819
 1024MOL0     H41271   9.092   2.532   2.348 -1.8172  4.3308 -0.3161
 1024MOL0     H41272   9.062   2.558   2.517 -2.3069  1.6894 -0.2724
 1024MOL0     H41273   9.208   2.477   2.479 -0.6485  0.2538  0.5762
 1024MOL0     H41274   8.824   2.695   2.161 -1.3940 -0.4271  1.0555
 1024MOL0     H41275   8.597   2.719   2.095  4.3597 -2.6985 -1.4007
 1024MOL0     H41276   8.456   2.896   1.877  3.8503  0.8401  1.3945
 1024MOL0     H41277   8.413   2.766   1.997 -0.3104  1.0426  0.1780
 1024MOL0     H41278   8.221   2.902   2.062  2.3186  0.9970 -0.0194
 1024MOL0     H41279   8.250   2.997   1.918 -2.2067  1.7470  2.5839
 1024MOL0     H41280   8.208   2.713   1.911 -1.4103  1.0770 -0.4224
 1024MOL0     H41281   8.202   2.829   1.768  0.4394  4.1392 -0.3150
 1024MOL0     H41282   8.023   2.948   1.871  2.9897  0.8077  0.5018
 1024MOL0     H41283   8.014   2.827   2.007  1.4951  0.5581  0.4964
 1024MOL0     H41284   7.964   2.766   1.710  1.8609  0.5505 -0.8760
 1024MOL0     H41285   7.965   2.647   1.845  0.3043 -0.6391 -1.7331
 1024MOL0     H41286   7.756   2.858   1.794  1.4803  1.3526 -2.0666
 1024MOL0     H41287   7.759   2.743   1.931 -0.8690 -0.6384 -0.7439
 1024MOL0     H41288   7.749   2.690   1.634 -1.7095  3.8892 -0.2545
 1024MOL0     H41289   7.612   2.682   1.733 -0.1707 -0.6928 -0.3946
 1024MOL0     H41290   7.817   2.481   1.822 -1.3482  0.4264  0.5778
 1024MOL0     H41291   7.716   2.439   1.691 -1.3064  0.7863 -0.1983
 1024MOL0     H41292   8.638   3.153   2.099 -2.5202 -0.6559 -0.6293
 1024MOL0     H41293   8.888   3.112   2.174  0.8183 -1.0782  1.0454
 1024MOL0     H41294   9.226   3.001   2.283 -0.4850  0.2467  0.9831
 1024MOL0     H41295   9.465   2.972   2.329  1.0969 -1.4333 -0.2473
 1024MOL0     H41296  10.075   2.611   1.248  0.7471 -0.0460  0.8966
 1024MOL0     H41297   9.981   2.444   1.116 -2.1353 -1.5407  0.4040
 1024MOL0     H41298   9.703   1.902   1.261 -1.2582  0.5479  0.3662
 1024MOL0     H41299   9.677   1.705   1.110  3.8506 -0.6460  0.3788
 1024MOL0     H41300   9.647   1.848   0.702  1.7577  0.5819  0.9087
 1024MOL0     H41301   9.770   1.750   0.645  0.4975  1.8051  1.3777
 1024MOL0     H41302   9.481   1.656   0.709 -3.3895 -5.2181 -2.5352
 1024MOL0     H41303   9.613   1.536   0.707 -1.0047 -1.1868 -0.4377
 1024MOL0     H41304   9.554   1.739   0.483 -0.2593 -0.1167 -1.9932
 1024MOL0     H41305   9.685   1.622   0.478 -1.6008 -2.9363 -2.3123
 1024MOL0     H41306   9.520   1.533   0.339  0.7191  1.8869 -0.7815
 1024MOL0     H41307   9.391   1.561   0.457  0.3242 -2.1976  1.0512
 1024MOL0     H41308   9.532   1.164   0.505 -0.6735  0.3273 -0.7006
 1024MOL0     H41309   9.864   1.937   0.802 -1.4232  0.5710  0.1032
 1024MOL0     H41310   9.875   2.239   0.950 -2.4943 -1.6106  0.5931
 1024MOL0     H41311  10.031   2.144   0.985  0.2017 -2.4454 -0.4776
 1024MOL0     H41312   9.939   2.144   0.826 -1.3073 -1.8346 -0.1738
  11.62253  11.62253  11.62253
